/*--------------------------------*- C++ -*----------------------------------*\
| =========                 |                                                 |
| \\      /  F ield         | OpenFOAM: The Open Source CFD Toolbox           |
|  \\    /   O peration     | Version:  v1906                                 |
|   \\  /    A nd           | Web:      www.OpenFOAM.com                      |
|    \\/     M anipulation  |                                                 |
\*---------------------------------------------------------------------------*/
FoamFile
{
    version     2.0;
    format      ascii;
    class       volScalarField;
    location    "750";
    object      epsilon;
}
// * * * * * * * * * * * * * * * * * * * * * * * * * * * * * * * * * * * * * //

dimensions      [0 2 -3 0 0 0 0];


internalField   nonuniform List<scalar> 
171728
(
4.95567e-07
4.9733e-07
4.9733e-07
4.99575e-07
4.45573e-07
4.53735e-07
4.53737e-07
4.6371e-07
4.03752e-07
4.18513e-07
4.18517e-07
4.39411e-07
3.68363e-07
3.88552e-07
3.88558e-07
4.17667e-07
3.38015e-07
3.62102e-07
3.6211e-07
3.96081e-07
3.11646e-07
3.38273e-07
3.38281e-07
3.74581e-07
2.88473e-07
3.16638e-07
3.16646e-07
3.5371e-07
2.67923e-07
2.97021e-07
2.97031e-07
3.34147e-07
2.4958e-07
2.7937e-07
2.79379e-07
3.16484e-07
2.33137e-07
2.63679e-07
2.63688e-07
3.01161e-07
2.18366e-07
2.49955e-07
2.49964e-07
2.88492e-07
2.0509e-07
2.38198e-07
2.38208e-07
2.78695e-07
1.93172e-07
2.28411e-07
2.28421e-07
2.71876e-07
1.82498e-07
2.206e-07
2.20611e-07
2.68162e-07
1.72979e-07
2.14772e-07
2.14785e-07
2.67641e-07
1.64541e-07
2.10937e-07
2.10952e-07
2.70491e-07
1.57121e-07
2.09106e-07
2.09125e-07
2.76695e-07
1.50668e-07
2.09295e-07
2.09318e-07
2.8628e-07
1.45137e-07
2.11549e-07
2.11576e-07
2.99232e-07
1.40492e-07
2.15886e-07
2.15917e-07
3.15611e-07
1.36703e-07
2.22326e-07
2.2236e-07
3.35365e-07
1.33748e-07
2.30886e-07
2.30923e-07
3.58396e-07
1.31605e-07
2.41553e-07
2.41593e-07
3.84532e-07
1.30258e-07
2.54306e-07
2.5435e-07
4.13527e-07
1.29696e-07
2.691e-07
2.69149e-07
4.45036e-07
1.29921e-07
2.8587e-07
2.85924e-07
4.78682e-07
1.3091e-07
3.04529e-07
3.04588e-07
5.14021e-07
1.32666e-07
3.24975e-07
3.25038e-07
5.50611e-07
1.35188e-07
3.47088e-07
3.47156e-07
5.88013e-07
1.38479e-07
3.70727e-07
3.70801e-07
6.25794e-07
1.42541e-07
3.95755e-07
3.95832e-07
6.63579e-07
1.47378e-07
4.22005e-07
4.22087e-07
7.01035e-07
1.52997e-07
4.4932e-07
4.49406e-07
7.37893e-07
1.59402e-07
4.77521e-07
4.77609e-07
7.73926e-07
1.66599e-07
5.06435e-07
5.0653e-07
8.09006e-07
1.74588e-07
5.35885e-07
5.35979e-07
8.42939e-07
1.8338e-07
5.65713e-07
5.65815e-07
8.75775e-07
1.92952e-07
5.95708e-07
5.9581e-07
9.07388e-07
2.03307e-07
6.25725e-07
6.25831e-07
9.37805e-07
2.14428e-07
6.55609e-07
6.55719e-07
9.67021e-07
2.26289e-07
6.85186e-07
6.85298e-07
9.95024e-07
2.38868e-07
7.14346e-07
7.14461e-07
1.02184e-06
2.52126e-07
7.42952e-07
7.4307e-07
1.0475e-06
2.66021e-07
7.709e-07
7.71016e-07
1.07204e-06
2.80516e-07
7.98114e-07
7.98234e-07
1.09552e-06
2.9553e-07
8.24475e-07
8.24588e-07
1.11791e-06
3.10983e-07
8.49901e-07
8.50018e-07
1.13923e-06
3.2685e-07
8.74426e-07
8.74539e-07
1.15962e-06
3.43039e-07
8.97958e-07
8.98067e-07
1.17904e-06
3.59441e-07
9.20449e-07
9.20564e-07
1.19748e-06
3.76021e-07
9.41953e-07
9.42055e-07
1.21504e-06
3.9263e-07
9.6239e-07
9.62501e-07
1.23171e-06
4.09309e-07
9.81911e-07
9.82006e-07
1.24757e-06
4.25783e-07
1.00023e-06
1.00034e-06
1.26245e-06
4.42142e-07
1.01775e-06
1.01786e-06
1.27668e-06
4.58403e-07
1.03431e-06
1.03439e-06
1.2902e-06
4.74155e-07
1.04973e-06
1.04984e-06
1.30277e-06
4.89576e-07
1.06432e-06
1.06443e-06
1.31468e-06
5.04776e-07
1.07804e-06
1.07809e-06
1.32602e-06
5.19357e-07
1.09086e-06
1.09097e-06
1.33653e-06
5.33377e-07
1.10259e-06
1.10271e-06
1.34633e-06
5.46963e-07
1.11393e-06
1.11388e-06
1.35563e-06
5.60217e-07
1.12406e-06
1.12439e-06
1.36457e-06
5.72364e-07
1.13366e-06
1.13353e-06
1.37214e-06
5.84096e-07
1.14192e-06
1.1419e-06
1.37915e-06
5.94584e-07
1.14925e-06
1.14954e-06
1.38536e-06
6.06174e-07
1.15807e-06
1.15839e-06
1.39407e-06
6.18065e-07
1.16667e-06
1.1666e-06
1.4014e-06
6.23701e-07
1.16813e-06
1.16759e-06
1.40043e-06
6.32309e-07
1.17394e-06
1.17388e-06
1.40707e-06
6.4263e-07
1.17912e-06
1.18292e-06
1.41883e-06
6.52202e-07
1.19248e-06
1.19007e-06
1.42446e-06
6.53451e-07
1.18552e-06
1.18073e-06
1.40573e-06
6.44266e-07
1.15451e-06
1.1551e-06
1.37523e-06
6.6305e-07
1.19477e-06
1.20194e-06
1.44948e-06
7.22912e-07
1.28367e-06
1.28398e-06
1.54327e-06
7.0878e-07
1.22992e-06
1.22318e-06
1.45807e-06
6.24896e-07
1.10292e-06
1.10284e-06
1.31368e-06
6.15566e-07
1.11376e-06
1.11747e-06
1.35041e-06
6.92002e-07
1.2089e-06
1.21008e-06
1.43988e-06
7.1603e-07
1.21948e-06
1.22809e-06
1.45846e-06
6.99726e-07
1.20661e-06
1.20735e-06
1.45917e-06
6.87995e-07
1.19981e-06
1.19129e-06
1.43832e-06
6.9465e-07
1.21212e-06
1.21054e-06
1.44284e-06
7.23125e-07
1.24371e-06
1.23135e-06
1.47944e-06
7.07985e-07
1.19239e-06
1.18393e-06
1.427e-06
6.48421e-07
1.10966e-06
1.13023e-06
1.34014e-06
6.41425e-07
1.12487e-06
1.15401e-06
1.37578e-06
7.05722e-07
1.22644e-06
1.22311e-06
1.4816e-06
7.33383e-07
1.24016e-06
1.21567e-06
1.4791e-06
6.94696e-07
1.16072e-06
1.14536e-06
1.38247e-06
6.55531e-07
1.11885e-06
1.12814e-06
1.35056e-06
6.61369e-07
1.14459e-06
1.16603e-06
1.39563e-06
6.87933e-07
1.18223e-06
1.18708e-06
1.42753e-06
6.76089e-07
1.12744e-06
1.11941e-06
1.37996e-06
5.06417e-07
5.05584e-07
5.05582e-07
5.06417e-07
5.05583e-07
5.05582e-07
5.09649e-07
5.09649e-07
5.09649e-07
5.09649e-07
5.05584e-07
5.05584e-07
5.06418e-07
5.05584e-07
5.05583e-07
5.06418e-07
4.99575e-07
4.67237e-07
4.97331e-07
4.97335e-07
4.63713e-07
4.63721e-07
4.99575e-07
4.67235e-07
4.97335e-07
4.97336e-07
4.63718e-07
4.63724e-07
4.97332e-07
4.63709e-07
4.63714e-07
4.99575e-07
4.67241e-07
4.97334e-07
4.6371e-07
4.63719e-07
4.6724e-07
4.63709e-07
4.41426e-07
4.5374e-07
4.53748e-07
4.26738e-07
4.26747e-07
4.63708e-07
4.4142e-07
4.53744e-07
4.53751e-07
4.26739e-07
4.26751e-07
4.53741e-07
4.26729e-07
4.26741e-07
4.63711e-07
4.41431e-07
4.53744e-07
4.26734e-07
4.26741e-07
4.41429e-07
4.39407e-07
4.19283e-07
4.18522e-07
4.1853e-07
3.95676e-07
3.95682e-07
4.39405e-07
4.19275e-07
4.18522e-07
4.18535e-07
3.95672e-07
3.95689e-07
4.18525e-07
3.95663e-07
3.95679e-07
4.39413e-07
4.19289e-07
4.18523e-07
3.95669e-07
3.95673e-07
4.19287e-07
4.17662e-07
3.97645e-07
3.88566e-07
3.88571e-07
3.68461e-07
3.68466e-07
4.17656e-07
3.97636e-07
3.8856e-07
3.88578e-07
3.68452e-07
3.68473e-07
3.88569e-07
3.68444e-07
3.68464e-07
4.17669e-07
3.97651e-07
3.88562e-07
3.68452e-07
3.68454e-07
3.97649e-07
3.96076e-07
3.76086e-07
3.6212e-07
3.62124e-07
3.44033e-07
3.44036e-07
3.96069e-07
3.76076e-07
3.62109e-07
3.62131e-07
3.4402e-07
3.44043e-07
3.62123e-07
3.44013e-07
3.44036e-07
3.96082e-07
3.76091e-07
3.62111e-07
3.44022e-07
3.44021e-07
3.7609e-07
3.74575e-07
3.55111e-07
3.38293e-07
3.38295e-07
3.21875e-07
3.21876e-07
3.74568e-07
3.55101e-07
3.38279e-07
3.38303e-07
3.21858e-07
3.21884e-07
3.38296e-07
3.21853e-07
3.21877e-07
3.74581e-07
3.55117e-07
3.3828e-07
3.21862e-07
3.2186e-07
3.55116e-07
3.53704e-07
3.35395e-07
3.16659e-07
3.16661e-07
3.01763e-07
3.01764e-07
3.53696e-07
3.35385e-07
3.16642e-07
3.16668e-07
3.01745e-07
3.01771e-07
3.16662e-07
3.0174e-07
3.01765e-07
3.5371e-07
3.35401e-07
3.16644e-07
3.01749e-07
3.01746e-07
3.354e-07
3.34141e-07
3.17533e-07
2.97044e-07
2.97045e-07
2.83623e-07
2.83623e-07
3.34134e-07
3.17523e-07
2.97026e-07
2.97053e-07
2.83603e-07
2.83631e-07
2.97047e-07
2.83599e-07
2.83625e-07
3.34148e-07
3.17539e-07
2.97027e-07
2.83608e-07
2.83604e-07
3.17538e-07
3.16478e-07
3.01975e-07
2.79394e-07
2.79394e-07
2.67442e-07
2.67442e-07
3.1647e-07
3.01965e-07
2.79374e-07
2.79402e-07
2.67421e-07
2.67449e-07
2.79396e-07
2.67417e-07
2.67443e-07
3.16485e-07
3.01981e-07
2.79375e-07
2.67426e-07
2.67421e-07
3.01981e-07
3.01155e-07
2.8904e-07
2.63704e-07
2.63704e-07
2.53227e-07
2.53227e-07
3.01146e-07
2.89029e-07
2.63682e-07
2.63711e-07
2.53204e-07
2.53234e-07
2.63705e-07
2.532e-07
2.53228e-07
3.01162e-07
2.89047e-07
2.63683e-07
2.5321e-07
2.53205e-07
2.89046e-07
2.88486e-07
2.7895e-07
2.49981e-07
2.49981e-07
2.40981e-07
2.4098e-07
2.88477e-07
2.78938e-07
2.49958e-07
2.49989e-07
2.40956e-07
2.40988e-07
2.49982e-07
2.40952e-07
2.4098e-07
2.88493e-07
2.78958e-07
2.49959e-07
2.40961e-07
2.40957e-07
2.78955e-07
2.78688e-07
2.71829e-07
2.38227e-07
2.38227e-07
2.30702e-07
2.30702e-07
2.78679e-07
2.71816e-07
2.38203e-07
2.38235e-07
2.30676e-07
2.3071e-07
2.38227e-07
2.3067e-07
2.30701e-07
2.78696e-07
2.71837e-07
2.38204e-07
2.30681e-07
2.30676e-07
2.71836e-07
2.71868e-07
2.67861e-07
2.28441e-07
2.28443e-07
2.22398e-07
2.224e-07
2.71857e-07
2.67847e-07
2.28417e-07
2.28451e-07
2.22372e-07
2.22408e-07
2.28442e-07
2.22364e-07
2.22397e-07
2.71877e-07
2.67871e-07
2.28417e-07
2.22375e-07
2.22371e-07
2.67869e-07
2.68153e-07
2.66978e-07
2.20632e-07
2.20637e-07
2.16076e-07
2.1608e-07
2.68141e-07
2.66963e-07
2.20608e-07
2.20645e-07
2.16048e-07
2.16088e-07
2.20634e-07
2.16038e-07
2.16074e-07
2.68163e-07
2.6699e-07
2.20608e-07
2.1605e-07
2.16047e-07
2.66988e-07
2.67632e-07
2.69152e-07
2.1481e-07
2.14815e-07
2.11744e-07
2.11752e-07
2.67617e-07
2.69134e-07
2.14783e-07
2.14824e-07
2.11717e-07
2.11761e-07
2.14809e-07
2.11701e-07
2.11741e-07
2.67642e-07
2.69165e-07
2.14782e-07
2.11716e-07
2.11714e-07
2.69163e-07
2.70481e-07
2.7466e-07
2.10981e-07
2.10989e-07
2.09414e-07
2.09422e-07
2.70464e-07
2.74638e-07
2.10954e-07
2.10999e-07
2.09386e-07
2.09435e-07
2.10978e-07
2.09363e-07
2.09408e-07
2.70493e-07
2.74675e-07
2.1095e-07
2.09381e-07
2.0938e-07
2.74672e-07
2.76685e-07
2.83544e-07
2.09157e-07
2.09166e-07
2.09128e-07
2.09136e-07
2.76663e-07
2.8352e-07
2.0913e-07
2.09178e-07
2.091e-07
2.09153e-07
2.09152e-07
2.0907e-07
2.0912e-07
2.76698e-07
2.83562e-07
2.09123e-07
2.09092e-07
2.09091e-07
2.83557e-07
2.8627e-07
2.95813e-07
2.09354e-07
2.09363e-07
2.10851e-07
2.10857e-07
2.86243e-07
2.95783e-07
2.09327e-07
2.09381e-07
2.10821e-07
2.10881e-07
2.09347e-07
2.10784e-07
2.10841e-07
2.86283e-07
2.95832e-07
2.09317e-07
2.1081e-07
2.10811e-07
2.95827e-07
2.99219e-07
3.115e-07
2.11616e-07
2.11626e-07
2.14675e-07
2.14684e-07
2.99188e-07
3.11467e-07
2.11588e-07
2.11649e-07
2.14644e-07
2.14709e-07
2.11607e-07
2.14599e-07
2.14662e-07
2.99236e-07
3.11523e-07
2.11577e-07
2.14628e-07
2.14632e-07
3.11516e-07
3.15596e-07
3.30564e-07
2.15962e-07
2.15975e-07
2.20595e-07
2.20616e-07
3.15562e-07
3.30527e-07
2.15933e-07
2.16e-07
2.20565e-07
2.20641e-07
2.15951e-07
2.20516e-07
2.20586e-07
3.15616e-07
3.30591e-07
2.1592e-07
2.20549e-07
2.20554e-07
3.30583e-07
3.35346e-07
3.52915e-07
2.22404e-07
2.22429e-07
2.28629e-07
2.28662e-07
3.35308e-07
3.52875e-07
2.22377e-07
2.22454e-07
2.28601e-07
2.28688e-07
2.22398e-07
2.28549e-07
2.28626e-07
3.35371e-07
3.52948e-07
2.22365e-07
2.28584e-07
2.28592e-07
3.5294e-07
3.58374e-07
3.784e-07
2.30967e-07
2.31003e-07
2.38774e-07
2.38817e-07
3.58335e-07
3.78358e-07
2.30941e-07
2.31029e-07
2.38746e-07
2.38844e-07
2.30965e-07
2.3869e-07
2.38774e-07
3.58402e-07
3.78439e-07
2.3093e-07
2.38728e-07
2.38738e-07
3.78431e-07
3.84505e-07
4.06788e-07
2.41638e-07
2.41683e-07
2.51015e-07
2.51065e-07
3.84465e-07
4.0674e-07
2.41611e-07
2.41711e-07
2.50985e-07
2.51094e-07
2.41639e-07
2.50925e-07
2.51018e-07
3.84539e-07
4.06829e-07
2.41602e-07
2.50966e-07
2.5098e-07
4.06824e-07
4.13495e-07
4.37749e-07
2.54398e-07
2.5445e-07
2.6531e-07
2.65369e-07
4.13449e-07
4.37704e-07
2.54369e-07
2.5448e-07
2.65277e-07
2.654e-07
2.54402e-07
2.65214e-07
2.65316e-07
4.1353e-07
4.378e-07
2.54364e-07
2.65259e-07
2.65279e-07
4.37792e-07
4.44998e-07
4.70917e-07
2.69199e-07
2.69258e-07
2.81603e-07
2.81666e-07
4.44953e-07
4.70862e-07
2.69167e-07
2.69291e-07
2.81566e-07
2.817e-07
2.69205e-07
2.81497e-07
2.81612e-07
4.45042e-07
4.70968e-07
2.69168e-07
2.81547e-07
2.81573e-07
4.70966e-07
4.78637e-07
5.05853e-07
2.85979e-07
2.86042e-07
2.99807e-07
2.99876e-07
4.78585e-07
5.05799e-07
2.85942e-07
2.86078e-07
2.99764e-07
2.99911e-07
2.85988e-07
2.99693e-07
2.99819e-07
4.78682e-07
5.05913e-07
2.85949e-07
2.99747e-07
2.99777e-07
5.05912e-07
5.13967e-07
5.42128e-07
3.04646e-07
3.04714e-07
3.19827e-07
3.19899e-07
5.13915e-07
5.4207e-07
3.04604e-07
3.04753e-07
3.19776e-07
3.19937e-07
3.04659e-07
3.19703e-07
3.1984e-07
5.1402e-07
5.42194e-07
3.04616e-07
3.19762e-07
3.19793e-07
5.42191e-07
5.50554e-07
5.79292e-07
3.25102e-07
3.25172e-07
3.41544e-07
3.41619e-07
5.50499e-07
5.79229e-07
3.25053e-07
3.25213e-07
3.41485e-07
3.4166e-07
3.25116e-07
3.41411e-07
3.41562e-07
5.50612e-07
5.79362e-07
3.25068e-07
3.41474e-07
3.41508e-07
5.79365e-07
5.87947e-07
6.16922e-07
3.47224e-07
3.47296e-07
3.64826e-07
3.64902e-07
5.87889e-07
6.16855e-07
3.47166e-07
3.47341e-07
3.64758e-07
3.64944e-07
3.47242e-07
3.64682e-07
3.64847e-07
5.8801e-07
6.16993e-07
3.47186e-07
3.6475e-07
3.64785e-07
6.16999e-07
6.25724e-07
6.54624e-07
3.70874e-07
3.70944e-07
3.8953e-07
3.89609e-07
6.25659e-07
6.5456e-07
3.70808e-07
3.70995e-07
3.89453e-07
3.89652e-07
3.70895e-07
3.89378e-07
3.89553e-07
6.25786e-07
6.54703e-07
3.70832e-07
3.8945e-07
3.89483e-07
6.54707e-07
6.63504e-07
6.92067e-07
3.95911e-07
3.95979e-07
4.15497e-07
4.15573e-07
6.63443e-07
6.91994e-07
3.95835e-07
3.96033e-07
4.1541e-07
4.15621e-07
3.95935e-07
4.15335e-07
4.15525e-07
6.63573e-07
6.92144e-07
3.95863e-07
4.15412e-07
4.15446e-07
6.92154e-07
7.00955e-07
7.28971e-07
4.22169e-07
4.22241e-07
4.42573e-07
4.42646e-07
7.00887e-07
7.28894e-07
4.22084e-07
4.22294e-07
4.42475e-07
4.42698e-07
4.22198e-07
4.42403e-07
4.42604e-07
7.01023e-07
7.29051e-07
4.22116e-07
4.42483e-07
4.42516e-07
7.2906e-07
7.37812e-07
7.65097e-07
4.49492e-07
4.49565e-07
4.70571e-07
4.70643e-07
7.37741e-07
7.65016e-07
4.49397e-07
4.49618e-07
4.70463e-07
4.70695e-07
4.49524e-07
4.70394e-07
4.70604e-07
7.37882e-07
7.65179e-07
4.49434e-07
4.70477e-07
4.70506e-07
7.65189e-07
7.73845e-07
8.00308e-07
4.77699e-07
4.77771e-07
4.99337e-07
4.99405e-07
7.7377e-07
8.00219e-07
4.77594e-07
4.77824e-07
4.99221e-07
4.99462e-07
4.77733e-07
4.99152e-07
4.99377e-07
7.73916e-07
8.00385e-07
4.77634e-07
4.99242e-07
4.99271e-07
8.00402e-07
8.0892e-07
8.34419e-07
5.06621e-07
5.06688e-07
5.28662e-07
5.28731e-07
8.08837e-07
8.34335e-07
5.06508e-07
5.06746e-07
5.28537e-07
5.28786e-07
5.06661e-07
5.28477e-07
5.28707e-07
8.08989e-07
8.345e-07
5.06554e-07
5.28567e-07
5.28592e-07
8.34513e-07
8.4285e-07
8.67459e-07
5.3607e-07
5.36139e-07
5.58424e-07
5.58487e-07
8.42772e-07
8.67374e-07
5.35949e-07
5.36195e-07
5.58293e-07
5.58547e-07
5.36116e-07
5.58234e-07
5.58474e-07
8.42923e-07
8.67541e-07
5.36001e-07
5.5833e-07
5.58352e-07
8.67556e-07
8.75686e-07
8.99301e-07
5.65905e-07
5.65967e-07
5.88392e-07
5.88453e-07
8.75603e-07
8.99214e-07
5.65779e-07
5.66029e-07
5.88256e-07
5.88513e-07
5.65956e-07
5.88201e-07
5.88448e-07
8.75758e-07
8.99379e-07
5.65834e-07
5.883e-07
5.8832e-07
8.99398e-07
9.073e-07
9.29947e-07
5.959e-07
5.9596e-07
6.18419e-07
6.18475e-07
9.07218e-07
9.29857e-07
5.95769e-07
5.9602e-07
6.1828e-07
6.18534e-07
5.95955e-07
6.18226e-07
6.18479e-07
9.07368e-07
9.30017e-07
5.95828e-07
6.18326e-07
6.18345e-07
9.30041e-07
9.37718e-07
9.59398e-07
6.25918e-07
6.25974e-07
6.48345e-07
6.48403e-07
9.37633e-07
9.59314e-07
6.25785e-07
6.26035e-07
6.48204e-07
6.48466e-07
6.25979e-07
6.48159e-07
6.48415e-07
9.37781e-07
9.59475e-07
6.25848e-07
6.48266e-07
6.48277e-07
9.59496e-07
9.66931e-07
9.87653e-07
6.55797e-07
6.55854e-07
6.78014e-07
6.78069e-07
9.66852e-07
9.87566e-07
6.55662e-07
6.55916e-07
6.77874e-07
6.7813e-07
6.55865e-07
6.77829e-07
6.78088e-07
9.67e-07
9.87716e-07
6.55731e-07
6.77938e-07
6.77951e-07
9.87742e-07
9.94938e-07
1.01471e-06
6.85371e-07
6.85423e-07
7.07284e-07
7.07333e-07
9.94858e-07
1.01462e-06
6.85244e-07
6.85488e-07
7.07151e-07
7.07398e-07
6.85449e-07
7.07101e-07
7.07367e-07
9.94996e-07
1.01477e-06
6.85311e-07
7.07215e-07
7.07229e-07
1.0148e-06
1.02176e-06
1.04061e-06
7.14527e-07
7.14576e-07
7.36037e-07
7.36084e-07
1.02167e-06
1.04053e-06
7.14401e-07
7.14642e-07
7.35907e-07
7.3615e-07
7.14611e-07
7.35859e-07
7.36124e-07
1.02181e-06
1.04067e-06
7.14473e-07
7.35976e-07
7.35986e-07
1.0407e-06
1.04742e-06
1.06538e-06
7.43129e-07
7.43175e-07
7.6415e-07
7.64198e-07
1.04734e-06
1.06529e-06
7.43008e-07
7.43243e-07
7.64025e-07
7.64259e-07
7.43218e-07
7.6398e-07
7.64244e-07
1.04747e-06
1.06543e-06
7.4308e-07
7.64095e-07
7.64106e-07
1.06546e-06
1.07196e-06
1.08908e-06
7.71069e-07
7.71114e-07
7.91553e-07
7.91592e-07
1.07187e-06
1.08899e-06
7.7095e-07
7.71178e-07
7.91428e-07
7.91657e-07
7.71164e-07
7.91382e-07
7.91649e-07
1.072e-06
1.08913e-06
7.71028e-07
7.915e-07
7.91512e-07
1.08917e-06
1.09543e-06
1.11171e-06
7.98286e-07
7.98322e-07
8.18139e-07
8.18178e-07
1.09534e-06
1.11162e-06
7.98168e-07
7.98389e-07
8.18015e-07
8.18238e-07
7.98383e-07
8.17975e-07
8.18232e-07
1.09548e-06
1.11175e-06
7.98248e-07
8.1809e-07
8.18098e-07
1.11179e-06
1.11783e-06
1.13325e-06
8.24637e-07
8.24675e-07
8.43782e-07
8.43819e-07
1.11774e-06
1.13316e-06
8.2452e-07
8.24732e-07
8.43663e-07
8.43883e-07
8.24732e-07
8.43625e-07
8.4388e-07
1.11787e-06
1.13329e-06
8.246e-07
8.43744e-07
8.43751e-07
1.13333e-06
1.13915e-06
1.15385e-06
8.50061e-07
8.50093e-07
8.68539e-07
8.68571e-07
1.13907e-06
1.15376e-06
8.49947e-07
8.50156e-07
8.68417e-07
8.68629e-07
8.50158e-07
8.68384e-07
8.68632e-07
1.13919e-06
1.15388e-06
8.50029e-07
8.68496e-07
8.68503e-07
1.15392e-06
1.15954e-06
1.17346e-06
8.74581e-07
8.74611e-07
8.9232e-07
8.92353e-07
1.15946e-06
1.17338e-06
8.74465e-07
8.74669e-07
8.92197e-07
8.92404e-07
8.74675e-07
8.92173e-07
8.92415e-07
1.15958e-06
1.1735e-06
8.74548e-07
8.92282e-07
8.9229e-07
1.17355e-06
1.17895e-06
1.19211e-06
8.98104e-07
8.98136e-07
9.15061e-07
9.15087e-07
1.17887e-06
1.19203e-06
8.97988e-07
8.98187e-07
9.14944e-07
9.15148e-07
8.98203e-07
9.14915e-07
9.15156e-07
1.17899e-06
1.19215e-06
8.98079e-07
9.15031e-07
9.15037e-07
1.19219e-06
1.1974e-06
1.20987e-06
9.20597e-07
9.2062e-07
9.36824e-07
9.36847e-07
1.19732e-06
1.20979e-06
9.20487e-07
9.20682e-07
9.36703e-07
9.36891e-07
9.2069e-07
9.36679e-07
9.36909e-07
1.19744e-06
1.2099e-06
9.20571e-07
9.36782e-07
9.3679e-07
1.20994e-06
1.21497e-06
1.2267e-06
9.42093e-07
9.42121e-07
9.57497e-07
9.57523e-07
1.21489e-06
1.22663e-06
9.41977e-07
9.42163e-07
9.57377e-07
9.57571e-07
9.4218e-07
9.57364e-07
9.57596e-07
1.215e-06
1.22674e-06
9.42062e-07
9.57472e-07
9.57483e-07
1.22679e-06
1.23162e-06
1.24277e-06
9.62529e-07
9.62547e-07
9.77278e-07
9.77298e-07
1.23155e-06
1.24268e-06
9.62417e-07
9.62605e-07
9.77162e-07
9.77347e-07
9.62626e-07
9.77139e-07
9.77354e-07
1.23166e-06
1.2428e-06
9.62513e-07
9.7724e-07
9.77241e-07
1.24284e-06
1.24751e-06
1.25782e-06
9.82037e-07
9.82066e-07
9.95876e-07
9.95898e-07
1.24743e-06
1.25775e-06
9.81926e-07
9.82108e-07
9.95756e-07
9.95927e-07
9.82124e-07
9.95747e-07
9.95968e-07
1.24753e-06
1.25785e-06
9.82009e-07
9.95843e-07
9.95854e-07
1.25791e-06
1.26236e-06
1.27217e-06
1.00037e-06
1.00038e-06
1.01355e-06
1.01358e-06
1.26229e-06
1.27209e-06
1.00025e-06
1.00042e-06
1.01344e-06
1.01364e-06
1.00046e-06
1.01344e-06
1.01366e-06
1.26239e-06
1.27222e-06
1.00035e-06
1.01356e-06
1.01356e-06
1.27226e-06
1.2766e-06
1.28591e-06
1.01786e-06
1.01789e-06
1.03044e-06
1.03044e-06
1.27653e-06
1.28582e-06
1.01775e-06
1.01795e-06
1.03032e-06
1.03046e-06
1.01796e-06
1.03028e-06
1.03048e-06
1.27665e-06
1.2859e-06
1.01785e-06
1.03036e-06
1.03037e-06
1.28595e-06
1.29016e-06
1.29863e-06
1.03447e-06
1.03446e-06
1.04607e-06
1.0461e-06
1.29006e-06
1.29853e-06
1.03436e-06
1.03448e-06
1.04596e-06
1.04613e-06
1.03453e-06
1.04596e-06
1.04617e-06
1.29014e-06
1.29865e-06
1.03443e-06
1.04606e-06
1.04606e-06
1.29872e-06
1.30267e-06
1.31063e-06
1.04984e-06
1.04987e-06
1.06081e-06
1.06087e-06
1.3026e-06
1.31061e-06
1.04973e-06
1.04992e-06
1.06071e-06
1.06093e-06
1.04993e-06
1.06074e-06
1.06093e-06
1.30272e-06
1.31073e-06
1.04982e-06
1.06085e-06
1.06083e-06
1.31073e-06
1.31458e-06
1.32214e-06
1.06437e-06
1.06444e-06
1.07487e-06
1.07487e-06
1.31456e-06
1.32207e-06
1.06429e-06
1.0645e-06
1.07475e-06
1.07486e-06
1.06451e-06
1.07474e-06
1.07494e-06
1.31467e-06
1.32213e-06
1.06441e-06
1.07479e-06
1.07485e-06
1.32223e-06
1.32595e-06
1.33286e-06
1.07819e-06
1.07817e-06
1.08784e-06
1.08782e-06
1.32587e-06
1.33272e-06
1.07807e-06
1.07816e-06
1.08772e-06
1.08785e-06
1.07825e-06
1.08768e-06
1.08787e-06
1.32591e-06
1.33281e-06
1.07814e-06
1.08776e-06
1.08775e-06
1.33285e-06
1.33653e-06
1.34277e-06
1.09102e-06
1.09101e-06
1.09988e-06
1.09994e-06
1.33639e-06
1.34274e-06
1.09091e-06
1.09107e-06
1.0998e-06
1.10005e-06
1.09106e-06
1.09982e-06
1.10001e-06
1.3365e-06
1.34292e-06
1.09095e-06
1.09996e-06
1.09991e-06
1.34289e-06
1.34618e-06
1.35196e-06
1.10259e-06
1.10268e-06
1.11105e-06
1.11114e-06
1.34619e-06
1.352e-06
1.10253e-06
1.10278e-06
1.11094e-06
1.11107e-06
1.10277e-06
1.11104e-06
1.11121e-06
1.34635e-06
1.352e-06
1.10267e-06
1.11104e-06
1.11111e-06
1.35212e-06
1.35551e-06
1.3614e-06
1.11399e-06
1.11407e-06
1.12206e-06
1.12196e-06
1.35554e-06
1.36119e-06
1.11383e-06
1.11392e-06
1.12193e-06
1.122e-06
1.11406e-06
1.12176e-06
1.12199e-06
1.35549e-06
1.36131e-06
1.11395e-06
1.12194e-06
1.12193e-06
1.36135e-06
1.3646e-06
1.36892e-06
1.1244e-06
1.12422e-06
1.13122e-06
1.13129e-06
1.36433e-06
1.36878e-06
1.12432e-06
1.12445e-06
1.13115e-06
1.13142e-06
1.12442e-06
1.13122e-06
1.13139e-06
1.36455e-06
1.36903e-06
1.12438e-06
1.13133e-06
1.13126e-06
1.36905e-06
1.37206e-06
1.37639e-06
1.1336e-06
1.13374e-06
1.14018e-06
1.14007e-06
1.37202e-06
1.37634e-06
1.13351e-06
1.13366e-06
1.14011e-06
1.13998e-06
1.13368e-06
1.13999e-06
1.14015e-06
1.3721e-06
1.37609e-06
1.1335e-06
1.13981e-06
1.13997e-06
1.37624e-06
1.37922e-06
1.38199e-06
1.14205e-06
1.14199e-06
1.14722e-06
1.1477e-06
1.37916e-06
1.38237e-06
1.142e-06
1.14204e-06
1.14705e-06
1.14771e-06
1.14213e-06
1.14757e-06
1.14756e-06
1.37901e-06
1.38265e-06
1.14198e-06
1.14777e-06
1.14753e-06
1.38249e-06
1.38483e-06
1.39042e-06
1.14899e-06
1.1494e-06
1.15601e-06
1.15549e-06
1.38527e-06
1.38981e-06
1.14881e-06
1.1494e-06
1.15589e-06
1.15572e-06
1.14932e-06
1.15529e-06
1.15596e-06
1.38554e-06
1.39021e-06
1.14935e-06
1.15578e-06
1.15603e-06
1.39045e-06
1.39423e-06
1.39966e-06
1.15892e-06
1.15829e-06
1.16582e-06
1.16562e-06
1.39332e-06
1.39898e-06
1.15879e-06
1.15847e-06
1.16577e-06
1.16563e-06
1.1587e-06
1.16547e-06
1.16557e-06
1.39372e-06
1.39898e-06
1.15865e-06
1.16533e-06
1.16529e-06
1.39911e-06
1.40188e-06
1.39862e-06
1.16676e-06
1.16676e-06
1.16724e-06
1.16772e-06
1.40142e-06
1.39951e-06
1.16678e-06
1.16686e-06
1.16726e-06
1.16764e-06
1.16669e-06
1.1677e-06
1.16744e-06
1.40139e-06
1.39915e-06
1.16647e-06
1.16749e-06
1.16729e-06
1.3989e-06
1.40017e-06
1.40349e-06
1.16744e-06
1.16818e-06
1.17232e-06
1.1726e-06
1.40113e-06
1.4042e-06
1.16737e-06
1.1677e-06
1.1717e-06
1.17111e-06
1.16762e-06
1.1724e-06
1.17181e-06
1.40065e-06
1.40262e-06
1.16742e-06
1.17121e-06
1.17145e-06
1.40313e-06
1.40734e-06
1.41342e-06
1.17493e-06
1.17419e-06
1.1802e-06
1.17692e-06
1.40721e-06
1.40894e-06
1.17436e-06
1.17368e-06
1.18064e-06
1.18054e-06
1.17451e-06
1.17697e-06
1.18178e-06
1.40642e-06
1.41379e-06
1.17435e-06
1.18091e-06
1.18251e-06
1.41541e-06
1.41644e-06
1.42187e-06
1.18182e-06
1.17885e-06
1.18839e-06
1.19012e-06
1.41188e-06
1.42331e-06
1.18245e-06
1.18266e-06
1.18849e-06
1.18967e-06
1.18379e-06
1.19013e-06
1.18851e-06
1.41705e-06
1.42281e-06
1.18447e-06
1.18914e-06
1.18816e-06
1.42249e-06
1.42462e-06
1.41284e-06
1.18955e-06
1.19273e-06
1.18725e-06
1.19198e-06
1.42786e-06
1.42209e-06
1.18942e-06
1.19079e-06
1.18675e-06
1.18823e-06
1.18889e-06
1.19139e-06
1.18441e-06
1.42577e-06
1.41562e-06
1.18833e-06
1.18738e-06
1.18309e-06
1.40737e-06
1.41145e-06
1.37353e-06
1.18107e-06
1.18633e-06
1.15888e-06
1.15813e-06
1.42102e-06
1.37054e-06
1.18035e-06
1.1815e-06
1.15851e-06
1.15682e-06
1.17754e-06
1.1581e-06
1.15935e-06
1.41415e-06
1.36942e-06
1.17642e-06
1.15733e-06
1.15944e-06
1.37388e-06
1.37423e-06
1.41364e-06
1.15677e-06
1.15426e-06
1.17549e-06
1.1675e-06
1.37037e-06
1.39794e-06
1.15653e-06
1.1543e-06
1.1759e-06
1.17294e-06
1.15833e-06
1.1684e-06
1.1828e-06
1.36978e-06
1.40763e-06
1.15865e-06
1.1745e-06
1.18459e-06
1.42521e-06
1.43767e-06
1.53738e-06
1.20154e-06
1.19387e-06
1.2729e-06
1.27428e-06
1.42201e-06
1.54072e-06
1.20211e-06
1.20073e-06
1.27314e-06
1.27699e-06
1.20843e-06
1.27387e-06
1.27187e-06
1.4333e-06
1.54507e-06
1.21017e-06
1.27623e-06
1.27208e-06
1.53625e-06
1.54723e-06
1.49369e-06
1.28059e-06
1.28446e-06
1.25835e-06
1.26643e-06
1.55378e-06
1.5076e-06
1.28065e-06
1.2852e-06
1.25767e-06
1.26114e-06
1.27708e-06
1.26493e-06
1.24724e-06
1.55608e-06
1.49761e-06
1.27685e-06
1.25901e-06
1.24535e-06
1.47379e-06
1.47834e-06
1.31091e-06
1.22424e-06
1.23128e-06
1.11845e-06
1.12138e-06
1.49157e-06
1.31482e-06
1.22334e-06
1.22503e-06
1.11807e-06
1.119e-06
1.21417e-06
1.12244e-06
1.12373e-06
1.48007e-06
1.30901e-06
1.21211e-06
1.1199e-06
1.12279e-06
1.31775e-06
1.3018e-06
1.29813e-06
1.09902e-06
1.1009e-06
1.09409e-06
1.09469e-06
1.30498e-06
1.30005e-06
1.09903e-06
1.10091e-06
1.09439e-06
1.0975e-06
1.11044e-06
1.09739e-06
1.11224e-06
1.3009e-06
1.30624e-06
1.11012e-06
1.1003e-06
1.11288e-06
1.33178e-06
1.31866e-06
1.44557e-06
1.11221e-06
1.11158e-06
1.20215e-06
1.19505e-06
1.31989e-06
1.43364e-06
1.11231e-06
1.11504e-06
1.20154e-06
1.19521e-06
1.12975e-06
1.19249e-06
1.19107e-06
1.32653e-06
1.43407e-06
1.13057e-06
1.1928e-06
1.19103e-06
1.42864e-06
1.46468e-06
1.48367e-06
1.22052e-06
1.21193e-06
1.2322e-06
1.22284e-06
1.45005e-06
1.46427e-06
1.22037e-06
1.21302e-06
1.23361e-06
1.2296e-06
1.20383e-06
1.22095e-06
1.21721e-06
1.45086e-06
1.47537e-06
1.204e-06
1.22817e-06
1.21886e-06
1.45545e-06
1.48419e-06
1.44825e-06
1.22884e-06
1.22022e-06
1.21002e-06
1.20874e-06
1.465e-06
1.44621e-06
1.2311e-06
1.22911e-06
1.21068e-06
1.21375e-06
1.21752e-06
1.20917e-06
1.21466e-06
1.47739e-06
1.45498e-06
1.21939e-06
1.21452e-06
1.21566e-06
1.45798e-06
1.44737e-06
1.41763e-06
1.20463e-06
1.2065e-06
1.19108e-06
1.20091e-06
1.44716e-06
1.43755e-06
1.20408e-06
1.20678e-06
1.18913e-06
1.19231e-06
1.21216e-06
1.20074e-06
1.20046e-06
1.45395e-06
1.4242e-06
1.21201e-06
1.19224e-06
1.19828e-06
1.43802e-06
1.41788e-06
1.41975e-06
1.18831e-06
1.19957e-06
1.18963e-06
1.20138e-06
1.43871e-06
1.44142e-06
1.18668e-06
1.19112e-06
1.18933e-06
1.19819e-06
1.19829e-06
1.20319e-06
1.20028e-06
1.42489e-06
1.43534e-06
1.19625e-06
1.20044e-06
1.19937e-06
1.43571e-06
1.43078e-06
1.49405e-06
1.19836e-06
1.20878e-06
1.24107e-06
1.24241e-06
1.44998e-06
1.49555e-06
1.19948e-06
1.20876e-06
1.2394e-06
1.23254e-06
1.20749e-06
1.2417e-06
1.23104e-06
1.44689e-06
1.48051e-06
1.20725e-06
1.23108e-06
1.22861e-06
1.47551e-06
1.50292e-06
1.47496e-06
1.24666e-06
1.24538e-06
1.23327e-06
1.22191e-06
1.50088e-06
1.45114e-06
1.24431e-06
1.23335e-06
1.23099e-06
1.20699e-06
1.2325e-06
1.21741e-06
1.20941e-06
1.48322e-06
1.42864e-06
1.2297e-06
1.20289e-06
1.20708e-06
1.43453e-06
1.46646e-06
1.33422e-06
1.20852e-06
1.1958e-06
1.12834e-06
1.1202e-06
1.44091e-06
1.31914e-06
1.2076e-06
1.18705e-06
1.13111e-06
1.13432e-06
1.18874e-06
1.12112e-06
1.13285e-06
1.42127e-06
1.34344e-06
1.18802e-06
1.13605e-06
1.1363e-06
1.34107e-06
1.32727e-06
1.30733e-06
1.11203e-06
1.10752e-06
1.10278e-06
1.10545e-06
1.31487e-06
1.31742e-06
1.11548e-06
1.12739e-06
1.10681e-06
1.13242e-06
1.12502e-06
1.10921e-06
1.12899e-06
1.34319e-06
1.3646e-06
1.12912e-06
1.13679e-06
1.13339e-06
1.35763e-06
1.31986e-06
1.42998e-06
1.11095e-06
1.11995e-06
1.18825e-06
1.20245e-06
1.33499e-06
1.45475e-06
1.11507e-06
1.1491e-06
1.19033e-06
1.20949e-06
1.14612e-06
1.20614e-06
1.2123e-06
1.38212e-06
1.46439e-06
1.1502e-06
1.21219e-06
1.21316e-06
1.46763e-06
1.45422e-06
1.50378e-06
1.21259e-06
1.22427e-06
1.24107e-06
1.24465e-06
1.47722e-06
1.5116e-06
1.2133e-06
1.22173e-06
1.23867e-06
1.22685e-06
1.22586e-06
1.24357e-06
1.23223e-06
1.47657e-06
1.4736e-06
1.22549e-06
1.22578e-06
1.22988e-06
1.48251e-06
1.50662e-06
1.44529e-06
1.24056e-06
1.24227e-06
1.19984e-06
1.18843e-06
1.51197e-06
1.42255e-06
1.2378e-06
1.21892e-06
1.196e-06
1.1657e-06
1.22434e-06
1.18291e-06
1.16687e-06
1.47029e-06
1.38506e-06
1.22059e-06
1.16029e-06
1.16315e-06
1.38758e-06
1.43781e-06
1.35996e-06
1.17961e-06
1.16611e-06
1.13526e-06
1.12418e-06
1.41383e-06
1.33766e-06
1.17635e-06
1.1501e-06
1.13491e-06
1.1299e-06
1.14993e-06
1.12124e-06
1.12679e-06
1.3806e-06
1.35034e-06
1.14725e-06
1.1276e-06
1.12712e-06
1.34777e-06
1.35931e-06
1.35732e-06
1.13061e-06
1.12117e-06
1.13227e-06
1.13011e-06
1.33778e-06
1.35436e-06
1.13103e-06
1.13012e-06
1.1347e-06
1.15204e-06
1.12663e-06
1.13071e-06
1.14482e-06
1.35384e-06
1.39222e-06
1.12729e-06
1.15309e-06
1.1481e-06
1.38385e-06
1.3655e-06
1.40068e-06
1.14066e-06
1.14307e-06
1.16506e-06
1.17469e-06
1.36775e-06
1.41767e-06
1.14407e-06
1.1644e-06
1.16739e-06
1.18346e-06
1.15696e-06
1.17717e-06
1.17876e-06
1.40483e-06
1.43154e-06
1.16026e-06
1.18576e-06
1.18063e-06
1.42366e-06
1.40705e-06
1.39732e-06
1.16995e-06
1.17994e-06
1.15412e-06
1.1626e-06
1.42516e-06
1.41311e-06
1.17118e-06
1.18469e-06
1.15357e-06
1.15752e-06
1.18115e-06
1.1644e-06
1.16015e-06
1.43444e-06
1.40171e-06
1.1826e-06
1.15978e-06
1.16007e-06
1.40423e-06
1.37636e-06
1.11934e-06
1.12625e-06
1.39007e-06
1.11841e-06
1.11786e-06
6.80793e-07
6.74976e-07
6.76876e-07
1.12229e-06
1.37511e-06
1.12164e-06
5.35663e-07
5.35601e-07
5.35655e-07
5.35655e-07
5.34573e-07
5.35516e-07
5.33634e-07
5.35654e-07
5.34573e-07
5.35517e-07
5.35654e-07
5.33634e-07
5.35256e-07
5.35986e-07
5.35987e-07
1.10713e-06
3.88082e-06
9.33891e-07
4.60617e-06
1.26081e-05
1.66011e-05
1.10725e-06
3.88106e-06
9.33924e-07
4.60653e-06
4.95567e-07
4.95567e-07
4.95567e-07
4.57231e-07
4.57231e-07
4.57232e-07
4.57232e-07
5.43144e-07
1.22026e-06
4.95565e-07
4.85522e-07
5.25341e-07
1.20946e-06
4.82301e-07
1.26097e-05
1.66037e-05
5.43162e-07
4.95565e-07
1.22025e-06
4.85523e-07
5.2532e-07
4.82302e-07
1.20945e-06
2.52172e-06
2.52242e-06
4.8419e-07
2.37248e-06
2.37288e-06
1.4308e-06
5.59329e-06
1.32967e-06
6.13638e-06
2.12844e-05
2.31105e-05
1.4312e-06
5.59395e-06
1.32973e-06
6.13703e-06
4.45572e-07
4.45573e-07
4.45573e-07
4.13542e-07
4.13542e-07