/*--------------------------------*- C++ -*----------------------------------*\
| =========                 |                                                 |
| \\      /  F ield         | OpenFOAM: The Open Source CFD Toolbox           |
|  \\    /   O peration     | Version:  v1906                                 |
|   \\  /    A nd           | Web:      www.OpenFOAM.com                      |
|    \\/     M anipulation  |                                                 |
\*---------------------------------------------------------------------------*/
FoamFile
{
    version     2.0;
    format      ascii;
    class       volScalarField;
    location    "750";
    object      nut;
}
// * * * * * * * * * * * * * * * * * * * * * * * * * * * * * * * * * * * * * //

dimensions      [0 2 -1 0 0 0 0];


internalField   nonuniform List<scalar> 
171728
(
0.000233973
0.000233116
0.000233116
0.000233423
0.000232532
0.000227802
0.000227801
0.000223866
0.000230516
0.00022032
0.000220318
0.000209109
0.000227799
0.000211665
0.000211661
0.000193785
0.000224433
0.00020265
0.000202644
0.000179709
0.000220552
0.000193772
0.000193765
0.000167339
0.000216304
0.000185275
0.000185267
0.000156587
0.00021182
0.000177234
0.000177226
0.000147206
0.000207207
0.000169688
0.00016968
0.00013895
0.000202545
0.000162611
0.000162603
0.000131614
0.000197889
0.000155949
0.000155941
0.000124953
0.000193275
0.000149647
0.000149638
0.000118816
0.000188683
0.000143665
0.000143657
0.000113168
0.000184151
0.000137952
0.000137943
0.000107932
0.000179706
0.000132463
0.000132454
0.000103056
0.000175338
0.00012719
0.000127181
9.84355e-05
0.000171036
0.00012215
0.000122141
9.42515e-05
0.000166785
0.000117371
0.00011736
9.066e-05
0.000162587
0.000112887
0.000112877
8.77315e-05
0.000158414
0.000108755
0.000108745
8.53832e-05
0.000154263
0.000105025
0.000105015
8.36671e-05
0.000150143
0.000101711
0.000101703
8.25794e-05
0.000146063
9.88946e-05
9.88869e-05
8.20974e-05
0.000142045
9.65838e-05
9.65773e-05
8.21486e-05
0.000138117
9.47931e-05
9.47871e-05
8.26882e-05
0.000134294
9.35195e-05
9.35147e-05
8.36643e-05
0.000130631
9.27505e-05
9.27463e-05
8.502e-05
0.000127155
9.24667e-05
9.2463e-05
8.66956e-05
0.000123901
9.26391e-05
9.26365e-05
8.86373e-05
0.000120901
9.3237e-05
9.32346e-05
9.07919e-05
0.000118187
9.4227e-05
9.42256e-05
9.31111e-05
0.000115789
9.55685e-05
9.55678e-05
9.55596e-05
0.000113732
9.72331e-05
9.72322e-05
9.81046e-05
0.00011202
9.91716e-05
9.91708e-05
0.000100717
0.00011068
0.000101364
0.000101366
0.000103385
0.000109694
0.00010376
0.00010376
0.000106075
0.000109089
0.000106351
0.000106352
0.000108802
0.000108847
0.000109091
0.000109092
0.000111529
0.00010896
0.000111951
0.000111951
0.000114251
0.000109419
0.000114916
0.000114918
0.000116968
0.00011022
0.000117962
0.000117965
0.000119666
0.000111336
0.000121072
0.000121074
0.000122342
0.000112758
0.00012423
0.000124233
0.000124995
0.000114465
0.000127414
0.000127414
0.000127614
0.00011643
0.000130609
0.00013061
0.000130207
0.000118669
0.000133816
0.000133817
0.000132769
0.000121094
0.000136982
0.000136985
0.000135268
0.000123729
0.000140138
0.000140138
0.000137737
0.000126564
0.000143275
0.000143274
0.000140165
0.000129534
0.000146353
0.000146357
0.000142534
0.000132665
0.000149408
0.000149408
0.000144859
0.000135873
0.000152386
0.000152387
0.000147119
0.000139235
0.000155355
0.000155358
0.000149354
0.00014263
0.000158218
0.000158212
0.000151496
0.000146031
0.000161005
0.000161017
0.000153582
0.000149584
0.000163816
0.000163805
0.000155654
0.000153143
0.000166483
0.000166479
0.000157643
0.00015665
0.000169071
0.000169081
0.000159534
0.000160193
0.000171682
0.000171672
0.000161442
0.000163675
0.000174111
0.00017409
0.000163217
0.000167426
0.000176578
0.000176603
0.000165016
0.000170475
0.000178795
0.000178783
0.000166584
0.000174272
0.000181261
0.000181228
0.000168392
0.000177521
0.000183291
0.000183394
0.000169876
0.000180927
0.000185462
0.000185322
0.000171354
0.000183898
0.000187364
0.000187309
0.000172565
0.000186099
0.000188718
0.000188941
0.000173869
0.000191451
0.000192432
0.000192336
0.000176395
0.000194998
0.000193504
0.000193547
0.000176928
0.000193871
0.000194245
0.000192894
0.00017646
0.000198488
0.000195346
0.000196449
0.000179519
0.000203178
0.000199328
0.000200057
0.000182247
0.000208033
0.000203243
0.000202741
0.000183693
0.000203058
0.000194682
0.000193187
0.00017408
0.000190907
0.000184144
0.000183852
0.000170507
0.000218641
0.00021926
0.000221441
0.000200588
0.000258494
0.000244799
0.000245112
0.000214741
0.000242456
0.000204015
0.000200377
0.000174975
0.000179792
0.000173736
0.000173803
0.000160186
0.000174187
0.000194792
0.000195293
0.000182055
0.000235845
0.000219184
0.000220707
0.000193192
0.000249307
0.000218317
0.00022426
0.000194473
0.000231473
0.000212012
0.000210119
0.000190447
0.000220929
0.00020843
0.000204738
0.000185349
0.00023298
0.000221744
0.000220296
0.000195635
0.00025535
0.000235012
0.000229269
0.000202393
0.000240132
0.000202118
0.000202073
0.000179594
0.000196752
0.000183438
0.000190735
0.000169022
0.000190624
0.000206474
0.000213781
0.000191826
0.0002552
0.000237446
0.000231822
0.000207789
0.000278614
0.000238436
0.000221473
0.000195044
0.000236263
0.000200242
0.000200206
0.000177611
0.000210571
0.000191479
0.000199284
0.000179561
0.000217444
0.000212752
0.000217878
0.000192566
0.000242659
0.000224583
0.000223995
0.000199558
0.000234266
0.000234448
0.000234449
0.000234267
0.000234448
0.000234449
0.000234274
0.000234274
0.000234274
0.000234274
0.000234448
0.000234448
0.000234266
0.000234448
0.000234448
0.000234266
0.000233423
0.000226204
0.000233116
0.000233114
0.000229361
0.000229357
0.000233423
0.000226205
0.000233114
0.000233114
0.000229359
0.000229356
0.000233116
0.000229364
0.000229361
0.000233423
0.000226202
0.000233114
0.000229363
0.000229359
0.000226202
0.000223867
0.00021223
0.000227799
0.000227794
0.000222332
0.000222326
0.000223868
0.000212234
0.000227797
0.000227792
0.000222332
0.000222323
0.000227798
0.000222339
0.000222331
0.000223866
0.000212227
0.000227797
0.000222336
0.000222331
0.000212228
0.000209111
0.000197061
0.000220313
0.000220307
0.000213879
0.000213874
0.000209112
0.000197066
0.000220314
0.000220304
0.000213883
0.000213869
0.000220311
0.00021389
0.000213877
0.000209107
0.000197057
0.000220313
0.000213886
0.000213882
0.000197058
0.000193788
0.000182876
0.000211654
0.000211648
0.00020489
0.000204884
0.000193792
0.000182882
0.000211658
0.000211643
0.000204897
0.000204879
0.000211651
0.000204905
0.000204887
0.000193784
0.000182872
0.000211657
0.000204899
0.000204896
0.000182873
0.000179713
0.000170268
0.000202634
0.000202628
0.000195943
0.000195937
0.000179717
0.000170274
0.000202643
0.000202622
0.000195954
0.000195931
0.000202631
0.000195962
0.00019594
0.000179708
0.000170263
0.000202641
0.000195955
0.000195953
0.000170264
0.000167344
0.000159242
0.000193753
0.000193747
0.000187336
0.000187331
0.000167349
0.000159249
0.000193765
0.00019374
0.000187351
0.000187324
0.00019375
0.000187359
0.000187333
0.000167339
0.000159238
0.000193764
0.000187351
0.00018735
0.000159238
0.000156591
0.000149613
0.000185253
0.000185247
0.000179173
0.000179168
0.000156597
0.00014962
0.000185268
0.00018524
0.000179191
0.00017916
0.000185249
0.000179198
0.00017917
0.000156587
0.000149608
0.000185267
0.000179189
0.00017919
0.000149608
0.000147211
0.000141107
0.000177208
0.000177203
0.000171501
0.000171496
0.000147217
0.000141114
0.000177227
0.000177195
0.000171521
0.000171488
0.000177205
0.000171529
0.000171498
0.000147206
0.000141101
0.000177225
0.00017152
0.000171521
0.000141101
0.000138956
0.000133547
0.00016966
0.000169655
0.000164309
0.000164304
0.000138961
0.000133554
0.000169682
0.000169647
0.000164332
0.000164296
0.000169658
0.000164339
0.000164307
0.00013895
0.000133541
0.00016968
0.000164331
0.000164332
0.000133541
0.000131621
0.000126686
0.000162581
0.000162576
0.000157546
0.000157541
0.000131627
0.000126693
0.000162605
0.000162567
0.000157572
0.000157533
0.000162578
0.000157579
0.000157545
0.000131615
0.00012668
0.000162604
0.00015757
0.000157571
0.000126679
0.00012496
0.000120362
0.000155916
0.000155912
0.000151157
0.000151152
0.000124966
0.000120369
0.000155942
0.000155903
0.000151184
0.000151144
0.000155915
0.000151192
0.000151156
0.000124954
0.000120355
0.000155942
0.000151183
0.000151184
0.000120355
0.000118823
0.000114426
0.000149612
0.000149607
0.000145096
0.000145091
0.000118827
0.000114433
0.000149639
0.000149599
0.000145124
0.000145083
0.000149611
0.000145132
0.000145095
0.000118816
0.00011442
0.000149639
0.000145123
0.000145124
0.000114418
0.000113174
0.000108835
0.00014363
0.000143624
0.000139318
0.000139313
0.00011318
0.000108843
0.000143658
0.000143616
0.000139347
0.000139305
0.000143629
0.000139356
0.000139319
0.000113168
0.000108829
0.000143658
0.000139347
0.000139348
0.000108828
0.000107939
0.000103702
0.000137916
0.000137909
0.000133776
0.00013377
0.000107945
0.000103708
0.000137944
0.000137901
0.000133805
0.000133762
0.000137915
0.000133814
0.000133776
0.000107933
0.000103696
0.000137944
0.000133805
0.000133806
0.000103695
0.000103063
9.91273e-05
0.000132425
0.000132418
0.000128446
0.000128438
0.000103069
9.91334e-05
0.000132454
0.000132411
0.000128474
0.000128431
0.000132425
0.000128485
0.000128447
0.000103057
9.91214e-05
0.000132454
0.000128475
0.000128476
9.91201e-05
9.84421e-05
9.49887e-05
0.000127151
0.000127144
0.000123344
0.000123337
9.84478e-05
9.49946e-05
0.000127179
0.000127136
0.000123371
0.000123329
0.000127152
0.000123384
0.000123347
9.84366e-05
9.49831e-05
0.000127181
0.000123374
0.000123375
9.49828e-05
9.42568e-05
9.14351e-05
0.000122111
0.000122103
0.000118477
0.00011847
9.42626e-05
9.14406e-05
0.000122137
0.000122095
0.000118502
0.000118461
0.000122113
0.000118517
0.00011848
9.42519e-05
9.14296e-05
0.000122141
0.000118506
0.000118507
9.14298e-05
9.0664e-05
8.83771e-05
0.000117331
0.000117324
0.000113921
0.000113916
9.06702e-05
8.83816e-05
0.000117355
0.000117314
0.000113945
0.000113905
0.000117334
0.000113961
0.000113926
9.06605e-05
8.83715e-05
0.000117361
0.000113951
0.000113951
8.83719e-05
8.77356e-05
8.59077e-05
0.000112847
0.000112841
0.00010969
0.000109685
8.77404e-05
8.59127e-05
0.00011287
0.00011283
0.000109713
0.000109675
0.000112851
0.00010973
0.000109696
8.77311e-05
8.59034e-05
0.000112877
0.00010972
0.00010972
8.59035e-05
8.53872e-05
8.4068e-05
0.000108716
0.000108709
0.000105848
0.00010584
8.53921e-05
8.4073e-05
0.000108737
0.000108699
0.000105869
0.000105831
0.000108721
0.000105886
0.000105852
8.53835e-05
8.40644e-05
0.000108745
0.000105876
0.000105875
8.40649e-05
8.36704e-05
8.2858e-05
0.000104988
0.000104979
0.000102455
0.000102444
8.36753e-05
8.28625e-05
0.000105008
0.00010497
0.000102473
0.000102436
0.000104992
0.00010249
0.000102458
8.36674e-05
8.28546e-05
0.000105015
0.00010248
0.00010248
8.28554e-05
8.25818e-05
8.22596e-05
0.000101677
0.000101666
9.95176e-05
9.95053e-05
8.25863e-05
8.22629e-05
0.000101696
0.000101658
9.95342e-05
9.94987e-05
0.00010168
9.95501e-05
9.95206e-05
8.25794e-05
8.2256e-05
0.000101702
9.95417e-05
9.95414e-05
8.22576e-05
8.20989e-05
8.2205e-05
9.88622e-05
9.88503e-05
9.70819e-05
9.70682e-05
8.21022e-05
8.22082e-05
9.88791e-05
9.88436e-05
9.7097e-05
9.70628e-05
9.88649e-05
9.71116e-05
9.70841e-05
8.20963e-05
8.22024e-05
9.88858e-05
9.71041e-05
9.71039e-05
8.22027e-05
8.21505e-05
8.26463e-05
9.65549e-05
9.65411e-05
9.51633e-05
9.51506e-05
8.21527e-05
8.26499e-05
9.65704e-05
9.65358e-05
9.51772e-05
9.51456e-05
9.65573e-05
9.5192e-05
9.51659e-05
8.2148e-05
8.26451e-05
9.65766e-05
9.51851e-05
9.51836e-05
8.26454e-05
8.26889e-05
8.35347e-05
9.47652e-05
9.47525e-05
9.37641e-05
9.37499e-05
8.26931e-05
8.35357e-05
9.47794e-05
9.47476e-05
9.37766e-05
9.37463e-05
9.47674e-05
9.37893e-05
9.37662e-05
8.26887e-05
8.35327e-05
9.47846e-05
9.37836e-05
9.37819e-05
8.35333e-05
8.36656e-05
8.48138e-05
9.34946e-05
9.34811e-05
9.28733e-05
9.28593e-05
8.36662e-05
8.48152e-05
9.35075e-05
9.34772e-05
9.28845e-05
9.28561e-05
9.34968e-05
9.28965e-05
9.28758e-05
8.36638e-05
8.48126e-05
9.35122e-05
9.28913e-05
9.28898e-05
8.48136e-05
8.50201e-05
8.64239e-05
9.2728e-05
9.27144e-05
9.24719e-05
9.24589e-05
8.50214e-05
8.64255e-05
9.27395e-05
9.27111e-05
9.24818e-05
9.24565e-05
9.27308e-05
9.24938e-05
9.24744e-05
8.50192e-05
8.64241e-05
9.27444e-05
9.24895e-05
9.24867e-05
8.6425e-05
8.66952e-05
8.83113e-05
9.24456e-05
9.24329e-05
9.25347e-05
9.2521e-05
8.66968e-05
8.83111e-05
9.24557e-05
9.24301e-05
9.25434e-05
9.25197e-05
9.24478e-05
9.25537e-05
9.25378e-05
8.66957e-05
8.83103e-05
9.24599e-05
9.25506e-05
9.25487e-05
8.83125e-05
8.86357e-05
9.04221e-05
9.26198e-05
9.26074e-05
9.30331e-05
9.30196e-05
8.86354e-05
9.04233e-05
9.26287e-05
9.26056e-05
9.30405e-05
9.30183e-05
9.26232e-05
9.30503e-05
9.30364e-05
8.86351e-05
9.04226e-05
9.26337e-05
9.30472e-05
9.30458e-05
9.04237e-05
9.07902e-05
9.27062e-05
9.32207e-05
9.32074e-05
9.39285e-05
9.39161e-05
9.07907e-05
9.27068e-05
9.32283e-05
9.3206e-05
9.39345e-05
9.39157e-05
9.32239e-05
9.39448e-05
9.3932e-05
9.07901e-05
9.27073e-05
9.3233e-05
9.39426e-05
9.39399e-05
9.27083e-05
9.31088e-05
9.51292e-05
9.42114e-05
9.41994e-05
9.51884e-05
9.51754e-05
9.31102e-05
9.51285e-05
9.42177e-05
9.41987e-05
9.51933e-05
9.51754e-05
9.42145e-05
9.52023e-05
9.51925e-05
9.31106e-05
9.51285e-05
9.42224e-05
9.52007e-05
9.51993e-05
9.51309e-05
9.55577e-05
9.76534e-05
9.55547e-05
9.5542e-05
9.67763e-05
9.67633e-05
9.55572e-05
9.76528e-05
9.556e-05
9.55425e-05
9.67802e-05
9.67639e-05
9.55593e-05
9.67889e-05
9.67806e-05
9.55573e-05
9.7654e-05
9.55658e-05
9.67877e-05
9.67861e-05
9.76559e-05
9.81026e-05
0.000100252
9.72208e-05
9.72078e-05
9.86497e-05
9.86372e-05
9.81022e-05
0.000100252
9.72249e-05
9.72086e-05
9.86525e-05
9.86388e-05
9.72254e-05
9.86619e-05
9.86548e-05
9.81031e-05
0.000100253
9.72306e-05
9.86612e-05
9.86591e-05
0.000100256
0.000100714
0.000102909
9.91594e-05
9.91473e-05
0.000100786
0.000100773
0.000100714
0.000102908
9.91625e-05
9.91484e-05
0.000100788
0.000100774
9.91635e-05
0.000100797
0.000100792
0.000100715
0.000102908
9.91679e-05
0.000100796
0.000100795
0.000102912
0.000103382
0.000105594
0.000101355
0.000101341
0.000103132
0.000103118
0.000103381
0.000105594
0.000101357
0.000101344
0.000103133
0.000103121
0.000101361
0.000103141
0.000103137
0.000103382
0.000105595
0.000101364
0.000103142
0.00010314
0.000105597
0.000106074
0.000108311
0.000103749
0.000103737
0.000105677
0.000105665
0.000106074
0.000108312
0.000103751
0.000103739
0.000105678
0.000105667
0.000103755
0.000105687
0.000105684
0.000106073
0.000108311
0.000103758
0.000105687
0.000105686
0.000108315
0.000108799
0.000111038
0.000106342
0.000106329
0.000108384
0.000108372
0.0001088
0.000111037
0.000106344
0.000106332
0.000108385
0.000108376
0.000106349
0.000108394
0.000108392
0.000108799
0.000111039
0.000106351
0.000108395
0.000108394
0.000111042
0.000111526
0.00011376
0.000109081
0.000109069
0.000111216
0.000111203
0.000111526
0.000113759
0.000109082
0.000109072
0.000111217
0.000111205
0.000109089
0.000111225
0.000111224
0.000111526
0.000113758
0.000109091
0.000111225
0.000111225
0.000113763
0.000114248
0.000116478
0.000111943
0.00011193
0.000114156
0.000114144
0.000114247
0.000116478
0.000111944
0.000111932
0.000114157
0.000114147
0.00011195
0.000114165
0.000114166
0.000114246
0.000116479
0.000111951
0.000114167
0.000114167
0.000116483
0.000116964
0.000119182
0.000114906
0.000114895
0.000117185
0.000117175
0.000116964
0.000119183
0.000114908
0.000114899
0.000117186
0.000117177
0.000114915
0.000117196
0.000117194
0.000116964
0.000119183
0.000114917
0.000117197
0.000117196
0.000119186
0.000119663
0.000121864
0.000117952
0.000117942
0.00012028
0.000120269
0.000119664
0.000121862
0.000117955
0.000117945
0.000120282
0.000120271
0.000117961
0.000120289
0.00012029
0.000119663
0.000121861
0.000117962
0.000120291
0.000120292
0.000121867
0.000122338
0.000124524
0.000121062
0.000121052
0.000123429
0.00012342
0.000122337
0.000124524
0.000121066
0.000121055
0.000123431
0.000123421
0.000121073
0.000123439
0.000123439
0.000122336
0.000124523
0.000121075
0.000123441
0.000123441
0.000124528
0.000124991
0.000127153
0.000124221
0.000124211
0.000126606
0.000126599
0.000124991
0.000127153
0.000124223
0.000124214
0.000126609
0.000126599
0.000124231
0.000126618
0.000126615
0.00012499
0.000127151
0.000124233
0.000126618
0.000126618
0.000127156
0.000127611
0.000129751
0.000127403
0.000127395
0.000129795
0.000129789
0.000127612
0.000129752
0.000127406
0.000127395
0.000129798
0.000129789
0.000127413
0.000129808
0.000129806
0.000127609
0.00012975
0.000127414
0.000129809
0.000129809
0.000129756
0.000130202
0.000132326
0.000130598
0.00013059
0.000133006
0.000132998
0.000130202
0.000132325
0.000130602
0.000130591
0.000133009
0.000133
0.000130609
0.000133017
0.000133016
0.000130201
0.000132324
0.000130611
0.00013302
0.000133019
0.00013233
0.000132765
0.000134837
0.000133805
0.000133798
0.000136178
0.000136173
0.000132765
0.000134839
0.000133809
0.000133798
0.000136182
0.000136173
0.000133814
0.000136191
0.000136189
0.000132763
0.000134836
0.000133817
0.000136194
0.000136193
0.000134842
0.000135263
0.000137316
0.000136968
0.000136963
0.000139338
0.000139332
0.000135265
0.000137316
0.000136974
0.000136965
0.000139342
0.00013933
0.00013698
0.000139349
0.000139347
0.000135262
0.000137314
0.000136984
0.00013935
0.000139351
0.00013732
0.000137734
0.000139755
0.000140125
0.00014012
0.000142481
0.000142476
0.000137734
0.000139757
0.000140131
0.00014012
0.000142485
0.000142473
0.000140135
0.000142493
0.00014249
0.000137731
0.000139753
0.000140139
0.000142494
0.000142495
0.00013976
0.00014016
0.000142137
0.000143261
0.000143257
0.000145573
0.00014557
0.000140162
0.000142139
0.000143265
0.000143254
0.000145579
0.000145568
0.00014327
0.000145588
0.000145587
0.000140158
0.000142136
0.000143274
0.00014559
0.000145593
0.000142144
0.000142528
0.000144476
0.000146338
0.000146335
0.000148637
0.000148629
0.00014253
0.000144475
0.000146346
0.000146336
0.000148644
0.000148628
0.000146351
0.000148647
0.000148646
0.000142527
0.000144472
0.000146357
0.000148649
0.000148652
0.000144479
0.000144857
0.000146749
0.000149397
0.000149391
0.000151633
0.000151633
0.000144856
0.000146754
0.000149404
0.000149387
0.000151637
0.000151625
0.000149405
0.00015165
0.000151644
0.000144852
0.000146748
0.00014941
0.000151649
0.000151651
0.000146756
0.000147112
0.000148994
0.000152368
0.000152368
0.000154606
0.000154597
0.000147117
0.000148992
0.000152374
0.000152362
0.000154614
0.0001546
0.000152383
0.000154613
0.000154611
0.000147111
0.000148991
0.00015239
0.000154618
0.00015462
0.000148997
0.000149353
0.00015116
0.000155347
0.00015534
0.0001575
0.000157503
0.000149352
0.000151167
0.000155355
0.000155341
0.000157506
0.000157491
0.00015535
0.000157522
0.000157512
0.00014935
0.000151157
0.000155358
0.000157514
0.000157517
0.000151165
0.000151491
0.000153243
0.000158201
0.0001582
0.000160287
0.000160283
0.000151497
0.000153245
0.000158208
0.000158188
0.000160295
0.000160282
0.000158211
0.000160302
0.000160305
0.000151486
0.000153245
0.000158217
0.00016031
0.000160315
0.000153254
0.00015357
0.000155341
0.000160984
0.000160983
0.000163096
0.000163103
0.000153573
0.000155349
0.000160993
0.000160987
0.000163107
0.000163098
0.000161009
0.000163118
0.000163093
0.000153575
0.00015534
0.000161021
0.000163111
0.000163101
0.000155338
0.000155662
0.000157349
0.000163805
0.000163802
0.000165822
0.000165807
0.000155667
0.000157338
0.000163815
0.000163792
0.000165825
0.000165794
0.000163794
0.000165828
0.000165834
0.000155655
0.000157329
0.000163801
0.000165822
0.000165843
0.000157353
0.000157636
0.000159247
0.000166471
0.000166464
0.000168417
0.000168416
0.000157628
0.000159258
0.000166476
0.000166453
0.000168426
0.000168416
0.000166482
0.000168432
0.000168422
0.000157621
0.00015926
0.000166489
0.000168437
0.000168429
0.000159251
0.000159528
0.000161143
0.000169045
0.000169051
0.000170994
0.000171017
0.000159542
0.000161163
0.000169059
0.000169058
0.000171008
0.000171012
0.000169063
0.000171041
0.000171025
0.000159544
0.000161155
0.000169071
0.000171042
0.000171041
0.000161166
0.000161421
0.000162979
0.00017165
0.00017166
0.000173481
0.000173461
0.000161439
0.000162963
0.00017166
0.000171641
0.000173487
0.000173436
0.000171671
0.000173485
0.000173474
0.000161425
0.000162939
0.000171687
0.000173461
0.00017348
0.000162962
0.000163238
0.00016479
0.000174108
0.00017409
0.00017604
0.000176019
0.000163219
0.000164782
0.000174114
0.000174067
0.000176043
0.000176026
0.000174096
0.000176021
0.000176017
0.000163199
0.000164797
0.000174101
0.00017604
0.000176026
0.000164783
0.000165016
0.000166302
0.00017658
0.000176568
0.000178099
0.000178123
0.000165014
0.000166337
0.000176591
0.00017659
0.000178137
0.000178161
0.000176574
0.000178174
0.000178174
0.000165034
0.000166336
0.000176582
0.000178192
0.000178192
0.000166347
0.000166538
0.000168199
0.000178714
0.000178745
0.000180702
0.000180737
0.00016658
0.000168218
0.000178742
0.000178744
0.000180673
0.000180605
0.000178789
0.000180731
0.00018065
0.000166562
0.000168145
0.000178804
0.00018064
0.000180652
0.000168169
0.000168434
0.000169642
0.000181289
0.000181275
0.000182745
0.000182673
0.00016843
0.000169582
0.00018127
0.000181195
0.000182781
0.000182818
0.000181214
0.0001827
0.000182809
0.000168379
0.000169697
0.000181229
0.000182859
0.000182852
0.000169685
0.00016982
0.000171252
0.000183258
0.000183257
0.000184982
0.000184981
0.000169789
0.000171271
0.000183288
0.000183358
0.000184988
0.000184867
0.000183334
0.000185012
0.000184915
0.000169889
0.000171141
0.000183358
0.000184853
0.000184883
0.000171172
0.00017145
0.000172421
0.000185511
0.000185421
0.000186817
0.000186874
0.000171429
0.000172473
0.000185537
0.000185344
0.000186839
0.000186876
0.00018544
0.000186918
0.000186862
0.000171303
0.000172482
0.00018541
0.00018687
0.000186843
0.000172468
0.000172477
0.000173473
0.000187113
0.00018733
0.000188105
0.000188215
0.000172613
0.000173585
0.000187109
0.000187286
0.000188098
0.000188234
0.000187206
0.000188223
0.000188235
0.000172624
0.000173635
0.0001872
0.000188386
0.000188349
0.000173603
0.000173773
0.000176302
0.000188788
0.000188719
0.000191787
0.00019152
0.000173757
0.000176066
0.00018879
0.000188795
0.000191775
0.000191496
0.000188868
0.00019151
0.000191608
0.000173842
0.000176059
0.000188992
0.000191486
0.000191598
0.000176151
0.000176556
0.000177063
0.000192658
0.000192439
0.000193547
0.000193543
0.000176378
0.000177101
0.000192651
0.000192385
0.000193588
0.00019359
0.000192452
0.000193562
0.000193515
0.000176346
0.000177134
0.00019241
0.000193555
0.000193499
0.000177062
0.000176915
0.000176455
0.000193488
0.000193475
0.000192727
0.000193251
0.00017697
0.000177212
0.000193546
0.000193582
0.000192794
0.000192971
0.000193483
0.000193355
0.000192817
0.000177008
0.000176491
0.000193478
0.000192934
0.000192789
0.000176397
0.000176647
0.000179046
0.000193003
0.000194185
0.000195795
0.000195583
0.000177587
0.000178524
0.000192853
0.000192913
0.000195695
0.000195558
0.000192871
0.000195415
0.000195693
0.000176551
0.000179014
0.000192697
0.000195763
0.000195812
0.000179128
0.00017922
0.000181331
0.00019623
0.000195469
0.00019867
0.000197317
0.000178351
0.000180182
0.000196324
0.000196181
0.000198996
0.000198884
0.000196535
0.000197675
0.000199475
0.000179254
0.000181235
0.000196835
0.000199029
0.000199746
0.000181926
0.000181813
0.000184415
0.000199833
0.00019909
0.000201705
0.000202295
0.000181029
0.000185004
0.00020007
0.000200033
0.000201764
0.000201957
0.000200366
0.000202281
0.000201809
0.000181695
0.000184592
0.000200479
0.000201778
0.000201799
0.000184189
0.000184333
0.000176637
0.00020259
0.00020324
0.000197168
0.000199388
0.000185273
0.000178659
0.000202648
0.000202956
0.00019682
0.00019711
0.000202555
0.000199027
0.00019548
0.000184768
0.000176824
0.000202398
0.000196816
0.000195033
0.000175287
0.000175128
0.00016846
0.000193743
0.000194884
0.000187625
0.000187523
0.000176454
0.000167139
0.000193477
0.000193248
0.000187426
0.000186585
0.000192691
0.000187531
0.000187001
0.000175004
0.000166927
0.000192451
0.000186762
0.000186865
0.000169327
0.00016872
0.000194768
0.000184794
0.000184069
0.000209627
0.000206795
0.00016588
0.000192671
0.000184677
0.000183502
0.000210042
0.000209874
0.000185115
0.000207253
0.000212356
0.000166783
0.000194909
0.000185273
0.000210405
0.000213067
0.000196831
0.000199023
0.000217131
0.000220385
0.000219087
0.000237648
0.000238759
0.000197608
0.000218688
0.00022068
0.00022129
0.000237759
0.000239418
0.000221848
0.00023844
0.000237068
0.000199538
0.000219577
0.000222288
0.000238987
0.000237232
0.000216458
0.000217675
0.000186224
0.000243681
0.000245208
0.000219944
0.000222902
0.000220071
0.000188148
0.000243785
0.000245689
0.00021928
0.000218209
0.000242254
0.000221837
0.000212973
0.000220125
0.000184428
0.000242306
0.000216974
0.000211907
0.000180769
0.000178839
0.000156017
0.000202495
0.000204473
0.000175588
0.000176216
0.000180295
0.000156728
0.000202027
0.000200925
0.000175654
0.000176042
0.000198752
0.000177064
0.000179596
0.000177113
0.000156726
0.000197994
0.000176898
0.000179564
0.000160417
0.000153827
0.000175029
0.000172003
0.000172732
0.00018169
0.000181642
0.000154674
0.000174908
0.000172136
0.000172805
0.000181791
0.000183152
0.000176723
0.000182407
0.00018815
0.000155158
0.000175518
0.000176721
0.000184049
0.000188521
0.000178612
0.000180433
0.000200477
0.000196081
0.000195022
0.000221555
0.000218112
0.000179834
0.000196571
0.000195964
0.000195438
0.000221697
0.000218841
0.000197247
0.000216833
0.000214183
0.00018004
0.000196831
0.000197377
0.000217552
0.000214401
0.000192638
0.000201115
0.000197561
0.00022435
0.000220477
0.000225421
0.000220746
0.00019692
0.000193529
0.000224592
0.000221878
0.000226632
0.000225396
0.000216592
0.000220364
0.000219032
0.000197725
0.000198479
0.000216981
0.000224538
0.000219839
0.000194487
0.000195663
0.000187448
0.000221333
0.000218091
0.000211517
0.000212899
0.000192673
0.000189356
0.00022258
0.000224142
0.000211169
0.000212496
0.000219397
0.000213309
0.000215711
0.000197272
0.000188296
0.000220377
0.00021303
0.000215542
0.0001915
0.000186402
0.000182172
0.000209125
0.000211652
0.00020548
0.000209505
0.000189014
0.000186599
0.000208503
0.000209637
0.000204709
0.000205627
0.000213375
0.000209784
0.000209533
0.0001871
0.000182901
0.000212902
0.000205893
0.000208824
0.000186162
0.000181033
0.000193717
0.000204146
0.00020836
0.00021363
0.000216099
0.000185647
0.000195953
0.000203236
0.00020433
0.0002141
0.00021632
0.000208331
0.000216675
0.000214454
0.00018265
0.000196015
0.000207557
0.000216425
0.00021449
0.000193846
0.000196566
0.000209871
0.000220617
0.000221803
0.00023237
0.000232104
0.000198265
0.000209932
0.000220657
0.000220732
0.000231578
0.000228699
0.000218777
0.000231319
0.000226623
0.00019775
0.000204318
0.000218495
0.000227735
0.00022576
0.000203981
0.000210804
0.000190667
0.00023685
0.000236269
0.000221121
0.000214617
0.000209257
0.000184718
0.000235761
0.000230878
0.00022038
0.000210047
0.000229324
0.000212754
0.000210028
0.000202035
0.000182171
0.000228072
0.000208688
0.000209692
0.000182964
0.000184804
0.000165327
0.00020802
0.000202913
0.000185934
0.000185148
0.000179635
0.000164075
0.000208041
0.000202426
0.000187188
0.000192086
0.000202148
0.000186235
0.000191366
0.000179141
0.000170707
0.000202562
0.000193287
0.00019285
0.000169804
0.000163611
0.000174834
0.000183387
0.000182368
0.000184376
0.000190337
0.000162211
0.000180146
0.000184742
0.000189485
0.000186135
0.000202094
0.000188687
0.000193295
0.000202115
0.000170418
0.000188418
0.000190268
0.000204736
0.000203723
0.000187924
0.000179752
0.000205209
0.000198133
0.000204197
0.000229809
0.000233546
0.000185178
0.000209041
0.000199332
0.000211791
0.000229129
0.000229313
0.000212576
0.000233642
0.000231351
0.000192024
0.00020575
0.000213489
0.00022932
0.00023045
0.000207104
0.000207203
0.000212824
0.000235091
0.000237839
0.000244716
0.000246975
0.000210598
0.000211836
0.000233909
0.000231813
0.000243014
0.000233366
0.000233922
0.000245672
0.000235099
0.00020634
0.000198263
0.000232958
0.000230378
0.000232111
0.000199515
0.000209281
0.000186384
0.000243951
0.000241806
0.00021358
0.000208186
0.000206853
0.000181029
0.000241594
0.000224529
0.000212638
0.000203883
0.000225271
0.000206424
0.000203128
0.000194121
0.000178802
0.000222673
0.000202602
0.000202702
0.000178615
0.000183465
0.000176202
0.000206279
0.00020135
0.000196923
0.00019327
0.000178345
0.000172083
0.000205968
0.000200938
0.000197664
0.000196705
0.000199942
0.000192941
0.000195918
0.000177803
0.000178365
0.00020009
0.000196501
0.000196539
0.000177913
0.000175562
0.000185012
0.000195492
0.000191615
0.000203351
0.000205512
0.000172468
0.000187156
0.000196186
0.000198162
0.000204979
0.000213561
0.000196862
0.000206932
0.000212001
0.000180294
0.000192972
0.000198611
0.000214641
0.000213204
0.000191487
0.000186743
0.00019423
0.000208513
0.00021153
0.000220095
0.00022385
0.000189272
0.000198164
0.000209799
0.00021693
0.000220034
0.000224505
0.000215798
0.000224538
0.000223641
0.000194008
0.00019854
0.000216592
0.000225366
0.000223899
0.000197341
0.000196738
0.000219907
0.000224011
0.000200958
0.000219752
0.000223291
0.000247968
0.000247487
0.000246986
0.000222988
0.000200303
0.000222996
0.00023473
0.000234746
0.000234729
0.000234729
0.000235117
0.000234798
0.000234701
0.000234727
0.000235118
0.000234798
0.000234727
0.000234701
0.000234867
0.000233566
0.000233566
0.000104651
3.87411e-05
0.000129118
3.98249e-05
2.16834e-05
2.28313e-05
0.000104643
3.87371e-05
0.000129114
3.98214e-05
0.000233973
0.000233973
0.000233973
0.000232935
0.000232935
0.000232935
0.000232935
0.000206196
9.36752e-05
0.000233969
0.000231994
0.000222614
8.72226e-05
0.000233611
2.16823e-05
2.28307e-05
0.00020619
0.000233969
9.36747e-05
0.000231994
0.000222622
0.000233611
8.72283e-05
4.78013e-05
4.77894e-05
0.000231345
4.40185e-05
4.40089e-05
7.25677e-05
4.2434e-05
8.14027e-05
4.37634e-05
2.47749e-05
2.54634e-05
7.25581e-05
4.24305e-05
8.13974e-05
4.37596e-05
0.000232532
0.000232532