/*--------------------------------*- C++ -*----------------------------------*\
| =========                 |                                                 |
| \\      /  F ield         | OpenFOAM: The Open Source CFD Toolbox           |
|  \\    /   O peration     | Version:  v1906                                 |
|   \\  /    A nd           | Web:      www.OpenFOAM.com                      |
|    \\/     M anipulation  |                                                 |
\*---------------------------------------------------------------------------*/
FoamFile
{
    version     2.0;
    format      ascii;
    class       volScalarField;
    location    "750";
    object      p;
}
// * * * * * * * * * * * * * * * * * * * * * * * * * * * * * * * * * * * * * //

dimensions      [0 2 -2 0 0 0 0];


internalField   nonuniform List<scalar> 
171728
(
0.00360393
0.00360426
0.00360426
0.00360732
0.00354858
0.003549
0.003549
0.00355199
0.00349783
0.0034978
0.0034978
0.00350055
0.00344544
0.00344546
0.00344546
0.00344823
0.00339409
0.0033941
0.0033941
0.00339685
0.00334412
0.00334413
0.00334413
0.00334685
0.0032956
0.00329561
0.00329561
0.00329829
0.00324837
0.00324839
0.00324839
0.00325104
0.00320224
0.00320226
0.00320226
0.00320488
0.00315701
0.00315703
0.00315703
0.00315962
0.0031125
0.00311252
0.00311252
0.00311509
0.0030686
0.00306862
0.00306862
0.00307116
0.0030252
0.00302522
0.00302522
0.00302773
0.00298228
0.00298229
0.00298229
0.0029848
0.00293978
0.00293979
0.00293979
0.00294229
0.00289769
0.00289769
0.00289769
0.00290018
0.00285598
0.00285598
0.00285598
0.00285846
0.00281464
0.00281463
0.00281463
0.0028171
0.00277362
0.00277361
0.00277361
0.00277607
0.00273292
0.0027329
0.0027329
0.00273536
0.00269251
0.00269248
0.00269248
0.00269493
0.00265237
0.00265233
0.00265233
0.00265478
0.00261248
0.00261243
0.00261243
0.00261487
0.00257283
0.00257277
0.00257277
0.0025752
0.0025334
0.00253334
0.00253334
0.00253576
0.00249419
0.00249414
0.00249414
0.00249654
0.00245519
0.00245514
0.00245514
0.00245752
0.00241639
0.00241634
0.00241634
0.00241871
0.00237778
0.00237774
0.00237774
0.00238008
0.00233936
0.00233932
0.00233932
0.00234165
0.00230112
0.00230109
0.00230109
0.00230339
0.00226306
0.00226303
0.00226303
0.00226531
0.00222516
0.00222514
0.00222514
0.0022274
0.00218743
0.00218741
0.00218741
0.00218965
0.00214985
0.00214984
0.00214984
0.00215206
0.00211243
0.00211242
0.00211242
0.00211462
0.00207515
0.00207514
0.00207514
0.00207733
0.00203802
0.002038
0.002038
0.00204018
0.00200102
0.002001
0.002001
0.00200316
0.00196415
0.00196412
0.00196412
0.00196627
0.0019274
0.00192737
0.00192737
0.0019295
0.00189077
0.00189073
0.00189073
0.00189286
0.00185426
0.00185421
0.00185421
0.00185632
0.00181784
0.00181779
0.00181779
0.00181989
0.00178153
0.00178146
0.00178146
0.00178356
0.00174531
0.00174524
0.00174524
0.00174732
0.00170917
0.0017091
0.0017091
0.00171118
0.00167312
0.00167304
0.00167304
0.00167511
0.00163715
0.00163705
0.00163705
0.00163912
0.00160124
0.00160114
0.00160114
0.0016032
0.0015654
0.0015653
0.0015653
0.00156735
0.00152962
0.00152951
0.00152951
0.00153156
0.0014939
0.00149378
0.00149378
0.00149582
0.00145822
0.0014581
0.0014581
0.00146014
0.0014226
0.00142248
0.00142248
0.00142451
0.00138702
0.00138689
0.00138689
0.00138892
0.00135147
0.00135134
0.00135134
0.00135336
0.00131595
0.00131583
0.00131582
0.00131785
0.00128047
0.00128034
0.00128034
0.00128236
0.00124501
0.00124489
0.00124489
0.0012469
0.00120956
0.00120945
0.00120944
0.00121146
0.00117416
0.00117404
0.00117404
0.00117604
0.00113874
0.00113862
0.00113863
0.00114063
0.00110334
0.00110323
0.00110322
0.00110523
0.00106792
0.00106782
0.00106783
0.00106983
0.00103255
0.00103245
0.00103245
0.00103446
0.000997254
0.000997151
0.000997139
0.000999137
0.000961808
0.000961665
0.000961676
0.000963669
0.000926304
0.000926269
0.000926242
0.000928271
0.000890997
0.00089086
0.000890936
0.000892944
0.000855616
0.000855553
0.000855521
0.000857499
0.000820135
0.000820052
0.000819976
0.000821988
0.000783852
0.000783702
0.000783719
0.000785763
0.000748518
0.00074862
0.000748713
0.000750744
0.000715669
0.000715974
0.000715932
0.000717766
0.000681191
0.000680271
0.00068018
0.000681973
0.00064228
0.000641506
0.000641522
0.00064354
0.000603677
0.000605033
0.000605239
0.000607746
0.000570141
0.000570705
0.000570533
0.000572756
0.000536898
0.000535578
0.000535573
0.000537123
0.000501865
0.000501639
0.000501768
0.000503618
0.000466879
0.000467014
0.000466744
0.000468966
0.000429997
0.000430016
0.000430257
0.000432236
0.000393742
0.000393841
0.000393947
0.000395972
0.000357341
0.000357026
0.000356734
0.000358931
0.000318891
0.000318418
0.000318708
0.000320712
0.000281568
0.000282458
0.0002825
0.000284743
0.000248215
0.000248629
0.000248324
0.000250548
0.000215613
0.000214428
0.00021436
0.000215976
0.000179062
0.000178651
0.000178856
0.000180612
0.000140774
0.000141078
0.000141375
0.000143725
0.000103714
0.000104357
0.000104081
0.000106468
6.82083e-05
6.83196e-05
6.80915e-05
7.00605e-05
3.40903e-05
3.29467e-05
3.30465e-05
3.4631e-05
6.03029e-06
6.92328e-06
7.03564e-06
5.20168e-06
0.00361734
0.00361757
0.00361756
0.00361734
0.00361757
0.00361757
0.00361833
0.00361833
0.00361833
0.00361833
0.00361757
0.00361757
0.00361734
0.00361757
0.00361757
0.00361734
0.00360732
0.00355856
0.00360426
0.00360426
0.00356084
0.00356084
0.00360732
0.00355856
0.00360426
0.00360426
0.00356084
0.00356084
0.00360426
0.00356083
0.00356084
0.00360732
0.00355856
0.00360427
0.00356084
0.00356083
0.00355856
0.00355199
0.00350748
0.003549
0.003549
0.00351092
0.00351092
0.00355199
0.00350748
0.003549
0.003549
0.00351092
0.00351092
0.003549
0.00351092
0.00351092
0.00355199
0.00350748
0.00354899
0.00351092
0.00351092
0.00350748
0.00350055
0.00345511
0.0034978
0.0034978
0.00345847
0.00345847
0.00350055
0.00345511
0.0034978
0.0034978
0.00345847
0.00345847
0.0034978
0.00345847
0.00345847
0.00350055
0.00345511
0.0034978
0.00345847
0.00345847
0.00345511
0.00344823
0.00340356
0.00344546
0.00344546
0.00340682
0.00340683
0.00344823
0.00340356
0.00344546
0.00344546
0.00340682
0.00340683
0.00344546
0.00340682
0.00340682
0.00344823
0.00340356
0.00344546
0.00340682
0.00340682
0.00340356
0.00339685
0.00335335
0.0033941
0.0033941
0.00335648
0.00335649
0.00339685
0.00335335
0.0033941
0.0033941
0.00335648
0.00335649
0.0033941
0.00335648
0.00335648
0.00339685
0.00335335
0.0033941
0.00335648
0.00335648
0.00335335
0.00334685
0.0033046
0.00334413
0.00334413
0.00330761
0.00330761
0.00334685
0.00330459
0.00334413
0.00334413
0.00330761
0.00330762
0.00334413
0.00330761
0.00330761
0.00334685
0.0033046
0.00334413
0.00330761
0.00330761
0.00330459
0.00329829
0.00325717
0.00329561
0.00329561
0.00326009
0.00326009
0.00329829
0.00325717
0.00329561
0.00329561
0.00326009
0.00326009
0.00329561
0.00326009
0.00326009
0.00329829
0.00325717
0.00329561
0.00326009
0.00326009
0.00325717
0.00325104
0.00321087
0.00324839
0.00324839
0.0032137
0.0032137
0.00325104
0.00321087
0.00324839
0.00324839
0.0032137
0.0032137
0.00324839
0.0032137
0.0032137
0.00325104
0.00321087
0.00324839
0.0032137
0.0032137
0.00321087
0.00320488
0.0031655
0.00320226
0.00320226
0.00316827
0.00316827
0.00320488
0.0031655
0.00320226
0.00320226
0.00316827
0.00316827
0.00320226
0.00316827
0.00316827
0.00320489
0.0031655
0.00320226
0.00316827
0.00316827
0.0031655
0.00315962
0.00312087
0.00315703
0.00315703
0.0031236
0.0031236
0.00315962
0.00312087
0.00315703
0.00315703
0.00312359
0.0031236
0.00315703
0.0031236
0.00312359
0.00315963
0.00312087
0.00315703
0.0031236
0.00312359
0.00312087
0.00311509
0.00307686
0.00311253
0.00311252
0.00307954
0.00307954
0.00311509
0.00307686
0.00311253
0.00311252
0.00307954
0.00307955
0.00311253
0.00307954
0.00307954
0.00311509
0.00307686
0.00311253
0.00307955
0.00307954
0.00307686
0.00307116
0.00303337
0.00306862
0.00306862
0.00303602
0.00303602
0.00307116
0.00303337
0.00306862
0.00306862
0.00303602
0.00303602
0.00306862
0.00303602
0.00303603
0.00307116
0.00303337
0.00306862
0.00303602
0.00303603
0.00303337
0.00302774
0.00299036
0.00302522
0.00302522
0.00299298
0.00299298
0.00302773
0.00299036
0.00302522
0.00302522
0.00299298
0.00299298
0.00302522
0.00299298
0.00299298
0.00302773
0.00299036
0.00302522
0.00299298
0.00299298
0.00299036
0.00298479
0.0029478
0.00298229
0.00298229
0.00295038
0.00295038
0.0029848
0.0029478
0.00298229
0.00298229
0.00295038
0.00295038
0.00298229
0.00295038
0.00295038
0.00298479
0.0029478
0.00298229
0.00295038
0.00295038
0.0029478
0.00294229
0.00290565
0.00293979
0.00293979
0.00290818
0.00290818
0.00294229
0.00290565
0.00293979
0.00293979
0.00290818
0.00290818
0.00293979
0.00290818
0.00290818
0.00294229
0.00290565
0.00293979
0.00290818
0.00290818
0.00290565
0.00290018
0.00286388
0.00289769
0.00289769
0.00286637
0.00286637
0.00290018
0.00286388
0.00289769
0.00289769
0.00286637
0.00286637
0.00289769
0.00286637
0.00286637
0.00290018
0.00286388
0.00289769
0.00286637
0.00286637
0.00286388
0.00285846
0.00282247
0.00285598
0.00285598
0.00282494
0.00282494
0.00285846
0.00282247
0.00285598
0.00285598
0.00282493
0.00282493
0.00285598
0.00282494
0.00282493
0.00285846
0.00282247
0.00285598
0.00282493
0.00282493
0.00282247
0.0028171
0.0027814
0.00281463
0.00281463
0.00278383
0.00278384
0.0028171
0.0027814
0.00281463
0.00281463
0.00278383
0.00278383
0.00281463
0.00278383
0.00278383
0.0028171
0.0027814
0.00281463
0.00278383
0.00278383
0.0027814
0.00277607
0.00274065
0.00277361
0.00277361
0.00274305
0.00274305
0.00277607
0.00274065
0.00277361
0.00277361
0.00274305
0.00274305
0.00277361
0.00274305
0.00274305
0.00277607
0.00274065
0.00277361
0.00274305
0.00274305
0.00274065
0.00273536
0.00270019
0.0027329
0.0027329
0.00270256
0.00270256
0.00273535
0.00270019
0.0027329
0.0027329
0.00270256
0.00270256
0.0027329
0.00270256
0.00270256
0.00273536
0.00270019
0.0027329
0.00270256
0.00270256
0.00270019
0.00269493
0.00266
0.00269248
0.00269248
0.00266234
0.00266234
0.00269493
0.00266
0.00269248
0.00269248
0.00266234
0.00266234
0.00269248
0.00266234
0.00266234
0.00269493
0.00266
0.00269248
0.00266234
0.00266234
0.00266
0.00265478
0.00262007
0.00265233
0.00265233
0.00262238
0.00262238
0.00265478
0.00262007
0.00265233
0.00265233
0.00262238
0.00262238
0.00265233
0.00262238
0.00262238
0.00265477
0.00262007
0.00265233
0.00262238
0.00262238
0.00262007
0.00261487
0.00258038
0.00261243
0.00261243
0.00258267
0.00258267
0.00261487
0.00258038
0.00261243
0.00261243
0.00258267
0.00258267
0.00261243
0.00258267
0.00258267
0.00261487
0.00258038
0.00261243
0.00258267
0.00258267
0.00258038
0.0025752
0.00254091
0.00257277
0.00257277
0.00254318
0.00254318
0.0025752
0.00254091
0.00257277
0.00257277
0.00254318
0.00254318
0.00257277
0.00254318
0.00254318
0.0025752
0.00254091
0.00257277
0.00254318
0.00254318
0.00254091
0.00253576
0.00250166
0.00253334
0.00253334
0.00250392
0.00250392
0.00253576
0.00250166
0.00253334
0.00253334
0.00250392
0.00250392
0.00253334
0.00250392
0.00250392
0.00253576
0.00250166
0.00253334
0.00250392
0.00250392
0.00250166
0.00249654
0.00246262
0.00249414
0.00249414
0.00246487
0.00246487
0.00249654
0.00246262
0.00249414
0.00249414
0.00246487
0.00246487
0.00249414
0.00246487
0.00246487
0.00249654
0.00246262
0.00249414
0.00246487
0.00246487
0.00246262
0.00245752
0.00242379
0.00245514
0.00245514
0.00242602
0.00242602
0.00245752
0.00242379
0.00245514
0.00245514
0.00242602
0.00242602
0.00245514
0.00242602
0.00242602
0.00245752
0.00242379
0.00245514
0.00242602
0.00242602
0.00242379
0.00241871
0.00238514
0.00241634
0.00241634
0.00238737
0.00238737
0.00241871
0.00238514
0.00241634
0.00241634
0.00238737
0.00238737
0.00241634
0.00238737
0.00238737
0.00241871
0.00238514
0.00241634
0.00238737
0.00238737
0.00238514
0.00238008
0.00234669
0.00237774
0.00237774
0.00234891
0.00234891
0.00238008
0.00234669
0.00237774
0.00237774
0.00234891
0.00234891
0.00237774
0.00234891
0.00234891
0.00238008
0.00234669
0.00237774
0.00234891
0.00234891
0.00234669
0.00234165
0.00230842
0.00233932
0.00233932
0.00231063
0.00231063
0.00234165
0.00230842
0.00233932
0.00233932
0.00231063
0.00231063
0.00233932
0.00231063
0.00231063
0.00234165
0.00230842
0.00233932
0.00231063
0.00231063
0.00230842
0.00230339
0.00227032
0.00230109
0.00230109
0.00227252
0.00227252
0.00230339
0.00227032
0.00230109
0.00230109
0.00227252
0.00227252
0.00230109
0.00227252
0.00227252
0.00230339
0.00227032
0.00230109
0.00227252
0.00227252
0.00227032
0.00226531
0.00223239
0.00226303
0.00226303
0.00223459
0.00223459
0.00226531
0.00223239
0.00226303
0.00226303
0.00223459
0.00223459
0.00226303
0.00223459
0.00223459
0.00226531
0.00223239
0.00226303
0.00223459
0.00223459
0.00223239
0.0022274
0.00219463
0.00222514
0.00222514
0.00219683
0.00219683
0.0022274
0.00219463
0.00222514
0.00222514
0.00219683
0.00219683
0.00222514
0.00219683
0.00219683
0.0022274
0.00219463
0.00222514
0.00219683
0.00219683
0.00219463
0.00218965
0.00215702
0.00218741
0.00218741
0.00215922
0.00215922
0.00218965
0.00215702
0.00218741
0.00218741
0.00215922
0.00215922
0.00218741
0.00215922
0.00215922
0.00218965
0.00215702
0.00218741
0.00215922
0.00215922
0.00215702
0.00215206
0.00211957
0.00214984
0.00214984
0.00212176
0.00212176
0.00215206
0.00211957
0.00214984
0.00214984
0.00212176
0.00212176
0.00214984
0.00212176
0.00212176
0.00215206
0.00211957
0.00214984
0.00212176
0.00212176
0.00211957
0.00211462
0.00208226
0.00211242
0.00211242
0.00208445
0.00208445
0.00211462
0.00208226
0.00211242
0.00211242
0.00208445
0.00208445
0.00211242
0.00208445
0.00208445
0.00211462
0.00208226
0.00211242
0.00208445
0.00208445
0.00208226
0.00207733
0.0020451
0.00207514
0.00207514
0.00204728
0.00204728
0.00207733
0.0020451
0.00207514
0.00207514
0.00204728
0.00204728
0.00207514
0.00204728
0.00204728
0.00207733
0.0020451
0.00207514
0.00204728
0.00204728
0.0020451
0.00204017
0.00200807
0.002038
0.002038
0.00201024
0.00201024
0.00204017
0.00200807
0.002038
0.002038
0.00201024
0.00201024
0.002038
0.00201024
0.00201024
0.00204018
0.00200807
0.002038
0.00201024
0.00201024
0.00200807
0.00200316
0.00197117
0.002001
0.002001
0.00197333
0.00197333
0.00200316
0.00197117
0.002001
0.002001
0.00197333
0.00197333
0.002001
0.00197333
0.00197333
0.00200316
0.00197117
0.002001
0.00197333
0.00197333
0.00197117
0.00196627
0.00193439
0.00196412
0.00196412
0.00193655
0.00193655
0.00196627
0.00193439
0.00196412
0.00196412
0.00193655
0.00193655
0.00196413
0.00193655
0.00193655
0.00196627
0.00193439
0.00196412
0.00193655
0.00193655
0.00193439
0.0019295
0.00189773
0.00192737
0.00192737
0.00189988
0.00189988
0.0019295
0.00189773
0.00192737
0.00192737
0.00189988
0.00189988
0.00192737
0.00189988
0.00189988
0.0019295
0.00189773
0.00192737
0.00189988
0.00189988
0.00189773
0.00189286
0.00186119
0.00189073
0.00189073
0.00186333
0.00186333
0.00189286
0.00186119
0.00189073
0.00189073
0.00186333
0.00186333
0.00189073
0.00186333
0.00186333
0.00189286
0.00186119
0.00189073
0.00186333
0.00186333
0.00186119
0.00185632
0.00182475
0.00185421
0.00185421
0.00182688
0.00182688
0.00185632
0.00182475
0.00185421
0.00185421
0.00182688
0.00182688
0.00185421
0.00182688
0.00182688
0.00185632
0.00182475
0.00185421
0.00182688
0.00182688
0.00182475
0.00181989
0.00178841
0.00181779
0.00181779
0.00179054
0.00179054
0.00181989
0.00178841
0.00181779
0.00181779
0.00179054
0.00179054
0.00181779
0.00179054
0.00179054
0.00181989
0.00178841
0.00181779
0.00179054
0.00179054
0.00178841
0.00178356
0.00175217
0.00178146
0.00178146
0.00175428
0.00175428
0.00178356
0.00175217
0.00178146
0.00178146
0.00175428
0.00175428
0.00178146
0.00175428
0.00175428
0.00178356
0.00175217
0.00178146
0.00175428
0.00175428
0.00175217
0.00174732
0.00171601
0.00174524
0.00174524
0.00171812
0.00171812
0.00174732
0.00171601
0.00174524
0.00174524
0.00171812
0.00171812
0.00174524
0.00171812
0.00171812
0.00174732
0.00171601
0.00174524
0.00171812
0.00171812
0.00171601
0.00171118
0.00167994
0.0017091
0.0017091
0.00168204
0.00168204
0.00171118
0.00167994
0.0017091
0.0017091
0.00168204
0.00168204
0.0017091
0.00168204
0.00168204
0.00171118
0.00167994
0.0017091
0.00168204
0.00168204
0.00167994
0.00167511
0.00164394
0.00167304
0.00167304
0.00164604
0.00164604
0.00167511
0.00164394
0.00167304
0.00167304
0.00164604
0.00164604
0.00167304
0.00164604
0.00164604
0.00167511
0.00164394
0.00167304
0.00164604
0.00164604
0.00164394
0.00163912
0.00160802
0.00163705
0.00163705
0.00161011
0.00161011
0.00163912
0.00160802
0.00163705
0.00163705
0.00161011
0.00161011
0.00163705
0.00161011
0.00161011
0.00163912
0.00160802
0.00163705
0.00161011
0.00161011
0.00160802
0.0016032
0.00157216
0.00160114
0.00160114
0.00157425
0.00157425
0.0016032
0.00157216
0.00160114
0.00160114
0.00157425
0.00157425
0.00160114
0.00157425
0.00157425
0.0016032
0.00157216
0.00160114
0.00157425
0.00157425
0.00157216
0.00156735
0.00153637
0.0015653
0.0015653
0.00153845
0.00153845
0.00156735
0.00153637
0.0015653
0.0015653
0.00153845
0.00153845
0.0015653
0.00153845
0.00153845
0.00156735
0.00153637
0.0015653
0.00153845
0.00153845
0.00153637
0.00153156
0.00150063
0.00152951
0.00152951
0.00150271
0.00150271
0.00153156
0.00150063
0.00152951
0.00152951
0.00150271
0.00150271
0.00152951
0.00150271
0.00150271
0.00153156
0.00150063
0.00152951
0.00150271
0.00150271
0.00150063
0.00149582
0.00146494
0.00149378
0.00149378
0.00146702
0.00146702
0.00149582
0.00146494
0.00149378
0.00149378
0.00146702
0.00146702
0.00149378
0.00146702
0.00146702
0.00149582
0.00146494
0.00149378
0.00146702
0.00146702
0.00146494
0.00146014
0.00142931
0.0014581
0.0014581
0.00143138
0.00143138
0.00146014
0.00142931
0.0014581
0.0014581
0.00143138
0.00143138
0.0014581
0.00143138
0.00143138
0.00146014
0.00142931
0.0014581
0.00143138
0.00143138
0.00142931
0.00142451
0.00139371
0.00142248
0.00142248
0.00139578
0.00139578
0.00142451
0.00139371
0.00142248
0.00142248
0.00139578
0.00139578
0.00142248
0.00139578
0.00139578
0.00142451
0.00139371
0.00142248
0.00139578
0.00139578
0.00139371
0.00138892
0.00135816
0.00138689
0.00138689
0.00136022
0.00136022
0.00138892
0.00135816
0.00138689
0.00138689
0.00136022
0.00136022
0.00138689
0.00136022
0.00136022
0.00138892
0.00135816
0.00138689
0.00136022
0.00136022
0.00135816
0.00135336
0.00132264
0.00135134
0.00135134
0.0013247
0.0013247
0.00135336
0.00132264
0.00135134
0.00135134
0.0013247
0.0013247
0.00135134
0.0013247
0.0013247
0.00135336
0.00132264
0.00135134
0.0013247
0.0013247
0.00132264
0.00131785
0.00128715
0.00131583
0.00131583
0.00128921
0.00128921
0.00131785
0.00128715
0.00131583
0.00131582
0.00128921
0.00128921
0.00131583
0.00128921
0.00128921
0.00131785
0.00128715
0.00131583
0.00128921
0.00128921
0.00128715
0.00128236
0.00125169
0.00128034
0.00128034
0.00125375
0.00125375
0.00128236
0.00125169
0.00128034
0.00128034
0.00125375
0.00125375
0.00128034
0.00125375
0.00125375
0.00128236
0.00125169
0.00128034
0.00125375
0.00125375
0.00125169
0.0012469
0.00121625
0.00124489
0.00124489
0.0012183
0.0012183
0.0012469
0.00121625
0.00124489
0.00124489
0.0012183
0.0012183
0.00124489
0.0012183
0.0012183
0.0012469
0.00121625
0.00124489
0.0012183
0.0012183
0.00121625
0.00121146
0.00118083
0.00120944
0.00120944
0.00118289
0.00118289
0.00121146
0.00118083
0.00120944
0.00120944
0.00118289
0.00118289
0.00120945
0.00118289
0.00118289
0.00121146
0.00118083
0.00120945
0.00118289
0.00118289
0.00118083
0.00117605
0.00114542
0.00117404
0.00117404
0.00114747
0.00114747
0.00117604
0.00114542
0.00117404
0.00117404
0.00114748
0.00114748
0.00117403
0.00114747
0.00114748
0.00117604
0.00114543
0.00117403
0.00114748
0.00114748
0.00114542
0.00114063
0.00111003
0.00113862
0.00113862
0.00111208
0.00111208
0.00114063
0.00111003
0.00113862
0.00113863
0.00111208
0.00111207
0.00113863
0.00111208
0.00111208
0.00114063
0.00111002
0.00113863
0.00111207
0.00111207
0.00111002
0.00110524
0.00107462
0.00110323
0.00110323
0.00107667
0.00107667
0.00110524
0.00107462
0.00110323
0.00110322
0.00107667
0.00107668
0.00110323
0.00107667
0.00107667
0.00110523
0.00107463
0.00110323
0.00107668
0.00107668
0.00107463
0.00106983
0.00103925
0.00106782
0.00106782
0.00104129
0.00104129
0.00106983
0.00103925
0.00106782
0.00106783
0.00104129
0.00104129
0.00106782
0.00104129
0.00104129
0.00106983
0.00103925
0.00106783
0.00104129
0.00104129
0.00103925
0.00103447
0.00100394
0.00103246
0.00103245
0.00100599
0.00100598
0.00103446
0.00100394
0.00103246
0.00103245
0.00100598
0.00100598
0.00103246
0.00100598
0.00100598
0.00103446
0.00100393
0.00103246
0.00100597
0.00100597
0.00100393
0.000999146
0.000968468
0.000997147
0.000997152
0.000970534
0.000970543
0.000999146
0.000968476
0.000997145
0.000997147
0.000970538
0.000970548
0.000997141
0.000970548
0.000970545
0.00099914
0.000968481
0.000997133
0.000970553
0.000970549
0.000968479
0.000963655
0.000933066
0.000961655
0.000961659
0.000935099
0.00093511
0.00096366
0.000933075
0.000961661
0.000961668
0.000935089
0.000935084
0.000961669
0.000935108
0.000935098
0.000963668
0.000933052
0.000961677
0.000935085
0.00093509
0.000933064
0.000928278
0.000897747
0.000926271
0.000926275
0.000899774
0.000899728
0.000928284
0.000897688
0.000926257
0.000926244
0.000899782
0.000899766
0.000926258
0.000899725
0.000899764
0.000928257
0.00089775
0.000926249
0.000899768
0.000899779
0.000897748
0.000892932
0.000862292
0.00089091
0.000890854
0.000864331
0.000864349
0.00089287
0.000862322
0.000890931
0.000890931
0.000864337
0.000864366
0.000890922
0.000864357
0.000864357
0.00089295
0.000862312
0.000890944
0.000864363
0.000864353
0.000862299
0.000857502
0.000826884
0.00085551
0.00085555
0.00082898
0.00082905
0.000857543
0.000826935
0.000855503
0.000855529
0.00082895
0.000828944
0.000855516
0.00082903
0.000828918
0.000857515
0.000826853
0.000855499
0.000828929
0.00082889
0.000826836
0.00082203
0.000790698
0.000820028
0.000820072
0.000792858
0.000792842
0.000822063
0.00079072
0.000820004
0.000819986
0.00079286
0.000792846
0.00081997
0.000792842
0.000792841
0.000821993
0.000790717
0.000819951
0.000792854
0.000792846
0.000790695
0.000785721
0.000755262
0.000783706
0.000783695
0.000757087
0.000757029
0.000785749
0.000755213
0.000783716
0.0007837
0.00075712
0.000757154
0.000783738
0.000757068
0.000757228
0.000785747
0.000755322
0.000783761
0.000757192
0.000757264
0.00075538
0.000750646
0.00072233
0.000748609
0.000748592
0.000724036
0.000724008
0.000750606
0.000722299
0.000748636
0.00074869
0.000724034
0.000724065
0.000748707
0.000723996
0.00072403
0.000750701
0.000722334
0.000748726
0.000724045
0.000724021
0.000722262
0.000717913
0.000687115
0.000715965
0.000716014
0.000689622
0.000689653
0.000717952
0.000687139
0.000715938
0.00071599
0.000689597
0.000689507
0.000715848
0.000689626
0.000689447
0.000717916
0.000687033
0.000715819
0.000689476
0.000689411
0.000686983
0.000682071
0.000648866
0.000680298
0.000680284
0.000651504
0.000651508
0.000682085
0.000648892
0.000680288
0.00068019
0.000651501
0.000651472
0.000680191
0.000651519
0.000651485
0.000682005
0.00064883
0.000680177
0.000651485
0.000651487
0.000648863
0.000643421
0.00061217
0.000641487
0.000641476
0.000613513
0.000613491
0.000643415
0.000612192
0.000641491
0.000641467
0.00061357
0.000613763
0.000641604
0.000613605
0.000613948
0.0006434
0.000612405
0.000641617
0.000613879
0.00061403
0.000612526
0.000607468
0.000577719
0.000604943
0.000604992
0.00057936
0.000579353
0.000607494
0.000577656
0.000604985
0.000605157
0.000579323
0.000579246
0.000605234
0.000579237
0.000579086
0.000607664
0.000577572
0.000605299
0.000579136
0.000579042
0.000577446
0.00057317
0.000542114
0.000570953
0.000570882
0.000544603
0.000544301
0.000573071
0.000541974
0.000570882
0.000570696
0.000544627
0.000544409
0.000570431
0.000544503
0.000544248
0.000572957
0.000541951
0.000570357
0.00054436
0.00054422
0.000541847
0.000537205
0.000507582
0.000535503
0.000535454
0.000509669
0.000509782
0.000537148
0.000507742
0.000535589
0.000535508
0.000509733
0.000509962
0.000535524
0.000509957
0.000510259
0.000537166
0.000507911
0.000535539
0.000510138
0.00051032
0.00050813
0.000503098
0.000473866
0.000501363
0.000501487
0.000475877
0.00047598
0.000503259
0.000473971
0.000501409
0.000501618
0.000475806
0.000475758
0.000501914
0.000475968
0.000475945
0.000503398
0.000473721
0.000501955
0.000475751
0.000475888
0.000473873
0.000469051
0.000437465
0.000467043
0.000467076
0.000439488
0.0004394
0.000469111
0.000437326
0.000466965
0.000466811
0.000439519
0.000439495
0.000466904
0.000439309
0.000439205
0.000468868
0.000437448
0.000466824
0.000439396
0.000439239
0.000437234
0.000432401
0.000400794
0.000430154
0.000430061
0.000402699
0.000402666
0.000432263
0.000400727
0.000430232
0.000430303
0.000402776
0.000402908
0.000430023
0.00040271
0.000402816
0.00043244
0.000400981
0.000430103
0.000402954
0.000402884
0.00040085
0.000395977
0.000364097
0.000393815
0.000393782
0.00036645
0.000366513
0.000395906
0.000364195
0.000393859
0.000393913
0.000366343
0.000366124
0.000393869
0.000366495
0.000366378
0.000396088
0.000363867
0.000393901
0.000366135
0.000366276
0.00036405
0.000358963
0.000325837
0.000356978
0.000357037
0.000328195
0.000328125
0.000359049
0.000325697
0.000356888
0.00035673
0.000328239
0.000328178
0.000356925
0.000328145
0.000328228
0.000358772
0.000325864
0.000356843
0.000328218
0.000328267
0.000325888
0.000320503
0.000289356
0.000318402
0.000318349
0.000290951
0.00029105
0.00032042
0.00028945
0.000318491
0.000318642
0.000291006
0.000291298
0.000318624
0.000291126
0.000291265
0.000320728
0.000289583
0.000318692
0.000291344
0.000291297
0.000289541
0.000284645
0.000255179
0.000282388
0.000282441
0.000256983
0.000256988
0.00028473
0.000255247
0.000282394
0.000282517
0.000256884
0.000256769
0.000282495
0.000256887
0.000256762
0.000284782
0.000255048
0.000282477
0.000256669
0.000256669
0.000255045
0.000250662
0.000221034
0.000248657
0.00024873
0.000223446
0.00022332
0.000250787
0.000220898
0.000248558
0.000248448
0.000223415
0.000223069
0.000248465
0.000223253
0.000223024
0.000250525
0.000220714
0.000248361
0.000223004
0.000223013
0.000220694
0.000216224
0.000185436
0.000214572
0.00021444
0.000187653
0.000187636
0.000216101
0.000185413
0.000214597
0.000214365
0.000187731
0.000187908
0.0002143
0.000187719
0.00018789
0.000216004
0.00018561
0.000214339
0.000187997
0.000187973
0.000185597
0.000180499
0.000148209
0.000178549
0.000178562
0.000150278
0.000150285
0.000180477
0.000148316
0.00017863
0.000178794
0.000150349
0.000150576
0.000178797
0.000150388
0.000150638
0.000180612
0.000148728
0.000178855
0.000150697
0.00015073
0.000148788
0.000143142
0.000111618
0.000140863
0.000140951
0.000113504
0.00011357
0.000143298
0.000111695
0.000140929
0.00014125
0.00011342
0.000113384
0.000141346
0.000113529
0.000113461
0.000143658
0.000111483
0.000141419
0.000113352
0.000113386
0.000111543
0.000106595
7.53049e-05
0.000104411
0.000104436
7.72944e-05
7.73025e-05
0.00010665
7.53432e-05
0.000104309
0.000104165
7.7219e-05
7.71166e-05
0.000104195
7.71919e-05
7.7029e-05
0.000106425
7.50587e-05
0.000104094
7.6984e-05
7.69341e-05
7.49995e-05
7.04184e-05
3.95215e-05
6.8425e-05
6.84239e-05
4.17228e-05
4.16129e-05
7.044e-05
3.94195e-05
6.83553e-05
6.82221e-05
4.17347e-05
4.1624e-05
6.81338e-05
4.15893e-05
4.15677e-05
7.01129e-05
3.94518e-05
6.80454e-05
4.16124e-05
4.16017e-05
3.94228e-05
3.46705e-05
8.14872e-06
3.3003e-05
3.29316e-05
1.10646e-05
1.10232e-05
3.45776e-05
8.11019e-06
3.30404e-05
3.30333e-05
1.11156e-05
1.11968e-05
3.30061e-05
1.10686e-05
1.12365e-05
3.46495e-05
8.22852e-06
3.30507e-05
1.12416e-05
1.12835e-05
8.27939e-06
5.12005e-06
6.80424e-06
6.79422e-06
5.08703e-06
6.93489e-06
6.90654e-06
6.0114e-06
6.14548e-06
6.17615e-06
6.94984e-06
5.15658e-06
7.08036e-06
0.00362572
0.00363548
0.00363028
0.00363028
0.00365266
0.00363944
0.00366805
0.00363349
0.00365266
0.00363945
0.00363349
0.00366805
0.00364401
0.00367179
0.00367179
0.00358107
0.00360022
0.00360941
0.00357316
0.00357389
0.00357666
0.00358105
0.0036002
0.0036094
0.00357314
0.00360393
0.00360394
0.00360394
0.00356053
0.00356053
0.00356053
0.00356053
0.00357858
0.0036044
0.00360433
0.0035874
0.00360743
0.00357748
0.00358828
0.003574
0.00357666
0.00357858
0.00360434
0.00360441
0.0035874
0.00360742
0.00358828
0.00357748
0.00361028
0.00361026
0.0035818
0.00357712
0.00357711
0.00353445
0.00355372
0.00355509
0.00353298
0.00355263
0.00353254
0.00353444
0.00355372
0.00355508
0.00353298
0.00354858
0.00354858
0.00354858
0.00351099
0.00351099
0.00351099
0.00351099
0.00353303
0.0035538
0.00354858
0.00353671
0.00355259
0.00353357
0.00353644
0.00355263
0.00353253
0.00353303
0.00354858
0.0035538
0.00353671
0.00355259
0.00353644
0.00353357
0.00355482
0.00355482
0.00353326
0.0035339
0.00353391
0.00348218
0.00350098
0.00350206
0.00348116
0.00350062
0.00348088
0.00348218
0.00350098
0.00350206
0.00348116
0.00349783
0.00349783
0.00349783
0.00345845
0.00345845
0.00345845
0.00345845
0.00348128
0.00350139
0.0034977
0.00348466
0.00350082
0.00348165
0.00348457
0.00350062
0.00348087
0.00348128
0.0034977
0.00350139
0.00348466
0.00350082
0.00348457
0.00348164
0.00350163
0.00350163
0.00348127
0.00348171
0.00348171
0.00342966
0.00344831
0.00344917
0.00342889
0.00344811
0.00342871
0.00342966
0.00344831
0.00344917
0.00342889
0.00344544
0.00344544
0.00344544
0.00340682
0.00340682
0.00340682
0.00340682
0.00342915
0.00344872
0.00344541
0.00343251
0.00344844
0.00342934
0.00343247
0.00344811
0.00342871
0.00342915
0.00344541
0.00344872
0.00343251
0.00344844
0.00343247
0.00342933
0.00344876
0.00344876
0.00342919
0.00342927
0.00342927
0.00337846
0.00339682
0.00339745
0.00337791
0.00339667
0.00337777
0.00337846
0.00339682
0.00339745
0.00337791
0.00339409
0.00339409
0.00339409
0.00335647
0.00335647
0.00335647
0.00335647
0.00337819
0.00339717
0.00339407
0.00338147
0.003397
0.0033783
0.00338144
0.00339667
0.00337777
0.00337819
0.00339407
0.00339717
0.00338147
0.003397
0.00338144
0.0033783
0.00339715
0.00339715
0.00337827
0.00337821
0.00337821
0.00332882
0.00334677
0.00334722
0.00332842
0.00334666
0.0033283
0.00332882
0.00334677
0.00334722
0.00332842
0.00334412
0.00334412
0.00334412
0.0033076
0.0033076
0.0033076
0.0033076
0.0033287
0.00334707
0.0033441
0.00333187
0.00334695
0.00332877
0.00333184