/*--------------------------------*- C++ -*----------------------------------*\
| =========                 |                                                 |
| \\      /  F ield         | OpenFOAM: The Open Source CFD Toolbox           |
|  \\    /   O peration     | Version:  v1912                                 |
|   \\  /    A nd           | Website:  www.openfoam.com                      |
|    \\/     M anipulation  |                                                 |
\*---------------------------------------------------------------------------*/
FoamFile
{
    version     2.0;
    format      ascii;
    class       volScalarField;
    location    "0.55";
    object      nut;
}
// * * * * * * * * * * * * * * * * * * * * * * * * * * * * * * * * * * * * * //

dimensions      [0 2 -1 0 0 0 0];


internalField   nonuniform List<scalar> 
171728
(
4.62333e-07
5.36306e-07
5.36381e-07
2.09724e-07
2.99074e-08
3.77526e-08
3.79323e-08
5.29315e-08
2.14407e-09
3.23267e-09
3.22607e-09
5.14245e-08
4.70787e-10
2.00728e-09
1.99534e-09
5.14604e-08
4.36924e-10
1.90648e-09
1.91218e-09
5.14646e-08
4.35352e-10
1.9099e-09
1.90888e-09
5.14645e-08
4.25858e-10
1.91305e-09
1.90706e-09
5.1465e-08
4.34736e-10
1.91102e-09
1.90999e-09
5.1465e-08
4.3976e-10
1.91009e-09
1.9039e-09
5.14662e-08
4.30944e-10
1.90802e-09
1.90784e-09
5.14653e-08
4.43102e-10
1.90654e-09
1.90903e-09
5.14658e-08
4.45681e-10
1.90408e-09
1.90837e-09
5.14661e-08
4.53182e-10
1.92302e-09
1.90985e-09
5.14661e-08
4.54929e-10
1.92746e-09
1.90884e-09
5.14661e-08
4.32006e-10
1.89996e-09
1.91035e-09
5.14661e-08
4.36528e-10
1.91149e-09
1.90789e-09
5.14665e-08
4.43596e-10
1.90957e-09
1.90938e-09
5.14666e-08
4.35297e-10
1.9025e-09
1.90881e-09
5.14663e-08
4.50203e-10
1.89828e-09
1.90739e-09
5.14658e-08
4.23436e-10
1.92009e-09
1.9034e-09
5.14634e-08
5.14739e-10
1.91627e-09
1.9083e-09
5.14682e-08
4.39549e-10
1.91244e-09
1.90976e-09
5.14682e-08
4.42178e-10
1.91092e-09
1.90985e-09
5.14688e-08
4.42236e-10
1.9112e-09
1.91036e-09
5.14686e-08
4.43693e-10
1.91092e-09
1.91036e-09
5.14688e-08
4.43089e-10
1.91118e-09
1.91011e-09
5.14688e-08
4.42971e-10
1.91124e-09
1.91024e-09
5.14687e-08
4.43597e-10
1.91069e-09
1.90969e-09
5.14686e-08
4.43092e-10
1.91124e-09
1.91025e-09
5.14684e-08
4.4323e-10
1.91141e-09
1.91051e-09
5.14686e-08
4.42466e-10
1.91111e-09
1.91002e-09
5.14685e-08
4.4321e-10
1.90833e-09
1.90984e-09
5.14685e-08
4.4373e-10
1.9121e-09
1.91053e-09
5.14684e-08
4.43156e-10
1.9115e-09
1.91101e-09
5.14686e-08
4.42698e-10
1.91142e-09
1.91072e-09
5.14685e-08
4.43377e-10
1.91157e-09
1.9115e-09
5.14684e-08
4.43633e-10
1.91193e-09
1.91186e-09
5.14687e-08
4.43396e-10
1.91122e-09
1.91117e-09
5.1469e-08
4.43804e-10
1.91162e-09
1.9161e-09
5.14689e-08
4.57721e-10
1.91718e-09
1.91586e-09
5.14566e-08
5.67341e-10
1.89208e-09
1.91177e-09
5.14685e-08
4.39187e-10
1.91576e-09
1.90572e-09
5.14686e-08
4.42997e-10
1.91185e-09
1.90578e-09
5.14689e-08
4.4437e-10
1.91015e-09
1.9062e-09
5.14694e-08
4.45288e-10
1.90995e-09
1.9091e-09
5.14696e-08
4.44763e-10
1.90952e-09
1.90694e-09
5.14696e-08
4.44372e-10
1.90971e-09
1.91042e-09
5.14696e-08
4.44332e-10
1.90978e-09
1.91196e-09
5.14698e-08
4.44572e-10
1.91017e-09
1.91238e-09
5.14697e-08
4.44639e-10
1.90945e-09
1.91169e-09
5.14695e-08
4.44966e-10
1.90962e-09
1.91286e-09
5.14697e-08
4.45082e-10
1.90976e-09
1.91106e-09
5.14695e-08
4.45749e-10
1.9104e-09
1.91175e-09
5.14693e-08
4.46533e-10
1.91747e-09
1.91189e-09
5.14693e-08
4.48093e-10
1.90605e-09
1.91308e-09
5.14694e-08
4.45816e-10
1.9086e-09
1.90905e-09
5.14671e-08
4.4572e-10
1.91049e-09
1.90879e-09
5.14625e-08
4.45329e-10
1.91012e-09
1.90817e-09
5.14624e-08
4.45186e-10
1.91036e-09
1.90855e-09
5.14625e-08
4.45186e-10
1.91063e-09
1.90807e-09
5.14627e-08
4.45305e-10
1.91088e-09
1.9093e-09
5.14626e-08
4.45388e-10
1.91096e-09
1.9089e-09
5.14631e-08
4.4532e-10
1.91096e-09
1.90894e-09
5.14627e-08
4.45786e-10
1.91047e-09
1.9086e-09
5.14627e-08
4.45432e-10
1.91137e-09
1.90935e-09
5.14626e-08
4.45041e-10
1.91063e-09
1.9086e-09
5.14623e-08
4.44772e-10
1.91055e-09
1.90852e-09
5.14624e-08
4.43859e-10
1.90994e-09
1.90817e-09
5.14623e-08
4.38587e-10
1.90886e-09
1.90904e-09
5.14634e-08
4.3241e-10
1.91021e-09
1.89012e-09
5.14655e-08
4.39386e-10
1.91188e-09
1.90276e-09
5.14611e-08
4.44651e-10
1.91114e-09
1.90895e-09
5.14619e-08
4.44995e-10
1.91065e-09
1.90862e-09
5.14624e-08
4.45363e-10
1.91045e-09
1.90795e-09
5.14616e-08
4.46001e-10
1.91086e-09
1.9079e-09
5.14615e-08
4.45755e-10
1.91045e-09
1.90762e-09
5.14613e-08
4.45315e-10
1.91039e-09
1.90743e-09
5.14618e-08
4.45399e-10
1.91099e-09
1.90843e-09
5.14614e-08
4.45519e-10
1.91045e-09
1.90843e-09
5.14612e-08
4.45781e-10
1.91099e-09
1.90901e-09
5.14618e-08
4.45691e-10
1.91038e-09
1.90838e-09
5.14616e-08
4.45369e-10
1.91032e-09
1.90832e-09
5.14615e-08
4.45079e-10
1.91089e-09
1.90888e-09
5.14616e-08
4.46439e-10
1.91068e-09
1.90869e-09
5.14616e-08
4.46247e-10
1.91056e-09
1.90856e-09
5.14615e-08
4.4638e-10
1.91071e-09
1.90912e-09
5.14614e-08
4.46819e-10
1.91093e-09
1.90895e-09
5.14616e-08
4.45867e-10
1.91027e-09
1.90833e-09
5.14615e-08
4.45911e-10
1.91063e-09
1.9085e-09
5.14614e-08
4.47167e-10
1.91115e-09
1.90931e-09
5.14614e-08
4.50913e-10
1.91058e-09
1.90817e-09
5.14625e-08
5.33618e-10
1.94398e-09
1.95033e-09
5.1462e-08
2.43202e-09
2.9916e-09
3.04374e-09
5.14716e-08
3.51712e-08
3.42356e-08
3.42453e-08
5.1799e-08
2.42004e-07
1.35323e-07
1.35372e-07
1.89895e-07
1.57254e-07
3.28911e-07
3.28986e-07
1.5719e-07
3.28919e-07
3.2903e-07
8.03956e-07
8.03961e-07
8.03967e-07
8.03977e-07
3.2882e-07
3.28922e-07
1.57122e-07
3.28852e-07
3.28906e-07
1.57083e-07
2.09789e-07
1.37488e-07
5.36239e-07
5.36196e-07
8.34592e-08
8.34188e-08
2.0971e-07
1.37303e-07
5.36393e-07
5.3648e-07
8.36352e-08
8.35607e-08
5.36436e-07
8.35133e-08
8.34568e-08
2.0977e-07
1.37417e-07
5.36379e-07
8.36223e-08
8.35985e-08
1.37448e-07
5.29645e-08
1.33649e-07
3.78134e-08
3.78377e-08
4.87468e-09
4.93997e-09
5.28929e-08
1.33721e-07
3.7832e-08
3.78452e-08
4.85033e-09
4.91262e-09
3.78608e-08
4.80679e-09
4.87427e-09
5.29979e-08
1.33704e-07
3.79983e-08
4.87408e-09
4.86164e-09
1.337e-07
5.1354e-08
1.33548e-07
3.24035e-09
3.23933e-09
2.09334e-09
2.09428e-09
5.13513e-08
1.33538e-07
3.25998e-09
3.2454e-09
2.083e-09
2.09892e-09
3.27744e-09
2.07931e-09
2.10347e-09
5.13914e-08
1.33559e-07
3.28372e-09
2.06088e-09
2.0639e-09
1.33532e-07
5.14364e-08
1.3354e-07
2.01467e-09
2.03427e-09
1.94341e-09
1.9285e-09
5.14246e-08
1.33519e-07
1.98829e-09
2.02241e-09
1.9154e-09
1.94419e-09
2.02379e-09
1.9111e-09
1.93718e-09
5.1449e-08
1.33543e-07
1.99805e-09
1.90664e-09
1.90823e-09
1.33512e-07
5.14451e-08
1.33537e-07
1.93817e-09
1.91988e-09
1.93716e-09
1.92385e-09
5.14335e-08
1.33512e-07
1.90121e-09
1.94078e-09
1.91688e-09
1.93692e-09
1.93244e-09
1.90125e-09
1.93033e-09
5.14513e-08
1.33541e-07
1.90448e-09
1.89891e-09
1.89954e-09
1.33511e-07
5.1446e-08
1.33537e-07
1.93729e-09
1.93591e-09
1.92333e-09
1.96375e-09
5.14378e-08
1.33522e-07
1.89467e-09
1.9377e-09
1.91285e-09
1.93613e-09
1.92978e-09
1.91616e-09
1.92713e-09
5.14511e-08
1.33544e-07
1.90103e-09
1.89693e-09
1.89869e-09
1.33513e-07
5.14491e-08
1.33538e-07
1.88897e-09
1.95655e-09
1.95593e-09
1.94552e-09
5.14299e-08
1.33524e-07
1.88927e-09
1.93767e-09
1.92244e-09
1.9366e-09
1.92651e-09
1.91056e-09
1.92705e-09
5.14514e-08
1.33545e-07
1.90053e-09
1.89783e-09
1.90053e-09
1.33513e-07
5.14496e-08
1.33543e-07
1.93377e-09
1.94644e-09
1.93704e-09
1.94555e-09
5.14281e-08
1.33522e-07
1.90203e-09
1.93816e-09
1.92206e-09
1.9382e-09
1.92744e-09
1.91098e-09
1.92823e-09
5.14516e-08
1.33542e-07
1.90359e-09
1.89729e-09
1.90196e-09
1.33511e-07
5.14341e-08
1.33535e-07
1.93578e-09
1.94499e-09
1.91897e-09
1.93255e-09
5.1429e-08
1.33531e-07
1.8984e-09
1.93906e-09
1.90847e-09
1.93673e-09
1.9274e-09
1.90724e-09
1.92553e-09
5.14527e-08
1.33547e-07
1.90129e-09
1.89683e-09
1.89939e-09
1.33515e-07
5.14377e-08
1.33519e-07
1.91731e-09
1.9079e-09
1.95452e-09
1.90196e-09
5.1424e-08
1.33528e-07
1.90111e-09
1.93888e-09
1.91785e-09
1.93917e-09
1.9262e-09
1.90556e-09
1.92779e-09
5.14519e-08
1.33545e-07
1.90213e-09
1.8986e-09
1.90163e-09
1.33512e-07
5.14481e-08
1.33532e-07
1.97585e-09
1.91863e-09
1.93591e-09
1.90935e-09
5.14277e-08
1.33524e-07
1.9162e-09
1.93943e-09
1.91268e-09
1.93597e-09
1.92739e-09
1.90629e-09
1.92568e-09
5.14523e-08
1.33546e-07
1.90329e-09
1.8975e-09
1.89965e-09
1.33515e-07
5.14381e-08
1.33532e-07
1.93327e-09
1.89878e-09
1.93165e-09
1.90219e-09
5.14278e-08
1.33544e-07
1.90868e-09
1.93699e-09
1.90944e-09
1.93627e-09
1.92578e-09
1.91345e-09
1.92847e-09
5.1453e-08
1.33545e-07
1.90168e-09
1.8994e-09
1.90186e-09
1.33515e-07
5.14377e-08
1.33539e-07
1.93248e-09
1.90594e-09
1.92789e-09
1.94834e-09
5.14283e-08
1.33546e-07
1.90677e-09
1.93759e-09
1.90152e-09
1.93568e-09
1.92871e-09
1.92087e-09
1.92806e-09
5.14529e-08
1.33546e-07
1.90414e-09
1.89835e-09
1.90121e-09
1.33516e-07
5.14262e-08
1.33526e-07
1.92726e-09
1.95473e-09
1.95994e-09
1.93746e-09
5.14332e-08
1.33533e-07
1.89564e-09
1.93697e-09
1.89404e-09
1.9372e-09
1.92779e-09
1.90624e-09
1.92995e-09
5.14527e-08
1.33546e-07
1.90276e-09
1.89979e-09
1.90176e-09
1.33514e-07
5.14443e-08
1.33528e-07
1.93474e-09
1.92153e-09
1.94042e-09
1.98748e-09
5.14392e-08
1.33525e-07
1.90796e-09
1.93839e-09
1.91072e-09
1.93514e-09
1.93019e-09
1.91878e-09
1.92762e-09
5.14528e-08
1.33547e-07
1.90331e-09
1.89755e-09
1.89865e-09
1.33516e-07
5.14434e-08
1.33527e-07
1.93781e-09
1.96676e-09
1.94092e-09
1.94426e-09
5.14531e-08
1.33508e-07
1.90852e-09
1.93616e-09
1.90992e-09
1.93635e-09
1.92645e-09
1.90614e-09
1.92775e-09
5.14529e-08
1.33547e-07
1.90017e-09
1.89868e-09
1.90025e-09
1.33515e-07
5.14451e-08
1.33526e-07
1.9312e-09
1.94447e-09
1.94606e-09
1.93708e-09
5.14492e-08
1.33548e-07
1.90935e-09
1.93785e-09
1.91082e-09
1.93704e-09
1.92806e-09
1.90879e-09
1.92853e-09
5.14532e-08
1.33549e-07
1.90272e-09
1.89824e-09
1.90029e-09
1.33518e-07
5.14429e-08
1.33545e-07
1.92479e-09
1.92772e-09
1.89378e-09
1.90965e-09
5.14562e-08
1.3355e-07
1.90698e-09
1.939e-09
1.89709e-09
1.93966e-09
1.9295e-09
1.8903e-09
1.92981e-09
5.14529e-08
1.33548e-07
1.90252e-09
1.89749e-09
1.89836e-09
1.33517e-07
5.14444e-08
1.33516e-07
1.891e-09
1.92138e-09
1.97843e-09
2.0294e-09
5.14829e-08
1.33588e-07
1.89897e-09
1.94066e-09
1.93271e-09
1.93648e-09
1.92746e-09
1.94419e-09
1.93117e-09
5.14531e-08
1.33551e-07
1.89761e-09
1.89349e-09
1.90135e-09
1.33528e-07
5.14801e-08
1.33574e-07
1.93037e-09
1.96829e-09
1.92211e-09
1.98626e-09
5.14347e-08
1.33528e-07
1.93033e-09
1.9368e-09
1.81898e-09
1.94025e-09
1.93939e-09
1.89566e-09
1.92789e-09
5.14543e-08
1.33552e-07
1.91179e-09
1.89609e-09
1.90167e-09
1.3352e-07
5.14369e-08
1.33547e-07
1.95598e-09
1.96426e-09
1.9525e-09
1.94136e-09
5.14524e-08
1.33541e-07
1.87755e-09
1.93846e-09
1.92005e-09
1.93656e-09
1.92659e-09
1.91553e-09
1.9268e-09
5.14546e-08
1.33551e-07
1.90276e-09
1.89892e-09
1.90135e-09
1.33519e-07
5.14646e-08
1.33546e-07
1.9442e-09
1.94679e-09
1.93437e-09
1.94465e-09
5.1445e-08
1.33542e-07
1.9124e-09
1.93769e-09
1.9135e-09
1.93694e-09
1.92709e-09
1.9117e-09
1.9269e-09
5.14551e-08
1.33552e-07
1.90359e-09
1.89959e-09
1.9014e-09
1.3352e-07
5.14643e-08
1.33546e-07
1.93745e-09
1.94688e-09
1.93533e-09
1.94396e-09
5.14453e-08
1.3354e-07
1.90794e-09
1.93708e-09
1.91234e-09
1.93613e-09
1.9268e-09
1.91172e-09
1.92657e-09
5.14555e-08
1.33551e-07
1.90299e-09
1.89976e-09
1.91167e-09
1.33519e-07
5.14641e-08
1.33548e-07
1.93685e-09
1.94648e-09
1.93447e-09
1.94377e-09
5.14452e-08
1.33542e-07
1.90807e-09
1.93659e-09
1.91152e-09
1.93596e-09
1.92647e-09
1.91144e-09
1.92706e-09
5.14553e-08
1.33552e-07
1.90999e-09
1.89966e-09
1.90503e-09
1.33519e-07
5.14637e-08
1.33548e-07
1.93697e-09
1.94677e-09
1.93493e-09
1.94421e-09
5.14451e-08
1.33542e-07
1.90821e-09
1.93693e-09
1.91196e-09
1.93651e-09
1.92681e-09
1.91199e-09
1.92747e-09
5.14552e-08
1.33552e-07
1.90729e-09
1.89968e-09
1.90395e-09
1.3352e-07
5.14639e-08
1.33546e-07
1.93659e-09
1.94663e-09
1.93576e-09
1.94479e-09
5.14453e-08
1.3354e-07
1.90784e-09
1.93686e-09
1.91279e-09
1.93702e-09
1.9275e-09
1.91185e-09
1.92725e-09
5.14555e-08
1.3355e-07
1.9064e-09
1.89975e-09
1.90434e-09
1.33519e-07
5.1464e-08
1.33548e-07
1.93718e-09
1.94713e-09
1.93473e-09
1.94392e-09
5.14452e-08
1.33542e-07
1.9084e-09
1.93733e-09
1.91179e-09
1.93616e-09
1.92745e-09
1.91127e-09
1.92644e-09
5.14554e-08
1.33552e-07
1.90654e-09
1.89919e-09
1.90356e-09
1.33521e-07
5.14636e-08
1.33547e-07
1.937e-09
1.94676e-09
1.9352e-09
1.94412e-09
5.1445e-08
1.33541e-07
1.90824e-09
1.93696e-09
1.91222e-09
1.93637e-09
1.92664e-09
1.91162e-09
1.92701e-09
5.14552e-08
1.33552e-07
1.90573e-09
1.89955e-09
1.90411e-09
1.3352e-07
5.14637e-08
1.33547e-07
1.93698e-09
1.9468e-09
1.9354e-09
1.94454e-09
5.14449e-08
1.33541e-07
1.90821e-09
1.93699e-09
1.91241e-09
1.93672e-09
1.92739e-09
1.91221e-09
1.92747e-09
5.14551e-08
1.33551e-07
1.90647e-09
1.90015e-09
1.90456e-09
1.33519e-07
5.14639e-08
1.33548e-07
1.93718e-09
1.9472e-09
1.93498e-09
1.9418e-09
5.14451e-08
1.33541e-07
1.90838e-09
1.93715e-09
1.91169e-09
1.93597e-09
1.92734e-09
1.9115e-09
1.92697e-09
5.14552e-08
1.33551e-07
1.9064e-09
1.89943e-09
1.9041e-09
1.33519e-07
5.14638e-08
1.33548e-07
1.93663e-09
1.92619e-09
1.93501e-09
1.95315e-09
5.14458e-08
1.3354e-07
1.90783e-09
1.93666e-09
1.91193e-09
1.9363e-09
1.92666e-09
1.91418e-09
1.92665e-09
5.14552e-08
1.33552e-07
1.90577e-09
1.89937e-09
1.90367e-09
1.33521e-07
5.14635e-08
1.33548e-07
1.93745e-09
1.94029e-09
1.93526e-09
1.94737e-09
5.14466e-08
1.33546e-07
1.90848e-09
1.93681e-09
1.91229e-09
1.93661e-09
1.92644e-09
1.91235e-09
1.92727e-09
5.14551e-08
1.33551e-07
1.90558e-09
1.89972e-09
1.9043e-09
1.3352e-07
5.14634e-08
1.33547e-07
1.93758e-09
1.95019e-09
1.93508e-09
1.94713e-09
5.14412e-08
1.33546e-07
1.9088e-09
1.93753e-09
1.9121e-09
1.93637e-09
1.92728e-09
1.91206e-09
1.92679e-09
5.14549e-08
1.33551e-07
1.90643e-09
1.89996e-09
1.9044e-09
1.3352e-07
5.14638e-08
1.33548e-07
1.93668e-09
1.94949e-09
1.935e-09
1.94693e-09
5.14415e-08
1.33547e-07
1.90791e-09
1.93664e-09
1.91203e-09
1.93694e-09
1.9267e-09
1.91181e-09
1.92724e-09
5.14553e-08
1.33552e-07
1.90706e-09
1.89575e-09
1.90004e-09
1.33521e-07
5.14636e-08
1.33548e-07
1.9368e-09
1.9495e-09
1.93495e-09
1.94687e-09
5.14412e-08
1.33547e-07
1.90803e-09
1.93689e-09
1.91198e-09
1.93641e-09
1.92683e-09
1.91182e-09
1.92715e-09
5.14552e-08
1.33552e-07
1.9067e-09
1.89782e-09
1.90255e-09
1.3352e-07
5.14635e-08
1.33548e-07
1.93705e-09
1.94969e-09
1.93497e-09
1.94713e-09
5.14411e-08
1.33546e-07
1.90828e-09
1.93683e-09
1.91201e-09
1.93666e-09
1.92698e-09
1.9122e-09
1.92721e-09
5.14551e-08
1.33552e-07
1.90774e-09
1.89821e-09
1.90263e-09
1.33521e-07
5.14635e-08
1.33547e-07
1.93734e-09
1.94999e-09
1.93503e-09
1.94715e-09
5.14412e-08
1.33546e-07
1.90858e-09
1.93713e-09
1.91206e-09
1.93666e-09
1.92664e-09
1.91209e-09
1.92761e-09
5.14552e-08
1.33552e-07
1.90742e-09
1.8981e-09
1.90304e-09
1.3352e-07
5.14636e-08
1.33548e-07
1.93691e-09
1.94943e-09
1.93492e-09
1.94651e-09
5.14415e-08
1.33546e-07
1.90814e-09
1.93654e-09
1.91188e-09
1.93579e-09
1.92607e-09
1.9121e-09
1.92686e-09
5.14555e-08
1.33552e-07
1.90687e-09
1.89877e-09
1.90269e-09
1.3352e-07
5.14636e-08
1.33549e-07
1.9371e-09
1.94874e-09
1.9465e-09
1.94007e-09
5.14414e-08
1.33547e-07
1.90803e-09
1.93572e-09
1.90937e-09
1.93663e-09
1.92554e-09
1.91408e-09
1.9056e-09
5.14552e-08
1.33553e-07
1.90744e-09
1.89601e-09
1.8848e-09
1.33522e-07
5.14612e-08
1.33557e-07
1.94027e-09
1.95083e-09
1.88481e-09
1.94764e-09
5.14411e-08
1.33566e-07
1.8962e-09
1.93694e-09
1.88177e-09
1.94133e-09
1.90578e-09
1.8955e-09
1.9589e-09
5.14547e-08
1.33554e-07
1.83113e-09
1.89836e-09
1.9103e-09
1.33524e-07
5.1451e-08
1.33549e-07
1.93663e-09
1.91408e-09
1.93518e-09
1.92687e-09
5.14518e-08
1.33577e-07
1.83641e-09
1.94217e-09
1.92681e-09
1.93724e-09
1.93829e-09
1.90257e-09
1.92995e-09
5.14547e-08
1.33554e-07
1.92238e-09
1.90351e-09
1.90285e-09
1.33521e-07
5.14529e-08
1.33541e-07
1.93801e-09
1.95806e-09
1.92967e-09
1.95616e-09
5.14827e-08
1.33566e-07
1.89716e-09
1.93714e-09
1.91926e-09
1.93601e-09
1.92872e-09
1.91391e-09
1.92735e-09
5.14548e-08
1.33554e-07
1.906e-09
1.90213e-09
1.90092e-09
1.33521e-07
5.14479e-08
1.33541e-07
1.93577e-09
1.94939e-09
1.92929e-09
1.94506e-09
5.14577e-08
1.33567e-07
1.89633e-09
1.93655e-09
1.92114e-09
1.93692e-09
1.92678e-09
1.91083e-09
1.92805e-09
5.14547e-08
1.33554e-07
1.90585e-09
1.90331e-09
1.90275e-09
1.33521e-07
5.14485e-08
1.3354e-07
1.93465e-09
1.94451e-09
1.92945e-09
1.94467e-09
5.14568e-08
1.33567e-07
1.89687e-09
1.9371e-09
1.92021e-09
1.93715e-09
1.92732e-09
1.91056e-09
1.92782e-09
5.14553e-08
1.33553e-07
1.90722e-09
1.90116e-09
1.90279e-09
1.3352e-07
5.14486e-08
1.3354e-07
1.93484e-09
1.94424e-09
1.92878e-09
1.94421e-09
5.14568e-08
1.33567e-07
1.89686e-09
1.93711e-09
1.92246e-09
1.93684e-09
1.92699e-09
1.90992e-09
1.92722e-09
5.14554e-08
1.33554e-07
1.90707e-09
1.90382e-09
1.90491e-09
1.33521e-07
5.14485e-08
1.33541e-07
1.93478e-09
1.94396e-09
1.92844e-09
1.94386e-09
5.14567e-08
1.33568e-07
1.89739e-09
1.93712e-09
1.92323e-09
1.93721e-09
1.92618e-09
1.9097e-09
1.92768e-09
5.14553e-08
1.33555e-07
1.90756e-09
1.9021e-09
1.90035e-09
1.33522e-07
5.14483e-08
1.3354e-07
1.93431e-09
1.94369e-09
1.92897e-09
1.94432e-09
5.14564e-08
1.33567e-07
1.89747e-09
1.93732e-09
1.92255e-09
1.93723e-09
1.92674e-09
1.91018e-09
1.92781e-09
5.14552e-08
1.33554e-07
1.90817e-09
1.89805e-09
1.90239e-09
1.33522e-07
5.14488e-08
1.3354e-07
1.93439e-09
1.94364e-09
1.92888e-09
1.94419e-09
5.14567e-08
1.33567e-07
1.89701e-09
1.93686e-09
1.92238e-09
1.93697e-09
1.9264e-09
1.91045e-09
1.92828e-09
5.14556e-08
1.33554e-07
1.90702e-09
1.89847e-09
1.90341e-09
1.33521e-07
5.14485e-08
1.33541e-07
1.93467e-09
1.94402e-09
1.92857e-09
1.94385e-09
5.14565e-08
1.33568e-07
1.89724e-09
1.93717e-09
1.92208e-09
1.93659e-09
1.92659e-09
1.90977e-09
1.92729e-09
5.14553e-08
1.33555e-07
1.90734e-09
1.8978e-09
1.90248e-09
1.33522e-07
5.14483e-08
1.33541e-07
1.93435e-09
1.94365e-09
1.92886e-09
1.94421e-09
5.14565e-08
1.33568e-07
1.89695e-09
1.93676e-09
1.92241e-09
1.93687e-09
1.92612e-09
1.91021e-09
1.92737e-09
5.14553e-08
1.33555e-07
1.90698e-09
1.89899e-09
1.90412e-09
1.33522e-07
5.14484e-08
1.3354e-07
1.93443e-09
1.94398e-09
1.92879e-09
1.9442e-09
5.14565e-08
1.33567e-07
1.8971e-09
1.93706e-09
1.92247e-09
1.93704e-09
1.92667e-09
1.9101e-09
1.92751e-09
5.14554e-08
1.33554e-07
1.91138e-09
1.89845e-09
1.90292e-09
1.33521e-07
5.14483e-08
1.3354e-07
1.93459e-09
1.94395e-09
1.9285e-09
1.94448e-09
5.14565e-08
1.33568e-07
1.89744e-09
1.93719e-09
1.92276e-09
1.93699e-09
1.92662e-09
1.91034e-09
1.92675e-09
5.14553e-08
1.33554e-07
1.90595e-09
1.89905e-09
1.90396e-09
1.33522e-07
5.14483e-08
1.3354e-07
1.93421e-09
1.94426e-09
1.92654e-09
1.9484e-09
5.14562e-08
1.3357e-07
1.89785e-09
1.93716e-09
1.91534e-09
1.93637e-09
1.92611e-09
1.9138e-09
1.92525e-09
5.14553e-08
1.33554e-07
1.90726e-09
1.89918e-09
1.90452e-09
1.33521e-07
5.14487e-08
1.33538e-07
1.93172e-09
1.95692e-09
1.92355e-09
1.9207e-09
5.14548e-08
1.33584e-07
1.91052e-09
1.93719e-09
1.91454e-09
1.93733e-09
1.92493e-09
1.90738e-09
1.92567e-09
5.14554e-08
1.33553e-07
1.90784e-09
1.90027e-09
1.90635e-09
1.33519e-07
5.14492e-08
1.3354e-07
1.93025e-09
1.90185e-09
1.92644e-09
1.93729e-09
5.1444e-08
1.33568e-07
1.91022e-09
1.93783e-09
1.91244e-09
1.93732e-09
1.92615e-09
1.90748e-09
1.92415e-09
5.14554e-08
1.33553e-07
1.90938e-09
1.8991e-09
1.90103e-09
1.33521e-07
5.14479e-08
1.33539e-07
1.93296e-09
1.94053e-09
1.9275e-09
1.94373e-09
5.14548e-08
1.33567e-07
1.9083e-09
1.93874e-09
1.91124e-09
1.93516e-09
1.91884e-09
1.91067e-09
1.9356e-09
5.14546e-08
1.33551e-07
1.89446e-09
1.89919e-09
1.9064e-09
1.33528e-07
5.14477e-08
1.33539e-07
1.93367e-09
1.94403e-09
1.92834e-09
1.94475e-09
5.14556e-08
1.33567e-07
1.90738e-09
1.93582e-09
1.91164e-09
1.93531e-09
1.93645e-09
1.91069e-09
1.93592e-09
5.14547e-08
1.33551e-07
1.90611e-09
1.8987e-09
1.90632e-09
1.33529e-07
5.14481e-08
1.33538e-07
1.93375e-09
1.94411e-09
1.92833e-09
1.94492e-09
5.14559e-08
1.33566e-07
1.90717e-09
1.93551e-09
1.91154e-09
1.93539e-09
1.93628e-09
1.91083e-09
1.93589e-09
5.1455e-08
1.3355e-07
1.90581e-09
1.89882e-09
1.90629e-09
1.33529e-07
5.1448e-08
1.33539e-07
1.93388e-09
1.94428e-09
1.92878e-09
1.94512e-09
5.14559e-08
1.33567e-07
1.90723e-09
1.9356e-09
1.91198e-09
1.93566e-09
1.93567e-09
1.91128e-09
1.93674e-09
5.14549e-08
1.33551e-07
1.90528e-09
1.89902e-09
1.90733e-09
1.33529e-07
5.14481e-08
1.33538e-07
1.93435e-09
1.94462e-09
1.92838e-09
1.94487e-09
5.1456e-08
1.33566e-07
1.90768e-09
1.9361e-09
1.91159e-09
1.9354e-09
1.93629e-09
1.91118e-09
1.93694e-09
5.1455e-08
1.3355e-07
1.90581e-09
1.89868e-09
1.90609e-09
1.33528e-07
5.14481e-08
1.33538e-07
1.93438e-09
1.94471e-09
1.92845e-09
1.94501e-09
5.14559e-08
1.33566e-07
1.90775e-09
1.93607e-09
1.91163e-09
1.93554e-09
1.93661e-09
1.91156e-09
1.93763e-09
5.14549e-08
1.3355e-07
1.90775e-09
1.89935e-09
1.90783e-09
1.33527e-07
5.14483e-08
1.33538e-07
1.93427e-09
1.94479e-09
1.92822e-09
1.94467e-09
5.14562e-08
1.33566e-07
1.90758e-09
1.93617e-09
1.91142e-09
1.93515e-09
1.93667e-09
1.91076e-09
1.93675e-09
5.14552e-08
1.3355e-07
1.90615e-09
1.89864e-09
1.90716e-09
1.33528e-07
5.14481e-08
1.33539e-07
1.93409e-09
1.94474e-09
1.92824e-09
1.94454e-09
5.14559e-08
1.33567e-07
1.90743e-09
1.93611e-09
1.91148e-09
1.93502e-09
1.93689e-09
1.91056e-09
1.93608e-09
5.14549e-08
1.33551e-07
1.9064e-09
1.89839e-09
1.90576e-09
1.33529e-07
5.1448e-08
1.33537e-07
1.93433e-09
1.94457e-09
1.92852e-09
1.94472e-09
5.1456e-08
1.33566e-07
1.90772e-09
1.93588e-09
1.91107e-09
1.93524e-09
1.93618e-09
1.91115e-09
1.93687e-09
5.1455e-08
1.3355e-07
1.90666e-09
1.89905e-09
1.90784e-09
1.33527e-07
5.14478e-08
1.3354e-07
1.93449e-09
1.94492e-09
1.92791e-09
1.94425e-09
5.1456e-08
1.33567e-07
1.90769e-09
1.93628e-09
1.91147e-09
1.93473e-09
1.93752e-09
1.9108e-09
1.93607e-09
5.1455e-08
1.33551e-07
1.90755e-09
1.89867e-09
1.90697e-09
1.33528e-07
5.14481e-08
1.3354e-07
1.93371e-09
1.94413e-09
1.928e-09
1.9443e-09
5.1456e-08
1.33567e-07
1.90663e-09
1.93547e-09
1.91146e-09
1.93478e-09
1.93706e-09
1.91099e-09
1.93601e-09
5.1455e-08
1.33551e-07
1.9071e-09
1.89887e-09
1.90684e-09
1.33528e-07
5.14479e-08
1.33539e-07
1.93415e-09
1.94433e-09
1.92813e-09
1.94481e-09
5.14561e-08
1.33567e-07
1.90693e-09
1.93567e-09
1.91112e-09
1.93543e-09
1.93706e-09
1.91006e-09
1.93593e-09
5.1455e-08
1.33551e-07
1.90699e-09
1.89778e-09
1.90658e-09
1.33529e-07
5.1448e-08
1.33538e-07
1.93443e-09
1.94498e-09
1.92952e-09
1.94533e-09
5.14561e-08
1.33566e-07
1.90657e-09
1.93664e-09
1.91107e-09
1.93853e-09
1.93727e-09
1.9097e-09
1.93831e-09
5.14547e-08
1.33551e-07
1.90703e-09
1.8992e-09
1.90815e-09
1.33529e-07
5.14481e-08
1.33537e-07
1.93642e-09
1.94482e-09
1.9305e-09
1.94562e-09
5.14563e-08
1.33564e-07
1.90687e-09
1.94075e-09
1.91083e-09
1.94192e-09
1.93856e-09
1.91086e-09
1.94393e-09
5.1455e-08
1.33544e-07
1.90568e-09
1.87045e-09
1.89589e-09
1.33523e-07
5.14486e-08
1.33536e-07
1.93667e-09
1.94491e-09
1.93079e-09
1.94612e-09
5.14565e-08
1.33564e-07
1.9067e-09
1.94063e-09
1.91245e-09
1.93772e-09
1.94202e-09
1.91182e-09
1.93865e-09
5.14575e-08
1.33547e-07
1.89315e-09
1.89009e-09
1.89831e-09
1.33524e-07
5.14477e-08
1.33537e-07
1.93599e-09
1.94608e-09
1.92872e-09
1.94525e-09
5.14555e-08
1.33564e-07
1.90745e-09
1.93734e-09
1.91152e-09
1.93522e-09
1.93838e-09
1.91088e-09
1.93567e-09
5.14535e-08
1.33548e-07
1.90304e-09
1.89556e-09
1.89297e-09
1.33527e-07
5.14465e-08
1.33537e-07
1.93574e-09
1.94547e-09
1.92773e-09
1.94473e-09
5.14547e-08
1.33564e-07
1.90813e-09
1.93631e-09
1.91106e-09
1.93502e-09
1.93614e-09
1.9113e-09
1.93657e-09
5.14532e-08
1.33548e-07
1.91353e-09
1.8994e-09
1.90082e-09
1.33526e-07
5.14466e-08
1.33537e-07
1.93392e-09
1.94436e-09
1.92796e-09
1.94462e-09
5.14549e-08
1.33564e-07
1.90672e-09
1.9355e-09
1.9115e-09
1.93509e-09
1.93663e-09
1.91052e-09
1.93634e-09
5.14538e-08
1.33548e-07
1.92051e-09
1.89941e-09
1.9067e-09
1.33525e-07
5.14466e-08
1.33537e-07
1.93398e-09
1.94414e-09
1.92819e-09
1.94517e-09
5.14548e-08
1.33564e-07
1.90692e-09
1.93548e-09
1.91181e-09
1.93569e-09
1.93644e-09
1.91094e-09
1.9367e-09
5.14537e-08
1.33548e-07
1.90617e-09
1.89955e-09
1.90742e-09
1.33526e-07
5.14462e-08
1.33536e-07
1.93488e-09
1.94522e-09
1.92792e-09
1.94475e-09
5.14547e-08
1.33564e-07
1.90787e-09
1.9366e-09
1.91152e-09
1.93516e-09
1.93708e-09
1.91047e-09
1.93564e-09
5.14536e-08
1.33548e-07
1.90652e-09
1.89929e-09
1.90672e-09
1.33525e-07
5.14466e-08
1.33536e-07
1.93408e-09
1.94442e-09
1.9283e-09
1.9451e-09
5.14548e-08
1.33563e-07
1.90705e-09
1.93574e-09
1.9119e-09
1.93554e-09
1.93693e-09
1.91116e-09
1.93691e-09
5.14537e-08
1.33547e-07
1.90661e-09
1.9001e-09
1.90768e-09
1.33524e-07
5.14467e-08
1.33537e-07
1.93445e-09
1.94445e-09
1.92764e-09
1.94441e-09
5.1455e-08
1.33564e-07
1.90739e-09
1.9358e-09
1.91124e-09
1.93477e-09
1.93626e-09
1.911e-09
1.93652e-09
5.14539e-08
1.33548e-07
1.90523e-09
1.90083e-09
1.9079e-09
1.33525e-07
5.14465e-08
1.33538e-07
1.93417e-09
1.94453e-09
1.92792e-09
1.94425e-09
5.14546e-08
1.33565e-07
1.90715e-09
1.93589e-09
1.91151e-09
1.93472e-09
1.93699e-09
1.91077e-09
1.93596e-09
5.14536e-08
1.33549e-07
1.90672e-09
1.89864e-09
1.90667e-09
1.33526e-07
5.14464e-08
1.33537e-07
1.93417e-09
1.94416e-09
1.92818e-09
1.94503e-09
5.14546e-08
1.33564e-07
1.90717e-09
1.93547e-09
1.91181e-09
1.93548e-09
1.9366e-09
1.91149e-09
1.93652e-09
5.14536e-08
1.33548e-07
1.90647e-09
1.89942e-09
1.9073e-09
1.33525e-07
5.14465e-08
1.33536e-07
1.93458e-09
1.9448e-09
1.92825e-09
1.94466e-09
5.14549e-08
1.33563e-07
1.90759e-09
1.93612e-09
1.91184e-09
1.93512e-09
1.93651e-09
1.91079e-09
1.93637e-09
5.14539e-08
1.33547e-07
1.90639e-09
1.89871e-09
1.90711e-09
1.33525e-07
5.14467e-08
1.33537e-07
1.93417e-09
1.94428e-09
1.92783e-09
1.94451e-09
5.14549e-08
1.33564e-07
1.90714e-09
1.93559e-09
1.91142e-09
1.93496e-09
1.93657e-09
1.9107e-09
1.93553e-09
5.14539e-08
1.33548e-07
1.90643e-09
1.89862e-09
1.90627e-09
1.33526e-07
5.14465e-08
1.33536e-07
1.93371e-09
1.94403e-09
1.92839e-09
1.94493e-09
5.14547e-08
1.33564e-07
1.90668e-09
1.93536e-09
1.9124e-09
1.93542e-09
1.93564e-09
1.911e-09
1.93672e-09
5.14537e-08
1.33548e-07
1.90547e-09
1.89893e-09
1.90749e-09
1.33524e-07
5.14468e-08
1.33537e-07
1.93426e-09
1.94475e-09
1.92803e-09
1.94458e-09
5.1455e-08
1.33564e-07
1.90812e-09
1.93613e-09
1.92214e-09
1.935e-09
1.93702e-09
1.91099e-09
1.93629e-09
5.1454e-08
1.33548e-07
1.90691e-09
1.89893e-09
1.90708e-09
1.33525e-07
5.14465e-08
1.33537e-07
1.93434e-09
1.94446e-09
1.92734e-09
1.94435e-09
5.14549e-08
1.33564e-07
1.89686e-09
1.93572e-09
1.92162e-09
1.93482e-09
1.93638e-09
1.91041e-09
1.93595e-09
5.14539e-08
1.33548e-07
1.9063e-09
1.89833e-09
1.90668e-09
1.33525e-07
5.14462e-08
1.33536e-07
1.93415e-09
1.94444e-09
1.92836e-09
1.94509e-09
5.14546e-08
1.33564e-07
1.89673e-09
1.93572e-09
1.92263e-09
1.93597e-09
1.93624e-09
1.91107e-09
1.93673e-09
5.14536e-08
1.33547e-07
1.90607e-09
1.89899e-09
1.90746e-09
1.33526e-07
5.14462e-08
1.33536e-07
1.93468e-09
1.9449e-09
1.92858e-09
1.94495e-09
5.14546e-08
1.33564e-07
1.8973e-09
1.93876e-09
1.9228e-09
1.94086e-09
1.93701e-09
1.91149e-09
1.93671e-09
5.14533e-08
1.33581e-07
1.90687e-09
1.89937e-09
1.90753e-09
1.33526e-07
5.14463e-08
1.33536e-07
1.935e-09
1.94467e-09
1.92819e-09
1.94455e-09
5.14548e-08
1.33563e-07
1.89759e-09
1.9303e-09
1.9224e-09
1.94052e-09
1.93681e-09
1.91074e-09
1.93603e-09
5.14487e-08
1.3358e-07
1.90674e-09
1.89868e-09
1.90681e-09
1.33525e-07
5.14466e-08
1.33538e-07
1.93445e-09
1.94445e-09
1.92745e-09
1.94462e-09
5.14548e-08
1.33565e-07
1.89709e-09
1.93009e-09
1.92165e-09
1.9406e-09
1.93659e-09
1.91069e-09
1.93618e-09
5.14487e-08
1.33582e-07
1.90647e-09
1.89848e-09
1.90699e-09
1.33525e-07
5.14463e-08
1.33538e-07
1.934e-09
1.94417e-09
1.928e-09
1.9447e-09
5.14546e-08
1.33565e-07
1.89661e-09
1.92992e-09
1.9221e-09
1.94335e-09
1.93632e-09
1.91165e-09
1.93731e-09
5.14485e-08
1.33579e-07
1.90609e-09
1.89969e-09
1.90791e-09
1.33525e-07
5.14461e-08
1.33537e-07
1.93495e-09
1.94447e-09
1.92809e-09
1.94463e-09
5.14546e-08
1.33564e-07
1.89736e-09
1.93215e-09
1.92198e-09
1.93468e-09
1.93761e-09
1.91087e-09
1.93815e-09
5.14528e-08
1.33559e-07
1.9074e-09
1.8986e-09
1.90986e-09
1.33525e-07
5.14459e-08
1.33537e-07
1.93488e-09
1.94456e-09
1.9383e-09
1.95432e-09
5.14545e-08
1.33562e-07
1.89717e-09
1.93498e-09
1.92754e-09
1.95551e-09
1.94485e-09
1.92287e-09
1.94192e-09
5.14537e-08
1.33546e-07
1.91669e-09
1.91385e-09
1.91609e-09
1.33517e-07
5.1444e-08
1.3352e-07
1.96093e-09
1.95197e-09
2.40813e-09
2.41221e-09
5.14524e-08
1.33519e-07
1.90213e-09
1.97309e-09
2.44444e-09
2.43765e-09
1.94423e-09
2.36288e-09
2.35027e-09
5.14521e-08
1.33506e-07
1.91419e-09
2.3902e-09
2.32956e-09
1.33461e-07
5.15117e-08
1.3274e-07
3.02704e-09
3.07116e-09
1.63537e-08
1.63113e-08
5.14989e-08
1.32735e-07
3.05793e-09
3.01302e-09
1.63814e-08
1.64252e-08
3.01139e-09
1.62798e-08
1.63288e-08
5.15015e-08
1.32752e-07
3.024e-09
1.63489e-08
1.62836e-08
1.32704e-07
5.17958e-08
1.43977e-07
3.41995e-08
3.41843e-08
1.4058e-07
1.40701e-07
5.18158e-08
1.43972e-07
3.41994e-08
3.43666e-08
1.40998e-07
1.40774e-07
3.42673e-08
1.40995e-07
1.40785e-07
5.18649e-08
1.43978e-07
3.43096e-08
1.40961e-07
1.41062e-07
1.43943e-07
1.89931e-07
1.35249e-07
1.35203e-07
1.89866e-07
1.3532e-07
1.3525e-07
2.41999e-07
2.421e-07
2.42113e-07
1.35273e-07
1.89888e-07
1.35343e-07
9.26851e-08
2.79669e-07
1.86632e-07
1.8669e-07
4.45125e-07
3.53734e-07
2.57368e-07
2.36465e-07
4.45068e-07
3.5376e-07
2.36461e-07
2.57253e-07
4.40592e-07
2.70601e-07
2.7064e-07
1.17188e-06
0.000118572
1.26025e-06
0.000121757
0.00024594
0.000254191
1.1725e-06
0.00011859
1.25914e-06
0.000121776
4.62387e-07
4.62245e-07
4.62352e-07
6.33043e-08
6.32415e-08
6.32744e-08
6.33374e-08
1.26671e-07
1.42461e-06
4.70583e-07
2.79835e-07
9.45395e-08
1.55857e-06
2.64292e-07
0.000245933
0.000254176
1.27106e-07
4.70355e-07
1.42425e-06
2.79538e-07
9.46145e-08
2.6413e-07
1.55846e-06
3.64199e-06
3.64176e-06
1.34954e-07
3.30564e-06
3.30677e-06
1.14397e-06
0.000121668
1.14121e-06
0.000121669
0.000254228
0.000254224
1.14414e-06
0.000121686
1.14138e-06
0.000121687
2.98887e-08
2.98749e-08
2.99033e-08
3.84435e-09
3.84049e-09