/*--------------------------------*- C++ -*----------------------------------*\
| =========                 |                                                 |
| \\      /  F ield         | OpenFOAM: The Open Source CFD Toolbox           |
|  \\    /   O peration     | Version:  v1912                                 |
|   \\  /    A nd           | Website:  www.openfoam.com                      |
|    \\/     M anipulation  |                                                 |
\*---------------------------------------------------------------------------*/
FoamFile
{
    version     2.0;
    format      ascii;
    class       volScalarField;
    location    "0.55";
    object      p;
}
// * * * * * * * * * * * * * * * * * * * * * * * * * * * * * * * * * * * * * //

dimensions      [0 2 -2 0 0 0 0];


internalField   nonuniform List<scalar> 
171728
(
0.021673
0.0216765
0.0216765
0.0216923
0.0214446
0.0214447
0.0214447
0.0214589
0.021215
0.021215
0.021215
0.0212292
0.0209854
0.0209853
0.0209853
0.0209995
0.0207557
0.0207556
0.0207556
0.0207698
0.020526
0.020526
0.020526
0.0205401
0.0202963
0.0202963
0.0202963
0.0203105
0.0200666
0.0200666
0.0200666
0.0200808
0.019837
0.0198369
0.0198369
0.0198511
0.0196073
0.0196072
0.0196072
0.0196214
0.0193776
0.0193776
0.0193776
0.0193917
0.0191479
0.0191479
0.0191479
0.019162
0.0189182
0.0189182
0.0189182
0.0189323
0.0186885
0.0186885
0.0186885
0.0187026
0.0184588
0.0184588
0.0184588
0.018473
0.0182291
0.0182291
0.0182291
0.0182433
0.0179994
0.0179994
0.0179994
0.0180136
0.0177697
0.0177697
0.0177697
0.0177839
0.01754
0.01754
0.01754
0.0175542
0.0173103
0.0173103
0.0173103
0.0173245
0.0170806
0.0170806
0.0170806
0.0170948
0.0168509
0.0168509
0.0168509
0.0168651
0.0166212
0.0166212
0.0166212
0.0166354
0.0163916
0.0163915
0.0163915
0.0164057
0.0161619
0.0161618
0.0161618
0.016176
0.0159322
0.0159321
0.0159321
0.0159463
0.0157025
0.0157025
0.0157025
0.0157166
0.0154728
0.0154728
0.0154728
0.0154869
0.0152431
0.0152431
0.0152431
0.0152572
0.0150134
0.0150134
0.0150134
0.0150276
0.0147837
0.0147837
0.0147837
0.0147979
0.014554
0.014554
0.014554
0.0145682
0.0143243
0.0143243
0.0143243
0.0143385
0.0140946
0.0140946
0.0140946
0.0141087
0.0138649
0.0138649
0.0138649
0.013879
0.0136352
0.0136352
0.0136352
0.0136493
0.0134055
0.0134055
0.0134054
0.0134196
0.0131758
0.0131757
0.0131757
0.0131899
0.0129461
0.012946
0.012946
0.0129602
0.0127164
0.0127163
0.0127163
0.0127305
0.0124867
0.0124866
0.0124866
0.0125008
0.012257
0.012257
0.012257
0.0122711
0.0120273
0.0120273
0.0120273
0.0120414
0.0117976
0.0117976
0.0117976
0.0118117
0.0115679
0.0115679
0.0115679
0.0115821
0.0113382
0.0113382
0.0113382
0.0113524
0.0111085
0.0111085
0.0111085
0.0111227
0.0108789
0.0108788
0.0108788
0.010893
0.0106492
0.0106491
0.0106491
0.0106633
0.0104195
0.0104194
0.0104194
0.0104336
0.0101898
0.0101897
0.0101897
0.0102039
0.00996007
0.00996002
0.00996002
0.0099742
0.00973036
0.00973032
0.00973032
0.00974449
0.00950066
0.00950061
0.00950061
0.00951479
0.00927096
0.00927091
0.00927091
0.00928509
0.00904126
0.00904121
0.00904121
0.00905539
0.00881156
0.00881151
0.00881151
0.00882569
0.00858186
0.00858181
0.00858181
0.00859599
0.00835217
0.00835212
0.00835212
0.0083663
0.00812248
0.00812243
0.00812243
0.0081366
0.00789279
0.00789274
0.00789274
0.00790692
0.0076631
0.00766305
0.00766305
0.00767723
0.00743342
0.00743337
0.00743337
0.00744755
0.00720374
0.00720369
0.00720369
0.00721787
0.00697406
0.00697401
0.00697401
0.00698818
0.00674437
0.00674433
0.00674433
0.0067585
0.00651469
0.00651464
0.00651464
0.00652882
0.00628501
0.00628496
0.00628496
0.00629914
0.00605532
0.00605527
0.00605527
0.00606945
0.00582563
0.00582558
0.00582558
0.00583976
0.00559594
0.00559589
0.00559589
0.00561007
0.00536624
0.00536619
0.00536619
0.00538037
0.00513655
0.0051365
0.0051365
0.00515068
0.00490685
0.0049068
0.0049068
0.00492098
0.00467715
0.00467711
0.00467711
0.00469128
0.00444746
0.00444741
0.00444741
0.00446159
0.00421776
0.00421772
0.00421772
0.00423189
0.00398807
0.00398803
0.00398803
0.0040022
0.00375839
0.00375834
0.00375834
0.00377251
0.0035287
0.00352865
0.00352865
0.00354283
0.00329902
0.00329897
0.00329897
0.00331314
0.00306933
0.00306929
0.00306929
0.00308346
0.00283965
0.0028396
0.00283961
0.00285378
0.00260997
0.00260992
0.00260992
0.0026241
0.00238029
0.00238024
0.00238024
0.00239442
0.00215061
0.00215056
0.00215056
0.00216473
0.00192092
0.00192087
0.00192087
0.00193505
0.00169123
0.00169118
0.00169118
0.00170536
0.00146153
0.00146149
0.00146149
0.00147566
0.00123184
0.00123179
0.00123179
0.00124597
0.00100214
0.00100209
0.00100209
0.00101627
0.000772435
0.00077239
0.00077239
0.000786568
0.000542742
0.000542694
0.000542692
0.000556865
0.000313674
0.000313194
0.000313183
0.000327242
9.5797e-05
0.000104975
0.000104955
0.000105928
0.0217246
0.0217208
0.0217208
0.0217246
0.0217207
0.0217208
0.0217277
0.0217277
0.0217277
0.0217277
0.0217208
0.0217208
0.0217246
0.0217207
0.0217208
0.0217246
0.0216923
0.021488
0.0216765
0.0216765
0.0215021
0.0215021
0.0216923
0.021488
0.0216765
0.0216765
0.0215021
0.0215021
0.0216765
0.0215021
0.0215021
0.0216923
0.021488
0.0216765
0.0215021
0.0215021
0.021488
0.0214589
0.0212583
0.0214447
0.0214447
0.0212724
0.0212724
0.0214589
0.0212583
0.0214447
0.0214447
0.0212724
0.0212724
0.0214447
0.0212724
0.0212724
0.0214589
0.0212583
0.0214447
0.0212724
0.0212724
0.0212583
0.0212292
0.0210286
0.021215
0.021215
0.0210427
0.0210427
0.0212292
0.0210286
0.021215
0.021215
0.0210427
0.0210427
0.021215
0.0210427
0.0210427
0.0212292
0.0210286
0.021215
0.0210427
0.0210427
0.0210286
0.0209995
0.0207989
0.0209853
0.0209853
0.0208131
0.0208131
0.0209995
0.0207989
0.0209853
0.0209853
0.0208131
0.0208131
0.0209853
0.0208131
0.0208131
0.0209995
0.0207989
0.0209853
0.0208131
0.0208131
0.0207989
0.0207698
0.0205692
0.0207556
0.0207556
0.0205834
0.0205834
0.0207698
0.0205692
0.0207556
0.0207556
0.0205834
0.0205834
0.0207556
0.0205834
0.0205834
0.0207698
0.0205692
0.0207556
0.0205834
0.0205834
0.0205692
0.0205401
0.0203396
0.020526
0.020526
0.0203537
0.0203537
0.0205401
0.0203396
0.020526
0.020526
0.0203537
0.0203537
0.020526
0.0203537
0.0203537
0.0205401
0.0203396
0.020526
0.0203537
0.0203537
0.0203396
0.0203105
0.0201099
0.0202963
0.0202963
0.020124
0.020124
0.0203105
0.0201099
0.0202963
0.0202963
0.020124
0.020124
0.0202963
0.020124
0.020124
0.0203105
0.0201099
0.0202963
0.020124
0.020124
0.0201099
0.0200808
0.0198802
0.0200666
0.0200666
0.0198943
0.0198943
0.0200808
0.0198802
0.0200666
0.0200666
0.0198943
0.0198943
0.0200666
0.0198943
0.0198943
0.0200808
0.0198802
0.0200666
0.0198943
0.0198943
0.0198802
0.0198511
0.0196505
0.0198369
0.0198369
0.0196647
0.0196647
0.0198511
0.0196505
0.0198369
0.0198369
0.0196647
0.0196647
0.0198369
0.0196647
0.0196647
0.0198511
0.0196505
0.0198369
0.0196647
0.0196647
0.0196505
0.0196214
0.0194208
0.0196072
0.0196072
0.019435
0.019435
0.0196214
0.0194208
0.0196072
0.0196072
0.019435
0.019435
0.0196072
0.019435
0.019435
0.0196214
0.0194208
0.0196072
0.019435
0.019435
0.0194208
0.0193917
0.0191911
0.0193775
0.0193776
0.0192053
0.0192053
0.0193917
0.0191911
0.0193775
0.0193776
0.0192053
0.0192053
0.0193776
0.0192053
0.0192053
0.0193917
0.0191911
0.0193776
0.0192053
0.0192053
0.0191911
0.019162
0.0189614
0.0191479
0.0191479
0.0189756
0.0189756
0.019162
0.0189614
0.0191479
0.0191479
0.0189756
0.0189756
0.0191479
0.0189756
0.0189756
0.019162
0.0189614
0.0191479
0.0189756
0.0189756
0.0189614
0.0189323
0.0187318
0.0189182
0.0189182
0.0187459
0.0187459
0.0189323
0.0187318
0.0189182
0.0189182
0.0187459
0.0187459
0.0189182
0.0187459
0.0187459
0.0189323
0.0187318
0.0189182
0.0187459
0.0187459
0.0187318
0.0187027
0.0185021
0.0186885
0.0186885
0.0185162
0.0185162
0.0187027
0.0185021
0.0186885
0.0186885
0.0185162
0.0185162
0.0186885
0.0185162
0.0185162
0.0187026
0.0185021
0.0186885
0.0185162
0.0185162
0.0185021
0.018473
0.0182724
0.0184588
0.0184588
0.0182865
0.0182865
0.018473
0.0182724
0.0184588
0.0184588
0.0182865
0.0182865
0.0184588
0.0182865
0.0182865
0.018473
0.0182724
0.0184588
0.0182865
0.0182865
0.0182724
0.0182433
0.0180427
0.0182291
0.0182291
0.0180568
0.0180568
0.0182433
0.0180427
0.0182291
0.0182291
0.0180568
0.0180568
0.0182291
0.0180568
0.0180568
0.0182433
0.0180427
0.0182291
0.0180568
0.0180568
0.0180427
0.0180136
0.017813
0.0179994
0.0179994
0.0178271
0.0178271
0.0180136
0.017813
0.0179994
0.0179994
0.0178271
0.0178271
0.0179994
0.0178271
0.0178271
0.0180136
0.017813
0.0179994
0.0178271
0.0178271
0.017813
0.0177839
0.0175833
0.0177697
0.0177697
0.0175974
0.0175974
0.0177839
0.0175833
0.0177697
0.0177697
0.0175974
0.0175974
0.0177697
0.0175974
0.0175974
0.0177839
0.0175833
0.0177697
0.0175974
0.0175974
0.0175833
0.0175542
0.0173536
0.01754
0.01754
0.0173677
0.0173677
0.0175542
0.0173536
0.01754
0.01754
0.0173677
0.0173677
0.01754
0.0173677
0.0173677
0.0175542
0.0173536
0.01754
0.0173677
0.0173677
0.0173536
0.0173245
0.0171239
0.0173103
0.0173103
0.017138
0.017138
0.0173245
0.0171239
0.0173103
0.0173103
0.017138
0.017138
0.0173103
0.017138
0.017138
0.0173245
0.0171239
0.0173103
0.017138
0.017138
0.0171239
0.0170948
0.0168942
0.0170806
0.0170806
0.0169083
0.0169083
0.0170948
0.0168942
0.0170806
0.0170806
0.0169083
0.0169083
0.0170806
0.0169083
0.0169083
0.0170948
0.0168942
0.0170806
0.0169083
0.0169083
0.0168942
0.0168651
0.0166645
0.0168509
0.0168509
0.0166786
0.0166786
0.0168651
0.0166645
0.0168509
0.0168509
0.0166786
0.0166786
0.0168509
0.0166786
0.0166786
0.0168651
0.0166645
0.0168509
0.0166786
0.0166786
0.0166645
0.0166354
0.0164348
0.0166212
0.0166212
0.0164489
0.0164489
0.0166354
0.0164348
0.0166212
0.0166212
0.0164489
0.0164489
0.0166212
0.0164489
0.0164489
0.0166354
0.0164348
0.0166212
0.0164489
0.0164489
0.0164348
0.0164057
0.0162051
0.0163915
0.0163915
0.0162192
0.0162192
0.0164057
0.0162051
0.0163915
0.0163915
0.0162192
0.0162192
0.0163915
0.0162192
0.0162192
0.0164057
0.0162051
0.0163915
0.0162192
0.0162192
0.0162051
0.016176
0.0159754
0.0161618
0.0161618
0.0159896
0.0159896
0.016176
0.0159754
0.0161618
0.0161618
0.0159896
0.0159896
0.0161618
0.0159896
0.0159896
0.016176
0.0159754
0.0161618
0.0159896
0.0159896
0.0159754
0.0159463
0.0157457
0.0159321
0.0159321
0.0157599
0.0157599
0.0159463
0.0157457
0.0159321
0.0159321
0.0157599
0.0157599
0.0159321
0.0157599
0.0157599
0.0159463
0.0157457
0.0159321
0.0157599
0.0157599
0.0157457
0.0157166
0.015516
0.0157025
0.0157025
0.0155302
0.0155302
0.0157166
0.015516
0.0157025
0.0157025
0.0155302
0.0155302
0.0157025
0.0155302
0.0155302
0.0157166
0.015516
0.0157025
0.0155302
0.0155302
0.015516
0.0154869
0.0152864
0.0154728
0.0154728
0.0153005
0.0153005
0.0154869
0.0152864
0.0154728
0.0154728
0.0153005
0.0153005
0.0154728
0.0153005
0.0153005
0.0154869
0.0152864
0.0154728
0.0153005
0.0153005
0.0152864
0.0152572
0.0150567
0.0152431
0.0152431
0.0150708
0.0150708
0.0152573
0.0150567
0.0152431
0.0152431
0.0150708
0.0150708
0.0152431
0.0150708
0.0150708
0.0152572
0.0150567
0.0152431
0.0150708
0.0150708
0.0150567
0.0150276
0.014827
0.0150134
0.0150134
0.0148411
0.0148411
0.0150276
0.014827
0.0150134
0.0150134
0.0148411
0.0148411
0.0150134
0.0148411
0.0148411
0.0150276
0.014827
0.0150134
0.0148411
0.0148411
0.014827
0.0147979
0.0145973
0.0147837
0.0147837
0.0146114
0.0146114
0.0147979
0.0145973
0.0147837
0.0147837
0.0146114
0.0146114
0.0147837
0.0146114
0.0146114
0.0147979
0.0145973
0.0147837
0.0146114
0.0146114
0.0145973
0.0145682
0.0143676
0.014554
0.014554
0.0143817
0.0143817
0.0145682
0.0143676
0.014554
0.014554
0.0143817
0.0143817
0.014554
0.0143817
0.0143817
0.0145682
0.0143676
0.014554
0.0143817
0.0143817
0.0143676
0.0143385
0.0141379
0.0143243
0.0143243
0.014152
0.014152
0.0143385
0.0141379
0.0143243
0.0143243
0.014152
0.014152
0.0143243
0.014152
0.014152
0.0143385
0.0141379
0.0143243
0.014152
0.014152
0.0141379
0.0141087
0.0139081
0.0140946
0.0140946
0.0139223
0.0139223
0.0141088
0.0139081
0.0140946
0.0140946
0.0139223
0.0139223
0.0140946
0.0139223
0.0139223
0.0141087
0.0139081
0.0140946
0.0139223
0.0139223
0.0139081
0.013879
0.0136784
0.0138649
0.0138649
0.0136926
0.0136926
0.013879
0.0136784
0.0138649
0.0138649
0.0136926
0.0136926
0.0138649
0.0136926
0.0136926
0.013879
0.0136784
0.0138649
0.0136926
0.0136926
0.0136784
0.0136493
0.0134487
0.0136352
0.0136352
0.0134629
0.0134629
0.0136493
0.0134487
0.0136352
0.0136352
0.0134629
0.0134629
0.0136352
0.0134629
0.0134629
0.0136493
0.0134487
0.0136352
0.0134629
0.0134629
0.0134487
0.0134196
0.013219
0.0134054
0.0134054
0.0132332
0.0132332
0.0134196
0.013219
0.0134054
0.0134055
0.0132332
0.0132332
0.0134055
0.0132332
0.0132332
0.0134196
0.013219
0.0134055
0.0132332
0.0132332
0.013219
0.0131899
0.0129893
0.0131757
0.0131757
0.0130035
0.0130035
0.0131899
0.0129893
0.0131757
0.0131757
0.0130035
0.0130035
0.0131757
0.0130035
0.0130035
0.0131899
0.0129893
0.0131757
0.0130035
0.0130035
0.0129893
0.0129602
0.0127596
0.012946
0.012946
0.0127738
0.0127738
0.0129602
0.0127596
0.012946
0.012946
0.0127738
0.0127738
0.012946
0.0127738
0.0127738
0.0129602
0.0127596
0.012946
0.0127738
0.0127738
0.0127596
0.0127305
0.0125299
0.0127163
0.0127163
0.0125441
0.0125441
0.0127305
0.0125299
0.0127163
0.0127163
0.0125441
0.0125441
0.0127163
0.0125441
0.0125441
0.0127305
0.0125299
0.0127163
0.0125441
0.0125441
0.0125299
0.0125008
0.0123002
0.0124866
0.0124866
0.0123144
0.0123144
0.0125008
0.0123002
0.0124866
0.0124866
0.0123144
0.0123144
0.0124866
0.0123144
0.0123144
0.0125008
0.0123002
0.0124866
0.0123144
0.0123144
0.0123002
0.0122711
0.0120705
0.012257
0.012257
0.0120847
0.0120847
0.0122711
0.0120705
0.012257
0.012257
0.0120847
0.0120847
0.012257
0.0120847
0.0120847
0.0122711
0.0120705
0.012257
0.0120847
0.0120847
0.0120705
0.0120414
0.0118408
0.0120273
0.0120273
0.011855
0.011855
0.0120414
0.0118408
0.0120273
0.0120273
0.011855
0.011855
0.0120273
0.011855
0.011855
0.0120414
0.0118408
0.0120273
0.011855
0.011855
0.0118408
0.0118117
0.0116112
0.0117976
0.0117976
0.0116253
0.0116253
0.0118117
0.0116112
0.0117976
0.0117976
0.0116253
0.0116253
0.0117976
0.0116253
0.0116253
0.0118117
0.0116112
0.0117976
0.0116253
0.0116253
0.0116112
0.0115821
0.0113815
0.0115679
0.0115679
0.0113956
0.0113956
0.0115821
0.0113815
0.0115679
0.0115679
0.0113956
0.0113956
0.0115679
0.0113956
0.0113956
0.0115821
0.0113815
0.0115679
0.0113956
0.0113956
0.0113815
0.0113524
0.0111518
0.0113382
0.0113382
0.0111659
0.0111659
0.0113524
0.0111518
0.0113382
0.0113382
0.0111659
0.0111659
0.0113382
0.0111659
0.0111659
0.0113524
0.0111518
0.0113382
0.0111659
0.0111659
0.0111518
0.0111227
0.0109221
0.0111085
0.0111085
0.0109362
0.0109362
0.0111227
0.0109221
0.0111085
0.0111085
0.0109362
0.0109362
0.0111085
0.0109362
0.0109362
0.0111227
0.0109221
0.0111085
0.0109362
0.0109362
0.0109221
0.010893
0.0106924
0.0108788
0.0108788
0.0107065
0.0107065
0.010893
0.0106924
0.0108788
0.0108788
0.0107065
0.0107065
0.0108788
0.0107065
0.0107065
0.010893
0.0106924
0.0108788
0.0107065
0.0107065
0.0106924
0.0106633
0.0104627
0.0106491
0.0106491
0.0104768
0.0104768
0.0106633
0.0104627
0.0106491
0.0106491
0.0104768
0.0104768
0.0106491
0.0104768
0.0104768
0.0106633
0.0104627
0.0106491
0.0104768
0.0104768
0.0104627
0.0104336
0.010233
0.0104194
0.0104194
0.0102471
0.0102471
0.0104336
0.010233
0.0104194
0.0104194
0.0102471
0.0102471
0.0104194
0.0102471
0.0102471
0.0104336
0.010233
0.0104194
0.0102471
0.0102471
0.010233
0.0102039
0.0100033
0.0101897
0.0101897
0.0100174
0.0100174
0.0102039
0.0100033
0.0101897
0.0101897
0.0100174
0.0100174
0.0101897
0.0100174
0.0100174
0.0102039
0.0100033
0.0101897
0.0100174
0.0100174
0.0100033
0.0099742
0.0097736
0.00996002
0.00996002
0.00978774
0.00978774
0.0099742
0.0097736
0.00996002
0.00996002
0.00978774
0.00978774
0.00996002
0.00978774
0.00978774
0.0099742
0.0097736
0.00996002
0.00978774
0.00978774
0.0097736
0.0097445
0.0095439
0.00973032
0.00973032
0.00955804
0.00955804
0.0097445
0.00954389
0.00973032
0.00973032
0.00955804
0.00955804
0.00973032
0.00955804
0.00955804
0.0097445
0.0095439
0.00973032
0.00955804
0.00955804
0.0095439
0.00951479
0.00931419
0.00950061
0.00950061
0.00932834
0.00932834
0.00951479
0.00931419
0.00950061
0.00950061
0.00932834
0.00932834
0.00950061
0.00932834
0.00932834
0.00951479
0.00931419
0.00950061
0.00932834
0.00932834
0.00931419
0.00928509
0.00908449
0.00927091
0.00927091
0.00909864
0.00909864
0.00928509
0.00908449
0.00927091
0.00927091
0.00909864
0.00909864
0.00927091
0.00909864
0.00909864
0.00928509
0.00908449
0.00927091
0.00909864
0.00909863
0.00908449
0.00905539
0.00885479
0.00904121
0.00904121
0.00886893
0.00886893
0.00905539
0.00885479
0.00904121
0.00904121
0.00886893
0.00886893
0.00904121
0.00886893
0.00886894
0.00905539
0.00885479
0.00904121
0.00886894
0.00886893
0.00885479
0.00882569
0.00862509
0.00881151
0.00881151
0.00863924
0.00863924
0.00882569
0.00862509
0.00881151
0.00881151
0.00863924
0.00863924
0.00881151
0.00863924
0.00863924
0.00882569
0.00862509
0.00881151
0.00863924
0.00863924
0.00862509
0.00859599
0.0083954
0.00858181
0.00858181
0.00840954
0.00840954
0.00859599
0.0083954
0.00858181
0.00858181
0.00840954
0.00840954
0.00858181
0.00840954
0.00840954
0.00859599
0.0083954
0.00858181
0.00840954
0.00840954
0.0083954
0.0083663
0.00816571
0.00835212
0.00835212
0.00817985
0.00817985
0.0083663
0.00816571
0.00835212
0.00835212
0.00817985
0.00817985
0.00835212
0.00817985
0.00817985
0.0083663
0.00816571
0.00835212
0.00817985
0.00817985
0.00816571
0.00813661
0.00793602
0.00812243
0.00812243
0.00795016
0.00795016
0.00813661
0.00793602
0.00812243
0.00812243
0.00795016
0.00795016
0.00812243
0.00795016
0.00795016
0.00813661
0.00793602
0.00812243
0.00795016
0.00795016
0.00793602
0.00790692
0.00770633
0.00789274
0.00789274
0.00772048
0.00772047
0.00790692
0.00770633
0.00789274
0.00789274
0.00772048
0.00772048
0.00789274
0.00772048
0.00772048
0.00790692
0.00770633
0.00789274
0.00772048
0.00772047
0.00770633
0.00767723
0.00747665
0.00766305
0.00766305
0.00749079
0.00749079
0.00767723
0.00747665
0.00766305
0.00766305
0.00749079
0.00749079
0.00766305
0.00749079
0.00749079
0.00767723
0.00747665
0.00766305
0.00749079
0.00749079
0.00747665
0.00744755
0.00724697
0.00743337
0.00743337
0.00726111
0.00726111
0.00744755
0.00724697
0.00743337
0.00743337
0.00726111
0.00726111
0.00743337
0.00726111
0.00726111
0.00744755
0.00724697
0.00743337
0.00726111
0.00726111
0.00724697
0.00721787
0.00701729
0.00720369
0.00720369
0.00703143
0.00703143
0.00721787
0.00701729
0.00720369
0.00720369
0.00703143
0.00703143
0.00720369
0.00703143
0.00703143
0.00721787
0.00701729
0.00720369
0.00703143
0.00703143
0.00701729
0.00698819
0.00678761
0.00697401
0.00697401
0.00680175
0.00680175
0.00698819
0.0067876
0.00697401
0.00697401
0.00680175
0.00680175
0.00697401
0.00680175
0.00680175
0.00698819
0.00678761
0.00697401
0.00680175
0.00680175
0.00678761
0.0067585
0.00655792
0.00674433
0.00674433
0.00657206
0.00657206
0.0067585
0.00655792
0.00674433
0.00674433
0.00657206
0.00657206
0.00674433
0.00657206
0.00657206
0.0067585
0.00655792
0.00674433
0.00657207
0.00657206
0.00655792
0.00652882
0.00632824
0.00651464
0.00651464
0.00634238
0.00634238
0.00652882
0.00632824
0.00651464
0.00651464
0.00634238
0.00634238
0.00651464
0.00634238
0.00634238
0.00652882
0.00632824
0.00651464
0.00634238
0.00634238
0.00632824
0.00629914
0.00609855
0.00628496
0.00628496
0.00611269
0.00611269
0.00629914
0.00609855
0.00628496
0.00628496
0.00611269
0.00611269
0.00628496
0.00611269
0.00611269
0.00629914
0.00609855
0.00628496
0.00611269
0.00611269
0.00609855
0.00606945
0.00586886
0.00605527
0.00605527
0.005883
0.005883
0.00606945
0.00586886
0.00605527
0.00605527
0.005883
0.005883
0.00605527
0.005883
0.005883
0.00606945
0.00586886
0.00605527
0.005883
0.005883
0.00586886
0.00583976
0.00563917
0.00582558
0.00582558
0.00565331
0.00565331
0.00583976
0.00563917
0.00582558
0.00582558
0.00565331
0.00565331
0.00582558
0.00565331
0.00565331
0.00583976
0.00563917
0.00582558
0.00565331
0.00565331
0.00563917
0.00561007
0.00540948
0.00559589
0.00559589
0.00542362
0.00542362
0.00561007
0.00540947
0.00559589
0.00559589
0.00542362
0.00542362
0.00559589
0.00542362
0.00542362
0.00561007
0.00540948
0.00559589
0.00542362
0.00542362
0.00540948
0.00538037
0.00517978
0.00536619
0.00536619
0.00519392
0.00519392
0.00538037
0.00517978
0.00536619
0.00536619
0.00519392
0.00519392
0.00536619
0.00519392
0.00519392
0.00538037
0.00517978
0.00536619
0.00519392
0.00519392
0.00517978
0.00515068
0.00495008
0.0051365
0.0051365
0.00496423
0.00496422
0.00515068
0.00495008
0.0051365
0.0051365
0.00496423
0.00496423
0.0051365
0.00496423
0.00496423
0.00515068
0.00495008
0.0051365
0.00496423
0.00496422
0.00495008
0.00492098
0.00472039
0.0049068
0.0049068
0.00473453
0.00473453
0.00492098
0.00472039
0.0049068
0.0049068
0.00473453
0.00473453
0.0049068
0.00473453
0.00473453
0.00492098
0.00472039
0.0049068
0.00473453
0.00473453
0.00472039
0.00469128
0.00449069
0.00467711
0.0046771
0.00450483
0.00450483
0.00469128
0.00449069
0.00467711
0.00467711
0.00450483
0.00450483
0.00467711
0.00450483
0.00450483
0.00469128
0.00449069
0.0046771
0.00450483
0.00450483
0.00449069
0.00446159
0.004261
0.00444741
0.00444741
0.00427514
0.00427514
0.00446159
0.004261
0.00444741
0.00444741
0.00427514
0.00427514
0.00444741
0.00427514
0.00427514
0.00446159
0.004261
0.00444741
0.00427514
0.00427514
0.004261
0.0042319
0.00403131
0.00421772
0.00421772
0.00404545
0.00404545
0.0042319
0.0040313
0.00421772
0.00421772
0.00404545
0.00404545
0.00421772
0.00404545
0.00404545
0.0042319
0.00403131
0.00421772
0.00404545
0.00404545
0.00403131
0.0040022
0.00380162
0.00398803
0.00398803
0.00381576
0.00381576
0.0040022
0.00380162
0.00398803
0.00398803
0.00381576
0.00381576
0.00398803
0.00381576
0.00381576
0.0040022
0.00380162
0.00398802
0.00381576
0.00381576
0.00380162
0.00377252
0.00357193
0.00375834
0.00375834
0.00358607
0.00358607
0.00377252
0.00357193
0.00375834
0.00375834
0.00358607
0.00358607
0.00375834
0.00358607
0.00358607
0.00377252
0.00357193
0.00375834
0.00358607
0.00358607
0.00357193
0.00354283
0.00334225
0.00352865
0.00352865
0.00335639
0.00335639
0.00354283
0.00334225
0.00352865
0.00352865
0.00335639
0.00335639
0.00352865
0.00335639
0.00335639
0.00354283
0.00334225
0.00352865
0.00335639
0.00335639
0.00334225
0.00331315
0.00311257
0.00329897
0.00329897
0.00312671
0.00312671
0.00331315
0.00311256
0.00329897
0.00329897
0.00312671
0.00312671
0.00329897
0.00312671
0.00312671
0.00331315
0.00311257
0.00329897
0.00312671
0.00312671
0.00311256
0.00308346
0.00288288
0.00306929
0.00306929
0.00289703
0.00289702
0.00308346
0.00288288
0.00306929
0.00306929
0.00289703
0.00289703
0.00306929
0.00289703
0.00289703
0.00308346
0.00288288
0.00306928
0.00289703
0.00289702
0.00288288
0.00285378
0.0026532
0.00283961
0.0028396
0.00266734
0.00266734
0.00285378
0.0026532
0.00283961
0.00283961
0.00266734
0.00266734
0.00283961
0.00266734
0.00266734
0.00285378
0.0026532
0.0028396
0.00266734
0.00266734
0.0026532
0.0026241
0.00242352
0.00260992
0.00260992
0.00243766
0.00243766
0.0026241
0.00242352
0.00260992
0.00260992
0.00243766
0.00243766
0.00260992
0.00243766
0.00243766
0.0026241
0.00242352
0.00260992
0.00243766
0.00243766
0.00242352
0.00239442
0.00219384
0.00238024
0.00238024
0.00220798
0.00220798
0.00239442
0.00219384
0.00238024
0.00238024
0.00220798
0.00220798
0.00238024
0.00220798
0.00220798
0.00239442
0.00219384
0.00238024
0.00220798
0.00220798
0.00219384
0.00216474
0.00196415
0.00215056
0.00215056
0.00197829
0.00197829
0.00216474
0.00196415
0.00215056
0.00215056
0.00197829
0.00197829
0.00215056
0.00197829
0.00197829
0.00216474
0.00196415
0.00215056
0.00197829
0.00197829
0.00196415
0.00193505
0.00173446
0.00192087
0.00192087
0.0017486
0.0017486
0.00193505
0.00173446
0.00192087
0.00192087
0.0017486
0.00174861
0.00192087
0.0017486
0.0017486
0.00193505
0.00173446
0.00192087
0.00174861
0.0017486
0.00173446
0.00170536
0.00150477
0.00169118
0.00169118
0.00151891
0.00151891
0.00170536
0.00150477
0.00169118
0.00169118
0.00151891
0.00151891
0.00169118
0.00151891
0.00151891
0.00170536
0.00150477
0.00169118
0.00151891
0.00151891
0.00150477
0.00147567
0.00127507
0.00146149
0.00146149
0.00128922
0.00128922
0.00147567
0.00127507
0.00146149
0.00146149
0.00128922
0.00128922
0.00146149
0.00128922
0.00128922
0.00147567
0.00127507
0.00146149
0.00128922
0.00128921
0.00127507
0.00124597
0.00104538
0.00123179
0.00123179
0.00105952
0.00105952
0.00124597
0.00104538
0.00123179
0.00123179
0.00105952
0.00105952
0.00123179
0.00105952
0.00105952
0.00124597
0.00104538
0.00123179
0.00105952
0.00105952
0.00104538
0.00101627
0.000815673
0.00100209
0.00100209
0.000829816
0.000829816
0.00101627
0.000815672
0.00100209
0.00100209
0.000829816
0.000829816
0.0010021
0.000829816
0.000829817
0.00101627
0.000815673
0.00100209
0.000829816
0.000829816
0.000815674
0.000786569
0.000585967
0.000772389
0.000772389
0.000600113
0.000600114
0.00078657
0.000585968
0.00077239
0.000772389
0.000600112
0.000600113
0.00077239
0.000600115
0.000600114
0.000786568
0.000585969
0.00077239
0.000600114
0.000600114
0.000585969
0.000556865
0.000356327
0.000542691
0.000542693
0.000370498
0.0003705
0.000556866
0.000356331
0.000542693
0.000542692
0.000370496
0.000370494
0.000542692
0.0003705
0.000370494
0.000556865
0.000356323
0.000542692
0.000370492
0.000370493
0.000356322
0.000327252
0.000131327
0.000313193
0.000313196
0.000144906
0.000144921
0.000327256
0.000131343
0.00031319
0.000313186
0.000144908
0.00014489
0.000313186
0.000144919
0.000144897
0.000327244
0.000131313
0.000313185
0.00014489
0.000144902
0.000131318
0.000105938
0.000104965
0.000104975
0.000105953
0.000104964
0.000104955
9.58029e-05
9.57915e-05
9.57924e-05
0.000104957
0.000105928
0.000104957
0.021755
0.021793
0.0217724
0.0217724
0.0218516
0.0218077
0.0219188
0.0217848
0.0218515
0.0218077
0.0217847
0.0219187
0.021824
0.0219368
0.0219368
0.021605
0.0217193
0.0217112
0.0216054
0.0215974
0.0216012
0.021605
0.0217192
0.0217112
0.0216054
0.021673
0.021673
0.021673
0.0215019
0.0215019
0.0215019
0.0215019
0.0216045
0.0217039
0.0216755
0.0216168
0.0216961
0.021605
0.0216168
0.0215976
0.0216012
0.0216045
0.0216755
0.0217038
0.0216168
0.0216961
0.0216168
0.021605
0.0217059
0.0217058
0.0216033
0.0216045
0.0216045
0.021373
0.0214592
0.0214593
0.021373
0.0214592
0.0213731
0.021373
0.0214592
0.0214593
0.021373
0.0214446
0.0214446
0.0214446
0.0212724
0.0212724
0.0212724
0.0212724
0.0213736
0.0214588
0.0214447
0.0213873
0.0214587
0.0213735
0.0213873
0.0214592
0.021373
0.0213735
0.0214447
0.0214588
0.0213873
0.0214587
0.0213873
0.0213735
0.0214592
0.0214592
0.0213731
0.0213731
0.0213731
0.0211433
0.0212294
0.0212294
0.0211433
0.0212294
0.0211433
0.0211433
0.0212294
0.0212294
0.0211433
0.021215
0.021215
0.021215
0.0210428
0.0210428
0.0210428
0.0210428
0.0211438
0.0212289
0.021215
0.0211576
0.0212289
0.0211438
0.0211576
0.0212294
0.0211433
0.0211438
0.021215
0.0212289
0.0211576
0.0212289
0.0211576
0.0211438
0.0212293
0.0212293
0.0211434
0.0211433
0.0211433
0.0209136
0.0209997
0.0209997
0.0209136
0.0209997
0.0209136
0.0209136
0.0209997
0.0209997
0.0209136
0.0209854
0.0209854
0.0209854
0.0208131
0.0208131
0.0208131
0.0208131
0.0209141
0.0209992
0.0209853
0.0209279
0.0209992
0.0209141
0.0209279
0.0209997
0.0209136
0.0209141
0.0209853
0.0209992
0.0209279
0.0209992
0.0209279
0.0209141
0.0209997
0.0209997
0.0209138
0.0209136
0.0209136
0.0206839
0.02077
0.02077
0.0206839
0.02077
0.0206839
0.0206839
0.02077
0.02077
0.0206839
0.0207557
0.0207557
0.0207557
0.0205834
0.0205834
0.0205834
0.0205834
0.0206844
0.0207695
0.0207557
0.0206982
0.0207695
0.0206844
0.0206982
0.02077
0.0206839
0.0206844
0.0207557
0.0207695
0.0206982
0.0207695
0.0206982
0.0206844
0.02077
0.02077
0.0206841
0.020684
0.020684
0.0204542
0.0205403
0.0205403
0.0204542
0.0205403
0.0204543
0.0204542
0.0205403
0.0205403
0.0204542
0.020526
0.020526
0.020526
0.0203538
0.0203538
0.0203538
0.0203538
0.0204548
0.0205398
0.020526
0.0204685
0.0205398
0.0204547
0.0204686
0.0205403
0.0204543
0.0204548
0.020526
0.0205398
0.0204685
0.0205398
0.0204686
0.0204547
0.0205403
0.0205403
0.0204544
0.0204543
0.0204543
0.0202246
0.0203106
0.0203106
0.0202246
0.0203106
0.0202246
0.0202246
0.0203106
0.0203106
0.0202246
0.0202963
0.0202963
0.0202963
0.0201241
0.0201241
0.0201241
0.0201241
0.0202251
0.0203102
0.0202963
0.0202389
0.0203101
0.020225
0.0202389
0.0203106
0.0202246
0.0202251
0.0202963
0.0203102
0.0202389
0.0203101
0.0202389
0.020225
0.0203106
0.0203106
0.0202247
0.0202246
0.0202246
0.0199949
0.020081
0.020081
0.0199949
0.0200809
0.0199949
0.0199949
0.020081
0.020081
0.0199949
0.0200666
0.0200666
0.0200666
0.0198944
0.0198944
0.0198944
0.0198944
0.0199954
0.0200805
0.0200666
0.0200092
0.0200804
0.0199954
0.0200092
0.0200809
0.0199949
0.0199954
0.0200666
0.0200805
0.0200092
0.0200804
0.0200092
0.0199954
0.0200809
0.0200809
0.019995
0.0199949
0.0199949
0.0197652
0.0198513
0.0198513
0.0197652
0.0198513
0.0197652
0.0197652
0.0198513
0.0198513
0.0197652
0.019837
0.019837
0.019837
0.0196647
0.0196647
0.0196647
0.0196647
0.0197657
0.0198508
0.0198369
0.0197795
0.0198508
0.0197657
0.0197795
0.0198513
0.0197652
0.0197657
0.0198369
0.0198508
0.0197795
0.0198508
0.0197795
0.0197657
0.0198513
0.0198513
0.0197654
0.0197652
0.0197652
0.0195355
0.0196216
0.0196216
0.0195355
0.0196216
0.0195355
0.0195355
0.0196216
0.0196216
0.0195355
0.0196073
0.0196073
0.0196073
0.019435
0.019435
0.019435
0.019435
0.019536
0.0196211
0.0196073
0.0195498
0.0196211
0.019536
0.0195498
0.0196216
0.0195355
0.019536
0.0196073
0.0196211
0.0195498
0.0196211
0.0195498
0.019536
0.0196216
0.0196216
0.0195357
0.0195355
0.0195355
0.0193058
0.0193919
0.0193919
0.0193058
0.0193919
0.0193058
0.0193058
0.0193919
0.0193919
0.0193058
0.0193776
0.0193776
0.0193776
0.0192053
0.0192053
0.0192053
0.0192053
0.0193064
0.0193914
0.0193776
0.0193201
0.0193914
0.0193063
0.0193201
0.0193919
0.0193058
0.0193064
0.0193776
0.0193914
0.0193201
0.0193914
0.0193201
0.0193063
0.0193919
0.0193919
0.019306
0.0193059
0.0193059
0.0190761
0.0191622
0.0191622
0.0190761
0.0191622
0.0190762
0.0190761
0.0191622
0.0191622
0.0190761
0.0191479