/*--------------------------------*- C++ -*----------------------------------*\
| =========                 |                                                 |
| \\      /  F ield         | OpenFOAM: The Open Source CFD Toolbox           |
|  \\    /   O peration     | Version:  v1906                                 |
|   \\  /    A nd           | Web:      www.OpenFOAM.com                      |
|    \\/     M anipulation  |                                                 |
\*---------------------------------------------------------------------------*/
FoamFile
{
    version     2.0;
    format      ascii;
    class       volScalarField;
    location    "1000";
    object      epsilon;
}
// * * * * * * * * * * * * * * * * * * * * * * * * * * * * * * * * * * * * * //

dimensions      [0 2 -3 0 0 0 0];


internalField   nonuniform List<scalar> 
42840
(
6.51836e-07
1.18285e-06
1.1829e-06
1.41519e-06
1.41811e-06
1.41515e-06
1.4159e-06
1.18292e-06
1.18295e-06
1.18524e-06
1.18527e-06
1.4151e-06
1.41586e-06
1.18283e-06
1.18295e-06
1.18515e-06
1.18528e-06
1.18299e-06
1.18518e-06
1.18531e-06
1.41517e-06
1.41589e-06
1.18289e-06
1.18523e-06
1.18522e-06
1.41596e-06
1.18604e-06
1.18594e-06
4.2363e-06
9.5491e-06
9.55426e-06
4.23572e-06
1.90609e-05
1.90714e-05
4.23647e-06
9.55111e-06
9.55626e-06
4.2358e-06
6.51847e-07
6.51928e-07
6.51931e-07
6.56495e-07
6.56506e-07
6.56586e-07
6.56591e-07
2.29401e-06
3.64446e-06
9.29866e-07
1.18365e-06
3.6449e-06
9.30973e-07
2.29375e-06
1.90619e-05
1.90725e-05
2.29398e-06
9.29905e-07
3.64447e-06
1.1837e-06
9.31013e-07
3.64497e-06
2.29372e-06
5.64518e-06
5.64711e-06
1.41451e-06
5.64626e-06
5.64821e-06
5.64953e-06
5.65148e-06
1.90593e-05
1.90698e-05
1.90617e-05
1.90722e-05
5.64507e-06
5.64696e-06
1.41446e-06
5.64619e-06
5.64806e-06
1.90809e-05
1.90705e-05
1.90833e-05
1.90729e-05
1.41665e-06
5.64836e-06
5.65024e-06
5.64728e-06
5.64917e-06
4.23641e-06
9.55046e-06
9.55525e-06
4.23582e-06
2.29394e-06
3.64425e-06
9.29794e-07
1.18372e-06
3.64475e-06
9.30904e-07
2.29362e-06
2.294e-06
3.64478e-06
9.29835e-07
1.18375e-06
3.64526e-06
9.30944e-07
2.29368e-06
4.23705e-06
9.56001e-06
9.55497e-06
4.23759e-06
4.23715e-06
9.56113e-06
9.55631e-06
4.2377e-06
2.29446e-06
1.18451e-06
3.646e-06
9.33015e-07
3.64555e-06
9.31991e-07
2.29472e-06
2.29453e-06
1.18454e-06
3.64652e-06
9.33056e-07
3.64609e-06
9.32031e-07
2.29479e-06
5.64687e-06
5.64523e-06
1.41442e-06
5.64794e-06
5.64617e-06
1.90587e-05
1.90692e-05
1.90824e-05
1.90721e-05
1.41661e-06
5.65012e-06
5.64835e-06
5.6491e-06
5.64745e-06
1.90802e-05
1.90698e-05
2.29409e-06
3.64501e-06
9.29854e-07
1.18363e-06
3.64546e-06
9.30982e-07
2.29376e-06
4.23638e-06
9.55051e-06
9.55567e-06
4.23571e-06
2.29401e-06
9.29874e-07
3.64485e-06
1.18375e-06
9.30983e-07
3.64529e-06
2.29368e-06
4.23715e-06
9.56201e-06
9.55698e-06
4.23777e-06
2.2946e-06
1.18443e-06
3.64672e-06
9.33094e-07
3.64632e-06
9.3205e-07
2.29487e-06
4.23705e-06
9.56145e-06
9.55638e-06
4.23768e-06
2.29452e-06
1.18454e-06
9.33095e-07
3.64655e-06
9.32071e-07
3.64616e-06
2.29479e-06
4.23646e-06
9.55048e-06
9.55525e-06
4.23588e-06
2.29395e-06
9.29887e-07
3.64435e-06
1.18379e-06
9.3099e-07
3.64484e-06
2.29368e-06
4.23636e-06
9.55016e-06
9.55533e-06
4.23578e-06
2.29459e-06
1.18444e-06
3.64616e-06
9.33084e-07
3.64576e-06
9.32061e-07
2.2948e-06
4.23721e-06
9.56111e-06
9.55633e-06
4.23775e-06
2.29452e-06
1.18458e-06
9.33101e-07
3.64609e-06
9.32082e-07
3.64565e-06
2.29473e-06
4.23711e-06
9.5611e-06
9.55602e-06
4.23764e-06
5.64701e-06
5.64522e-06
1.41444e-06
5.64799e-06
5.64633e-06
1.90606e-05
1.90712e-05
1.90835e-05
1.90731e-05
1.4167e-06
5.65017e-06
5.6485e-06
5.64923e-06
5.64744e-06
1.90822e-05
1.90718e-05
2.29403e-06
9.29921e-07
3.64499e-06
1.18369e-06
9.31027e-07
3.64547e-06
2.29376e-06
4.23639e-06
9.55048e-06
9.55565e-06
4.23582e-06
4.23644e-06
9.55119e-06
9.55635e-06
4.23581e-06
2.29456e-06
1.18449e-06
9.33124e-07
3.64623e-06
9.32101e-07
3.64578e-06
2.29477e-06
2.2946e-06
1.18449e-06
9.33139e-07
3.64673e-06
9.32117e-07
3.6463e-06
2.29482e-06
4.23715e-06
9.56144e-06
9.55635e-06
4.23768e-06
4.23714e-06
9.56211e-06
9.55707e-06
4.23773e-06
1.90605e-05
1.90709e-05
1.90623e-05
1.90728e-05
1.4167e-06
5.64843e-06
5.65039e-06
5.64739e-06
5.64933e-06
1.9082e-05
1.90716e-05
1.90838e-05
1.90734e-05
9.34111e-07
3.64688e-06
2.29526e-06
9.56176e-06
4.23838e-06
3.64754e-06
9.563e-06
1.90826e-05
1.90845e-05
1.26403e-05
1.12327e-05
4.8816e-06
4.23639e-06
1.12305e-05
4.88173e-06
1.26428e-05
2.2738e-05
9.55134e-06
7.23777e-06
7.23742e-06
2.27308e-05
2.27373e-05
7.2387e-06
9.55205e-06
7.23906e-06
2.27444e-05
1.2639e-05
4.23563e-06
1.1227e-05
4.88098e-06
1.12293e-05
4.88085e-06
1.26364e-05
1.90658e-05
1.90665e-05
1.26407e-05
4.88192e-06
1.12338e-05
4.23649e-06
4.88197e-06
1.12309e-05
1.26432e-05
2.27379e-05
9.55335e-06
7.23924e-06
7.23906e-06
2.27309e-05
2.27374e-05
7.24034e-06
9.55405e-06
7.24052e-06
2.27443e-05
1.26394e-05
4.23579e-06
4.88122e-06
1.12274e-05
4.88116e-06
1.12303e-05
1.26368e-05
1.90669e-05
1.90675e-05
9.95768e-06
2.23738e-05
2.2373e-05
2.23676e-05
2.23668e-05
9.95735e-06
4.70057e-06
2.97314e-06
5.64514e-06
9.9142e-06
2.97298e-06
9.91613e-06
4.70091e-06
4.70631e-06
2.97434e-06
5.64711e-06
9.91865e-06
2.97418e-06
9.92119e-06
4.70663e-06
4.70163e-06
9.91918e-06
5.64629e-06
2.97339e-06
2.97356e-06
9.91698e-06
4.70128e-06
4.70735e-06
9.92411e-06
5.64822e-06
2.97459e-06
2.97476e-06
9.92161e-06
4.70702e-06
9.95554e-06
2.23618e-05
2.23609e-05
2.2368e-05
2.23672e-05
9.95587e-06
4.7033e-06
2.9747e-06
9.92547e-06
5.6495e-06
4.70367e-06
2.97451e-06
9.92807e-06
4.70903e-06
2.97591e-06
9.93026e-06
5.65146e-06
4.70939e-06
2.97572e-06
9.93284e-06
9.96267e-06
2.23849e-05
2.23841e-05
9.96303e-06
2.23911e-05
2.23903e-05
1.90643e-05
1.9065e-05
1.90667e-05
1.90673e-05
9.95759e-06
2.23739e-05
2.23732e-05
2.23677e-05
2.23669e-05
9.95726e-06
4.70057e-06
2.97313e-06
5.64508e-06
9.91395e-06
9.91649e-06
2.97297e-06
4.70088e-06
4.70627e-06
2.97429e-06
5.64696e-06
9.91881e-06
9.92135e-06
2.97413e-06
4.70658e-06
4.7016e-06
9.91942e-06
5.64618e-06
2.97339e-06
9.91692e-06
4.70127e-06
2.97355e-06
4.70729e-06
9.92428e-06
5.64807e-06
2.97454e-06
9.92178e-06
4.70698e-06
2.97471e-06
9.95545e-06
2.23618e-05
2.23611e-05
2.23681e-05
2.23673e-05
9.95577e-06
1.9076e-05
1.90754e-05
1.90784e-05
1.90778e-05
9.95906e-06
2.23735e-05
2.23727e-05
9.95939e-06
2.23797e-05
2.23789e-05
4.70298e-06
2.97416e-06
5.64837e-06
9.92519e-06
9.92272e-06
2.97433e-06
4.70264e-06
4.70867e-06
2.97531e-06
5.65026e-06
9.9301e-06
9.92759e-06
2.97549e-06
4.70834e-06
4.70196e-06
9.91986e-06
2.97395e-06
5.64728e-06
4.7023e-06
9.92233e-06
2.97378e-06
4.70767e-06
9.92472e-06
2.97511e-06
5.64916e-06
4.70799e-06
9.92718e-06
2.97494e-06
9.96117e-06
2.23855e-05
2.23847e-05
2.23793e-05
2.23785e-05
9.96083e-06
1.26399e-05
1.12332e-05
4.88192e-06
4.23649e-06
1.12303e-05
4.88197e-06
1.26435e-05
2.2738e-05
9.55234e-06
7.23932e-06
7.23913e-06
2.27311e-05
2.27375e-05
7.24041e-06
9.55339e-06
7.2406e-06
2.27445e-05
1.26396e-05
4.23574e-06
1.12268e-05
4.88122e-06
1.12297e-05
4.88118e-06
1.26363e-05
1.26467e-05
1.1234e-05
4.88246e-06
4.23695e-06
1.26441e-05
1.12363e-05
4.88232e-06
2.27501e-05
9.55784e-06
7.24121e-06
2.27572e-05
7.24159e-06
2.27508e-05
7.24033e-06
9.55714e-06
2.27437e-05
7.23996e-06
1.2648e-05
4.23769e-06
1.12397e-05
4.88303e-06
1.26505e-05
1.12375e-05
4.88317e-06
1.26473e-05
1.12338e-05
4.88269e-06
4.23707e-06
1.26437e-05
1.12368e-05
4.88264e-06
2.27503e-05
9.55915e-06
7.24293e-06
7.24314e-06
2.27572e-05
2.27508e-05
7.24188e-06
9.55822e-06
2.27439e-05
7.24167e-06
1.26476e-05
4.23779e-06
1.12403e-05
4.88335e-06
1.12373e-05
4.88341e-06
1.26511e-05
9.9572e-06
2.23724e-05
2.23733e-05
2.23662e-05
2.2367e-05
9.95688e-06
4.7061e-06
2.97419e-06
5.64682e-06
9.91867e-06
9.92057e-06
2.97401e-06
4.70644e-06
4.70039e-06
2.97308e-06
5.64506e-06
9.91415e-06
2.9729e-06
9.91604e-06
4.70071e-06
4.70715e-06
9.9235e-06
5.64799e-06
2.97443e-06
9.92161e-06
2.97461e-06
4.7068e-06
4.70143e-06
9.91897e-06
5.64635e-06
2.97332e-06
2.9735e-06
9.91709e-06
4.70109e-06
9.95507e-06
2.23603e-05
2.23612e-05
2.23666e-05
2.23675e-05
9.95539e-06
1.90636e-05
1.90643e-05
1.90776e-05
1.90769e-05
9.95868e-06
2.2372e-05
2.23729e-05
9.95901e-06
2.23782e-05
2.23791e-05
4.70854e-06
2.9752e-06
5.65018e-06
9.92932e-06
2.9754e-06
9.92749e-06
4.70817e-06
4.70282e-06
2.97409e-06
5.64854e-06
9.92479e-06
9.92296e-06
2.97428e-06
4.70246e-06
4.7075e-06
9.92459e-06
2.97502e-06
5.64904e-06
2.97483e-06
4.70785e-06
9.92648e-06
4.70179e-06
9.92006e-06
2.9739e-06
5.64727e-06
4.70213e-06
9.92195e-06
2.97371e-06
9.9608e-06
2.2384e-05
2.23848e-05
2.23778e-05
2.23786e-05
9.96046e-06
1.90753e-05
1.90747e-05
1.26408e-05
1.12336e-05
4.88173e-06
4.23639e-06
1.12307e-05
4.88186e-06
1.26433e-05
2.27382e-05
9.55275e-06
7.238e-06
7.23765e-06
2.27311e-05
2.27375e-05
7.23893e-06
9.55346e-06
7.23929e-06
2.27447e-05
1.26395e-05
4.23571e-06
1.12272e-05
4.88111e-06
1.12301e-05
4.88099e-06
1.26369e-05
1.26471e-05
4.8827e-06
1.12344e-05
4.23711e-06
1.26445e-05
4.88263e-06
1.12373e-05
2.27502e-05
9.55986e-06
7.24285e-06
2.2757e-05
7.24305e-06
2.27507e-05
7.24179e-06
9.55914e-06
2.27438e-05
7.2416e-06
1.26484e-05
4.23779e-06
4.88336e-06
1.12408e-05
1.26509e-05
4.88341e-06
1.12379e-05
1.26471e-05
1.12342e-05
4.88259e-06
4.23704e-06
1.26446e-05
1.12372e-05
4.88246e-06
2.27503e-05
9.55926e-06
7.24145e-06
7.24182e-06
2.27574e-05
2.27511e-05
7.24056e-06
9.55856e-06
2.2744e-05
7.2402e-06
1.26485e-05
4.2377e-06
1.12406e-05
4.88317e-06
1.12377e-05
4.88331e-06
1.2651e-05
1.26398e-05
4.88179e-06
1.12336e-05
4.23655e-06
4.88186e-06
1.12306e-05
1.26435e-05
2.27372e-05
9.55235e-06
7.23885e-06
7.23867e-06
2.27302e-05
2.27367e-05
7.23995e-06
9.55341e-06
7.24014e-06
2.27436e-05
1.26396e-05
4.23579e-06
4.88111e-06
1.12272e-05
4.88105e-06
1.12301e-05
1.26359e-05
1.26401e-05
1.12334e-05
4.88158e-06
4.23645e-06
1.12305e-05
4.88165e-06
1.26438e-05
2.27377e-05
9.55242e-06
7.23739e-06
7.23721e-06
2.27308e-05
2.27372e-05
7.23848e-06
9.55311e-06
7.23868e-06
2.27441e-05
1.26399e-05
4.23569e-06
1.1227e-05
4.88091e-06
1.12299e-05
4.88084e-06
1.26362e-05
1.26473e-05
4.88259e-06
1.12342e-05
4.23711e-06
1.26437e-05
4.88251e-06
1.12371e-05
2.27495e-05
9.55921e-06
7.24246e-06
7.24266e-06
2.27564e-05
2.275e-05
7.2414e-06
9.55821e-06
2.27431e-05
7.24121e-06
1.26475e-05
4.23785e-06
4.88322e-06
1.12406e-05
4.8833e-06
1.12377e-05
1.26511e-05
1.26476e-05
1.1234e-05
4.88238e-06
4.23701e-06
1.2644e-05
1.1237e-05
4.8823e-06
2.275e-05
9.5589e-06
7.24099e-06
7.2412e-06
2.27569e-05
2.27505e-05
7.23995e-06
9.55822e-06
2.27436e-05
7.23974e-06
1.26478e-05
4.23775e-06
1.12404e-05
4.88301e-06
1.12375e-05
4.88309e-06
1.26513e-05
9.95815e-06
2.23737e-05
2.23741e-05
2.23674e-05
2.23679e-05
9.95781e-06
4.70645e-06
2.97429e-06
5.64687e-06
9.91843e-06
9.92099e-06
2.9741e-06
4.7068e-06
4.70076e-06
2.97323e-06
5.64522e-06
9.91397e-06
2.97307e-06
9.91653e-06
4.7011e-06
4.70752e-06
9.92394e-06
5.64813e-06
2.97451e-06
9.9214e-06
2.97471e-06
4.70716e-06
4.70182e-06
9.91946e-06
5.64633e-06
2.97349e-06
2.97365e-06
9.91694e-06
4.70147e-06
9.956e-06
2.23616e-05
2.2362e-05
2.23679e-05
2.23683e-05
9.95633e-06
1.90656e-05
1.90662e-05
1.90786e-05
1.9078e-05
9.95961e-06
2.23732e-05
2.23737e-05
9.95995e-06
2.23795e-05
2.23799e-05
4.7089e-06
2.97529e-06
5.65031e-06
9.92977e-06
2.97549e-06
9.92722e-06
4.70853e-06
4.7032e-06
2.97426e-06
5.64852e-06
9.92528e-06
9.92275e-06
2.97444e-06
4.70283e-06
4.70785e-06
9.92436e-06
2.97511e-06
5.64908e-06
2.97491e-06
4.70822e-06
9.92684e-06
4.70216e-06
9.91989e-06
2.97405e-06
5.64742e-06
4.70252e-06
9.92236e-06
2.97388e-06
9.96173e-06
2.23852e-05
2.23857e-05
2.2379e-05
2.23795e-05
9.96138e-06
1.90773e-05
1.90767e-05
1.264e-05
4.88166e-06
1.12331e-05
4.2365e-06
4.88176e-06
1.12309e-05
1.26437e-05
2.27381e-05
9.55274e-06
7.23759e-06
7.23742e-06
2.27312e-05
2.27376e-05
7.2387e-06
9.55343e-06
7.23888e-06
2.27446e-05
1.26398e-05
4.23571e-06
4.88102e-06
1.12274e-05
4.8809e-06
1.12296e-05
1.26361e-05
1.26395e-05
4.88185e-06
1.12332e-05
4.23648e-06
4.88199e-06
1.1231e-05
1.26433e-05
2.27373e-05
9.55344e-06
7.23934e-06
7.23896e-06
2.27301e-05
2.27365e-05
7.24024e-06
9.55414e-06
7.24063e-06
2.27437e-05
1.26394e-05
4.23577e-06
4.88124e-06
1.12275e-05
4.88111e-06
1.12297e-05
1.26356e-05
1.26475e-05
4.88249e-06
1.12344e-05
4.23703e-06
1.26438e-05
4.88237e-06
1.12367e-05
2.27504e-05
9.55923e-06
7.24121e-06
7.24141e-06
2.27573e-05
2.2751e-05
7.24015e-06
9.55855e-06
2.27441e-05
7.23996e-06
1.26476e-05
4.2378e-06
4.88309e-06
1.12401e-05
4.8832e-06
1.12379e-05
1.26513e-05
1.26471e-05
4.88272e-06
1.12345e-05
4.23709e-06
1.26434e-05
4.88258e-06
1.12368e-05
2.27493e-05
9.55994e-06
7.24276e-06
7.24316e-06
2.27565e-05
2.27501e-05
7.2419e-06
9.55924e-06
2.2743e-05
7.24151e-06
1.26472e-05
4.23778e-06
4.88329e-06
1.12402e-05
4.88343e-06
1.1238e-05
1.26509e-05
1.90654e-05
1.9066e-05
1.90672e-05
1.90679e-05
9.95914e-06
2.23734e-05
2.23726e-05
9.95948e-06
2.23796e-05
2.23788e-05
4.703e-06
2.97416e-06
5.64846e-06
9.92511e-06
4.70264e-06
2.97434e-06
9.92263e-06
4.70873e-06
2.97537e-06
5.65041e-06
9.92988e-06
4.70838e-06
2.97554e-06
9.92743e-06
4.70197e-06
9.91977e-06
2.97396e-06
5.64735e-06
4.70232e-06
2.97378e-06
9.9222e-06
4.70771e-06
9.92457e-06
2.97516e-06
5.64931e-06
4.70805e-06
2.97499e-06
9.927e-06
9.96126e-06
2.23854e-05
2.23845e-05
9.96091e-06
2.23792e-05
2.23784e-05
1.90771e-05
1.90765e-05
1.9079e-05
1.90783e-05
2.27632e-05
7.24245e-06
9.56397e-06
2.27563e-05
7.24223e-06
1.26552e-05
4.23827e-06
1.1241e-05
4.88379e-06
1.26517e-05
1.12438e-05
4.8837e-06
9.56477e-06
1.90874e-05
1.90893e-05
4.41729e-07
4.41689e-07
6.53421e-07
4.43618e-07
4.43581e-07
2.35587e-07
2.33657e-07
2.82691e-06
1.96718e-06
1.96743e-06
1.41375e-06
1.96651e-06
1.96674e-06
2.82722e-06
2.82821e-06
1.96869e-06
1.96894e-06
1.41665e-06
2.82854e-06
1.968e-06
1.96822e-06
2.82691e-06
1.96717e-06
1.9674e-06
1.4137e-06
1.96648e-06
1.96671e-06
2.82722e-06
2.82824e-06
1.41737e-06
1.96763e-06
1.96786e-06
1.96833e-06
1.96856e-06
2.82791e-06
2.82681e-06
1.96729e-06
1.96718e-06
1.41365e-06
1.96649e-06
1.9666e-06
2.82713e-06
2.82815e-06
1.41733e-06
1.96774e-06
1.96763e-06
1.96846e-06
1.96834e-06
2.82782e-06
2.82695e-06
1.96733e-06
1.96724e-06
1.41368e-06
1.96655e-06
1.96662e-06
2.82726e-06
2.82828e-06
1.41741e-06
1.96777e-06
1.9677e-06
1.96849e-06
1.96841e-06
2.82796e-06
2.82824e-06
1.41742e-06
1.96765e-06
1.96788e-06
2.82791e-06
1.96834e-06
1.96859e-06
4.41738e-07
4.41693e-07
6.53432e-07
4.43626e-07
4.43582e-07
2.35586e-07
2.33656e-07
4.41815e-07
4.41771e-07
6.53512e-07
4.43703e-07
4.43658e-07
2.35651e-07
2.33721e-07
4.41814e-07
4.41768e-07
6.53517e-07
4.43705e-07
4.43655e-07
2.35649e-07
2.33718e-07
6.54988e-07
4.47305e-07
4.47269e-07
4.45488e-07
4.45448e-07
2.37515e-07
2.39418e-07
6.54998e-07
4.47314e-07
4.47269e-07
4.45496e-07
4.45451e-07
2.37514e-07
2.39417e-07
6.55079e-07
4.4739e-07
4.47345e-07
4.45573e-07
4.45528e-07
2.37579e-07
2.39482e-07
6.55082e-07
4.47393e-07
4.47343e-07
4.45571e-07
4.45526e-07
2.37576e-07
2.3948e-07
1.66452e-06
2.53954e-06
1.5415e-06
2.29418e-06
2.53977e-06
1.54247e-06
1.66282e-06
1.84145e-06
2.22237e-06
3.64424e-06
3.02096e-06
2.22188e-06
3.02056e-06
1.84275e-06
1.8433e-06
3.02104e-06
3.64512e-06
2.22224e-06
2.22274e-06
3.02143e-06
1.8419e-06
1.66243e-06
2.29359e-06
2.53937e-06
1.54188e-06
2.53915e-06
1.54092e-06
1.66395e-06
1.66429e-06
1.54155e-06
2.5394e-06
2.29415e-06
1.5424e-06
2.5396e-06
1.66303e-06
1.84148e-06
2.22242e-06
3.64431e-06
3.02058e-06
2.22194e-06
3.02025e-06
1.84258e-06
1.84309e-06
3.02073e-06
3.64514e-06
2.2223e-06
2.22278e-06
3.02105e-06
1.84203e-06
1.66247e-06
2.29354e-06
1.54181e-06
2.5392e-06
1.54097e-06
2.53898e-06
1.66379e-06
2.82758e-06
1.41596e-06
1.96691e-06
1.96714e-06
1.96759e-06
1.96784e-06
2.82726e-06
2.82758e-06
1.41592e-06
1.96689e-06
1.96712e-06
2.82726e-06
1.96758e-06
1.96781e-06
2.8276e-06
1.41519e-06
1.96797e-06
1.9682e-06
2.82792e-06
1.96727e-06
1.9675e-06
1.66419e-06
2.53935e-06
1.54149e-06
2.29405e-06
2.53954e-06
1.54234e-06
1.66304e-06
1.84142e-06
2.22233e-06
3.64409e-06
3.02052e-06
3.02019e-06
2.22187e-06
1.84249e-06
1.84301e-06
3.02067e-06
3.64491e-06
2.22222e-06
3.021e-06
2.2227e-06
1.84196e-06
1.66251e-06
2.29351e-06
2.53914e-06
1.54176e-06
2.53895e-06
1.54092e-06
1.66368e-06
1.66439e-06
2.53961e-06
1.54153e-06
2.29412e-06
2.53981e-06
1.54239e-06
1.66312e-06
1.84164e-06
2.22268e-06
3.6446e-06
3.02113e-06
3.02077e-06
2.2222e-06
1.84274e-06
1.84325e-06
3.02124e-06
3.64544e-06
2.22255e-06
3.0216e-06
1.84218e-06
2.22305e-06
1.66256e-06
2.29358e-06
2.53941e-06
1.54181e-06
2.53921e-06
1.54095e-06
1.66389e-06
1.66349e-06
2.53992e-06
1.54288e-06
2.29434e-06
1.66466e-06
2.53971e-06
1.54203e-06
1.84396e-06
2.22287e-06
3.64618e-06
3.02156e-06
2.22336e-06
3.0219e-06
1.843e-06
1.84249e-06
3.02146e-06
2.22304e-06
3.64539e-06
2.22256e-06
1.84349e-06
3.02112e-06
1.66509e-06
2.29485e-06
2.54008e-06
1.54255e-06
2.54028e-06
1.54341e-06
1.66395e-06
1.66365e-06
2.54019e-06
1.54294e-06
2.29441e-06
1.66485e-06
2.53998e-06
1.54208e-06
1.84421e-06
2.2232e-06
3.64671e-06
3.02214e-06
3.0225e-06
2.22372e-06
1.84323e-06
1.84271e-06
3.02206e-06
2.22339e-06
3.6459e-06
1.84374e-06
3.0217e-06
2.22289e-06
1.66528e-06
2.29492e-06
2.54034e-06
1.5426e-06
2.54056e-06
1.54346e-06
1.66411e-06
2.82749e-06
1.41587e-06
1.967e-06
1.9669e-06
1.96759e-06
1.9677e-06
2.82716e-06
2.8275e-06
1.41515e-06
1.96809e-06
1.96798e-06
1.96738e-06
2.82783e-06
1.96728e-06
1.66441e-06
2.53963e-06
1.5416e-06
2.2942e-06
2.53982e-06
1.54244e-06
1.66315e-06
1.84164e-06
2.22275e-06
3.6448e-06
3.02114e-06
3.02078e-06
2.22227e-06
1.84274e-06
1.84325e-06
3.02125e-06
3.64568e-06
2.22263e-06
3.02161e-06
2.22312e-06
1.84219e-06
1.66258e-06
2.29365e-06
2.53942e-06
1.54186e-06
2.53921e-06
1.54101e-06
1.66391e-06
1.66427e-06
1.54154e-06
2.53941e-06
2.29411e-06
1.54239e-06
2.53961e-06
1.66301e-06
1.84146e-06
2.22263e-06
3.64463e-06
3.02064e-06
3.0203e-06
2.22215e-06
1.84257e-06
1.84308e-06
3.02078e-06
3.64552e-06
2.2225e-06
3.02112e-06
1.84201e-06
2.223e-06
1.66245e-06
2.29358e-06
1.54181e-06
2.53921e-06
1.54096e-06
2.53902e-06
1.66377e-06
1.66367e-06
2.5402e-06
1.54299e-06
2.29447e-06
1.66487e-06
2.53997e-06
1.54214e-06
1.84421e-06
2.22327e-06
3.64694e-06
3.02215e-06
2.22378e-06
3.02252e-06
1.84323e-06
1.84272e-06
3.02207e-06
2.22346e-06
3.64609e-06
2.22296e-06
1.84374e-06
3.0217e-06
1.6653e-06
2.29499e-06
2.54036e-06
1.54267e-06
2.54056e-06
1.54351e-06
1.66413e-06
1.66355e-06
1.54294e-06
2.53999e-06
2.29441e-06
1.66474e-06
1.54209e-06
2.53979e-06
1.84404e-06
2.22315e-06
3.64679e-06
3.02167e-06
3.02203e-06
2.22367e-06
1.84303e-06
1.84254e-06
3.02158e-06
2.22334e-06
3.64593e-06
1.84357e-06
3.02123e-06
2.22284e-06
1.66518e-06
2.29491e-06
1.54261e-06
2.54015e-06
1.54346e-06
2.54036e-06
1.66397e-06
1.66437e-06
1.54147e-06
2.53937e-06
2.29411e-06
1.54242e-06
2.53959e-06
1.66276e-06
1.84136e-06
2.22235e-06
3.64418e-06
3.02057e-06
2.22188e-06
3.02019e-06
1.8426e-06
1.84313e-06
3.02066e-06
3.64501e-06
2.22223e-06
2.22271e-06
3.02104e-06
1.84183e-06
1.66235e-06
2.29352e-06
1.54183e-06
2.53919e-06
1.54089e-06
2.53898e-06
1.66382e-06
1.66317e-06
2.54015e-06
1.54303e-06
2.29442e-06
1.66514e-06
2.53991e-06
1.54204e-06
1.84454e-06
2.22289e-06
3.64639e-06
3.02192e-06
1.84269e-06
2.2234e-06
3.02234e-06
1.84229e-06
3.02189e-06
2.22308e-06
3.64554e-06
1.84389e-06
2.22257e-06
3.02149e-06
1.66583e-06
2.29497e-06
2.54027e-06
1.54256e-06
1.66361e-06
2.54051e-06
1.54355e-06
1.66312e-06
1.54298e-06
2.53997e-06
2.29435e-06
1.66496e-06
1.54201e-06
2.53974e-06
1.84427e-06
2.22287e-06
3.64628e-06
3.02154e-06
3.02194e-06
2.22337e-06
1.84262e-06
1.84224e-06
3.0215e-06
2.22305e-06
3.64547e-06
1.84368e-06
3.02111e-06
2.22256e-06
1.66561e-06
2.2949e-06
1.54252e-06
2.5401e-06
1.5435e-06
2.54033e-06
1.66355e-06
2.82762e-06
1.41595e-06
1.96703e-06
1.96696e-06
1.96765e-06
1.96774e-06
2.82731e-06
2.82764e-06
1.41518e-06
1.96813e-06
1.96805e-06
1.96741e-06
2.82796e-06
1.96734e-06
1.66439e-06
1.54158e-06
2.53959e-06
2.29419e-06
1.54243e-06
2.5398e-06
1.66311e-06
1.84164e-06
2.22278e-06
3.64482e-06
3.02111e-06
2.2223e-06
3.02074e-06
1.84275e-06
1.84326e-06
3.02121e-06
3.64566e-06
2.22266e-06
2.22314e-06
3.02159e-06
1.84218e-06
1.66256e-06
2.2936e-06
1.54185e-06
2.53939e-06
1.541e-06
2.53919e-06
1.66389e-06
1.66356e-06
1.54295e-06
2.53998e-06
2.29437e-06
1.66475e-06
1.54209e-06
2.53975e-06
1.84404e-06
2.22295e-06
3.6464e-06
3.02162e-06
1.84303e-06
2.22345e-06
3.02196e-06
1.84256e-06
3.02151e-06
2.22313e-06
3.64561e-06
1.84357e-06
2.22263e-06
3.02117e-06
1.66519e-06
2.29495e-06
1.54262e-06
2.54013e-06
1.66399e-06
1.54347e-06
2.54034e-06
1.66364e-06
1.54298e-06
2.54018e-06
2.29444e-06
1.66486e-06
1.54212e-06
2.53996e-06
1.84421e-06
2.2233e-06
3.64693e-06
3.02211e-06
3.02249e-06
2.22381e-06
1.84323e-06
1.84271e-06
3.02205e-06
2.22349e-06
3.64611e-06
1.84375e-06
3.02167e-06
2.22299e-06
1.66529e-06
2.29499e-06
1.54265e-06
2.54032e-06
1.5435e-06
2.54054e-06
1.66412e-06
2.8276e-06
1.41525e-06
1.96798e-06
1.96823e-06
2.82792e-06
1.96729e-06
1.96752e-06
1.84303e-06
2.22368e-06
3.02236e-06
3.64669e-06
2.22316e-06
1.84485e-06
3.02195e-06
1.6639e-06
2.29508e-06
1.544e-06
2.54067e-06
1.54298e-06
1.66609e-06
2.54042e-06
2.22411e-06
3.64733e-06
2.22359e-06
3.23654e-07
8.68841e-07
8.68953e-07
1.15452e-06
3.3969e-07
8.92278e-07
8.92386e-07
1.17373e-06
3.5597e-07
9.14721e-07
9.14824e-07
1.19213e-06
3.72414e-07
9.36158e-07
9.36258e-07
1.20964e-06
3.8894e-07
9.5658e-07
9.56683e-07
1.22629e-06
4.0547e-07
9.76007e-07
9.76108e-07
1.2421e-06
4.21923e-07
9.94443e-07
9.94541e-07
1.25707e-06
4.38224e-07
1.0119e-06
1.01199e-06
1.27123e-06
4.543e-07
1.02838e-06
1.02847e-06
1.28464e-06
4.70084e-07
1.04391e-06
1.044e-06
1.2973e-06
4.85518e-07
1.05852e-06
1.0586e-06
1.3092e-06
5.00549e-07
1.07222e-06
1.07229e-06
1.32044e-06
5.1513e-07
1.08503e-06
1.0851e-06
1.33099e-06
5.2922e-07
1.09699e-06
1.09706e-06
1.3409e-06
5.42782e-07
1.10812e-06
1.10818e-06
1.35017e-06
5.55787e-07
1.11845e-06
1.11851e-06
1.35884e-06
5.68207e-07
1.128e-06
1.12806e-06
1.36689e-06
5.80022e-07
1.1368e-06
1.13685e-06
1.37437e-06
5.91219e-07
1.14487e-06
1.14492e-06
1.3813e-06
6.01788e-07
1.15223e-06
1.15228e-06
1.38767e-06
6.11721e-07
1.15891e-06
1.15896e-06
1.39351e-06
6.21014e-07
1.16493e-06
1.16498e-06
1.39883e-06
6.29668e-07
1.17031e-06
1.17036e-06
1.40364e-06
6.37685e-07
1.17508e-06
1.17513e-06
1.40797e-06
6.45072e-07
1.17925e-06
1.1793e-06
1.41181e-06
1.15405e-06
1.16814e-06
8.68996e-07
8.69017e-07
8.86638e-07
8.86677e-07
1.1542e-06
1.168e-06
8.6887e-07
8.69073e-07
8.86553e-07
8.86738e-07
8.69066e-07
8.8651e-07
8.86738e-07
1.15454e-06
1.16793e-06
8.68937e-07
8.8662e-07
8.8661e-07
1.1679e-06
1.17344e-06
1.18659e-06
8.92408e-07
8.92442e-07
9.0933e-07
9.09369e-07
1.17333e-06
1.18662e-06
8.92323e-07
8.92499e-07
9.09239e-07
9.0942e-07
8.92502e-07
9.09202e-07
9.09427e-07
1.1737e-06
1.18652e-06
8.92375e-07
9.09307e-07
9.09305e-07
1.18654e-06
1.19189e-06
1.2043e-06
9.14847e-07
9.14884e-07
9.31017e-07
9.31056e-07
1.19173e-06
1.20433e-06
9.14758e-07
9.14933e-07
9.30922e-07
9.31104e-07
9.14942e-07
9.30891e-07
9.31112e-07
1.19207e-06
1.20424e-06
9.1482e-07
9.30994e-07
9.30995e-07
1.20423e-06
1.20944e-06
1.22113e-06
9.36281e-07
9.36318e-07
9.51693e-07
9.51728e-07
1.20925e-06
1.22116e-06
9.36189e-07
9.36364e-07
9.51594e-07
9.51775e-07
9.36375e-07
9.51568e-07
9.51785e-07
1.20958e-06
1.22106e-06
9.36258e-07
9.51672e-07
9.51672e-07
1.22108e-06
1.22609e-06
1.23715e-06
9.56704e-07
9.56737e-07
9.71366e-07
9.71395e-07
1.2259e-06
1.23714e-06
9.56609e-07
9.56782e-07
9.71264e-07
9.71441e-07
9.56796e-07
9.71241e-07
9.71453e-07
1.22621e-06
1.23705e-06
9.56683e-07
9.71345e-07
9.71345e-07
1.23707e-06
1.24188e-06
1.25237e-06
9.7613e-07
9.76158e-07
9.90048e-07
9.90073e-07
1.24171e-06
1.2523e-06
9.76033e-07
9.76202e-07
9.89946e-07
9.90116e-07
9.76218e-07
9.89925e-07
9.90131e-07
1.24202e-06
1.25221e-06
9.76111e-07
9.90026e-07
9.90028e-07
1.25224e-06
1.2568e-06
1.26673e-06
9.94564e-07
9.94588e-07
1.00774e-06
1.00776e-06
1.2567e-06
1.26665e-06
9.94467e-07
9.94629e-07
1.00764e-06
1.00781e-06
9.94648e-07
1.00762e-06
1.00782e-06
1.25699e-06
1.26657e-06
9.94546e-07
1.00772e-06
1.00772e-06
1.26658e-06
1.27098e-06
1.28031e-06
1.01201e-06
1.01203e-06
1.02446e-06
1.02448e-06
1.27089e-06
1.28021e-06
1.01192e-06
1.01207e-06
1.02436e-06
1.02452e-06
1.01209e-06
1.02435e-06
1.02453e-06
1.27118e-06
1.28015e-06
1.01199e-06
1.02444e-06
1.02444e-06
1.28016e-06
1.28442e-06
1.29312e-06
1.02849e-06
1.02851e-06
1.04022e-06
1.04024e-06
1.28433e-06
1.29303e-06
1.0284e-06
1.02855e-06
1.04012e-06
1.04028e-06
1.02857e-06
1.04012e-06
1.04029e-06
1.28458e-06
1.293e-06
1.02847e-06
1.04021e-06
1.0402e-06
1.29298e-06
1.29708e-06
1.30518e-06
1.04401e-06
1.04404e-06
1.05505e-06
1.05507e-06
1.29701e-06
1.30504e-06
1.04392e-06
1.04408e-06
1.05495e-06
1.05511e-06
1.04409e-06
1.05495e-06
1.05512e-06
1.29726e-06
1.30512e-06
1.04399e-06
1.05504e-06
1.05502e-06
1.3051e-06
1.30904e-06
1.31655e-06
1.05861e-06
1.05863e-06
1.06896e-06
1.06899e-06
1.30899e-06
1.31642e-06
1.05852e-06
1.05867e-06
1.06887e-06
1.06902e-06
1.05869e-06
1.06887e-06
1.06904e-06
1.30916e-06
1.31657e-06
1.05859e-06
1.06895e-06
1.06894e-06
1.31653e-06
1.32031e-06
1.32726e-06
1.0723e-06
1.07232e-06
1.08199e-06
1.08202e-06
1.32028e-06
1.32714e-06
1.07221e-06
1.07236e-06
1.0819e-06
1.08205e-06
1.07238e-06
1.08191e-06
1.08207e-06
1.32035e-06
1.32728e-06
1.07228e-06
1.08198e-06
1.08196e-06
1.32725e-06
1.33089e-06
1.3373e-06
1.08511e-06
1.08514e-06
1.09415e-06
1.09418e-06
1.33086e-06
1.33719e-06
1.08503e-06
1.08517e-06
1.09407e-06
1.09421e-06
1.08519e-06
1.09408e-06
1.09423e-06
1.33092e-06
1.33732e-06
1.08509e-06
1.09415e-06
1.09413e-06
1.33731e-06
1.34082e-06
1.34671e-06
1.09706e-06
1.09709e-06
1.10548e-06
1.10551e-06
1.34078e-06
1.3466e-06
1.09698e-06
1.09712e-06
1.1054e-06
1.10554e-06
1.09715e-06
1.10541e-06
1.10557e-06
1.34082e-06
1.34672e-06
1.09704e-06
1.10548e-06
1.10546e-06
1.34672e-06
1.35009e-06
1.3555e-06
1.10819e-06
1.10822e-06
1.116e-06
1.11603e-06
1.35006e-06
1.3554e-06
1.10811e-06
1.10824e-06
1.11592e-06
1.11606e-06
1.10827e-06
1.11594e-06
1.11609e-06
1.3501e-06
1.35551e-06
1.10817e-06
1.116e-06
1.11598e-06
1.35551e-06
1.35876e-06
1.36368e-06
1.11851e-06
1.11854e-06
1.12575e-06
1.12578e-06
1.35873e-06
1.3636e-06
1.11843e-06
1.11857e-06
1.12566e-06
1.1258e-06
1.1186e-06
1.12568e-06
1.12583e-06
1.35878e-06
1.3637e-06
1.11849e-06
1.12574e-06
1.12572e-06
1.36371e-06
1.36683e-06
1.37128e-06
1.12806e-06
1.12809e-06
1.13473e-06
1.13476e-06
1.36681e-06
1.37122e-06
1.12798e-06
1.12811e-06
1.13464e-06
1.13478e-06
1.12815e-06
1.13467e-06
1.13481e-06
1.36685e-06
1.3713e-06
1.12804e-06
1.13472e-06
1.1347e-06
1.37133e-06
1.37432e-06
1.37831e-06
1.13686e-06
1.13689e-06
1.14297e-06
1.14301e-06
1.37429e-06
1.37827e-06
1.13678e-06
1.13691e-06
1.14289e-06
1.14302e-06
1.13694e-06
1.14292e-06
1.14306e-06
1.37434e-06
1.37834e-06
1.13683e-06
1.14297e-06
1.14295e-06
1.37837e-06
1.38125e-06
1.38479e-06
1.14492e-06
1.14496e-06
1.15051e-06
1.15055e-06
1.38121e-06
1.38475e-06
1.14484e-06
1.14497e-06
1.15042e-06
1.15056e-06
1.14501e-06
1.15045e-06
1.15059e-06
1.38127e-06
1.38482e-06
1.1449e-06
1.15051e-06
1.15048e-06
1.38485e-06
1.38763e-06
1.39073e-06
1.15229e-06
1.15232e-06
1.15736e-06
1.15739e-06
1.38758e-06
1.39069e-06
1.1522e-06
1.15233e-06
1.15727e-06
1.1574e-06
1.15237e-06
1.1573e-06
1.15744e-06
1.38764e-06
1.39075e-06
1.15226e-06
1.15735e-06
1.15733e-06
1.39079e-06
1.39347e-06
1.39614e-06
1.15897e-06
1.159e-06
1.16354e-06
1.16358e-06
1.39342e-06
1.39611e-06
1.15888e-06
1.15901e-06
1.16345e-06
1.16358e-06
1.15905e-06
1.16348e-06
1.16362e-06
1.39348e-06
1.39617e-06
1.15894e-06
1.16353e-06
1.16351e-06
1.39622e-06
1.3988e-06
1.40105e-06
1.16499e-06
1.16502e-06
1.16908e-06
1.16911e-06
1.39874e-06
1.40103e-06
1.1649e-06
1.16503e-06
1.16899e-06
1.16912e-06
1.16507e-06
1.16902e-06
1.16916e-06
1.39879e-06
1.40109e-06
1.16496e-06
1.16907e-06
1.16905e-06
1.40113e-06
1.40362e-06
1.40546e-06
1.17037e-06
1.1704e-06
1.174e-06
1.17403e-06
1.40355e-06
1.40545e-06
1.17029e-06
1.17041e-06
1.17391e-06
1.17403e-06
1.17045e-06
1.17394e-06
1.17408e-06
1.40361e-06
1.40551e-06
1.17035e-06
1.17398e-06
1.17397e-06
1.40555e-06
1.40795e-06
1.40941e-06
1.17514e-06
1.17517e-06
1.17832e-06
1.17835e-06
1.40787e-06
1.40939e-06
1.17506e-06
1.17518e-06
1.17823e-06
1.17835e-06
1.17522e-06
1.17826e-06
1.17839e-06
1.40793e-06
1.40945e-06
1.17512e-06
1.1783e-06
1.17829e-06
1.40949e-06
1.4118e-06
1.4129e-06
1.17932e-06
1.17935e-06
1.18206e-06
1.18209e-06
1.41172e-06
1.41285e-06
1.17923e-06
1.17935e-06
1.18197e-06
1.18209e-06
1.17939e-06
1.18199e-06
1.18213e-06
1.41178e-06
1.41288e-06
1.17929e-06
1.18204e-06
1.18203e-06
1.41295e-06
4.09748e-06
9.16229e-06
9.16929e-06
4.0957e-06
1.84292e-05
1.84398e-05
4.09778e-06
9.16397e-06
9.17114e-06
4.09574e-06
3.23638e-07
3.23727e-07
3.23728e-07
3.35655e-07
3.3564e-07
3.35729e-07
3.35733e-07
2.11422e-06
3.47718e-06
5.64084e-07
8.74792e-07
3.4806e-06
5.69952e-07
2.10966e-06
1.84301e-05
1.84406e-05
2.11425e-06
5.64199e-07
3.47744e-06
8.74903e-07
5.70067e-07
3.48029e-06
2.10974e-06
5.46406e-06
5.46598e-06
1.15817e-06
5.46682e-06
5.46861e-06
4.10509e-06
9.17834e-06
4.10309e-06
9.18545e-06
1.84515e-05
1.84624e-05
4.10539e-06
9.18038e-06
4.10314e-06
9.18754e-06
3.39675e-07
3.39764e-07
3.39769e-07
3.51881e-07
3.51867e-07
3.51956e-07
3.51963e-07
2.12806e-06
3.48829e-06
5.87428e-07
8.97982e-07
2.12376e-06
3.49136e-06
5.93224e-07
1.84523e-05
1.84633e-05
2.12807e-06
5.87539e-07
3.48845e-06
8.98085e-07
2.1238e-06
5.93332e-07
3.49135e-06
5.47325e-06
5.47531e-06
1.17727e-06
5.47604e-06
5.4778e-06
4.11252e-06
9.19473e-06
4.11071e-06
9.20191e-06
1.84747e-05
1.84859e-05
4.1128e-06
9.19686e-06
4.11081e-06
9.20404e-06
3.55955e-07
3.56045e-07
3.56052e-07
3.68291e-07
3.68278e-07
3.68369e-07
3.68376e-07
2.14117e-06
3.4986e-06
6.10436e-07
9.20174e-07
2.1371e-06
3.50174e-06
6.16132e-07
1.84755e-05
1.84867e-05
2.14118e-06
6.10541e-07
3.499e-06
9.20274e-07
2.13711e-06
6.16235e-07
3.50139e-06
5.48235e-06
5.48439e-06
1.19544e-06
5.48508e-06
5.48687e-06
4.12001e-06
9.21128e-06
4.11808e-06
9.21851e-06
1.84985e-05
1.851e-05