/*--------------------------------*- C++ -*----------------------------------*\
| =========                 |                                                 |
| \\      /  F ield         | OpenFOAM: The Open Source CFD Toolbox           |
|  \\    /   O peration     | Version:  v1906                                 |
|   \\  /    A nd           | Web:      www.OpenFOAM.com                      |
|    \\/     M anipulation  |                                                 |
\*---------------------------------------------------------------------------*/
FoamFile
{
    version     2.0;
    format      ascii;
    class       volScalarField;
    location    "1000";
    object      nut;
}
// * * * * * * * * * * * * * * * * * * * * * * * * * * * * * * * * * * * * * //

dimensions      [0 2 -1 0 0 0 0];


internalField   nonuniform List<scalar> 
42840
(
0.000203426
0.000198751
0.000198741
0.000180673
0.00018164
0.000180665
0.000181465
0.00019872
0.00019872
0.000199777
0.000199777
0.000180687
0.000181477
0.000198734
0.000198707
0.000199791
0.000199764
0.000198726
0.000199809
0.000199784
0.000180608
0.000181537
0.00019874
0.000199798
0.000199798
0.000181475
0.000200128
0.000200142
9.97146e-05
5.07154e-05
5.07219e-05
9.96517e-05
2.38792e-05
2.38836e-05
9.97224e-05
5.07123e-05
5.07187e-05
9.96618e-05
0.000203432
0.00020343
0.000203439
0.000205317
0.000205324
0.000205321
0.00020533
0.000143715
0.000103351
0.000207735
0.000199107
0.000103438
0.000208203
0.0001435
2.38771e-05
2.38814e-05
0.000143701
0.000207731
0.000103354
0.000199097
0.000208198
0.000103438
0.000143503
7.78117e-05
7.78117e-05
0.000180991
7.78378e-05
7.78366e-05
7.78751e-05
7.78747e-05
2.38799e-05
2.38842e-05
2.38786e-05
2.38829e-05
7.78154e-05
7.78108e-05
0.000180989
7.78401e-05
7.78359e-05
2.38888e-05
2.38846e-05
2.38875e-05
2.38832e-05
0.000181147
7.78713e-05
7.78667e-05
7.78478e-05
7.78432e-05
9.97178e-05
5.07133e-05
5.07245e-05
9.96554e-05
0.000143699
0.000103353
0.000207722
0.000199076
0.000103438
0.000208189
0.000143505
0.000143702
0.000103351
0.000207724
0.000199077
0.000103435
0.000208191
0.000143508
9.9714e-05
5.07328e-05
5.07256e-05
9.97742e-05
9.97177e-05
5.07337e-05
5.07238e-05
9.97775e-05
0.000143722
0.00019943
0.000103515
0.000209108
0.000103435
0.000208653
0.000143906
0.000143725
0.000199431
0.000103514
0.00020911
0.000103433
0.000208656
0.000143909
7.781e-05
7.78056e-05
0.000181001
7.78381e-05
7.78356e-05
2.38797e-05
2.38842e-05
2.38882e-05
2.38838e-05
0.000181159
7.78692e-05
7.78662e-05
7.78423e-05
7.7838e-05
2.38888e-05
2.38843e-05
0.000143701
0.000103344
0.000207724
0.00019909
0.00010343
0.000208187
0.000143508
9.97185e-05
5.07083e-05
5.07147e-05
9.96578e-05
0.000143697
0.000207719
0.000103332
0.000199064
0.000208185
0.000103416
0.000143504
9.97239e-05
5.07297e-05
5.07226e-05
9.9782e-05
0.000143725
0.000199445
0.000103508
0.000209106
0.000103426
0.000208656
0.000143908
9.972e-05
5.0725e-05
5.07186e-05
9.97782e-05
0.00014372
0.000199417
0.000209104
0.000103495
0.00020865
0.000103414
0.000143904
9.97213e-05
5.07125e-05
5.07238e-05
9.96528e-05
0.000143712
0.000207732
0.000103351
0.000199083
0.0002082
0.000103435
0.000143497
9.97185e-05
5.07115e-05
5.07179e-05
9.96502e-05
0.000143717
0.000199462
0.000103516
0.000209122
0.000103433
0.000208667
0.000143923
9.97151e-05
5.07334e-05
5.0723e-05
9.97811e-05
0.000143714
0.000199437
0.000209118
0.000103513
0.000208663
0.000103433
0.000143919
9.97125e-05
5.07282e-05
5.07219e-05
9.97783e-05
7.7796e-05
7.78143e-05
0.000181062
7.78216e-05
7.78392e-05
2.3879e-05
2.38833e-05
2.3886e-05
2.38817e-05
0.000181072
7.78525e-05
7.78701e-05
7.78284e-05
7.78468e-05
2.38879e-05
2.38837e-05
0.000143703
0.000207732
0.00010335
0.000199097
0.000208199
0.000103434
0.000143506
9.97144e-05
5.07115e-05
5.0718e-05
9.9651e-05
9.97202e-05
5.07117e-05
5.07182e-05
9.96585e-05
0.00014372
0.000199451
0.000209117
0.000103516
0.000208662
0.000103436
0.000143907
0.000143723
0.000199451
0.000209118
0.000103513
0.000208663
0.000103432
0.00014391
9.97133e-05
5.07282e-05
5.07218e-05
9.97738e-05
9.97209e-05
5.07291e-05
5.0722e-05
9.97798e-05
2.38787e-05
2.3883e-05
2.38783e-05
2.38826e-05
0.000181147
7.78693e-05
7.78677e-05
7.78447e-05
7.78442e-05
2.38876e-05
2.38834e-05
2.38872e-05
2.3883e-05
0.000209572
0.000103511
0.000143922
5.07321e-05
9.97719e-05
0.00010351
5.07297e-05
2.3888e-05
2.38875e-05
3.66931e-05
4.10402e-05
9.43509e-05
9.96834e-05
4.10338e-05
9.43245e-05
3.67002e-05
2.03078e-05
5.07167e-05
7.89835e-05
7.89945e-05
2.03056e-05
2.03076e-05
7.90068e-05
5.07205e-05
7.89958e-05
2.03097e-05
3.66964e-05
9.96839e-05
4.10298e-05
9.42995e-05
4.10358e-05
9.43267e-05
3.66892e-05
2.38813e-05
2.38815e-05
3.6695e-05
9.43638e-05
4.1037e-05
9.96934e-05
9.4339e-05
4.10369e-05
3.67018e-05
2.0309e-05
5.07136e-05
7.90012e-05
7.90195e-05
2.03069e-05
2.03088e-05
7.90314e-05
5.07174e-05
7.90135e-05
2.03109e-05
3.6698e-05
9.96921e-05
9.43143e-05
4.10324e-05
9.43401e-05
4.10329e-05
3.66911e-05
2.38791e-05
2.38794e-05
8.1446e-05
2.17029e-05
2.16999e-05
2.17009e-05
2.16979e-05
8.1452e-05
0.000105057
0.000128364
7.78229e-05
4.8626e-05
0.000128425
4.86329e-05
0.000105037
0.000105064
0.000128347
7.78203e-05
4.86203e-05
0.000128411
4.86203e-05
0.000105046
0.00010507
4.86365e-05
7.78285e-05
0.000128498
0.000128438
4.86328e-05
0.000105089
0.000105078
4.8625e-05
7.78283e-05
0.000128484
0.000128421
4.8625e-05
0.000105097
8.14417e-05
2.1699e-05
2.1696e-05
2.1701e-05
2.1698e-05
8.14357e-05
0.000105185
0.000128651
4.8649e-05
7.78839e-05
0.000105163
0.000128707
4.86478e-05
0.000105193
0.000128634
4.86396e-05
7.78822e-05
0.000105171
0.000128693
4.86385e-05
8.14818e-05
2.17065e-05
2.17035e-05
8.14754e-05
2.17085e-05
2.17055e-05
2.38819e-05
2.38822e-05
2.38805e-05
2.38809e-05
8.14453e-05
2.17029e-05
2.16996e-05
2.17009e-05
2.16976e-05
8.14512e-05
0.00010506
0.000128364
7.78239e-05
4.86303e-05
4.86302e-05
0.000128428
0.000105041
0.000105062
0.000128345
7.78195e-05
4.86189e-05
4.86188e-05
0.000128408
0.000105043
0.000105073
4.8635e-05
7.78318e-05
0.000128501
4.8635e-05
0.000105092
0.000128438
0.000105075
4.86236e-05
7.78272e-05
0.000128481
4.86235e-05
0.000105094
0.000128419
8.14408e-05
2.1699e-05
2.16957e-05
2.1701e-05
2.16977e-05
8.14349e-05
2.38869e-05
2.38865e-05
2.38855e-05
2.38852e-05
8.14614e-05
2.17028e-05
2.16995e-05
8.14553e-05
2.17048e-05
2.17015e-05
0.000105137
0.000128642
7.78634e-05
4.86447e-05
4.86449e-05
0.000128582
0.000105155
0.000105138
0.000128622
7.78587e-05
4.86331e-05
4.86333e-05
0.000128562
0.000105157
0.000105124
4.86399e-05
0.00012851
7.78563e-05
0.000105105
4.86402e-05
0.000128572
0.000105126
4.86285e-05
0.000128491
7.78516e-05
0.000105107
4.86288e-05
0.000128553
8.14652e-05
2.17066e-05
2.17033e-05
2.17046e-05
2.17013e-05
8.14713e-05
3.66991e-05
4.10374e-05
9.43646e-05
9.96871e-05
4.10374e-05
9.43399e-05
3.66984e-05
2.03087e-05
5.07193e-05
7.90033e-05
7.90219e-05
2.03066e-05
2.03085e-05
7.90339e-05
5.07186e-05
7.90156e-05
2.03106e-05
3.66955e-05
9.96871e-05
4.10329e-05
9.4315e-05
4.10333e-05
9.43405e-05
3.66942e-05
3.67039e-05
4.10384e-05
9.43487e-05
9.97452e-05
3.6697e-05
4.10445e-05
9.43751e-05
2.03114e-05
5.07307e-05
7.90301e-05
2.03135e-05
7.90192e-05
2.03116e-05
7.90077e-05
5.07275e-05
2.03095e-05
7.90184e-05
3.67006e-05
9.97441e-05
4.10486e-05
9.43982e-05
3.67072e-05
4.10425e-05
9.43724e-05
3.67018e-05
4.10415e-05
9.43643e-05
9.97484e-05
3.67027e-05
4.10418e-05
9.43891e-05
2.03124e-05
5.07295e-05
7.90573e-05
7.90391e-05
2.03144e-05
2.03125e-05
7.90275e-05
5.07291e-05
2.03105e-05
7.90458e-05
3.67063e-05
9.97478e-05
4.10458e-05
9.44124e-05
4.10457e-05
9.43882e-05
3.67056e-05
8.14454e-05
2.17003e-05
2.17029e-05
2.16983e-05
2.17009e-05
8.14514e-05
0.000105065
0.000128347
7.78218e-05
4.86169e-05
4.86243e-05
0.000128407
0.000105045
0.000105061
0.000128372
7.78192e-05
4.86255e-05
0.000128427
4.86329e-05
0.000105041
0.000105078
4.86291e-05
7.78265e-05
0.00012848
4.8622e-05
0.000128421
0.000105097
0.000105074
4.86377e-05
7.78223e-05
0.0001285
0.000128446
4.86305e-05
0.000105094
8.14409e-05
2.16964e-05
2.1699e-05
2.16984e-05
2.1701e-05
8.1435e-05
2.38819e-05
2.3882e-05
2.38861e-05
2.38859e-05
8.14616e-05
2.17002e-05
2.17027e-05
8.14554e-05
2.17022e-05
2.17048e-05
0.000105141
0.000128621
7.78577e-05
4.86384e-05
0.000128564
4.86311e-05
0.00010516
0.000105137
0.000128641
7.78534e-05
4.86469e-05
4.86396e-05
0.000128589
0.000105156
0.000105129
4.86266e-05
0.000128493
7.78535e-05
0.000128551
0.00010511
4.86336e-05
0.000105125
4.86352e-05
0.000128518
7.78508e-05
0.000105106
4.86421e-05
0.000128571
8.14654e-05
2.1704e-05
2.17066e-05
2.1702e-05
2.17046e-05
8.14714e-05
2.38867e-05
2.38865e-05
3.66923e-05
4.10368e-05
9.43476e-05
9.96894e-05
4.10367e-05
9.43212e-05
3.66993e-05
2.03073e-05
5.07096e-05
7.89781e-05
7.8989e-05
2.03052e-05
2.03071e-05
7.9001e-05
5.07133e-05
7.89904e-05
2.03092e-05
3.66955e-05
9.96879e-05
4.10323e-05
9.42962e-05
4.10327e-05
9.43234e-05
3.66885e-05
3.67056e-05
9.43633e-05
4.1041e-05
9.97533e-05
3.6699e-05
9.43885e-05
4.10414e-05
2.03126e-05
5.07276e-05
7.90547e-05
2.03147e-05
7.90371e-05
2.03128e-05
7.90254e-05
5.07244e-05
2.03107e-05
7.90433e-05
3.67023e-05
9.9754e-05
9.44115e-05
4.10456e-05
3.67091e-05
9.4387e-05
4.10454e-05
3.67031e-05
4.10408e-05
9.43455e-05
9.97492e-05
3.66963e-05
4.10412e-05
9.4372e-05
2.03109e-05
5.07239e-05
7.90247e-05
7.90137e-05
2.0313e-05
2.03111e-05
7.90023e-05
5.07202e-05
2.0309e-05
7.90134e-05
3.66997e-05
9.97501e-05
4.10454e-05
9.43952e-05
4.10452e-05
9.43693e-05
3.67064e-05
3.66997e-05
9.43701e-05
4.1037e-05
9.9684e-05
9.43362e-05
4.1037e-05
3.66988e-05
2.03095e-05
5.07186e-05
7.90039e-05
7.90235e-05
2.03074e-05
2.03093e-05
7.90355e-05
5.07178e-05
7.90162e-05
2.03114e-05
3.66951e-05
9.96903e-05
9.43121e-05
4.10325e-05
9.43458e-05
4.10328e-05
3.6696e-05
3.66974e-05
4.10368e-05
9.43595e-05
9.96814e-05
4.10369e-05
9.43258e-05
3.66965e-05
2.03082e-05
5.07128e-05
7.89837e-05
7.90028e-05
2.03062e-05
2.03081e-05
7.90148e-05
5.07166e-05
7.89958e-05
2.03101e-05
3.66928e-05
9.96876e-05
4.10324e-05
9.43016e-05
4.10327e-05
9.43351e-05
3.66938e-05
3.67024e-05
9.43611e-05
4.1041e-05
9.97516e-05
3.67032e-05
9.43942e-05
4.10413e-05
2.03131e-05
5.07281e-05
7.90586e-05
7.90397e-05
2.03152e-05
2.03133e-05
7.90281e-05
5.07284e-05
2.03112e-05
7.90471e-05
3.67072e-05
9.97454e-05
9.44181e-05
4.10455e-05
9.43851e-05
4.10454e-05
3.67062e-05
3.67002e-05
4.10409e-05
9.43507e-05
9.9749e-05
3.67009e-05
4.10412e-05
9.43836e-05
2.03119e-05
5.0727e-05
7.90378e-05
7.90194e-05
2.03139e-05
2.0312e-05
7.90078e-05
5.07234e-05
2.031e-05
7.90265e-05
3.67048e-05
9.97426e-05
4.10454e-05
9.44075e-05
4.10453e-05
9.43747e-05
3.67041e-05
8.14451e-05
2.16993e-05
2.17027e-05
2.16973e-05
2.17007e-05
8.14523e-05
0.000105057
0.000128338
7.78053e-05
4.86183e-05
4.86183e-05
0.000128392
0.000105037
0.000105058
0.000128365
7.78229e-05
4.86304e-05
0.000128429
4.86302e-05
0.000105038
0.00010507
4.86229e-05
7.78125e-05
0.000128465
4.8623e-05
0.000128412
0.000105089
0.000105071
4.8635e-05
7.78308e-05
0.000128502
0.000128439
4.8635e-05
0.00010509
8.14419e-05
2.16954e-05
2.16988e-05
2.16974e-05
2.17009e-05
8.14345e-05
2.3881e-05
2.38814e-05
2.3884e-05
2.38837e-05
8.14623e-05
2.16991e-05
2.17026e-05
8.14553e-05
2.17012e-05
2.17046e-05
0.000105133
0.000128606
7.78439e-05
4.86324e-05
0.000128555
4.86328e-05
0.000105152
0.000105134
0.000128643
7.78623e-05
4.86445e-05
4.86449e-05
0.000128583
0.000105153
0.000105121
4.86279e-05
0.000128484
7.78374e-05
0.000128536
0.000105101
4.86281e-05
0.000105122
4.864e-05
0.000128511
7.78552e-05
0.000105103
4.86402e-05
0.000128573
8.14653e-05
2.1703e-05
2.17065e-05
2.1701e-05
2.17045e-05
8.14721e-05
2.3886e-05
2.38857e-05
3.66977e-05
9.43512e-05
4.10399e-05
9.96826e-05
9.43256e-05
4.10335e-05
3.66966e-05
2.03085e-05
5.07128e-05
7.89841e-05
7.90028e-05
2.03064e-05
2.03083e-05
7.90148e-05
5.07166e-05
7.89964e-05
2.03104e-05
3.6693e-05
9.96838e-05
9.43007e-05
4.10295e-05
9.43274e-05
4.10356e-05
3.66941e-05
3.66995e-05
9.43579e-05
4.10403e-05
9.96901e-05
9.43317e-05
4.10339e-05
3.66983e-05
2.03089e-05
5.07131e-05
7.89987e-05
7.90093e-05
2.03068e-05
2.03087e-05
7.90214e-05
5.07168e-05
7.90109e-05
2.03108e-05
3.66947e-05
9.96895e-05
9.43067e-05
4.10299e-05
9.43337e-05
4.10359e-05
3.66958e-05
3.67003e-05
9.43498e-05
4.1038e-05
9.97451e-05
3.67013e-05
9.43759e-05
4.10442e-05
2.03121e-05
5.07271e-05
7.90378e-05
7.90201e-05
2.03142e-05
2.03123e-05
7.90083e-05
5.07234e-05
2.03102e-05
7.90265e-05
3.67052e-05
9.97433e-05
9.43988e-05
4.10485e-05
9.43737e-05
4.10421e-05
3.67041e-05
3.6702e-05
9.4356e-05
4.10384e-05
9.97508e-05
3.6703e-05
9.43822e-05
4.10446e-05
2.03125e-05
5.07271e-05
7.90444e-05
7.90345e-05
2.03146e-05
2.03127e-05
7.90229e-05
5.07239e-05
2.03106e-05
7.90332e-05
3.6707e-05
9.97508e-05
9.44053e-05
4.10488e-05
9.43799e-05
4.10426e-05
3.67058e-05
2.38807e-05
2.3881e-05
2.38803e-05
2.38806e-05
8.14622e-05
2.17027e-05
2.16998e-05
8.1456e-05
2.17048e-05
2.17018e-05
0.000105133
0.000128639
7.78602e-05
4.86441e-05
0.000105152
0.000128581
4.86441e-05
0.000105141
0.000128625
7.78598e-05
4.86348e-05
0.00010516
0.000128565
4.86347e-05
0.000105121
4.86387e-05
0.00012851
7.78536e-05
0.000105102
0.000128569
4.86399e-05
0.000105129
4.86299e-05
0.000128493
7.78527e-05
0.00010511
0.000128555
4.86304e-05
8.14659e-05
2.17066e-05
2.17036e-05
8.14722e-05
2.17046e-05
2.17016e-05
2.38857e-05
2.38853e-05
2.38852e-05
2.38849e-05
2.03158e-05
7.90308e-05
5.07327e-05
2.03138e-05
7.90489e-05
3.67076e-05
9.98065e-05
4.10492e-05
9.43974e-05
3.67079e-05
4.10505e-05
9.44304e-05
5.07359e-05
2.38899e-05
2.38895e-05
0.000199189
0.000199188
0.000204062
0.000199999
0.000199997
0.000189288
0.000188266
0.000137899
0.00016091
0.000160907
0.000180749
0.000160966
0.000160961
0.000137862
0.000138236
0.000161557
0.000161533
0.000181683
0.000138203
0.000161588
0.000161572
0.0001379
0.000160916
0.000160905
0.000180748
0.000160973
0.00016096
0.000137861
0.00013812
0.000181395
0.00016144
0.000161427
0.000161383
0.000161371
0.000138155
0.000137906
0.00016091
0.000160929
0.000180762
0.000160981
0.000160964
0.000137865
0.000138124
0.000181407
0.000161436
0.000161455
0.000161379
0.000161398
0.000138162
0.000137899
0.00016087
0.00016089
0.00018082
0.000160987
0.000160967
0.000137851
0.000138111
0.000181316
0.000161433
0.000161454
0.000161353
0.000161373
0.000138155
0.00013812
0.000181394
0.000161437
0.00016143
0.000138157
0.000161387
0.000161373
0.00019919
0.000199195
0.000204069
0.0002
0.000200005
0.00018929
0.000188267
0.000199194
0.000199199
0.000204066
0.000200004
0.000200009
0.000189297
0.000188274
0.000199203
0.000199201
0.000204075
0.000200012
0.000200011
0.000189299
0.000188276
0.000204694
0.000201602
0.0002016
0.000200805
0.000200803
0.00019031
0.000191328
0.000204701
0.000201603
0.000201608
0.000200806
0.000200811
0.000190312
0.00019133
0.000204698
0.000201607
0.000201612
0.00020081
0.000200815
0.000190318
0.000191336
0.000204708
0.000201615
0.000201614
0.000200819
0.000200817
0.000190321
0.000191338
0.000170418
0.000137234
0.00017566
0.00014361
0.000137136
0.00017552
0.00017056
0.000159997
0.000146885
0.000103397
0.000122355
0.000146962
0.000122427
0.000159864
0.00016002
0.000122493
0.000103393
0.000147085
0.000147011
0.000122423
0.00016016
0.000170344
0.000143607
0.000137045
0.00017529
0.000137142
0.00017543
0.000170221
0.000170439
0.000175594
0.000137212
0.000143613
0.000175579
0.000137138
0.000170507
0.000159944
0.000146899
0.000103398
0.000122354
0.000146936
0.000122415
0.000159907
0.000160064
0.00012248
0.000103395
0.000147062
0.000147024
0.000122421
0.000160099
0.000170313
0.000143594
0.000175344
0.000137045
0.000175366
0.000137121
0.000170236
0.00013795
0.000180912
0.000161128
0.000161116
0.000161072
0.000161059
0.000137986
0.000137949
0.000180911
0.000161126
0.000161113
0.000137986
0.000161067
0.000161055
0.000138072
0.000181234
0.000161226
0.000161214
0.000138036
0.000161287
0.000161274
0.000170432
0.000137207
0.000175591
0.000143616
0.000137134
0.000175578
0.000170479
0.000159933
0.000146893
0.000103397
0.000122346
0.000122409
0.000146931
0.000159897
0.000160054
0.000122475
0.000103395
0.000147056
0.000122414
0.000147018
0.00016009
0.000170279
0.000143592
0.000137041
0.000175343
0.000137116
0.000175363
0.000170232
0.000170436
0.000137217
0.000175593
0.000143618
0.000137143
0.000175579
0.000170504
0.000159932
0.000146883
0.000103395
0.000122354
0.000122413
0.000146919
0.000159895
0.000160053
0.00012248
0.000103393
0.000147045
0.00012242
0.000160089
0.000147008
0.000170309
0.000143595
0.00013705
0.000175346
0.000137125
0.000175367
0.000170233
0.000170686
0.000137225
0.000175789
0.000143805
0.000170634
0.000137299
0.000175804
0.000160372
0.000147296
0.000103476
0.000122603
0.000147261
0.000122545
0.000160395
0.00016024
0.000122478
0.000147139
0.000103477
0.000147178
0.000160214
0.00012254
0.000170833
0.000143826
0.000137387
0.000176009
0.000137316
0.000176004
0.000170883
0.000170698
0.000137235
0.000175792
0.000143808
0.000170637
0.000137309
0.000175807
0.00016037
0.000147284
0.000103473
0.000122609
0.000122551
0.000147252
0.000160394
0.000160239
0.000122487
0.000147128
0.000103475
0.000160213
0.000122546
0.000147166
0.000170836
0.000143829
0.000137397
0.000176012
0.000137325
0.000176006
0.000170893
0.000137953
0.000180924
0.000161118
0.000161132
0.000161079
0.000161061
0.000137993
0.000138078
0.000181246
0.000161217
0.000161242
0.000161273
0.00013804
0.000161297
0.000170433
0.000137215
0.00017559
0.000143618
0.000137141
0.000175576
0.0001705
0.000159931
0.000146882
0.000103389
0.000122349
0.000122413
0.000146919
0.000159894
0.000160052
0.000122479
0.000103386
0.000147044
0.000122417
0.000147006
0.000160088
0.000170306
0.000143594
0.000137048
0.000175341
0.000137124
0.000175363
0.000170229
0.000170423
0.000175586
0.000137201
0.000143614
0.000175572
0.000137127
0.000170491
0.000159917
0.000146867
0.000103375
0.000122335
0.000122395
0.000146903
0.00015988
0.000160037
0.000122461
0.000103373
0.000147028
0.000122402
0.000160074
0.000146992
0.000170296
0.000143589
0.000175338
0.000137034
0.000175359
0.00013711
0.00017022
0.000170695
0.000137233
0.000175788
0.000143808
0.000170634
0.000137308
0.000175804
0.000160369
0.000147296
0.000103466
0.000122607
0.000147241
0.000122549
0.000160393
0.000160238
0.000122482
0.000147127
0.00010347
0.000147169
0.000160212
0.000122545
0.000170833
0.000143829
0.000137395
0.00017601
0.000137323
0.000176004
0.00017089
0.000170685
0.000175785
0.000137219
0.000143803
0.000170624
0.0001758
0.000137293
0.000160355
0.000147279
0.000103454
0.00012259
0.000122534
0.000147237
0.000160383
0.000160225
0.000122468
0.000147113
0.000103456
0.000160198
0.000122527
0.000147151
0.000170823
0.000143825
0.000176006
0.000137381
0.000175999
0.00013731
0.000170883
0.000170412
0.000175657
0.000137224
0.000143607
0.000175519
0.000137126
0.000170548
0.000159982
0.00014689
0.000103394
0.000122346
0.000146928
0.000122415
0.000159853
0.000160012
0.000122481
0.000103392
0.000147053
0.000147014
0.000122412
0.000160143
0.000170333
0.000143604
0.00017529
0.000137034
0.000175429
0.000137131
0.000170211
0.00017077
0.000137229
0.000175734
0.00014382
0.000170602
0.000137325
0.000175873
0.000160312
0.000147321
0.000103473
0.000122622
0.00016049
0.000147261
0.000122554
0.000160328
0.000122488
0.000147132
0.000103477
0.000160172
0.000147203
0.000122557
0.000170772
0.000143823
0.000137414
0.000176089
0.000170965
0.000137319
0.000175952
0.000170757
0.000175732
0.000137219
0.000143817
0.000170601
0.00017587
0.000137315
0.000160314
0.000147294
0.000103472
0.000122611
0.000122543
0.000147259
0.000160473
0.000160309
0.000122478
0.000147137
0.000103474
0.000160169
0.000122546
0.000147176
0.000170776
0.00014382
0.000176086
0.000137404
0.000175949
0.00013731
0.000170954
0.00013794
0.000180843
0.000161127
0.000161147
0.000161063
0.000161033
0.000137986
0.000138071
0.000181292
0.000161189
0.000161215
0.000161277
0.000138026
0.000161298
0.000170436
0.000175594
0.000137213
0.000143617
0.00017558
0.000137139
0.000170506
0.000159934
0.000146886
0.000103393
0.00012235
0.000146923
0.000122411
0.000159897
0.000160054
0.000122477
0.000103392
0.000147048
0.000147011
0.000122417
0.000160092
0.00017031
0.000143596
0.000175346
0.000137046
0.000175368
0.000137122
0.000170232
0.000170701
0.000175791
0.00013723
0.000143806
0.00017064
0.000175808
0.000137304
0.00016038
0.000147301
0.000103477
0.000122609
0.000160408
0.000147269
0.000122552
0.000160249
0.000122487
0.000147144
0.000103478
0.000160224
0.000147183
0.000122546
0.000170838
0.000143824
0.000176014
0.000137392
0.000170898
0.000176007
0.00013732
0.0001707
0.000175792
0.000137231
0.000143809
0.000170637
0.000175809
0.000137305
0.000160373
0.000147296
0.000103472
0.000122606
0.000122548
0.000147256
0.000160397
0.000160242
0.000122482
0.000147131
0.000103474
0.000160215
0.000122543
0.00014717
0.000170836
0.000143828
0.000176014
0.000137393
0.000176008
0.000137321
0.000170893
0.000138072
0.000181237
0.000161229
0.000161216
0.000138036
0.000161288
0.000161277
0.000160631
0.000147378
0.000122606
0.00010355
0.000147406
0.000160458
0.000122673
0.000171156
0.000144022
0.000176167
0.000137397
0.000176304
0.000170963
0.000137492
0.000147365
0.00010355
0.000147396
0.000123042
0.000139422
0.000139427
0.000137123
0.00012584
0.000142543
0.00014255
0.000139578
0.000128797
0.000145633
0.000145637
0.000141945
0.000131893
0.000148679
0.000148683
0.000144272
0.000135105
0.000151674
0.000151677
0.000146524
0.000138415
0.000154613
0.000154615
0.000148758
0.000141803
0.000157492
0.000157493
0.000150897
0.000145251
0.000160308
0.00016031
0.000153007
0.000148742
0.000163061
0.000163062
0.000155058
0.000152261
0.000165748
0.000165749
0.000157012
0.000155793
0.000168366
0.000168367
0.000158969
0.000159325
0.000170916
0.000170916
0.000160843
0.000162845
0.000173396
0.000173395
0.000162661
0.00016634
0.000175804
0.000175802
0.00016439
0.000169801
0.000178139
0.000178135
0.000166057
0.000173218
0.000180399
0.000180395
0.0001677
0.000176584
0.000182584
0.000182578
0.000169269
0.000179889
0.000184692
0.000184685
0.000170803
0.000183128
0.000186723
0.000186716
0.000172246
0.000186292
0.000188677
0.000188669
0.00017362
0.000189376
0.000190552
0.000190544
0.000174939
0.000192374
0.000192349
0.00019234
0.000176216
0.000195282
0.000194067
0.000194059
0.000177436
0.000198096
0.000195707
0.000195698
0.000178579
0.000200812
0.000197268
0.000197259
0.000179656
0.000137306
0.000139081
0.000139414
0.00013941
0.000141762
0.000141758
0.000137124
0.000139115
0.000139422
0.000139411
0.000141766
0.000141756
0.000139429
0.000141767
0.000141774
0.000137123
0.000139238
0.000139436
0.000141773
0.000141781
0.000139253
0.000139684
0.000141653
0.00014254
0.000142535
0.000144859
0.000144855
0.000139649
0.00014151
0.000142546
0.000142534
0.000144863
0.000144852
0.000142552
0.000144865
0.00014487
0.000139527
0.000141644
0.00014256
0.000144869
0.000144879
0.000141663
0.000141985
0.000143987
0.000145627
0.000145623
0.000147914
0.000147911
0.000142068
0.000143864
0.000145633
0.000145621
0.00014792
0.000147908
0.000145639
0.000147923
0.000147924
0.000141939
0.000143978
0.000145648
0.000147925
0.000147933
0.000143974
0.000144301
0.00014626
0.000148671
0.000148668
0.000150921
0.000150919
0.000144357
0.000146196
0.000148678
0.000148665
0.000150927
0.000150915
0.000148681
0.000150931
0.000150931
0.000144239
0.000146289
0.00014869
0.000150933
0.00015094
0.000146265
0.000146553
0.000148476
0.000151665
0.000151662
0.000153875
0.000153871
0.00014661
0.000148368
0.000151672
0.000151658
0.00015388
0.000153867
0.000151675
0.000153885
0.000153883
0.000146533
0.000148482
0.000151684
0.000153886
0.000153893
0.000148482
0.000148772
0.000150541
0.000154605
0.000154599
0.000156768
0.000156764
0.000148831
0.000150545
0.000154611
0.000154596
0.000156774
0.000156759
0.000154613
0.000156779
0.000156776
0.000148723
0.000150662
0.000154623
0.000156779
0.000156787
0.000150658
0.000151014
0.000152671
0.000157482
0.000157476
0.000159599
0.000159594
0.000150994
0.000152697
0.000157489
0.000157472
0.000159606
0.000159589
0.00015749
0.000159611
0.000159607
0.000150899
0.00015276
0.000157501
0.000159611
0.000159618
0.00015275
0.000153086
0.000154695
0.000160297
0.000160291
0.000162366
0.000162361
0.000153077
0.000154717
0.000160305
0.000160287
0.000162374
0.000162356
0.000160305
0.000162379
0.000162374
0.000153002
0.000154798
0.000160316
0.00016238
0.000162385
0.000154811
0.00015516
0.000156724
0.000163048
0.000163042
0.000165067
0.000165062
0.000155132
0.000156687
0.000163057
0.000163038
0.000165076
0.000165059
0.000163056
0.000165082
0.000165075
0.000155059
0.000156815
0.000163067
0.000165084
0.000165086
0.000156812
0.000157096
0.00015864
0.000165732
0.000165727
0.000167701
0.000167697
0.00015712
0.000158734
0.000165741
0.000165724
0.00016771
0.000167693
0.000165741
0.000167719
0.00016771
0.000157044
0.000158734
0.000165752
0.000167719
0.000167721
0.000158738
0.000159041
0.000160543
0.000168349
0.000168344
0.000170266
0.000170263
0.000158967
0.000160615
0.000168359
0.000168341
0.000170276
0.000170258
0.000168358
0.000170286
0.000170276
0.000158941
0.000160542
0.000168369
0.000170285
0.000170287
0.000160602
0.000160874
0.000162374
0.000170895
0.000170893
0.000172761
0.000172759
0.000160846
0.000162441
0.000170907
0.000170888
0.000172772
0.000172754
0.000170907
0.000172783
0.000172771
0.000160877
0.000162345
0.000170917
0.000172782
0.000172781
0.000162439
0.000162677
0.000164123
0.000173373
0.000173371
0.000175185
0.000175183
0.000162671
0.000164193
0.000173385
0.000173367
0.000175197
0.000175178
0.000173385
0.000175209
0.000175196
0.0001627
0.000164121
0.000173394
0.000175207
0.000175206
0.000164181
0.000164438
0.000165816
0.00017578
0.000175778
0.000177537
0.000177535
0.000164376
0.000165889
0.000175792
0.000175773
0.000177549
0.00017753
0.000175791
0.000177562
0.000177548
0.000164426
0.00016582
0.0001758
0.000177559
0.000177557
0.000165877
0.000166122
0.000167465
0.000178113
0.000178111
0.000179815
0.000179813
0.000166079
0.000167527
0.000178126
0.000178106
0.000179827
0.000179808
0.000178124
0.000179841
0.000179826
0.000166114
0.000167481
0.000178134
0.000179837
0.000179835
0.000167518
0.000167732
0.00016906
0.000180372
0.000180371
0.000182018
0.000182017
0.000167712
0.00016911
0.000180385
0.000180365
0.00018203
0.00018201
0.000180383
0.000182044
0.000182028
0.000167727
0.00016906
0.000180392
0.000182039
0.000182037
0.000169088
0.00016929
0.000170572
0.000182557
0.000182556
0.000184144
0.000184144
0.000169288
0.00017061
0.000182569
0.000182549
0.000184157
0.000184136
0.000182567
0.000184172
0.000184154
0.000169287
0.000170565
0.000182576
0.000184166
0.000184164
0.000170583
0.000170793
0.000172048
0.000184664
0.000184663
0.000186194
0.000186194
0.000170782
0.000172039
0.000184677
0.000184656
0.000186207
0.000186186
0.000184674
0.000186223
0.000186204
0.000170792
0.000172028
0.000184683
0.000186216
0.000186214
0.000172035
0.000172232
0.000173423
0.000186695
0.000186694
0.000188166
0.000188167
0.000172251
0.000173444
0.000186708
0.000186686
0.000188179
0.000188158
0.000186704
0.000188196
0.000188177
0.000172232
0.000173426
0.000186714
0.000188188
0.000188186
0.000173428
0.000173616
0.000174786
0.000188648
0.000188648
0.000190061
0.000190062
0.000173619
0.000174782
0.000188661
0.000188638
0.000190074
0.000190052
0.000188657
0.00019009
0.000190071
0.000173611
0.000174773
0.000188667
0.000190082
0.000190081
0.000174769
0.000174929
0.000176068
0.000190522
0.000190523
0.000191877
0.000191878
0.000174937
0.000176042
0.000190536
0.000190513
0.00019189
0.000191867
0.000190532
0.000191907
0.000191887
0.000174928
0.00017603
0.000190542
0.000191898
0.000191897
0.000176019
0.000176179
0.000177294
0.000192319
0.000192319
0.000193615
0.000193615
0.000176209
0.000177236
0.000192333
0.000192308
0.000193628
0.000193604
0.000192328
0.000193645
0.000193624
0.000176194
0.000177224
0.000192339
0.000193636
0.000193635
0.000177219
0.000177365
0.000178454
0.000194037
0.000194037
0.000195274
0.000195274
0.000177427
0.000178384
0.000194051
0.000194026
0.000195287
0.000195263
0.000194046
0.000195304
0.000195283
0.000177414
0.000178371
0.000194058
0.000195295
0.000195295
0.000178374
0.000178503
0.000179549
0.000195677
0.000195677
0.000196854
0.000196854
0.000178582
0.000179484
0.000195691
0.000195665
0.000196868
0.000196842
0.000195685
0.000196885
0.000196862
0.000178569
0.000179472
0.000195697
0.000196875
0.000196875
0.000179468
0.000179584
0.000180502
0.000197238
0.000197237
0.000198355
0.000198355
0.000179663
0.000180515
0.000197252
0.000197226
0.000198369
0.000198343
0.000197245
0.000198386
0.000198363
0.000179648
0.000180569
0.000197258
0.000198376
0.000198376
0.000180502
9.23073e-05
5.00209e-05
5.00304e-05
9.20663e-05
2.36122e-05
2.36167e-05
9.2309e-05
5.00194e-05
5.00282e-05
9.20758e-05
0.000123037
0.000123046
0.000123059
0.000125124
0.00012512
0.000125129
0.000125142
0.000122009
9.38493e-05
0.000134852
0.000140206
9.41186e-05
0.000135721
0.000121367
2.36102e-05
2.36148e-05
0.000122004
0.000134876
9.38396e-05
0.000140211
0.000135744
9.41393e-05
0.000121381
7.37713e-05
7.37674e-05
0.000138071
7.38656e-05
7.38697e-05
9.27812e-05
5.00507e-05
9.2555e-05
5.00603e-05
2.36217e-05
2.36263e-05
9.27834e-05
5.00477e-05
9.25614e-05
5.00572e-05
0.000125835
0.000125844
0.000125857
0.000128044
0.00012804
0.000128048
0.000128061
0.000123322
9.44485e-05
0.00013835
0.00014332
0.000122704
9.47164e-05
0.000139228
2.36197e-05
2.36244e-05
0.000123315
0.000138373
9.44418e-05
0.000143326
0.000122713
0.00013925
9.47275e-05
7.40355e-05
7.40307e-05
0.000140469
7.41245e-05
7.41296e-05
9.32382e-05
5.00805e-05
9.30168e-05
5.00902e-05
2.36316e-05
2.36363e-05
9.32418e-05
5.00773e-05
9.30222e-05
5.00872e-05
0.000128793
0.000128801
0.000128815
0.000131107
0.000131103
0.000131111
0.000131124
0.00012459
9.50374e-05
0.000141883
0.0001464
0.000123992
9.52916e-05
0.000142766
2.36296e-05
2.36344e-05
0.00012458
0.000141902
9.50234e-05
0.000146404
0.000124
0.000142785
9.53111e-05
7.42902e-05
7.42862e-05
0.000142829
7.43756e-05
7.43805e-05
9.36735e-05
5.01105e-05
9.34645e-05
5.01203e-05
2.36418e-05