/*--------------------------------*- C++ -*----------------------------------*\
| =========                 |                                                 |
| \\      /  F ield         | OpenFOAM: The Open Source CFD Toolbox           |
|  \\    /   O peration     | Version:  v1906                                 |
|   \\  /    A nd           | Web:      www.OpenFOAM.com                      |
|    \\/     M anipulation  |                                                 |
\*---------------------------------------------------------------------------*/
FoamFile
{
    version     2.0;
    format      ascii;
    class       surfaceScalarField;
    location    "1000";
    object      phi;
}
// * * * * * * * * * * * * * * * * * * * * * * * * * * * * * * * * * * * * * //

dimensions      [0 3 -1 0 0 0 0];
oriented        oriented;


internalField   nonuniform List<scalar> 
123680
(
1.19278e-07
1.19654e-07
-7.11019e-08
-7.10356e-08
0.00118432
-0.00118442
-1.19696e-06
-1.19573e-07
-4.86514e-08
0.0011323
-2.34299e-07
1.24128e-06
2.72163e-07
9.11204e-07
-2.12671e-07
2.66437e-07
-8.53001e-07
-0.00113233
-1.19151e-06
-1.197e-07
-4.86363e-08
0.00113194
-2.34305e-07
1.2358e-06
2.72172e-07
9.11068e-07
-2.15356e-07
2.69173e-07
-8.52861e-07
-0.00113196
1.22559e-06
1.19163e-06
-1.98269e-07
-2.03571e-07
0.000268069
-0.000270084
-0.00027009
1.22519e-06
1.19123e-06
-1.98082e-07
-2.03395e-07
0.000268075
1.23097e-06
1.19432e-06
-1.957e-07
-2.03531e-07
0.000268075
-0.000270101
-1.2751e-06
-1.23851e-06
-0.00026808
2.39193e-07
2.47054e-07
0.000270107
-4.85385e-08
0.00113147
-2.39845e-07
1.2752e-06
2.77524e-07
9.11146e-07
-2.127e-07
2.66375e-07
-8.53024e-07
-0.00113149
-1.23647e-06
-1.19273e-07
-4.84485e-08
0.00113191
-2.42689e-07
1.28069e-06
2.80362e-07
9.16673e-07
-2.1552e-07
2.6914e-07
-8.58542e-07
-0.00113194
-1.21332e-07
-0.00113142
-4.93504e-08
-1.23067e-06
2.77426e-07
-2.39658e-07
-8.52696e-07
2.66332e-07
-2.12471e-07
9.11155e-07
0.00113139
1.28059e-06
-1.2132e-07
-0.00113186
-4.93098e-08
-1.23615e-06
2.80275e-07
-2.42492e-07
-8.58225e-07
2.69085e-07
-2.15307e-07
9.16675e-07
0.00113184
-1.98397e-07
-2.00844e-07
0.000268097
-0.000270131
-1.24118e-06
-0.000268101
2.41978e-07
2.4432e-07
0.000270136
-4.86001e-08
0.00113257
-2.3719e-07
1.23861e-06
2.75041e-07
9.13971e-07
-2.15465e-07
2.69217e-07
-8.55704e-07
-0.0011326
-1.23102e-06
-1.19301e-07
-4.85333e-08
0.00113157
-2.42676e-07
1.27525e-06
2.80374e-07
9.1381e-07
-2.15438e-07
2.69092e-07
-8.55697e-07
-0.0011316
-1.21708e-07
-0.00113252
-4.94193e-08
-1.19401e-06
2.74952e-07
-2.36991e-07
-8.55387e-07
2.69167e-07
-2.15229e-07
9.13968e-07
0.0011325
1.27516e-06
-1.21341e-07
-0.00113152
-4.93713e-08
-1.2307e-06
2.8028e-07
-2.42489e-07
-8.55384e-07
2.69038e-07
-2.1522e-07
9.1382e-07
0.0011315
-1.19332e-07
-4.84689e-08
0.00113136
-2.37046e-07
1.26977e-06
2.74739e-07
9.11154e-07
-2.12682e-07
2.66371e-07
-8.53038e-07
-0.00113139
-1.21644e-07
-0.00113225
-4.94681e-08
-1.19664e-06
2.72067e-07
-2.34105e-07
-8.5267e-07
2.66388e-07
9.11207e-07
-2.12447e-07
0.00113223
1.26967e-06
0.00113129
-1.21381e-07
-0.00113131
-4.92968e-08
-1.22527e-06
2.74638e-07
-2.36857e-07
-8.52712e-07
2.66326e-07
-2.12456e-07
9.13823e-07
-1.95778e-07
-2.03406e-07
0.000268056
-0.00027008
-1.2357e-06
-0.00026806
2.39319e-07
2.46895e-07
0.000270085
-1.19709e-07
-4.85924e-08
0.00113247
-2.34407e-07
1.23592e-06
2.7229e-07
9.11351e-07
-2.15422e-07
2.69207e-07
-8.53062e-07
-0.0011325
-1.21759e-07
-0.00113189
-4.94482e-08
-1.19119e-06
2.72082e-07
-2.34124e-07
-8.52494e-07
2.69082e-07
9.11139e-07
-2.1516e-07
0.00113187
1.23582e-06
0.0011324
-1.21742e-07
-0.00113242
-4.94561e-08
-1.19131e-06
2.72206e-07
-2.34204e-07
-8.5275e-07
2.69161e-07
-2.15209e-07
9.11349e-07
-0.000268073
2.41767e-07
2.47061e-07
-4.95829e-08
-2.36809e-07
1.26965e-06
2.74612e-07
9.1382e-07
-2.12394e-07
2.66296e-07
-8.55279e-07
-1.22059e-07
-2.3416e-07
1.2358e-06
2.7217e-07
-2.15145e-07
2.69124e-07
-1.22419e-07
-4.9743e-08
9.11345e-07
-8.52658e-07
-9.54414e-11
-7.01796e-08
0.000229293
3.21347e-08
2.13925e-09
-0.000229257
-5.21672e-09
2.24335e-08
0.000193525
-3.55278e-09
-0.000193538
6.8051e-09
-4.36791e-08
0.000193578
3.34564e-09
-0.000193544
1.48434e-10
2.87249e-08
0.000229238
-1.32086e-08
8.83599e-10
-0.000229254
5.13754e-09
1.12036e-08
9.79802e-05
-9.79966e-05
-6.78245e-09
-2.00495e-08
9.80176e-05
-9.79908e-05
-7.02523e-08
-2.37957e-10
0.000229321
2.19449e-09
3.00673e-08
-0.000229283
-5.13666e-09
2.47157e-08
0.000193545
-4.19941e-09
-0.000193561
6.84113e-09
-4.59459e-08
0.0001936
3.86495e-09
-0.000193565
2.8819e-08
2.07699e-10
0.000229264
9.11429e-10
-1.11592e-08
-0.000229283
-7.09827e-08
-7.10406e-08
0.00118432
-0.00118442
-7.11643e-08
-7.11338e-08
0.0011839
-0.001184
-7.11522e-08
-7.11036e-08
0.00118413
-0.00118423
-0.00118413
-7.35672e-08
-7.35154e-08
0.00118403
-0.00118413
-7.34772e-08
-7.35101e-08
0.00118403
-0.00118371
-7.36383e-08
-7.35924e-08
0.00118362
-0.00118394
-7.36178e-08
-7.36072e-08
0.00118384
7.01746e-08
-1.66413e-09
0.000250197
4.0484e-09
-1.93108e-07
-0.000250076
-9.73194e-09
-2.46674e-08
6.64294e-08
0.0002454
4.06634e-09
-0.000245437
0.00115244
3.56442e-09
-1.40038e-07
1.00835e-06
-7.57694e-07
8.30695e-07
-9.36862e-07
-0.00115249
-4.89303e-08
1.24125e-06
0.00113228
-1.20291e-07
-8.52873e-07
2.66422e-07
-2.1259e-07
9.11212e-07
-1.19684e-06
2.72125e-07
-2.34226e-07
2.07183e-08
4.59111e-08
0.000245475
-1.66726e-08
-0.000245419
-1.05038e-07
-3.7671e-09
0.00115239
-1.41557e-07
-9.36614e-07
8.30786e-07
-7.57446e-07
1.00844e-06
-2.87545e-08
1.60739e-09
0.000250063
1.93382e-09
1.32646e-07
-0.00025017
5.19224e-09
1.34324e-08
9.79617e-05
-9.79803e-05
-6.80678e-09
-2.22975e-08
9.80013e-05
-9.79722e-05
-1.29771e-09
7.00976e-08
0.000250159
-1.93034e-07
4.05172e-09
-0.000250039
0.00115213
3.59369e-09
-1.40213e-07
1.00279e-06
-7.52147e-07
8.25188e-07
-9.31252e-07
-0.00115219
-9.87148e-09
-2.2485e-08
6.65004e-08
0.000245344
4.16089e-09
-0.000245382
-4.8909e-08
1.23577e-06
0.00113191
-1.20411e-07
-8.52689e-07
2.69133e-07
-2.15292e-07
9.1114e-07
-1.19139e-06
2.72145e-07
-2.34243e-07
-3.63363e-09
0.00115209
-1.41723e-07
-9.31011e-07
8.25272e-07
-7.51904e-07
1.00287e-06
2.083e-08
4.37653e-08
0.00024542
-1.67271e-08
-0.000245363
-1.05158e-07
1.31092e-09
-2.86795e-08
0.000250026
1.32561e-07
1.8681e-09
-0.000250133
1.23199e-08
-1.11359e-08
2.47993e-08
0.000278126
-7.07306e-09
-0.000278144
1.22794e-08
-1.11325e-08
2.25255e-08
0.000278073
-7.50592e-09
-0.000278089
-1.26974e-06
-1.23589e-06
0.000270087
-0.00026807
2.41895e-07
2.47188e-07
-2.31178e-08
2.00401e-08
0.000278195
9.87527e-09
-0.000278151
-5.10098e-08
-2.32817e-08
1.99068e-08
0.00027814
1.05796e-08
-0.000278098
-4.86791e-08
-0.000278246
1.22152e-08
-1.12551e-08
2.48689e-08
-6.93918e-09
0.000278227
-0.00027819
1.21695e-08
-1.12576e-08
2.26006e-08
-7.36433e-09
0.000278174
1.10844e-08
9.79782e-05
-9.79945e-05
-1.99846e-08
9.80155e-05
-9.79887e-05
1.11778e-08
9.79773e-05
-9.79937e-05
-1.9958e-08
9.80147e-05
-9.79879e-05
9.92794e-09
2.2512e-08
0.000278124
-7.55423e-09
-0.000278137
1.22798e-08
2.25481e-08
0.00027808
-7.49418e-09
-0.000278096
0.000270104
-1.27517e-06
-1.23858e-06
-0.000268077
2.39318e-07
2.47185e-07
0.000278188
-2.07686e-08
1.03704e-08
-0.000278149
-4.87013e-08
0.000278147
-2.32612e-08
1.05642e-08
-0.000278105
-4.87205e-08
-1.98817e-08
-6.84177e-09
-9.80097e-05
9.80364e-05
1.11428e-08
5.15518e-09
9.79992e-05
-1.98527e-08
-6.8809e-09
-9.80088e-05
9.80355e-05
1.12407e-08
5.07023e-09
9.79983e-05
1.23075e-06
1.19409e-06
0.000268078
-1.95586e-07
-2.03425e-07
-2.07825e-08
-4.85895e-08
-0.0002782
1.04166e-08
0.000278239
-2.32846e-08
-4.86048e-08
-0.000278156
1.06206e-08
0.000278198
9.87574e-09
-7.48624e-09
2.25353e-08
0.000278174
1.22183e-08
-7.41755e-09
2.25767e-08
0.000278131
-7.01978e-08
0.000229329
3.214e-08
2.23871e-09
-0.000229294
2.25634e-08
0.000193559
-3.73384e-09
-0.000193573
-4.37821e-08
0.000193613
3.43199e-09
-0.000193579
2.87565e-08
0.000229274
-1.32279e-08
8.77976e-10
-0.00022929
-1.41622e-09
0.000250171
3.586e-09
-1.95702e-07
-0.000250048
6.40935e-08
0.000245344
4.21467e-09
-0.00024538
0.00115251
3.56309e-09
-1.39957e-07
1.00837e-06
-7.57666e-07
8.30677e-07
-9.3685e-07
-0.00115257
-4.88188e-08
0.00113144
-1.19987e-07
-1.23086e-06
2.77491e-07
-2.39773e-07
-8.52901e-07
2.66361e-07
-2.12616e-07
9.11163e-07
0.000245418
-1.67273e-08
-0.000245363
-1.02652e-07
-3.67564e-09
0.00115247
-1.41468e-07
-9.36599e-07
8.30765e-07
-7.57421e-07
1.00844e-06
1.4573e-09
0.000250035
2.30674e-09
1.35213e-07
-0.000250145
0.000250199
4.57184e-09
-1.95726e-07
-0.000250079
-1.22525e-08
6.65833e-08
0.000245357
4.14192e-09
-0.000245393
0.00115267
-1.39939e-07
1.01128e-06
-7.57787e-07
8.30776e-07
-9.39745e-07
-0.00115272
-4.87583e-08
0.00113189
1.28066e-06
-1.19981e-07
-8.58422e-07
2.69123e-07
9.16682e-07
-2.15438e-07
-1.23635e-06
2.80337e-07
-2.42617e-07
0.000245431
2.31176e-08
-1.66803e-08
-0.000245376
-1.0512e-07
0.00115261
-1.41446e-07
-9.39516e-07
8.30865e-07
-7.57539e-07
1.01136e-06
0.000250066
1.38386e-09
1.35262e-07
-0.000250173
1.49641e-10
2.86352e-08
-1.31879e-08
8.93516e-10
0.000229277
-4.35879e-08
-0.000193584
3.28291e-09
0.000193618
2.24411e-08
-3.61901e-09
0.000193564
-9.35137e-11
-7.01575e-08
-0.000229296
3.20999e-08
2.14795e-09
0.000229332
2.86668e-08
-1.32094e-08
8.9417e-10
0.000229313
-4.37104e-08
6.83316e-09
-0.000193619
3.36368e-09
0.000193653
2.25775e-08
-5.07643e-09
-3.80483e-09
0.000193599
-7.01734e-08
-0.000229333
3.21049e-08
2.24864e-09
0.000229368
1.45841e-09
2.32439e-09
1.34956e-07
0.000250061
-4.91273e-08
-1.20734e-07
1.27514e-06
-2.39713e-07
2.77462e-07
9.11166e-07
-2.12533e-07
2.66353e-07
-8.528e-07
-1.02564e-07
-0.000245401
-1.67299e-08
0.000245456
-0.00115241
-3.65017e-09
-1.44393e-07
-9.3618e-07
8.30931e-07
-7.56955e-07
1.00856e-06
0.00115236
4.16493e-09
6.40317e-08
0.000245382
3.59227e-09
-1.43014e-07
1.00849e-06
-7.57181e-07
-9.36405e-07
8.30843e-07
-1.41672e-09
-0.000250074
3.59609e-09
-1.95736e-07
0.000250198
1.40551e-09
1.35005e-07
0.000250093
-4.90552e-08
-1.23623e-06
-1.20726e-07
9.16688e-07
-2.15359e-07
-8.58325e-07
2.69114e-07
1.28063e-06
-2.42547e-07
2.80302e-07
2.31309e-08
-1.0503e-07
-0.000245414
-1.66979e-08
0.000245469
-0.00115256
-1.44372e-07
-9.39083e-07
8.31027e-07
-7.57073e-07
1.01147e-06
0.00115251
-1.21939e-08
4.08492e-09
6.65264e-08
0.000245395
-1.43001e-07
1.01142e-06
-7.57302e-07
-9.39307e-07
8.30941e-07
-0.000250106
4.58442e-09
-1.95758e-07
0.000250226
2.26002e-08
0.00027807
-1.01224e-08
-0.000278083
-1.34713e-08
2.24554e-08
0.000278174
-1.00839e-08
-0.000278182
0.000270133
-0.000268098
2.4211e-07
2.44442e-07
0.000278134
1.29855e-08
-0.000278095
-4.87636e-08
2.22495e-08
0.000278233
1.31149e-08
-0.000278199
-4.85969e-08
5.12393e-09
9.7983e-05
-9.80016e-05
9.80226e-05
-6.83282e-09
-9.79935e-05
-1.99368e-08
-9.80117e-05
9.80385e-05
1.12609e-08
9.80013e-05
1.19673e-06
0.000268099
-1.98286e-07
-2.00728e-07
-4.86497e-08
-0.000278146
1.30394e-08
0.000278185
2.21396e-08
-2.07302e-08
-4.84884e-08
-0.00027825
1.31679e-08
0.000278284
-1.00507e-08
2.26244e-08
0.000278121
-1.35273e-08
9.67466e-09
-1.00155e-08
2.24759e-08
0.000278224
-6.88291e-09
-9.80144e-05
9.80435e-05
5.06367e-09
9.8004e-05
-1.79368e-09
0.000250184
4.05185e-09
-1.90549e-07
-0.000250066
6.41039e-08
0.000245359
4.11073e-09
-0.00024539
0.00115239
3.67994e-09
-1.40058e-07
1.00835e-06
-7.54984e-07
8.30738e-07
-9.34133e-07
-0.00115245
-4.88602e-08
0.00113255
-1.20374e-07
-1.1942e-06
2.75013e-07
-2.37111e-07
-8.55586e-07
2.69205e-07
-2.15381e-07
9.1398e-07
0.000245428
-1.67091e-08
-0.000245378
-1.02696e-07
-3.69694e-09
0.00115235
-1.41635e-07
-9.36602e-07
8.28099e-07
-7.5746e-07
1.00573e-06
1.76726e-09
0.000250053
1.90013e-09
1.30076e-07
-0.000250158
-7.02364e-08
0.000229285
3.00476e-08
2.04953e-09
-0.000229247
2.46697e-08
0.000193492
-3.71402e-09
-0.000193508
-4.5902e-08
0.000193548
3.48426e-09
-0.000193512
2.88112e-08
0.000229228
-1.11407e-08
9.95953e-10
-0.000229246
0.000250153
-1.93141e-07
4.24225e-09
-0.000250036
0.00115236
-1.40025e-07
1.00838e-06
-7.57751e-07
8.30751e-07
-9.36863e-07
-0.00115241
-1.22246e-08
6.4073e-08
0.000245291
6.54361e-09
-0.000245324
-4.88322e-08
0.00113154
1.27523e-06
-1.20002e-07
-8.55575e-07
2.69075e-07
9.13818e-07
-2.15355e-07
-1.2309e-06
2.80347e-07
-2.42602e-07
0.00115231
-1.4154e-07
-9.36635e-07
8.30836e-07
-7.57505e-07
1.00845e-06
0.000245362
2.30643e-08
-1.90539e-08
-0.00024531
-1.02609e-07
0.000250023
1.32684e-07
1.66679e-09
-0.000250127
2.87306e-08
2.02035e-10
9.28414e-10
-1.11411e-08
0.000229303
-4.58544e-08
-0.000193605
3.80046e-09
0.00019364
2.47241e-08
-4.27196e-09
0.000193585
-7.02268e-08
-2.43184e-10
-0.000229322
2.20882e-09
3.00243e-08
0.000229361
1.76128e-09
1.92284e-09
1.29822e-07
0.000250079
-4.92122e-08
-1.211e-07
1.23855e-06
-2.37049e-07
2.74987e-07
9.13984e-07
-2.15304e-07
2.69184e-07
-8.55487e-07
-1.02602e-07
-0.000245416
-1.67218e-08
0.000245466
-0.00115229
-3.70578e-09
-1.44553e-07
-9.36167e-07
8.28257e-07
-7.56998e-07
1.00584e-06
0.00115224
4.05135e-09
6.40455e-08
0.000245397
3.6707e-09
-1.43115e-07
1.00849e-06
-7.54503e-07
-9.33696e-07
8.30898e-07
-1.80036e-09
-0.000250093
4.06831e-09
-1.90576e-07
0.000250211
2.87219e-08
-1.11219e-08
1.00265e-09
0.000229267
-4.58286e-08
6.84859e-09
-0.000193552
3.42366e-09
0.000193588
2.46773e-08
-5.13373e-09
-3.77734e-09
0.000193532
-7.02112e-08
-0.000229286
3.00045e-08
2.05495e-09
0.000229324
1.32429e-07
1.67857e-09
0.000250049
-4.91235e-08
-1.23079e-06
-1.20748e-07
9.13825e-07
-2.15273e-07
-8.55478e-07
2.69057e-07
1.27519e-06
-2.42541e-07
2.80316e-07
-0.00115226
-1.44461e-07
-9.36209e-07
8.30993e-07
-7.57043e-07
1.00858e-06
0.0011522
2.30756e-08
-1.02523e-07
-0.000245348
-1.90644e-08
0.0002454
-1.43082e-07
1.00852e-06
-7.57269e-07
-9.36425e-07
8.30912e-07
-1.21721e-08
6.49341e-09
6.40105e-08
0.000245329
-0.000250063
-1.93167e-07
4.24446e-09
0.00025018
-1.77404e-10
0.000229328
2.20052e-09
3.21296e-08
-0.000229292
0.000193557
-3.80073e-09
-0.000193572
0.000193612
3.47074e-09
-0.000193577
1.24502e-10
0.000229272
9.16081e-10
-1.32278e-08
-0.000229289
7.0147e-08
0.000250166
-1.90508e-07
4.27449e-09
-0.000250052
0.00115237
-1.40022e-07
1.00565e-06
-7.57729e-07
8.30723e-07
-9.3414e-07
-0.00115241
-2.24758e-08
6.40843e-08
0.000245337
4.23565e-09
-0.00024537
-4.87688e-08
0.00113134
-1.20037e-07
-1.22547e-06
2.74706e-07
-2.36977e-07
-8.52912e-07
2.66356e-07
-2.126e-07
9.11161e-07
0.00115231
-1.41531e-07
-9.33904e-07
8.30812e-07
-7.57479e-07
1.00573e-06
4.37306e-08
0.000245408
-1.66973e-08
-0.000245356
-1.02647e-07
-2.87393e-08
0.000250038
1.30064e-07
1.60318e-09
-0.00025014
0.000229292
3.21121e-08
2.18432e-09
-0.000229256
-5.17651e-09
0.000193505
-3.63759e-09
-0.000193519
0.000193559
6.75274e-09
3.46734e-09
-0.000193525
0.000229237
-1.32187e-08
8.26522e-10
-0.000229253
-2.86631e-08
1.60059e-09
1.95085e-09
1.32387e-07
0.000250089
-4.92465e-08
-1.21038e-07
1.24122e-06
-2.34158e-07
2.72097e-07
9.11214e-07
-2.12509e-07
-8.52767e-07
2.66409e-07
4.58439e-08
-1.04954e-07
-0.000245458
-1.66902e-08
0.000245513
-0.00115233
-4.92683e-09
-1.4449e-07
-9.36193e-07
8.30939e-07
1.00857e-06
-7.56976e-07
0.00115229
-2.46783e-08
4.00744e-09
6.63691e-08
0.000245438
3.43342e-09
-1.43112e-07
1.00849e-06
-7.57206e-07
-9.36412e-07
8.30861e-07
7.01475e-08
-1.97284e-09
-0.000250103
4.29683e-09
-1.93132e-07
0.000250223
1.20521e-10
9.29453e-10
-1.32088e-08
0.000229311
-0.000193616
3.40409e-09
0.000193652
-3.87075e-09
0.000193596
-2.41593e-10
-0.000229331
2.2112e-09
3.20859e-08
0.000229367
-2.86484e-08
1.29804e-07
1.62001e-09
0.000250065
-4.90545e-08
-1.22536e-06
-1.20793e-07
9.11167e-07
-2.12516e-07
-8.52807e-07
2.66346e-07
1.26971e-06
-2.36915e-07
2.74685e-07
-0.00115226
0.0011522
-1.44462e-07
-9.3348e-07
8.30963e-07
-7.57007e-07
1.00857e-06
4.36532e-08
2.31276e-08
0.000245446
-1.0256e-07
-0.000245394
-1.67089e-08
-1.43093e-07
1.00579e-06
-7.57239e-07
-9.33691e-07
8.30889e-07
-2.24834e-08
-1.2266e-08
4.18019e-09
6.40212e-08
0.000245375
7.01214e-08
0.000250192
-0.000250078
-1.90532e-07
4.52445e-09
-1.31995e-08
8.37066e-10
0.000229276
6.79693e-09
0.000193598
-0.000193565
3.40306e-09
-5.115e-09
-3.70502e-09
0.000193545
0.000229331
-0.000229295
3.20689e-08
2.1936e-09
2.47711e-08
0.000278034
-7.16169e-09
-0.00027805
-1.11648e-08
2.47885e-08
0.000278132
-6.93099e-09
-0.000278149
0.000270082
-0.000268057
2.39449e-07
2.47022e-07
0.000278101
1.00217e-08
-0.000278059
-5.09518e-08
1.99945e-08
0.000278199
9.95035e-09
-0.000278157
-5.09894e-08
5.15346e-09
9.79719e-05
-9.79882e-05
9.80092e-05
-6.81027e-09
-9.79824e-05
-2.21939e-08
-9.79931e-05
9.80222e-05
1.34889e-08
9.79827e-05
1.19128e-06
0.000268059
-1.95664e-07
-2.03296e-07
-5.08419e-08
-0.00027811
1.00681e-08
0.000278152
1.98862e-08
-2.08417e-08
-5.08772e-08
-0.000278208
1.00005e-08
0.00027825
-7.09468e-09
2.47941e-08
0.000278085
-1.12258e-08
9.81527e-09
-6.85886e-09
2.48152e-08
0.000278183
-6.8543e-09
-9.80033e-05
9.80301e-05
5.09123e-09
9.79929e-05
7.01368e-08
0.000250184
-1.90487e-07
4.7775e-09
-0.00025007
0.00115226
-1.40196e-07
1.00568e-06
-7.54998e-07
8.28027e-07
-9.34124e-07
-0.00115231
-2.24721e-08
6.64897e-08
0.000245352
4.16273e-09
-0.000245388
-4.8906e-08
0.00113244
-1.20409e-07
-1.19151e-06
2.72262e-07
-2.34329e-07
-8.52947e-07
2.69188e-07
-2.15341e-07
9.11358e-07
0.00115221
-1.41696e-07
-9.33898e-07
8.28112e-07
-7.54755e-07
1.00576e-06
4.37367e-08
0.000245426
-1.67723e-08
-0.000245371
-1.05132e-07
-2.87252e-08
0.000250057
1.30027e-07
1.17683e-09
-0.000250158
-8.80345e-11
0.000229284
2.21148e-09
3.2082e-08
-0.000229249
0.000193509
-3.6568e-09
-0.000193523
0.000193563
3.41782e-09
-0.000193529
1.27191e-10
0.000229229
8.26221e-10
-1.31835e-08
-0.000229246
0.00022932
2.15597e-09
2.99751e-08
-0.000229282
-5.19782e-09
0.000193546
-3.57865e-09
-0.00019356
0.000193599
6.91431e-09
3.25473e-09
-0.000193566
0.000229263
9.59542e-10
-1.10794e-08
-0.000229281
1.31781e-09
-2.85747e-08
1.32297e-07
1.87643e-09
0.000250052
-4.92242e-08
-1.21152e-07
1.23574e-06
-2.34177e-07
2.7212e-07
9.11084e-07
-2.15194e-07
-8.52639e-07
2.69145e-07
-0.00115203
-3.62199e-09
-1.4465e-07
-9.30583e-07
8.25429e-07
1.00299e-06
-7.51438e-07
0.00115198
4.36834e-08
-1.0506e-07
-0.000245401
-1.67444e-08
0.000245458
3.6074e-09
-1.43272e-07
1.00293e-06
-7.51662e-07
-9.30812e-07
8.25347e-07
-2.24944e-08
4.1081e-09
6.64408e-08
0.000245382
-1.29204e-09
7.00553e-08
-0.000250066
-1.93057e-07
4.06002e-09
0.000250186
-2.86184e-08
1.29761e-07
1.19912e-09
0.000250083
-4.92e-08
-1.19139e-06
-1.21157e-07
9.11365e-07
-2.15258e-07
-8.5285e-07
2.69172e-07
1.23586e-06
-2.34264e-07
2.72236e-07
-0.00115216
-1.44614e-07
-9.33467e-07
8.28267e-07
-7.5429e-07
1.00587e-06
0.0011521
4.36447e-08
2.33049e-08
0.000245464
-1.05044e-07
-0.000245409
-1.67832e-08
-1.43257e-07
1.00583e-06
-7.54511e-07
-9.33692e-07
8.28187e-07
-2.24808e-08
-1.22219e-08
4.10861e-09
6.64279e-08
0.00024539
7.00921e-08
-0.000250097
-1.90506e-07
4.7965e-09
0.000250211
1.33991e-10
8.1873e-10
-1.31515e-08
0.000229268
-0.000193569
3.34922e-09
0.000193603
-3.72325e-09
0.000193549
-8.74562e-11
-0.000229288
2.2344e-09
3.20312e-08
0.000229324
9.63554e-10
-1.10453e-08
0.000229302
6.95418e-09
0.000193639
-0.000193605
3.18563e-09
-5.13538e-09
-3.64397e-09
0.000193586
-0.000229321
2.18145e-09
2.99218e-08
0.000229359
9.7971e-05
-9.79874e-05
9.80084e-05
-9.79816e-05
9.79753e-05
-9.79917e-05
9.80127e-05
-9.79858e-05
0.000268071
-1.98154e-07
-2.03458e-07
1.99344e-08
-5.08975e-08
-0.000278201
9.91891e-09
1.98018e-08
-4.8567e-08
-0.000278149
1.06362e-08
-1.11948e-08
-7.00426e-09
2.48225e-08
0.000278176
-1.1193e-08
-7.43197e-09
2.2551e-08
0.000278124
9.80292e-05
-9.80025e-05
9.7992e-05
9.80335e-05
-9.80068e-05
9.79963e-05
1.00864e-06
-7.56806e-07
8.30999e-07
-9.36028e-07
3.14307e-10
-1.45893e-07
-2.25114e-08
6.39912e-08
4.12421e-09
0.000245413
-2.85791e-08
0.000250088
1.29585e-07
2.83949e-09
-1.50145e-10
-5.06117e-09
-3.77119e-09
0.000193585
0.000229314
-1.31737e-08
8.47292e-10
4.76212e-11
-2.25028e-08
6.64034e-08
0.000245428
4.04812e-09
-5.07836e-09
0.000193625
-3.7106e-09
9.80129e-05
9.80172e-05
-7.34306e-10
1.43926e-08
0.000143282
-3.403e-10
-0.000143295
-0.000171014
-3.62899e-10
3.02091e-11
0.000171047
-0.000223249
3.09374e-08
4.31949e-09
0.000223285
-6.92078e-08
-1.31945e-08
8.84831e-10
-0.000229273
1.08455e-12
2.86807e-08
-0.000171028
1.25254e-11
7.95606e-10
-0.000223265
3.0539e-08
1.6059e-09
0.000143311
-2.6608e-08
-7.92065e-05
7.92347e-05
-1.59159e-09
3.37804e-09
0.000193558
6.78004e-09
-4.3712e-08
0.000263067
-1.905e-08
-7.78836e-10
3.06276e-08
-0.000263082
0.000263108
-4.31252e-09
-5.92511e-08
3.63431e-10
-7.92259e-05
1.90671e-08
7.92153e-05
-0.000263093
2.65654e-08
0.000263133
-5.9211e-08
-3.58638e-09
-5.18605e-09
2.24355e-08
3.06284e-08
7.92435e-05
3.70021e-10
-3.09533e-08
-0.000143266
3.2153e-08
2.13881e-09
5.11561e-11
-7.01973e-08
0.000170996
7.24953e-10
2.12634e-11
-0.00017101
0.000223229
-1.44049e-08
3.05874e-08
-0.000223245
3.83766e-11
-6.92265e-08
-0.000143279
9.80071e-05
-6.75672e-09
-2.01015e-08
5.10498e-09
1.12327e-08
1.24262e-08
-7.51898e-10
0.000143351
-1.24144e-10
-0.000143363
-0.000223332
2.89404e-08
4.31471e-09
0.00022337
-6.93524e-08
-0.000171047
-3.11337e-10
-6.4436e-11
0.000171077
6.75576e-10
-1.11418e-08
-0.000229304
6.23789e-11
3.12001e-08
8.75377e-10
-0.000223353
3.31298e-08
-0.000171059
2.56647e-11
1.4269e-09
0.000143378
-2.44683e-08
-7.92522e-05
7.9278e-05
-1.40985e-09
3.90141e-09
0.000193581
6.81402e-09
-4.59791e-08
0.000263176
-1.69472e-08
-8.52987e-10
3.31763e-08
-0.000263196
0.000263222
-4.29943e-09
-6.18251e-08
1.48782e-10
-7.92693e-05
1.69638e-08
7.9261e-05
-0.000263202
2.44256e-08
0.000263248
-6.17795e-08
-4.23703e-09
-5.10262e-09
2.47181e-08
3.31725e-08
7.92868e-05
-2.89543e-08
3.19093e-10
-0.000143335
2.43017e-09
3.00887e-08
-8.8661e-11
-7.27015e-08
0.000223312
-1.24437e-08
3.07678e-08
-0.00022333
0.000171028
7.42158e-10
3.6169e-11
-0.00017104
-7.17803e-08
-5.44028e-11
-0.000143347
9.79908e-05
-6.7835e-09
-2.23473e-08
5.16176e-09
1.34604e-08
-6.95269e-09
-7.03256e-09
0.000213708
1.01561e-08
1.2187e-08
-0.000213716
-8.05258e-05
-1.23805e-08
-1.19922e-08
8.05501e-05
-8.05145e-05
-1.22814e-08
-1.21113e-08
8.05389e-05
9.49335e-09
-8.05422e-05
9.43321e-09
-8.0531e-05
-2.49973e-08
-2.72474e-08
0.000213736
-3.60423e-08
3.33952e-08
-0.000221861
0.000221899
2.50229e-08
-5.99024e-08
0.000250636
-1.58273e-08
5.86356e-08
2.95496e-08
-0.000250684
-5.10611e-08
9.85286e-09
0.00027817
2.00912e-08
-2.31129e-08
0.00018299
1.6144e-08
-9.50548e-09
-0.000183004
0.000250699
-9.75027e-08
-5.23163e-08
0.000183022
1.19951e-08
-1.01544e-08
3.10667e-08
-0.000221882
-3.61977e-08
3.13814e-08
-0.000221801
0.000221839
2.72701e-08
-6.00838e-08
0.000250541
-1.57971e-08
6.35448e-08
2.95373e-08
-0.000250596
-4.87319e-08
1.05517e-08
0.000278114
1.99592e-08
-2.32727e-08
0.000182946
1.4231e-08
-9.4504e-09
-0.000182958
0.000250611
-1.02379e-07
-5.24675e-08
0.000182975
1.21076e-08
-1.21864e-08
3.13146e-08
-0.000221822
1.58158e-08
-1.61623e-08
0.000221878
3.10686e-08
-0.000183008
-3.33439e-08
0.000183039
2.4808e-08
-7.04028e-09
-1.1164e-08
1.22942e-08
-0.000250651
3.6029e-08
0.000250714
-9.74469e-08
-5.23187e-08
5.86161e-08
2.95197e-08
0.000221916
-5.98422e-08
1.57811e-08
-1.42468e-08
0.000221818
3.13182e-08
-0.000182963
-3.13335e-08
0.000182993
2.25337e-08
-7.46744e-09
-1.11616e-08
1.22515e-08
-0.000250556
3.61901e-08
0.000250626
-1.02321e-07
-5.2474e-08
6.3526e-08
2.95083e-08
0.000221856
-6.00221e-08
1.23984e-08
1.23068e-08
-0.000213689
8.05178e-05
6.94851e-09
-8.05343e-05
8.05066e-05
7.02471e-09
-8.0523e-05
-0.000213697
-0.000221929
-3.59723e-08
3.31936e-08
2.4905e-08
-5.96414e-08
-1.58026e-08
0.000250697
-0.000250745
5.86131e-08
2.94398e-08
1.6221e-08
0.00018306
-9.45132e-09
-0.000183074
-5.0841e-08
9.93966e-09
1.98804e-08
-2.31286e-08
-1.01828e-08
-0.00022195
3.11152e-08
-9.72658e-08
-5.23161e-08
1.19821e-08
-0.000221869
-3.6144e-08
3.11827e-08
2.71619e-08
-5.98146e-08
-1.57628e-08
0.000250602
-0.000250657
6.35335e-08
2.94222e-08
1.4316e-08
0.000183016
-9.39431e-09
-0.000183028
-4.85041e-08
1.06563e-08
1.97425e-08
-2.33059e-08
-1.22068e-08
-0.00022189
3.1373e-08
-1.0213e-07
-5.24898e-08
1.21117e-08
-0.000213766
1.23221e-08
1.22136e-08
6.97393e-09
8.05495e-05
-8.05659e-05
7.05313e-09
8.05383e-05
-8.05547e-05
-0.000213774
9.8005e-05
-2.00353e-08
1.11116e-08
9.80042e-05
-2.00095e-08
1.1207e-08
-6.96658e-09
-7.03221e-09
0.000213708
1.2232e-08
1.01242e-08
-0.000213717
-8.0526e-05
-1.24037e-08
-1.19778e-08
8.05504e-05
-8.05125e-05
-1.22822e-08
-1.21147e-08
8.05369e-05
9.4814e-09
-8.05425e-05
9.43396e-09
-8.0529e-05
-2.70778e-08
-2.51915e-08
0.000213736
3.14479e-08
-3.60711e-08
-0.000221862
0.0002219
2.71046e-08
-6.00902e-08
0.000250635
-1.58398e-08
6.36569e-08
2.69887e-08
-0.000250687
1.03456e-08
-4.87514e-08
0.000278163
-2.07634e-08
0.000182991
1.42152e-08
-9.49559e-09
-0.000183003
0.000183021
1.19757e-08
0.000250702
-1.025e-07
-4.97772e-08
-1.22289e-08
3.12805e-08
-0.000221883
3.14001e-08
-3.62117e-08
-0.000221797
0.000221839
2.52155e-08
-6.22897e-08
0.000250544
-1.58044e-08
6.36104e-08
3.20706e-08
-0.000250601
1.05355e-08
-4.87729e-08
0.000278122
-2.32468e-08
0.000182941
1.42443e-08
-9.4492e-09
-0.000182953
0.000182971
1.21109e-08
0.000250616
-1.02476e-07
-5.49941e-08
-1.01245e-08
3.3519e-08
-0.000221822
-1.42301e-08
0.000221879
1.58285e-08
3.12796e-08
-0.000183008
-3.14035e-08
0.000183038
-7.51928e-09
2.25184e-08
9.90228e-09
3.60598e-08
-0.00025065
0.000250717
-1.02444e-07
-4.978e-08
0.000221917
-6.00318e-08
6.36355e-08
2.69632e-08
-1.42614e-08
0.000221814
1.57882e-08
3.35221e-08
-0.000182959
-3.13533e-08
0.000182988
-7.45615e-09
2.2558e-08
1.22505e-08
3.62053e-08
-0.000250559
0.000250632
-1.02417e-07
-5.50042e-08
0.000221856
-6.22273e-08
6.35924e-08
3.20417e-08
1.24262e-08
1.23065e-08
-0.000213689
8.05181e-05
6.96138e-09
-8.05345e-05
8.05046e-05
7.02566e-09
-8.05211e-05
-0.000213698
-9.8026e-05
1.11728e-08
5.12326e-09
-1.99307e-08
-6.82638e-09
-9.80251e-05
1.12696e-08
5.03633e-09
-1.99013e-08
-6.86295e-09
-0.000213728
1.23835e-08
1.22602e-08
-2.70477e-08
-2.51637e-08
0.000213755
6.97323e-09
8.0534e-05
9.46738e-09
7.04094e-09
8.05205e-05
9.41699e-09
1.22399e-08
1.01287e-08
-1.19769e-08
8.05583e-05
-1.2115e-08
8.05449e-05
-1.42676e-08
1.58165e-08
0.000221913
-0.000221934
-1.22494e-08
3.13075e-08
-0.00025068
3.6023e-08
-1.02319e-07
-4.97868e-08
0.000250748
-7.45059e-09
2.25554e-08
-0.000278213
9.84882e-09
-0.000183043
-3.12986e-08
1.1971e-08
0.000183073
-0.000183056
-9.45055e-09
-0.000250733
6.36274e-08
2.69083e-08
2.70185e-08
-5.98975e-08
0.000221951
-1.43058e-08
1.5767e-08
0.000221848
-0.000221873
-1.01346e-08
3.35584e-08
-0.00025059
3.6177e-08
-1.02285e-07
-5.50194e-08
0.000250662
-7.38082e-09
2.25987e-08
-0.000278172
1.21848e-08
-0.000182994
-3.1251e-08
1.2116e-08
0.000183023
-0.000183006
-9.4019e-09
-0.000250647
6.35947e-08
3.19742e-08
2.51369e-08
-6.2088e-08
0.00022189
-0.000221896
3.13574e-08
-3.60412e-08
-5.99663e-08
1.42462e-08
0.000183026
-1.58224e-08
0.000250665
6.36284e-08
2.69363e-08
1.03954e-08
-4.8648e-08
-2.07749e-08
3.12911e-08
-1.02382e-07
-4.97851e-08
-0.000221831
3.13057e-08
-3.61895e-08
-6.21588e-08
1.42798e-08
0.000182976
-1.57777e-08
0.000250574
6.35907e-08
3.20077e-08
1.05904e-08
-4.86639e-08
-2.3265e-08
3.35376e-08
-1.02351e-07
-5.50113e-08
-6.98132e-09
-7.0481e-09
0.000213747
-8.05419e-05
-1.23638e-08
8.05662e-05
-8.05284e-05
-1.22359e-08
8.05528e-05
0.000213774
-7.45915e-10
1.24257e-08
0.000143352
-1.27715e-10
-0.000143364
-0.000171049
-2.91208e-10
0.000171081
-0.000223333
2.89504e-08
4.38019e-09
0.000223374
-7.17608e-08
-1.32185e-08
6.62767e-10
-0.00022931
2.87125e-08
-0.000171063
8.20369e-10
-0.000223354
3.30927e-08
1.44268e-09
0.000143379
-2.44589e-08
-7.9251e-05
7.92768e-05
-1.4305e-09
3.46617e-09
0.000193593
-4.38158e-08
0.000263174
-1.69431e-08
-8.04276e-10
3.31784e-08
-0.000263193
0.000263219
-4.36797e-09
-6.1791e-08
1.5525e-10
-7.92681e-05
1.69639e-08
7.92598e-05
-0.0002632
2.44181e-08
0.000263245
-6.17496e-08
-3.77053e-09
2.25664e-08
3.31777e-08
7.92856e-05
2.96829e-10
-2.89719e-08
-0.000143336
3.2166e-08
2.45584e-09
-7.02118e-08
0.00017103
7.37637e-10
-0.000171044
0.000223313
-1.24493e-08
3.3146e-08
-0.000223334
-7.17679e-08
-0.000143348
-0.000143297
3.56635e-10
-3.09121e-08
1.61918e-09
0.000143326
7.44657e-10
0.000171033
2.2042e-11
-1.43856e-08
0.000223269
8.10953e-10
3.05094e-08
3.21129e-08
2.1438e-09
0.000229312
5.30095e-11
-7.01722e-08
-3.18743e-10
0.000171065
3.89035e-11
4.33158e-09
0.000223305
-6.91903e-08
7.92328e-05
1.91019e-08
-7.92522e-05
2.98941e-10
-3.65457e-09
-0.000193598
2.24466e-08
2.6474e-08
-0.000263145
-4.34298e-09
-5.91154e-08
0.000263185
-1.63675e-09
7.92609e-05
-0.000263159
-8.29251e-10
3.06359e-08
-7.92241e-05
-2.65191e-08
-1.90875e-08
0.000263119
3.06305e-08
3.3148e-09
-4.36414e-08
-5.91658e-08
0.000143313
-7.562e-10
1.43809e-08
-1.31793e-08
8.98719e-10
3.32005e-12
2.85966e-08
-3.44344e-10
-0.000171051
2.98074e-11
0.000171084
3.08978e-08
-0.000223289
-6.91674e-08
0.000223325
0.000143342
1.1367e-11
3.04728e-08
-0.000143368
2.84126e-10
-2.89267e-08
1.45823e-09
0.000143395
7.56288e-10
0.000171067
-1.24117e-08
0.000223353
8.37545e-10
3.30622e-08
3.21246e-08
2.46389e-09
0.000229349
-7.01871e-08
-1.04681e-10
0.0001711
4.394e-09
0.000223394
-7.1739e-08
1.69999e-08
7.92773e-05
-7.92944e-05
8.1378e-11
-3.8371e-09
-0.000193633
-5.04785e-09
2.25904e-08
-0.000263252
2.43272e-08
-4.40943e-09
-6.16539e-08
0.000263297
-0.000263271
-8.56302e-10
3.3186e-08
-1.47326e-09
7.93031e-05
-7.92685e-05
-2.43693e-08
-1.69826e-08
0.000263226
3.31811e-08
3.39962e-09
6.80588e-09
-4.37467e-08
-6.17048e-08
-7.65504e-10
1.23981e-08
0.000143383
-1.32031e-08
6.80504e-10
2.86283e-08
-0.000171086
-2.74444e-10
0.000171118
-0.000223373
2.89063e-08
-7.17212e-08
0.000223414
3.30153e-08
0.000143411
-6.99998e-09
-7.03872e-09
0.000213715
1.22901e-08
1.01211e-08
-0.000213723
-8.0515e-05
-1.23951e-08
-1.20001e-08
8.05394e-05
-8.05287e-05
-1.23292e-08
-1.20635e-08
8.05531e-05
9.46125e-09
-8.05315e-05
9.41923e-09
-8.05451e-05
-2.7198e-08
-2.51331e-08
0.000213742
3.1677e-08
-3.85524e-08
-0.000221802