/*--------------------------------*- C++ -*----------------------------------*\
| =========                 |                                                 |
| \\      /  F ield         | OpenFOAM: The Open Source CFD Toolbox           |
|  \\    /   O peration     | Version:  v1906                                 |
|   \\  /    A nd           | Web:      www.OpenFOAM.com                      |
|    \\/     M anipulation  |                                                 |
\*---------------------------------------------------------------------------*/
FoamFile
{
    version     2.0;
    format      ascii;
    class       volVectorField;
    location    "1000";
    object      U;
}
// * * * * * * * * * * * * * * * * * * * * * * * * * * * * * * * * * * * * * //

dimensions      [0 1 -1 0 0 0 0];


internalField   nonuniform List<vector> 
42840
(
(-9.59984e-06 -9.5858e-06 0.112516)
(1.11282e-05 -5.97421e-06 0.107501)
(-5.97568e-06 1.11437e-05 0.1075)
(-2.39911e-05 -2.39946e-05 0.104199)
(-2.38672e-05 -2.38742e-05 0.104201)
(2.39862e-05 2.39798e-05 0.104199)
(-4.16754e-05 -4.16778e-05 0.104316)
(-5.95338e-06 -1.11037e-05 0.107499)
(5.9464e-06 -1.11058e-05 0.107498)
(-6.04542e-06 -1.12202e-05 0.107492)
(6.04309e-06 -1.12195e-05 0.107491)
(-2.39888e-05 2.3954e-05 0.104199)
(4.16786e-05 -4.16707e-05 0.104316)
(-1.11339e-05 -5.97203e-06 0.1075)
(-1.11089e-05 5.9599e-06 0.107498)
(-1.12468e-05 -6.06763e-06 0.107493)
(-1.12215e-05 6.05261e-06 0.107491)
(1.111e-05 5.95026e-06 0.107498)
(1.12438e-05 -6.06778e-06 0.107494)
(1.12248e-05 6.04426e-06 0.107491)
(2.39607e-05 -2.40031e-05 0.104199)
(-4.16633e-05 4.16898e-05 0.104316)
(5.97715e-06 1.1144e-05 0.1075)
(-6.06756e-06 1.12582e-05 0.107493)
(6.07416e-06 1.12554e-05 0.107493)
(4.16845e-05 4.16666e-05 0.104316)
(1.12669e-05 6.0775e-06 0.107489)
(6.1078e-06 1.12972e-05 0.107491)
(-2.90719e-07 -1.66165e-05 0.0913963)
(7.24084e-07 7.11227e-06 0.082193)
(-1.20764e-06 -1.20787e-05 0.0822527)
(-2.40015e-07 4.99874e-06 0.0913435)
(-2.64053e-06 4.33108e-06 0.0715115)
(3.29052e-06 -5.94157e-06 0.0715733)
(-1.66443e-05 -3.13828e-07 0.0913958)
(7.13492e-06 6.5522e-07 0.0821922)
(-1.20889e-05 -1.18366e-06 0.0822532)
(5.03494e-06 -2.48888e-07 0.091344)
(9.59205e-06 -9.58459e-06 0.112516)
(-9.59163e-06 9.60784e-06 0.112515)
(9.59255e-06 9.6056e-06 0.112515)
(-9.87774e-06 -9.86428e-06 0.112489)
(9.872e-06 -9.86201e-06 0.112489)
(-9.86818e-06 9.88603e-06 0.112488)
(9.87214e-06 9.88178e-06 0.112488)
(2.72704e-05 -6.95757e-07 0.09856)
(-8.74117e-06 3.12188e-06 0.0929748)
(1.39386e-05 -2.50933e-06 0.109933)
(1.11679e-05 -6.00464e-06 0.107499)
(2.0424e-05 -7.77004e-06 0.0930395)
(1.40375e-05 -2.52873e-06 0.109928)
(-8.15012e-06 -4.42737e-07 0.0984983)
(4.26412e-06 -2.60995e-06 0.0715091)
(-5.88701e-06 3.25243e-06 0.0715748)
(-6.95932e-07 2.72429e-05 0.0985602)
(-2.50742e-06 1.39552e-05 0.109932)
(3.15785e-06 -8.77503e-06 0.0929756)
(-6.00522e-06 1.11838e-05 0.107498)
(-2.526e-06 1.40553e-05 0.109927)
(-7.79224e-06 2.04774e-05 0.0930393)
(-4.24038e-07 -8.11727e-06 0.0984983)
(-3.53061e-06 -3.53524e-06 0.087518)
(-3.51844e-06 -3.53682e-06 0.0875167)
(4.1742e-05 4.1725e-05 0.104315)
(9.96186e-06 6.89616e-06 0.0875758)
(6.95766e-06 9.93616e-06 0.087574)
(-3.57075e-06 -3.49556e-06 0.0875499)
(-3.47552e-06 -3.57855e-06 0.0875486)
(2.66639e-06 4.29178e-06 0.0715127)
(-3.29551e-06 -5.91494e-06 0.0715738)
(4.3184e-06 2.64887e-06 0.0715116)
(-5.91525e-06 -3.33356e-06 0.0715732)
(3.53171e-06 3.53029e-06 0.087519)
(3.54957e-06 3.52435e-06 0.0875166)
(-4.17343e-05 -4.1735e-05 0.104315)
(-6.89666e-06 -9.95853e-06 0.0875756)
(-9.95119e-06 -6.9557e-06 0.087574)
(-3.32124e-06 -5.88794e-06 0.071589)
(2.63506e-06 4.3027e-06 0.0715281)
(-5.88794e-06 -3.36063e-06 0.0715885)
(4.33018e-06 2.61611e-06 0.0715269)
(2.39166e-05 2.3907e-05 0.1042)
(-6.90825e-06 -9.92334e-06 0.0875915)
(-9.91533e-06 -6.96937e-06 0.0875899)
(3.51117e-06 3.54859e-06 0.087535)
(3.56926e-06 3.50072e-06 0.0875326)
(3.24062e-07 -1.66194e-05 0.0913961)
(-6.69725e-07 7.16016e-06 0.0821923)
(1.17972e-06 -1.21193e-05 0.0822522)
(2.43412e-07 5.00837e-06 0.0913434)
(-7.02282e-07 -2.7275e-05 0.09856)
(3.1742e-06 8.74698e-06 0.0929752)
(-2.50471e-06 -1.39318e-05 0.109933)
(-5.98297e-06 -1.11437e-05 0.107497)
(-7.77668e-06 -2.04361e-05 0.0930381)
(-2.52395e-06 -1.40314e-05 0.109928)
(-3.98643e-07 8.14238e-06 0.0984981)
(7.06838e-07 -2.72766e-05 0.0985599)
(-3.15639e-06 8.80322e-06 0.0929736)
(2.49365e-06 -1.39309e-05 0.109932)
(5.97815e-06 -1.11446e-05 0.107496)
(7.77099e-06 -2.04681e-05 0.0930378)
(2.51516e-06 -1.40291e-05 0.109927)
(4.21073e-07 8.15174e-06 0.0984979)
(-2.38118e-07 4.9872e-06 0.091359)
(-1.21862e-06 -1.20354e-05 0.0822695)
(7.02987e-07 7.11977e-06 0.0822099)
(-2.90274e-07 -1.65983e-05 0.0914118)
(2.42874e-07 4.99649e-06 0.091359)
(1.20069e-06 -1.20966e-05 0.082269)
(-6.49472e-07 7.17436e-06 0.0822093)
(3.24382e-07 -1.66012e-05 0.0914117)
(-3.98652e-07 8.08962e-06 0.0985086)
(-6.01892e-06 -1.11889e-05 0.107494)
(-7.77756e-06 -2.04128e-05 0.0930525)
(-2.56509e-06 -1.42221e-05 0.109918)
(3.15731e-06 8.74616e-06 0.0929896)
(-2.54691e-06 -1.41337e-05 0.109923)
(-7.05574e-07 -2.72802e-05 0.0985704)
(4.21569e-07 8.0993e-06 0.0985083)
(6.0148e-06 -1.11892e-05 0.107494)
(7.77428e-06 -2.04432e-05 0.0930522)
(2.55856e-06 -1.42188e-05 0.109917)
(-3.13706e-06 8.80231e-06 0.0929881)
(2.53758e-06 -1.41319e-05 0.109922)
(7.09334e-07 -2.72805e-05 0.0985703)
(-3.51275e-06 3.54045e-06 0.0875164)
(-3.50139e-06 3.4739e-06 0.0875174)
(4.17354e-05 -4.17291e-05 0.104316)
(6.89146e-06 -9.95174e-06 0.0875745)
(9.89698e-06 -6.89747e-06 0.0875767)
(-4.27355e-06 2.57656e-06 0.0715095)
(5.87975e-06 -3.26198e-06 0.0715749)
(3.31638e-06 -5.9129e-06 0.0715885)
(-2.60848e-06 4.34227e-06 0.0715269)
(-2.39157e-05 2.38823e-05 0.1042)
(6.90066e-06 -9.91497e-06 0.0875904)
(9.86244e-06 -6.90653e-06 0.0875926)
(-3.49002e-06 3.55827e-06 0.0875324)
(-3.51817e-06 3.45211e-06 0.0875334)
(5.85113e-06 -3.28725e-06 0.0715901)
(-4.28429e-06 2.54526e-06 0.0715249)
(-2.72864e-05 -7.03409e-07 0.0985596)
(8.76376e-06 3.14968e-06 0.0929742)
(-1.39402e-05 -2.50314e-06 0.109932)
(-1.11732e-05 -6.00299e-06 0.107498)
(-2.04495e-05 -7.79898e-06 0.0930387)
(-1.40462e-05 -2.52291e-06 0.109927)
(8.16091e-06 -4.25887e-07 0.098498)
(-1.66387e-05 2.69409e-07 0.0913958)
(7.11141e-06 -6.74421e-07 0.0821916)
(-1.20765e-05 1.16449e-06 0.0822533)
(5.03127e-06 2.7404e-07 0.0913441)
(-2.72856e-05 6.8714e-07 0.0985596)
(-1.39378e-05 2.50057e-06 0.109932)
(8.75612e-06 -3.13522e-06 0.0929738)
(-1.11471e-05 5.98981e-06 0.107495)
(-1.40354e-05 2.52084e-06 0.109927)
(-2.0433e-05 7.74139e-06 0.0930386)
(8.16254e-06 4.27631e-07 0.0984981)
(5.02321e-06 -2.49543e-07 0.0913596)
(-1.2046e-05 -1.1952e-06 0.08227)
(7.14238e-06 6.31884e-07 0.0822091)
(-1.66267e-05 -3.1522e-07 0.0914113)
(8.10928e-06 -4.27287e-07 0.0985085)
(-1.12162e-05 -6.04098e-06 0.107496)
(-2.0425e-05 -7.80322e-06 0.0930531)
(-1.42346e-05 -2.56654e-06 0.109917)
(8.76405e-06 3.12917e-06 0.0929887)
(-1.414e-05 -2.54725e-06 0.109922)
(-2.72889e-05 -7.07226e-07 0.09857)
(5.01917e-06 2.70465e-07 0.0913596)
(-1.20474e-05 1.17981e-06 0.0822701)
(7.11963e-06 -6.54601e-07 0.0822085)
(-1.66213e-05 2.67073e-07 0.0914113)
(8.11051e-06 4.24413e-07 0.0985085)
(-1.11923e-05 6.02644e-06 0.107493)
(-1.4224e-05 2.56226e-06 0.109917)
(-2.04099e-05 7.74297e-06 0.093053)
(-1.41378e-05 2.54272e-06 0.109922)
(8.75483e-06 -3.11815e-06 0.0929882)
(-2.72879e-05 6.85425e-07 0.09857)
(1.66127e-05 -3.09409e-07 0.0913964)
(-7.11934e-06 6.41819e-07 0.082192)
(1.20839e-05 -1.1683e-06 0.0822535)
(-5.00927e-06 -2.58208e-07 0.0913437)
(2.72628e-05 7.02129e-07 0.0985598)
(1.39369e-05 2.49378e-06 0.109932)
(-8.75574e-06 -3.17889e-06 0.0929749)
(1.11491e-05 5.98133e-06 0.107496)
(1.4035e-05 2.5152e-06 0.109927)
(2.04458e-05 7.76541e-06 0.0930384)
(-8.14601e-06 3.99367e-07 0.0984985)
(1.66063e-05 3.09163e-07 0.0913963)
(-7.13412e-06 -6.93363e-07 0.0821932)
(1.21074e-05 1.16652e-06 0.0822528)
(-5.00459e-06 2.21804e-07 0.0913438)
(-8.097e-06 -4.42333e-07 0.0985088)
(1.12124e-05 -6.04093e-06 0.107496)
(2.04003e-05 -7.77336e-06 0.0930539)
(1.42272e-05 -2.57119e-06 0.109918)
(-8.73901e-06 3.10206e-06 0.0929893)
(1.414e-05 -2.55306e-06 0.109923)
(2.72721e-05 -6.9563e-07 0.0985704)
(-4.99701e-06 -2.57382e-07 0.0913593)
(1.20642e-05 -1.18925e-06 0.0822703)
(-7.1317e-06 6.21337e-07 0.082209)
(1.65947e-05 -3.09305e-07 0.0914119)
(-8.09308e-06 3.9843e-07 0.0985089)
(1.11948e-05 6.01684e-06 0.107494)
(1.42242e-05 2.5567e-06 0.109917)
(2.04222e-05 7.76655e-06 0.0930528)
(1.41381e-05 2.53639e-06 0.109922)
(-8.75397e-06 -3.16036e-06 0.0929894)
(2.72644e-05 7.02924e-07 0.0985702)
(-4.99245e-06 2.19601e-07 0.0913593)
(1.2077e-05 1.18273e-06 0.0822696)
(-7.14329e-06 -6.72256e-07 0.0822101)
(1.6589e-05 3.08688e-07 0.0914119)
(3.51662e-06 -3.53297e-06 0.0875151)
(3.50727e-06 -3.54853e-06 0.0875186)
(-4.17215e-05 4.17477e-05 0.104315)
(-9.93389e-06 6.90567e-06 0.087575)
(-6.92673e-06 9.96281e-06 0.0875761)
(2.64216e-06 -4.31271e-06 0.0715127)
(-3.3107e-06 5.92295e-06 0.0715741)
(-5.86012e-06 3.27659e-06 0.07159)
(4.27441e-06 -2.57979e-06 0.0715245)
(2.3889e-05 -2.3931e-05 0.1042)
(-9.89839e-06 6.91486e-06 0.0875908)
(-6.93613e-06 9.9269e-06 0.087592)
(3.53415e-06 -3.51201e-06 0.0875311)
(3.48554e-06 -3.56845e-06 0.0875346)
(-3.33595e-06 5.89465e-06 0.0715893)
(2.61025e-06 -4.32389e-06 0.0715281)
(7.06032e-07 2.72478e-05 0.0985598)
(2.50042e-06 1.39538e-05 0.109932)
(-3.16529e-06 -8.76772e-06 0.0929745)
(6.00918e-06 1.11815e-05 0.107497)
(2.52245e-06 1.40506e-05 0.109927)
(7.82037e-06 2.04637e-05 0.0930386)
(4.20837e-07 -8.12713e-06 0.0984984)
(-2.99215e-07 1.65889e-05 0.091397)
(6.82005e-07 -7.13402e-06 0.0821939)
(-1.18223e-06 1.21106e-05 0.0822534)
(-2.44488e-07 -4.98716e-06 0.0913436)
(3.12893e-07 1.65991e-05 0.0913964)
(-7.18047e-07 -7.12586e-06 0.0821928)
(1.24598e-06 1.20925e-05 0.082253)
(2.58958e-07 -5.00052e-06 0.0913439)
(-4.19895e-07 -8.05998e-06 0.0985088)
(-6.04178e-06 1.12273e-05 0.107496)
(-2.56804e-06 1.42442e-05 0.109917)
(-7.79542e-06 2.04527e-05 0.0930537)
(-2.54952e-06 1.41558e-05 0.109922)
(3.13964e-06 -8.77441e-06 0.0929901)
(-6.96427e-07 2.72414e-05 0.0985706)
(4.21998e-07 -8.06932e-06 0.0985089)
(6.04577e-06 1.12267e-05 0.107495)
(2.56609e-06 1.42391e-05 0.109917)
(7.82379e-06 2.04389e-05 0.0930529)
(2.54454e-06 1.41541e-05 0.109922)
(-3.14632e-06 -8.767e-06 0.0929889)
(7.10584e-07 2.72457e-05 0.0985702)
(-2.35895e-07 -4.97028e-06 0.091359)
(-1.19922e-06 1.20782e-05 0.0822702)
(6.60843e-07 -7.14331e-06 0.0822108)
(-3.02611e-07 1.65645e-05 0.0914126)
(2.55569e-07 -4.98267e-06 0.0913594)
(1.25811e-06 1.20483e-05 0.0822699)
(-6.96912e-07 -7.13377e-06 0.0822097)
(3.16372e-07 1.6574e-05 0.0914121)
(-4.30948e-06 -2.6541e-06 0.0715121)
(5.93409e-06 3.2809e-06 0.0715736)
(-2.6561e-06 -4.30473e-06 0.0715118)
(3.35075e-06 5.90187e-06 0.0715733)
(-2.39166e-05 -2.39221e-05 0.1042)
(9.9258e-06 6.90568e-06 0.0875917)
(6.97039e-06 9.90151e-06 0.0875899)
(-3.54891e-06 -3.51436e-06 0.087534)
(-3.4961e-06 -3.55576e-06 0.0875326)
(5.90667e-06 3.30648e-06 0.0715889)
(-4.32121e-06 -2.62302e-06 0.0715275)
(3.37751e-06 5.87407e-06 0.0715885)
(-2.62437e-06 -4.31587e-06 0.0715272)
(1.43195e-05 2.57458e-06 0.109912)
(-8.75853e-06 -3.14215e-06 0.0930039)
(-8.04798e-06 3.95767e-07 0.0985195)
(-7.15899e-06 -6.53934e-07 0.0822269)
(-4.98428e-06 2.18225e-07 0.091375)
(-3.12629e-06 -8.7733e-06 0.0930034)
(-6.75558e-07 -7.14237e-06 0.0822265)
(-4.33316e-06 -2.59453e-06 0.0715427)
(-2.59621e-06 -4.32848e-06 0.0715424)
(-6.61572e-07 4.21219e-06 0.076849)
(1.45182e-07 -7.43221e-06 0.0786691)
(-1.13219e-06 -1.59903e-05 0.0899176)
(-2.38453e-07 4.99133e-06 0.0913513)
(-1.76187e-07 3.83278e-06 0.078626)
(-5.11355e-07 5.48258e-06 0.0898671)
(5.47387e-07 -7.41893e-06 0.0768988)
(2.46326e-07 -6.05635e-06 0.06844)
(-1.19882e-06 -1.20931e-05 0.0822443)
(-7.03145e-07 5.77741e-06 0.0857869)
(-1.35583e-06 -1.23235e-05 0.0858443)
(-8.39569e-07 4.84028e-06 0.0683752)
(-8.54802e-07 4.84076e-06 0.0683828)
(-1.36234e-06 -1.23069e-05 0.0858528)
(7.13949e-07 7.11644e-06 0.0822015)
(-7.12534e-07 5.78508e-06 0.0857954)
(2.34037e-07 -6.04765e-06 0.0684476)
(5.53545e-07 -7.42361e-06 0.0768904)
(-2.9273e-07 -1.66292e-05 0.0913886)
(-1.7542e-07 3.83735e-06 0.0786174)
(-5.06207e-07 5.49006e-06 0.089859)
(1.44482e-07 -7.4356e-06 0.0786606)
(-1.13063e-06 -1.59994e-05 0.0899096)
(-6.53513e-07 4.21417e-06 0.0768406)
(3.27627e-06 -5.95521e-06 0.0715656)
(-2.62375e-06 4.33644e-06 0.0715192)
(4.27145e-06 -6.80767e-07 0.0768515)
(-1.60345e-05 -1.14133e-06 0.0899171)
(-7.46739e-06 1.15736e-07 0.0786685)
(5.02581e-06 -2.48483e-07 0.0913518)
(5.54489e-06 -5.32287e-07 0.0898676)
(3.87556e-06 -1.83346e-07 0.0786278)
(-7.4649e-06 5.38008e-07 0.0768984)
(-6.12246e-06 2.20909e-07 0.0684369)
(-1.21039e-05 -1.17385e-06 0.0822447)
(5.84284e-06 -7.32904e-07 0.0857867)
(-1.23825e-05 -1.35579e-06 0.0858431)
(4.92332e-06 -8.33271e-07 0.0683758)
(4.92326e-06 -8.49497e-07 0.0683834)
(-1.23669e-05 -1.36513e-06 0.0858515)
(7.13976e-06 6.43231e-07 0.0822006)
(5.84891e-06 -7.43906e-07 0.0857952)
(-6.1139e-06 2.06925e-07 0.0684444)
(-7.4695e-06 5.45891e-07 0.07689)
(-1.66541e-05 -3.1469e-07 0.0913881)
(5.55443e-06 -5.24479e-07 0.0898594)
(3.87798e-06 -1.81983e-07 0.0786193)
(-1.60425e-05 -1.13675e-06 0.0899091)
(-7.47612e-06 1.15325e-07 0.07866)
(4.27291e-06 -6.71442e-07 0.076843)
(-5.89975e-06 3.23923e-06 0.0715671)
(4.26905e-06 -2.59436e-06 0.0715168)
(-3.09999e-06 -3.13446e-06 0.0835872)
(3.63074e-06 5.12761e-06 0.0683537)
(5.16998e-06 3.59977e-06 0.0683476)
(-2.62239e-06 -4.10114e-06 0.0682976)
(-4.06961e-06 -2.65044e-06 0.0682918)
(7.29384e-06 7.24837e-06 0.0836337)
(1.68864e-05 1.02872e-05 0.091692)
(-1.09941e-05 -5.57498e-06 0.0962497)
(9.97903e-06 6.89051e-06 0.0875679)
(-3.80508e-06 -3.06215e-06 0.0815232)
(2.40931e-05 1.41979e-05 0.0962985)
(8.15071e-06 3.99084e-06 0.0815753)
(-7.75889e-06 -3.80071e-06 0.0916441)
(1.03547e-05 1.68667e-05 0.0916854)
(-5.56885e-06 -1.09882e-05 0.0962468)
(6.95147e-06 9.95324e-06 0.087566)
(-3.05026e-06 -3.84521e-06 0.0815188)
(1.42573e-05 2.40793e-05 0.0962959)
(4.04738e-06 8.13582e-06 0.0815699)
(-3.79485e-06 -7.78825e-06 0.0916375)
(-7.76403e-06 -3.80048e-06 0.0916511)
(8.12905e-06 3.99056e-06 0.0815831)
(-3.53898e-06 -3.52439e-06 0.087526)
(2.40705e-05 1.4196e-05 0.0963043)
(-1.09931e-05 -5.5655e-06 0.0962555)
(-3.81631e-06 -3.05615e-06 0.081531)
(1.68652e-05 1.02784e-05 0.091699)
(-3.7929e-06 -7.79434e-06 0.0916445)
(4.05231e-06 8.12002e-06 0.0815777)
(-3.50638e-06 -3.54499e-06 0.0875247)
(1.42576e-05 2.40561e-05 0.0963017)
(-5.55878e-06 -1.09879e-05 0.0962527)
(-3.04022e-06 -3.85258e-06 0.0815266)
(1.03476e-05 1.68438e-05 0.0916924)
(7.30202e-06 7.25837e-06 0.0836262)
(-2.6207e-06 -4.10528e-06 0.0682909)
(-4.07376e-06 -2.64846e-06 0.0682851)
(3.63741e-06 5.12908e-06 0.0683469)
(5.17144e-06 3.6088e-06 0.0683409)
(-3.09799e-06 -3.13131e-06 0.0835797)
(1.67922e-05 1.02455e-05 0.09172)
(-1.10067e-05 -5.54653e-06 0.0962732)
(-3.84199e-06 -3.03125e-06 0.0815544)
(9.90568e-06 6.90879e-06 0.0875996)
(-7.78942e-06 -3.8067e-06 0.0916722)
(2.39974e-05 1.41877e-05 0.0963218)
(8.07398e-06 3.99442e-06 0.0816064)
(1.03182e-05 1.67676e-05 0.0917134)
(-5.53707e-06 -1.10039e-05 0.0962704)
(-3.01884e-06 -3.88608e-06 0.0815501)
(6.97311e-06 9.87926e-06 0.0875978)
(-3.7963e-06 -7.82228e-06 0.0916657)
(1.42536e-05 2.398e-05 0.0963193)
(4.06306e-06 8.06921e-06 0.081601)
(7.26461e-06 7.2161e-06 0.0836562)
(-2.62912e-06 -4.09098e-06 0.0683178)
(-4.0584e-06 -2.6573e-06 0.068312)
(-3.11179e-06 -3.14744e-06 0.0836098)
(3.60765e-06 5.11932e-06 0.0683738)
(5.16295e-06 3.57474e-06 0.0683677)
(-3.28167e-06 -5.92812e-06 0.0715661)
(2.65063e-06 4.2967e-06 0.0715204)
(-5.92865e-06 -3.31953e-06 0.0715656)
(4.32399e-06 2.63233e-06 0.0715193)
(3.13084e-06 3.10434e-06 0.0835873)
(-5.11702e-06 -3.64002e-06 0.0683537)
(-3.60117e-06 -5.17328e-06 0.0683474)
(4.09426e-06 2.628e-06 0.068298)
(2.65167e-06 4.07189e-06 0.0682916)
(-7.24604e-06 -7.30007e-06 0.0836338)
(-1.02989e-05 -1.69118e-05 0.0916921)
(5.57574e-06 1.102e-05 0.09625)
(-6.89153e-06 -9.97496e-06 0.0875677)
(3.06349e-06 3.83228e-06 0.0815243)
(-3.98897e-06 -8.16842e-06 0.0815752)
(-1.42058e-05 -2.41141e-05 0.0962987)
(3.80881e-06 7.78947e-06 0.0916443)
(-1.68785e-05 -1.03624e-05 0.0916855)
(1.09921e-05 5.56605e-06 0.0962468)
(-9.96791e-06 -6.9494e-06 0.0875661)
(3.8523e-06 3.04581e-06 0.0815186)
(-8.14228e-06 -4.0455e-06 0.0815697)
(-2.4094e-05 -1.42562e-05 0.0962961)
(7.79655e-06 3.79874e-06 0.0916376)
(3.80849e-06 7.79442e-06 0.0916513)
(-3.99351e-06 -8.15413e-06 0.081583)
(3.52084e-06 3.53809e-06 0.087527)
(-1.42045e-05 -2.40924e-05 0.0963045)
(3.05469e-06 3.83955e-06 0.0815322)
(-1.02905e-05 -1.68905e-05 0.0916991)
(5.56793e-06 1.10191e-05 0.0962559)
(7.80266e-06 3.79683e-06 0.0916446)
(-8.12732e-06 -4.051e-06 0.0815775)
(3.55889e-06 3.51283e-06 0.0875246)
(-2.40711e-05 -1.4257e-05 0.0963019)
(3.86044e-06 3.03656e-06 0.0815264)
(-1.68556e-05 -1.03554e-05 0.0916925)
(1.0992e-05 5.55656e-06 0.0962527)
(-7.25622e-06 -7.30921e-06 0.0836263)
(4.09755e-06 2.6263e-06 0.0682912)
(2.64972e-06 4.07568e-06 0.0682849)
(-5.11912e-06 -3.64833e-06 0.068347)
(-3.60976e-06 -5.17479e-06 0.0683407)
(3.12824e-06 3.10262e-06 0.0835798)
(2.61962e-06 4.30907e-06 0.0715357)
(-3.30838e-06 -5.90085e-06 0.0715814)
(4.33633e-06 2.60037e-06 0.0715346)
(-5.90059e-06 -3.34685e-06 0.0715809)
(-7.23513e-06 -7.29009e-06 0.0836413)
(4.09081e-06 2.63083e-06 0.0683047)
(2.65489e-06 4.06781e-06 0.0682984)
(3.13502e-06 3.10738e-06 0.0835949)
(-5.11402e-06 -3.63208e-06 0.0683604)
(-3.59256e-06 -5.17042e-06 0.0683542)
(3.81176e-06 7.81036e-06 0.0916654)
(-1.42004e-05 -2.40448e-05 0.0963162)
(3.50096e-06 3.5587e-06 0.087543)
(-3.99576e-06 -8.11454e-06 0.0815986)
(3.03736e-06 3.85606e-06 0.0815478)
(5.55327e-06 1.10251e-05 0.0962676)
(-1.02694e-05 -1.68417e-05 0.0917131)
(7.8211e-06 3.79705e-06 0.0916587)
(-2.40213e-05 -1.42559e-05 0.0963136)
(3.58014e-06 3.48911e-06 0.0875406)
(-8.09271e-06 -4.05917e-06 0.0815931)
(3.88106e-06 3.0194e-06 0.0815421)
(1.10009e-05 5.53893e-06 0.0962645)
(-1.68043e-05 -1.0337e-05 0.0917064)
(-1.02805e-05 -1.68665e-05 0.0917061)
(3.04652e-06 3.84708e-06 0.08154)
(5.56143e-06 1.10212e-05 0.0962617)
(-6.90237e-06 -9.94176e-06 0.0875836)
(3.80983e-06 7.80095e-06 0.0916584)
(-3.99739e-06 -8.13847e-06 0.0815908)
(-1.42027e-05 -2.40693e-05 0.0963103)
(-1.68304e-05 -1.03462e-05 0.0916994)
(3.86838e-06 3.0268e-06 0.0815342)
(1.09961e-05 5.54823e-06 0.0962586)
(-9.93314e-06 -6.96153e-06 0.087582)
(7.81082e-06 3.79663e-06 0.0916517)
(-8.11141e-06 -4.0554e-06 0.0815853)
(-2.40466e-05 -1.42564e-05 0.0963077)
(3.13973e-06 3.11151e-06 0.0836024)
(-5.11198e-06 -3.62509e-06 0.0683671)
(-3.58446e-06 -5.16882e-06 0.0683609)
(4.08683e-06 2.63361e-06 0.0683114)
(2.65723e-06 4.0635e-06 0.0683051)
(-7.22452e-06 -7.28074e-06 0.0836488)
(6.74365e-07 4.27341e-06 0.0768506)
(-1.10883e-07 -7.42992e-06 0.078669)
(1.16032e-06 -1.60327e-05 0.0899169)
(2.43492e-07 5.00228e-06 0.0913512)
(1.8716e-07 3.8403e-06 0.0786261)
(5.15944e-07 5.53483e-06 0.089867)
(-5.24069e-07 -7.47013e-06 0.0768979)
(-2.15407e-07 -6.12231e-06 0.0684363)
(1.17029e-06 -1.21334e-05 0.0822437)
(7.27631e-07 5.83837e-06 0.0857862)
(1.36185e-06 -1.23761e-05 0.0858425)
(8.3493e-07 4.92301e-06 0.0683752)
(8.51008e-07 4.92386e-06 0.0683828)
(1.36886e-06 -1.23595e-05 0.085851)
(-6.58928e-07 7.16499e-06 0.0822008)
(7.37628e-07 5.84556e-06 0.0857947)
(-2.03026e-07 -6.11367e-06 0.0684439)
(-5.29582e-07 -7.47991e-06 0.0768896)
(3.25479e-07 -1.66317e-05 0.0913884)
(1.87056e-07 3.8422e-06 0.0786176)
(5.09785e-07 5.54177e-06 0.0898589)
(-1.10563e-07 -7.4402e-06 0.0786605)
(1.15715e-06 -1.60425e-05 0.0899089)
(6.63578e-07 4.28589e-06 0.0768422)
(5.414e-07 -7.41073e-06 0.0769071)
(-1.75836e-07 3.8322e-06 0.0786345)
(-5.16375e-07 5.47897e-06 0.0898752)
(-2.90463e-07 -1.66078e-05 0.0914041)
(-6.69965e-07 4.21048e-06 0.0768574)
(1.45282e-07 -7.42339e-06 0.0786776)
(-1.13605e-06 -1.59779e-05 0.0899257)
(-8.84584e-07 4.84098e-06 0.068398)
(6.91293e-07 7.12333e-06 0.0822184)
(-1.37707e-06 -1.22734e-05 0.0858696)
(2.09063e-07 -6.02901e-06 0.0684626)
(-7.31496e-07 5.79618e-06 0.0858124)
(2.21534e-07 -6.03832e-06 0.0684551)
(-7.21849e-07 5.7898e-06 0.0858039)
(-1.21553e-06 -1.20639e-05 0.0822611)
(-8.70771e-07 4.84084e-06 0.0683904)
(-1.36897e-06 -1.22906e-05 0.0858612)
(-6.77549e-07 4.21165e-06 0.0768658)
(-2.3764e-07 4.9805e-06 0.0913669)
(1.44205e-07 -7.42377e-06 0.0786861)
(-1.13997e-06 -1.59676e-05 0.0899337)
(5.32681e-07 -7.40977e-06 0.0769155)
(-1.77306e-07 3.83177e-06 0.0786431)
(-5.22624e-07 5.47382e-06 0.0898833)
(-5.17227e-07 -7.46314e-06 0.0769063)
(1.86418e-07 3.83941e-06 0.0786347)
(5.22056e-07 5.52994e-06 0.0898751)
(3.24569e-07 -1.66109e-05 0.0914039)
(6.83456e-07 4.2675e-06 0.076859)
(-1.11303e-07 -7.42584e-06 0.0786775)
(1.16488e-06 -1.60221e-05 0.089925)
(8.83184e-07 4.92374e-06 0.0683979)
(-6.3991e-07 7.18101e-06 0.0822177)
(1.38393e-06 -1.23258e-05 0.0858679)
(7.58353e-07 5.85669e-06 0.0858117)
(-1.77243e-07 -6.09564e-06 0.0684589)
(-1.89905e-07 -6.10441e-06 0.0684514)
(7.48366e-07 5.85156e-06 0.0858032)
(1.18877e-06 -1.21066e-05 0.0822606)
(8.67587e-07 4.92326e-06 0.0683904)
(1.37599e-06 -1.23425e-05 0.0858594)
(6.92755e-07 4.26246e-06 0.0768674)
(2.44219e-07 4.99076e-06 0.0913668)
(-1.10302e-07 -7.42131e-06 0.078686)
(1.16957e-06 -1.60121e-05 0.089933)
(1.86312e-07 3.83974e-06 0.0786432)
(5.28921e-07 5.52355e-06 0.0898832)
(-5.10045e-07 -7.45548e-06 0.0769147)
(-3.13951e-06 3.11882e-06 0.0835872)
(5.13465e-06 -3.63869e-06 0.0683482)
(3.61195e-06 -5.16072e-06 0.0683536)
(-4.09383e-06 2.64011e-06 0.068292)
(-2.65033e-06 4.07578e-06 0.0682973)
(7.27441e-06 -7.29578e-06 0.0836339)
(1.0332e-05 -1.68984e-05 0.0916859)
(-5.59431e-06 1.10165e-05 0.0962464)
(6.88505e-06 -9.96825e-06 0.0875665)
(-3.05162e-06 3.81311e-06 0.0815184)
(3.99285e-06 -8.14436e-06 0.0815707)
(1.42162e-05 -2.41061e-05 0.0962962)
(-3.83742e-06 7.78315e-06 0.0916373)
(1.68886e-05 -1.03465e-05 0.0916924)
(-1.09803e-05 5.55292e-06 0.0962499)
(9.91389e-06 -6.89179e-06 0.0875687)
(-3.8109e-06 3.04308e-06 0.0815231)
(2.40701e-05 -1.42373e-05 0.0962992)
(8.10723e-06 -4.03155e-06 0.0815756)
(-7.7958e-06 3.79059e-06 0.0916441)
(-3.83556e-06 7.78839e-06 0.0916444)
(3.99684e-06 -8.12803e-06 0.0815785)
(-3.50089e-06 3.54918e-06 0.0875244)
(1.42159e-05 -2.40837e-05 0.096302)
(-3.04195e-06 3.82078e-06 0.0815262)
(-5.58489e-06 1.10164e-05 0.0962523)
(1.03247e-05 -1.68754e-05 0.0916929)
(-7.80047e-06 3.78886e-06 0.0916511)
(8.09119e-06 -4.03507e-06 0.0815834)
(-3.50972e-06 3.46277e-06 0.0875254)
(2.40483e-05 -1.42362e-05 0.096305)
(-1.09794e-05 5.54372e-06 0.0962557)
(-3.81809e-06 3.03384e-06 0.0815309)
(1.68663e-05 -1.03379e-05 0.0916994)
(7.28334e-06 -7.30536e-06 0.0836264)
(-4.09787e-06 2.63838e-06 0.0682852)
(-2.6488e-06 4.07962e-06 0.0682906)
(5.13614e-06 -3.64714e-06 0.0683415)
(3.62023e-06 -5.16249e-06 0.0683469)
(-3.13755e-06 3.11644e-06 0.0835796)
(5.89333e-06 -3.24804e-06 0.0715672)
(-4.27875e-06 2.56033e-06 0.0715172)
(-2.59345e-06 4.34806e-06 0.0715346)
(3.30363e-06 -5.92791e-06 0.0715809)
(7.26483e-06 -7.28597e-06 0.0836414)
(-4.08969e-06 2.64241e-06 0.0682987)
(-2.6525e-06 4.07182e-06 0.0683041)
(-3.14131e-06 3.12114e-06 0.0835947)
(5.13212e-06 -3.63108e-06 0.0683549)
(3.60446e-06 -5.15803e-06 0.0683603)
(-3.83675e-06 7.80493e-06 0.0916585)
(1.42138e-05 -2.40353e-05 0.0963137)
(-3.47872e-06 3.56903e-06 0.0875404)
(4.00868e-06 -8.10159e-06 0.081594)
(-5.56889e-06 1.10242e-05 0.0962641)
(-3.0264e-06 3.84093e-06 0.0815419)
(1.03048e-05 -1.68266e-05 0.0917069)
(-7.81556e-06 3.7911e-06 0.0916652)
(2.40009e-05 -1.42332e-05 0.0963167)
(-3.52869e-06 3.44134e-06 0.0875414)
(8.06542e-06 -4.04685e-06 0.081599)
(-3.8377e-06 3.01913e-06 0.0815465)
(-1.09856e-05 5.52935e-06 0.0962675)
(1.68183e-05 -1.03179e-05 0.0917134)
(1.03161e-05 -1.6852e-05 0.0916999)
(-3.03542e-06 3.83152e-06 0.0815341)
(-5.57741e-06 1.10188e-05 0.0962582)
(6.89757e-06 -9.93382e-06 0.0875824)
(1.42153e-05 -2.40604e-05 0.0963078)
(-3.83486e-06 7.79396e-06 0.0916514)
(3.99938e-06 -8.11001e-06 0.0815863)
(1.68436e-05 -1.03291e-05 0.0917064)
(-3.82853e-06 3.02773e-06 0.0815387)
(-1.09811e-05 5.53694e-06 0.0962616)
(9.88021e-06 -6.90279e-06 0.0875846)
(-7.80528e-06 3.78939e-06 0.0916581)
(8.07389e-06 -4.03765e-06 0.0815912)
(2.40256e-05 -1.4235e-05 0.0963109)
(-3.14569e-06 3.12572e-06 0.0836022)
(5.12933e-06 -3.62176e-06 0.0683616)
(3.59471e-06 -5.15549e-06 0.068367)
(-4.0856e-06 2.64461e-06 0.0683055)
(-2.65485e-06 4.06817e-06 0.0683108)
(7.25248e-06 -7.2736e-06 0.0836489)
(-4.28981e-06 2.53034e-06 0.0715326)
(5.86629e-06 -3.2744e-06 0.0715825)
(4.22003e-06 6.99673e-07 0.0768492)
(-7.46346e-06 -1.6448e-07 0.0786685)
(-1.60001e-05 1.0925e-06 0.0899175)
(5.02451e-06 2.72872e-07 0.0913519)
(3.86995e-06 2.04031e-07 0.0786275)
(5.50536e-06 5.57407e-07 0.089867)
(-7.42916e-06 -5.84682e-07 0.0768987)
(-6.07049e-06 -2.73365e-07 0.0684398)
(-1.20902e-05 1.15598e-06 0.0822449)
(5.80191e-06 7.46899e-07 0.0857864)
(-1.23419e-05 1.32026e-06 0.0858442)
(4.85592e-06 8.75847e-07 0.0683748)
(4.85655e-06 8.90203e-07 0.0683824)
(-1.23256e-05 1.3263e-06 0.0858527)
(7.11549e-06 -6.6449e-07 0.0822)
(5.80815e-06 7.55463e-07 0.0857949)
(-6.06232e-06 -2.621e-07 0.0684473)
(-7.43358e-06 -5.9054e-07 0.0768903)
(-1.66506e-05 2.70221e-07 0.091388)
(3.87174e-06 2.04488e-07 0.078619)
(5.51232e-06 5.52782e-07 0.089859)
(-7.47282e-06 -1.63911e-07 0.07866)
(-1.60096e-05 1.09062e-06 0.0899095)
(4.2223e-06 6.91911e-07 0.0768408)
(-7.45503e-06 5.31654e-07 0.0769067)
(5.54266e-06 -5.38094e-07 0.0898756)
(3.87566e-06 -1.83305e-07 0.0786363)
(-1.66331e-05 -3.14943e-07 0.0914036)
(4.26847e-06 -6.90212e-07 0.0768599)
(-1.60217e-05 -1.14581e-06 0.0899252)
(-7.46133e-06 1.14273e-07 0.078677)
(4.9228e-06 -8.81503e-07 0.0683985)
(7.14556e-06 6.19517e-07 0.0822175)
(-1.23335e-05 -1.38154e-06 0.0858684)
(-6.09602e-06 1.8116e-07 0.0684595)
(5.85897e-06 -7.65063e-07 0.0858121)
(-6.10476e-06 1.94705e-07 0.068452)
(5.85553e-06 -7.54437e-07 0.0858036)
(-1.20731e-05 -1.19196e-06 0.0822616)
(4.92366e-06 -8.66642e-07 0.068391)
(-1.23492e-05 -1.3718e-06 0.08586)
(4.26747e-06 -6.99769e-07 0.0768683)
(5.01491e-06 -2.49326e-07 0.0913674)
(-1.60139e-05 -1.15191e-06 0.0899332)
(-7.45265e-06 1.14462e-07 0.0786855)
(-7.45162e-06 5.23653e-07 0.0769151)
(5.53369e-06 -5.45868e-07 0.0898838)
(3.87197e-06 -1.85676e-07 0.0786449)
(-7.4221e-06 -5.79576e-07 0.076907)
(3.86913e-06 2.03303e-07 0.0786361)
(5.49922e-06 5.62131e-07 0.0898751)
(-1.66301e-05 2.66656e-07 0.0914035)
(4.21604e-06 7.07874e-07 0.0768576)
(-7.45816e-06 -1.66599e-07 0.0786769)
(-1.59893e-05 1.09538e-06 0.0899256)
(4.85607e-06 9.18234e-07 0.0683975)
(7.12723e-06 -6.46156e-07 0.0822169)
(-1.22938e-05 1.33942e-06 0.0858695)
(5.81907e-06 7.74163e-07 0.0858118)
(-6.04386e-06 -2.38939e-07 0.0684624)
(-6.05271e-06 -2.50333e-07 0.0684549)
(5.81432e-06 7.65034e-07 0.0858034)
(-1.20628e-05 1.17216e-06 0.0822617)
(4.85579e-06 9.05133e-07 0.0683899)
(-1.23098e-05 1.33222e-06 0.0858611)
(4.21928e-06 7.15106e-07 0.076866)
(5.01331e-06 2.69603e-07 0.0913675)
(-7.44855e-06 -1.67203e-07 0.0786854)
(-1.59814e-05 1.09891e-06 0.0899336)
(3.86636e-06 2.04309e-07 0.0786446)
(5.49324e-06 5.67216e-07 0.0898832)
(-7.42379e-06 -5.72614e-07 0.0769154)
(-4.27501e-06 -6.83819e-07 0.0768512)
(1.60354e-05 -1.14722e-06 0.0899175)
(7.42714e-06 1.28511e-07 0.0786693)
(-5.00234e-06 -2.57549e-07 0.0913515)
(-5.5456e-06 -5.29042e-07 0.0898675)
(-3.83865e-06 -1.96595e-07 0.0786265)
(7.47026e-06 5.42391e-07 0.0768985)
(6.12695e-06 2.26458e-07 0.0684372)
(1.20979e-05 -1.1584e-06 0.0822451)
(-5.84335e-06 -7.40839e-07 0.0857869)
(1.2382e-05 -1.3483e-06 0.0858435)
(-4.92617e-06 -8.38839e-07 0.0683759)
(-4.9266e-06 -8.54488e-07 0.0683835)
(1.23657e-05 -1.3556e-06 0.0858519)
(-7.12399e-06 6.30999e-07 0.0822005)
(-5.8491e-06 -7.5092e-07 0.0857954)
(6.11833e-06 2.1425e-07 0.0684448)
(7.47525e-06 5.48636e-07 0.0768902)
(1.66242e-05 -3.10703e-07 0.0913887)
(-5.55364e-06 -5.23242e-07 0.0898594)
(-3.8408e-06 -1.95748e-07 0.0786179)
(1.60453e-05 -1.14438e-06 0.0899095)
(7.43731e-06 1.27816e-07 0.0786608)
(-4.2786e-06 -6.74748e-07 0.0768427)
(-4.26427e-06 6.46266e-07 0.0768507)
(7.42383e-06 -1.25619e-07 0.0786692)
(1.60258e-05 1.14325e-06 0.0899174)
(-4.99826e-06 2.20562e-07 0.0913515)
(-3.83629e-06 1.59775e-07 0.0786264)
(-5.52909e-06 4.91783e-07 0.0898675)
(7.46455e-06 -5.44055e-07 0.076898)
(6.12055e-06 -2.28731e-07 0.0684389)
(1.21218e-05 1.15806e-06 0.0822443)
(-5.82629e-06 6.96091e-07 0.0857876)
(1.23726e-05 1.34975e-06 0.0858439)
(-4.91079e-06 8.04323e-07 0.0683778)
(-4.91134e-06 8.19278e-07 0.0683854)
(1.23561e-05 1.35633e-06 0.0858523)
(-7.13935e-06 -6.82969e-07 0.0822016)
(-5.83286e-06 7.05571e-07 0.0857961)
(6.11192e-06 -2.16695e-07 0.0684464)
(7.46942e-06 -5.5035e-07 0.0768896)
(1.66177e-05 3.10739e-07 0.0913886)
(-3.83831e-06 1.59696e-07 0.0786179)
(-5.53683e-06 4.86791e-07 0.0898594)
(7.43375e-06 -1.24993e-07 0.0786607)
(1.60351e-05 1.14058e-06 0.0899093)
(-4.2681e-06 6.3791e-07 0.0768423)
(7.46684e-06 5.35277e-07 0.0769069)
(-5.54042e-06 -5.35069e-07 0.0898755)
(-3.83839e-06 -1.96651e-07 0.078635)
(1.66035e-05 -3.0944e-07 0.0914042)
(-4.27302e-06 -6.9251e-07 0.0768596)
(1.60249e-05 -1.15158e-06 0.0899256)
(7.42257e-06 1.28663e-07 0.0786778)
(-4.92602e-06 -8.86361e-07 0.0683987)
(-7.13869e-06 6.12064e-07 0.0822174)
(1.23334e-05 -1.37054e-06 0.0858688)
(-5.8602e-06 -7.71962e-07 0.0858123)
(6.09946e-06 1.88413e-07 0.0684598)
(6.10862e-06 2.0115e-07 0.0684523)
(-5.85434e-06 -7.61736e-07 0.0858038)
(1.20678e-05 -1.17517e-06 0.0822619)
(-4.92592e-06 -8.70686e-07 0.0683911)
(1.23487e-05 -1.36291e-06 0.0858604)
(-4.26822e-06 -7.02304e-07 0.076868)
(-4.99026e-06 -2.57908e-07 0.0913671)
(1.60155e-05 -1.15584e-06 0.0899336)
(7.41201e-06 1.29213e-07 0.0786862)
(-5.53512e-06 -5.41709e-07 0.0898836)
(-3.83503e-06 -1.97842e-07 0.0786435)
(7.46033e-06 5.28925e-07 0.0769153)
(7.45959e-06 -5.37444e-07 0.0769063)