/*--------------------------------*- C++ -*----------------------------------*\
| =========                 |                                                 |
| \\      /  F ield         | OpenFOAM: The Open Source CFD Toolbox           |
|  \\    /   O peration     | Version:  v1906                                 |
|   \\  /    A nd           | Web:      www.OpenFOAM.com                      |
|    \\/     M anipulation  |                                                 |
\*---------------------------------------------------------------------------*/
FoamFile
{
    version     2.0;
    format      ascii;
    class       volScalarField;
    location    "500";
    object      p;
}
// * * * * * * * * * * * * * * * * * * * * * * * * * * * * * * * * * * * * * //

dimensions      [0 2 -2 0 0 0 0];


internalField   nonuniform List<scalar> 
43024
(
0.000714174
0.000714198
0.000714289
0.000716453
0.000678724
0.000678726
0.000678525
0.000680694
0.000643205
0.000643012
0.000643087
0.0006449
0.000607627
0.0006076
0.000607638
0.0006097
0.000572022
0.000571999
0.000571967
0.000574044
0.000536387
0.000536282
0.000536301
0.000538263
0.000500668
0.000500646
0.000500617
0.000502684
0.000464971
0.000464872
0.000464919
0.000466903
0.000429141
0.000429148
0.000429109
0.000431186
0.000393508
0.000393397
0.000393431
0.000395412
0.000357457
0.000357462
0.000357437
0.000359518
0.000321796
0.000321711
0.000321743
0.000323749
0.000285813
0.000285798
0.000285735
0.000287824
0.000249772
0.000249703
0.000249802
0.0002518
0.000213979
0.000213969
0.000213877
0.000215944
0.000177914
0.000177854
0.000177921
0.000179967
0.000141667
0.000141639
0.000141604
0.000143605
0.000106002
0.000105994
0.000106
0.000108054
6.94403e-05
6.93559e-05
6.93942e-05
7.14005e-05
3.42197e-05
3.36734e-05
3.36008e-05
3.5391e-05
6.13649e-06
6.99799e-06
7.05836e-06
5.36608e-06
0.000720943
0.000722953
0.000722979
0.000720988
0.000722997
0.000723216
0.000722982
0.000723091
0.000721148
0.000723215
0.000723134
0.000721203
0.000716132
0.000685529
0.000714101
0.000714171
0.000687562
0.000687625
0.000716206
0.000685575
0.000714128
0.00071426
0.000687531
0.0006874
0.000714385
0.000687668
0.000687773
0.000716272
0.000685327
0.000714411
0.000687439
0.000687737
0.000685618
0.000680713
0.000649995
0.000678702
0.000678706
0.000652041
0.000651946
0.000680723
0.000649883
0.000678668
0.000678507
0.000652038
0.000651974
0.000678724
0.000651902
0.000651744
0.00068051
0.000649958
0.000678686
0.00065193
0.000651742
0.000649689
0.000645157
0.000614391
0.000643135
0.000643057
0.000616435
0.000616455
0.000645055
0.000614433
0.000643146
0.00064313
0.000616452
0.000616525
0.000642889
0.000616458
0.000616485
0.000645144
0.000614479
0.0006429
0.000616526
0.0006165
0.000614504
0.00060956
0.000578809
0.000607544
0.000607584
0.000580859
0.000580897
0.000609612
0.000578852
0.000607553
0.00060762
0.000580853
0.000580866
0.000607656
0.00058092
0.000580974
0.000609639
0.000578815
0.000607666
0.000580888
0.000580968
0.000578902
0.000573974
0.000543212
0.000571959
0.000571984
0.000545251
0.00054522
0.000574008
0.000543162
0.000571953
0.000571953
0.00054525
0.000545226
0.000572034
0.000545213
0.000545191
0.000573973
0.000543178
0.000572028
0.000545219
0.000545191
0.00054312
0.000538361
0.000507483
0.000536333
0.000536294
0.000509536
0.000509552
0.000538309
0.000507521
0.000536334
0.000536314
0.000509536
0.000509543
0.000536248
0.000509544
0.00050953
0.000538332
0.000507494
0.000536249
0.000509536
0.000509531
0.000507514
0.000502638
0.000471823
0.000500612
0.000500646
0.000473863
0.000473841
0.000502678
0.00047177
0.000500611
0.000500617
0.000473861
0.000473853
0.000500648
0.000473849
0.000473871
0.000502645
0.00047181
0.000500648
0.00047386
0.000473869
0.000471786
0.000466954
0.000435951
0.00046492
0.000464872
0.000438015
0.000438042
0.000466897
0.00043602
0.000464923
0.000464919
0.00043802
0.000438048
0.00046488
0.000438037
0.000438029
0.00046695
0.000435993
0.000464882
0.000438045
0.000438035
0.000436013
0.000431105
0.000400406
0.000429084
0.000429147
0.000402415
0.000402388
0.000431187
0.000400315
0.000429084
0.000429105
0.000402405
0.00040236
0.000429147
0.000402394
0.000402394
0.000431136
0.000400332
0.000429147
0.000402366
0.000402384
0.000400309
0.000395539
0.000364289
0.000393487
0.000393401
0.000366396
0.00036642
0.000395424
0.000364366
0.000393482
0.000393436
0.000366405
0.000366447
0.000393388
0.000366412
0.000366411
0.000395473
0.000364364
0.000393383
0.00036644
0.00036642
0.000364372
0.000359385
0.00032866
0.000357368
0.000357459
0.000330641
0.000330634
0.000359498
0.000328604
0.000357372
0.000357432
0.000330633
0.000330621
0.000357477
0.000330646
0.000330661
0.000359468
0.000328626
0.000357483
0.000330636
0.000330654
0.000328617
0.000323842
0.000292733
0.000321787
0.00032171
0.000294867
0.000294844
0.000323755
0.000292767
0.000321784
0.000321743
0.000294869
0.000294829
0.000321705
0.000294827
0.000294792
0.000323792
0.000292703
0.000321702
0.000294809
0.000294794
0.000292725
0.000287776
0.000256598
0.000285747
0.000285803
0.0002586
0.000258639
0.000287844
0.000256584
0.000285744
0.00028574
0.000258603
0.000258678
0.000285784
0.000258658
0.000258716
0.000287772
0.000256691
0.000285781
0.000258698
0.000258717
0.000256667
0.000251785
0.000220944
0.000249727
0.000249688
0.000223008
0.000222971
0.000251733
0.000220935
0.000249737
0.000249791
0.00022301
0.000222947
0.000249749
0.000222957
0.000222899
0.000251854
0.000220842
0.000249757
0.000222931
0.000222899
0.000220839
0.000216014
0.000184803
0.000213972
0.000213983
0.00018685
0.000186864
0.000216036
0.000184807
0.000213962
0.00021389
0.000186844
0.000186861
0.000213906
0.000186871
0.000186912
0.000215921
0.000184854
0.000213896
0.00018687
0.000186909
0.000184876
0.000179899
0.000148551
0.000177853
0.000177844
0.000150662
0.000150666
0.000179889
0.000148561
0.00017786
0.000177909
0.000150674
0.000150697
0.000177916
0.000150669
0.000150668
0.000179962
0.000148569
0.000177925
0.000150699
0.000150673
0.000148535
0.00014364
0.00011302
0.000141615
0.000141639
0.00011496
0.000114938
0.000143665
0.00011298
0.000141616
0.000141612
0.000114943
0.000114891
0.000141593
0.000114932
0.000114907
0.000143637
0.000112944
0.000141583
0.000114878
0.000114891
0.000112959
0.000108106
7.62859e-05
0.000106052
0.000106
7.84567e-05
7.84658e-05
0.000108051
7.63123e-05
0.000106039
0.000106004
7.84707e-05
7.85386e-05
0.000106007
7.84715e-05
7.85275e-05
0.000108045
7.63945e-05
0.000106006
7.85538e-05
7.85496e-05
7.63898e-05
7.12855e-05
4.04965e-05
6.93012e-05
6.93455e-05
4.24784e-05
4.24907e-05
7.13301e-05
4.04959e-05
6.93078e-05
6.93825e-05
4.24634e-05
4.23984e-05
6.93945e-05
4.24924e-05
4.2441e-05
7.13925e-05
4.03958e-05
6.9405e-05
4.23905e-05
4.2411e-05
4.042e-05
3.5511e-05
8.4203e-06
3.37135e-05
3.36833e-05
1.14025e-05
1.13558e-05
3.54758e-05
8.36739e-06
3.37011e-05
3.36168e-05
1.14099e-05
1.1417e-05
3.3613e-05
1.13369e-05
1.13319e-05
3.53938e-05
8.45894e-06
3.35943e-05
1.14013e-05
1.13484e-05
8.37297e-06
5.36137e-06
7.0382e-06
6.99808e-06
5.34248e-06
7.04026e-06
7.0532e-06
6.11913e-06
6.16032e-06
6.13917e-06
7.00092e-06
5.42438e-06
7.00777e-06
0.000738569
0.000738609
0.000738691
0.000738666
0.000738669
0.000723049
0.000723042
0.000723243
0.000723106
0.000738529
0.000740649
0.000738606
0.000740656
0.000738545
0.000738673
0.000740924
0.000740768
0.000738654
0.000738554
0.000738873
0.000738894
0.000703157
0.000716456
0.000716417
0.000703181
0.000716429
0.000703097
0.000703068
0.000716445
0.000716382
0.000703129
0.000714224
0.000714354
0.00071436
0.000687587
0.000687696
0.000687543
0.000687804
0.00070331
0.000716422
0.000714208
0.000705395
0.000716393
0.000703218
0.000705419
0.000716205
0.00070299
0.000703251
0.000714306
0.000716324
0.000705337
0.000716438
0.000705434
0.000703102
0.000716481
0.000716442
0.000703668
0.000702998
0.000702961
0.000667578
0.000680927
0.000680904
0.000667585
0.000680875
0.000667595
0.00066759
0.000680899
0.000680858
0.000667595
0.000678793
0.000678632
0.000678832
0.000652097
0.000652003
0.000651984
0.000651885
0.000667547
0.000680835
0.000678791
0.000669766
0.000680857
0.000667547
0.000669822
0.000680972
0.000667705
0.000667519
0.000678649
0.000680823
0.000669641
0.000680759
0.000669711
0.000667586
0.000680708
0.000680699
0.000667527
0.000667485
0.000667491
0.000632005
0.000645303
0.00064531
0.00063199
0.000645358
0.000632036
0.000632044
0.000645334
0.000645362
0.000632009
0.000643101
0.000643128
0.000643001
0.000616521
0.000616505
0.00061657
0.000616503
0.000632012
0.000645238
0.000643003
0.000634149
0.000645141
0.000632028
0.000634131
0.000645399
0.000632025
0.000632071
0.000643032
0.000645302
0.000634244
0.000645196
0.000634188
0.000632071
0.000645401
0.000645416
0.000632111
0.000632097
0.000632106
0.000596455
0.000609762
0.000609759
0.000596459
0.000609753
0.000596442
0.00059644
0.000609759
0.000609752
0.000596454
0.000607645
0.000607695
0.000607667
0.000580926
0.00058098
0.000580964
0.000581042
0.000596589
0.000609773
0.000607611
0.000598725
0.000609774
0.00059651
0.000598752
0.000609733
0.000596432
0.000596575
0.000607651
0.000609757
0.000598731
0.00060979
0.000598771
0.000596491
0.000609826
0.000609822
0.000596764
0.000596465
0.00059646
0.000560857
0.000574206
0.00057418
0.000560869
0.00057419
0.000560862
0.000560855
0.000574198
0.000574174
0.000560866
0.000572066
0.000572043
0.000572116
0.000545304
0.000545285
0.000545286
0.000545276
0.00056089
0.000574148
0.000572044
0.000563074
0.000574134
0.000560869
0.000563111
0.000574189
0.00056087
0.000560882
0.000572021
0.000574144
0.000563049
0.000574119
0.000563092
0.000560866
0.000574146
0.000574144
0.000561018
0.000560799
0.000560799
0.000525198
0.000538556
0.000538548
0.000525197
0.000538564
0.00052522
0.0005252
0.000538559
0.000538552
0.000525198
0.000536352
0.000536366
0.000536328
0.000509593
0.000509596
0.000509591
0.000509577
0.00052521
0.000538503
0.000536303
0.000527358
0.000538455
0.00052521
0.000527374
0.000538563
0.000525201
0.000525217
0.000536311
0.000538499
0.000527381
0.000538458
0.000527386
0.000525209
0.000538544
0.000538545
0.000525265
0.000525224
0.000525224
0.000489496
0.00050287
0.000502854
0.000489497
0.000502866
0.000489466
0.000489495
0.000502866
0.000502851
0.000489495
0.000500691
0.000500669
0.000500685
0.000473911
0.000473903
0.000473907
0.000473923
0.000489567
0.000502818
0.000500645
0.000491742
0.000502791
0.000489519
0.000491743
0.000502867
0.000489506
0.000489558
0.000500632
0.000502825
0.000491703
0.00050279
0.000491723
0.000489526
0.000502871
0.000502871
0.000489741
0.000489453
0.000489455
0.000453748
0.000467124
0.000467129
0.000453757
0.000467132
0.000453807
0.000453756
0.000467134
0.000467138
0.000453765
0.000464935
0.00046497
0.000464946
0.000438076
0.00043809
0.000438099
0.000438089
0.000453771
0.000467105
0.000464913
0.000455898
0.000467089
0.000453781
0.000455939
0.000467138
0.000453757
0.000453788
0.000464933
0.000467104
0.00045596
0.00046709
0.000455972
0.000453774
0.000467126
0.000467131
0.000453818
0.0004538
0.0004538
0.00041803
0.000431441
0.000431389
0.000418045
0.000431441
0.000417996
0.000418014
0.000431425
0.000431376
0.000418033
0.000429184
0.000429156
0.000429187
0.000402436
0.000402429
0.000402403
0.000402424
0.000418079
0.000431356
0.000429142
0.000420258
0.000431289
0.00041804
0.000420243
0.00043141
0.00041804
0.000418054
0.000429137
0.00043135
0.000420187
0.000431291
0.000420211
0.000418034
0.00043142
0.000431413
0.000418255
0.000417963
0.000417959
0.000382172
0.000395557
0.000395613
0.000382129
0.000395557
0.000382193
0.000382195
0.000395573
0.000395625
0.000382147
0.000393457
0.000393473
0.000393442
0.000366473
0.000366484
0.0003665
0.000366484
0.00038222
0.000395559
0.000393424
0.000384387
0.000395583
0.000382201
0.000384425
0.000395597
0.000382152
0.00038225
0.000393429
0.00039557
0.000384462
0.00039558
0.000384458
0.000382211
0.000395561
0.000395569
0.000382284
0.000382209
0.000382214
0.000346368
0.00035981
0.000359736
0.000346465
0.000359822
0.000346403
0.000346344
0.000359797
0.00035973
0.000346447
0.000357514
0.000357496
0.000357529
0.000330669
0.000330668
0.000330665
0.000330679
0.000346404
0.000359743
0.000357481
0.000348522
0.00035966
0.000346409
0.000348531
0.000359781
0.000346447
0.000346376
0.000357479
0.000359742
0.00034846
0.000359673
0.000348508
0.000346396
0.000359824
0.000359817
0.000346527
0.000346371
0.000346365
0.000310533
0.000323951
0.000323974
0.000310431
0.000323956
0.000310488
0.000310543
0.000323962
0.000323977
0.000310446
0.00032174
0.000321765
0.000321733
0.000294904
0.000294883
0.00029486
0.000294847
0.000310561
0.0003239
0.000321711
0.000312773
0.000323884
0.000310507
0.000312765
0.000323962
0.000310424
0.000310579
0.00032172
0.00032388
0.000312826
0.000323874
0.000312787
0.000310511
0.000323913
0.000323913
0.000310684
0.000310478
0.000310479
0.000274506
0.000287971
0.00028797
0.000274576
0.000287934
0.000274533
0.000274506
0.000287981
0.000287972
0.000274574
0.00028585
0.000285798
0.000285833
0.000258687
0.000258717
0.000258748
0.000258766
0.0002746
0.000287975
0.000285812
0.000276741
0.000287975
0.000274588
0.000276772
0.000287972
0.000274641
0.000274577
0.000285783
0.000287995
0.00027667
0.000287976
0.000276738
0.000274591
0.000288001
0.000288002
0.000274679
0.000274563
0.000274565
0.000238695
0.00025217
0.000252092
0.000238679
0.000252213
0.000238716
0.000238695
0.000252182
0.000252108
0.000238682
0.000249751
0.000249825
0.000249794
0.000222995
0.000222967
0.000222948
0.00022292
0.000238664
0.000252044
0.000249738
0.000240796
0.000251938
0.000238677
0.000240795
0.000252189
0.000238616
0.0002387
0.000249782
0.000252041
0.000240896
0.000251959
0.000240851
0.000238664
0.000252119
0.000252118
0.000238791
0.000238645
0.000238641
0.000202635
0.000216108
0.000216155
0.000202629
0.000216075
0.000202605
0.000202629
0.000216095
0.00021613
0.000202622
0.000213981
0.000213917
0.000213926
0.000186915
0.000186925
0.000186921
0.000186953
0.000202717
0.000216109
0.000213942
0.000204935
0.000216127
0.000202664
0.000204929
0.000216072
0.00020269
0.000202678
0.000213897
0.000216099
0.000204828
0.000216105
0.00020487
0.000202668
0.000216134
0.000216133
0.000202826
0.00020266
0.000202666
0.000166602
0.000180069
0.000180073
0.00016662
0.000180095
0.000166602
0.000166616
0.000180086
0.000180106
0.000166632
0.000177907
0.000177953
0.000177961
0.000150705
0.000150712
0.000150729
0.000150713
0.000166681
0.000180048
0.000177887
0.000168805
0.000180035
0.000166666
0.000168842
0.000180118
0.000166531
0.000166728
0.000177921
0.000180056
0.000168908
0.000180053
0.0001689
0.000166672
0.000180046
0.000180044
0.000166802
0.00016655
0.000166537
0.000130618
0.000144163
0.000144052
0.000130681
0.000144205
0.000130717
0.000130595
0.00014415
0.000144034
0.000130666
0.000141688
0.000141668
0.000141658
0.000114942
0.000114927
0.000114889
0.000114896
0.000130521
0.000144039
0.000141668
0.000132687
0.000143934
0.000130611
0.000132677
0.000144145
0.000130775
0.000130459
0.000141648
0.000144011
0.000132583
0.000143911
0.00013262
0.000130602
0.000144177
0.000144189
0.000130588
0.000130752
0.00013076
9.44529e-05
0.000107932
0.000108053
9.43513e-05
0.000107912
9.42083e-05
9.44836e-05
0.000107975
0.000108079
9.43694e-05
0.000105972
0.000105977
0.000105975
7.85402e-05
7.85429e-05
7.8605e-05
7.85983e-05
9.46967e-05
0.00010794
0.000105935
9.69014e-05
0.000108049
9.45381e-05
9.68932e-05
0.000107964
9.41832e-05
9.47429e-05
0.000105928
0.000107973
9.69756e-05
0.00010806
9.69348e-05
9.45531e-05
0.000107838
0.000107859
9.48663e-05
9.43123e-05
9.43122e-05
5.82729e-05
7.18004e-05
7.17267e-05
5.84204e-05
7.20305e-05
5.83478e-05
5.82411e-05
7.17846e-05
7.17134e-05
5.839e-05
6.94717e-05
6.94975e-05
6.95077e-05
4.26927e-05
4.27134e-05
4.26383e-05
4.26667e-05
5.81688e-05
7.16843e-05
6.94638e-05
6.0321e-05
7.16455e-05
5.83794e-05
6.03763e-05
7.19565e-05
5.83232e-05
5.81274e-05
6.94988e-05
7.16581e-05
6.02903e-05
7.16523e-05
6.0371e-05
5.83295e-05
7.18428e-05
7.18257e-05
5.82965e-05
5.84654e-05
5.84436e-05
2.15728e-05
3.54379e-05
3.55548e-05
2.1023e-05
3.57119e-05
2.03767e-05
2.1576e-05
3.54302e-05
3.5547e-05
2.10317e-05
3.41998e-05
3.41426e-05
3.41386e-05
1.1701e-05
1.16554e-05
1.17047e-05
1.16494e-05
2.20191e-05
3.53367e-05
3.38792e-05
2.51015e-05
3.56077e-05
2.15083e-05
2.54684e-05
3.57373e-05
2.04307e-05
2.20205e-05
3.38144e-05
3.53426e-05
2.50832e-05
3.55778e-05
2.54374e-05
2.15419e-05
3.52142e-05
3.52313e-05
2.28305e-05
2.13267e-05
2.13461e-05
3.2222e-06
4.20182e-06
3.69416e-06
-1.12273e-07
1.7344e-06
-3.74404e-06
3.23861e-06
4.19786e-06
3.70249e-06
-1.07897e-07
6.37405e-07
7.18984e-06
7.20095e-06
7.73896e-06
7.70973e-06
3.76291e-06
3.78388e-06
1.9108e-06
3.22696e-06
6.39926e-06
1.50161e-06
4.7147e-06
5.54454e-06
-2.00106e-06
1.70537e-06
-3.76616e-06
1.94705e-06
6.43741e-06
3.2455e-06
1.55367e-06
4.76008e-06
-1.95551e-06
5.5606e-06
5.99e-07
6.14129e-07
1.02787e-06
3.6229e-06
3.64817e-06
0.00073864
0.000738667
0.000738695
0.000738613
0.000738642
0.000720929
0.000734183
0.000720905
0.0007342
0.000733865
0.000720909
0.000720898
0.000734167
0.000734185
0.000738569
0.00073865
0.000738575
0.000740734
0.000738597
0.000740775
0.000738569
0.000740691
0.00073861
0.000740762
0.00073411
0.000720908
0.000734156
0.000720872
0.00073411
0.000720898
0.000734195
0.000720873
0.000733994
0.000731828
0.000720897
0.000722972
0.000734083
0.000731854
0.00072086
0.000733988
0.000731808
0.000720881
0.000722978
0.00073409
0.000731846
0.000720859
0.000738617
0.000738653
0.000738682
0.000738738
0.000720903
0.000734225
0.00073381
0.000720867
0.000720904
0.000734188
0.000734223
0.000720964
0.000734282
0.000738697
0.000740755
0.000738666
0.000740816
0.000738671
0.000738623
0.000738715
0.000740969
0.000740874
0.00073867
0.000734189
0.000720905
0.000734207
0.000720865
0.000734123
0.000731871
0.00072092
0.000723068
0.000734147
0.000731943
0.000720932
0.00073419
0.000720736
0.000734114
0.00072085
0.000734139
0.000732126
0.000723145
0.000720802
0.000732017
0.000734109
0.000720937
0.000738622
0.000738669
0.000738528
0.0007405
0.000740592
0.000738727
0.000738638
0.000738828
0.000733978
0.000731785
0.000720929
0.00072298
0.000734101
0.000731784
0.000720926
0.00073419
0.000720967
0.000734232
0.00072098
0.000733986
0.000731779
0.000723008
0.000721002
0.000731765
0.000734213
0.000720944
0.000734209
0.000721034
0.000734374
0.000720998
0.000739005
0.000738523
0.000738543
0.000738583
0.00072067
0.000734033
0.000734178
0.000720667
0.000720705
0.000734014
0.000734046
0.000720729
0.00073408
0.000738652
0.000740525
0.000740633
0.000738779
0.000738707
0.000738632
0.000738721
0.000738873
0.000734119
0.000732097
0.000723145
0.000720848
0.000731959
0.000734112
0.000721003
0.000734104
0.000731823
0.00072311
0.000721021
0.000731861
0.000734265
0.000721012
0.000734247
0.000720806
0.000734149
0.000720959
0.000734268
0.000721027
0.000734407
0.00072099
0.000738931
0.000738959
0.000733841
0.000720988
0.000720973
0.000734397
0.00073441
0.00072105
0.00073446
0.000721028
0.000734471
0.000716475
0.0007032
0.000716443
0.000703151
0.000716463
0.000716444
0.000703232
0.000703186
0.000703154
0.000685415
0.000698734
0.000685395
0.000698688
0.000698425
0.0006854
0.000685381
0.000698729
0.000698695
0.000703154
0.000716432
0.000716417
0.000703121
0.000703188
0.000716388
0.000714121
0.000705256
0.000716307
0.000703187
0.000705283
0.000703194
0.000716365
0.000714143
0.000705352
0.000716307
0.000703158
0.000705316
0.00069869
0.000685404
0.000698717
0.000685387
0.000698686
0.000685336
0.000698647
0.000685378
0.000698625
0.000696412
0.000685424
0.000687592
0.000698666
0.000696444
0.00068545
0.00069863
0.000696508
0.000685378
0.00068762
0.000698633
0.000696478
0.00068545
0.000716403
0.000716439
0.00070337
0.000703093
0.00070311
0.000716482
0.000703117
0.000685335
0.000698623
0.000698561
0.000685335
0.000685311
0.000698629
0.000698635
0.000685294
0.000698626
0.000703133
0.000716396
0.000714188
0.000705259
0.000716346
0.000703152
0.000705302
0.000703048
0.000716266
0.000716362
0.000703005
0.000703121
0.000714248
0.000716266
0.000705289
0.000716346
0.000705327
0.000703045
0.000698596
0.000685364
0.000698661
0.000685321
0.000698547
0.000696394
0.000685376
0.000687527
0.000698622
0.000696414
0.000685352
0.000698579
0.000685353
0.000698563
0.000685312
0.000698533
0.00069633
0.000687495
0.000685341
0.000696403
0.000698532
0.000685338
0.000703231
0.000716505
0.000716526
0.000703177
0.00070333
0.000714262
0.000716474
0.000705621
0.000716412
0.000705483
0.0007032
0.000703238
0.000716546
0.000716544
0.000703101
0.000698747
0.000696558
0.000685384
0.000687721
0.000698686
0.000696593
0.000685485
0.00069874
0.000685311
0.000698682
0.000685323
0.000698764
0.000696752
0.000687763
0.000685297
0.000696653
0.000698631
0.000685485
0.00069874
0.000685194
0.000698578
0.000685309
0.000716216
0.000716254
0.000703193
0.000703001
0.000703018
0.00071626
0.000703014
0.000685412
0.000698565
0.00069835
0.000685398
0.000685371
0.000698578
0.000698584
0.000685369
0.000698573
0.000703289
0.000714334
0.000716481
0.000705635
0.000716456
0.000705506
0.000703156
0.000703123
0.000716339
0.000716479
0.000703056
0.000703147
0.000716526
0.000716513
0.000703031
0.000698648
0.000696382
0.000687594
0.000685346
0.000696528
0.000698579
0.000685367
0.000698686
0.000696741
0.0006877
0.000685253
0.000696633
0.000698578
0.000685383
0.00069862
0.000685325
0.000698599
0.000685264
0.000698633
0.000685157
0.00069852
0.000685255
0.000716534
0.00070301
0.00071649
0.000702957
0.000698801
0.000685155
0.000685138
0.000698497
0.000698463
0.000685129
0.00069849
0.000685111
0.000698447
0.000680931
0.000667579
0.000680924
0.000667599
0.000680925
0.000680915
0.000667793
0.000667564
0.000667576
0.000649764
0.000663096
0.00064979
0.00066312
0.000662959
0.000649751
0.000649771
0.000663088
0.000663105
0.000667574
0.000680874
0.000680895
0.000667584
0.000667639
0.000680889
0.000678726
0.000669832
0.000680865
0.000667609
0.000669842
0.000667633
0.000680847
0.000678736
0.000669777
0.000680863
0.000667601
0.000669831
0.000663098
0.000649775
0.000663109
0.000649787
0.000663096
0.000649816
0.00066312
0.000649789
0.000663048
0.000660942
0.000649799
0.000652039
0.000663069
0.000660944
0.000649831
0.000663041
0.000660854
0.000649817
0.000652005
0.00066307
0.000660917
0.000649827
0.00068088
0.000680851
0.000667701
0.000667584
0.000667544
0.000680821
0.000667536
0.000649831
0.000663131
0.000662852
0.000649809
0.000649792
0.000663124
0.000663085
0.000649811
0.000663076
0.000667607
0.000680846
0.000678646
0.000669803
0.000680776
0.000667602
0.000669771
0.000667595
0.000680916
0.000680852
0.00066766
0.0006676
0.000678601
0.000680837
0.00066965
0.000680763
0.00066972
0.000667639
0.000663125
0.000649807
0.000663125
0.000649837
0.000663035
0.000660925
0.000649825
0.000652025
0.000663072
0.000660898
0.000649867
0.000663132
0.000649881
0.000663198
0.000649846
0.000663031
0.000660811
0.000651994
0.00064988
0.000660853
0.000663117
0.00064987
0.000667467
0.00068083
0.000680817
0.000667514
0.000667532
0.000678801
0.000680749
0.000669675
0.000680852
0.000669798
0.000667489
0.000667452
0.000680723
0.000680802
0.000667467
0.00066294
0.00066082
0.000649761
0.000651909
0.000663011
0.000660852
0.000649715
0.000662989
0.00064977
0.000663048
0.000649714
0.000662924
0.000660677
0.00065186
0.000649769
0.000660806
0.000662962
0.000649701
0.000662976
0.000649817
0.000663018
0.000649711
0.000680963
0.000680927
0.000667629
0.000667672
0.000667633
0.000680917
0.000667645
0.000649886
0.000663232
0.000662824
0.00064986
0.000649847
0.000663205
0.000663169
0.000649869
0.000663179
0.000667506
0.000678717
0.000680712
0.000669644
0.000680768
0.000669728
0.000667476
0.000667486
0.000680869
0.000680773
0.000667591
0.000667464
0.000680698
0.000680772
0.000667464
0.000662933
0.000660779
0.000651897
0.000649828
0.000660792
0.00066306
0.000649758
0.000662916
0.000660662
0.000651848
0.000649794
0.000660764
0.000662958
0.000649736
0.000663019
0.000649837
0.000663128
0.000649774
0.000662999
0.000649844
0.00066303
0.000649764
0.000680673
0.000667472
0.000680664
0.000667486
0.000662658
0.000649852
0.000649869
0.000663062
0.000663075
0.000649879
0.000663058
0.000649905
0.00066308
0.00064529
0.000631987
0.000645312
0.000631996
0.000645286
0.000645303
0.000632185
0.000631973
0.000631982
0.00061423
0.000627522
0.000614226
0.000627525
0.000627352
0.000614214
0.000614212
0.000627514
0.000627519
0.000632009
0.000645347
0.000645313
0.000632031
0.000632045
0.000645264
0.000643135
0.00063423
0.000645246
0.000632009
0.000634238
0.000632044
0.000645286
0.000643104
0.000634182
0.000645243
0.000632037
0.000634216
0.00062753
0.000614227
0.000627524
0.000614233
0.000627534
0.00061424
0.000627561
0.000614235
0.000627465
0.00062533
0.000614243
0.00061646
0.00062748
0.000625346
0.000614276
0.000627465
0.000625317
0.00061426
0.000616462
0.000627508
0.000625337
0.00061428
0.000645343
0.000645334
0.000632147
0.000632014
0.000632025
0.000645352
0.000632057
0.000614228
0.000627559
0.000627331
0.000614216
0.000614245
0.000627546
0.000627562
0.000614265
0.000627587
0.000632099
0.000645292
0.000643149
0.000634249
0.000645291
0.000632033
0.000634271
0.000632052
0.000645403
0.000645371
0.000632048
0.000632106
0.000643135
0.000645348
0.000634277
0.000645296
0.000634271
0.000632081
0.000627561
0.000614226
0.000627537
0.000614232
0.000627515
0.000625351
0.000614249
0.000616498
0.0006275
0.000625388
0.000614299
0.000627567
0.000614216
0.000627562
0.000614233
0.000627523
0.000625412
0.000616521
0.000614252
0.000625402
0.000627536
0.000614304
0.000632034
0.000645316
0.000645262
0.000632042
0.000632012
0.000642961
0.000645264
0.000634082
0.00064513
0.000634105
0.000632071
0.000632039
0.000645372
0.000645262
0.000632102
0.000627458
0.000625303
0.000614297
0.000616454
0.000627512
0.000625288
0.000614339
0.000627577
0.000614285
0.000627583
0.00061431
0.00062746
0.000625289
0.00061646
0.000614347
0.000625279
0.000627558
0.000614347
0.000627585
0.000614329
0.000627641
0.000614317
0.000645384
0.000645369
0.00063226
0.000632016
0.000632034
0.000645396
0.000632054
0.000614206
0.000627538
0.000627439
0.000614197
0.000614223
0.000627536
0.000627562
0.000614242
0.000627574
0.000632063
0.000642975
0.00064529
0.0006341
0.000645177
0.000634138
0.000632096
0.000632072
0.000645373
0.000645322
0.000632063
0.000632076
0.0006454
0.000645316
0.000632124
0.000627511
0.000625394
0.000616509
0.000614291
0.000625351
0.000627542
0.000614364
0.000627507
0.000625308
0.000616494
0.000614358
0.000625318
0.000627581
0.000614371
0.000627608
0.000614262
0.000627592
0.000614316
0.000627615
0.000614333
0.000627659
0.000614325
0.000645428
0.000632139
0.000645449
0.000632148
0.000627331
0.000614303
0.000614304
0.000627633
0.00062764
0.000614316
0.000627663
0.000614312
0.000627669
0.000609763
0.000596462
0.000609758
0.000596457
0.000609756
0.000609753
0.000596603
0.00059645
0.000596446
0.000578682
0.000591991
0.000578678
0.000591987
0.00059177
0.000578673
0.000578669
0.000591989
0.000591985
0.000596455
0.000609767
0.000609761
0.000596445
0.000596509
0.000609718
0.000607575
0.000598652
0.000609699
0.000596479
0.000598687
0.000596512
0.00060973
0.000607585
0.0005987
0.000609703
0.000596476
0.000598703
0.000591977
0.000578677
0.000591991
0.000578661
0.000591977
0.000578656
0.000591975
0.000578661
0.000591926
0.000589757
0.000578693
0.000580896
0.00059195
0.000589795
0.000578712
0.000591929
0.000589804
0.000578679
0.000580912
0.000591942
0.000589813
0.000578714
0.00060975
0.000609777
0.000596662
0.000596436
0.000596449
0.000609785
0.000596458
0.000578663
0.000591973
0.00059183
0.000578653
0.000578652
0.000591973
0.000591981
0.000578662
0.000591979
0.000596496
0.000609719
0.000607602
0.000598654
0.00060971
0.000596473
0.000598699
0.000596439
0.000609743
0.000609751
0.000596432
0.000596496
0.000607627
0.000609714
0.000598703
0.000609714
0.00059872
0.000596459
0.000591964
0.00057867
0.000591985
0.000578652
0.000591909
0.000589754
0.000578686
0.000580885
0.000591943
0.000589793
0.000578696
0.000591962
0.000578654
0.000591965
0.000578651
0.00059191
0.000589784
0.000580894
0.000578672
0.000589808
0.000591927
0.000578695
0.000596512
0.000609812
0.000609838
0.000596475
0.000596598
0.000607625
0.000609821
0.000598795
0.000609783
0.000598771
0.000596532
0.000596516
0.00060985
0.000609845
0.000596482
0.000591996
0.000589831
0.000578689
0.000580966
0.000591971
0.000589872
0.000578735
0.000592018
0.000578662
0.000592
0.000578662
0.000592002
0.000589899
0.000580989
0.000578672
0.000589894
0.00059198
0.000578736
0.000592021
0.000578639
0.000591996
0.000578661
0.000609731
0.000609756
0.000596648
0.000596424
0.000596437
0.000609765
0.000596448
0.00057866
0.000591964
0.000591805
0.00057865
0.00057865
0.000591963
0.000591973
0.00057866
0.000591975
0.000596585
0.00060765
0.000609827
0.000598799
0.0006098
0.000598785
0.000596523
0.000596492
0.000609787
0.000609836
0.00059646
0.000596498
0.000609848
0.000609846
0.000596474
0.000591975
0.000589812
0.00058095
0.000578683
0.000589869
0.000591955
0.000578718
0.000591983
0.000589896
0.000580979
0.000578665
0.000589895
0.000591971
0.00057872
0.000591998
0.000578661
0.000591986
0.000578652
0.000592001
0.000578634
0.00059199
0.000578652
0.000609823
0.000596467
0.000609817
0.000596461
0.000591922
0.000578624
0.000578622
0.000591986
0.000591981
0.000578637
0.000591983
0.000578634
0.000591979
0.000574209
0.00056088
0.000574206
0.00056088
0.000574205
0.000574203
0.000561016
0.000560863
0.000560863
0.00054304
0.000556397
0.000543042
0.000556398
0.000556179
0.000543024
0.000543026
0.000556386
0.000556387
0.000560856
0.000574183
0.00057418
0.000560856
0.000560899
0.000574158
0.000571991
0.000563059
0.000574122
0.000560882
0.000563083
0.000560899
0.000574143
0.000572003
0.000563067
0.000574124
0.000560874
0.000563089
0.000556373
0.00054304
0.00055639
0.000543038
0.000556371
0.000543046
0.000556381
0.000543035
0.000556309
0.000554158
0.000543059
0.00054526
0.000556342
0.000554174
0.000543082
0.000556308
0.000554146
0.000543061
0.00054525
0.000556337
0.000554171
0.000543079
0.000574184
0.00057418
0.000561018
0.000560846