/*--------------------------------*- C++ -*----------------------------------*\
| =========                 |                                                 |
| \\      /  F ield         | OpenFOAM: The Open Source CFD Toolbox           |
|  \\    /   O peration     | Version:  v1906                                 |
|   \\  /    A nd           | Web:      www.OpenFOAM.com                      |
|    \\/     M anipulation  |                                                 |
\*---------------------------------------------------------------------------*/
FoamFile
{
    version     2.0;
    format      ascii;
    class       surfaceScalarField;
    location    "500";
    object      phi;
}
// * * * * * * * * * * * * * * * * * * * * * * * * * * * * * * * * * * * * * //

dimensions      [0 3 -1 0 0 0 0];
oriented        oriented;


internalField   nonuniform List<scalar> 
124908
(
1.97764e-07
1.18358e-07
-0.0011836
-8.07732e-08
-1.70423e-07
0.00118354
-0.00113215
-1.18963e-06
-1.48167e-07
-4.9152e-08
0.00113215
-2.10256e-07
1.22552e-06
2.36557e-07
8.89383e-07
-1.73247e-07
-8.17694e-07
2.32989e-07
-0.00113167
-1.1961e-06
-4.43948e-08
3.45495e-08
0.0011316
-2.12046e-07
1.21308e-06
2.39462e-07
8.65729e-07
-1.97937e-07
-8.39563e-07
2.12467e-07
-0.000270178
1.25245e-06
1.19474e-06
-2.0133e-07
-2.27051e-07
0.000268159
1.1799e-07
1.67854e-07
-0.00118338
-1.32598e-07
-8.38121e-08
0.00118331
-0.00113213
-1.16996e-06
-5.97857e-08
-1.18285e-07
0.00113211
-1.85534e-07
1.24318e-06
2.56449e-07
8.70524e-07
-1.91205e-07
-8.40689e-07
2.19158e-07
-0.00113162
-1.14276e-06
-1.29462e-07
-2.2629e-07
0.00113168
-1.66949e-07
1.25651e-06
2.71443e-07
8.76171e-07
-1.88269e-07
-8.36434e-07
2.2933e-07
-0.000270028
1.21307e-06
1.19651e-06
-2.07205e-07
-1.97548e-07
0.000268023
8.82927e-08
1.10762e-07
-0.001183
-5.56302e-08
-1.86728e-08
0.00118287
-0.00113202
-1.19493e-06
-1.78912e-07
1.13774e-08
0.00113199
-2.16016e-07
1.21636e-06
2.25464e-07
8.97058e-07
-1.65366e-07
-8.13283e-07
2.43632e-07
-0.00113177
-1.19697e-06
-1.89684e-07
2.74881e-08
0.00113175
-2.25086e-07
1.20341e-06
2.17561e-07
9.01729e-07
-1.63605e-07
-8.07842e-07
2.49817e-07
-0.000270102
1.19235e-06
1.161e-06
-1.81636e-07
-1.85123e-07
0.000268116
1.36526e-07
1.10975e-07
-0.00118252
-5.94273e-08
-8.67974e-08
0.00118241
-0.00113193
-1.18835e-06
-1.35728e-07
-3.34771e-08
0.00113192
-2.0535e-07
1.22645e-06
2.40076e-07
8.84757e-07
-1.76775e-07
-8.22814e-07
2.30062e-07
-0.00113161
-1.18457e-06
-1.15061e-07
-1.1702e-08
0.00113157
-2.06073e-07
1.21948e-06
2.39085e-07
8.82149e-07
-1.81507e-07
-8.25608e-07
2.31032e-07
-0.000270159
1.22357e-06
1.18169e-06
-1.93617e-07
-2.05112e-07
0.000268153
1.47445e-07
1.51024e-07
-0.00118216
-1.10016e-07
-1.10984e-07
0.00118208
-0.00113186
-1.17688e-06
-1.08516e-07
-8.54472e-08
0.00113184
-1.95565e-07
1.2347e-06
2.45869e-07
8.81338e-07
-1.80293e-07
-8.28295e-07
2.28192e-07
-0.00113148
-1.16836e-06
-1.13743e-07
-9.79313e-08
0.00113147
-1.9199e-07
1.23259e-06
2.49915e-07
8.8087e-07
-1.83511e-07
-8.28451e-07
2.30461e-07
-0.000270123
1.21686e-06
1.18438e-06
-1.96189e-07
-1.99706e-07
0.000268117
1.26322e-07
1.28103e-07
-0.00118184
-8.5388e-08
-8.41438e-08
0.00118176
-0.00113182
-1.1822e-06
-1.37301e-07
-5.8041e-08
0.00113182
-2.00415e-07
1.23006e-06
2.42273e-07
8.83316e-07
-1.78527e-07
-8.26063e-07
2.30007e-07
-0.00113146
-1.17999e-06
-1.35668e-07
-4.59735e-08
0.00113146
-2.05375e-07
1.22018e-06
2.36376e-07
8.84794e-07
-1.79157e-07
-8.242e-07
2.3424e-07
-0.000270131
1.20637e-06
1.17232e-06
-1.89577e-07
-1.94632e-07
0.000268137
1.34102e-07
1.33432e-07
-0.00118149
-8.9152e-08
-8.87891e-08
0.0011814
-0.0011318
-1.19143e-06
-1.35814e-07
-2.51324e-08
0.00113178
-2.12302e-07
1.21958e-06
2.29341e-07
8.88169e-07
-1.73274e-07
-8.2063e-07
2.33805e-07
-0.00113143
-1.18051e-06
-1.39798e-07
-4.58205e-08
0.00113142
-2.04083e-07
1.22137e-06
2.3916e-07
8.85399e-07
-1.79237e-07
-8.23514e-07
2.34094e-07
-0.000270184
1.21749e-06
1.18338e-06
-1.96192e-07
-2.01523e-07
0.00026818
1.12596e-07
1.1569e-07
-0.00118116
-7.6881e-08
-7.59989e-08
0.00118108
-0.00113176
-1.17816e-06
-1.18385e-07
-7.65534e-08
0.00113177
-1.92832e-07
1.23593e-06
2.51265e-07
8.74848e-07
-1.8711e-07
-8.34863e-07
2.21926e-07
-0.00113142
-1.17962e-06
-1.15797e-07
-4.85849e-08
0.00113141
-2.04169e-07
1.22096e-06
2.37912e-07
8.79508e-07
-1.8428e-07
-8.29613e-07
2.29109e-07
-0.000270178
1.21045e-06
1.17612e-06
-1.92761e-07
-1.97731e-07
0.000268182
1.60605e-07
1.48979e-07
-0.00118084
-1.03685e-07
-1.14423e-07
0.00118074
-0.00113177
-1.18917e-06
-1.44226e-07
-3.4776e-08
0.00113176
-2.12915e-07
1.22031e-06
2.26984e-07
8.93143e-07
-1.68934e-07
-8.16394e-07
2.38539e-07
-0.00113137
-1.17693e-06
-1.38578e-07
-6.00859e-08
0.00113136
-2.00141e-07
1.22511e-06
2.43064e-07
8.85375e-07
-1.79837e-07
-8.24166e-07
2.34076e-07
-0.00027023
1.21764e-06
1.1811e-06
-1.93727e-07
-2.01316e-07
0.000268227
7.81635e-08
9.58892e-08
-0.0011805
-6.1211e-08
-4.59331e-08
0.00118043
-0.00113171
-1.18492e-06
-9.92248e-08
-5.06956e-08
0.0011317
-1.98969e-07
1.22931e-06
2.45681e-07
8.71987e-07
-1.89551e-07
-8.37565e-07
2.19049e-07
-0.00113136
-1.18562e-06
-1.09531e-07
-3.09312e-08
0.00113136
-2.11777e-07
1.21368e-06
2.29222e-07
8.8003e-07
-1.83178e-07
-8.28901e-07
2.2959e-07
-0.000270212
1.21177e-06
1.18162e-06
-1.9748e-07
-1.98773e-07
0.000268215
1.57744e-07
1.40843e-07
-0.00118022
-1.0046e-07
-1.14261e-07
0.00118014
-0.00113172
-1.18485e-06
-1.44828e-07
-5.40534e-08
0.00113172
-2.06008e-07
1.22649e-06
2.35663e-07
8.87236e-07
-1.74888e-07
-8.22435e-07
2.32767e-07
-0.00113134
-1.17325e-06
-1.36353e-07
-7.37767e-08
0.00113134
-1.93191e-07
1.23101e-06
2.51745e-07
8.79361e-07
-1.86345e-07
-8.30495e-07
2.2818e-07
-0.000270275
1.21524e-06
1.17657e-06
-1.914e-07
-2.01074e-07
0.000268275
1.16377e-07
1.28036e-07
-0.00117987
-8.61633e-08
-7.91214e-08
0.00117979
-0.00113171
-1.18506e-06
-1.13314e-07
-4.86771e-08
0.00113169
-2.03835e-07
1.22609e-06
2.36983e-07
8.8162e-07
-1.80899e-07
-8.29201e-07
2.28603e-07
-0.00113135
-1.18781e-06
-1.11391e-07
-1.98894e-08
0.00113133
-2.18753e-07
1.20838e-06
2.19117e-07
8.86811e-07
-1.76636e-07
-8.22969e-07
2.36433e-07
-0.000270276
1.21613e-06
1.18461e-06
-1.98311e-07
-2.00421e-07
0.000268274
7.34607e-08
7.60553e-08
-0.00117963
-5.16519e-08
-4.52432e-08
0.00117957
-0.00113167
-1.19702e-06
-9.83851e-08
-1.87256e-08
0.00113168
-2.13363e-07
1.2181e-06
2.33834e-07
8.72732e-07
-1.87765e-07
-8.35001e-07
2.17837e-07
-0.0011313
-1.17708e-06
-1.15388e-07
-7.17905e-08
0.00113132
-1.91453e-07
1.23065e-06
2.57356e-07
8.68439e-07
-1.96474e-07
-8.40421e-07
2.1703e-07
-0.000270299
1.21677e-06
1.18324e-06
-1.98559e-07
-2.04082e-07
0.000268301
1.83331e-07
1.75214e-07
-0.00117932
-1.25606e-07
-1.35677e-07
0.00117922
-0.0011317
-1.17107e-06
-1.47655e-07
-9.8402e-08
0.00113171
-1.92657e-07
1.23814e-06
2.4433e-07
8.8752e-07
-1.75909e-07
-8.25055e-07
2.34552e-07
-0.00113137
-1.18356e-06
-1.26286e-07
-3.15692e-08
0.00113136
-2.17693e-07
1.21133e-06
2.17844e-07
8.91392e-07
-1.72634e-07
-8.19033e-07
2.40466e-07
-0.000270341
1.2152e-06
1.17882e-06
-1.93122e-07
-1.99342e-07
0.00026834
6.25442e-08
6.24968e-08
-0.00117905
-3.80862e-08
-3.9222e-08
0.001179
-0.00113171
-1.20266e-06
-8.99872e-08
4.80336e-09
0.0011317
-2.18445e-07
1.21214e-06
2.27535e-07
8.74549e-07
-1.86617e-07
-8.33826e-07
2.19639e-07
-0.00113131
-1.18144e-06
-1.02887e-07
-5.04881e-08
0.00113131
-1.9587e-07
1.22597e-06
2.52436e-07
8.69142e-07
-1.95923e-07
-8.4039e-07
2.1776e-07
-0.000270353
1.21525e-06
1.18184e-06
-1.97036e-07
-2.02057e-07
0.000268355
9.86299e-08
1.09528e-07
-0.00117877
-7.5308e-08
-6.45137e-08
0.0011787
-0.00113166
-1.18959e-06
-9.61518e-08
-4.53076e-08
0.00113166
-2.09828e-07
1.2214e-06
2.30996e-07
8.7484e-07
-1.83398e-07
-8.32671e-07
2.20331e-07
-0.00113132
-1.19398e-06
-9.57272e-08
-1.34598e-08
0.00113133
-2.26542e-07
1.20249e-06
2.11418e-07
8.80307e-07
-1.78675e-07
-8.25431e-07
2.28513e-07
-0.000270374
1.23164e-06
1.1978e-06
-2.084e-07
-2.12925e-07
0.000268366
1.82567e-07
1.65277e-07
-0.00117859
-1.22333e-07
-1.38428e-07
0.0011785
-0.00113176
-1.16414e-06
-1.61412e-07
-1.09583e-07
0.00113177
-1.76826e-07
1.24662e-06
2.58775e-07
8.79692e-07
-1.79788e-07
-8.30544e-07
2.26837e-07
-0.00113137
-1.15385e-06
-1.50321e-07
-1.23201e-07
0.00113138
-1.6594e-07
1.24958e-06
2.72506e-07
8.73278e-07
-1.90699e-07
-8.38257e-07
2.23196e-07
-0.000270412
1.18559e-06
1.14942e-06
-1.69465e-07
-1.76603e-07
0.000268423
-1.28233e-08
1.4027e-08
-0.00117819
-8.36042e-09
1.66128e-08
0.00117818
-0.00113166
-1.23385e-06
-1.925e-08
9.34015e-08
0.00113166
-2.58982e-07
1.17647e-06
1.87026e-07
8.63158e-07
-1.79843e-07
-8.27666e-07
2.0252e-07
-0.00113133
-1.22794e-06
-5.01408e-08
8.60369e-08
0.00113134
-2.6299e-07
1.16848e-06
1.8004e-07
8.71298e-07
-1.73097e-07
-8.18435e-07
2.13991e-07
-0.000270437
1.25705e-06
1.22927e-06
-2.33019e-07
-2.32457e-07
0.000268416
2.15262e-07
1.82691e-07
-0.00117816
-1.31906e-07
-1.70384e-07
0.00117806
-0.00113174
-1.13911e-06
-1.85865e-07
-1.84608e-07
0.00113178
-1.47616e-07
1.25952e-06
2.67549e-07
8.69584e-07
-1.70444e-07
-8.30164e-07
2.13757e-07
-0.00113137
-1.13624e-06
-1.41301e-07
-1.50799e-07
0.00113139
-1.4989e-07
1.24834e-06
2.65521e-07
8.55707e-07
-1.81218e-07
-8.37607e-07
2.05159e-07
-0.000270459
1.18662e-06
1.13782e-06
-1.49679e-07
-1.65376e-07
0.000268449
9.52573e-07
9.88423e-07
-0.00117768
-8.63643e-07
-8.23055e-07
0.00117742
-0.00113209
-1.12112e-06
-9.50194e-07
-3.53423e-07
0.00113252
-1.47616e-07
1.35898e-06
3.01381e-07
1.00344e-06
-8.3719e-08
-7.27502e-07
2.88114e-07
-0.00113173
-1.10406e-06
-1.00989e-06
-4.05388e-07
0.00113221
-1.39886e-07
1.36055e-06
3.08635e-07
1.00917e-06
-8.14787e-08
-7.17264e-07
2.99848e-07
-0.000270585
1.14211e-06
1.11193e-06
-1.2522e-07
-1.16422e-07
0.000268573
5.45764e-06
5.44733e-06
-0.00116424
-1.16573e-05
-1.1569e-05
0.000283604
0.000285449
0.000285355
0.000285356
4.49659e-06
6.74414e-06
7.16049e-06
4.49722e-06
6.74048e-06
7.15946e-06
-0.000280662
5.40964e-06
-5.45624e-06
5.96619e-06
-3.42168e-06
0.000278164
-0.000280645
-5.45252e-06
5.40411e-06
-3.41917e-06
5.95959e-06
0.000278153
-0.000271555
-5.40742e-06
-5.4241e-06
5.77253e-06
5.75548e-06
0.000270858
-1.25828e-06
-1.24715e-06
0.000270105
-0.000268082
2.48348e-07
2.33712e-07
0.00113128
-1.87902e-07
-0.00113125
-4.57588e-08
-1.22403e-06
2.41749e-07
-2.1387e-07
-8.18334e-07
2.37602e-07
-1.71096e-07
8.91455e-07
1.26675e-06
0.00113177
-1.30928e-07
-0.00113179
-5.63273e-08
-1.2226e-06
2.39534e-07
-2.16827e-07
-8.24196e-07
2.40786e-07
-1.74359e-07
8.97725e-07
-1.22008e-06
0.000270136
-0.000268115
2.30549e-07
2.3543e-07
0.00113241
-1.14539e-07
-0.00113237
-1.60936e-07
-1.1624e-06
2.64817e-07
-1.85338e-07
-8.38224e-07
2.23557e-07
-1.91396e-07
8.77236e-07
1.23574e-06
0.00113132
-7.71008e-09
-0.00113144
9.64938e-08
-1.24719e-06
2.23149e-07
-2.39e-07
-8.38409e-07
2.18593e-07
-1.93405e-07
8.74257e-07
-1.87601e-07
-0.00113215
-8.298e-09
-1.19393e-06
2.28099e-07
-2.16757e-07
-8.11026e-07
2.41239e-07
8.9767e-07
-1.65958e-07
1.23352e-06
0.00113142
-2.43833e-07
-0.00113137
-1.81103e-08
-1.23091e-06
2.05746e-07
-2.37572e-07
-7.92341e-07
2.64709e-07
-1.44485e-07
9.19085e-07
-1.18889e-06
0.000270004
-0.000268012
2.11163e-07
2.21505e-07
-6.7284e-08
-0.00113178
1.4357e-07
-1.21889e-06
2.11881e-07
-2.3899e-07
-8.26789e-07
2.22456e-07
8.77573e-07
-1.86773e-07
1.2246e-06
0.00113254
-1.72076e-07
-0.00113249
-1.3208e-07
-1.17295e-06
2.28663e-07
-2.09675e-07
-8.08767e-07
2.51682e-07
-1.63651e-07
9.0265e-07
-0.000268178
2.37276e-07
2.20608e-07
1.22152e-06
1.1612e-06
-1.76091e-07
-2.04055e-07
0.000268103
-1.27303e-06
-1.22257e-06
0.000270162
-0.000268146
2.29257e-07
2.49986e-07
-6.1901e-08
0.00113132
-2.09611e-07
1.26231e-06
2.47124e-07
8.91185e-07
-1.71094e-07
-8.18102e-07
2.37342e-07
-1.23418e-06
-1.41218e-07
-1.44737e-08
0.00113175
-2.26881e-07
1.25574e-06
2.31408e-07
8.98616e-07
-1.72567e-07
-8.22136e-07
2.41403e-07
0.00113141
-1.45104e-07
-0.0011314
-1.01418e-07
-1.21002e-06
2.54773e-07
-1.99368e-07
-8.24674e-07
2.32765e-07
-1.7639e-07
8.85517e-07
1.25459e-06
0.00113172
-1.53535e-07
-0.00113173
1.76045e-08
-1.24073e-06
2.3902e-07
-2.23559e-07
-8.29097e-07
2.3537e-07
-1.78263e-07
8.91175e-07
-1.97298e-07
-2.03737e-07
0.000268113
-1.24473e-06
0.000270137
-0.000268113
2.48051e-07
2.27045e-07
-1.64131e-07
0.00113245
-1.84488e-07
1.24707e-06
2.64173e-07
8.79438e-07
-1.89481e-07
-8.37055e-07
2.26592e-07
-1.24073e-06
-3.69175e-08
6.98728e-08
0.00113122
-2.28865e-07
1.24315e-06
2.34139e-07
8.7242e-07
-1.94758e-07
-8.41278e-07
2.1812e-07
0.00113249
-1.63668e-07
-0.00113249
-4.69261e-08
-1.18331e-06
2.36599e-07
-2.09651e-07
-8.21678e-07
2.43661e-07
-1.72336e-07
8.95735e-07
1.27265e-06
0.00113123
-2.008e-07
-0.00113118
-8.94839e-08
-1.20997e-06
2.61743e-07
-1.97577e-07
-8.28798e-07
2.37207e-07
-1.78945e-07
8.87726e-07
-1.75435e-07
7.71159e-08
0.0011314
-2.54332e-07
1.21569e-06
1.94699e-07
9.09758e-07
-1.51366e-07
2.53199e-07
-7.97586e-07
-5.05466e-08
-0.00113215
-1.31824e-07
-1.17026e-06
2.59359e-07
-1.84761e-07
-8.41942e-07
2.15666e-07
8.67844e-07
-1.93754e-07
1.24291e-06
0.0011311
1.70232e-09
-0.00113121
6.12573e-08
-1.23434e-06
2.37311e-07
-2.18384e-07
-8.45524e-07
2.06232e-07
-1.98746e-07
8.60664e-07
-2.03649e-07
-2.15163e-07
0.000267986
-1.26285e-06
0.000270067
-0.000268037
2.60942e-07
2.44614e-07
-9.65326e-08
-2.57927e-08
0.00113252
-2.2913e-07
1.20358e-06
2.12235e-07
8.95163e-07
-1.69386e-07
2.42436e-07
-8.13781e-07
-9.65422e-08
-0.00113158
-2.38105e-07
-1.13947e-06
2.82165e-07
-1.58753e-07
-8.44801e-07
2.19183e-07
8.66457e-07
-1.97995e-07
1.19525e-06
0.00113218
-1.74201e-08
-0.00113231
1.14879e-07
-1.21045e-06
2.19409e-07
-2.28557e-07
-8.39636e-07
2.16992e-07
-1.94594e-07
8.68288e-07
-0.000268038
2.15493e-07
2.33319e-07
1.21137e-06
1.19244e-06
-1.98172e-07
-1.90312e-07
0.000268147
-1.25787e-06
-1.21327e-06
0.000270121
-0.000268115
2.26087e-07
2.3844e-07
-8.64263e-08
0.00113139
-2.02249e-07
1.27064e-06
2.51118e-07
8.84593e-07
-1.77538e-07
-8.25745e-07
2.31357e-07
-1.23312e-06
-1.50869e-07
-1.08907e-08
0.0011317
-2.15225e-07
1.2627e-06
2.47212e-07
8.89644e-07
-1.79833e-07
-8.30921e-07
2.3383e-07
0.00113122
-8.14288e-08
-0.00113129
-1.5177e-08
-1.22306e-06
2.39913e-07
-2.13642e-07
-8.26198e-07
2.28863e-07
-1.7929e-07
8.83067e-07
1.28283e-06
0.00113166
-1.15263e-07
-0.00113168
-1.02147e-07
-1.21091e-06
2.62633e-07
-1.96956e-07
-8.34338e-07
2.30175e-07
-1.84e-07
8.8631e-07
-1.82033e-07
-2.03254e-07
0.00026812
-1.22191e-06
0.000270166
-0.000268142
2.2982e-07
2.51023e-07
-1.99546e-09
0.00113247
-2.19053e-07
1.21405e-06
2.28445e-07
8.99154e-07
-1.68872e-07
-8.17359e-07
2.45845e-07
-1.20617e-06
-2.19836e-07
-1.19569e-07
0.00113129
-1.96974e-07
1.27579e-06
2.6193e-07
8.93016e-07
-1.73685e-07
-8.2344e-07
2.41419e-07
0.00113232
-1.279e-07
-0.00113238
3.00092e-08
-1.19596e-06
2.31508e-07
-2.19195e-07
-8.22442e-07
2.35858e-07
-1.76445e-07
8.90997e-07
1.27355e-06
0.00113143
-1.49918e-07
-0.00113141
-1.14667e-07
-1.20847e-06
2.55754e-07
-2.03815e-07
-8.23216e-07
2.37324e-07
-1.7629e-07
8.91625e-07
-1.13387e-08
-1.95265e-08
0.00113101
-1.95225e-07
1.26346e-06
2.58876e-07
8.57288e-07
-2.03401e-07
2.03772e-07
-8.5095e-07
-1.56457e-07
-0.00113205
-1.13923e-08
-1.18887e-06
2.31219e-07
-2.09297e-07
-8.1896e-07
2.39756e-07
8.92276e-07
-1.70228e-07
1.28343e-06
0.00113098
-1.55977e-07
-0.00113095
-1.66399e-07
-1.18438e-06
2.66333e-07
-1.77538e-07
-8.29022e-07
2.3229e-07
-1.79318e-07
8.83541e-07
-1.66013e-07
-1.92735e-07
0.000268076
-1.21263e-06
0.000270158
-0.000268145
2.23592e-07
2.50178e-07
-6.23872e-08
6.45764e-08
0.00113209
-2.11621e-07
1.21011e-06
2.36626e-07
8.68902e-07
-1.9497e-07
2.17904e-07
-8.39982e-07
-1.91247e-07
-0.00113176
-2.49873e-08
-1.18627e-06
2.24369e-07
-2.16074e-07
-8.10379e-07
2.49807e-07
9.00512e-07
-1.65038e-07
1.24121e-06
0.00113208
-2.01127e-07
-0.00113205
-1.20488e-07
-1.16032e-06
2.57491e-07
-1.83616e-07
-8.2266e-07
2.39137e-07
-1.76501e-07
8.88776e-07
-0.000268083
2.47473e-07
2.57778e-07
1.22508e-06
1.19054e-06
-1.95186e-07
-2.01685e-07
0.000268103
-1.25842e-06
-1.23029e-06
0.000270106
-0.000268092
2.36837e-07
2.37387e-07
-5.29223e-09
0.00113115
-2.14758e-07
1.2559e-06
2.38925e-07
8.8308e-07
-1.79028e-07
-8.26041e-07
2.29094e-07
-1.20962e-06
-1.04092e-07
-1.08673e-07
0.00113163
-1.97625e-07
1.2827e-06
2.60656e-07
8.86669e-07
-1.83887e-07
-8.34284e-07
2.30554e-07
0.00113102
-1.27712e-07
-0.00113105
-2.84728e-08
-1.22282e-06
2.42102e-07
-2.11799e-07
-8.23641e-07
2.31877e-07
-1.7609e-07
8.85321e-07
1.26778e-06
0.00113155
-1.02545e-07
-0.00113158
-5.93931e-08
-1.22312e-06
2.46286e-07
-2.12263e-07
-8.29797e-07
2.3383e-07
-1.80062e-07
8.9085e-07
-2.01349e-07
-1.8261e-07
0.000268145
-1.21961e-06
0.000270159
-0.00026814
2.30626e-07
2.37414e-07
8.1393e-09
0.00113226
-2.12925e-07
1.21869e-06
2.37578e-07
8.86165e-07
-1.81041e-07
-8.27335e-07
2.31592e-07
-1.21137e-06
-1.14252e-07
-9.29348e-08
0.00113141
-2.06425e-07
1.27024e-06
2.5309e-07
8.88364e-07
-1.79648e-07
-8.26247e-07
2.33796e-07
0.00113214
-1.01342e-07
-0.00113217
-6.59835e-08
-1.17695e-06
2.47998e-07
-2.00289e-07
-8.32086e-07
2.29623e-07
-1.8436e-07
8.82847e-07
1.25971e-06
0.00113124
-7.6908e-08
-0.00113131
-3.00641e-08
-1.22119e-06
2.45179e-07
-2.1365e-07
-8.30205e-07
2.31264e-07
-1.82841e-07
8.84818e-07
-1.85914e-07
-1.51955e-07
0.00113103
-1.89131e-07
1.27458e-06
2.54791e-07
8.9302e-07
-1.7028e-07
2.40418e-07
-8.18828e-07
-1.57297e-07
-0.00113195
-5.82719e-09
-1.19474e-06
2.32208e-07
-2.13142e-07
-8.17064e-07
2.35306e-07
8.90542e-07
-1.71122e-07
1.24876e-06
0.00113112
-1.71163e-07
-0.00113111
-4.27526e-08
-1.22108e-06
2.32487e-07
-2.16585e-07
-8.12473e-07
2.41565e-07
-1.65665e-07
8.96222e-07
-2.04067e-07
-1.89927e-07
0.000268143
-1.21137e-06
0.000270107
-0.000268103
2.27477e-07
2.39363e-07
-2.09206e-07
-1.37581e-07
0.00113214
-1.87824e-07
1.23961e-06
2.52998e-07
8.93716e-07
-1.72174e-07
2.43079e-07
-8.17283e-07
-1.33239e-07
-0.00113167
2.48872e-08
-1.19297e-06
2.30891e-07
-2.14836e-07
-8.19986e-07
2.35327e-07
8.87342e-07
-1.76762e-07
1.22325e-06
0.00113224
-1.47057e-07
-0.00113223
-7.92304e-08
-1.17817e-06
2.38348e-07
-2.05219e-07
-8.17924e-07
2.39491e-07
-1.73666e-07
8.91287e-07
-0.000268157
2.36144e-07
2.3418e-07
1.22031e-06
1.17579e-06
-1.86335e-07
-2.00242e-07
0.000268097
-1.26847e-06
-1.23056e-06
0.000270145
-0.000268126
2.35525e-07
2.44778e-07
-4.44787e-08
0.00113101
-2.09372e-07
1.26114e-06
2.44854e-07
8.85236e-07
-1.75925e-07
-8.23471e-07
2.31778e-07
-1.22695e-06
-1.13797e-07
-4.28604e-08
0.00113152
-2.14494e-07
1.26456e-06
2.44679e-07
8.91609e-07
-1.78948e-07
-8.28673e-07
2.34812e-07
0.00113102
-1.46602e-07
-0.00113101
-7.99608e-08
-1.21277e-06
2.51852e-07
-2.01818e-07
-8.24825e-07
2.31149e-07
-1.77157e-07
8.84463e-07
1.26301e-06
0.00113145
-1.46058e-07
-0.00113147
-2.56899e-08
-1.22889e-06
2.43683e-07
-2.15089e-07
-8.27731e-07
2.36702e-07
-1.76904e-07
8.92586e-07
-1.953e-07
-1.97761e-07
0.000268137
-1.23652e-06
0.000270166
-0.000268142
2.41967e-07
2.33678e-07
-7.76461e-08
0.00113212
-1.99581e-07
1.23109e-06
2.48563e-07
8.84183e-07
-1.82957e-07
-8.30756e-07
2.30969e-07
-1.22319e-06
-9.22872e-08
-2.11557e-08
0.00113118
-2.15177e-07
1.25762e-06
2.43657e-07
8.86165e-07
-1.81023e-07
-8.28761e-07
2.32836e-07
0.00113212
-1.44618e-07
-0.00113212
-8.0626e-08
-1.17624e-06
2.48045e-07
-1.99993e-07
-8.2666e-07
2.35075e-07
-1.78976e-07
8.88345e-07
1.25904e-06
0.00113109
-1.45638e-07
-0.00113111
-2.99846e-08
-1.22216e-06
2.45613e-07
-2.1369e-07
-8.25315e-07
2.35867e-07
-1.77557e-07
8.89105e-07
-1.47704e-07
-2.16009e-08
0.0011311
-2.15824e-07
1.24798e-06
2.34467e-07
8.91334e-07
-1.7023e-07
2.36589e-07
-8.16789e-07
-1.06944e-07
-0.00113188
-8.76684e-08
-1.1757e-06
2.48559e-07
-1.93366e-07
-8.29494e-07
2.27214e-07
8.80284e-07
-1.81487e-07
1.25315e-06
0.00113096
-1.05444e-07
-0.00113102
-1.55584e-08
-1.2172e-06
2.39261e-07
-2.08244e-07
-8.26372e-07
2.29936e-07
-1.78156e-07
8.83014e-07
-1.92987e-07
-2.00444e-07
0.000268093
-1.2327e-06
0.00027011
-0.000268096
2.40571e-07
2.37117e-07
-1.22857e-07
-5.44767e-08
0.00113222
-2.05998e-07
1.22078e-06
2.38298e-07
8.87531e-07
-1.77246e-07
2.35782e-07
-8.21407e-07
-1.06136e-07
-0.0011315
-9.23176e-08
-1.16883e-06
2.50773e-07
-1.91738e-07
-8.2977e-07
2.28853e-07
8.79482e-07
-1.84975e-07
1.21802e-06
0.00113207
-1.03049e-07
-0.00113212
-1.65313e-08
-1.18337e-06
2.35527e-07
-2.06418e-07
-8.25516e-07
2.33709e-07
-1.80032e-07
8.84281e-07
-0.000268124
2.32744e-07
2.39372e-07
1.21239e-06
1.17725e-06
-1.8796e-07
-1.93812e-07
0.000268137
-1.25968e-06
-1.2218e-06
0.000270169
-0.000268155
2.29405e-07
2.37719e-07
-8.05839e-08
0.00113102
-2.01946e-07
1.26832e-06
2.50938e-07
8.85384e-07
-1.76424e-07
-8.24179e-07
2.32179e-07
-1.22878e-06
-1.49005e-07
-2.60031e-08
0.00113144
-2.15585e-07
1.26303e-06
2.4314e-07
8.92429e-07
-1.76924e-07
-8.27768e-07
2.36457e-07
0.00113101
-1.32556e-07
-0.00113102
-4.51465e-08
-1.22037e-06
2.41234e-07
-2.11774e-07
-8.2313e-07
2.31695e-07
-1.75706e-07
8.85646e-07
1.2695e-06
0.00113143
-1.41052e-07
-0.00113143
-5.48218e-08
-1.22347e-06
2.50696e-07
-2.09709e-07
-8.30822e-07
2.31917e-07
-1.8104e-07
8.88898e-07
-1.87625e-07
-1.99389e-07
0.000268148
-1.23022e-06
0.000270193
-0.000268167
2.35866e-07
2.38554e-07
-7.39982e-08
0.00113213
-2.01297e-07
1.22932e-06
2.46256e-07
8.89659e-07
-1.77645e-07
-8.25463e-07
2.36496e-07
-1.2205e-06
-1.54965e-07
-3.83195e-08
0.00113109
-2.1228e-07
1.26069e-06
2.46908e-07
8.89603e-07
-1.77101e-07
-8.24918e-07
2.36396e-07
0.00113212
-1.37411e-07
-0.00113212
-3.98933e-08
-1.18461e-06
2.37928e-07
-2.10166e-07
-8.25151e-07
2.34976e-07
-1.77852e-07
8.89135e-07
1.26304e-06
0.00113109
-1.47729e-07
-0.00113109
-5.59726e-08
-1.21784e-06
2.48306e-07
-2.10739e-07
-8.259e-07
2.34606e-07
-1.78453e-07
8.88336e-07
-1.03766e-07
-1.88076e-08
0.00113091
-2.09215e-07
1.25273e-06
2.37808e-07
8.82534e-07
-1.78458e-07
2.29144e-07
-8.26545e-07
-1.26186e-07
-0.00113182
-6.30664e-08
-1.18197e-06
2.42098e-07
-2.00651e-07
-8.26658e-07
2.2872e-07
8.82355e-07
-1.79306e-07
1.26014e-06
0.00113084
-1.22323e-07
-0.00113085
-5.71826e-08
-1.21088e-06
2.47897e-07
-2.01594e-07
-8.29142e-07
2.25159e-07
-1.82281e-07
8.79175e-07
-1.83067e-07
-2.00285e-07
0.000268105
-1.22382e-06
0.000270146
-0.000268132
2.32446e-07
2.40265e-07
-1.06816e-07
-1.25038e-08
0.00113202
-2.08534e-07
1.21656e-06
2.33234e-07
8.84078e-07
-1.79879e-07
2.33224e-07
-8.25175e-07
-1.32063e-07
-0.00113147
-6.45906e-08
-1.17621e-06
2.39757e-07
-2.01632e-07
-8.24653e-07
2.34039e-07
8.84426e-07
-1.79536e-07
1.22511e-06
0.00113195
-1.26435e-07
-0.00113196
-5.23142e-08
-1.17773e-06
2.44671e-07
-1.99936e-07
-8.28709e-07
2.2836e-07
-1.84531e-07
8.79816e-07
-0.000268124
2.36177e-07
2.41971e-07
1.2222e-06
1.1854e-06
-1.9384e-07
-2.01466e-07
0.000268157
-1.26423e-06
-1.22798e-06
0.000270186
-0.00026817
2.34287e-07
2.4153e-07
-3.56736e-08
0.001131
-2.12707e-07
1.25856e-06
2.41263e-07
8.83526e-07
-1.77789e-07
-8.24876e-07
2.29369e-07
-1.21973e-06
-1.38091e-07
-7.09208e-08
0.00113143
-2.05502e-07
1.27326e-06
2.54655e-07
8.8784e-07
-1.8241e-07
-8.32165e-07
2.31047e-07
0.00113096
-1.30566e-07
-0.00113097
-5.38661e-08
-1.21717e-06
2.48205e-07
-2.05614e-07
-8.27071e-07
2.29017e-07
-1.79582e-07
8.82539e-07
1.26851e-06
0.00113142
-1.25317e-07
-0.00113143
-5.83558e-08
-1.22139e-06
2.45803e-07
-2.10625e-07
-8.3091e-07
2.34603e-07
-1.79723e-07
8.90278e-07
-1.92633e-07
-1.92982e-07
0.000268176
-1.22287e-06
0.000270221
-0.000268198
2.30828e-07
2.37875e-07
-3.64369e-08
0.0011321
-2.10054e-07
1.22175e-06
2.38997e-07
8.86533e-07
-1.80483e-07
-8.27321e-07
2.32129e-07
-1.21752e-06
-1.36302e-07
-5.8771e-08
0.00113109
-2.1039e-07
1.26347e-06
2.48851e-07
8.86332e-07
-1.80406e-07
-8.27658e-07
2.32476e-07
0.00113207
-1.26949e-07
-0.00113208
-5.70908e-08
-1.17932e-06
2.46152e-07
-2.02173e-07
-8.30616e-07
2.31197e-07
-1.83095e-07
8.84589e-07
1.26452e-06
0.00113107
-1.17088e-07
-0.00113108
-5.87416e-08
-1.21631e-06
2.49954e-07
-2.08827e-07
-8.31213e-07
2.30172e-07
-1.83752e-07
8.83728e-07
-1.36948e-07
-7.61477e-08
0.00113085
-1.96589e-07
1.26448e-06
2.52104e-07
8.80088e-07
-1.81736e-07
2.26896e-07
-8.29137e-07
-1.49302e-07
-0.00113181
-3.28615e-08
-1.18786e-06
2.32471e-07
-2.0835e-07
-8.20478e-07
2.36072e-07
8.89541e-07
-1.72386e-07
1.25741e-06
0.00113087
-1.5521e-07
-0.00113087
-6.61106e-08
-1.2101e-06
2.39215e-07
-2.05519e-07
-8.20118e-07
2.37459e-07
-1.71603e-07
8.90439e-07
-1.92378e-07
-1.97781e-07
0.000268139
-1.21881e-06
0.000270165
-0.000268153
2.29413e-07
2.41598e-07
-1.38697e-07
-7.68342e-08
0.00113195
-1.94036e-07
1.23032e-06
2.49736e-07
8.80494e-07
-1.84347e-07
2.29771e-07
-8.28961e-07
-1.4187e-07
-0.00113144
-3.2803e-08
-1.18291e-06
2.36616e-07
-2.0666e-07
-8.23371e-07
2.34419e-07
8.85726e-07
-1.78969e-07
1.22373e-06
0.00113198
-1.52738e-07
-0.00113198
-6.8907e-08
-1.17523e-06
2.37048e-07
-2.02332e-07
-8.20629e-07
2.39889e-07
-1.74777e-07
8.90132e-07
-0.000268178
2.35233e-07
2.4013e-07
1.21557e-06
1.17871e-06
-1.88401e-07
-1.96263e-07
0.000268177
-1.25673e-06
-1.21837e-06
0.000270204
-0.00026819
2.25786e-07
2.34722e-07
-6.28402e-08
0.00113095
-2.04758e-07
1.26506e-06
2.47862e-07
8.84211e-07
-1.77848e-07
-8.2567e-07
2.30994e-07
-1.22765e-06
-1.19281e-07
-3.51435e-08
0.0011314
-2.17766e-07
1.26192e-06
2.39073e-07
8.90789e-07
-1.78935e-07
-8.29794e-07
2.34378e-07
0.00113094
-1.17003e-07
-0.00113094
-3.96419e-08
-1.22298e-06
2.38141e-07
-2.14642e-07
-8.26518e-07
2.28233e-07
-1.78637e-07
8.81851e-07
1.26552e-06
0.00113137
-1.19695e-07
-0.00113137
-4.27095e-08
-1.2285e-06
2.49501e-07
-2.12672e-07
-8.35206e-07
2.265e-07
-1.85958e-07
8.83956e-07
-1.98938e-07
-1.97912e-07
0.000268199
-1.23001e-06
0.000270228
-0.000268202
2.35904e-07
2.34325e-07
-5.88307e-08
0.00113206
-2.02461e-07
1.22766e-06
2.44543e-07
8.8665e-07
-1.80906e-07
-8.28953e-07
2.33727e-07
-1.21686e-06
-1.23048e-07
-5.56077e-08
0.00113106
-2.09655e-07
1.26357e-06
2.48697e-07
8.85399e-07
-1.82175e-07
-8.2984e-07
2.32023e-07
0.00113204
-1.25232e-07
-0.00113204
-3.31814e-08
-1.18768e-06
2.34548e-07
-2.13496e-07
-8.27472e-07
2.3247e-07
-1.79836e-07
8.86499e-07
1.2583e-06
0.00113104
-1.33977e-07
-0.00113104
-4.46804e-08
-1.22211e-06
2.43832e-07
-2.15006e-07
-8.26983e-07
2.33557e-07
-1.79349e-07
8.87233e-07
-1.39131e-07
-4.09638e-08
0.00113087
-2.14137e-07
1.24975e-06
2.31377e-07
8.89973e-07
-1.71399e-07
2.35929e-07
-8.19163e-07
-1.04336e-07
-0.00113177
-5.82214e-08
-1.18432e-06
2.4521e-07
-2.00121e-07
-8.33735e-07
2.20199e-07
8.74251e-07
-1.87021e-07
1.25389e-06
0.00113083
-9.72309e-08
-0.00113084
-3.43486e-08
-1.21857e-06
2.43654e-07
-2.07833e-07
-8.33699e-07
2.19468e-07
-1.87217e-07
8.73882e-07
-1.92616e-07
-1.96767e-07
0.000268157
-1.22294e-06
0.000270186
-0.000268172
2.32263e-07
2.35513e-07
-1.38791e-07
-3.71731e-08
0.00113197
-2.11852e-07
1.21516e-06
2.28197e-07
8.89848e-07
-1.74344e-07
2.38666e-07
-8.1963e-07
-1.18004e-07
-0.00113142
-6.0702e-08
-1.17771e-06
2.3971e-07
-2.02237e-07
-8.28497e-07
2.29686e-07
8.80147e-07
-1.8341e-07
1.21851e-06
0.00113193
-1.03935e-07
-0.00113194
-2.81426e-08
-1.18572e-06
2.40251e-07
-2.06471e-07
-8.32502e-07
2.23339e-07
-1.88805e-07
8.75427e-07
-0.000268174
2.31063e-07
2.37209e-07
1.22462e-06
1.18764e-06
-1.96783e-07
-2.04136e-07
0.000268193
-1.26943e-06
-1.23667e-06
0.000270239
-0.000268219
2.41091e-07
2.45428e-07
-3.0308e-08
0.00113093
-2.15014e-07
1.25636e-06
2.39715e-07
8.79304e-07
-1.81597e-07
-8.29033e-07
2.25166e-07
-1.22072e-06
-1.29369e-07
-7.30757e-08
0.00113138
-2.03251e-07
1.27383e-06
2.58326e-07
8.83225e-07
-1.8714e-07
-8.36919e-07
2.26633e-07
0.00113092
-1.48197e-07
-0.00113092
-7.00023e-08
-1.21277e-06
2.54424e-07
-1.99714e-07
-8.27121e-07
2.30238e-07
-1.79612e-07
8.83717e-07
1.2711e-06
0.00113138
-1.45932e-07
-0.00113139
-6.70572e-08
-1.21783e-06
2.46376e-07
-2.08126e-07
-8.2806e-07
2.39328e-07
-1.76083e-07
8.9442e-07
-1.8993e-07
-1.95198e-07
0.000268214
-1.22828e-06
0.000270279
-0.000268255
2.34938e-07
2.40082e-07
-3.59273e-08
0.00113204
-2.11868e-07
1.22008e-06
2.3842e-07
8.8297e-07
-1.83624e-07
-8.30565e-07
2.28318e-07
-1.22223e-06
-1.26954e-07
-4.52285e-08
0.00113104
-2.14557e-07
1.25894e-06
2.4506e-07
8.84969e-07
-1.81427e-07
-8.28996e-07
2.31206e-07
0.00113203
-1.31247e-07
-0.00113203
-8.88929e-08
-1.17145e-06
2.55614e-07
-1.92796e-07
-8.33428e-07
2.29792e-07
-1.85789e-07
8.82819e-07
1.26441e-06
0.00113101
-1.17818e-07
-0.00113102
-5.01704e-08
-1.21683e-06
2.50439e-07
-2.0863e-07
-8.32668e-07
2.29124e-07
-1.85079e-07
8.82618e-07
-1.12648e-07
-5.936e-08
0.00113082
-1.97894e-07
1.26206e-06
2.52462e-07
8.73988e-07
-1.87977e-07
2.20694e-07
-8.3547e-07
-1.59723e-07
-0.00113177
-5.76796e-08
-1.18124e-06
2.35728e-07
-2.02927e-07
-8.18716e-07
2.39711e-07
8.92806e-07
-1.69952e-07
1.25848e-06
0.00113082
-1.65436e-07
-0.00113082
-6.29723e-08
-1.20816e-06
2.39256e-07
-2.03905e-07
-8.18279e-07
2.4069e-07
-1.69185e-07
8.9339e-07
-1.91834e-07
-2.02352e-07
0.000268178
-1.2216e-06
0.000270207
-0.000268194
2.31384e-07
2.41821e-07
-1.15078e-07
-6.4762e-08
0.00113193
-1.94786e-07
1.22851e-06
2.51088e-07
8.749e-07
-1.90172e-07
2.23706e-07
-8.34547e-07
-1.32129e-07
-0.00113138
-4.10348e-08
-1.18024e-06
2.39898e-07
-2.03454e-07
-8.25867e-07
2.32479e-07
8.83838e-07
-1.81407e-07
1.22826e-06
0.00113193
-1.49623e-07
-0.00113193
-8.20251e-08
-1.16983e-06
2.40335e-07
-1.97232e-07
-8.21407e-07
2.40683e-07
-1.74866e-07
8.90348e-07
-0.000268224
2.39061e-07
2.41151e-07
1.20988e-06
1.17053e-06
-1.81615e-07
-1.91796e-07
0.000268232
-1.24882e-06
-1.206e-06
0.000270248
-0.000268238
2.16083e-07
2.28861e-07
-8.46248e-08
0.00113092
-1.98666e-07
1.27077e-06
2.53181e-07
8.88499e-07
-1.74637e-07
-8.22592e-07
2.35449e-07
-1.22795e-06
-1.37989e-07
-2.7926e-08
0.00113137
-2.20835e-07
1.26017e-06
2.34313e-07
8.9654e-07
-1.73627e-07
-8.24866e-07
2.40114e-07
0.0011309
-1.00745e-07
-0.00113091
-2.13872e-08
-1.22912e-06
2.27794e-07
-2.23548e-07
-8.24289e-07
2.29505e-07
-1.76305e-07
8.83466e-07
1.25883e-06
0.00113131
-1.02326e-07
-0.00113132
-1.80897e-08
-1.23586e-06
2.43242e-07
-2.20152e-07
-8.3567e-07
2.24679e-07
-1.87009e-07
8.82764e-07
-1.96636e-07
-1.97233e-07
0.000268256
-1.22277e-06
0.000270261
-0.00026824
2.30417e-07