/*--------------------------------*- C++ -*----------------------------------*\
| =========                 |                                                 |
| \\      /  F ield         | OpenFOAM: The Open Source CFD Toolbox           |
|  \\    /   O peration     | Version:  v1906                                 |
|   \\  /    A nd           | Web:      www.OpenFOAM.com                      |
|    \\/     M anipulation  |                                                 |
\*---------------------------------------------------------------------------*/
FoamFile
{
    version     2.0;
    format      ascii;
    class       surfaceScalarField;
    location    "500";
    object      phi;
}
// * * * * * * * * * * * * * * * * * * * * * * * * * * * * * * * * * * * * * //

dimensions      [0 3 -1 0 0 0 0];
oriented        oriented;


internalField   nonuniform List<scalar> 
124860
(
-7.22563e-07
-7.40978e-07
-0.00114637
3.66186e-07
3.71173e-07
0.0011471
-0.00113676
-1.43886e-06
8.02143e-07
2.47632e-07
0.00113725
-3.80134e-07
1.21116e-06
2.61314e-07
6.73792e-07
-5.79277e-07
-1.28499e-06
-1.70523e-09
-0.00113652
-1.41929e-06
7.63818e-07
2.24843e-07
0.00113705
-4.14118e-07
1.19083e-06
1.7725e-07
7.10225e-07
-5.50061e-07
-1.25937e-06
5.41137e-08
-0.000276407
1.46508e-06
1.43825e-06
-4.45101e-07
-4.44146e-07
0.000274392
-8.61191e-07
-8.56636e-07
-0.0011494
4.85584e-07
4.63484e-07
0.00115017
-0.00113884
-1.43476e-06
7.17297e-07
2.33643e-07
0.00113937
-4.41568e-07
1.17698e-06
1.34966e-07
7.40782e-07
-5.14177e-07
-1.22066e-06
7.90898e-08
-0.00113862
-1.50065e-06
8.05656e-07
3.62336e-07
0.00113908
-4.72124e-07
1.13646e-06
1.62333e-07
7.34791e-07
-5.26163e-07
-1.21461e-06
5.50662e-08
-0.000276471
1.57713e-06
1.53292e-06
-4.9409e-07
-5.0519e-07
0.00027436
-7.54166e-07
-7.80279e-07
-0.00115244
3.92822e-07
3.77794e-07
0.0011532
-0.00114074
-1.57083e-06
9.33506e-07
5.96938e-07
0.00114108
-5.37499e-07
1.07419e-06
8.96175e-08
7.28693e-07
-5.05397e-07
-1.20338e-06
5.07599e-08
-0.00114022
-1.55122e-06
9.0757e-07
5.83398e-07
0.00114068
-5.73482e-07
1.04336e-06
1.28308e-09
7.41918e-07
-4.91946e-07
-1.20421e-06
8.08798e-08
-0.000276476
1.51588e-06
1.47618e-06
-4.6883e-07
-4.80434e-07
0.000274433
-7.50212e-07
-7.53755e-07
-0.00115547
4.23761e-07
4.15902e-07
0.00115614
-0.00114222
-1.39097e-06
6.26913e-07
1.26758e-07
0.00114259
-3.39214e-07
1.23283e-06
2.45278e-07
7.40511e-07
-4.96444e-07
-1.19171e-06
7.52843e-08
-0.00114176
-1.39423e-06
6.63259e-07
1.854e-07
0.00114208
-3.17727e-07
1.23084e-06
2.7461e-07
7.18011e-07
-5.20156e-07
-1.20686e-06
4.57028e-08
-0.000276455
1.52085e-06
1.48755e-06
-4.51105e-07
-4.54947e-07
0.000274353
-8.97875e-07
-9.34175e-07
-0.00115821
5.45869e-07
4.9636e-07
0.001159
-0.00114373
-1.54917e-06
7.65742e-07
5.41692e-07
0.00114408
-5.19105e-07
1.1077e-06
1.40376e-07
7.47696e-07
-4.75493e-07
-1.16024e-06
5.51293e-08
-0.00114321
-1.53182e-06
8.31453e-07
6.30138e-07
0.00114352
-5.6e-07
1.04524e-06
-3.71938e-09
7.65673e-07
-4.44181e-07
-1.15708e-06
1.15986e-07
-0.000276558
1.40076e-06
1.35563e-06
-3.54754e-07
-3.68362e-07
0.000274524
-4.82224e-07
-4.88096e-07
-0.00116095
1.99143e-07
1.87712e-07
0.00116153
-0.00114482
-1.35021e-06
6.7e-07
7.45219e-08
0.00114514
-3.61323e-07
1.22383e-06
1.30648e-07
7.60228e-07
-4.36762e-07
-1.15999e-06
1.3584e-07
-0.00114425
-1.40545e-06
7.46577e-07
1.4579e-07
0.00114443
-3.02117e-07
1.23894e-06
3.3353e-07
7.18732e-07
-5.06391e-07
-1.17051e-06
2.27614e-08
-0.000276477
1.65216e-06
1.61299e-06
-5.35191e-07
-5.4391e-07
0.000274291
-9.27643e-07
-7.79976e-07
-0.00116359
3.90918e-07
6.04008e-07
0.0011643
-0.00114581
-1.6217e-06
9.45398e-07
8.92801e-07
0.00114572
-5.40589e-07
1.02364e-06
9.14066e-08
7.74328e-07
-4.44678e-07
-1.10173e-06
6.44072e-08
-0.00114535
-1.38565e-06
5.38833e-07
2.08611e-07
0.00114574
-4.19486e-07
1.18753e-06
1.16928e-07
7.75105e-07
-4.16848e-07
-1.12982e-06
1.37073e-07
-0.000275801
1.35679e-06
1.36709e-06
-3.56959e-07
-3.28833e-07
0.000273763
-6.37795e-07
-7.15406e-07
-0.00116616
4.61362e-07
3.39932e-07
0.00116672
-0.00114577
-1.29967e-06
4.48038e-07
-4.18394e-08
0.00114609
-2.65283e-07
1.29598e-06
2.98138e-07
7.47887e-07
-4.49738e-07
-1.14078e-06
8.58918e-08
-0.00114648
-1.48313e-06
7.17159e-07
5.23637e-07
0.0011465
-4.44288e-07
1.11016e-06
1.12341e-07
7.98986e-07
-4.02249e-07
-1.08578e-06
1.38021e-07
-0.000276154
1.47697e-06
1.41922e-06
-4.05822e-07
-4.26888e-07
0.00027409
-7.33854e-07
-7.32893e-07
-0.00116844
3.87697e-07
3.92316e-07
0.00116913
-0.00114703
-1.57377e-06
8.75809e-07
6.85109e-07
0.00114717
-6.05927e-07
9.76625e-07
-7.17039e-08
8.2119e-07
-3.53027e-07
-1.05584e-06
1.56608e-07
-0.0011464
-1.49641e-06
8.45088e-07
4.84779e-07
0.0011465
-4.57895e-07
1.1153e-06
1.64367e-07
7.52157e-07
-4.48465e-07
-1.102e-06
4.44761e-08
-0.000275678
1.60289e-06
1.56634e-06
-4.70757e-07
-4.79449e-07
0.000273459
-6.49317e-07
-6.06557e-07
-0.00117096
3.8307e-07
4.5076e-07
0.00117138
-0.00114703
-1.27356e-06
4.77751e-07
1.06888e-07
0.00114692
-1.41386e-07
1.34727e-06
4.49723e-07
7.16367e-07
-4.73141e-07
-1.133e-06
3.05075e-08
-0.00114692
-1.23244e-06
3.03164e-07
-2.42751e-09
0.0011471
-2.44689e-07
1.28273e-06
1.94127e-07
7.92721e-07
-3.66558e-07
-1.09039e-06
1.9045e-07
-0.000275017
1.173e-06
1.1526e-06
-1.71729e-07
-1.6713e-07
0.00027303
-5.16091e-07
-6.85572e-07
-0.00117293
4.14661e-07
1.69883e-07
0.00117355
-0.00114753
-1.43968e-06
5.56951e-07
2.93106e-07
0.00114786
-5.22214e-07
1.09038e-06
-2.34192e-09
8.37742e-07
-3.11229e-07
-1.02802e-06
1.96889e-07
-0.00114715
-1.62426e-06
1.02903e-06
9.86187e-07
0.0011468
-5.53684e-07
9.88926e-07
6.28005e-08
8.06065e-07
-3.99735e-07
-1.02168e-06
7.9526e-08
-0.000275654
1.63626e-06
1.55132e-06
-5.12763e-07
-5.55813e-07
0.000273535
-4.63402e-07
-3.94104e-07
-0.00117506
1.23514e-07
2.21841e-07
0.00117557
-0.00114779
-1.3613e-06
6.99054e-07
3.09157e-07
0.00114752
-2.9134e-07
1.22232e-06
2.63097e-07
7.80709e-07
-3.97369e-07
-1.05943e-06
1.0372e-07
-0.00114612
-1.23306e-06
4.88353e-07
-9.88753e-08
0.00114627
-2.28005e-07
1.29292e-06
2.77142e-07
7.54015e-07
-4.07249e-07
-1.0956e-06
1.07008e-07
-0.000274595
1.33331e-06
1.32191e-06
-2.78323e-07
-2.65199e-07
0.000272484
-7.78106e-07
-7.03473e-07
-0.00117726
4.6058e-07
5.71985e-07
0.00117771
-0.00114713
-1.44438e-06
6.62189e-07
4.99188e-07
0.0011471
-4.59831e-07
1.09681e-06
7.49057e-08
8.17503e-07
-3.40545e-07
-1.01631e-06
1.41546e-07
-0.00114696
-1.40113e-06
5.14224e-07
2.78023e-07
0.00114709
-3.9865e-07
1.13945e-06
1.34056e-07
8.17597e-07
-3.44318e-07
-1.01825e-06
1.5236e-07
-0.00027449
1.47193e-06
1.45756e-06
-4.17106e-07
-4.0789e-07
0.000272386
-4.53743e-07
-4.44093e-07
-0.00117881
2.29908e-07
2.46382e-07
0.00117923
-0.00114672
-1.3282e-06
5.59317e-07
2.52657e-07
0.00114663
-3.02133e-07
1.21523e-06
2.22893e-07
7.79818e-07
-3.73759e-07
-1.04398e-06
1.12572e-07
-0.00114695
-1.34154e-06
5.56948e-07
2.79084e-07
0.00114684
-3.15411e-07
1.19981e-06
2.15676e-07
7.9184e-07
-3.67608e-07
-1.03293e-06
1.25133e-07
-0.000274017
1.30442e-06
1.27144e-06
-2.57593e-07
-2.61657e-07
0.00027196
-6.95881e-07
-7.25414e-07
-0.0011806
5.45856e-07
5.04634e-07
0.00118097
-0.00114672
-1.32565e-06
4.02804e-07
1.32409e-07
0.00114681
-3.14601e-07
1.21179e-06
2.10481e-07
8.06446e-07
-3.39009e-07
-1.01337e-06
1.45093e-07
-0.0011467
-1.34689e-06
4.64944e-07
2.54836e-07
0.0011467
-3.47994e-07
1.17581e-06
1.675e-07
8.15715e-07
-3.31169e-07
-1.00466e-06
1.57136e-07
-0.000274066
1.42159e-06
1.37818e-06
-3.52273e-07
-3.64488e-07
0.000271983
-3.44472e-07
-3.75235e-07
-0.00118192
2.02203e-07
1.55115e-07
0.00118228
-0.0011469
-1.33273e-06
5.08435e-07
1.84836e-07
0.00114683
-3.21001e-07
1.20123e-06
2.00646e-07
8.13091e-07
-3.30404e-07
-1.00035e-06
1.49891e-07
-0.00114644
-1.3389e-06
5.69519e-07
2.73483e-07
0.00114627
-3.27957e-07
1.18298e-06
1.8793e-07
8.10247e-07
-3.36079e-07
-1.00039e-06
1.46427e-07
-0.000273644
1.3653e-06
1.32192e-06
-2.93187e-07
-3.04907e-07
0.000271555
-4.86065e-07
-4.86243e-07
-0.0011835
2.92166e-07
2.93987e-07
0.00118388
-0.00114642
-1.33917e-06
5.00748e-07
2.82639e-07
0.00114626
-3.28903e-07
1.18705e-06
1.90259e-07
8.19951e-07
-3.19089e-07
-9.84128e-07
1.53566e-07
-0.00114579
-1.31917e-06
4.82023e-07
2.34265e-07
0.00114566
-3.12001e-07
1.19339e-06
1.99537e-07
8.15253e-07
-3.25166e-07
-9.88548e-07
1.53312e-07
-0.000273457
1.34253e-06
1.30908e-06
-2.93516e-07
-2.98008e-07
0.000271396
-4.83145e-07
-4.72905e-07
-0.00118487
3.30592e-07
3.43953e-07
0.00118515
-0.00114581
-1.31469e-06
4.41103e-07
2.05903e-07
0.00114568
-3.07398e-07
1.20247e-06
2.04569e-07
8.22637e-07
-3.09137e-07
-9.75438e-07
1.60142e-07
-0.00114533
-1.30991e-06
4.32692e-07
1.92401e-07
0.00114523
-3.06046e-07
1.19605e-06
2.01828e-07
8.20852e-07
-3.13698e-07
-9.76688e-07
1.60148e-07
-0.000273294
1.34707e-06
1.3151e-06
-2.91506e-07
-2.94733e-07
0.000271218
-3.94079e-07
-3.87222e-07
-0.00118596
2.45686e-07
2.56867e-07
0.00118624
-0.00114528
-1.30666e-06
4.377e-07
1.80351e-07
0.00114514
-3.00807e-07
1.20506e-06
2.0906e-07
8.2519e-07
-3.03228e-07
-9.66643e-07
1.61672e-07
-0.00114489
-1.29626e-06
4.22791e-07
1.58895e-07
0.00114477
-2.94552e-07
1.20298e-06
2.07628e-07
8.25345e-07
-3.04579e-07
-9.66824e-07
1.6642e-07
-0.000273033
1.33852e-06
1.30561e-06
-2.8197e-07
-2.86154e-07
0.000270957
-4.33061e-07
-4.43521e-07
-0.00118703
3.12648e-07
3.16542e-07
0.00118728
-0.00114472
-1.29743e-06
3.90854e-07
1.69719e-07
0.00114457
-2.95275e-07
1.20553e-06
2.07145e-07
8.33186e-07
-2.89366e-07
-9.53557e-07
1.72724e-07
-0.00114438
-1.2915e-06
3.89074e-07
1.65745e-07
0.00114424
-2.89982e-07
1.20192e-06
2.08456e-07
8.32192e-07
-2.93556e-07
-9.54e-07
1.73828e-07
-0.000272778
1.32382e-06
1.28975e-06
-2.71697e-07
-2.76689e-07
0.000270713
-3.56885e-07
-3.56717e-07
-0.00118792
2.57896e-07
2.58982e-07
0.00118811
-0.00114411
-1.29055e-06
3.80953e-07
1.59651e-07
0.00114396
-2.83392e-07
1.20986e-06
2.14566e-07
8.3241e-07
-2.87365e-07
-9.47648e-07
1.69787e-07
-0.00114379
-1.28562e-06
3.78197e-07
1.61546e-07
0.00114363
-2.85496e-07
1.20266e-06
2.10973e-07
8.34695e-07
-2.87112e-07
-9.45567e-07
1.75893e-07
-0.000272587
1.31667e-06
1.28203e-06
-2.66293e-07
-2.71662e-07
0.000270526
-3.49683e-07
-3.5442e-07
-0.00118871
2.57928e-07
2.50292e-07
0.0011889
-0.00114351
-1.27739e-06
3.41272e-07
1.17719e-07
0.00114337
-2.76527e-07
1.21361e-06
2.13171e-07
8.39466e-07
-2.74946e-07
-9.37112e-07
1.80378e-07
-0.00114314
-1.27633e-06
3.57538e-07
1.39378e-07
0.00114298
-2.78984e-07
1.20515e-06
2.13282e-07
8.37491e-07
-2.80123e-07
-9.37709e-07
1.79332e-07
-0.000272378
1.31521e-06
1.27913e-06
-2.62435e-07
-2.68891e-07
0.000270315
-3.12425e-07
-3.09139e-07
-0.00118941
2.32788e-07
2.38509e-07
0.00118956
-0.0011429
-1.27612e-06
3.35274e-07
1.32655e-07
0.00114274
-2.72752e-07
1.21221e-06
2.17145e-07
8.39607e-07
-2.72253e-07
-9.30792e-07
1.78679e-07
-0.00114252
-1.2641e-06
3.1971e-07
1.09064e-07
0.00114237
-2.67179e-07
1.21192e-06
2.20966e-07
8.4035e-07
-2.73242e-07
-9.30442e-07
1.8395e-07
-0.00027217
1.29879e-06
1.26551e-06
-2.52757e-07
-2.57114e-07
0.000270115
-3.00461e-07
-3.0176e-07
-0.00118998
2.40601e-07
2.39788e-07
0.0011901
-0.00114227
-1.26404e-06
2.89407e-07
1.0139e-07
0.00114213
-2.64704e-07
1.21654e-06
2.18758e-07
8.45559e-07
-2.61504e-07
-9.21072e-07
1.87164e-07
-0.00114193
-1.26176e-06
2.93956e-07
1.08615e-07
0.00114177
-2.66932e-07
1.20918e-06
2.18668e-07
8.45859e-07
-2.64466e-07
-9.2026e-07
1.89324e-07
-0.000271993
1.29881e-06
1.26383e-06
-2.51695e-07
-2.57444e-07
0.00026994
-2.72694e-07
-2.74514e-07
-0.00119042
2.27482e-07
2.2437e-07
0.00119052
-0.00114169
-1.25849e-06
2.63661e-07
9.51414e-08
0.00114153
-2.57839e-07
1.21906e-06
2.24454e-07
8.49112e-07
-2.55436e-07
-9.13234e-07
1.90798e-07
-0.0011413
-1.25554e-06
2.70954e-07
1.05002e-07
0.00114115
-2.61695e-07
1.21048e-06
2.20871e-07
8.48428e-07
-2.58344e-07
-9.13377e-07
1.92534e-07
-0.000271822
1.28376e-06
1.2487e-06
-2.40114e-07
-2.4576e-07
0.000269776
-2.42389e-07
-2.40898e-07
-0.00119077
2.0356e-07
2.05683e-07
0.00119085
-0.00114106
-1.25311e-06
2.45248e-07
7.64057e-08
0.00114092
-2.53699e-07
1.22108e-06
2.28211e-07
8.5075e-07
-2.5126e-07
-9.07218e-07
1.91869e-07
-0.00114068
-1.24497e-06
2.41016e-07
6.98745e-08
0.00114054
-2.51387e-07
1.21738e-06
2.29466e-07
8.50012e-07
-2.53949e-07
-9.07812e-07
1.94582e-07
-0.000271671
1.28536e-06
1.25145e-06
-2.41966e-07
-2.46791e-07
0.000269623
-2.15105e-07
-2.13187e-07
-0.00119104
1.85656e-07
1.88781e-07
-0.00114047
-1.25282e-06
2.29052e-07
8.81713e-08
-2.58095e-07
1.21487e-06
2.19807e-07
8.5425e-07
-2.43801e-07
-8.99659e-07
1.95423e-07
-0.00114011
-1.24656e-06
2.23237e-07
8.5369e-08
-2.57522e-07
1.20956e-06
2.19391e-07
8.55956e-07
-2.44388e-07
-8.98126e-07
2.00702e-07
-0.000271503
1.27469e-06
1.24059e-06
-2.3355e-07
-2.3858e-07
0.00026946
-1.22763e-06
-1.19067e-06
0.000276315
-0.000274191
1.44547e-07
1.49296e-07
0.00113622
7.38531e-07
2.27228e-07
-1.48594e-06
2.24774e-07
-4.12313e-07
-1.23937e-06
3.30662e-08
-5.52255e-07
7.30166e-07
1.15952e-06
0.00113639
8.59346e-07
5.02447e-07
-1.567e-06
1.68694e-07
-4.90095e-07
-1.25173e-06
1.95636e-08
-5.61467e-07
7.20649e-07
-1.13329e-06
0.000275977
-0.000273897
1.10591e-07
1.01837e-07
0.00113734
7.44464e-07
2.89014e-07
-1.44451e-06
2.22973e-07
-4.05229e-07
-1.2651e-06
3.16032e-08
-5.65732e-07
7.05882e-07
1.25022e-06
0.00113618
6.93213e-07
1.91697e-07
-1.44649e-06
2.38139e-07
-3.75585e-07
-1.25104e-06
4.5692e-08
-5.59943e-07
7.26597e-07
9.09027e-07
4.88886e-07
-1.51841e-06
1.78519e-07
-4.74906e-07
-1.27583e-06
-1.94688e-09
6.75961e-07
-5.73166e-07
1.28314e-06
0.0011361
7.01902e-07
5.46092e-08
-1.39845e-06
2.71252e-07
-3.21828e-07
-1.26731e-06
3.78389e-08
-5.64616e-07
6.96911e-07
-1.21482e-06
0.000276198
-0.000274058
1.61561e-07
1.63292e-07
7.2145e-07
2.07559e-07
-1.40519e-06
2.35675e-07
-3.65615e-07
-1.26902e-06
3.47796e-08
6.97695e-07
-5.68273e-07
1.23605e-06
0.00113721
6.66312e-07
1.39986e-07
-1.37612e-06
2.56553e-07
-3.31355e-07
-1.265e-06
4.28449e-08
-5.59973e-07
6.95634e-07
-0.00027425
1.7437e-07
1.88232e-07
1.48108e-06
1.43527e-06
-4.33167e-07
-4.50382e-07
0.000274282
-1.13327e-06
-1.09915e-06
0.000276607
-0.000274512
6.51451e-08
7.21615e-08
2.47615e-07
0.00113673
-4.18448e-07
1.22957e-06
2.0973e-07
7.24936e-07
-5.44666e-07
-1.23995e-06
4.3315e-08
-1.49987e-06
7.29392e-07
3.16882e-07
0.00113687
-4.06088e-07
1.22972e-06
2.45636e-07
7.08301e-07
-5.65981e-07
-1.25849e-06
1.74364e-08
0.00113822
8.34855e-07
-0.00113773
5.13729e-07
-1.5653e-06
7.65096e-08
-5.44506e-07
-1.22946e-06
6.56803e-08
-5.11155e-07
7.3701e-07
1.27733e-06
0.00113846
6.53842e-07
-0.00113794
1.07903e-07
-1.42881e-06
2.41881e-07
-3.65012e-07
-1.25482e-06
5.97061e-08
-5.39547e-07
7.2539e-07
-4.34459e-07
-4.5741e-07
0.00027393
-1.24067e-06
0.000276544
-0.00027437
1.70838e-07
1.73715e-07
2.64566e-07
0.00113782
-4.0749e-07
1.19415e-06
2.08918e-07
7.15094e-07
-5.55131e-07
-1.2575e-06
4.65732e-08
-1.47276e-06
7.12108e-07
2.75373e-07
0.00113669
-4.35545e-07
1.21578e-06
1.69944e-07
7.35494e-07
-5.38938e-07
-1.23536e-06
6.42378e-08
0.00113933
8.53289e-07
-0.00113882
4.33735e-07
-1.51942e-06
7.75254e-08
-5.33658e-07
-1.22143e-06
7.16675e-08
-5.15898e-07
7.43893e-07
1.14014e-06
0.00113828
8.2538e-07
-0.00113776
4.64244e-07
-1.56956e-06
1.12572e-07
-5.30902e-07
-1.22992e-06
5.93833e-08
-5.25018e-07
7.3408e-07
8.16323e-07
3.03532e-07
0.00113663
-4.42557e-07
1.19591e-06
1.18078e-07
6.99856e-07
-5.46809e-07
6.04939e-08
-1.27037e-06
6.69079e-07
-0.00113831
5.72381e-08
-1.38282e-06
2.39767e-07
-3.55053e-07
-1.23809e-06
5.63671e-08
7.23785e-07
-5.36756e-07
1.06297e-06
0.0011381
9.24699e-07
-0.00113769
7.06706e-07
-1.65283e-06
5.9598e-08
-6.03246e-07
-1.2018e-06
5.5926e-08
-5.12184e-07
7.49225e-07
-4.28683e-07
-4.46885e-07
0.000274181
-1.10469e-06
0.000276485
-0.000274406
8.09632e-08
8.49517e-08
7.96754e-07
3.37122e-07
0.00113774
-4.47484e-07
1.15483e-06
1.09687e-07
7.00512e-07
-5.42733e-07
6.49641e-08
-1.26635e-06
8.51411e-07
-0.00113811
4.16039e-07
-1.52257e-06
1.09592e-07
-5.16343e-07
-1.21813e-06
5.59055e-08
7.34571e-07
-5.26127e-07
1.03478e-06
0.00113922
9.43211e-07
-0.00113881
6.27251e-07
-1.61212e-06
6.54286e-08
-5.93493e-07
-1.18566e-06
5.6737e-08
-5.09203e-07
7.57153e-07
-0.00027446
4.21717e-08
4.46716e-08
1.58547e-06
1.54066e-06
-5.1574e-07
-5.30192e-07
0.000274527
-1.20236e-06
-1.16075e-06
0.000276541
-0.000274453
1.31834e-07
1.43034e-07
5.33982e-07
0.00113866
-5.48441e-07
1.12818e-06
9.15446e-08
7.42364e-07
-5.1009e-07
-1.2169e-06
5.98347e-08
-1.47581e-06
7.25657e-07
2.36783e-07
0.00113899
-4.47299e-07
1.21817e-06
1.41009e-07
7.4472e-07
-5.17776e-07
-1.23539e-06
8.11058e-08
0.00113987
7.63444e-07
-0.00113945
3.10564e-07
-1.51168e-06
1.82652e-07
-4.37536e-07
-1.21498e-06
5.78093e-08
-5.08472e-07
7.328e-07
1.08085e-06
0.00114038
9.19077e-07
-0.00113999
6.40623e-07
-1.63508e-06
4.29842e-08
-5.88131e-07
-1.19168e-06
7.73451e-08
-4.94491e-07
7.65528e-07
-4.3711e-07
-4.42646e-07
0.000274513
-1.04158e-06
0.000276604
-0.000274569
4.17366e-08
4.5736e-08
4.89237e-07
0.00113979
-5.38557e-07
1.09146e-06
8.98432e-08
7.5142e-07
-5.14109e-07
-1.20898e-06
6.79079e-08
-1.54623e-06
7.75473e-07
3.82885e-07
0.00113874
-4.85414e-07
1.17122e-06
1.64842e-07
7.50068e-07
-5.19488e-07
-1.21344e-06
6.46528e-08
0.00114099
7.67628e-07
-0.00114057
3.20913e-07
-1.47369e-06
1.76933e-07
-4.33685e-07
-1.21752e-06
6.07972e-08
-5.15713e-07
7.27079e-07
1.14018e-06
0.00113987
8.56895e-07
-0.00113947
4.96582e-07
-1.53642e-06
7.4016e-08
-5.08391e-07
-1.22009e-06
7.7153e-08
-5.05029e-07
7.27627e-07
8.10955e-07
5.19657e-07
0.00113844
-4.81829e-07
1.14519e-06
1.73069e-07
7.43819e-07
-5.22042e-07
4.49971e-08
-1.20108e-06
9.37648e-07
-0.00114036
6.42646e-07
-1.59447e-06
3.96344e-08
-5.81573e-07
-1.19229e-06
7.12033e-08
7.46377e-07
-4.94102e-07
1.1976e-06
0.00113962
7.529e-07
-0.00113915
2.91548e-07
-1.47714e-06
1.40437e-07
-4.3634e-07
-1.21844e-06
7.02249e-08
-5.08712e-07
7.24736e-07
-4.80942e-07
-4.9284e-07
0.000274411
-1.10076e-06
0.000276494
-0.000274419
7.98511e-08
8.6235e-08
8.51788e-07
4.57069e-07
0.00113958
-4.68666e-07
1.1219e-06
1.8299e-07
7.2986e-07
-5.28408e-07
3.4256e-08
-1.19957e-06
8.65643e-07
-0.00113982
4.80129e-07
-1.49252e-06
6.60281e-08
-4.97441e-07
-1.21933e-06
7.78801e-08
7.28539e-07
-5.06475e-07
1.17144e-06
0.00114073
7.94793e-07
-0.00114028
2.91704e-07
-1.4315e-06
1.44932e-07
-4.24437e-07
-1.24131e-06
6.4965e-08
-5.22436e-07
7.08436e-07
-0.000274369
1.32703e-07
1.29202e-07
1.5037e-06
1.45981e-06
-4.39519e-07
-4.52246e-07
0.000274469
-1.16801e-06
-1.13269e-06
0.000276599
-0.000274525
1.09851e-07
1.16644e-07
3.05329e-07
0.00114031
-4.47491e-07
1.20303e-06
1.6302e-07
7.36675e-07
-5.02039e-07
-1.21205e-06
6.48059e-08
-1.6158e-06
9.04497e-07
6.17497e-07
0.00114072
-5.4778e-07
1.10911e-06
8.91956e-08
7.47072e-07
-5.03581e-07
-1.20095e-06
5.89809e-08
0.00114148
7.95789e-07
-0.00114111
4.51608e-07
-1.54153e-06
1.41322e-07
-4.8337e-07
-1.19757e-06
5.44402e-08
-4.97741e-07
7.38182e-07
1.27761e-06
0.00114185
6.69242e-07
-0.00114147
1.46946e-07
-1.44458e-06
2.80012e-07
-3.48405e-07
-1.22084e-06
4.86513e-08
-5.20445e-07
7.28871e-07
-5.18566e-07
-5.2653e-07
0.000274462
-1.23232e-06
0.000276499
-0.000274373
1.87258e-07
1.97369e-07
2.8785e-07
0.00114144
-4.37681e-07
1.16833e-06
1.64084e-07
7.24312e-07
-5.13278e-07
-1.22294e-06
6.39034e-08
-1.58979e-06
9.18549e-07
5.9284e-07
0.00114033
-5.7922e-07
1.08825e-06
1.6465e-08
7.30746e-07
-4.96609e-07
-1.21803e-06
7.51385e-08
0.00114261
8.17446e-07
-0.00114224
4.10525e-07
-1.49443e-06
1.39947e-07
-4.72285e-07
-1.19911e-06
5.98391e-08
-5.0449e-07
7.39238e-07
1.23496e-06
0.00114138
7.63701e-07
-0.00114111
3.04974e-07
-1.48635e-06
2.69816e-07
-3.73789e-07
-1.20882e-06
3.0957e-08
-5.26571e-07
7.20792e-07
7.99099e-07
3.63116e-07
0.00114015
-5.04986e-07
1.15157e-06
7.74533e-08
7.2905e-07
-4.94888e-07
7.74491e-08
-1.21517e-06
6.53874e-07
-0.00114183
1.38144e-07
-1.40649e-06
2.69345e-07
-3.46109e-07
-1.20192e-06
5.18481e-08
7.32251e-07
-5.12919e-07
1.14633e-06
0.0011413
8.4999e-07
-0.00114103
5.20226e-07
-1.54887e-06
1.41454e-07
-4.7571e-07
-1.1921e-06
5.38645e-08
-4.98882e-07
7.34642e-07
-5.22669e-07
-5.28319e-07
0.000274404
-1.1879e-06
0.000276338
-0.000274271
1.70519e-07
1.84926e-07
8.1738e-07
3.63841e-07
0.00114124
-4.99022e-07
1.1195e-06
7.59909e-08
7.29089e-07
-5.00085e-07
7.99894e-08
-1.22095e-06
7.40728e-07
-0.00114147
3.10417e-07
-1.45251e-06
2.56056e-07
-3.71205e-07
-1.19835e-06
3.68408e-08
7.23637e-07
-5.20749e-07
1.1088e-06
0.0011424
8.39247e-07
-0.00114211
4.91016e-07
-1.51719e-06
1.37012e-07
-4.7558e-07
-1.17965e-06
6.05964e-08
-4.96675e-07
7.44638e-07
-0.000274419
1.05173e-07
1.1363e-07
1.51778e-06
1.47584e-06
-4.4586e-07
-4.58415e-07
0.000274509
-1.1065e-06
-1.06758e-06
0.000276485
-0.000274438
5.9774e-08
6.67342e-08
3.74999e-07
0.00114182
-4.45956e-07
1.19718e-06
1.81142e-07
7.42922e-07
-4.94209e-07
-1.19156e-06
5.98048e-08
-1.42396e-06
6.55533e-07
1.2245e-07
0.00114221
-3.36715e-07
1.28261e-06
2.60064e-07
7.35609e-07
-5.07192e-07
-1.21385e-06
6.91671e-08
0.00114269
8.68273e-07
-0.0011424
5.71192e-07
-1.56167e-06
3.07952e-08
-5.34964e-07
-1.17102e-06
9.72102e-08
-4.52114e-07
7.56715e-07
1.10215e-06
0.00114337
8.943e-07
-0.00114295
5.28439e-07
-1.59673e-06
3.08243e-08
-5.87617e-07
-1.17623e-06
8.18354e-08
-4.65499e-07
7.63906e-07
-3.83638e-07
-3.81201e-07
0.000274448
-1.04629e-06
0.000276631
-0.000274568
3.62029e-08
4.89877e-08
3.63751e-07
0.00114295
-4.39854e-07
1.1569e-06
1.75234e-07
7.46882e-07
-4.98682e-07
-1.18797e-06
6.67525e-08
-1.42937e-06
6.79976e-07
1.8048e-07
0.00114169
-3.21164e-07
1.27648e-06
2.87423e-07
7.19387e-07
-5.24353e-07
-1.21227e-06
4.11303e-08
0.00114378
8.72603e-07
-0.0011435
5.91172e-07
-1.52089e-06
2.80571e-08
-5.28256e-07
-1.17685e-06
9.76836e-08
-4.62155e-07
7.50857e-07
1.19043e-06
0.00114286
7.53104e-07
-0.00114247
2.71766e-07
-1.47674e-06
1.03509e-07
-4.69868e-07
-1.17415e-06
1.10367e-07
-4.62349e-07
7.61001e-07
8.09424e-07
4.74885e-07
0.00114156
-4.36595e-07
1.17432e-06
1.76088e-07
7.24757e-07
-5.07457e-07
4.15506e-08
-1.19761e-06
8.33516e-07
-0.00114333
6.67883e-07
-1.57141e-06
9.39218e-09
-5.96558e-07
-1.16732e-06
8.31409e-08
7.53696e-07
-4.57491e-07
1.2996e-06
0.00114268
5.48238e-07
-0.0011423
9.59999e-09
-1.39706e-06
3.01361e-07
-3.0993e-07
-1.17197e-06
7.67849e-08
-4.81763e-07
7.48831e-07
-3.76494e-07
-3.78035e-07
0.000274269
-1.13674e-06
0.000276627
-0.000274515
1.01138e-07
1.14128e-07
8.02459e-07
4.58904e-07
0.00114268
-4.34691e-07
1.1389e-06
1.73666e-07
7.26806e-07
-5.09193e-07
4.45749e-08
-1.19224e-06
7.02339e-07
-0.00114285
4.04284e-07
-1.44837e-06
8.13439e-08
-4.7427e-07
-1.17089e-06
1.12888e-07
7.57916e-07
-4.58912e-07
1.27013e-06
0.00114376
5.64803e-07
-0.0011434
2.30118e-08
-1.35768e-06
3.04627e-07
-3.02396e-07
-1.18337e-06
7.21876e-08
-4.91703e-07
7.39255e-07
-0.000274425
2.19367e-07
2.1777e-07
1.6163e-06
1.56856e-06
-5.21022e-07
-5.37334e-07
0.000274359
-1.33782e-06
-1.31426e-06
0.000276293
-0.000274191
2.73242e-07
2.76577e-07
6.86378e-07
0.00114303
-5.9539e-07
1.0687e-06
-1.46858e-09
7.56548e-07
-4.51112e-07
-1.16336e-06
8.04829e-08
-1.57665e-06
8.12498e-07
4.13887e-07
0.00114375
-5.12545e-07
1.16056e-06
1.56898e-07
7.59678e-07
-4.79977e-07
-1.165e-06
5.72168e-08
0.00114376
5.12832e-07
-0.00114358
9.90922e-08
-1.38932e-06
3.99385e-07
-2.35746e-07
-1.17462e-06
4.12931e-08
-4.94246e-07
7.31996e-07
1.34639e-06
0.00114446
4.43286e-07
-0.00114425
1.6995e-08
-1.34766e-06
3.30816e-07
-2.19435e-07
-1.17337e-06
1.04781e-07
-4.71697e-07
7.5805e-07
-5.08446e-07
-5.06682e-07
0.000274521
-1.33227e-06
0.000276658
-0.000274511
2.72256e-07
2.59902e-07
6.30734e-07
0.00114413
-5.8129e-07
1.03739e-06
5.28263e-09
7.51264e-07
-4.63528e-07
-1.17036e-06
7.9168e-08
-1.56032e-06
8.74891e-07
5.06182e-07
0.0011432
-5.56323e-07
1.09774e-06
1.63368e-08
7.70164e-07
-4.45533e-07
-1.15905e-06
1.15421e-07
0.00114497
5.74514e-07
-0.00114476
-5.52368e-08
-1.32998e-06
4.09596e-07
-2.11686e-07
-1.17685e-06
4.41534e-08
-5.03705e-07
7.30774e-07
1.12878e-06
0.00114391
8.16231e-07
-0.00114374
6.61765e-07
-1.59056e-06
1.5007e-07
-5.07593e-07
-1.15033e-06
4.97461e-08
-4.75782e-07
7.49929e-07
5.70664e-07
1.00832e-07
0.00114302
-3.27411e-07
1.27387e-06
2.33583e-07
7.49372e-07
-4.68912e-07
9.84481e-08
-1.17095e-06
5.2851e-07
-0.00114458
-1.72211e-07
-1.28393e-06
3.53317e-07
-1.89083e-07
-1.17058e-06
9.20799e-08
7.43958e-07
-4.76942e-07
1.00417e-06
0.00114393
9.03034e-07
-0.00114369
8.59728e-07
-1.66151e-06
-5.10525e-08
-6.52326e-07
-1.12285e-06
1.13313e-07
-4.20076e-07
7.88993e-07
-4.97311e-07
-4.99363e-07
0.000274532
-1.11263e-06
0.000276103
-0.000274102
1.24209e-07
1.15564e-07
6.12381e-07
4.33956e-08
0.0011441
-3.13922e-07
1.25035e-06
2.43121e-07
7.43041e-07
-4.79524e-07
9.36618e-08
-1.17961e-06
9.02329e-07
-0.00114405
4.75693e-07
-1.5293e-06
1.68711e-07
-4.76462e-07
-1.152e-06
4.0153e-08
7.41243e-07
-4.83876e-07
9.8451e-07
0.00114512
9.65209e-07
-0.00114485
7.07545e-07
-1.60992e-06
-4.06074e-08
-6.33394e-07
-1.12294e-06
1.14316e-07
-4.25579e-07
7.89031e-07
-0.0002745
6.16843e-09
4.81085e-09
1.33011e-06
1.28491e-06
-2.76815e-07
-2.90303e-07
0.000274245
-1.10718e-06
-1.01888e-06
0.000276507
-0.000274452
1.51222e-08
5.54948e-08
-5.25635e-08
0.00114397
-1.95206e-07
1.36358e-06
3.75238e-07
7.35308e-07
-4.82531e-07
-1.17833e-06
6.88385e-08
-1.42229e-06
5.56339e-07
3.07545e-07
0.00114474
-3.99389e-07
1.23146e-06
1.01656e-07
7.79176e-07
-4.26817e-07
-1.15916e-06
1.52207e-07
0.00114511
8.60339e-07
-0.00114472
3.7146e-07
-1.55103e-06
3.90759e-09
-5.79475e-07
-1.11906e-06
1.29149e-07
-3.98149e-07
7.91457e-07
9.6042e-07
0.00114539
1.04964e-06
-0.0011453
1.00527e-06
-1.74922e-06
-5.476e-08
-6.98026e-07
-1.09457e-06
9.91319e-08
-4.1554e-07
8.09846e-07
-3.3807e-07
-3.62753e-07
0.000274586
-9.19383e-07
0.000276174
-0.00027427
-1.56416e-08
-8.93311e-09
-7.2526e-08
0.00114518
-1.86777e-07
1.32293e-06
3.67074e-07
7.37644e-07
-4.87469e-07
-1.17708e-06
7.71271e-08
-1.4771e-06
6.35071e-07
3.84264e-07
0.00114404
-3.4262e-07
1.24624e-06
3.07996e-07
7.32045e-07
-4.94805e-07
-1.16445e-06
3.61736e-08
0.0011462
6.95797e-07
-0.00114587
6.87692e-07
-1.55593e-06
-4.38512e-08
-6.20668e-07
-1.10147e-06
1.55666e-07
-3.83252e-07
8.10426e-07
1.31994e-06
0.00114494
4.66153e-07
-0.00114455
-6.66444e-08
-1.34682e-06
2.55937e-07
-2.97513e-07
-1.15308e-06
1.14864e-07
-4.46342e-07
7.59491e-07
9.53776e-07
8.21208e-07
0.00114401
-5.85785e-07
1.04115e-06
3.53761e-08
7.78097e-07
-4.39742e-07
8.5363e-08
-1.11956e-06
1.05609e-06
-0.00114573
1.02064e-06
-1.70356e-06
-6.33669e-08
-6.90988e-07
-1.09094e-06
9.63896e-08
7.99115e-07
-4.15393e-07
1.27166e-06
0.0011443
7.62511e-07
-0.0011441
1.08587e-07
-1.40776e-06
2.71842e-07
-3.13611e-07
-1.1687e-06
3.98819e-08
-4.88642e-07
7.20068e-07
-3.74395e-07
-4.01258e-07
0.000273997
-1.27828e-06
0.000276393
-0.000274223
2.10219e-07
2.182e-07
9.59024e-07
8.00175e-07
0.0011452
-5.81318e-07
1.00616e-06
2.91014e-08
7.80388e-07
-4.40918e-07
9.15594e-08
-1.11787e-06
4.71444e-07
-0.00114498
-4.76691e-08
-1.3018e-06
2.4375e-07
-2.87636e-07
-1.15468e-06
1.14753e-07
7.54492e-07
-4.48959e-07
1.18775e-06
0.00114537
6.00296e-07
-0.00114521
4.23921e-07
-1.4194e-06
2.20387e-07
-3.58055e-07
-1.1506e-06
6.52121e-08
-4.70553e-07
7.40088e-07
-0.000273747
1.82639e-07
2.22935e-07
1.60754e-06
1.61079e-06
-5.46624e-07
-5.25024e-07
0.000274361
-1.20211e-06
-1.17511e-06
0.000275772
-0.000273756
1.81379e-07
1.80692e-07
5.28675e-07
0.00114534
-5.73907e-07
1.0814e-06
4.26917e-08
7.90251e-07
-4.13557e-07
-1.10701e-06
1.00577e-07
-1.64922e-06
9.99455e-07
7.64092e-07
0.00114534
-5.29898e-07
1.08244e-06
1.18259e-07
7.76146e-07
-4.53751e-07
-1.11424e-06
5.85785e-08
0.00114535
7.49053e-07
-0.00114537
5.00132e-07
-1.48373e-06
1.95101e-07
-3.91361e-07
-1.13193e-06
7.03609e-08
-4.4702e-07
7.54124e-07
1.3394e-06
0.00114544
6.08614e-07
-0.00114526
1.38931e-08
-1.33851e-06
3.26222e-07
-2.46201e-07
-1.17556e-06
5.12615e-08
-4.83478e-07
7.26463e-07
-5.11917e-07
-5.09116e-07
0.000273924
-1.27646e-06
0.000275623
-0.000273502
2.37045e-07
2.57614e-07
7.89314e-07
0.00114641
-6.11025e-07
9.98179e-07
-5.8631e-09
8.1037e-07
-3.98279e-07
-1.0871e-06
1.26752e-07
-1.41316e-06
5.90773e-07
8.12124e-08
0.00114536
-4.12092e-07
1.24594e-06
1.45761e-07
7.71917e-07
-4.22772e-07
-1.13654e-06
1.28966e-07
0.00114645
7.79029e-07
-0.00114645
4.21129e-07
-1.43516e-06
2.0671e-07
-3.73753e-07
-1.13513e-06
6.82977e-08
-4.57876e-07
7.48753e-07
1.16145e-06
0.00114617
7.72566e-07
-0.00114603
4.00084e-07
-1.52792e-06
1.41294e-07
-4.59125e-07
-1.10197e-06
1.13406e-07
-4.22778e-07
7.90119e-07
6.36835e-07
-6.3333e-08
0.0011446
-2.80151e-07
1.31413e-06
3.03325e-07
7.28722e-07
-4.77541e-07
5.75712e-08
-1.1651e-06
5.32929e-07
-0.0011456
1.43562e-07
-1.32264e-06
3.0085e-07
-2.63577e-07
-1.15585e-06
5.82663e-08
7.27908e-07
-4.69891e-07
1.22399e-06
0.00114551
5.66646e-07
-0.0011452
2.20022e-07
-1.41659e-06
1.48508e-07
-3.8568e-07
-1.12813e-06
1.1771e-07
-4.2267e-07
7.65505e-07
-3.84962e-07
-3.85863e-07
0.000274365
-1.09802e-06
0.000276316
-0.000274312
1.16144e-07
1.39653e-07
4.91669e-07
1.94925e-07
0.00114565
-3.20767e-07
1.23578e-06
2.6013e-07
7.49017e-07
-4.5985e-07
8.04757e-08
-1.14464e-06
6.96253e-07
-0.00114636
5.33278e-07
-1.51208e-06
1.12568e-07
-4.73622e-07
-1.08819e-06
1.23181e-07
7.96961e-07
-4.11916e-07
1.20244e-06
0.00114659
5.97211e-07
-0.00114626
1.40315e-07
-1.37305e-06
1.62325e-07
-3.70924e-07
-1.13162e-06
1.12672e-07
-4.30694e-07
7.60375e-07
-0.000274054
1.66347e-07
1.60452e-07
1.44659e-06
1.38263e-06
-3.45873e-07
-3.72923e-07
0.000273661
-1.18853e-06
-1.16374e-06
0.000275725
-0.000273655
1.40194e-07
1.41846e-07
4.00197e-07
0.00114541
-3.68109e-07
1.23225e-06
2.14058e-07
7.59673e-07
-4.38104e-07
-1.12744e-06
8.24396e-08
-1.32667e-06
4.89474e-07
-9.89255e-08
0.00114576
-2.59901e-07
1.34649e-06
3.10619e-07
7.51136e-07
-4.5821e-07
-1.1557e-06
8.43204e-08
0.00114594
5.77002e-07
-0.00114574
3.25731e-07
-1.45524e-06
1.13457e-07
-4.32524e-07
-1.08641e-06
1.45015e-07
-3.78389e-07
8.01801e-07
1.12043e-06
0.00114663
6.26071e-07
-0.00114641
4.54965e-07
-1.50589e-06
1.26218e-08
-5.14443e-07
-1.07552e-06
1.84661e-07
-3.53607e-07
8.29975e-07
-3.10821e-07
-3.04845e-07
0.000273612