/*--------------------------------*- C++ -*----------------------------------*\
| =========                 |                                                 |
| \\      /  F ield         | OpenFOAM: The Open Source CFD Toolbox           |
|  \\    /   O peration     | Version:  v1906                                 |
|   \\  /    A nd           | Web:      www.OpenFOAM.com                      |
|    \\/     M anipulation  |                                                 |
\*---------------------------------------------------------------------------*/
FoamFile
{
    version     2.0;
    format      ascii;
    class       volVectorField;
    location    "500";
    object      U;
}
// * * * * * * * * * * * * * * * * * * * * * * * * * * * * * * * * * * * * * //

dimensions      [0 1 -1 0 0 0 0];


internalField   nonuniform List<vector> 
43248
(
(5.06088e-05 4.98869e-05 0.10894)
(-9.37836e-05 3.34017e-05 0.107946)
(3.5748e-05 -9.21184e-05 0.107959)
(-0.000127761 -0.000124598 0.106626)
(6.36029e-05 6.29748e-05 0.109231)
(-8.92933e-05 4.19377e-05 0.108146)
(5.04362e-05 -9.07289e-05 0.108157)
(-0.00017072 -0.00017342 0.106626)
(5.49908e-05 5.2918e-05 0.109518)
(-0.000102894 8.2359e-05 0.108317)
(8.42852e-05 -0.000101858 0.108307)
(-0.000143798 -0.000146169 0.106636)
(5.55372e-05 5.49815e-05 0.109804)
(-7.75684e-05 2.32249e-05 0.10846)
(2.96593e-05 -8.04122e-05 0.108446)
(-0.000145081 -0.000144386 0.106612)
(6.98296e-05 6.5848e-05 0.110068)
(-8.69114e-05 6.99828e-05 0.108602)
(8.65844e-05 -9.63064e-05 0.108586)
(-9.71636e-05 -0.000100429 0.106659)
(2.78136e-05 2.72851e-05 0.110318)
(-8.42016e-05 2.94317e-05 0.108702)
(2.74381e-05 -8.10284e-05 0.108677)
(-0.000193386 -0.000195509 0.106599)
(5.76605e-05 7.44505e-05 0.110577)
(-9.17597e-05 0.000105178 0.10878)
(3.70401e-05 -7.43712e-05 0.108792)
(-0.000100579 -8.51787e-05 0.10636)
(5.59699e-05 4.69648e-05 0.110813)
(-6.0999e-05 -1.49289e-06 0.108792)
(6.6999e-05 -7.49265e-05 0.108884)
(-0.000121682 -0.000128282 0.10649)
(5.3685e-05 5.40466e-05 0.111034)
(-9.07775e-05 0.000107814 0.108907)
(7.16734e-05 -8.55819e-05 0.108875)
(-0.000159745 -0.000161732 0.106279)
(4.82798e-05 5.32191e-05 0.111263)
(-5.54089e-05 -3.94531e-07 0.108891)
(3.29325e-06 -5.26955e-05 0.108931)
(-1.8017e-05 -1.25663e-05 0.106062)
(5.33414e-05 3.42169e-05 0.111459)
(-6.68404e-05 5.83486e-05 0.108963)
(0.000117934 -8.79697e-05 0.108929)
(-0.000170953 -0.000187551 0.106288)
(2.08886e-05 2.83763e-05 0.111654)
(-6.63343e-05 3.71162e-05 0.108958)
(-5.24303e-06 -5.90102e-05 0.10885)
(-7.27983e-05 -6.51773e-05 0.105876)
(6.30894e-05 7.19815e-05 0.111864)
(-6.60932e-05 6.74872e-05 0.108907)
(4.54478e-05 -5.72138e-05 0.108934)
(-0.000127549 -0.0001207 0.105842)
(3.11698e-05 3.24972e-05 0.112006)
(-5.80396e-05 3.05499e-05 0.108863)
(3.44604e-05 -5.67563e-05 0.108919)
(-5.79256e-05 -5.72171e-05 0.105666)
(6.71998e-05 6.38963e-05 0.112176)
(-4.70279e-05 2.23558e-05 0.108873)
(3.62052e-05 -5.03601e-05 0.108901)
(-0.000100079 -0.000102986 0.105682)
(2.78001e-05 2.40942e-05 0.1123)
(-5.06659e-05 2.8682e-05 0.108884)
(3.64882e-05 -5.3638e-05 0.108869)
(-7.56198e-05 -7.86141e-05 0.105519)
(4.05116e-05 4.05812e-05 0.112452)
(-4.73836e-05 3.56857e-05 0.108833)
(2.98822e-05 -4.61942e-05 0.108808)
(-7.33904e-05 -7.31014e-05 0.105453)
(4.30094e-05 4.40791e-05 0.112577)
(-4.20304e-05 2.74142e-05 0.108776)
(2.63589e-05 -4.20342e-05 0.108767)
(-7.42575e-05 -7.33265e-05 0.105389)
(3.33904e-05 3.42349e-05 0.11268)
(-4.03713e-05 2.49216e-05 0.108725)
(2.30233e-05 -3.96519e-05 0.108724)
(-6.99984e-05 -6.94625e-05 0.105289)
(4.05538e-05 4.08003e-05 0.11278)
(-3.56089e-05 2.32406e-05 0.108672)
(2.27961e-05 -3.56276e-05 0.108674)
(-6.49268e-05 -6.47707e-05 0.105195)
(3.37671e-05 3.38186e-05 0.112862)
(-3.36511e-05 2.09692e-05 0.108614)
(2.1507e-05 -3.34174e-05 0.108617)
(-6.23767e-05 -6.23987e-05 0.105123)
(3.3652e-05 3.30798e-05 0.112937)
(-2.98177e-05 1.7262e-05 0.108557)
(1.92166e-05 -3.08313e-05 0.108556)
(-6.08953e-05 -6.1422e-05 0.105044)
(3.04167e-05 3.0828e-05 0.113002)
(-2.8291e-05 1.77768e-05 0.108498)
(1.53188e-05 -2.724e-05 0.108497)
(-5.61139e-05 -5.57202e-05 0.104967)
(3.06928e-05 3.06031e-05 0.113054)
(-2.41857e-05 1.46087e-05 0.108439)
(1.52269e-05 -2.43479e-05 0.10844)
(-5.56077e-05 -5.57831e-05 0.104901)
(2.86417e-05 2.83952e-05 0.113095)
(-2.12228e-05 1.29151e-05 0.108384)
(1.4016e-05 -2.17808e-05 0.108381)
(-5.02429e-05 -5.04353e-05 0.104838)
(2.56807e-05 2.58381e-05 0.113127)
(-1.91413e-05 1.06142e-05 0.108325)
(1.00077e-05 -1.90344e-05 0.108323)
(-5.11582e-05 -5.09755e-05 0.10478)
(2.34166e-05 2.36462e-05 0.113152)
(-1.75706e-05 1.22486e-05 0.108268)
(1.20367e-05 -1.69773e-05 0.108269)
(-4.73044e-05 -4.71841e-05 0.104718)
(-3.05177e-05 -3.26198e-05 0.106726)
(3.68637e-05 8.67747e-05 0.107927)
(-6.50062e-05 9.69343e-05 0.1079)
(6.26222e-06 -1.18034e-05 0.106592)
(8.92492e-05 3.74782e-05 0.107927)
(8.45945e-05 -3.01446e-05 0.107911)
(-0.000102287 6.04958e-05 0.107901)
(-8.83056e-05 -1.67885e-05 0.107924)
(-4.29029e-05 4.08507e-05 0.106685)
(2.86343e-05 -8.80408e-05 0.107911)
(-2.20935e-05 -8.63681e-05 0.107924)
(5.11158e-05 5.51974e-05 0.106761)
(0.000133459 0.000130825 0.106582)
(6.32648e-06 4.67949e-06 0.106853)
(3.69338e-05 8.6696e-05 0.107975)
(-4.10031e-05 8.6896e-05 0.107943)
(6.92308e-05 9.73048e-05 0.108118)
(-2.25971e-05 8.46658e-05 0.108094)
(-0.000140011 0.000132425 0.10644)
(4.79796e-05 -4.8973e-05 0.106805)
(8.93635e-05 3.60008e-05 0.107974)
(8.75905e-05 -4.15873e-05 0.107959)
(9.70233e-05 6.52362e-05 0.108116)
(9.46064e-05 -6.49777e-05 0.108111)
(-0.000100533 -4.80023e-05 0.107972)
(-8.50171e-05 2.00284e-05 0.108096)
(-0.000100552 -8.98263e-05 0.108119)
(0.000124831 -0.000129122 0.106548)
(7.83344e-07 -2.32043e-06 0.106816)
(-5.02315e-05 -9.86369e-05 0.107972)
(6.21424e-05 -9.62903e-05 0.10811)
(-8.56911e-05 -0.000100224 0.108121)
(-2.68139e-05 -2.85577e-05 0.106818)
(0.000173014 0.000171236 0.10668)
(-2.16375e-05 -2.11986e-05 0.106832)
(7.11441e-05 9.73225e-05 0.108163)
(-4.18315e-05 9.06353e-05 0.108144)
(4.81427e-05 8.9166e-05 0.108276)
(-8.89553e-05 0.00010021 0.108284)
(-0.000126828 0.000126374 0.106657)
(-2.6089e-05 2.57609e-05 0.106859)
(9.5578e-05 6.93674e-05 0.108163)
(8.76856e-05 -5.28514e-05 0.108158)
(8.96253e-05 4.85239e-05 0.108276)
(0.000100651 -7.29712e-05 0.108265)
(-8.96544e-05 -6.62612e-05 0.108154)
(-0.000101996 8.79613e-05 0.108284)
(-9.14392e-05 -4.94756e-05 0.108258)
(0.000159532 -0.000161219 0.106642)
(-1.93664e-06 1.50611e-06 0.106825)
(-6.10459e-05 -9.28578e-05 0.108157)
(7.22291e-05 -0.000101316 0.108265)
(-4.67691e-05 -9.66019e-05 0.108259)
(2.76278e-05 2.41345e-05 0.106808)
(0.00013908 0.000138291 0.10665)
(-8.58008e-06 -1.0313e-05 0.106863)
(4.80676e-05 8.90317e-05 0.108318)
(-8.49004e-05 0.000100128 0.108316)
(6.05912e-05 9.17297e-05 0.108433)
(-2.20741e-05 8.01623e-05 0.108423)
(-0.000179485 0.00017819 0.106654)
(4.80704e-05 -4.60568e-05 0.106804)
(9.159e-05 4.55823e-05 0.108319)
(0.000103685 -8.35291e-05 0.108307)
(9.30653e-05 5.81889e-05 0.108434)
(8.8544e-05 -4.39417e-05 0.108416)
(-9.47282e-05 -5.82504e-05 0.108306)
(-7.79909e-05 2.30509e-05 0.108424)
(-9.6287e-05 -6.92738e-05 0.10843)
(0.000171485 -0.00017092 0.106638)
(-3.63952e-05 3.9186e-05 0.106768)
(-5.73109e-05 -9.69325e-05 0.108306)
(4.53955e-05 -8.55649e-05 0.108418)
(-6.93711e-05 -9.37227e-05 0.108428)
(4.93425e-06 6.22742e-06 0.106817)
(0.000145925 0.000145013 0.106665)
(1.27887e-05 1.18027e-05 0.106829)
(4.80607e-05 8.58909e-05 0.108467)
(-2.05596e-05 8.1176e-05 0.108459)
(8.53313e-05 9.90455e-05 0.10855)
(-8.04878e-05 9.93771e-05 0.108565)
(-0.000107427 0.000110217 0.106626)
(-1.99822e-05 2.42745e-05 0.106875)
(8.58251e-05 4.79143e-05 0.108468)
(8.26029e-05 -2.83661e-05 0.108442)
(9.98736e-05 8.54453e-05 0.108548)
(8.83117e-05 -4.66882e-05 0.108552)
(-9.38328e-05 -6.43523e-05 0.108453)
(-9.64747e-05 8.85809e-05 0.108566)
(-6.91812e-05 -8.04021e-06 0.108556)
(0.00011127 -0.000108959 0.106575)
(-1.14681e-05 1.47294e-05 0.106881)
(-6.44434e-05 -9.23869e-05 0.108453)
(5.4339e-05 -8.64456e-05 0.108554)
(-7.08401e-06 -7.16288e-05 0.108554)
(6.09478e-05 5.8415e-05 0.106845)
(0.000177042 0.00017496 0.106611)
(-7.68195e-05 -8.12544e-05 0.106745)
(9.56418e-05 9.99014e-05 0.10858)
(-6.27837e-05 8.88245e-05 0.108604)
(9.37609e-06 6.48104e-05 0.108659)
(-4.73856e-06 6.44211e-05 0.108678)
(-0.000168889 0.000172486 0.10666)
(7.65943e-05 -8.48503e-05 0.106873)
(0.000102176 9.13696e-05 0.108577)
(9.79273e-05 -7.95054e-05 0.108588)
(6.79917e-05 -4.96572e-07 0.108666)
(8.80824e-05 -7.90762e-05 0.108662)
(-7.5765e-05 -2.23868e-05 0.108589)
(-6.91637e-05 -7.78861e-06 0.108677)
(-9.55487e-05 -0.000107855 0.108683)
(0.000160257 -0.000157176 0.106682)
(-6.43786e-06 -1.05117e-06 0.106695)
(-1.74976e-05 -7.88444e-05 0.108587)
(6.68698e-05 -9.26643e-05 0.10866)
(-9.85129e-05 -9.85573e-05 0.10869)
(-4.94194e-05 -5.34159e-05 0.106848)
(6.77688e-05 6.56406e-05 0.106545)
(2.26409e-05 3.74221e-05 0.106846)
(-6.73765e-07 6.57407e-05 0.108675)
(-4.59349e-05 7.73e-05 0.108701)
(6.82828e-05 9.28832e-05 0.108779)
(-0.000129899 0.00010157 0.108775)
(-9.49424e-05 8.5638e-05 0.106674)
(-6.97564e-05 6.95693e-05 0.106731)
(6.6148e-05 -2.09567e-06 0.108684)
(7.443e-05 -4.35919e-05 0.108675)
(8.24632e-05 9.0823e-05 0.108778)
(6.60694e-05 -4.63547e-06 0.108747)
(-9.5667e-05 -0.000102667 0.108698)
(-0.000102683 0.000130193 0.108783)
(-8.39146e-05 -2.75642e-05 0.108714)
(0.000117661 -0.000126836 0.106471)
(-6.39463e-05 6.41726e-05 0.106785)
(-0.000101597 -9.59645e-05 0.108707)
(5.01995e-06 -6.71748e-05 0.108755)
(-4.97042e-05 -7.30609e-05 0.108712)
(3.90713e-05 5.50916e-05 0.106566)
(0.000178871 0.000193369 0.10661)
(-2.93595e-05 -3.38646e-05 0.106562)
(8.14918e-05 9.45256e-05 0.10881)
(-9.69768e-05 9.47959e-05 0.108775)
(6.19117e-05 8.1419e-05 0.108817)
(-9.36592e-06 7.32215e-05 0.108768)
(-0.000188638 0.000191605 0.106453)
(7.6125e-05 -6.86543e-05 0.106475)
(8.40798e-05 0.000100744 0.108805)
(7.70822e-05 -2.86297e-05 0.108787)
(8.33402e-05 5.60233e-05 0.108814)
(8.0899e-05 -5.81702e-05 0.108881)
(-7.36741e-05 -3.88476e-06 0.10874)
(-6.75454e-05 1.92546e-05 0.108766)
(-7.48097e-05 -3.76827e-05 0.108826)
(0.00010537 -0.000102476 0.106594)
(1.5619e-06 6.06398e-06 0.106789)
(-2.30591e-05 -6.31777e-05 0.108735)
(6.80592e-05 -7.52978e-05 0.108878)
(-3.16785e-05 -7.65765e-05 0.108822)
(3.65493e-05 3.2047e-05 0.106704)
(0.000108427 0.000101394 0.106328)
(-1.51722e-05 -1.99354e-05 0.106539)
(4.6899e-05 7.34185e-05 0.108819)
(5.8997e-06 6.43497e-05 0.108795)
(5.02636e-05 6.88919e-05 0.108865)
(-7.02632e-05 7.4188e-05 0.108886)
(-6.93571e-05 7.46229e-05 0.106281)
(-1.43497e-05 9.6385e-06 0.106632)
(7.86145e-05 3.46948e-05 0.108817)
(7.83473e-05 -6.26254e-05 0.108887)
(7.19411e-05 4.22015e-05 0.108874)
(9.28713e-05 -0.000111895 0.108866)
(-7.24345e-05 -5.16401e-05 0.108857)
(-7.70011e-05 6.20638e-05 0.108889)
(-8.33976e-05 -0.00010001 0.108887)
(0.0001402 -0.00013467 0.106536)
(2.29154e-05 -2.7774e-05 0.106447)
(-3.93367e-05 -7.74416e-05 0.108855)
(0.000103855 -9.58253e-05 0.108868)
(-9.19802e-05 -8.65511e-05 0.108896)
(-1.46176e-05 -1.93322e-05 0.106547)
(0.000136147 0.000133984 0.10631)
(-3.03718e-05 -2.24765e-05 0.106312)
(7.47305e-05 8.0216e-05 0.108883)
(-0.000114893 8.84329e-05 0.108902)
(4.47017e-05 7.80842e-05 0.1089)
(-4.22719e-05 7.69846e-05 0.108899)
(-0.000174215 0.000169741 0.10639)
(4.9599e-05 -4.32591e-05 0.106265)
(8.03532e-05 7.62625e-05 0.108892)
(8.31378e-05 -7.86674e-05 0.10887)
(7.29971e-05 5.9428e-05 0.108892)
(4.33349e-05 5.53111e-05 0.108911)
(-9.60278e-05 -0.000119555 0.108876)
(-7.33102e-05 5.05573e-05 0.108904)
(-5.97525e-05 9.77454e-06 0.108889)
(0.000146661 -0.000151223 0.106196)
(-0.000117654 0.000124304 0.106469)
(-0.00012115 -9.6386e-05 0.108885)
(-4.68695e-05 -3.95363e-05 0.108916)
(-5.3276e-06 -5.45836e-05 0.108881)
(8.58346e-05 9.3949e-05 0.106263)
(8.88468e-05 9.40872e-05 0.10608)
(-2.85302e-06 -2.00929e-05 0.106264)
(2.6653e-05 6.8104e-05 0.108894)
(1.31877e-05 6.07201e-05 0.108888)
(6.91565e-05 6.85286e-05 0.108892)
(-1.2198e-05 5.54166e-05 0.108935)
(-5.01283e-05 5.74705e-05 0.106038)
(4.11897e-05 -4.0006e-05 0.106449)
(6.50781e-05 3.17064e-05 0.108884)
(5.80999e-05 9.42198e-06 0.108928)
(7.96466e-05 4.35431e-05 0.108897)
(9.44059e-05 -0.000150069 0.108962)
(-4.33321e-05 5.20511e-05 0.108892)
(-5.38374e-05 1.55618e-05 0.108928)
(-6.08728e-05 -6.58624e-05 0.108953)
(3.98674e-05 -3.20584e-05 0.106279)
(9.04624e-05 -8.91676e-05 0.106321)
(4.67119e-05 -4.06619e-05 0.108881)
(0.000153659 -9.27736e-05 0.108956)
(-3.96031e-05 -7.16323e-05 0.108957)
(-1.50626e-06 -1.83568e-05 0.10652)
(0.000128441 0.000111049 0.106044)
(-8.64051e-05 -8.05322e-05 0.106328)
(5.32613e-05 6.24515e-05 0.108914)
(-6.48675e-05 6.49729e-05 0.108969)
(-1.77904e-05 4.6033e-05 0.108968)
(-7.61209e-05 6.65859e-05 0.108974)
(-0.00012502 0.000123427 0.106237)
(1.18063e-05 -2.43716e-05 0.106211)
(7.43137e-05 3.08637e-05 0.108923)
(8.58438e-05 -0.000123831 0.108934)
(4.44182e-05 -1.14675e-05 0.108972)
(5.47248e-05 -1.4353e-05 0.108834)
(-7.1593e-05 -0.000113489 0.108985)
(-7.48396e-05 5.80887e-05 0.108983)
(-7.38578e-05 -5.78841e-05 0.108954)
(0.000191076 -0.000192913 0.10602)
(-8.61181e-05 7.35283e-05 0.105968)
(-9.07807e-05 -8.32857e-05 0.108994)
(-3.68068e-06 -6.3056e-05 0.108843)
(-6.39022e-05 -7.21152e-05 0.108957)
(3.49527e-05 4.02419e-05 0.106123)
(6.02015e-05 6.80942e-05 0.106111)
(2.01912e-05 2.83353e-05 0.106111)
(2.16973e-05 5.86867e-05 0.108977)
(-4.78264e-05 5.95237e-05 0.108947)
(9.38395e-05 7.91149e-05 0.108982)
(-5.21085e-05 6.59469e-05 0.10891)
(-9.75469e-05 8.69694e-05 0.105952)
(1.52664e-05 -1.0103e-05 0.10603)
(5.34112e-05 3.26539e-05 0.108978)
(5.20249e-05 -5.61601e-06 0.10884)
(7.31663e-05 0.00010431 0.108981)
(5.70285e-05 -2.67952e-05 0.108919)
(-6.42261e-05 -1.98181e-05 0.108926)
(-6.37468e-05 5.97244e-05 0.108909)
(-6.31748e-05 -4.18377e-05 0.10891)
(4.59251e-05 -5.65412e-05 0.105776)
(-1.76472e-05 2.31672e-05 0.106109)
(-3.03652e-05 -5.8835e-05 0.108927)
(3.4334e-05 -5.45006e-05 0.108918)
(-5.2408e-05 -5.729e-05 0.108908)
(1.09459e-05 1.88779e-05 0.106068)
(0.000118745 0.000125749 0.105845)
(-6.87374e-05 -6.72901e-05 0.105979)
(5.79759e-05 7.00625e-05 0.108957)
(-6.28103e-05 6.93893e-05 0.10891)
(-1.77502e-06 4.68593e-05 0.108906)
(-4.1984e-05 6.1081e-05 0.10887)
(-0.000115963 0.000121004 0.105798)
(3.69496e-05 -3.8086e-05 0.105849)
(6.51584e-05 6.66533e-05 0.108956)
(6.0541e-05 -4.07164e-05 0.108937)
(4.52184e-05 4.37452e-07 0.108906)
(6.05246e-05 -4.54204e-05 0.108925)
(-7.03224e-05 -6.74503e-05 0.108915)
(-6.14047e-05 3.86868e-05 0.108875)
(-5.87637e-05 -2.71979e-05 0.108896)
(0.000110825 -0.000105333 0.105886)
(-3.293e-05 3.17316e-05 0.105965)
(-7.614e-05 -6.54349e-05 0.108914)
(4.20525e-05 -6.08896e-05 0.10893)
(-2.94666e-05 -5.70476e-05 0.108896)
(4.95484e-05 5.10691e-05 0.105883)
(6.9503e-05 7.00684e-05 0.105771)
(1.12064e-05 8.6539e-06 0.105808)
(2.66257e-05 5.15792e-05 0.108911)
(-3.00045e-05 5.79734e-05 0.108856)
(8.57145e-05 6.81425e-05 0.108891)
(-1.03529e-05 5.20957e-05 0.108866)
(-7.658e-05 7.5952e-05 0.105629)
(4.69334e-05 -3.93133e-05 0.105846)
(5.10172e-05 2.71204e-05 0.108911)
(5.69654e-05 -3.40127e-05 0.108912)
(6.95634e-05 8.26814e-05 0.108892)
(5.35004e-05 -2.00789e-05 0.108902)
(-5.1238e-05 -8.35115e-06 0.108884)
(-4.69992e-05 2.16452e-05 0.108865)
(-5.06597e-05 -3.326e-05 0.108891)
(8.34622e-05 -8.40611e-05 0.105737)
(-3.52663e-05 4.28655e-05 0.105898)
(-8.86723e-06 -5.0591e-05 0.108884)
(3.13477e-05 -4.85919e-05 0.108901)
(-3.021e-05 -5.20512e-05 0.108892)
(2.62945e-05 2.3704e-05 0.105901)
(0.00011319 0.000110306 0.105561)
(-6.40497e-05 -6.73958e-05 0.105695)
(6.40708e-05 6.27099e-05 0.108865)
(-1.40318e-05 5.16402e-05 0.108876)
(2.68858e-06 4.28899e-05 0.108811)
(-3.29722e-05 4.84009e-05 0.108886)
(-7.24855e-05 7.93105e-05 0.105638)
(3.10628e-05 -3.58956e-05 0.105825)
(6.46365e-05 6.01024e-05 0.108866)
(5.47731e-05 -2.79775e-05 0.108904)
(4.51821e-05 -1.80405e-06 0.108814)
(5.14952e-05 -4.39814e-05 0.108882)
(-5.39401e-05 -4.86776e-05 0.108897)
(-5.06362e-05 2.64118e-05 0.108888)
(-5.25609e-05 -4.30014e-05 0.108862)
(8.68572e-05 -8.00824e-05 0.10568)
(-3.10701e-05 2.64038e-05 0.10579)
(-4.47005e-05 -5.58702e-05 0.108898)
(3.74681e-05 -5.37424e-05 0.108884)
(-3.84768e-05 -5.48809e-05 0.108865)
(3.44093e-05 3.10436e-05 0.105742)
(5.50499e-05 5.20151e-05 0.105501)
(-2.44641e-05 -2.45659e-05 0.105724)
(4.0287e-06 4.13311e-05 0.108815)
(-3.66258e-05 4.71467e-05 0.10888)
(3.22466e-05 4.60666e-05 0.10884)
(-3.80305e-05 4.77728e-05 0.108843)
(-8.51882e-05 7.96185e-05 0.105603)
(3.06563e-05 -3.16372e-05 0.105698)
(4.31905e-05 2.34318e-07 0.108818)
(5.0125e-05 -4.4406e-05 0.108865)
(4.63724e-05 3.18964e-05 0.108842)
(4.75819e-05 -3.38901e-05 0.108816)
(-5.00092e-05 -3.45777e-05 0.108845)
(-4.89621e-05 3.62681e-05 0.108848)
(-4.60887e-05 -2.38744e-05 0.108815)
(8.20429e-05 -8.74917e-05 0.105563)
(-3.52555e-05 3.43269e-05 0.10565)
(-3.0795e-05 -5.19363e-05 0.108847)
(3.21646e-05 -4.86517e-05 0.108821)
(-2.35789e-05 -4.63791e-05 0.108817)
(3.95185e-05 3.94716e-05 0.105662)
(8.89622e-05 8.91251e-05 0.105504)
(-3.57646e-05 -3.4587e-05 0.105563)
(3.89986e-05 4.76276e-05 0.108836)
(-3.45436e-05 4.76965e-05 0.108829)
(3.47108e-05 4.74364e-05 0.108785)
(-2.53182e-05 4.44411e-05 0.108788)
(-8.00633e-05 8.02227e-05 0.105476)
(3.99326e-05 -3.73912e-05 0.105584)
(4.76292e-05 3.95944e-05 0.108837)
(4.64515e-05 -2.86835e-05 0.108804)
(4.65538e-05 3.58684e-05 0.108786)
(4.43212e-05 -2.40414e-05 0.108775)
(-4.51528e-05 -2.28902e-05 0.10881)
(-4.26339e-05 2.86997e-05 0.108789)
(-4.32085e-05 -2.61734e-05 0.108791)
(7.55958e-05 -7.54543e-05 0.105435)
(-3.63516e-05 3.88996e-05 0.105569)
(-2.3532e-05 -4.49257e-05 0.108812)
(2.74161e-05 -4.24784e-05 0.108776)
(-2.73578e-05 -4.24496e-05 0.108792)
(3.62088e-05 3.72722e-05 0.105601)
(6.99452e-05 7.10009e-05 0.105349)
(-4.38045e-05 -4.31766e-05 0.105497)
(2.64445e-05 4.47536e-05 0.108767)
(-2.55064e-05 4.33987e-05 0.108775)
(1.72005e-05 3.77834e-05 0.108731)
(-2.81342e-05 4.03984e-05 0.108736)
(-6.98565e-05 7.17929e-05 0.105371)
(3.58395e-05 -3.7321e-05 0.105493)
(4.3857e-05 2.74324e-05 0.108768)
(4.34397e-05 -2.44741e-05 0.108766)
(3.73358e-05 1.80022e-05 0.108733)
(3.95823e-05 -2.52126e-05 0.108733)
(-4.30082e-05 -2.77608e-05 0.108781)
(-4.1154e-05 2.59743e-05 0.108739)
(-4.07336e-05 -2.67995e-05 0.108742)
(7.28958e-05 -7.09268e-05 0.105361)
(-3.96414e-05 3.81137e-05 0.105493)
(-2.87571e-05 -4.23273e-05 0.108782)
(2.303e-05 -4.03813e-05 0.108735)
(-2.76232e-05 -4.03358e-05 0.108743)
(3.6872e-05 3.7468e-05 0.105499)
(6.61502e-05 6.6676e-05 0.105293)
(-3.37588e-05 -3.36159e-05 0.105405)
(2.17488e-05 3.81594e-05 0.108723)
(-2.70808e-05 3.94007e-05 0.108722)
(2.97257e-05 3.84522e-05 0.108688)
(-2.14435e-05 3.66455e-05 0.108682)
(-7.06934e-05 6.9095e-05 0.105284)
(4.02718e-05 -3.95854e-05 0.105405)
(3.76679e-05 2.24443e-05 0.108725)
(3.8671e-05 -2.52072e-05 0.10872)
(3.83249e-05 2.99388e-05 0.108689)
(3.67825e-05 -2.1781e-05 0.108684)
(-4.02188e-05 -2.71817e-05 0.108727)
(-3.63367e-05 2.20994e-05 0.108685)
(-3.76333e-05 -2.39337e-05 0.108682)
(6.74692e-05 -6.91101e-05 0.105286)
(-3.91948e-05 3.9873e-05 0.10541)
(-2.79162e-05 -3.98067e-05 0.108728)
(2.24615e-05 -3.6472e-05 0.108688)
(-2.41663e-05 -3.73647e-05 0.108683)
(3.83707e-05 3.86155e-05 0.105398)
(6.98329e-05 6.98853e-05 0.105196)
(-4.31146e-05 -4.30215e-05 0.105299)
(2.97656e-05 3.82128e-05 0.108669)
(-2.17169e-05 3.63366e-05 0.108669)
(1.81429e-05 3.44315e-05 0.108618)
(-2.28747e-05 3.51498e-05 0.108627)
(-6.45274e-05 6.54562e-05 0.105202)
(3.83124e-05 -3.77747e-05 0.105315)
(3.81751e-05 2.99143e-05 0.108671)
(3.63444e-05 -2.12439e-05 0.108672)
(3.42622e-05 1.82097e-05 0.108619)
(3.45714e-05 -2.19152e-05 0.10863)
(-3.62868e-05 -2.15846e-05 0.108667)
(-3.45246e-05 2.35642e-05 0.108629)
(-3.34907e-05 -1.94997e-05 0.108627)
(6.54057e-05 -6.44995e-05 0.105207)
(-3.84061e-05 3.89464e-05 0.105323)
(-2.17725e-05 -3.61228e-05 0.108668)
(2.25895e-05 -3.39517e-05 0.108632)
(-1.95816e-05 -3.34219e-05 0.108628)
(4.01849e-05 4.02338e-05 0.105321)
(5.7347e-05 5.73266e-05 0.105104)
(-3.73094e-05 -3.77909e-05 0.105245)
(1.38678e-05 3.2064e-05 0.108604)
(-2.12883e-05 3.38543e-05 0.108611)
(2.03932e-05 3.06826e-05 0.108569)
(-1.76771e-05 2.998e-05 0.108567)
(-6.31231e-05 6.32446e-05 0.105116)
(4.13997e-05 -4.2369e-05 0.105239)
(3.19959e-05 1.37584e-05 0.108605)
(3.36039e-05 -2.18283e-05 0.108615)
(3.09596e-05 1.95428e-05 0.108571)
(3.09005e-05 -2.09158e-05 0.108568)
(-3.29072e-05 -1.96554e-05 0.108614)
(-3.05895e-05 1.6475e-05 0.10857)
(-3.10356e-05 -2.10946e-05 0.108571)
(6.33325e-05 -6.32297e-05 0.105123)
(-4.00097e-05 3.90438e-05 0.105236)
(-1.95479e-05 -3.28658e-05 0.108616)
(1.9719e-05 -3.15126e-05 0.108571)
(-2.02773e-05 -3.13068e-05 0.108573)
(3.92321e-05 3.87091e-05 0.10524)
(6.39269e-05 6.34681e-05 0.105051)
(-4.44226e-05 -4.41055e-05 0.105166)
(2.19628e-05 3.0973e-05 0.108557)
(-1.81754e-05 2.93263e-05 0.108554)
(1.41968e-05 2.74693e-05 0.108514)
(-1.98622e-05 2.89315e-05 0.108511)
(-5.94031e-05 5.84977e-05 0.105045)
(3.91868e-05 -3.94737e-05 0.10516)
(3.11911e-05 2.12189e-05 0.108559)
(3.03419e-05 -2.01506e-05 0.108553)
(2.72799e-05 1.4621e-05 0.108516)
(2.79345e-05 -1.64648e-05 0.108508)
(-3.04086e-05 -2.09223e-05 0.108556)
(-2.90747e-05 1.92653e-05 0.108514)
(-2.84393e-05 -1.66972e-05 0.108509)
(5.99367e-05 -6.08485e-05 0.105041)
(-4.21435e-05 4.18327e-05 0.105159)
(-2.01947e-05 -3.07218e-05 0.108557)
(1.58477e-05 -2.81142e-05 0.108511)
(-1.71101e-05 -2.82592e-05 0.10851)
(4.14866e-05 4.18332e-05 0.105156)
(5.36647e-05 5.39869e-05 0.104976)
(-3.95995e-05 -3.96385e-05 0.105093)
(1.4409e-05 2.67352e-05 0.108499)
(-1.82496e-05 2.812e-05 0.108495)
(1.6998e-05 2.54125e-05 0.108457)
(-1.35359e-05 2.46378e-05 0.108451)
(-5.82021e-05 5.78843e-05 0.104969)
(4.33483e-05 -4.31614e-05 0.105089)
(2.64707e-05 1.49186e-05 0.108501)
(2.70669e-05 -1.57897e-05 0.108494)
(2.53591e-05 1.68449e-05 0.108458)
(2.50286e-05 -1.50612e-05 0.108452)
(-2.74603e-05 -1.53095e-05 0.108494)
(-2.4482e-05 1.3637e-05 0.108454)
(-2.52502e-05 -1.61999e-05 0.108451)
(5.56685e-05 -5.602e-05 0.10497)
(-4.12423e-05 4.14668e-05 0.10509)
(-1.58328e-05 -2.71192e-05 0.108495)
(1.5193e-05 -2.48813e-05 0.108455)
(-1.6093e-05 -2.52072e-05 0.108452)
(4.05467e-05 4.04814e-05 0.105086)
(5.58765e-05 5.572e-05 0.104906)
(-4.17617e-05 -4.19255e-05 0.105018)
(1.6052e-05 2.4617e-05 0.108441)
(-1.44303e-05 2.4428e-05 0.108436)
(1.44447e-05 2.2743e-05 0.108394)
(-1.25955e-05 2.23326e-05 0.108395)
(-5.32772e-05 5.34694e-05 0.104903)
(4.25891e-05 -4.21744e-05 0.105022)
(2.46993e-05 1.5792e-05 0.108443)
(2.46023e-05 -1.50413e-05 0.108438)
(2.28111e-05 1.40637e-05 0.108396)
(2.26401e-05 -1.37877e-05 0.108394)
(-2.47237e-05 -1.62243e-05 0.108436)
(-2.20131e-05 1.31114e-05 0.108398)
(-2.23105e-05 -1.22376e-05 0.108393)
(5.48755e-05 -5.46737e-05 0.104905)
(-4.15885e-05 4.19698e-05 0.105019)
(-1.598e-05 -2.48089e-05 0.108438)
(1.42841e-05 -2.24087e-05 0.108396)
(-1.18582e-05 -2.2412e-05 0.108394)
(4.37905e-05 4.35898e-05 0.105018)
(5.24104e-05 5.22655e-05 0.104836)
(-4.30537e-05 -4.29233e-05 0.104956)
(1.33361e-05 2.20255e-05 0.10838)
(-1.23452e-05 2.16204e-05 0.108381)
(1.12641e-05 1.9551e-05 0.108337)
(-1.29101e-05 2.0386e-05 0.108336)
(-5.12178e-05 5.16038e-05 0.10484)
(4.15263e-05 -4.16084e-05 0.104954)
(2.20436e-05 1.30146e-05 0.108381)
(2.20771e-05 -1.3445e-05 0.108379)
(1.94601e-05 1.13736e-05 0.108338)
(2.01402e-05 -1.17567e-05 0.108334)
(-2.1253e-05 -1.12567e-05 0.108379)
(-2.03218e-05 1.28672e-05 0.108339)
(-1.9784e-05 -1.24454e-05 0.108338)
(5.25214e-05 -5.21969e-05 0.104837)
(-4.28766e-05 4.28991e-05 0.104952)
(-1.09466e-05 -2.13279e-05 0.10838)
(1.1702e-05 -1.99815e-05 0.108337)
(-1.25662e-05 -1.96716e-05 0.10834)
(4.16252e-05 4.17923e-05 0.104958)
(5.00577e-05 5.02052e-05 0.104778)
(-4.36357e-05 -4.34123e-05 0.104893)
(1.18498e-05 1.90296e-05 0.108323)
(-1.09014e-05 1.90932e-05 0.108322)
(1.02744e-05 1.79017e-05 0.10828)
(-1.22746e-05 1.75338e-05 0.108279)
(-5.04152e-05 5.02014e-05 0.104776)
(4.14937e-05 -4.17423e-05 0.104893)
(1.88527e-05 1.20344e-05 0.108324)
(1.89892e-05 -1.02884e-05 0.10832)
(1.76683e-05 1.05494e-05 0.108281)
(1.68788e-05 -1.11219e-05 0.10828)
(-1.95317e-05 -1.27997e-05 0.108324)
(-1.76788e-05 1.1939e-05 0.108282)
(-1.7584e-05 -1.03214e-05 0.10828)
(4.91463e-05 -4.93044e-05 0.104775)
(-4.22061e-05 4.19812e-05 0.104895)
(-1.29973e-05 -1.93639e-05 0.108326)
(1.0764e-05 -1.70321e-05 0.108282)
(-1.05961e-05 -1.73801e-05 0.108281)
(4.33195e-05 4.35165e-05 0.104892)
(4.65632e-05 4.66779e-05 0.10472)
(7.89313e-06 1.66147e-05 0.108267)
(-1.26226e-05 1.74561e-05 0.108265)
(-5.00436e-05 4.976e-05 0.104719)
(1.64367e-05 7.97562e-06 0.108268)
(1.69375e-05 -1.24449e-05 0.108266)
(-1.66394e-05 -9.49646e-06 0.108265)
(4.94779e-05 -4.97009e-05 0.104721)
(-9.58592e-06 -1.64758e-05 0.108267)
(5.1174e-05 5.27277e-05 0.108872)
(-6.7394e-05 6.3892e-05 0.108872)
(4.69603e-05 -4.86929e-05 0.108864)
(-4.55134e-05 -4.07691e-05 0.10886)
(8.65637e-06 2.43845e-05 0.0940138)
(3.97964e-06 2.05645e-05 0.0835757)
(6.90819e-06 4.7177e-05 0.0940954)
(1.13305e-05 -6.1159e-06 0.0835609)
(2.00905e-06 7.65432e-07 0.072159)
(-1.50634e-05 -1.78053e-05 0.0721691)
(2.4949e-05 -4.5539e-06 0.0940133)
(1.77419e-05 6.29909e-06 0.0835852)
(4.78526e-05 -2.28351e-06 0.0940668)
(-1.9105e-06 7.79402e-06 0.0835706)
(-5.73658e-05 5.09026e-05 0.108943)
(4.73447e-05 -5.2222e-05 0.108932)
(-5.40828e-05 -5.22013e-05 0.108931)
(6.20593e-05 5.88356e-05 0.109157)
(-4.2315e-05 3.99379e-05 0.10915)
(5.94456e-05 -6.24757e-05 0.10916)
(-7.00786e-05 -7.34933e-05 0.109166)
(-6.58209e-05 -8.83559e-06 0.102441)
(-8.92473e-05 1.30878e-05 0.0957142)
(-0.000104884 1.25623e-05 0.108635)
(-8.587e-05 1.29299e-05 0.107995)
(-0.000114892 9.81161e-06 0.102458)
(-5.60714e-05 7.98311e-06 0.0956885)
(-0.000102304 -3.41349e-06 0.108694)
(5.3381e-06 -1.58486e-05 0.0721778)
(-1.05124e-06 5.90143e-06 0.0721711)
(-2.6466e-06 -6.15906e-05 0.102446)
(7.11082e-06 -0.000100997 0.108622)
(2.87054e-05 -6.41457e-05 0.095724)
(5.16589e-05 -9.80194e-05 0.108009)
(-3.10216e-06 -0.000111799 0.10244)
(7.77507e-06 -0.000101802 0.108684)
(1.18269e-05 -2.22498e-05 0.0957256)
(9.01883e-06 -4.33186e-05 0.0894584)
(-4.47041e-05 1.03023e-05 0.0894537)
(-2.2311e-05 -2.24141e-05 0.106847)
(-1.38024e-05 1.448e-05 0.08937)
(1.72459e-05 -1.54494e-05 0.0893636)
(-3.73005e-06 1.97715e-05 0.0937185)
(-1.26901e-05 2.10254e-05 0.0833669)
(5.13428e-06 3.95153e-05 0.0937585)
(-5.15677e-06 9.14287e-07 0.0833441)
(-1.92209e-05 2.58303e-06 0.0720304)
(9.41541e-06 4.32514e-06 0.0720411)
(1.72152e-05 1.05357e-06 0.0937284)
(2.16369e-05 -1.64034e-05 0.0833693)
(3.91903e-05 6.0739e-06 0.0937678)
(4.40514e-06 -9.85102e-06 0.0833404)
(-4.65632e-05 4.69333e-05 0.109222)
(5.72208e-05 -5.96264e-05 0.109232)
(-6.17047e-05 -6.57877e-05 0.109236)
(5.44279e-05 5.42924e-05 0.109446)
(-7.05432e-05 6.91101e-05 0.109446)
(6.00778e-05 -6.10045e-05 0.10944)
(-5.09289e-05 -5.3529e-05 0.109439)
(-5.16814e-05 8.41621e-06 0.10219)
(-4.54947e-05 3.43168e-05 0.0954253)
(-9.5706e-05 3.21153e-06 0.108875)
(-9.33171e-05 6.42996e-05 0.108197)
(-9.76864e-05 -7.01064e-06 0.102164)
(-6.04772e-06 1.14891e-05 0.0954386)
(-9.51647e-05 1.82295e-05 0.108936)
(2.14488e-06 -2.65098e-06 0.0720334)
(-9.51926e-06 -2.41604e-05 0.0720525)
(1.96367e-06 -5.87752e-05 0.102202)
(1.7168e-05 -9.81468e-05 0.108885)
(5.74784e-06 -6.65303e-05 0.0954195)
(4.36821e-05 -8.9722e-05 0.108197)
(6.59795e-06 -9.59489e-05 0.102193)
(1.59617e-05 -9.9038e-05 0.108943)
(7.03373e-06 -2.95576e-05 0.0954157)
(-4.51455e-05 -7.1597e-06 0.0891263)
(-6.65551e-07 -4.85704e-05 0.0891328)
(3.53981e-05 2.94617e-05 0.10677)
(-1.22669e-05 -2.32155e-05 0.0891309)
(-2.20475e-05 -1.09705e-05 0.0891353)
(3.93322e-06 1.34556e-05 0.0934547)
(1.64935e-06 1.60887e-05 0.0831669)
(-2.92026e-06 3.51829e-05 0.0934939)
(-3.52369e-06 -2.57605e-06 0.0831574)
(1.13182e-05 1.32681e-05 0.0718712)
(1.36433e-05 -5.75466e-06 0.0718704)
(1.36977e-05 1.21293e-06 0.093446)
(1.41935e-05 3.52245e-06 0.0831668)
(3.46178e-05 -5.05573e-06 0.0934909)
(-5.35394e-06 -8.99267e-07 0.0831597)
(-7.02047e-05 6.78301e-05 0.109522)
(6.64385e-05 -6.60758e-05 0.109517)
(-5.51272e-05 -5.62804e-05 0.109515)
(6.00868e-05 5.76143e-05 0.109738)
(-4.56476e-05 4.64815e-05 0.109735)
(5.54133e-05 -5.39509e-05 0.109737)
(-6.2526e-05 -6.28234e-05 0.109737)
(-5.00056e-05 -6.06148e-07 0.101932)
(-5.10106e-05 4.86936e-06 0.0951625)
(-0.000102549 2.90681e-05 0.109127)
(-9.72018e-05 6.54146e-05 0.10835)
(-9.20491e-05 9.2984e-06 0.101931)
(-3.85095e-05 9.90289e-07 0.0951529)
(-0.000101628 2.11536e-05 0.109193)
(1.78324e-05 1.94083e-05 0.0718753)
(5.03371e-06 3.06835e-05 0.0718756)
(7.13373e-06 -4.48044e-05 0.101929)
(2.54796e-05 -0.00010243 0.109123)
(2.37178e-05 -3.18488e-05 0.0951873)
(7.87193e-05 -9.69441e-05 0.108352)
(2.66248e-06 -8.99764e-05 0.101912)
(2.74311e-05 -9.96573e-05 0.109189)
(-1.2975e-05 -3.21848e-05 0.0951634)
(-1.38028e-05 -1.55366e-05 0.0889231)
(-1.88025e-05 -1.21719e-05 0.0889151)
(-1.17846e-05 -1.10803e-05 0.106848)
(-2.2298e-05 1.75077e-05 0.0888715)
(1.72636e-05 -2.36219e-05 0.0888642)
(6.27972e-06 1.33653e-05 0.0931961)
(5.04499e-06 1.25002e-05 0.0829665)
(7.98218e-06 3.29185e-05 0.0932261)
(1.91787e-05 -6.43224e-06 0.0829707)
(-3.98751e-05 -5.65596e-06 0.0717606)
(1.20163e-06 1.11966e-05 0.071749)
(1.40645e-05 5.29483e-06 0.0931912)
(1.46665e-05 1.75342e-06 0.0829666)
(3.41014e-05 1.0514e-05 0.0932243)
(-3.1893e-06 1.27909e-05 0.0829687)
(-4.13515e-05 4.32444e-05 0.109797)
(4.67703e-05 -4.56414e-05 0.109802)
(-5.85988e-05 -5.85431e-05 0.109806)
(6.23099e-05 6.2662e-05 0.109993)
(-5.81449e-05 6.61416e-05 0.110004)
(5.30593e-05 -4.56921e-05 0.109986)
(-3.52807e-05 -3.59437e-05 0.109993)
(-4.34193e-05 5.43298e-06 0.101652)
(-5.67555e-05 2.35409e-05 0.0948791)
(-9.41068e-05 1.2502e-06 0.10936)
(-8.5834e-05 4.62792e-05 0.108494)
(-8.53852e-05 -2.64175e-08 0.101648)
(6.96843e-06 2.55136e-05 0.0949212)