/*--------------------------------*- C++ -*----------------------------------*\
| =========                 |                                                 |
| \\      /  F ield         | OpenFOAM: The Open Source CFD Toolbox           |
|  \\    /   O peration     | Version:  v1906                                 |
|   \\  /    A nd           | Web:      www.OpenFOAM.com                      |
|    \\/     M anipulation  |                                                 |
\*---------------------------------------------------------------------------*/
FoamFile
{
    version     2.0;
    format      ascii;
    class       volVectorField;
    location    "500";
    object      U;
}
// * * * * * * * * * * * * * * * * * * * * * * * * * * * * * * * * * * * * * //

dimensions      [0 1 -1 0 0 0 0];


internalField   nonuniform List<vector> 
43024
(
(-1.16176e-05 -1.92903e-05 0.11244)
(1.33022e-05 -4.91991e-06 0.107485)
(3.75434e-07 5.16234e-06 0.107469)
(-3.1557e-05 -4.01381e-05 0.104236)
(-1.56198e-05 -1.10933e-05 0.112419)
(5.71234e-06 -1.23119e-05 0.107483)
(-2.18932e-05 1.0668e-05 0.107472)
(-3.19421e-05 -2.58511e-05 0.104181)
(-9.33582e-06 -6.35407e-06 0.11238)
(1.65287e-05 -1.27849e-06 0.107472)
(1.47475e-06 1.70894e-05 0.107483)
(-2.06392e-05 -1.95054e-05 0.104214)
(-9.61983e-06 -1.21766e-05 0.112335)
(1.1972e-05 -4.67958e-06 0.107464)
(-3.29767e-06 1.05943e-05 0.107466)
(-2.72163e-05 -2.99711e-05 0.104232)
(-1.40774e-05 -1.40194e-05 0.112303)
(1.00958e-05 -9.221e-06 0.107457)
(-1.06437e-05 1.05941e-05 0.107455)
(-2.75869e-05 -2.69332e-05 0.104219)
(-1.18093e-05 -1.16359e-05 0.112272)
(1.22268e-05 -7.41033e-06 0.107454)
(-5.80055e-06 1.21385e-05 0.107454)
(-2.4224e-05 -2.41186e-05 0.104225)
(-1.23305e-05 -1.2335e-05 0.112239)
(1.2326e-05 -3.22461e-06 0.107452)
(-5.87591e-06 1.25191e-05 0.107451)
(-2.75613e-05 -2.76008e-05 0.104244)
(-1.07584e-05 -1.05763e-05 0.112207)
(9.95411e-06 -9.52525e-06 0.107449)
(-5.97431e-06 1.00133e-05 0.10745)
(-2.56117e-05 -2.54943e-05 0.104243)
(-1.39693e-05 -1.50129e-05 0.112177)
(1.33168e-05 -3.7797e-06 0.107449)
(-7.52165e-06 1.26306e-05 0.107445)
(-2.64504e-05 -2.74565e-05 0.104262)
(-8.64896e-06 -7.10069e-06 0.112146)
(8.36095e-06 -6.80354e-06 0.107444)
(-3.43015e-06 9.41874e-06 0.107445)
(-2.76391e-05 -2.59733e-05 0.104257)
(-1.37333e-05 -1.51405e-05 0.11212)
(1.27881e-05 -6.30252e-06 0.107446)
(-9.6746e-06 1.19061e-05 0.107443)
(-2.50787e-05 -2.68868e-05 0.104281)
(-1.15642e-05 -1.07216e-05 0.112086)
(1.01702e-05 -5.87822e-06 0.107444)
(-1.64641e-06 1.0171e-05 0.107444)
(-2.83483e-05 -2.71289e-05 0.104281)
(-7.62001e-06 -7.16329e-06 0.112066)
(8.23319e-06 -3.11482e-06 0.107442)
(-9.63546e-06 9.39181e-06 0.107441)
(-2.79093e-05 -2.79423e-05 0.104291)
(-1.64431e-05 -1.73136e-05 0.112035)
(1.30185e-05 -1.07266e-05 0.107445)
(-2.86132e-06 1.15841e-05 0.107447)
(-2.59273e-05 -2.63426e-05 0.104306)
(-5.97212e-06 -6.06205e-06 0.112015)
(7.71974e-06 -5.75862e-07 0.107447)
(-7.59162e-06 8.57591e-06 0.107442)
(-2.75396e-05 -2.75493e-05 0.104312)
(-1.02987e-05 -9.23788e-06 0.111988)
(8.33582e-06 -4.31635e-06 0.107443)
(1.41454e-07 8.3502e-06 0.107445)
(-3.24532e-05 -3.20062e-05 0.104318)
(-1.6323e-05 -1.79086e-05 0.111977)
(1.34621e-05 -1.41591e-05 0.107456)
(-1.66148e-05 1.24433e-05 0.107452)
(-1.55282e-05 -1.65525e-05 0.104337)
(-1.4329e-06 9.63607e-07 0.111946)
(1.45864e-06 1.22843e-05 0.107446)
(1.24734e-05 4.2077e-06 0.10745)
(-4.40871e-05 -4.1439e-05 0.104342)
(-1.82051e-05 -2.12202e-05 0.111949)
(1.24399e-05 -1.93932e-05 0.107461)
(-1.759e-05 8.10919e-06 0.107457)
(-8.78695e-06 -1.32742e-05 0.104361)
(-1.80896e-05 -1.53624e-05 0.111931)
(2.04007e-06 8.37067e-06 0.107467)
(5.05516e-06 6.10564e-06 0.107467)
(-2.53997e-05 -2.08165e-05 0.104414)
(-2.8801e-05 -3.03508e-05 0.112012)
(9.61408e-05 -5.59778e-05 0.107738)
(-5.18279e-05 9.44564e-05 0.107741)
(5.08814e-05 4.90652e-05 0.104772)
(-4.14128e-05 -5.07373e-05 0.104316)
(-5.6524e-06 -1.63315e-05 0.107478)
(6.2207e-06 -1.29315e-05 0.107484)
(4.27808e-05 -4.0905e-05 0.104319)
(-9.50263e-06 -1.55082e-05 0.107482)
(-3.27882e-06 -6.73283e-06 0.107478)
(1.6846e-05 -2.1888e-06 0.107485)
(2.13045e-05 -7.82326e-07 0.107502)
(-3.34014e-05 3.54025e-05 0.104289)
(1.06938e-05 7.63712e-06 0.107478)
(9.03645e-06 1.46823e-05 0.107505)
(4.29768e-05 3.38903e-05 0.104354)
(2.82629e-05 1.96973e-05 0.104207)
(-4.7152e-05 -4.20837e-05 0.104339)
(-6.91668e-06 -1.6683e-05 0.107482)
(1.94765e-06 -1.34286e-05 0.107483)
(-1.02648e-05 -1.21609e-05 0.107492)
(2.39965e-07 -1.3131e-05 0.107479)
(-2.97148e-05 2.86236e-05 0.104205)
(3.90488e-05 -4.93085e-05 0.104318)
(-9.77059e-06 -1.57612e-05 0.107486)
(-5.18231e-06 -3.37777e-06 0.107467)
(-1.42148e-05 -5.51454e-06 0.107492)
(-1.65683e-05 1.10373e-05 0.107461)
(1.61752e-05 -9.34754e-06 0.107503)
(4.75336e-06 -1.28786e-05 0.107485)
(1.38602e-06 -2.64493e-06 0.107477)
(3.23168e-05 -3.34315e-05 0.104172)
(-5.69736e-05 4.66351e-05 0.104306)
(-4.38231e-07 9.28645e-06 0.107507)
(-2.35878e-05 7.99278e-06 0.107467)
(-7.32832e-06 3.52465e-06 0.107477)
(3.51932e-05 4.02164e-05 0.104295)
(2.35258e-05 2.97956e-05 0.104227)
(-4.24185e-05 -4.00114e-05 0.104324)
(-8.99502e-06 -1.0434e-05 0.107492)
(3.20443e-06 -1.28596e-05 0.107478)
(-3.33229e-06 -8.87935e-06 0.107477)
(1.15165e-05 -1.05793e-05 0.107474)
(-2.95472e-05 2.10891e-05 0.104207)
(4.89312e-05 -4.12189e-05 0.104329)
(-1.49848e-05 -1.57682e-06 0.107491)
(-1.77791e-05 1.27952e-05 0.107467)
(-1.22152e-05 4.29346e-07 0.107478)
(-1.27663e-05 1.09216e-05 0.107483)
(2.26133e-06 6.10477e-06 0.107467)
(1.4575e-05 -3.66776e-06 0.107474)
(1.38317e-05 1.78972e-05 0.107459)
(1.42724e-05 -2.28716e-05 0.104203)
(-3.9319e-05 4.70708e-05 0.104346)
(-1.24871e-06 6.90782e-06 0.107466)
(-3.16273e-06 1.68666e-05 0.107483)
(1.4021e-05 1.70025e-05 0.10746)
(4.9601e-05 5.21647e-05 0.104318)
(2.78985e-05 2.88307e-05 0.104211)
(-4.22519e-05 -4.53827e-05 0.104316)
(-2.64188e-06 -9.57545e-06 0.107471)
(1.17075e-05 -9.90278e-06 0.107472)
(-4.3941e-06 -1.22087e-05 0.107456)
(6.35081e-06 -1.03344e-05 0.107464)
(-2.09772e-05 2.96673e-05 0.104218)
(4.3364e-05 -4.08285e-05 0.104326)
(-1.07176e-05 -1.77173e-06 0.107473)
(-1.03767e-05 9.07395e-06 0.107483)
(-9.72016e-06 -7.85356e-06 0.107459)
(-8.47943e-06 4.32468e-06 0.107469)
(1.62734e-05 1.51405e-05 0.107463)
(1.40278e-05 -2.0097e-06 0.107466)
(1.51159e-05 3.7011e-06 0.107474)
(3.24169e-05 -2.36155e-05 0.104233)
(-4.04059e-05 4.29584e-05 0.104326)
(1.4129e-05 1.74945e-05 0.107465)
(1.65993e-07 1.22784e-05 0.107471)
(7.10866e-06 1.28087e-05 0.107477)
(4.32639e-05 4.01579e-05 0.104344)
(2.69392e-05 2.42051e-05 0.104207)
(-4.54123e-05 -4.49151e-05 0.10433)
(-5.71726e-06 -1.25799e-05 0.107455)
(5.06762e-06 -1.12021e-05 0.107461)
(-8.98417e-06 -1.2692e-05 0.107455)
(4.16649e-06 -1.31235e-05 0.107454)
(-2.71137e-05 2.76303e-05 0.104215)
(4.17653e-05 -4.64004e-05 0.104328)
(-1.04371e-05 -8.66487e-06 0.107457)
(-9.73231e-06 3.677e-06 0.107463)
(-1.28716e-05 -8.92252e-06 0.107456)
(-1.33031e-05 4.80919e-06 0.107452)
(1.32728e-05 2.51145e-06 0.107474)
(9.76502e-06 -9.59904e-06 0.107459)
(1.00516e-05 3.52188e-06 0.107461)
(2.78306e-05 -2.73137e-05 0.104214)
(-4.70117e-05 4.2307e-05 0.104325)
(5.50779e-06 1.11797e-05 0.107476)
(-1.02748e-05 9.87856e-06 0.107456)
(3.47806e-06 1.0174e-05 0.107463)
(4.22369e-05 4.27089e-05 0.104329)
(2.41755e-05 2.48565e-05 0.104223)
(-4.228e-05 -4.19849e-05 0.10434)
(-8.97726e-06 -1.28013e-05 0.107456)
(4.18697e-06 -1.32002e-05 0.107453)
(-5.45492e-06 -1.18806e-05 0.107455)
(6.89282e-06 -1.23006e-05 0.107451)
(-2.77517e-05 2.35405e-05 0.104219)
(4.39005e-05 -4.39035e-05 0.104337)
(-1.33503e-05 -8.34348e-06 0.107457)
(-1.38058e-05 5.57536e-06 0.107451)
(-1.22583e-05 -4.99995e-06 0.107456)
(-1.28715e-05 6.72716e-06 0.107451)
(1.00462e-05 3.71648e-06 0.107457)
(1.14633e-05 -7.51189e-06 0.107454)
(1.11318e-05 7.58341e-06 0.107448)
(2.26086e-05 -2.69367e-05 0.104218)
(-4.34712e-05 4.34573e-05 0.104339)
(3.11022e-06 1.05244e-05 0.107458)
(-7.39673e-06 1.19592e-05 0.107454)
(7.17682e-06 1.14487e-05 0.107449)
(4.42501e-05 4.45142e-05 0.104331)
(2.74648e-05 2.75533e-05 0.104232)
(-4.39938e-05 -4.42265e-05 0.104346)
(-4.8315e-06 -1.13125e-05 0.107454)
(8.53514e-06 -1.20275e-05 0.107452)
(-7.04106e-06 -1.16682e-05 0.10745)
(6.82913e-06 -1.12563e-05 0.10745)
(-2.49072e-05 2.55737e-05 0.10423)
(4.34023e-05 -4.13207e-05 0.104349)
(-1.14389e-05 -4.84238e-06 0.107455)
(-1.19066e-05 6.93406e-06 0.107452)
(-1.13072e-05 -7.33985e-06 0.107452)
(-1.04559e-05 7.1974e-06 0.107449)
(1.2066e-05 9.56385e-06 0.107448)
(1.33917e-05 -4.50302e-06 0.107452)
(1.37049e-05 7.17538e-06 0.10745)
(2.66313e-05 -2.5967e-05 0.104231)
(-4.19501e-05 4.40575e-05 0.104346)
(9.56339e-06 1.22106e-05 0.107449)
(-4.8378e-06 1.26803e-05 0.107451)
(7.42398e-06 1.34721e-05 0.107452)
(4.33252e-05 4.31596e-05 0.104351)
(2.51471e-05 2.50792e-05 0.104239)
(-4.1072e-05 -4.05627e-05 0.104353)
(-7.57377e-06 -1.20471e-05 0.10745)
(4.26494e-06 -1.08867e-05 0.107449)
(-4.5482e-06 -1.03577e-05 0.107448)
(5.53481e-06 -1.04908e-05 0.107445)
(-2.71415e-05 2.86148e-05 0.10424)
(4.23553e-05 -4.39503e-05 0.10435)
(-1.18903e-05 -7.34354e-06 0.107451)
(-1.10503e-05 6.86764e-06 0.107449)
(-1.11026e-05 -3.9887e-06 0.107448)
(-1.18962e-05 5.24889e-06 0.107446)
(1.25691e-05 4.15846e-06 0.107451)
(8.90428e-06 -7.06154e-06 0.107448)
(8.46131e-06 4.90712e-06 0.107447)
(2.69146e-05 -2.54847e-05 0.104239)
(-4.32391e-05 4.1562e-05 0.104354)
(3.96099e-06 1.24441e-05 0.107452)
(-6.79757e-06 1.02334e-05 0.107449)
(4.40249e-06 9.03086e-06 0.107448)
(4.1924e-05 4.23209e-05 0.104349)
(2.83972e-05 2.85581e-05 0.104246)
(-4.5694e-05 -4.71656e-05 0.104365)
(-4.17724e-06 -9.83971e-06 0.107447)
(8.92916e-06 -1.11629e-05 0.107446)
(-9.11938e-06 -1.29401e-05 0.107445)
(7.80046e-06 -1.29007e-05 0.107447)
(-2.54933e-05 2.4252e-05 0.104245)
(4.42262e-05 -4.30505e-05 0.104371)
(-1.02136e-05 -4.52087e-06 0.107449)
(-1.12444e-05 5.43442e-06 0.107447)
(-1.1445e-05 -1.07999e-05 0.107447)
(-1.04342e-05 6.901e-06 0.107444)
(9.61877e-06 8.18728e-06 0.107446)
(1.43262e-05 -6.79901e-06 0.107449)
(1.47564e-05 7.34134e-06 0.107446)
(2.64076e-05 -2.77053e-05 0.104247)
(-4.28673e-05 4.4077e-05 0.104362)
(8.52282e-06 9.924e-06 0.107447)
(-5.96622e-06 1.19583e-05 0.107445)
(9.00873e-06 1.33974e-05 0.107448)
(4.49455e-05 4.35714e-05 0.104369)
(2.31661e-05 2.20982e-05 0.10426)
(-3.8143e-05 -3.60301e-05 0.10437)
(-9.86818e-06 -1.41935e-05 0.107446)
(3.54746e-06 -1.24848e-05 0.107447)
(-1.7778e-06 -9.30572e-06 0.107444)
(2.81368e-06 -9.18479e-06 0.10744)
(-2.69577e-05 2.76429e-05 0.104263)
(4.00083e-05 -4.13828e-05 0.104363)
(-1.30501e-05 -1.04111e-05 0.107448)
(-1.17371e-05 7.15089e-06 0.107443)
(-1.11674e-05 4.8835e-07 0.107445)
(-1.21577e-05 4.51146e-06 0.107441)
(1.36968e-05 3.68708e-06 0.107446)
(7.43815e-06 -4.20828e-06 0.107443)
(6.9744e-06 4.15805e-06 0.10744)
(2.57079e-05 -2.50308e-05 0.104256)
(-4.18779e-05 4.04044e-05 0.10437)
(4.26532e-06 1.2611e-05 0.107448)
(-5.88195e-06 1.02802e-05 0.107444)
(1.94786e-06 8.71653e-06 0.107441)
(3.93373e-05 4.13284e-05 0.104362)
(3.17905e-05 3.35206e-05 0.104262)
(-4.64091e-05 -4.85322e-05 0.104374)
(1.00738e-07 -7.19488e-06 0.107444)
(7.29125e-06 -9.13613e-06 0.107441)
(-9.32998e-06 -1.05534e-05 0.107437)
(9.58065e-06 -1.10905e-05 0.107442)
(-2.71736e-05 2.6499e-05 0.104258)
(4.53658e-05 -4.33118e-05 0.104384)
(-8.90014e-06 1.31365e-06 0.107444)
(-1.02801e-05 4.00499e-06 0.107442)
(-8.77598e-06 -1.15667e-05 0.10744)
(-8.15623e-06 8.03671e-06 0.10744)
(7.87352e-06 7.91093e-06 0.107441)
(1.33869e-05 -7.36554e-06 0.107443)
(1.38459e-05 8.19412e-06 0.107441)
(2.83794e-05 -2.91058e-05 0.104264)
(-4.26767e-05 4.49695e-05 0.104377)
(6.70417e-06 9.53e-06 0.107441)
(-5.65869e-06 1.08644e-05 0.107442)
(1.02693e-05 1.23131e-05 0.107443)
(4.57577e-05 4.37791e-05 0.104385)
(2.09812e-05 1.90818e-05 0.104272)
(-4.10834e-05 -3.94409e-05 0.104404)
(-1.3678e-05 -1.3298e-05 0.10744)
(6.08745e-06 -1.16011e-05 0.107444)
(-5.69532e-06 -1.36041e-05 0.107446)
(3.38891e-06 -1.24039e-05 0.107439)
(-2.53745e-05 2.64666e-05 0.10428)
(4.0503e-05 -4.33903e-05 0.10439)
(-1.15727e-05 -1.50203e-05 0.107443)
(-1.05258e-05 9.43967e-06 0.107441)
(-1.50147e-05 -4.11365e-06 0.107446)
(-1.48253e-05 3.43763e-06 0.107439)
(1.33389e-05 5.34905e-06 0.107444)
(9.55118e-06 -6.67165e-06 0.107443)
(9.16787e-06 4.07423e-06 0.10744)
(2.46404e-05 -2.34208e-05 0.104273)
(-4.30662e-05 3.95762e-05 0.104394)
(6.6507e-06 1.17196e-05 0.107446)
(-7.26086e-06 1.12078e-05 0.107442)
(2.89256e-06 1.01442e-05 0.10744)
(3.99579e-05 4.12801e-05 0.104386)
(3.13197e-05 3.27693e-05 0.104296)
(-3.88493e-05 -3.9366e-05 0.104379)
(1.27901e-06 -1.08931e-05 0.107447)
(5.00997e-06 -1.20222e-05 0.10744)
(-8.11782e-07 -3.96523e-06 0.107434)
(4.58551e-06 -5.68663e-06 0.107437)
(-2.81253e-05 2.61143e-05 0.104284)
(4.04748e-05 -3.6864e-05 0.104391)
(-1.21875e-05 2.03306e-06 0.107448)
(-1.23902e-05 5.86052e-07 0.10744)
(-3.34858e-06 -1.29265e-06 0.107436)
(-3.99207e-06 6.8133e-06 0.107436)
(9.67477e-06 5.43669e-06 0.10744)
(8.85058e-06 -4.02028e-07 0.107438)
(9.20212e-06 5.30696e-06 0.107437)
(2.87232e-05 -3.1151e-05 0.104288)
(-3.92668e-05 4.34109e-05 0.104386)
(4.87144e-06 1.07051e-05 0.107441)
(-2.19571e-06 7.85096e-06 0.107437)
(5.5253e-06 8.85963e-06 0.107439)
(4.12839e-05 4.10001e-05 0.104394)
(2.6171e-05 2.60168e-05 0.104276)
(-4.77228e-05 -4.75446e-05 0.104423)
(-9.87663e-06 -6.01585e-06 0.107436)
(5.40736e-06 -5.52714e-06 0.107441)
(-1.34509e-05 -1.61892e-05 0.10744)
(8.69671e-06 -1.46124e-05 0.107437)
(-2.8387e-05 3.12648e-05 0.104287)
(4.53039e-05 -4.92158e-05 0.104413)
(-5.99163e-06 -9.0818e-06 0.107438)
(-6.5426e-06 1.19964e-05 0.10744)
(-1.69155e-05 -1.31313e-05 0.107441)
(-1.6368e-05 5.85066e-06 0.10744)
(8.6355e-06 6.37606e-06 0.107441)
(1.17506e-05 -1.31703e-05 0.107441)
(1.13979e-05 7.1659e-06 0.107438)
(2.64757e-05 -2.33339e-05 0.104284)
(-4.57044e-05 4.15473e-05 0.104421)
(5.53627e-06 8.62877e-06 0.107443)
(-1.04743e-05 1.30383e-05 0.107443)
(6.8779e-06 1.20998e-05 0.107439)
(4.36453e-05 4.38679e-05 0.10441)
(2.55028e-05 2.48702e-05 0.10432)
(-3.56442e-05 -3.6799e-05 0.104413)
(-5.09501e-06 -1.60742e-05 0.107447)
(7.02514e-06 -1.62138e-05 0.107442)
(2.03923e-06 -5.81872e-06 0.10744)
(2.18933e-06 -6.61622e-06 0.10744)
(-2.47809e-05 2.1026e-05 0.10431)
(3.8178e-05 -3.54627e-05 0.104418)
(-1.54497e-05 -6.87252e-06 0.107448)
(-1.44796e-05 -5.93884e-07 0.107444)
(-4.08123e-06 4.55577e-07 0.107442)
(-3.98758e-06 3.97706e-06 0.107435)
(1.25041e-05 4.60012e-06 0.107441)
(8.15507e-06 7.74188e-07 0.107441)
(8.5569e-06 3.91422e-06 0.107436)
(2.70429e-05 -3.06836e-05 0.104316)
(-3.79693e-05 4.10974e-05 0.104406)
(6.12797e-06 1.21962e-05 0.107442)
(-6.88485e-07 6.20265e-06 0.107437)
(5.24553e-06 7.1783e-06 0.107438)
(4.07791e-05 3.98665e-05 0.104415)
(3.02137e-05 3.01449e-05 0.104307)
(-4.21708e-05 -3.99737e-05 0.10442)
(-4.18403e-06 -5.38786e-06 0.107444)
(4.04088e-06 -5.18191e-06 0.107445)
(-6.11122e-06 -9.35524e-06 0.107432)
(4.1396e-06 -9.27172e-06 0.107432)
(-2.98203e-05 3.28852e-05 0.104312)
(4.09586e-05 -4.1604e-05 0.104419)
(-5.40243e-06 -3.21856e-06 0.107446)
(-6.11356e-06 1.09437e-05 0.107441)
(-1.19349e-05 -3.61544e-06 0.107432)
(-1.23879e-05 4.12756e-06 0.107434)
(8.44692e-06 7.59332e-06 0.107444)
(9.42155e-06 -4.6349e-06 0.107435)
(9.13513e-06 2.92198e-06 0.107435)
(2.77262e-05 -2.46732e-05 0.104303)
(-4.06345e-05 3.93437e-05 0.104428)
(6.70099e-06 8.49039e-06 0.107446)
(-5.17366e-06 1.19637e-05 0.107436)
(9.52077e-07 1.11554e-05 0.107436)
(3.79347e-05 3.94497e-05 0.104423)
(2.91541e-05 3.02158e-05 0.104317)
(-4.74301e-05 -5.01697e-05 0.104443)
(-1.90533e-06 -8.57106e-06 0.10744)
(2.59173e-06 -9.24886e-06 0.10744)
(-1.29071e-05 -1.06826e-05 0.107439)
(1.25618e-05 -1.04924e-05 0.107439)
(-2.91131e-05 2.78265e-05 0.104315)
(4.7267e-05 -4.82997e-05 0.104444)
(-9.51775e-06 -1.79806e-06 0.107441)
(-9.60635e-06 -2.31888e-06 0.107443)
(-7.82893e-06 -1.57928e-05 0.107441)
(-7.23619e-06 1.07135e-05 0.107437)
(7.60313e-06 -1.96195e-06 0.107442)
(9.46514e-06 -1.40395e-05 0.107442)
(9.076e-06 1.20861e-05 0.107435)
(3.1164e-05 -3.29264e-05 0.104324)
(-4.75879e-05 4.66804e-05 0.104436)
(-1.56752e-06 7.85968e-06 0.107443)
(-1.21197e-05 5.85634e-06 0.10744)
(1.48322e-05 6.27029e-06 0.107437)
(4.9825e-05 4.75223e-05 0.104434)
(1.75893e-05 1.57497e-05 0.104345)
(-2.59081e-05 -2.2602e-05 0.104442)
(-1.69e-05 -1.5163e-05 0.107454)
(1.37112e-05 -1.39814e-05 0.107453)
(9.05913e-06 -7.08573e-06 0.107435)
(-8.22286e-06 -7.23466e-06 0.107431)
(-1.9238e-05 1.86727e-05 0.104345)
(2.68017e-05 -2.50047e-05 0.104438)
(-1.35159e-05 -1.7825e-05 0.107456)
(-1.27041e-05 1.68138e-05 0.10745)
(-1.00663e-05 1.24221e-05 0.107435)
(-9.87627e-06 -4.30557e-06 0.107432)
(1.39277e-05 1.8122e-05 0.107449)
(8.35892e-06 1.04628e-05 0.107433)
(8.81218e-06 -4.24386e-06 0.107434)
(1.70914e-05 -1.73039e-05 0.104338)
(-2.66307e-05 2.96875e-05 0.104444)
(1.82826e-05 1.32002e-05 0.107451)
(7.53807e-06 1.28043e-05 0.107434)
(-8.42314e-06 1.28125e-05 0.107436)
(2.57409e-05 2.96219e-05 0.104447)
(4.44995e-05 4.7173e-05 0.104336)
(-5.25069e-05 -5.58966e-05 0.104436)
(1.43254e-05 1.1654e-06 0.107447)
(-9.9139e-06 5.1766e-08 0.107445)
(-1.99694e-05 -9.65706e-06 0.107428)
(2.11062e-05 -9.81423e-06 0.107431)
(-4.18381e-05 4.36782e-05 0.104332)
(5.30028e-05 -5.39274e-05 0.104443)
(-1.29578e-06 1.63702e-05 0.107448)
(-1.94391e-06 -1.0083e-05 0.107447)
(-7.05857e-06 -2.34395e-05 0.10743)
(-7.73072e-06 1.52303e-05 0.107431)
(1.3146e-06 -1.08579e-05 0.107449)
(9.87121e-06 -2.21948e-05 0.107434)
(9.33568e-06 1.43277e-05 0.107431)
(4.35901e-05 -4.1116e-05 0.10434)
(-5.11029e-05 4.76444e-05 0.104438)
(-1.27644e-05 3.67252e-06 0.107451)
(-1.81361e-05 5.05042e-06 0.107433)
(1.94288e-05 5.02395e-06 0.107434)
(5.22852e-05 4.72929e-05 0.104438)
(7.69926e-06 4.40235e-06 0.104361)
(-2.17809e-05 -1.9226e-05 0.104441)
(-1.99529e-05 -1.43991e-05 0.107454)
(1.66543e-05 -1.36418e-05 0.107457)
(-2.73155e-06 -1.41408e-05 0.10744)
(-1.69834e-06 -1.34953e-05 0.107435)
(-9.25479e-06 7.6282e-06 0.104367)
(1.86454e-05 -1.98706e-05 0.104432)
(-1.14237e-05 -2.31594e-05 0.107456)
(-1.128e-05 1.37421e-05 0.107455)
(-1.57846e-05 -2.6258e-07 0.107441)
(-1.48299e-05 4.15454e-06 0.107433)
(1.25621e-05 1.34702e-05 0.107456)
(1.18037e-05 1.4535e-07 0.107439)
(1.18927e-05 3.94435e-06 0.107433)
(9.43385e-06 -1.30378e-05 0.104361)
(-2.33193e-05 2.43452e-05 0.104433)
(1.76117e-05 8.42904e-06 0.107457)
(-4.28393e-06 1.51543e-05 0.107436)
(2.04465e-07 1.47155e-05 0.107433)
(1.97434e-05 2.39084e-05 0.104429)
(2.42876e-05 2.72704e-05 0.104424)
(-5.58163e-05 -5.67585e-05 0.104386)
(7.37901e-06 -2.12709e-06 0.10747)
(-7.65366e-06 -2.31847e-06 0.107465)
(-4.16093e-05 -6.34206e-05 0.107481)
(4.80485e-05 -6.42982e-05 0.107481)
(-2.56364e-05 2.54327e-05 0.104415)
(6.15703e-05 -5.84992e-05 0.104392)
(-4.73509e-06 1.06122e-05 0.107471)
(-4.43429e-06 -2.87439e-06 0.107464)
(-6.33151e-05 -4.2407e-05 0.107482)
(-6.39787e-05 4.43433e-05 0.107484)
(1.49673e-06 -3.03724e-06 0.107464)
(6.70034e-05 -4.44213e-05 0.107482)
(6.70248e-05 4.64155e-05 0.107483)
(2.24089e-05 -2.05594e-05 0.104418)
(-5.52521e-05 5.77477e-05 0.104395)
(-7.63427e-06 5.48979e-06 0.107464)
(-4.07619e-05 6.65046e-05 0.107486)
(4.72504e-05 6.72298e-05 0.107486)
(6.12772e-05 6.00643e-05 0.104398)
(-4.64416e-05 -4.77892e-05 0.104759)
(-5.39496e-05 -9.29205e-05 0.107736)
(5.8854e-05 -9.37434e-05 0.107737)
(5.09977e-05 -4.83552e-05 0.104766)
(-9.21821e-05 -5.54526e-05 0.107737)
(-9.245e-05 5.43405e-05 0.10774)
(3.38878e-05 -3.08505e-05 0.112012)
(-2.79121e-05 3.08343e-05 0.112013)
(3.39387e-05 3.21271e-05 0.112012)
(9.64868e-05 5.6517e-05 0.10774)
(-4.47765e-05 4.6745e-05 0.104767)
(5.83612e-05 9.5649e-05 0.107742)
(1.45199e-06 -8.78188e-06 0.0914181)
(5.07006e-07 -6.83627e-06 0.0822833)
(-1.86375e-06 -3.49705e-06 0.0715989)
(-1.1631e-05 -9.50731e-06 0.09143)
(-4.82727e-06 -6.38939e-06 0.0822878)
(-1.11518e-05 -1.77501e-05 0.112446)
(1.72918e-05 -1.08066e-05 0.112452)
(1.90583e-06 4.6368e-06 0.112451)
(2.40129e-05 1.7313e-05 0.112447)
(2.02505e-05 4.13162e-06 0.0985611)
(1.82062e-05 -5.23173e-07 0.107489)
(1.69103e-05 3.05697e-06 0.0930599)
(1.9098e-05 8.75417e-06 0.109901)
(-1.98286e-06 6.91449e-06 0.0716092)
(1.74558e-05 2.44622e-05 0.0985789)
(1.61638e-05 1.60872e-05 0.107498)
(1.80117e-05 2.29183e-05 0.109898)
(-1.14667e-06 2.22995e-05 0.0930699)
(5.44537e-05 5.24496e-05 0.10434)
(2.06252e-05 -6.47432e-06 0.0876111)
(1.56935e-06 1.56672e-05 0.0876103)
(-3.75528e-06 -1.33067e-05 0.0914573)
(-1.27441e-06 6.19617e-06 0.0822638)
(-3.69045e-06 9.65815e-08 0.0914142)
(-2.15693e-06 -7.68822e-06 0.0823138)
(-1.56662e-06 2.2069e-06 0.071578)
(3.59691e-06 -3.50526e-06 0.0716304)
(-1.0787e-05 3.52873e-06 0.0914494)
(3.79129e-06 1.97459e-06 0.0822658)
(1.32183e-06 -1.34278e-06 0.0914138)
(-1.05478e-05 4.01296e-06 0.0823136)
(1.37412e-05 -1.22886e-05 0.112442)
(-1.33362e-06 2.77418e-06 0.112438)
(1.6774e-05 8.95916e-06 0.112443)
(-1.55896e-05 -1.43145e-05 0.112424)
(4.36425e-06 -1.47962e-05 0.112421)
(-1.97018e-05 9.24361e-06 0.112409)
(-1.68827e-06 -4.37729e-07 0.112423)
(2.44066e-05 -1.07877e-05 0.0986154)
(-3.70916e-06 -6.22581e-06 0.0930415)
(2.06504e-05 -4.27777e-06 0.10989)
(9.22275e-06 -8.34038e-06 0.107486)
(3.20371e-06 -8.25766e-06 0.0985532)
(1.33541e-05 -1.68417e-05 0.0930973)
(1.62806e-05 -8.53433e-06 0.109891)
(2.55657e-06 1.44158e-06 0.0715927)
(-3.5669e-06 1.20435e-06 0.0716384)
(-1.66866e-05 1.94465e-05 0.098602)
(5.90698e-06 1.29618e-05 0.109891)
(-1.19424e-05 -1.1809e-05 0.0930274)
(-1.10469e-05 4.61177e-06 0.107464)
(-5.7179e-06 3.54639e-07 0.0985511)
(-5.56608e-06 9.55271e-06 0.109888)
(-1.8186e-05 4.85243e-06 0.0930807)
(3.41575e-06 3.70697e-06 0.0875961)
(2.95305e-06 3.67608e-06 0.0875967)
(3.27749e-05 2.90075e-05 0.104326)
(1.27767e-06 1.58385e-05 0.0876342)
(1.01754e-05 4.83759e-06 0.0876332)
(2.81963e-06 -1.21268e-05 0.0914849)
(1.04252e-06 3.27429e-06 0.0823046)
(9.14242e-07 -9.03163e-08 0.0914443)
(-1.02272e-06 -8.89268e-06 0.082353)
(7.54039e-07 3.24797e-06 0.0716196)
(4.16579e-06 -2.23489e-06 0.0716637)
(-1.25169e-05 3.29936e-06 0.0914836)
(3.04089e-06 3.71887e-06 0.0823003)
(9.83252e-07 5.74826e-06 0.0914395)
(-7.94166e-06 -1.85136e-06 0.0823505)
(4.99364e-06 -1.45136e-05 0.112414)
(-2.20244e-05 1.25653e-05 0.112403)
(-3.66259e-07 4.12952e-06 0.112413)
(-1.09983e-05 -5.83745e-06 0.112391)
(1.37259e-05 -1.02901e-05 0.112388)
(-1.46386e-05 1.79973e-05 0.112385)
(1.41506e-05 1.91942e-05 0.112378)
(1.72518e-05 3.95684e-06 0.0986083)
(-5.77132e-06 -1.11871e-06 0.0930658)
(6.7792e-06 -9.35122e-06 0.109888)
(8.32031e-06 -9.98033e-06 0.10748)
(-4.24283e-06 -2.49626e-06 0.0985639)
(1.55613e-05 3.05244e-08 0.0931189)
(7.9896e-06 -5.64027e-06 0.10988)
(2.84727e-06 -3.00122e-06 0.0716052)
(-1.90035e-06 2.95827e-06 0.07165)
(5.77181e-07 1.82536e-05 0.0986078)
(-1.94677e-05 9.81221e-06 0.109876)
(1.86517e-06 -6.27857e-06 0.0930646)
(-1.65332e-05 1.33401e-05 0.107477)
(-9.79895e-06 -5.55207e-06 0.0985547)
(-1.47435e-05 1.25956e-05 0.109871)
(2.6958e-06 1.87697e-05 0.0931241)
(-1.03094e-05 1.57805e-06 0.087615)
(-2.74297e-06 -7.69574e-06 0.0876125)
(4.5586e-05 5.24282e-05 0.104295)
(3.43861e-06 1.38305e-06 0.0876592)
(6.90128e-07 4.05924e-06 0.0876563)
(-2.55064e-07 -1.1924e-05 0.0915146)
(2.70146e-07 4.2607e-06 0.082338)
(1.59362e-06 5.17246e-07 0.0914735)
(-1.61543e-06 -7.88724e-06 0.0823859)
(-1.03458e-06 2.80433e-06 0.0716434)
(2.79253e-06 -3.17649e-06 0.0716896)
(-1.27901e-05 -2.85398e-06 0.0915163)
(5.18571e-06 -2.62431e-06 0.0823371)
(-7.46713e-07 -1.8728e-06 0.0914773)
(-7.58223e-06 -3.32747e-06 0.0823875)
(1.59445e-05 -8.9517e-06 0.112377)
(-1.05325e-05 1.76e-05 0.112379)
(1.72951e-05 2.03239e-05 0.112368)
(-8.57489e-06 -1.09156e-05 0.112345)
(1.46278e-05 -8.27197e-06 0.112346)
(-5.45242e-06 1.19913e-05 0.112352)
(1.63208e-05 1.41758e-05 0.112346)
(2.3421e-05 3.16502e-06 0.0986374)
(-7.49186e-07 8.52661e-06 0.0930925)
(1.75705e-05 3.53141e-06 0.109856)
(1.69624e-05 -3.72696e-08 0.10747)
(-1.5957e-06 6.55803e-06 0.0985735)
(1.83048e-05 -2.21852e-06 0.0931499)
(1.95437e-05 3.89399e-06 0.10985)
(2.50185e-06 1.11221e-06 0.0716353)
(-3.59866e-06 3.59175e-06 0.0716933)
(6.52529e-06 2.44407e-05 0.0986436)
(3.66731e-06 1.98008e-05 0.109858)
(7.74133e-06 1.96954e-06 0.0930987)
(3.44452e-06 1.61786e-05 0.10748)
(9.52212e-06 3.74814e-07 0.0985811)
(6.3102e-06 2.00387e-05 0.109855)
(-3.9102e-06 1.92499e-05 0.0931506)
(4.05665e-06 -6.53334e-06 0.0876504)
(-3.58315e-06 2.33356e-06 0.0876488)
(4.68333e-05 4.48603e-05 0.10434)
(1.1353e-05 4.66579e-06 0.0876949)
(7.21656e-06 9.83886e-06 0.0876933)
(-1.74528e-06 -1.19194e-05 0.0915475)
(-5.45423e-07 5.17202e-06 0.0823728)
(-1.83509e-06 2.15959e-07 0.0915056)
(-1.99988e-06 -7.54654e-06 0.0824201)
(-1.48627e-06 1.84349e-06 0.07168)
(1.3651e-06 -3.97753e-06 0.0717282)
(-1.15101e-05 -1.11656e-06 0.0915462)
(4.74773e-06 -1.33298e-07 0.0823728)
(5.21319e-07 -1.84703e-06 0.0915054)
(-7.81296e-06 -1.18448e-06 0.0824206)
(1.27313e-05 -9.45007e-06 0.112338)
(-6.94184e-06 1.02854e-05 0.112342)
(1.3906e-05 1.14047e-05 0.112341)
(-1.33665e-05 -1.39577e-05 0.11231)
(9.61154e-06 -1.34068e-05 0.112312)
(-1.31003e-05 9.2972e-06 0.112313)
(9.0993e-06 8.49873e-06 0.112319)
(2.22133e-05 -4.26734e-06 0.098667)
(-3.99321e-06 -4.04258e-06 0.0931245)
(1.68365e-05 -1.51502e-06 0.109842)
(1.04563e-05 -7.30582e-06 0.107462)
(1.19155e-06 -3.25286e-06 0.0986134)
(1.4512e-05 -9.7489e-06 0.0931796)
(1.47208e-05 -3.90444e-06 0.10984)
(1.94445e-06 -1.6429e-06 0.0716807)
(-3.408e-06 1.88954e-06 0.07173)
(-4.42361e-06 2.17038e-05 0.098665)
(1.13454e-06 1.49583e-05 0.109846)
(-3.74913e-06 -4.35761e-06 0.0931234)
(-6.56016e-06 9.65133e-06 0.107462)
(-2.50163e-06 8.05503e-07 0.0986131)
(-2.24864e-06 1.33249e-05 0.109842)
(-9.44727e-06 1.40058e-05 0.0931782)
(3.85954e-07 9.74261e-07 0.0876847)
(1.03786e-06 4.66878e-07 0.0876836)
(4.27904e-05 4.15191e-05 0.104337)
(7.23382e-06 6.46977e-06 0.0877315)
(5.69828e-06 7.7311e-06 0.0877299)
(3.19507e-07 -1.14634e-05 0.0915799)
(1.50817e-06 4.15034e-06 0.0824051)
(-7.65057e-07 1.00718e-06 0.0915376)
(-2.61692e-07 -8.22101e-06 0.0824527)
(-1.27156e-06 2.79899e-06 0.0717109)
(4.14964e-06 -2.16781e-06 0.0717536)
(-1.15487e-05 7.17756e-07 0.091579)
(4.04539e-06 1.9422e-06 0.0824037)
(1.15802e-06 1.31178e-07 0.0915378)
(-8.18229e-06 -2.36665e-07 0.0824527)
(9.54645e-06 -1.38664e-05 0.112304)
(-1.43271e-05 9.977e-06 0.112304)
(8.7314e-06 8.7741e-06 0.11231)
(-1.27039e-05 -1.22246e-05 0.112279)
(1.13724e-05 -1.33087e-05 0.112279)
(-1.39894e-05 1.19782e-05 0.112278)
(1.09698e-05 1.13755e-05 0.112278)
(2.03919e-05 -9.70582e-07 0.098683)
(-4.06454e-06 1.38205e-07 0.0931544)
(1.30416e-05 -6.42763e-06 0.109828)
(1.04646e-05 -8.45325e-06 0.107456)
(-1.74117e-06 -2.33876e-06 0.098628)
(1.48563e-05 -4.99312e-06 0.0932099)
(1.34841e-05 -5.79262e-06 0.109823)
(2.3749e-06 -1.639e-06 0.0717072)
(-2.71856e-06 2.61158e-06 0.0717545)
(-1.78683e-06 2.0337e-05 0.0986828)
(-7.29302e-06 1.32758e-05 0.109827)
(-3.64089e-07 -5.12974e-06 0.093154)
(-1.01296e-05 1.12295e-05 0.107455)
(-3.2814e-06 -1.94017e-06 0.0986273)
(-7.04883e-06 1.38999e-05 0.109821)
(-4.71746e-06 1.51059e-05 0.0932095)
(-1.24339e-06 -1.3845e-06 0.0877208)
(-1.88707e-06 -9.12172e-07 0.0877196)
(4.15209e-05 4.22806e-05 0.104326)
(3.70115e-06 6.81177e-06 0.0877613)
(6.65187e-06 3.82053e-06 0.0877595)
(-2.42628e-08 -1.10938e-05 0.0916098)
(-5.88253e-07 5.02861e-06 0.0824368)
(1.00021e-06 8.96481e-07 0.0915701)
(-2.18319e-06 -7.45157e-06 0.082482)
(-1.02341e-06 2.23644e-06 0.0717351)
(3.88194e-07 -4.03243e-06 0.0717804)
(-1.1276e-05 -4.39026e-07 0.0916103)
(5.1161e-06 -9.91323e-07 0.0824362)
(7.12039e-07 2.22961e-07 0.0915712)
(-7.46344e-06 -2.15388e-06 0.0824826)
(1.26487e-05 -1.30492e-05 0.112271)
(-1.28731e-05 1.2466e-05 0.11227)
(1.27177e-05 1.28633e-05 0.11227)
(-1.17146e-05 -1.20518e-05 0.112246)
(1.37733e-05 -1.15359e-05 0.112246)
(-1.08102e-05 1.31034e-05 0.112245)
(1.45873e-05 1.43265e-05 0.112244)
(2.00672e-05 1.1662e-06 0.0987053)
(-4.86008e-06 2.05367e-06 0.0931816)
(1.4719e-05 -3.17625e-06 0.10981)
(1.30463e-05 -6.98188e-06 0.107453)
(-2.77395e-06 7.40991e-07 0.0986504)
(1.59148e-05 -2.4005e-06 0.0932369)
(1.52373e-05 -2.46899e-06 0.109805)
(2.89385e-06 2.0132e-08 0.0717318)
(-3.01544e-06 3.20795e-06 0.0717807)
(2.01724e-06 2.03536e-05 0.0987067)
(-2.5743e-06 1.50612e-05 0.109809)
(2.80779e-06 -3.42528e-06 0.0931845)
(-4.61688e-06 1.2271e-05 0.107453)
(1.29984e-06 -2.31673e-06 0.0986512)
(-1.11657e-06 1.52956e-05 0.109804)
(-3.47134e-06 1.56984e-05 0.0932374)
(-1.57634e-06 -3.05943e-06 0.0877472)
(-2.86054e-06 -1.7215e-06 0.0877458)
(4.65974e-05 4.6378e-05 0.104342)
(8.74625e-06 1.8652e-06 0.0877922)
(1.95678e-06 8.67369e-06 0.0877906)
(-4.94922e-07 -1.16169e-05 0.0916411)
(1.43729e-06 4.57559e-06 0.0824651)
(-1.60808e-06 1.15124e-06 0.0915986)
(-5.19023e-07 -7.80119e-06 0.0825137)
(-4.07618e-07 3.51716e-06 0.0717599)
(6.50655e-06 -1.29491e-06 0.0718039)
(-1.14625e-05 1.67842e-07 0.091639)
(4.17521e-06 2.02213e-06 0.082464)
(1.38534e-06 -3.33891e-07 0.0915982)
(-7.84885e-06 -5.22982e-07 0.0825137)
(1.23947e-05 -1.08159e-05 0.112238)
(-1.13067e-05 1.2896e-05 0.112238)
(1.28244e-05 1.28478e-05 0.112237)
(-1.16361e-05 -1.09012e-05 0.112214)
(9.95249e-06 -1.11959e-05 0.112214)
(-1.24713e-05 1.11875e-05 0.112213)
(9.12693e-06 9.76323e-06 0.112214)
(2.17995e-05 -1.08843e-06 0.0987356)
(-2.00352e-06 1.87646e-06 0.0932135)
(1.65223e-05 -1.36461e-06 0.109794)
(1.07321e-05 -3.13547e-06 0.10745)
(-4.33366e-07 9.10565e-08 0.0986767)
(1.45689e-05 -8.01215e-06 0.0932676)
(1.56559e-05 -1.7113e-06 0.109792)
(2.22361e-06 -1.76939e-06 0.0717591)
(-2.86391e-06 2.20882e-06 0.0718073)
(-2.63958e-06 2.13847e-05 0.098734)
(-2.50874e-06 1.60729e-05 0.109794)
(6.34891e-07 -4.25915e-06 0.093211)
(-6.82704e-06 1.1923e-05 0.10745)
(-8.93506e-07 -1.06838e-06 0.0986764)
(-3.98319e-06 1.56069e-05 0.109791)
(-6.42796e-06 1.50854e-05 0.0932665)
(9.65676e-07 -9.03496e-07 0.0877799)
(-1.26257e-06 1.26272e-06 0.0877788)