/*--------------------------------*- C++ -*----------------------------------*\
| =========                 |                                                 |
| \\      /  F ield         | OpenFOAM: The Open Source CFD Toolbox           |
|  \\    /   O peration     | Version:  v1906                                 |
|   \\  /    A nd           | Web:      www.OpenFOAM.com                      |
|    \\/     M anipulation  |                                                 |
\*---------------------------------------------------------------------------*/
FoamFile
{
    version     2.0;
    format      ascii;
    class       volScalarField;
    location    "250";
    object      epsilon;
}
// * * * * * * * * * * * * * * * * * * * * * * * * * * * * * * * * * * * * * //

dimensions      [0 2 -3 0 0 0 0];


internalField   nonuniform List<scalar> 
43024
(
5.00751e-07
1.07733e-06
1.07827e-06
1.32427e-06
5.00816e-07
1.07742e-06
1.07829e-06
1.32476e-06
5.00947e-07
1.07758e-06
1.07832e-06
1.32533e-06
5.01065e-07
1.07766e-06
1.07841e-06
1.32539e-06
5.01254e-07
1.07778e-06
1.07852e-06
1.32523e-06
5.01387e-07
1.07783e-06
1.07858e-06
1.3249e-06
5.01584e-07
1.07773e-06
1.07868e-06
1.32491e-06
5.01763e-07
1.07787e-06
1.07882e-06
1.32448e-06
5.01849e-07
1.07785e-06
1.07877e-06
1.32433e-06
5.01989e-07
1.07778e-06
1.07869e-06
1.32407e-06
5.01979e-07
1.07767e-06
1.07862e-06
1.32417e-06
5.02113e-07
1.07759e-06
1.07848e-06
1.32399e-06
5.02151e-07
1.07755e-06
1.07839e-06
1.324e-06
5.02145e-07
1.07748e-06
1.07833e-06
1.32369e-06
5.02117e-07
1.07741e-06
1.07833e-06
1.3241e-06
5.02064e-07
1.07739e-06
1.07832e-06
1.32472e-06
5.02049e-07
1.07742e-06
1.07835e-06
1.32491e-06
5.02057e-07
1.0775e-06
1.07844e-06
1.32457e-06
5.02029e-07
1.07764e-06
1.07857e-06
1.32456e-06
5.0107e-07
1.07735e-06
1.0783e-06
1.32353e-06
4.81343e-07
1.01479e-06
1.01563e-06
1.28045e-06
1.32207e-06
1.0776e-06
1.07754e-06
1.32153e-06
1.07779e-06
1.07822e-06
1.07732e-06
1.07896e-06
1.32226e-06
1.07827e-06
1.07877e-06
1.32251e-06
1.32378e-06
1.32249e-06
1.07758e-06
1.07742e-06
1.07751e-06
1.07744e-06
1.32348e-06
1.32215e-06
1.07768e-06
1.07817e-06
1.07764e-06
1.07807e-06
1.07878e-06
1.07741e-06
1.07872e-06
1.32504e-06
1.32301e-06
1.07873e-06
1.07827e-06
1.07862e-06
1.32279e-06
1.32416e-06
1.32284e-06
1.07754e-06
1.0775e-06
1.07764e-06
1.0776e-06
1.32386e-06
1.32229e-06
1.07788e-06
1.07819e-06
1.07777e-06
1.07826e-06
1.0789e-06
1.07757e-06
1.0788e-06
1.32562e-06
1.32342e-06
1.07868e-06
1.07831e-06
1.07875e-06
1.32296e-06
1.32451e-06
1.32319e-06
1.07791e-06
1.07769e-06
1.07792e-06
1.07773e-06
1.3246e-06
1.32257e-06
1.07785e-06
1.07839e-06
1.07791e-06
1.07844e-06
1.07897e-06
1.07765e-06
1.07891e-06
1.32595e-06
1.32383e-06
1.07885e-06
1.07839e-06
1.0788e-06
1.32311e-06
1.32481e-06
1.32308e-06
1.07799e-06
1.07789e-06
1.07808e-06
1.07788e-06
1.32502e-06
1.32279e-06
1.07798e-06
1.0785e-06
1.07801e-06
1.07847e-06
1.07909e-06
1.07772e-06
1.07895e-06
1.32573e-06
1.32389e-06
1.07894e-06
1.0785e-06
1.07886e-06
1.32287e-06
1.32559e-06
1.32291e-06
1.07839e-06
1.07806e-06
1.07839e-06
1.07801e-06
1.32433e-06
1.32267e-06
1.07813e-06
1.07856e-06
1.07812e-06
1.07848e-06
1.07908e-06
1.0778e-06
1.07893e-06
1.32545e-06
1.32351e-06
1.07903e-06
1.07856e-06
1.07892e-06
1.32266e-06
1.3254e-06
1.32282e-06
1.07853e-06
1.07813e-06
1.07856e-06
1.07817e-06
1.32426e-06
1.32235e-06
1.07825e-06
1.07862e-06
1.07824e-06
1.07854e-06
1.07904e-06
1.07773e-06
1.07892e-06
1.32505e-06
1.32305e-06
1.0791e-06
1.07866e-06
1.07894e-06
1.3225e-06
1.32534e-06
1.32254e-06
1.07871e-06
1.07819e-06
1.07862e-06
1.07818e-06
1.32491e-06
1.32273e-06
1.0783e-06
1.07869e-06
1.07823e-06
1.07866e-06
1.07904e-06
1.07784e-06
1.07892e-06
1.32462e-06
1.32294e-06
1.07905e-06
1.07878e-06
1.07893e-06
1.32287e-06
1.32504e-06
1.32276e-06
1.07872e-06
1.07817e-06
1.0786e-06
1.07816e-06
1.32464e-06
1.32247e-06
1.07826e-06
1.07867e-06
1.0782e-06
1.07862e-06
1.0791e-06
1.07783e-06
1.07889e-06
1.32452e-06
1.32279e-06
1.07902e-06
1.07873e-06
1.07884e-06
1.3227e-06
1.3245e-06
1.3226e-06
1.07874e-06
1.07815e-06
1.07865e-06
1.07813e-06
1.32404e-06
1.32226e-06
1.07824e-06
1.07864e-06
1.07806e-06
1.07859e-06
1.07908e-06
1.07774e-06
1.0788e-06
1.32436e-06
1.32233e-06
1.07899e-06
1.07864e-06
1.07873e-06
1.32187e-06
1.32422e-06
1.32192e-06
1.07863e-06
1.0782e-06
1.07855e-06
1.07809e-06
1.32386e-06
1.32184e-06
1.0782e-06
1.07859e-06
1.07797e-06
1.07837e-06
1.07895e-06
1.07763e-06
1.07867e-06
1.32442e-06
1.32174e-06
1.07887e-06
1.0786e-06
1.07864e-06
1.32189e-06
1.32444e-06
1.32179e-06
1.07854e-06
1.07819e-06
1.07845e-06
1.07804e-06
1.32341e-06
1.32155e-06
1.07817e-06
1.07854e-06
1.07803e-06
1.07844e-06
1.07884e-06
1.07752e-06
1.07853e-06
1.32437e-06
1.32213e-06
1.07879e-06
1.07844e-06
1.07852e-06
1.32215e-06
1.32439e-06
1.32176e-06
1.07843e-06
1.07813e-06
1.07831e-06
1.07802e-06
1.32317e-06
1.32129e-06
1.07802e-06
1.07849e-06
1.07788e-06
1.07833e-06
1.07873e-06
1.07747e-06
1.07856e-06
1.32374e-06
1.32239e-06
1.07874e-06
1.07831e-06
1.07858e-06
1.32206e-06
1.32382e-06
1.32177e-06
1.0783e-06
1.07805e-06
1.0782e-06
1.07797e-06
1.32277e-06
1.32072e-06
1.07787e-06
1.07842e-06
1.07775e-06
1.07827e-06
1.07858e-06
1.07738e-06
1.07847e-06
1.32401e-06
1.32229e-06
1.07857e-06
1.07823e-06
1.07844e-06
1.32203e-06
1.32337e-06
1.32124e-06
1.07821e-06
1.07799e-06
1.07806e-06
1.07786e-06
1.32324e-06
1.3205e-06
1.07776e-06
1.07832e-06
1.07764e-06
1.07824e-06
1.07849e-06
1.07729e-06
1.07839e-06
1.32495e-06
1.32285e-06
1.07844e-06
1.07819e-06
1.07831e-06
1.32236e-06
1.3238e-06
1.32153e-06
1.07808e-06
1.07789e-06
1.07792e-06
1.07774e-06
1.32296e-06
1.32048e-06
1.07769e-06
1.0783e-06
1.07763e-06
1.07822e-06
1.07844e-06
1.07722e-06
1.07835e-06
1.32506e-06
1.32316e-06
1.07835e-06
1.07815e-06
1.07823e-06
1.3224e-06
1.32408e-06
1.3221e-06
1.078e-06
1.07781e-06
1.07788e-06
1.07768e-06
1.32295e-06
1.32072e-06
1.07773e-06
1.07831e-06
1.07769e-06
1.07822e-06
1.07845e-06
1.0772e-06
1.07835e-06
1.32479e-06
1.32323e-06
1.07831e-06
1.07813e-06
1.07818e-06
1.3227e-06
1.32408e-06
1.32223e-06
1.07802e-06
1.0778e-06
1.07792e-06
1.07767e-06
1.32319e-06
1.321e-06
1.07785e-06
1.07835e-06
1.07783e-06
1.07825e-06
1.07849e-06
1.07723e-06
1.07838e-06
1.32486e-06
1.32257e-06
1.07831e-06
1.07817e-06
1.07816e-06
1.32233e-06
1.32393e-06
1.32249e-06
1.07813e-06
1.07786e-06
1.07804e-06
1.07773e-06
1.32348e-06
1.32123e-06
1.07805e-06
1.07845e-06
1.07802e-06
1.07833e-06
1.07858e-06
1.0773e-06
1.07844e-06
1.32506e-06
1.32186e-06
1.07834e-06
1.07823e-06
1.07818e-06
1.32232e-06
1.32419e-06
1.32106e-06
1.07832e-06
1.07801e-06
1.07782e-06
1.07748e-06
1.32375e-06
1.32052e-06
1.07831e-06
1.07859e-06
1.07782e-06
1.07805e-06
1.0787e-06
1.07701e-06
1.07814e-06
1.32461e-06
1.32181e-06
1.07844e-06
1.07795e-06
1.07788e-06
1.32233e-06
1.32317e-06
1.30039e-06
1.07813e-06
1.07778e-06
1.05626e-06
1.05591e-06
1.32225e-06
1.29945e-06
1.07813e-06
1.07836e-06
1.05638e-06
1.05639e-06
1.07843e-06
1.05604e-06
1.05644e-06
1.32313e-06
1.3002e-06
1.07817e-06
1.05693e-06
1.05631e-06
1.30001e-06
1.28054e-06
1.01584e-06
1.01549e-06
1.27956e-06
1.01599e-06
1.01593e-06
4.81294e-07
4.81276e-07
4.80878e-07
1.01597e-06
1.28036e-06
1.01589e-06
4.18336e-06
9.29693e-06
1.85829e-05
4.18435e-06
9.30076e-06
5.00721e-07
5.00694e-07
5.01031e-07
5.01736e-07
2.24321e-06
1.07738e-06
3.58339e-06
7.92102e-07
1.85852e-05
2.24197e-06
1.07845e-06
7.92401e-07
3.58478e-06
1.32235e-06
5.55502e-06
5.55726e-06
4.18368e-06
9.29679e-06
4.18392e-06
9.29714e-06
1.85813e-05
1.85837e-05
4.18384e-06
9.30067e-06
4.18429e-06
9.30071e-06
5.00557e-07
5.00916e-07
5.01604e-07
5.00808e-07
5.00637e-07
5.00932e-07
5.01544e-07
2.24257e-06
3.58415e-06
7.92299e-07
1.07741e-06
2.24232e-06
3.58383e-06
7.92339e-07
1.85832e-05
1.85855e-05
2.24076e-06
7.92321e-07
3.58514e-06
1.07825e-06
2.24058e-06
7.92341e-07
3.58476e-06
5.55606e-06
5.55793e-06
1.3227e-06
5.55561e-06
5.55744e-06
4.18483e-06
9.29685e-06
4.18466e-06
9.29714e-06
1.85819e-05
1.85843e-05
4.18352e-06
9.30023e-06
4.18402e-06
9.30041e-06
5.00673e-07
5.01124e-07
5.01768e-07
5.00946e-07
5.00704e-07
5.01122e-07
5.01751e-07
2.24253e-06
3.58468e-06
7.92342e-07
1.07754e-06
2.24289e-06
3.58415e-06
7.92481e-07
1.8584e-05
1.85867e-05
2.24043e-06
7.92303e-07
3.58539e-06
1.07833e-06
2.24049e-06
7.92324e-07
3.58477e-06
5.55636e-06
5.55839e-06
1.32326e-06
5.55588e-06
5.55776e-06
4.18519e-06
9.29681e-06
4.18568e-06
9.29703e-06
1.85827e-05
1.8585e-05
4.18453e-06
9.30011e-06
4.1844e-06
9.30052e-06
5.01012e-07
5.01209e-07
5.01945e-07
5.01068e-07
5.00912e-07
5.01151e-07
5.01881e-07
2.24231e-06
3.58493e-06
7.9246e-07
1.07763e-06
2.24181e-06
3.58424e-06
7.92466e-07
1.85852e-05
1.85877e-05
2.24101e-06
7.92318e-07
3.58489e-06
1.07837e-06
2.24106e-06
7.92353e-07
3.58439e-06
5.55642e-06
5.55821e-06
1.32358e-06
5.55558e-06
5.55745e-06
4.18484e-06
9.29682e-06
4.18543e-06
9.29723e-06
1.85834e-05
1.85858e-05
4.1855e-06
9.30056e-06
4.18568e-06
9.30103e-06
5.01246e-07
5.01443e-07
5.02204e-07
5.01256e-07
5.01244e-07
5.01379e-07
5.01975e-07
2.24204e-06
3.58491e-06
7.92479e-07
1.07772e-06
2.24204e-06
3.58443e-06
7.92494e-07
1.85857e-05
1.85881e-05
2.24111e-06
7.92436e-07
3.58522e-06
1.07845e-06
2.2411e-06
7.92497e-07
3.58495e-06
5.55625e-06
5.55813e-06
1.32337e-06
5.55564e-06
5.5577e-06
4.18433e-06
9.29721e-06
4.18489e-06
9.29756e-06
1.85838e-05
1.85861e-05
4.18502e-06
9.30083e-06
4.18587e-06
9.30104e-06
5.01379e-07
5.01569e-07
5.02172e-07
5.01373e-07
5.01416e-07
5.01415e-07
5.02042e-07
2.24234e-06
3.58506e-06
7.9251e-07
1.07782e-06
2.24212e-06
3.58451e-06
7.92743e-07
1.85864e-05
1.85889e-05
2.2412e-06
7.92499e-07
3.5856e-06
1.07853e-06
2.2413e-06
7.92553e-07
3.58514e-06
5.55625e-06
5.55858e-06
1.32315e-06
5.55557e-06
5.55786e-06
4.18477e-06
9.29744e-06
4.18487e-06
9.29782e-06
1.85842e-05
1.85863e-05
4.184e-06
9.30078e-06
4.18472e-06
9.30102e-06
5.01523e-07
5.0158e-07
5.0226e-07
5.01583e-07
5.01556e-07
5.01636e-07
5.02088e-07
2.24152e-06
3.58493e-06
7.92671e-07
1.07784e-06
2.24163e-06
3.58412e-06
7.92854e-07
1.85869e-05
1.85893e-05
2.24167e-06
7.92665e-07
3.58578e-06
1.07862e-06
2.24189e-06
7.92808e-07
3.58536e-06
5.55628e-06
5.55854e-06
1.32289e-06
5.55559e-06
5.55799e-06
4.18586e-06
9.29772e-06
4.18611e-06
9.29819e-06
1.85846e-05
1.85871e-05
4.18363e-06
9.30064e-06
4.18412e-06
9.30078e-06
5.01675e-07
5.01701e-07
5.02255e-07
5.0176e-07
5.01657e-07
5.01748e-07
5.02129e-07
2.24199e-06
3.58449e-06
7.92867e-07
1.07782e-06
2.24163e-06
3.58377e-06
7.9292e-07
1.85871e-05
1.85891e-05
2.24239e-06
7.92761e-07
3.58624e-06
1.07877e-06
2.24231e-06
7.92982e-07
3.58571e-06
5.55611e-06
5.55894e-06
1.32301e-06
5.55539e-06
5.55815e-06
4.18561e-06
9.29823e-06
4.18607e-06
9.29859e-06
1.85853e-05
1.85876e-05
4.18351e-06
9.30024e-06
4.18383e-06
9.3004e-06
5.01814e-07
5.01834e-07
5.02239e-07
5.01783e-07
5.01822e-07
5.01849e-07
5.02133e-07
2.2422e-06
3.58414e-06
7.92933e-07
1.07785e-06
2.24271e-06
3.58352e-06
7.92905e-07
1.85865e-05
1.85886e-05
2.24253e-06
7.92981e-07
3.58642e-06
1.07883e-06
2.2422e-06
7.93149e-07
3.58603e-06
5.55629e-06
5.55862e-06
1.32256e-06
5.55585e-06
5.5579e-06
4.185e-06
9.29849e-06
4.18573e-06
9.29899e-06
1.85857e-05
1.85879e-05
4.18374e-06
9.30027e-06
4.18419e-06
9.30063e-06
5.01932e-07
5.01909e-07
5.02262e-07
5.01957e-07
5.01865e-07
5.01927e-07
5.02111e-07
2.24213e-06
3.58439e-06
7.92928e-07
1.07774e-06
2.2425e-06
3.58391e-06
7.92824e-07
1.85861e-05
1.85884e-05
2.2424e-06
7.93112e-07
3.58664e-06
1.07878e-06
2.24253e-06
7.93075e-07
3.58587e-06
5.55656e-06
5.55833e-06
1.32238e-06
5.55584e-06
5.55758e-06
4.18484e-06
9.2992e-06
4.18514e-06
9.29965e-06
1.85856e-05
1.85881e-05
4.18329e-06
9.30021e-06
4.18376e-06
9.30051e-06
5.01998e-07
5.02039e-07
5.02231e-07
5.01975e-07
5.01849e-07
5.01964e-07
5.02039e-07
2.24191e-06
3.58457e-06
7.92861e-07
1.07765e-06
2.24227e-06
3.5839e-06
7.92736e-07
1.85865e-05
1.85892e-05
2.24276e-06
7.9313e-07
3.58624e-06
1.07866e-06
2.24286e-06
7.9303e-07
3.58563e-06
5.55631e-06
5.55845e-06
1.3223e-06
5.55581e-06
5.55778e-06
4.1854e-06
9.29948e-06
4.18561e-06
9.29985e-06
1.85858e-05
1.85881e-05
4.18399e-06
9.30022e-06
4.18405e-06
9.30039e-06
5.02043e-07
5.02121e-07
5.02243e-07
5.02075e-07
5.01936e-07
5.01976e-07
5.02044e-07
2.24157e-06
3.58444e-06
7.92721e-07
1.07753e-06
2.24154e-06
3.58375e-06
7.92582e-07
1.85867e-05
1.8589e-05
2.24262e-06
7.9313e-07
3.58614e-06
1.07851e-06
2.24255e-06
7.9307e-07
3.58553e-06
5.55688e-06
5.55836e-06
1.32231e-06
5.5561e-06
5.55775e-06
4.18506e-06
9.29919e-06
4.18571e-06
9.2991e-06
1.85859e-05
1.85887e-05
4.18339e-06
9.29996e-06
4.18429e-06
9.30026e-06
5.02145e-07
5.02111e-07
5.0211e-07
5.02156e-07
5.02016e-07
5.02021e-07
5.01985e-07
2.24123e-06
3.58436e-06
7.92615e-07
1.07746e-06
2.24156e-06
3.58378e-06
7.92507e-07
1.85862e-05
1.85889e-05
2.24258e-06
7.93141e-07
3.58616e-06
1.07833e-06
2.24251e-06
7.93159e-07
3.58539e-06
5.55662e-06
5.55863e-06
1.32212e-06
5.5556e-06
5.55788e-06
4.1846e-06
9.29849e-06
4.18509e-06
9.29881e-06
1.85866e-05
1.85895e-05
4.18261e-06
9.29984e-06
4.18322e-06
9.3003e-06
5.02194e-07
5.02118e-07
5.02141e-07
5.02117e-07
5.02121e-07
5.01959e-07
5.01965e-07
2.24129e-06
3.5844e-06
7.92622e-07
1.07739e-06
2.24149e-06
3.58358e-06
7.9251e-07
1.8586e-05
1.85891e-05
2.24256e-06
7.93181e-07
3.58613e-06
1.07823e-06
2.24258e-06
7.93146e-07
3.58557e-06
5.55663e-06
5.55885e-06
1.322e-06
5.55583e-06
5.55797e-06
4.1854e-06
9.2984e-06
4.18546e-06
9.29894e-06
1.85858e-05
1.85891e-05
4.18222e-06
9.3001e-06
4.18263e-06
9.30067e-06
5.02217e-07
5.02102e-07
5.02138e-07
5.02116e-07
5.02089e-07
5.01997e-07
5.01952e-07
2.24132e-06
3.58441e-06
7.92621e-07
1.0773e-06
2.24167e-06
3.5835e-06
7.92484e-07
1.85857e-05
1.85894e-05
2.24235e-06
7.93089e-07
3.58662e-06
1.07817e-06
2.24257e-06
7.92909e-07
3.58583e-06
5.5571e-06
5.55902e-06
1.32191e-06
5.55597e-06
5.55789e-06
4.18484e-06
9.29852e-06
4.18554e-06
9.29921e-06
1.85849e-05
1.85894e-05
4.18345e-06
9.30042e-06
4.18322e-06
9.30114e-06
5.02237e-07
5.02104e-07
5.02052e-07
5.02053e-07
5.02101e-07
5.0198e-07
5.01899e-07
2.24124e-06
3.58464e-06
7.92566e-07
1.07722e-06
2.24114e-06
3.58371e-06
7.92406e-07
1.85855e-05
1.85902e-05
2.24255e-06
7.92927e-07
3.58672e-06
1.07814e-06
2.24249e-06
7.92747e-07
3.58589e-06
5.55742e-06
5.55937e-06
1.32233e-06
5.55591e-06
5.55793e-06
4.1842e-06
9.2986e-06
4.18491e-06
9.2997e-06
1.85844e-05
1.85906e-05
4.18323e-06
9.3006e-06
4.18393e-06
9.30169e-06
5.02294e-07
5.02119e-07
5.02037e-07
5.02035e-07
5.02117e-07
5.0197e-07
5.01889e-07
2.24004e-06
3.58503e-06
7.92494e-07
1.07717e-06
2.24053e-06
3.58374e-06
7.92318e-07
1.8585e-05
1.85915e-05
2.24192e-06
7.92781e-07
3.58718e-06
1.0781e-06
2.24184e-06
7.92595e-07
3.58588e-06
5.55787e-06
5.55995e-06
1.32294e-06
5.55578e-06
5.55791e-06
4.18374e-06
9.29909e-06
4.18433e-06
9.30103e-06
1.85836e-05
1.85924e-05
4.18234e-06
9.30094e-06
4.18304e-06
9.30276e-06
5.02183e-07
5.02094e-07
5.02005e-07
5.02051e-07
5.02043e-07
5.01957e-07
5.0188e-07
2.24007e-06
3.5856e-06
7.92427e-07
1.07717e-06
2.24022e-06
3.58363e-06
7.9224e-07
1.85848e-05
1.85941e-05
2.24076e-06
7.92675e-07
3.58766e-06
1.07811e-06
2.24133e-06
7.92464e-07
3.58566e-06
5.5586e-06
5.5608e-06
1.32294e-06
5.55561e-06
5.55783e-06
4.1836e-06
9.29987e-06
4.18415e-06
9.30304e-06
1.85824e-05
1.85951e-05
4.18216e-06
9.30139e-06
4.18252e-06
9.30448e-06
5.02137e-07
5.02132e-07
5.02101e-07
5.02045e-07
5.0198e-07
5.01985e-07
5.01932e-07
2.24083e-06
3.58657e-06
7.92393e-07
1.07722e-06
2.24067e-06
3.58317e-06
7.92178e-07
1.85849e-05
1.85981e-05
2.24147e-06
7.92559e-07
3.58842e-06
1.07816e-06
2.24141e-06
7.92342e-07
3.58497e-06
5.5597e-06
5.56181e-06
1.32248e-06
5.5554e-06
5.5574e-06
4.18341e-06
9.30042e-06
4.18376e-06
9.30602e-06
1.85819e-05
1.85997e-05
4.1836e-06
9.30172e-06
4.18348e-06
9.3073e-06
5.02132e-07
5.02126e-07
5.0202e-07
5.01964e-07
5.01922e-07
5.0201e-07
5.01951e-07
2.24041e-06
3.58828e-06
7.92258e-07
1.07729e-06
2.24102e-06
3.58277e-06
7.92002e-07
1.85852e-05
1.8603e-05
2.24115e-06
7.92483e-07
3.59007e-06
1.07822e-06
2.24193e-06
7.9223e-07
3.58459e-06
5.56094e-06
5.56277e-06
1.32269e-06
5.55598e-06
5.55772e-06
4.18016e-06
9.29926e-06
4.18406e-06
9.30633e-06
1.8581e-05
1.85981e-05
4.18028e-06
9.30071e-06
4.18439e-06
9.30778e-06
5.01213e-07
5.01243e-07
5.01145e-07
4.91513e-07
4.91394e-07
4.91478e-07
4.91498e-07
2.23572e-06
3.59333e-06
7.90689e-07
1.07403e-06
2.24115e-06
3.57994e-06
7.90919e-07
1.85843e-05
1.8601e-05
2.23622e-06
7.91054e-07
3.59515e-06
1.07498e-06
2.24172e-06
7.91281e-07
3.5817e-06
5.56518e-06
5.56681e-06
1.31817e-06
5.56208e-06
5.56365e-06
3.40631e-06
8.54866e-06
4.12641e-06
5.68619e-06
1.64745e-05
8.29183e-06
3.40677e-06
8.54998e-06
4.12688e-06
5.68798e-06
1.19412e-07
2.77582e-07
2.77767e-07
5.22493e-07
1.2503e-07
2.92962e-07
2.93812e-07
2.14261e-06
3.48876e-06
7.62317e-07
9.52223e-07
2.20618e-06
3.58412e-06
6.98258e-07
1.64764e-05
8.29328e-06
2.14302e-06
7.62708e-07
3.49031e-06
9.5299e-07
2.20703e-06
6.98572e-07
3.58589e-06
5.47856e-06
5.48004e-06
1.22513e-06
5.15407e-06
5.15241e-06
1.85816e-05
1.85859e-05
1.32278e-06
5.55369e-06
5.55589e-06
1.85818e-05
1.85796e-05
1.85864e-05
1.85839e-05
1.32374e-06
5.55387e-06
5.55606e-06
5.55405e-06
5.55623e-06
4.18347e-06
9.29862e-06
2.24146e-06
1.07747e-06
3.58359e-06
7.91466e-07
2.24135e-06
1.07747e-06
3.58381e-06
7.91587e-07
4.18353e-06
9.29701e-06
9.29665e-06
4.18337e-06
4.18371e-06
9.29869e-06
9.29834e-06
4.18368e-06
2.2406e-06
1.07756e-06
3.58357e-06
7.9155e-07
3.58373e-06
7.91505e-07
2.24001e-06
2.24074e-06
1.07753e-06
3.58377e-06
7.91624e-07
3.584e-06
7.91601e-07
2.24039e-06
1.3224e-06
5.55519e-06
5.55322e-06
1.85824e-05
1.85833e-05
1.85809e-05
1.32365e-06
5.55529e-06
5.55355e-06
5.55554e-06
5.55369e-06
1.85833e-05
1.85804e-05
2.24201e-06
1.07769e-06
3.58492e-06
7.91988e-07
4.18369e-06
9.29866e-06
2.24186e-06
1.07819e-06
7.92056e-07
3.58475e-06
4.18437e-06
9.30094e-06
9.30056e-06
4.18391e-06
2.24144e-06
1.07777e-06
3.58486e-06
7.9205e-07
3.58519e-06
7.92035e-07
2.24112e-06
4.18372e-06
9.29872e-06
9.2984e-06
4.1833e-06
2.24131e-06
1.0782e-06
7.92082e-07
3.5846e-06
7.92099e-07
3.58501e-06
2.2408e-06
4.18591e-06
9.29902e-06
2.24336e-06
1.07883e-06
7.92694e-07
3.58466e-06
4.18652e-06
9.29975e-06
2.24269e-06
1.07737e-06
3.58345e-06
7.92243e-07
3.58363e-06
7.92241e-07
2.24238e-06
4.18607e-06
9.29926e-06
9.29881e-06
4.18571e-06
2.24297e-06
1.07891e-06
7.92669e-07
3.58464e-06
7.92701e-07
3.58484e-06
2.24269e-06
4.18667e-06
9.29996e-06
9.29952e-06
4.18635e-06
1.32284e-06
5.55611e-06
5.5546e-06
1.8584e-05
1.85854e-05
1.8583e-05
1.3253e-06
5.55601e-06
5.55461e-06
5.55652e-06
5.55494e-06
1.85843e-05
1.8582e-05
2.24249e-06
1.07876e-06
7.93022e-07
3.58536e-06
4.18399e-06
9.29915e-06
4.1845e-06
9.30017e-06
2.24132e-06
1.07832e-06
7.92391e-07
3.58453e-06
7.92429e-07
3.58489e-06
2.24016e-06
2.24147e-06
1.07876e-06
7.92783e-07
3.58515e-06
7.92856e-07
3.58557e-06
2.24073e-06
4.18415e-06
9.29907e-06
9.29883e-06
4.18349e-06
4.1846e-06
9.30017e-06
9.29989e-06
4.1841e-06
1.85862e-05
1.85876e-05
1.32452e-06
5.55528e-06
5.55723e-06
5.55546e-06
5.55764e-06
1.85866e-05
1.85841e-05
1.85878e-05
1.85855e-05
1.85798e-05
1.8582e-05
1.85843e-05
1.85864e-05
5.55461e-06
5.55677e-06
1.32234e-06
5.55424e-06
5.55631e-06
1.85821e-05
1.858e-05
1.85864e-05
1.85843e-05
1.32401e-06
5.55442e-06
5.55634e-06
5.55489e-06
5.55685e-06
4.18406e-06
9.29846e-06
4.18419e-06
9.29895e-06
2.24039e-06
3.58419e-06
7.91523e-07
1.07756e-06
2.24083e-06
3.58401e-06
7.9151e-07
2.2405e-06
3.58435e-06
7.91472e-07
1.07744e-06
2.241e-06
3.58411e-06
7.91525e-07
4.18407e-06
9.2971e-06
9.29687e-06
4.18403e-06
4.18449e-06
9.29914e-06
9.29875e-06
4.18428e-06
2.24077e-06
1.07754e-06
3.58399e-06
7.91483e-07
3.58449e-06
7.91474e-07
2.24057e-06
2.24112e-06
1.07743e-06
3.58446e-06
7.91496e-07
3.58467e-06
7.91475e-07
2.24036e-06
5.55603e-06
5.5544e-06
1.32195e-06
5.55561e-06
5.5541e-06
1.85812e-05
1.8584e-05
1.85839e-05
1.85816e-05
1.32367e-06
5.55573e-06
5.55466e-06
5.55624e-06
5.55491e-06
1.85847e-05
1.8582e-05
2.24096e-06
3.58542e-06
7.91905e-07
1.07784e-06
2.24161e-06
3.58473e-06
7.91935e-07
4.18332e-06
9.29844e-06
4.18364e-06
9.29866e-06
2.241e-06
7.91903e-07
3.58519e-06
1.07817e-06
2.24123e-06
7.91925e-07
3.58459e-06
4.18409e-06
9.30052e-06
9.30038e-06
4.18366e-06
2.24094e-06
1.07748e-06
3.58461e-06
7.91877e-07
3.58518e-06
7.91887e-07
2.24044e-06
4.18371e-06
9.29873e-06
9.2984e-06
4.18356e-06
2.24101e-06
1.07813e-06
7.91883e-07
3.5847e-06
7.91906e-07
3.58512e-06
2.24053e-06
4.18606e-06
9.29903e-06
4.18617e-06
9.29938e-06
2.24259e-06
7.92511e-07
3.58526e-06
1.07884e-06
2.243e-06
7.92596e-07
3.5851e-06
4.18642e-06
9.29976e-06
4.18678e-06
9.30029e-06
2.24268e-06
1.07741e-06
3.58401e-06
7.92346e-07
3.58435e-06
7.92345e-07
2.24277e-06
4.18651e-06
9.29941e-06
9.29913e-06
4.18628e-06
2.24298e-06
1.0787e-06
7.92546e-07
3.58535e-06
7.92395e-07
3.58563e-06
2.24226e-06
4.1868e-06
9.30055e-06
9.3001e-06
4.18642e-06
5.55673e-06
5.55526e-06
1.32286e-06
5.55599e-06
5.55479e-06
1.85823e-05
1.85845e-05
1.85861e-05
1.85834e-05
1.32547e-06
5.55624e-06
5.55489e-06
5.55671e-06
5.5554e-06
1.85849e-05
1.85825e-05
2.2411e-06
7.92594e-07
3.58573e-06
1.0787e-06
2.24145e-06
7.92569e-07
3.58546e-06
4.18334e-06
9.29879e-06
4.18392e-06
9.29908e-06
4.184e-06
9.29993e-06
4.1845e-06
9.30034e-06
2.24056e-06
1.07826e-06
7.92315e-07
3.58483e-06
7.92369e-07
3.5852e-06
2.24018e-06
2.24143e-06
1.07869e-06
7.92512e-07
3.58557e-06
7.92534e-07
3.58595e-06
2.24095e-06
4.1837e-06
9.29921e-06
9.29884e-06
4.18317e-06
4.18432e-06
9.30055e-06
9.30011e-06
4.1838e-06
1.85847e-05
1.85871e-05
1.85858e-05
1.85883e-05
1.32497e-06
5.55565e-06
5.55768e-06
5.55618e-06
5.55803e-06
1.85875e-05
1.85851e-05
1.85889e-05
1.85864e-05
1.85801e-05
1.85822e-05
1.85844e-05
1.85866e-05
5.55508e-06
5.55694e-06
1.3226e-06
5.55466e-06
5.55639e-06
1.85823e-05
1.85802e-05
1.85868e-05
1.85845e-05
1.3243e-06
5.55485e-06
5.5564e-06
5.5553e-06
5.55692e-06
4.18478e-06
9.29889e-06
4.18477e-06
9.29919e-06
2.24127e-06
3.58448e-06
7.91576e-07
1.07777e-06
2.24117e-06
3.58408e-06
7.91678e-07
2.24099e-06
3.58499e-06
7.91678e-07
1.07761e-06
2.24128e-06
3.5847e-06
7.91781e-07
4.18535e-06
9.29708e-06
9.29686e-06
4.1852e-06
4.18529e-06
9.29918e-06
9.29894e-06
4.18509e-06
2.24134e-06
1.07746e-06
3.58427e-06
7.91738e-07
3.58455e-06
7.91715e-07
2.24138e-06
2.24113e-06
1.07761e-06
3.58486e-06
7.91593e-07
3.58523e-06
7.91616e-07
2.24126e-06
5.55638e-06
5.5554e-06
1.32229e-06
5.55604e-06
5.55486e-06
1.85826e-05
1.85851e-05
1.85847e-05
1.85823e-05
1.324e-06
5.55634e-06
5.55502e-06
5.55671e-06
5.55556e-06
1.85855e-05
1.8583e-05
2.24048e-06
3.5851e-06
7.91998e-07
1.07781e-06
2.24073e-06
3.58447e-06
7.92047e-07
4.18354e-06
9.2985e-06
4.1839e-06
9.29895e-06
2.24059e-06
7.91982e-07
3.58523e-06
1.07824e-06
2.24094e-06
7.92026e-07
3.58482e-06
4.18383e-06
9.30036e-06
9.30011e-06
4.18382e-06
2.2411e-06
1.07778e-06
3.58437e-06
7.92064e-07
3.5849e-06
7.92053e-07
2.24083e-06
4.18383e-06
9.29915e-06
9.29873e-06
4.18355e-06
2.24091e-06
1.07825e-06
7.92048e-07
3.58489e-06
7.9204e-07
3.58534e-06
2.24072e-06
4.18629e-06
9.29913e-06
4.18667e-06
9.29934e-06
2.24263e-06
7.92715e-07
3.58589e-06
1.0789e-06
2.24305e-06
7.92724e-07
3.58553e-06
4.18637e-06
9.30034e-06
4.18679e-06
9.30076e-06
2.24238e-06
1.07756e-06
3.58428e-06
7.92446e-07
3.58463e-06
7.9244e-07
2.24181e-06
4.18664e-06
9.29938e-06
9.29907e-06
4.18616e-06
2.24279e-06
1.07883e-06
7.92715e-07
3.58565e-06
7.92722e-07
3.58603e-06
2.24198e-06
4.18674e-06
9.30103e-06
9.30056e-06
4.18632e-06
5.55698e-06
5.5555e-06
1.32314e-06
5.55649e-06
5.5547e-06
1.85828e-05
1.85849e-05
1.85873e-05
1.85846e-05
1.32581e-06
5.5569e-06
5.55459e-06
5.5573e-06
5.55521e-06
1.8585e-05
1.85828e-05
2.24122e-06
7.92558e-07
3.58608e-06
1.07874e-06
2.24145e-06
7.92702e-07
3.58572e-06
4.18323e-06
9.29899e-06
4.1836e-06
9.29941e-06
4.18379e-06
9.30033e-06
4.18419e-06
9.30077e-06
2.24098e-06
1.07833e-06
7.92311e-07
3.58435e-06
7.92343e-07
3.58509e-06
2.24073e-06
2.24146e-06
1.07873e-06
7.92533e-07
3.58577e-06
7.92559e-07
3.58623e-06
2.24112e-06
4.18375e-06
9.29938e-06
9.29918e-06
4.18364e-06
4.18424e-06
9.30093e-06
9.30055e-06
4.18401e-06
1.85855e-05
1.85879e-05
1.85868e-05
1.85891e-05
1.32521e-06
5.55586e-06
5.55761e-06
5.55647e-06
5.55826e-06
1.8588e-05
1.85859e-05
1.85891e-05
1.8587e-05
1.85802e-05
1.85821e-05
1.85847e-05
1.8587e-05
5.55545e-06
5.557e-06
1.32294e-06
5.55473e-06
5.55651e-06
1.85821e-05
1.85799e-05
1.8587e-05
1.85849e-05
1.32466e-06
5.55462e-06
5.55651e-06
5.55524e-06
5.55707e-06
4.18499e-06
9.29888e-06
4.18549e-06
9.29906e-06
2.242e-06
3.58482e-06
7.91924e-07
1.07792e-06
2.24179e-06
3.58449e-06
7.91971e-07
2.2415e-06
3.58532e-06
7.91888e-07
1.07777e-06
2.24144e-06
3.58487e-06
7.91947e-07
4.18549e-06
9.29702e-06
9.29674e-06
4.18502e-06
4.18531e-06
9.29895e-06
9.29875e-06
4.18477e-06
2.24206e-06
1.07791e-06
3.5845e-06
7.91994e-07
3.58493e-06
7.91988e-07
2.24165e-06
2.24163e-06
1.07774e-06
3.58502e-06
7.91967e-07
3.58537e-06
7.91958e-07
2.24182e-06
5.557e-06
5.55574e-06
1.32229e-06
5.55654e-06
5.55513e-06
1.85834e-05
1.85859e-05
1.85854e-05
1.8583e-05
1.32492e-06
5.55673e-06
5.55551e-06
5.5572e-06
5.55585e-06
1.85864e-05
1.85838e-05
2.24108e-06
3.58486e-06
7.92067e-07
1.07789e-06
2.2413e-06
3.58451e-06
7.92331e-07
4.18407e-06
9.29892e-06
4.184e-06
9.29929e-06
2.24127e-06
7.92096e-07
3.58545e-06
1.07843e-06
2.24136e-06
7.92288e-07
3.58502e-06
4.18499e-06
9.30074e-06
9.30031e-06
4.18516e-06
2.24144e-06
1.0779e-06
3.58469e-06
7.92123e-07
3.58505e-06
7.91908e-07
2.24111e-06
4.18458e-06
9.29937e-06
9.29904e-06
4.18461e-06
2.24149e-06
1.07844e-06
7.92107e-07
3.58505e-06
7.92142e-07
3.58553e-06
2.24117e-06
4.18602e-06
9.29912e-06
4.18649e-06
9.29935e-06
2.24225e-06
7.92774e-07
3.58614e-06
1.079e-06
2.24236e-06
7.92862e-07
3.58564e-06
4.18627e-06
9.30082e-06
4.18669e-06
9.30114e-06
2.24217e-06
1.07767e-06
3.58425e-06
7.9247e-07
3.58466e-06
7.92481e-07
2.24137e-06
4.18634e-06
9.29945e-06
9.29909e-06
4.18572e-06
2.24261e-06
1.07883e-06
7.92885e-07
3.5855e-06
7.92891e-07
3.58605e-06
2.24179e-06
4.18662e-06
9.30106e-06
9.30085e-06
4.1861e-06
5.55765e-06
5.55521e-06
1.3235e-06
5.55713e-06
5.55482e-06
1.8583e-05
1.85853e-05
1.85879e-05
1.85855e-05
1.32603e-06
5.55724e-06
5.55499e-06
5.55785e-06
5.55546e-06
1.85855e-05
1.85833e-05
2.24149e-06
7.92827e-07
3.58626e-06
1.07885e-06
2.24122e-06
7.92852e-07
3.5858e-06
4.18405e-06
9.2991e-06
4.18422e-06
9.29936e-06
4.18455e-06
9.30071e-06
4.18462e-06
9.30113e-06
2.24108e-06
1.0784e-06
7.92428e-07
3.58455e-06
7.92434e-07
3.58485e-06
2.24084e-06
2.2416e-06
1.07882e-06
7.92855e-07
3.58582e-06
7.92844e-07
3.58628e-06
2.2417e-06
4.18453e-06
9.29941e-06
9.29912e-06
4.18407e-06
4.18515e-06
9.30133e-06
9.30092e-06
4.18493e-06
1.85858e-05
1.85878e-05
1.8587e-05
1.8589e-05
1.32505e-06
5.55553e-06
5.55744e-06
5.55606e-06
5.55796e-06
1.85881e-05
1.85857e-05
1.85893e-05
1.8587e-05
1.858e-05
1.85822e-05
1.8585e-05
1.85872e-05
5.55525e-06
5.55714e-06
1.32298e-06
5.55474e-06
5.55672e-06
1.85823e-05
1.85802e-05
1.8587e-05
1.85851e-05
1.32533e-06
5.5549e-06
5.55674e-06
5.55537e-06
5.55734e-06
4.18452e-06
9.29867e-06
4.1851e-06
9.29887e-06
2.24108e-06
3.58503e-06
7.92064e-07
1.07818e-06
2.24192e-06
3.58467e-06
7.9222e-07
2.24117e-06
3.58551e-06
7.92066e-07
1.07794e-06
2.24197e-06
3.58497e-06
7.92325e-07
4.18512e-06
9.29741e-06
9.297e-06
4.18451e-06
4.18478e-06
9.29882e-06
9.29858e-06
4.18424e-06
2.24123e-06
1.0781e-06
3.58487e-06
7.92032e-07
3.58517e-06
7.92074e-07
2.24105e-06
2.2418e-06
1.0778e-06
3.58458e-06
7.92096e-07
3.58539e-06
7.91875e-07
2.2408e-06
5.55737e-06
5.55623e-06
1.32288e-06
5.55694e-06
5.5556e-06
1.85842e-05
1.85864e-05
1.85859e-05
1.85837e-05
1.32469e-06
5.5569e-06
5.55552e-06
5.55758e-06
5.55627e-06
1.85864e-05
1.85842e-05
2.24138e-06
3.58526e-06
7.92404e-07
1.07803e-06
2.2417e-06
3.58498e-06
7.92405e-07
4.18477e-06
9.29912e-06
4.18502e-06
9.29944e-06
2.24126e-06
7.92452e-07
3.58558e-06
1.07853e-06
2.24139e-06
7.925e-07
3.58512e-06
4.18581e-06
9.30111e-06
9.30081e-06
4.18549e-06
2.24187e-06
1.07803e-06
3.58508e-06
7.92327e-07
3.58555e-06
7.92364e-07
2.24198e-06
4.18509e-06
9.29953e-06
9.2992e-06
4.18464e-06
2.24148e-06
1.0785e-06
7.92379e-07
3.58511e-06
7.92266e-07
3.58565e-06
2.24114e-06
4.18554e-06
9.29922e-06
4.18604e-06
9.29967e-06
2.242e-06
7.92975e-07
3.58596e-06
1.07905e-06
2.2425e-06
7.93028e-07
3.58543e-06
4.1858e-06
9.30078e-06
4.18642e-06
9.30099e-06
2.24189e-06
1.07773e-06
3.58445e-06
7.92491e-07
3.5849e-06
7.92531e-07
2.2415e-06
4.18586e-06
9.30005e-06
9.29949e-06
4.18525e-06
2.24259e-06
1.07897e-06
7.93e-07
3.58536e-06
7.9302e-07
3.58587e-06
2.2419e-06
4.1861e-06
9.30087e-06
9.30069e-06
4.18544e-06
5.55786e-06
5.5556e-06
1.32392e-06
5.55712e-06
5.55504e-06
1.85835e-05
1.85857e-05
1.85886e-05
1.85859e-05
1.32549e-06
5.55744e-06
5.5552e-06
5.55783e-06
5.55567e-06
1.85859e-05
1.85836e-05
2.24171e-06
7.92971e-07
3.58634e-06
1.07897e-06
2.24208e-06
7.92984e-07
3.58602e-06
4.18396e-06
9.29918e-06
4.18448e-06
9.29949e-06
4.18501e-06
9.30114e-06
4.18542e-06
9.30161e-06
2.24156e-06
1.07849e-06
7.92507e-07
3.58505e-06
7.92549e-07
3.58544e-06
2.24098e-06
2.24183e-06
1.07889e-06
7.92963e-07
3.5862e-06
7.92968e-07
3.58654e-06
2.24153e-06
4.1844e-06
9.29935e-06
9.29923e-06
4.18389e-06
4.18546e-06
9.30181e-06
9.3014e-06
4.18498e-06
1.8586e-05
1.85884e-05
1.85872e-05
1.85897e-05
1.32491e-06
5.55557e-06
5.55791e-06
5.55617e-06
5.55829e-06
1.85885e-05
1.85863e-05
1.859e-05
1.85877e-05
1.85803e-05
1.85824e-05
1.85849e-05
1.85869e-05
5.55549e-06
5.5573e-06
1.32286e-06
5.55483e-06
5.55656e-06
1.85827e-05
1.85803e-05
1.8587e-05
1.85847e-05
1.32546e-06
5.55499e-06
5.55641e-06
5.55544e-06
5.55708e-06
4.18422e-06
9.29861e-06
4.18455e-06
9.29909e-06
2.24132e-06
3.58541e-06
7.92363e-07
1.07839e-06
2.24176e-06
3.58501e-06
7.92401e-07
2.24171e-06
3.58502e-06
7.92387e-07
1.07803e-06
2.24188e-06
3.58461e-06
7.92406e-07
4.18466e-06
9.29765e-06
9.29731e-06
4.18435e-06
4.18462e-06
9.29928e-06
9.29887e-06
4.1845e-06
2.242e-06
1.07838e-06
3.585e-06
7.92441e-07
3.58548e-06
7.92431e-07
2.24172e-06
2.24175e-06
1.07803e-06
3.58469e-06
7.92343e-07
3.58509e-06
7.92346e-07
2.24179e-06
5.55748e-06
5.55614e-06
1.32263e-06