/*--------------------------------*- C++ -*----------------------------------*\
| =========                 |                                                 |
| \\      /  F ield         | OpenFOAM: The Open Source CFD Toolbox           |
|  \\    /   O peration     | Version:  v1906                                 |
|   \\  /    A nd           | Web:      www.OpenFOAM.com                      |
|    \\/     M anipulation  |                                                 |
\*---------------------------------------------------------------------------*/
FoamFile
{
    version     2.0;
    format      ascii;
    class       volVectorField;
    location    "250";
    object      U;
}
// * * * * * * * * * * * * * * * * * * * * * * * * * * * * * * * * * * * * * //

dimensions      [0 1 -1 0 0 0 0];


internalField   nonuniform List<vector> 
43024
(
(-8.16723e-07 -8.61604e-07 0.113191)
(-4.71178e-07 6.55225e-07 0.107853)
(8.27164e-07 -4.3051e-07 0.107848)
(-3.62325e-05 -3.59704e-05 0.10432)
(-8.98003e-07 -7.06683e-07 0.11319)
(-3.68312e-07 8.45405e-07 0.107852)
(7.43347e-07 -4.00997e-07 0.107848)
(-3.61743e-05 -3.59718e-05 0.10432)
(-8.66576e-07 -5.52948e-07 0.113189)
(-3.24508e-07 1.04302e-06 0.107851)
(7.318e-07 -3.99298e-07 0.107849)
(-3.61813e-05 -3.60116e-05 0.104321)
(-8.05772e-07 -4.53009e-07 0.113188)
(-3.66704e-07 1.17918e-06 0.107851)
(7.9827e-07 -4.05634e-07 0.10785)
(-3.61707e-05 -3.59324e-05 0.104321)
(-7.74559e-07 -3.83862e-07 0.113187)
(-4.80048e-07 1.19329e-06 0.107851)
(8.68394e-07 -3.73971e-07 0.10785)
(-3.6295e-05 -3.61131e-05 0.104322)
(-7.45157e-07 -4.28922e-07 0.113186)
(-4.37368e-07 1.1695e-06 0.107851)
(9.53748e-07 -4.34119e-07 0.107851)
(-3.61932e-05 -3.61611e-05 0.104323)
(-6.30681e-07 -4.70932e-07 0.113185)
(-4.70958e-07 1.15264e-06 0.107851)
(1.08939e-06 -4.43238e-07 0.107852)
(-3.61911e-05 -3.62311e-05 0.104324)
(-5.35137e-07 -6.02775e-07 0.113185)
(-3.70738e-07 1.05051e-06 0.107851)
(1.21246e-06 -4.02836e-07 0.107852)
(-3.60796e-05 -3.61218e-05 0.104325)
(-4.91091e-07 -6.95846e-07 0.113185)
(-3.8033e-07 1.05623e-06 0.107852)
(1.26125e-06 -3.35953e-07 0.107853)
(-3.61233e-05 -3.62354e-05 0.104326)
(-5.84005e-07 -7.17434e-07 0.113185)
(-3.80432e-07 9.98046e-07 0.107852)
(1.11896e-06 -3.13661e-07 0.107853)
(-3.61949e-05 -3.63272e-05 0.104327)
(-6.85819e-07 -8.61011e-07 0.113186)
(-3.22692e-07 9.92324e-07 0.107853)
(9.68766e-07 -3.47449e-07 0.107854)
(-3.6283e-05 -3.63388e-05 0.104328)
(-8.13246e-07 -8.69139e-07 0.113187)
(-2.81295e-07 9.21895e-07 0.107854)
(8.37831e-07 -3.34604e-07 0.107855)
(-3.63183e-05 -3.62217e-05 0.104329)
(-9.90273e-07 -8.84349e-07 0.113189)
(-4.41823e-07 8.81987e-07 0.107856)
(6.55361e-07 -3.05532e-07 0.107857)
(-3.64415e-05 -3.60341e-05 0.104329)
(-1.10696e-06 -9.44516e-07 0.113193)
(-5.01064e-07 7.76949e-07 0.107858)
(6.28196e-07 -2.33599e-07 0.107859)
(-3.65064e-05 -3.59826e-05 0.104329)
(-1.17093e-06 -1.22387e-06 0.113197)
(-4.60979e-07 6.6839e-07 0.10786)
(6.4816e-07 -1.08655e-07 0.107862)
(-3.64159e-05 -3.59772e-05 0.104329)
(-1.42736e-06 -1.54677e-06 0.113202)
(-4.17185e-07 6.59677e-07 0.107864)
(6.73452e-07 2.22624e-08 0.107865)
(-3.62076e-05 -3.58238e-05 0.10433)
(-1.95354e-06 -2.13136e-06 0.113208)
(-3.00756e-07 7.67743e-07 0.107868)
(7.679e-07 5.70306e-08 0.10787)
(-3.54143e-05 -3.52711e-05 0.104332)
(-3.03421e-06 -3.28371e-06 0.113216)
(-2.06876e-07 1.10956e-06 0.107875)
(1.28232e-06 -1.05244e-07 0.107877)
(-3.34758e-05 -3.35791e-05 0.104337)
(-5.06722e-06 -5.40623e-06 0.113226)
(-5.51666e-07 2.79734e-06 0.107885)
(2.78394e-06 -6.54443e-07 0.107887)
(-2.79499e-05 -2.85112e-05 0.104355)
(-1.38476e-05 -1.40854e-05 0.113234)
(1.51993e-06 4.78785e-06 0.107903)
(4.71344e-06 1.25043e-06 0.107904)
(-1.18496e-05 -1.2503e-05 0.104414)
(-1.68382e-05 -1.70385e-05 0.113386)
(0.000107634 -5.4391e-05 0.108165)
(-5.44074e-05 0.00010723 0.108165)
(3.28682e-05 3.21959e-05 0.104798)
(-3.80647e-05 -3.80652e-05 0.104472)
(9.213e-07 4.55915e-07 0.107851)
(-7.72145e-07 2.86975e-07 0.107849)
(3.81427e-05 -3.83753e-05 0.104473)
(5.72933e-07 8.51506e-07 0.107851)
(6.36804e-07 -6.84176e-07 0.107845)
(-5.5325e-07 6.4282e-07 0.107852)
(-6.51514e-07 -7.51694e-07 0.107842)
(-3.79834e-05 3.82035e-05 0.104467)
(8.58505e-07 -4.77863e-07 0.107847)
(-1.00375e-06 -5.05141e-07 0.107842)
(3.7907e-05 3.81628e-05 0.104465)
(3.60554e-05 3.6109e-05 0.104327)
(-3.83035e-05 -3.79335e-05 0.104472)
(8.56865e-07 4.47527e-07 0.107851)
(-7.22777e-07 2.6289e-07 0.10785)
(7.44303e-07 5.71056e-07 0.10785)
(-6.43808e-07 4.66006e-07 0.107849)
(-3.60136e-05 3.57583e-05 0.104327)
(3.8361e-05 -3.81459e-05 0.104473)
(5.06343e-07 8.6118e-07 0.107852)
(5.79055e-07 -6.37139e-07 0.107846)
(3.87812e-07 1.01138e-06 0.10785)
(5.91214e-07 -6.11e-07 0.107846)
(-6.24118e-07 -6.98984e-07 0.107843)
(-4.33568e-07 8.43122e-07 0.107851)
(-6.9804e-07 -6.63571e-07 0.107842)
(3.60923e-05 -3.59462e-05 0.104322)
(-3.8074e-05 3.82747e-05 0.104467)
(-9.73487e-07 -4.66666e-07 0.107843)
(7.9479e-07 -4.48365e-07 0.107847)
(-9.37101e-07 -5.29696e-07 0.107843)
(3.79754e-05 3.81827e-05 0.104465)
(3.58499e-05 3.62688e-05 0.104327)
(-3.84413e-05 -3.78116e-05 0.104471)
(6.87983e-07 5.74968e-07 0.107851)
(-5.86274e-07 4.74065e-07 0.10785)
(6.6503e-07 7.87546e-07 0.107849)
(-5.92159e-07 7.27092e-07 0.107848)
(-3.57794e-05 3.602e-05 0.104327)
(3.84394e-05 -3.78945e-05 0.104472)
(3.04153e-07 1.01564e-06 0.107851)
(5.34186e-07 -5.44392e-07 0.107846)
(3.07118e-07 1.132e-06 0.10785)
(6.3119e-07 -5.37443e-07 0.107845)
(-6.50998e-07 -6.0998e-07 0.107843)
(-3.86639e-07 1.02998e-06 0.10785)
(-7.09344e-07 -6.24768e-07 0.107842)
(3.60294e-05 -3.59017e-05 0.104322)
(-3.80695e-05 3.83276e-05 0.104468)
(-8.63368e-07 -4.87477e-07 0.107844)
(7.66733e-07 -4.46127e-07 0.107848)
(-8.35034e-07 -5.7823e-07 0.107843)
(3.80477e-05 3.82271e-05 0.104465)
(3.57542e-05 3.63718e-05 0.104326)
(-3.83723e-05 -3.77306e-05 0.10447)
(6.37085e-07 7.69923e-07 0.10785)
(-5.31929e-07 7.1737e-07 0.107849)
(7.58843e-07 9.30716e-07 0.107848)
(-6.10449e-07 8.93165e-07 0.107847)
(-3.57366e-05 3.62529e-05 0.104327)
(3.83329e-05 -3.77533e-05 0.104472)
(2.59486e-07 1.11953e-06 0.107851)
(5.92731e-07 -4.75594e-07 0.107847)
(4.06803e-07 1.2472e-06 0.107849)
(6.83771e-07 -4.97664e-07 0.107846)
(-6.50778e-07 -5.58599e-07 0.107843)
(-4.14072e-07 1.21836e-06 0.107849)
(-7.54612e-07 -5.91857e-07 0.107842)
(3.60545e-05 -3.58788e-05 0.104323)
(-3.80794e-05 3.83732e-05 0.104469)
(-8.16446e-07 -5.32313e-07 0.107844)
(8.31721e-07 -4.74673e-07 0.107848)
(-8.7802e-07 -6.00036e-07 0.107843)
(3.80534e-05 3.82898e-05 0.104466)
(3.58334e-05 3.64677e-05 0.104325)
(-3.83964e-05 -3.78534e-05 0.10447)
(7.46397e-07 8.72394e-07 0.107849)
(-5.62422e-07 8.21965e-07 0.107849)
(8.56365e-07 9.72565e-07 0.107846)
(-6.43205e-07 9.3159e-07 0.107847)
(-3.58953e-05 3.64155e-05 0.104327)
(3.83621e-05 -3.77457e-05 0.104473)
(3.64694e-07 1.19135e-06 0.10785)
(6.16761e-07 -4.47355e-07 0.107847)
(5.20948e-07 1.30442e-06 0.107848)
(7.13637e-07 -5.214e-07 0.107846)
(-7.20776e-07 -5.3956e-07 0.107844)
(-5.40307e-07 1.27344e-06 0.107849)
(-8.0958e-07 -6.01884e-07 0.107843)
(3.61093e-05 -3.58845e-05 0.104324)
(-3.81066e-05 3.83905e-05 0.10447)
(-8.32174e-07 -5.44819e-07 0.107845)
(9.01253e-07 -4.56048e-07 0.107848)
(-8.3347e-07 -5.92314e-07 0.107844)
(3.80484e-05 3.82112e-05 0.104467)
(3.58828e-05 3.63762e-05 0.104324)
(-3.81093e-05 -3.77869e-05 0.104469)
(8.58131e-07 8.79841e-07 0.107848)
(-5.62601e-07 8.59676e-07 0.107848)
(9.20222e-07 9.34306e-07 0.107845)
(-5.91267e-07 9.93938e-07 0.107846)
(-3.59186e-05 3.64705e-05 0.104327)
(3.833e-05 -3.77265e-05 0.104473)
(4.18819e-07 1.29671e-06 0.10785)
(6.12357e-07 -4.73493e-07 0.107848)
(5.74474e-07 1.34972e-06 0.107847)
(7.37825e-07 -5.92844e-07 0.107846)
(-7.11442e-07 -5.41692e-07 0.107845)
(-5.51028e-07 1.23582e-06 0.107849)
(-7.73349e-07 -7.14544e-07 0.107844)
(3.61036e-05 -3.58868e-05 0.104325)
(-3.81509e-05 3.84531e-05 0.104471)
(-7.40729e-07 -5.02804e-07 0.107846)
(9.82304e-07 -5.20279e-07 0.107849)
(-7.66582e-07 -6.80741e-07 0.107845)
(3.81006e-05 3.81489e-05 0.104468)
(3.62258e-05 3.64954e-05 0.104324)
(-3.80539e-05 -3.79678e-05 0.104469)
(8.65549e-07 8.04912e-07 0.107847)
(-5.67526e-07 8.93354e-07 0.107848)
(1.04711e-06 8.53265e-07 0.107844)
(-6.86496e-07 1.02087e-06 0.107845)
(-3.59157e-05 3.64492e-05 0.104327)
(3.82685e-05 -3.77211e-05 0.104472)
(4.85865e-07 1.25423e-06 0.107849)
(6.43593e-07 -5.66614e-07 0.107848)
(6.80381e-07 1.22669e-06 0.107846)
(8.56021e-07 -6.72062e-07 0.107846)
(-6.35444e-07 -6.58381e-07 0.107846)
(-6.09763e-07 1.25595e-06 0.107849)
(-7.34435e-07 -6.90916e-07 0.107844)
(3.6172e-05 -3.5944e-05 0.104325)
(-3.79639e-05 3.84114e-05 0.104471)
(-6.72555e-07 -5.95589e-07 0.107847)
(1.13305e-06 -5.87686e-07 0.107849)
(-7.15744e-07 -7.1189e-07 0.107846)
(3.81634e-05 3.81304e-05 0.104469)
(3.63201e-05 3.6362e-05 0.104323)
(-3.78752e-05 -3.80938e-05 0.104468)
(9.68683e-07 7.01178e-07 0.107846)
(-6.18139e-07 8.88029e-07 0.107848)
(1.17001e-06 8.2908e-07 0.107843)
(-7.49705e-07 1.01209e-06 0.107844)
(-3.59637e-05 3.64611e-05 0.104327)
(3.8282e-05 -3.78453e-05 0.104472)
(5.87668e-07 1.05589e-06 0.107849)
(7.3628e-07 -5.51617e-07 0.107849)
(8.58715e-07 9.73946e-07 0.107845)
(1.0105e-06 -6.81848e-07 0.107845)
(-5.80796e-07 -5.92005e-07 0.107847)
(-5.42662e-07 1.1714e-06 0.107848)
(-6.89805e-07 -7.10548e-07 0.107844)
(3.64366e-05 -3.60599e-05 0.104326)
(-3.78154e-05 3.83815e-05 0.104471)
(-6.06853e-07 -5.56896e-07 0.107849)
(1.30924e-06 -5.57002e-07 0.107849)
(-6.86027e-07 -6.61351e-07 0.107846)
(3.83193e-05 3.82567e-05 0.10447)
(3.64839e-05 3.62145e-05 0.104323)
(-3.77914e-05 -3.81323e-05 0.104468)
(1.0578e-06 6.13214e-07 0.107846)
(-6.5674e-07 8.1599e-07 0.107848)
(1.27217e-06 8.04113e-07 0.107842)
(-7.7739e-07 9.8003e-07 0.107844)
(-3.60559e-05 3.6421e-05 0.104326)
(3.82729e-05 -3.79159e-05 0.104472)
(7.12796e-07 8.05884e-07 0.107849)
(8.80072e-07 -5.57338e-07 0.107849)
(1.01281e-06 8.56231e-07 0.107844)
(1.13491e-06 -7.25659e-07 0.107844)
(-5.18873e-07 -5.73642e-07 0.107848)
(-5.92087e-07 1.20624e-06 0.107847)
(-7.00663e-07 -7.44428e-07 0.107845)
(3.65909e-05 -3.61057e-05 0.104325)
(-3.76792e-05 3.83687e-05 0.10447)
(-5.19329e-07 -5.07152e-07 0.10785)
(1.39766e-06 -5.74619e-07 0.107848)
(-6.28546e-07 -6.93368e-07 0.107847)
(3.83092e-05 3.81982e-05 0.104471)
(3.64881e-05 3.61336e-05 0.104322)
(-3.78551e-05 -3.80817e-05 0.104467)
(1.13521e-06 5.62402e-07 0.107846)
(-6.36487e-07 7.58928e-07 0.107848)
(1.25551e-06 8.00952e-07 0.10784)
(-8.04544e-07 1.01309e-06 0.107843)
(-3.60398e-05 3.63261e-05 0.104327)
(3.82232e-05 -3.78689e-05 0.104472)
(7.88519e-07 7.29879e-07 0.107849)
(9.31393e-07 -6.31552e-07 0.107849)
(1.02434e-06 9.594e-07 0.107843)
(1.24979e-06 -8.66154e-07 0.107843)
(-4.72366e-07 -6.59143e-07 0.107849)
(-6.54218e-07 1.17243e-06 0.107847)
(-7.25457e-07 -8.71773e-07 0.107845)
(3.66543e-05 -3.60455e-05 0.104325)
(-3.77928e-05 3.83904e-05 0.104471)
(-4.88768e-07 -4.65443e-07 0.107852)
(1.35733e-06 -5.81526e-07 0.107848)
(-6.3765e-07 -7.04852e-07 0.107848)
(3.82592e-05 3.81253e-05 0.104472)
(3.64434e-05 3.62276e-05 0.104322)
(-3.79559e-05 -3.80838e-05 0.104467)
(1.03464e-06 5.08173e-07 0.107846)
(-6.25968e-07 7.12607e-07 0.107848)
(1.15412e-06 8.77176e-07 0.10784)
(-8.24844e-07 1.05856e-06 0.107842)
(-3.61935e-05 3.64902e-05 0.104326)
(3.82854e-05 -3.78954e-05 0.104472)
(7.11908e-07 8.02194e-07 0.107849)
(9.66776e-07 -7.03557e-07 0.107849)
(9.82057e-07 1.01283e-06 0.107842)
(1.21167e-06 -9.03746e-07 0.107842)
(-4.53273e-07 -6.94607e-07 0.107851)
(-6.72968e-07 1.24349e-06 0.107846)
(-7.70675e-07 -9.76693e-07 0.107846)
(3.66071e-05 -3.61314e-05 0.104325)
(-3.79025e-05 3.81841e-05 0.10447)
(-4.61597e-07 -4.22252e-07 0.107854)
(1.24588e-06 -6.86232e-07 0.107847)
(-7.35485e-07 -7.53271e-07 0.107848)
(3.81776e-05 3.80953e-05 0.104473)
(3.6433e-05 3.63328e-05 0.104322)
(-3.80704e-05 -3.79542e-05 0.104468)
(8.83255e-07 5.60835e-07 0.107847)
(-6.07387e-07 6.78602e-07 0.107849)
(1.02143e-06 1.0285e-06 0.107839)
(-9.61533e-07 1.08038e-06 0.107841)
(-3.62014e-05 3.64965e-05 0.104327)
(3.80877e-05 -3.79361e-05 0.104472)
(5.93674e-07 7.77615e-07 0.107849)
(7.84159e-07 -6.51385e-07 0.107849)
(9.33698e-07 1.04985e-06 0.107841)
(1.09069e-06 -9.81041e-07 0.107841)
(-4.01472e-07 -7.26041e-07 0.107853)
(-7.29698e-07 1.28224e-06 0.107845)
(-7.81563e-07 -9.64064e-07 0.107846)
(3.65036e-05 -3.63272e-05 0.104325)
(-3.78719e-05 3.81294e-05 0.10447)
(-5.14248e-07 -3.74498e-07 0.107856)
(1.20752e-06 -8.13977e-07 0.107846)
(-8.95247e-07 -7.54798e-07 0.107848)
(3.81587e-05 3.81716e-05 0.104474)
(3.62281e-05 3.63852e-05 0.104322)
(-3.81084e-05 -3.78734e-05 0.104468)
(7.0911e-07 5.76524e-07 0.107848)
(-6.94977e-07 6.1311e-07 0.10785)
(9.94184e-07 1.16242e-06 0.107838)
(-1.24014e-06 1.18105e-06 0.107839)
(-3.63743e-05 3.64644e-05 0.104326)
(3.79902e-05 -3.79136e-05 0.104472)
(4.35439e-07 7.87978e-07 0.10785)
(6.05676e-07 -6.61464e-07 0.10785)
(9.53479e-07 1.19852e-06 0.10784)
(1.07632e-06 -1.03724e-06 0.107839)
(-3.32452e-07 -5.74351e-07 0.107855)
(-9.96554e-07 1.27558e-06 0.107844)
(-9.66562e-07 -8.32774e-07 0.107845)
(3.647e-05 -3.63002e-05 0.104325)
(-3.78943e-05 3.80382e-05 0.10447)
(-5.72586e-07 -2.73173e-07 0.107857)
(1.0869e-06 -8.89593e-07 0.107845)
(-1.02916e-06 -7.64252e-07 0.107847)
(3.79666e-05 3.8332e-05 0.104474)
(3.62166e-05 3.64465e-05 0.104323)
(-3.80321e-05 -3.78878e-05 0.104468)
(6.10824e-07 5.72306e-07 0.10785)
(-9.09654e-07 5.73113e-07 0.10785)
(1.08907e-06 1.30883e-06 0.107837)
(-1.43719e-06 1.30144e-06 0.107837)
(-3.64187e-05 3.64023e-05 0.104326)
(3.76501e-05 -3.78251e-05 0.104472)
(3.63558e-07 7.94578e-07 0.107852)
(4.75117e-07 -6.24182e-07 0.107851)
(1.14781e-06 1.22478e-06 0.107839)
(1.22293e-06 -1.06873e-06 0.107837)
(-4.20925e-07 -4.09077e-07 0.107857)
(-1.29571e-06 1.27446e-06 0.107842)
(-1.22405e-06 -8.60095e-07 0.107843)
(3.63185e-05 -3.62714e-05 0.104325)
(-3.77944e-05 3.80127e-05 0.104469)
(-6.28205e-07 -1.64773e-07 0.107859)
(1.11993e-06 -1.02111e-06 0.107844)
(-1.21755e-06 -8.92577e-07 0.107846)
(3.77383e-05 3.82534e-05 0.104474)
(3.63169e-05 3.63951e-05 0.104323)
(-3.7624e-05 -3.78305e-05 0.104469)
(6.01691e-07 5.2695e-07 0.107852)
(-9.74043e-07 4.98203e-07 0.107852)
(1.2522e-06 1.39884e-06 0.107835)
(-1.59277e-06 1.46481e-06 0.107834)
(-3.67561e-05 3.64877e-05 0.104326)
(3.75001e-05 -3.78324e-05 0.104471)
(3.93481e-07 7.22016e-07 0.107854)
(4.62348e-07 -5.34502e-07 0.107853)
(1.45431e-06 1.17227e-06 0.107837)
(1.50066e-06 -1.11224e-06 0.107835)
(-4.68152e-07 -3.68502e-07 0.107859)
(-1.50609e-06 1.29764e-06 0.10784)
(-1.42276e-06 -9.67223e-07 0.107841)
(3.63311e-05 -3.6189e-05 0.104325)
(-3.7667e-05 3.79562e-05 0.104469)
(-7.2929e-07 -9.26145e-08 0.107861)
(1.23724e-06 -1.14232e-06 0.107841)
(-1.30797e-06 -1.03e-06 0.107844)
(3.75821e-05 3.80093e-05 0.104474)
(3.64557e-05 3.62141e-05 0.104324)
(-3.7303e-05 -3.75457e-05 0.104468)
(6.77332e-07 3.23264e-07 0.107856)
(-1.01862e-06 4.11413e-07 0.107854)
(1.38221e-06 1.52916e-06 0.107833)
(-1.65285e-06 1.66327e-06 0.107831)
(-3.67028e-05 3.63124e-05 0.104326)
(3.72207e-05 -3.75306e-05 0.10447)
(4.35134e-07 5.31322e-07 0.107857)
(4.7625e-07 -5.27207e-07 0.107855)
(1.78038e-06 1.18815e-06 0.107834)
(1.76492e-06 -1.15676e-06 0.107832)
(-3.92246e-07 -3.77828e-07 0.107861)
(-1.77913e-06 1.31844e-06 0.107837)
(-1.65334e-06 -1.05603e-06 0.107838)
(3.63201e-05 -3.61055e-05 0.104325)
(-3.74102e-05 3.77689e-05 0.104469)
(-7.22529e-07 5.09812e-10 0.107864)
(1.34897e-06 -1.36266e-06 0.107839)
(-1.39647e-06 -1.24504e-06 0.107841)
(3.73415e-05 3.77466e-05 0.104473)
(3.6278e-05 3.60168e-05 0.104325)
(-3.67287e-05 -3.69827e-05 0.104466)
(7.44042e-07 1.49369e-07 0.10786)
(-1.00867e-06 2.8551e-07 0.107858)
(1.34534e-06 1.79291e-06 0.107829)
(-1.56156e-06 1.91016e-06 0.107827)
(-3.64969e-05 3.61798e-05 0.104326)
(3.66029e-05 -3.68189e-05 0.104468)
(4.19998e-07 5.7491e-07 0.107861)
(3.88822e-07 -5.43039e-07 0.107859)
(1.99125e-06 1.15786e-06 0.107829)
(1.9375e-06 -1.1883e-06 0.107827)
(-2.6331e-07 -4.0855e-07 0.107865)
(-2.04199e-06 1.24463e-06 0.107832)
(-1.87763e-06 -1.01792e-06 0.107834)
(3.61363e-05 -3.58743e-05 0.104326)
(-3.69141e-05 3.70794e-05 0.104467)
(-7.25309e-07 1.19435e-07 0.107868)
(1.19252e-06 -1.64426e-06 0.107834)
(-1.21922e-06 -1.56429e-06 0.107837)
(3.69261e-05 3.71168e-05 0.104471)
(3.56831e-05 3.53996e-05 0.104326)
(-3.495e-05 -3.53071e-05 0.10446)
(9.50916e-07 9.47942e-08 0.107865)
(-1.08022e-06 1.80097e-07 0.107863)
(1.11898e-06 2.00131e-06 0.107823)
(-1.03307e-06 2.08617e-06 0.107821)
(-3.58079e-05 3.55368e-05 0.104327)
(3.51388e-05 -3.52635e-05 0.104462)
(2.81178e-07 7.211e-07 0.107865)
(1.95036e-07 -7.69029e-07 0.107864)
(2.21716e-06 7.93138e-07 0.107823)
(2.11918e-06 -9.41924e-07 0.107821)
(-1.29244e-07 -6.20316e-07 0.10787)
(-2.15004e-06 6.93839e-07 0.107826)
(-1.99002e-06 -8.54046e-07 0.107827)
(3.54789e-05 -3.54035e-05 0.104327)
(-3.53368e-05 3.53191e-05 0.104462)
(-8.03836e-07 1.21824e-07 0.107873)
(9.04133e-07 -2.00243e-06 0.107828)
(-8.19667e-07 -1.91679e-06 0.10783)
(3.54035e-05 3.53837e-05 0.104466)
(3.39065e-05 3.35274e-05 0.104332)
(-3.01264e-05 -3.05449e-05 0.104443)
(1.55873e-06 8.40569e-08 0.107872)
(-1.41716e-06 1.71453e-07 0.107871)
(1.2055e-07 1.94014e-06 0.107814)
(1.28382e-07 2.00676e-06 0.107812)
(-3.37022e-05 3.35724e-05 0.104333)
(3.03098e-05 -3.03346e-05 0.104445)
(3.01762e-07 1.20146e-06 0.107872)
(1.93327e-07 -1.42116e-06 0.107871)
(2.19941e-06 -2.9668e-07 0.107813)
(2.04984e-06 -6.85857e-09 0.107812)
(-2.5939e-08 -1.33743e-06 0.107876)
(-1.98819e-06 -2.58731e-07 0.107817)
(-1.77178e-06 -9.85467e-08 0.107818)
(3.35475e-05 -3.36326e-05 0.104333)
(-3.04231e-05 3.02223e-05 0.104445)
(-1.20524e-06 -4.62844e-08 0.10788)
(-2.63062e-07 -2.05528e-06 0.107819)
(3.49285e-07 -2.05383e-06 0.107821)
(3.05963e-05 3.01074e-05 0.104449)
(2.84571e-05 2.80275e-05 0.10435)
(-1.89936e-05 -1.93387e-05 0.104394)
(3.22558e-06 5.67425e-07 0.107883)
(-2.9614e-06 6.262e-07 0.107881)
(-3.55084e-06 -3.18962e-07 0.107801)
(3.75829e-06 -2.536e-07 0.107799)
(-2.82089e-05 2.82228e-05 0.104351)
(1.91252e-05 -1.91675e-05 0.104396)
(8.00189e-07 2.75741e-06 0.107882)
(6.58968e-07 -3.12431e-06 0.107881)
(-1.11227e-07 -3.89597e-06 0.1078)
(-2.86073e-07 3.47477e-06 0.107799)
(-3.20212e-07 -3.21136e-06 0.107886)
(3.37175e-07 -3.84194e-06 0.107804)
(5.7912e-07 3.4064e-06 0.107804)
(2.82033e-05 -2.83978e-05 0.104351)
(-1.92992e-05 1.87899e-05 0.104395)
(-2.69445e-06 -6.93978e-07 0.107889)
(-3.88745e-06 6.68349e-08 0.107805)
(4.03678e-06 8.86534e-08 0.107807)
(1.9553e-05 1.8813e-05 0.104399)
(1.24265e-05 1.21979e-05 0.104409)
(-3.88348e-05 -3.90243e-05 0.104346)
(5.07135e-06 -1.47672e-06 0.1079)
(-4.9428e-06 -1.3972e-06 0.107899)
(-3.31295e-05 -4.54648e-05 0.107859)
(3.32313e-05 -4.54972e-05 0.107858)
(-1.21965e-05 1.22815e-05 0.10441)
(3.90153e-05 -3.90517e-05 0.104348)
(-1.3454e-06 4.72367e-06 0.107899)
(-1.53034e-06 -5.21997e-06 0.107898)
(-4.53903e-05 -3.33755e-05 0.107858)
(-4.55664e-05 3.28394e-05 0.107858)
(1.78316e-06 -5.22719e-06 0.107903)
(4.55881e-05 -3.33506e-05 0.107862)
(4.57777e-05 3.29338e-05 0.107862)
(1.21633e-05 -1.25754e-05 0.10441)
(-3.91507e-05 3.85735e-05 0.104347)
(-4.58404e-06 1.28117e-06 0.107905)
(-3.33747e-05 4.51686e-05 0.107863)
(3.35606e-05 4.51979e-05 0.107864)
(3.9379e-05 3.86721e-05 0.10435)
(-3.24828e-05 -3.26654e-05 0.104794)
(-5.423e-05 -0.000107598 0.108163)
(5.43773e-05 -0.000107654 0.108162)
(3.26256e-05 -3.26316e-05 0.104795)
(-0.000107602 -5.44787e-05 0.108162)
(-0.000107746 5.39354e-05 0.108162)
(1.69158e-05 -1.7114e-05 0.113385)
(-1.69921e-05 1.64251e-05 0.113388)
(1.7101e-05 1.65022e-05 0.11339)
(0.000107883 5.40036e-05 0.108166)
(-3.27476e-05 3.21784e-05 0.104794)
(5.46007e-05 0.000107371 0.108167)
(-7.36475e-08 -1.25092e-05 0.0908798)
(-1.57857e-06 -1.02723e-05 0.081609)
(3.60178e-06 -5.65235e-06 0.070956)
(-1.25985e-05 5.97414e-08 0.0908791)
(-1.05503e-05 -1.12178e-06 0.0816101)
(-7.67365e-07 -8.7666e-07 0.11319)
(8.17093e-07 -1.05184e-06 0.113189)
(-8.81186e-07 1.07142e-06 0.113187)
(7.91165e-07 9.3631e-07 0.113182)
(1.99009e-05 -3.30003e-07 0.0983084)
(-5.88179e-07 5.52515e-07 0.107853)
(1.53009e-05 -6.44659e-06 0.092555)
(-4.9539e-07 -2.27025e-07 0.110457)
(-5.59712e-06 3.47886e-06 0.0709577)
(-3.95122e-07 1.96859e-05 0.098306)
(8.44452e-07 -5.3179e-07 0.107847)
(-8.74614e-08 -4.91566e-07 0.110454)
(-6.5748e-06 1.52122e-05 0.0925501)
(3.80162e-05 3.82105e-05 0.104465)
(7.12486e-06 5.81501e-06 0.0869815)
(5.57455e-06 7.18772e-06 0.0869794)
(8.7225e-08 -1.25451e-05 0.0908799)
(4.16337e-07 1.08775e-05 0.0815541)
(1.91847e-07 1.18562e-05 0.09083)
(-1.67084e-06 -1.02895e-05 0.0816091)
(-2.81324e-06 6.0924e-06 0.0708967)
(3.64643e-06 -5.59137e-06 0.0709569)
(-1.25144e-05 2.68938e-07 0.0908791)
(1.06194e-05 9.49559e-07 0.0815539)
(1.19221e-05 3.35167e-07 0.0908302)
(-1.05481e-05 -1.00628e-06 0.0816101)
(7.90368e-07 -9.95779e-07 0.11319)
(-8.8111e-07 1.06864e-06 0.113189)
(7.70535e-07 9.53991e-07 0.113183)
(-8.56117e-07 -7.13425e-07 0.113188)
(8.23593e-07 -8.28799e-07 0.113188)
(-8.40339e-07 1.05055e-06 0.113186)
(7.77959e-07 9.50958e-07 0.113181)
(1.98781e-05 -1.78143e-07 0.0983089)
(-1.58888e-05 5.92142e-06 0.0924914)
(-3.50134e-07 -2.71518e-08 0.110457)
(-5.09158e-07 7.47726e-07 0.107851)
(-1.90733e-05 1.80757e-07 0.0982417)
(1.52947e-05 -6.26384e-06 0.0925569)
(-4.14736e-07 3.94442e-08 0.110456)
(6.04113e-06 -2.86153e-06 0.0708943)
(-5.57667e-06 3.5192e-06 0.0709584)
(-3.3407e-07 1.97569e-05 0.098307)
(-1.09417e-07 -3.00679e-07 0.110456)
(5.84139e-06 -1.61055e-05 0.0924869)
(8.21852e-07 -4.61932e-07 0.107847)
(1.20528e-07 -1.92779e-05 0.0982392)
(-1.17953e-07 -3.20657e-07 0.110455)
(-6.46544e-06 1.51534e-05 0.0925506)
(-7.70882e-06 -5.5691e-06 0.086927)
(-5.78638e-06 -7.60844e-06 0.0869256)
(3.79013e-05 3.81815e-05 0.104465)
(7.10928e-06 5.845e-06 0.086982)
(5.67176e-06 7.16598e-06 0.0869802)
(-1.04081e-07 -1.25376e-05 0.0908797)
(4.48388e-07 1.0912e-05 0.0815534)
(1.14947e-07 1.18112e-05 0.09083)
(-1.69797e-06 -1.02461e-05 0.0816082)
(-2.6066e-06 6.22233e-06 0.0708973)
(3.88936e-06 -5.46713e-06 0.0709575)
(-1.2599e-05 4.10327e-07 0.0908792)
(1.05826e-05 1.09887e-06 0.0815536)
(1.18545e-05 5.09138e-07 0.0908302)
(-1.06282e-05 -8.83677e-07 0.0816101)
(8.756e-07 -8.09687e-07 0.113189)
(-8.67233e-07 1.08495e-06 0.113189)
(8.21922e-07 9.79749e-07 0.113183)
(-8.33321e-07 -5.38516e-07 0.113187)
(8.60562e-07 -6.19679e-07 0.113186)
(-7.93323e-07 1.05778e-06 0.113186)
(7.91117e-07 9.40058e-07 0.11318)
(1.98922e-05 1.95308e-08 0.0983095)
(-1.58533e-05 6.23506e-06 0.0924933)
(-3.7054e-07 1.61374e-07 0.110456)
(-4.06628e-07 9.44982e-07 0.10785)
(-1.91384e-05 3.40427e-07 0.0982422)
(1.54018e-05 -6.02761e-06 0.0925586)
(-4.9244e-07 2.04341e-07 0.110455)
(6.04044e-06 -2.78258e-06 0.0708953)
(-5.59516e-06 3.50826e-06 0.0709597)
(-3.4887e-07 1.98366e-05 0.0983078)
(-1.48784e-07 -3.36017e-07 0.110457)
(5.8888e-06 -1.59969e-05 0.0924875)
(7.5128e-07 -4.46615e-07 0.107847)
(1.13195e-07 -1.91552e-05 0.0982403)
(-1.43125e-07 -4.45493e-07 0.110455)
(-6.43535e-06 1.52849e-05 0.0925515)
(-7.7499e-06 -5.56142e-06 0.0869277)
(-5.76568e-06 -7.58302e-06 0.0869264)
(3.79977e-05 3.82129e-05 0.104465)
(7.03037e-06 5.80786e-06 0.0869827)
(5.68719e-06 7.21401e-06 0.0869808)
(-3.50862e-08 -1.2397e-05 0.090879)
(3.5115e-07 1.09625e-05 0.0815527)
(2.25302e-08 1.18996e-05 0.0908294)
(-1.72746e-06 -1.01636e-05 0.0816076)
(-2.50528e-06 6.26146e-06 0.0708981)
(3.88605e-06 -5.48189e-06 0.0709583)
(-1.26108e-05 2.56403e-07 0.0908802)
(1.05613e-05 1.12536e-06 0.081554)
(1.18291e-05 5.38539e-07 0.0908311)
(-1.06519e-05 -9.42474e-07 0.0816108)
(9.45146e-07 -6.33881e-07 0.113189)
(-8.32534e-07 1.13472e-06 0.113189)
(8.23494e-07 1.01041e-06 0.113183)
(-7.52849e-07 -4.00767e-07 0.113185)
(8.93077e-07 -5.22746e-07 0.113185)
(-7.50909e-07 1.1134e-06 0.113186)
(7.66378e-07 1.02592e-06 0.11318)
(1.994e-05 8.59969e-08 0.0983105)
(-1.58415e-05 6.29751e-06 0.0924947)
(-3.96831e-07 2.58429e-07 0.110456)
(-3.64815e-07 1.1404e-06 0.10785)
(-1.90964e-05 4.39477e-07 0.098243)
(1.53577e-05 -6.09355e-06 0.0925597)
(-4.59654e-07 2.86448e-07 0.110454)
(6.01524e-06 -2.83462e-06 0.0708966)
(-5.59635e-06 3.5076e-06 0.070961)
(-3.67984e-07 1.98691e-05 0.0983081)
(-8.77189e-08 -4.53343e-07 0.110457)
(6.02672e-06 -1.59788e-05 0.0924886)
(7.82853e-07 -4.73852e-07 0.107848)
(5.61503e-08 -1.91636e-05 0.0982406)
(-5.52373e-08 -5.38814e-07 0.110455)
(-6.31596e-06 1.53151e-05 0.0925525)
(-7.69941e-06 -5.6054e-06 0.0869284)
(-5.695e-06 -7.57751e-06 0.0869268)
(3.81189e-05 3.83044e-05 0.104466)
(7.12857e-06 5.76681e-06 0.0869835)
(5.77398e-06 7.21028e-06 0.0869814)
(2.75395e-08 -1.23033e-05 0.0908772)
(4.32273e-07 1.09665e-05 0.0815519)
(1.54476e-07 1.20436e-05 0.0908281)
(-1.63242e-06 -1.02109e-05 0.0816068)
(-2.60802e-06 6.2241e-06 0.0708987)
(3.70265e-06 -5.55036e-06 0.070959)
(-1.26088e-05 1.21616e-07 0.0908816)
(1.06264e-05 1.01499e-06 0.0815548)
(1.18218e-05 3.12836e-07 0.090832)
(-1.05271e-05 -1.14303e-06 0.0816116)
(9.48526e-07 -5.57711e-07 0.113188)
(-7.82346e-07 1.16146e-06 0.113189)
(8.34897e-07 1.10503e-06 0.113183)
(-7.12644e-07 -3.25397e-07 0.113183)
(8.76697e-07 -3.88251e-07 0.113183)
(-6.91722e-07 1.10439e-06 0.113185)
(8.04912e-07 1.07161e-06 0.113179)
(1.98477e-05 1.17922e-07 0.0983115)
(-1.5871e-05 6.17088e-06 0.0924953)
(-3.95239e-07 3.75644e-07 0.110456)
(-4.66099e-07 1.23807e-06 0.107849)
(-1.91194e-05 5.13421e-07 0.098244)
(1.52853e-05 -6.18049e-06 0.0925601)
(-5.09968e-07 4.06491e-07 0.110453)
(5.99882e-06 -2.90769e-06 0.0708974)
(-5.62944e-06 3.40957e-06 0.0709616)
(-2.21391e-07 1.97948e-05 0.0983091)
(1.64972e-08 -4.19023e-07 0.110457)
(6.12e-06 -1.60753e-05 0.0924895)
(8.57808e-07 -4.74853e-07 0.107848)
(1.50326e-07 -1.91401e-05 0.0982416)
(3.49067e-08 -4.86562e-07 0.110455)
(-6.25998e-06 1.51742e-05 0.0925534)
(-7.68897e-06 -5.62478e-06 0.0869293)
(-5.67676e-06 -7.60787e-06 0.0869275)
(3.80545e-05 3.82688e-05 0.104467)
(7.12852e-06 5.79167e-06 0.0869845)
(5.78804e-06 7.18718e-06 0.086982)
(7.30708e-08 -1.2452e-05 0.090876)
(6.25668e-07 1.08698e-05 0.0815511)
(2.59601e-07 1.19586e-05 0.0908263)
(-1.36258e-06 -1.03553e-05 0.0816061)
(-2.76928e-06 6.14705e-06 0.070899)
(3.58497e-06 -5.61134e-06 0.0709593)
(-1.26059e-05 1.08396e-07 0.090883)
(1.08264e-05 6.77226e-07 0.0815553)
(1.18241e-05 3.38721e-07 0.0908339)
(-1.03365e-05 -1.49352e-06 0.081612)
(9.56567e-07 -4.44717e-07 0.113187)
(-7.63837e-07 1.17459e-06 0.113189)
(8.73051e-07 1.13047e-06 0.113184)
(-6.7197e-07 -3.3413e-07 0.113181)
(8.54714e-07 -3.1491e-07 0.113182)
(-6.36002e-07 1.07058e-06 0.113185)
(8.48058e-07 1.02598e-06 0.11318)
(1.97395e-05 1.25732e-07 0.098312)
(-1.59443e-05 6.05102e-06 0.0924954)
(-4.55704e-07 3.89853e-07 0.110455)
(-5.79048e-07 1.24778e-06 0.107849)
(-1.93167e-05 5.28816e-07 0.0982446)
(1.52257e-05 -6.31873e-06 0.0925602)
(-5.71509e-07 3.96179e-07 0.110453)
(5.92184e-06 -2.97529e-06 0.0708982)
(-5.69288e-06 3.24566e-06 0.0709626)
(-1.26471e-07 1.97867e-05 0.0983101)
(8.75846e-08 -3.749e-07 0.110458)
(6.11728e-06 -1.603e-05 0.0924903)
(9.47549e-07 -4.85413e-07 0.107848)
(2.92589e-07 -1.91674e-05 0.0982426)
(1.02985e-07 -5.1344e-07 0.110455)
(-6.22095e-06 1.52794e-05 0.0925542)
(-7.67043e-06 -5.66003e-06 0.0869303)
(-5.60999e-06 -7.70094e-06 0.0869278)
(3.81668e-05 3.83091e-05 0.104468)
(7.22711e-06 5.71261e-06 0.0869856)
(5.84707e-06 7.10304e-06 0.0869824)
(1.05912e-07 -1.25625e-05 0.0908755)
(8.13701e-07 1.07361e-05 0.0815504)
(2.08088e-07 1.1773e-05 0.0908259)
(-1.29891e-06 -1.04328e-05 0.0816056)
(-2.88121e-06 6.11205e-06 0.0708995)
(3.49404e-06 -5.65289e-06 0.0709598)
(-1.25013e-05 -1.7645e-07 0.0908825)
(1.0896e-05 4.0811e-07 0.0815559)
(1.18666e-05 8.73293e-08 0.0908339)
(-1.02701e-05 -1.67063e-06 0.0816127)
(9.49368e-07 -4.04157e-07 0.113186)
(-6.84921e-07 1.14084e-06 0.11319)
(9.32622e-07 1.08831e-06 0.113185)
(-5.37202e-07 -3.22434e-07 0.11318)
(8.58033e-07 -3.08936e-07 0.11318)
(-5.01405e-07 1.02553e-06 0.113184)
(8.44909e-07 1.0276e-06 0.11318)
(1.9776e-05 -1.18013e-07 0.0983121)
(-1.5973e-05 6.07331e-06 0.0924955)
(-4.11027e-07 3.74756e-07 0.110456)
(-5.57927e-07 1.23313e-06 0.107849)
(-1.92449e-05 3.29099e-07 0.0982449)
(1.52407e-05 -6.21832e-06 0.0925604)
(-5.92497e-07 3.78262e-07 0.110453)
(5.9326e-06 -3.0401e-06 0.0708986)
(-5.68953e-06 3.27338e-06 0.070963)
(6.24846e-08 1.97589e-05 0.0983104)
(1.53675e-07 -4.48921e-07 0.110458)
(6.1694e-06 -1.59466e-05 0.0924909)
(1.06524e-06 -5.65775e-07 0.107849)
(4.07384e-07 -1.91681e-05 0.0982431)
(1.87775e-07 -6.17125e-07 0.110455)
(-6.14523e-06 1.53375e-05 0.0925546)
(-7.61503e-06 -5.76385e-06 0.0869311)
(-5.52681e-06 -7.71065e-06 0.0869285)
(3.81229e-05 3.81471e-05 0.104469)
(7.26498e-06 5.59969e-06 0.0869863)
(5.91706e-06 7.07542e-06 0.0869833)
(7.6232e-08 -1.25638e-05 0.0908746)
(7.93461e-07 1.07364e-05 0.0815502)
(2.5266e-07 1.18056e-05 0.0908249)
(-1.30565e-06 -1.04374e-05 0.081606)
(-2.90157e-06 6.03619e-06 0.0708998)
(3.47434e-06 -5.69953e-06 0.0709608)
(-1.25342e-05 -3.66741e-07 0.0908823)
(1.09773e-05 3.84105e-07 0.0815563)
(1.19676e-05 -1.60245e-07 0.0908334)
(-1.0243e-05 -1.60479e-06 0.081613)
(9.68246e-07 -4.27828e-07 0.113186)
(-5.65513e-07 1.11901e-06 0.11319)
(9.56146e-07 1.13082e-06 0.113186)
(-4.42599e-07 -4.58819e-07 0.113178)
(8.20172e-07 -3.71503e-07 0.113179)
(-3.59782e-07 9.81255e-07 0.113183)
(8.57883e-07 1.02348e-06 0.11318)
(1.98218e-05 -1.87581e-07 0.098311)
(-1.59101e-05 6.08576e-06 0.092496)
(-5.16975e-07 3.53778e-07 0.110456)
(-5.84609e-07 1.24098e-06 0.107848)
(-1.92708e-05 2.53217e-07 0.0982443)
(1.52615e-05 -6.17398e-06 0.092561)
(-6.64212e-07 3.58407e-07 0.110452)
(5.94505e-06 -3.06898e-06 0.0708986)
(-5.69345e-06 3.22205e-06 0.0709631)
(1.76602e-07 1.98683e-05 0.0983098)
(3.18481e-07 -4.77231e-07 0.110459)
(6.34993e-06 -1.59013e-05 0.0924909)
(1.22703e-06 -5.60023e-07 0.107849)
(5.99342e-07 -1.92074e-05 0.0982429)
(3.68746e-07 -6.16979e-07 0.110455)
(-5.95156e-06 1.54284e-05 0.0925546)
(-7.51839e-06 -5.85325e-06 0.0869317)
(-5.51273e-06 -7.75707e-06 0.0869293)