0 	0 	0 	0
0.010101 	-5.48699e-08 	-1.65959e-07 	0.0193366
0.020202 	-1.10457e-07 	-3.32059e-07 	0.0386733
0.030303 	-1.66045e-07 	-4.98159e-07 	0.0580099
0.040404 	-2.21633e-07 	-6.64258e-07 	0.0773465
0.0505051 	-2.82745e-07 	-4.93069e-07 	0.0856934
0.0606061 	-3.46983e-07 	-1.31001e-07 	0.087821
0.0707071 	-4.11222e-07 	2.31067e-07 	0.0899485
0.0808081 	-4.7546e-07 	5.93135e-07 	0.092076
0.0909091 	-5.39699e-07 	9.55203e-07 	0.0942035
0.10101 	-5.36713e-07 	1.73708e-06 	0.0957438
0.111111 	-5.08285e-07 	2.67092e-06 	0.0970715
0.121212 	-4.79857e-07 	3.60476e-06 	0.0983992
0.131313 	-4.51429e-07 	4.53859e-06 	0.099727
0.141414 	-4.23002e-07 	5.47243e-06 	0.101055
0.151515 	-4.3201e-07 	6.9917e-06 	0.102117
0.161616 	-4.48362e-07 	8.62583e-06 	0.103127
0.171717 	-4.64714e-07 	1.026e-05 	0.104136
0.181818 	-4.81067e-07 	1.18941e-05 	0.105146
0.191919 	-4.97419e-07 	1.35282e-05 	0.106156
0.20202 	-5.11441e-07 	1.51033e-05 	0.106859
0.212121 	-5.24666e-07 	1.66714e-05 	0.107523
0.222222 	-5.3789e-07 	1.82396e-05 	0.108187
0.232323 	-5.51115e-07 	1.98078e-05 	0.108851
0.242424 	-5.64339e-07 	2.13759e-05 	0.109515
0.252525 	-5.77563e-07 	2.29441e-05 	0.110179
0.262626 	-5.90788e-07 	2.45123e-05 	0.110843
0.272727 	-6.04012e-07 	2.60804e-05 	0.111507
0.282828 	-6.17236e-07 	2.76486e-05 	0.112171
0.292929 	-6.30461e-07 	2.92168e-05 	0.112835
0.30303 	-6.19424e-07 	2.89323e-05 	0.113171
0.313131 	-6.01975e-07 	2.83084e-05 	0.113446
0.323232 	-5.84526e-07 	2.76845e-05 	0.113721
0.333333 	-5.67076e-07 	2.70607e-05 	0.113997
0.343434 	-5.49627e-07 	2.64368e-05 	0.114272
0.353535 	-5.32178e-07 	2.5813e-05 	0.114547
0.363636 	-5.14728e-07 	2.51891e-05 	0.114822
0.373737 	-4.97279e-07 	2.45653e-05 	0.115098
0.383838 	-4.79829e-07 	2.39414e-05 	0.115373
0.393939 	-4.6238e-07 	2.33176e-05 	0.115648
0.40404 	-4.52736e-07 	2.154e-05 	0.115777
0.414141 	-4.46342e-07 	1.92821e-05 	0.115844
0.424242 	-4.39948e-07 	1.70241e-05 	0.115911
0.434343 	-4.33554e-07 	1.47662e-05 	0.115979
0.444444 	-4.2716e-07 	1.25082e-05 	0.116046
0.454545 	-4.20766e-07 	1.02503e-05 	0.116113
0.464646 	-4.14372e-07 	7.9923e-06 	0.11618
0.474747 	-4.07978e-07 	5.73434e-06 	0.116248
0.484848 	-4.01583e-07 	3.47638e-06 	0.116315
0.494949 	-3.95189e-07 	1.21842e-06 	0.116382
0.505051 	-3.93941e-07 	-1.0384e-06 	0.116383
0.515152 	-3.97919e-07 	-3.29485e-06 	0.116315
0.525253 	-4.01897e-07 	-5.55131e-06 	0.116248
0.535354 	-4.05876e-07 	-7.80777e-06 	0.116181
0.545455 	-4.09854e-07 	-1.00642e-05 	0.116113
0.555556 	-4.13832e-07 	-1.23207e-05 	0.116046
0.565657 	-4.1781e-07 	-1.45771e-05 	0.115979
0.575758 	-4.21789e-07 	-1.68336e-05 	0.115911
0.585859 	-4.25767e-07 	-1.90901e-05 	0.115844
0.59596 	-4.29745e-07 	-2.13465e-05 	0.115776
0.606061 	-4.29862e-07 	-2.3124e-05 	0.115648
0.616162 	-4.20646e-07 	-2.37441e-05 	0.115373
0.626263 	-4.11431e-07 	-2.43641e-05 	0.115098
0.636364 	-4.02215e-07 	-2.49842e-05 	0.114822
0.646465 	-3.93e-07 	-2.56043e-05 	0.114547
0.656566 	-3.83784e-07 	-2.62243e-05 	0.114272
0.666667 	-3.74569e-07 	-2.68444e-05 	0.113996
0.676768 	-3.65353e-07 	-2.74645e-05 	0.113721
0.686869 	-3.56138e-07 	-2.80846e-05 	0.113446
0.69697 	-3.46922e-07 	-2.87046e-05 	0.11317
0.707071 	-3.33076e-07 	-2.89866e-05 	0.112835
0.717172 	-3.08077e-07 	-2.74099e-05 	0.112171
0.727273 	-2.83078e-07 	-2.58333e-05 	0.111507
0.737374 	-2.58078e-07 	-2.42566e-05 	0.110843
0.747475 	-2.33079e-07 	-2.26799e-05 	0.110179
0.757576 	-2.08079e-07 	-2.11033e-05 	0.109515
0.767677 	-1.8308e-07 	-1.95266e-05 	0.10885
0.777778 	-1.5808e-07 	-1.79499e-05 	0.108186
0.787879 	-1.33081e-07 	-1.63733e-05 	0.107522
0.79798 	-1.08082e-07 	-1.47966e-05 	0.106858
0.808081 	-8.01804e-08 	-1.32146e-05 	0.106155
0.818182 	-3.34898e-08 	-1.15852e-05 	0.105145
0.828283 	1.32009e-08 	-9.95583e-06 	0.104135
0.838384 	5.98915e-08 	-8.32643e-06 	0.103125
0.848485 	1.06582e-07 	-6.69702e-06 	0.102115
0.858586 	1.54936e-07 	-5.18638e-06 	0.101053
0.868687 	2.11747e-07 	-4.27972e-06 	0.0997257
0.878788 	2.68559e-07 	-3.37306e-06 	0.098398
0.888889 	3.2537e-07 	-2.4664e-06 	0.0970703
0.89899 	3.82181e-07 	-1.55974e-06 	0.0957427
0.909091 	4.14932e-07 	-8.0547e-07 	0.0942022
0.919192 	3.78855e-07 	-4.71748e-07 	0.0920749
0.929293 	3.42777e-07 	-1.38026e-07 	0.0899476
0.939394 	3.067e-07 	1.95696e-07 	0.0878202
0.949495 	2.70622e-07 	5.29418e-07 	0.0856929
0.959596 	2.27088e-07 	6.80751e-07 	0.0773376
0.969697 	1.70405e-07 	5.10487e-07 	0.0580008
0.979798 	1.13723e-07 	3.40223e-07 	0.038664
0.989899 	5.70406e-08 	1.69959e-07 	0.0193272
0.999994 	0 	0 	0
