/*--------------------------------*- C++ -*----------------------------------*\
| =========                 |                                                 |
| \\      /  F ield         | OpenFOAM: The Open Source CFD Toolbox           |
|  \\    /   O peration     | Version:  v1906                                 |
|   \\  /    A nd           | Web:      www.OpenFOAM.com                      |
|    \\/     M anipulation  |                                                 |
\*---------------------------------------------------------------------------*/
FoamFile
{
    version     2.0;
    format      ascii;
    class       volScalarField;
    location    "350";
    object      epsilon;
}
// * * * * * * * * * * * * * * * * * * * * * * * * * * * * * * * * * * * * * //

dimensions      [0 2 -3 0 0 0 0];


internalField   nonuniform List<scalar> 
42840
(
6.57659e-07
1.19267e-06
1.19283e-06
1.42582e-06
1.43065e-06
1.42574e-06
1.42802e-06
1.19279e-06
1.19285e-06
1.19646e-06
1.19652e-06
1.42569e-06
1.428e-06
1.19271e-06
1.19283e-06
1.19639e-06
1.1965e-06
1.19283e-06
1.19637e-06
1.19653e-06
1.42578e-06
1.42807e-06
1.19281e-06
1.19651e-06
1.1965e-06
1.4281e-06
1.1977e-06
1.19766e-06
4.24958e-06
9.5657e-06
9.57105e-06
4.2483e-06
1.90797e-05
1.90898e-05
4.24973e-06
9.56802e-06
9.57319e-06
4.24863e-06
6.57621e-07
6.57744e-07
6.57679e-07
6.6315e-07
6.63108e-07
6.63224e-07
6.6318e-07
2.30828e-06
3.65722e-06
9.38458e-07
1.19386e-06
3.65825e-06
9.39913e-07
2.30744e-06
1.90807e-05
1.90909e-05
2.30832e-06
9.38645e-07
3.6572e-06
1.19402e-06
9.40099e-07
3.65827e-06
2.30731e-06
5.65762e-06
5.65959e-06
1.42571e-06
5.6591e-06
5.66108e-06
5.66338e-06
5.6653e-06
1.90782e-05
1.90884e-05
1.90808e-05
1.9091e-05
5.65723e-06
5.65933e-06
1.42563e-06
5.65878e-06
5.66087e-06
1.90989e-05
1.9089e-05
1.91014e-05
1.90916e-05
1.42821e-06
5.66174e-06
5.66382e-06
5.66019e-06
5.66229e-06
4.24969e-06
9.56671e-06
9.57218e-06
4.24865e-06
2.30812e-06
3.65691e-06
9.38467e-07
1.19398e-06
3.65801e-06
9.39917e-07
2.3071e-06
2.30822e-06
3.65763e-06
9.38514e-07
1.19404e-06
3.65869e-06
9.39964e-07
2.3074e-06
4.25063e-06
9.57714e-06
9.57182e-06
4.2519e-06
4.25093e-06
9.5782e-06
9.57291e-06
4.25193e-06
2.30899e-06
1.19523e-06
3.66025e-06
9.42863e-07
3.6592e-06
9.41394e-07
2.30998e-06
2.30926e-06
1.19529e-06
3.66091e-06
9.42912e-07
3.6599e-06
9.41448e-07
2.31016e-06
5.65923e-06
5.65741e-06
1.42559e-06
5.66077e-06
5.65881e-06
1.90777e-05
1.90879e-05
1.91003e-05
1.90904e-05
1.42817e-06
5.66368e-06
5.66173e-06
5.66218e-06
5.66039e-06
1.90982e-05
1.90883e-05
2.30833e-06
3.65788e-06
9.3848e-07
1.1939e-06
3.65893e-06
9.39957e-07
2.30729e-06
4.24975e-06
9.5673e-06
9.5725e-06
4.24861e-06
2.30827e-06
9.38489e-07
3.65769e-06
1.19402e-06
9.39943e-07
3.65872e-06
2.3074e-06
4.2509e-06
9.57937e-06
9.57431e-06
4.25209e-06
2.30921e-06
1.19515e-06
3.66117e-06
9.42919e-07
3.66018e-06
9.41422e-07
2.31024e-06
4.25085e-06
9.57846e-06
9.57355e-06
4.252e-06
2.3093e-06
1.19527e-06
9.42903e-07
3.66096e-06
9.41434e-07
3.65998e-06
2.31025e-06
4.24989e-06
9.56698e-06
9.57245e-06
4.24865e-06
2.30828e-06
9.38485e-07
3.65729e-06
1.19402e-06
9.3994e-07
3.65838e-06
2.30727e-06
4.24985e-06
9.56697e-06
9.57223e-06
4.2487e-06
2.30931e-06
1.19513e-06
3.66048e-06
9.42888e-07
3.6595e-06
9.41411e-07
2.31024e-06
4.25092e-06
9.57844e-06
9.57318e-06
4.25214e-06
2.30915e-06
1.19529e-06
9.42915e-07
3.6606e-06
9.41445e-07
3.65958e-06
2.31015e-06
4.251e-06
9.57812e-06
9.57295e-06
4.25203e-06
5.65915e-06
5.65742e-06
1.42567e-06
5.66057e-06
5.65893e-06
1.90792e-05
1.90893e-05
1.91013e-05
1.90914e-05
1.42824e-06
5.66355e-06
5.66187e-06
5.66217e-06
5.66036e-06
1.90998e-05
1.90899e-05
2.30848e-06
9.38644e-07
3.65798e-06
1.194e-06
9.40097e-07
3.65905e-06
2.30764e-06
4.24965e-06
9.56685e-06
9.5723e-06
4.24868e-06
4.2499e-06
9.56762e-06
9.57303e-06
4.24879e-06
2.30919e-06
1.19528e-06
9.43067e-07
3.66049e-06
9.41594e-07
3.65947e-06
2.31017e-06
2.30949e-06
1.19526e-06
9.43066e-07
3.66125e-06
9.41598e-07
3.66025e-06
2.3104e-06
4.25091e-06
9.57839e-06
9.57306e-06
4.25195e-06
4.25101e-06
9.57893e-06
9.57375e-06
4.25219e-06
1.90791e-05
1.9089e-05
1.90807e-05
1.90907e-05
1.4283e-06
5.66199e-06
5.66396e-06
5.66053e-06
5.66247e-06
1.90992e-05
1.90895e-05
1.91009e-05
1.90912e-05
9.44318e-07
3.66175e-06
2.31098e-06
9.5788e-06
4.25323e-06
3.6624e-06
9.57962e-06
1.90997e-05
1.91014e-05
1.26522e-05
1.1244e-05
4.89424e-06
4.24945e-06
1.1241e-05
4.89415e-06
1.26559e-05
2.27567e-05
9.56784e-06
7.24821e-06
7.24792e-06
2.27497e-05
2.27559e-05
7.24953e-06
9.56867e-06
7.24982e-06
2.27629e-05
1.26522e-05
4.24842e-06
1.12376e-05
4.89294e-06
1.12404e-05
4.89303e-06
1.26484e-05
1.90845e-05
1.90851e-05
1.26534e-05
4.89466e-06
1.12445e-05
4.24976e-06
4.89469e-06
1.12423e-05
1.2656e-05
2.27571e-05
9.57009e-06
7.24991e-06
7.24982e-06
2.27503e-05
2.27565e-05
7.25143e-06
9.57123e-06
7.25154e-06
2.27633e-05
1.26524e-05
4.24854e-06
4.89355e-06
1.12387e-05
4.89349e-06
1.1241e-05
1.26494e-05
1.90856e-05
1.90861e-05
9.97158e-06
2.23928e-05
2.23921e-05
2.23867e-05
2.2386e-05
9.97138e-06
4.71447e-06
2.98636e-06
5.65763e-06
9.93297e-06
2.98644e-06
9.93498e-06
4.7146e-06
4.7203e-06
2.98791e-06
5.65962e-06
9.93768e-06
2.98749e-06
9.93971e-06
4.72042e-06
4.71587e-06
9.93812e-06
5.65907e-06
2.98738e-06
2.9873e-06
9.93612e-06
4.71574e-06
4.72169e-06
9.94286e-06
5.66103e-06
2.98852e-06
2.98881e-06
9.94086e-06
4.72156e-06
9.96924e-06
2.23812e-05
2.23805e-05
2.23873e-05
2.23866e-05
9.96943e-06
4.71929e-06
2.99006e-06
9.94526e-06
5.66335e-06
4.71943e-06
2.99003e-06
9.94717e-06
4.7251e-06
2.99149e-06
9.94967e-06
5.66533e-06
4.72523e-06
2.99122e-06
9.95209e-06
9.97764e-06
2.24027e-05
2.2402e-05
9.9779e-06
2.24087e-05
2.2408e-05
1.9083e-05
1.90836e-05
1.90856e-05
1.90862e-05
9.97112e-06
2.23939e-05
2.23931e-05
2.23877e-05
2.23869e-05
9.97095e-06
4.71421e-06
2.98615e-06
5.65729e-06
9.9331e-06
9.93517e-06
2.98623e-06
4.71432e-06
4.71999e-06
2.9877e-06
5.65937e-06
9.93811e-06
9.94018e-06
2.98728e-06
4.72009e-06
4.7156e-06
9.9384e-06
5.65871e-06
2.98718e-06
9.93635e-06
4.71548e-06
2.98709e-06
4.72137e-06
9.9434e-06
5.66081e-06
2.98831e-06
9.94136e-06
4.72126e-06
2.98861e-06
9.96878e-06
2.23821e-05
2.23813e-05
2.23882e-05
2.23875e-05
9.96895e-06
1.90943e-05
1.90937e-05
1.90968e-05
1.90962e-05
9.9731e-06
2.23933e-05
2.23925e-05
9.97329e-06
2.23994e-05
2.23986e-05
4.71799e-06
2.98908e-06
5.66167e-06
9.94489e-06
9.94223e-06
2.989e-06
4.71788e-06
4.72374e-06
2.9902e-06
5.66377e-06
9.94988e-06
9.94723e-06
2.99027e-06
4.72364e-06
4.71669e-06
9.93926e-06
2.98804e-06
5.66027e-06
4.71681e-06
9.94169e-06
2.9881e-06
4.72246e-06
9.94428e-06
2.98947e-06
5.66235e-06
4.72257e-06
9.94669e-06
2.98934e-06
9.97546e-06
2.24049e-05
2.2404e-05
2.23988e-05
2.2398e-05
9.97525e-06
1.26524e-05
1.12438e-05
4.89477e-06
4.24981e-06
1.12416e-05
4.89463e-06
1.2656e-05
2.27572e-05
9.56906e-06
7.24987e-06
7.24977e-06
2.27503e-05
2.27565e-05
7.25136e-06
9.56982e-06
7.25148e-06
2.27633e-05
1.26523e-05
4.24855e-06
1.12381e-05
4.89345e-06
1.12404e-05
4.8936e-06
1.26486e-05
1.26596e-05
1.12445e-05
4.89538e-06
4.25074e-06
1.26559e-05
1.12474e-05
4.89546e-06
2.27682e-05
9.57487e-06
7.25272e-06
2.27751e-05
7.25302e-06
2.27691e-05
7.25144e-06
9.57415e-06
2.27621e-05
7.25115e-06
1.26598e-05
4.25179e-06
1.12508e-05
4.89668e-06
1.26633e-05
1.12479e-05
4.8966e-06
1.26597e-05
1.12451e-05
4.89583e-06
4.2508e-06
1.26561e-05
1.12472e-05
4.89592e-06
2.27685e-05
9.57593e-06
7.25451e-06
7.25463e-06
2.27752e-05
2.27693e-05
7.25307e-06
9.57524e-06
2.27625e-05
7.25296e-06
1.26598e-05
4.25211e-06
1.12505e-05
4.89706e-06
1.12484e-05
4.89708e-06
1.26632e-05
9.97097e-06
2.23924e-05
2.2393e-05
2.23862e-05
2.23869e-05
9.97077e-06
4.71993e-06
2.98727e-06
5.65929e-06
9.93729e-06
9.93998e-06
2.98725e-06
4.72007e-06
4.71407e-06
2.98628e-06
5.65732e-06
9.93306e-06
2.98598e-06
9.93512e-06
4.7142e-06
4.72133e-06
9.94316e-06
5.66069e-06
2.98817e-06
9.94048e-06
2.98821e-06
4.72119e-06
4.71547e-06
9.93841e-06
5.6589e-06
2.98701e-06
2.98709e-06
9.93618e-06
4.71534e-06
9.9686e-06
2.23806e-05
2.23813e-05
2.23868e-05
2.23874e-05
9.96881e-06
1.90825e-05
1.9083e-05
1.90956e-05
1.90951e-05
9.9729e-06
2.23917e-05
2.23924e-05
9.97313e-06
2.23978e-05
2.23985e-05
4.7237e-06
2.99005e-06
5.66363e-06
9.94934e-06
2.9901e-06
9.94675e-06
4.72356e-06
4.71786e-06
2.98886e-06
5.66182e-06
9.94474e-06
9.94214e-06
2.9889e-06
4.71774e-06
4.72239e-06
9.94362e-06
2.98918e-06
5.66224e-06
2.98913e-06
4.72254e-06
9.94628e-06
4.71655e-06
9.93896e-06
2.98797e-06
5.66029e-06
4.71668e-06
9.94166e-06
2.98793e-06
9.97527e-06
2.24032e-05
2.24039e-05
2.23971e-05
2.23978e-05
9.97503e-06
1.90935e-05
1.90931e-05
1.26534e-05
1.12443e-05
4.89462e-06
4.24974e-06
1.12421e-05
4.89476e-06
1.26562e-05
2.27576e-05
9.56939e-06
7.24869e-06
7.24841e-06
2.27505e-05
2.27567e-05
7.25003e-06
9.57027e-06
7.25032e-06
2.27637e-05
1.26526e-05
4.24856e-06
1.12386e-05
4.89355e-06
1.12408e-05
4.89338e-06
1.26495e-05
1.26597e-05
4.8959e-06
1.12457e-05
4.25091e-06
1.26571e-05
4.89594e-06
1.12478e-05
2.27686e-05
9.57716e-06
7.25462e-06
2.27753e-05
7.25474e-06
2.27693e-05
7.25316e-06
9.57629e-06
2.27626e-05
7.25304e-06
1.26606e-05
4.2521e-06
4.89713e-06
1.12512e-05
1.26635e-05
4.89703e-06
1.12491e-05
1.26598e-05
1.12455e-05
4.89585e-06
4.25086e-06
1.26572e-05
1.12476e-05
4.89582e-06
2.27687e-05
9.57658e-06
7.25322e-06
7.25352e-06
2.27756e-05
2.27697e-05
7.25195e-06
9.57549e-06
2.27628e-05
7.25165e-06
1.26608e-05
4.25205e-06
1.1251e-05
4.89699e-06
1.12489e-05
4.89701e-06
1.26635e-05
1.26532e-05
4.89449e-06
1.12449e-05
4.24978e-06
4.8946e-06
1.1242e-05
1.26557e-05
2.27563e-05
9.56939e-06
7.24953e-06
7.24942e-06
2.27495e-05
2.27556e-05
7.25101e-06
9.57012e-06
7.25113e-06
2.27624e-05
1.2652e-05
4.24877e-06
4.8934e-06
1.12385e-05
4.89325e-06
1.12415e-05
1.26495e-05
1.26528e-05
1.12443e-05
4.89453e-06
4.2498e-06
1.12422e-05
4.89456e-06
1.26562e-05
2.2757e-05
9.56912e-06
7.24831e-06
7.2482e-06
2.27503e-05
2.27563e-05
7.24977e-06
9.56987e-06
7.24989e-06
2.2763e-05
1.26526e-05
4.24875e-06
1.12387e-05
4.89341e-06
1.12409e-05
4.89338e-06
1.26493e-05
1.26594e-05
4.89577e-06
1.12453e-05
4.25101e-06
1.2657e-05
4.89569e-06
1.12482e-05
2.27676e-05
9.57617e-06
7.25414e-06
7.25427e-06
2.27743e-05
2.27684e-05
7.25272e-06
9.57547e-06
2.27616e-05
7.2526e-06
1.26606e-05
4.25204e-06
4.89693e-06
1.12514e-05
4.89699e-06
1.12486e-05
1.26629e-05
1.26598e-05
1.12455e-05
4.89575e-06
4.25093e-06
1.26568e-05
1.12476e-05
4.8957e-06
2.2768e-05
9.5759e-06
7.25286e-06
7.253e-06
2.27747e-05
2.27689e-05
7.25146e-06
9.57522e-06
2.27622e-05
7.25134e-06
1.26606e-05
4.25218e-06
1.12509e-05
4.89688e-06
1.12488e-05
4.897e-06
1.26632e-05
9.97157e-06
2.23932e-05
2.23935e-05
2.23871e-05
2.23874e-05
9.97139e-06
4.72011e-06
2.98726e-06
5.65907e-06
9.93758e-06
9.93964e-06
2.98719e-06
4.72025e-06
4.71437e-06
2.98659e-06
5.65745e-06
9.93297e-06
2.98617e-06
9.93503e-06
4.71452e-06
4.72152e-06
9.94284e-06
5.66066e-06
2.98815e-06
9.94081e-06
2.98821e-06
4.72137e-06
4.71579e-06
9.93823e-06
5.65889e-06
2.9872e-06
2.9875e-06
9.9362e-06
4.71563e-06
9.96923e-06
2.23815e-05
2.23817e-05
2.23876e-05
2.23879e-05
9.9694e-06
1.9084e-05
1.90846e-05
1.90967e-05
1.90962e-05
9.97353e-06
2.23926e-05
2.23929e-05
9.97374e-06
2.23987e-05
2.2399e-05
4.72389e-06
2.99005e-06
5.66364e-06
9.94906e-06
2.99011e-06
9.94709e-06
4.72374e-06
4.71818e-06
2.98911e-06
5.66182e-06
9.94462e-06
9.94221e-06
2.9892e-06
4.71802e-06
4.72256e-06
9.94397e-06
2.98918e-06
5.66208e-06
2.98912e-06
4.72272e-06
9.94595e-06
4.71684e-06
9.93934e-06
2.98836e-06
5.6604e-06
4.717e-06
9.94138e-06
2.98823e-06
9.9759e-06
2.24041e-05
2.24044e-05
2.2398e-05
2.23984e-05
9.97567e-06
1.90952e-05
1.90946e-05
1.26526e-05
4.89438e-06
1.12441e-05
4.24981e-06
4.89429e-06
1.12419e-05
1.26562e-05
2.27567e-05
9.56927e-06
7.24803e-06
7.24795e-06
2.27498e-05
2.2756e-05
7.24953e-06
9.57022e-06
7.24963e-06
2.27628e-05
1.26525e-05
4.24847e-06
4.89309e-06
1.12384e-05
4.89317e-06
1.12406e-05
1.26487e-05
1.26527e-05
4.8948e-06
1.12441e-05
4.24991e-06
4.89487e-06
1.12419e-05
1.26551e-05
2.27562e-05
9.56999e-06
7.25002e-06
7.2497e-06
2.27492e-05
2.27552e-05
7.25127e-06
9.57072e-06
7.2516e-06
2.27622e-05
1.26514e-05
4.24871e-06
4.89371e-06
1.12384e-05
4.8936e-06
1.12406e-05
1.26488e-05
1.26598e-05
4.89549e-06
1.12453e-05
4.25077e-06
1.26566e-05
4.89555e-06
1.12475e-05
2.27681e-05
9.5761e-06
7.25265e-06
7.25276e-06
2.27748e-05
2.27689e-05
7.25121e-06
9.57541e-06
2.27621e-05
7.25111e-06
1.26605e-05
4.25204e-06
4.89674e-06
1.1251e-05
4.89666e-06
1.12483e-05
1.26632e-05
1.26589e-05
4.89606e-06
1.12451e-05
4.25108e-06
1.26563e-05
4.89599e-06
1.12477e-05
2.27671e-05
9.57671e-06
7.25435e-06
7.25469e-06
2.27739e-05
2.27681e-05
7.25317e-06
9.57602e-06
2.27612e-05
7.25284e-06
1.26598e-05
4.25211e-06
4.89711e-06
1.1251e-05
4.89719e-06
1.12482e-05
1.26625e-05
1.90838e-05
1.90843e-05
1.90854e-05
1.9086e-05
9.97349e-06
2.23922e-05
2.23914e-05
9.97372e-06
2.23982e-05
2.23975e-05
4.71824e-06
2.98913e-06
5.66199e-06
9.9442e-06
4.71811e-06
2.98916e-06
9.94228e-06
4.72405e-06
2.9904e-06
5.66392e-06
9.94921e-06
4.72392e-06
2.99051e-06
9.94661e-06
4.71693e-06
9.93923e-06
2.98824e-06
5.66055e-06
4.71707e-06
2.98824e-06
9.94116e-06
4.72275e-06
9.94376e-06
2.98967e-06
5.66253e-06
4.72289e-06
2.98954e-06
9.94607e-06
9.97584e-06
2.24034e-05
2.24028e-05
9.97559e-06
2.23975e-05
2.23968e-05
1.90947e-05
1.90941e-05
1.90964e-05
1.90958e-05
2.27803e-05
7.25451e-06
9.58096e-06
2.27738e-05
7.25438e-06
1.26666e-05
4.25303e-06
1.1252e-05
4.89811e-06
1.26642e-05
1.1254e-05
4.89797e-06
9.58179e-06
1.91041e-05
1.91058e-05
4.45467e-07
4.45409e-07
6.59483e-07
4.475e-07
4.47446e-07
2.36903e-07
2.34948e-07
2.84036e-06
1.97948e-06
1.97977e-06
1.42449e-06
1.97897e-06
1.97921e-06
2.84052e-06
2.84395e-06
1.98322e-06
1.98349e-06
1.42924e-06
2.84415e-06
1.98265e-06
1.98289e-06
2.84017e-06
1.97936e-06
1.97963e-06
1.42441e-06
1.97884e-06
1.97908e-06
2.84034e-06
2.84309e-06
1.42938e-06
1.98162e-06
1.98189e-06
1.98218e-06
1.98246e-06
2.8429e-06
2.84011e-06
1.97954e-06
1.97939e-06
1.42436e-06
1.97885e-06
1.979e-06
2.84029e-06
2.84304e-06
1.42936e-06
1.98181e-06
1.98168e-06
1.98238e-06
1.98224e-06
2.84285e-06
2.84022e-06
1.97955e-06
1.9795e-06
1.42445e-06
1.97896e-06
1.979e-06
2.84038e-06
2.84311e-06
1.42942e-06
1.98181e-06
1.98176e-06
1.98238e-06
1.98231e-06
2.84294e-06
2.84327e-06
1.42949e-06
1.98178e-06
1.98201e-06
2.84309e-06
1.98233e-06
1.9826e-06
4.45448e-07
4.45345e-07
6.59435e-07
4.47495e-07
4.47393e-07
2.36893e-07
2.34905e-07
4.45515e-07
4.45489e-07
6.59556e-07
4.47562e-07
4.47535e-07
2.36973e-07
2.34985e-07
4.45455e-07
4.45459e-07
6.59498e-07
4.47512e-07
4.47512e-07
2.36949e-07
2.34954e-07
6.61329e-07
4.51589e-07
4.51537e-07
4.49578e-07
4.49521e-07
2.38956e-07
2.40875e-07
6.61299e-07
4.51583e-07
4.51489e-07
4.49559e-07
4.49462e-07
2.3891e-07
2.40871e-07
6.61418e-07
4.5165e-07
4.5163e-07
4.49626e-07
4.49604e-07
2.38989e-07
2.4095e-07
6.61364e-07
4.51612e-07
4.51608e-07
4.49575e-07
4.49577e-07
2.38959e-07
2.40928e-07
1.67713e-06
2.55364e-06
1.55424e-06
2.30838e-06
2.5537e-06
1.55501e-06
1.67584e-06
1.85374e-06
2.23504e-06
3.65712e-06
3.0338e-06
2.23471e-06
3.03354e-06
1.85486e-06
1.85592e-06
3.03452e-06
3.65836e-06
2.23562e-06
2.23596e-06
3.03478e-06
1.85481e-06
1.67482e-06
2.30732e-06
2.55283e-06
1.55395e-06
2.5527e-06
1.55316e-06
1.67611e-06
1.67725e-06
1.55439e-06
2.55354e-06
2.30823e-06
1.55514e-06
2.55357e-06
1.67597e-06
1.85381e-06
2.23522e-06
3.65715e-06
3.03344e-06
2.23487e-06
3.03322e-06
1.8549e-06
1.85595e-06
3.03419e-06
3.65833e-06
2.23577e-06
2.23614e-06
3.03441e-06
1.85488e-06
1.67498e-06
2.30737e-06
1.55408e-06
2.55272e-06
1.55331e-06
2.55264e-06
1.67627e-06
2.84149e-06
1.42706e-06
1.97992e-06
1.98015e-06
1.98045e-06
1.98073e-06
2.84132e-06
2.84131e-06
1.42697e-06
1.97978e-06
1.98003e-06
2.84113e-06
1.98032e-06
1.98059e-06
2.84203e-06
1.42686e-06
1.98128e-06
1.98156e-06
2.84221e-06
1.98072e-06
1.98099e-06
1.67696e-06
2.55339e-06
1.55414e-06
2.30803e-06
2.55336e-06
1.55491e-06
1.67573e-06
1.85366e-06
2.23499e-06
3.65687e-06
3.03331e-06
3.03311e-06
2.23467e-06
1.85468e-06
1.85573e-06
3.03408e-06
3.65806e-06
2.23557e-06
3.03427e-06
2.2359e-06
1.8547e-06
1.67472e-06
2.30717e-06
2.55252e-06
1.55385e-06
2.55247e-06
1.55308e-06
1.67597e-06
1.6772e-06
2.55376e-06
1.5542e-06
2.30834e-06
2.5538e-06
1.55499e-06
1.67593e-06
1.85395e-06
2.23547e-06
3.65757e-06
3.03401e-06
3.03378e-06
2.23512e-06
1.85502e-06
1.85608e-06
3.03475e-06
3.65876e-06
2.23602e-06
3.03498e-06
1.85499e-06
2.23639e-06
1.67493e-06
2.30728e-06
2.55294e-06
1.55393e-06
2.55286e-06
1.55314e-06
1.6762e-06
1.6767e-06
2.55431e-06
1.55601e-06
2.30907e-06
1.67795e-06
2.55434e-06
1.55522e-06
1.85771e-06
2.23735e-06
3.6603e-06
3.03601e-06
2.23769e-06
3.03622e-06
1.85668e-06
1.8557e-06
3.03526e-06
2.23683e-06
3.65915e-06
2.23648e-06
1.85673e-06
3.03505e-06
1.67894e-06
2.30993e-06
2.55529e-06
1.55624e-06
2.55524e-06
1.55704e-06
1.67769e-06
1.67691e-06
2.55475e-06
1.55609e-06
2.30914e-06
1.67819e-06
2.55471e-06
1.55528e-06
1.85807e-06
2.23782e-06
3.66099e-06
3.03668e-06
3.03692e-06
2.2382e-06
1.85694e-06
1.85598e-06
3.03596e-06
2.23732e-06
3.65983e-06
1.85708e-06
3.03573e-06
2.23695e-06
1.67918e-06
2.31025e-06
2.55566e-06
1.55631e-06
2.55569e-06
1.55713e-06
1.67789e-06
2.84126e-06
1.42693e-06
1.97994e-06
1.97981e-06
1.98036e-06
1.9805e-06
2.84108e-06
2.84197e-06
1.42682e-06
1.98147e-06
1.98132e-06
1.9809e-06
2.84216e-06
1.98077e-06
1.67725e-06
2.55387e-06
1.55428e-06
2.30823e-06
2.55389e-06
1.55499e-06
1.67605e-06
1.85397e-06
2.23554e-06
3.65778e-06
3.03406e-06
3.03383e-06
2.23521e-06
1.85497e-06
1.85605e-06
3.03483e-06
3.65903e-06
2.2361e-06
3.03506e-06
2.23647e-06
1.85503e-06
1.67502e-06
2.30735e-06
2.55303e-06
1.55391e-06
2.55293e-06
1.5532e-06
1.67622e-06
1.67711e-06
1.55421e-06
2.55369e-06
2.30836e-06
1.55494e-06
2.55372e-06
1.67592e-06
1.85381e-06
2.2354e-06
3.65758e-06
3.03358e-06
3.03336e-06
2.23507e-06
1.85478e-06
1.85586e-06
3.03435e-06
3.65883e-06
2.23598e-06
3.03457e-06
1.85487e-06
2.23632e-06
1.67489e-06
2.30731e-06
1.55386e-06
2.55284e-06
1.55313e-06
2.55278e-06
1.67608e-06
1.67701e-06
2.55484e-06
1.5561e-06
2.30928e-06
1.67825e-06
2.55478e-06
1.55538e-06
1.85808e-06
2.23788e-06
3.66128e-06
3.03679e-06
2.23824e-06
3.03703e-06
1.857e-06
1.85602e-06
3.03606e-06
2.23738e-06
3.66007e-06
2.23701e-06
1.85707e-06
3.03582e-06
1.67925e-06
2.31016e-06
2.55575e-06
1.55642e-06
2.55573e-06
1.55716e-06
1.67799e-06
1.67689e-06
1.55606e-06
2.55467e-06
2.30921e-06
1.67811e-06
1.55533e-06
2.55465e-06
1.85786e-06
2.23776e-06
3.66109e-06
3.03631e-06
3.03654e-06
2.23811e-06
1.85687e-06
1.85587e-06
3.03557e-06
2.23725e-06
3.65986e-06
1.85687e-06
3.03534e-06
2.2369e-06
1.67911e-06
2.31031e-06
1.55637e-06
2.55559e-06
1.55711e-06
2.5556e-06
1.67787e-06
1.67716e-06
1.55425e-06
2.5537e-06
2.30819e-06
1.55501e-06
2.55375e-06
1.67589e-06
1.85381e-06
2.23519e-06
3.65724e-06
3.03358e-06
2.23488e-06
3.03335e-06
1.85483e-06
1.8559e-06
3.03434e-06
3.65844e-06
2.2358e-06
2.23612e-06
3.03457e-06
1.85487e-06
1.67488e-06
2.30733e-06
1.55393e-06
2.55288e-06
1.55317e-06
2.5528e-06
1.67615e-06
1.67684e-06
2.55466e-06
1.55611e-06
2.30921e-06
1.67813e-06
2.55461e-06
1.55533e-06
1.85789e-06
2.23743e-06
3.6606e-06
3.03646e-06
1.8568e-06
2.23777e-06
3.03673e-06
1.85582e-06
3.03577e-06
2.2369e-06
3.65939e-06
1.85691e-06
2.23655e-06
3.0355e-06
1.67912e-06
2.3103e-06
2.55557e-06
1.55636e-06
1.67783e-06
2.55561e-06
1.55716e-06
1.67688e-06
1.55612e-06
2.55469e-06
2.30924e-06
1.67815e-06
1.55534e-06
2.55465e-06
1.8579e-06
2.23758e-06
3.66067e-06
3.03627e-06
3.03651e-06
2.23793e-06
1.85683e-06
1.85586e-06
3.03555e-06
2.23706e-06
3.65951e-06
1.85691e-06
3.03532e-06
2.23672e-06
1.67914e-06
2.31009e-06
1.55637e-06
2.55559e-06
1.55716e-06
2.55562e-06
1.67786e-06
2.84134e-06
1.42701e-06
1.97995e-06
1.9799e-06
1.98045e-06
1.9805e-06
2.84117e-06
2.84207e-06
1.4269e-06
1.98146e-06
1.98141e-06
1.9809e-06
2.84224e-06
1.98086e-06
1.67744e-06
1.55443e-06
2.554e-06
2.30858e-06
1.55521e-06
2.55405e-06
1.67613e-06
1.85406e-06
2.2357e-06
3.65793e-06
3.03421e-06
2.23534e-06
3.03396e-06
1.85519e-06
1.85625e-06
3.03494e-06
3.65912e-06
2.23625e-06
2.23662e-06
3.03518e-06
1.85512e-06
1.67514e-06
2.30753e-06
1.55414e-06
2.55318e-06
1.55333e-06
2.55309e-06
1.67644e-06
1.67695e-06
1.55623e-06
2.55451e-06
2.30926e-06
1.67823e-06
1.55548e-06
2.55447e-06
1.8579e-06
2.23753e-06
3.66055e-06
3.0361e-06
1.85684e-06
2.2379e-06
3.03632e-06
1.85587e-06
3.03538e-06
2.23705e-06
3.65941e-06
1.85693e-06
2.23668e-06
3.03516e-06
1.6792e-06
2.31012e-06
1.55651e-06
2.55544e-06
1.67793e-06
1.55726e-06
2.55545e-06
1.67713e-06
1.55631e-06
2.55499e-06
2.30939e-06
1.67842e-06
1.55553e-06
2.55494e-06
1.85824e-06
2.23804e-06
3.66133e-06
3.03685e-06
3.03711e-06
2.23841e-06
1.85708e-06
1.85613e-06
3.03617e-06
2.23755e-06
3.66018e-06
1.85726e-06
3.03591e-06
2.23718e-06
1.6794e-06
2.31047e-06
1.55656e-06
2.55585e-06
1.55734e-06
2.5559e-06
1.6781e-06
2.84222e-06
1.42693e-06
1.98142e-06
1.98169e-06
2.8424e-06
1.98088e-06
1.9811e-06
1.8577e-06
2.2388e-06
3.03745e-06
3.66167e-06
2.23843e-06
1.85886e-06
3.03718e-06
1.67873e-06
2.31089e-06
1.55817e-06
2.55649e-06
1.55732e-06
1.68008e-06
2.55635e-06
2.23928e-06
3.66231e-06
2.2389e-06
3.23673e-07
8.68818e-07
8.68924e-07
1.15416e-06
3.39709e-07
8.92256e-07
8.92355e-07
1.17356e-06
3.55987e-07
9.14702e-07
9.14801e-07
1.192e-06
3.72428e-07
9.36138e-07
9.36243e-07
1.20957e-06
3.88952e-07
9.56569e-07
9.56666e-07
1.22613e-06
4.05477e-07
9.76e-07
9.7609e-07
1.24189e-06
4.21926e-07
9.9444e-07
9.94523e-07
1.25682e-06
4.38224e-07
1.0119e-06
1.01198e-06
1.27101e-06
4.54299e-07
1.02839e-06
1.02846e-06
1.28445e-06
4.70085e-07
1.04394e-06
1.04401e-06
1.29719e-06
4.85524e-07
1.05857e-06
1.05863e-06
1.30924e-06
5.00567e-07
1.0723e-06
1.07236e-06
1.32052e-06
5.1517e-07
1.08518e-06
1.08523e-06
1.33113e-06
5.29296e-07
1.09722e-06
1.09728e-06
1.34113e-06
5.42917e-07
1.10849e-06
1.10853e-06
1.35056e-06
5.56013e-07
1.119e-06
1.11904e-06
1.35943e-06
5.68567e-07
1.1288e-06
1.12885e-06
1.3678e-06
5.80575e-07
1.13795e-06
1.138e-06
1.37571e-06
5.9204e-07
1.14649e-06
1.14654e-06
1.38313e-06
6.02967e-07
1.15446e-06
1.15453e-06
1.39018e-06
6.13367e-07
1.16191e-06
1.162e-06
1.39686e-06
6.23249e-07
1.16888e-06
1.16901e-06
1.40326e-06
6.32622e-07
1.17543e-06
1.17558e-06
1.40933e-06
6.41487e-07
1.18158e-06
1.18175e-06
1.41512e-06
6.49843e-07
1.18734e-06
1.18751e-06
1.42062e-06
1.15432e-06
1.16782e-06
8.68977e-07
8.69004e-07
8.86623e-07
8.86664e-07
1.15424e-06
1.16778e-06
8.6886e-07
8.69048e-07
8.86533e-07
8.86702e-07
8.69066e-07
8.86488e-07
8.86728e-07
1.15403e-06
1.16802e-06
8.68946e-07
8.86588e-07
8.86607e-07
1.16788e-06
1.1736e-06
1.18655e-06
8.92388e-07
8.92427e-07
9.09313e-07
9.09348e-07
1.17344e-06
1.18637e-06
8.92304e-07
8.92467e-07
9.0922e-07
9.09389e-07
8.92493e-07
9.09184e-07
9.09408e-07
1.17335e-06
1.18651e-06
8.92374e-07
9.09282e-07
9.09295e-07
1.18646e-06
1.19188e-06
1.20428e-06
9.14827e-07
9.14862e-07
9.30996e-07
9.31027e-07
1.19184e-06
1.20408e-06
9.14739e-07
9.14905e-07
9.309e-07
9.31076e-07
9.14923e-07
9.30875e-07
9.31085e-07
1.19191e-06
1.2042e-06
9.14813e-07
9.30977e-07
9.30979e-07
1.20417e-06
1.20933e-06
1.2211e-06
9.36258e-07
9.36289e-07
9.51665e-07
9.51698e-07
1.20932e-06
1.22098e-06
9.36167e-07
9.3634e-07
9.51568e-07
9.51751e-07
9.3635e-07
9.51559e-07
9.51753e-07
1.20948e-06
1.22102e-06
9.36245e-07
9.51657e-07
9.51651e-07
1.2211e-06
1.22595e-06
1.23709e-06
9.56672e-07
9.56709e-07
9.7133e-07
9.71373e-07
1.22593e-06
1.23701e-06
9.56583e-07
9.56762e-07
9.71235e-07
9.71419e-07
9.56765e-07
9.71238e-07
9.71419e-07
1.22616e-06
1.23699e-06
9.56663e-07
9.71328e-07
9.71317e-07
1.23709e-06
1.24175e-06
1.25227e-06
9.76091e-07
9.76137e-07
9.90008e-07
9.90058e-07
1.24177e-06
1.25218e-06
9.76002e-07
9.76182e-07
9.89915e-07
9.90096e-07
9.76185e-07
9.89925e-07
9.90097e-07
1.24193e-06
1.25218e-06
9.76082e-07
9.90009e-07
9.89993e-07
1.2523e-06
1.25674e-06
1.26666e-06
9.94523e-07
9.94576e-07
1.0077e-06
1.00775e-06
1.25675e-06
1.26649e-06
9.94437e-07
9.94613e-07
1.00761e-06
1.00779e-06
9.94617e-07
1.00762e-06
1.00779e-06
1.2569e-06
1.26661e-06
9.94514e-07
1.00771e-06
1.00769e-06
1.26667e-06
1.27091e-06
1.28026e-06
1.01197e-06
1.01203e-06
1.02442e-06
1.02448e-06
1.27099e-06
1.28011e-06
1.01189e-06
1.01206e-06
1.02433e-06
1.02451e-06
1.01207e-06
1.02435e-06
1.02451e-06
1.27107e-06
1.28023e-06
1.01197e-06
1.02443e-06
1.02441e-06
1.28027e-06
1.28436e-06
1.29311e-06
1.02846e-06
1.02851e-06
1.0402e-06
1.04025e-06
1.28441e-06
1.293e-06
1.02837e-06
1.02855e-06
1.04011e-06
1.04028e-06
1.02855e-06
1.04013e-06
1.04029e-06
1.2845e-06
1.29304e-06
1.02845e-06
1.0402e-06
1.04018e-06
1.29303e-06
1.29707e-06
1.30513e-06
1.044e-06
1.04405e-06
1.05505e-06
1.0551e-06
1.29708e-06
1.30511e-06
1.04392e-06
1.04408e-06
1.05496e-06
1.05512e-06
1.04409e-06
1.05499e-06
1.05513e-06
1.29719e-06
1.30517e-06
1.04399e-06
1.05505e-06
1.05503e-06
1.30512e-06
1.30913e-06
1.31662e-06
1.05862e-06
1.05868e-06
1.069e-06
1.06905e-06
1.30907e-06
1.31654e-06
1.05854e-06
1.0587e-06
1.06891e-06
1.06907e-06
1.05871e-06
1.06894e-06
1.06908e-06
1.30919e-06
1.31662e-06
1.05861e-06
1.069e-06
1.06897e-06
1.31662e-06
1.32042e-06
1.32741e-06
1.07236e-06
1.07241e-06
1.08209e-06
1.08214e-06
1.32038e-06
1.32734e-06
1.07227e-06
1.07243e-06
1.08199e-06
1.08214e-06
1.07244e-06
1.08202e-06
1.08216e-06
1.32046e-06
1.32743e-06
1.07233e-06
1.08208e-06
1.08205e-06
1.32744e-06
1.33107e-06
1.33753e-06
1.08523e-06
1.08528e-06
1.09434e-06
1.09438e-06
1.33102e-06
1.33752e-06
1.08515e-06
1.08529e-06
1.09424e-06
1.09439e-06
1.08531e-06
1.09427e-06
1.0944e-06
1.33109e-06
1.33759e-06
1.0852e-06
1.09433e-06
1.09429e-06
1.33758e-06
1.34115e-06
1.34711e-06
1.09729e-06
1.09733e-06
1.1058e-06
1.10584e-06
1.34106e-06
1.34708e-06
1.0972e-06
1.09733e-06
1.1057e-06
1.10583e-06
1.09735e-06
1.10572e-06
1.10584e-06
1.34111e-06
1.34713e-06
1.09724e-06
1.10577e-06
1.10573e-06
1.34714e-06
1.35061e-06
1.35616e-06
1.10855e-06
1.10859e-06
1.1165e-06
1.11653e-06
1.35051e-06
1.35608e-06
1.10846e-06
1.10859e-06
1.1164e-06
1.11652e-06
1.10859e-06
1.11641e-06
1.11652e-06
1.35056e-06
1.35615e-06
1.10849e-06
1.11646e-06
1.11641e-06
1.35612e-06
1.35948e-06
1.36464e-06
1.11907e-06
1.1191e-06
1.12648e-06
1.1265e-06
1.35939e-06
1.36452e-06
1.11898e-06
1.11909e-06
1.12638e-06
1.1265e-06
1.11909e-06
1.12638e-06
1.12648e-06
1.35946e-06
1.36462e-06
1.11898e-06
1.12643e-06
1.12638e-06
1.36459e-06
1.36785e-06
1.37261e-06
1.12888e-06
1.1289e-06
1.13579e-06
1.1358e-06
1.36778e-06
1.3725e-06
1.12879e-06
1.1289e-06
1.13569e-06
1.1358e-06
1.12888e-06
1.13568e-06
1.13576e-06
1.36783e-06
1.37259e-06
1.12877e-06
1.13572e-06
1.13566e-06
1.37254e-06
1.37576e-06
1.38019e-06
1.13804e-06
1.13804e-06
1.14448e-06
1.14447e-06
1.37569e-06
1.38005e-06
1.13794e-06
1.13805e-06
1.14438e-06
1.14449e-06
1.138e-06
1.14435e-06
1.14442e-06
1.37578e-06
1.38015e-06
1.1379e-06
1.1444e-06
1.14432e-06
1.38008e-06
1.38324e-06
1.38733e-06
1.14658e-06
1.14657e-06
1.15259e-06
1.15257e-06
1.38314e-06
1.38717e-06
1.14648e-06
1.14659e-06
1.15248e-06
1.1526e-06
1.14652e-06
1.15244e-06
1.1525e-06
1.38324e-06
1.38732e-06
1.14642e-06
1.1525e-06
1.15241e-06
1.38721e-06
1.39029e-06
1.39407e-06
1.15456e-06
1.15454e-06
1.16016e-06
1.16014e-06
1.39018e-06
1.39392e-06
1.15446e-06
1.15457e-06
1.16005e-06
1.16018e-06
1.15447e-06
1.15999e-06
1.16005e-06
1.3903e-06
1.39409e-06
1.15438e-06
1.16008e-06
1.15998e-06
1.39396e-06
1.39697e-06
1.40048e-06
1.16201e-06
1.16199e-06
1.16725e-06
1.16723e-06
1.39686e-06
1.40033e-06
1.16191e-06
1.16203e-06
1.16713e-06
1.16727e-06
1.1619e-06
1.16706e-06
1.16713e-06
1.39699e-06
1.40051e-06
1.16184e-06
1.16718e-06
1.16707e-06
1.40038e-06
1.40331e-06
1.40657e-06
1.169e-06
1.16898e-06
1.17389e-06
1.17388e-06
1.40321e-06
1.40645e-06
1.16888e-06
1.16902e-06
1.17377e-06
1.17391e-06
1.16888e-06
1.17369e-06
1.17378e-06
1.40335e-06
1.4066e-06
1.16883e-06
1.17384e-06
1.17374e-06
1.40651e-06
1.40938e-06
1.41238e-06
1.17554e-06
1.17553e-06
1.18012e-06
1.18012e-06
1.40927e-06
1.41229e-06
1.17542e-06
1.17556e-06
1.18e-06
1.18014e-06
1.17543e-06
1.17993e-06
1.18003e-06
1.40942e-06
1.41242e-06
1.1754e-06
1.18009e-06
1.18e-06
1.41237e-06
1.41515e-06
1.41792e-06
1.18167e-06
1.18168e-06
1.18595e-06
1.18597e-06
1.41507e-06
1.41785e-06
1.18156e-06
1.1817e-06
1.18584e-06
1.18597e-06
1.1816e-06
1.1858e-06
1.18589e-06
1.4152e-06
1.41797e-06
1.18157e-06
1.18597e-06
1.18588e-06
1.41796e-06
1.42061e-06
1.42315e-06
1.18742e-06
1.18745e-06
1.19145e-06
1.19149e-06
1.42055e-06
1.4231e-06
1.18731e-06
1.18745e-06
1.19135e-06
1.19147e-06
1.18739e-06
1.19131e-06
1.19145e-06
1.42067e-06
1.4232e-06
1.18737e-06
1.19147e-06
1.19143e-06
1.42323e-06
4.09761e-06
9.16261e-06
9.16909e-06
4.09529e-06
1.84292e-05
1.84397e-05
4.09755e-06
9.16446e-06
9.17108e-06
4.09573e-06
3.23646e-07
3.23739e-07
3.23755e-07
3.35672e-07
3.35646e-07
3.3574e-07
3.3576e-07
2.1142e-06
3.47758e-06
5.64107e-07
8.74771e-07
3.48015e-06
5.69974e-07
2.10964e-06
1.84302e-05
1.84408e-05
2.11424e-06
5.64226e-07
3.47763e-06
8.74874e-07
5.70094e-07
3.48031e-06
2.10968e-06
5.46414e-06
5.46625e-06
1.15824e-06
5.46689e-06
5.46858e-06
4.1052e-06
9.17856e-06
4.10286e-06
9.18524e-06
1.84515e-05
1.84623e-05
4.10515e-06
9.18075e-06
4.10326e-06
9.18748e-06
3.39679e-07
3.39775e-07
3.39795e-07
3.51897e-07
3.51869e-07
3.51969e-07
3.51987e-07
2.12802e-06
3.48836e-06
5.87441e-07
8.97961e-07
2.12374e-06
3.49097e-06
5.93235e-07
1.84524e-05
1.84634e-05
2.12799e-06
5.87558e-07
3.48857e-06
8.98059e-07
2.12373e-06
5.93354e-07
3.49131e-06
5.4733e-06
5.47541e-06
1.17723e-06
5.47602e-06
5.47775e-06
4.11265e-06
9.19494e-06
4.11035e-06
9.20176e-06
1.84745e-05
1.84857e-05
4.11259e-06
9.19718e-06
4.11074e-06
9.20394e-06
3.55955e-07
3.56057e-07
3.56075e-07
3.68306e-07
3.68276e-07
3.68383e-07
3.68398e-07
2.14111e-06
3.49885e-06
6.10439e-07
9.20155e-07
2.13709e-06
3.50155e-06
6.16134e-07
1.84755e-05
1.84868e-05
2.14109e-06
6.1056e-07
3.49906e-06
9.20257e-07
2.1371e-06
6.16258e-07
3.50166e-06
5.4825e-06
5.48449e-06
1.19536e-06
5.48513e-06
5.48686e-06
4.11986e-06
9.21127e-06
4.11765e-06
9.21851e-06
1.84984e-05
1.85098e-05
4.12025e-06
9.21372e-06