/*--------------------------------*- C++ -*----------------------------------*\
| =========                 |                                                 |
| \\      /  F ield         | OpenFOAM: The Open Source CFD Toolbox           |
|  \\    /   O peration     | Version:  v1906                                 |
|   \\  /    A nd           | Web:      www.OpenFOAM.com                      |
|    \\/     M anipulation  |                                                 |
\*---------------------------------------------------------------------------*/
FoamFile
{
    version     2.0;
    format      ascii;
    class       volScalarField;
    location    "350";
    object      nut;
}
// * * * * * * * * * * * * * * * * * * * * * * * * * * * * * * * * * * * * * //

dimensions      [0 2 -1 0 0 0 0];


internalField   nonuniform List<scalar> 
42840
(
0.000203898
0.000199422
0.000199421
0.000181495
0.000182447
0.0001815
0.00018237
0.000199419
0.000199415
0.000200522
0.00020052
0.000181501
0.000182378
0.000199435
0.000199404
0.000200538
0.000200509
0.000199415
0.000200526
0.00020052
0.000181482
0.000182365
0.000199432
0.000200524
0.000200536
0.000182408
0.000200935
0.000200951
0.00010012
5.07413e-05
5.07515e-05
0.000100025
2.38878e-05
2.38921e-05
0.000100125
5.07389e-05
5.07509e-05
0.000100028
0.000203899
0.000203903
0.000203907
0.000205791
0.000205797
0.000205799
0.000205803
0.000144436
0.000103788
0.000208323
0.000199787
0.000103898
0.000208789
0.000144169
2.38855e-05
2.389e-05
0.000144441
0.000208332
0.000103791
0.000199787
0.000208799
0.000103901
0.000144189
7.80451e-05
7.80476e-05
0.000181856
7.80833e-05
7.80849e-05
7.8136e-05
7.81363e-05
2.38883e-05
2.38927e-05
2.38871e-05
2.38916e-05
7.80467e-05
7.80456e-05
0.000181856
7.80843e-05
7.80832e-05
2.38973e-05
2.3893e-05
2.38961e-05
2.38918e-05
0.000182039
7.81294e-05
7.81282e-05
7.80958e-05
7.80944e-05
0.000100127
5.07439e-05
5.07517e-05
0.000100029
0.000144424
0.00010379
0.00020834
0.000199785
0.000103899
0.00020881
0.000144168
0.000144426
0.000103791
0.000208343
0.000199783
0.000103901
0.000208812
0.00014416
0.000100118
5.07624e-05
5.07553e-05
0.000100203
0.000100118
5.07627e-05
5.07559e-05
0.000100209
0.000144429
0.000200195
0.000104003
0.000209759
0.000103896
0.000209336
0.000144664
0.000144419
0.000200192
0.000104005
0.00020976
0.000103897
0.000209337
0.000144668
7.8049e-05
7.80411e-05
0.000181856
7.80863e-05
7.80802e-05
2.38883e-05
2.38928e-05
2.38967e-05
2.38924e-05
0.000182043
7.81323e-05
7.81244e-05
7.80978e-05
7.80891e-05
2.38973e-05
2.3893e-05
0.000144436
0.00010379
0.000208345
0.000199801
0.000103899
0.000208811
0.000144184
0.000100124
5.07347e-05
5.07458e-05
0.000100028
0.00014443
0.000208338
0.000103776
0.000199771
0.000208807
0.000103886
0.000144169
0.00010012
5.07605e-05
5.07504e-05
0.000100209
0.00014445
0.000200212
0.000104002
0.000209761
0.000103896
0.000209343
0.000144681
0.00010012
5.07578e-05
5.07458e-05
0.000100206
0.000144436
0.000200181
0.000209757
0.00010399
0.000209334
0.000103885
0.000144672
0.000100127
5.07442e-05
5.07513e-05
0.000100032
0.000144436
0.000208338
0.000103792
0.000199783
0.000208807
0.000103901
0.000144179
0.000100126
5.0739e-05
5.0748e-05
0.00010003
0.000144431
0.0002002
0.000104003
0.000209739
0.000103897
0.000209321
0.000144667
0.000100122
5.07623e-05
5.07555e-05
0.000100205
0.000144439
0.000200193
0.000209756
0.000104004
0.000209335
0.000103899
0.000144675
0.000100118
5.07588e-05
5.0752e-05
0.000100209
7.80329e-05
7.80463e-05
0.000181842
7.80722e-05
7.80841e-05
2.38874e-05
2.38918e-05
2.38946e-05
2.38902e-05
0.000182028
7.81174e-05
7.8129e-05
7.80808e-05
7.8095e-05
2.38963e-05
2.38921e-05
0.000144446
0.000208347
0.000103793
0.000199799
0.000208815
0.000103903
0.00014418
0.000100127
5.07399e-05
5.07483e-05
0.000100028
0.000100135
5.07406e-05
5.07478e-05
0.000100036
0.00014445
0.000200199
0.000209748
0.000104003
0.00020933
0.000103897
0.00014468
0.000144441
0.00020021
0.000209765
0.000104005
0.000209343
0.000103899
0.000144674
0.000100118
5.07584e-05
5.07519e-05
0.000100206
0.000100128
5.07587e-05
5.07518e-05
0.00010021
2.38872e-05
2.38916e-05
2.38868e-05
2.3891e-05
0.000181997
7.81286e-05
7.81287e-05
7.80942e-05
7.80958e-05
2.3896e-05
2.38918e-05
2.38955e-05
2.38913e-05
0.000210289
0.000103997
0.000144677
5.07629e-05
0.000100197
0.000103997
5.07627e-05
2.38963e-05
2.38958e-05
3.67103e-05
4.10517e-05
9.46956e-05
0.000100073
4.10516e-05
9.46576e-05
3.67092e-05
2.03139e-05
5.07471e-05
7.91701e-05
7.91847e-05
2.03118e-05
2.03137e-05
7.9203e-05
5.07498e-05
7.91898e-05
2.03158e-05
3.67052e-05
0.000100075
4.10464e-05
9.46198e-05
4.10481e-05
9.46591e-05
3.67062e-05
2.38898e-05
2.38901e-05
3.67093e-05
9.47123e-05
4.10545e-05
0.000100075
9.46666e-05
4.10483e-05
3.67139e-05
2.03153e-05
5.0745e-05
7.91905e-05
7.92163e-05
2.03132e-05
2.03151e-05
7.9233e-05
5.07445e-05
7.92092e-05
2.03172e-05
3.67089e-05
0.000100081
9.46298e-05
4.10438e-05
9.46762e-05
4.10502e-05
3.67069e-05
2.38877e-05
2.38879e-05
8.16233e-05
2.17098e-05
2.17069e-05
2.17078e-05
2.17049e-05
8.16306e-05
0.000105452
0.000128968
7.806e-05
4.8656e-05
0.000129047
4.86637e-05
0.000105429
0.000105461
0.000128939
7.8062e-05
4.86463e-05
0.000129042
4.86543e-05
0.000105438
0.00010547
4.86691e-05
7.80706e-05
0.000129132
0.000129066
4.86613e-05
0.000105495
0.00010548
4.8659e-05
7.80726e-05
0.000129121
0.000129037
4.86518e-05
0.000105504
8.16133e-05
2.17059e-05
2.1703e-05
2.1708e-05
2.1705e-05
8.16088e-05
0.00010562
0.000129321
4.86771e-05
7.81525e-05
0.000105596
0.000129407
4.86836e-05
0.000105628
0.000129293
4.8671e-05
7.81522e-05
0.000105605
0.000129391
4.86717e-05
8.16759e-05
2.17132e-05
2.17103e-05
8.1667e-05
2.17152e-05
2.17122e-05
2.38904e-05
2.38907e-05
2.38892e-05
2.38895e-05
8.16226e-05
2.17099e-05
2.17067e-05
2.17079e-05
2.17047e-05
8.16274e-05
0.000105458
0.000128971
7.80613e-05
4.86563e-05
4.86642e-05
0.000129054
0.000105435
0.000105462
0.000128944
7.80603e-05
4.86449e-05
4.8653e-05
0.000129048
0.000105439
0.000105477
4.86688e-05
7.80723e-05
0.000129137
4.86617e-05
0.0001055
0.000129065
0.000105481
4.86577e-05
7.8071e-05
0.000129128
4.86505e-05
0.000105504
0.000129041
8.16111e-05
2.1706e-05
2.17028e-05
2.1708e-05
2.17048e-05
8.16075e-05
2.38953e-05
2.3895e-05
2.38941e-05
2.38939e-05
8.16424e-05
2.17098e-05
2.17065e-05
8.1638e-05
2.17118e-05
2.17085e-05
0.000105556
0.000129311
7.81171e-05
4.86766e-05
4.86765e-05
0.000129236
0.000105582
0.000105561
0.000129308
7.81156e-05
4.86654e-05
4.86653e-05
0.000129224
0.000105587
0.00010554
4.86697e-05
0.000129154
7.81078e-05
0.00010552
4.86727e-05
0.00012923
0.000105544
4.86583e-05
0.000129134
7.81066e-05
0.000105524
4.86616e-05
0.000129218
8.16529e-05
2.17136e-05
2.17103e-05
2.17117e-05
2.17084e-05
8.16581e-05
3.67122e-05
4.10549e-05
9.47125e-05
0.000100076
4.10484e-05
9.46767e-05
3.67111e-05
2.0315e-05
5.07467e-05
7.91953e-05
7.92204e-05
2.0313e-05
2.03149e-05
7.92366e-05
5.07503e-05
7.92137e-05
2.03169e-05
3.67072e-05
0.000100083
4.10447e-05
9.46399e-05
4.10498e-05
9.46768e-05
3.67082e-05
3.67129e-05
4.10561e-05
9.46941e-05
0.000100164
3.67142e-05
4.1056e-05
9.47317e-05
2.03175e-05
5.07609e-05
7.92388e-05
2.03196e-05
7.92252e-05
2.03177e-05
7.92081e-05
5.07568e-05
2.03156e-05
7.92212e-05
3.67174e-05
0.000100162
4.10603e-05
9.47644e-05
3.6717e-05
4.10604e-05
9.47303e-05
3.67149e-05
4.10528e-05
9.47103e-05
0.000100171
3.67159e-05
4.10593e-05
9.4748e-05
2.03186e-05
5.07614e-05
7.92712e-05
7.92482e-05
2.03206e-05
2.03188e-05
7.9231e-05
5.07571e-05
2.03168e-05
7.9255e-05
3.67193e-05
0.000100156
4.10634e-05
9.47793e-05
4.10572e-05
9.47383e-05
3.67188e-05
8.16202e-05
2.17074e-05
2.17099e-05
2.17054e-05
2.17079e-05
8.16314e-05
0.000105463
0.000128961
7.80632e-05
4.8651e-05
4.86513e-05
0.000129045
0.00010544
0.000105457
0.000128969
7.80572e-05
4.86555e-05
0.000129062
4.86636e-05
0.000105433
0.000105482
4.86566e-05
7.80744e-05
0.000129132
4.86565e-05
0.000129059
0.000105505
0.000105475
4.86672e-05
7.80653e-05
0.000129145
0.000129073
4.86612e-05
0.000105499
8.16164e-05
2.17035e-05
2.1706e-05
2.17055e-05
2.17081e-05
8.16049e-05
2.38904e-05
2.38907e-05
2.38947e-05
2.38944e-05
8.16468e-05
2.17073e-05
2.17098e-05
8.16357e-05
2.17093e-05
2.17118e-05
0.000105563
0.000129315
7.81195e-05
4.86671e-05
0.000129234
4.86668e-05
0.000105588
0.000105556
0.000129332
7.81108e-05
4.86756e-05
4.86755e-05
0.000129253
0.000105582
0.000105546
4.86618e-05
0.000129149
7.811e-05
0.000129227
0.000105525
4.86617e-05
0.00010554
4.86708e-05
0.000129167
7.81033e-05
0.000105519
4.86708e-05
0.000129244
8.16509e-05
2.17111e-05
2.17136e-05
2.17091e-05
2.17116e-05
8.16618e-05
2.38953e-05
2.3895e-05
3.67073e-05
4.10544e-05
9.47011e-05
0.000100076
4.10482e-05
9.46598e-05
3.6711e-05
2.03137e-05
5.07407e-05
7.91706e-05
7.91858e-05
2.03116e-05
2.03135e-05
7.92036e-05
5.07425e-05
7.91902e-05
2.03156e-05
3.67062e-05
0.00010008
4.10435e-05
9.46226e-05
4.10501e-05
9.46664e-05
3.67044e-05
3.67175e-05
9.47026e-05
4.10526e-05
0.000100169
3.67128e-05
9.47442e-05
4.10587e-05
2.03189e-05
5.0758e-05
7.92681e-05
2.03209e-05
7.92448e-05
2.03191e-05
7.92269e-05
5.07563e-05
2.0317e-05
7.92518e-05
3.67178e-05
0.000100164
9.47742e-05
4.1063e-05
3.67203e-05
9.47395e-05
4.10571e-05
3.6715e-05
4.10524e-05
9.46972e-05
0.000100168
3.67106e-05
4.10586e-05
9.47361e-05
2.03173e-05
5.07515e-05
7.9239e-05
7.92248e-05
2.03194e-05
2.03175e-05
7.92082e-05
5.07522e-05
2.03154e-05
7.92217e-05
3.67148e-05
0.000100157
4.10628e-05
9.47686e-05
4.10568e-05
9.47332e-05
3.67183e-05
3.67093e-05
9.47222e-05
4.10521e-05
0.00010008
9.46727e-05
4.10519e-05
3.67161e-05
2.03158e-05
5.07456e-05
7.91915e-05
7.92173e-05
2.03137e-05
2.03156e-05
7.92338e-05
5.075e-05
7.92102e-05
2.03177e-05
3.67124e-05
0.000100084
9.46341e-05
4.10476e-05
9.46866e-05
4.10476e-05
3.67054e-05
3.67108e-05
4.1055e-05
9.47079e-05
0.000100077
4.10488e-05
9.46613e-05
3.67102e-05
2.03147e-05
5.07433e-05
7.91758e-05
7.92012e-05
2.03127e-05
2.03145e-05
7.92175e-05
5.07467e-05
7.91943e-05
2.03166e-05
3.67068e-05
0.000100083
4.10441e-05
9.46232e-05
4.10508e-05
9.46714e-05
3.67064e-05
3.67198e-05
9.47084e-05
4.10564e-05
0.000100169
3.67128e-05
9.47578e-05
4.10563e-05
2.03194e-05
5.07609e-05
7.92686e-05
7.92452e-05
2.03214e-05
2.03196e-05
7.92277e-05
5.07568e-05
2.03175e-05
7.92523e-05
3.67166e-05
0.000100163
9.47864e-05
4.10606e-05
9.47416e-05
4.10604e-05
3.67235e-05
3.67148e-05
4.10528e-05
9.46965e-05
0.00010017
3.67134e-05
4.10592e-05
9.4745e-05
2.03182e-05
5.07574e-05
7.92521e-05
7.9229e-05
2.03202e-05
2.03184e-05
7.92118e-05
5.07533e-05
2.03164e-05
7.92357e-05
3.67155e-05
0.000100156
4.10633e-05
9.47781e-05
4.10571e-05
9.47297e-05
3.67196e-05
8.16223e-05
2.17063e-05
2.17096e-05
2.17042e-05
2.17076e-05
8.16281e-05
0.000105455
0.000128957
7.80487e-05
4.86443e-05
4.86521e-05
0.000129036
0.000105431
0.000105454
0.000128962
7.80611e-05
4.86559e-05
0.000129065
4.86639e-05
0.00010543
0.000105473
4.86575e-05
7.80572e-05
0.000129121
4.86496e-05
0.000129053
0.000105497
0.000105472
4.86693e-05
7.80717e-05
0.000129145
0.000129058
4.86615e-05
0.000105496
8.16113e-05
2.17023e-05
2.17057e-05
2.17044e-05
2.17077e-05
8.16075e-05
2.38894e-05
2.38897e-05
2.38925e-05
2.38923e-05
8.16439e-05
2.17061e-05
2.17095e-05
8.16371e-05
2.17081e-05
2.17115e-05
0.000105553
0.000129303
7.81029e-05
4.8668e-05
0.000129225
4.86604e-05
0.000105579
0.000105552
0.000129322
7.81161e-05
4.86775e-05
4.86747e-05
0.000129238
0.000105578
0.000105537
4.86549e-05
0.000129142
7.80959e-05
0.000129216
0.000105516
4.8663e-05
0.000105536
4.8667e-05
0.00012915
7.81074e-05
0.000105515
4.86742e-05
0.000129234
8.16516e-05
2.17099e-05
2.17133e-05
2.17079e-05
2.17113e-05
8.16597e-05
2.38943e-05
2.3894e-05
3.67109e-05
9.47042e-05
4.10547e-05
0.000100074
9.46679e-05
4.10483e-05
3.671e-05
2.03146e-05
5.07423e-05
7.91726e-05
7.91979e-05
2.03125e-05
2.03144e-05
7.92144e-05
5.07434e-05
7.91912e-05
2.03165e-05
3.67061e-05
0.000100085
9.4631e-05
4.10434e-05
9.46699e-05
4.10505e-05
3.67071e-05
3.67083e-05
9.47213e-05
4.10547e-05
0.000100084
9.46764e-05
4.10487e-05
3.67154e-05
2.03153e-05
5.07422e-05
7.91929e-05
7.92075e-05
2.03132e-05
2.0315e-05
7.92252e-05
5.07464e-05
7.9212e-05
2.03172e-05
3.67116e-05
0.000100093
9.46386e-05
4.10439e-05
9.46865e-05
4.10508e-05
3.67058e-05
3.67145e-05
9.47021e-05
4.10526e-05
0.00010017
3.67137e-05
9.47384e-05
4.10584e-05
2.03182e-05
5.07571e-05
7.92491e-05
7.92263e-05
2.03202e-05
2.03184e-05
7.92089e-05
5.07531e-05
2.03163e-05
7.92329e-05
3.67165e-05
0.00010016
9.47701e-05
4.10611e-05
9.47366e-05
4.10592e-05
3.6719e-05
3.67183e-05
9.47107e-05
4.10547e-05
0.000100176
3.6713e-05
9.4755e-05
4.10574e-05
2.03187e-05
5.07573e-05
7.92589e-05
7.92458e-05
2.03208e-05
2.0319e-05
7.92296e-05
5.07532e-05
2.03169e-05
7.92426e-05
3.67179e-05
0.000100169
9.47847e-05
4.10606e-05
9.4743e-05
4.10608e-05
3.67213e-05
2.38893e-05
2.38896e-05
2.38888e-05
2.38891e-05
8.1646e-05
2.17096e-05
2.17067e-05
8.16381e-05
2.17116e-05
2.17087e-05
0.000105552
0.000129317
7.81161e-05
4.86794e-05
0.000105577
0.000129243
4.86719e-05
0.000105561
0.000129297
7.81172e-05
4.86664e-05
0.000105585
0.000129217
4.86663e-05
0.000105535
4.86664e-05
0.000129157
7.81069e-05
0.000105513
0.000129229
4.86745e-05
0.000105544
4.8659e-05
0.000129129
7.81078e-05
0.000105523
0.000129209
4.86629e-05
8.16527e-05
2.17134e-05
2.17105e-05
8.16614e-05
2.17114e-05
2.17085e-05
2.38941e-05
2.38938e-05
2.38936e-05
2.38933e-05
2.0322e-05
7.92455e-05
5.07643e-05
2.032e-05
7.92714e-05
3.67238e-05
0.000100261
4.10615e-05
9.47652e-05
3.67187e-05
4.10671e-05
9.48195e-05
5.07642e-05
2.38982e-05
2.38977e-05
0.000199472
0.000199471
0.000204512
0.000200241
0.000200239
0.000189281
0.00018826
0.000138588
0.000161726
0.000161713
0.000181584
0.000161789
0.000161779
0.000138542
0.000138992
0.000162421
0.000162394
0.000182653
0.000138943
0.000162502
0.000162494
0.000138597
0.000161733
0.000161719
0.000181594
0.000161798
0.000161784
0.00013855
0.000138848
0.000182284
0.000162327
0.000162324
0.00016227
0.000162263
0.000138898
0.000138596
0.000161718
0.000161733
0.000181593
0.000161798
0.000161782
0.00013855
0.000138849
0.000182294
0.000162326
0.000162342
0.000162268
0.000162283
0.0001389
0.000138586
0.000161707
0.000161719
0.000181581
0.000161786
0.000161772
0.000138541
0.00013884
0.00018228
0.000162314
0.00016233
0.000162255
0.000162271
0.00013889
0.000138838
0.000182214
0.000162327
0.000162323
0.000138889
0.000162267
0.000162221
0.000199483
0.000199473
0.000204519
0.000200242
0.00020023
0.000189213
0.000188319
0.000199489
0.000199486
0.000204522
0.000200247
0.000200242
0.000189222
0.000188329
0.000199487
0.000199491
0.000204525
0.000200239
0.000200243
0.000189201
0.000188342
0.000205228
0.000201852
0.00020185
0.000201132
0.000201132
0.000190302
0.000191326
0.000205227
0.000201851
0.00020184
0.000201141
0.000201132
0.000190366
0.000191244
0.000205229
0.000201857
0.000201851
0.000201147
0.000201145
0.000190376
0.000191253
0.000205235
0.000201849
0.000201852
0.000201145
0.000201149
0.000190389
0.00019123
0.000171208
0.000137926
0.000176452
0.000144305
0.000137806
0.000176391
0.000171314
0.000160757
0.000147607
0.000103849
0.000122944
0.000147666
0.000123036
0.000160634
0.000160812
0.000123114
0.000103844
0.000147809
0.000147757
0.000123028
0.000160928
0.000171092
0.00014431
0.000137685
0.000176144
0.000137815
0.000176214
0.000170984
0.000171235
0.00017646
0.000137916
0.000144324
0.000176398
0.000137813
0.000171341
0.00016076
0.000147617
0.000103853
0.000122941
0.000147695
0.000123032
0.00016066
0.000160852
0.000123109
0.000103845
0.000147837
0.00014776
0.000123026
0.000160933
0.00017113
0.000144316
0.000176137
0.000137699
0.000176219
0.000137815
0.000171011
0.000138643
0.000181764
0.000161968
0.000161959
0.00016191
0.000161885
0.00013869
0.000138652
0.000181773
0.000161977
0.000161965
0.000138699
0.000161917
0.000161905
0.000138796
0.000182119
0.000162097
0.000162089
0.000138754
0.000162154
0.000162147
0.000171209
0.00013789
0.000176474
0.000144304
0.000137786
0.000176368
0.000171304
0.000160749
0.000147608
0.000103851
0.000122934
0.000123021
0.000147673
0.000160669
0.000160845
0.000123099
0.000103844
0.000147816
0.000123018
0.000147748
0.000160922
0.000171085
0.000144295
0.000137666
0.000176134
0.000137776
0.000176234
0.000170986
0.000171208
0.000137896
0.000176478
0.000144294
0.000137781
0.000176369
0.000171312
0.000160759
0.000147595
0.000103852
0.00012294
0.000123029
0.000147673
0.000160644
0.000160815
0.000123107
0.000103845
0.000147821
0.000123023
0.000160935
0.000147742
0.000171091
0.000144299
0.000137663
0.000176138
0.000137784
0.00017624
0.000170987
0.000171525
0.000137899
0.00017659
0.000144551
0.000171428
0.000138
0.000176708
0.000161205
0.000148094
0.000103948
0.00012326
0.000148029
0.000123179
0.000161278
0.000161097
0.000123099
0.000147889
0.000103954
0.00014796
0.000161027
0.000123183
0.000171643
0.000144552
0.000138104
0.000176941
0.000138011
0.00017682
0.00017174
0.000171533
0.00013789
0.00017659
0.000144554
0.000171425
0.000138008
0.00017671
0.000161167
0.000148105
0.000103949
0.000123268
0.000123182
0.000148027
0.000161293
0.000161118
0.000123103
0.000147885
0.000103955
0.000160993
0.00012319
0.000147967
0.000171638
0.000144536
0.000138116
0.000176943
0.000137997
0.000176819
0.000171747
0.000138651
0.000181774
0.000161964
0.000161979
0.00016192
0.000161905
0.000138698
0.000138796
0.000182121
0.00016209
0.000162105
0.000162147
0.000138755
0.000162163
0.000171282
0.000137919
0.000176453
0.000144321
0.000137818
0.000176416
0.000171351
0.000160749
0.00014763
0.000103852
0.000122945
0.000123035
0.00014768
0.000160691
0.000160867
0.000123114
0.000103844
0.000147818
0.000123031
0.000147761
0.000160939
0.000171115
0.000144305
0.000137698
0.000176165
0.000137808
0.000176206
0.000171095
0.00017127
0.000176449
0.000137904
0.000144305
0.000176411
0.000137804
0.000171337
0.000160729
0.000147614
0.000103837
0.00012293
0.000123019
0.000147661
0.000160675
0.000160858
0.000123097
0.000103832
0.000147799
0.000123016
0.000160911
0.000147757
0.000171102
0.0001443
0.00017616
0.000137684
0.000176202
0.000137792
0.000171083
0.000171565
0.00013792
0.000176656
0.000144563
0.000171481
0.000138024
0.000176694
0.000161191
0.000148096
0.000103946
0.000123273
0.000148022
0.00012319
0.000161302
0.000161127
0.000123111
0.000147886
0.000103953
0.000147956
0.000161027
0.000123197
0.00017168
0.000144577
0.000138119
0.000176933
0.000138016
0.000176888
0.000171773
0.00017155
0.00017665
0.000137911
0.000144559
0.000171471
0.000176688
0.000138011
0.000161215
0.00014808
0.000103934
0.000123257
0.000123177
0.000148038
0.00016127
0.000161088
0.000123097
0.0001479
0.000103941
0.00016104
0.000123181
0.000147942
0.000171674
0.00014456
0.000176924
0.000138113
0.000176885
0.000138019
0.000171759
0.000171225
0.000176488
0.000137918
0.000144315
0.000176391
0.000137801
0.000171328
0.000160751
0.000147635
0.000103853
0.000122943
0.000147683
0.000123033
0.000160677
0.000160857
0.00012311
0.000103847
0.000147821
0.000147777
0.000123027
0.000160933
0.00017111
0.000144308
0.000176148
0.000137684
0.000176232
0.000137808
0.000171002
0.000171533
0.000137915
0.000176623
0.000144562
0.000171429
0.000138032
0.000176693
0.00016119
0.0001481
0.000103947
0.000123272
0.000161278
0.000148054
0.000123189
0.000161096
0.000123109
0.000147907
0.000103953
0.000161004
0.000147954
0.000123196
0.000171645
0.000144548
0.000138127
0.000176935
0.000171748
0.000138018
0.00017684
0.000171546
0.00017661
0.000137907
0.00014456
0.000171442
0.000176718
0.000138024
0.000161188
0.000148099
0.000103949
0.000123268
0.000123185
0.000148054
0.000161295
0.00016112
0.000123107
0.000147919
0.000103955
0.000161024
0.000123192
0.000147961
0.000171653
0.000144558
0.00017695
0.000138127
0.000176835
0.00013801
0.000171759
0.000138642
0.000181757
0.000161953
0.000161968
0.000161908
0.000161894
0.000138689
0.000138786
0.000182106
0.000162078
0.000162093
0.000162136
0.000138745
0.00016215
0.000171231
0.000176467
0.000137932
0.000144314
0.000176389
0.000137815
0.000171345
0.000160771
0.000147605
0.000103854
0.00012295
0.000147685
0.000123041
0.000160641
0.000160821
0.000123119
0.000103848
0.000147828
0.000147748
0.000123034
0.000160951
0.000171127
0.000144323
0.000176123
0.000137698
0.000176225
0.000137823
0.000171006
0.00017155
0.000176643
0.000137918
0.000144563
0.000171453
0.000176694
0.000138019
0.000161217
0.000148105
0.000103948
0.000123265
0.000161285
0.000148037
0.000123185
0.000161106
0.000123106
0.0001479
0.000103955
0.000161038
0.000147976
0.00012319
0.000171667
0.000144574
0.000176926
0.00013812
0.00017176
0.000176881
0.000138025
0.000171558
0.000176636
0.000137922
0.000144569
0.000171448
0.000176698
0.000138038
0.000161177
0.000148104
0.00010395
0.000123277
0.000123193
0.000148027
0.000161308
0.000161132
0.000123115
0.000147888
0.000103956
0.000161002
0.000123201
0.000147969
0.000171661
0.000144557
0.000176927
0.000138138
0.000176873
0.000138023
0.000171768
0.000138787
0.000182139
0.000162092
0.000162046
0.000138744
0.000162148
0.000162142
0.00016148
0.000148177
0.00012326
0.000104058
0.000148237
0.000161359
0.000123355
0.000171979
0.000144824
0.000177061
0.000138118
0.000177181
0.000171865
0.000138252
0.000148161
0.000104059
0.000148238
0.00012305
0.00013942
0.000139425
0.000137166
0.000125848
0.000142545
0.000142552
0.000139565
0.000128805
0.000145632
0.00014564
0.000141941
0.0001319
0.000148675
0.000148686
0.000144213
0.000135112
0.000151671
0.000151681
0.000146596
0.000138421
0.000154613
0.000154618
0.000148839
0.000141808
0.000157492
0.000157496
0.000150974
0.000145255
0.000160308
0.000160311
0.000153075
0.000148744
0.00016306
0.000163063
0.000155114
0.000152261
0.000165745
0.000165749
0.000157084
0.000155792
0.000168364
0.000168367
0.000158971
0.000159323
0.000170914
0.000170916
0.000160899
0.00016284
0.000173396
0.000173398
0.000162726
0.000166334
0.000175809
0.000175809
0.000164462
0.000169795
0.000178152
0.00017815
0.000166159
0.000173215
0.000180426
0.000180423
0.000167795
0.000176588
0.00018263
0.000182626
0.000169388
0.000179907
0.000184766
0.000184762
0.000170926
0.000183165
0.000186835
0.000186831
0.000172453
0.000186359
0.000188837
0.000188833
0.000173893
0.000189483
0.000190771
0.000190769
0.000175273
0.000192533
0.000192637
0.000192637
0.000176604
0.000195504
0.000194437
0.000194437
0.000177886
0.000198392
0.00019617
0.000196168
0.000179141
0.00020119
0.000197831
0.000197829
0.000180372
0.000137119
0.000139234
0.000139416
0.000139411
0.000141764
0.000141757
0.000137113
0.000139243
0.000139425
0.000139411
0.000141771
0.000141759
0.000139441
0.000141769
0.000141785
0.000137238
0.000139118
0.000139445
0.000141775
0.000141791
0.000139245
0.000139545
0.000141562
0.000142542
0.000142535
0.000144861
0.000144854
0.000139559
0.000141645
0.00014255
0.000142538
0.00014487
0.000144857
0.000142563
0.000144865
0.00014488
0.000139694
0.000141653
0.00014257
0.000144873
0.000144887
0.000141616
0.00014199
0.000143874
0.000145629
0.000145621
0.000147915
0.000147906
0.000141927
0.000143934
0.000145638
0.000145627
0.000147925
0.000147913
0.000145647
0.000147919
0.000147933
0.000142012
0.000143996
0.000145656
0.000147931
0.000147941
0.000143971
0.000144394
0.000146111
0.000148672
0.000148663
0.000150921
0.000150914
0.000144207
0.000146202
0.000148683
0.00014867
0.000150932
0.000150921
0.000148689
0.000150928
0.000150938
0.000144271
0.000146249
0.000148697
0.000150939
0.000150947
0.000146184
0.000146633
0.000148373
0.000151664
0.000151658
0.000153873
0.000153869
0.000146555
0.000148488
0.000151676
0.000151665
0.000153885
0.000153873
0.000151681
0.000153885
0.00015389
0.00014653
0.000148453
0.00015169
0.000153892
0.000153899
0.000148359
0.000148825
0.000150534
0.000154601
0.000154599
0.000156765
0.000156764
0.000148761
0.000150618
0.000154613
0.000154601
0.000156778
0.000156765
0.000154618
0.000156781
0.000156783
0.000148735
0.000150632
0.000154627
0.000156785
0.000156792
0.000150562
0.000150979
0.000152633
0.000157478
0.000157477
0.000159595
0.000159595
0.000150906
0.00015274
0.000157491
0.000157478
0.000159609
0.000159595
0.000157495
0.000159613
0.000159613
0.000150911
0.000152666
0.000157505
0.000159616
0.000159624
0.000152681
0.00015308
0.000154688
0.000160292
0.000160292
0.000162363
0.000162363
0.000152974
0.000154789
0.000160306
0.000160292
0.000162376
0.000162363
0.00016031
0.000162382
0.000162381
0.000153083
0.000154739
0.00016032
0.000162385
0.000162392
0.000154749
0.000155127
0.000156713
0.000163043
0.000163044
0.000165065
0.000165066
0.00015505
0.000156766
0.000163057
0.000163044
0.000165079
0.000165064
0.00016306
0.000165086
0.000165081
0.000155135
0.000156788
0.000163072
0.000165088
0.000165093
0.000156808
0.0001571
0.000158744
0.000165728
0.000165728
0.000167701
0.000167701
0.000157034
0.00015873
0.000165742
0.000165728
0.000167714
0.000167699
0.000165745
0.000167722
0.000167717
0.000157045
0.000158729
0.000165756
0.000167725
0.000167728
0.000158761
0.000158998
0.000160574
0.000168346
0.000168347
0.000170268
0.000170269
0.000158959
0.000160597
0.00016836
0.000168345
0.000170281
0.000170266
0.000168362
0.000170291
0.000170283
0.000158957
0.000160604
0.000168373
0.000170293
0.000170294
0.000160546
0.000160872
0.000162383
0.000170896
0.000170897
0.000172768
0.000172768
0.000160816
0.00016239
0.00017091
0.000170894
0.000172781
0.000172765
0.000170911
0.000172791
0.000172783
0.000160827
0.000162352
0.000170923
0.000172793
0.000172794
0.00016238
0.000162685
0.000164208
0.000173378
0.000173378
0.0001752
0.0001752
0.000162692
0.000164149
0.000173391
0.000173375
0.000175213
0.000175195
0.000173393
0.000175224
0.000175213
0.000162724
0.000164144
0.000173404
0.000175225
0.000175224
0.000164127
0.000164415
0.000165923
0.000175791
0.000175792
0.000177564
0.000177563
0.00016447
0.000165842
0.000175804
0.000175787
0.000177577
0.000177557
0.000175804
0.000177589
0.000177574
0.000164451
0.000165854
0.000175815
0.000177587
0.000177585
0.00016586
0.000166118
0.000167536
0.000178136
0.000178136
0.000179858
0.000179857
0.000166191
0.000167535
0.000178149
0.000178129
0.000179871
0.00017985
0.000178146
0.000179883
0.000179866
0.00016615
0.000167533
0.000178158
0.000179881
0.000179877
0.000167537
0.000167816
0.000169132
0.000180411
0.000180411
0.000182085
0.000182082
0.000167811
0.000169192
0.000180425
0.000180404
0.000182097
0.000182075
0.000180419
0.000182108
0.000182089
0.000167833
0.000169137
0.00018043
0.000182105
0.000182101
0.000169154
0.000169426
0.000170744
0.000182619
0.000182618
0.000184244
0.00018424
0.000169382
0.000170758
0.000182633
0.000182611
0.000184256
0.000184233
0.000182624
0.000184265
0.000184245
0.000169404
0.000170762
0.000182636
0.00018426
0.000184257
0.000170758
0.000170945
0.000172247
0.00018476
0.000184757
0.000186336
0.000186331
0.000170926
0.000172266
0.000184773
0.000184751
0.000186348
0.000186324
0.000184761
0.000186354
0.000186333
0.000170924
0.000172256
0.000184774
0.00018635
0.000186346
0.000172233
0.000172471
0.000173704
0.000186834
0.000186831
0.000188361
0.000188354
0.000172422
0.000173717
0.000186847
0.000186824
0.000188373
0.000188347
0.000186832
0.000188376
0.000188355
0.000172421
0.000173691
0.000186845
0.000188372
0.000188369
0.000173698
0.000173912
0.000175105
0.000188842
0.000188837
0.000190317
0.00019031
0.00017387
0.000175127
0.000188855
0.000188831
0.000190329
0.000190304
0.000188836
0.000190328
0.000190309
0.00017392
0.000175106
0.000188851
0.000190326
0.000190324
0.000175097
0.000175306
0.000176457
0.000190782
0.000190776
0.000192205
0.000192198
0.000175264
0.000176486
0.000190795
0.00019077
0.000192217
0.00019219
0.000190774
0.000192212
0.000192196
0.000175298
0.000176455
0.00019079
0.000192211
0.000192212
0.000176495
0.000176652
0.000177807
0.000192654
0.000192649
0.000194022
0.000194015
0.000176604
0.000177791
0.000192667
0.000192641
0.000194033
0.000194006
0.000192646
0.000194025
0.000194013
0.000176642
0.000177797
0.000192663
0.000194025
0.00019403
0.000177794
0.000177917
0.000179062
0.000194457
0.000194452
0.000195766
0.000195761
0.000177904
0.00017906
0.00019447
0.000194442
0.000195778
0.000195751
0.000194449
0.000195767
0.000195758
0.000177903
0.00017905
0.000194466
0.000195766
0.000195775
0.000179016
0.000179138
0.00018023
0.00019619
0.000196185
0.000197436
0.000197433
0.000179139
0.00018023
0.000196203
0.000196175
0.000197449
0.000197422
0.000196181
0.000197433
0.000197428
0.000179127
0.000180242
0.000196199
0.000197431
0.000197446
0.000180178
0.000180326
0.000181313
0.000197849
0.000197846
0.000199016
0.000199014
0.000180327
0.000181312
0.000197863
0.000197835
0.00019903
0.000199002
0.000197841
0.000199015
0.000199012
0.0001803
0.000181302
0.000197859
0.000199014
0.000199029
0.000181306
9.22965e-05
5.00175e-05
5.00331e-05
9.20729e-05
2.36122e-05
2.36167e-05
9.23117e-05
5.00161e-05
5.00312e-05
9.20744e-05
0.000123042
0.000123053
0.000123073
0.000125131
0.000125123
0.000125135
0.000125154
0.000122005
9.38404e-05
0.000134861
0.000140205
9.41332e-05
0.000135729
0.000121377
2.36103e-05
2.36148e-05
0.000122009
0.000134886
9.38335e-05
0.00014021
0.000135753
9.41372e-05
0.000121376
7.3771e-05
7.37652e-05
0.000138037
7.38651e-05
7.3871e-05
9.27712e-05
5.00477e-05
9.25532e-05
5.00631e-05
2.36217e-05
2.36263e-05
9.27853e-05
5.00451e-05
9.25558e-05
5.00602e-05
0.000125839
0.000125851
0.000125871
0.000128051
0.000128042
0.000128055
0.000128074
0.000123317
9.44496e-05
0.000138362
0.000143321
0.000122714
9.47291e-05
0.000139239
2.36198e-05
2.36244e-05
0.000123324
0.000138385
9.4437e-05
0.000143328
0.000122706
0.000139262
9.47259e-05
7.40362e-05
7.40304e-05
0.000140446
7.41256e-05
7.41304e-05
9.32284e-05
5.00773e-05
9.30164e-05
5.00921e-05
2.36315e-05
2.36363e-05
9.32424e-05
5.00747e-05
9.30258e-05
5.00901e-05
0.000128795
0.000128809
0.000128828
0.000131114
0.000131104
0.000131119
0.000131136
0.000124585
9.50323e-05
0.000141891
0.000146398
0.000123992
9.52972e-05
0.000142772
2.36297e-05
2.36344e-05
0.000124587
0.000141914
9.50205e-05
0.000146407
0.000123991
0.000142796
9.53006e-05
7.42887e-05
7.42855e-05
0.000142806
7.43762e-05
7.43796e-05
9.36683e-05
5.01104e-05
9.34656e-05
5.01204e-05
2.36417e-05
2.36466e-05