/*--------------------------------*- C++ -*----------------------------------*\
| =========                 |                                                 |
| \\      /  F ield         | OpenFOAM: The Open Source CFD Toolbox           |
|  \\    /   O peration     | Version:  v1906                                 |
|   \\  /    A nd           | Web:      www.OpenFOAM.com                      |
|    \\/     M anipulation  |                                                 |
\*---------------------------------------------------------------------------*/
FoamFile
{
    version     2.0;
    format      ascii;
    class       surfaceScalarField;
    location    "350";
    object      phi;
}
// * * * * * * * * * * * * * * * * * * * * * * * * * * * * * * * * * * * * * //

dimensions      [0 3 -1 0 0 0 0];
oriented        oriented;


internalField   nonuniform List<scalar> 
123680
(
9.89624e-08
9.94383e-08
-5.85032e-08
-5.85131e-08
0.00118449
-0.00118457
-1.20029e-06
-9.85153e-08
-4.09463e-08
0.00113227
-2.37211e-07
1.23803e-06
2.69491e-07
9.06116e-07
-2.17788e-07
2.61576e-07
-8.58186e-07
-0.00113229
-1.19479e-06
-9.80801e-08
-4.11649e-08
0.00113189
-2.37187e-07
1.23258e-06
2.69531e-07
9.05831e-07
-2.20568e-07
2.64224e-07
-8.58182e-07
-0.00113191
1.22929e-06
1.1955e-06
-2.01936e-07
-2.0701e-07
0.000268044
-0.00027006
-0.000270063
1.22967e-06
1.19607e-06
-2.02692e-07
-2.076e-07
0.000268048
1.23461e-06
1.198e-06
-1.99244e-07
-2.07014e-07
0.000268048
-0.000270074
-1.27101e-06
-1.2344e-06
-0.000268051
2.35018e-07
2.42892e-07
0.000270079
-4.01297e-08
0.00113142
-2.4313e-07
1.27162e-06
2.74475e-07
9.06203e-07
-2.17585e-07
2.61746e-07
-8.58049e-07
-0.00113144
-1.24055e-06
-9.98552e-08
-3.81463e-08
0.00113187
-2.46524e-07
1.27666e-06
2.76755e-07
9.12074e-07
-2.20021e-07
2.64901e-07
-8.63234e-07
-0.00113189
-9.81735e-08
-0.00113138
-3.98623e-08
-1.2349e-06
2.73911e-07
-2.43485e-07
-8.58551e-07
2.61005e-07
-2.18172e-07
9.05482e-07
0.00113136
1.27593e-06
-9.93464e-08
-0.00113183
-3.726e-08
-1.24096e-06
2.76101e-07
-2.46988e-07
-8.63689e-07
2.64227e-07
-2.20523e-07
9.11393e-07
0.00113181
-2.01525e-07
-2.04775e-07
0.00026807
-0.000270105
-1.23751e-06
-0.000268073
2.383e-07
2.39632e-07
0.000270109
-4.01535e-08
0.00113253
-2.4051e-07
1.23499e-06
2.71947e-07
9.091e-07
-2.20246e-07
2.64684e-07
-8.60643e-07
-0.00113255
-1.23509e-06
-1.00107e-07
-3.83347e-08
0.00113152
-2.46445e-07
1.27124e-06
2.76842e-07
9.09205e-07
-2.19922e-07
2.64856e-07
-8.60381e-07
-0.00113155
-9.86138e-08
-0.00113249
-3.97158e-08
-1.19828e-06
2.71404e-07
-2.40869e-07
-8.6118e-07
2.63874e-07
-2.20876e-07
9.0834e-07
0.00113247
1.2706e-06
-9.93689e-08
-0.00113148
-3.77614e-08
-1.2354e-06
2.7629e-07
-2.46804e-07
-8.60894e-07
2.64081e-07
-2.2052e-07
9.08465e-07
0.00113146
-9.90056e-08
-3.88312e-08
0.00113133
-2.40409e-07
1.26617e-06
2.71623e-07
9.06306e-07
-2.17509e-07
2.61796e-07
-8.57988e-07
-0.00113136
-9.72098e-08
-0.00113222
-4.08016e-08
-1.20049e-06
2.69025e-07
-2.37481e-07
-8.58785e-07
2.60736e-07
9.05291e-07
-2.18466e-07
0.0011322
1.26555e-06
0.00113127
-9.7743e-08
-0.00113129
-3.83719e-08
-1.22959e-06
2.71085e-07
-2.40773e-07
-8.58589e-07
2.60943e-07
-2.18202e-07
9.08122e-07
-1.98898e-07
-2.07319e-07
0.000268028
-0.000270051
-1.23197e-06
-0.000268031
2.35529e-07
2.42322e-07
0.000270056
-9.92873e-08
-3.86833e-08
0.00113243
-2.38029e-07
1.23212e-06
2.68896e-07
9.06557e-07
-2.20119e-07
2.64775e-07
-8.57943e-07
-0.00113246
-9.7133e-08
-0.00113185
-4.10018e-08
-1.19507e-06
2.68942e-07
-2.37582e-07
-8.58639e-07
2.63468e-07
9.05158e-07
-2.2117e-07
0.00113183
1.23137e-06
0.00113237
-9.84201e-08
-0.00113239
-3.76703e-08
-1.19594e-06
2.68192e-07
-2.38564e-07
-8.58457e-07
2.64041e-07
-2.20686e-07
9.05828e-07
-0.000268046
2.37318e-07
2.42994e-07
-3.81568e-08
-2.40865e-07
1.26533e-06
2.70867e-07
9.07782e-07
-2.18406e-07
2.60613e-07
-8.61452e-07
-9.71638e-08
-2.38718e-07
1.23112e-06
2.6793e-07
-2.20875e-07
2.63735e-07
-9.79873e-08
-3.7281e-08
9.05534e-07
-8.58619e-07
-7.82742e-10
-6.67365e-08
0.000229244
3.06982e-08
2.64641e-09
-0.00022921
-4.90511e-09
2.44256e-08
0.000193517
-4.49205e-09
-0.000193532
7.09698e-09
-4.16182e-08
0.000193566
2.47303e-09
-0.000193534
-5.41297e-10
3.19323e-08
0.000229194
-1.45765e-08
1.4107e-09
-0.000229212
5.65124e-09
1.13898e-08
9.79861e-05
-9.80032e-05
-6.31452e-09
-1.98182e-08
9.80214e-05
-9.79952e-05
-6.68898e-08
-5.33093e-10
0.000229274
2.36631e-09
2.86661e-08
-0.000229237
-4.93999e-09
2.6596e-08
0.000193538
-4.87029e-09
-0.000193555
7.08133e-09
-4.39647e-08
0.000193589
3.18737e-09
-0.000193555
3.19106e-08
-8.81073e-11
0.000229221
1.09754e-09
-1.24708e-08
-0.000229242
-5.77775e-08
-5.88965e-08
0.00118449
-0.00118457
-5.75075e-08
-5.90892e-08
0.00118407
-0.00118415
-5.80582e-08
-5.82084e-08
0.00118431
-0.00118439
-0.00118433
-5.93989e-08
-5.93091e-08
0.00118425
-0.00118433
-5.81042e-08
-5.99045e-08
0.00118425
-0.00118391
-5.80886e-08
-6.00883e-08
0.00118384
-0.00118415
-5.87349e-08
-5.85218e-08
0.00118407
6.66944e-08
-2.17481e-09
0.000250144
4.24666e-09
-1.87771e-07
-0.000250025
-9.54585e-09
-2.684e-08
7.00123e-08
0.00024537
4.06339e-09
-0.000245408
0.00115248
2.60248e-09
-1.15069e-07
1.00237e-06
-7.63996e-07
8.24565e-07
-9.4298e-07
-0.00115253
-4.08195e-08
1.23785e-06
0.00113224
-9.79181e-08
-8.58388e-07
2.61281e-07
-2.18032e-07
9.05846e-07
-1.20036e-06
2.69336e-07
-2.37299e-07
2.08308e-08
4.36285e-08
0.000245439
-1.66317e-08
-0.000245386
-1.01144e-07
-4.80455e-09
0.00115244
-1.15096e-07
-9.43112e-07
8.24322e-07
-7.64129e-07
1.00213e-06
-3.19619e-08
1.10945e-09
0.000250015
2.1301e-09
1.37602e-07
-0.000250124
5.34651e-09
1.3958e-08
9.79677e-05
-9.7987e-05
-6.72075e-09
-2.16988e-08
9.80052e-05
-9.79768e-05
-2.14057e-09
6.65256e-08
0.000250102
-1.87581e-07
4.4662e-09
-0.000249984
0.00115216
2.46502e-09
-1.14599e-07
9.9667e-07
-7.58602e-07
8.18888e-07
-9.37469e-07
-0.00115221
-9.78776e-09
-2.46752e-08
7.01557e-08
0.000245309
4.13283e-09
-0.000245349
-4.10468e-08
1.23237e-06
0.00113187
-9.75995e-08
-8.58294e-07
2.6394e-07
-2.2079e-07
9.05645e-07
-1.19488e-06
2.69334e-07
-2.37314e-07
-4.94255e-09
0.00115212
-1.14719e-07
-9.37576e-07
8.18662e-07
-7.5871e-07
9.96436e-07
2.07785e-08
4.15128e-08
0.000245381
-1.66531e-08
-0.000245325
-1.0123e-07
4.93626e-10
-3.19809e-08
0.000249973
1.3764e-07
2.28014e-09
-0.000250082
1.28798e-08
-1.20377e-08
2.70955e-08
0.000278108
-6.82714e-09
-0.00027813
1.35977e-08
-1.13832e-08
2.44224e-08
0.000278053
-8.32192e-09
-0.000278072
-1.26595e-06
-1.23185e-06
0.000270061
-0.000268045
2.37877e-07
2.43479e-07
-2.25049e-08
1.90899e-08
0.000278171
1.01264e-08
-0.000278129
-4.8505e-08
-2.18483e-08
1.96333e-08
0.000278113
9.73475e-09
-0.000278074
-4.6637e-08
-0.000278211
1.28968e-08
-1.2443e-08
2.78145e-08
-6.66444e-09
0.00027819
-0.000278154
1.37142e-08
-1.179e-08
2.50518e-08
-8.21046e-09
0.000278135
1.20262e-08
9.79845e-05
-9.80014e-05
-1.90567e-08
9.80199e-05
-9.79937e-05
1.20376e-08
9.79837e-05
-9.80007e-05
-1.90444e-08
9.8019e-05
-9.79928e-05
1.02121e-08
2.4779e-08
0.000278106
-7.34239e-09
-0.000278122
1.27081e-08
2.47256e-08
0.000278063
-7.35845e-09
-0.000278081
0.000270076
-1.27141e-06
-1.23477e-06
-0.000268049
2.35495e-07
2.43396e-07
0.000278165
-2.03642e-08
1.05173e-08
-0.000278128
-4.62942e-08
0.000278124
-2.27814e-08
1.07251e-08
-0.000278084
-4.63592e-08
-1.89045e-08
-7.08619e-09
-9.80118e-05
9.80378e-05
1.21474e-08
4.8969e-09
9.80028e-05
-1.87869e-08
-7.17552e-09
-9.80108e-05
9.80367e-05
1.22551e-08
4.84086e-09
9.80019e-05
1.2348e-06
1.19819e-06
0.00026805
-1.9953e-07
-2.07344e-07
-2.02352e-08
-4.59539e-08
-0.00027817
1.04555e-08
0.000278207
-2.27432e-08
-4.59558e-08
-0.000278126
1.07941e-08
0.000278165
1.03077e-08
-7.37717e-09
2.5084e-08
0.000278149
1.26965e-08
-7.26686e-09
2.50964e-08
0.000278106
-6.68426e-08
0.00022928
3.07663e-08
1.42549e-09
-0.000229246
2.40731e-08
0.000193551
-3.28308e-09
-0.000193566
-4.21963e-08
0.0001936
3.89415e-09
-0.000193568
3.18907e-08
0.00022923
-1.45148e-08
4.17718e-11
-0.000229248
-2.0244e-09
0.000250117
3.71737e-09
-1.90419e-07
-0.000249995
6.74703e-08
0.000245312
4.57118e-09
-0.000245349
0.00115254
2.69716e-09
-1.15301e-07
1.00245e-06
-7.63929e-07
8.24564e-07
-9.42879e-07
-0.00115259
-3.99641e-08
0.0011314
-9.85176e-08
-1.23471e-06
2.74296e-07
-2.43242e-07
-8.58215e-07
2.61481e-07
-2.17786e-07
9.05961e-07
0.000245381
-1.62885e-08
-0.000245328
-9.90008e-08
-4.68373e-09
0.0011525
-1.15446e-07
-9.42976e-07
8.24365e-07
-7.64033e-07
1.00223e-06
8.61084e-10
0.000249984
2.43753e-09
1.40153e-07
-0.000250096
0.000250144
3.50573e-09
-1.90538e-07
-0.000250026
-1.36082e-08
6.95235e-08
0.000245324
5.59378e-09
-0.000245361
0.0011527
-1.1556e-07
1.00554e-06
-7.63961e-07
8.24753e-07
-9.456e-07
-0.00115274
-3.77745e-08
0.00113185
1.2764e-06
-9.95231e-08
-8.63377e-07
2.64667e-07
9.11847e-07
-2.2019e-07
-1.2407e-06
2.76526e-07
-2.46683e-07
0.000245393
2.16716e-08
-1.51359e-08
-0.00024534
-1.01934e-07
0.00115265
-1.15765e-07
-9.45698e-07
8.2456e-07
-7.64059e-07
1.00532e-06
0.000250015
3.62383e-10
1.40119e-07
-0.000250123
-5.27917e-10
3.2228e-08
-1.47346e-08
1.38471e-09
0.000229226
-4.13585e-08
-0.000193568
2.47373e-09
0.000193599
2.46491e-08
-4.49877e-09
0.000193551
-7.22958e-10
-6.6384e-08
-0.000229241
3.04988e-08
2.59861e-09
0.000229275
3.21708e-08
-1.46935e-08
6.04451e-11
0.000229262
-4.18887e-08
6.42106e-09
-0.000193601
3.71631e-09
0.000193632
2.43241e-08
-5.54073e-09
-3.43367e-09
0.000193584
-6.6482e-08
-0.000229277
3.0555e-08
1.47092e-09
0.000229311
8.48962e-10
2.43357e-09
1.40448e-07
0.000250005
-3.99254e-08
-9.83623e-08
1.2712e-06
-2.43355e-07
2.74102e-07
9.05695e-07
-2.17988e-07
2.61213e-07
-8.58382e-07
-9.85718e-08
-0.000245359
-1.61603e-08
0.000245412
-0.00115246
-4.90615e-09
-1.16375e-07
-9.43169e-07
8.23988e-07
-7.6418e-07
1.0018e-06
0.00115242
4.63478e-09
6.78146e-08
0.000245344
2.45449e-09
-1.15978e-07
1.00199e-06
-7.64098e-07
-9.43082e-07
8.24146e-07
-2.0256e-09
-0.000250016
3.68019e-09
-1.89993e-07
0.000250137
3.1278e-10
1.40399e-07
0.000250036
-3.75041e-08
-1.24082e-06
-9.94568e-08
9.11603e-07
-2.20359e-07
-8.63526e-07
2.64424e-07
1.27615e-06
-2.46837e-07
2.76297e-07
2.16312e-08
-1.01506e-07
-0.000245371
-1.50529e-08
0.000245424
-0.00115262
-1.16756e-07
-9.45874e-07
8.24191e-07
-7.64198e-07
1.00492e-06
0.00115257
-1.36481e-08
5.66064e-09
6.98428e-08
0.000245355
-1.16329e-07
1.0051e-06
-7.64118e-07
-9.45785e-07
8.24346e-07
-0.000250047
3.47297e-09
-1.90108e-07
0.000250165
2.43363e-08
0.000278052
-1.10881e-08
-0.000278067
-1.48297e-08
2.50753e-08
0.000278157
-9.15483e-09
-0.000278168
0.000270106
-0.000268071
2.38737e-07
2.40174e-07
0.00027811
1.20286e-08
-0.000278073
-4.68816e-08
2.08582e-08
0.00027821
1.40069e-08
-0.000278179
-4.57914e-08
4.47113e-09
9.79895e-05
-9.80088e-05
9.80269e-05
-7.50725e-09
-9.79986e-05
-1.95535e-08
-9.80131e-05
9.80391e-05
1.16024e-08
9.80042e-05
1.20042e-06
0.000268072
-2.01763e-07
-2.05144e-07
-4.65099e-08
-0.000278115
1.2148e-08
0.000278151
2.06755e-08
-2.07243e-08
-4.54064e-08
-0.00027822
1.39641e-08
0.000278252
-1.09943e-08
2.46569e-08
0.000278094
-1.50089e-08
9.58487e-09
-9.15036e-09
2.54394e-08
0.000278199
-7.52e-09
-9.80163e-05
9.80445e-05
4.41138e-09
9.80075e-05
-2.08699e-09
0.000250131
3.91143e-09
-1.85348e-07
-0.000250014
6.73615e-08
0.000245327
4.65888e-09
-0.00024536
0.00115242
2.8138e-09
-1.15494e-07
1.00252e-06
-7.61172e-07
8.24707e-07
-9.40071e-07
-0.00115248
-3.98977e-08
0.00113251
-9.90194e-08
-1.19811e-06
2.71747e-07
-2.40638e-07
-8.60811e-07
2.64424e-07
-2.20434e-07
9.0884e-07
0.000245392
-1.61044e-08
-0.000245343
-9.9145e-08
-4.60204e-09
0.00115239
-1.15722e-07
-9.42841e-07
8.21752e-07
-7.64001e-07
9.99597e-07
1.47224e-09
0.000250004
1.77028e-09
1.34895e-07
-0.00025011
-6.69215e-08
0.000229238
2.86759e-08
1.66225e-09
-0.000229201
2.63195e-08
0.000193485
-3.78969e-09
-0.000193502
-4.41433e-08
0.000193536
3.36669e-09
-0.000193502
3.18655e-08
0.000229186
-1.24287e-08
6.14053e-10
-0.000229206
0.0002501
-1.88002e-07
3.53068e-09
-0.000249984
0.0011524
-1.15798e-07
1.00268e-06
-7.63862e-07
8.24798e-07
-9.42674e-07
-0.00115244
-1.31557e-08
6.70483e-08
0.000245259
7.62145e-09
-0.000245294
-3.80517e-08
0.0011315
1.27101e-06
-9.97092e-08
-8.60549e-07
2.6459e-07
9.08957e-07
-2.20126e-07
-1.2352e-06
2.76646e-07
-2.46569e-07
0.00115235
-1.15998e-07
-9.42745e-07
8.24567e-07
-7.6397e-07
1.00246e-06
0.000245325
2.2103e-08
-1.79388e-08
-0.000245274
-9.93358e-08
0.000249974
1.37447e-07
9.71155e-10
-0.000250079
3.2259e-08
-8.1352e-11
1.08124e-09
-1.26605e-08
0.000229253
-4.36341e-08
-0.000193588
3.01696e-09
0.000193622
2.6871e-08
-5.00265e-09
0.000193572
-6.64717e-08
-5.14227e-10
-0.000229269
2.35348e-09
2.84458e-08
0.000229305
1.47415e-09
1.75589e-09
1.35244e-07
0.000250025
-3.9852e-08
-9.88268e-08
1.23458e-06
-2.40766e-07
2.71553e-07
9.0857e-07
-2.20651e-07
2.64125e-07
-8.60984e-07
-9.86498e-08
-0.000245374
-1.60766e-08
0.000245423
-0.00115234
-4.69494e-09
-1.16625e-07
-9.43064e-07
8.21337e-07
-7.64166e-07
9.99168e-07
0.00115231
4.67002e-09
6.7728e-08
0.000245359
2.72247e-09
-1.16171e-07
1.00206e-06
-7.61369e-07
-9.40261e-07
8.24242e-07
-2.09083e-09
-0.000250035
3.89469e-09
-1.84855e-07
0.000250152
3.21973e-08
-1.26116e-08
6.13313e-10
0.000229217
-4.3821e-08
6.84603e-09
-0.000193535
3.18408e-09
0.000193569
2.65953e-08
-5.21248e-09
-3.97049e-09
0.000193518
-6.65129e-08
-0.000229233
2.84593e-08
1.67239e-09
0.000229269
1.37788e-07
9.45551e-10
0.000249995
-3.79019e-08
-1.2353e-06
-9.95697e-08
9.08692e-07
-2.20324e-07
-8.60715e-07
2.64313e-07
1.27079e-06
-2.46689e-07
2.76453e-07
-0.00115231
-1.16898e-07
-9.42972e-07
8.24155e-07
-7.64147e-07
1.00202e-06
0.00115227
2.2105e-08
-9.88493e-08
-0.000245306
-1.79063e-08
0.000245357
-1.165e-07
1.00222e-06
-7.64057e-07
-9.42863e-07
8.24335e-07
-1.31295e-08
7.61949e-09
6.74282e-08
0.00024529
-0.000250005
-1.87514e-07
3.50015e-09
0.000250121
-7.12033e-10
0.000229281
2.74e-09
3.06757e-08
-0.000229247
0.000193551
-5.1125e-09
-0.000193568
0.000193602
2.15018e-09
-0.000193568
-4.12537e-10
0.000229232
1.46656e-09
-1.45894e-08
-0.00022925
6.6708e-08
0.000250114
-1.85215e-07
3.46836e-09
-0.000250001
0.00115241
-1.15329e-07
9.99833e-07
-7.6396e-07
8.24643e-07
-9.40084e-07
-0.00115245
-2.43231e-08
6.73579e-08
0.000245307
5.08074e-09
-0.000245342
-3.86233e-08
0.00113131
-9.84176e-08
-1.22939e-06
2.71426e-07
-2.40533e-07
-8.58175e-07
2.61496e-07
-2.17747e-07
9.06019e-07
0.00115236
-1.15352e-07
-9.40233e-07
8.24395e-07
-7.64102e-07
9.99566e-07
4.17777e-08
0.000245372
-1.5799e-08
-0.000245322
-9.90567e-08
-3.18968e-08
0.000249991
1.3496e-07
8.26551e-10
-0.000250094
0.000229245
3.06828e-08
1.68055e-09
-0.000229211
-5.06288e-09
0.000193499
-3.97822e-09
-0.000193514
0.000193547
6.91244e-09
3.12551e-09
-0.000193515
0.000229196
-1.45503e-08
3.23811e-10
-0.000229214
-3.23138e-08
1.08417e-09
2.13503e-09
1.37962e-07
0.000250035
-4.0813e-08
-9.75546e-08
1.23767e-06
-2.37387e-07
2.69167e-07
9.05539e-07
-2.18255e-07
-8.58583e-07
2.60976e-07
4.33144e-08
-1.00645e-07
-0.000245416
-1.65363e-08
0.00024547
-0.00115239
-6.09306e-09
-1.15693e-07
-9.43359e-07
8.23851e-07
1.00166e-06
-7.64347e-07
0.00115236
-2.71192e-08
4.08265e-09
7.04162e-08
0.000245401
2.34057e-09
-1.1543e-07
1.00186e-06
-7.64228e-07
-9.43239e-07
8.24052e-07
6.625e-08
-2.49829e-09
-0.000250046
4.47756e-09
-1.8725e-07
0.000250165
-4.07974e-10
1.45609e-09
-1.47842e-08
0.000229263
-0.0001936
2.08444e-09
0.000193634
-5.21078e-09
0.000193584
-7.58209e-10
-0.000229278
2.70989e-09
3.04333e-08
0.000229312
-3.22514e-08
1.35327e-07
7.94409e-10
0.000250011
-3.84951e-08
-1.22945e-06
-9.81104e-08
9.0572e-07
-2.17976e-07
-8.5837e-07
2.61193e-07
1.26574e-06
-2.40659e-07
2.7124e-07
-0.00115232
0.00115227
-1.15958e-07
-9.40503e-07
8.23935e-07
-7.64318e-07
1.00178e-06
4.1455e-08
2.24573e-08
0.000245402
-9.85506e-08
-0.000245352
-1.57258e-08
-1.15717e-07
9.99291e-07
-7.642e-07
-9.40359e-07
8.24142e-07
-2.46054e-08
-1.2875e-08
5.09728e-09
6.77642e-08
0.000245337
6.62791e-08
0.000250133
-0.000250021
-1.84704e-07
3.6833e-09
-1.47487e-08
3.33977e-10
0.000229227
6.98577e-09
0.000193579
-0.000193547
3.00686e-09
-4.96068e-09
-4.10857e-09
0.000193531
0.000229275
-0.000229242
3.04515e-08
1.6937e-09
2.66503e-08
0.000278016
-7.56936e-09
-0.000278034
-1.23709e-08
2.73376e-08
0.000278112
-6.30648e-09
-0.00027813
0.000270053
-0.000268029
2.36032e-07
2.42812e-07
0.000278077
9.68118e-09
-0.000278038
-4.88889e-08
1.88107e-08
0.000278173
1.0472e-08
-0.000278133
-4.82951e-08
4.59614e-09
9.7977e-05
-9.7994e-05
9.80124e-05
-7.3432e-09
-9.79862e-05
-2.1398e-08
-9.79947e-05
9.80229e-05
1.42069e-08
9.79858e-05
1.19497e-06
0.00026803
-1.99203e-07
-2.07628e-07
-4.84595e-08
-0.000278079
9.85193e-09
0.000278119
1.86866e-08
-2.06234e-08
-4.79644e-08
-0.000278175
1.03583e-08
0.000278215
-7.40624e-09
2.70237e-08
0.000278059
-1.24815e-08
9.89549e-09
-6.38281e-09
2.76541e-08
0.000278154
-7.29757e-09
-9.80042e-05
9.80302e-05
4.60493e-09
9.79953e-05
6.66641e-08
0.000250128
-1.85138e-07
3.55424e-09
-0.000250015
0.0011523
-1.15027e-07
9.99793e-07
-7.61348e-07
8.21841e-07
-9.4011e-07
-0.00115234
-2.40187e-08
6.95599e-08
0.000245318
5.6299e-09
-0.000245356
-3.82954e-08
0.00113241
-9.88421e-08
-1.19565e-06
2.6865e-07
-2.38194e-07
-8.58117e-07
2.64518e-07
-2.20308e-07
9.06305e-07
0.00115225
-1.15136e-07
-9.40241e-07
8.21616e-07
-7.61449e-07
9.99556e-07
4.21064e-08
0.000245387
-1.51866e-08
-0.000245334
-1.01797e-07
-3.19445e-08
0.000250005
1.35016e-07
9.75339e-12
-0.000250107
-9.95726e-10
0.000229234
2.98976e-09
3.05835e-08
-0.0002292
0.0001935
-4.9945e-09
-0.000193515
0.000193549
2.15253e-09
-0.000193517
-8.09887e-10
0.000229184
1.65431e-09
-1.45843e-08
-0.000229202
0.000229269
1.16128e-09
2.85614e-08
-0.000229233
-5.71313e-09
0.000193536
-3.02928e-09
-0.000193551
0.000193584
6.41723e-09
3.83091e-09
-0.000193553
0.000229218
-6.17426e-11
-1.24152e-08
-0.000229238
4.71793e-10
-3.23112e-08
1.37977e-07
2.26427e-09
0.000249994
-4.10313e-08
-9.73567e-08
1.23215e-06
-2.37445e-07
2.69124e-07
9.05314e-07
-2.20964e-07
-8.58513e-07
2.63696e-07
-0.00115208
-5.21545e-09
-1.15502e-07
-9.37807e-07
8.18226e-07
9.95977e-07
-7.58894e-07
0.00115204
4.1253e-08
-1.00807e-07
-0.000245356
-1.64901e-08
0.000245412
2.15854e-09
-1.1516e-07
9.96174e-07
-7.58793e-07
-9.37696e-07
8.18417e-07
-2.4902e-08
4.22605e-09
7.04995e-08
0.000245341
-2.12619e-09
6.60945e-08
-0.000250004
-1.87076e-07
4.41954e-09
0.000250123
-3.22658e-08
1.35338e-07
-5.63606e-11
0.000250025
-3.7979e-08
-1.19577e-06
-9.86619e-08
9.06045e-07
-2.20499e-07
-8.5828e-07
2.64256e-07
1.2316e-06
-2.3838e-07
2.68405e-07
-0.00115221
-1.15944e-07
-9.40444e-07
8.21199e-07
-7.61618e-07
9.99126e-07
0.00115216
4.17778e-08
2.177e-08
0.000245417
-1.01341e-07
-0.000245364
-1.50794e-08
-1.15614e-07
9.99318e-07
-7.61527e-07
-9.40337e-07
8.21381e-07
-2.42843e-08
-1.36756e-08
5.7332e-09
6.99088e-08
0.000245349
6.62442e-08
-0.000250036
-1.84656e-07
3.51134e-09
0.000250148
-7.75917e-10
1.58086e-09
-1.47764e-08
0.000229216
-0.00019355
2.20854e-09
0.000193582
-4.97098e-09
0.000193534
-9.636e-10
-0.000229231
2.9429e-09
3.03382e-08
0.000229265
-6.39779e-11
-1.2606e-08
0.000229249
6.51265e-09
0.000193617
-0.000193585
3.64375e-09
-5.63967e-09
-3.15245e-09
0.000193569
-0.000229264
1.2096e-09
2.82889e-08
0.0002293
9.79767e-05
-9.79938e-05
9.80116e-05
-9.79856e-05
9.79803e-05
-9.79974e-05
9.80153e-05
-9.79893e-05
0.000268045
-2.02319e-07
-2.07279e-07
1.88469e-08
-4.8091e-08
-0.00027817
1.01873e-08
1.93775e-08
-4.62573e-08
-0.000278115
9.77688e-09
-1.22555e-08
-6.74177e-09
2.7492e-08
0.00027815
-1.15701e-08
-8.3008e-09
2.47489e-08
0.000278095
9.80289e-05
-9.80031e-05
9.79944e-05
9.80327e-05
-9.80068e-05
9.79981e-05
1.00149e-06
-7.64454e-07
8.23583e-07
-9.4339e-07
1.51729e-09
-1.15984e-07
-2.48709e-08
6.81468e-08
5.14713e-09
0.000245367
-3.25999e-08
0.000250028
1.35683e-07
1.98557e-09
3.74507e-10
-4.88683e-09
-4.21833e-09
0.000193563
0.000229256
-1.49449e-08
3.46913e-10
5.58956e-10
-2.45635e-08
7.02532e-08
0.00024538
5.80157e-09
-5.53378e-09
0.000193601
-3.33819e-09
9.80116e-05
9.80154e-05
-1.25174e-09
1.57623e-08
0.000143271
-1.81716e-11
-0.000143286
-0.000170996
1.44783e-10
-4.92987e-10
0.000171027
-0.000223209
2.95946e-08
4.70926e-09
0.000223244
-6.59524e-08
-1.4649e-08
1.39852e-09
-0.000229228
-6.8596e-10
3.20782e-08
-0.000171012
-5.16821e-10
1.16415e-09
-0.000223227
3.37624e-08
1.94298e-09
0.000143299
-2.5749e-08
-7.92097e-05
7.92374e-05
-1.95457e-09
2.4694e-09
0.000193549
7.10111e-09
-4.1754e-08
0.000263043
-1.99515e-08
-1.18215e-09
3.29328e-08
-0.000263059
0.000263081
-4.74165e-09
-5.69027e-08
1.09736e-11
-7.92297e-05
1.99806e-08
7.92174e-05
-0.000263064
2.57099e-08
0.000263103
-5.67403e-08
-4.4933e-09
-4.89477e-09
2.45277e-08
3.30747e-08
7.92451e-05
-1.58814e-10
-2.96719e-08
-0.000143258
3.08027e-08
2.66029e-09
-6.46133e-10
-6.69272e-08
0.000170981
1.26429e-09
-5.21596e-10
-0.000170996
0.000223193
-1.56985e-08
3.36315e-08
-0.00022321
-4.99912e-10
-6.61402e-08
-0.000143272
9.80123e-05
-6.26163e-09
-1.99261e-08
5.59306e-09
1.14893e-08
1.37252e-08
-1.02932e-09
0.000143341
5.44545e-11
-0.000143354
-0.000223293
2.76688e-08
4.44176e-09
0.00022333
-6.62123e-08
-0.000171029
-5.05983e-11
-2.73963e-10
0.000171058
8.50804e-10
-1.25539e-08
-0.00022926
-2.32148e-10
3.45029e-08
9.90512e-10
-0.000223316
3.62131e-08
-0.000171043
-1.85683e-10
1.6237e-09
0.000143367
-2.37483e-08
-7.92558e-05
7.92812e-05
-1.60394e-09
3.24749e-09
0.000193572
7.02803e-09
-4.4102e-08
0.000263153
-1.76991e-08
-9.80821e-10
3.53857e-08
-0.000263174
0.000263196
-4.43927e-09
-5.95664e-08
-3.43311e-11
-7.92735e-05
1.77627e-08
7.92635e-05
-0.000263175
2.36677e-08
0.000263218
-5.9375e-08
-4.92812e-09
-4.88819e-09
2.67178e-08
3.55296e-08
7.92888e-05
-2.77238e-08
4.90986e-11
-0.000143328
2.61193e-09
2.8776e-08
-3.86474e-10
-6.95389e-08
0.000223277
-1.36663e-08
3.36724e-08
-0.000223297
0.000171014
1.02526e-09
-1.72619e-10
-0.000171027
-6.88117e-08
-2.64394e-10
-0.000143341
9.79962e-05
-6.66551e-09
-2.18192e-08
5.2748e-09
1.40799e-08
-7.73927e-09
-7.1373e-09
0.000213694
1.11782e-08
1.38873e-08
-0.000213704
-8.05263e-05
-1.16291e-08
-1.20744e-08
8.055e-05
-8.05147e-05
-1.22019e-08
-1.1542e-08
8.05385e-05
9.43579e-09
-8.05435e-05
1.00521e-08
-8.05319e-05
-2.39906e-08
-2.55401e-08
0.00021372
-3.44867e-08
3.17459e-08
-0.000221842
0.000221878
2.40764e-08
-5.72783e-08
0.000250605
-1.74043e-08
6.19822e-08
3.15303e-08
-0.000250654
-4.87148e-08
1.00886e-08
0.00027815
1.91937e-08
-2.25193e-08
0.000182988
1.77804e-08
-9.44776e-09
-0.000183004
0.000250666
-9.40919e-08
-5.03828e-08
0.000183018
1.20758e-08
-1.11131e-08
3.36179e-08
-0.000221864
-3.39964e-08
3.01925e-08
-0.00022178
0.000221816
2.56585e-08
-5.79028e-08
0.000250508
-1.79891e-08
6.65775e-08
3.20341e-08
-0.000250564
-4.68113e-08
9.71545e-09
0.000278093
1.97297e-08
-2.19023e-08
0.000182942
1.54381e-08
-1.00427e-08
-0.000182955
0.000250577
-9.93111e-08
-4.99887e-08
0.00018297
1.15443e-08
-1.37874e-08
3.34527e-08
-0.000221803
1.74759e-08
-1.7904e-08
0.000221856
3.37891e-08
-0.000183003
-3.15871e-08
0.000183033
2.7294e-08
-6.78426e-09
-1.21442e-08
1.28717e-08
-0.000250617
3.4397e-08
0.000250679
-9.38143e-08
-5.02945e-08
6.22167e-08
3.16047e-08
0.000221892
-5.70427e-08
1.81109e-08
-1.55364e-08
0.000221794
3.35732e-08
-0.000182956
-3.00722e-08
0.000182984
2.45783e-08
-8.32012e-09
-1.1466e-08
1.36364e-08
-0.000250521
3.38618e-08
0.000250589
-9.90881e-08
-4.9848e-08
6.67519e-08
3.21725e-08
0.00022183
-5.77189e-08
1.16892e-08
1.22541e-08
-0.000213679
8.05197e-05
7.69136e-09
-8.05369e-05
8.05081e-05
7.11093e-09
-8.05253e-05
-0.000213689
-0.000221896
-3.40726e-08
3.11417e-08
2.36988e-08
-5.63607e-08
-1.77271e-08
0.000250653
-0.000250703
6.28645e-08
3.18689e-08
1.83006e-08
0.000183045
-9.4266e-09
-0.000183061
-4.78609e-08
1.02051e-08
1.87274e-08
-2.24103e-08
-1.13968e-08
-0.000221918
3.43423e-08
-9.2975e-08
-4.99545e-08
1.20496e-08
-0.000221835
-3.34265e-08
2.9641e-08
2.51863e-08
-5.71383e-08
-1.84923e-08
0.000250557
-0.000250613
6.73018e-08
3.25443e-08
1.58632e-08
0.000182999
-1.00297e-08
-0.000183013
-4.60261e-08
9.79947e-09
1.92323e-08
-2.17299e-08
-1.41866e-08
-0.000221857
3.40002e-08
-9.83351e-08
-4.94248e-08
1.15033e-08
-0.00021374
1.14695e-08
1.20517e-08
7.86035e-09
8.05455e-05
-8.05628e-05
7.25854e-09
8.0534e-05
-8.05513e-05
-0.00021375
9.80107e-05
-1.91134e-08
1.20827e-08
9.80099e-05
-1.91524e-08
1.21371e-08
-7.42244e-09
-7.51317e-09
0.000213697
1.34691e-08
1.13842e-08
-0.000213707
-8.05278e-05
-1.19796e-08
-1.18448e-08
8.05516e-05
-8.05143e-05
-1.18156e-08
-1.20238e-08
8.05382e-05
9.64916e-09
-8.05449e-05
9.57723e-09
-8.05314e-05
-2.58334e-08
-2.39393e-08
0.000213723
2.99054e-08
-3.44798e-08
-0.000221843
0.000221879
2.59483e-08
-5.7636e-08
0.000250602
-1.74382e-08
6.69502e-08
2.87752e-08
-0.000250656
1.05288e-08
-4.64536e-08
0.000278144
-2.04249e-08
0.00018299
1.57675e-08
-9.62442e-09
-0.000183003
0.000183018
1.18636e-08
0.000250668
-9.91616e-08
-4.80327e-08
-1.33755e-08
3.3672e-08
-0.000221865
2.99118e-08
-3.45659e-08
-0.000221777
0.000221818
2.40226e-08
-5.99011e-08
0.000250511
-1.74641e-08
6.68125e-08
3.39409e-08
-0.00025057
1.06674e-08
-4.6549e-08
0.000278103
-2.27855e-08
0.00018294
1.57302e-08
-9.58698e-09
-0.000182954
0.000182969
1.20065e-08
0.000250583
-9.92142e-08
-5.3169e-08
-1.132e-08
3.58381e-08
-0.000221804
-1.58686e-08
0.000221857
1.75392e-08
3.38072e-08
-0.000183005
-2.97942e-08
0.000183033
-7.36001e-09
2.49306e-08
1.02529e-08
3.4365e-08
-0.000250615
0.000250681
-9.89471e-08
-4.79262e-08
0.000221893
-5.74488e-08
6.71249e-08
2.88681e-08
-1.58587e-08
0.000221792
1.75392e-08
3.59932e-08
-0.000182955
-2.97708e-08
0.000182983
-7.31599e-09
2.49095e-08
1.26919e-08
3.44792e-08
-0.000250524
0.000250595
-9.89692e-08
-5.3087e-08
0.000221832
-5.96918e-08
6.70233e-08
3.40093e-08
1.20163e-08
1.18875e-08
-0.000213681
8.0521e-05
7.40712e-09
-8.0538e-05
8.05075e-05
7.46324e-09
-8.05246e-05
-0.000213691
-9.80289e-05
1.21925e-08
4.89556e-09
-1.89724e-08
-7.08735e-09
-9.80279e-05
1.23543e-08
4.78559e-09
-1.88999e-08
-7.13096e-09
-0.000213713
1.19571e-08
1.17591e-08
-2.5718e-08
-2.38493e-08
0.000213739
7.44348e-09
8.05345e-05
9.66489e-09
7.56871e-09
8.0521e-05
9.55842e-09
1.35752e-08
1.14631e-08
-1.18078e-08
8.05583e-05
-1.20203e-08
8.05448e-05
-1.60441e-08
1.77657e-08
0.000221885
-0.000221907
-1.36638e-08
3.4073e-08
-0.00025064
3.4104e-08
-9.84901e-08
-4.76933e-08
0.000250706
-7.3914e-09
2.52119e-08
-0.000278186
1.03538e-08
-0.000183034
-2.95455e-08
1.17711e-08
0.000183062
-0.000183048
-9.67186e-09
-0.000250694
6.74647e-08
2.90724e-08
2.56095e-08
-5.70983e-08
0.000221921
-1.60964e-08
1.77125e-08
0.00022182
-0.000221846
-1.15213e-08
3.63095e-08
-0.000250549
3.42792e-08
-9.8473e-08
-5.28808e-08
0.00025062
-7.21724e-09
2.52573e-08
-0.000278145
1.26965e-08
-0.000182984
-2.94599e-08
1.20153e-08
0.000183013
-0.000182998
-9.53318e-09
-0.000250608
6.74139e-08
3.41925e-08
2.37784e-08
-5.92826e-08
0.00022186
-0.000221871
2.96744e-08
-3.42262e-08
-5.72627e-08
1.59664e-08
0.000183019
-1.76621e-08
0.000250627
6.7313e-08
2.89838e-08
1.04802e-08
-4.6107e-08
-2.02962e-08
3.39588e-08
-9.86996e-08
-4.78029e-08
-0.000221806
2.96209e-08
-3.43653e-08
-5.94823e-08
1.59881e-08
0.00018297
-1.76395e-08
0.000250537
6.72428e-08
3.41098e-08
1.0753e-08
-4.61381e-08
-2.27568e-08
3.61674e-08
-9.86923e-08
-5.29708e-08
-7.45659e-09
-7.6149e-09
0.000213729
-8.05412e-05
-1.19282e-08
8.05649e-05
-8.05277e-05
-1.16979e-08
8.05514e-05
0.000213754
-2.72399e-10
1.36247e-08
0.000143341
-5.93305e-10
-0.000143353
-0.00017103
-7.40989e-10
0.000171061
-0.000223293
2.78027e-08
3.50586e-09
0.000223331
-6.87549e-08
-1.46071e-08
-1.60655e-10
-0.000229264
3.20281e-08
-0.000171046
8.55279e-11
-0.000223315
3.60286e-08
1.01594e-09
0.000143367
-2.434e-08
-7.92544e-05
7.92798e-05
-9.88134e-10
3.96176e-09
0.000193583
-4.23366e-08
0.000263149
-1.70593e-08
-8.86459e-11
3.50697e-08
-0.00026317
0.000263192
-3.51441e-09
-5.987e-08
6.20485e-10
-7.92721e-05
1.71354e-08
7.9262e-05
-0.000263171
2.4247e-08
0.000263213
-5.96965e-08
-3.35242e-09
2.41864e-08
3.52086e-08
7.92873e-05
7.79575e-10
-2.78933e-08
-0.000143327
3.08672e-08
1.63943e-09
-6.70213e-08
0.000171014
2.46138e-10
-0.00017103
0.000223276
-1.35495e-08
3.58939e-08
-0.000223298
-6.89353e-08
-0.00014334
-0.000143285
-1.27832e-10
-2.94844e-08
1.93337e-09
0.000143312
1.24278e-09
0.000171012
-4.86808e-10
-1.58301e-08
0.000223226
1.14146e-09
3.39155e-08
3.05849e-08
2.62222e-09
0.000229259
-6.12603e-10
-6.65414e-08
-1.9233e-11
0.000171043
-4.50084e-10
4.68607e-09
0.00022326
-6.57563e-08
7.92325e-05
2.00514e-08
-7.92526e-05
2.40796e-11
-4.49997e-09
-0.000193583
2.47548e-08
2.56003e-08
-0.000263108
-4.65754e-09
-5.64077e-08
0.000263146
-1.91959e-09
7.92601e-05
-0.000263124
-1.12702e-09
3.33517e-08
-7.9225e-05
-2.56388e-08
-2.0022e-08
0.000263086
3.32094e-08
2.46658e-09
-4.14724e-08
-5.65635e-08
0.000143298
-1.2298e-09
1.58919e-08
-1.47992e-08
1.36353e-09
-6.40894e-10
3.23548e-08
1.04417e-10
-0.000171027
-4.12526e-10
0.000171058
2.94141e-08
-0.000223242
-6.55868e-08
0.000223276
0.000143325
-4.52121e-10
3.40458e-08
-0.000143354
6.9243e-10
-2.767e-08
1.05921e-09
0.00014338
3.20552e-10
0.000171046
-1.37143e-08
0.000223309
9.78298e-11
3.61794e-08
3.06477e-08
1.6615e-09
0.000229295
-6.66426e-08
-5.46814e-10
0.000171077
3.52595e-09
0.000223348
-6.85512e-08
1.73241e-08
7.92769e-05
-7.92947e-05
4.8782e-10
-3.52583e-09
-0.000193616
-5.48045e-09
2.44528e-08
-0.000263213
2.402e-08
-3.55958e-09
-5.93143e-08
0.000263256
-0.000263235
-1.2844e-10
3.55318e-08
-1.10558e-09
7.9302e-05
-7.92695e-05
-2.41192e-08
-1.7233e-08
0.000263192
3.53702e-08
3.80343e-09
6.36065e-09
-4.20305e-08
-5.94962e-08
-3.74431e-10
1.37895e-08
0.000143367
-1.47798e-08
-1.20364e-10
3.23107e-08
-0.000171061
-6.36927e-10
0.000171092
-0.000223325
2.75738e-08
-6.83902e-08
0.000223364
3.63152e-08
0.000143393
-6.92747e-09
-8.03093e-09
0.000213703
1.41988e-08
1.0801e-08
-0.000213713
-8.05163e-05
-1.24907e-08
-1.13097e-08
8.05401e-05
-8.05303e-05
-1.13691e-08
-1.24141e-08
8.05541e-05
1.01927e-08
-8.05334e-05
9.10781e-09
-8.05475e-05
-2.52986e-08
-2.44573e-08
0.000213729
3.06423e-08
-3.6156e-08
-0.000221782