/*--------------------------------*- C++ -*----------------------------------*\
| =========                 |                                                 |
| \\      /  F ield         | OpenFOAM: The Open Source CFD Toolbox           |
|  \\    /   O peration     | Version:  v1906                                 |
|   \\  /    A nd           | Web:      www.OpenFOAM.com                      |
|    \\/     M anipulation  |                                                 |
\*---------------------------------------------------------------------------*/
FoamFile
{
    version     2.0;
    format      ascii;
    class       volScalarField;
    location    "750";
    object      k;
}
// * * * * * * * * * * * * * * * * * * * * * * * * * * * * * * * * * * * * * //

dimensions      [0 2 -2 0 0 0 0];


internalField   nonuniform List<scalar> 
42840
(
3.83841e-05
5.11092e-05
5.11097e-05
5.33008e-05
5.34985e-05
5.3301e-05
5.34319e-05
5.11069e-05
5.11073e-05
5.12931e-05
5.12935e-05
5.32907e-05
5.34408e-05
5.11072e-05
5.11063e-05
5.12933e-05
5.12924e-05
5.1109e-05
5.12955e-05
5.12951e-05
5.32904e-05
5.3434e-05
5.1109e-05
5.12958e-05
5.12951e-05
5.34335e-05
5.1355e-05
5.1355e-05
6.85109e-05
7.33551e-05
7.33796e-05
6.84827e-05
7.1115e-05
7.11411e-05
6.85153e-05
7.33597e-05
7.33861e-05
6.84867e-05
3.83847e-05
3.83877e-05
3.83882e-05
3.86998e-05
3.87003e-05
3.87033e-05
3.87038e-05
6.05227e-05
6.46929e-05
4.6328e-05
5.11725e-05
6.47237e-05
4.64077e-05
6.04776e-05
7.11134e-05
7.11397e-05
6.05226e-05
4.63294e-05
6.46934e-05
5.1173e-05
4.64091e-05
6.47246e-05
6.04741e-05
6.98619e-05
6.98735e-05
5.3335e-05
6.98807e-05
6.98924e-05
6.9917e-05
6.99283e-05
7.1113e-05
7.1139e-05
7.11155e-05
7.11416e-05
6.98629e-05
6.98725e-05
5.33347e-05
6.98809e-05
6.98914e-05
7.11665e-05
7.11408e-05
7.11691e-05
7.11433e-05
5.33993e-05
6.99083e-05
6.99187e-05
6.98912e-05
6.99008e-05
6.8513e-05
7.33599e-05
7.33845e-05
6.84847e-05
6.05217e-05
6.4691e-05
4.63248e-05
5.11701e-05
6.47223e-05
4.64045e-05
6.04729e-05
6.05232e-05
6.46952e-05
4.6326e-05
5.11706e-05
6.47265e-05
4.64058e-05
6.04744e-05
6.85149e-05
7.34092e-05
7.33851e-05
6.85419e-05
6.85169e-05
7.34145e-05
7.33899e-05
6.8544e-05
6.05298e-05
5.12326e-05
6.47578e-05
4.65595e-05
6.47283e-05
4.64833e-05
6.05757e-05
6.05313e-05
5.12331e-05
6.47623e-05
4.65609e-05
6.47326e-05
4.64846e-05
6.05773e-05
6.98721e-05
6.98606e-05
5.33449e-05
6.98909e-05
6.98782e-05
7.11116e-05
7.11378e-05
7.11685e-05
7.11428e-05
5.33889e-05
6.99183e-05
6.99055e-05
6.99004e-05
6.98889e-05
7.11652e-05
7.11394e-05
6.05245e-05
6.46954e-05
4.6327e-05
5.11702e-05
6.47266e-05
4.64068e-05
6.04756e-05
6.8513e-05
7.33542e-05
7.33806e-05
6.84844e-05
6.05224e-05
4.63269e-05
6.46899e-05
5.11696e-05
4.64066e-05
6.47203e-05
6.04735e-05
6.85189e-05
7.34156e-05
7.33898e-05
6.85462e-05
6.05324e-05
5.1233e-05
6.47624e-05
4.65619e-05
6.47328e-05
4.64856e-05
6.05786e-05
6.85167e-05
7.34102e-05
7.33842e-05
6.8544e-05
6.05303e-05
5.12321e-05
4.65616e-05
6.47561e-05
4.64855e-05
6.47272e-05
6.05765e-05
6.85134e-05
7.33595e-05
7.33839e-05
6.84864e-05
6.05227e-05
4.63281e-05
6.46913e-05
5.11722e-05
4.64077e-05
6.47223e-05
6.0474e-05
6.85117e-05
7.33552e-05
7.33817e-05
6.84836e-05
6.05343e-05
5.1235e-05
6.47595e-05
4.65628e-05
6.47302e-05
4.64866e-05
6.05767e-05
6.85175e-05
7.34139e-05
7.33894e-05
6.85444e-05
6.05307e-05
5.12348e-05
4.65627e-05
6.4758e-05
4.64866e-05
6.47285e-05
6.05767e-05
6.85158e-05
7.34113e-05
7.33853e-05
6.85427e-05
6.98662e-05
6.9863e-05
5.33444e-05
6.98837e-05
6.98819e-05
7.1114e-05
7.11401e-05
7.11671e-05
7.11411e-05
5.33882e-05
6.99111e-05
6.99091e-05
6.98945e-05
6.98913e-05
7.11675e-05
7.11417e-05
6.05239e-05
4.63297e-05
6.46964e-05
5.11721e-05
4.64093e-05
6.47277e-05
6.04751e-05
6.85112e-05
7.33575e-05
7.3382e-05
6.84833e-05
6.85137e-05
7.33594e-05
7.33858e-05
6.84856e-05
6.05309e-05
5.12355e-05
4.6564e-05
6.47604e-05
4.64879e-05
6.47306e-05
6.05765e-05
6.05319e-05
5.12348e-05
4.65643e-05
6.47633e-05
4.64882e-05
6.47338e-05
6.05778e-05
6.85155e-05
7.3412e-05
7.33874e-05
6.8542e-05
6.85178e-05
7.34153e-05
7.33894e-05
6.85445e-05
7.11131e-05
7.11392e-05
7.1116e-05
7.11421e-05
5.33992e-05
6.9908e-05
6.99198e-05
6.98902e-05
6.99015e-05
7.11667e-05
7.11409e-05
7.11695e-05
7.11437e-05
4.66384e-05
6.4764e-05
6.05842e-05
7.34147e-05
6.85463e-05
6.47692e-05
7.34198e-05
7.11682e-05
7.11711e-05
7.17877e-05
7.15693e-05
7.15387e-05
6.84989e-05
7.15566e-05
7.15271e-05
7.18018e-05
7.16285e-05
7.33646e-05
7.96983e-05
7.97023e-05
7.16135e-05
7.16271e-05
7.97155e-05
7.33701e-05
7.97115e-05
7.1642e-05
7.17872e-05
6.84948e-05
7.1542e-05
7.15124e-05
7.15544e-05
7.1524e-05
7.17728e-05
7.11272e-05
7.11289e-05
7.17907e-05
7.15467e-05
7.15713e-05
6.85028e-05
7.15343e-05
7.15588e-05
7.18045e-05
7.16305e-05
7.33712e-05
7.97156e-05
7.97242e-05
7.1616e-05
7.16295e-05
7.97373e-05
7.33748e-05
7.97289e-05
7.16441e-05
7.17899e-05
6.84992e-05
7.15197e-05
7.15441e-05
7.1532e-05
7.15563e-05
7.17758e-05
7.11258e-05
7.11273e-05
9.49271e-05
7.34526e-05
7.34462e-05
7.34389e-05
7.34326e-05
9.49298e-05
7.40742e-05
6.51191e-05
6.98665e-05
7.31882e-05
6.51328e-05
7.32006e-05
7.40694e-05
7.41225e-05
6.51278e-05
6.9878e-05
7.31999e-05
6.51425e-05
7.32103e-05
7.41177e-05
7.40867e-05
7.32147e-05
6.98762e-05
6.5156e-05
6.51425e-05
7.32035e-05
7.40912e-05
7.41345e-05
7.32253e-05
6.98875e-05
6.51655e-05
6.51512e-05
7.32133e-05
7.41397e-05
9.49151e-05
7.34261e-05
7.34198e-05
7.34398e-05
7.34335e-05
9.49123e-05
7.41398e-05
6.52091e-05
7.32472e-05
6.99216e-05
7.41359e-05
6.52214e-05
7.32559e-05
7.41875e-05
6.52179e-05
7.32559e-05
6.99334e-05
7.41837e-05
6.52308e-05
7.32686e-05
9.49722e-05
7.34768e-05
7.34705e-05
9.497e-05
7.34903e-05
7.3484e-05
7.11252e-05
7.11269e-05
7.11278e-05
7.11294e-05
9.49267e-05
7.34529e-05
7.34461e-05
7.34392e-05
7.34324e-05
9.49293e-05
7.40754e-05
6.51191e-05
6.98668e-05
7.31907e-05
7.32e-05
6.5134e-05
7.40711e-05
7.41215e-05
6.51274e-05
6.98771e-05
7.31985e-05
7.3211e-05
6.51419e-05
7.41167e-05
7.40883e-05
7.32145e-05
6.98772e-05
6.51571e-05
7.32052e-05
7.40924e-05
6.51425e-05
7.4134e-05
7.32254e-05
6.98868e-05
6.5165e-05
7.32131e-05
7.41384e-05
6.51508e-05
9.49147e-05
7.34264e-05
7.34196e-05
7.34401e-05
7.34334e-05
9.49119e-05
7.11545e-05
7.11528e-05
7.1157e-05
7.11554e-05
9.49437e-05
7.34519e-05
7.34452e-05
9.49412e-05
7.34655e-05
7.34588e-05
7.41216e-05
6.52013e-05
6.99049e-05
7.32431e-05
7.32341e-05
6.51876e-05
7.41253e-05
7.41672e-05
6.52092e-05
6.99144e-05
7.32541e-05
7.32417e-05
6.51958e-05
7.41712e-05
7.4109e-05
7.32198e-05
6.51653e-05
6.98949e-05
7.41051e-05
7.32291e-05
6.51794e-05
7.41549e-05
7.32276e-05
6.51736e-05
6.99052e-05
7.41508e-05
7.32397e-05
6.51873e-05
9.49555e-05
7.34781e-05
7.34714e-05
7.34646e-05
7.34578e-05
9.49579e-05
7.17923e-05
7.15699e-05
7.15467e-05
6.85009e-05
7.15573e-05
7.15344e-05
7.18018e-05
7.16303e-05
7.33695e-05
7.97171e-05
7.97256e-05
7.16157e-05
7.16293e-05
7.97388e-05
7.33749e-05
7.97303e-05
7.16438e-05
7.17873e-05
6.84969e-05
7.15426e-05
7.15198e-05
7.15549e-05
7.1532e-05
7.17776e-05
7.18163e-05
7.15718e-05
7.15418e-05
6.85266e-05
7.18023e-05
7.15843e-05
7.15531e-05
7.16539e-05
7.33999e-05
7.97411e-05
7.16688e-05
7.97372e-05
7.16555e-05
7.97246e-05
7.33946e-05
7.16406e-05
7.97285e-05
7.18169e-05
6.85305e-05
7.15992e-05
7.15672e-05
7.18305e-05
7.15867e-05
7.15561e-05
7.18163e-05
7.15724e-05
7.15492e-05
6.85287e-05
7.18067e-05
7.15848e-05
7.15612e-05
7.16561e-05
7.34046e-05
7.97643e-05
7.97562e-05
7.16706e-05
7.16572e-05
7.97434e-05
7.33996e-05
7.16427e-05
7.97516e-05
7.18214e-05
6.85325e-05
7.15998e-05
7.15755e-05
7.15873e-05
7.15636e-05
7.18308e-05
9.49252e-05
7.34462e-05
7.34519e-05
7.34324e-05
7.34382e-05
9.49275e-05
7.41217e-05
6.51265e-05
6.98767e-05
7.31982e-05
7.32107e-05
6.51401e-05
7.41159e-05
7.40746e-05
6.51207e-05
6.98639e-05
7.31896e-05
6.51329e-05
7.31989e-05
7.40701e-05
7.41331e-05
7.32252e-05
6.98863e-05
6.51631e-05
7.32128e-05
6.51499e-05
7.41385e-05
7.40873e-05
7.32133e-05
6.98749e-05
6.5156e-05
6.51441e-05
7.32041e-05
7.40916e-05
9.49128e-05
7.34196e-05
7.34254e-05
7.34334e-05
7.34392e-05
9.49105e-05
7.11239e-05
7.11255e-05
7.11565e-05
7.11549e-05
9.49421e-05
7.34452e-05
7.3451e-05
9.49397e-05
7.34588e-05
7.34646e-05
7.41663e-05
6.52074e-05
6.99139e-05
7.32538e-05
6.51949e-05
7.32414e-05
7.41715e-05
7.41206e-05
6.52003e-05
6.99026e-05
7.32419e-05
7.3233e-05
6.51891e-05
7.41245e-05
7.41554e-05
7.32273e-05
6.51727e-05
6.99048e-05
6.51855e-05
7.415e-05
7.32395e-05
7.41081e-05
7.32187e-05
6.51668e-05
6.9892e-05
7.41041e-05
7.3228e-05
6.51784e-05
9.4954e-05
7.34714e-05
7.34772e-05
7.34578e-05
7.34636e-05
9.49563e-05
7.11531e-05
7.11516e-05
7.17882e-05
7.15704e-05
7.15384e-05
6.85006e-05
7.15579e-05
7.15267e-05
7.18023e-05
7.16279e-05
7.33656e-05
7.96964e-05
7.97008e-05
7.16129e-05
7.16265e-05
7.97141e-05
7.33693e-05
7.97098e-05
7.16414e-05
7.17877e-05
6.84969e-05
7.15433e-05
7.1512e-05
7.15555e-05
7.15237e-05
7.17734e-05
7.18191e-05
7.15491e-05
7.15739e-05
6.8531e-05
7.18054e-05
7.15611e-05
7.15863e-05
7.16564e-05
7.34045e-05
7.97629e-05
7.16708e-05
7.97546e-05
7.16575e-05
7.97418e-05
7.34008e-05
7.1643e-05
7.97502e-05
7.18198e-05
6.85344e-05
7.15754e-05
7.16009e-05
7.18335e-05
7.15633e-05
7.15887e-05
7.18168e-05
7.1573e-05
7.15415e-05
6.85288e-05
7.18028e-05
7.15855e-05
7.15529e-05
7.16533e-05
7.3399e-05
7.97395e-05
7.97356e-05
7.16682e-05
7.16549e-05
7.97227e-05
7.33954e-05
7.16399e-05
7.97267e-05
7.18172e-05
6.85322e-05
7.16001e-05
7.1567e-05
7.15878e-05
7.15558e-05
7.18312e-05
7.17928e-05
7.15451e-05
7.15706e-05
6.85015e-05
7.15361e-05
7.1558e-05
7.18022e-05
7.16303e-05
7.3369e-05
7.97152e-05
7.97237e-05
7.16157e-05
7.16293e-05
7.97367e-05
7.33745e-05
7.97285e-05
7.16438e-05
7.17877e-05
6.84969e-05
7.15213e-05
7.15433e-05
7.15306e-05
7.15557e-05
7.17781e-05
7.17912e-05
7.157e-05
7.15406e-05
6.84997e-05
7.15574e-05
7.15284e-05
7.18007e-05
7.16287e-05
7.33668e-05
7.96963e-05
7.9705e-05
7.16141e-05
7.16277e-05
7.97181e-05
7.33703e-05
7.97096e-05
7.16422e-05
7.17862e-05
6.84957e-05
7.15428e-05
7.15138e-05
7.15551e-05
7.1526e-05
7.17766e-05
7.18167e-05
7.15506e-05
7.15731e-05
6.85292e-05
7.18072e-05
7.15596e-05
7.15856e-05
7.16562e-05
7.34041e-05
7.97622e-05
7.97544e-05
7.16706e-05
7.16572e-05
7.97415e-05
7.3399e-05
7.16428e-05
7.97496e-05
7.18218e-05
6.8533e-05
7.15736e-05
7.16003e-05
7.15648e-05
7.15879e-05
7.18312e-05
7.18152e-05
7.15725e-05
7.15431e-05
6.85274e-05
7.18056e-05
7.1585e-05
7.15551e-05
7.16546e-05
7.34e-05
7.97436e-05
7.97355e-05
7.1669e-05
7.16556e-05
7.97226e-05
7.33965e-05
7.16412e-05
7.9731e-05
7.18203e-05
6.85313e-05
7.15997e-05
7.15693e-05
7.15873e-05
7.15575e-05
7.18297e-05
9.49291e-05
7.34462e-05
7.34528e-05
7.34325e-05
7.34391e-05
9.49321e-05
7.41206e-05
6.51254e-05
6.98695e-05
7.31981e-05
7.32074e-05
6.5137e-05
7.4116e-05
7.40769e-05
6.51208e-05
6.98676e-05
7.3189e-05
6.51353e-05
7.32016e-05
7.40712e-05
7.41333e-05
7.32219e-05
6.98805e-05
6.51601e-05
7.32126e-05
6.51488e-05
7.41377e-05
7.40886e-05
7.3216e-05
6.98773e-05
6.51584e-05
6.51442e-05
7.32036e-05
7.4094e-05
9.49174e-05
7.34197e-05
7.34263e-05
7.34334e-05
7.34401e-05
9.49142e-05
7.11262e-05
7.11279e-05
7.11549e-05
7.11534e-05
9.49465e-05
7.34452e-05
7.34518e-05
9.49437e-05
7.34589e-05
7.34655e-05
7.41666e-05
6.52042e-05
6.99082e-05
7.32505e-05
6.51937e-05
7.32415e-05
7.41705e-05
7.41217e-05
6.52024e-05
6.99049e-05
7.32447e-05
7.32322e-05
6.5189e-05
7.41268e-05
7.41543e-05
7.32272e-05
6.51715e-05
6.98976e-05
6.51824e-05
7.41501e-05
7.32365e-05
7.41107e-05
7.32181e-05
6.51669e-05
6.98957e-05
7.41053e-05
7.32303e-05
6.51806e-05
9.4958e-05
7.34715e-05
7.34781e-05
7.34578e-05
7.34645e-05
9.49607e-05
7.11555e-05
7.11538e-05
7.17887e-05
7.15393e-05
7.15687e-05
6.84995e-05
7.15275e-05
7.15592e-05
7.18028e-05
7.16298e-05
7.33671e-05
7.96976e-05
7.97062e-05
7.16153e-05
7.16288e-05
7.97193e-05
7.33725e-05
7.97109e-05
7.16433e-05
7.17882e-05
6.84951e-05
7.15129e-05
7.15443e-05
7.15247e-05
7.15539e-05
7.17739e-05
7.17917e-05
7.15429e-05
7.15708e-05
6.85018e-05
7.15317e-05
7.15582e-05
7.18012e-05
7.16294e-05
7.33709e-05
7.97142e-05
7.97182e-05
7.16143e-05
7.16279e-05
7.97314e-05
7.33745e-05
7.97273e-05
7.16429e-05
7.17868e-05
6.84977e-05
7.15169e-05
7.15435e-05
7.15283e-05
7.15559e-05
7.1777e-05
7.18174e-05
7.15423e-05
7.15741e-05
6.85268e-05
7.18034e-05
7.15538e-05
7.15838e-05
7.16557e-05
7.34021e-05
7.97448e-05
7.97367e-05
7.16701e-05
7.16568e-05
7.97239e-05
7.33971e-05
7.16423e-05
7.97322e-05
7.18177e-05
6.85311e-05
7.15679e-05
7.15984e-05
7.15565e-05
7.1589e-05
7.18318e-05
7.18157e-05
7.15464e-05
7.15733e-05
6.85293e-05
7.18061e-05
7.15573e-05
7.15858e-05
7.16547e-05
7.34041e-05
7.97569e-05
7.9753e-05
7.16697e-05
7.16563e-05
7.97404e-05
7.34005e-05
7.16413e-05
7.97442e-05
7.18208e-05
6.85334e-05
7.15714e-05
7.16008e-05
7.15607e-05
7.15882e-05
7.18301e-05
7.11254e-05
7.1127e-05
7.11282e-05
7.11299e-05
9.49442e-05
7.34516e-05
7.34453e-05
9.49416e-05
7.34652e-05
7.34589e-05
7.41199e-05
6.52002e-05
6.99037e-05
7.32422e-05
7.41241e-05
6.51875e-05
7.32329e-05
7.41675e-05
6.52097e-05
6.99151e-05
7.3254e-05
7.41724e-05
6.51962e-05
7.32419e-05
7.41078e-05
7.32183e-05
6.51653e-05
6.98946e-05
7.41034e-05
6.51783e-05
7.32283e-05
7.41565e-05
7.32277e-05
6.5174e-05
6.99061e-05
7.41511e-05
6.51878e-05
7.32398e-05
9.49559e-05
7.34778e-05
7.34715e-05
9.49584e-05
7.34642e-05
7.34579e-05
7.11546e-05
7.1153e-05
7.11575e-05
7.11559e-05
7.16822e-05
7.9748e-05
7.3426e-05
7.16679e-05
7.9756e-05
7.18436e-05
6.85576e-05
7.16022e-05
7.15712e-05
7.18344e-05
7.1614e-05
7.1583e-05
7.34288e-05
7.11803e-05
7.11831e-05
3.12668e-05
3.12656e-05
3.84908e-05
3.13972e-05
3.13961e-05
2.22589e-05
2.21075e-05
6.58139e-05
5.9306e-05
5.93085e-05
5.3285e-05
5.93053e-05
5.9308e-05
6.5808e-05
6.59096e-05
5.94454e-05
5.94468e-05
5.34774e-05
6.5905e-05
5.94424e-05
5.94432e-05
6.58146e-05
5.93064e-05
5.93086e-05
5.32851e-05
5.93053e-05
5.93081e-05
6.58088e-05
6.58826e-05
5.34492e-05
5.94116e-05
5.94115e-05
5.94118e-05
5.94121e-05
6.58873e-05
6.58149e-05
5.93032e-05
5.93048e-05
5.32955e-05
5.93106e-05
5.93088e-05
6.58076e-05
6.58813e-05
5.34381e-05
5.9413e-05
5.94142e-05
5.94075e-05
5.94104e-05
6.58877e-05
6.58143e-05
5.93025e-05
5.93043e-05
5.32951e-05
5.93102e-05
5.93074e-05
6.58071e-05
6.58807e-05
5.34361e-05
5.94088e-05
5.94124e-05
5.94056e-05
5.94086e-05
6.58861e-05
6.58819e-05
5.34492e-05
5.94117e-05
5.94117e-05
6.58867e-05
5.94116e-05
5.94121e-05
3.12671e-05
3.12659e-05
3.84914e-05
3.13974e-05
3.13963e-05
2.22588e-05
2.21074e-05
3.12707e-05
3.12698e-05
3.84944e-05
3.14011e-05
3.14002e-05
2.22627e-05
2.21114e-05
3.12709e-05
3.12697e-05
3.84948e-05
3.14014e-05
3.14001e-05
2.22626e-05
2.21112e-05
3.85966e-05
3.16536e-05
3.16525e-05
3.15266e-05
3.15255e-05
2.241e-05
2.25597e-05
3.85972e-05
3.16539e-05
3.16527e-05
3.15269e-05
3.15257e-05
2.24099e-05
2.25596e-05
3.86002e-05
3.16575e-05
3.16565e-05
3.15306e-05
3.15296e-05
2.24139e-05
2.25635e-05
3.86006e-05
3.16578e-05
3.16564e-05
3.15307e-05
3.15296e-05
2.24137e-05
2.25634e-05
5.61436e-05
6.22264e-05
5.48428e-05
6.05065e-05
6.22122e-05
5.48552e-05
5.61334e-05
5.72093e-05
6.0229e-05
6.47051e-05
6.40874e-05
6.02301e-05
6.41001e-05
5.72199e-05
5.72559e-05
6.41223e-05
6.47118e-05
6.02605e-05
6.02595e-05
6.41102e-05
5.72457e-05
5.6092e-05
6.04945e-05
6.21862e-05
5.48081e-05
6.22009e-05
5.47975e-05
5.61018e-05
5.61391e-05
5.48508e-05
6.22242e-05
6.05028e-05
5.48461e-05
6.22049e-05
5.6134e-05
5.72138e-05
6.02254e-05
6.4706e-05
6.40809e-05
6.02344e-05
6.40953e-05
5.72102e-05
5.72468e-05
6.41176e-05
6.47123e-05
6.02646e-05
6.02561e-05
6.41033e-05
5.725e-05
5.60919e-05
6.04942e-05
5.47997e-05
6.21793e-05
5.48047e-05
6.21984e-05
5.6097e-05
6.58333e-05
5.33506e-05
5.93412e-05
5.93427e-05
5.93421e-05
5.93426e-05
6.58387e-05
6.58341e-05
5.33506e-05
5.93425e-05
5.93427e-05
6.58393e-05
5.93428e-05
5.93426e-05
6.58636e-05
5.33845e-05
5.93763e-05
5.93776e-05
6.58588e-05
5.93761e-05
5.9378e-05
5.61336e-05
6.22223e-05
5.48489e-05
6.05017e-05
6.22028e-05
5.48443e-05
5.61302e-05
5.72104e-05
6.02226e-05
6.47036e-05
6.40779e-05
6.40927e-05
6.02318e-05
5.72066e-05
5.72433e-05
6.4115e-05
6.47098e-05
6.0262e-05
6.41006e-05
6.02534e-05
5.72467e-05
5.60873e-05
6.04933e-05
6.2177e-05
5.4798e-05
6.21965e-05
5.48028e-05
5.60903e-05
5.61397e-05
6.22278e-05
5.48501e-05
6.05032e-05
6.22083e-05
5.48456e-05
5.61345e-05
5.7214e-05
6.02253e-05
6.47079e-05
6.4086e-05
6.41007e-05
6.02343e-05
5.72103e-05
5.7247e-05
6.41231e-05
6.4714e-05
6.02645e-05
6.41087e-05
5.72502e-05
6.02561e-05
5.60924e-05
6.04948e-05
6.21826e-05
5.47994e-05
6.2202e-05
5.48042e-05
5.60975e-05
5.61709e-05
6.22285e-05
5.48875e-05
6.05491e-05
5.61753e-05
6.22474e-05
5.48917e-05
5.73149e-05
6.032e-05
6.47463e-05
6.41581e-05
6.03119e-05
6.41446e-05
5.73181e-05
5.72828e-05
6.41228e-05
6.02829e-05
6.47402e-05
6.02908e-05
5.72798e-05
6.41367e-05
5.62155e-05
6.0557e-05
6.22721e-05
5.49346e-05
6.22534e-05
5.49308e-05
5.62107e-05
5.61751e-05
6.22341e-05
5.48888e-05
6.05507e-05
5.61807e-05
6.2253e-05
5.4893e-05
5.73186e-05
6.03216e-05
6.47504e-05
6.41663e-05
6.41527e-05
6.03164e-05
5.73216e-05
5.72864e-05
6.41309e-05
6.02856e-05
6.47445e-05
5.72835e-05
6.41448e-05
6.02932e-05
5.62204e-05
6.05586e-05
6.22777e-05
5.49359e-05
6.22591e-05
5.49321e-05
5.62147e-05
6.5833e-05
5.3341e-05
5.93437e-05
5.93469e-05
5.93398e-05
5.93392e-05
6.58397e-05
6.58644e-05
5.33926e-05
5.93724e-05
5.93746e-05
5.93786e-05
6.58574e-05
5.93804e-05
5.61402e-05
6.2228e-05
5.48512e-05
6.05042e-05
6.22083e-05
5.48465e-05
5.6135e-05
5.72145e-05
6.02264e-05
6.4708e-05
6.4086e-05
6.41006e-05
6.02354e-05
5.72108e-05
5.72475e-05
6.4123e-05
6.47143e-05
6.02657e-05
6.41086e-05
6.02572e-05
5.72508e-05
5.60928e-05
6.0496e-05
6.21826e-05
5.48003e-05
6.22021e-05
5.4805e-05
5.6098e-05
5.6136e-05
5.48494e-05
6.22219e-05
6.05022e-05
5.48448e-05
6.22025e-05
5.61308e-05
5.72087e-05
6.02214e-05
6.47017e-05
6.40766e-05
6.40904e-05
6.02303e-05
5.7205e-05
5.72417e-05
6.41127e-05
6.47087e-05
6.02606e-05
6.4099e-05
5.7245e-05
6.02522e-05
5.60887e-05
6.0494e-05
5.47986e-05
6.21767e-05
5.48035e-05
6.21961e-05
5.60938e-05
5.61755e-05
6.22341e-05
5.48898e-05
6.05519e-05
5.61811e-05
6.22531e-05
5.4894e-05
5.73191e-05
6.03228e-05
6.47507e-05
6.41662e-05
6.03176e-05
6.41526e-05
5.73221e-05
5.72869e-05
6.41307e-05
6.02867e-05
6.47446e-05
6.02944e-05
5.7284e-05
6.41447e-05
5.62209e-05
6.05596e-05
6.22779e-05
5.4937e-05
6.22591e-05
5.49332e-05
5.62152e-05
5.61715e-05
5.48881e-05
6.22283e-05
6.05499e-05
5.6177e-05
5.48924e-05
6.22471e-05
5.73134e-05
6.03186e-05
6.47451e-05
6.4156e-05
6.41432e-05
6.0311e-05
5.73164e-05
5.72812e-05
6.41214e-05
6.02816e-05
6.47384e-05
5.72782e-05
6.41346e-05
6.02893e-05
5.62168e-05
6.05576e-05
5.49353e-05
6.22718e-05
5.49314e-05
6.22533e-05
5.6211e-05
5.61347e-05
5.48496e-05
6.22237e-05
6.05026e-05
5.48456e-05
6.22044e-05
5.61319e-05
5.72116e-05
6.0223e-05
6.47037e-05
6.40796e-05
6.02321e-05
6.40934e-05
5.72079e-05
5.72445e-05
6.41157e-05
6.47101e-05
6.02623e-05
6.02537e-05
6.41019e-05
5.72478e-05
5.60888e-05
6.04944e-05
5.47996e-05
6.21788e-05
5.48037e-05
6.2198e-05
5.6091e-05
5.61743e-05
6.22377e-05
5.48985e-05
6.05502e-05
5.61845e-05
6.22518e-05
5.48862e-05
5.73273e-05
6.03201e-05
6.47482e-05
6.41655e-05
5.73165e-05
6.03189e-05
6.41543e-05
5.72808e-05
6.41321e-05
6.02889e-05
6.47418e-05
5.7292e-05
6.02901e-05
6.41443e-05
5.62244e-05
6.05615e-05
6.2276e-05
5.49288e-05
5.6214e-05
6.22625e-05
5.49413e-05
5.61725e-05
5.48888e-05
6.22301e-05
6.05501e-05
5.61765e-05
5.48926e-05
6.22489e-05
5.7316e-05
6.03203e-05
6.47465e-05
6.4159e-05
6.41457e-05
6.03122e-05
5.73191e-05
5.72839e-05
6.41243e-05
6.02832e-05
6.47403e-05
5.72809e-05
6.41376e-05
6.0291e-05
5.62168e-05
6.05579e-05
5.49355e-05
6.22736e-05
5.49319e-05
6.2255e-05
5.62122e-05
6.58325e-05
5.33405e-05
5.93424e-05
5.93455e-05
5.93404e-05
5.93376e-05
6.58394e-05
6.58633e-05
5.33919e-05
5.93717e-05
5.93738e-05
5.93761e-05
6.58569e-05
5.93799e-05
5.61399e-05
5.48513e-05
6.22264e-05
6.05038e-05
5.48467e-05
6.22073e-05
5.61348e-05
5.72142e-05
6.0227e-05
6.47091e-05
6.40847e-05
6.0236e-05
6.4099e-05
5.72105e-05
5.72472e-05
6.41214e-05
6.47152e-05
6.02662e-05
6.02577e-05
6.41074e-05
5.72505e-05
5.60927e-05
6.04955e-05
5.48006e-05
6.21815e-05
5.48055e-05
6.22007e-05
5.60977e-05
5.61744e-05
5.48895e-05
6.22306e-05
6.05499e-05
5.61799e-05
5.48937e-05
6.22492e-05
5.73182e-05
6.03216e-05
6.47485e-05
6.41607e-05
5.73212e-05
6.03164e-05
6.41471e-05
5.7286e-05
6.41255e-05
6.02856e-05
6.47427e-05
5.72831e-05
6.02932e-05
6.41394e-05
5.62196e-05
6.05581e-05
5.49367e-05
6.22739e-05
5.62139e-05
5.49328e-05
6.22555e-05
5.61754e-05
5.489e-05
6.2233e-05
6.05513e-05
5.61808e-05
5.48943e-05
6.22516e-05
5.73188e-05
6.03243e-05
6.47517e-05
6.41645e-05
6.41513e-05
6.03167e-05
5.73219e-05
5.72866e-05
6.41298e-05
6.02872e-05
6.47456e-05
5.72837e-05
6.4143e-05
6.0295e-05
5.62206e-05
6.05591e-05
5.49371e-05
6.22763e-05
5.49333e-05
6.2258e-05
5.6215e-05
6.58629e-05
5.33851e-05
5.93772e-05
5.93775e-05
6.5858e-05
5.93769e-05
5.9378e-05
5.73537e-05
6.03422e-05
6.41669e-05
6.47752e-05
6.03473e-05
5.7351e-05
6.41796e-05
5.62514e-05
6.06029e-05
5.49746e-05
6.2279e-05
5.49779e-05
5.62562e-05
6.22975e-05
6.03463e-05
6.47805e-05
6.03508e-05
2.10354e-05
3.66857e-05
3.66881e-05
4.19578e-05
2.17938e-05
3.7592e-05
3.75942e-05
4.26721e-05
2.25704e-05
3.84721e-05
3.84743e-05
4.33734e-05
2.33614e-05
3.93252e-05
3.93271e-05
4.40402e-05
2.41629e-05
4.01505e-05
4.01523e-05
4.46852e-05
2.49712e-05
4.09474e-05
4.09489e-05
4.53098e-05
2.57825e-05
4.17153e-05
4.1717e-05
4.59118e-05
2.65934e-05
4.24545e-05
4.24561e-05
4.64889e-05
2.74003e-05
4.31648e-05
4.31663e-05
4.7044e-05
2.82001e-05
4.38464e-05
4.38477e-05
4.75779e-05
2.89899e-05
4.44996e-05
4.45006e-05
4.80881e-05
2.97672e-05
4.51242e-05
4.51252e-05
4.85759e-05
3.05294e-05
4.57211e-05
4.57221e-05
4.90429e-05
3.12745e-05
4.62903e-05
4.62915e-05
4.94889e-05
3.20004e-05
4.68324e-05
4.68337e-05
4.99139e-05
3.27058e-05
4.73477e-05
4.7349e-05
5.03183e-05
3.33889e-05
4.78365e-05
4.78379e-05
5.07023e-05
3.40486e-05
4.8299e-05
4.83005e-05
5.10664e-05
3.46837e-05
4.8736e-05
4.87374e-05
5.14112e-05
3.52933e-05
4.91476e-05
4.9149e-05
5.1736e-05
3.58768e-05
4.95344e-05
4.95356e-05
5.20422e-05
3.64334e-05
4.98966e-05
4.98977e-05
5.23277e-05
3.69627e-05
5.02348e-05
5.02357e-05
5.26015e-05
3.74644e-05
5.05493e-05
5.055e-05
5.28554e-05
3.79382e-05
5.08406e-05
5.08412e-05
5.3087e-05
4.19405e-05
4.25082e-05
3.66893e-05
3.66882e-05
3.73703e-05
3.73701e-05
4.19458e-05
4.25045e-05
3.6688e-05
3.66884e-05
3.73696e-05
3.73703e-05
3.66929e-05
3.73678e-05
3.73746e-05
4.19381e-05
4.25126e-05
3.66915e-05
3.73701e-05
3.73732e-05
4.2504e-05
4.26538e-05
4.32115e-05
3.75944e-05
3.75942e-05
3.82565e-05
3.82564e-05
4.267e-05
4.31964e-05
3.75939e-05
3.75944e-05
3.82558e-05
3.82567e-05
3.75987e-05
3.82545e-05
3.82609e-05
4.26617e-05
4.32126e-05
3.75972e-05
3.82567e-05
3.82594e-05
4.32034e-05
4.33609e-05
4.38903e-05
3.8474e-05
3.84738e-05
3.91159e-05
3.9116e-05
4.33666e-05
4.38784e-05
3.84735e-05
3.84742e-05
3.91152e-05
3.91161e-05
3.84783e-05
3.91145e-05
3.91204e-05
4.33604e-05
4.3893e-05
3.84768e-05
3.91165e-05
3.91188e-05
4.38793e-05
4.40361e-05
4.45442e-05
3.93265e-05
3.93266e-05
3.99476e-05
3.9948e-05
4.40396e-05
4.45361e-05
3.93261e-05
3.93266e-05
3.99469e-05
3.9948e-05
3.93309e-05
3.99469e-05
3.9952e-05
4.40357e-05
4.45469e-05
3.93294e-05
3.99486e-05
3.99506e-05
4.45494e-05
4.46813e-05
4.51782e-05
4.01512e-05
4.01516e-05
4.07512e-05
4.07517e-05
4.4689e-05
4.51687e-05
4.01507e-05
4.01516e-05
4.07505e-05
4.07517e-05
4.01557e-05
4.07509e-05
4.07557e-05
4.46842e-05
4.5176e-05
4.01542e-05
4.07524e-05
4.07543e-05
4.51776e-05
4.53088e-05
4.57836e-05
4.09478e-05
4.09481e-05
4.15264e-05
4.15266e-05
4.53129e-05
4.57684e-05
4.09472e-05
4.09482e-05
4.15256e-05
4.15268e-05
4.09522e-05
4.15261e-05
4.15306e-05
4.53064e-05
4.57807e-05
4.09508e-05
4.15276e-05
4.15293e-05
4.5784e-05
4.59102e-05
4.63674e-05
4.17158e-05
4.17157e-05
4.22727e-05
4.22727e-05
4.59142e-05
4.63538e-05
4.17152e-05
4.1716e-05
4.22719e-05
4.22729e-05
4.17199e-05
4.22725e-05
4.22763e-05
4.5911e-05
4.63683e-05
4.17187e-05
4.2274e-05
4.22753e-05
4.63649e-05
4.64884e-05
4.69268e-05
4.24549e-05
4.24546e-05
4.29901e-05
4.299e-05
4.6491e-05
4.69266e-05
4.24542e-05
4.24549e-05
4.29892e-05
4.29901e-05
4.24584e-05
4.29899e-05
4.29933e-05
4.64868e-05
4.69279e-05
4.24574e-05
4.29914e-05
4.29924e-05
4.69244e-05
4.70416e-05
4.74659e-05
4.3165e-05
4.31648e-05
4.36786e-05
4.36786e-05
4.70458e-05
4.74639e-05
4.31642e-05
4.31649e-05
4.36777e-05
4.36785e-05
4.31682e-05
4.36787e-05
4.36816e-05
4.70431e-05
4.74626e-05
4.31673e-05
4.368e-05
4.36808e-05
4.74628e-05
4.75749e-05
4.79776e-05
4.38462e-05
4.38463e-05
4.43385e-05
4.43387e-05
4.75793e-05
4.79794e-05
4.38456e-05
4.38462e-05
4.43377e-05
4.43384e-05
4.38493e-05
4.4339e-05
4.43414e-05
4.75755e-05
4.79763e-05
4.38485e-05
4.434e-05
4.43406e-05
4.79765e-05
4.8087e-05
4.84695e-05
4.44991e-05
4.44992e-05
4.497e-05
4.49704e-05
4.80908e-05
4.8468e-05
4.44985e-05
4.4499e-05
4.49693e-05
4.49699e-05
4.45021e-05
4.49707e-05
4.4973e-05
4.80858e-05
4.84701e-05
4.45012e-05
4.49716e-05
4.49721e-05
4.84718e-05
4.85714e-05
4.89335e-05
4.51235e-05
4.51238e-05
4.55735e-05
4.5574e-05
4.85756e-05
4.89419e-05
4.5123e-05
4.51234e-05
4.55729e-05
4.55735e-05
4.51265e-05
4.55745e-05
4.55765e-05
4.8573e-05
4.89415e-05
4.51257e-05
4.55754e-05
4.55756e-05
4.89426e-05
4.9049e-05
4.93867e-05
4.57202e-05
4.57205e-05
4.61496e-05
4.61499e-05
4.90418e-05
4.93913e-05
4.57197e-05
4.57201e-05
4.61489e-05
4.61495e-05
4.57231e-05
4.61506e-05
4.61524e-05
4.90401e-05
4.9394e-05
4.57222e-05
4.61517e-05
4.61515e-05
4.93933e-05
4.94939e-05
4.98146e-05
4.62893e-05
4.62896e-05
4.66982e-05
4.66985e-05
4.9488e-05
4.98189e-05
4.62888e-05
4.62892e-05
4.66976e-05
4.66982e-05
4.62922e-05
4.66994e-05
4.6701e-05
4.94915e-05
4.98201e-05
4.62913e-05
4.67007e-05
4.67002e-05
4.98216e-05
4.99176e-05
5.02221e-05
4.68312e-05
4.68314e-05
4.722e-05
4.72203e-05
4.99136e-05
5.02283e-05
4.68307e-05
4.68312e-05
4.72193e-05
4.722e-05
4.6834e-05
4.72213e-05
4.72227e-05
4.99122e-05
5.02292e-05
4.68332e-05
4.72226e-05
4.72219e-05
5.0229e-05
5.03215e-05
5.06139e-05
4.73463e-05
4.73466e-05
4.77152e-05
4.77155e-05
5.03162e-05
5.06174e-05
4.73458e-05
4.73463e-05
4.77146e-05
4.77152e-05
4.7349e-05
4.77167e-05
4.77178e-05
5.03177e-05
5.06183e-05
4.73483e-05
4.77181e-05
4.77171e-05
5.0617e-05
5.07054e-05
5.09827e-05
4.7835e-05
4.78352e-05
4.81844e-05
4.81846e-05
5.07021e-05
5.09841e-05
4.78345e-05
4.7835e-05
4.81837e-05
4.81842e-05
4.78376e-05
4.81858e-05
4.81867e-05
5.07026e-05
5.09844e-05
4.78369e-05
4.81872e-05
4.81862e-05
5.09843e-05
5.10679e-05
5.13334e-05
4.82976e-05
4.82978e-05
4.86274e-05
4.86279e-05
5.10666e-05
5.13327e-05
4.82971e-05
4.82974e-05
4.86269e-05
4.86275e-05
4.83e-05
4.86291e-05
4.86299e-05
5.10668e-05
5.13308e-05
4.82995e-05
4.86305e-05
4.86294e-05
5.13328e-05
5.14116e-05
5.16591e-05
4.87343e-05
4.87347e-05
4.90452e-05
4.90457e-05
5.14108e-05
5.16612e-05
4.87339e-05
4.87343e-05
4.90447e-05
4.90452e-05
4.87368e-05
4.9047e-05
4.90476e-05
5.14135e-05
5.16621e-05
4.87364e-05
4.90484e-05
4.90474e-05
5.16614e-05
5.1737e-05
5.19691e-05
4.91458e-05
4.91462e-05
4.94379e-05
4.94384e-05
5.17359e-05
5.19696e-05
4.91455e-05
4.91457e-05
4.94376e-05
4.94379e-05
4.91482e-05
4.94399e-05
4.94404e-05
5.17368e-05
5.19702e-05
4.9148e-05
4.94412e-05
4.94402e-05
5.19711e-05
5.20431e-05
5.22573e-05
4.95324e-05
4.95328e-05
4.98061e-05
4.98066e-05
5.20421e-05
5.22617e-05
4.95323e-05
4.95323e-05
4.98059e-05
4.9806e-05
4.95348e-05
4.98082e-05
4.98085e-05
5.20424e-05
5.22619e-05
4.95346e-05
4.98093e-05
4.98084e-05
5.22623e-05
5.23308e-05
5.25265e-05
4.98945e-05
4.98948e-05
5.01502e-05
5.01505e-05
5.23277e-05
5.25356e-05
4.98945e-05
4.98943e-05
5.015e-05
5.01499e-05
4.98969e-05
5.01523e-05
5.01525e-05
5.23279e-05
5.25357e-05
4.98968e-05
5.01532e-05
5.01524e-05
5.25285e-05
5.26018e-05
5.27794e-05
5.02326e-05
5.02329e-05
5.04704e-05
5.04708e-05
5.25943e-05
5.27904e-05
5.02326e-05
5.02323e-05
5.04704e-05
5.04701e-05
5.02349e-05
5.04726e-05
5.04727e-05
5.25944e-05
5.27903e-05
5.02348e-05
5.04734e-05
5.04726e-05
5.27795e-05
5.2854e-05
5.3016e-05
5.0547e-05
5.05474e-05
5.07674e-05
5.07678e-05
5.28443e-05
5.30265e-05
5.05472e-05
5.05466e-05
5.07674e-05
5.07669e-05
5.05493e-05
5.07697e-05
5.07696e-05
5.28441e-05
5.30263e-05
5.05492e-05
5.07703e-05
5.07695e-05
5.30155e-05
5.30862e-05
5.32335e-05
5.08383e-05
5.08387e-05
5.10415e-05
5.10419e-05
5.30767e-05
5.32441e-05
5.08385e-05
5.08378e-05
5.10416e-05
5.10409e-05
5.08405e-05
5.10438e-05
5.10436e-05
5.30764e-05
5.32438e-05
5.08404e-05
5.10444e-05
5.10435e-05
5.32333e-05
6.48241e-05
7.13575e-05
7.13944e-05
6.47277e-05
6.95347e-05
6.95612e-05
6.48288e-05
7.13638e-05
7.14004e-05
6.47307e-05
2.10337e-05
2.10364e-05
2.10387e-05
2.16023e-05
2.16006e-05
2.16034e-05
2.16058e-05
5.35355e-05
6.02157e-05
2.90725e-05
3.69146e-05
6.03317e-05
2.93172e-05
5.33392e-05
6.95329e-05
6.95595e-05
5.35352e-05
2.90765e-05
6.02135e-05
3.6917e-05
2.93212e-05
6.03345e-05
5.3338e-05
6.69236e-05
6.69341e-05
4.2134e-05
6.6983e-05
6.69964e-05
6.50509e-05
7.14419e-05
6.49575e-05
7.14788e-05
6.95907e-05
6.9618e-05
6.50556e-05
7.14481e-05
6.49599e-05
7.1485e-05
2.1792e-05
2.17949e-05
2.17974e-05
2.23747e-05
2.2373e-05
2.23761e-05
2.23785e-05
5.39985e-05
6.05043e-05
3.00502e-05
3.78144e-05
5.381e-05
6.06166e-05
3.02937e-05
6.9589e-05
6.96164e-05
5.39982e-05
3.00542e-05
6.05025e-05
3.78167e-05
5.38088e-05
3.02976e-05
6.06192e-05
6.71e-05
6.71104e-05
4.28518e-05
6.71576e-05
6.71702e-05
6.52705e-05
7.1527e-05
6.51801e-05
7.15642e-05
6.96487e-05
6.96768e-05
6.52746e-05
7.15333e-05
6.51824e-05
7.15706e-05
2.25687e-05
2.25718e-05
2.25742e-05
2.31624e-05
2.3161e-05
2.31641e-05
2.31666e-05
5.44419e-05
6.0782e-05
3.10213e-05
3.86879e-05
5.42614e-05
6.08907e-05
3.12626e-05
6.96471e-05
6.96753e-05
5.44416e-05
3.10252e-05
6.07808e-05
3.869e-05
5.426e-05
3.12663e-05
6.08929e-05
6.72713e-05
6.72817e-05
4.35414e-05
6.73269e-05
6.73393e-05
6.54829e-05
7.16129e-05
6.53953e-05
7.16504e-05
6.97086e-05
6.97373e-05
6.54859e-05