/*--------------------------------*- C++ -*----------------------------------*\
| =========                 |                                                 |
| \\      /  F ield         | OpenFOAM: The Open Source CFD Toolbox           |
|  \\    /   O peration     | Version:  v1906                                 |
|   \\  /    A nd           | Web:      www.OpenFOAM.com                      |
|    \\/     M anipulation  |                                                 |
\*---------------------------------------------------------------------------*/
FoamFile
{
    version     2.0;
    format      ascii;
    class       volScalarField;
    location    "750";
    object      p;
}
// * * * * * * * * * * * * * * * * * * * * * * * * * * * * * * * * * * * * * //

dimensions      [0 2 -2 0 0 0 0];


internalField   nonuniform List<scalar> 
42840
(
0.00078142
0.000781362
0.000781362
0.000782933
0.000747628
0.000782933
0.000753272
0.000781362
0.000781362
0.000754883
0.000754883
0.000782933
0.000753272
0.000781362
0.000781362
0.000754883
0.000754883
0.000781362
0.000754883
0.000754883
0.000782933
0.000753272
0.000781362
0.000754883
0.000754883
0.000753272
0.000746054
0.000746054
0.000770372
0.000783495
0.000770374
0.000783483
0.000783502
0.000770373
0.000770372
0.000783495
0.000770374
0.000783483
0.00078142
0.00078142
0.00078142
0.000754938
0.000754938
0.000754938
0.000754938
0.000770456
0.000783447
0.000781384
0.000772537
0.00077041
0.000772559
0.0007834
0.000783502
0.000770372
0.000770456
0.000781384
0.000783448
0.000772537
0.000772559
0.00077041
0.0007834
0.000783494
0.000783495
0.000770926
0.000770367
0.000770367
0.000748192
0.000748192
0.000783502
0.000770372
0.000783502
0.000770372
0.000783495
0.000783494
0.000770926
0.000770367
0.000770367
0.00075272
0.000765853
0.00075272
0.000765853
0.000765283
0.000752714
0.000752714
0.000765846
0.000765846
0.000770372
0.000783495
0.000770374
0.000783483
0.000770456
0.000783448
0.000781384
0.000772537
0.000770409
0.000772559
0.0007834
0.000770456
0.000783448
0.000781384
0.000772537
0.00077041
0.000772559
0.0007834
0.000765834
0.000752721
0.000765846
0.000752719
0.000765834
0.000752721
0.000765846
0.000752719
0.000765751
0.000763711
0.000752756
0.000754904
0.000765799
0.000763732
0.000752802
0.000765751
0.000763711
0.000752757
0.000754904
0.000765799
0.000763732
0.000752802
0.000783494
0.000783494
0.000770926
0.000770367
0.000770368
0.000783502
0.000770373
0.00075272
0.000765853
0.000765283
0.000752714
0.000752715
0.000765846
0.000765845
0.00075272
0.000765854
0.000770455
0.000783447
0.000781384
0.000772537
0.00077041
0.000772559
0.0007834
0.000770372
0.000783495
0.000770374
0.000783483
0.000770455
0.000781384
0.000783447
0.000772537
0.000772559
0.00077041
0.0007834
0.000765834
0.000752721
0.000765846
0.000752719
0.000765751
0.000763711
0.000752757
0.000754904
0.000765799
0.000763732
0.000752802
0.000765834
0.000752721
0.000765846
0.000752719
0.000765751
0.000763711
0.000754904
0.000752757
0.000763732
0.000765799
0.000752802
0.000770372
0.000783495
0.000770374
0.000783483
0.000770455
0.000781384
0.000783448
0.000772537
0.000772559
0.000770409
0.0007834
0.000770372
0.000783495
0.000770374
0.000783483
0.000765751
0.000763711
0.000752757
0.000754904
0.000765799
0.000763732
0.000752802
0.000765834
0.000752721
0.000765846
0.000752719
0.000765751
0.000763711
0.000754904
0.000752756
0.000763732
0.000765799
0.000752802
0.000765834
0.000752721
0.000765846
0.000752719
0.000783494
0.000783495
0.000770926
0.000770368
0.000770367
0.000783502
0.000770373
0.00075272
0.000765853
0.000765283
0.000752715
0.000752714
0.000765845
0.000765846
0.00075272
0.000765854
0.000770455
0.000781384
0.000783448
0.000772537
0.000772559
0.00077041
0.0007834
0.000770372
0.000783495
0.000770374
0.000783482
0.000770372
0.000783495
0.000770374
0.000783483
0.000765751
0.000763711
0.000754904
0.000752757
0.000763732
0.000765799
0.000752802
0.000765751
0.000763711
0.000754904
0.000752757
0.000763732
0.000765799
0.000752802
0.000765834
0.000752721
0.000765846
0.00075272
0.000765834
0.000752721
0.000765846
0.000752719
0.000783502
0.000770372
0.000783502
0.000770373
0.000765283
0.000752714
0.000752714
0.000765846
0.000765846
0.00075272
0.000765853
0.00075272
0.000765853
0.000746075
0.000748145
0.000748096
0.000748192
0.00074818
0.000748145
0.000748192
0.000748199
0.000748199
0.000774681
0.000770366
0.000770371
0.000774659
0.000774679
0.000774662
0.000770366
0.000779194
0.000779198
0.000783499
0.000779186
0.000783506
0.000774683
0.000770361
0.000774671
0.000774675
0.000770369
0.00077919
0.000779197
0.000783503
0.000783486
0.00077919
0.000779195
0.000783505
0.000779197
0.000774678
0.000774681
0.00077037
0.000770366
0.000774659
0.000774663
0.000774679
0.000770366
0.000779194
0.000779198
0.000783499
0.000779185
0.000783506
0.000774683
0.000770361
0.000774671
0.000774676
0.00077037
0.00077919
0.000779196
0.000783486
0.000783503
0.000779195
0.00077919
0.000783505
0.000779197
0.000774678
0.000774685
0.000770368
0.000770368
0.000774688
0.000774689
0.000770359
0.000779215
0.000783438
0.000779191
0.000783498
0.000779245
0.0007792
0.000783471
0.000779215
0.000783438
0.000779192
0.000783498
0.000779246
0.000779199
0.000783471
0.000774648
0.000770375
0.000774671
0.000770421
0.000774615
0.000774674
0.000770391
0.000774648
0.000770375
0.000774671
0.000770421
0.000774615
0.000774674
0.000770391
0.000779183
0.000783512
0.000783512
0.000779192
0.000779192
0.000783509
0.000743909
0.000748135
0.000748195
0.000743886
0.000748168
0.000743939
0.000743894
0.000743909
0.000748135
0.000748195
0.000743886
0.000748168
0.000743939
0.000743894
0.000743878
0.000748209
0.000748209
0.000748206
0.000743887
0.000743887
0.000779197
0.000774678
0.000779197
0.000774678
0.000774685
0.000770368
0.000770368
0.000774688
0.000774688
0.000770359
0.000779215
0.000783438
0.000779191
0.000783498
0.000779199
0.000779245
0.000783471
0.000779215
0.000783438
0.000779191
0.000783498
0.000779199
0.000779246
0.000783471
0.000774648
0.000770375
0.000774671
0.000770421
0.000774674
0.000770391
0.000774615
0.000774648
0.000770375
0.000774671
0.000770421
0.000774674
0.000770391
0.000774615
0.000779183
0.000783512
0.000783512
0.000779192
0.000779192
0.000783509
0.000757027
0.000761547
0.000757027
0.000761547
0.000761533
0.000765863
0.000765863
0.00076586
0.000761542
0.000761542
0.000756996
0.000752768
0.00075702
0.000752722
0.000757023
0.000756963
0.000752737
0.000756996
0.000752768
0.000757019
0.000752722
0.000757023
0.000756963
0.000752737
0.000761565
0.000765849
0.00076579
0.000761541
0.000765823
0.000761549
0.000761595
0.000761565
0.000765849
0.000765789
0.000761541
0.000765823
0.000761549
0.000761595
0.000757034
0.000752715
0.000752715
0.000757037
0.000757037
0.000752706
0.000774681
0.000770366
0.00077037
0.000774659
0.000774679
0.000774662
0.000770365
0.000779194
0.000779198
0.000783499
0.000779185
0.000783506
0.000774683
0.000770361
0.000774671
0.000774675
0.00077037
0.00077919
0.000779197
0.000783503
0.000783486
0.00077919
0.000779195
0.000783505
0.00076154
0.000765854
0.000765837
0.000761546
0.000765856
0.00076154
0.000761545
0.000757032
0.00075702
0.000752708
0.000752717
0.000757024
0.000761544
0.00076585
0.000761548
0.000765858
0.000761535
0.00075703
0.000757008
0.000752713
0.000752718
0.000752713
0.000757028
0.000757011
0.00076154
0.000765854
0.000765837
0.000761546
0.000765856
0.00076154
0.000761544
0.000757031
0.00075702
0.000752708
0.000757024
0.000752717
0.000761544
0.00076585
0.000761548
0.000765858
0.000761535
0.00075703
0.000757008
0.000752713
0.000752717
0.000757028
0.000757011
0.000752713
0.000774685
0.000770368
0.000770368
0.000774688
0.000774688
0.000770359
0.000779215
0.000783438
0.000779192
0.000783498
0.000779199
0.000779246
0.000783471
0.000779215
0.000783438
0.000779192
0.000783498
0.000779246
0.000779199
0.000783471
0.000774647
0.000770375
0.000774671
0.000770421
0.000774674
0.000774614
0.000770391
0.000774648
0.000770375
0.00077467
0.000770421
0.000774614
0.000774674
0.000770391
0.000779183
0.000783512
0.000783512
0.000779192
0.000779192
0.000783509
0.000779197
0.000774678
0.000757027
0.000761547
0.000761533
0.000765863
0.000765863
0.00076586
0.000761542
0.000761542
0.000756996
0.000752768
0.000757019
0.000752722
0.000756962
0.000757023
0.000752738
0.000756996
0.000752768
0.000757019
0.000752722
0.000757023
0.000756963
0.000752738
0.000761565
0.000765849
0.000765789
0.000761542
0.000761595
0.000765822
0.000761549
0.000761565
0.000765849
0.000765789
0.000761542
0.000765822
0.00076155
0.000761595
0.000757034
0.000752715
0.000752715
0.000757037
0.000757037
0.000752706
0.000757027
0.000761547
0.000774681
0.000770365
0.000770371
0.000774659
0.000774679
0.000774662
0.000770366
0.000779194
0.000779198
0.000783499
0.000779186
0.000783506
0.000774683
0.000770361
0.000774671
0.000774675
0.000770369
0.00077919
0.000779196
0.000783503
0.000783486
0.00077919
0.000779195
0.000783505
0.00076154
0.000765837
0.000765854
0.000761546
0.000765856
0.000761545
0.00076154
0.000757032
0.00075702
0.000752708
0.000752717
0.000757024
0.000761544
0.00076585
0.000761548
0.000765858
0.000761535
0.00075703
0.000757008
0.000752717
0.000752713
0.000752713
0.000757011
0.000757028
0.00076154
0.000765854
0.000765837
0.000761546
0.000765856
0.00076154
0.000761545
0.000757032
0.00075702
0.000752709
0.000757024
0.000752717
0.000761544
0.00076585
0.000761548
0.000765858
0.000761536
0.00075703
0.000757008
0.000752713
0.000752718
0.000757028
0.000757011
0.000752713
0.000774681
0.00077037
0.000770366
0.000774659
0.000774662
0.000774679
0.000770366
0.000779194
0.000779198
0.000783499
0.000779185
0.000783506
0.000774683
0.000770361
0.000774671
0.000774675
0.00077037
0.00077919
0.000779197
0.000783486
0.000783503
0.000779195
0.00077919
0.000783505
0.000774681
0.000770366
0.00077037
0.000774659
0.000774679
0.000774662
0.000770365
0.000779194
0.000779198
0.000783499
0.000779185
0.000783506
0.000774683
0.000770361
0.000774671
0.000774676
0.00077037
0.00077919
0.000779197
0.000783503
0.000783486
0.00077919
0.000779195
0.000783505
0.00076154
0.000765837
0.000765854
0.000761547
0.000765856
0.000761545
0.00076154
0.000757032
0.00075702
0.000752708
0.000757024
0.000752717
0.000761544
0.00076585
0.000761548
0.000765858
0.000761535
0.00075703
0.000757008
0.000752718
0.000752713
0.000757011
0.000757028
0.000752713
0.00076154
0.000765854
0.000765837
0.000761546
0.000765856
0.00076154
0.000761544
0.000757032
0.00075702
0.000752708
0.000757024
0.000752717
0.000761544
0.00076585
0.000761548
0.000765858
0.000761535
0.00075703
0.000757008
0.000752713
0.000752717
0.000757028
0.000757011
0.000752713
0.000774685
0.000770368
0.000770368
0.000774688
0.000774688
0.000770359
0.000779215
0.000783438
0.000779192
0.000783498
0.0007792
0.000779246
0.000783471
0.000779215
0.000783438
0.000779191
0.000783498
0.000779246
0.0007792
0.000783471
0.000774647
0.000770375
0.00077467
0.000770421
0.000774674
0.000774614
0.000770391
0.000774647
0.000770375
0.000774671
0.000770421
0.000774614
0.000774674
0.000770391
0.000779183
0.000783512
0.000783512
0.000779192
0.000779192
0.000783509
0.000779197
0.000774679
0.000757027
0.000761547
0.000761533
0.000765863
0.000765863
0.00076586
0.000761542
0.000761542
0.000756996
0.000752768
0.000757019
0.000752722
0.000756962
0.000757023
0.000752738
0.000756996
0.000752768
0.00075702
0.000752722
0.000757023
0.000756963
0.000752738
0.000761565
0.000765849
0.000765789
0.000761542
0.000761596
0.000765822
0.00076155
0.000761565
0.000765849
0.00076579
0.000761541
0.000765822
0.00076155
0.000761595
0.000757034
0.000752715
0.000752715
0.000757037
0.000757037
0.000752706
0.000757027
0.000761547
0.000774681
0.000770371
0.000770366
0.000774659
0.000774662
0.000774679
0.000770366
0.000779194
0.000779198
0.000783499
0.000779185
0.000783507
0.000774683
0.000770361
0.000774671
0.000774676
0.00077037
0.00077919
0.000779197
0.000783486
0.000783503
0.000779195
0.00077919
0.000783505
0.000774681
0.000770371
0.000770366
0.000774659
0.000774662
0.000774679
0.000770366
0.000779194
0.000779198
0.000783499
0.000779186
0.000783506
0.000774683
0.000770362
0.000774671
0.000774675
0.00077037
0.00077919
0.000779196
0.000783486
0.000783503
0.000779195
0.00077919
0.000783504
0.00076154
0.000765837
0.000765854
0.000761547
0.000765856
0.000761545
0.00076154
0.000757032
0.00075702
0.000752708
0.000757024
0.000752717
0.000761544
0.000765851
0.000761548
0.000765858
0.000761535
0.00075703
0.000757007
0.000752718
0.000752713
0.000757011
0.000757028
0.000752713
0.00076154
0.000765837
0.000765854
0.000761546
0.000765856
0.000761545
0.00076154
0.000757032
0.00075702
0.000752709
0.000757024
0.000752717
0.000761544
0.00076585
0.000761548
0.000765858
0.000761536
0.00075703
0.000757008
0.000752718
0.000752713
0.00075701
0.000757028
0.000752713
0.000779197
0.000774678
0.000779197
0.000774678
0.000761533
0.000765863
0.000765863
0.00076586
0.000761542
0.000761542
0.000756996
0.000752768
0.000757019
0.000752722
0.000752738
0.000756963
0.000757023
0.000756996
0.000752768
0.00075702
0.000752722
0.000752738
0.000756963
0.000757023
0.000761565
0.000765849
0.00076579
0.000761541
0.000765823
0.000761595
0.000761549
0.000761565
0.000765849
0.00076579
0.000761541
0.000765823
0.000761595
0.000761549
0.000757034
0.000752715
0.000752715
0.000752706
0.000757037
0.000757037
0.000757027
0.000761547
0.000757027
0.000761547
0.000743888
0.000748196
0.000743892
0.000748204
0.00074388
0.000743884
0.00074389
0.0007482
0.000748183
0.000748202
0.000743885
0.000743889
0.000743892
0.000743891
0.000743891
0.000781454
0.000781454
0.000772594
0.000772628
0.000772628
0.000772676
0.000781502
0.000779318
0.00078321
0.000783211
0.000779751
0.000779491
0.000779491
0.00078337
0.000744011
0.000747906
0.000747906
0.000744443
0.000748066
0.000744184
0.000744184
0.000779318
0.000783209
0.00078321
0.000779751
0.000779492
0.000779491
0.00078337
0.000756894
0.000756456
0.000753013
0.000753012
0.000756733
0.000756734
0.000752839
0.000779318
0.000783209
0.00078321
0.000779751
0.000779492
0.000779492
0.00078337
0.000756894
0.000756455
0.000753014
0.000753013
0.000756733
0.000756734
0.00075284
0.000779318
0.000783209
0.000783211
0.000779751
0.000779491
0.000779492
0.00078337
0.000756894
0.000756456
0.000753013
0.000753013
0.000756733
0.000756734
0.00075284
0.000756894
0.000756456
0.000753013
0.000753012
0.000752839
0.000756734
0.000756734
0.000781454
0.000781454
0.000772594
0.000772628
0.000772628
0.000772676
0.000781502
0.000781454
0.000781454
0.000772594
0.000772628
0.000772628
0.000772676
0.000781502
0.000781454
0.000781454
0.000772594
0.000772628
0.000772628
0.000772676
0.000781502
0.000763767
0.000754972
0.000754972
0.000763801
0.000763801
0.000763848
0.000755019
0.000763767
0.000754972
0.000754972
0.000763801
0.000763801
0.000763848
0.000755019
0.000763767
0.000754972
0.000754972
0.000763801
0.000763801
0.000763848
0.000755019
0.000763767
0.000754972
0.000754972
0.000763801
0.000763801
0.000763848
0.000755019
0.000774346
0.000770452
0.000770693
0.000774576
0.00077458
0.000774349
0.000770698
0.000779483
0.000783301
0.000779234
0.000783418
0.000779396
0.000779261
0.000783198
0.000774374
0.000770437
0.000774624
0.000770571
0.000774477
0.000774594
0.000770658
0.000779522
0.00077928
0.000783404
0.000783173
0.000779277
0.000779518
0.00078317
0.000774346
0.000770693
0.000770452
0.000774576
0.000774349
0.00077458
0.000770697
0.000779483
0.000783301
0.000779234
0.000783419
0.000779396
0.000779261
0.000783198
0.000774374
0.000770437
0.000774624
0.000770571
0.000774477
0.000774595
0.000770658
0.000779522
0.00077928
0.000783173
0.000783404
0.000779518
0.000779277
0.000783171
0.000774546
0.000774109
0.000770666
0.000770666
0.000774386
0.000774387
0.000770493
0.000774546
0.000774109
0.000770667
0.000770666
0.000770493
0.000774385
0.000774386
0.000761667
0.0007621
0.00076556
0.000765561
0.000765721
0.000761841
0.00076184
0.000774346
0.000770452
0.000770693
0.000774576
0.00077458
0.000774349
0.000770697
0.000779482
0.000783301
0.000779234
0.000783419
0.000779261
0.000779395
0.000783198
0.000774374
0.000770436
0.000774624
0.000770571
0.000774595
0.000774478
0.000770657
0.000779522
0.00077928
0.000783404
0.000783173
0.000779276
0.000779518
0.000783171
0.000774346
0.000770452
0.000770693
0.000774576
0.00077458
0.000774349
0.000770697
0.000779483
0.0007833
0.000779234
0.000783418
0.000779261
0.000779396
0.000783198
0.000774374
0.000770437
0.000774624
0.000770572
0.000774595
0.000770658
0.000774476
0.000779522
0.00077928
0.000783404
0.000783173
0.000779277
0.000779518
0.00078317
0.000761871
0.000765755
0.000765523
0.00076163
0.000765521
0.000761626
0.000761867
0.000756722
0.000752917
0.000756973
0.000752783
0.000756826
0.000756943
0.000753003
0.000761831
0.00076577
0.000765652
0.000761583
0.000761745
0.000765549
0.00076161
0.000756694
0.000756924
0.000752798
0.000753039
0.000756929
0.000756696
0.000753043
0.000761871
0.000765755
0.000765523
0.00076163
0.000765521
0.000761626
0.000761867
0.000756721
0.000752918
0.000756973
0.000752783
0.000756943
0.000756824
0.000753004
0.000761832
0.00076577
0.000765651
0.000761584
0.000765548
0.000761611
0.000761746
0.000756694
0.000756924
0.000752799
0.000753039
0.000756929
0.000756696
0.000753044
0.000774546
0.000774108
0.000770667
0.000770667
0.000774386
0.000774385
0.000770493
0.000761667
0.0007621
0.00076556
0.000765561
0.000761841
0.000765721
0.00076184
0.000774346
0.000770452
0.000770693
0.000774576
0.00077458
0.000774349
0.000770697
0.000779483
0.000783301
0.000779234
0.000783418
0.000779261
0.000779396
0.000783198
0.000774374
0.000770437
0.000774624
0.000770571
0.000774595
0.000774477
0.000770658
0.000779522
0.00077928
0.000783404
0.000783173
0.000779277
0.000779518
0.00078317
0.000774346
0.000770693
0.000770452
0.000774576
0.000774349
0.00077458
0.000770697
0.000779483
0.0007833
0.000779234
0.000783418
0.000779261
0.000779396
0.000783198
0.000774374
0.000770437
0.000774624
0.000770571
0.000774595
0.000770658
0.000774477
0.000779522
0.00077928
0.000783173
0.000783404
0.000779518
0.000779277
0.00078317
0.000761871
0.000765755
0.000765524
0.00076163
0.000765521
0.000761626
0.000761867
0.000756722
0.000752918
0.000756972
0.000752783
0.000756825
0.000756943
0.000753004
0.000761832
0.00076577
0.000765652
0.000761584
0.000761745
0.000765548
0.000761611
0.000756694
0.000756925
0.000752798
0.000753038
0.000756929
0.000756696
0.000753043
0.000761871
0.000765523
0.000765755
0.000761629
0.000765521
0.000761866
0.000761626
0.000756722
0.000752918
0.000756972
0.000752783
0.000756943
0.000756825
0.000753004
0.000761832
0.00076577
0.000765651
0.000761584
0.000765548
0.000761611
0.000761746
0.000756694
0.000756925
0.000753039
0.000752799
0.000756696
0.000756929
0.000753044
0.000774347
0.000770693
0.000770452
0.000774576
0.000774349
0.00077458
0.000770697
0.000779482
0.000783301
0.000779234
0.000783418
0.000779395
0.000779261
0.000783198
0.000774374
0.000770436
0.000774624
0.000770571
0.000774477
0.000774595
0.000770657
0.000779522
0.00077928
0.000783173
0.000783404
0.000779517
0.000779277
0.000783171
0.000761871
0.000765755
0.000765523
0.00076163
0.000765521
0.000761626
0.000761866
0.000756722
0.000752918
0.000756972
0.000752784
0.000753004
0.000756825
0.000756943
0.000761832
0.000765769
0.000765652
0.000761584
0.000765548
0.000761745
0.000761611
0.000756694
0.000756925
0.000752799
0.000753039
0.000753044
0.000756929
0.000756696
0.000761871
0.000765523
0.000765755
0.000761629
0.000765521
0.000761866
0.000761626
0.000756722
0.000752917
0.000756973
0.000752783
0.000756943
0.000756826
0.000753004
0.000761831
0.00076577
0.000765652
0.000761584
0.000765549
0.00076161
0.000761745
0.000756694
0.000756925
0.000753039
0.000752799
0.000756696
0.000756929
0.000753043
0.000774546
0.000774109
0.000770667
0.000770666
0.000774387
0.000774385
0.000770493
0.000761667
0.0007621
0.00076556
0.000765561
0.000761841
0.000765721
0.00076184
0.000774346
0.000770693
0.000770452
0.000774576
0.000774349
0.00077458
0.000770697
0.000779482
0.0007833
0.000779234
0.000783418
0.000779396
0.000779261
0.000783198
0.000774374
0.000770437
0.000774624
0.000770572
0.000774477
0.000774595
0.000770658
0.000779522
0.00077928
0.000783174
0.000783404
0.000779517
0.000779277
0.000783171
0.000761871
0.000765524
0.000765755
0.00076163
0.000765521
0.000761866
0.000761626
0.000756722
0.000752918
0.000756973
0.000752783
0.000753004
0.000756825
0.000756943
0.000761832
0.00076577
0.000765651
0.000761584
0.000765548
0.000761745
0.000761611
0.000756694
0.000756924
0.000753038
0.000752799
0.000753043
0.000756697
0.000756929
0.000761871
0.000765524
0.000765755
0.000761629
0.000765521
0.000761866
0.000761626
0.000756722
0.000752918
0.000756973
0.000752783
0.000756943
0.000756825
0.000753004
0.000761832
0.000765769
0.000765651
0.000761584
0.000765549
0.000761611
0.000761745
0.000756694
0.000756925
0.000753038
0.000752799
0.000756697
0.000756929
0.000753043
0.000761667
0.000762099
0.000765561
0.000765561
0.000765721
0.00076184
0.00076184
0.000744175
0.000747998
0.000748115
0.000743928
0.000744089
0.000747893
0.000743954
0.000744214
0.000743973
0.000747868
0.000748101
0.00074421
0.000747866
0.00074397
0.000747997
0.000743928
0.00074409
0.00166582
0.00166574
0.00166574
0.00166731
0.00163001
0.00162993
0.00162993
0.00163149
0.00159426
0.00159418
0.00159418
0.00159575
0.00155859
0.0015585
0.0015585
0.00156006
0.00152297
0.00152288
0.00152288
0.00152444
0.0014874
0.00148731
0.00148731
0.00148887
0.00145189
0.0014518
0.0014518
0.00145336
0.00141642
0.00141633
0.00141633
0.00141789
0.001381
0.0013809
0.0013809
0.00138246
0.00134561
0.00134551
0.00134551
0.00134707
0.00131026
0.00131016
0.00131016
0.00131172
0.00127494
0.00127483
0.00127483
0.00127639
0.00123964
0.00123954
0.00123954
0.0012411
0.00120436
0.00120426
0.00120426
0.00120582
0.0011691
0.00116901
0.00116901
0.00117056
0.00113385
0.00113377
0.00113377
0.00113532
0.00109862
0.00109854
0.00109854
0.00110009
0.00106339
0.00106331
0.00106331
0.00106487
0.00102817
0.00102809
0.00102809
0.00102965
0.000992945
0.00099287
0.00099287
0.00099443
0.000957718
0.000957645
0.000957645
0.000959207
0.000922483
0.000922414
0.000922413
0.000923977
0.000887239
0.000887173
0.000887173
0.000888737
0.000851982
0.000851919
0.000851919
0.000853486
0.00081671
0.000816649
0.00081665
0.000818218
0.00166731
0.00163723
0.00166574
0.00166574
0.00163887
0.00163887
0.00166731
0.00163723
0.00166574
0.00166574
0.00163887
0.00163887
0.00166574
0.00163887
0.00163887
0.00166731
0.00163723
0.00166574
0.00163887
0.00163887
0.00163723
0.00163149
0.00160147
0.00162993
0.00162992
0.00160311
0.00160311
0.00163149
0.00160147
0.00162993
0.00162993
0.00160311
0.00160311
0.00162993
0.00160311
0.00160311
0.00163149
0.00160147
0.00162993
0.00160311
0.00160311
0.00160147
0.00159575
0.00156577
0.00159418
0.00159418
0.00156741
0.00156741
0.00159575
0.00156577
0.00159418
0.00159418
0.00156741
0.00156741
0.00159418
0.00156741
0.00156741
0.00159575
0.00156577
0.00159418
0.00156741
0.00156741
0.00156577
0.00156006
0.00153014
0.0015585
0.0015585
0.00153178
0.00153178
0.00156006
0.00153014
0.0015585
0.0015585
0.00153178
0.00153178
0.0015585
0.00153178
0.00153178
0.00156006
0.00153014
0.0015585
0.00153178
0.00153178
0.00153014
0.00152444
0.00149457
0.00152288
0.00152288
0.0014962
0.0014962
0.00152444
0.00149457
0.00152288
0.00152288
0.0014962
0.0014962
0.00152288
0.0014962
0.0014962
0.00152444
0.00149457
0.00152288
0.0014962
0.0014962
0.00149457
0.00148887
0.00145904
0.00148731
0.00148731
0.00146067
0.00146067
0.00148887
0.00145904
0.00148731
0.00148731
0.00146067
0.00146067
0.00148731
0.00146067
0.00146067
0.00148887
0.00145904
0.00148731
0.00146067
0.00146067
0.00145904
0.00145336
0.00142356
0.0014518
0.0014518
0.00142519
0.00142519
0.00145336
0.00142356
0.0014518
0.0014518
0.00142519
0.00142519
0.0014518
0.00142519
0.00142519
0.00145336
0.00142356
0.0014518
0.00142519
0.00142519
0.00142356
0.00141789
0.00138813
0.00141633
0.00141633
0.00138976
0.00138976
0.00141789
0.00138813
0.00141633
0.00141633
0.00138975
0.00138975
0.00141633
0.00138976
0.00138975
0.00141789
0.00138813
0.00141633
0.00138975
0.00138975
0.00138813
0.00138246
0.00135273
0.0013809
0.0013809
0.00135436
0.00135436
0.00138246
0.00135273
0.0013809
0.0013809
0.00135436
0.00135436
0.0013809
0.00135436
0.00135436
0.00138246
0.00135273
0.0013809
0.00135436
0.00135436
0.00135273
0.00134707
0.00131737
0.00134551
0.00134551
0.00131899
0.00131899
0.00134707
0.00131737
0.00134551
0.00134551
0.00131899
0.00131899
0.00134551
0.00131899
0.00131899
0.00134707
0.00131737
0.00134551
0.00131899
0.00131899
0.00131737
0.00131172
0.00128204
0.00131016
0.00131016
0.00128366
0.00128366
0.00131172
0.00128204
0.00131016
0.00131016
0.00128366
0.00128366
0.00131016
0.00128366
0.00128366
0.00131172
0.00128204
0.00131016
0.00128366
0.00128366
0.00128204
0.00127639
0.00124674
0.00127483
0.00127483
0.00124836
0.00124836
0.00127639
0.00124674
0.00127483
0.00127483
0.00124836
0.00124836
0.00127483
0.00124836
0.00124836
0.00127639
0.00124674
0.00127483
0.00124836
0.00124836
0.00124674
0.0012411
0.00121146
0.00123954
0.00123954
0.00121308
0.00121308
0.00124109
0.00121146
0.00123954
0.00123954
0.00121308
0.00121308
0.00123954
0.00121308
0.00121308
0.00124109
0.00121146
0.00123954
0.00121308
0.00121308
0.00121146
0.00120582
0.0011762
0.00120426
0.00120426
0.00117782
0.00117782
0.00120582
0.00117621
0.00120426
0.00120426
0.00117782
0.00117782
0.00120426
0.00117782
0.00117782
0.00120582
0.0011762
0.00120426
0.00117782
0.00117782
0.0011762
0.00117056
0.00114096
0.00116901
0.00116901
0.00114258
0.00114258
0.00117056
0.00114096
0.00116901
0.00116901
0.00114258
0.00114258
0.00116901
0.00114258
0.00114258
0.00117056
0.00114096
0.00116901
0.00114258
0.00114258
0.00114096
0.00113532
0.00110573
0.00113377
0.00113377
0.00110734
0.00110734
0.00113532
0.00110573
0.00113377
0.00113377
0.00110734
0.00110734
0.00113377
0.00110734
0.00110734
0.00113532
0.00110573
0.00113377
0.00110734
0.00110734
0.00110573
0.00110009
0.0010705
0.00109854
0.00109854
0.00107212
0.00107212
0.00110009
0.0010705
0.00109854
0.00109854
0.00107212
0.00107212
0.00109854
0.00107212
0.00107212
0.00110009
0.0010705
0.00109854
0.00107212
0.00107212
0.0010705
0.00106487
0.00103528
0.00106331
0.00106331
0.0010369
0.0010369
0.00106487
0.00103528
0.00106331
0.00106331
0.0010369
0.0010369
0.00106331
0.0010369
0.0010369
0.00106487
0.00103528
0.00106331
0.0010369
0.0010369
0.00103528
0.00102965
0.00100006
0.00102809
0.00102809
0.00100168
0.00100168
0.00102965
0.00100006
0.00102809
0.00102809
0.00100168
0.00100168
0.00102809
0.00100168
0.00100168
0.00102965
0.00100006
0.00102809
0.00100168
0.00100168
0.00100006
0.00099443
0.00096484
0.00099287
0.00099287
0.000966452
0.000966452
0.000994429
0.000964841
0.00099287
0.00099287
0.000966452
0.000966452
0.00099287
0.000966452
0.000966452
0.00099443
0.00096484
0.00099287
0.000966452
0.000966452
0.00096484
0.000959207
0.000929611
0.000957645
0.000957645
0.000931223
0.000931223
0.000959206
0.000929612
0.000957645
0.000957645
0.000931223
0.000931222
0.000957645
0.000931222
0.000931222
0.000959206
0.000929611
0.000957645
0.000931222
0.000931222
0.000929611
0.000923977
0.000894373
0.000922414
0.000922414
0.000895984
0.000895984
0.000923976
0.000894373
0.000922414
0.000922414
0.000895984
0.000895984
0.000922414
0.000895984
0.000895984
0.000923976
0.000894373
0.000922413
0.000895984
0.000895984
0.000894373
0.000888737
0.000859123
0.000887173
0.000887173
0.000860734
0.000860733
0.000888737
0.000859123
0.000887173
0.000887173
0.000860734
0.000860734
0.000887173
0.000860733
0.000860734
0.000888737
0.000859123
0.000887172
0.000860734
0.000860734
0.000859123
0.000853485
0.000823857
0.000851919
0.000851919
0.000825468
0.000825468
0.000853485
0.000823858
0.000851919
0.000851919
0.000825468
0.000825468
0.000851919
0.000825468
0.000825468
0.000853486
0.000823858
0.000851919
0.000825468
0.000825469
0.000823857
0.000818218
0.000788575
0.000816649
0.000816649
0.000790186
0.000790186
0.000818218
0.000788575
0.000816649
0.00081665
0.000790186
0.000790186
0.00081665
0.000790186
0.000790186
0.000818218
0.000788575
0.00081665
0.000790186
0.000790186
0.000788575
0.00165447
0.00166775
0.00165445
0.00166776
0.00166776
0.00165444
0.00165447
0.00166775
0.00165444
0.00166776
0.00166582
0.00166582
0.00166582
0.00163895
0.00163895
0.00163895
0.00163895
0.00165461
0.00166772
0.00166579
0.00165678
0.00165452
0.00165683
0.0016677
0.00166776
0.00165444
0.0016546
0.00166579
0.00166772
0.00165678
0.00165683
0.00165451
0.0016677
0.00166776
0.00166776
0.00165513
0.00165445
0.00165445
0.00161868
0.00163194
0.00163195
0.00161866
0.00163195
0.00161865
0.00161868
0.00163194
0.00163195
0.00161866
0.00163001
0.00163001
0.00163001
0.00160319
0.00160319
0.00160319
0.00160319
0.00161881
0.00163191
0.00162997
0.00162098
0.00163189
0.00161873
0.00162103
0.00163195
0.00161865
0.00161881
0.00162997
0.00163191
0.00162098
0.00163189
0.00162103
0.00161873
0.00163195
0.00163195
0.00161934
0.00161866
0.00161866
0.00158296
0.0015962
0.0015962
0.00158294
0.0015962
0.00158293
0.00158296
0.0015962
0.0015962
0.00158294
0.00159426
0.00159426
0.00159426
0.0015675
0.0015675
0.0015675
0.0015675
0.00158309
0.00159617
0.00159422
0.00158525
0.00159614
0.00158301
0.0015853
0.0015962
0.00158294
0.00158309
0.00159423
0.00159617
0.00158525
0.00159614
0.0015853
0.001583
0.00159621
0.00159621
0.00158361
0.00158294
0.00158294
0.0015473
0.00156052
0.00156052
0.00154728
0.00156053
0.00154728
0.0015473
0.00156052
0.00156052
0.00154728
0.00155859
0.00155859
0.00155859
0.00153187
0.00153187
0.00153187
0.00153187
0.00154743
0.00156049
0.00155854
0.00154959
0.00156046
0.00154735
0.00154963
0.00156053
0.00154728
0.00154743
0.00155854
0.00156049
0.00154959
0.00156046
0.00154963
0.00154735
0.00156053
0.00156053
0.00154795
0.00154729
0.00154729
0.0015117
0.00152491
0.00152491
0.00151169
0.00152491
0.00151168
0.0015117
0.00152491
0.00152491
0.00151169
0.00152297
0.00152297
0.00152297
0.00149629
0.00149629
0.00149629
0.00149629
0.00151183
0.00152487
0.00152292
0.00151398
0.00152484
0.00151175
0.00151403