/*--------------------------------*- C++ -*----------------------------------*\
| =========                 |                                                 |
| \\      /  F ield         | OpenFOAM: The Open Source CFD Toolbox           |
|  \\    /   O peration     | Version:  v1906                                 |
|   \\  /    A nd           | Web:      www.OpenFOAM.com                      |
|    \\/     M anipulation  |                                                 |
\*---------------------------------------------------------------------------*/
FoamFile
{
    version     2.0;
    format      ascii;
    class       surfaceScalarField;
    location    "750";
    object      phi;
}
// * * * * * * * * * * * * * * * * * * * * * * * * * * * * * * * * * * * * * //

dimensions      [0 3 -1 0 0 0 0];
oriented        oriented;


internalField   nonuniform List<scalar> 
123680
(
1.19363e-07
1.19672e-07
-7.10947e-08
-7.1128e-08
0.00118432
-0.00118442
-1.19696e-06
-1.19633e-07
-4.86278e-08
0.0011323
-2.34309e-07
1.24129e-06
2.72157e-07
9.11224e-07
-2.1265e-07
2.66454e-07
-8.52983e-07
-0.00113233
-1.19151e-06
-1.1968e-07
-4.86185e-08
0.00113194
-2.34318e-07
1.23579e-06
2.72168e-07
9.11061e-07
-2.15356e-07
2.69169e-07
-8.52859e-07
-0.00113196
1.22556e-06
1.19164e-06
-1.98285e-07
-2.03548e-07
0.000268069
-0.000270084
-0.00027009
1.22517e-06
1.19125e-06
-1.98106e-07
-2.03372e-07
0.000268075
1.23096e-06
1.19431e-06
-1.95689e-07
-2.03518e-07
0.000268075
-0.000270101
-1.27511e-06
-1.23852e-06
-0.00026808
2.39199e-07
2.47072e-07
0.000270107
-4.85487e-08
0.00113147
-2.39826e-07
1.27521e-06
2.7753e-07
9.11159e-07
-2.12684e-07
2.6639e-07
-8.53007e-07
-0.00113149
-1.23646e-06
-1.19322e-07
-4.84829e-08
0.00113191
-2.42684e-07
1.28071e-06
2.80374e-07
9.16685e-07
-2.15506e-07
2.69152e-07
-8.58528e-07
-0.00113194
-1.21414e-07
-0.00113142
-4.93774e-08
-1.23065e-06
2.77445e-07
-2.39638e-07
-8.52679e-07
2.66339e-07
-2.12458e-07
9.11162e-07
0.00113139
1.28062e-06
-1.21373e-07
-0.00113186
-4.93387e-08
-1.23614e-06
2.80285e-07
-2.42485e-07
-8.58208e-07
2.69095e-07
-2.15289e-07
9.1668e-07
0.00113184
-1.98398e-07
-2.00831e-07
0.000268097
-0.000270131
-1.2412e-06
-0.000268101
2.41993e-07
2.44342e-07
0.000270137
-4.86443e-08
0.00113257
-2.37182e-07
1.23861e-06
2.75044e-07
9.13983e-07
-2.15447e-07
2.69231e-07
-8.55685e-07
-0.0011326
-1.23101e-06
-1.19276e-07
-4.85248e-08
0.00113157
-2.42671e-07
1.27525e-06
2.80373e-07
9.13802e-07
-2.15443e-07
2.69084e-07
-8.55699e-07
-0.00113159
-1.21732e-07
-0.00113252
-4.94329e-08
-1.194e-06
2.74952e-07
-2.36987e-07
-8.55365e-07
2.69181e-07
-2.15223e-07
9.13981e-07
0.0011325
1.27516e-06
-1.21323e-07
-0.00113152
-4.93649e-08
-1.2307e-06
2.80282e-07
-2.42477e-07
-8.55387e-07
2.69034e-07
-2.15233e-07
9.13809e-07
0.00113149
-1.19306e-07
-4.8528e-08
0.00113136
-2.37017e-07
1.2698e-06
2.74766e-07
9.11145e-07
-2.12693e-07
2.66356e-07
-8.53047e-07
-0.00113139
-1.21705e-07
-0.00113225
-4.94369e-08
-1.19664e-06
2.72058e-07
-2.34109e-07
-8.52666e-07
2.66411e-07
9.11232e-07
-2.12437e-07
0.00113223
1.26969e-06
0.00113129
-1.21345e-07
-0.00113131
-4.93818e-08
-1.22525e-06
2.74675e-07
-2.36825e-07
-8.52721e-07
2.66306e-07
-2.12468e-07
9.13814e-07
-1.95779e-07
-2.03403e-07
0.000268056
-0.000270079
-1.2357e-06
-0.00026806
2.39317e-07
2.46901e-07
0.000270085
-1.19741e-07
-4.85492e-08
0.00113247
-2.34427e-07
1.2359e-06
2.72268e-07
9.1136e-07
-2.15407e-07
2.6922e-07
-8.53051e-07
-0.00113249
-1.21742e-07
-0.00113189
-4.94406e-08
-1.19119e-06
2.72077e-07
-2.34123e-07
-8.52485e-07
2.69089e-07
9.11117e-07
-2.15157e-07
0.00113186
1.2358e-06
0.0011324
-1.21784e-07
-0.00113242
-4.93965e-08
-1.19132e-06
2.72181e-07
-2.34226e-07
-8.52733e-07
2.6917e-07
-2.152e-07
9.11356e-07
-0.000268073
2.41753e-07
2.47082e-07
-4.96616e-08
-2.36786e-07
1.26968e-06
2.74637e-07
9.13802e-07
-2.124e-07
2.66288e-07
-8.55287e-07
-1.22021e-07
-2.34185e-07
1.23578e-06
2.72146e-07
-2.15107e-07
2.69147e-07
-1.22468e-07
-4.96858e-08
9.11362e-07
-8.52643e-07
-1.12339e-10
-7.01889e-08
0.000229293
3.2138e-08
2.15842e-09
-0.000229257
-5.1952e-09
2.24362e-08
0.000193525
-3.57911e-09
-0.000193538
6.82964e-09
-4.36734e-08
0.000193578
3.31253e-09
-0.000193544
1.34574e-10
2.87177e-08
0.000229238
-1.32054e-08
8.97426e-10
-0.000229254
5.14047e-09
1.12008e-08
9.79803e-05
-9.79966e-05
-6.77745e-09
-2.00543e-08
9.80176e-05
-9.79908e-05
-7.02594e-08
-2.07059e-10
0.000229321
2.16119e-09
3.0074e-08
-0.000229283
-5.16384e-09
2.46931e-08
0.000193545
-4.15436e-09
-0.000193561
6.8128e-09
-4.59692e-08
0.0001936
3.9118e-09
-0.000193565
2.88162e-08
2.35538e-10
0.000229263
8.81464e-10
-1.11571e-08
-0.000229282
-7.10229e-08
-7.10798e-08
0.00118432
-0.00118442
-7.11132e-08
-7.10993e-08
0.0011839
-0.001184
-7.11513e-08
-7.11012e-08
0.00118413
-0.00118423
-0.00118413
-7.35714e-08
-7.35939e-08
0.00118404
-0.00118413
-7.35145e-08
-7.35484e-08
0.00118403
-0.00118371
-7.35943e-08
-7.35706e-08
0.00118362
-0.00118394
-7.36315e-08
-7.35888e-08
0.00118384
7.01836e-08
-1.63605e-09
0.000250196
4.01977e-09
-1.93118e-07
-0.000250076
-9.75373e-09
-2.46514e-08
6.64112e-08
0.0002454
4.09098e-09
-0.000245437
0.00115244
3.631e-09
-1.40087e-07
1.00837e-06
-7.57683e-07
8.30708e-07
-9.36855e-07
-0.0011525
-4.89094e-08
1.24126e-06
0.00113228
-1.20353e-07
-8.52861e-07
2.66437e-07
-2.12569e-07
9.11232e-07
-1.19684e-06
2.72126e-07
-2.34225e-07
2.06971e-08
4.59247e-08
0.000245475
-1.665e-08
-0.000245419
-1.05054e-07
-3.70093e-09
0.00115239
-1.41599e-07
-9.36616e-07
8.30799e-07
-7.57439e-07
1.00846e-06
-2.87451e-08
1.63218e-09
0.000250063
1.90923e-09
1.32636e-07
-0.00025017
5.17514e-09
1.34472e-08
9.79615e-05
-9.79801e-05
-6.82428e-09
-2.22832e-08
9.80011e-05
-9.7972e-05
-1.3138e-09
7.00953e-08
0.000250159
-1.93032e-07
4.06721e-09
-0.000250039
0.00115213
3.58739e-09
-1.40184e-07
1.00277e-06
-7.52151e-07
8.25179e-07
-9.31248e-07
-0.00115219
-9.86381e-09
-2.24883e-08
6.65008e-08
0.000245343
4.15166e-09
-0.000245382
-4.88985e-08
1.23577e-06
0.00113191
-1.20394e-07
-8.52685e-07
2.69127e-07
-2.15296e-07
9.11128e-07
-1.19139e-06
2.72137e-07
-2.34256e-07
-3.64192e-09
0.00115208
-1.41701e-07
-9.31001e-07
8.25267e-07
-7.51905e-07
1.00285e-06
2.08365e-08
4.3759e-08
0.00024542
-1.67353e-08
-0.000245362
-1.05153e-07
1.29645e-09
-2.8681e-08
0.000250025
1.32564e-07
1.87773e-09
-0.000250132
1.2277e-08
-1.11657e-08
2.48169e-08
0.000278125
-7.02609e-09
-0.000278144
1.23106e-08
-1.11108e-08
2.25072e-08
0.000278073
-7.54043e-09
-0.000278089
-1.26977e-06
-1.23587e-06
0.000270087
-0.00026807
2.41876e-07
2.47211e-07
-2.31597e-08
2.00099e-08
0.000278195
9.92109e-09
-0.000278151
-5.09884e-08
-2.32489e-08
1.99297e-08
0.00027814
1.05399e-08
-0.000278098
-4.86989e-08
-0.000278245
1.21674e-08
-1.12864e-08
2.48894e-08
-6.88806e-09
0.000278227
-0.00027819
1.21959e-08
-1.1231e-08
2.2578e-08
-7.39866e-09
0.000278174
1.11053e-08
9.79782e-05
-9.79945e-05
-1.99603e-08
9.80155e-05
-9.79887e-05
1.11484e-08
9.79774e-05
-9.79937e-05
-1.99884e-08
9.80147e-05
-9.79879e-05
9.90237e-09
2.25162e-08
0.000278124
-7.5149e-09
-0.000278137
1.23058e-08
2.25278e-08
0.00027808
-7.53503e-09
-0.000278096
0.000270104
-1.27518e-06
-1.23859e-06
-0.000268077
2.39326e-07
2.472e-07
0.000278188
-2.07978e-08
1.04127e-08
-0.000278149
-4.86949e-08
0.000278147
-2.32301e-08
1.05191e-08
-0.000278105
-4.87427e-08
-1.9852e-08
-6.87606e-09
-9.80097e-05
9.80364e-05
1.11665e-08
5.13059e-09
9.79992e-05
-1.98761e-08
-6.86417e-09
-9.80088e-05
9.80356e-05
1.12058e-08
5.10209e-09
9.79984e-05
1.23073e-06
1.19408e-06
0.000268078
-1.95578e-07
-2.03407e-07
-2.08124e-08
-4.85816e-08
-0.0002782
1.04654e-08
0.000278239
-2.32417e-08
-4.86285e-08
-0.000278156
1.05678e-08
0.000278198
9.84398e-09
-7.44203e-09
2.25418e-08
0.000278174
1.22481e-08
-7.46531e-09
2.25529e-08
0.000278131
-7.02085e-08
0.000229329
3.21487e-08
2.22303e-09
-0.000229294
2.25555e-08
0.00019356
-3.7233e-09
-0.000193573
-4.37887e-08
0.000193613
3.44558e-09
-0.000193579
2.87488e-08
0.000229274
-1.32247e-08
8.68553e-10
-0.00022929
-1.42593e-09
0.000250171
3.59942e-09
-1.95717e-07
-0.000250048
6.40864e-08
0.000245344
4.19598e-09
-0.00024538
0.00115252
3.57775e-09
-1.40049e-07
1.00838e-06
-7.5765e-07
8.30691e-07
-9.36825e-07
-0.00115257
-4.88333e-08
0.00113144
-1.20072e-07
-1.23084e-06
2.77507e-07
-2.39762e-07
-8.52881e-07
2.66373e-07
-2.12602e-07
9.11173e-07
0.000245418
-1.67488e-08
-0.000245363
-1.02656e-07
-3.66334e-09
0.00115247
-1.41562e-07
-9.36575e-07
8.30784e-07
-7.57403e-07
1.00845e-06
1.45015e-09
0.000250035
2.31408e-09
1.35201e-07
-0.000250145
0.000250199
4.56643e-09
-1.95741e-07
-0.000250079
-1.22492e-08
6.65733e-08
0.000245357
4.141e-09
-0.000245393
0.00115267
-1.40021e-07
1.01129e-06
-7.57773e-07
8.3079e-07
-9.39724e-07
-0.00115272
-4.87942e-08
0.00113189
1.28068e-06
-1.20031e-07
-8.58404e-07
2.69134e-07
9.16691e-07
-2.15428e-07
-1.23633e-06
2.80344e-07
-2.42599e-07
0.000245431
2.31175e-08
-1.6677e-08
-0.000245376
-1.0513e-07
0.00115261
-1.4153e-07
-9.39488e-07
8.30883e-07
-7.57521e-07
1.01136e-06
0.000250066
1.37839e-09
1.35251e-07
-0.000250173
1.30767e-10
2.8627e-08
-1.31856e-08
9.1361e-10
0.000229277
-4.35945e-08
-0.000193584
3.2444e-09
0.000193618
2.2447e-08
-3.65238e-09
0.000193564
-1.1486e-10
-7.01614e-08
-0.000229296
3.20928e-08
2.17337e-09
0.000229332
2.86573e-08
-1.32046e-08
8.77517e-10
0.000229313
-4.36966e-08
6.81193e-09
-0.000193619
3.38487e-09
0.000193653
2.2563e-08
-5.0781e-09
-3.79163e-09
0.000193599
-7.01788e-08
-0.000229333
3.21027e-08
2.23144e-09
0.000229368
1.44619e-09
2.33823e-09
1.34942e-07
0.000250061
-4.91477e-08
-1.20814e-07
1.27515e-06
-2.39693e-07
2.77472e-07
9.11171e-07
-2.12522e-07
2.66363e-07
-8.52775e-07
-1.02567e-07
-0.000245401
-1.67591e-08
0.000245456
-0.00115241
-3.64426e-09
-1.44485e-07
-9.36166e-07
8.30943e-07
-7.5693e-07
1.00857e-06
0.00115236
4.13776e-09
6.40271e-08
0.000245382
3.60022e-09
-1.43104e-07
1.0085e-06
-7.57162e-07
-9.36386e-07
8.3086e-07
-1.43005e-09
-0.000250074
3.61234e-09
-1.95744e-07
0.000250198
1.39457e-09
1.34992e-07
0.000250093
-4.90882e-08
-1.23623e-06
-1.20773e-07
9.16693e-07
-2.15348e-07
-8.58302e-07
2.6912e-07
1.28065e-06
-2.42539e-07
2.80316e-07
2.31324e-08
-1.05037e-07
-0.000245414
-1.66872e-08
0.000245469
-0.00115257
-1.44454e-07
-9.39064e-07
8.31039e-07
-7.57048e-07
1.01149e-06
0.00115251
-1.21946e-08
4.08186e-09
6.65144e-08
0.000245395
-1.43084e-07
1.01143e-06
-7.57284e-07
-9.39278e-07
8.30957e-07
-0.000250106
4.57411e-09
-1.95767e-07
0.000250226
2.25983e-08
0.00027807
-1.01188e-08
-0.000278084
-1.34527e-08
2.24409e-08
0.000278174
-1.01069e-08
-0.000278182
0.000270133
-0.000268098
2.42112e-07
2.44463e-07
0.000278134
1.29866e-08
-0.000278095
-4.87672e-08
2.22685e-08
0.000278233
1.30928e-08
-0.000278199
-4.8614e-08
5.1432e-09
9.7983e-05
-9.80016e-05
9.80226e-05
-6.81281e-09
-9.79935e-05
-1.99546e-08
-9.80118e-05
9.80385e-05
1.1259e-08
9.80013e-05
1.19674e-06
0.000268099
-1.98289e-07
-2.0072e-07
-4.86587e-08
-0.000278146
1.30335e-08
0.000278185
2.21676e-08
-2.07184e-08
-4.8503e-08
-0.00027825
1.31421e-08
0.000278284
-1.00503e-08
2.26206e-08
0.000278121
-1.35126e-08
9.69661e-09
-1.0036e-08
2.24617e-08
0.000278224
-6.85133e-09
-9.80145e-05
9.80435e-05
5.07953e-09
9.8004e-05
-1.77489e-09
0.000250184
4.03356e-09
-1.90556e-07
-0.000250066
6.40838e-08
0.000245359
4.13078e-09
-0.00024539
0.00115239
3.64454e-09
-1.40052e-07
1.00835e-06
-7.54981e-07
8.30737e-07
-9.34118e-07
-0.00115245
-4.88973e-08
0.00113255
-1.20395e-07
-1.19419e-06
2.75014e-07
-2.37104e-07
-8.55564e-07
2.69218e-07
-2.15363e-07
9.1399e-07
0.000245428
-1.66848e-08
-0.000245378
-1.02714e-07
-3.72869e-09
0.00115235
-1.41636e-07
-9.36578e-07
8.28104e-07
-7.57452e-07
1.00573e-06
1.78405e-09
0.000250053
1.88045e-09
1.30073e-07
-0.000250157
-7.02386e-08
0.000229285
3.00498e-08
2.07718e-09
-0.000229247
2.46782e-08
0.000193492
-3.74295e-09
-0.000193508
-4.58931e-08
0.000193548
3.45266e-09
-0.000193512
2.88125e-08
0.000229228
-1.11424e-08
1.02174e-09
-0.000229246
0.000250153
-1.93143e-07
4.26105e-09
-0.000250036
0.00115236
-1.40006e-07
1.00837e-06
-7.57752e-07
8.30746e-07
-9.36857e-07
-0.00115241
-1.22055e-08
6.40783e-08
0.00024529
6.52529e-09
-0.000245324
-4.88278e-08
0.00113154
1.27523e-06
-1.19982e-07
-8.55574e-07
2.69067e-07
9.13808e-07
-2.15362e-07
-1.23089e-06
2.80344e-07
-2.42598e-07
0.00115231
-1.41529e-07
-9.36623e-07
8.30835e-07
-7.57502e-07
1.00844e-06
0.000245362
2.30836e-08
-1.90727e-08
-0.000245309
-1.02602e-07
0.000250023
1.32685e-07
1.68128e-09
-0.000250126
2.87236e-08
2.3483e-10
8.93611e-10
-1.11364e-08
0.000229302
-4.59008e-08
-0.000193605
3.84442e-09
0.00019364
2.47056e-08
-4.22614e-09
0.000193585
-7.02332e-08
-2.08464e-10
-0.000229322
2.16989e-09
3.00368e-08
0.00022936
1.78304e-09
1.89845e-09
1.29814e-07
0.000250079
-4.92373e-08
-1.21125e-07
1.23856e-06
-2.37045e-07
2.74988e-07
9.13991e-07
-2.15288e-07
2.69201e-07
-8.55457e-07
-1.02626e-07
-0.000245416
-1.67016e-08
0.000245466
-0.00115229
-3.72602e-09
-1.44562e-07
-9.36154e-07
8.28259e-07
-7.56982e-07
1.00585e-06
0.00115224
4.07095e-09
6.4026e-08
0.000245397
3.64208e-09
-1.43119e-07
1.00848e-06
-7.54493e-07
-9.33671e-07
8.30902e-07
-1.77615e-09
-0.000250092
4.04299e-09
-1.90582e-07
0.00025021
2.87198e-08
-1.11212e-08
1.03199e-09
0.000229267
-4.58171e-08
6.86422e-09
-0.000193552
3.39215e-09
0.000193587
2.46886e-08
-5.1181e-09
-3.80883e-09
0.000193532
-7.02131e-08
-0.000229286
3.00131e-08
2.08317e-09
0.000229324
1.32427e-07
1.69674e-09
0.000250049
-4.91168e-08
-1.23079e-06
-1.20731e-07
9.13814e-07
-2.15282e-07
-8.55474e-07
2.69053e-07
1.2752e-06
-2.4254e-07
2.80316e-07
-0.00115226
-1.44449e-07
-9.3621e-07
8.30991e-07
-7.57032e-07
1.00857e-06
0.0011522
2.30918e-08
-1.02514e-07
-0.000245347
-1.9082e-08
0.0002454
-1.43071e-07
1.00851e-06
-7.57265e-07
-9.36414e-07
8.30911e-07
-1.21532e-08
6.47107e-09
6.40181e-08
0.000245328
-0.000250062
-1.93168e-07
4.26671e-09
0.000250179
-1.41043e-10
0.000229328
2.16655e-09
3.21349e-08
-0.000229292
0.000193557
-3.76609e-09
-0.000193572
0.000193612
3.50573e-09
-0.000193577
1.59084e-10
0.000229272
8.84876e-10
-1.32241e-08
-0.000229289
7.01489e-08
0.000250166
-1.9051e-07
4.30638e-09
-0.000250051
0.00115237
-1.40047e-07
1.00567e-06
-7.57723e-07
8.30725e-07
-9.34133e-07
-0.00115242
-2.24917e-08
6.40967e-08
0.000245336
4.18975e-09
-0.00024537
-4.88336e-08
0.00113134
-1.20005e-07
-1.22545e-06
2.74731e-07
-2.36949e-07
-8.52919e-07
2.66339e-07
-2.12613e-07
9.11153e-07
0.00115231
-1.4155e-07
-9.33897e-07
8.30815e-07
-7.57475e-07
1.00573e-06
4.37134e-08
0.000245408
-1.67442e-08
-0.000245355
-1.02629e-07
-2.87351e-08
0.000250038
1.30061e-07
1.63076e-09
-0.00025014
0.000229292
3.21138e-08
2.22143e-09
-0.000229256
-5.14529e-09
0.000193505
-3.68928e-09
-0.000193519
0.000193559
6.78566e-09
3.41157e-09
-0.000193525
0.000229236
-1.32179e-08
8.62679e-10
-0.000229253
-2.86571e-08
1.62853e-09
1.9261e-09
1.32382e-07
0.000250089
-4.92167e-08
-1.21095e-07
1.24122e-06
-2.34167e-07
2.72096e-07
9.11239e-07
-2.12485e-07
-8.52763e-07
2.66421e-07
4.58369e-08
-1.0497e-07
-0.000245458
-1.66606e-08
0.000245513
-0.00115233
-4.87265e-09
-1.44526e-07
-9.36184e-07
8.30948e-07
1.00858e-06
-7.56975e-07
0.00115229
-2.46598e-08
4.03425e-09
6.63493e-08
0.000245439
3.49122e-09
-1.43153e-07
1.00852e-06
-7.57203e-07
-9.36413e-07
8.30875e-07
7.01544e-08
-1.94067e-09
-0.000250103
4.2636e-09
-1.93137e-07
0.000250223
1.57432e-10
8.97133e-10
-1.3205e-08
0.000229311
-0.000193616
3.4418e-09
0.000193652
-3.83715e-09
0.000193596
-2.02791e-10
-0.000229331
2.1729e-09
3.20954e-08
0.000229367
-2.86473e-08
1.29803e-07
1.65413e-09
0.000250065
-4.91304e-08
-1.22533e-06
-1.20757e-07
9.11161e-07
-2.12531e-07
-8.52812e-07
2.66329e-07
1.26974e-06
-2.3688e-07
2.74704e-07
-0.00115226
0.0011522
-1.44469e-07
-9.33493e-07
8.30965e-07
-7.57006e-07
1.00857e-06
4.36338e-08
2.31698e-08
0.000245446
-1.02542e-07
-0.000245394
-1.67521e-08
-1.43102e-07
1.00579e-06
-7.5724e-07
-9.33697e-07
8.30891e-07
-2.25025e-08
-1.22215e-08
4.13355e-09
6.40375e-08
0.000245375
7.01216e-08
0.000250192
-0.000250078
-1.90533e-07
4.557e-09
-1.31982e-08
8.76332e-10
0.000229275
6.82964e-09
0.000193598
-0.000193565
3.34754e-09
-5.08455e-09
-3.75941e-09
0.000193545
0.00022933
-0.000229295
3.20751e-08
2.23223e-09
2.47778e-08
0.000278033
-7.13988e-09
-0.00027805
-1.11715e-08
2.47883e-08
0.000278131
-6.92474e-09
-0.000278148
0.000270081
-0.000268057
2.39444e-07
2.47029e-07
0.0002781
1.00416e-08
-0.000278059
-5.09446e-08
1.99887e-08
0.000278199
9.95714e-09
-0.000278157
-5.09904e-08
5.14528e-09
9.79717e-05
-9.7988e-05
9.8009e-05
-6.8179e-09
-9.79822e-05
-2.21818e-08
-9.79929e-05
9.8022e-05
1.35013e-08
9.79825e-05
1.19129e-06
0.000268058
-1.95675e-07
-2.03292e-07
-5.08339e-08
-0.000278109
1.00813e-08
0.000278151
1.98867e-08
-2.08528e-08
-5.0878e-08
-0.000278207
1.0004e-08
0.000278249
-7.07633e-09
2.47998e-08
0.000278084
-1.12307e-08
9.80748e-09
-6.8525e-09
2.48118e-08
0.000278182
-6.85517e-09
-9.80032e-05
9.80299e-05
5.08272e-09
9.79927e-05
7.01377e-08
0.000250184
-1.90488e-07
4.75955e-09
-0.00025007
0.00115226
-1.40183e-07
1.00568e-06
-7.54998e-07
8.28023e-07
-9.34117e-07
-0.00115231
-2.24594e-08
6.64767e-08
0.000245352
4.19094e-09
-0.000245387
-4.88591e-08
0.00113244
-1.20445e-07
-1.19152e-06
2.7224e-07
-2.34349e-07
-8.52932e-07
2.69201e-07
-2.15328e-07
9.11364e-07
0.00115221
-1.4169e-07
-9.33884e-07
8.28112e-07
-7.54751e-07
1.00575e-06
4.37514e-08
0.000245425
-1.67424e-08
-0.000245371
-1.05145e-07
-2.8726e-08
0.000250057
1.30028e-07
1.15758e-09
-0.000250158
-1.0981e-10
0.000229284
2.23247e-09
3.20785e-08
-0.000229248
0.000193509
-3.67265e-09
-0.000193523
0.000193563
3.39994e-09
-0.000193529
1.05378e-10
0.000229229
8.43392e-10
-1.31822e-08
-0.000229245
0.00022932
2.13088e-09
2.99763e-08
-0.000229282
-5.22234e-09
0.000193546
-3.54022e-09
-0.000193559
0.000193599
6.88985e-09
3.29281e-09
-0.000193566
0.000229263
9.34364e-10
-1.10797e-08
-0.000229281
1.30078e-09
-2.85762e-08
1.323e-07
1.88757e-09
0.000250052
-4.92176e-08
-1.21142e-07
1.23574e-06
-2.34175e-07
2.72112e-07
9.11065e-07
-2.152e-07
-8.52631e-07
2.69134e-07
-0.00115203
-3.64447e-09
-1.44625e-07
-9.30577e-07
8.2542e-07
1.00298e-06
-7.5143e-07
0.00115198
4.36648e-08
-1.05059e-07
-0.0002454
-1.67468e-08
0.000245458
3.59109e-09
-1.4325e-07
1.00291e-06
-7.51661e-07
-9.30801e-07
8.25341e-07
-2.24973e-08
4.09374e-09
6.64423e-08
0.000245381
-1.31219e-09
7.00486e-08
-0.000250065
-1.93049e-07
4.07862e-09
0.000250185
-2.86179e-08
1.2976e-07
1.17614e-09
0.000250083
-4.9145e-08
-1.19141e-06
-1.21195e-07
9.11367e-07
-2.15248e-07
-8.52828e-07
2.6919e-07
1.23584e-06
-2.34286e-07
2.72215e-07
-0.00115216
-1.44614e-07
-9.33457e-07
8.28262e-07
-7.54278e-07
1.00587e-06
0.0011521
4.36823e-08
2.32634e-08
0.000245464
-1.05057e-07
-0.000245409
-1.6759e-08
-1.43253e-07
1.00582e-06
-7.54506e-07
-9.33674e-07
8.28186e-07
-2.24721e-08
-1.2254e-08
4.13408e-09
6.6418e-08
0.00024539
7.00877e-08
-0.000250096
-1.90502e-07
4.7744e-09
0.000250211
1.11216e-10
8.38566e-10
-1.31531e-08
0.000229268
-0.000193569
3.33428e-09
0.000193602
-3.74053e-09
0.000193549
-1.11524e-10
-0.000229287
2.25757e-09
3.20189e-08
0.000229323
9.37266e-10
-1.10453e-08
0.000229302
6.94344e-09
0.000193639
-0.000193605
3.22072e-09
-5.16322e-09
-3.60673e-09
0.000193585
-0.000229321
2.15631e-09
2.99118e-08
0.000229359
9.7971e-05
-9.79873e-05
9.80083e-05
-9.79815e-05
9.79753e-05
-9.79916e-05
9.80126e-05
-9.79858e-05
0.000268071
-1.9817e-07
-2.03436e-07
1.99038e-08
-5.08778e-08
-0.000278201
9.96713e-09
1.98173e-08
-4.85842e-08
-0.000278149
1.059e-08
-1.12219e-08
-6.95867e-09
2.48408e-08
0.000278176
-1.11675e-08
-7.47368e-09
2.25323e-08
0.000278123
9.80292e-05
-9.80024e-05
9.7992e-05
9.80335e-05
-9.80067e-05
9.79963e-05
1.00863e-06
-7.56801e-07
8.30998e-07
-9.36035e-07
2.63068e-10
-1.45902e-07
-2.2523e-08
6.40014e-08
4.07919e-09
0.000245413
-2.85757e-08
0.000250088
1.29582e-07
2.87885e-09
-1.89431e-10
-5.02563e-09
-3.8267e-09
0.000193584
0.000229314
-1.31981e-08
8.94007e-10
7.26916e-12
-2.24953e-08
6.63794e-08
0.000245428
4.08843e-09
-5.10952e-09
0.000193625
-3.66602e-09
9.80128e-05
9.80172e-05
-7.53394e-10
1.43915e-08
0.000143282
-3.24182e-10
-0.000143295
-0.000171014
-3.42809e-10
9.32977e-12
0.000171047
-0.000223249
3.09368e-08
4.34118e-09
0.000223285
-6.92129e-08
-1.31918e-08
9.02005e-10
-0.000229273
-1.42425e-11
2.86722e-08
-0.000171028
-7.94952e-12
8.13046e-10
-0.000223265
3.05318e-08
1.62263e-09
0.000143311
-2.65934e-08
-7.92065e-05
7.92347e-05
-1.60542e-09
3.34959e-09
0.000193558
6.80253e-09
-4.37076e-08
0.000263067
-1.90632e-08
-7.93358e-10
3.06269e-08
-0.000263081
0.000263107
-4.33038e-09
-5.92492e-08
3.49507e-10
-7.92259e-05
1.9082e-08
7.92152e-05
-0.000263093
2.65498e-08
0.000263133
-5.92079e-08
-3.61608e-09
-5.16322e-09
2.24407e-08
3.06282e-08
7.92434e-05
3.53379e-10
-3.09532e-08
-0.000143266
3.21551e-08
2.15466e-09
3.56526e-11
-7.02034e-08
0.000170996
7.42093e-10
3.07113e-12
-0.00017101
0.000223229
-1.44033e-08
3.05795e-08
-0.000223245
2.00867e-11
-6.9231e-08
-0.000143279
9.80071e-05
-6.75262e-09
-2.01053e-08
5.10858e-09
1.12283e-08
1.24157e-08
-7.18028e-10
0.000143351
-1.51888e-10
-0.000143363
-0.000223332
2.8949e-08
4.27913e-09
0.00022337
-6.93619e-08
-0.000171047
-3.43202e-10
-3.11662e-11
0.000171077
6.42847e-10
-1.11374e-08
-0.000229304
9.22103e-11
3.11936e-08
8.45339e-10
-0.000223352
3.31133e-08
-0.000171059
5.87442e-11
1.39921e-09
0.000143378
-2.44968e-08
-7.92522e-05
7.92781e-05
-1.38281e-09
3.94912e-09
0.00019358
6.78588e-09
-4.60015e-08
0.000263176
-1.69167e-08
-8.24008e-10
3.31555e-08
-0.000263196
0.000263222
-4.26566e-09
-6.18435e-08
1.76003e-10
-7.92693e-05
1.69327e-08
7.9261e-05
-0.000263202
2.44546e-08
0.000263248
-6.17991e-08
-4.19062e-09
-5.13125e-09
2.46956e-08
3.31501e-08
7.92869e-05
-2.89639e-08
3.51889e-10
-0.000143335
2.40022e-09
3.00891e-08
-6.01709e-11
-7.27035e-08
0.000223311
-1.2434e-08
3.0755e-08
-0.00022333
0.000171028
7.09094e-10
6.73099e-11
-0.00017104
-7.17891e-08
-2.34964e-11
-0.000143347
9.79906e-05
-6.80115e-09
-2.23321e-08
5.14467e-09
1.34743e-08
-6.97768e-09
-7.01017e-09
0.000213708
1.01282e-08
1.22147e-08
-0.000213716
-8.05257e-05
-1.23566e-08
-1.20169e-08
8.05501e-05
-8.05145e-05
-1.23029e-08
-1.20905e-08
8.05389e-05
9.46736e-09
-8.05422e-05
9.45286e-09
-8.05309e-05
-2.50252e-08
-2.72193e-08
0.000213736
-3.60772e-08
3.33759e-08
-0.000221861
0.000221899
2.50514e-08
-5.98819e-08
0.000250636
-1.57937e-08
5.86523e-08
2.95122e-08
-0.000250684
-5.1041e-08
9.89772e-09
0.00027817
2.00609e-08
-2.31534e-08
0.00018299
1.61625e-08
-9.48005e-09
-0.000183004
0.000250699
-9.74847e-08
-5.23521e-08
0.000183021
1.20189e-08
-1.0129e-08
3.10885e-08
-0.000221882
-3.61681e-08
3.13902e-08
-0.000221801
0.000221838
2.72469e-08
-6.01064e-08
0.000250541
-1.58232e-08
6.35234e-08
2.95626e-08
-0.000250596
-4.87489e-08
1.05055e-08
0.000278114
1.99835e-08
-2.32386e-08
0.000182945
1.4207e-08
-9.46737e-09
-0.000182958
0.000250611
-1.02399e-07
-5.24404e-08
0.000182975
1.20771e-08
-1.22129e-08
3.12899e-08
-0.000221822
1.57806e-08
-1.61794e-08
0.000221878
3.10898e-08
-0.000183008
-3.33247e-08
0.000183039
2.48276e-08
-6.99344e-09
-1.11933e-08
1.22505e-08
-0.000250651
3.60634e-08
0.000250714
-9.74265e-08
-5.23553e-08
5.86353e-08
2.94821e-08
0.000221916
-5.98202e-08
1.58087e-08
-1.42245e-08
0.000221818
3.12927e-08
-0.000182963
-3.13542e-08
0.000182993
2.25162e-08
-7.50517e-09
-1.11391e-08
1.22829e-08
-0.000250556
3.61611e-08
0.000250626
-1.02343e-07
-5.2447e-08
6.35057e-08
2.95344e-08
0.000221855
-6.00466e-08
1.23747e-08
1.23348e-08
-0.000213689
8.05178e-05
6.97353e-09
-8.05342e-05
8.05065e-05
7.00435e-09
-8.0523e-05
-0.000213697
-0.000221929
-3.60076e-08
3.31722e-08
2.49341e-08
-5.96169e-08
-1.5768e-08
0.000250697
-0.000250745
5.86383e-08
2.93989e-08
1.62425e-08
0.00018306
-9.42497e-09
-0.000183074
-5.08193e-08
9.9888e-09
1.98491e-08
-2.31735e-08
-1.01532e-08
-0.00022195
3.11416e-08
-9.72439e-08
-5.23539e-08
1.20086e-08
-0.000221869
-3.61165e-08
3.12038e-08
2.71356e-08
-5.98397e-08
-1.57918e-08
0.000250602
-0.000250657
6.35144e-08
2.94462e-08
1.42916e-08
0.000183015
-9.4115e-09
-0.000183028
-4.85269e-08
1.06185e-08
1.97679e-08
-2.32754e-08
-1.2238e-08
-0.000221889
3.13513e-08
-1.02153e-07
-5.24633e-08
1.20897e-08
-0.000213766
1.2296e-08
1.2238e-08
6.99871e-09
8.05495e-05
-8.05659e-05
7.03417e-09
8.05382e-05
-8.05547e-05
-0.000213774
9.8005e-05
-2.00133e-08
1.11346e-08
9.80042e-05
-2.00389e-08
1.1176e-08
-6.99258e-09
-7.00559e-09
0.000213708
1.2206e-08
1.01463e-08
-0.000213717
-8.0526e-05
-1.23772e-08
-1.20045e-08
8.05504e-05
-8.05125e-05
-1.23103e-08
-1.20872e-08
8.05369e-05
9.45517e-09
-8.05425e-05
9.45959e-09
-8.0529e-05
-2.71052e-08
-2.51691e-08
0.000213736
3.1436e-08
-3.60952e-08
-0.000221862
0.0002219
2.71298e-08
-6.00815e-08
0.000250635
-1.58153e-08
6.36511e-08
2.69697e-08
-0.000250687
1.0385e-08
-4.87431e-08
0.000278163
-2.07905e-08
0.000182991
1.42261e-08
-9.47061e-09
-0.000183003
0.000183021
1.20009e-08
0.000250702
-1.02497e-07
-4.97998e-08
-1.22044e-08
3.12859e-08
-0.000221883
3.14198e-08
-3.61951e-08
-0.000221797
0.000221839
2.51932e-08
-6.23065e-08
0.000250544
-1.58203e-08
6.35925e-08
3.208e-08
-0.000250601
1.04927e-08
-4.87929e-08
0.000278122
-2.32184e-08
0.000182941
1.42264e-08
-9.47399e-09
-0.000182953
0.000182971
1.20859e-08
0.000250616
-1.02492e-07
-5.4983e-08
-1.01448e-08
3.35002e-08
-0.000221822
-1.42423e-08
0.000221879
1.5803e-08
3.12872e-08
-0.000183008
-3.13902e-08
0.000183038
-7.47839e-09
2.2527e-08
9.87324e-09
3.60876e-08
-0.00025065
0.000250717
-1.02447e-07
-4.98014e-08
0.000221917
-6.00241e-08
6.36356e-08
2.69388e-08
-1.42411e-08
0.000221814
1.58051e-08
3.35025e-08
-0.000182959
-3.13734e-08
0.000182988
-7.49955e-09
2.25363e-08
1.22784e-08
3.61853e-08
-0.000250559
0.000250632
-1.02437e-07
-5.49885e-08
0.000221856
-6.22492e-08
6.3572e-08
3.2053e-08
1.24014e-08
1.23317e-08
-0.000213689
8.05181e-05
6.98581e-09
-8.05345e-05
8.05046e-05
7.00045e-09
-8.05211e-05
-0.000213698
-9.8026e-05
1.11952e-08
5.1013e-09
-1.9905e-08
-6.85157e-09
-9.80251e-05
1.12346e-08
5.07369e-09
-1.99343e-08
-6.83251e-09
-0.000213728
1.23556e-08
1.22913e-08
-2.70772e-08
-2.51404e-08
0.000213755
7.00033e-09
8.0534e-05
9.43898e-09
7.00995e-09
8.05205e-05
9.4467e-09
1.22105e-08
1.01511e-08
-1.20051e-08
8.05583e-05
-1.20846e-08
8.05449e-05
-1.42846e-08
1.57869e-08
0.000221913
-0.000221934
-1.22187e-08
3.13178e-08
-0.00025068
3.60565e-08
-1.0232e-07
-4.98107e-08
0.000250748
-7.40693e-09
2.25631e-08
-0.000278213
9.81562e-09
-0.000183043
-3.12914e-08
1.20052e-08
0.000183073
-0.000183056
-9.42475e-09
-0.000250733
6.36277e-08
2.68826e-08
2.70497e-08
-5.98893e-08
0.000221951
-1.42802e-08
1.57908e-08
0.000221848
-0.000221873
-1.01597e-08
3.3531e-08
-0.00025059
3.6152e-08
-1.0231e-07
-5.49987e-08
0.000250662
-7.42812e-09
2.25732e-08
-0.000278172
1.22206e-08
-0.000182994
-3.1274e-08
1.20848e-08
0.000183023
-0.000183006
-9.42818e-09
-0.000250647
6.35664e-08
3.19945e-08
2.511e-08
-6.21158e-08
0.00022189
-0.000221896
3.13438e-08
-3.60693e-08
-5.99563e-08
1.42583e-08
0.000183026
-1.57934e-08
0.000250665
6.36258e-08
2.69127e-08
1.04389e-08
-4.86382e-08
-2.08043e-08
3.12983e-08
-1.0238e-07
-4.98101e-08
-0.000221831
3.13254e-08
-3.61676e-08
-6.21818e-08
1.42597e-08
0.000182976
-1.57986e-08
0.000250574
6.35672e-08
3.20221e-08
1.05417e-08
-4.86884e-08
-2.32316e-08
3.35138e-08
-1.02375e-07
-5.4994e-08
-7.00661e-09
-7.01989e-09
0.000213747
-8.05419e-05
-1.23321e-08
8.05662e-05
-8.05284e-05
-1.22667e-08
8.05528e-05
0.000213774
-7.27971e-10
1.2415e-08
0.000143352
-1.38401e-10
-0.000143364
-0.000171049
-3.08011e-10
0.000171081
-0.000223333
2.89546e-08
4.36902e-09
0.000223374
-7.17689e-08
-1.32124e-08
6.48643e-10
-0.00022931
2.87025e-08
-0.000171063
8.10538e-10
-0.000223354
3.30784e-08
1.43041e-09
0.000143379
-2.4472e-08
-7.9251e-05
7.92769e-05
-1.41591e-09
3.47914e-09
0.000193593
-4.38235e-08
0.000263174
-1.69341e-08
-7.93805e-10
3.31679e-08
-0.000263193
0.000263219
-4.35853e-09
-6.18001e-08
1.6167e-10
-7.92681e-05
1.6951e-08
7.92598e-05
-0.0002632
2.44304e-08
0.000263245
-6.1759e-08
-3.75846e-09
2.25577e-08
3.3165e-08
7.92856e-05
3.15342e-10
-2.89714e-08
-0.000143336
3.21679e-08
2.44275e-09
-7.02184e-08
0.00017103
7.20223e-10
-0.000171044
0.000223313
-1.24301e-08
3.31321e-08
-0.000223334
-7.17746e-08
-0.000143348
-0.000143297
3.34631e-10
-3.09104e-08
1.63764e-09
0.000143326
7.66514e-10
0.000171033
-1.04878e-12
-1.43866e-08
0.000223269
8.30092e-10
3.05051e-08
3.21154e-08
2.16668e-09
0.000229312
3.28385e-11
-7.01802e-08
-3.01292e-10
0.000171065
1.72712e-11
4.35646e-09
0.000223305
-6.91929e-08
7.92328e-05
1.91201e-08
-7.92522e-05
2.79254e-10
-3.68744e-09
-0.000193598
2.24596e-08
2.64569e-08
-0.000263145
-4.3701e-09
-5.91109e-08
0.000263185
-1.65485e-09
7.92609e-05
-0.000263159
-8.51613e-10
3.06387e-08
-7.9224e-05
-2.65001e-08
-1.91038e-08
0.000263119
3.06296e-08
3.28066e-09
-4.36343e-08
-5.9159e-08
0.000143313
-7.80347e-10
1.43808e-08
-1.31722e-08
9.21908e-10
-1.67606e-11
2.85844e-08
-3.23959e-10
-0.000171051
7.06067e-12
0.000171084
3.08964e-08
-0.000223289
-6.91702e-08
0.000223325
0.000143342
-1.17059e-11
3.04686e-08
-0.000143368
3.02752e-10
-2.89338e-08
1.44684e-09
0.000143395
7.36686e-10
0.000171067
-1.24072e-08
0.000223353
8.27417e-10
3.30492e-08
3.21281e-08
2.44867e-09
0.000229349
-7.01961e-08
-1.17467e-10
0.0001711
4.38052e-09
0.000223394
-7.17458e-08
1.69864e-08
7.92773e-05
-7.92944e-05
9.44866e-11
-3.8253e-09
-0.000193633
-5.04682e-09
2.25683e-08
-0.000263252
2.43399e-08
-4.39271e-09
-6.16625e-08
0.000263297
-0.000263271
-8.44093e-10
3.31737e-08
-1.45931e-09
7.93031e-05
-7.92685e-05
-2.43805e-08
-1.69698e-08
0.000263226
3.31683e-08
3.41587e-09
6.79674e-09
-4.37495e-08
-6.17123e-08
-7.46848e-10
1.23926e-08
0.000143383
-1.31925e-08
6.62446e-10
2.86147e-08
-0.000171086
-2.95906e-10
0.000171118
-0.000223373
2.89133e-08
-7.17295e-08
0.000223414
3.30035e-08
0.00014341
-7.00387e-09
-7.02973e-09
0.000213715
1.22797e-08
1.01263e-08
-0.000213723
-8.0515e-05
-1.2391e-08
-1.20036e-08
8.05394e-05
-8.05287e-05
-1.23375e-08
-1.2055e-08
8.05531e-05
9.4574e-09
-8.05315e-05
9.42846e-09
-8.05452e-05
-2.7207e-08
-2.51275e-08
0.000213743
3.16773e-08
-3.85621e-08