/*--------------------------------*- C++ -*----------------------------------*\
| =========                 |                                                 |
| \\      /  F ield         | OpenFOAM: The Open Source CFD Toolbox           |
|  \\    /   O peration     | Version:  v1906                                 |
|   \\  /    A nd           | Web:      www.OpenFOAM.com                      |
|    \\/     M anipulation  |                                                 |
\*---------------------------------------------------------------------------*/
FoamFile
{
    version     2.0;
    format      ascii;
    class       volVectorField;
    location    "750";
    object      U;
}
// * * * * * * * * * * * * * * * * * * * * * * * * * * * * * * * * * * * * * //

dimensions      [0 1 -1 0 0 0 0];


internalField   nonuniform List<vector> 
42840
(
(-9.60002e-06 -9.59433e-06 0.112516)
(1.11347e-05 -5.97256e-06 0.107501)
(-5.97226e-06 1.11425e-05 0.1075)
(-2.39972e-05 -2.39853e-05 0.104199)
(-2.38749e-05 -2.38654e-05 0.104201)
(2.3982e-05 2.3976e-05 0.104199)
(-4.16814e-05 -4.16801e-05 0.104316)
(-5.95566e-06 -1.11107e-05 0.107499)
(5.95e-06 -1.11101e-05 0.107498)
(-6.04905e-06 -1.12265e-05 0.107492)
(6.04499e-06 -1.12237e-05 0.107491)
(-2.39834e-05 2.39532e-05 0.104199)
(4.1691e-05 -4.16794e-05 0.104317)
(-1.11369e-05 -5.97629e-06 0.1075)
(-1.11067e-05 5.95895e-06 0.107498)
(-1.12514e-05 -6.06995e-06 0.107493)
(-1.12202e-05 6.05372e-06 0.107491)
(1.11063e-05 5.95836e-06 0.107498)
(1.12485e-05 -6.06479e-06 0.107494)
(1.12203e-05 6.05236e-06 0.107491)
(2.39618e-05 -2.40008e-05 0.104199)
(-4.16639e-05 4.1693e-05 0.104316)
(5.9712e-06 1.11477e-05 0.1075)
(-6.06673e-06 1.12574e-05 0.107493)
(6.06791e-06 1.12603e-05 0.107493)
(4.16776e-05 4.16755e-05 0.104316)
(1.12629e-05 6.08558e-06 0.107489)
(6.1007e-06 1.13022e-05 0.107491)
(-2.97922e-07 -1.66188e-05 0.0913963)
(7.15768e-07 7.11462e-06 0.082193)
(-1.21765e-06 -1.20755e-05 0.0822527)
(-2.45289e-07 4.99665e-06 0.0913434)
(-2.64083e-06 4.33029e-06 0.0715116)
(3.28954e-06 -5.94315e-06 0.0715733)
(-1.66464e-05 -3.01334e-07 0.0913957)
(7.12537e-06 6.67264e-07 0.0821922)
(-1.20997e-05 -1.17151e-06 0.0822531)
(5.03336e-06 -2.37655e-07 0.0913439)
(9.5963e-06 -9.58863e-06 0.112516)
(-9.58842e-06 9.60431e-06 0.112515)
(9.59038e-06 9.6071e-06 0.112515)
(-9.8788e-06 -9.87182e-06 0.112489)
(9.87619e-06 -9.86625e-06 0.112489)
(-9.86698e-06 9.88417e-06 0.112488)
(9.86957e-06 9.88445e-06 0.112488)
(2.72731e-05 -6.84399e-07 0.09856)
(-8.73463e-06 3.13019e-06 0.0929748)
(1.39428e-05 -2.50636e-06 0.109933)
(1.11739e-05 -6.00322e-06 0.107499)
(2.04303e-05 -7.76198e-06 0.0930395)
(1.40411e-05 -2.52522e-06 0.109928)
(-8.14667e-06 -4.33196e-07 0.0984983)
(4.26747e-06 -2.60302e-06 0.071509)
(-5.88352e-06 3.25936e-06 0.0715746)
(-7.02118e-07 2.72422e-05 0.09856)
(-2.50614e-06 1.39534e-05 0.109932)
(3.15481e-06 -8.77595e-06 0.0929755)
(-6.00202e-06 1.11823e-05 0.107498)
(-2.52509e-06 1.40538e-05 0.109927)
(-7.79494e-06 2.04756e-05 0.0930391)
(-4.28596e-07 -8.11849e-06 0.0984982)
(-3.53814e-06 -3.52119e-06 0.0875179)
(-3.52999e-06 -3.53e-06 0.0875166)
(4.17353e-05 4.1734e-05 0.104315)
(9.95306e-06 6.91e-06 0.0875757)
(6.94532e-06 9.94342e-06 0.0875739)
(-3.5786e-06 -3.47943e-06 0.0875499)
(-3.48701e-06 -3.57078e-06 0.0875486)
(2.65605e-06 4.29626e-06 0.0715127)
(-3.30725e-06 -5.90942e-06 0.0715738)
(4.31145e-06 2.66091e-06 0.0715116)
(-5.92209e-06 -3.32083e-06 0.0715732)
(3.52077e-06 3.5347e-06 0.087519)
(3.54114e-06 3.53502e-06 0.0875166)
(-4.17388e-05 -4.17376e-05 0.104315)
(-6.90892e-06 -9.95346e-06 0.0875756)
(-9.96025e-06 -6.94357e-06 0.087574)
(-3.33368e-06 -5.88165e-06 0.071589)
(2.62347e-06 4.30806e-06 0.0715281)
(-5.89359e-06 -3.34651e-06 0.0715885)
(4.32233e-06 2.62915e-06 0.071527)
(2.39101e-05 2.39036e-05 0.1042)
(-6.92003e-06 -9.91706e-06 0.0875915)
(-9.92299e-06 -6.95348e-06 0.0875899)
(3.49852e-06 3.55347e-06 0.087535)
(3.55979e-06 3.51305e-06 0.0875326)
(3.17821e-07 -1.66222e-05 0.0913961)
(-6.72221e-07 7.15779e-06 0.0821924)
(1.17624e-06 -1.21209e-05 0.0822522)
(2.38787e-07 5.00563e-06 0.0913433)
(-7.06885e-07 -2.72797e-05 0.09856)
(3.16645e-06 8.74605e-06 0.0929752)
(-2.50449e-06 -1.39396e-05 0.109933)
(-5.98552e-06 -1.11506e-05 0.107497)
(-7.78573e-06 -2.04357e-05 0.0930381)
(-2.52403e-06 -1.40395e-05 0.109928)
(-4.01503e-07 8.13879e-06 0.0984981)
(7.03985e-07 -2.72815e-05 0.0985599)
(-3.15556e-06 8.79978e-06 0.0929737)
(2.49593e-06 -1.39378e-05 0.109933)
(5.98201e-06 -1.1149e-05 0.107496)
(7.77037e-06 -2.04716e-05 0.0930378)
(2.51749e-06 -1.40361e-05 0.109927)
(4.18606e-07 8.14788e-06 0.0984979)
(-2.45666e-07 4.98503e-06 0.091359)
(-1.23523e-06 -1.20448e-05 0.0822695)
(6.92993e-07 7.12417e-06 0.0822099)
(-2.99323e-07 -1.66004e-05 0.0914118)
(2.35883e-07 4.99354e-06 0.0913589)
(1.18599e-06 -1.20768e-05 0.082269)
(-6.50299e-07 7.16523e-06 0.0822093)
(3.16638e-07 -1.66036e-05 0.0914116)
(-4.0377e-07 8.08558e-06 0.0985086)
(-6.0219e-06 -1.11954e-05 0.107494)
(-7.78856e-06 -2.04116e-05 0.0930525)
(-2.56549e-06 -1.42296e-05 0.109918)
(3.14648e-06 8.74544e-06 0.0929896)
(-2.54695e-06 -1.41416e-05 0.109923)
(-7.11113e-07 -2.72824e-05 0.0985704)
(4.17005e-07 8.09518e-06 0.0985084)
(6.01784e-06 -1.11936e-05 0.107494)
(7.77241e-06 -2.04482e-05 0.0930522)
(2.56063e-06 -1.42258e-05 0.109918)
(-3.13632e-06 8.79885e-06 0.0929882)
(2.53921e-06 -1.4139e-05 0.109923)
(7.04573e-07 -2.72832e-05 0.0985703)
(-3.51143e-06 3.53927e-06 0.0875164)
(-3.49588e-06 3.48088e-06 0.0875174)
(4.17423e-05 -4.17316e-05 0.104316)
(6.89186e-06 -9.95322e-06 0.0875745)
(9.90318e-06 -6.89065e-06 0.0875767)
(-4.26953e-06 2.58393e-06 0.0715096)
(5.88416e-06 -3.25471e-06 0.0715749)
(3.31404e-06 -5.9167e-06 0.0715885)
(-2.60934e-06 4.34128e-06 0.071527)
(-2.39139e-05 2.38848e-05 0.1042)
(6.90174e-06 -9.91947e-06 0.0875904)
(9.86778e-06 -6.90276e-06 0.0875926)
(-3.48977e-06 3.55717e-06 0.0875324)
(-3.51331e-06 3.45903e-06 0.0875334)
(5.85743e-06 -3.28046e-06 0.0715902)
(-4.28078e-06 2.55185e-06 0.0715249)
(-2.72891e-05 -6.96293e-07 0.0985594)
(8.75627e-06 3.15776e-06 0.0929742)
(-1.3941e-05 -2.50706e-06 0.109932)
(-1.11766e-05 -6.0064e-06 0.107498)
(-2.04568e-05 -7.78909e-06 0.0930387)
(-1.40477e-05 -2.52626e-06 0.109927)
(8.15949e-06 -4.1875e-07 0.0984979)
(-1.66391e-05 2.80826e-07 0.0913956)
(7.11483e-06 -6.66362e-07 0.0821914)
(-1.20727e-05 1.17314e-06 0.0822532)
(5.03122e-06 2.84142e-07 0.0913439)
(-2.72865e-05 6.94401e-07 0.0985595)
(-1.39368e-05 2.49816e-06 0.109932)
(8.75882e-06 -3.12847e-06 0.0929736)
(-1.11452e-05 5.98915e-06 0.107495)
(-1.4035e-05 2.51864e-06 0.109927)
(-2.04302e-05 7.74857e-06 0.0930384)
(8.16251e-06 4.33405e-07 0.0984979)
(5.02089e-06 -2.36515e-07 0.0913595)
(-1.20799e-05 -1.19303e-06 0.08227)
(7.13808e-06 6.46188e-07 0.0822091)
(-1.66284e-05 -3.00618e-07 0.0914112)
(8.10678e-06 -4.18371e-07 0.0985084)
(-1.12206e-05 -6.04365e-06 0.107496)
(-2.0432e-05 -7.79201e-06 0.0930531)
(-1.42367e-05 -2.56897e-06 0.109917)
(8.75507e-06 3.13763e-06 0.0929887)
(-1.4142e-05 -2.55035e-06 0.109922)
(-2.72911e-05 -6.97416e-07 0.0985698)
(5.01863e-06 2.82463e-07 0.0913595)
(-1.20415e-05 1.18765e-06 0.08227)
(7.12603e-06 -6.47114e-07 0.0822083)
(-1.66213e-05 2.79113e-07 0.0914111)
(8.10975e-06 4.32089e-07 0.0985084)
(-1.119e-05 6.02556e-06 0.107493)
(-1.4224e-05 2.56195e-06 0.109917)
(-2.04071e-05 7.749e-06 0.0930528)
(-1.41376e-05 2.5417e-06 0.109922)
(8.75709e-06 -3.11065e-06 0.0929881)
(-2.72885e-05 6.94358e-07 0.0985699)
(1.66154e-05 -2.95499e-07 0.0913963)
(-7.11395e-06 6.51272e-07 0.082192)
(1.20878e-05 -1.15839e-06 0.0822535)
(-5.00513e-06 -2.45483e-07 0.0913437)
(2.7263e-05 7.11839e-07 0.0985598)
(1.39368e-05 2.49874e-06 0.109932)
(-8.76075e-06 -3.16275e-06 0.0929748)
(1.11446e-05 5.98871e-06 0.107496)
(1.4035e-05 2.52073e-06 0.109927)
(2.044e-05 7.78122e-06 0.0930383)
(-8.14526e-06 4.08439e-07 0.0984984)
(1.66071e-05 3.22756e-07 0.0913963)
(-7.14119e-06 -6.79009e-07 0.0821931)
(1.21002e-05 1.18151e-06 0.0822527)
(-5.00239e-06 2.35008e-07 0.0913437)
(-8.09439e-06 -4.31802e-07 0.0985087)
(1.12186e-05 -6.0388e-06 0.107496)
(2.04073e-05 -7.76587e-06 0.0930539)
(1.42305e-05 -2.56683e-06 0.109918)
(-8.73365e-06 3.11107e-06 0.0929893)
(1.41441e-05 -2.54806e-06 0.109923)
(2.72743e-05 -6.82909e-07 0.0985704)
(-4.99417e-06 -2.43739e-07 0.0913592)
(1.20443e-05 -1.16959e-06 0.0822703)
(-7.12218e-06 6.28823e-07 0.0822089)
(1.65948e-05 -2.9387e-07 0.0914118)
(-8.09246e-06 4.09175e-07 0.0985088)
(1.11907e-05 6.0245e-06 0.107494)
(1.42247e-05 2.56308e-06 0.109917)
(2.04162e-05 7.78266e-06 0.0930527)
(1.41387e-05 2.54174e-06 0.109922)
(-8.75934e-06 -3.14407e-06 0.0929893)
(2.72653e-05 7.14203e-07 0.0985702)
(-4.99092e-06 2.33795e-07 0.0913592)
(1.20691e-05 1.19777e-06 0.0822695)
(-7.15277e-06 -6.5857e-07 0.08221)
(1.65866e-05 3.23088e-07 0.0914118)
(3.51996e-06 -3.5257e-06 0.0875149)
(3.50492e-06 -3.54988e-06 0.0875185)
(-4.17221e-05 4.17511e-05 0.104315)
(-9.93052e-06 6.91218e-06 0.0875748)
(-6.92898e-06 9.96187e-06 0.087576)
(2.63923e-06 -4.31424e-06 0.0715126)
(-3.31349e-06 5.9213e-06 0.071574)
(-5.85653e-06 3.28214e-06 0.0715899)
(4.27751e-06 -2.57309e-06 0.0715243)
(2.38924e-05 -2.39318e-05 0.1042)
(-9.89517e-06 6.9204e-06 0.0875907)
(-6.93905e-06 9.92803e-06 0.0875919)
(3.53668e-06 -3.50575e-06 0.0875309)
(3.48257e-06 -3.56847e-06 0.0875345)
(-3.33873e-06 5.89347e-06 0.0715892)
(2.60744e-06 -4.32543e-06 0.071528)
(6.99755e-07 2.72484e-05 0.0985597)
(2.49802e-06 1.39538e-05 0.109932)
(-3.17648e-06 -8.76357e-06 0.0929744)
(6.00328e-06 1.11856e-05 0.107497)
(2.5198e-06 1.40511e-05 0.109927)
(7.80858e-06 2.04678e-05 0.0930385)
(4.1441e-07 -8.12751e-06 0.0984983)
(-3.07738e-07 1.65886e-05 0.0913968)
(6.77672e-07 -7.13558e-06 0.0821937)
(-1.18656e-06 1.21076e-05 0.0822533)
(-2.52128e-07 -4.98758e-06 0.0913434)
(3.03841e-07 1.65997e-05 0.0913963)
(-7.28911e-07 -7.12045e-06 0.0821927)
(1.23562e-06 1.20993e-05 0.082253)
(2.50039e-07 -5.00042e-06 0.0913438)
(-4.25211e-07 -8.0612e-06 0.0985087)
(-6.03874e-06 1.12256e-05 0.107495)
(-2.56908e-06 1.42431e-05 0.109917)
(-7.79767e-06 2.04519e-05 0.0930535)
(-2.55018e-06 1.41546e-05 0.109922)
(3.13541e-06 -8.77526e-06 0.09299)
(-7.03654e-07 2.72384e-05 0.0985704)
(4.14168e-07 -8.06948e-06 0.0985088)
(6.03971e-06 1.12309e-05 0.107495)
(2.5626e-06 1.42399e-05 0.109917)
(7.81172e-06 2.04426e-05 0.0930529)
(2.54122e-06 1.41549e-05 0.109922)
(-3.15696e-06 -8.76236e-06 0.0929889)
(7.02318e-07 2.72439e-05 0.0985701)
(-2.44263e-07 -4.97046e-06 0.0913589)
(-1.19775e-06 1.20626e-05 0.0822701)
(6.55926e-07 -7.14413e-06 0.0822107)
(-3.11774e-07 1.65642e-05 0.0914125)
(2.46171e-07 -4.98228e-06 0.0913593)
(1.25796e-06 1.20778e-05 0.0822698)
(-7.0941e-07 -7.13315e-06 0.0822096)
(3.06885e-07 1.65745e-05 0.091412)
(-4.3161e-06 -2.64112e-06 0.0715121)
(5.92733e-06 3.29446e-06 0.0715736)
(-2.66643e-06 -4.30028e-06 0.0715118)
(3.33965e-06 5.90628e-06 0.0715732)
(-2.39234e-05 -2.39129e-05 0.1042)
(9.91796e-06 6.92018e-06 0.0875916)
(6.95602e-06 9.90609e-06 0.0875898)
(-3.55571e-06 -3.49957e-06 0.0875339)
(-3.50831e-06 -3.54866e-06 0.0875326)
(5.89973e-06 3.3201e-06 0.0715888)
(-4.3272e-06 -2.60989e-06 0.0715274)
(3.36634e-06 5.8777e-06 0.0715885)
(-2.63576e-06 -4.3112e-06 0.0715271)
(1.43199e-05 2.58129e-06 0.109912)
(-8.7641e-06 -3.12442e-06 0.0930038)
(-8.0484e-06 4.12028e-07 0.0985194)
(-7.16143e-06 -6.37244e-07 0.0822269)
(-4.97976e-06 2.35323e-07 0.0913749)
(-3.13914e-06 -8.76809e-06 0.0930034)
(-6.9197e-07 -7.14742e-06 0.0822265)
(-4.33952e-06 -2.58049e-06 0.0715427)
(-2.60693e-06 -4.32335e-06 0.0715424)
(-6.70188e-07 4.21266e-06 0.076849)
(1.35522e-07 -7.43264e-06 0.0786691)
(-1.13999e-06 -1.59913e-05 0.0899176)
(-2.45197e-07 4.98924e-06 0.0913512)
(-1.84904e-07 3.83257e-06 0.078626)
(-5.18337e-07 5.48079e-06 0.089867)
(5.37913e-07 -7.41789e-06 0.0768987)
(2.37868e-07 -6.05409e-06 0.06844)
(-1.20757e-06 -1.20899e-05 0.0822443)
(-7.10836e-07 5.77874e-06 0.0857869)
(-1.36377e-06 -1.23217e-05 0.0858443)
(-8.48038e-07 4.84207e-06 0.0683752)
(-8.64469e-07 4.84301e-06 0.0683828)
(-1.37165e-06 -1.23041e-05 0.0858527)
(7.0506e-07 7.12014e-06 0.0822015)
(-7.21445e-07 5.78645e-06 0.0857954)
(2.24216e-07 -6.04546e-06 0.0684475)
(5.4584e-07 -7.4234e-06 0.0768904)
(-2.99025e-07 -1.66307e-05 0.0913885)
(-1.83218e-07 3.8372e-06 0.0786174)
(-5.11918e-07 5.48835e-06 0.0898589)
(1.36522e-07 -7.43558e-06 0.0786606)
(-1.13692e-06 -1.60001e-05 0.0899095)
(-6.60889e-07 4.21413e-06 0.0768405)
(3.27576e-06 -5.95644e-06 0.0715656)
(-2.62461e-06 4.33517e-06 0.0715193)
(4.26809e-06 -6.64618e-07 0.0768514)
(-1.60382e-05 -1.12803e-06 0.089917)
(-7.47178e-06 1.30794e-07 0.0786684)
(5.02348e-06 -2.36479e-07 0.0913517)
(5.53949e-06 -5.19194e-07 0.0898675)
(3.87354e-06 -1.68449e-07 0.0786277)
(-7.46756e-06 5.54107e-07 0.0768983)
(-6.1266e-06 2.37268e-07 0.0684369)
(-1.21138e-05 -1.16131e-06 0.0822447)
(5.83592e-06 -7.18867e-07 0.0857867)
(-1.23891e-05 -1.34153e-06 0.0858431)
(4.91891e-06 -8.16279e-07 0.0683758)
(4.91907e-06 -8.32044e-07 0.0683834)
(-1.23735e-05 -1.35052e-06 0.0858515)
(7.13044e-06 6.55889e-07 0.0822006)
(5.84114e-06 -7.29279e-07 0.0857952)
(-6.11778e-06 2.23521e-07 0.0684445)
(-7.47313e-06 5.61677e-07 0.0768899)
(-1.66556e-05 -3.03262e-07 0.091388)
(5.55011e-06 -5.12147e-07 0.0898594)
(3.87871e-06 -1.67814e-07 0.0786192)
(-1.60458e-05 -1.12437e-06 0.089909)
(-7.47434e-06 1.30324e-07 0.0786599)
(4.2698e-06 -6.5598e-07 0.076843)
(-5.8965e-06 3.24622e-06 0.071567)
(4.27218e-06 -2.58752e-06 0.0715167)
(-3.11105e-06 -3.12429e-06 0.0835872)
(3.62259e-06 5.13759e-06 0.0683536)
(5.1603e-06 3.60715e-06 0.0683476)
(-2.63105e-06 -4.09134e-06 0.0682976)
(-4.07938e-06 -2.64244e-06 0.0682918)
(7.28298e-06 7.25833e-06 0.0836336)
(1.6878e-05 1.02993e-05 0.0916919)
(-1.10014e-05 -5.56163e-06 0.0962496)
(9.9703e-06 6.90412e-06 0.0875678)
(-3.81386e-06 -3.05021e-06 0.0815231)
(2.40855e-05 1.42109e-05 0.0962984)
(8.13982e-06 4.00119e-06 0.0815753)
(-7.76844e-06 -3.78983e-06 0.091644)
(1.03448e-05 1.68769e-05 0.0916853)
(-5.57867e-06 -1.09805e-05 0.0962468)
(6.94015e-06 9.95948e-06 0.087566)
(-3.0556e-06 -3.83102e-06 0.0815187)
(1.42465e-05 2.40867e-05 0.0962958)
(4.03018e-06 8.1345e-06 0.0815698)
(-3.80463e-06 -7.7791e-06 0.0916375)
(-7.77323e-06 -3.78842e-06 0.091651)
(8.11927e-06 4.00177e-06 0.0815831)
(-3.54677e-06 -3.51027e-06 0.0875259)
(2.40625e-05 1.42091e-05 0.0963042)
(-1.10011e-05 -5.55208e-06 0.0962555)
(-3.82421e-06 -3.04368e-06 0.081531)
(1.68557e-05 1.02904e-05 0.0916989)
(-3.80327e-06 -7.78461e-06 0.0916445)
(4.04398e-06 8.1316e-06 0.0815776)
(-3.51819e-06 -3.53854e-06 0.0875246)
(1.42473e-05 2.40643e-05 0.0963016)
(-5.56919e-06 -1.09807e-05 0.0962526)
(-3.04735e-06 -3.84021e-06 0.0815266)
(1.03365e-05 1.68526e-05 0.0916923)
(7.29206e-06 7.26988e-06 0.0836261)
(-2.62935e-06 -4.09513e-06 0.0682908)
(-4.08324e-06 -2.64146e-06 0.068285)
(3.62925e-06 5.1394e-06 0.0683469)
(5.16248e-06 3.6177e-06 0.0683409)
(-3.10897e-06 -3.12177e-06 0.0835796)
(1.67814e-05 1.0258e-05 0.0917199)
(-1.10152e-05 -5.5326e-06 0.0962732)
(-3.85182e-06 -3.01895e-06 0.0815544)
(9.89721e-06 6.9243e-06 0.0875996)
(-7.80065e-06 -3.79468e-06 0.0916722)
(2.39891e-05 1.42009e-05 0.0963218)
(8.06409e-06 4.00655e-06 0.0816064)
(1.0308e-05 1.67773e-05 0.0917133)
(-5.54781e-06 -1.09952e-05 0.0962703)
(-3.02308e-06 -3.86929e-06 0.08155)
(6.96255e-06 9.88737e-06 0.0875978)
(-3.80932e-06 -7.81523e-06 0.0916656)
(1.42434e-05 2.39893e-05 0.0963192)
(4.05352e-06 8.0791e-06 0.081601)
(7.25348e-06 7.22715e-06 0.0836562)
(-2.63738e-06 -4.08058e-06 0.0683178)
(-4.06826e-06 -2.6503e-06 0.068312)
(-3.12264e-06 -3.13737e-06 0.0836098)
(3.59896e-06 5.12966e-06 0.0683737)
(5.15344e-06 3.58233e-06 0.0683677)
(-3.29274e-06 -5.92296e-06 0.0715661)
(2.63966e-06 4.30191e-06 0.0715204)
(-5.93553e-06 -3.30691e-06 0.0715656)
(4.31657e-06 2.64471e-06 0.0715193)
(3.12008e-06 3.11447e-06 0.0835873)
(-5.12832e-06 -3.63058e-06 0.0683537)
(-3.61086e-06 -5.16182e-06 0.0683474)
(4.08315e-06 2.63739e-06 0.068298)
(2.64221e-06 4.08292e-06 0.0682916)
(-7.25754e-06 -7.28971e-06 0.0836338)
(-1.03088e-05 -1.69071e-05 0.0916921)
(5.56749e-06 1.102e-05 0.09625)
(-6.90302e-06 -9.97034e-06 0.0875677)
(3.05267e-06 3.83912e-06 0.0815244)
(-3.9998e-06 -8.16087e-06 0.0815753)
(-1.42144e-05 -2.41131e-05 0.0962987)
(3.79954e-06 7.79385e-06 0.0916443)
(-1.68863e-05 -1.03547e-05 0.0916855)
(1.09846e-05 5.57053e-06 0.0962468)
(-9.97628e-06 -6.9377e-06 0.0875661)
(3.84195e-06 3.05635e-06 0.0815186)
(-8.15346e-06 -4.03501e-06 0.0815697)
(-2.41013e-05 -1.42514e-05 0.0962961)
(7.78899e-06 3.80605e-06 0.0916376)
(3.79858e-06 7.79943e-06 0.0916514)
(-4.00482e-06 -8.14585e-06 0.0815831)
(3.50919e-06 3.54366e-06 0.087527)
(-1.42136e-05 -2.40908e-05 0.0963045)
(3.04354e-06 3.84729e-06 0.0815322)
(-1.0301e-05 -1.68851e-05 0.0916991)
(5.55853e-06 1.10201e-05 0.0962559)
(7.79424e-06 3.80448e-06 0.0916446)
(-8.13743e-06 -4.03889e-06 0.0815775)
(3.54992e-06 3.52439e-06 0.0875246)
(-2.40792e-05 -1.42509e-05 0.0963019)
(3.84945e-06 3.04753e-06 0.0815264)
(-1.68646e-05 -1.03473e-05 0.0916925)
(1.0984e-05 5.56142e-06 0.0962527)
(-7.26655e-06 -7.29939e-06 0.0836263)
(4.08678e-06 2.63528e-06 0.0682912)
(2.64065e-06 4.08624e-06 0.0682849)
(-5.12985e-06 -3.63928e-06 0.068347)
(-3.61875e-06 -5.16375e-06 0.0683407)
(3.11768e-06 3.11169e-06 0.0835798)
(2.60801e-06 4.31391e-06 0.0715357)
(-3.32022e-06 -5.89501e-06 0.0715814)
(4.32826e-06 2.61434e-06 0.0715346)
(-5.90836e-06 -3.33364e-06 0.0715809)
(-7.24752e-06 -7.27903e-06 0.0836413)
(4.079e-06 2.64035e-06 0.0683047)
(2.64432e-06 4.07897e-06 0.0682984)
(3.12272e-06 3.11788e-06 0.0835949)
(-5.12575e-06 -3.62203e-06 0.0683604)
(-3.60351e-06 -5.15864e-06 0.0683542)
(3.80053e-06 7.81636e-06 0.0916655)
(-1.42111e-05 -2.40428e-05 0.0963162)
(3.48743e-06 3.56424e-06 0.087543)
(-4.01249e-06 -8.11198e-06 0.0815986)
(3.02755e-06 3.86753e-06 0.0815479)
(5.54288e-06 1.10268e-05 0.0962677)
(-1.0282e-05 -1.68359e-05 0.0917131)
(7.81075e-06 3.80655e-06 0.0916587)
(-2.40308e-05 -1.42476e-05 0.0963136)
(3.56946e-06 3.50248e-06 0.0875406)
(-8.10339e-06 -4.04499e-06 0.0815931)
(3.86645e-06 3.03017e-06 0.0815421)
(1.09907e-05 5.54584e-06 0.0962645)
(-1.68158e-05 -1.0327e-05 0.0917065)
(-1.02915e-05 -1.68605e-05 0.0917061)
(3.03441e-06 3.85507e-06 0.08154)
(5.55127e-06 1.10224e-05 0.0962618)
(-6.91447e-06 -9.93551e-06 0.0875836)
(3.7985e-06 7.80587e-06 0.0916584)
(-4.00943e-06 -8.13016e-06 0.0815909)
(-1.42127e-05 -2.40677e-05 0.0963103)
(-1.68407e-05 -1.03379e-05 0.0916995)
(3.86038e-06 3.0409e-06 0.0815342)
(1.09866e-05 5.5539e-06 0.0962586)
(-9.94301e-06 -6.94931e-06 0.087582)
(7.80035e-06 3.80519e-06 0.0916517)
(-8.11976e-06 -4.04108e-06 0.0815853)
(-2.4056e-05 -1.42495e-05 0.0963077)
(3.12741e-06 3.12226e-06 0.0836024)
(-5.12408e-06 -3.61415e-06 0.0683671)
(-3.59527e-06 -5.15642e-06 0.0683609)
(4.07476e-06 2.64255e-06 0.0683115)
(2.64708e-06 4.07529e-06 0.0683051)
(-7.23717e-06 -7.26833e-06 0.0836488)
(6.66473e-07 4.26968e-06 0.0768506)
(-1.19769e-07 -7.43469e-06 0.078669)
(1.1551e-06 -1.60355e-05 0.0899169)
(2.37554e-07 4.99907e-06 0.0913511)
(1.78384e-07 3.83865e-06 0.0786261)
(5.1112e-07 5.53062e-06 0.089867)
(-5.32409e-07 -7.46986e-06 0.0768979)
(-2.21029e-07 -6.12433e-06 0.0684363)
(1.16698e-06 -1.21354e-05 0.0822438)
(7.23917e-07 5.83564e-06 0.0857862)
(1.35785e-06 -1.2379e-05 0.0858425)
(8.2951e-07 4.92152e-06 0.0683752)
(8.44983e-07 4.92183e-06 0.0683828)
(1.36479e-06 -1.23623e-05 0.085851)
(-6.61486e-07 7.16198e-06 0.0822008)
(7.3346e-07 5.84185e-06 0.0857947)
(-2.08766e-07 -6.1158e-06 0.0684439)
(-5.39021e-07 -7.47494e-06 0.0768895)
(3.20125e-07 -1.66342e-05 0.0913884)
(1.78771e-07 3.84329e-06 0.0786176)
(5.05645e-07 5.53878e-06 0.0898589)
(-1.1917e-07 -7.43803e-06 0.0786605)
(1.15267e-06 -1.60451e-05 0.0899089)
(6.5787e-07 4.27337e-06 0.0768421)
(5.30848e-07 -7.41006e-06 0.0769071)
(-1.85618e-07 3.83237e-06 0.0786345)
(-5.24392e-07 5.47809e-06 0.0898751)
(-2.98943e-07 -1.66096e-05 0.091404)
(-6.79626e-07 4.21161e-06 0.0768574)
(1.35087e-07 -7.42362e-06 0.0786776)
(-1.14534e-06 -1.5978e-05 0.0899256)
(-8.95947e-07 4.84357e-06 0.0683979)
(6.83556e-07 7.13308e-06 0.0822184)
(-1.38734e-06 -1.22709e-05 0.0858696)
(1.98047e-07 -6.02674e-06 0.0684626)
(-7.42844e-07 5.7984e-06 0.0858123)
(2.10743e-07 -6.03551e-06 0.0684551)
(-7.31913e-07 5.79148e-06 0.0858039)
(-1.226e-06 -1.2061e-05 0.0822611)
(-8.81195e-07 4.84298e-06 0.0683904)
(-1.37913e-06 -1.22879e-05 0.0858612)
(-6.88625e-07 4.212e-06 0.0768658)
(-2.46304e-07 4.97795e-06 0.0913668)
(1.34272e-07 -7.41458e-06 0.0786861)
(-1.15012e-06 -1.59681e-05 0.0899337)
(5.22372e-07 -7.40803e-06 0.0769155)
(-1.88043e-07 3.82855e-06 0.078643)
(-5.31949e-07 5.47327e-06 0.0898832)
(-5.25452e-07 -7.46631e-06 0.0769063)
(1.77424e-07 3.83835e-06 0.0786346)
(5.16548e-07 5.52557e-06 0.0898751)
(3.17499e-07 -1.66134e-05 0.0914039)
(6.74645e-07 4.26828e-06 0.076859)
(-1.20754e-07 -7.42649e-06 0.0786775)
(1.15944e-06 -1.60245e-05 0.089925)
(8.75933e-07 4.92185e-06 0.068398)
(-6.39162e-07 7.16756e-06 0.0822178)
(1.38006e-06 -1.23291e-05 0.0858679)
(7.52899e-07 5.853e-06 0.0858117)
(-1.84024e-07 -6.09752e-06 0.068459)
(-1.96023e-07 -6.10631e-06 0.0684514)
(7.43547e-07 5.84724e-06 0.0858032)
(1.18308e-06 -1.21055e-05 0.0822606)
(8.60901e-07 4.92141e-06 0.0683904)
(1.37166e-06 -1.23453e-05 0.0858594)
(6.83888e-07 4.26193e-06 0.0768674)
(2.36218e-07 4.98729e-06 0.0913667)
(-1.21114e-07 -7.41657e-06 0.0786859)
(1.163e-06 -1.60148e-05 0.089933)
(1.77332e-07 3.8343e-06 0.0786432)
(5.22949e-07 5.51979e-06 0.0898832)
(-5.19401e-07 -7.45808e-06 0.0769146)
(-3.13514e-06 3.12041e-06 0.0835872)
(5.13651e-06 -3.63734e-06 0.0683482)
(3.61483e-06 -5.15789e-06 0.0683536)
(-4.09156e-06 2.64134e-06 0.068292)
(-2.6474e-06 4.0785e-06 0.0682973)
(7.27808e-06 -7.29389e-06 0.083634)
(1.03356e-05 -1.68976e-05 0.0916859)
(-5.59071e-06 1.1015e-05 0.0962465)
(6.88627e-06 -9.9694e-06 0.0875666)
(-3.05009e-06 3.81264e-06 0.0815185)
(3.99412e-06 -8.1447e-06 0.0815707)
(1.42194e-05 -2.41084e-05 0.0962962)
(-3.83407e-06 7.78396e-06 0.0916374)
(1.68936e-05 -1.03427e-05 0.0916925)
(-1.09733e-05 5.55723e-06 0.0962499)
(9.91925e-06 -6.88527e-06 0.0875687)
(-3.80612e-06 3.04861e-06 0.0815231)
(2.40775e-05 -1.42329e-05 0.0962993)
(8.11124e-06 -4.02564e-06 0.0815756)
(-7.79047e-06 3.79437e-06 0.0916441)
(-3.83185e-06 7.78832e-06 0.0916444)
(3.99776e-06 -8.12877e-06 0.0815785)
(-3.50017e-06 3.54756e-06 0.0875244)
(1.42186e-05 -2.40858e-05 0.096302)
(-3.04086e-06 3.82015e-06 0.0815263)
(-5.58167e-06 1.10144e-05 0.0962524)
(1.03281e-05 -1.68764e-05 0.0916929)
(-7.79413e-06 3.7919e-06 0.0916511)
(8.09655e-06 -4.03045e-06 0.0815834)
(-3.504e-06 3.46948e-06 0.0875254)
(2.4055e-05 -1.42321e-05 0.0963051)
(-1.09724e-05 5.54858e-06 0.0962558)
(-3.81327e-06 3.03911e-06 0.0815309)
(1.68728e-05 -1.03355e-05 0.0916995)
(7.28771e-06 -7.3032e-06 0.0836265)
(-4.09532e-06 2.63989e-06 0.0682852)
(-2.64559e-06 4.08234e-06 0.0682906)
(5.13867e-06 -3.64541e-06 0.0683415)
(3.62357e-06 -5.15957e-06 0.0683469)
(-3.1334e-06 3.11871e-06 0.0835797)
(5.89744e-06 -3.2408e-06 0.0715673)
(-4.2747e-06 2.56751e-06 0.0715172)
(-2.5942e-06 4.34689e-06 0.0715346)
(3.30157e-06 -5.92926e-06 0.0715809)
(7.26819e-06 -7.28432e-06 0.0836415)
(-4.08759e-06 2.64347e-06 0.0682987)
(-2.65006e-06 4.07471e-06 0.0683041)
(-3.13846e-06 3.1235e-06 0.0835947)
(5.13384e-06 -3.63031e-06 0.0683549)
(3.60679e-06 -5.15498e-06 0.0683603)
(-3.83345e-06 7.80372e-06 0.0916585)
(1.42153e-05 -2.40391e-05 0.0963137)
(-3.47945e-06 3.56766e-06 0.0875404)
(4.00366e-06 -8.09556e-06 0.0815941)
(-5.56651e-06 1.10211e-05 0.0962642)
(-3.02396e-06 3.83698e-06 0.0815419)
(1.03092e-05 -1.68288e-05 0.0917069)
(-7.80957e-06 3.79356e-06 0.0916652)
(2.40078e-05 -1.42284e-05 0.0963168)
(-3.52367e-06 3.44918e-06 0.0875414)
(8.05723e-06 -4.03333e-06 0.081599)
(-3.82958e-06 3.02127e-06 0.0815466)
(-1.0979e-05 5.53361e-06 0.0962676)
(1.68254e-05 -1.03166e-05 0.0917135)
(1.03187e-05 -1.6852e-05 0.0916999)
(-3.03474e-06 3.83109e-06 0.0815341)
(-5.57456e-06 1.1017e-05 0.0962582)
(6.89715e-06 -9.93604e-06 0.0875825)
(1.4217e-05 -2.40617e-05 0.0963079)
(-3.83225e-06 7.79439e-06 0.0916514)
(3.9997e-06 -8.11089e-06 0.0815863)
(1.68479e-05 -1.03255e-05 0.0917064)
(-3.82097e-06 3.03052e-06 0.0815387)
(-1.09748e-05 5.54177e-06 0.0962617)
(9.88572e-06 -6.89665e-06 0.0875847)
(-7.8007e-06 3.79277e-06 0.0916582)
(8.08111e-06 -4.03468e-06 0.0815912)
(2.40311e-05 -1.42306e-05 0.0963109)
(-3.14293e-06 3.12788e-06 0.0836023)
(5.13162e-06 -3.6219e-06 0.0683616)
(3.59988e-06 -5.15363e-06 0.068367)
(-4.08393e-06 2.64585e-06 0.0683055)
(-2.65315e-06 4.07066e-06 0.0683108)
(7.25892e-06 -7.27431e-06 0.083649)
(-4.28725e-06 2.53649e-06 0.0715326)
(5.86961e-06 -3.26747e-06 0.0715826)
(4.2218e-06 7.11927e-07 0.0768491)
(-7.46529e-06 -1.50059e-07 0.0786683)
(-1.59991e-05 1.10312e-06 0.0899173)
(5.02377e-06 2.83834e-07 0.0913517)
(3.86996e-06 2.1766e-07 0.0786274)
(5.5053e-06 5.67886e-07 0.0898669)
(-7.42726e-06 -5.72037e-07 0.0768986)
(-6.06807e-06 -2.63158e-07 0.0684396)
(-1.20873e-05 1.16469e-06 0.0822447)
(5.80464e-06 7.56549e-07 0.0857862)
(-1.2339e-05 1.32946e-06 0.085844)
(4.85869e-06 8.86557e-07 0.0683746)
(4.85918e-06 9.01397e-07 0.0683822)
(-1.23233e-05 1.33648e-06 0.0858525)
(7.11864e-06 -6.56101e-07 0.0821999)
(5.8105e-06 7.65591e-07 0.0857947)
(-6.05917e-06 -2.51193e-07 0.0684472)
(-7.43272e-06 -5.78905e-07 0.0768902)
(-1.66507e-05 2.81171e-07 0.0913879)
(3.87464e-06 2.17175e-07 0.0786189)
(5.51278e-06 5.62621e-07 0.0898588)
(-7.46888e-06 -1.51246e-07 0.0786598)
(-1.60079e-05 1.10057e-06 0.0899093)
(4.22336e-06 7.03721e-07 0.0768407)
(-7.45897e-06 5.48024e-07 0.0769067)
(5.53734e-06 -5.23931e-07 0.0898755)
(3.8738e-06 -1.68001e-07 0.0786363)
(-1.66349e-05 -3.0179e-07 0.0914035)
(4.26614e-06 -6.73767e-07 0.0768598)
(-1.6025e-05 -1.13196e-06 0.0899251)
(-7.46196e-06 1.30241e-07 0.0786769)
(4.9185e-06 -8.6362e-07 0.0683986)
(7.14554e-06 6.36621e-07 0.0822175)
(-1.23408e-05 -1.36575e-06 0.0858684)
(-6.09934e-06 1.97484e-07 0.0684595)
(5.85255e-06 -7.5077e-07 0.0858121)
(-6.10835e-06 2.11343e-07 0.068452)
(5.84803e-06 -7.40055e-07 0.0858037)
(-1.20839e-05 -1.17893e-06 0.0822616)
(4.91918e-06 -8.48956e-07 0.068391)
(-1.23557e-05 -1.35687e-06 0.08586)
(4.26375e-06 -6.82357e-07 0.0768682)
(5.01168e-06 -2.36432e-07 0.0913673)
(-1.60173e-05 -1.13639e-06 0.0899331)
(-7.4625e-06 1.29539e-07 0.0786854)
(-7.45322e-06 5.39635e-07 0.076915)
(5.52845e-06 -5.32157e-07 0.0898837)
(3.87243e-06 -1.6906e-07 0.0786448)
(-7.41965e-06 -5.65852e-07 0.0769069)
(3.8694e-06 2.17842e-07 0.078636)
(5.50008e-06 5.73463e-07 0.089875)
(-1.66303e-05 2.78618e-07 0.0914034)
(4.21866e-06 7.21075e-07 0.0768575)
(-7.45673e-06 -1.51351e-07 0.0786768)
(-1.59886e-05 1.1068e-06 0.0899254)
(4.85947e-06 9.30719e-07 0.0683974)
(7.13001e-06 -6.36389e-07 0.0822168)
(-1.22905e-05 1.35074e-06 0.0858694)
(5.8228e-06 7.85426e-07 0.0858117)
(-6.04148e-06 -2.2639e-07 0.0684623)
(-6.05027e-06 -2.38636e-07 0.0684547)
(5.81723e-06 7.75842e-07 0.0858032)
(-1.20565e-05 1.17901e-06 0.0822616)
(4.8589e-06 9.17393e-07 0.0683898)
(-1.23071e-05 1.34313e-06 0.0858609)
(4.21769e-06 7.28338e-07 0.0768659)
(5.01191e-06 2.83021e-07 0.0913673)
(-7.45642e-06 -1.49511e-07 0.0786853)
(-1.59789e-05 1.11015e-06 0.0899335)
(3.86864e-06 2.18114e-07 0.0786445)
(5.49455e-06 5.79764e-07 0.0898831)
(-7.4145e-06 -5.57918e-07 0.0769153)
(-4.27362e-06 -6.71797e-07 0.0768511)
(1.6039e-05 -1.13433e-06 0.0899174)
(7.43013e-06 1.41444e-07 0.0786692)
(-4.99881e-06 -2.44593e-07 0.0913514)
(-5.54284e-06 -5.16854e-07 0.0898674)
(-3.83832e-06 -1.83624e-07 0.0786264)
(7.47186e-06 5.54431e-07 0.0768985)
(6.12969e-06 2.37769e-07 0.0684372)
(1.21025e-05 -1.14915e-06 0.0822451)
(-5.83904e-06 -7.29464e-07 0.0857868)
(1.23869e-05 -1.33743e-06 0.0858435)
(-4.92356e-06 -8.27244e-07 0.0683759)
(-4.92397e-06 -8.43121e-07 0.0683835)
(1.23703e-05 -1.34465e-06 0.0858519)
(-7.11826e-06 6.39953e-07 0.0822005)
(-5.84552e-06 -7.39637e-07 0.0857953)
(6.12094e-06 2.25073e-07 0.0684448)
(7.47706e-06 5.61928e-07 0.0768901)
(1.66265e-05 -2.97303e-07 0.0913886)
(-5.5501e-06 -5.10853e-07 0.0898593)
(-3.84217e-06 -1.82906e-07 0.0786179)
(1.60498e-05 -1.13205e-06 0.0899094)
(7.43428e-06 1.41457e-07 0.0786607)
(-4.2768e-06 -6.62667e-07 0.0768427)
(-4.26426e-06 6.62989e-07 0.0768506)
(7.42522e-06 -1.11118e-07 0.0786691)
(1.60277e-05 1.1592e-06 0.0899173)
(-4.99641e-06 2.34083e-07 0.0913514)
(-3.83668e-06 1.7432e-07 0.0786264)
(-5.52636e-06 5.07957e-07 0.0898674)
(7.46333e-06 -5.2728e-07 0.0768979)
(6.11699e-06 -2.12229e-07 0.0684388)
(1.21155e-05 1.17286e-06 0.0822443)
(-5.83006e-06 7.13898e-07 0.0857875)
(1.2368e-05 1.36728e-06 0.0858437)
(-4.91433e-06 8.21063e-07 0.0683777)
(-4.91491e-06 8.37251e-07 0.0683853)
(1.23515e-05 1.3746e-06 0.0858522)
(-7.14526e-06 -6.68027e-07 0.0822015)
(-5.83657e-06 7.24076e-07 0.085796)
(6.10797e-06 -1.98616e-07 0.0684463)
(7.46881e-06 -5.34346e-07 0.0768895)
(1.66192e-05 3.24765e-07 0.0913885)
(-3.84097e-06 1.73939e-07 0.0786178)
(-5.53458e-06 5.02551e-07 0.0898593)
(7.42947e-06 -1.11363e-07 0.0786606)
(1.60366e-05 1.15667e-06 0.0899092)
(-4.26818e-06 6.53945e-07 0.0768422)
(7.46672e-06 5.48022e-07 0.0769069)
(-5.53746e-06 -5.22942e-07 0.0898755)
(-3.83762e-06 -1.83198e-07 0.078635)
(1.66055e-05 -2.94781e-07 0.0914041)
(-4.27059e-06 -6.81085e-07 0.0768596)
(1.60289e-05 -1.13833e-06 0.0899255)
(7.42165e-06 1.42457e-07 0.0786777)
(-4.92389e-06 -8.74916e-07 0.0683987)
(-7.1257e-06 6.16677e-07 0.0822174)
(1.23378e-05 -1.36082e-06 0.0858688)
(-5.85701e-06 -7.603e-07 0.0858123)
(6.10244e-06 1.98829e-07 0.0684598)
(6.11128e-06 2.12121e-07 0.0684523)
(-5.85116e-06 -7.50153e-07 0.0858038)
(1.20729e-05 -1.16665e-06 0.0822619)
(-4.92372e-06 -8.59668e-07 0.0683911)
(1.23536e-05 -1.35207e-06 0.0858604)
(-4.26461e-06 -6.90166e-07 0.0768679)
(-4.98677e-06 -2.44221e-07 0.091367)
(1.60196e-05 -1.14207e-06 0.0899336)
(7.42091e-06 1.41616e-07 0.0786862)
(-5.53199e-06 -5.29819e-07 0.0898836)
(-3.83631e-06 -1.83232e-07 0.0786435)
(7.45787e-06 5.40558e-07 0.0769152)
(7.4593e-06 -5.20285e-07 0.0769063)