/*--------------------------------*- C++ -*----------------------------------*\
| =========                 |                                                 |
| \\      /  F ield         | OpenFOAM: The Open Source CFD Toolbox           |
|  \\    /   O peration     | Version:  v1906                                 |
|   \\  /    A nd           | Web:      www.OpenFOAM.com                      |
|    \\/     M anipulation  |                                                 |
\*---------------------------------------------------------------------------*/
FoamFile
{
    version     2.0;
    format      ascii;
    class       volScalarField;
    location    "875";
    object      epsilon;
}
// * * * * * * * * * * * * * * * * * * * * * * * * * * * * * * * * * * * * * //

dimensions      [0 2 -3 0 0 0 0];


internalField   nonuniform List<scalar> 
42840
(
3.43035e-07
8.97951e-07
8.98063e-07
1.17903e-06
3.59446e-07
9.20457e-07
9.20567e-07
1.19749e-06
3.7601e-07
9.41942e-07
9.42049e-07
1.21504e-06
3.92647e-07
9.62404e-07
9.6251e-07
1.23171e-06
4.09271e-07
9.81854e-07
9.81957e-07
1.24752e-06
4.25811e-07
1.00031e-06
1.00041e-06
1.26252e-06
4.42189e-07
1.01776e-06
1.01786e-06
1.27671e-06
4.58324e-07
1.03424e-06
1.03434e-06
1.29012e-06
4.74161e-07
1.04975e-06
1.04984e-06
1.30278e-06
4.89644e-07
1.06434e-06
1.06444e-06
1.31473e-06
5.04709e-07
1.07801e-06
1.0781e-06
1.32595e-06
5.19322e-07
1.0908e-06
1.09089e-06
1.33652e-06
5.33434e-07
1.10272e-06
1.1028e-06
1.3464e-06
5.47009e-07
1.1138e-06
1.11388e-06
1.35564e-06
5.6002e-07
1.12408e-06
1.12416e-06
1.36428e-06
5.72425e-07
1.13356e-06
1.13364e-06
1.37229e-06
5.8423e-07
1.1423e-06
1.14237e-06
1.37972e-06
5.95406e-07
1.1503e-06
1.15038e-06
1.38659e-06
6.05958e-07
1.1576e-06
1.15768e-06
1.39292e-06
6.15856e-07
1.16421e-06
1.16428e-06
1.39869e-06
6.251e-07
1.17014e-06
1.17021e-06
1.40392e-06
6.33714e-07
1.17544e-06
1.1755e-06
1.40865e-06
6.41648e-07
1.18008e-06
1.18015e-06
1.41288e-06
6.49e-07
1.1842e-06
1.18428e-06
1.41666e-06
6.55742e-07
1.18772e-06
1.18778e-06
1.41996e-06
6.61772e-07
1.19065e-06
1.19073e-06
1.42281e-06
1.17346e-06
8.92315e-07
8.92345e-07
1.17338e-06
8.92194e-07
8.924e-07
8.92165e-07
8.92409e-07
1.1735e-06
8.92277e-07
8.92286e-07
1.17354e-06
1.17895e-06
1.19212e-06
8.981e-07
8.98129e-07
9.15072e-07
9.15099e-07
1.17887e-06
1.19204e-06
8.97986e-07
8.98185e-07
9.14951e-07
9.15151e-07
8.98196e-07
9.14925e-07
9.15164e-07
1.17899e-06
1.19215e-06
8.98073e-07
9.15035e-07
9.15044e-07
1.1922e-06
1.19741e-06
1.20986e-06
9.20603e-07
9.20629e-07
9.36809e-07
9.36835e-07
1.19733e-06
1.20978e-06
9.20489e-07
9.20682e-07
9.3669e-07
9.36885e-07
9.20697e-07
9.36668e-07
9.36901e-07
1.19744e-06
1.20989e-06
9.20577e-07
9.36776e-07
9.36783e-07
1.20994e-06
1.21496e-06
1.22672e-06
9.42082e-07
9.42107e-07
9.5752e-07
9.57543e-07
1.21488e-06
1.22663e-06
9.41969e-07
9.42158e-07
9.57402e-07
9.5759e-07
9.42176e-07
9.57382e-07
9.57609e-07
1.21499e-06
1.22675e-06
9.42059e-07
9.57487e-07
9.57495e-07
1.22679e-06
1.23163e-06
1.24271e-06
9.62542e-07
9.62564e-07
9.7722e-07
9.77243e-07
1.23155e-06
1.24263e-06
9.62429e-07
9.62612e-07
9.77102e-07
9.77288e-07
9.62634e-07
9.77087e-07
9.77309e-07
1.23166e-06
1.24274e-06
9.62519e-07
9.77191e-07
9.77196e-07
1.24279e-06
1.24744e-06
1.25787e-06
9.81986e-07
9.82008e-07
9.95915e-07
9.95937e-07
1.24737e-06
1.25779e-06
9.81874e-07
9.82054e-07
9.95798e-07
9.95979e-07
9.82077e-07
9.95786e-07
9.96002e-07
1.24747e-06
1.2579e-06
9.81965e-07
9.95887e-07
9.95891e-07
1.25795e-06
1.26244e-06
1.27223e-06
1.00044e-06
1.00046e-06
1.01362e-06
1.01364e-06
1.26237e-06
1.27216e-06
1.00033e-06
1.0005e-06
1.0135e-06
1.01368e-06
1.00053e-06
1.01349e-06
1.01371e-06
1.26247e-06
1.27226e-06
1.00042e-06
1.01359e-06
1.0136e-06
1.27231e-06
1.27663e-06
1.28581e-06
1.01789e-06
1.01791e-06
1.03033e-06
1.03035e-06
1.27656e-06
1.28573e-06
1.01778e-06
1.01795e-06
1.03022e-06
1.03039e-06
1.01798e-06
1.03021e-06
1.03041e-06
1.27666e-06
1.28583e-06
1.01787e-06
1.03031e-06
1.03031e-06
1.28588e-06
1.29005e-06
1.29862e-06
1.03436e-06
1.03438e-06
1.04608e-06
1.0461e-06
1.28998e-06
1.29855e-06
1.03425e-06
1.03442e-06
1.04597e-06
1.04614e-06
1.03445e-06
1.04596e-06
1.04616e-06
1.29007e-06
1.29865e-06
1.03434e-06
1.04606e-06
1.04606e-06
1.2987e-06
1.3027e-06
1.31071e-06
1.04987e-06
1.04989e-06
1.0609e-06
1.06092e-06
1.30263e-06
1.31064e-06
1.04976e-06
1.04993e-06
1.06078e-06
1.06095e-06
1.04996e-06
1.06078e-06
1.06098e-06
1.30273e-06
1.31074e-06
1.04985e-06
1.06087e-06
1.06087e-06
1.31079e-06
1.31465e-06
1.32208e-06
1.06446e-06
1.06448e-06
1.07479e-06
1.07481e-06
1.31458e-06
1.32202e-06
1.06435e-06
1.06451e-06
1.07468e-06
1.07484e-06
1.06454e-06
1.07468e-06
1.07487e-06
1.31468e-06
1.32211e-06
1.06444e-06
1.07477e-06
1.07477e-06
1.32216e-06
1.32588e-06
1.33279e-06
1.07812e-06
1.07814e-06
1.08779e-06
1.08781e-06
1.32581e-06
1.33272e-06
1.07801e-06
1.07817e-06
1.08768e-06
1.08784e-06
1.0782e-06
1.08768e-06
1.08787e-06
1.3259e-06
1.33282e-06
1.0781e-06
1.08777e-06
1.08777e-06
1.33286e-06
1.33645e-06
1.34281e-06
1.09091e-06
1.09093e-06
1.09992e-06
1.09995e-06
1.33638e-06
1.34274e-06
1.0908e-06
1.09096e-06
1.09981e-06
1.09998e-06
1.09099e-06
1.09982e-06
1.1e-06
1.33647e-06
1.34284e-06
1.09089e-06
1.0999e-06
1.0999e-06
1.34289e-06
1.34633e-06
1.35217e-06
1.10282e-06
1.10284e-06
1.1112e-06
1.11123e-06
1.34627e-06
1.35211e-06
1.10272e-06
1.10287e-06
1.11109e-06
1.11125e-06
1.10291e-06
1.1111e-06
1.11128e-06
1.34635e-06
1.3522e-06
1.1028e-06
1.11118e-06
1.11118e-06
1.35224e-06
1.35556e-06
1.36093e-06
1.1139e-06
1.11392e-06
1.12168e-06
1.12171e-06
1.35551e-06
1.36087e-06
1.11379e-06
1.11395e-06
1.12158e-06
1.12173e-06
1.11398e-06
1.12158e-06
1.12176e-06
1.35559e-06
1.36096e-06
1.11388e-06
1.12167e-06
1.12167e-06
1.36101e-06
1.3642e-06
1.36907e-06
1.12418e-06
1.1242e-06
1.13136e-06
1.13138e-06
1.36414e-06
1.36901e-06
1.12408e-06
1.12423e-06
1.13125e-06
1.13141e-06
1.12426e-06
1.13126e-06
1.13144e-06
1.36423e-06
1.3691e-06
1.12416e-06
1.13134e-06
1.13134e-06
1.36914e-06
1.37222e-06
1.37661e-06
1.13366e-06
1.13368e-06
1.14028e-06
1.1403e-06
1.37216e-06
1.37655e-06
1.13356e-06
1.13371e-06
1.14017e-06
1.14032e-06
1.13374e-06
1.14018e-06
1.14035e-06
1.37224e-06
1.37664e-06
1.13364e-06
1.14026e-06
1.14026e-06
1.37669e-06
1.37964e-06
1.38359e-06
1.14239e-06
1.14242e-06
1.14845e-06
1.14848e-06
1.37959e-06
1.38353e-06
1.14229e-06
1.14244e-06
1.14835e-06
1.1485e-06
1.14247e-06
1.14836e-06
1.14853e-06
1.37967e-06
1.38362e-06
1.14238e-06
1.14844e-06
1.14844e-06
1.38366e-06
1.38652e-06
1.39003e-06
1.15039e-06
1.15042e-06
1.15594e-06
1.15596e-06
1.38646e-06
1.38998e-06
1.15029e-06
1.15044e-06
1.15583e-06
1.15599e-06
1.15047e-06
1.15585e-06
1.15602e-06
1.38654e-06
1.39006e-06
1.15038e-06
1.15592e-06
1.15592e-06
1.39011e-06
1.39285e-06
1.39591e-06
1.15769e-06
1.15772e-06
1.1627e-06
1.16273e-06
1.39279e-06
1.39585e-06
1.1576e-06
1.15774e-06
1.1626e-06
1.16275e-06
1.15778e-06
1.16261e-06
1.16278e-06
1.39287e-06
1.39594e-06
1.15768e-06
1.16269e-06
1.16269e-06
1.39598e-06
1.39862e-06
1.40126e-06
1.1643e-06
1.16432e-06
1.1688e-06
1.16883e-06
1.39857e-06
1.40121e-06
1.1642e-06
1.16434e-06
1.1687e-06
1.16885e-06
1.16438e-06
1.16872e-06
1.16888e-06
1.39865e-06
1.40129e-06
1.16428e-06
1.16879e-06
1.16879e-06
1.40133e-06
1.40385e-06
1.40607e-06
1.17022e-06
1.17025e-06
1.17425e-06
1.17428e-06
1.40381e-06
1.40601e-06
1.17013e-06
1.17027e-06
1.17415e-06
1.1743e-06
1.1703e-06
1.17417e-06
1.17432e-06
1.40389e-06
1.40609e-06
1.17021e-06
1.17423e-06
1.17423e-06
1.40613e-06
1.40858e-06
1.41039e-06
1.17552e-06
1.17555e-06
1.17905e-06
1.17908e-06
1.40853e-06
1.41034e-06
1.17542e-06
1.17557e-06
1.17895e-06
1.1791e-06
1.1756e-06
1.17897e-06
1.17914e-06
1.4086e-06
1.41041e-06
1.17551e-06
1.17904e-06
1.17904e-06
1.41047e-06
1.4128e-06
1.41426e-06
1.18016e-06
1.18019e-06
1.1833e-06
1.18333e-06
1.41276e-06
1.41421e-06
1.18007e-06
1.18021e-06
1.1832e-06
1.18335e-06
1.18024e-06
1.18322e-06
1.18338e-06
1.41282e-06
1.41429e-06
1.18015e-06
1.18329e-06
1.18329e-06
1.41433e-06
1.41658e-06
1.41766e-06
1.18428e-06
1.18431e-06
1.18698e-06
1.18701e-06
1.41654e-06
1.4176e-06
1.18419e-06
1.18434e-06
1.18689e-06
1.18702e-06
1.18436e-06
1.1869e-06
1.18705e-06
1.41662e-06
1.41768e-06
1.18427e-06
1.18696e-06
1.18696e-06
1.41773e-06
1.4199e-06
1.42059e-06
1.18782e-06
1.18784e-06
1.19004e-06
1.19008e-06
1.41984e-06
1.42054e-06
1.18772e-06
1.18785e-06
1.18995e-06
1.1901e-06
1.18788e-06
1.18997e-06
1.19012e-06
1.41992e-06
1.42062e-06
1.18779e-06
1.19003e-06
1.19003e-06
1.42066e-06
1.42273e-06
1.19072e-06
1.19076e-06
1.42269e-06
1.19063e-06
1.19079e-06
1.19081e-06
1.42276e-06
1.19072e-06
4.09712e-06
9.171e-06
1.84436e-05
4.0975e-06
9.17308e-06
3.38965e-07
3.38955e-07
3.39044e-07
3.3904e-07
2.11725e-06
8.80402e-07
3.48209e-06
5.7415e-07
1.84442e-05
2.11726e-06
8.80515e-07
5.7424e-07
3.48219e-06
1.16386e-06
5.46716e-06
5.46909e-06
4.10482e-06
9.18079e-06
4.10221e-06
9.18789e-06
1.84564e-05
1.84671e-05
4.1052e-06
9.18288e-06
4.10213e-06
9.19e-06
3.43025e-07
3.43115e-07
3.43111e-07
3.55325e-07
3.55314e-07
3.55407e-07
3.55403e-07
2.13113e-06
3.48977e-06
5.91748e-07
9.03673e-07
2.12569e-06
3.49303e-06
5.97572e-07
1.84571e-05
1.84679e-05
2.13114e-06
5.9184e-07
3.48981e-06
9.03784e-07
2.12574e-06
5.97664e-07
3.49313e-06
5.47349e-06
5.4754e-06
1.18299e-06
5.47645e-06
5.47838e-06
4.11244e-06
9.19725e-06
4.10986e-06
9.2043e-06
1.84796e-05
1.84908e-05
4.11282e-06
9.19933e-06
4.10977e-06
9.20637e-06
3.59435e-07
3.59528e-07
3.59525e-07
3.71859e-07
3.71849e-07
3.71944e-07
3.71941e-07
2.1443e-06
3.50043e-06
6.14901e-07
9.25925e-07
2.13915e-06
3.50355e-06
6.20623e-07
1.848e-05
1.84915e-05
2.14431e-06
6.14995e-07
3.50045e-06
9.26034e-07
2.13918e-06
6.20718e-07
3.50364e-06
5.48274e-06
5.48465e-06
1.20118e-06
5.48566e-06
5.48759e-06
4.11993e-06
9.21431e-06
4.11739e-06
9.22127e-06
1.85046e-05
1.8515e-05
4.1203e-06
9.21641e-06
4.1173e-06
9.22337e-06
3.76e-07
3.76096e-07
3.76093e-07
3.88484e-07
3.88474e-07
3.88571e-07
3.88569e-07
2.15676e-06
3.51064e-06
6.37612e-07
9.47151e-07
2.15191e-06
3.51363e-06
6.43208e-07
1.85055e-05
1.85158e-05
2.15677e-06
6.37708e-07
3.51067e-06
9.47258e-07
2.15194e-06
6.43303e-07
3.51371e-06
5.49177e-06
5.49368e-06
1.21847e-06
5.49471e-06
5.49664e-06
4.12732e-06
9.23052e-06
4.12484e-06
9.23767e-06
1.85271e-05
1.85387e-05
4.12769e-06
9.23258e-06
4.12475e-06
9.23974e-06
3.92636e-07
3.92734e-07
3.92732e-07
4.05121e-07
4.05111e-07
4.05211e-07
4.05209e-07
2.16859e-06
3.5205e-06
6.59787e-07
9.67363e-07
2.164e-06
3.52336e-06
6.65238e-07
1.85275e-05
1.85394e-05
2.1686e-06
6.59884e-07
3.52052e-06
9.67468e-07
2.16402e-06
6.65335e-07
3.52344e-06
5.50088e-06
5.5028e-06
1.2349e-06
5.50367e-06
5.50561e-06
4.13451e-06
9.2479e-06
4.13208e-06
9.25543e-06
1.85542e-05
1.85666e-05
4.13488e-06
9.25002e-06
4.13198e-06
9.25753e-06
4.09261e-07
4.09362e-07
4.09359e-07
4.21686e-07
4.21676e-07
4.21777e-07
4.21777e-07
2.17975e-06
3.52989e-06
6.8134e-07
9.86558e-07
2.17543e-06
3.53263e-06
6.8662e-07
1.8555e-05
1.85673e-05
2.17975e-06
6.81437e-07
3.5299e-06
9.86659e-07
2.17545e-06
6.86717e-07
3.53271e-06
5.50961e-06
5.51152e-06
1.25047e-06
5.51249e-06
5.51442e-06
4.14159e-06
9.26556e-06
4.13925e-06
9.27234e-06
1.85805e-05
1.8591e-05
4.14196e-06
9.26757e-06
4.13915e-06
9.27434e-06
4.25801e-07
4.25903e-07
4.25901e-07
4.38115e-07
4.38105e-07
4.38209e-07
4.38209e-07
2.19033e-06
3.53899e-06
7.02199e-07
1.00477e-06
2.18625e-06
3.54158e-06
7.073e-07
1.85809e-05
1.85918e-05
2.19033e-06
7.02296e-07
3.53901e-06
1.00487e-06
2.18627e-06
7.07397e-07
3.54166e-06
5.51843e-06
5.52035e-06
1.26523e-06
5.5211e-06
5.52304e-06
4.14847e-06
9.28111e-06
4.14616e-06
9.28839e-06
1.8604e-05
1.86166e-05
4.14884e-06
9.28316e-06
4.14606e-06
9.29041e-06
4.42179e-07
4.42283e-07
4.4228e-07
4.54315e-07
4.54305e-07
4.5441e-07
4.54412e-07
2.20027e-06
3.5476e-06
7.22302e-07
1.02197e-06
2.19644e-06
3.55011e-06
7.27201e-07
1.86051e-05
1.86176e-05
2.20027e-06
7.22399e-07
3.54761e-06
1.02207e-06
2.19646e-06
7.27298e-07
3.55018e-06
5.52684e-06
5.52876e-06
1.27919e-06
5.52964e-06
5.53158e-06
4.15521e-06
9.29936e-06
4.15304e-06
9.30644e-06
1.8633e-05
1.86442e-05
4.15558e-06
9.30138e-06
4.15294e-06
9.30844e-06
4.58315e-07
4.5842e-07
4.58416e-07
4.70233e-07
4.70226e-07
4.7033e-07
4.70334e-07
2.20968e-06
3.55599e-06
7.41606e-07
1.03821e-06
2.20609e-06
3.55832e-06
7.46302e-07
1.86335e-05
1.86449e-05
2.20968e-06
7.41702e-07
3.55601e-06
1.0383e-06
2.20611e-06
7.46397e-07
3.5584e-06
5.53536e-06
5.53728e-06
1.29239e-06
5.53786e-06
5.5398e-06
4.16177e-06
9.31523e-06
4.15959e-06
9.32266e-06
1.86569e-05
1.86697e-05
4.16213e-06
9.31722e-06
4.15948e-06
9.32464e-06
4.74153e-07
4.74258e-07
4.74255e-07
4.85808e-07
4.85801e-07
4.85906e-07
4.85911e-07
2.2185e-06
3.56386e-06
7.60066e-07
1.05348e-06
2.21513e-06
3.56615e-06
7.64542e-07
1.86579e-05
1.86707e-05
2.2185e-06
7.6016e-07
3.56386e-06
1.05358e-06
2.21514e-06
7.64636e-07
3.56622e-06
5.5434e-06
5.54533e-06
1.30483e-06
5.54615e-06
5.54809e-06
4.16818e-06
9.33318e-06
4.16616e-06
9.33959e-06
1.86866e-05
1.86979e-05
4.16855e-06
9.33522e-06
4.16606e-06
9.34158e-06
4.89636e-07
4.89742e-07
4.89739e-07
5.00984e-07
5.00977e-07
5.01083e-07
5.01089e-07
2.22684e-06
3.57158e-06
7.7765e-07
1.06785e-06
2.22368e-06
3.57367e-06
7.81903e-07
1.86873e-05
1.86984e-05
2.22682e-06
7.77743e-07
3.5716e-06
1.06794e-06
2.22371e-06
7.81996e-07
3.57375e-06
5.55163e-06
5.55356e-06
1.31657e-06
5.55396e-06
5.55591e-06
4.17438e-06
9.34883e-06
4.17236e-06
9.35733e-06
1.87117e-05
1.87256e-05
4.17474e-06
9.35074e-06
4.17225e-06
9.35936e-06
5.04702e-07
5.04808e-07
5.04806e-07
5.15713e-07
5.15707e-07
5.15813e-07
5.15819e-07
2.23463e-06
3.57876e-06
7.94317e-07
1.08129e-06
2.23168e-06
3.58083e-06
7.98338e-07
1.87125e-05
1.87276e-05
2.23459e-06
7.94408e-07
3.57875e-06
1.08137e-06
2.23172e-06
7.98428e-07
3.58089e-06
5.55923e-06
5.56115e-06
1.32759e-06
5.56186e-06
5.5638e-06
4.1805e-06
9.36752e-06
4.17859e-06
9.37187e-06
1.87408e-05
1.87491e-05
4.18086e-06
9.36966e-06
4.17849e-06
9.37388e-06
5.19317e-07
5.19423e-07
5.1942e-07
5.29956e-07
5.2995e-07
5.30056e-07
5.30063e-07
2.242e-06
3.58584e-06
8.10066e-07
1.09386e-06
2.23924e-06
3.58775e-06
8.13857e-07
1.87419e-05
1.87489e-05
2.24196e-06
8.10155e-07
3.58585e-06
1.09395e-06
2.2393e-06
8.13946e-07
3.58782e-06
5.56729e-06
5.56922e-06
1.33797e-06
5.56962e-06
5.57157e-06
4.18625e-06
9.37899e-06
4.18447e-06
9.3891e-06
1.87624e-05
1.87807e-05
4.1866e-06
9.38073e-06
4.18437e-06
9.39085e-06
5.33429e-07
5.33535e-07
5.33532e-07
5.43666e-07
5.43661e-07
5.43767e-07
5.43776e-07
2.24882e-06
3.59238e-06
8.24877e-07
1.10556e-06
2.24629e-06
3.59417e-06
8.28431e-07
1.8762e-05
1.87826e-05
2.24878e-06
8.24964e-07
3.59239e-06
1.10565e-06
2.24635e-06
8.28517e-07
3.59424e-06
5.57451e-06
5.57644e-06
1.34764e-06
5.57676e-06
5.57871e-06
4.19189e-06
9.4035e-06
4.19014e-06
9.40828e-06
1.88e-05
1.88063e-05
4.19223e-06
9.40567e-06
4.19005e-06
9.41042e-06
5.47004e-07
5.4711e-07
5.47106e-07
5.56822e-07
5.56819e-07
5.56924e-07
5.56934e-07
2.25521e-06
3.59867e-06
8.38752e-07
1.11644e-06
2.25285e-06
3.60037e-06
8.42076e-07
1.88025e-05
1.8808e-05
2.25516e-06
8.38836e-07
3.59866e-06
1.11652e-06
2.25291e-06
8.42159e-07
3.60043e-06
5.58174e-06
5.58366e-06
1.3567e-06
5.58404e-06
5.58599e-06
4.19736e-06
9.4102e-06
4.19568e-06
9.41453e-06
1.88117e-05
1.88238e-05
4.19769e-06
9.41226e-06
4.19559e-06
9.41635e-06
5.60017e-07
5.60123e-07
5.60118e-07
5.69381e-07
5.69379e-07
5.69484e-07
5.69492e-07
2.26117e-06
3.60467e-06
8.5171e-07
1.12652e-06
2.259e-06
3.60628e-06
8.54804e-07
1.88111e-05
1.88228e-05
2.26111e-06
8.51794e-07
3.60468e-06
1.12661e-06
2.25905e-06
8.54887e-07
3.60635e-06
5.58893e-06
5.59087e-06
1.36516e-06
5.59112e-06
5.59307e-06
4.20251e-06
9.42907e-06
4.20095e-06
9.44064e-06
1.88492e-05
1.88658e-05
4.20283e-06
9.43106e-06
4.20089e-06
9.44276e-06
5.72423e-07
5.72529e-07
5.72523e-07
5.81334e-07
5.81331e-07
5.81434e-07
5.81446e-07
2.26663e-06
3.61034e-06
8.63743e-07
1.13581e-06
2.26468e-06
3.6118e-06
8.66611e-07
1.885e-05
1.88677e-05
2.26656e-06
8.63824e-07
3.61033e-06
1.13589e-06
2.26472e-06
8.6669e-07
3.61186e-06
5.59579e-06
5.59772e-06
1.37299e-06
5.59783e-06
5.59978e-06
4.2074e-06
9.45084e-06
4.20592e-06
9.45485e-06
1.88791e-05
1.88872e-05
4.2077e-06
9.4528e-06
4.20586e-06
9.45675e-06
5.84227e-07
5.8433e-07
5.84327e-07
5.9267e-07
5.92671e-07
5.92774e-07
5.92783e-07
2.27166e-06
3.61561e-06
8.74894e-07
1.14436e-06
2.2699e-06
3.61697e-06
8.77542e-07
1.88811e-05
1.88882e-05
2.27158e-06
8.7497e-07
3.61561e-06
1.14444e-06
2.26994e-06
8.77617e-07
3.61704e-06
5.60222e-06
5.60416e-06
1.38024e-06
5.60428e-06
5.60623e-06
4.21219e-06
9.45901e-06
4.21074e-06
9.46321e-06
1.88962e-05
1.89058e-05
4.21248e-06
9.46113e-06
4.2107e-06
9.46537e-06
5.95408e-07
5.95511e-07
5.95507e-07
6.0338e-07
6.03379e-07
6.03484e-07
6.03493e-07
2.27631e-06
3.62069e-06
8.85168e-07
1.1522e-06
2.27471e-06
3.62199e-06
8.87603e-07
1.88959e-05
1.89058e-05
2.27622e-06
8.85242e-07
3.62067e-06
1.15227e-06
2.27473e-06
8.87676e-07
3.62204e-06
5.60891e-06
5.61083e-06
1.38696e-06
5.61082e-06
5.61276e-06
4.21653e-06
9.47297e-06
4.21526e-06
9.48216e-06
1.8923e-05
1.89396e-05
4.21679e-06
9.47492e-06
4.21524e-06
9.48406e-06
6.05957e-07
6.06063e-07
6.06058e-07
6.1344e-07
6.13439e-07
6.13542e-07
6.13552e-07
2.28045e-06
3.62535e-06
8.94593e-07
1.15931e-06
2.2791e-06
3.62647e-06
8.96811e-07
1.89247e-05
1.89413e-05
2.28038e-06
8.94667e-07
3.62536e-06
1.15939e-06
2.27913e-06
8.96885e-07
3.62654e-06
5.61479e-06
5.61673e-06
1.39311e-06
5.61672e-06
5.61867e-06
4.22081e-06
9.49302e-06
4.21954e-06
9.49752e-06
1.89557e-05
1.89632e-05
4.22107e-06
9.49509e-06
4.21955e-06
9.49953e-06
6.15857e-07
6.15957e-07
6.15954e-07
6.22849e-07
6.22852e-07
6.22953e-07
6.22963e-07
2.28426e-06
3.6298e-06
9.03172e-07
1.16576e-06
2.28304e-06
3.63088e-06
9.05189e-07
1.89561e-05
1.89634e-05
2.28417e-06
9.03239e-07
3.62979e-06
1.16583e-06
2.28306e-06
9.05256e-07
3.63094e-06
5.62118e-06
5.6231e-06
1.39873e-06
5.62289e-06
5.62485e-06
4.22452e-06
9.50158e-06
4.22345e-06
9.5063e-06
1.89707e-05
1.89821e-05
4.22474e-06
9.50343e-06
4.22349e-06
9.50814e-06
6.25103e-07
6.25205e-07
6.25201e-07
6.31621e-07
6.31622e-07
6.3172e-07
6.31729e-07
2.28751e-06
3.63376e-06
9.10939e-07
1.17151e-06
2.28654e-06
3.63465e-06
9.12754e-07
1.89714e-05
1.8984e-05
2.28743e-06
9.11006e-07
3.63377e-06
1.17158e-06
2.28657e-06
9.12818e-07
3.63471e-06
5.62635e-06
5.6283e-06
1.40378e-06
5.62797e-06
5.62992e-06
4.22813e-06
9.5185e-06
4.22712e-06
9.52567e-06
1.90043e-05
1.9016e-05
4.22834e-06
9.52082e-06
4.22715e-06
9.52786e-06
6.33717e-07
6.33815e-07
6.33813e-07
6.39721e-07
6.39726e-07
6.39824e-07
6.3984e-07
2.29048e-06
3.63747e-06
9.17934e-07
1.17666e-06
2.28964e-06
3.63828e-06
9.19556e-07
1.90056e-05
1.90165e-05
2.29039e-06
9.17997e-07
3.63747e-06
1.17672e-06
2.28965e-06
9.19618e-07
3.63833e-06
5.63187e-06
5.63378e-06
1.40837e-06
5.63339e-06
5.63533e-06
4.23157e-06
9.52853e-06
4.23052e-06
9.52936e-06
1.90202e-05
1.90249e-05
4.23175e-06
9.5305e-06
4.23057e-06
9.53121e-06
6.41652e-07
6.41751e-07
6.41752e-07
6.47213e-07
6.47216e-07
6.47317e-07
6.47323e-07
2.29299e-06
3.64088e-06
9.24139e-07
1.18115e-06
2.29232e-06
3.64174e-06
9.25576e-07
1.90204e-05
1.90256e-05
2.29293e-06
9.24202e-07
3.64085e-06
1.18122e-06
2.29231e-06
9.2564e-07
3.64176e-06
5.63706e-06
5.63898e-06
1.41245e-06
5.63884e-06
5.64079e-06
4.23446e-06
9.53993e-06
4.23379e-06
9.55374e-06
1.90454e-05
1.90688e-05
4.23466e-06
9.54148e-06
4.23387e-06
9.55557e-06
6.49002e-07
6.49105e-07
6.49099e-07
6.54117e-07
6.54116e-07
6.54209e-07
6.5422e-07
2.29519e-06
3.64413e-06
9.29679e-07
1.18514e-06
2.2947e-06
3.64461e-06
9.30955e-07
1.90463e-05
1.90685e-05
2.29517e-06
9.29743e-07
3.64417e-06
1.18521e-06
2.29469e-06
9.31016e-07
3.6447e-06
5.64209e-06
5.64404e-06
1.4161e-06
5.64308e-06
5.64504e-06
4.23742e-06
9.5638e-06
4.23648e-06
9.56461e-06
1.90844e-05
1.90877e-05
4.2376e-06
9.56578e-06
4.23657e-06
9.56684e-06
6.55741e-07
6.5583e-07
6.55831e-07
6.60317e-07
6.60324e-07
6.60422e-07
6.60432e-07
2.29698e-06
3.64675e-06
9.34515e-07
1.1885e-06
2.29653e-06
3.64749e-06
9.35594e-07
1.90854e-05
1.90901e-05
2.29693e-06
9.34566e-07
3.64675e-06
1.18856e-06
2.2965e-06
9.35646e-07
3.64753e-06
5.64664e-06
5.64857e-06
1.41925e-06
5.6484e-06
5.65035e-06
4.23973e-06
9.56187e-06
4.23932e-06
9.56272e-06
1.90843e-05
1.90879e-05
4.23986e-06
9.5649e-06
4.23936e-06
9.56587e-06
6.61783e-07
6.61887e-07
6.61881e-07
2.29838e-06
3.64956e-06
9.38615e-07
1.1913e-06
2.29817e-06
3.64978e-06
9.39537e-07
1.90881e-05
1.9091e-05
2.29833e-06
9.3868e-07
3.64953e-06
1.19136e-06
2.29814e-06
9.396e-07
3.64978e-06
5.65121e-06
5.65313e-06
1.42193e-06
5.6518e-06
5.65373e-06
1.8442e-05
1.84444e-05
1.16378e-06
5.4671e-06
5.46896e-06
1.84539e-05
1.8443e-05
1.84564e-05
1.84455e-05
1.16937e-06
5.47175e-06
5.47361e-06
5.46874e-06
5.47062e-06
4.09724e-06
9.17224e-06
2.11713e-06
8.80555e-07
3.48201e-06
5.74123e-07
2.11719e-06
8.80586e-07
3.48249e-06
5.74161e-07
4.09836e-06
9.17947e-06
9.1723e-06
4.10098e-06
4.09843e-06
9.18053e-06
9.17349e-06
4.10111e-06
2.11858e-06
8.86467e-07
3.48754e-06
5.85873e-07
3.48413e-06
5.80007e-07
2.12416e-06
2.11864e-06
8.86497e-07
3.48803e-06
5.85911e-07
3.48464e-06
5.80045e-07
2.12422e-06
1.16369e-06
5.4689e-06
5.46698e-06
1.84412e-05
1.84553e-05
1.84446e-05
1.16929e-06
5.47358e-06
5.47166e-06
5.4706e-06
5.46882e-06
1.84529e-05
1.84421e-05
2.11731e-06
8.80434e-07
3.48269e-06
5.7421e-07
4.09741e-06
9.17232e-06
2.11724e-06
8.80642e-07
5.7424e-07
3.4825e-06
4.09827e-06
9.18156e-06
9.17437e-06
4.10136e-06
2.11875e-06
8.86352e-07
3.48822e-06
5.85961e-07
3.48483e-06
5.80067e-07
2.12434e-06
4.09819e-06
9.1807e-06
9.1736e-06
4.10128e-06
2.11868e-06
8.86553e-07
5.85991e-07
3.48804e-06
5.80126e-07
3.48471e-06
2.12427e-06
4.0973e-06
9.17216e-06
2.11719e-06
8.80649e-07
5.74212e-07
3.48211e-06
4.0972e-06
9.17211e-06
2.1187e-06
8.86315e-07
3.48762e-06
5.85901e-07
3.48428e-06
5.80036e-07
2.12428e-06
4.09852e-06
9.18046e-06
9.17342e-06
4.10117e-06
2.11864e-06
8.86563e-07
5.85963e-07
3.48764e-06
5.80098e-07
3.48425e-06
2.12422e-06
4.09844e-06
9.18053e-06
9.17339e-06
4.10106e-06
1.16381e-06
5.46878e-06
5.46719e-06
1.84429e-05
1.84561e-05
1.84451e-05
1.1694e-06
5.47347e-06
5.47188e-06
5.47062e-06
5.46885e-06
1.84549e-05
1.84439e-05
2.11731e-06
8.80524e-07
5.74265e-07
3.4827e-06
4.09743e-06
9.17227e-06
4.09747e-06
9.17319e-06
2.11874e-06
8.86428e-07
5.85992e-07
3.48773e-06
5.80126e-07
3.48432e-06
2.1243e-06
2.11879e-06
8.86438e-07
5.86018e-07
3.48824e-06
5.80152e-07
3.48485e-06
2.12434e-06
4.09821e-06
9.18065e-06
9.17353e-06
4.1013e-06
4.09833e-06
9.18161e-06
9.17447e-06
4.10134e-06
1.84431e-05
1.84449e-05
1.16945e-06
5.47183e-06
5.47376e-06
5.46884e-06
5.47075e-06
1.8455e-05
1.84442e-05
1.84568e-05
1.8446e-05
1.8455e-05
1.84654e-05
1.84574e-05
1.84679e-05
5.47337e-06
5.47525e-06
1.18291e-06
5.47638e-06
5.47824e-06
1.84769e-05
1.84664e-05
1.84793e-05
1.84688e-05
1.1883e-06
5.48102e-06
5.48288e-06
5.47801e-06
5.47989e-06
4.10494e-06
9.18185e-06
4.10228e-06
9.18902e-06
2.131e-06
3.48961e-06
5.91719e-07
9.0382e-07
2.12558e-06
3.49294e-06
5.97543e-07
2.13107e-06
3.49013e-06
5.91758e-07
9.03849e-07
2.12564e-06
3.49343e-06
5.97581e-07
4.10604e-06
9.19599e-06
9.18915e-06
4.10865e-06
4.10612e-06
9.19716e-06
9.1903e-06
4.10877e-06
2.13239e-06
9.09478e-07
3.49826e-06
6.0912e-07
3.49498e-06
6.03344e-07
2.13767e-06
2.13246e-06
9.09506e-07
3.49874e-06
6.09158e-07
3.4955e-06
6.03382e-07
2.13774e-06
5.47525e-06
5.47348e-06
1.18282e-06
5.47821e-06
5.47629e-06
1.84539e-05
1.84646e-05
1.84785e-05
1.84681e-05
1.18822e-06
5.48282e-06
5.48091e-06
5.47987e-06
5.4781e-06
1.84761e-05
1.84655e-05
2.13119e-06
3.49031e-06
5.9178e-07
9.037e-07
2.12575e-06
3.49362e-06
5.97631e-07
4.10511e-06
9.18205e-06
4.10204e-06
9.18924e-06
2.13111e-06
5.91839e-07
3.49021e-06
9.03903e-07
2.12568e-06
5.97662e-07
3.49345e-06
4.10596e-06
9.19807e-06
9.19126e-06
4.10902e-06
2.13256e-06
9.09364e-07
3.49894e-06
6.09208e-07
3.49569e-06
6.03405e-07
2.13785e-06
4.10587e-06
9.19729e-06
9.19052e-06
4.10893e-06
2.13249e-06
9.0956e-07
6.09239e-07
3.49875e-06
6.03464e-07
3.49557e-06
2.13778e-06
4.10501e-06
9.18179e-06
4.10238e-06
9.18893e-06
2.13107e-06
5.91811e-07
3.48973e-06
9.03914e-07
2.12563e-06
5.97634e-07
3.49304e-06
4.1049e-06
9.18185e-06
4.1023e-06
9.1889e-06
2.13251e-06
9.09331e-07
3.49834e-06
6.09149e-07
3.49515e-06
6.03374e-07
2.1378e-06
4.10621e-06
9.19706e-06
9.19021e-06
4.10883e-06
2.13245e-06
9.09573e-07
6.09211e-07
3.49835e-06
6.03437e-07
3.4951e-06
2.13774e-06
4.10613e-06
9.19695e-06
9.19015e-06
4.10872e-06
5.47528e-06
5.47351e-06
1.18294e-06
5.47808e-06
5.47649e-06
1.8456e-05
1.84666e-05
1.84791e-05
1.84687e-05
1.18833e-06
5.48269e-06
5.4811e-06
5.47988e-06
5.47812e-06
1.84778e-05
1.84675e-05
2.13119e-06
5.91866e-07
3.49034e-06
9.03792e-07
2.12578e-06
5.9769e-07
3.49364e-06
4.10513e-06
9.18199e-06
4.10207e-06
9.18918e-06
4.10517e-06
9.18292e-06
4.10219e-06
9.18997e-06
2.13255e-06
9.09442e-07
6.09243e-07
3.49843e-06
6.03467e-07
3.49518e-06
2.13781e-06
2.13259e-06
9.09452e-07
6.09268e-07
3.49895e-06
6.03493e-07
3.49571e-06
2.13785e-06
4.1059e-06
9.19721e-06
9.19044e-06
4.10895e-06
4.10601e-06
9.19798e-06
9.19121e-06
4.10898e-06
1.8456e-05
1.84663e-05
1.84578e-05
1.84681e-05
1.18838e-06
5.48108e-06
5.48301e-06
5.4781e-06
5.48001e-06
1.84777e-05
1.84673e-05
1.84795e-05
1.84691e-05
1.84779e-05
1.8489e-05
1.84803e-05
1.84914e-05
5.48263e-06
5.48451e-06
1.2011e-06
5.48558e-06
5.48744e-06
1.85013e-05
1.84902e-05
1.85037e-05
1.84926e-05
1.2063e-06
5.49008e-06
5.49195e-06
5.48716e-06
5.48904e-06
4.11257e-06
9.19842e-06
4.10994e-06
9.20545e-06
2.14417e-06
3.50027e-06
6.14871e-07
9.2607e-07
2.13903e-06
3.50346e-06
6.20594e-07
2.14423e-06
3.50078e-06
6.14909e-07
9.26095e-07
2.1391e-06
3.50395e-06
6.20632e-07
4.11365e-06
9.21298e-06
9.20565e-06
4.1162e-06
4.11372e-06
9.21427e-06
9.20681e-06
4.11632e-06
2.1455e-06
9.31472e-07
3.50854e-06
6.3195e-07
3.50543e-06
6.26288e-07
2.15049e-06
2.14557e-06
9.31498e-07
3.50903e-06
6.31988e-07
3.50594e-06
6.26326e-07
2.15056e-06
5.48449e-06
5.48272e-06
1.20102e-06
5.4874e-06
5.48549e-06
1.84771e-05
1.84884e-05
1.85035e-05
1.8492e-05
1.20622e-06
5.49191e-06
5.49e-06
5.48903e-06
5.48727e-06
1.85011e-05
1.84895e-05
2.14435e-06
3.50097e-06
6.14932e-07
9.2595e-07
2.1392e-06
3.50414e-06
6.20682e-07
4.11273e-06
9.19854e-06
4.10969e-06
9.20556e-06
2.14428e-06
6.1499e-07
3.50085e-06
9.26146e-07
2.13913e-06
6.20712e-07
3.50396e-06
4.11356e-06
9.21508e-06
9.20772e-06
4.11657e-06
2.14567e-06
9.31359e-07
3.50922e-06
6.32039e-07
3.50613e-06
6.26349e-07
2.15067e-06
4.11348e-06
9.2145e-06
9.20695e-06
4.11648e-06
2.1456e-06
9.31549e-07
6.32069e-07
3.50905e-06
6.26407e-07
3.50602e-06
2.1506e-06
4.11263e-06
9.19833e-06
4.11003e-06
9.20538e-06
2.14424e-06
6.14964e-07
3.50038e-06
9.26162e-07
2.13909e-06
6.20686e-07
3.50356e-06
4.11252e-06
9.19821e-06
4.10995e-06
9.20533e-06
2.14562e-06
9.31329e-07
3.50864e-06
6.31981e-07
3.50559e-06
6.26319e-07
2.15062e-06
4.11381e-06
9.21421e-06
9.20675e-06
4.11639e-06
2.14556e-06
9.31566e-07
6.32043e-07
3.50864e-06
6.26382e-07
3.50555e-06
2.15056e-06
4.11373e-06
9.21413e-06
9.20669e-06
4.11628e-06
5.4845e-06
5.48273e-06
1.20114e-06
5.48728e-06
5.48569e-06
1.84789e-05
1.84902e-05
1.85044e-05
1.84926e-05
1.20633e-06
5.4918e-06
5.49021e-06
5.48907e-06
5.4873e-06
1.85032e-05
1.84915e-05
2.14435e-06
6.15021e-07
3.50099e-06
9.26043e-07
2.13923e-06
6.20743e-07
3.50416e-06
4.11275e-06
9.19846e-06
4.10971e-06
9.20551e-06
4.11277e-06
9.19924e-06
4.10983e-06
9.20634e-06
2.14565e-06
9.31438e-07
6.32076e-07
3.50873e-06
6.26413e-07
3.50562e-06
2.15063e-06
2.14569e-06
9.31448e-07
6.32101e-07
3.50924e-06
6.2644e-07
3.50616e-06
2.15067e-06
4.1135e-06
9.21446e-06
9.20689e-06
4.1165e-06
4.11361e-06
9.21515e-06
9.20771e-06
4.11652e-06
1.84788e-05
1.84901e-05
1.84806e-05
1.84919e-05
1.20638e-06
5.49015e-06
5.49209e-06
5.48728e-06
5.48919e-06
1.85027e-05
1.84913e-05
1.85045e-05
1.84931e-05
1.85024e-05
1.85129e-05
1.85048e-05
1.85154e-05
5.49167e-06
5.49355e-06
1.2184e-06
5.49466e-06
5.49653e-06
1.85247e-05
1.8514e-05
1.85271e-05
1.85164e-05
1.2234e-06
5.4992e-06
5.50108e-06
5.49626e-06
5.49815e-06
4.12005e-06
9.21562e-06
4.11746e-06
9.22263e-06
2.15664e-06
3.51047e-06
6.37581e-07
9.47291e-07
2.15179e-06
3.51354e-06
6.43177e-07
2.15671e-06
3.51099e-06
6.37619e-07
9.47315e-07
2.15186e-06
3.51402e-06
6.43215e-07
4.12112e-06
9.22925e-06
9.2225e-06
4.12365e-06
4.12119e-06
9.23035e-06
9.22384e-06
4.12377e-06
2.15792e-06
9.52437e-07
3.51846e-06
6.54266e-07
3.51545e-06
6.48739e-07
2.16264e-06
2.15798e-06
9.52461e-07
3.51895e-06
6.54303e-07
3.51596e-06
6.48777e-07
2.1627e-06
5.49354e-06
5.49178e-06
1.21831e-06
5.49646e-06
5.49455e-06
1.85021e-05
1.85126e-05
1.8526e-05
1.85159e-05
1.22333e-06
5.50102e-06
5.49912e-06
5.49811e-06
5.49635e-06
1.85236e-05
1.85134e-05
2.15682e-06
3.51117e-06
6.37642e-07
9.47172e-07
2.15196e-06
3.51422e-06
6.43265e-07
4.12021e-06
9.21587e-06
4.11722e-06
9.22286e-06
2.15675e-06
6.377e-07
3.51106e-06
9.47364e-07
2.15189e-06
6.43295e-07
3.51403e-06
4.12103e-06
9.23131e-06
9.2246e-06
4.12402e-06
2.15808e-06
9.52325e-07
3.51915e-06
6.54354e-07
3.51615e-06
6.48801e-07
2.16281e-06
4.12094e-06
9.23045e-06
9.22405e-06
4.12393e-06
2.15801e-06
9.5251e-07
6.54383e-07
3.51896e-06
6.48858e-07
3.51603e-06
2.16274e-06
4.12011e-06
9.21556e-06
4.11755e-06
9.22256e-06
2.15671e-06
6.37675e-07
3.51058e-06
9.47381e-07
2.15185e-06
6.4327e-07
3.51363e-06
4.12e-06
9.21547e-06
4.11747e-06
9.22245e-06
2.15803e-06
9.52298e-07
3.51856e-06
6.54296e-07
3.51561e-06
6.48771e-07
2.16276e-06
4.12128e-06
9.23027e-06
9.22378e-06
4.12384e-06
2.15797e-06
9.52529e-07
6.54358e-07
3.51856e-06
6.48834e-07
3.51556e-06
2.1627e-06
4.1212e-06
9.23025e-06
9.22366e-06
4.12373e-06
5.49356e-06
5.4918e-06
1.21843e-06
5.49633e-06
5.49474e-06
1.85043e-05
1.85145e-05
1.85265e-05
1.85165e-05
1.22343e-06
5.5009e-06
5.4993e-06
5.49812e-06
5.49636e-06
1.85252e-05
1.85153e-05
2.15682e-06
6.37734e-07
3.51119e-06
9.47265e-07
2.15198e-06
6.43329e-07
3.51423e-06
4.12022e-06
9.21582e-06
4.11724e-06
9.22282e-06
4.12024e-06
9.21648e-06
4.11735e-06
9.22345e-06
2.15806e-06
9.52404e-07
6.54393e-07
3.51864e-06
6.48866e-07