/*--------------------------------*- C++ -*----------------------------------*\
| =========                 |                                                 |
| \\      /  F ield         | OpenFOAM: The Open Source CFD Toolbox           |
|  \\    /   O peration     | Version:  v1906                                 |
|   \\  /    A nd           | Web:      www.OpenFOAM.com                      |
|    \\/     M anipulation  |                                                 |
\*---------------------------------------------------------------------------*/
FoamFile
{
    version     2.0;
    format      ascii;
    class       volScalarField;
    location    "875";
    object      epsilon;
}
// * * * * * * * * * * * * * * * * * * * * * * * * * * * * * * * * * * * * * //

dimensions      [0 2 -3 0 0 0 0];


internalField   nonuniform List<scalar> 
43248
(
1.15383e-06
8.68617e-07
8.6858e-07
1.15377e-06
8.68341e-07
8.68635e-07
8.68393e-07
8.68644e-07
1.15389e-06
8.68507e-07
8.68513e-07
1.15393e-06
3.2285e-07
3.22847e-07
3.22931e-07
3.22926e-07
1.84306e-05
1.84324e-05
5.46274e-06
5.46389e-06
4.09064e-06
9.16324e-06
4.09326e-06
4.09071e-06
9.16412e-06
9.15805e-06
4.09338e-06
2.10405e-06
3.47651e-06
5.62318e-07
5.56377e-07
2.10994e-06
2.10411e-06
8.62483e-07
3.47687e-06
5.62347e-07
3.47337e-06
5.56418e-07
2.11e-06
1.84314e-05
1.84234e-05
1.14941e-06
5.46419e-06
5.46227e-06
5.46127e-06
5.45949e-06
1.8429e-05
1.84209e-05
9.16502e-06
4.09363e-06
3.47689e-06
5.62391e-07
2.1101e-06
9.16449e-06
4.09355e-06
5.62418e-07
3.47689e-06
2.11003e-06
2.10417e-06
8.62296e-07
3.47647e-06
5.62333e-07
3.47301e-06
5.56407e-07
2.11005e-06
4.0908e-06
9.16401e-06
9.15795e-06
4.09345e-06
2.10411e-06
8.6254e-07
5.62395e-07
3.47648e-06
5.56466e-07
3.47297e-06
2.11e-06
4.09072e-06
9.16401e-06
9.15786e-06
4.09334e-06
1.84329e-05
5.46408e-06
5.4625e-06
1.84316e-05
2.10423e-06
5.6243e-07
3.47657e-06
5.56487e-07
2.11006e-06
2.10428e-06
8.62416e-07
5.62445e-07
3.47708e-06
5.56518e-07
3.47357e-06
2.1101e-06
4.0905e-06
9.1644e-06
4.09357e-06
4.09062e-06
9.16515e-06
9.15898e-06
4.09362e-06
1.14956e-06
5.46243e-06
5.46436e-06
5.4595e-06
5.46141e-06
1.84309e-05
1.84228e-05
1.84327e-05
1.84246e-05
1.84265e-05
1.84288e-05
4.53917e-06
2.81609e-06
5.46181e-06
9.50227e-06
9.49893e-06
2.81307e-06
4.54306e-06
4.54582e-06
2.81498e-06
5.46363e-06
9.50513e-06
9.50327e-06
2.81492e-06
4.54454e-06
9.73387e-06
2.17218e-05
2.17194e-05
2.1717e-05
2.17158e-05
9.73417e-06
1.22037e-05
1.08249e-05
4.74272e-06
4.09132e-06
1.22012e-05
1.08271e-05
4.74333e-06
2.20552e-05
9.16072e-06
7.08632e-06
7.08644e-06
2.20601e-05
1.22044e-05
4.09258e-06
1.08302e-05
4.74497e-06
1.0828e-05
4.74439e-06
1.22069e-05
1.22038e-05
1.0825e-05
4.74277e-06
4.09144e-06
1.22013e-05
1.08273e-05
4.74378e-06
2.20554e-05
9.16169e-06
7.08801e-06
7.08793e-06
2.20601e-05
2.20563e-05
7.08692e-06
9.16062e-06
2.20516e-05
7.08701e-06
1.22045e-05
4.09265e-06
1.08304e-05
4.74542e-06
1.08281e-05
4.74441e-06
1.2207e-05
1.84276e-05
1.84272e-05
9.73185e-06
2.1713e-05
2.17137e-05
9.7316e-06
2.17144e-05
2.17152e-05
4.54579e-06
2.81606e-06
5.46357e-06
9.50505e-06
2.81431e-06
9.50267e-06
4.54643e-06
4.53977e-06
2.81485e-06
5.4618e-06
9.50043e-06
9.49805e-06
2.81312e-06
4.54044e-06
4.5439e-06
9.49958e-06
2.81111e-06
5.46189e-06
2.81289e-06
4.54327e-06
9.50175e-06
4.5379e-06
9.49496e-06
2.80991e-06
5.45997e-06
4.53725e-06
9.49713e-06
2.81168e-06
9.73326e-06
2.17163e-05
2.1717e-05
2.17128e-05
2.17135e-05
9.73363e-06
1.84251e-05
1.84247e-05
2.20555e-05
9.16259e-06
7.08798e-06
7.08784e-06
2.20602e-05
1.22048e-05
4.09246e-06
4.74542e-06
1.08309e-05
4.74439e-06
1.08286e-05
1.22072e-05
2.20555e-05
9.16194e-06
7.08651e-06
7.08659e-06
2.20605e-05
1.22048e-05
4.0924e-06
1.08307e-05
4.74514e-06
1.08285e-05
4.74444e-06
1.22073e-05
1.22036e-05
4.74267e-06
1.08253e-05
4.09151e-06
1.22011e-05
4.74368e-06
1.08276e-05
2.20544e-05
9.16158e-06
7.08757e-06
7.08747e-06
2.20591e-05
2.20553e-05
7.08647e-06
9.1605e-06
2.20506e-05
7.08656e-06
1.22043e-05
4.09274e-06
4.74532e-06
1.08306e-05
4.74431e-06
1.08284e-05
1.22068e-05
1.22039e-05
1.08252e-05
4.74248e-06
4.0914e-06
1.22014e-05
1.08274e-05
4.74349e-06
2.20549e-05
9.16155e-06
7.0861e-06
7.08601e-06
2.20596e-05
2.20558e-05
7.08501e-06
9.16046e-06
2.2051e-05
7.08509e-06
1.22047e-05
4.09266e-06
1.08305e-05
4.74512e-06
1.08283e-05
4.74412e-06
1.22071e-05
1.84288e-05
4.5462e-06
2.8161e-06
5.4636e-06
9.50646e-06
2.81446e-06
9.50383e-06
4.54683e-06
4.54024e-06
2.81509e-06
5.46189e-06
9.50191e-06
9.4993e-06
2.81334e-06
4.54085e-06
9.73439e-06
2.17231e-05
2.17234e-05
2.17201e-05
2.17205e-05
9.73473e-06
1.84276e-05
1.2204e-05
4.7425e-06
1.08255e-05
4.09164e-06
1.22015e-05
4.74349e-06
1.08277e-05
2.20555e-05
9.16184e-06
7.08625e-06
7.08612e-06
2.20603e-05
2.20563e-05
7.08522e-06
1.22048e-05
4.09244e-06
4.74515e-06
1.08308e-05
4.74413e-06
1.08286e-05
1.22072e-05
1.22038e-05
4.74301e-06
1.08256e-05
4.09169e-06
1.22013e-05
4.74361e-06
1.08278e-05
2.20549e-05
9.16268e-06
7.08783e-06
7.08794e-06
2.206e-05
2.20561e-05
7.08694e-06
9.16159e-06
2.2051e-05
7.08686e-06
1.22046e-05
4.09256e-06
4.74523e-06
1.08309e-05
4.74466e-06
1.08287e-05
1.2207e-05
9.73229e-06
2.17157e-05
2.1715e-05
9.73203e-06
2.17172e-05
2.17165e-05
4.53999e-06
2.81501e-06
5.4618e-06
9.50079e-06
2.81323e-06
9.49845e-06
4.54066e-06
4.54598e-06
2.81627e-06
5.46371e-06
9.50556e-06
2.8144e-06
9.50321e-06
4.54665e-06
4.53811e-06
9.49522e-06
2.81003e-06
5.46014e-06
4.53745e-06
2.81183e-06
9.49753e-06
4.5441e-06
9.49998e-06
2.8112e-06
5.46207e-06
4.54344e-06
2.8131e-06
9.50229e-06
9.73376e-06
2.17186e-05
2.17178e-05
2.17153e-05
2.17146e-05
9.73417e-06
1.84271e-05
1.84266e-05
1.84289e-05
1.84284e-05
2.67135e-06
1.15453e-06
1.77353e-06
1.77267e-06
1.77248e-06
1.77297e-06
2.67211e-06
2.67128e-06
1.15447e-06
1.77314e-06
1.77299e-06
1.77283e-06
1.77267e-06
2.67199e-06
2.67145e-06
1.15459e-06
1.77321e-06
1.77312e-06
1.7729e-06
1.77279e-06
2.67219e-06
2.6714e-06
1.15462e-06
1.77307e-06
1.77332e-06
1.77272e-06
1.773e-06
2.67214e-06
1.68203e-07
1.68186e-07
1.66063e-07
7.99983e-08
8.05533e-08
3.18869e-07
1.68204e-07
1.68165e-07
1.66062e-07
1.66025e-07
7.99957e-08
8.05502e-08
1.68251e-07
1.68221e-07
1.66076e-07
8.00152e-08
8.05712e-08
3.18944e-07
1.6824e-07
1.68216e-07
1.66098e-07
1.66075e-07
8.00133e-08
8.05691e-08
1.41454e-06
2.36309e-06
1.2775e-06
2.10626e-06
1.41509e-06
2.36507e-06
1.27762e-06
1.62124e-06
2.03671e-06
3.47578e-06
2.86181e-06
2.0359e-06
2.86126e-06
1.62095e-06
1.42029e-06
2.10776e-06
2.36849e-06
1.283e-06
2.36653e-06
1.28288e-06
1.41974e-06
1.41471e-06
2.36336e-06
1.27755e-06
2.10633e-06
1.41526e-06
2.36534e-06
1.27768e-06
1.62147e-06
2.03686e-06
3.47623e-06
2.86236e-06
2.86182e-06
2.03628e-06
1.62115e-06
1.61652e-06
2.85885e-06
2.03223e-06
3.47403e-06
1.61682e-06
2.85941e-06
2.03284e-06
1.42045e-06
2.10782e-06
2.36874e-06
1.28304e-06
2.36679e-06
1.28294e-06
1.41988e-06
2.66877e-06
1.14871e-06
1.76868e-06
1.76852e-06
1.76901e-06
2.66804e-06
1.76886e-06
1.62144e-06
2.03674e-06
3.47637e-06
2.86236e-06
2.03635e-06
2.86175e-06
1.6211e-06
1.42048e-06
2.10792e-06
2.36875e-06
1.28313e-06
2.36679e-06
1.28303e-06
1.4199e-06
1.62132e-06
2.03684e-06
3.4763e-06
2.86191e-06
2.86135e-06
2.03624e-06
1.62101e-06
1.42037e-06
2.10785e-06
1.2831e-06
2.36859e-06
1.28299e-06
2.36663e-06
1.41982e-06
1.41466e-06
2.36331e-06
1.27758e-06
2.10638e-06
1.41522e-06
2.36527e-06
1.27771e-06
1.62134e-06
2.0365e-06
3.47587e-06
2.86215e-06
2.03589e-06
2.86162e-06
1.62101e-06
1.61637e-06
2.85866e-06
2.03184e-06
3.47362e-06
1.61669e-06
2.03247e-06
2.85919e-06
1.42041e-06
2.10787e-06
2.36868e-06
1.28307e-06
2.36674e-06
1.28296e-06
1.41983e-06
1.41462e-06
1.27755e-06
2.36318e-06
2.10633e-06
1.41516e-06
1.27769e-06
2.36515e-06
1.62129e-06
2.03657e-06
3.47583e-06
2.86181e-06
2.86128e-06
2.03596e-06
1.62097e-06
1.61634e-06
2.85831e-06
2.03191e-06
3.47364e-06
1.61664e-06
2.85886e-06
2.03254e-06
1.42035e-06
2.10781e-06
1.28305e-06
2.36855e-06
1.28294e-06
2.36661e-06
1.41979e-06
1.41465e-06
1.27764e-06
2.36322e-06
2.10639e-06
1.41521e-06
1.27778e-06
2.36516e-06
1.6213e-06
2.03659e-06
3.47592e-06
2.86188e-06
2.036e-06
2.86124e-06
1.62097e-06
1.61633e-06
2.8589e-06
1.4204e-06
2.10793e-06
1.28314e-06
2.36859e-06
1.28303e-06
2.36665e-06
1.41984e-06
1.4148e-06
1.27768e-06
2.36343e-06
2.10643e-06
1.41535e-06
1.27782e-06
2.36538e-06
1.62152e-06
2.03698e-06
3.47643e-06
2.86235e-06
2.86181e-06
2.03639e-06
1.62119e-06
1.61656e-06
2.85884e-06
2.03234e-06
3.47423e-06
1.61688e-06
2.85941e-06
2.03295e-06
1.42054e-06
2.10798e-06
1.28318e-06
2.36877e-06
1.28307e-06
2.36686e-06
1.41997e-06
2.66891e-06
1.14888e-06
1.76858e-06
1.76885e-06
2.66816e-06
1.76893e-06
1.76918e-06
1.33751e-07
2.30869e-07
2.30907e-07
3.58391e-07
3.53049e-07
2.28668e-07
2.28646e-07
3.52776e-07
2.28604e-07
2.28677e-07
2.28533e-07
2.28625e-07
3.52881e-07
2.28574e-07
2.28588e-07
3.52922e-07
3.58512e-07
3.78548e-07
2.3097e-07
2.30987e-07
2.38839e-07
2.38818e-07
3.58231e-07
3.78349e-07
2.30987e-07
2.31013e-07
2.38734e-07
2.38827e-07
2.30967e-07
2.38688e-07
2.38775e-07
3.58317e-07
3.78342e-07
2.30929e-07
2.38711e-07
2.38736e-07
3.78407e-07
1.34413e-07
1.34409e-07
1.34419e-07
1.34414e-07
3.68231e-06
8.90488e-06
3.64882e-06
8.90861e-06
1.84662e-05
1.84552e-05
3.68285e-06
8.9066e-06
3.6487e-06
8.91061e-06
1.33744e-07
1.33754e-07
1.33748e-07
1.3207e-07
1.32068e-07
1.32078e-07
1.32072e-07
1.1586e-06
2.79622e-06
1.58617e-07
2.33343e-07
1.13071e-06
2.81987e-06
1.58832e-07
1.847e-05
1.84732e-05
1.15864e-06
1.58614e-07
2.79644e-06
2.33372e-07
1.13076e-06
1.58841e-07
2.82027e-06
5.13133e-06
5.1332e-06
3.65298e-07
5.14399e-06
5.14605e-06
1.84529e-05
1.84658e-05
1.84549e-05
1.84674e-05
3.46578e-07
5.12328e-06
5.12566e-06
5.11019e-06
5.11166e-06
3.59978e-06
8.90455e-06
8.90143e-06
3.63702e-06
3.59981e-06
8.90821e-06
8.9042e-06
3.6371e-06
1.08808e-06
2.26425e-07
2.78266e-06
1.585e-07
2.75776e-06
1.5845e-07
1.11603e-06
1.0881e-06
2.26444e-07
2.7836e-06
1.58507e-07
2.75857e-06
1.58457e-07
1.11605e-06
1.84721e-05
1.84863e-05
3.46368e-07
5.12716e-06
5.12505e-06
5.11308e-06
5.1115e-06
1.84704e-05
1.84852e-05
3.59956e-06
8.90622e-06
8.90317e-06
3.63765e-06
1.08819e-06
2.26431e-07
2.78323e-06
1.58505e-07
2.75816e-06
1.58453e-07
1.11614e-06
3.59948e-06
8.90843e-06
8.9045e-06
3.63753e-06
1.08816e-06
2.26477e-07
1.5851e-07
2.78389e-06
1.58459e-07
2.75877e-06
1.11613e-06
1.08808e-06
2.26332e-07
2.78296e-06
1.58495e-07
2.75807e-06
1.58445e-07
1.11604e-06
3.5998e-06
8.90816e-06
8.90396e-06
3.63717e-06
1.08807e-06
2.26411e-07
1.58498e-07
2.78324e-06
1.58448e-07
2.75803e-06
1.11604e-06
3.59975e-06
8.90813e-06
8.90192e-06
3.63708e-06
1.84747e-05
1.84892e-05
3.46488e-07
5.12717e-06
5.12536e-06
5.11411e-06
5.11191e-06
1.84708e-05
1.84858e-05
1.08813e-06
2.26376e-07
1.58499e-07
2.78335e-06
1.58448e-07
2.75811e-06
1.11609e-06
1.08815e-06
2.26374e-07
1.58498e-07
2.78375e-06
1.58448e-07
2.75855e-06
1.11612e-06
3.59935e-06
8.90739e-06
8.90352e-06
3.63759e-06
3.59944e-06
8.9093e-06
8.90314e-06
3.6377e-06
3.4643e-07
5.12508e-06
5.12712e-06
5.11152e-06
5.11336e-06
1.84708e-05
1.84819e-05
1.84721e-05
1.84829e-05
1.84487e-05
1.84474e-05
1.84507e-05
1.84492e-05
5.13023e-06
5.13182e-06
3.65456e-07
5.14231e-06
5.14454e-06
1.84671e-05
1.84484e-05
1.84684e-05
1.84503e-05
3.71252e-07
5.16213e-06
5.16326e-06
5.1489e-06
5.15065e-06
3.68242e-06
8.90889e-06
3.64886e-06
8.91334e-06
1.15858e-06
2.79589e-06
1.58622e-07
2.33491e-07
1.13069e-06
2.81955e-06
1.58839e-07
1.15861e-06
2.79676e-06
1.58631e-07
2.33463e-07
1.13071e-06
2.8205e-06
1.58845e-07
3.69296e-06
8.92335e-06
8.91028e-06
3.72274e-06
3.69303e-06
8.92084e-06
8.9142e-06
3.72287e-06
1.17316e-06
2.36051e-07
2.8552e-06
1.59525e-07
2.83213e-06
1.59142e-07
1.20082e-06
1.17319e-06
2.36075e-07
2.85504e-06
1.59532e-07
2.83276e-06
1.59152e-07
1.20085e-06
5.13365e-06
5.13204e-06
3.65162e-07
5.1453e-06
5.14341e-06
1.84645e-05
1.84541e-05
1.8451e-05
1.84498e-05
3.70973e-07
5.16253e-06
5.16063e-06
5.1509e-06
5.14921e-06
1.84496e-05
1.84488e-05
1.15867e-06
2.79637e-06
1.58623e-07
2.33417e-07
1.13081e-06
2.82014e-06
1.58847e-07
3.68277e-06
8.90926e-06
3.64862e-06
8.91579e-06
1.15867e-06
1.58632e-07
2.7971e-06
2.33482e-07
1.13078e-06
1.58846e-07
2.82077e-06
3.69277e-06
8.925e-06
8.91222e-06
3.72329e-06
1.17329e-06
2.36074e-07
2.85548e-06
1.59533e-07
2.83261e-06
1.59143e-07
1.2009e-06
3.69273e-06
8.92062e-06
8.91696e-06
3.72325e-06
1.17325e-06
2.36086e-07
1.59531e-07
2.85521e-06
1.59152e-07
2.83323e-06
1.2009e-06
3.68249e-06
8.90897e-06
3.64892e-06
8.91402e-06
1.15859e-06
1.58621e-07
2.79632e-06
2.33437e-07
1.13069e-06
1.58836e-07
2.82009e-06
3.68238e-06
8.90878e-06
3.64888e-06
8.91458e-06
1.17319e-06
2.35949e-07
2.85444e-06
1.59517e-07
2.83225e-06
1.59137e-07
1.20082e-06
3.69311e-06
8.92113e-06
8.91494e-06
3.72289e-06
1.17317e-06
2.36039e-07
1.59521e-07
2.85478e-06
1.59141e-07
2.83247e-06
1.20081e-06
3.69305e-06
8.92021e-06
8.91583e-06
3.72279e-06
5.13375e-06
5.13165e-06
3.65197e-07
5.14635e-06
5.14469e-06
1.84671e-05
1.84714e-05
1.84405e-05
1.84677e-05
3.70973e-07
5.16217e-06
5.16046e-06
5.1524e-06
5.15043e-06
1.84387e-05
1.84662e-05
1.15868e-06
1.5862e-07
2.79685e-06
2.33399e-07
1.1308e-06
1.58836e-07
2.82061e-06
3.68284e-06
8.90836e-06
3.64857e-06
8.91589e-06
3.68294e-06
8.90998e-06
3.64866e-06
8.91589e-06
1.17323e-06
2.35974e-07
1.59526e-07
2.85472e-06
1.59134e-07
2.83262e-06
1.20086e-06
1.17327e-06
2.36e-07
1.59522e-07
2.85529e-06
1.5914e-07
2.833e-06
1.2009e-06
3.69267e-06
8.92016e-06
8.91708e-06
3.7233e-06
3.69275e-06
8.92135e-06
8.91712e-06
3.72339e-06
1.84626e-05
1.84637e-05
1.84641e-05
1.84655e-05
3.71071e-07
5.16075e-06
5.16273e-06
5.15006e-06
5.15196e-06
1.84417e-05
1.84611e-05
1.8443e-05
1.84628e-05
1.21275e-05
3.67148e-06
1.06714e-05
4.49078e-06
1.06673e-05
4.48222e-06
1.21304e-05
2.24304e-05
7.21038e-06
8.90595e-06
2.24314e-05
7.21087e-06
1.21269e-05
3.66025e-06
1.06622e-05
4.46661e-06
1.21244e-05
1.06657e-05
4.47564e-06
2.24214e-05
7.2124e-06
8.90658e-06
7.21196e-06
2.24219e-05
1.84647e-05
1.8457e-05
1.21278e-05
3.67135e-06
4.4914e-06
1.06715e-05
4.48228e-06
1.06676e-05
1.21306e-05
2.24308e-05
7.21184e-06
8.90785e-06
2.24319e-05
7.21301e-06
1.21272e-05
3.66087e-06
4.46664e-06
1.06627e-05
1.21247e-05
4.47632e-06
1.06663e-05
2.24219e-05
7.21446e-06
8.90849e-06
7.21353e-06
2.24221e-05
1.84723e-05
1.84715e-05
9.71644e-06
2.18416e-05
2.1841e-05
2.18842e-05
2.18837e-05
9.71388e-06
3.96017e-06
1.92633e-06
9.03964e-06
5.13442e-06
3.95463e-06
1.93559e-06
9.04012e-06
3.96718e-06
1.92789e-06
9.04463e-06
5.13647e-06
3.96144e-06
1.93727e-06
9.04517e-06
9.71828e-06
2.1948e-05
2.19476e-05
9.72174e-06
2.19288e-05
2.19283e-05
3.96949e-06
9.04569e-06
5.14075e-06
1.95648e-06
1.94727e-06
9.04174e-06
3.9753e-06
3.97629e-06
9.05077e-06
5.14266e-06
1.95816e-06
1.94883e-06
9.04694e-06
3.98231e-06
1.84531e-05
1.8462e-05
1.84551e-05
1.84638e-05
9.7429e-06
2.25473e-05
2.25477e-05
9.74015e-06
2.25342e-05
2.25349e-05
3.94311e-06
1.9154e-06
5.12033e-06
9.0903e-06
9.0886e-06
1.9052e-06
3.95123e-06
3.95046e-06
1.91642e-06
5.12183e-06
9.09607e-06
9.09428e-06
1.90732e-06
3.95778e-06
3.93132e-06
9.08811e-06
1.88291e-06
5.11316e-06
3.92394e-06
9.08848e-06
1.89276e-06
3.93808e-06
9.09378e-06
1.88486e-06
5.11561e-06
3.93113e-06
9.09419e-06
1.89396e-06
9.74819e-06
2.25377e-05
2.25382e-05
2.25279e-05
2.25283e-05
9.75234e-06
1.21212e-05
1.06527e-05
4.43231e-06
3.61255e-06
1.21183e-05
1.06563e-05
4.44241e-06
2.24442e-05
8.90345e-06
7.20903e-06
2.24425e-05
7.20843e-06
2.24551e-05
7.20598e-06
8.90307e-06
2.24563e-05
7.20679e-06
1.21217e-05
3.62494e-06
1.06609e-05
4.45953e-06
1.2124e-05
1.06576e-05
4.45e-06
1.21201e-05
1.06526e-05
4.43212e-06
3.61263e-06
1.21172e-05
1.06562e-05
4.44293e-06
2.24435e-05
8.90656e-06
7.21145e-06
7.21005e-06
2.24426e-05
2.24534e-05
7.20751e-06
8.90598e-06
2.24546e-05
7.20919e-06
1.21207e-05
3.62497e-06
1.06609e-05
4.46006e-06
1.06575e-05
4.44984e-06
1.21234e-05
1.84734e-05
1.84829e-05
9.69449e-06
2.16517e-05
2.16526e-05
9.69356e-06
2.16549e-05
2.16558e-05
3.9388e-06
1.91442e-06
5.12338e-06
9.00285e-06
1.90471e-06
8.99785e-06
3.94632e-06
3.93176e-06
1.91267e-06
5.12179e-06
8.99826e-06
8.99352e-06
1.90307e-06
3.9395e-06
3.92732e-06
8.9949e-06
1.88266e-06
5.11676e-06
1.89204e-06
3.92065e-06
8.99606e-06
3.92052e-06
8.99065e-06
1.88103e-06
5.11462e-06
3.91363e-06
8.99181e-06
1.89029e-06
9.69898e-06
2.16899e-05
2.16907e-05
2.16624e-05
2.16633e-05
9.70397e-06
1.84718e-05
1.84817e-05
1.21213e-05
4.43221e-06
1.06531e-05
3.61311e-06
1.21186e-05
4.44306e-06
1.06566e-05
2.24444e-05
8.90507e-06
7.21119e-06
2.24426e-05
7.20976e-06
2.24553e-05
7.20723e-06
8.90474e-06
2.24568e-05
7.20897e-06
1.21218e-05
3.62474e-06
4.46023e-06
1.06614e-05
1.21242e-05
4.44993e-06
1.06578e-05
1.21201e-05
1.06527e-05
4.4323e-06
3.61301e-06
1.21174e-05
1.06561e-05
4.44234e-06
2.24421e-05
8.90681e-06
7.20931e-06
7.20882e-06
2.24415e-05
2.24521e-05
7.20622e-06
8.90621e-06
2.2453e-05
7.20692e-06
1.21206e-05
3.62468e-06
1.0661e-05
4.45952e-06
1.06574e-05
4.45003e-06
1.21233e-05
1.21197e-05
4.43195e-06
1.06526e-05
3.61266e-06
1.21169e-05
4.44276e-06
1.0656e-05
2.24427e-05
8.90641e-06
7.2109e-06
7.20946e-06
2.24422e-05
2.24522e-05
7.20686e-06
8.90576e-06
2.24532e-05
7.20856e-06
1.21203e-05
3.62499e-06
4.45994e-06
1.06609e-05
4.4497e-06
1.06573e-05
1.21231e-05
1.21206e-05
1.06525e-05
4.43185e-06
3.61257e-06
1.21174e-05
1.0656e-05
4.4426e-06
2.24453e-05
8.90602e-06
7.20932e-06
7.20787e-06
2.24445e-05
2.24539e-05
7.2051e-06
8.90502e-06
2.24541e-05
7.20691e-06
1.21212e-05
3.62495e-06
1.06609e-05
4.45978e-06
1.06573e-05
4.44965e-06
1.21239e-05
1.84764e-05
1.84866e-05
9.69509e-06
2.14943e-05
2.14944e-05
9.69257e-06
2.14927e-05
2.14928e-05
3.94009e-06
1.91485e-06
5.12439e-06
8.98549e-06
1.90563e-06
8.98476e-06
3.94692e-06
3.93316e-06
1.91325e-06
5.1222e-06
8.97987e-06
8.97921e-06
1.90382e-06
3.93982e-06
3.92851e-06
8.98878e-06
1.88322e-06
5.11733e-06
1.89265e-06
3.92109e-06
8.98606e-06
3.92139e-06
8.98377e-06
1.88147e-06
5.11564e-06
3.91419e-06
8.98064e-06
1.89103e-06
9.69829e-06
2.1537e-05
2.15369e-05
2.14993e-05
2.14994e-05
9.69986e-06
1.84722e-05
1.84825e-05
1.21195e-05
4.4317e-06
1.06525e-05
3.61301e-06
1.2117e-05
4.44256e-06
1.06557e-05
2.24411e-05
8.90565e-06
7.20922e-06
7.20775e-06
2.24406e-05
2.24506e-05
7.20506e-06
8.9051e-06
2.24517e-05
7.2068e-06
1.21201e-05
3.62457e-06
4.45978e-06
1.06608e-05
4.44947e-06
1.0657e-05
1.21228e-05
1.21206e-05
4.432e-06
1.06528e-05
3.61312e-06
1.21177e-05
4.443e-06
1.06561e-05
2.2446e-05
8.90718e-06
7.21127e-06
7.20973e-06
2.24451e-05
2.24547e-05
7.20694e-06
8.90619e-06
2.2455e-05
7.20882e-06
1.21212e-05
3.62467e-06
4.4602e-06
1.06612e-05
4.4498e-06
1.06574e-05
1.21239e-05
9.72483e-06
2.20237e-05
2.20233e-05
9.72212e-06
2.20264e-05
2.2026e-05
3.93857e-06
1.91423e-06
5.12178e-06
9.03996e-06
3.94501e-06
1.90467e-06
9.03875e-06
3.9454e-06
1.9159e-06
5.12364e-06
9.04491e-06
3.95201e-06
1.90622e-06
9.04365e-06
3.9274e-06
9.02574e-06
1.88192e-06
5.11523e-06
3.91921e-06
1.8919e-06
9.03601e-06
3.93441e-06
9.03054e-06
1.88346e-06
5.11726e-06
3.92605e-06
1.89358e-06
9.04083e-06
9.72582e-06
2.19871e-05
2.19867e-05
9.72416e-06
2.20078e-05
2.20074e-05
1.84737e-05
1.84813e-05
1.8475e-05
1.84824e-05
1.84487e-05
1.84454e-05
1.84507e-05
1.84474e-05
9.76266e-06
2.26811e-05
2.26813e-05
2.26795e-05
2.26796e-05
9.75767e-06
3.97019e-06
1.92733e-06
9.09601e-06
5.13313e-06
3.96226e-06
9.11073e-06
1.93755e-06
3.9764e-06
1.92967e-06
9.10182e-06
5.13544e-06
3.96991e-06
9.11669e-06
1.93833e-06
9.76138e-06
2.25756e-05
2.25758e-05
9.75767e-06
2.26491e-05
2.26494e-05
3.97956e-06
9.13223e-06
5.13965e-06
1.95909e-06
9.12332e-06
3.98678e-06
1.94875e-06
3.98762e-06
9.13808e-06
5.14131e-06
1.95955e-06
9.1291e-06
3.99255e-06
1.95136e-06
1.84624e-05
1.84583e-05
1.84645e-05
1.84603e-05
9.74641e-06
2.26388e-05
2.26387e-05
9.75293e-06
2.24938e-05
2.2493e-05
4.00477e-06
1.99986e-06
5.15874e-06
9.11175e-06
9.12924e-06
1.98926e-06
4.01232e-06
4.01456e-06
1.99869e-06
5.16077e-06
9.1152e-06
9.13435e-06
1.99235e-06
4.01367e-06
4.00064e-06
9.13433e-06
1.9695e-06
5.15203e-06
3.99322e-06
9.13412e-06
1.97985e-06
4.00554e-06
9.14007e-06
1.97244e-06
5.15421e-06
4.00178e-06
9.13963e-06
1.97987e-06
9.73626e-06
2.17334e-05
2.17312e-05
2.21506e-05
2.21493e-05
9.71574e-06
1.21272e-05
3.67154e-06
1.06713e-05
4.49138e-06
1.06672e-05
4.48221e-06
1.213e-05
2.24332e-05
7.21218e-06
8.91072e-06
2.24336e-05
7.21334e-06
1.21265e-05
3.66034e-06
1.06621e-05
4.4665e-06
1.06657e-05
1.21239e-05
4.4762e-06
2.2425e-05
7.21478e-06
8.91144e-06
7.21392e-06
2.24248e-05
1.21344e-05
1.06731e-05
4.49685e-06
3.70314e-06
1.21312e-05
1.06772e-05
4.50501e-06
2.24095e-05
8.91773e-06
7.2144e-06
7.21424e-06
2.241e-05
2.24164e-05
7.21324e-06
8.91458e-06
2.24147e-05
7.21366e-06
1.21351e-05
3.71322e-06
1.06826e-05
4.51821e-06
1.06787e-05
4.51066e-06
1.2138e-05
1.2134e-05
1.0673e-05
4.49694e-06
3.70327e-06
1.21308e-05
1.06772e-05
4.50557e-06
2.24099e-05
8.91779e-06
7.21634e-06
7.21599e-06
2.24101e-05
2.24173e-05
7.21518e-06
8.91658e-06
2.24171e-05
7.21573e-06
1.21347e-05
3.71329e-06
1.06827e-05
4.51882e-06
1.06788e-05
4.5107e-06
1.21377e-05
9.71947e-06
2.19262e-05
2.19269e-05
2.18719e-05
2.18726e-05
9.72065e-06
3.96576e-06
1.92698e-06
9.00825e-06
5.13685e-06
9.02087e-06
3.95825e-06
1.93666e-06
3.95894e-06
1.92535e-06
9.00374e-06
5.13486e-06
1.93492e-06
3.9512e-06
9.01643e-06
9.71557e-06
2.17337e-05
2.17346e-05
2.1816e-05
9.71069e-06
2.18168e-05
3.9766e-06
9.04302e-06
5.14271e-06
1.95808e-06
9.03017e-06
1.94872e-06
3.98288e-06
3.96954e-06
9.0386e-06
5.14107e-06
1.95634e-06
1.94709e-06
9.02584e-06
3.97605e-06
1.84633e-05
1.84558e-05
1.84496e-05
1.84513e-05
9.72196e-06
2.19455e-05
2.19461e-05
9.72188e-06
2.19547e-05
2.19552e-05
4.00933e-06
1.99925e-06
5.15954e-06
9.07655e-06
1.99007e-06
9.0713e-06
4.01515e-06
4.00224e-06
1.99751e-06
5.15788e-06
9.07156e-06
9.06664e-06
1.98844e-06
4.0083e-06
3.99926e-06
9.05229e-06
1.96963e-06
5.15363e-06
1.97883e-06
3.99304e-06
9.06409e-06
3.99242e-06
9.04795e-06
1.968e-06
5.15175e-06
3.98597e-06
9.05959e-06
1.97709e-06
9.72363e-06
2.193e-05
2.19302e-05
2.19479e-05
2.19484e-05
9.72434e-06
1.84483e-05
1.84503e-05
1.21271e-05
3.67128e-06
1.0671e-05
4.4908e-06
1.06672e-05
4.48241e-06
1.213e-05
2.24325e-05
7.21096e-06
8.91156e-06
2.24325e-05
7.21125e-06
1.21265e-05
3.66078e-06
1.06623e-05
4.46673e-06
1.06658e-05
1.21239e-05
4.47566e-06
2.24244e-05
7.21273e-06
8.9128e-06
7.21261e-06
2.24247e-05
1.21342e-05
4.4969e-06
1.06731e-05
3.70365e-06
1.21313e-05
4.50554e-06
1.06773e-05
2.2409e-05
8.91963e-06
7.21632e-06
7.21591e-06
2.2409e-05
2.24159e-05
7.21488e-06
8.91644e-06
2.2415e-05
7.21556e-06
1.21349e-05
3.71304e-06
4.51878e-06
1.06831e-05
4.5106e-06
1.06789e-05
1.21377e-05
1.2134e-05
1.06726e-05
4.49711e-06
3.70358e-06
1.21308e-05
1.06769e-05
4.50501e-06
2.24079e-05
8.91983e-06
7.21427e-06
7.21435e-06
2.24072e-05
2.24167e-05
7.21373e-06
8.91942e-06
2.24167e-05
7.21373e-06
1.21348e-05
3.71304e-06
1.0683e-05
4.5183e-06
1.06787e-05
4.5109e-06
1.21379e-05
1.21274e-05
3.67164e-06
4.49128e-06
1.06716e-05
4.48213e-06
1.06676e-05
1.21303e-05
2.24337e-05
7.21167e-06
8.91104e-06
7.21287e-06
2.24338e-05
1.21267e-05
3.66045e-06
4.46642e-06
1.06623e-05
4.47612e-06
1.21238e-05
1.06661e-05
2.24258e-05
7.21431e-06
8.91191e-06
7.21347e-06
2.24255e-05
1.21276e-05
3.67158e-06
1.06714e-05
4.49102e-06
1.06675e-05
4.48199e-06
1.21303e-05
2.24341e-05
7.21009e-06
8.91067e-06
2.2435e-05
7.21119e-06
1.2127e-05
3.66034e-06
1.06622e-05
4.46633e-06
1.21244e-05
1.0666e-05
4.47589e-06
2.24252e-05
7.21259e-06
8.91172e-06
7.2118e-06
2.24248e-05
1.21337e-05
4.49684e-06
1.06731e-05
3.70328e-06
1.21309e-05
4.50542e-06
1.0677e-05
2.24079e-05
8.9184e-06
7.21578e-06
7.2155e-06
2.24071e-05
2.24166e-05
7.21472e-06
8.91727e-06
2.24171e-05
7.21523e-06
1.21343e-05
3.71336e-06
4.51862e-06
1.06826e-05
4.51055e-06
1.06785e-05
1.21368e-05
1.21338e-05
1.06729e-05
4.49669e-06
3.70317e-06
1.2131e-05
1.06768e-05
4.50519e-06
2.2406e-05
8.91915e-06
7.214e-06
7.21379e-06
2.24045e-05
2.24155e-05
7.21304e-06
8.91859e-06
2.24163e-05
7.21351e-06
1.21343e-05
3.71331e-06
1.06824e-05
4.51841e-06
1.06784e-05
4.51044e-06
1.21368e-05
9.70087e-06
2.16311e-05
2.16311e-05
2.16112e-05
2.16113e-05
9.70071e-06
3.96309e-06
1.92722e-06
8.98831e-06
5.13669e-06
8.99841e-06
3.95723e-06
1.9362e-06
3.95599e-06
1.92539e-06
8.98277e-06
5.13497e-06
1.93463e-06
3.95027e-06
8.99326e-06
9.70077e-06
2.15611e-05
2.15612e-05
2.15987e-05
9.70134e-06
2.15988e-05
3.97285e-06
9.02154e-06
5.14348e-06
1.95726e-06
9.00928e-06
1.94825e-06
3.97875e-06
3.96586e-06
9.0169e-06
5.14149e-06
1.95571e-06
1.94641e-06
9.00453e-06
3.97168e-06
1.84698e-05
1.84695e-05
1.84466e-05
1.84627e-05
9.70623e-06
2.16367e-05
2.16367e-05
9.70245e-06
2.16496e-05
2.16493e-05
4.00613e-06
1.99875e-06
5.1601e-06
9.03717e-06
1.98973e-06
9.03483e-06
4.01302e-06
3.99914e-06
1.9972e-06
5.15817e-06
9.03235e-06
9.03009e-06
1.9879e-06
4.00594e-06
3.99543e-06
9.02796e-06
1.96909e-06
5.15463e-06
1.97813e-06
3.98885e-06
9.03314e-06
3.98836e-06
9.02332e-06
1.96725e-06
5.15293e-06
3.98186e-06
9.02844e-06
1.97658e-06
9.71198e-06
2.17269e-05
2.17261e-05
2.16707e-05
2.16702e-05
9.71648e-06
1.84451e-05
1.84612e-05
1.21271e-05
3.67124e-06
4.49109e-06
1.0671e-05
4.48193e-06
1.06674e-05
1.213e-05
2.24329e-05
7.21003e-06
8.9111e-06
7.2112e-06
2.24327e-05
1.21264e-05
3.66087e-06
4.46622e-06
1.06622e-05
4.47596e-06
1.21235e-05
1.0666e-05
2.24255e-05
7.21264e-06
8.91252e-06
7.21183e-06
2.24256e-05
1.21276e-05
3.67133e-06
4.49144e-06
1.06712e-05
4.48219e-06
1.06677e-05
1.21302e-05
2.24349e-05
7.212e-06
8.91195e-06
2.24357e-05
7.21316e-06
1.21271e-05
3.66098e-06
4.46652e-06
1.06626e-05
1.21244e-05
4.47634e-06
1.06663e-05
2.24259e-05
7.21452e-06
8.91303e-06
7.21371e-06
2.24252e-05
1.21335e-05
4.49661e-06
1.06724e-05
3.70364e-06
1.21306e-05
4.50524e-06
1.06765e-05
2.2406e-05
8.91974e-06
7.21396e-06
7.21377e-06
2.24042e-05
2.24163e-05
7.21307e-06
8.91954e-06
2.24174e-05
7.21352e-06
1.21341e-05
3.71297e-06
4.51849e-06
1.06827e-05
4.51037e-06
1.06783e-05
1.21369e-05
1.21333e-05
4.49684e-06
1.06726e-05
3.70373e-06
1.21307e-05
4.50556e-06
1.06767e-05
2.24054e-05
8.92034e-06
7.21586e-06
7.21562e-06
2.24038e-05
2.24153e-05
7.2149e-06
8.9198e-06
2.24163e-05
7.21539e-06
1.21339e-05
3.71304e-06
4.51878e-06
1.06828e-05
4.51056e-06
1.06784e-05
1.21365e-05
1.8463e-05
1.84612e-05
1.84647e-05
1.84629e-05
9.71362e-06
2.17855e-05
2.17849e-05
9.7135e-06
2.17604e-05
2.17598e-05
4.00078e-06
1.99764e-06
5.15829e-06
9.04382e-06
1.98845e-06
9.0445e-06
4.00703e-06
4.00758e-06
1.99931e-06
5.1602e-06
9.04856e-06
1.99001e-06
9.04929e-06
4.01402e-06
3.99093e-06
9.04615e-06
1.96794e-06
5.15273e-06
3.98485e-06
1.9772e-06
9.04609e-06
3.99793e-06
9.05114e-06
1.96951e-06
5.15475e-06
3.99166e-06
1.97888e-06
9.05104e-06
9.71636e-06
2.1752e-05
2.17513e-05
2.17463e-05
2.17456e-05
9.71729e-06
1.84472e-05
1.8459e-05
1.84485e-05
1.84605e-05
1.17709e-07
1.17705e-07
1.33141e-07
1.16608e-07
1.16606e-07
1.09943e-07
1.11234e-07
1.74014e-06
7.67725e-07
7.6803e-07
3.59024e-07
1.73356e-06
7.71699e-07
7.71981e-07
1.71295e-06
3.52445e-07
7.57185e-07
7.57491e-07
7.53185e-07
7.53491e-07
1.72016e-06
1.70867e-06
3.52188e-07
7.56373e-07
7.56094e-07
7.52399e-07
7.52128e-07
1.71587e-06
1.70953e-06
3.52296e-07
7.56626e-07
7.56361e-07
7.52719e-07
7.52439e-07
1.71649e-06
1.71115e-06
3.52312e-07
7.56689e-07
7.56964e-07
1.71811e-06
7.52686e-07
7.52984e-07
1.74326e-06
7.68303e-07
7.68618e-07
3.5915e-07
1.73624e-06
7.72346e-07
7.72659e-07
1.80008e-06
3.77864e-07
8.18299e-07
8.17486e-07
8.13619e-07
8.14437e-07
1.80572e-06
1.73918e-06
7.67491e-07
7.67216e-07
3.5886e-07
7.71248e-07
1.732e-06
7.71531e-07
1.79835e-06
3.77634e-07
8.17514e-07
8.17219e-07
8.13453e-07
8.13166e-07
1.80485e-06
1.73866e-06
7.6764e-07
7.67353e-07
3.5894e-07
7.71299e-07
1.73201e-06
7.71565e-07
1.79726e-06
3.77615e-07
8.17328e-07
8.17047e-07
8.13233e-07
8.12932e-07
1.80403e-06
1.79803e-06
3.77693e-07
8.17249e-07
8.17547e-07
8.13189e-07
8.13511e-07
1.80453e-06
1.35125e-07
1.18845e-07
1.18843e-07
1.20019e-07
1.20015e-07
1.13904e-07
1.12555e-07
1.35119e-07
1.18845e-07
1.18841e-07
1.20019e-07
1.20014e-07
1.13904e-07
1.12554e-07
1.35128e-07
1.18848e-07
1.18845e-07
1.20021e-07
1.20016e-07
1.13905e-07
1.12556e-07
1.35123e-07
1.18846e-07
1.18843e-07
1.20019e-07
1.20016e-07
1.13904e-07
1.12555e-07
1.17709e-07
1.17704e-07
1.33137e-07
1.16608e-07
1.16603e-07
1.09942e-07
1.11234e-07
1.17712e-07
1.17706e-07
1.33147e-07
1.16611e-07
1.16607e-07
1.09944e-07
1.11235e-07
1.17709e-07
1.17706e-07
1.33142e-07
1.16609e-07
1.16605e-07
1.09943e-07
1.11235e-07
1.32579e-07
1.14513e-07
1.14511e-07
1.15543e-07
1.15539e-07
1.08679e-07
1.07443e-07
1.32573e-07
1.14513e-07
1.14508e-07
1.15543e-07
1.15538e-07
1.08679e-07
1.07443e-07
1.32582e-07
1.14516e-07
1.14512e-07
1.15546e-07
1.15541e-07
1.0868e-07
1.07444e-07
1.32577e-07
1.14514e-07
1.1451e-07
1.15544e-07
1.1554e-07
1.08679e-07
1.07443e-07
4.76652e-07
1.15198e-06
1.47494e-06
3.8874e-07
1.46833e-06
3.87223e-07
4.78137e-07
6.56058e-07
1.00115e-06
2.07333e-06
2.80173e-06
6.53851e-07
1.00601e-06
2.07942e-06
4.69278e-07
1.13734e-06
1.44633e-06
3.80191e-07
4.67837e-07
1.45302e-06
3.81651e-07
6.65633e-07
2.1001e-06
2.8146e-06
1.02315e-06
1.01829e-06
2.09415e-06
6.67877e-07
4.76674e-07
1.15204e-06
3.88772e-07
1.4749e-06
3.8726e-07
1.46829e-06
4.78165e-07
6.56053e-07
1.00128e-06
2.0731e-06
2.80206e-06
6.53837e-07
1.00612e-06
2.0792e-06
4.69306e-07
1.13739e-06
3.80229e-07
1.4463e-06
4.67863e-07
3.81682e-07
1.45299e-06
6.65608e-07
2.09986e-06
2.81479e-06
1.02316e-06
1.0183e-06
2.09389e-06
6.67859e-07
1.75514e-06
3.64642e-07
7.86747e-07
7.87036e-07
7.82759e-07
7.83071e-07
1.76167e-06
1.69682e-06
3.47154e-07
7.3828e-07
7.38576e-07
1.68971e-06
7.42221e-07
7.42517e-07
4.52213e-07
1.40162e-06
3.6684e-07
1.09473e-06
4.50848e-07
1.40849e-06
3.68182e-07
6.42258e-07
9.89459e-07
2.77699e-06
2.05809e-06
9.84594e-07
2.05181e-06
6.4446e-07
6.33007e-07
2.03024e-06
9.67644e-07
2.7635e-06
9.72468e-07
6.30845e-07
2.03664e-06
4.59218e-07
1.10939e-06
1.43085e-06
3.74793e-07
1.42404e-06
3.73398e-07
4.60629e-07
4.52272e-07
1.4018e-06
3.66848e-07
1.09476e-06
4.50909e-07
1.40868e-06