/*--------------------------------*- C++ -*----------------------------------*\
| =========                 |                                                 |
| \\      /  F ield         | OpenFOAM: The Open Source CFD Toolbox           |
|  \\    /   O peration     | Version:  v1906                                 |
|   \\  /    A nd           | Web:      www.OpenFOAM.com                      |
|    \\/     M anipulation  |                                                 |
\*---------------------------------------------------------------------------*/
FoamFile
{
    version     2.0;
    format      ascii;
    class       surfaceScalarField;
    location    "875";
    object      phi;
}
// * * * * * * * * * * * * * * * * * * * * * * * * * * * * * * * * * * * * * //

dimensions      [0 3 -1 0 0 0 0];
oriented        oriented;


internalField   nonuniform List<scalar> 
123680
(
-1.94482e-07
-1.94389e-07
-0.00119122
1.77825e-07
1.78112e-07
0.00119125
-0.0011399
-1.24211e-06
1.94066e-07
6.10697e-08
0.00113976
-2.46117e-07
1.22198e-06
2.28739e-07
8.56794e-07
-2.38574e-07
-8.93985e-07
1.99518e-07
-0.00113953
-1.23654e-06
1.94008e-07
6.10207e-08
0.00113939
-2.46005e-07
1.21646e-06
2.28917e-07
8.56578e-07
-2.41288e-07
-8.93894e-07
2.02109e-07
-0.000271363
1.27107e-06
1.23663e-06
-2.31087e-07
-2.36369e-07
0.000269323
-1.70305e-07
-1.70123e-07
-0.00119132
1.62839e-07
1.63129e-07
0.00119134
-0.00113934
-1.23738e-06
1.70148e-07
5.28932e-08
0.0011392
-2.42997e-07
1.2225e-06
2.29104e-07
8.59864e-07
-2.32777e-07
-8.87684e-07
2.03138e-07
-0.00113897
-1.23181e-06
1.69904e-07
5.27524e-08
0.00113883
-2.43035e-07
1.21692e-06
2.29037e-07
8.59797e-07
-2.35321e-07
-8.8748e-07
2.05925e-07
-0.000271228
1.26613e-06
1.23173e-06
-2.27512e-07
-2.32766e-07
0.000269191
-1.46939e-07
-1.46846e-07
-0.00119136
1.47614e-07
1.47783e-07
0.00119135
-0.0011388
-1.23243e-06
1.47549e-07
4.36703e-08
0.00113867
-2.38572e-07
1.22385e-06
2.31434e-07
8.6163e-07
-2.28496e-07
-8.82698e-07
2.0525e-07
-0.00113843
-1.22691e-06
1.47642e-07
4.37656e-08
0.0011383
-2.38539e-07
1.21831e-06
2.3154e-07
8.61393e-07
-2.31227e-07
-8.82631e-07
2.0782e-07
-0.000271101
1.26139e-06
1.22697e-06
-2.24214e-07
-2.29487e-07
0.000269067
-1.23978e-07
-1.23682e-07
-0.00119133
1.32414e-07
1.32688e-07
0.00119131
-0.00113828
-1.22774e-06
1.23034e-07
3.44925e-08
0.00113816
-2.35043e-07
1.22486e-06
2.3262e-07
8.64568e-07
-2.23155e-07
-8.76892e-07
2.08689e-07
-0.00113791
-1.2222e-06
1.2284e-07
3.44536e-08
0.00113779
-2.35133e-07
1.21924e-06
2.32458e-07
8.64486e-07
-2.25703e-07
-8.767e-07
2.11467e-07
-0.000270986
1.25699e-06
1.22263e-06
-2.21118e-07
-2.26347e-07
0.000268954
-1.03332e-07
-1.03179e-07
-0.00119124
1.18302e-07
1.18453e-07
0.00119121
-0.00113779
-1.22445e-06
1.03193e-07
2.96254e-08
0.00113767
-2.32764e-07
1.22491e-06
2.3304e-07
8.66799e-07
-2.18591e-07
-8.71798e-07
2.11227e-07
-0.00113742
-1.21884e-06
1.0316e-07
2.95064e-08
0.0011373
-2.32589e-07
1.21944e-06
2.33232e-07
8.66549e-07
-2.2133e-07
-8.71754e-07
2.13809e-07
-0.000270876
1.25324e-06
1.21886e-06
-2.18404e-07
-2.23662e-07
0.000268846
-8.28306e-08
-8.24951e-08
-0.0011911
1.03457e-07
1.03691e-07
0.00119106
-0.00113731
-1.22016e-06
8.27133e-08
2.09341e-08
0.0011372
-2.29099e-07
1.22618e-06
2.34963e-07
8.6831e-07
-2.15037e-07
-8.67647e-07
2.12973e-07
-0.00113694
-1.21462e-06
8.24937e-08
2.09185e-08
0.00113683
-2.29146e-07
1.22058e-06
2.34874e-07
8.68244e-07
-2.17563e-07
-8.67426e-07
2.15763e-07
-0.000270775
1.24913e-06
1.21479e-06
-2.1569e-07
-2.2091e-07
0.000268747
-6.18414e-08
-6.17495e-08
-0.00119091
8.82391e-08
8.81656e-08
0.00119086
-0.00113687
-1.2167e-06
6.17106e-08
1.47267e-08
0.00113676
-2.26928e-07
1.22638e-06
2.34907e-07
8.70986e-07
-2.10375e-07
-8.62625e-07
2.1606e-07
-0.0011365
-1.21123e-06
6.19246e-08
1.49776e-08
0.00113639
-2.26911e-07
1.22081e-06
2.34988e-07
8.70736e-07
-2.13122e-07
-8.62579e-07
2.18623e-07
-0.000270684
1.2457e-06
1.21132e-06
-2.13284e-07
-2.18552e-07
0.000268659
-4.54408e-08
-4.50641e-08
-0.00119069
7.54333e-08
7.57075e-08
0.00119063
-0.00113644
-1.21377e-06
4.54257e-08
9.85848e-09
0.00113634
-2.24264e-07
1.22692e-06
2.3642e-07
8.71935e-07
-2.07525e-07
-8.59237e-07
2.17141e-07
-0.00113607
-1.20817e-06
4.51189e-08
9.52578e-09
0.00113597
-2.24215e-07
1.22141e-06
2.36458e-07
8.71796e-07
-2.10122e-07
-8.59087e-07
2.19861e-07
-0.000270598
1.24265e-06
1.20836e-06
-2.11352e-07
-2.16551e-07
0.000268575
-2.62765e-08
-2.59474e-08
-0.00119043
6.10048e-08
6.11125e-08
0.00119036
-0.00113604
-1.21034e-06
2.49682e-08
3.14594e-09
0.00113594
-2.22082e-07
1.22743e-06
2.36561e-07
8.74571e-07
-2.03168e-07
-8.54535e-07
2.20121e-07
-0.00113567
-1.2049e-06
2.5105e-08
3.49243e-09
0.00113557
-2.22183e-07
1.22178e-06
2.36458e-07
8.74389e-07
-2.05816e-07
-8.54413e-07
2.22769e-07
-0.000270521
1.23949e-06
1.20517e-06
-2.09114e-07
-2.14339e-07
0.0002685
-9.80602e-09
-9.45174e-09
-0.00119014
4.73608e-08
4.75949e-08
0.00119007
-0.00113566
-1.20788e-06
1.07394e-08
-3.3152e-10
0.00113557
-2.1982e-07
1.22772e-06
2.37708e-07
8.75283e-07
-2.0081e-07
-8.51763e-07
2.20955e-07
-0.00113529
-1.2021e-06
1.02936e-08
-1.17052e-09
0.0011352
-2.19442e-07
1.22244e-06
2.38097e-07
8.75107e-07
-2.03482e-07
-8.51669e-07
2.23632e-07
-0.000270451
1.23623e-06
1.20196e-06
-2.06944e-07
-2.12142e-07
0.000268432
5.33563e-09
5.6825e-09
-0.00118983
3.53513e-08
3.5305e-08
0.00118975
-0.0011353
-1.20541e-06
-6.60218e-09
-5.39563e-09
0.00113521
-2.1877e-07
1.22765e-06
2.3707e-07
8.77678e-07
-1.96774e-07
-8.47409e-07
2.23612e-07
-0.00113493
-1.20015e-06
-6.31379e-09
-4.46511e-09
0.00113485
-2.19149e-07
1.22181e-06
2.3674e-07
8.77601e-07
-1.99279e-07
-8.47153e-07
2.26373e-07
-0.000270387
1.23486e-06
1.20053e-06
-2.06087e-07
-2.11328e-07
0.000268369
2.04998e-08
2.05668e-08
-0.0011895
2.22574e-08
2.21458e-08
0.00118942
-0.00113497
-1.20219e-06
-1.99675e-08
-1.19215e-08
0.00113489
-2.14954e-07
1.22925e-06
2.40106e-07
8.77419e-07
-1.96045e-07
-8.4609e-07
2.23232e-07
-0.0011346
-1.19646e-06
-1.98556e-08
-1.25466e-08
0.00113452
-2.14564e-07
1.22398e-06
2.40573e-07
8.76956e-07
-1.99046e-07
-8.46261e-07
2.25577e-07
-0.00027033
1.23067e-06
1.19637e-06
-2.03489e-07
-2.08725e-07
0.000268315
3.62286e-08
3.75263e-08
-0.00118915
8.70728e-09
9.6827e-09
0.00118905
-0.00113465
-1.20127e-06
-3.68255e-08
-1.12389e-08
0.00113458
-2.16577e-07
1.22744e-06
2.3655e-07
8.8137e-07
-1.90294e-07
-8.40362e-07
2.2766e-07
-0.00113429
-1.19567e-06
-3.81404e-08
-1.19706e-08
0.00113421
-2.16715e-07
1.2218e-06
2.36216e-07
8.81711e-07
-1.9236e-07
-8.39746e-07
2.30947e-07
-0.000270283
1.2301e-06
1.196e-06
-2.02968e-07
-2.08035e-07
0.000268268
4.06957e-08
3.98165e-08
-0.00118879
4.69144e-09
3.37715e-09
0.0011887
-0.00113436
-1.19875e-06
-4.19933e-08
-1.81939e-08
0.00113429
-2.12611e-07
1.22911e-06
2.4043e-07
8.78734e-07
-1.91985e-07
-8.41447e-07
2.24741e-07
-0.00113399
-1.19371e-06
-3.99474e-08
-1.58163e-08
0.00113392
-2.13067e-07
1.2232e-06
2.40159e-07
8.78199e-07
-1.9499e-07
-8.41613e-07
2.26949e-07
-0.00027023
1.22838e-06
1.1938e-06
-2.02088e-07
-2.07551e-07
0.000268218
6.53264e-08
6.6539e-08
-0.00118841
-1.63931e-08
-1.55936e-08
0.00118831
-0.0011341
-1.1951e-06
-6.42239e-08
-2.45634e-08
0.00113404
-2.10417e-07
1.22995e-06
2.39999e-07
8.82607e-07
-1.87391e-07
-8.36596e-07
2.2894e-07
-0.00113373
-1.18891e-06
-6.57985e-08
-2.73661e-08
0.00113367
-2.09646e-07
1.22509e-06
2.40774e-07
8.82434e-07
-1.90141e-07
-8.36517e-07
2.31607e-07
-0.000270201
1.22292e-06
1.18888e-06
-1.98289e-07
-2.03341e-07
0.000268191
6.51728e-08
6.57154e-08
-0.00118802
-1.77107e-08
-1.71879e-08
0.00118792
-0.00113385
-1.19607e-06
-6.55932e-08
-2.15135e-08
0.00113378
-2.11625e-07
1.22807e-06
2.38911e-07
8.82616e-07
-1.85368e-07
-8.34808e-07
2.29378e-07
-0.00113348
-1.19089e-06
-6.56634e-08
-2.06095e-08
0.00113342
-2.1211e-07
1.22217e-06
2.3844e-07
8.82697e-07
-1.87671e-07
-8.34412e-07
2.32342e-07
-0.000270167
1.22552e-06
1.1913e-06
-1.99957e-07
-2.05141e-07
0.000268155
7.44322e-08
7.42012e-08
-0.00118763
-2.43969e-08
-2.53262e-08
0.00118753
-0.0011336
-1.19285e-06
-7.63133e-08
-3.00649e-08
0.00113354
-2.08693e-07
1.22973e-06
2.4065e-07
8.82559e-07
-1.85071e-07
-8.3384e-07
2.2889e-07
-0.00113323
-1.18743e-06
-7.50311e-08
-2.91466e-08
0.00113318
-2.0861e-07
1.22418e-06
2.40843e-07
8.82063e-07
-1.88084e-07
-8.33999e-07
2.31161e-07
-0.000270129
1.22182e-06
1.1873e-06
-1.97516e-07
-2.02933e-07
0.00026812
8.94121e-08
9.00439e-08
-0.00118723
-3.9598e-08
-3.90972e-08
0.00118713
-0.00113339
-1.191e-06
-8.84688e-08
-3.374e-08
0.00113335
-2.07126e-07
1.23018e-06
2.41306e-07
8.83191e-07
-1.83941e-07
-8.32326e-07
2.29547e-07
-0.00113303
-1.18521e-06
-8.9756e-08
-3.51394e-08
0.00113298
-2.06879e-07
1.22481e-06
2.41399e-07
8.83233e-07
-1.86376e-07
-8.32039e-07
2.32489e-07
-0.000270113
1.21956e-06
1.18552e-06
-1.96609e-07
-2.01659e-07
0.000268106
9.25435e-08
9.30043e-08
-0.00118683
-4.30106e-08
-4.29965e-08
0.00118673
-0.0011332
-1.19124e-06
-9.27494e-08
-3.28877e-08
0.00113315
-2.08458e-07
1.22862e-06
2.39215e-07
8.84755e-07
-1.80898e-07
-8.29595e-07
2.31554e-07
-0.00113284
-1.18594e-06
-9.20505e-08
-3.20542e-08
0.00113279
-2.08561e-07
1.22293e-06
2.39212e-07
8.84419e-07
-1.8367e-07
-8.29598e-07
2.34059e-07
-0.000270096
1.22034e-06
1.18598e-06
-1.96688e-07
-2.02007e-07
0.000268088
9.66764e-08
9.68829e-08
-0.00118644
-4.72423e-08
-4.72238e-08
0.00118634
-0.00113301
-1.18935e-06
-9.69795e-08
-3.69936e-08
0.00113297
-2.05803e-07
1.2298e-06
2.41523e-07
8.8337e-07
-1.81961e-07
-8.30129e-07
2.29777e-07
-0.00113265
-1.18361e-06
-9.76965e-08
-3.78148e-08
0.00113261
-2.0552e-07
1.22447e-06
2.4176e-07
8.83302e-07
-1.84525e-07
-8.29928e-07
2.32576e-07
-0.000270077
1.21769e-06
1.18352e-06
-1.95263e-07
-2.00418e-07
0.000268071
1.08885e-07
1.09738e-07
-0.00118603
-5.76685e-08
-5.74844e-08
0.00118593
-0.00113285
-1.18722e-06
-1.1083e-07
-4.32453e-08
0.00113281
-2.04628e-07
1.2302e-06
2.40892e-07
8.85999e-07
-1.78976e-07
-8.27084e-07
2.32671e-07
-0.00113249
-1.18189e-06
-1.0992e-07
-4.24953e-08
0.00113245
-2.0493e-07
1.22447e-06
2.40635e-07
8.85678e-07
-1.81787e-07
-8.27106e-07
2.3514e-07
-0.00027007
1.21699e-06
1.18264e-06
-1.94555e-07
-1.999e-07
0.000268065
1.06964e-07
1.06473e-07
-0.00118563
-5.86881e-08
-5.92207e-08
0.00118553
-0.0011327
-1.18885e-06
-1.05459e-07
-3.81014e-08
0.00113267
-2.06406e-07
1.22831e-06
2.39736e-07
8.83753e-07
-1.79916e-07
-8.28119e-07
2.30397e-07
-0.00113234
-1.18331e-06
-1.06507e-07
-3.83262e-08
0.0011323
-2.06284e-07
1.22281e-06
2.3983e-07
8.83745e-07
-1.82354e-07
-8.27783e-07
2.33282e-07
-0.000270059
1.21735e-06
1.18324e-06
-1.957e-07
-2.00794e-07
0.000268055
1.2088e-07
1.21736e-07
-0.00118524
-7.01252e-08
-6.98788e-08
0.00118514
-0.00113257
-1.18465e-06
-1.20893e-07
-4.85449e-08
0.00113254
-2.01593e-07
1.23147e-06
2.43365e-07
8.85453e-07
-1.78991e-07
-8.26451e-07
2.31777e-07
-0.0011322
-1.17914e-06
-1.19015e-07
-4.81498e-08
0.00113217
-2.01699e-07
1.22594e-06
2.43281e-07
8.84804e-07
-1.8212e-07
-8.26802e-07
2.33887e-07
-0.000270064
1.21258e-06
1.17807e-06
-1.91371e-07
-1.96874e-07
0.000268062
1.17857e-07
1.1902e-07
-0.00118482
-6.86029e-08
-6.75671e-08
0.00118472
-0.00113244
-1.1865e-06
-1.21137e-07
-4.55136e-08
0.00113241
-2.0535e-07
1.22855e-06
2.39259e-07
8.86872e-07
-1.75139e-07
-8.23594e-07
2.3428e-07
-0.00113208
-1.18087e-06
-1.23948e-07
-4.6906e-08
0.00113205
-2.05038e-07
1.22314e-06
2.39496e-07
8.87362e-07
-1.77328e-07
-8.22823e-07
2.37473e-07
-0.000270059
1.21693e-06
1.18334e-06
-1.95276e-07
-1.99912e-07
0.000268054
1.17757e-07
1.17657e-07
-0.00118444
-7.10837e-08
-7.15654e-08
0.00118435
-0.00113232
-1.18697e-06
-1.15349e-07
-4.12428e-08
0.00113229
-2.04954e-07
1.22818e-06
2.3976e-07
8.83682e-07
-1.7922e-07
-8.26691e-07
2.29774e-07
-0.00113195
-1.18126e-06
-1.14487e-07
-4.09025e-08
0.00113192
-2.04764e-07
1.22265e-06
2.39663e-07
8.83565e-07
-1.81566e-07
-8.26518e-07
2.32777e-07
-0.000270052
1.21356e-06
1.17883e-06
-1.9266e-07
-1.98297e-07
0.000268051
1.34955e-07
1.32569e-07
-0.00118406
-8.27971e-08
-8.58948e-08
0.00118396
-0.00113223
-1.18176e-06
-1.32178e-07
-5.93485e-08
0.00113221
-1.99269e-07
1.2324e-06
2.44391e-07
8.84838e-07
-1.78673e-07
-8.2584e-07
2.31169e-07
-0.00113186
-1.17736e-06
-1.28477e-07
-5.47357e-08
0.00113184
-2.00424e-07
1.22581e-06
2.43375e-07
8.8397e-07
-1.82137e-07
-8.26305e-07
2.32824e-07
-0.000270072
1.21283e-06
1.17811e-06
-1.9238e-07
-1.97983e-07
0.000268071
-1.25575e-06
-1.21859e-06
0.00027138
-0.000269364
2.2498e-07
2.32836e-07
0.00113905
2.00686e-07
-0.00113919
6.4951e-08
-1.27819e-06
2.32988e-07
-2.53182e-07
-8.95444e-07
1.98673e-07
-2.39891e-07
8.56114e-07
1.2613e-06
0.0011395
2.00739e-07
-0.00113964
6.479e-08
-1.28387e-06
2.35728e-07
-2.56164e-07
-9.01023e-07
2.0147e-07
-2.42625e-07
8.61737e-07
-1.22129e-06
0.000271411
-0.000269386
2.27746e-07
2.30027e-07
0.00114017
2.00577e-07
-0.00114031
6.43889e-08
-1.241e-06
2.30486e-07
-2.50436e-07
-8.98135e-07
2.01615e-07
-2.42551e-07
8.59032e-07
1.25567e-06
0.00113915
2.00714e-07
-0.0011393
6.50872e-08
-1.27846e-06
2.35686e-07
-2.56269e-07
-8.98134e-07
2.01422e-07
-2.42546e-07
8.5883e-07
2.00541e-07
-0.00114004
6.43531e-08
-1.24375e-06
2.27599e-07
-2.47839e-07
-8.95391e-07
1.98861e-07
8.56254e-07
-2.39776e-07
1.25042e-06
0.00113895
2.00511e-07
-0.00113909
6.45914e-08
-1.27252e-06
2.30505e-07
-2.5004e-07
-8.95544e-07
1.98615e-07
-2.39952e-07
8.56041e-07
-1.21565e-06
0.000271358
-0.000269344
2.25093e-07
2.32483e-07
2.00561e-07
-0.00113967
6.45278e-08
-1.2383e-06
2.27599e-07
-2.47925e-07
-8.95189e-07
2.01477e-07
8.56126e-07
-2.42447e-07
1.21602e-06
0.00114006
2.00434e-07
-0.00114021
6.41157e-08
-1.23807e-06
2.27999e-07
-2.47363e-07
-8.95561e-07
2.01516e-07
-2.42627e-07
8.56293e-07
-0.000269357
2.27676e-07
2.32985e-07
1.27666e-06
1.23947e-06
-2.28662e-07
-2.36405e-07
0.000269329
-1.25697e-06
-1.2198e-06
0.000271245
-0.000269229
2.26431e-07
2.34301e-07
6.20673e-08
0.00113891
-2.51768e-07
1.25628e-06
2.33806e-07
8.56678e-07
-2.38628e-07
-8.9402e-07
1.99383e-07
-1.2822e-06
1.94311e-07
6.14777e-08
0.00113936
-2.54433e-07
1.262e-06
2.36877e-07
8.62265e-07
-2.41433e-07
-8.99625e-07
2.02117e-07
0.00113849
1.76101e-07
-0.00113863
5.48478e-08
-1.27275e-06
2.34507e-07
-2.48915e-07
-8.89355e-07
2.02041e-07
-2.34361e-07
8.58931e-07
1.26255e-06
0.00113894
1.76188e-07
-0.00113908
5.46977e-08
-1.2783e-06
2.37211e-07
-2.51703e-07
-8.94982e-07
2.04905e-07
-2.37111e-07
8.64559e-07
-2.3136e-07
-2.33691e-07
0.000269351
-1.22251e-06
0.000271276
-0.000269251
2.29227e-07
2.31543e-07
6.15059e-08
0.00114003
-2.49017e-07
1.21912e-06
2.31308e-07
8.59599e-07
-2.41295e-07
-8.96716e-07
2.02322e-07
-1.27668e-06
1.94223e-07
6.15374e-08
0.00113901
-2.54336e-07
1.25649e-06
2.37014e-07
8.59307e-07
-2.41417e-07
-8.96797e-07
2.02026e-07
0.00113961
1.75921e-07
-0.00113975
5.44328e-08
-1.23559e-06
2.31986e-07
-2.46186e-07
-8.92043e-07
2.04993e-07
-2.37016e-07
8.6186e-07
1.25704e-06
0.00113859
1.75875e-07
-0.00113873
5.44981e-08
-1.2727e-06
2.37192e-07
-2.5164e-07
-8.92091e-07
2.04985e-07
-2.36972e-07
8.61712e-07
1.94396e-07
6.19374e-08
0.00113881
-2.4882e-07
1.25081e-06
2.31038e-07
8.56637e-07
-2.38656e-07
1.99369e-07
-8.9411e-07
1.75795e-07
-0.00113948
5.44917e-08
-1.23825e-06
2.29055e-07
-2.43413e-07
-8.89317e-07
2.0233e-07
8.59108e-07
-2.34226e-07
1.25162e-06
0.00113839
1.75709e-07
-0.00113853
5.43376e-08
-1.26716e-06
2.32015e-07
-2.459e-07
-8.89353e-07
2.02089e-07
-2.34312e-07
8.58962e-07
-2.28782e-07
-2.36241e-07
0.00026931
-1.21701e-06
0.000271223
-0.00026921
2.26676e-07
2.34086e-07
1.94318e-07
6.14721e-08
0.00113992
-2.4614e-07
1.21641e-06
2.28535e-07
8.56883e-07
-2.41335e-07
2.02266e-07
-8.94136e-07
1.7554e-07
-0.00113911
5.41809e-08
-1.23261e-06
2.29077e-07
-2.43334e-07
-8.89121e-07
2.05061e-07
8.59037e-07
-2.36848e-07
1.21722e-06
0.0011395
1.75559e-07
-0.00113964
5.39951e-08
-1.23275e-06
2.29494e-07
-2.43239e-07
-8.89363e-07
2.05001e-07
-2.36976e-07
8.59228e-07
-0.000269223
2.29132e-07
2.34456e-07
1.27175e-06
1.23461e-06
-2.2516e-07
-2.32872e-07
0.000269197
-1.25808e-06
-1.22097e-06
0.000271119
-0.000269104
2.27759e-07
2.35601e-07
5.29714e-08
0.00113836
-2.48322e-07
1.25703e-06
2.34658e-07
8.59621e-07
-2.32984e-07
-8.87795e-07
2.02803e-07
-1.27743e-06
1.70498e-07
5.31739e-08
0.00113881
-2.51298e-07
1.26251e-06
2.37243e-07
8.65328e-07
-2.35655e-07
-8.93337e-07
2.0572e-07
0.00113795
1.52843e-07
-0.00113809
4.56823e-08
-1.26799e-06
2.36482e-07
-2.44958e-07
-8.83898e-07
2.04556e-07
-2.29594e-07
8.61079e-07
1.26338e-06
0.0011384
1.53495e-07
-0.00113854
4.6933e-08
-1.27386e-06
2.38959e-07
-2.48075e-07
-8.89502e-07
2.07273e-07
-2.32395e-07
8.66653e-07
-2.27925e-07
-2.30231e-07
0.000269219
-1.22345e-06
0.000271149
-0.000269125
2.30381e-07
2.32633e-07
5.25484e-08
0.00113947
-2.45598e-07
1.21987e-06
2.32136e-07
8.62566e-07
-2.35633e-07
-8.9047e-07
2.0576e-07
-1.27191e-06
1.70221e-07
5.31407e-08
0.00113846
-2.5135e-07
1.25693e-06
2.37137e-07
8.62521e-07
-2.35464e-07
-8.90394e-07
2.05831e-07
0.00113907
1.52692e-07
-0.0011392
4.51079e-08
-1.23083e-06
2.33997e-07
-2.42203e-07
-8.86594e-07
2.07492e-07
-2.32254e-07
8.6399e-07
1.25771e-06
0.00113805
1.5361e-07
-0.00113819
4.74074e-08
-1.26847e-06
2.38847e-07
-2.48208e-07
-8.86643e-07
2.07212e-07
-2.32335e-07
8.63729e-07
1.69975e-07
5.26549e-08
0.00113825
-2.4528e-07
1.25163e-06
2.32021e-07
8.59685e-07
-2.32905e-07
2.02903e-07
-8.87784e-07
1.53352e-07
-0.00113893
4.62261e-08
-1.23375e-06
2.30891e-07
-2.39704e-07
-8.83883e-07
2.04662e-07
8.61163e-07
-2.29548e-07
1.25228e-06
0.00113785
1.53409e-07
-0.00113798
4.66777e-08
-1.26284e-06
2.33361e-07
-2.42602e-07
-8.839e-07
2.04523e-07
-2.29561e-07
8.61081e-07
-2.2533e-07
-2.32772e-07
0.000269178
-1.21779e-06
0.000271096
-0.000269083
2.27702e-07
2.35043e-07
1.698e-07
5.23172e-08
0.00113937
-2.42622e-07
1.21723e-06
2.295e-07
8.59954e-07
-2.35563e-07
2.0582e-07
-8.87787e-07
1.53524e-07
-0.00113856
4.65828e-08
-1.22832e-06
2.30823e-07
-2.3982e-07
-8.83718e-07
2.07252e-07
8.61009e-07
-2.32246e-07
1.21793e-06
0.00113896
1.53299e-07
-0.0011391
4.61709e-08
-1.22842e-06
2.30876e-07
-2.39913e-07
-8.83926e-07
2.0742e-07
-2.32234e-07
8.61325e-07
-0.000269097
2.30058e-07
2.35356e-07
1.2667e-06
1.22953e-06
-2.21545e-07
-2.29282e-07
0.000269074
-1.25886e-06
-1.22172e-06
0.000271003
-0.000268988
2.28751e-07
2.36629e-07
4.32162e-08
0.00113782
-2.4389e-07
1.25841e-06
2.36898e-07
8.61651e-07
-2.2842e-07
-8.82614e-07
2.05267e-07
-1.27254e-06
1.47689e-07
4.43591e-08
0.00113827
-2.46943e-07
1.26377e-06
2.39506e-07
8.67121e-07
-2.31342e-07
-8.88315e-07
2.0786e-07
0.00113744
1.29588e-07
-0.00113757
3.76888e-08
-1.26349e-06
2.37465e-07
-2.41675e-07
-8.78312e-07
2.07656e-07
-2.2452e-07
8.63737e-07
1.26481e-06
0.00113789
1.29187e-07
-0.00113801
3.63724e-08
-1.26872e-06
2.40753e-07
-2.43958e-07
-8.8403e-07
2.10382e-07
-2.27419e-07
8.69265e-07
-2.24442e-07
-2.26804e-07
0.000269095
-1.22483e-06
0.000271033
-0.00026901
2.31855e-07
2.34169e-07
4.26557e-08
0.00113894
-2.41132e-07
1.2213e-06
2.34413e-07
8.64552e-07
-2.31096e-07
-8.85325e-07
2.0819e-07
-1.26707e-06
1.47719e-07
4.45557e-08
0.00113792
-2.46929e-07
1.25822e-06
2.39567e-07
8.64162e-07
-2.31331e-07
-8.85498e-07
2.07764e-07
0.00113855
1.293e-07
-0.00113868
3.73879e-08
-1.22638e-06
2.34929e-07
-2.38968e-07
-8.80972e-07
2.10613e-07
-2.27161e-07
8.66692e-07
1.25932e-06
0.00113754
1.28828e-07
-0.00113767
3.61392e-08
-1.2631e-06
2.40754e-07
-2.43832e-07
-8.81136e-07
2.10459e-07
-2.27285e-07
8.66425e-07
1.47373e-07
4.37577e-08
0.00113772
-2.41218e-07
1.25283e-06
2.34168e-07
8.61565e-07
-2.28498e-07
2.05125e-07
-8.82689e-07
1.28829e-07
-0.00113841
3.612e-08
-1.2287e-06
2.32607e-07
-2.35659e-07
-8.78386e-07
2.07808e-07
8.63813e-07
-2.24544e-07
1.25346e-06
0.00113733
1.29415e-07
-0.00113746
3.73205e-08
-1.25785e-06
2.34753e-07
-2.38688e-07
-8.7842e-07
2.07649e-07
-2.24562e-07
8.63704e-07
-2.21903e-07
-2.29406e-07
0.000269053
-1.21934e-06
0.000270981
-0.000268968
2.2932e-07
2.36729e-07
1.47262e-07
4.3271e-08
0.00113883
-2.38527e-07
1.21848e-06
2.31682e-07
8.61806e-07
-2.31175e-07
2.0802e-07
-8.8272e-07
1.28524e-07
-0.00113804
3.57721e-08
-1.22303e-06
2.32653e-07
-2.35515e-07
-8.78191e-07
2.10539e-07
8.63741e-07
-2.27165e-07
1.21908e-06
0.00113845
1.29161e-07
-0.00113857
3.70789e-08
-1.22349e-06
2.32225e-07
-2.3604e-07
-8.78421e-07
2.10572e-07
-2.27212e-07
8.63977e-07
-0.000268981
2.3134e-07
2.36676e-07
1.26248e-06
1.22538e-06
-2.18587e-07
-2.26273e-07
0.00026896
-1.25929e-06
-1.22221e-06
0.000270894
-0.000268879
2.29555e-07
2.37383e-07
3.59693e-08
0.00113731
-2.40902e-07
1.25901e-06
2.37751e-07
8.64378e-07
-2.23277e-07
-8.76925e-07
2.08387e-07
-1.26774e-06
1.23476e-07
3.46449e-08
0.00113776
-2.43321e-07
1.26486e-06
2.40785e-07
8.70004e-07
-2.26045e-07
-8.82553e-07
2.11249e-07
0.00113694
1.08244e-07
-0.00113707
3.10473e-08
-1.2596e-06
2.38245e-07
-2.38755e-07
-8.73054e-07
2.1049e-07
-2.19746e-07
8.66154e-07
1.26474e-06
0.00113739
1.0847e-07
-0.00113752
3.12329e-08
-1.26535e-06
2.40914e-07
-2.41785e-07
-8.78604e-07
2.13273e-07
-2.22485e-07
8.71787e-07
-2.21037e-07
-2.2333e-07
0.000268982
-1.22477e-06
0.000270924
-0.000268901
2.32227e-07
2.34547e-07
3.56519e-08
0.00113843
-2.38198e-07
1.22187e-06
2.35218e-07
8.67327e-07
-2.25913e-07
-8.79583e-07
2.11346e-07
-1.26224e-06
1.23247e-07
3.47187e-08
0.00113741
-2.43428e-07
1.25923e-06
2.40578e-07
8.67197e-07
-2.25863e-07
-8.79615e-07
2.1135e-07
0.00113806
1.08056e-07
-0.00113818
3.05821e-08
-1.22247e-06
2.35756e-07
-2.36009e-07
-8.75756e-07
2.13406e-07
-2.22414e-07
8.69057e-07
1.25919e-06
0.00113705
1.08478e-07
-0.00113717
3.14254e-08
-1.25988e-06
2.40979e-07
-2.41764e-07
-8.75775e-07
2.13181e-07
-2.22464e-07
8.68834e-07
1.23815e-07
3.57808e-08
0.00113721
-2.38178e-07
1.25348e-06
2.34839e-07
8.64412e-07
-2.23233e-07
2.08442e-07
-8.76953e-07
1.07974e-07
-0.00113791
3.11128e-08
-1.22537e-06
2.32766e-07
-2.33504e-07
-8.72948e-07
2.1071e-07
8.66342e-07
-2.19592e-07
1.25388e-06
0.00113684
1.07993e-07
-0.00113696
3.07617e-08
-1.25406e-06
2.35647e-07
-2.35799e-07
-8.73093e-07
2.1048e-07
-2.19741e-07
8.6614e-07
-2.18471e-07
-2.25891e-07
0.000268941
-1.21922e-06
0.000270872
-0.00026886
2.29644e-07
2.37056e-07
1.23524e-07
3.5536e-08
0.00113832
-2.35532e-07
1.21911e-06
2.32313e-07
8.64689e-07
-2.25876e-07
2.1137e-07
-8.76947e-07
1.08008e-07
-0.00113754
3.11997e-08
-1.21986e-06
2.32876e-07
-2.33466e-07
-8.72815e-07
2.13274e-07
8.66158e-07
-2.22322e-07
1.21955e-06
0.00113795
1.07799e-07
-0.00113807
3.03638e-08
-1.21968e-06
2.33161e-07
-2.33116e-07
-8.73123e-07
2.13379e-07
-2.22408e-07
8.6638e-07
-0.000268873
2.32163e-07
2.37462e-07
1.25878e-06
1.22165e-06
-2.15948e-07
-2.2368e-07
0.000268853
-1.26014e-06
-1.22303e-06
0.000270792
-0.000268778
2.30404e-07
2.38272e-07
2.96058e-08
0.00113682
-2.38256e-07
1.25931e-06
2.383e-07
8.66693e-07
-2.18641e-07
-8.7182e-07
2.11093e-07
-1.26445e-06
1.03611e-07
2.98705e-08
0.00113727
-2.41063e-07
1.26486e-06
2.41168e-07
8.72255e-07
-2.2147e-07
-8.77438e-07
2.13803e-07
0.00113647
8.82454e-08
-0.00113659
2.36048e-08
-1.25572e-06
2.39772e-07
-2.35607e-07
-8.68696e-07
2.12297e-07
-2.15994e-07
8.67752e-07
1.26563e-06
0.00113692
8.85505e-08
-0.00113703
2.40453e-08
-1.26136e-06
2.42416e-07
-2.38503e-07
-8.74316e-07
2.15075e-07
-2.18789e-07
8.73347e-07
-2.18732e-07
-2.21035e-07
0.000268875
-1.22572e-06
0.000270822
-0.000268799
2.33179e-07
2.35462e-07
2.91523e-08
0.00113794
-2.35511e-07
1.22223e-06
2.35806e-07
8.69594e-07
-2.21319e-07
-8.74529e-07
2.14003e-07
-1.25888e-06
1.0355e-07
2.98446e-08
0.00113692
-2.40907e-07
1.25938e-06
2.41315e-07
8.69288e-07
-2.2148e-07
-8.74645e-07
2.13708e-07
0.00113758
8.79012e-08
-0.0011377
2.33739e-08
-1.21865e-06
2.37234e-07
-2.3291e-07
-8.71347e-07
2.15244e-07
-2.18637e-07
8.70711e-07
1.26012e-06
0.00113657
8.81823e-08
-0.00113669
2.38614e-08
-1.25579e-06
2.42387e-07
-2.38471e-07
-8.71363e-07
2.15185e-07
-2.18611e-07
8.70564e-07
1.03221e-07
2.94879e-08
0.00113672
-2.35322e-07
1.25386e-06
2.35612e-07
8.66673e-07
-2.18645e-07
2.11093e-07
-8.71883e-07
8.82173e-08
-0.00113743
2.36281e-08
-1.22135e-06
2.34314e-07
-2.30177e-07
-8.68667e-07
2.12495e-07
8.67905e-07
-2.15917e-07
1.25455e-06
0.00113637
8.83868e-08
-0.00113648
2.39632e-08
-1.25035e-06
2.36865e-07
-2.32959e-07
-8.68659e-07
2.1236e-07
-2.15913e-07
8.67824e-07
-2.16105e-07
-2.23538e-07
0.000268834
-1.22021e-06
0.00027077
-0.000268758
2.30633e-07
2.38006e-07
1.03026e-07
2.91106e-08
0.00113783
-2.32641e-07
1.21954e-06
2.33121e-07
8.66915e-07
-2.21316e-07
2.13991e-07
-8.71918e-07
8.78925e-08
-0.00113706
2.33334e-08
-1.21573e-06
2.34335e-07
-2.30122e-07
-8.68421e-07
2.15259e-07
8.67878e-07
-2.1849e-07
1.2202e-06
0.00113748
8.8038e-08
-0.00113759
2.37848e-08
-1.21602e-06
2.3434e-07
-2.30316e-07
-8.68647e-07
2.15286e-07
-2.18554e-07
8.68112e-07
-0.000268771
2.32878e-07
2.38212e-07
1.25451e-06
1.21744e-06
-2.13125e-07
-2.20811e-07
0.000268754
-1.26087e-06
-1.22386e-06
0.000270702
-0.000268687
2.31314e-07
2.39101e-07
2.11218e-08
0.00113636
-2.34492e-07
1.26057e-06
2.40375e-07
8.68156e-07
-2.15134e-07
-8.67702e-07
2.1278e-07
-1.26018e-06
8.3019e-08
2.14008e-08
0.0011368
-2.37433e-07
1.26607e-06
2.43053e-07
8.73765e-07
-2.17903e-07
-8.73288e-07
2.15562e-07
0.00113602
6.64965e-08
-0.00113613
1.59763e-08
-1.25175e-06
2.40506e-07
-2.32661e-07
-8.63908e-07
2.15152e-07
-2.11629e-07
8.7022e-07
1.26657e-06
0.00113647
6.63811e-08
-0.00113658
1.55328e-08
-1.25717e-06
2.43485e-07
-2.35193e-07
-8.69521e-07
2.17959e-07
-2.14402e-07
8.75816e-07
-2.15869e-07
-2.18204e-07
0.000268776
-1.22672e-06
0.000270731
-0.000268709
2.34261e-07
2.36471e-07
2.0833e-08
0.00113747
-2.31788e-07
1.22348e-06
2.37853e-07
8.711e-07
-2.17777e-07
-8.70357e-07
2.15721e-07
-1.25468e-06
8.27664e-08
2.14884e-08
0.00113646
-2.37501e-07
1.26047e-06
2.42919e-07
8.70983e-07
-2.17703e-07
-8.70314e-07
2.1567e-07
0.00113714
6.63976e-08
-0.00113725
1.5336e-08
-1.21461e-06
2.38054e-07
-2.29885e-07
-8.66631e-07
2.1804e-07
-2.14326e-07
8.73107e-07
1.26091e-06
0.00113612
6.67753e-08
-0.00113623
1.61782e-08
-1.25181e-06
2.43372e-07
-2.35351e-07
-8.66736e-07
2.178e-07
-2.14444e-07
8.72828e-07
8.29869e-08
2.14887e-08
0.00113625
-2.31793e-07
1.255e-06
2.37536e-07
8.68187e-07
-2.15077e-07
2.12801e-07
-8.67682e-07
6.62261e-08
-0.00113697
1.5071e-08
-1.21713e-06
2.35409e-07
-2.26842e-07
-8.63945e-07
2.15301e-07
8.70306e-07
-2.1161e-07
1.25538e-06
0.00113592
6.67603e-08
-0.00113603
1.61001e-08
-1.24628e-06
2.37776e-07
-2.29819e-07
-8.64032e-07
2.15056e-07
-2.11719e-07
8.70136e-07
-2.13282e-07
-2.20741e-07
0.000268735
-1.22103e-06
0.000270679
-0.000268667
2.31523e-07
2.38891e-07
8.26214e-08
2.12654e-08
0.00113736
-2.29143e-07
1.22066e-06
2.35024e-07
8.6847e-07
-2.17716e-07
2.15726e-07
-8.6767e-07
6.65482e-08
-0.00113661
1.56178e-08
-1.21176e-06
2.35323e-07
-2.26995e-07
-8.63814e-07
2.17861e-07
8.70127e-07
-2.14338e-07
1.22112e-06
0.00113703
6.65819e-08
-0.00113714
1.55472e-08
-1.21189e-06
2.35327e-07
-2.27105e-07
-8.64071e-07
2.17946e-07
-2.14392e-07
8.70374e-07
-0.00026868
2.33831e-07
2.39107e-07
1.2512e-06
1.21406e-06
-2.10767e-07
-2.18521e-07
0.000268666
-1.26089e-06
-1.22381e-06
0.000270616
-0.000268602
2.31512e-07
2.39365e-07
1.5186e-08
0.00113592
-2.32511e-07
1.26069e-06
2.40291e-07
8.70846e-07
-2.10439e-07
-8.62628e-07
2.15855e-07
-1.25672e-06
6.19171e-08
1.50939e-08
0.00113636
-2.35267e-07
1.26625e-06
2.43e-07
8.76472e-07
-2.13182e-07
-8.68215e-07
2.18688e-07
0.0011356
4.99575e-08
-0.0011357
1.17634e-08
-1.2491e-06
2.41125e-07
-2.30725e-07
-8.60008e-07
2.16756e-07
-2.08166e-07
8.71588e-07
1.2663e-06
0.00113605
5.04003e-08
-0.00113615
1.24287e-08
-1.25486e-06
2.43757e-07
-2.33742e-07
-8.65613e-07
2.19456e-07
-2.10984e-07
8.77146e-07
-2.13398e-07
-2.15788e-07
0.000268687
-1.22639e-06
0.000270645
-0.000268623
2.34197e-07
2.36498e-07
1.45825e-08
0.00113703
-2.2974e-07
1.22369e-06
2.37828e-07
8.73736e-07
-2.13139e-07
-8.65347e-07
2.18744e-07
-1.25126e-06
6.21995e-08
1.54348e-08
0.00113602
-2.35248e-07
1.26071e-06
2.43056e-07
8.73476e-07
-2.13258e-07
-8.6546e-07
2.18529e-07
0.00113671
4.96194e-08
-0.00113682
1.16088e-08
-1.21205e-06
2.38587e-07
-2.2803e-07
-8.62683e-07
2.19683e-07
-2.10826e-07
8.74522e-07
1.26083e-06
0.0011357
5.00615e-08
-0.0011358
1.21258e-08
-1.24926e-06
2.43783e-07
-2.33656e-07
-8.62725e-07
2.19473e-07
-2.10891e-07
8.7429e-07
6.19754e-08
1.5156e-08
0.00113581
-2.29663e-07
1.25523e-06
2.37558e-07
8.70813e-07
-2.10494e-07
2.1581e-07
-8.62712e-07
4.99727e-08
-0.00113654
1.2205e-08
-1.21491e-06
2.35626e-07
-2.25452e-07
-8.59963e-07
2.16872e-07
8.71707e-07
-2.08115e-07
1.25532e-06
0.00113549
5.00556e-08
-0.0011356
1.19163e-08
-1.24369e-06
2.38244e-07
-2.28032e-07
-8.60039e-07
2.16727e-07
-2.0816e-07
8.71569e-07
-2.10909e-07
-2.1836e-07
0.000268646
-1.22092e-06
0.000270593
-0.000268582
2.31653e-07
2.39049e-07
6.1782e-08
1.46554e-08
0.00113692
-2.26955e-07
1.22096e-06
2.35098e-07
8.71054e-07
-2.13168e-07
2.18703e-07
-8.6275e-07
4.96669e-08
-0.00113618
1.18037e-08
-1.20927e-06
2.35704e-07
-2.25341e-07
-8.59785e-07
2.19558e-07
8.71601e-07
-2.10756e-07
1.22099e-06
0.00113661
4.96488e-08
-0.00113671
1.18133e-08
-1.20939e-06
2.35718e-07
-2.25391e-07
-8.60038e-07
2.19657e-07
-2.10796e-07
8.7185e-07
-0.000268595
2.33952e-07
2.39291e-07
1.24804e-06
1.211e-06
-2.0873e-07
-2.16413e-07
0.000268582
-1.26163e-06
-1.22458e-06
0.000270539
-0.000268525
2.32329e-07
2.40163e-07
9.62723e-09
0.0011355
-2.29683e-07
1.26132e-06
2.41766e-07
8.71927e-07
-2.07469e-07
-8.59183e-07
2.17132e-07
-1.25372e-06
4.58291e-08
1.01339e-08
0.00113594
-2.32562e-07
1.26682e-06
2.44542e-07
8.77385e-07
-2.10389e-07
-8.64874e-07
2.19728e-07
0.0011352
3.04835e-08
-0.00113529
5.39035e-09
-1.24549e-06
2.41793e-07
-2.28056e-07
-8.5571e-07
2.19246e-07
-2.04312e-07
8.73836e-07
1.26758e-06
0.00113564
2.9994e-08
-0.00113574
3.87941e-09
-1.25068e-06
2.45089e-07
-2.30292e-07
-8.61413e-07
2.21986e-07
-2.07214e-07
8.79382e-07
-2.11528e-07
-2.13839e-07
0.000268603
-1.22766e-06
0.000270569
-0.000268547
2.35422e-07
2.37742e-07
9.52383e-09
0.00113661
-2.26999e-07
1.22424e-06
2.39222e-07
8.74857e-07
-2.10126e-07
-8.61853e-07
2.20059e-07
-1.24817e-06
4.54635e-08
9.89116e-09
0.0011356
-2.3254e-07
1.2613e-06
2.44526e-07
8.74554e-07
-2.10262e-07