/*--------------------------------*- C++ -*----------------------------------*\
| =========                 |                                                 |
| \\      /  F ield         | OpenFOAM: The Open Source CFD Toolbox           |
|  \\    /   O peration     | Version:  v1906                                 |
|   \\  /    A nd           | Web:      www.OpenFOAM.com                      |
|    \\/     M anipulation  |                                                 |
\*---------------------------------------------------------------------------*/
FoamFile
{
    version     2.0;
    format      ascii;
    class       volVectorField;
    location    "875";
    object      U;
}
// * * * * * * * * * * * * * * * * * * * * * * * * * * * * * * * * * * * * * //

dimensions      [0 1 -1 0 0 0 0];


internalField   nonuniform List<vector> 
42840
(
(2.19644e-05 2.19718e-05 0.113168)
(-1.43999e-05 8.70581e-06 0.108214)
(8.68825e-06 -1.4401e-05 0.108213)
(-4.59767e-05 -4.59886e-05 0.104666)
(1.98465e-05 1.98566e-05 0.113177)
(-1.21197e-05 7.61002e-06 0.108161)
(7.59332e-06 -1.2099e-05 0.10816)
(-4.42765e-05 -4.42797e-05 0.104616)
(1.77135e-05 1.77137e-05 0.113179)
(-1.00494e-05 6.33154e-06 0.10811)
(6.32741e-06 -1.00638e-05 0.108109)
(-4.26439e-05 -4.2657e-05 0.104569)
(1.55647e-05 1.55779e-05 0.113176)
(-7.80521e-06 5.11889e-06 0.108062)
(5.12024e-06 -7.79317e-06 0.108061)
(-4.11435e-05 -4.11394e-05 0.104526)
(1.3601e-05 1.36019e-05 0.113166)
(-6.00151e-06 4.3964e-06 0.108015)
(4.36841e-06 -6.00667e-06 0.108014)
(-3.9834e-05 -3.98434e-05 0.104486)
(1.156e-05 1.15735e-05 0.113153)
(-4.20764e-06 3.19975e-06 0.10797)
(3.20041e-06 -4.18847e-06 0.107969)
(-3.84529e-05 -3.84477e-05 0.104448)
(9.48812e-06 9.47673e-06 0.113135)
(-2.37729e-06 2.3801e-06 0.107928)
(2.38852e-06 -2.39624e-06 0.107927)
(-3.72787e-05 -3.72949e-05 0.104415)
(7.75214e-06 7.77019e-06 0.113113)
(-1.00948e-06 1.62431e-06 0.107888)
(1.58717e-06 -9.89084e-07 0.107887)
(-3.62732e-05 -3.62606e-05 0.104383)
(5.79049e-06 5.79991e-06 0.113088)
(7.69795e-07 7.46886e-07 0.10785)
(7.82681e-07 7.52899e-07 0.107849)
(-3.51696e-05 -3.51685e-05 0.104355)
(3.98531e-06 4.00088e-06 0.113061)
(1.9204e-06 1.39781e-07 0.107814)
(4.07805e-08 1.96094e-06 0.107813)
(-3.40711e-05 -3.40595e-05 0.104329)
(2.40464e-06 2.40665e-06 0.113031)
(3.39706e-06 -4.26081e-07 0.10778)
(-3.25206e-07 3.3805e-06 0.107779)
(-3.36085e-05 -3.36158e-05 0.104306)
(7.91185e-07 7.76815e-07 0.112999)
(4.28404e-06 -1.43458e-06 0.107749)
(-1.53268e-06 4.25928e-06 0.107748)
(-3.21837e-05 -3.21902e-05 0.104285)
(-8.63346e-07 -7.69075e-07 0.112965)
(5.69173e-06 -1.32321e-06 0.10772)
(-1.35663e-06 5.81233e-06 0.107719)
(-3.20562e-05 -3.19898e-05 0.104268)
(-1.36521e-06 -1.47206e-06 0.112931)
(5.83005e-06 -2.24413e-06 0.107692)
(-2.04593e-06 5.65485e-06 0.107691)
(-3.13254e-05 -3.14283e-05 0.104249)
(-3.99544e-06 -3.91199e-06 0.112895)
(7.69486e-06 -3.15438e-06 0.107668)
(-3.44429e-06 7.81516e-06 0.107666)
(-2.95723e-05 -2.94985e-05 0.104239)
(-4.08244e-06 -4.03634e-06 0.112858)
(7.68595e-06 -2.72227e-06 0.107643)
(-2.6018e-06 7.68803e-06 0.107643)
(-3.0456e-05 -3.04351e-05 0.104226)
(-4.98082e-06 -5.04591e-06 0.112821)
(8.44957e-06 -3.78144e-06 0.10762)
(-3.73639e-06 8.35241e-06 0.107619)
(-2.90563e-05 -2.91439e-05 0.104213)
(-6.76905e-06 -6.72247e-06 0.112783)
(9.29171e-06 -4.35651e-06 0.107601)
(-4.47191e-06 9.39588e-06 0.1076)
(-2.85062e-05 -2.84306e-05 0.104208)
(-7.13273e-06 -7.11607e-06 0.112745)
(9.611e-06 -4.11431e-06 0.107583)
(-4.0401e-06 9.54732e-06 0.107582)
(-2.86538e-05 -2.86914e-05 0.104202)
(-7.63323e-06 -7.62744e-06 0.112707)
(9.80541e-06 -4.75351e-06 0.107565)
(-4.8464e-06 9.8812e-06 0.107564)
(-2.78055e-05 -2.77776e-05 0.104195)
(-8.93003e-06 -8.88629e-06 0.112669)
(1.09576e-05 -5.38153e-06 0.10755)
(-5.30209e-06 1.08654e-05 0.107549)
(-2.74896e-05 -2.75328e-05 0.104194)
(-8.89682e-06 -8.95047e-06 0.112631)
(1.02666e-05 -4.81257e-06 0.107536)
(-4.83571e-06 1.03801e-05 0.107535)
(-2.77987e-05 -2.77447e-05 0.10419)
(-1.03233e-05 -1.02751e-05 0.112594)
(1.16089e-05 -6.25968e-06 0.107524)
(-6.22372e-06 1.13897e-05 0.107523)
(-2.58741e-05 -2.59805e-05 0.104193)
(-1.01508e-05 -1.00461e-05 0.112554)
(1.15472e-05 -5.49347e-06 0.107512)
(-5.59615e-06 1.18267e-05 0.107511)
(-2.77426e-05 -2.74992e-05 0.104191)
(-1.02519e-05 -1.02871e-05 0.112518)
(1.08789e-05 -5.34304e-06 0.1075)
(-5.33043e-06 1.07985e-05 0.107499)
(-2.62147e-05 -2.63872e-05 0.10419)
(-1.17455e-05 -1.20066e-05 0.112482)
(1.22047e-05 -7.36913e-06 0.107492)
(-6.91821e-06 1.1886e-05 0.107491)
(-2.59807e-05 -2.61473e-05 0.104198)
(-4.33369e-05 -4.33169e-05 0.104836)
(9.21197e-06 1.50715e-05 0.108225)
(-9.21044e-06 1.50789e-05 0.108225)
(4.33098e-05 -4.33e-05 0.104837)
(1.50127e-05 9.16445e-06 0.108227)
(1.50745e-05 -9.23119e-06 0.108224)
(-1.50104e-05 9.15837e-06 0.108228)
(-1.50591e-05 -9.1507e-06 0.108225)
(-4.32737e-05 4.32831e-05 0.104836)
(9.17359e-06 -1.50164e-05 0.108227)
(-9.10831e-06 -1.50087e-05 0.108226)
(4.33924e-05 4.33991e-05 0.104836)
(4.60309e-05 4.60203e-05 0.104666)
(-4.37028e-05 -4.36765e-05 0.104782)
(8.80527e-06 1.44849e-05 0.108212)
(-8.75312e-06 1.44734e-05 0.108211)
(7.86445e-06 1.27396e-05 0.108172)
(-7.86314e-06 1.2756e-05 0.108171)
(-4.60266e-05 4.59933e-05 0.104666)
(4.36934e-05 -4.36698e-05 0.104783)
(1.44242e-05 8.75591e-06 0.108213)
(1.44663e-05 -8.74024e-06 0.108211)
(1.26732e-05 7.82705e-06 0.108173)
(1.27256e-05 -7.8276e-06 0.108171)
(-1.44834e-05 -8.78542e-06 0.108211)
(-1.26712e-05 7.83021e-06 0.108174)
(-1.26985e-05 -7.78977e-06 0.108171)
(4.59985e-05 -4.60498e-05 0.104666)
(-4.3685e-05 4.37047e-05 0.104782)
(-8.74273e-06 -1.44335e-05 0.108213)
(7.78939e-06 -1.26537e-05 0.108173)
(-7.75696e-06 -1.2641e-05 0.108173)
(4.37347e-05 4.37476e-05 0.104782)
(4.43297e-05 4.4329e-05 0.104616)
(-4.40412e-05 -4.40258e-05 0.104732)
(7.61481e-06 1.2188e-05 0.108159)
(-7.64865e-06 1.22009e-05 0.108158)
(6.62247e-06 1.05823e-05 0.108121)
(-6.75693e-06 1.06394e-05 0.10812)
(-4.43643e-05 4.43416e-05 0.104616)
(4.39469e-05 -4.39529e-05 0.104732)
(1.212e-05 7.57724e-06 0.108161)
(1.21707e-05 -7.63688e-06 0.108158)
(1.05176e-05 6.573e-06 0.108122)
(1.0648e-05 -6.79697e-06 0.108119)
(-1.21554e-05 -7.56862e-06 0.108158)
(-1.05737e-05 6.6862e-06 0.108123)
(-1.06218e-05 -6.72246e-06 0.10812)
(4.43449e-05 -4.43882e-05 0.104616)
(-4.3917e-05 4.39065e-05 0.104731)
(-7.53644e-06 -1.20953e-05 0.10816)
(6.72035e-06 -1.05955e-05 0.108122)
(-6.67622e-06 -1.05677e-05 0.108122)
(4.39199e-05 4.39225e-05 0.104731)
(4.25797e-05 4.25672e-05 0.104569)
(-4.42417e-05 -4.42095e-05 0.104686)
(6.29008e-06 1.00436e-05 0.108108)
(-6.40209e-06 1.01152e-05 0.108107)
(5.50707e-06 8.44246e-06 0.108071)
(-5.36609e-06 8.41615e-06 0.108071)
(-4.26662e-05 4.2619e-05 0.104569)
(4.43723e-05 -4.43506e-05 0.104686)
(9.98798e-06 6.24004e-06 0.10811)
(1.01157e-05 -6.40299e-06 0.108107)
(8.36596e-06 5.4796e-06 0.108073)
(8.38251e-06 -5.33023e-06 0.10807)
(-1.00714e-05 -6.32182e-06 0.108107)
(-8.33076e-06 5.33075e-06 0.108074)
(-8.43238e-06 -5.45631e-06 0.108071)
(4.26388e-05 -4.27086e-05 0.104569)
(-4.43733e-05 4.43921e-05 0.104685)
(-6.27619e-06 -1.00179e-05 0.108109)
(5.28902e-06 -8.30918e-06 0.108073)
(-5.43035e-06 -8.36461e-06 0.108072)
(4.42453e-05 4.42636e-05 0.104685)
(4.11324e-05 4.11395e-05 0.104526)
(-4.43345e-05 -4.43213e-05 0.104642)
(5.26168e-06 7.92486e-06 0.108059)
(-5.14504e-06 7.8966e-06 0.108059)
(4.59679e-06 6.49804e-06 0.108024)
(-4.63962e-06 6.52538e-06 0.108023)
(-4.10167e-05 4.10011e-05 0.104526)
(4.42854e-05 -4.42611e-05 0.104643)
(7.84982e-06 5.23294e-06 0.108061)
(7.87469e-06 -5.15184e-06 0.108058)
(6.43715e-06 4.5527e-06 0.108026)
(6.52548e-06 -4.64215e-06 0.108023)
(-7.91462e-06 -5.24175e-06 0.108059)
(-6.43522e-06 4.61207e-06 0.108026)
(-6.4824e-06 -4.55709e-06 0.108023)
(4.10112e-05 -4.1046e-05 0.104526)
(-4.42664e-05 4.42875e-05 0.104642)
(-5.21591e-06 -7.84395e-06 0.10806)
(4.61033e-06 -6.44451e-06 0.108026)
(-4.51577e-06 -6.42293e-06 0.108025)
(4.43519e-05 4.43558e-05 0.104641)
(3.98639e-05 3.98522e-05 0.104486)
(-4.45743e-05 -4.45438e-05 0.104601)
(4.40264e-06 6.05463e-06 0.108013)
(-4.43304e-06 6.08437e-06 0.108012)
(3.56393e-06 4.73251e-06 0.107979)
(-3.61231e-06 4.76274e-06 0.107978)
(-3.98944e-05 3.98749e-05 0.104486)
(4.45448e-05 -4.45368e-05 0.104602)
(5.99852e-06 4.35895e-06 0.108014)
(6.07994e-06 -4.40868e-06 0.108011)
(4.65819e-06 3.54073e-06 0.10798)
(4.72271e-06 -3.58256e-06 0.107977)
(-6.05304e-06 -4.37972e-06 0.108012)
(-4.68434e-06 3.56304e-06 0.107981)
(-4.73808e-06 -3.59438e-06 0.107978)
(3.98551e-05 -3.98946e-05 0.104486)
(-4.45482e-05 4.45525e-05 0.104601)
(-4.33972e-06 -5.99401e-06 0.108013)
(3.52738e-06 -4.65489e-06 0.10798)
(-3.57085e-06 -4.66265e-06 0.10798)
(4.45089e-05 4.45278e-05 0.104601)
(3.84102e-05 3.84156e-05 0.104448)
(-4.4728e-05 -4.47299e-05 0.104565)
(3.21976e-06 4.26614e-06 0.107968)
(-3.25378e-06 4.28245e-06 0.107967)
(2.53105e-06 2.83231e-06 0.107936)
(-2.4876e-06 2.82726e-06 0.107935)
(-3.84445e-05 3.84127e-05 0.104448)
(4.47757e-05 -4.47882e-05 0.104565)
(4.19329e-06 3.19127e-06 0.107969)
(4.25376e-06 -3.25942e-06 0.107966)
(2.78519e-06 2.47298e-06 0.107938)
(2.8633e-06 -2.54023e-06 0.107935)
(-4.27237e-06 -3.24706e-06 0.107967)
(-2.77317e-06 2.43351e-06 0.107938)
(-2.86203e-06 -2.52737e-06 0.107935)
(3.84202e-05 -3.84714e-05 0.104448)
(-4.47348e-05 4.47383e-05 0.104564)
(-3.21977e-06 -4.19577e-06 0.107969)
(2.4826e-06 -2.80291e-06 0.107937)
(-2.47266e-06 -2.80104e-06 0.107937)
(4.47292e-05 4.47232e-05 0.104564)
(3.72969e-05 3.7274e-05 0.104415)
(-4.46848e-05 -4.4657e-05 0.104531)
(2.42325e-06 2.42516e-06 0.107926)
(-2.42515e-06 2.4372e-06 0.107925)
(1.91818e-06 1.42947e-06 0.107895)
(-1.99605e-06 1.47147e-06 0.107895)
(-3.72741e-05 3.72282e-05 0.104415)
(4.46314e-05 -4.46118e-05 0.104531)
(2.37793e-06 2.3675e-06 0.107927)
(2.4602e-06 -2.43704e-06 0.107924)
(1.36465e-06 1.89833e-06 0.107897)
(1.4408e-06 -1.95356e-06 0.107894)
(-2.43768e-06 -2.40418e-06 0.107925)
(-1.39375e-06 1.96349e-06 0.107898)
(-1.44899e-06 -1.93472e-06 0.107895)
(3.72622e-05 -3.73088e-05 0.104415)
(-4.46349e-05 4.46506e-05 0.10453)
(-2.35351e-06 -2.37612e-06 0.107927)
(1.91363e-06 -1.37018e-06 0.107897)
(-1.91549e-06 -1.37007e-06 0.107896)
(4.46231e-05 4.46454e-05 0.10453)
(3.62201e-05 3.62271e-05 0.104384)
(-4.48646e-05 -4.48434e-05 0.104499)
(1.61243e-06 1.04184e-06 0.107886)
(-1.66122e-06 1.08334e-06 0.107885)
(1.00844e-06 -2.70393e-07 0.107857)
(-8.50766e-07 -3.02875e-07 0.107856)
(-3.62605e-05 3.62435e-05 0.104383)
(4.50001e-05 -4.49733e-05 0.1045)
(9.74304e-07 1.59644e-06 0.107887)
(1.05123e-06 -1.63136e-06 0.107884)
(-3.33646e-07 9.80111e-07 0.107858)
(-3.02882e-07 -8.75811e-07 0.107855)
(-1.07175e-06 -1.62853e-06 0.107885)
(3.81434e-07 8.30736e-07 0.107859)
(2.78425e-07 -9.45853e-07 0.107856)
(3.62308e-05 -3.62698e-05 0.104383)
(-4.49402e-05 4.49709e-05 0.104499)
(-1.61328e-06 -9.89215e-07 0.107886)
(8.51897e-07 3.77068e-07 0.107858)
(-9.17154e-07 3.55296e-07 0.107858)
(4.48909e-05 4.49044e-05 0.104499)
(3.5194e-05 3.51923e-05 0.104355)
(-4.49983e-05 -4.49838e-05 0.104471)
(9.23501e-07 -6.16673e-07 0.107848)
(-7.60011e-07 -6.85032e-07 0.107847)
(2.2031e-07 -1.59138e-06 0.107821)
(-4.48471e-07 -1.5042e-06 0.10782)
(-3.5068e-05 3.50642e-05 0.104355)
(4.47952e-05 -4.47846e-05 0.104472)
(-6.79815e-07 8.87466e-07 0.107849)
(-6.69737e-07 -7.98812e-07 0.107846)
(-1.64199e-06 1.94032e-07 0.107822)
(-1.53148e-06 -3.84904e-07 0.107819)
(6.36462e-07 -8.86921e-07 0.107847)
(1.57579e-06 4.0934e-07 0.107823)
(1.56879e-06 -2.45318e-07 0.10782)
(3.51028e-05 -3.5119e-05 0.104355)
(-4.48473e-05 4.4855e-05 0.104471)
(-8.53155e-07 7.1076e-07 0.107848)
(3.37858e-07 1.59603e-06 0.107822)
(-2.23129e-07 1.63929e-06 0.107821)
(4.49445e-05 4.49626e-05 0.10447)
(3.4039e-05 3.40372e-05 0.10433)
(-4.47396e-05 -4.47181e-05 0.104445)
(-6.23644e-08 -1.98292e-06 0.107812)
(-1.93432e-07 -1.86099e-06 0.107811)
(-2.13757e-07 -3.06842e-06 0.107786)
(3.62102e-07 -3.0882e-06 0.107785)
(-3.42579e-05 3.42307e-05 0.104329)
(4.49262e-05 -4.49135e-05 0.104446)
(-2.04223e-06 -7.77964e-08 0.107813)
(-1.91331e-06 -1.02983e-07 0.107811)
(-3.1393e-06 -2.35039e-07 0.107788)
(-3.10361e-06 3.0313e-07 0.107785)
(1.95679e-06 4.8517e-08 0.107811)
(3.1483e-06 -4.05515e-07 0.107789)
(3.06202e-06 2.16884e-07 0.107786)
(3.41491e-05 -3.42005e-05 0.104329)
(-4.48274e-05 4.48333e-05 0.104445)
(5.99135e-08 2.03147e-06 0.107813)
(-3.52874e-07 3.15804e-06 0.107788)
(2.42107e-07 3.13233e-06 0.107787)
(4.47148e-05 4.47243e-05 0.104445)
(3.36042e-05 3.35969e-05 0.104306)
(-4.50764e-05 -4.51055e-05 0.104422)
(-1.74217e-07 -3.25855e-06 0.107778)
(3.96579e-07 -3.33235e-06 0.107777)
(-1.00081e-06 -3.82122e-06 0.107754)
(9.32133e-07 -3.80196e-06 0.107754)
(-3.34152e-05 3.34002e-05 0.104306)
(4.49778e-05 -4.4965e-05 0.104423)
(-3.31912e-06 -2.19004e-07 0.10778)
(-3.30903e-06 2.87712e-07 0.107777)
(-3.82816e-06 -1.07442e-06 0.107756)
(-3.73815e-06 9.10558e-07 0.107753)
(3.2712e-06 1.81636e-07 0.107777)
(3.86527e-06 -9.71959e-07 0.107757)
(3.77889e-06 9.78291e-07 0.107754)
(3.35037e-05 -3.35335e-05 0.104306)
(-4.49815e-05 4.49811e-05 0.104422)
(2.26141e-07 3.3319e-06 0.107779)
(-9.57467e-07 3.79688e-06 0.107756)
(1.03969e-06 3.81595e-06 0.107755)
(4.50612e-05 4.50489e-05 0.104421)
(3.2167e-05 3.21348e-05 0.104286)
(-4.50066e-05 -4.48897e-05 0.104403)
(-1.60484e-06 -4.3096e-06 0.107747)
(1.3889e-06 -4.22857e-06 0.107746)
(-1.71146e-06 -5.56773e-06 0.107725)
(1.58933e-06 -5.50029e-06 0.107724)
(-3.23206e-05 3.22985e-05 0.104286)
(4.49758e-05 -4.49331e-05 0.104403)
(-4.33382e-06 -1.64166e-06 0.107749)
(-4.21992e-06 1.48338e-06 0.107746)
(-5.70909e-06 -1.62274e-06 0.107726)
(-5.64835e-06 1.76333e-06 0.107723)
(4.26346e-06 1.59451e-06 0.107746)
(5.57773e-06 -1.5856e-06 0.107727)
(5.63113e-06 1.78646e-06 0.107724)
(3.22402e-05 -3.22913e-05 0.104285)
(-4.50408e-05 4.50888e-05 0.104402)
(1.62218e-06 4.31358e-06 0.107748)
(-1.7698e-06 5.73057e-06 0.107726)
(1.71366e-06 5.74228e-06 0.107726)
(4.49682e-05 4.50518e-05 0.104402)
(3.20114e-05 3.20968e-05 0.104268)
(-4.4404e-05 -4.45146e-05 0.104382)
(-1.28503e-06 -5.61845e-06 0.107718)
(1.33551e-06 -5.61832e-06 0.107717)
(-1.29344e-06 -5.43286e-06 0.107696)
(1.61394e-06 -5.51741e-06 0.107696)
(-3.19795e-05 3.19825e-05 0.104268)
(4.46536e-05 -4.46501e-05 0.104383)
(-5.7534e-06 -1.22535e-06 0.107719)
(-5.70273e-06 1.35333e-06 0.107716)
(-5.40143e-06 -1.45017e-06 0.107698)
(-5.38544e-06 1.34598e-06 0.107695)
(5.6845e-06 1.31226e-06 0.107717)
(5.57804e-06 -1.66988e-06 0.107699)
(5.38654e-06 1.22692e-06 0.107696)
(3.19725e-05 -3.19546e-05 0.104268)
(-4.4448e-05 4.44236e-05 0.104381)
(1.26581e-06 5.78915e-06 0.107718)
(-1.40228e-06 5.4227e-06 0.107698)
(1.37121e-06 5.37473e-06 0.107697)
(4.44365e-05 4.43447e-05 0.104381)
(3.13899e-05 3.12565e-05 0.104249)
(-4.58943e-05 -4.5831e-05 0.104369)
(-1.93647e-06 -5.7117e-06 0.10769)
(2.17615e-06 -5.78757e-06 0.107689)
(-3.61612e-06 -7.34844e-06 0.107671)
(3.32447e-06 -7.30063e-06 0.107671)
(-3.11817e-05 3.11477e-05 0.10425)
(4.56683e-05 -4.56511e-05 0.10437)
(-5.65466e-06 -2.11211e-06 0.107691)
(-5.63911e-06 1.97569e-06 0.107688)
(-7.41313e-06 -3.59214e-06 0.107673)
(-7.36635e-06 3.53602e-06 0.10767)
(5.65945e-06 1.90307e-06 0.107689)
(7.35631e-06 -3.35578e-06 0.107674)
(7.37869e-06 3.66987e-06 0.10767)
(3.13127e-05 -3.13961e-05 0.104249)
(-4.58333e-05 4.58365e-05 0.104369)
(2.06712e-06 5.62692e-06 0.10769)
(-3.5669e-06 7.39411e-06 0.107672)
(3.65095e-06 7.43337e-06 0.107672)
(4.58698e-05 4.5928e-05 0.104368)
(2.95179e-05 2.95952e-05 0.104239)
(-4.43651e-05 -4.43179e-05 0.104356)
(-3.59457e-06 -7.74457e-06 0.107665)
(3.13743e-06 -7.62856e-06 0.107665)
(-2.53272e-06 -7.71689e-06 0.107648)
(2.48122e-06 -7.65044e-06 0.107647)
(-2.98081e-05 2.98077e-05 0.104239)
(4.44334e-05 -4.44405e-05 0.104355)
(-7.86704e-06 -3.49871e-06 0.107667)
(-7.76498e-06 3.4231e-06 0.107664)
(-7.81152e-06 -2.4847e-06 0.107649)
(-7.69307e-06 2.47857e-06 0.107646)
(7.78392e-06 3.6208e-06 0.107665)
(7.68399e-06 -2.51875e-06 0.107649)
(7.69281e-06 2.49811e-06 0.107647)
(2.95936e-05 -2.96302e-05 0.104239)
(-4.43456e-05 4.43706e-05 0.104355)
(3.53564e-06 7.87962e-06 0.107666)
(-2.5123e-06 7.75979e-06 0.107649)
(2.44066e-06 7.79778e-06 0.107649)
(4.42644e-05 4.43236e-05 0.104355)
(3.04124e-05 3.04074e-05 0.104227)
(-4.49115e-05 -4.49751e-05 0.10434)
(-2.47467e-06 -7.64719e-06 0.107642)
(2.67673e-06 -7.65308e-06 0.10764)
(-3.26314e-06 -8.02556e-06 0.107623)
(3.60676e-06 -8.14837e-06 0.107623)
(-3.02444e-05 3.02108e-05 0.104226)
(4.50983e-05 -4.5057e-05 0.104341)
(-7.68859e-06 -2.50222e-06 0.107643)
(-7.6433e-06 2.56391e-06 0.10764)
(-8.0157e-06 -3.39558e-06 0.107625)
(-8.04882e-06 3.42887e-06 0.107622)
(7.61469e-06 2.45391e-06 0.107641)
(8.21346e-06 -3.60773e-06 0.107626)
(8.04885e-06 3.29263e-06 0.107623)
(3.03417e-05 -3.03765e-05 0.104226)
(-4.49792e-05 4.49894e-05 0.104339)
(2.46858e-06 7.67866e-06 0.107642)
(-3.45371e-06 8.08571e-06 0.107625)
(3.44807e-06 8.00783e-06 0.107624)
(4.50213e-05 4.49248e-05 0.104339)
(2.91737e-05 2.91087e-05 0.104213)
(-4.52324e-05 -4.51959e-05 0.104332)
(-3.63855e-06 -8.2987e-06 0.107618)
(3.79616e-06 -8.37345e-06 0.107617)
(-4.4551e-06 -9.12205e-06 0.107603)
(4.19661e-06 -9.03373e-06 0.107603)
(-2.90828e-05 2.90967e-05 0.104214)
(4.50746e-05 -4.50747e-05 0.104333)
(-8.30668e-06 -3.74148e-06 0.107619)
(-8.3081e-06 3.72472e-06 0.107617)
(-9.17311e-06 -4.42656e-06 0.107605)
(-9.10981e-06 4.39155e-06 0.107602)
(8.35088e-06 3.70048e-06 0.107617)
(9.07497e-06 -4.21653e-06 0.107606)
(9.14551e-06 4.47481e-06 0.107603)
(2.91254e-05 -2.91541e-05 0.104213)
(-4.51951e-05 4.52276e-05 0.104332)
(3.8291e-06 8.31775e-06 0.107619)
(-4.39809e-06 9.17835e-06 0.107605)
(4.42601e-06 9.22007e-06 0.107604)
(4.51665e-05 4.52418e-05 0.104332)
(2.84034e-05 2.84237e-05 0.104208)
(-4.45661e-05 -4.45506e-05 0.104326)
(-4.53341e-06 -9.35015e-06 0.107599)
(4.29972e-06 -9.2747e-06 0.107598)
(-4.12736e-06 -9.59754e-06 0.107586)
(4.12084e-06 -9.62457e-06 0.107585)
(-2.85422e-05 2.84963e-05 0.104208)
(4.45736e-05 -4.46089e-05 0.104326)
(-9.39992e-06 -4.49306e-06 0.107601)
(-9.34438e-06 4.44253e-06 0.107598)
(-9.64739e-06 -4.14767e-06 0.107587)
(-9.58728e-06 4.01104e-06 0.107584)
(9.32455e-06 4.47697e-06 0.107598)
(9.61914e-06 -4.20274e-06 0.107588)
(9.55032e-06 4.03813e-06 0.107585)
(2.84125e-05 -2.84361e-05 0.104208)
(-4.45058e-05 4.44674e-05 0.104325)
(4.40799e-06 9.4196e-06 0.1076)
(-4.1135e-06 9.57905e-06 0.107587)
(4.07656e-06 9.56935e-06 0.107586)
(4.45192e-05 4.44973e-05 0.104325)
(2.86519e-05 2.86464e-05 0.104202)
(-4.46801e-05 -4.46973e-05 0.104317)
(-4.0376e-06 -9.57573e-06 0.107581)
(4.05935e-06 -9.60362e-06 0.10758)
(-4.44346e-06 -9.61118e-06 0.107568)
(4.44241e-06 -9.57214e-06 0.107567)
(-2.86433e-05 2.85868e-05 0.104202)
(4.46748e-05 -4.46272e-05 0.104317)
(-9.62348e-06 -4.0799e-06 0.107583)
(-9.54911e-06 3.95435e-06 0.10758)
(-9.62848e-06 -4.47941e-06 0.107569)
(-9.5836e-06 4.5318e-06 0.107566)
(9.55508e-06 3.99391e-06 0.10758)
(9.63024e-06 -4.42111e-06 0.10757)
(9.64285e-06 4.57455e-06 0.107567)
(2.86711e-05 -2.87449e-05 0.104202)
(-4.46969e-05 4.47664e-05 0.104316)
(4.06328e-06 9.55318e-06 0.107582)
(-4.48958e-06 9.66727e-06 0.107569)
(4.58749e-06 9.69063e-06 0.107568)
(4.47586e-05 4.47851e-05 0.104316)
(2.78995e-05 2.78697e-05 0.104196)
(-4.50505e-05 -4.50045e-05 0.104314)
(-4.79103e-06 -9.80331e-06 0.107563)
(4.7888e-06 -9.75554e-06 0.107562)
(-5.35956e-06 -1.06264e-05 0.107552)
(5.54007e-06 -1.06769e-05 0.107551)
(-2.79023e-05 2.79231e-05 0.104195)
(4.52385e-05 -4.51679e-05 0.104314)
(-9.81418e-06 -4.80857e-06 0.107565)
(-9.78866e-06 4.89489e-06 0.107562)
(-1.07056e-05 -5.34686e-06 0.107553)
(-1.07309e-05 5.43697e-06 0.10755)
(9.85608e-06 4.96413e-06 0.107563)
(1.07859e-05 -5.52362e-06 0.107554)
(1.07082e-05 5.28828e-06 0.107551)
(2.785e-05 -2.78283e-05 0.104195)
(-4.51242e-05 4.50812e-05 0.104314)
(4.95964e-06 9.92114e-06 0.107564)
(-5.47249e-06 1.07048e-05 0.107553)
(5.33815e-06 1.06931e-05 0.107553)
(4.49532e-05 4.49175e-05 0.104313)
(2.73451e-05 2.73736e-05 0.104194)
(-4.40229e-05 -4.41034e-05 0.104309)
(-5.18122e-06 -1.07827e-05 0.107548)
(5.3619e-06 -1.08699e-05 0.107547)
(-4.68253e-06 -1.05179e-05 0.107537)
(4.5603e-06 -1.05626e-05 0.107537)
(-2.71499e-05 2.71777e-05 0.104194)
(4.39041e-05 -4.40506e-05 0.10431)
(-1.08714e-05 -5.18922e-06 0.107549)
(-1.0877e-05 5.23535e-06 0.107547)
(-1.04784e-05 -4.77334e-06 0.107539)
(-1.04767e-05 4.68139e-06 0.107536)
(1.08242e-05 4.99212e-06 0.107547)
(1.04652e-05 -4.72988e-06 0.10754)
(1.03243e-05 4.59079e-06 0.107536)
(2.72432e-05 -2.73321e-05 0.104194)
(-4.40242e-05 4.40822e-05 0.104309)
(5.05154e-06 1.08123e-05 0.107549)
(-4.73477e-06 1.05766e-05 0.107539)
(4.56899e-06 1.04185e-05 0.107538)
(4.39437e-05 4.40122e-05 0.104308)
(2.7806e-05 2.77089e-05 0.104191)
(-4.53401e-05 -4.52994e-05 0.10431)
(-4.91929e-06 -1.03905e-05 0.107534)
(4.67967e-06 -1.03641e-05 0.107533)
(-6.34584e-06 -1.10938e-05 0.107525)
(6.0799e-06 -1.0865e-05 0.107524)
(-2.79524e-05 2.78048e-05 0.104191)
(4.52193e-05 -4.50321e-05 0.104309)
(-1.0331e-05 -4.99959e-06 0.107535)
(-1.03029e-05 4.79837e-06 0.107533)
(-1.11395e-05 -6.33046e-06 0.107527)
(-1.09499e-05 5.94782e-06 0.107523)
(1.02372e-05 5.00731e-06 0.107533)
(1.10292e-05 -5.93751e-06 0.107527)
(1.13412e-05 6.598e-06 0.107525)
(2.78089e-05 -2.78176e-05 0.104191)
(-4.50568e-05 4.50087e-05 0.104308)
(4.98886e-06 1.03303e-05 0.107535)
(-5.9309e-06 1.08766e-05 0.107526)
(6.70533e-06 1.12488e-05 0.107526)
(4.55792e-05 4.5472e-05 0.104309)
(2.60393e-05 2.60788e-05 0.104193)
(-4.38531e-05 -4.37743e-05 0.104308)
(-6.50993e-06 -1.15889e-05 0.107522)
(6.41163e-06 -1.13943e-05 0.107521)
(-5.16897e-06 -1.17257e-05 0.107513)
(5.66762e-06 -1.19865e-05 0.107512)
(-2.61181e-05 2.62888e-05 0.104192)
(4.41912e-05 -4.4327e-05 0.104309)
(-1.16685e-05 -6.4823e-06 0.107524)
(-1.14686e-05 6.24822e-06 0.10752)
(-1.18268e-05 -5.124e-06 0.107514)
(-1.19196e-05 5.85637e-06 0.107511)
(1.18346e-05 6.57818e-06 0.107522)
(1.1925e-05 -5.78185e-06 0.107515)
(1.15207e-05 4.91222e-06 0.107512)
(2.62748e-05 -2.63644e-05 0.104192)
(-4.43285e-05 4.4499e-05 0.104309)
(6.68458e-06 1.17251e-05 0.107523)
(-5.86054e-06 1.2118e-05 0.107514)
(4.75514e-06 1.17376e-05 0.107514)
(4.34791e-05 4.37123e-05 0.104308)
(2.74422e-05 2.74934e-05 0.104192)
(-4.4092e-05 -4.41016e-05 0.104304)
(-4.86407e-06 -1.13339e-05 0.107509)
(5.32637e-06 -1.16587e-05 0.107509)
(-5.51912e-06 -1.07651e-05 0.1075)
(5.16623e-06 -1.07205e-05 0.1075)
(-2.71555e-05 2.69764e-05 0.104192)
(4.37769e-05 -4.36789e-05 0.104305)
(-1.14148e-05 -4.81306e-06 0.107511)
(-1.16206e-05 5.58903e-06 0.107508)
(-1.07887e-05 -5.5256e-06 0.107501)
(-1.0893e-05 5.24422e-06 0.107499)
(1.10911e-05 4.74756e-06 0.107509)
(1.07956e-05 -5.12478e-06 0.107502)
(1.09773e-05 5.83907e-06 0.107499)
(2.69687e-05 -2.685e-05 0.104192)
(-4.38587e-05 4.37832e-05 0.104305)
(4.53778e-06 1.13656e-05 0.10751)
(-5.26485e-06 1.08587e-05 0.107502)
(5.90735e-06 1.09502e-05 0.1075)
(4.44921e-05 4.43854e-05 0.104304)
(2.65912e-05 2.65405e-05 0.10419)
(-4.49368e-05 -4.5181e-05 0.104312)
(-6.10316e-06 -1.10355e-05 0.107498)
(5.42357e-06 -1.07721e-05 0.107497)
(-7.07465e-06 -1.22229e-05 0.107493)
(6.82756e-06 -1.18854e-05 0.107491)
(-2.70676e-05 2.71457e-05 0.10419)
(4.49071e-05 -4.50709e-05 0.104311)
(-1.1027e-05 -6.18196e-06 0.107499)
(-1.08772e-05 5.27675e-06 0.107496)
(-1.20593e-05 -7.37588e-06 0.107494)
(-1.16405e-05 6.31689e-06 0.10749)
(1.12776e-05 6.24354e-06 0.107497)
(1.18046e-05 -7.04758e-06 0.107494)
(1.19536e-05 6.5719e-06 0.107492)
(2.70384e-05 -2.71755e-05 0.10419)
(-4.46709e-05 4.44897e-05 0.104309)
(6.44779e-06 1.11338e-05 0.107498)
(-6.54524e-06 1.14665e-05 0.107492)
(6.88746e-06 1.17525e-05 0.107493)
(4.46915e-05 4.44735e-05 0.104311)
(2.57728e-05 2.552e-05 0.104199)
(-6.74775e-06 -1.24564e-05 0.107491)
(7.09365e-06 -1.23792e-05 0.10749)
(-2.55704e-05 2.53609e-05 0.104198)
(-1.22519e-05 -7.05001e-06 0.107493)
(-1.20447e-05 6.72248e-06 0.107488)
(1.20746e-05 6.41828e-06 0.10749)
(2.57489e-05 -2.59432e-05 0.104196)
(6.6495e-06 1.19405e-05 0.107492)
(-5.61928e-07 -8.70455e-06 0.091005)
(-1.83522e-06 -7.6029e-06 0.0816097)
(6.03528e-07 -3.88496e-06 0.070914)
(-8.72562e-06 -5.47644e-07 0.0910043)
(-7.61271e-06 -1.80751e-06 0.0816099)
(2.24884e-05 2.24997e-05 0.113165)
(-2.24895e-05 2.2499e-05 0.113165)
(2.25027e-05 -2.24933e-05 0.113164)
(-2.24894e-05 -2.2474e-05 0.113164)
(1.01217e-05 -3.56932e-07 0.0985701)
(-1.617e-05 9.80098e-06 0.108255)
(7.82967e-06 -4.08931e-06 0.092659)
(-2.4366e-05 3.354e-06 0.11082)
(-3.79766e-06 5.91727e-07 0.0709154)
(-3.54224e-07 1.01255e-05 0.09857)
(9.81943e-06 -1.61671e-05 0.108254)
(3.35781e-06 -2.43458e-05 0.110819)
(-4.11919e-06 7.91419e-06 0.0926586)
(4.31143e-05 4.31249e-05 0.104864)
(4.29516e-06 3.29767e-06 0.087019)
(3.31611e-06 4.29154e-06 0.087017)
(-5.59962e-07 -9.01423e-06 0.09099)
(1.63666e-07 6.14965e-06 0.0815714)
(-5.75107e-07 5.29194e-06 0.0909581)
(-1.66127e-06 -7.68324e-06 0.081615)
(-3.43906e-06 2.19186e-06 0.0708816)
(5.94487e-07 -3.97307e-06 0.0709264)
(-9.03152e-06 -5.28155e-07 0.0909893)
(6.1212e-06 1.67662e-07 0.0815711)
(5.33321e-06 -5.50244e-07 0.0909584)
(-7.69794e-06 -1.62794e-06 0.0816152)
(-2.19377e-05 2.19492e-05 0.113168)
(2.19464e-05 -2.19334e-05 0.113167)
(-2.19637e-05 -2.19489e-05 0.113167)
(2.03573e-05 2.03687e-05 0.113175)
(-2.03406e-05 2.03639e-05 0.113175)
(2.03405e-05 -2.03163e-05 0.113174)
(-2.03389e-05 -2.03222e-05 0.113174)
(1.09956e-05 -3.44165e-07 0.098532)
(-1.32228e-05 2.75177e-06 0.0925941)
(-2.22658e-05 2.9562e-06 0.110787)
(-1.38018e-05 8.30921e-06 0.108201)
(-1.52091e-05 -2.99116e-07 0.0984815)
(8.32907e-06 -4.15211e-06 0.0926459)
(-2.15801e-05 2.79868e-06 0.110776)
(2.0977e-06 -3.37682e-06 0.0708791)
(-3.88686e-06 5.51306e-07 0.0709278)
(-3.45394e-07 1.09858e-05 0.098532)
(2.96446e-06 -2.22431e-05 0.110786)
(2.76842e-06 -1.33116e-05 0.0925948)
(8.26633e-06 -1.38005e-05 0.1082)
(-2.80522e-07 -1.52183e-05 0.0984809)
(2.79408e-06 -2.15702e-05 0.110775)
(-4.17894e-06 8.31415e-06 0.0926454)
(-3.27675e-06 -4.60568e-06 0.0869803)
(-4.58019e-06 -3.28011e-06 0.0869789)
(4.36189e-05 4.36258e-05 0.104808)
(4.6085e-06 3.37116e-06 0.0870185)
(3.3886e-06 4.60435e-06 0.0870165)
(-5.32419e-07 -9.35907e-06 0.0909791)
(3.09807e-07 5.94709e-06 0.0815788)
(-5.40281e-07 4.88539e-06 0.0909461)
(-1.59351e-06 -7.83712e-06 0.0816231)
(-3.34791e-06 2.25313e-06 0.0708954)
(6.80247e-07 -4.02845e-06 0.070941)
(-9.38456e-06 -5.17491e-07 0.0909785)
(5.92223e-06 3.14247e-07 0.0815784)
(4.93636e-06 -5.06391e-07 0.0909464)
(-7.84629e-06 -1.56827e-06 0.0816234)
(-1.98521e-05 1.98703e-05 0.113177)
(1.98519e-05 -1.98312e-05 0.113176)
(-1.98304e-05 -1.9813e-05 0.113176)
(1.8258e-05 1.82617e-05 0.113179)
(-1.83294e-05 1.8322e-05 0.113179)
(1.83378e-05 -1.83438e-05 0.113178)
(-1.83241e-05 -1.83164e-05 0.113178)
(1.19715e-05 -3.30915e-07 0.0984987)
(-1.20744e-05 2.63355e-06 0.0925845)
(-1.9509e-05 2.5137e-06 0.110743)
(-1.15858e-05 7.33699e-06 0.108148)
(-1.40378e-05 -3.12911e-07 0.0984473)
(9.25618e-06 -4.19857e-06 0.0926371)
(-1.88439e-05 2.41028e-06 0.110731)
(2.19269e-06 -3.26784e-06 0.0708927)
(-3.95483e-06 6.6905e-07 0.0709424)
(-3.20663e-07 1.19854e-05 0.0984986)
(2.5058e-06 -1.9475e-05 0.110742)
(2.63167e-06 -1.20842e-05 0.0925851)
(7.35354e-06 -1.15787e-05 0.108147)
(-3.27457e-07 -1.40425e-05 0.0984467)
(2.41837e-06 -1.88209e-05 0.11073)
(-4.23738e-06 9.33456e-06 0.0926367)
(-2.66193e-06 -4.35385e-06 0.0869826)
(-4.33006e-06 -2.66374e-06 0.0869812)
(4.37079e-05 4.37187e-05 0.104756)
(4.99354e-06 3.46078e-06 0.0870215)
(3.48583e-06 4.9872e-06 0.0870196)
(-5.13435e-07 -9.49276e-06 0.0909718)
(4.19014e-07 5.75929e-06 0.0815892)
(-5.59483e-07 4.49276e-06 0.090938)
(-1.42436e-06 -7.85605e-06 0.081634)
(-3.43491e-06 2.08926e-06 0.070912)
(6.05446e-07 -3.94594e-06 0.0709569)
(-9.50474e-06 -4.79494e-07 0.0909711)
(5.72854e-06 4.22566e-07 0.0815888)
(4.53779e-06 -5.34032e-07 0.0909383)
(-7.86497e-06 -1.38368e-06 0.0816342)
(-1.77887e-05 1.77795e-05 0.113179)
(1.77885e-05 -1.77964e-05 0.113178)
(-1.77663e-05 -1.77591e-05 0.113178)
(1.60911e-05 1.61034e-05 0.113177)
(-1.60474e-05 1.60554e-05 0.113177)
(1.60269e-05 -1.60176e-05 0.113176)
(-1.60863e-05 -1.60711e-05 0.113176)
(1.25998e-05 -3.63988e-07 0.0984698)
(-1.15819e-05 2.62487e-06 0.0925783)
(-1.69933e-05 2.04832e-06 0.110697)
(-9.48637e-06 5.96657e-06 0.108098)
(-1.30398e-05 -3.08295e-07 0.098418)
(9.60354e-06 -4.10434e-06 0.0926313)
(-1.63574e-05 1.90853e-06 0.110686)
(2.00508e-06 -3.3795e-06 0.0709096)
(-3.85805e-06 5.56692e-07 0.0709582)
(-3.72999e-07 1.25823e-05 0.0984698)
(2.06995e-06 -1.6979e-05 0.110696)
(2.64876e-06 -1.16653e-05 0.0925789)
(5.91743e-06 -9.48274e-06 0.108097)
(-2.85178e-07 -1.305e-05 0.0984174)
(1.9075e-06 -1.63503e-05 0.110684)
(-4.12612e-06 9.57664e-06 0.0926308)
(-2.71523e-06 -4.39844e-06 0.0869875)
(-4.37011e-06 -2.72088e-06 0.0869861)
(4.42365e-05 4.42438e-05 0.104708)
(5.09126e-06 3.42087e-06 0.087027)
(3.43914e-06 5.08669e-06 0.0870251)
(-4.85803e-07 -9.86906e-06 0.0909679)
(4.18734e-07 5.60399e-06 0.0816017)
(-4.80501e-07 4.15038e-06 0.0909332)
(-1.49248e-06 -8.0051e-06 0.0816471)
(-3.18749e-06 2.17023e-06 0.070928)
(9.31959e-07 -3.96263e-06 0.0709743)
(-9.9017e-06 -4.71169e-07 0.0909673)
(5.57758e-06 4.25625e-07 0.0816012)
(4.1969e-06 -4.46917e-07 0.0909336)
(-8.01132e-06 -1.46382e-06 0.0816474)
(-1.54975e-05 1.55139e-05 0.113176)
(1.54961e-05 -1.5477e-05 0.113175)
(-1.55608e-05 -1.55428e-05 0.113175)
(1.40721e-05 1.40762e-05 0.113169)
(-1.40598e-05 1.4085e-05 0.113169)
(1.40889e-05 -1.40601e-05 0.113168)
(-1.40475e-05 -1.40398e-05 0.113168)
(1.35792e-05 -3.63848e-07 0.0984453)
(-1.06494e-05 2.46851e-06 0.0925758)
(-1.4369e-05 1.52974e-06 0.110651)
(-7.32487e-06 4.9581e-06 0.10805)
(-1.20169e-05 -3.72444e-07 0.0983927)
(1.0633e-05 -4.36644e-06 0.0926294)
(-1.37395e-05 1.47619e-06 0.110639)
(2.10696e-06 -3.1128e-06 0.0709253)
(-3.90062e-06 9.18327e-07 0.0709757)
(-3.499e-07 1.35918e-05 0.0984453)
(1.52325e-06 -1.43344e-05 0.110649)