/*--------------------------------*- C++ -*----------------------------------*\
| =========                 |                                                 |
| \\      /  F ield         | OpenFOAM: The Open Source CFD Toolbox           |
|  \\    /   O peration     | Version:  v1906                                 |
|   \\  /    A nd           | Web:      www.OpenFOAM.com                      |
|    \\/     M anipulation  |                                                 |
\*---------------------------------------------------------------------------*/
FoamFile
{
    version     2.0;
    format      ascii;
    class       volScalarField;
    location    "400";
    object      k;
}
// * * * * * * * * * * * * * * * * * * * * * * * * * * * * * * * * * * * * * //

dimensions      [0 2 -2 0 0 0 0];


internalField   nonuniform List<scalar> 
43248
(
4.17789e-05
3.64597e-05
3.64588e-05
4.17552e-05
3.64575e-05
3.64613e-05
3.64571e-05
3.64646e-05
4.17625e-05
3.64598e-05
3.6462e-05
4.17687e-05
2.08504e-05
2.08496e-05
2.08532e-05
2.08549e-05
6.95317e-05
6.95343e-05
6.6895e-05
6.69049e-05
6.46102e-05
7.13527e-05
6.47093e-05
6.46123e-05
7.13592e-05
7.13226e-05
6.47118e-05
5.30916e-05
6.01868e-05
2.88288e-05
2.85838e-05
5.32926e-05
5.30928e-05
3.62271e-05
6.01917e-05
2.88299e-05
6.00685e-05
2.85851e-05
5.32949e-05
6.95338e-05
6.95078e-05
4.1576e-05
6.69053e-05
6.6889e-05
6.68408e-05
6.68294e-05
6.95295e-05
6.95035e-05
7.13589e-05
6.47126e-05
6.0192e-05
2.88337e-05
5.32948e-05
7.13552e-05
6.47102e-05
2.88346e-05
6.01854e-05
5.32939e-05
5.30971e-05
3.62252e-05
6.01854e-05
2.88307e-05
6.00674e-05
2.85861e-05
5.32975e-05
6.46142e-05
7.13562e-05
7.13225e-05
6.47135e-05
5.3095e-05
3.62328e-05
2.88347e-05
6.01887e-05
2.859e-05
6.00669e-05
5.32974e-05
6.46131e-05
7.13549e-05
7.13211e-05
6.47117e-05
6.95328e-05
6.68968e-05
6.68944e-05
6.95322e-05
5.30979e-05
2.88352e-05
6.01889e-05
2.85902e-05
5.32976e-05
5.30977e-05
3.62303e-05
2.88365e-05
6.01937e-05
2.85918e-05
6.00709e-05
5.32988e-05
6.46159e-05
7.13547e-05
6.47124e-05
6.46156e-05
7.13605e-05
7.13241e-05
6.4715e-05
4.15837e-05
6.68942e-05
6.69073e-05
6.68338e-05
6.68436e-05
6.95326e-05
6.95067e-05
6.95353e-05
6.95093e-05
6.95192e-05
6.95219e-05
7.00281e-05
5.93319e-05
6.68776e-05
7.1137e-05
7.11181e-05
5.92674e-05
7.00681e-05
7.00886e-05
5.93259e-05
6.68859e-05
7.11454e-05
7.11308e-05
5.92858e-05
7.00983e-05
9.23394e-05
7.20371e-05
7.20303e-05
7.2023e-05
7.20166e-05
9.23498e-05
7.01262e-05
6.98234e-05
6.81167e-05
6.46508e-05
7.01158e-05
6.98322e-05
6.81532e-05
7.01852e-05
7.13397e-05
7.73862e-05
7.73667e-05
7.01998e-05
7.01286e-05
6.46692e-05
6.98458e-05
6.82024e-05
6.9837e-05
6.81669e-05
7.01393e-05
7.01289e-05
6.98242e-05
6.81246e-05
6.46532e-05
7.0118e-05
6.98332e-05
6.8161e-05
7.01881e-05
7.13436e-05
7.74078e-05
7.73889e-05
7.02021e-05
7.01923e-05
7.73597e-05
7.13384e-05
7.01784e-05
7.73786e-05
7.01307e-05
6.46709e-05
6.98478e-05
6.82108e-05
6.98366e-05
6.81743e-05
7.01421e-05
6.95212e-05
6.95202e-05
9.23137e-05
7.20052e-05
7.20106e-05
9.2302e-05
7.20191e-05
7.20244e-05
7.00833e-05
5.93307e-05
6.68859e-05
7.11468e-05
5.928e-05
7.11286e-05
7.01044e-05
7.00319e-05
5.93208e-05
6.68745e-05
7.11335e-05
7.11185e-05
5.92717e-05
7.0053e-05
7.00389e-05
7.11049e-05
5.91812e-05
6.68605e-05
5.92325e-05
7.00177e-05
7.11233e-05
6.99874e-05
7.1095e-05
5.91729e-05
6.68441e-05
6.99661e-05
7.11098e-05
5.92225e-05
9.23365e-05
7.20302e-05
7.20355e-05
7.20163e-05
7.20216e-05
9.23483e-05
6.95169e-05
6.95159e-05
7.01883e-05
7.13459e-05
7.74069e-05
7.73881e-05
7.02023e-05
7.01321e-05
6.46744e-05
6.82087e-05
6.98478e-05
6.81767e-05
6.9839e-05
7.01415e-05
7.01855e-05
7.13397e-05
7.73859e-05
7.73661e-05
7.02001e-05
7.01298e-05
6.46723e-05
6.98472e-05
6.82023e-05
6.98384e-05
6.81681e-05
7.01399e-05
7.01282e-05
6.81243e-05
6.98221e-05
6.46549e-05
7.01166e-05
6.81599e-05
6.98348e-05
7.01866e-05
7.13431e-05
7.74048e-05
7.73861e-05
7.02007e-05
7.01909e-05
7.7357e-05
7.13355e-05
7.0177e-05
7.73757e-05
7.01294e-05
6.46728e-05
6.82099e-05
6.98486e-05
6.81742e-05
6.98357e-05
7.01412e-05
7.01276e-05
6.98219e-05
6.81208e-05
6.46533e-05
7.01167e-05
6.98345e-05
6.81566e-05
7.01867e-05
7.13418e-05
7.73898e-05
7.73688e-05
7.02006e-05
7.01908e-05
7.73396e-05
7.13342e-05
7.01769e-05
7.73606e-05
7.01294e-05
6.46715e-05
6.98483e-05
6.82064e-05
6.98354e-05
6.81707e-05
7.01407e-05
6.95201e-05
7.00844e-05
5.93289e-05
6.68818e-05
7.11456e-05
5.92809e-05
7.11273e-05
7.01056e-05
7.00354e-05
5.9325e-05
6.68768e-05
7.11351e-05
7.11201e-05
5.92735e-05
7.00563e-05
9.23427e-05
7.20307e-05
7.20369e-05
7.20167e-05
7.2023e-05
9.23517e-05
6.95197e-05
7.01272e-05
6.81221e-05
6.98232e-05
6.46542e-05
7.01171e-05
6.81536e-05
6.98357e-05
7.01867e-05
7.13414e-05
7.73878e-05
7.7369e-05
7.02006e-05
7.01908e-05
7.73587e-05
7.01301e-05
6.46751e-05
6.82034e-05
6.98495e-05
6.81722e-05
6.98368e-05
7.01402e-05
7.01293e-05
6.8125e-05
6.98237e-05
6.46566e-05
7.0118e-05
6.81603e-05
6.98362e-05
7.01878e-05
7.13449e-05
7.74053e-05
7.73856e-05
7.02024e-05
7.01927e-05
7.73565e-05
7.13397e-05
7.01782e-05
7.73765e-05
7.01308e-05
6.46748e-05
6.82099e-05
6.985e-05
6.8175e-05
6.98372e-05
7.01423e-05
9.23162e-05
7.20125e-05
7.20064e-05
9.23073e-05
7.20263e-05
7.20203e-05
7.00342e-05
5.93243e-05
6.6879e-05
7.11372e-05
5.92735e-05
7.11189e-05
7.00555e-05
7.00867e-05
5.93356e-05
6.6889e-05
7.11467e-05
5.92832e-05
7.11318e-05
7.01079e-05
6.99898e-05
7.10952e-05
5.91748e-05
6.68494e-05
6.99683e-05
5.9226e-05
7.11135e-05
7.00423e-05
7.11082e-05
5.91844e-05
6.68623e-05
7.0021e-05
5.92372e-05
7.11231e-05
9.23425e-05
7.20375e-05
7.20314e-05
7.20235e-05
7.20175e-05
9.23511e-05
6.95202e-05
6.9519e-05
6.95228e-05
6.95217e-05
5.95167e-05
4.17499e-05
5.05079e-05
5.05092e-05
5.04623e-05
5.04671e-05
5.95505e-05
5.9516e-05
4.17622e-05
5.04983e-05
5.04999e-05
5.04697e-05
5.04674e-05
5.95474e-05
5.95179e-05
4.17747e-05
5.04997e-05
5.05012e-05
5.04712e-05
5.04696e-05
5.95494e-05
5.95188e-05
4.1768e-05
5.05e-05
5.05047e-05
5.04714e-05
5.04746e-05
5.95505e-05
1.4921e-05
1.49214e-05
1.48096e-05
1.07954e-05
1.08224e-05
2.06648e-05
1.49211e-05
1.49198e-05
1.48096e-05
1.48084e-05
1.07951e-05
1.08221e-05
1.49244e-05
1.4923e-05
1.48114e-05
1.07965e-05
1.08236e-05
2.06699e-05
1.4924e-05
1.49233e-05
1.48125e-05
1.48119e-05
1.07965e-05
1.08235e-05
4.55324e-05
5.5416e-05
4.35655e-05
5.31717e-05
4.55295e-05
5.54874e-05
4.35963e-05
4.80594e-05
5.25145e-05
6.01391e-05
5.85126e-05
5.24815e-05
5.84544e-05
4.80732e-05
4.5703e-05
5.32137e-05
5.55981e-05
4.37736e-05
5.55276e-05
4.37526e-05
4.57041e-05
4.55575e-05
5.54208e-05
4.35636e-05
5.31738e-05
4.55232e-05
5.54936e-05
4.36136e-05
4.8051e-05
5.25241e-05
6.01431e-05
5.85213e-05
5.84625e-05
5.24812e-05
4.8087e-05
4.7938e-05
5.83692e-05
5.23492e-05
6.01177e-05
4.78971e-05
5.84285e-05
5.2392e-05
4.56955e-05
5.32151e-05
5.56048e-05
4.37954e-05
5.55323e-05
4.37461e-05
4.57268e-05
5.94419e-05
4.15714e-05
5.0322e-05
5.03209e-05
5.03542e-05
5.94102e-05
5.03529e-05
4.80664e-05
5.25181e-05
6.01452e-05
5.8522e-05
5.24897e-05
5.84636e-05
4.80787e-05
4.57143e-05
5.32196e-05
5.56037e-05
4.37809e-05
5.55344e-05
4.37634e-05
4.57088e-05
4.8059e-05
5.25167e-05
6.01428e-05
5.85124e-05
5.84543e-05
5.24834e-05
4.80718e-05
4.57039e-05
5.32168e-05
4.37799e-05
5.55987e-05
4.37619e-05
5.5529e-05
4.57057e-05
4.55519e-05
5.54205e-05
4.35673e-05
5.3176e-05
4.55185e-05
5.54935e-05
4.36164e-05
4.80486e-05
5.25237e-05
6.01419e-05
5.85196e-05
5.24777e-05
5.8461e-05
4.80866e-05
4.79362e-05
5.83679e-05
5.23451e-05
6.01114e-05
4.78951e-05
5.23919e-05
5.84268e-05
4.56901e-05
5.32192e-05
5.56044e-05
4.37989e-05
5.55326e-05
4.37492e-05
4.57213e-05
4.5554e-05
4.35681e-05
5.54193e-05
5.3176e-05
4.55335e-05
4.36166e-05
5.54928e-05
4.80524e-05
5.25229e-05
6.01416e-05
5.85167e-05
5.84581e-05
5.24816e-05
4.80903e-05
4.79399e-05
5.83651e-05
5.2353e-05
6.01146e-05
4.79006e-05
5.84242e-05
5.23909e-05
4.56989e-05
5.3217e-05
4.37991e-05
5.56041e-05
4.37489e-05
5.55307e-05
4.57236e-05
4.55356e-05
4.35827e-05
5.54203e-05
5.31761e-05
4.55349e-05
4.36016e-05
5.549e-05
4.80619e-05
5.25156e-05
6.01406e-05
5.8515e-05
5.24855e-05
5.84565e-05
4.80753e-05
4.79208e-05
5.84216e-05
4.57066e-05
5.32201e-05
4.37831e-05
5.56009e-05
4.37655e-05
5.55323e-05
4.57072e-05
4.5553e-05
4.35716e-05
5.54232e-05
5.31781e-05
4.55257e-05
4.36086e-05
5.54961e-05
4.80531e-05
5.25272e-05
6.01456e-05
5.85218e-05
5.8464e-05
5.2484e-05
4.80908e-05
4.79407e-05
5.83709e-05
5.23523e-05
6.01197e-05
4.79e-05
5.84293e-05
5.23951e-05
4.56973e-05
5.32199e-05
4.37785e-05
5.56068e-05
4.37566e-05
5.55346e-05
4.57225e-05
5.94449e-05
4.15824e-05
5.0324e-05
5.03284e-05
5.94129e-05
5.03537e-05
5.03582e-05
1.49182e-05
1.61055e-05
1.61058e-05
1.80772e-05
1.79658e-05
1.60868e-05
1.60866e-05
1.79809e-05
1.6087e-05
1.60863e-05
1.60862e-05
1.60863e-05
1.79723e-05
1.60863e-05
1.60865e-05
1.79827e-05
1.80882e-05
1.85365e-05
1.61054e-05
1.6106e-05
1.61977e-05
1.61975e-05
1.8074e-05
1.85548e-05
1.61067e-05
1.61057e-05
1.61973e-05
1.61973e-05
1.61058e-05
1.61967e-05
1.61971e-05
1.80797e-05
1.85371e-05
1.6106e-05
1.6197e-05
1.61972e-05
1.85549e-05
1.50067e-05
1.50066e-05
1.50064e-05
1.50064e-05
5.35076e-05
7.00378e-05
5.29532e-05
7.00662e-05
6.96364e-05
6.96163e-05
5.35182e-05
7.0046e-05
5.29523e-05
7.00708e-05
1.49181e-05
1.49179e-05
1.4918e-05
1.46699e-05
1.46699e-05
1.46697e-05
1.46698e-05
2.93507e-05
4.52082e-05
1.4883e-05
1.61302e-05
2.87842e-05
4.56199e-05
1.48321e-05
6.96359e-05
6.96159e-05
2.93488e-05
1.4883e-05
4.52108e-05
1.61304e-05
2.87871e-05
1.48321e-05
4.56216e-05
5.90551e-05
5.9065e-05
1.82533e-05
5.92807e-05
5.92916e-05
6.96523e-05
6.96731e-05
6.96542e-05
6.96752e-05
1.78335e-05
5.89338e-05
5.89465e-05
5.86934e-05
5.87065e-05
5.21518e-05
7.00358e-05
7.00057e-05
5.27522e-05
5.21537e-05
7.0041e-05
7.0013e-05
5.27555e-05
2.79356e-05
1.60733e-05
4.49933e-05
1.4937e-05
4.45589e-05
1.49963e-05
2.84994e-05
2.79409e-05
1.60732e-05
4.49921e-05
1.49371e-05
4.45651e-05
1.49964e-05
2.84966e-05
6.96541e-05
6.96752e-05
1.78226e-05
5.89465e-05
5.89343e-05
5.87062e-05
5.86939e-05
6.96521e-05
6.9673e-05
5.215e-05
7.00403e-05
7.00141e-05
5.27635e-05
2.79376e-05
1.6074e-05
4.49917e-05
1.49374e-05
4.45643e-05
1.49968e-05
2.85033e-05
5.21493e-05
7.00351e-05
7.00092e-05
5.27613e-05
2.79406e-05
1.6073e-05
1.4937e-05
4.49877e-05
1.49963e-05
4.45608e-05
2.84979e-05
2.79404e-05
1.6073e-05
4.49883e-05
1.49369e-05
4.45555e-05
1.49962e-05
2.84997e-05
5.21542e-05
7.00407e-05
7.00112e-05
5.27561e-05
2.79365e-05
1.6073e-05
1.49368e-05
4.49932e-05
1.49961e-05
4.45557e-05
2.8501e-05
5.21539e-05
7.00371e-05
7.00071e-05
5.27538e-05
6.96537e-05
6.96746e-05
1.78221e-05
5.89425e-05
5.89357e-05
5.87031e-05
5.86963e-05
6.96531e-05
6.96741e-05
2.79375e-05
1.60731e-05
1.49368e-05
4.49927e-05
1.49962e-05
4.45628e-05
2.85017e-05
2.79435e-05
1.60732e-05
1.49372e-05
4.49947e-05
1.49965e-05
4.45643e-05
2.84969e-05
5.21488e-05
7.00358e-05
7.00095e-05
5.27664e-05
5.21503e-05
7.00408e-05
7.00146e-05
5.27676e-05
1.78309e-05
5.89361e-05
5.89473e-05
5.86962e-05
5.87067e-05
6.96529e-05
6.96738e-05
6.96548e-05
6.96758e-05
6.96344e-05
6.96143e-05
6.96365e-05
6.96165e-05
5.90518e-05
5.9065e-05
1.82371e-05
5.92764e-05
5.92912e-05
6.9578e-05
6.95969e-05
6.95801e-05
6.95992e-05
1.83714e-05
5.96035e-05
5.96137e-05
5.93893e-05
5.94028e-05
5.35111e-05
7.00433e-05
5.29551e-05
7.00718e-05
2.93506e-05
4.5205e-05
1.48831e-05
1.61309e-05
2.87832e-05
4.56229e-05
1.48323e-05
2.93477e-05
4.52142e-05
1.48832e-05
1.61307e-05
2.87882e-05
4.56253e-05
1.48324e-05
5.36894e-05
7.00951e-05
7.00678e-05
5.41997e-05
5.36915e-05
7.01006e-05
7.00736e-05
5.42029e-05
2.96365e-05
1.61606e-05
4.62279e-05
1.47445e-05
4.58273e-05
1.47869e-05
3.02026e-05
2.96416e-05
1.61614e-05
4.623e-05
1.47446e-05
4.58369e-05
1.47871e-05
3.02004e-05
5.90641e-05
5.90528e-05
1.82539e-05
5.92911e-05
5.92791e-05
6.96343e-05
6.96143e-05
6.958e-05
6.95991e-05
1.83567e-05
5.96148e-05
5.96028e-05
5.94019e-05
5.93904e-05
6.95778e-05
6.9597e-05
2.93526e-05
4.52145e-05
1.48836e-05
1.61309e-05
2.87846e-05
4.56251e-05
1.48326e-05
5.35163e-05
7.00413e-05
5.29509e-05
7.00655e-05
2.93465e-05
1.48831e-05
4.52117e-05
1.61305e-05
2.87875e-05
1.48322e-05
4.56201e-05
5.36888e-05
7.01009e-05
7.00752e-05
5.42094e-05
2.96391e-05
1.61621e-05
4.62325e-05
1.47449e-05
4.58376e-05
1.47874e-05
3.02048e-05
5.36876e-05
7.00944e-05
7.00713e-05
5.42077e-05
2.96414e-05
1.61612e-05
1.47444e-05
4.62278e-05
1.4787e-05
4.58341e-05
3.02009e-05
5.35114e-05
7.00446e-05
5.29559e-05
7.00695e-05
2.93482e-05
1.48829e-05
4.52062e-05
1.61303e-05
2.87831e-05
1.48321e-05
4.56236e-05
5.35089e-05
7.00389e-05
5.29555e-05
7.00674e-05
2.96371e-05
1.61607e-05
4.62247e-05
1.47441e-05
4.58296e-05
1.47867e-05
3.02038e-05
5.36923e-05
7.00983e-05
7.0075e-05
5.42029e-05
2.96382e-05
1.61612e-05
1.47443e-05
4.62308e-05
1.47868e-05
4.58313e-05
3.02014e-05
5.36918e-05
7.00963e-05
7.00692e-05
5.42006e-05
5.90617e-05
5.90546e-05
1.82356e-05
5.92874e-05
5.92803e-05
6.96354e-05
6.96152e-05
6.95796e-05
6.95986e-05
1.83699e-05
5.96103e-05
5.96038e-05
5.93994e-05
5.93918e-05
6.95788e-05
6.95981e-05
2.93501e-05
1.48834e-05
4.52137e-05
1.61306e-05
2.87907e-05
1.48325e-05
4.56252e-05
5.35211e-05
7.00417e-05
5.29509e-05
7.00662e-05
5.35223e-05
7.00467e-05
5.29524e-05
7.00712e-05
2.96424e-05
1.61611e-05
1.47442e-05
4.62252e-05
1.47868e-05
4.58322e-05
3.02033e-05
2.96443e-05
1.61614e-05
1.47448e-05
4.62314e-05
1.47873e-05
4.58365e-05
3.0203e-05
5.36879e-05
7.00949e-05
7.00716e-05
5.42121e-05
5.36895e-05
7.01e-05
7.00766e-05
5.42135e-05
6.96351e-05
6.9615e-05
6.96372e-05
6.96171e-05
1.8358e-05
5.96048e-05
5.96152e-05
5.93915e-05
5.94025e-05
6.95786e-05
6.95977e-05
6.95807e-05
6.95999e-05
6.98493e-05
5.33295e-05
6.91851e-05
5.95597e-05
6.91638e-05
5.93934e-05
6.98608e-05
7.09922e-05
7.40101e-05
7.00511e-05
7.09888e-05
7.4076e-05
6.98482e-05
5.31378e-05
6.91405e-05
5.91212e-05
6.98364e-05
6.9162e-05
5.92928e-05
7.09686e-05
7.41748e-05
7.0053e-05
7.41119e-05
7.09718e-05
6.9635e-05
6.96176e-05
6.98514e-05
5.33288e-05
5.95715e-05
6.91861e-05
5.93981e-05
6.91647e-05
6.9863e-05
7.09954e-05
7.40285e-05
7.00558e-05
7.09925e-05
7.41046e-05
6.98504e-05
5.31491e-05
5.91255e-05
6.91414e-05
6.98385e-05
5.93048e-05
6.91629e-05
7.09722e-05
7.42027e-05
7.00613e-05
7.413e-05
7.0975e-05
6.96346e-05
6.96171e-05
8.75179e-05
7.24409e-05
7.2435e-05
7.24403e-05
7.24344e-05
8.75895e-05
5.70386e-05
3.89777e-05
6.88104e-05
5.91106e-05
5.69499e-05
3.91025e-05
6.88346e-05
5.71051e-05
3.89938e-05
6.88204e-05
5.91219e-05
5.70152e-05
3.91224e-05
6.88484e-05
8.74823e-05
7.24623e-05
7.24565e-05
8.74107e-05
7.2463e-05
7.24571e-05
5.72337e-05
6.88714e-05
5.92259e-05
3.94893e-05
3.93655e-05
6.8848e-05
5.73201e-05
5.72986e-05
6.88853e-05
5.92364e-05
3.9508e-05
3.93828e-05
6.88579e-05
5.73866e-05
6.96536e-05
6.96717e-05
6.96557e-05
6.96736e-05
8.7258e-05
7.25068e-05
7.25005e-05
8.71758e-05
7.25074e-05
7.25012e-05
5.66543e-05
3.87094e-05
5.88752e-05
6.87961e-05
6.87705e-05
3.85824e-05
5.67545e-05
5.67246e-05
3.87287e-05
5.88886e-05
6.88085e-05
6.87834e-05
3.86008e-05
5.68157e-05
5.64556e-05
6.87305e-05
3.81823e-05
5.87544e-05
5.63552e-05
6.87569e-05
3.83103e-05
5.65199e-05
6.87432e-05
3.82007e-05
5.87663e-05
5.64249e-05
6.87691e-05
3.83292e-05
8.72932e-05
7.2485e-05
7.24788e-05
7.24844e-05
7.2478e-05
8.73722e-05
6.98219e-05
6.9098e-05
5.85396e-05
5.23495e-05
6.98097e-05
6.91176e-05
5.8721e-05
7.1009e-05
7.00222e-05
7.39735e-05
7.10125e-05
7.39028e-05
7.10327e-05
7.37877e-05
7.00199e-05
7.1029e-05
7.38665e-05
6.98231e-05
5.25608e-05
6.91391e-05
5.90133e-05
6.98352e-05
6.91187e-05
5.88367e-05
6.98246e-05
6.9099e-05
5.85442e-05
5.23527e-05
6.98123e-05
6.91185e-05
5.87341e-05
7.10131e-05
7.00277e-05
7.3998e-05
7.39302e-05
7.1016e-05
7.10363e-05
7.38176e-05
7.00245e-05
7.10333e-05
7.38887e-05
6.98258e-05
5.25627e-05
6.91404e-05
5.90262e-05
6.91197e-05
5.88416e-05
6.98379e-05
6.96556e-05
6.96735e-05
8.72576e-05
7.25015e-05
7.25065e-05
8.71755e-05
7.25021e-05
7.25071e-05
5.67197e-05
3.87283e-05
5.88879e-05
6.88104e-05
3.85967e-05
6.87815e-05
5.68166e-05
5.66555e-05
3.87097e-05
5.8876e-05
6.87982e-05
6.87695e-05
3.85792e-05
5.67512e-05
5.652e-05
6.87412e-05
3.81968e-05
5.87667e-05
3.8331e-05
5.64202e-05
6.87712e-05
5.64535e-05
6.87293e-05
3.81788e-05
5.8755e-05
5.63553e-05
6.87591e-05
3.83116e-05
8.72936e-05
7.24797e-05
7.24847e-05
7.24791e-05
7.24841e-05
8.73722e-05
6.96535e-05
6.96716e-05
6.9824e-05
5.85426e-05
6.90987e-05
5.23611e-05
6.98117e-05
5.87341e-05
6.91185e-05
7.10127e-05
7.00303e-05
7.40016e-05
7.10157e-05
7.39219e-05
7.1036e-05
7.38087e-05
7.00243e-05
7.10329e-05
7.38933e-05
6.98252e-05
5.25593e-05
5.90259e-05
6.914e-05
6.98374e-05
5.88402e-05
6.91196e-05
6.98222e-05
6.90981e-05
5.85418e-05
5.23595e-05
6.98099e-05
6.91178e-05
5.87231e-05
7.10093e-05
7.00255e-05
7.39735e-05
7.39048e-05
7.10129e-05
7.10331e-05
7.37925e-05
7.00191e-05
7.10295e-05
7.38651e-05
6.98234e-05
5.25585e-05
6.91398e-05
5.90153e-05
6.9119e-05
5.88387e-05
6.98356e-05
6.98232e-05
5.85424e-05
6.91009e-05
5.23537e-05
6.98111e-05
5.87325e-05
6.9115e-05
7.10123e-05
7.00277e-05
7.3995e-05
7.39262e-05
7.10154e-05
7.10356e-05
7.38141e-05
7.00254e-05
7.10325e-05
7.38857e-05
6.98246e-05
5.25636e-05
5.90244e-05
6.91363e-05
5.88399e-05
6.9122e-05
6.98366e-05
6.98221e-05
6.90978e-05
5.85395e-05
5.23514e-05
6.98099e-05
6.9117e-05
5.87271e-05
7.10103e-05
7.00234e-05
7.39762e-05
7.3905e-05
7.10133e-05
7.10336e-05
7.3793e-05
7.00213e-05
7.10305e-05
7.38674e-05
6.98234e-05
5.25631e-05
6.9139e-05
5.90191e-05
6.91184e-05
5.88368e-05
6.98355e-05
6.96551e-05
6.96731e-05
8.72629e-05
7.25015e-05
7.25073e-05
8.71806e-05
7.25021e-05
7.25079e-05
5.67248e-05
3.87309e-05
5.88851e-05
6.88079e-05
3.85992e-05
6.87826e-05
5.68194e-05
5.66577e-05
3.87121e-05
5.88783e-05
6.87967e-05
6.87716e-05
3.85823e-05
5.67536e-05
5.65216e-05
6.87424e-05
3.81981e-05
5.87625e-05
3.83309e-05
5.64243e-05
6.87685e-05
5.64569e-05
6.87314e-05
3.81826e-05
5.87558e-05
5.63581e-05
6.87573e-05
3.83149e-05
8.72979e-05
7.24797e-05
7.24855e-05
7.24791e-05
7.24849e-05
8.73779e-05
6.96546e-05
6.96725e-05
6.98222e-05
5.85379e-05
6.91012e-05
5.23646e-05
6.98101e-05
5.87296e-05
6.91154e-05
7.10107e-05
7.00258e-05
7.39751e-05
7.39061e-05
7.10137e-05
7.10339e-05
7.37937e-05
7.00197e-05
7.10309e-05
7.38658e-05
6.98235e-05
5.25581e-05
5.90215e-05
6.91367e-05
5.88358e-05
6.91224e-05
6.98355e-05
6.98241e-05
5.85432e-05
6.90991e-05
5.23656e-05
6.98118e-05
5.87366e-05
6.91185e-05
7.10129e-05
7.00308e-05
7.39962e-05
7.39268e-05
7.10158e-05
7.10361e-05
7.38137e-05
7.00247e-05
7.10331e-05
7.38877e-05
6.98253e-05
5.25598e-05
5.90282e-05
6.91405e-05
5.88409e-05
6.91197e-05
6.98375e-05
8.72573e-05
7.2507e-05
7.25011e-05
8.71804e-05
7.25076e-05
7.25017e-05
5.66577e-05
3.87106e-05
5.88784e-05
6.87967e-05
5.67513e-05
3.85824e-05
6.87714e-05
5.67243e-05
3.87289e-05
5.88887e-05
6.88103e-05
5.68143e-05
3.85998e-05
6.87816e-05
5.64538e-05
6.87312e-05
3.81818e-05
5.87558e-05
5.63584e-05
3.83105e-05
6.87572e-05
5.6518e-05
6.87407e-05
3.81986e-05
5.87669e-05
5.64242e-05
3.83291e-05
6.8771e-05
8.72993e-05
7.24852e-05
7.24793e-05
8.73714e-05
7.24846e-05
7.24787e-05
6.96543e-05
6.96723e-05
6.96563e-05
6.96742e-05
6.96332e-05
6.96155e-05
6.96352e-05
6.96177e-05
8.75156e-05
7.24407e-05
7.24345e-05
7.24401e-05
7.24336e-05
8.75881e-05
5.70422e-05
3.89771e-05
6.88095e-05
5.91086e-05
5.69458e-05
6.8834e-05
3.91022e-05
5.71047e-05
3.89952e-05
6.88225e-05
5.91216e-05
5.70165e-05
6.88466e-05
3.91209e-05
8.7482e-05
7.24622e-05
7.24557e-05
8.74067e-05
7.24627e-05
7.24565e-05
5.72301e-05
6.88706e-05
5.92228e-05
3.9489e-05
6.88471e-05
5.73219e-05
3.93658e-05
5.72997e-05
6.88834e-05
5.92364e-05
3.95075e-05
6.88598e-05
5.73875e-05
3.93836e-05
6.95787e-05
6.95959e-05
6.95812e-05
6.95981e-05
8.76908e-05
7.24182e-05
7.24117e-05
8.76194e-05
7.24189e-05
7.24127e-05
5.77645e-05
4.02557e-05
5.95506e-05
6.8941e-05
6.89184e-05
4.01189e-05
5.78819e-05
5.78414e-05
4.02534e-05
5.95638e-05
6.89527e-05
6.89311e-05
4.0148e-05
5.79198e-05
5.75996e-05
6.88835e-05
3.97453e-05
5.94415e-05
5.7502e-05
6.8906e-05
3.98721e-05
5.7664e-05
6.88962e-05
3.9767e-05
5.94559e-05
5.75726e-05
6.89187e-05
3.98868e-05
8.77204e-05
7.23973e-05
7.23907e-05
7.23965e-05
7.239e-05
8.77861e-05
6.98519e-05
5.33314e-05
6.9186e-05
5.95719e-05
6.91647e-05
5.93988e-05
6.98634e-05
7.09956e-05
7.40373e-05
7.00567e-05
7.09928e-05
7.41017e-05
6.98509e-05
5.31411e-05
6.91416e-05
5.91265e-05
6.91629e-05
6.9839e-05
5.93052e-05
7.09725e-05
7.41998e-05
7.00587e-05
7.41374e-05
7.09752e-05
6.98729e-05
6.91868e-05
5.96537e-05
5.38613e-05
6.98617e-05
6.92081e-05
5.9815e-05
7.09277e-05
7.00823e-05
7.43579e-05
7.42928e-05
7.09308e-05
7.09513e-05
7.42038e-05
7.00808e-05
7.09482e-05
7.42687e-05
6.98736e-05
5.40341e-05
6.92315e-05
6.00588e-05
6.92101e-05
5.99031e-05
6.98844e-05
6.98755e-05
6.91877e-05
5.96597e-05
5.38647e-05
6.98643e-05
6.9209e-05
5.98266e-05
7.09316e-05
7.00882e-05
7.43801e-05
7.43241e-05
7.09342e-05
7.09547e-05
7.42336e-05
7.00865e-05
7.09521e-05
7.42924e-05
6.98762e-05
5.40361e-05
6.92324e-05
6.00698e-05
6.9211e-05
5.99094e-05
6.98869e-05
8.75137e-05
7.24354e-05
7.24403e-05
7.24347e-05
7.24396e-05
8.75883e-05
5.71055e-05
3.89914e-05
6.88201e-05
5.9121e-05
6.88483e-05
5.70116e-05
3.9122e-05
5.70432e-05
3.89738e-05
6.88082e-05
5.91092e-05
3.91035e-05
5.6947e-05
6.88362e-05
8.74825e-05
7.24568e-05
7.24618e-05
7.24574e-05
8.74061e-05
7.24624e-05
5.72949e-05
6.88851e-05
5.92358e-05
3.95078e-05
6.88578e-05
3.938e-05
5.73876e-05
5.72281e-05
6.8873e-05
5.92243e-05
3.94889e-05
3.93624e-05
6.88457e-05
5.73235e-05
6.9633e-05
6.96155e-05
6.9581e-05
6.95979e-05
8.76899e-05
7.24128e-05
7.24177e-05
8.76192e-05
7.24135e-05
7.24185e-05
5.78381e-05
4.02632e-05
5.95631e-05
6.8955e-05
4.01402e-05
6.89293e-05
5.79261e-05
5.77735e-05
4.0244e-05
5.95513e-05
6.89429e-05
6.89171e-05
4.01232e-05
5.78623e-05
5.76608e-05
6.88941e-05
3.97632e-05
5.94557e-05
3.98893e-05
5.75699e-05
6.89207e-05
5.7596e-05
6.88818e-05
3.97457e-05
5.94432e-05
5.7504e-05
6.89085e-05
3.98691e-05
8.7721e-05
7.23918e-05
7.23968e-05
7.23911e-05
7.23961e-05
8.77881e-05
6.95789e-05
6.95958e-05
6.98496e-05
5.33273e-05
6.91855e-05
5.95619e-05
6.91642e-05
5.9395e-05
6.98612e-05
7.09925e-05
7.40125e-05
7.00504e-05
7.09891e-05
7.40765e-05
6.98486e-05
5.31471e-05
6.9141e-05
5.91229e-05
6.91623e-05
6.98367e-05
5.92949e-05
7.09688e-05
7.41742e-05
7.00564e-05
7.41134e-05
7.09721e-05
6.98751e-05
5.96589e-05
6.91877e-05
5.38718e-05
6.98639e-05
5.98262e-05
6.92091e-05
7.09314e-05
7.00885e-05
7.43828e-05
7.43169e-05
7.0934e-05
7.09546e-05
7.4226e-05
7.00861e-05
7.09518e-05
7.42954e-05
6.98758e-05
5.40335e-05
6.00693e-05
6.92326e-05
5.99086e-05
6.92111e-05
6.98866e-05
6.98732e-05
6.91871e-05
5.96552e-05
5.38698e-05
6.9862e-05
6.92085e-05
5.98172e-05
7.09279e-05
7.00857e-05
7.43546e-05
7.42992e-05
7.09311e-05
7.09516e-05
7.42087e-05
7.008e-05
7.09484e-05
7.42668e-05
6.98739e-05
5.40325e-05
6.9232e-05
6.00609e-05
6.92105e-05
5.99043e-05
6.98847e-05
6.98508e-05
5.33322e-05
5.957e-05
6.9182e-05
5.93969e-05
6.9167e-05
6.98622e-05
7.0995e-05
7.40341e-05
7.00552e-05
7.40981e-05
7.09921e-05
6.98496e-05
5.31417e-05
5.91245e-05
6.91442e-05
5.93033e-05
6.98378e-05
6.91586e-05
7.09719e-05
7.41959e-05
7.00604e-05
7.41349e-05
7.09746e-05
6.98495e-05
5.33318e-05
6.91848e-05
5.9565e-05
6.91635e-05
5.93938e-05
6.98611e-05
7.09929e-05
7.40127e-05
7.00524e-05
7.099e-05
7.40794e-05
6.98485e-05
5.31397e-05
6.91404e-05
5.91214e-05
6.98366e-05
6.91616e-05
5.92983e-05
7.09697e-05
7.41771e-05
7.00542e-05
7.41142e-05
7.09725e-05
6.98743e-05
5.96577e-05
6.91904e-05
5.38649e-05
6.98632e-05
5.98243e-05
6.92052e-05
7.09311e-05
7.00895e-05
7.43759e-05
7.4321e-05
7.09337e-05
7.09542e-05
7.42304e-05
7.00839e-05
7.09515e-05
7.42883e-05
6.98751e-05
5.40367e-05
6.00675e-05
6.92286e-05
5.99074e-05
6.92136e-05
6.98858e-05
6.98732e-05
6.91865e-05
5.96547e-05
5.38624e-05
6.98619e-05
6.92078e-05
5.98199e-05
7.09289e-05
7.00837e-05
7.43568e-05
7.43014e-05
7.09314e-05
7.0952e-05
7.42106e-05
7.0082e-05
7.09493e-05
7.42694e-05
6.98738e-05
5.40363e-05
6.92312e-05
6.00633e-05
6.92099e-05
5.9904e-05
6.98846e-05
8.75188e-05
7.24354e-05
7.24412e-05
7.24347e-05
7.24405e-05
8.75936e-05
5.71104e-05
3.89925e-05
6.88217e-05
5.91173e-05
6.88458e-05
5.70162e-05
3.91213e-05
5.70445e-05
3.89767e-05
6.88105e-05
5.91104e-05
3.91046e-05
5.69497e-05
6.88347e-05
8.74875e-05
7.24568e-05
7.24626e-05
7.24575e-05
8.74095e-05
7.24632e-05
5.72974e-05
6.88827e-05
5.92331e-05
3.95095e-05
6.88591e-05
3.93821e-05
5.73922e-05
5.72319e-05
6.88715e-05
5.92256e-05
3.94919e-05
3.93658e-05
6.88479e-05
5.73248e-05
6.9634e-05
6.96166e-05
6.95805e-05
6.95975e-05
8.76959e-05
7.24128e-05
7.24186e-05
8.7623e-05
7.24136e-05
7.24193e-05
5.78409e-05
4.02651e-05
5.95604e-05
6.89526e-05
4.01411e-05
6.89305e-05
5.79322e-05
5.77786e-05
4.0247e-05
5.95529e-05
6.89413e-05
6.89194e-05
4.01255e-05
5.78637e-05
5.76649e-05
6.88954e-05
3.97641e-05
5.94518e-05
3.98912e-05
5.75724e-05
6.89181e-05
5.7596e-05
6.88844e-05
3.97482e-05
5.94446e-05
5.75084e-05
6.89068e-05
3.9872e-05
8.77239e-05
7.23919e-05
7.23977e-05
7.23911e-05
7.23969e-05
8.7794e-05
6.95799e-05
6.95968e-05
6.98497e-05
5.33273e-05
5.9567e-05
6.91823e-05
5.93932e-05
6.91672e-05
6.98611e-05
7.09933e-05
7.40126e-05
7.00511e-05
7.40789e-05
7.09904e-05
6.98485e-05
5.31518e-05
5.91204e-05
6.91445e-05
5.93003e-05
6.98368e-05
6.9159e-05
7.09701e-05
7.41766e-05
7.00568e-05
7.41136e-05
7.09729e-05
6.98515e-05
5.33291e-05
5.95733e-05
6.91862e-05
5.93988e-05
6.91648e-05
6.98631e-05
7.09954e-05
7.40344e-05
7.00561e-05
7.09926e-05
7.40991e-05
6.98505e-05
5.3153e-05
5.91259e-05
6.91417e-05
6.98386e-05
5.9307e-05
6.9163e-05
7.09723e-05
7.41969e-05
7.00618e-05
7.41352e-05
7.09749e-05
6.98732e-05
5.96542e-05
6.91906e-05
5.38743e-05
6.98621e-05
5.98215e-05
6.92054e-05
7.09293e-05
7.0086e-05
7.43565e-05
7.43008e-05
7.09319e-05
7.09524e-05
7.42103e-05
7.00806e-05
7.09497e-05
7.42689e-05
6.98739e-05
5.4033e-05
6.00645e-05
6.92289e-05
5.99041e-05
6.92137e-05
6.98846e-05
6.98752e-05
5.966e-05
6.91878e-05
5.38756e-05
6.98639e-05
5.98277e-05
6.92092e-05
7.09314e-05
7.0091e-05
7.43768e-05
7.43212e-05
7.09339e-05
7.09544e-05
7.42311e-05
7.00856e-05
7.09518e-05
7.4289e-05
6.98758e-05
5.40343e-05
6.00706e-05
6.92327e-05
5.99098e-05
6.92112e-05
6.98866e-05
6.96338e-05
6.96162e-05
6.96358e-05
6.96183e-05
8.76915e-05
7.24184e-05
7.24125e-05
8.76231e-05
7.24191e-05
7.24132e-05
5.77778e-05
4.02446e-05
5.95526e-05
6.89412e-05
4.01264e-05
6.89192e-05
5.78612e-05
5.78429e-05
4.0263e-05
5.95637e-05
6.89552e-05
4.0143e-05
6.89294e-05
5.7925e-05
5.75945e-05
6.88842e-05
3.97489e-05
5.94453e-05
5.75095e-05
3.98696e-05
6.89068e-05
5.76602e-05
6.88942e-05
3.97659e-05
5.94563e-05
5.7574e-05
3.98883e-05
6.89209e-05
8.77251e-05
7.23974e-05
7.23915e-05
7.23967e-05
7.23908e-05
8.77889e-05
6.95796e-05
6.95966e-05
6.95818e-05
6.95987e-05
1.50404e-05
1.50406e-05
1.48325e-05
1.49325e-05
1.49328e-05
1.52915e-05
1.54094e-05
3.78569e-05
2.48859e-05
2.48905e-05
1.81138e-05
3.77344e-05
2.49625e-05
2.49689e-05
3.73139e-05
1.79557e-05
2.4656e-05
2.46528e-05
2.45742e-05
2.4582e-05
3.74526e-05
3.73148e-05
1.79445e-05
2.46628e-05
2.46655e-05
2.45697e-05
2.45614e-05
3.7447e-05
3.7315e-05
1.79467e-05
2.46638e-05
2.46654e-05
2.45655e-05
2.45672e-05
3.74528e-05
3.73204e-05
1.79478e-05
2.46555e-05
2.46556e-05
3.74452e-05
2.45735e-05
2.45793e-05
3.78666e-05
2.48863e-05
2.48936e-05
1.80986e-05
3.77277e-05
2.4963e-05
2.49656e-05
3.89331e-05
1.85229e-05
2.59406e-05
2.59173e-05
2.58288e-05
2.58464e-05
3.90675e-05
3.78651e-05
2.48786e-05
2.48691e-05
1.81136e-05
2.49799e-05
3.77294e-05
2.49795e-05
3.89312e-05
1.85103e-05
2.59422e-05
2.59311e-05
2.58284e-05
2.58299e-05
3.9068e-05
3.7863e-05
2.48787e-05
2.48745e-05
1.8094e-05
2.49732e-05
3.77299e-05
2.49752e-05
3.89345e-05
1.85222e-05
2.59448e-05
2.5935e-05
2.58311e-05
2.58314e-05
3.90712e-05
3.89433e-05
1.8511e-05
2.59204e-05
2.59257e-05
2.58385e-05
2.58454e-05
3.90569e-05
1.50983e-05
1.51504e-05
1.51507e-05
1.52628e-05
1.52631e-05
1.56503e-05
1.5529e-05
1.50981e-05
1.51503e-05
1.51506e-05
1.52628e-05
1.5263e-05
1.56503e-05
1.55289e-05
1.5098e-05
1.51503e-05
1.51504e-05
1.52627e-05
1.52629e-05
1.56501e-05
1.55288e-05
1.5098e-05
1.51502e-05
1.51505e-05
1.52626e-05
1.52629e-05
1.56501e-05
1.55288e-05
1.50403e-05
1.50405e-05
1.48324e-05
1.49325e-05
1.49327e-05
1.52914e-05
1.54093e-05
1.50403e-05
1.50404e-05
1.48322e-05
1.49324e-05
1.49326e-05
1.52913e-05
1.54092e-05
1.50402e-05
1.50405e-05
1.48322e-05
1.49324e-05
1.49326e-05
1.52913e-05
1.54092e-05
1.47498e-05
1.47237e-05
1.4724e-05
1.4827e-05
1.48273e-05
1.51752e-05
1.50607e-05
1.47497e-05
1.47237e-05
1.47239e-05
1.4827e-05
1.48272e-05
1.51752e-05
1.50607e-05
1.47496e-05
1.47236e-05
1.47238e-05
1.48269e-05
1.48271e-05
1.51751e-05
1.50605e-05
1.47497e-05
1.47236e-05
1.47239e-05
1.48269e-05
1.48272e-05
1.51751e-05
1.50606e-05
1.96038e-05
2.92103e-05
3.35544e-05
1.80008e-05
3.34228e-05
1.79656e-05
1.96658e-05
2.23795e-05
2.75836e-05
3.95955e-05
4.53053e-05
2.23284e-05
2.76852e-05
3.97031e-05
1.94724e-05
2.89244e-05
3.30019e-05
1.78126e-05
1.94119e-05
3.31298e-05
1.7846e-05
2.25865e-05
4.0075e-05
4.55235e-05
2.80289e-05
2.79287e-05
3.99744e-05
2.26379e-05
1.96205e-05
2.92155e-05
1.79968e-05
3.3552e-05
1.79689e-05
3.34227e-05
1.96477e-05
2.23726e-05
2.75875e-05
3.95915e-05
4.53106e-05
2.23317e-05
2.76815e-05
3.97008e-05
1.9453e-05
2.89209e-05
1.78159e-05
3.30002e-05
1.9427e-05
1.78406e-05
3.31302e-05
2.25898e-05
4.00729e-05
4.55248e-05
2.80277e-05
2.79339e-05
3.99681e-05
2.26339e-05
3.81431e-05
1.82124e-05
2.52768e-05
2.5282e-05
2.5197e-05
2.52044e-05
3.8262e-05
3.70348e-05
1.78413e-05
2.42673e-05
2.42781e-05
3.68974e-05
2.43461e-05
2.43439e-05
1.91086e-05
3.21439e-05
1.75228e-05
2.80763e-05
1.90534e-05
3.22816e-05
1.75712e-05
2.2065e-05
2.73428e-05
4.48867e-05
3.93237e-05
2.72428e-05
3.91956e-05
2.21476e-05
2.18965e-05
3.88085e-05
2.6903e-05
4.46646e-05
2.70019e-05
2.18249e-05
3.8941e-05
1.92281e-05
2.83587e-05
3.2709e-05
1.77103e-05
3.25701e-05
1.7659e-05
1.9289e-05
1.91107e-05
3.21518e-05
1.75259e-05
2.80734e-05
1.90561e-05