/*--------------------------------*- C++ -*----------------------------------*\
| =========                 |                                                 |
| \\      /  F ield         | OpenFOAM: The Open Source CFD Toolbox           |
|  \\    /   O peration     | Version:  v1906                                 |
|   \\  /    A nd           | Web:      www.OpenFOAM.com                      |
|    \\/     M anipulation  |                                                 |
\*---------------------------------------------------------------------------*/
FoamFile
{
    version     2.0;
    format      ascii;
    class       volScalarField;
    location    "400";
    object      nut;
}
// * * * * * * * * * * * * * * * * * * * * * * * * * * * * * * * * * * * * * //

dimensions      [0 2 -1 0 0 0 0];


internalField   nonuniform List<scalar> 
43248
(
0.000136793
0.000138626
0.000138625
0.000136617
0.000138647
0.000138632
0.000138638
0.000138656
0.000136655
0.000138643
0.000138658
0.00013673
0.00012238
0.000122375
0.000122384
0.0001224
2.36123e-05
2.36118e-05
7.3733e-05
7.37356e-05
9.18269e-05
5.00151e-05
9.20605e-05
9.18277e-05
5.00197e-05
5.0004e-05
9.20682e-05
0.000120676
9.38298e-05
0.00013399
0.00013313
0.000121326
0.00012068
0.000137838
9.38368e-05
0.000133992
9.35304e-05
0.00013313
0.000121331
2.36121e-05
2.36077e-05
0.000135997
7.37349e-05
7.3724e-05
7.36272e-05
7.36274e-05
2.36126e-05
2.36082e-05
5.00139e-05
9.20589e-05
9.38206e-05
0.00013401
0.000121327
5.00125e-05
9.20555e-05
0.000134012
9.38012e-05
0.000121325
0.000120688
0.00013785
9.38142e-05
0.000133999
9.35463e-05
0.000133139
0.000121339
9.18258e-05
5.00156e-05
5.00063e-05
9.20713e-05
0.000120684
0.000137869
0.000134016
9.38307e-05
0.000133155
9.35338e-05
0.000121341
9.18272e-05
5.00126e-05
5.00035e-05
9.20662e-05
2.36102e-05
7.37185e-05
7.37321e-05
2.36119e-05
0.00012069
0.000134017
9.38205e-05
0.000133157
0.000121338
0.000120686
0.000137872
0.000134023
9.38297e-05
0.000133161
9.35258e-05
0.000121344
9.18345e-05
5.00122e-05
9.20588e-05
9.18293e-05
5.0016e-05
5.00006e-05
9.20743e-05
0.000135991
7.37334e-05
7.37376e-05
7.36335e-05
7.36296e-05
2.36118e-05
2.36074e-05
2.36114e-05
2.36069e-05
2.36105e-05
2.36095e-05
9.72571e-05
0.000112669
7.36998e-05
4.79384e-05
4.79318e-05
0.000112502
9.73152e-05
9.72917e-05
0.000112675
7.36953e-05
4.79334e-05
4.79283e-05
0.000112489
9.73493e-05
7.88189e-05
2.14921e-05
2.14903e-05
2.14904e-05
2.14878e-05
7.88407e-05
3.62677e-05
4.0537e-05
8.80201e-05
9.19326e-05
3.62651e-05
4.05361e-05
8.81138e-05
2.01021e-05
5.00136e-05
7.6036e-05
7.5992e-05
2.01042e-05
3.62683e-05
9.19497e-05
4.054e-05
8.82116e-05
4.0541e-05
8.81199e-05
3.62711e-05
3.62701e-05
4.05368e-05
8.80358e-05
9.19415e-05
3.62665e-05
4.05373e-05
8.81318e-05
2.01032e-05
5.00117e-05
7.60597e-05
7.60187e-05
2.01052e-05
2.01038e-05
7.5972e-05
5.00124e-05
2.01018e-05
7.60132e-05
3.62695e-05
9.19488e-05
4.05432e-05
8.82302e-05
4.05384e-05
8.81328e-05
3.62737e-05
2.36099e-05
2.36098e-05
7.87978e-05
2.14864e-05
2.14889e-05
7.87747e-05
2.14885e-05
2.1491e-05
9.72731e-05
0.000112647
7.36942e-05
4.79344e-05
0.000112497
4.79249e-05
9.73251e-05
9.72591e-05
0.000112658
7.36945e-05
4.79382e-05
4.79363e-05
0.000112513
9.73142e-05
9.71986e-05
4.79168e-05
0.00011225
7.36686e-05
0.000112406
9.71487e-05
4.79264e-05
9.71874e-05
4.79287e-05
0.000112266
7.36564e-05
9.71325e-05
4.79302e-05
0.000112415
7.88175e-05
2.14901e-05
2.14926e-05
2.1488e-05
2.14906e-05
7.88408e-05
2.36105e-05
2.36103e-05
2.01035e-05
5.00115e-05
7.60585e-05
7.6018e-05
2.01055e-05
3.62714e-05
9.19645e-05
8.82191e-05
4.05398e-05
8.8144e-05
4.05406e-05
3.62717e-05
2.01018e-05
5.00045e-05
7.60328e-05
7.59883e-05
2.01039e-05
3.62681e-05
9.19566e-05
4.05396e-05
8.8209e-05
4.05405e-05
8.81222e-05
3.627e-05
3.62709e-05
8.80357e-05
4.05325e-05
9.1945e-05
3.62662e-05
8.81306e-05
4.05396e-05
2.01038e-05
5.00134e-05
7.60599e-05
7.60194e-05
2.01058e-05
2.01044e-05
7.59727e-05
5.00083e-05
2.01024e-05
7.60135e-05
3.62694e-05
9.19498e-05
8.82317e-05
4.05438e-05
8.81352e-05
4.05364e-05
3.62743e-05
3.62684e-05
4.05325e-05
8.80306e-05
9.19441e-05
3.62648e-05
4.05396e-05
8.81228e-05
2.01027e-05
5.00106e-05
7.6044e-05
7.59987e-05
2.01047e-05
2.01033e-05
7.59519e-05
5.00053e-05
2.01013e-05
7.59974e-05
3.62679e-05
9.19479e-05
4.05438e-05
8.82208e-05
4.05364e-05
8.81284e-05
3.6272e-05
2.3608e-05
9.72695e-05
0.000112652
7.36849e-05
4.79318e-05
0.000112492
4.79223e-05
9.73201e-05
9.72608e-05
0.000112679
7.36993e-05
4.79394e-05
4.79377e-05
0.000112507
9.73115e-05
7.88205e-05
2.14891e-05
2.14925e-05
2.14871e-05
2.14905e-05
7.88389e-05
2.36098e-05
3.62678e-05
8.80353e-05
4.05327e-05
9.19419e-05
3.62658e-05
8.81131e-05
4.05396e-05
2.01029e-05
5.001e-05
7.60406e-05
7.6e-05
2.01048e-05
2.01034e-05
7.59944e-05
3.62693e-05
9.19625e-05
8.82121e-05
4.05438e-05
8.8136e-05
4.05366e-05
3.6271e-05
3.62705e-05
8.80344e-05
4.05328e-05
9.19484e-05
3.62664e-05
8.81259e-05
4.05398e-05
2.01035e-05
5.0008e-05
7.60562e-05
7.60121e-05
2.01056e-05
2.01042e-05
7.59655e-05
5.00088e-05
2.01022e-05
7.60103e-05
3.62697e-05
9.19556e-05
8.82254e-05
4.05439e-05
8.81345e-05
4.05367e-05
3.62739e-05
7.87966e-05
2.14891e-05
2.14862e-05
7.87783e-05
2.14911e-05
2.14882e-05
9.72573e-05
0.000112664
7.37015e-05
4.7943e-05
0.000112508
4.79335e-05
9.7316e-05
9.72754e-05
0.00011266
7.36975e-05
4.79301e-05
0.000112503
4.79284e-05
9.73324e-05
9.71886e-05
4.79254e-05
0.000112259
7.36669e-05
9.71305e-05
0.00011243
4.7935e-05
9.7206e-05
4.79206e-05
0.000112249
7.36692e-05
9.7149e-05
0.000112419
4.79222e-05
7.88223e-05
2.14928e-05
2.14899e-05
2.14907e-05
2.14878e-05
7.884e-05
2.36097e-05
2.36095e-05
2.36092e-05
2.36091e-05
0.000119499
0.000136496
0.000129805
0.000129867
0.000129683
0.000129653
0.000119603
0.000119498
0.000136618
0.000129798
0.000129813
0.00012969
0.000129683
0.000119593
0.000119499
0.000136682
0.000129796
0.000129811
0.000129682
0.000129682
0.000119594
0.000119487
0.000136609
0.000129853
0.000129853
0.000129696
0.000129689
0.000119623
0.000120261
0.00012027
0.000119992
0.000132091
0.000131852
0.000121714
0.000120258
0.000120267
0.00011999
0.000119999
0.000132091
0.000131851
0.000120271
0.000120276
0.000120009
0.00013209
0.00013185
0.00012174
0.000120274
0.00012028
0.000120006
0.000120012
0.000132092
0.000131852
0.000132381
0.000117038
0.000134093
0.000120987
0.000132119
0.000117298
0.000134334
0.000128465
0.000122162
9.36784e-05
0.000107741
0.000122
0.000107532
0.000128722
0.000132656
0.00012102
0.000117598
0.000134793
0.000117341
0.000134691
0.0001329
0.000132388
0.000117045
0.000134117
0.000120992
0.000132203
0.000117311
0.000134378
0.000128381
0.000122171
9.36763e-05
0.000107752
0.000107541
0.000121974
0.000128774
0.000128308
0.00010731
0.000121599
9.36814e-05
0.000127947
0.000107519
0.000121807
0.00013273
0.000121026
0.000117614
0.000134915
0.00011735
0.00013468
0.000132899
0.000119316
0.000136021
0.000129237
0.000129237
0.000129371
0.000119232
0.000129374
0.000128583
0.000122148
9.36922e-05
0.000107742
0.000122008
0.00010755
0.000128627
0.000132827
0.000121038
0.000117607
0.000134808
0.000117359
0.000134777
0.000132805
0.000128554
0.000122107
9.36814e-05
0.000107738
0.000107533
0.000122012
0.0001286
0.000132779
0.00012103
0.000134806
0.000117596
0.000134773
0.000117345
0.000132797
0.00013247
0.00011704
0.000134035
0.000120995
0.000132026
0.000117311
0.000134481
0.000128372
0.000122187
9.3698e-05
0.000107755
0.000121988
0.000107547
0.000128781
0.000128307
0.000107318
0.000121602
9.36617e-05
0.000127942
0.000121823
0.000107514
0.000132555
0.000121033
0.000117613
0.000135074
0.000117347
0.000134593
0.000132985
0.000132367
0.000134094
0.000117043
0.000120998
0.000132262
0.000134465
0.000117313
0.000128504
0.00012216
9.36887e-05
0.000107739
0.000107552
0.000122015
0.000128686
0.000128246
0.00010732
0.000121664
9.36744e-05
0.000128069
0.000107512
0.000121799
0.00013275
0.000121029
0.000135068
0.000117617
0.00013462
0.000117348
0.000132881
0.000132373
0.000134159
0.000117045
0.000120995
0.000132125
0.000134372
0.000117302
0.000128522
0.000122132
9.36925e-05
0.000107736
0.000122033
0.000107548
0.00012863
0.000128243
0.000107505
0.000132654
0.000121035
0.000134968
0.000117602
0.000134702
0.000117351
0.000132897
0.000132476
0.000134056
0.000117046
0.000121002
0.000132057
0.000134421
0.000117318
0.000128379
0.000122177
9.36812e-05
0.000107752
0.000107544
0.000121977
0.00012879
0.000128315
0.000107314
0.000121606
9.36777e-05
0.000127951
0.000107521
0.000121814
0.000132576
0.000121031
0.000134931
0.000117621
0.000134624
0.00011735
0.00013301
0.000119342
0.000136096
0.000129245
0.000129247
0.000119218
0.000129395
0.000129401
0.000150046
0.000101455
0.000101443
8.22124e-05
8.26501e-05
0.000102201
0.000102195
8.28194e-05
0.00010223
0.000102187
0.00010224
0.000102207
8.25497e-05
0.000102227
0.00010223
8.28448e-05
8.23551e-05
8.19912e-05
0.000101427
0.000101411
9.92358e-05
9.92306e-05
8.22691e-05
8.2263e-05
0.000101433
0.000101405
9.9269e-05
9.92256e-05
0.000101425
9.92732e-05
9.92425e-05
8.24156e-05
8.19291e-05
0.000101449
9.92625e-05
9.92647e-05
8.22527e-05
0.000151072
0.000151075
0.000151063
0.00015107
7.00024e-05
4.95514e-05
6.90966e-05
4.95657e-05
2.363e-05
2.36266e-05
7.00216e-05
4.95547e-05
6.90904e-05
4.95601e-05
0.00015005
0.000150039
0.000150047
0.000146968
0.00014697
0.000146958
0.000146966
6.69815e-05
6.57349e-05
0.000125986
0.000100695
6.60055e-05
6.63541e-05
0.000124961
2.36277e-05
2.36243e-05
6.69535e-05
0.000125983
6.57113e-05
0.000100683
6.60313e-05
0.000124955
6.63855e-05
6.11001e-05
6.10983e-05
8.24461e-05
6.1453e-05
6.14522e-05
2.36331e-05
2.36365e-05
2.36318e-05
2.36354e-05
8.27608e-05
6.09571e-05
6.0958e-05
6.05887e-05
6.05966e-05
6.79335e-05
4.95551e-05
4.95401e-05
6.89e-05
6.79354e-05
4.95562e-05
4.9545e-05
6.89021e-05
6.45955e-05
0.000103036
6.5424e-05
0.000126982
6.47095e-05
0.000128027
6.55914e-05
6.46522e-05
0.000103016
6.54101e-05
0.000126981
6.47214e-05
0.000128025
6.55279e-05
2.36331e-05
2.36367e-05
8.27014e-05
6.09436e-05
6.09403e-05
6.06147e-05
6.06084e-05
2.36334e-05
2.36369e-05
6.79227e-05
4.95488e-05
4.95433e-05
6.89161e-05
6.4603e-05
0.000103038
6.54058e-05
0.000126983
6.47173e-05
0.000128032
6.55885e-05
6.79206e-05
4.95442e-05
4.95394e-05
6.89066e-05
6.46214e-05
0.000103009
0.000126984
6.53618e-05
0.000128027
6.47462e-05
6.5563e-05
6.46547e-05
0.000103062
6.53774e-05
0.000126986
6.47354e-05
0.000128032
6.55669e-05
6.79445e-05
4.95548e-05
4.95411e-05
6.88928e-05
6.46429e-05
0.000103032
0.000126982
6.53896e-05
0.000128026
6.47402e-05
6.55472e-05
6.79339e-05
4.95518e-05
4.95374e-05
6.8894e-05
2.36307e-05
2.36343e-05
8.28462e-05
6.09528e-05
6.09573e-05
6.05881e-05
6.05943e-05
2.36324e-05
2.3636e-05
6.46219e-05
0.000103048
0.000126987
6.54189e-05
0.000128029
6.47259e-05
6.55438e-05
6.46392e-05
0.000103054
0.000126994
6.5414e-05
0.000128039
6.47152e-05
6.55451e-05
6.79369e-05
4.9547e-05
4.95416e-05
6.89093e-05
6.79223e-05
4.9548e-05
4.95427e-05
6.89209e-05
8.28145e-05
6.09592e-05
6.09595e-05
6.05946e-05
6.05937e-05
2.36323e-05
2.36357e-05
2.36317e-05
2.36352e-05
2.36299e-05
2.36266e-05
2.36289e-05
2.36255e-05
6.10944e-05
6.11023e-05
8.23629e-05
6.14502e-05
6.14527e-05
2.36202e-05
2.36236e-05
2.36197e-05
2.36226e-05
8.20145e-05
6.19187e-05
6.19241e-05
6.15794e-05
6.15883e-05
7.00087e-05
4.95535e-05
6.91004e-05
4.95676e-05
6.70027e-05
6.56967e-05
0.000125982
0.000100659
6.59892e-05
6.63983e-05
0.000124959
6.69659e-05
6.57158e-05
0.000125978
0.000100653
6.60464e-05
6.63925e-05
0.000124958
7.01894e-05
4.95757e-05
4.95619e-05
7.10418e-05
7.01928e-05
4.95778e-05
4.95643e-05
7.10451e-05
6.74336e-05
9.99429e-05
6.73385e-05
0.000122969
6.66616e-05
0.000123967
6.8455e-05
6.74716e-05
9.99278e-05
6.73362e-05
0.000122967
6.6681e-05
0.000123965
6.84154e-05
6.11165e-05
6.11137e-05
8.24896e-05
6.14384e-05
6.14358e-05
2.36304e-05
2.3627e-05
2.36205e-05
2.36237e-05
8.19725e-05
6.19066e-05
6.19044e-05
6.16013e-05
6.15982e-05
2.36208e-05
2.36241e-05
6.69931e-05
6.57154e-05
0.000125986
0.000100687
6.5994e-05
6.63891e-05
0.000124957
7.00181e-05
4.95512e-05
6.90877e-05
4.9555e-05
6.69725e-05
0.000125979
6.5734e-05
0.000100645
6.60094e-05
0.000124959
6.6342e-05
7.01807e-05
4.95739e-05
4.95627e-05
7.10591e-05
6.74406e-05
9.99476e-05
6.73459e-05
0.000122966
6.66812e-05
0.000123972
6.84421e-05
7.01805e-05
4.95652e-05
4.95615e-05
7.10477e-05
6.74474e-05
9.99222e-05
0.00012297
6.7295e-05
0.000123967
6.66969e-05
6.84123e-05
6.99981e-05
4.95558e-05
6.91078e-05
4.9562e-05
6.69495e-05
0.000125979
6.57274e-05
0.000100663
6.6024e-05
0.000124958
6.63632e-05
7.00028e-05
4.95484e-05
6.90999e-05
4.95624e-05
6.74438e-05
9.99703e-05
6.73017e-05
0.00012297
6.66967e-05
0.000123969
6.84294e-05
7.02016e-05
4.95718e-05
4.95678e-05
7.10261e-05
6.7463e-05
9.99413e-05
0.000122968
6.73569e-05
0.000123966
6.66963e-05
6.844e-05
7.01929e-05
4.95728e-05
4.95592e-05
7.1039e-05
6.10934e-05
6.1101e-05
8.21142e-05
6.14482e-05
6.14522e-05
2.36295e-05
2.3626e-05
2.36181e-05
2.36214e-05
8.21822e-05
6.19052e-05
6.19198e-05
6.15792e-05
6.15862e-05
2.36198e-05
2.36231e-05
6.69697e-05
0.000125992
6.57112e-05
0.000100686
6.60322e-05
0.00012497
6.63877e-05
7.00205e-05
4.95535e-05
6.90977e-05
4.95579e-05
7.00306e-05
4.95547e-05
6.90896e-05
4.95588e-05
6.74757e-05
9.99604e-05
0.000122965
6.73306e-05
0.000123976
6.66747e-05
6.84154e-05
6.74762e-05
9.99641e-05
0.00012298
6.73368e-05
0.00012398
6.66768e-05
6.8419e-05
7.01859e-05
4.9568e-05
4.95639e-05
7.10619e-05
7.01832e-05
4.9569e-05
4.95649e-05
7.10647e-05
2.36292e-05
2.36259e-05
2.36286e-05
2.36253e-05
8.19308e-05
6.19219e-05
6.19202e-05
6.15847e-05
6.15848e-05
2.36197e-05
2.36228e-05
2.36191e-05
2.36223e-05
3.6196e-05
6.96517e-05
4.03524e-05
7.10838e-05
4.03406e-05
7.07653e-05
3.61991e-05
2.02173e-05
6.83231e-05
4.95603e-05
2.02169e-05
6.84489e-05
3.61958e-05
6.94556e-05
4.03335e-05
7.03598e-05
3.61927e-05
4.03458e-05
7.06839e-05
2.0214e-05
6.86188e-05
4.95568e-05
6.84963e-05
2.02144e-05
2.36298e-05
2.36268e-05
3.61976e-05
6.96461e-05
7.11018e-05
4.03519e-05
7.07678e-05
4.034e-05
3.62007e-05
2.02188e-05
6.83384e-05
4.95542e-05
2.02183e-05
6.84823e-05
3.61974e-05
6.94801e-05
7.03642e-05
4.03329e-05
3.61942e-05
7.07078e-05
4.03452e-05
2.02154e-05
6.86511e-05
4.95601e-05
6.85114e-05
2.02159e-05
2.36274e-05
2.36245e-05
7.08384e-05
2.15529e-05
2.155e-05
2.15528e-05
2.15499e-05
7.09669e-05
7.39002e-05
7.09685e-05
4.71528e-05
6.12081e-05
7.37362e-05
7.11669e-05
4.71572e-05
7.39216e-05
7.09517e-05
4.71397e-05
6.12082e-05
7.38016e-05
7.11935e-05
4.71531e-05
7.07966e-05
2.15561e-05
2.15532e-05
7.06695e-05
2.15562e-05
2.15533e-05
7.41687e-05
4.71698e-05
6.13451e-05
7.18086e-05
7.1586e-05
4.71658e-05
7.43294e-05
7.42285e-05
4.71658e-05
6.13441e-05
7.18214e-05
7.15829e-05
4.71524e-05
7.43516e-05
2.36332e-05
2.36364e-05
2.3632e-05
2.36351e-05
7.04486e-05
2.15634e-05
2.15595e-05
7.03064e-05
2.15634e-05
2.15596e-05
7.33106e-05
7.05279e-05
6.08406e-05
4.71458e-05
4.71398e-05
7.03425e-05
7.34613e-05
7.33546e-05
7.05421e-05
6.08495e-05
4.71342e-05
4.71297e-05
7.03412e-05
7.35162e-05
7.30055e-05
4.7127e-05
6.97117e-05
6.0707e-05
7.28693e-05
4.71324e-05
6.98863e-05
7.30468e-05
4.71159e-05
6.96939e-05
6.0706e-05
7.29176e-05
4.71205e-05
6.99001e-05
7.04878e-05
2.15601e-05
2.15562e-05
2.156e-05
2.15561e-05
7.06263e-05
3.6189e-05
4.03215e-05
6.95062e-05
6.83129e-05
3.61857e-05
4.03324e-05
6.98596e-05
2.02198e-05
4.9546e-05
6.82771e-05
2.02202e-05
6.81439e-05
2.02231e-05
6.79552e-05
4.95496e-05
2.02226e-05
6.81026e-05
3.61892e-05
6.85233e-05
4.03388e-05
7.02763e-05
3.61925e-05
4.03272e-05
6.9939e-05
3.6191e-05
4.03217e-05
6.95192e-05
6.8312e-05
3.61878e-05
4.03326e-05
6.98755e-05
2.0221e-05
4.95482e-05
6.83001e-05
6.81743e-05
2.02214e-05
2.02242e-05
6.79903e-05
4.95488e-05
2.02239e-05
6.81201e-05
3.61912e-05
6.85268e-05
4.03393e-05
7.02947e-05
4.03275e-05
6.99486e-05
3.61944e-05
2.36333e-05
2.36363e-05
7.04491e-05
2.15605e-05
2.15628e-05
7.03073e-05
2.15606e-05
2.15629e-05
7.33367e-05
7.05614e-05
6.08652e-05
4.71406e-05
7.031e-05
4.7127e-05
7.34911e-05
7.33166e-05
7.05258e-05
6.08609e-05
4.71482e-05
4.71348e-05
7.03397e-05
7.34532e-05
7.30748e-05
4.71131e-05
6.9673e-05
6.06924e-05
6.99257e-05
7.28915e-05
4.71274e-05
7.30021e-05
4.7121e-05
6.96958e-05
6.06902e-05
7.28722e-05
4.7135e-05
6.98934e-05
7.04895e-05
2.15573e-05
2.15595e-05
2.15572e-05
2.15594e-05
7.06272e-05
2.36337e-05
2.36368e-05
3.61906e-05
6.95068e-05
4.03208e-05
6.83297e-05
3.61873e-05
6.98828e-05
4.0332e-05
2.02212e-05
4.9549e-05
6.83095e-05
2.02216e-05
6.81604e-05
2.02246e-05
6.7975e-05
4.95428e-05
2.02241e-05
6.81322e-05
3.61907e-05
6.85183e-05
7.02965e-05
4.03383e-05
3.6194e-05
6.99413e-05
4.03267e-05
3.61882e-05
4.03206e-05
6.95057e-05
6.83316e-05
3.61848e-05
4.03317e-05
6.98606e-05
2.02194e-05
4.95451e-05
6.8273e-05
6.81437e-05
2.02199e-05
2.02228e-05
6.79604e-05
4.95383e-05
2.02223e-05
6.80957e-05
3.61883e-05
6.85163e-05
4.03384e-05
7.02805e-05
4.03266e-05
6.99371e-05
3.61916e-05
3.61911e-05
6.95203e-05
4.03262e-05
6.83015e-05
3.6188e-05
6.9872e-05
4.03267e-05
2.02217e-05
4.95472e-05
6.8301e-05
6.81734e-05
2.02221e-05
2.0225e-05
6.79899e-05
4.95505e-05
2.02246e-05
6.81211e-05
3.61916e-05
6.8539e-05
7.0297e-05
4.03322e-05
6.99493e-05
4.03333e-05
3.61945e-05
3.6189e-05
4.03209e-05
6.95156e-05
6.83111e-05
3.61858e-05
4.03315e-05
6.98627e-05
2.02204e-05
4.95432e-05
6.82822e-05
6.81496e-05
2.02208e-05
2.02237e-05
6.7966e-05
4.95466e-05
2.02232e-05
6.81029e-05
3.61892e-05
6.85269e-05
4.03383e-05
7.02855e-05
4.03266e-05
6.99427e-05
3.61924e-05
2.36309e-05
2.3634e-05
7.0451e-05
2.15593e-05
2.15626e-05
7.03088e-05
2.15594e-05
2.15627e-05
7.3339e-05
7.05459e-05
6.08397e-05
4.71342e-05
7.03337e-05
4.71292e-05
7.35132e-05
7.32949e-05
7.05344e-05
6.08475e-05
4.71447e-05
4.71398e-05
7.03321e-05
7.34739e-05
7.30715e-05
4.71155e-05
6.96957e-05
6.07015e-05
6.99024e-05
7.28932e-05
4.71206e-05
7.30351e-05
4.71261e-05
6.97049e-05
6.0705e-05
7.28504e-05
4.7131e-05
6.9904e-05
7.04898e-05
2.1556e-05
2.15594e-05
2.15559e-05
2.15593e-05
7.06298e-05
2.36327e-05
2.36357e-05
3.61891e-05
6.95093e-05
4.03263e-05
6.83293e-05
3.61861e-05
6.98682e-05
4.03266e-05
2.02205e-05
4.95473e-05
6.82804e-05
6.8152e-05
2.02209e-05
2.02238e-05
6.79676e-05
4.95411e-05
2.02234e-05
6.81002e-05
3.61896e-05
6.85241e-05
7.02964e-05
4.03321e-05
6.99401e-05
4.03334e-05
3.61925e-05
3.61912e-05
6.95083e-05
4.03211e-05
6.83399e-05
3.61879e-05
6.98872e-05
4.03316e-05
2.02217e-05
4.95485e-05
6.82993e-05
6.81705e-05
2.02221e-05
2.02249e-05
6.7985e-05
4.95422e-05
2.02245e-05
6.81206e-05
3.61914e-05
6.85167e-05
7.03081e-05
4.03385e-05
6.994e-05
4.03267e-05
3.61947e-05
7.0445e-05
2.15627e-05
2.15598e-05
7.03119e-05
2.15628e-05
2.15599e-05
7.32986e-05
7.05259e-05
6.08485e-05
4.71441e-05
7.34698e-05
7.03342e-05
4.7139e-05
7.33625e-05
7.05576e-05
6.08473e-05
4.714e-05
7.3487e-05
7.03169e-05
4.71265e-05
7.30286e-05
4.71254e-05
6.97066e-05
6.07038e-05
7.28544e-05
6.98939e-05
4.71305e-05
7.30384e-05
4.71117e-05
6.96751e-05
6.07038e-05
7.29187e-05
6.99195e-05
4.71265e-05
7.04956e-05
2.15595e-05
2.15566e-05
7.06224e-05
2.15594e-05
2.15565e-05
2.36324e-05
2.36356e-05
2.36319e-05
2.3635e-05
2.36299e-05
2.36268e-05
2.36287e-05
2.36257e-05
7.08368e-05
2.15535e-05
2.15497e-05
2.15534e-05
2.15495e-05
7.09673e-05
7.38879e-05
7.0971e-05
4.71535e-05
6.12094e-05
7.3749e-05
4.71587e-05
7.1166e-05
7.3945e-05
7.09684e-05
4.71435e-05
6.121e-05
7.37817e-05
4.71474e-05
7.11901e-05
7.07987e-05
2.15567e-05
2.15528e-05
7.0665e-05
2.15568e-05
2.15529e-05
7.41817e-05
4.71709e-05
6.13379e-05
7.17949e-05
4.71665e-05
7.43154e-05
7.15989e-05
7.42109e-05
4.716e-05
6.13465e-05
7.18202e-05
4.7156e-05
7.4375e-05
7.15885e-05
2.36205e-05
2.36235e-05
2.36195e-05
2.36224e-05
7.11324e-05
2.15502e-05
2.15463e-05
7.10023e-05
2.15501e-05
2.15469e-05
7.50038e-05
7.30517e-05
6.18155e-05
4.71898e-05
4.71897e-05
7.28336e-05
7.5164e-05
7.50119e-05
7.30752e-05
6.18151e-05
4.71889e-05
4.71817e-05
7.28294e-05
7.52279e-05
7.47494e-05
4.71793e-05
7.22086e-05
6.16846e-05
7.45907e-05
4.7182e-05
7.24323e-05
7.4815e-05
4.71685e-05
7.22157e-05
6.16907e-05
7.46231e-05
4.71727e-05
7.2441e-05
7.11651e-05
2.15463e-05
2.1544e-05
2.15465e-05
2.15437e-05
7.12867e-05
3.6198e-05
6.9655e-05
4.03527e-05
7.11016e-05
4.03409e-05
7.07707e-05
3.6201e-05
2.02185e-05
6.83528e-05
4.95623e-05
2.02181e-05
6.84747e-05
3.61978e-05
6.94576e-05
4.03338e-05
7.03671e-05
4.03461e-05
3.61946e-05
7.07095e-05
2.02152e-05
6.86434e-05
4.9559e-05
6.8523e-05
2.02156e-05
3.6202e-05
4.0347e-05
7.11539e-05
7.05273e-05
3.61992e-05
4.03591e-05
7.1464e-05
2.02078e-05
4.95672e-05
6.89446e-05
6.88137e-05
2.02083e-05
2.02112e-05
6.86552e-05
4.9571e-05
2.02111e-05
6.87836e-05
3.62021e-05
7.07058e-05
4.03659e-05
7.18384e-05
4.0354e-05
7.15352e-05
3.6205e-05
3.62042e-05
4.03472e-05
7.1162e-05
7.05331e-05
3.62012e-05
4.03593e-05
7.14896e-05
2.02094e-05
4.95696e-05
6.89637e-05
6.88513e-05
2.02097e-05
2.02126e-05
6.86903e-05
4.95728e-05
2.02123e-05
6.88061e-05
3.62043e-05
7.07088e-05
4.03661e-05
7.18659e-05
4.03543e-05
7.15392e-05
3.62071e-05
7.08351e-05
2.15507e-05
2.1553e-05
2.15506e-05
2.15528e-05
7.09684e-05
7.39273e-05
7.095e-05
4.71398e-05
6.11946e-05
4.71534e-05
7.37943e-05
7.11778e-05
7.38924e-05
7.09658e-05
4.71476e-05
6.11925e-05
7.11618e-05
7.37555e-05
4.71612e-05
7.08005e-05
2.15538e-05
2.15561e-05
2.1554e-05
7.06652e-05
2.15562e-05
7.42202e-05
4.71662e-05
6.13625e-05
7.18112e-05
4.71529e-05
7.15924e-05
7.43592e-05
7.41797e-05
4.7174e-05
6.13594e-05
7.17931e-05
7.15979e-05
4.71607e-05
7.43206e-05
2.36302e-05
2.36272e-05
2.36206e-05
2.36235e-05
7.11314e-05
2.15473e-05
2.15496e-05
7.10033e-05
2.15474e-05
2.15497e-05
7.5034e-05
7.30566e-05
6.18345e-05
4.71902e-05
7.28415e-05
4.71774e-05
7.52086e-05
7.50165e-05
7.30437e-05
6.18296e-05
4.71979e-05
4.71852e-05
7.28442e-05
7.51474e-05
7.48045e-05
4.7165e-05
7.22158e-05
6.16781e-05
7.24371e-05
7.46331e-05
4.71785e-05
7.47349e-05
4.71729e-05
7.22191e-05
6.16745e-05
7.46002e-05
4.71861e-05
7.24223e-05
7.11672e-05
2.15442e-05
2.15465e-05
2.15441e-05
2.15464e-05
7.12906e-05
2.3621e-05
2.36238e-05
3.61951e-05
6.96447e-05
4.03517e-05
7.10896e-05
4.03399e-05
7.07561e-05
3.61983e-05
2.0217e-05
6.83235e-05
4.95497e-05
2.02166e-05
6.84461e-05
3.6195e-05
6.94764e-05
4.03328e-05
7.03517e-05
4.0345e-05
3.61918e-05
7.06947e-05
2.02137e-05
6.8614e-05
4.95561e-05
6.84952e-05
2.02141e-05
3.62038e-05
7.1161e-05
4.03465e-05
7.05541e-05
3.62008e-05
7.14852e-05
4.03585e-05
2.02096e-05
4.95656e-05
6.89713e-05
6.88402e-05
2.021e-05
2.0213e-05
6.86784e-05
4.95669e-05
2.02125e-05
6.88142e-05
3.62039e-05
7.07002e-05
7.18565e-05
4.03654e-05
7.15423e-05
4.03535e-05
3.62068e-05
3.62014e-05
4.03463e-05
7.11457e-05
7.05367e-05
3.61983e-05
4.03583e-05
7.14759e-05
2.02078e-05
4.95664e-05
6.89344e-05
6.88217e-05
2.02083e-05
2.02112e-05
6.86608e-05
4.95601e-05
2.02107e-05
6.87766e-05
3.62014e-05
7.07088e-05
4.03652e-05
7.18458e-05
4.03533e-05
7.15247e-05
3.62043e-05
3.61983e-05
6.96676e-05
7.11027e-05
4.03452e-05
7.07707e-05
4.03464e-05
3.62012e-05
2.02192e-05
6.83535e-05
4.9558e-05
6.84745e-05
2.02188e-05
3.61979e-05
6.9453e-05
7.03647e-05
4.03401e-05
7.07079e-05
3.6195e-05
4.03383e-05
2.02159e-05
6.86426e-05
4.95633e-05
6.85251e-05
2.02163e-05
3.6196e-05
6.96562e-05
4.03517e-05
7.11017e-05
4.034e-05
7.07609e-05
3.61991e-05
2.02179e-05
6.83295e-05
4.95571e-05
2.02175e-05
6.84557e-05
3.61958e-05
6.94593e-05
4.03329e-05
7.03586e-05
3.61927e-05
4.0345e-05
7.07005e-05
2.02146e-05
6.86236e-05
4.9554e-05
6.85021e-05
2.0215e-05
3.62043e-05
7.11593e-05
4.03535e-05
7.05242e-05
3.62015e-05
7.14946e-05
4.0352e-05
2.02101e-05
4.95729e-05
6.89627e-05
6.88524e-05
2.02105e-05
2.02134e-05
6.8691e-05
4.95667e-05
2.0213e-05
6.8805e-05
3.62046e-05
7.07203e-05
7.18622e-05
4.03588e-05
7.15359e-05
4.036e-05
3.62073e-05
3.62022e-05
4.03463e-05
7.11497e-05
7.05289e-05
3.61992e-05
4.03583e-05
7.14832e-05
2.02088e-05
4.95645e-05
6.89429e-05
6.88313e-05
2.02091e-05
2.0212e-05
6.86698e-05
4.95677e-05
2.02117e-05
6.87857e-05
3.62023e-05
7.07095e-05
4.03651e-05
7.18542e-05
4.03534e-05
7.15286e-05
3.62052e-05
7.08368e-05
2.15494e-05
2.15528e-05
2.15493e-05
2.15527e-05
7.09704e-05
7.39551e-05
7.09555e-05
4.71431e-05
6.12043e-05
4.71472e-05
7.37761e-05
7.11896e-05
7.39157e-05
7.096e-05
4.71533e-05
6.12087e-05
7.11914e-05
7.37338e-05
4.71578e-05
7.08019e-05
2.15526e-05
2.15559e-05
2.15527e-05
7.06643e-05
2.1556e-05
7.41992e-05
4.71598e-05
6.1338e-05
7.1828e-05
4.71557e-05
7.15781e-05
7.43842e-05
7.416e-05
4.71701e-05
6.1345e-05
7.18117e-05
7.1581e-05
4.7166e-05
7.43395e-05
2.36292e-05
2.36262e-05
2.36183e-05
2.36211e-05
7.11346e-05
2.15461e-05
2.15494e-05
7.1003e-05
2.15462e-05
2.15495e-05
7.50324e-05
7.30678e-05
6.1808e-05
4.71837e-05
7.28202e-05
4.71799e-05
7.52169e-05
7.50019e-05
7.30588e-05
6.18161e-05
4.71938e-05
4.71904e-05
7.28262e-05
7.51686e-05
7.48047e-05
4.71682e-05
7.21994e-05
6.16836e-05
7.24493e-05
7.46199e-05
4.71718e-05
7.47551e-05
4.71787e-05
7.22055e-05
6.16889e-05
7.45848e-05
4.71819e-05
7.2435e-05
7.11657e-05
2.1543e-05
2.15463e-05
2.15428e-05
2.15462e-05
7.12936e-05
2.362e-05
2.36229e-05
3.61963e-05
6.9654e-05
7.10999e-05
4.03451e-05
7.07618e-05
4.03463e-05
3.61992e-05
2.0218e-05
6.83296e-05
4.95526e-05
6.8455e-05
2.02176e-05
3.61959e-05
6.94772e-05
7.0354e-05
4.034e-05
7.07029e-05
3.6193e-05
4.03383e-05
2.02147e-05
6.86229e-05
4.95586e-05
6.85014e-05
2.02151e-05
3.61982e-05
6.96459e-05
7.11073e-05
4.03519e-05
7.07648e-05
4.03401e-05
3.62013e-05
2.02191e-05
6.83502e-05
4.95535e-05
2.02188e-05
6.84726e-05
3.61981e-05
6.94855e-05
7.03569e-05
4.0333e-05
3.61948e-05
7.07172e-05
4.03452e-05
2.02159e-05
6.86407e-05
4.95596e-05
6.85219e-05
2.02162e-05
3.62023e-05
7.1151e-05
4.03534e-05
7.056e-05
3.61995e-05
7.14885e-05
4.0352e-05
2.02089e-05
4.95687e-05
6.89427e-05
6.88305e-05
2.02093e-05
2.02122e-05
6.86696e-05
4.95628e-05
2.02118e-05
6.87852e-05
3.62026e-05
7.07006e-05
7.18547e-05
4.03588e-05
7.15297e-05
4.03599e-05
3.62053e-05
3.62044e-05
7.11611e-05
4.03465e-05
7.05567e-05
3.62014e-05
7.1489e-05
4.03585e-05
2.02101e-05
4.95697e-05
6.89607e-05
6.88492e-05
2.02104e-05
2.02133e-05
6.86889e-05
4.95639e-05
2.0213e-05
6.88027e-05
3.62045e-05
7.07017e-05
7.18581e-05
4.03654e-05
7.15426e-05
4.03535e-05
3.62074e-05
2.3629e-05
2.3626e-05
2.36284e-05
2.36255e-05
7.11304e-05
2.15496e-05
2.15467e-05
7.10062e-05
2.15496e-05
2.15468e-05
7.5003e-05
7.30477e-05
6.1815e-05
4.71935e-05
7.28333e-05
4.71898e-05
7.51645e-05
7.5065e-05
7.30628e-05
6.18154e-05
4.71897e-05
7.283e-05
4.71772e-05
7.51776e-05
7.47541e-05
4.7178e-05
7.22114e-05
6.16902e-05
7.45907e-05
7.24256e-05
4.71817e-05
7.47683e-05
4.7165e-05
7.22081e-05
6.16894e-05
7.46493e-05
7.24397e-05
4.71781e-05
7.11708e-05
2.15464e-05
2.15435e-05
2.15463e-05
2.15434e-05
7.12884e-05
2.36197e-05
2.36227e-05
2.36193e-05
2.36221e-05
0.000173136
0.000173147
0.000149015
0.00017228
0.000172289
0.000191516
0.000192218
7.41228e-05
7.26703e-05
7.26638e-05
8.25983e-05
7.39045e-05
7.28053e-05
7.28231e-05
7.32474e-05
8.25406e-05
7.24532e-05
7.2395e-05
7.22728e-05
7.22865e-05
7.34785e-05
7.32435e-05
8.24548e-05
7.24424e-05
7.24234e-05
7.22257e-05
7.22893e-05
7.34904e-05
7.32316e-05
8.25907e-05
7.23641e-05
7.2481e-05
7.22791e-05
7.22248e-05
7.35064e-05
7.32478e-05
8.24517e-05
7.24302e-05
7.2411e-05
7.3466e-05
7.22709e-05
7.22748e-05
7.41169e-05
7.26753e-05
7.26883e-05
8.2486e-05
7.39088e-05
7.28551e-05
7.28202e-05
7.58701e-05
8.19135e-05
7.4208e-05
7.41461e-05
7.39311e-05
7.3931e-05
7.61029e-05
7.41637e-05
7.26173e-05
7.26561e-05
8.26391e-05
7.28474e-05
7.38943e-05
7.2893e-05
7.58249e-05
8.18618e-05
7.42578e-05
7.41293e-05
7.38627e-05
7.39951e-05
7.61428e-05
7.4152e-05
7.26799e-05
7.26063e-05
8.22699e-05
7.2884e-05
7.38816e-05
7.27684e-05
7.58256e-05
8.202e-05
7.41449e-05
7.42178e-05
7.39786e-05
7.38989e-05
7.61428e-05
7.58672e-05
8.18005e-05
7.41357e-05
7.41494e-05
7.39457e-05
7.39473e-05
7.6093e-05
0.000152107
0.000173992
0.000174001
0.000174851
0.000174863
0.000193623
0.000192921
0.000152112
0.000173993
0.000174004
0.000174852
0.000174864
0.000193624
0.000192922
0.000152101
0.000173987
0.000173997
0.000174848
0.000174859
0.000193619
0.000192916
0.000152108
0.000173989
0.000174001
0.000174849
0.000174861
0.000193619
0.000192917
0.000173136
0.000173148
0.000149018
0.00017228
0.000172291
0.000191517
0.000192219
0.000173131
0.000173143
0.000149005
0.000172274
0.000172284
0.000191511
0.000192214
0.000173134
0.000173146
0.000149012
0.000172276
0.000172289
0.000191512
0.000192215
0.000147994
0.000170572
0.000170581
0.000171426
0.000171438
0.000190812
0.000190108
0.000147999
0.000170573
0.000170584
0.000171427
0.000171438
0.000190813
0.000190109
0.000147987
0.000170567
0.000170577
0.000171421
0.000171433
0.000190807
0.000190103
0.000147996
0.000170569
0.000170582
0.000171423
0.000171436
0.000190808
0.000190105
7.26558e-05
6.67307e-05
6.86905e-05
7.49702e-05
6.84681e-05
7.51245e-05
7.2687e-05
6.8744e-05
6.84748e-05
6.80106e-05
6.58632e-05
6.85329e-05
6.8588e-05
6.81649e-05
7.26297e-05
6.62633e-05
6.77678e-05
7.52328e-05
7.25954e-05
6.79664e-05
7.50649e-05
6.89115e-05
6.87702e-05
6.6221e-05
6.91322e-05
6.9026e-05
6.86272e-05
6.91091e-05
7.26153e-05
6.67633e-05
7.50872e-05
6.86904e-05
7.50295e-05
6.84455e-05
7.27581e-05
6.87069e-05
6.84854e-05
6.79983e-05
6.59058e-05
6.85615e-05
6.85819e-05
6.81743e-05
7.26761e-05
6.62264e-05
7.51408e-05
6.77366e-05
7.2522e-05
7.51713e-05
6.79934e-05
6.89385e-05
6.87676e-05
6.61956e-05
6.90821e-05
6.90392e-05
6.86091e-05
6.90898e-05
7.45616e-05
8.20539e-05
7.32187e-05
7.32229e-05
7.30532e-05
7.30632e-05
7.4778e-05
7.27825e-05
8.28423e-05
7.19056e-05
7.19277e-05
7.26046e-05
7.20728e-05
7.20162e-05
7.27506e-05
6.6326e-05
7.5482e-05
6.48945e-05
7.23657e-05
6.65889e-05
7.54664e-05
6.81402e-05
6.81258e-05
6.52064e-05
6.75901e-05
6.78722e-05
6.73148e-05
6.85529e-05
6.82305e-05
6.66943e-05
6.73539e-05
6.49178e-05
6.75918e-05
6.78835e-05
6.69821e-05
7.23993e-05
6.52883e-05
6.73107e-05
7.52974e-05
6.70224e-05
7.52806e-05
7.28026e-05
7.25928e-05
6.63674e-05
7.53787e-05
6.48334e-05
7.26255e-05
6.65704e-05
7.55826e-05
6.82269e-05
6.81154e-05
6.52193e-05