/*--------------------------------*- C++ -*----------------------------------*\
| =========                 |                                                 |
| \\      /  F ield         | OpenFOAM: The Open Source CFD Toolbox           |
|  \\    /   O peration     | Version:  v1906                                 |
|   \\  /    A nd           | Web:      www.OpenFOAM.com                      |
|    \\/     M anipulation  |                                                 |
\*---------------------------------------------------------------------------*/
FoamFile
{
    version     2.0;
    format      ascii;
    class       volVectorField;
    location    "400";
    object      U;
}
// * * * * * * * * * * * * * * * * * * * * * * * * * * * * * * * * * * * * * //

dimensions      [0 1 -1 0 0 0 0];


internalField   nonuniform List<vector> 
43248
(
(-3.83149e-05 -3.8539e-05 0.104906)
(1.01331e-05 1.76665e-05 0.10828)
(-1.02622e-05 1.77993e-05 0.10828)
(3.83858e-05 -3.83707e-05 0.104907)
(1.78414e-05 1.02626e-05 0.108282)
(1.77726e-05 -1.02454e-05 0.108279)
(-1.77409e-05 1.01931e-05 0.108283)
(-1.77503e-05 -1.02121e-05 0.10828)
(-3.83932e-05 3.8415e-05 0.104906)
(1.01714e-05 -1.77225e-05 0.108282)
(-1.01753e-05 -1.77137e-05 0.108281)
(3.84106e-05 3.84168e-05 0.104906)
(2.27454e-05 2.2736e-05 0.113134)
(-2.27535e-05 2.27576e-05 0.113134)
(2.27354e-05 -2.27374e-05 0.113133)
(-2.27259e-05 -2.27111e-05 0.113133)
(-2.05549e-06 -6.88367e-06 0.070918)
(-6.8819e-06 -2.05572e-06 0.070918)
(-5.14637e-06 -8.26361e-06 0.0870353)
(-8.34128e-06 -5.20653e-06 0.0870365)
(-4.13968e-07 1.26962e-05 0.0909889)
(-1.59473e-06 -1.1409e-05 0.0816206)
(-6.01159e-07 -1.39813e-05 0.0910352)
(3.6923e-07 1.27032e-05 0.0909889)
(1.5548e-06 -1.14548e-05 0.0816204)
(-5.77612e-07 1.12199e-05 0.0815627)
(5.98524e-07 -1.3987e-05 0.0910352)
(1.23374e-07 2.50191e-05 0.0985543)
(-6.77632e-06 -1.34943e-05 0.0926826)
(4.73192e-06 2.77173e-05 0.110831)
(4.87497e-06 2.84611e-05 0.110842)
(-4.73312e-07 -1.71864e-05 0.0986114)
(-1.33257e-07 2.50276e-05 0.0985541)
(-1.06247e-05 1.83908e-05 0.108294)
(6.76087e-06 -1.36472e-05 0.0926828)
(-4.72686e-06 2.77426e-05 0.110831)
(-6.80489e-06 1.93922e-05 0.0926208)
(-4.87912e-06 2.84747e-05 0.110841)
(4.59606e-07 -1.7192e-05 0.0986114)
(2.03714e-06 -6.91378e-06 0.0709176)
(-4.61988e-06 5.6011e-06 0.0708534)
(-4.50232e-05 4.49708e-05 0.104759)
(5.13582e-06 -8.31796e-06 0.0870355)
(8.27308e-06 -5.14839e-06 0.0870373)
(-7.09228e-06 7.45575e-06 0.0869791)
(-7.41394e-06 7.04585e-06 0.0869798)
(6.85046e-06 -2.00645e-06 0.0709187)
(-5.54461e-06 4.55514e-06 0.0708512)
(-1.14551e-05 -1.54336e-06 0.0816211)
(-1.39997e-05 -5.85678e-07 0.0910346)
(-1.37498e-05 -6.78008e-06 0.092684)
(2.77368e-05 4.70342e-06 0.11083)
(-1.71835e-05 -4.55814e-07 0.098611)
(-1.14173e-05 1.5589e-06 0.0816217)
(-1.39922e-05 5.70914e-07 0.0910346)
(2.77228e-05 -4.75043e-06 0.11083)
(-1.36039e-05 6.75489e-06 0.0926838)
(-1.71834e-05 4.60024e-07 0.098611)
(-2.50462e-05 9.74989e-08 0.0985538)
(-1.83334e-05 1.05514e-05 0.108297)
(1.3609e-05 -6.75616e-06 0.092684)
(-2.77465e-05 4.72388e-06 0.110832)
(-1.93152e-05 6.7639e-06 0.0926213)
(-2.84821e-05 4.85963e-06 0.110842)
(1.71602e-05 -4.42002e-07 0.0986108)
(-1.2708e-05 -3.9416e-07 0.0909884)
(1.143e-05 -1.52624e-06 0.0816209)
(-1.11691e-05 5.62057e-07 0.0815617)
(1.39633e-05 -5.83293e-07 0.0910345)
(-2.50434e-05 -1.44976e-07 0.0985541)
(-1.83466e-05 -1.05682e-05 0.108294)
(-2.77292e-05 -4.73248e-06 0.110831)
(1.36215e-05 6.77587e-06 0.0926836)
(-2.84661e-05 -4.87606e-06 0.110841)
(-1.93408e-05 -6.8037e-06 0.0926222)
(1.71479e-05 4.63621e-07 0.0986107)
(-1.27018e-05 3.72014e-07 0.0909886)
(1.14508e-05 1.5447e-06 0.0816209)
(-1.11918e-05 -5.93784e-07 0.0815635)
(1.39535e-05 6.03281e-07 0.0910346)
(-6.83993e-06 2.02705e-06 0.0709192)
(-8.29381e-06 5.19095e-06 0.0870361)
(-5.16302e-06 8.34739e-06 0.0870369)
(-2.04026e-06 6.90898e-06 0.0709181)
(1.10751e-07 -2.50435e-05 0.0985534)
(4.7114e-06 -2.77141e-05 0.11083)
(-6.76965e-06 1.36816e-05 0.0926837)
(4.84806e-06 -2.84524e-05 0.110841)
(-4.78527e-07 1.71664e-05 0.098611)
(-1.15364e-07 -2.5041e-05 0.0985533)
(-1.05318e-05 -1.83075e-05 0.108295)
(-4.71434e-06 -2.7713e-05 0.11083)
(6.79174e-06 1.36689e-05 0.0926836)
(-4.85788e-06 -2.84437e-05 0.11084)
(-6.8507e-06 -1.93401e-05 0.0926215)
(4.18487e-07 1.71579e-05 0.0986109)
(-3.93281e-07 -1.27541e-05 0.0909887)
(-1.52784e-06 1.14631e-05 0.0816208)
(-6.14231e-07 1.3997e-05 0.0910345)
(4.16326e-07 -1.2749e-05 0.0909886)
(1.58519e-06 1.14593e-05 0.0816212)
(-6.57908e-07 -1.11703e-05 0.081563)
(5.29593e-07 1.39862e-05 0.0910347)
(-4.50053e-05 -4.49947e-05 0.104759)
(8.33662e-06 5.17065e-06 0.0870371)
(5.18231e-06 8.33901e-06 0.0870352)
(-7.44707e-06 -7.09254e-06 0.086981)
(-7.12344e-06 -7.42779e-06 0.0869796)
(6.89843e-06 2.03966e-06 0.0709182)
(-5.58259e-06 -4.61807e-06 0.0708545)
(2.06757e-06 6.89483e-06 0.0709179)
(-4.66023e-06 -5.55801e-06 0.070854)
(4.58102e-06 5.52703e-06 0.0708568)
(5.51733e-06 4.63728e-06 0.0708558)
(8.46028e-06 1.38355e-05 0.0912641)
(-8.06918e-06 -2.0428e-05 0.096125)
(7.01335e-06 7.34639e-06 0.086981)
(-3.95898e-06 -7.66645e-06 0.0810014)
(4.47274e-06 6.51042e-06 0.0809463)
(1.4209e-05 2.12225e-05 0.0960748)
(-8.18043e-06 -1.64263e-05 0.0913115)
(1.3767e-05 8.37179e-06 0.0912507)
(-2.06733e-05 -8.30495e-06 0.0961324)
(7.32968e-06 7.03894e-06 0.0869774)
(-7.49882e-06 -3.81774e-06 0.0809994)
(6.4445e-06 4.38112e-06 0.0809385)
(2.12084e-05 1.41627e-05 0.0960657)
(-1.63938e-05 -8.28646e-06 0.0913151)
(5.73957e-06 5.75426e-06 0.083058)
(-5.56528e-06 -4.08191e-06 0.0678218)
(-4.11387e-06 -5.49034e-06 0.0678168)
(5.52716e-06 3.49734e-06 0.067759)
(3.46805e-06 5.47084e-06 0.0677523)
(-6.7484e-06 -6.59873e-06 0.0831104)
(3.43433e-08 -6.74907e-06 0.0762644)
(-6.4897e-07 6.34676e-06 0.078002)
(8.25974e-09 1.26529e-05 0.0894197)
(-6.0959e-07 -1.38946e-05 0.0910402)
(-9.13069e-07 7.05025e-06 0.0762079)
(-4.20025e-07 -7.0202e-06 0.0780505)
(-1.12049e-06 -1.33614e-05 0.0894777)
(-7.33584e-07 6.39679e-06 0.0677447)
(6.23264e-07 1.10893e-05 0.0815634)
(-1.55663e-06 -1.16876e-05 0.0852763)
(-4.87462e-07 9.67765e-06 0.0852116)
(7.21363e-08 -6.64381e-06 0.067819)
(-8.99335e-07 6.99375e-06 0.0762085)
(-4.07756e-07 1.25293e-05 0.090984)
(-4.04938e-07 -7.03746e-06 0.0780505)
(-1.1178e-06 -1.34479e-05 0.0894741)
(-6.37512e-07 6.2973e-06 0.0780021)
(4.34618e-09 1.2497e-05 0.0894162)
(5.44504e-08 -6.7673e-06 0.076265)
(-5.82834e-08 -6.80363e-06 0.0762638)
(6.16413e-07 6.33749e-06 0.0780023)
(-5.00979e-08 1.26934e-05 0.0894199)
(5.96586e-07 -1.3902e-05 0.0910402)
(8.85971e-07 7.09911e-06 0.0762099)
(4.06344e-07 -7.00977e-06 0.0780505)
(1.10279e-06 -1.34118e-05 0.089477)
(7.01146e-07 6.4775e-06 0.0677453)
(-6.06669e-07 1.11192e-05 0.081563)
(1.53977e-06 -1.17395e-05 0.0852749)
(4.85335e-07 9.72217e-06 0.0852113)
(-6.90935e-08 -6.71447e-06 0.0678154)
(-4.71371e-08 -6.7192e-06 0.0678137)
(4.95479e-07 9.82318e-06 0.0852123)
(1.5885e-06 -1.14159e-05 0.0816201)
(7.20506e-07 6.51086e-06 0.0677435)
(1.55895e-06 -1.16957e-05 0.0852759)
(8.72952e-07 7.04712e-06 0.0762105)
(3.70371e-07 1.25357e-05 0.090984)
(3.99453e-07 -7.03826e-06 0.0780505)
(1.09997e-06 -1.34823e-05 0.0894735)
(6.09113e-07 6.29274e-06 0.0780023)
(-4.43651e-08 1.25414e-05 0.0894164)
(-7.24579e-08 -6.8222e-06 0.0762644)
(-4.62006e-06 5.55496e-06 0.0708558)
(2.04667e-06 -6.90561e-06 0.0709154)
(6.60175e-06 -6.63602e-06 0.083111)
(-5.54661e-06 3.51189e-06 0.0677521)
(-3.52237e-06 5.51979e-06 0.0677573)
(-5.84843e-06 5.81311e-06 0.0830586)
(5.51362e-06 -4.10617e-06 0.0678157)
(4.08046e-06 -5.54566e-06 0.067821)
(-8.45806e-06 1.37398e-05 0.0912536)
(8.18175e-06 -2.05902e-05 0.0961275)
(-7.04611e-06 7.34626e-06 0.086978)
(3.85253e-06 -7.56403e-06 0.0809984)
(-1.42312e-05 2.12408e-05 0.0960681)
(-4.44347e-06 6.45579e-06 0.0809396)
(8.25206e-06 -1.63357e-05 0.0913102)
(-1.37659e-05 8.4039e-06 0.0912606)
(2.05458e-05 -8.21748e-06 0.0961306)
(-7.31064e-06 7.00591e-06 0.0869787)
(7.53193e-06 -3.88622e-06 0.081003)
(-6.44671e-06 4.43389e-06 0.080944)
(-2.12074e-05 1.41733e-05 0.0960716)
(1.63181e-05 -8.27029e-06 0.091317)
(8.18427e-06 -1.62579e-05 0.0913135)
(-4.45258e-06 6.5415e-06 0.0809393)
(-1.44081e-05 2.15093e-05 0.0960743)
(5.12482e-06 -8.25427e-06 0.0870367)
(8.05086e-06 -2.04526e-05 0.0961339)
(-8.57243e-06 1.39251e-05 0.0912568)
(3.86525e-06 -7.51218e-06 0.0809983)
(1.62359e-05 -8.20202e-06 0.0913203)
(-6.5386e-06 4.44446e-06 0.0809438)
(-2.14755e-05 1.43447e-05 0.0960779)
(8.20137e-06 -5.13379e-06 0.0870386)
(-1.39527e-05 8.51292e-06 0.0912638)
(7.47762e-06 -3.90073e-06 0.0810029)
(2.04058e-05 -8.08982e-06 0.096137)
(-5.77025e-06 5.7389e-06 0.0830579)
(5.51138e-06 -4.10984e-06 0.0678166)
(4.0869e-06 -5.53808e-06 0.0678219)
(-5.51433e-06 3.48665e-06 0.0677531)
(-3.49434e-06 5.49339e-06 0.0677583)
(6.64649e-06 -6.6767e-06 0.0831103)
(-5.49442e-06 4.55216e-06 0.0708535)
(6.83979e-06 -2.01681e-06 0.0709165)
(6.46438e-06 -6.67332e-07 0.0677459)
(1.10709e-05 6.28943e-07 0.0815633)
(-1.17368e-05 -1.51651e-06 0.085275)
(9.7011e-06 -4.57485e-07 0.0852121)
(-6.71027e-06 9.05292e-08 0.0678158)
(7.05315e-06 -8.61413e-07 0.076211)
(1.25606e-05 -3.74374e-07 0.0909845)
(-1.34722e-05 -1.07908e-06 0.0894734)
(-7.07114e-06 -3.9777e-07 0.0780497)
(1.25449e-05 4.20624e-08 0.0894169)
(6.34617e-06 -6.02166e-07 0.0780038)
(-6.813e-06 8.93709e-08 0.0762645)
(6.40983e-06 7.54171e-07 0.0677446)
(1.10594e-05 -5.86018e-07 0.0815626)
(-1.1697e-05 1.51704e-06 0.0852766)
(9.68668e-06 5.2506e-07 0.0852116)
(-6.65445e-06 -1.12086e-07 0.0678191)
(7.0067e-06 9.21827e-07 0.076209)
(1.25605e-05 4.34973e-07 0.0909846)
(-7.06428e-06 3.78345e-07 0.0780498)
(-1.34359e-05 1.06084e-06 0.089474)
(6.34213e-06 6.56055e-07 0.0780036)
(1.25079e-05 2.89032e-08 0.0894165)
(-6.77006e-06 -1.02773e-07 0.0762651)
(6.80749e-06 8.13295e-08 0.0762633)
(-1.27093e-05 3.6551e-08 0.0894192)
(-6.35226e-06 -6.30286e-07 0.0780017)
(1.38825e-05 -5.85788e-07 0.0910396)
(-7.10113e-06 -8.88132e-07 0.0762093)
(1.34131e-05 -1.08502e-06 0.0894764)
(7.01644e-06 -3.94204e-07 0.0780499)
(-6.47577e-06 -6.86791e-07 0.0677451)
(-1.107e-05 5.90463e-07 0.081562)
(1.17472e-05 -1.50535e-06 0.0852748)
(-9.72228e-06 -4.79465e-07 0.0852109)
(6.72169e-06 9.8512e-08 0.0678154)
(6.7253e-06 7.58491e-08 0.0678137)
(-9.82253e-06 -4.95699e-07 0.0852119)
(1.13825e-05 -1.5586e-06 0.0816206)
(-6.51084e-06 -7.0417e-07 0.0677432)
(1.17033e-05 -1.52722e-06 0.0852758)
(-7.05345e-06 -8.7429e-07 0.0762099)
(-1.25397e-05 -3.92171e-07 0.0909834)
(1.34803e-05 -1.08064e-06 0.0894729)
(7.03227e-06 -3.8417e-07 0.0780499)
(-1.25598e-05 3.46613e-08 0.0894157)
(-6.30424e-06 -6.2282e-07 0.0780018)
(6.82386e-06 9.75717e-08 0.0762639)
(6.7961e-06 -5.69093e-08 0.0762633)
(-6.3468e-06 6.14593e-07 0.0780018)
(-1.26812e-05 -5.0769e-08 0.0894199)
(1.38767e-05 6.09349e-07 0.0910397)
(-7.09089e-06 8.79153e-07 0.0762094)
(7.01003e-06 4.18335e-07 0.07805)
(1.34018e-05 1.10384e-06 0.0894769)
(-6.46718e-06 6.79839e-07 0.0677477)
(-1.10855e-05 -6.24274e-07 0.0815639)
(1.17377e-05 1.53276e-06 0.085276)
(-9.70539e-06 4.60027e-07 0.0852125)
(6.71001e-06 -7.71432e-08 0.0678177)
(6.71337e-06 -5.53039e-08 0.067816)
(-9.80673e-06 4.7638e-07 0.0852135)
(1.14083e-05 1.58154e-06 0.0816207)
(-6.50088e-06 6.97123e-07 0.0677458)
(1.1694e-05 1.55413e-06 0.085277)
(-7.04293e-06 8.6365e-07 0.07621)
(-1.2534e-05 3.69067e-07 0.0909836)
(7.02793e-06 4.06684e-07 0.07805)
(1.34723e-05 1.09758e-06 0.0894734)
(-6.30096e-06 6.02259e-07 0.0780019)
(-1.25284e-05 -4.91844e-08 0.0894164)
(6.81383e-06 -7.76069e-08 0.0762639)
(5.49976e-06 -4.55857e-06 0.0708537)
(1.37173e-05 -8.43427e-06 0.0912535)
(-2.05621e-05 8.21559e-06 0.0961277)
(7.33556e-06 -7.02652e-06 0.0869768)
(-7.53148e-06 3.9233e-06 0.0809981)
(2.12057e-05 -1.4194e-05 0.0960681)
(6.45768e-06 -4.46739e-06 0.0809386)
(-1.6292e-05 8.2868e-06 0.09131)
(8.39257e-06 -1.37442e-05 0.0912605)
(-8.22027e-06 2.05887e-05 0.0961303)
(7.02964e-06 -7.33453e-06 0.0869797)
(-3.83485e-06 7.56824e-06 0.0810031)
(4.40996e-06 -6.44692e-06 0.0809442)
(1.41778e-05 -2.12011e-05 0.0960716)
(-8.22147e-06 1.63236e-05 0.0913167)
(5.7404e-06 -5.75515e-06 0.0830578)
(-4.06793e-06 5.56797e-06 0.067816)
(-5.50099e-06 4.11225e-06 0.0678219)
(3.48442e-06 -5.51596e-06 0.0677523)
(5.49841e-06 -3.4874e-06 0.0677584)
(-6.63365e-06 6.68179e-06 0.0831101)
(4.62011e-06 -5.53471e-06 0.0708567)
(5.59027e-08 6.80519e-06 0.0762633)
(3.9607e-08 -1.27169e-05 0.0894197)
(-6.24468e-07 -6.39895e-06 0.0780033)
(-6.22699e-07 1.39165e-05 0.0910395)
(-8.74199e-07 -7.10722e-06 0.0762096)
(-1.10743e-06 1.34041e-05 0.0894769)
(-4.28103e-07 7.06313e-06 0.0780495)
(-6.58811e-07 -6.46274e-06 0.0677481)
(6.25201e-07 -1.10906e-05 0.0815638)
(-1.51955e-06 1.174e-05 0.0852755)
(-4.54968e-07 -9.72037e-06 0.0852128)
(8.09167e-08 6.70977e-06 0.0678177)
(6.27003e-08 6.71054e-06 0.067816)
(-1.53838e-06 1.17017e-05 0.0852766)
(-8.62821e-07 -7.05377e-06 0.0762103)
(-3.91271e-07 -1.25816e-05 0.0909838)
(-1.10232e-06 1.34838e-05 0.0894732)
(-4.16376e-07 7.078e-06 0.0780496)
(3.49572e-08 -1.25641e-05 0.0894163)
(-6.15561e-07 -6.3485e-06 0.0780034)
(7.19077e-08 6.82187e-06 0.0762639)
(-1.34956e-07 6.7774e-06 0.0762653)
(-2.57954e-08 -1.26813e-05 0.0894188)
(6.4294e-07 -6.40118e-06 0.0780032)
(5.34172e-07 1.39027e-05 0.0910397)
(8.8844e-07 -7.07321e-06 0.0762086)
(1.02111e-06 1.33692e-05 0.0894778)
(3.56849e-07 7.05974e-06 0.0780497)
(6.85586e-07 -6.41365e-06 0.0677432)
(-6.84273e-07 -1.10702e-05 0.0815633)
(1.51083e-06 1.17198e-05 0.0852765)
(4.36086e-07 -9.6673e-06 0.0852106)
(-1.40885e-07 6.66796e-06 0.0678182)
(-1.26312e-07 6.67191e-06 0.0678165)
(4.46218e-07 -9.76991e-06 0.0852116)
(1.61596e-06 1.1419e-05 0.081621)
(7.01114e-07 -6.44724e-06 0.0677414)
(1.52715e-06 1.1676e-05 0.0852774)
(8.72021e-07 -7.02043e-06 0.0762092)
(4.1214e-07 -1.25744e-05 0.0909837)
(1.01676e-06 1.34506e-05 0.0894744)
(3.4565e-07 7.07375e-06 0.0780498)
(-2.30371e-08 -1.25192e-05 0.0894153)
(6.32299e-07 -6.3509e-06 0.0780033)
(-1.5144e-07 6.79295e-06 0.0762659)
(6.61227e-06 6.60716e-06 0.0831113)
(-3.50412e-06 -5.53188e-06 0.0677581)
(-5.53564e-06 -3.50439e-06 0.0677523)
(-5.81633e-06 -5.8085e-06 0.0830591)
(4.0856e-06 5.52775e-06 0.0678216)
(5.53669e-06 4.08364e-06 0.0678156)
(-1.37308e-05 -8.39116e-06 0.0912613)
(2.05775e-05 8.18652e-06 0.0961303)
(-7.33604e-06 -7.04095e-06 0.0869799)
(7.5569e-06 3.85775e-06 0.0810033)
(-2.12123e-05 -1.4183e-05 0.0960721)
(-6.44343e-06 -4.43172e-06 0.0809447)
(1.63157e-05 8.22693e-06 0.0913171)
(-8.41988e-06 -1.37192e-05 0.0912544)
(8.22836e-06 2.05913e-05 0.0961275)
(-7.07536e-06 -7.32169e-06 0.0869785)
(3.88691e-06 7.58225e-06 0.0809979)
(-1.4205e-05 -2.11799e-05 0.0960689)
(-4.46134e-06 -6.46384e-06 0.0809403)
(8.2729e-06 1.63332e-05 0.0913101)
(1.62304e-05 8.15779e-06 0.0913204)
(-6.52999e-06 -4.44255e-06 0.0809445)
(-2.14818e-05 -1.43562e-05 0.0960783)
(8.26177e-06 5.15536e-06 0.0870383)
(-1.39127e-05 -8.50275e-06 0.0912644)
(2.04314e-05 8.06568e-06 0.0961368)
(7.50372e-06 3.87146e-06 0.0810032)
(8.20347e-06 1.62495e-05 0.0913134)
(-4.47365e-06 -6.54843e-06 0.0809401)
(-1.43804e-05 -2.14475e-05 0.0960752)
(5.16756e-06 8.2661e-06 0.0870364)
(-8.53262e-06 -1.39028e-05 0.0912575)
(8.098e-06 2.04483e-05 0.0961339)
(3.89872e-06 7.53075e-06 0.0809978)
(-5.74029e-06 -5.73305e-06 0.0830585)
(4.0935e-06 5.5229e-06 0.0678225)
(5.53449e-06 4.08864e-06 0.0678164)
(-3.47761e-06 -5.50374e-06 0.0677591)
(-5.50484e-06 -3.4798e-06 0.0677533)
(6.65511e-06 6.64771e-06 0.0831106)
(-5.5355e-06 -4.61507e-06 0.0708569)
(6.89482e-06 2.0531e-06 0.0709159)
(-4.65546e-06 -5.51302e-06 0.0708563)
(2.07471e-06 6.88791e-06 0.0709156)
(1.8816e-05 1.88289e-05 0.0974182)
(4.45529e-05 4.45695e-05 0.104745)
(-3.98637e-05 -2.12644e-05 0.101727)
(-2.11357e-05 -3.98862e-05 0.101732)
(4.32423e-05 2.43382e-05 0.101643)
(2.43024e-05 4.32206e-05 0.101636)
(-1.97832e-05 -2.01018e-05 0.0974884)
(-1.8872e-05 1.87956e-05 0.097418)
(-4.45552e-05 4.45032e-05 0.104745)
(3.99387e-05 -2.11935e-05 0.101728)
(2.11978e-05 -3.99785e-05 0.101731)
(-4.32753e-05 2.42875e-05 0.101637)
(-2.43226e-05 4.32345e-05 0.101641)
(1.99934e-05 -1.99851e-05 0.0974888)
(1.87795e-05 -1.88564e-05 0.0974182)
(4.4483e-05 -4.45513e-05 0.104745)
(-2.11791e-05 3.99674e-05 0.101728)
(-3.99869e-05 2.122e-05 0.101731)
(2.42677e-05 -4.32766e-05 0.101637)
(4.32271e-05 -2.43079e-05 0.101641)
(-1.9961e-05 2.00152e-05 0.0974883)
(-1.88097e-05 -1.87858e-05 0.0974188)
(-4.45187e-05 -4.45057e-05 0.104745)
(2.12102e-05 3.99802e-05 0.101731)
(3.9973e-05 2.12191e-05 0.101728)
(-2.42902e-05 -4.32447e-05 0.101642)
(-4.32266e-05 -2.42624e-05 0.101638)
(1.99953e-05 1.99824e-05 0.0974887)
(1.04072e-05 3.15602e-05 0.115005)
(3.15233e-05 1.04048e-05 0.115006)
(1.05534e-05 3.19828e-05 0.114979)
(1.32053e-05 1.3225e-05 0.116309)
(1.3089e-05 1.31128e-05 0.116357)
(-2.31971e-05 2.32004e-05 0.113128)
(-1.04161e-05 3.15647e-05 0.115005)
(-3.15369e-05 1.04282e-05 0.115006)
(-1.05609e-05 3.19975e-05 0.114979)
(-3.19721e-05 1.05725e-05 0.11498)
(-1.32052e-05 1.32348e-05 0.116309)
(-1.30934e-05 1.31178e-05 0.116357)
(3.15314e-05 -1.04171e-05 0.115005)
(1.04173e-05 -3.15128e-05 0.115005)
(1.05713e-05 -3.19472e-05 0.114979)
(1.3213e-05 -1.31786e-05 0.116309)
(1.30901e-05 -1.30689e-05 0.116357)
(-2.31742e-05 -2.3157e-05 0.113127)
(-3.15259e-05 -1.03936e-05 0.115005)
(-1.04086e-05 -3.15049e-05 0.115005)
(-3.19681e-05 -1.05361e-05 0.114979)
(-1.05526e-05 -3.1945e-05 0.114979)
(-1.32037e-05 -1.31738e-05 0.116309)
(-1.30919e-05 -1.3064e-05 0.116357)
(8.86527e-07 -4.1865e-05 0.103364)
(1.60734e-06 2.50003e-05 0.0974892)
(8.59227e-07 5.81854e-05 0.103957)
(-4.71865e-07 -1.69768e-05 0.0986225)
(4.13143e-06 5.77553e-05 0.103208)
(-1.09668e-06 -1.74034e-05 0.0975678)
(6.65088e-07 -3.9997e-05 0.104085)
(8.14731e-06 5.565e-05 0.10154)
(-5.73196e-06 -4.37772e-05 0.0996183)
(6.72567e-06 1.91458e-05 0.0926178)
(-3.54152e-06 -1.83757e-05 0.0954628)
(1.24074e-05 5.27797e-05 0.0995446)
(3.33923e-06 2.17262e-05 0.0953833)
(-2.00308e-06 -4.54616e-05 0.101675)
(4.03575e-06 5.71655e-05 0.103195)
(1.15761e-07 2.46984e-05 0.0985434)
(-1.11834e-06 -1.7613e-05 0.0975581)
(6.39488e-07 -4.0283e-05 0.104071)
(1.5657e-06 2.47041e-05 0.0974799)
(8.28598e-07 5.75155e-05 0.103943)
(8.11022e-07 -4.21425e-05 0.10335)
(-9.45365e-07 -4.18589e-05 0.103363)
(-1.61767e-06 2.50324e-05 0.0974882)
(-8.47704e-07 5.81642e-05 0.103957)
(4.46912e-07 -1.69777e-05 0.0986224)
(-4.12296e-06 5.776e-05 0.103207)
(1.04564e-06 -1.74337e-05 0.0975672)
(-6.98077e-07 -3.99711e-05 0.104085)
(-8.1519e-06 5.56676e-05 0.101538)
(5.65835e-06 -4.377e-05 0.0996184)
(-6.74376e-06 1.91696e-05 0.0926164)
(3.4928e-06 -1.84229e-05 0.0954619)
(-3.34911e-06 2.17549e-05 0.0953817)
(-1.23996e-05 5.28116e-05 0.0995417)
(1.85413e-06 -4.54538e-05 0.101674)
(1.75192e-06 -4.5278e-05 0.101686)
(-3.40394e-06 2.19885e-05 0.0953888)
(-1.25663e-05 5.32838e-05 0.0995507)
(6.74664e-06 -1.34887e-05 0.0926873)
(-8.28612e-06 5.61866e-05 0.10155)
(3.46783e-06 -1.82757e-05 0.0954692)
(5.54358e-06 -4.35989e-05 0.0996276)
(-4.03875e-06 5.71603e-05 0.103194)
(-1.22518e-07 2.47089e-05 0.0985432)
(1.07344e-06 -1.76317e-05 0.0975577)
(-6.69812e-07 -4.02601e-05 0.10407)
(-1.57824e-06 2.47342e-05 0.0974789)
(-8.19855e-07 5.75166e-05 0.103943)
(-8.71355e-07 -4.20936e-05 0.10335)
(1.98782e-05 -1.9871e-05 0.097496)
(3.82446e-05 -3.82292e-05 0.104922)
(-4.36652e-05 2.46271e-05 0.101648)
(-2.46605e-05 4.36205e-05 0.101652)
(3.98322e-05 -2.1013e-05 0.101739)
(-1.91312e-05 1.90526e-05 0.0974249)
(2.10182e-05 -3.98732e-05 0.101742)
(5.56484e-05 8.1709e-06 0.101538)
(-4.38296e-05 -5.70518e-06 0.0996204)
(1.90919e-05 6.73966e-06 0.092617)
(-1.84506e-05 -3.48604e-06 0.0954627)
(5.27811e-05 1.23717e-05 0.0995422)
(2.17263e-05 3.35683e-06 0.0953824)
(-4.54672e-05 -1.79233e-06 0.101675)
(5.72054e-05 4.04234e-06 0.103194)
(2.47322e-05 1.22364e-07 0.0985428)
(-1.76287e-05 -1.07371e-06 0.0975578)
(-4.02315e-05 6.6887e-07 0.10407)
(2.475e-05 1.57646e-06 0.0974791)
(5.75268e-05 8.09885e-07 0.103943)
(-4.20556e-05 8.85389e-07 0.10335)
(5.56637e-05 -8.13104e-06 0.101538)
(-4.37643e-05 5.67786e-06 0.0996186)
(1.91332e-05 -6.69533e-06 0.0926166)
(-1.839e-05 3.4749e-06 0.095463)
(2.17347e-05 -3.30913e-06 0.0953828)
(5.27759e-05 -1.23648e-05 0.0995421)
(-4.54286e-05 1.85398e-06 0.101674)
(5.71933e-05 -4.01252e-06 0.103194)
(2.47281e-05 -9.06039e-08 0.0985431)
(-4.02331e-05 -6.59047e-07 0.10407)
(-1.76036e-05 1.06634e-06 0.097558)
(5.75287e-05 -8.03027e-07 0.103943)
(2.47222e-05 -1.53755e-06 0.0974795)
(-4.20617e-05 -8.77194e-07 0.10335)
(4.1831e-05 9.3901e-07 0.103364)
(-2.50536e-05 1.5812e-06 0.0974876)
(-5.81725e-05 8.12454e-07 0.103957)
(1.69424e-05 -4.27301e-07 0.0986219)
(-5.77848e-05 4.08576e-06 0.103207)
(1.74164e-05 -1.03877e-06 0.097567)
(3.99316e-05 7.11646e-07 0.104085)
(-5.56372e-05 8.14356e-06 0.101539)
(4.378e-05 -5.71558e-06 0.0996203)
(-1.90885e-05 6.70396e-06 0.092617)
(1.84181e-05 -3.48753e-06 0.0954626)
(-5.27518e-05 1.23715e-05 0.0995441)
(-2.17283e-05 3.32715e-06 0.0953817)
(4.5443e-05 -1.89226e-06 0.101675)
(4.52739e-05 -1.79994e-06 0.101688)
(-2.19662e-05 3.37928e-06 0.0953888)
(-5.32264e-05 1.25342e-05 0.0995532)
(1.34541e-05 -6.74819e-06 0.0926885)
(-5.61662e-05 8.27279e-06 0.101551)
(4.35817e-05 -5.59556e-06 0.0996296)
(1.82721e-05 -3.47607e-06 0.09547)
(-5.72088e-05 4.01082e-06 0.103194)
(-2.4726e-05 8.55665e-08 0.0985429)
(1.762e-05 -1.06288e-06 0.0975575)
(4.02126e-05 6.80187e-07 0.10407)
(-2.47545e-05 1.54162e-06 0.0974783)
(-5.75284e-05 7.82324e-07 0.103943)
(4.20658e-05 8.66789e-07 0.103351)
(4.18291e-05 -9.3665e-07 0.103363)
(-5.818e-05 -8.68778e-07 0.103957)
(-2.50202e-05 -1.61424e-06 0.0974887)
(1.69318e-05 4.57685e-07 0.0986218)
(-5.7761e-05 -4.1296e-06 0.103207)
(3.99335e-05 -6.68111e-07 0.104084)
(1.7394e-05 1.04989e-06 0.0975673)
(-5.56557e-05 -8.16198e-06 0.101539)
(4.37894e-05 5.70538e-06 0.0996195)
(-1.91143e-05 -6.74379e-06 0.0926178)
(1.84145e-05 3.50945e-06 0.095463)
(-2.17223e-05 -3.35633e-06 0.095383)
(-5.27673e-05 -1.23762e-05 0.0995441)
(4.54501e-05 1.87997e-06 0.101675)
(4.52854e-05 1.78227e-06 0.101687)
(-2.19549e-05 -3.40169e-06 0.0953901)
(-5.32491e-05 -1.25411e-05 0.099553)
(1.34735e-05 6.76606e-06 0.092688)
(-5.61834e-05 -8.29212e-06 0.101551)
(1.82669e-05 3.4877e-06 0.0954703)
(4.36213e-05 5.59504e-06 0.0996289)
(-5.71718e-05 -4.04495e-06 0.103195)
(-2.47189e-05 -1.30812e-07 0.0985432)
(4.02185e-05 -6.35894e-07 0.10407)
(1.7596e-05 1.07527e-06 0.0975578)
(-5.75224e-05 -8.37084e-07 0.103943)
(-2.47252e-05 -1.57536e-06 0.0974794)
(4.20721e-05 -8.61256e-07 0.10335)
(9.20483e-07 4.18336e-05 0.103363)
(8.22725e-07 -5.81639e-05 0.103957)
(1.60522e-06 -2.50377e-05 0.097488)
(-4.76296e-07 1.69522e-05 0.098622)
(4.08731e-06 -5.78029e-05 0.103207)
(6.74788e-07 3.99345e-05 0.104084)
(-1.06901e-06 1.74222e-05 0.0975674)
(8.13995e-06 -5.56918e-05 0.101539)
(-5.72016e-06 4.38204e-05 0.0996203)
(6.74945e-06 -1.91222e-05 0.0926177)
(-3.51092e-06 1.84461e-05 0.0954631)
(1.23707e-05 -5.27515e-05 0.099544)
(3.36453e-06 -2.17426e-05 0.095383)
(-1.90167e-06 4.55025e-05 0.101675)
(-1.78839e-06 4.52898e-05 0.101688)
(-3.48272e-06 1.82968e-05 0.0954704)
(4.0061e-06 -5.72068e-05 0.103194)
(9.573e-08 -2.47205e-05 0.0985425)
(6.52382e-07 4.02157e-05 0.10407)
(-1.10056e-06 1.76262e-05 0.0975578)
(8.0012e-07 -5.75072e-05 0.103943)
(1.55594e-06 -2.4734e-05 0.0974788)
(8.46077e-07 4.21088e-05 0.10335)
(-9.61696e-07 4.1824e-05 0.103363)
(-8.39635e-07 -5.81845e-05 0.103957)
(-1.62448e-06 -2.50033e-05 0.0974876)
(4.16971e-07 1.69406e-05 0.0986219)
(-4.10235e-06 -5.7772e-05 0.103207)
(-7.09804e-07 3.99448e-05 0.104084)
(1.00457e-06 1.73837e-05 0.0975674)
(-8.13922e-06 -5.55955e-05 0.101538)
(5.70732e-06 4.3816e-05 0.0996191)
(-6.78269e-06 -1.91053e-05 0.0926171)
(3.49526e-06 1.8419e-05 0.0954629)
(-3.38911e-06 -2.16899e-05 0.0953819)
(-1.23921e-05 -5.27401e-05 0.0995427)
(1.86109e-06 4.54684e-05 0.101675)
(1.76756e-06 4.52987e-05 0.101687)
(-3.45033e-06 -2.19289e-05 0.095389)
(-1.25595e-05 -5.3214e-05 0.0995517)
(6.77847e-06 1.35165e-05 0.092688)
(-8.2749e-06 -5.61267e-05 0.10155)
(3.4634e-06 1.82671e-05 0.0954701)
(5.59222e-06 4.36439e-05 0.0996284)
(-4.01929e-06 -5.71675e-05 0.103194)
(-1.0885e-07 -2.47162e-05 0.0985424)
(-6.79106e-07 4.02172e-05 0.104069)
(1.02949e-06 1.75854e-05 0.0975579)
(-8.11342e-07 -5.75218e-05 0.103943)
(-1.57948e-06 -2.46998e-05 0.0974783)
(-8.89098e-07 4.20685e-05 0.10335)
(1.98771e-05 1.98611e-05 0.0974958)
(3.82536e-05 3.82572e-05 0.104921)
(-2.46308e-05 -4.36357e-05 0.101652)
(-4.36091e-05 -2.45958e-05 0.101648)
(-1.90675e-05 -1.90467e-05 0.0974257)
(2.10167e-05 3.98618e-05 0.101742)
(3.98562e-05 2.10287e-05 0.101739)
(6.10457e-05 6.1023e-05 0.108908)
(-9.17107e-05 5.689e-05 0.107966)
(5.69222e-05 -9.18016e-05 0.107966)
(-0.000146125 -0.000146196 0.106635)
(9.82312e-06 9.7275e-06 0.106791)
(5.74025e-05 9.21616e-05 0.107918)
(-5.74645e-05 9.23123e-05 0.107918)
(-9.71246e-06 9.72712e-06 0.106792)
(9.2353e-05 5.74122e-05 0.107919)
(9.23384e-05 -5.74438e-05 0.107918)
(-9.22062e-05 5.72024e-05 0.107919)
(-9.22706e-05 -5.73006e-05 0.107918)
(9.76404e-06 -9.68209e-06 0.106791)
(5.72159e-05 -9.22856e-05 0.107919)
(-5.71724e-05 -9.21378e-05 0.107919)
(-9.647e-06 -9.63816e-06 0.106791)
(0.000146143 0.000146164 0.106634)
(7.14161e-06 7.1365e-06 0.10683)
(5.70766e-05 9.18013e-05 0.107966)
(-5.71572e-05 9.1823e-05 0.107965)
(5.62054e-05 8.99705e-05 0.1081)
(-5.62561e-05 9.02865e-05 0.1081)
(-0.00014617 0.000146099 0.106634)
(-6.95443e-06 6.96758e-06 0.106831)
(9.17501e-05 5.6961e-05 0.107966)
(9.18451e-05 -5.71385e-05 0.107965)
(9.03718e-05 5.6316e-05 0.108101)
(9.03031e-05 -5.62476e-05 0.1081)
(-9.17715e-05 -5.69879e-05 0.107965)
(-9.01539e-05 5.60072e-05 0.108101)
(-9.02162e-05 -5.60936e-05 0.1081)
(0.000146141 -0.000146228 0.106634)
(7.00101e-06 -6.90769e-06 0.10683)
(-5.6858e-05 -9.16407e-05 0.107966)
(5.60349e-05 -9.02558e-05 0.108101)
(-5.59637e-05 -9.0096e-05 0.108101)
(-6.88743e-06 -6.90022e-06 0.10683)
(6.13599e-05 6.13473e-05 0.108832)
(-6.13786e-05 6.12948e-05 0.108832)
(6.13156e-05 -6.13714e-05 0.108832)
(-6.13433e-05 -6.1335e-05 0.108832)
(1.14856e-06 1.07876e-05 0.0940545)
(-1.50582e-06 3.26667e-05 0.0835753)
(1.85002e-06 5.77582e-05 0.094078)
(-4.20537e-06 -4.83139e-06 0.0835803)
(-3.59925e-06 1.48292e-05 0.0721604)
(5.49272e-06 -5.56863e-06 0.0721978)
(1.07492e-05 1.19392e-06 0.0940534)
(3.27173e-05 -1.47655e-06 0.0835761)
(5.78677e-05 1.96255e-06 0.0940779)
(-4.87284e-06 -4.13648e-06 0.0835794)
(-6.10671e-05 6.09831e-05 0.108908)
(6.1007e-05 -6.10684e-05 0.108908)
(-6.10295e-05 -6.10227e-05 0.108908)
(6.01266e-05 6.01448e-05 0.109132)
(-6.01349e-05 6.00628e-05 0.109132)
(6.00776e-05 -6.01365e-05 0.109132)
(-6.00937e-05 -6.00938e-05 0.109132)
(-4.89778e-05 3.94708e-06 0.102491)
(-6.49636e-05 2.62745e-05 0.0957153)
(-0.000101811 2.00664e-05 0.108605)
(-9.12042e-05 5.65851e-05 0.108012)
(-0.000111151 5.62946e-06 0.102466)
(-2.15317e-05 -3.69347e-07 0.0957344)
(-0.000101455 1.99132e-05 0.108671)
(1.47143e-05 -3.55253e-06 0.0721573)
(-5.59497e-06 5.44765e-06 0.0721997)
(3.89043e-06 -4.89912e-05 0.102491)
(2.01109e-05 -0.000101759 0.108605)
(2.63252e-05 -6.49806e-05 0.0957161)
(5.66306e-05 -9.12963e-05 0.108012)
(5.67872e-06 -0.000111179 0.102465)
(1.99632e-05 -0.00010139 0.108671)
(-4.24345e-07 -2.13801e-05 0.0957328)
(-3.18199e-05 -1.74016e-05 0.0893934)
(-1.72834e-05 -3.19025e-05 0.0893917)
(-8.24489e-06 -8.24152e-06 0.106814)
(-1.07159e-05 2.96769e-06 0.0893985)
(3.14298e-06 -1.07985e-05 0.089396)
(-5.57182e-06 -5.4225e-06 0.0722794)
(3.48475e-06 1.5132e-05 0.0722396)
(-5.42319e-06 -5.53697e-06 0.0722768)
(1.51855e-05 3.57045e-06 0.07224)
(0.000147898 0.000147957 0.106613)
(-2.80168e-06 1.19737e-05 0.0895313)
(1.18015e-05 -2.83454e-06 0.0895287)
(1.77714e-05 3.30026e-05 0.0895284)
(3.31094e-05 1.77888e-05 0.0895261)
(2.06174e-06 6.05782e-05 0.0942448)
(-4.38151e-06 -4.08663e-06 0.0836964)
(-1.72976e-06 3.38578e-05 0.0836949)
(1.33892e-06 1.29527e-05 0.0942169)
(-2.27406e-06 6.05833e-05 0.094245)
(4.28567e-06 -4.15806e-06 0.0836952)
(1.66896e-06 3.38714e-05 0.0836962)
(-1.43667e-06 1.2972e-05 0.0942169)
(6.05282e-06 0.000114861 0.102598)
(5.77e-05 9.27812e-05 0.10787)
(1.07248e-07 2.3581e-05 0.0958845)
(2.02632e-05 0.000102073 0.108539)
(2.72478e-05 6.73704e-05 0.0958683)
(2.04051e-05 0.000102441 0.108472)
(4.46803e-06 5.21227e-05 0.102625)
(-6.27336e-06 0.000114888 0.102598)
(-5.7753e-05 9.27957e-05 0.10787)
(-1.76543e-07 2.33887e-05 0.0958832)
(-2.0293e-05 0.000102116 0.108539)
(-2.73834e-05 6.74263e-05 0.0958686)
(-2.04377e-05 0.000102461 0.108472)
(-4.5723e-06 5.21127e-05 0.102625)
(5.55603e-06 -5.4102e-06 0.0722769)
(-3.60968e-06 1.51634e-05 0.0722413)
(-0.000147908 0.000147823 0.106613)
(2.81726e-06 1.18307e-05 0.0895287)
(-1.18729e-05 -2.78375e-06 0.0895319)
(-1.78003e-05 3.30582e-05 0.0895275)
(-3.29748e-05 1.77923e-05 0.0895281)
(5.4859e-06 -5.51223e-06 0.0722794)
(-1.51034e-05 3.54069e-06 0.0722391)
(6.06531e-05 2.1733e-06 0.0942448)
(-4.1769e-06 -4.27276e-06 0.0836955)
(3.38898e-05 -1.69773e-06 0.0836956)
(1.29496e-05 1.40913e-06 0.0942157)
(0.00011489 6.15614e-06 0.102597)
(9.27411e-05 5.75772e-05 0.10787)
(2.33673e-05 1.63318e-07 0.0958838)
(0.000102105 2.02623e-05 0.108539)
(6.74172e-05 2.73263e-05 0.095868)
(0.000102477 2.04071e-05 0.108472)
(5.20998e-05 4.54652e-06 0.102625)
(6.06568e-05 -2.11427e-06 0.094245)
(-4.13861e-06 4.31479e-06 0.0836964)
(3.38364e-05 1.65942e-06 0.0836942)
(1.29652e-05 -1.45436e-06 0.0942157)
(0.000114885 -6.13433e-06 0.102598)
(9.28322e-05 -5.7734e-05 0.10787)
(0.000102084 -2.02776e-05 0.108539)
(2.34166e-05 -2.03032e-07 0.0958844)
(0.000102447 -2.04095e-05 0.108472)
(6.73416e-05 -2.73242e-05 0.0958672)
(5.20763e-05 -4.55006e-06 0.102625)
(-0.000114922 6.11063e-06 0.102597)
(-9.26978e-05 5.74884e-05 0.10787)
(-2.34999e-05 2.02998e-07 0.0958858)
(-0.000102172 2.02224e-05 0.108539)
(-6.73401e-05 2.73313e-05 0.0958686)
(-0.000102535 2.03727e-05 0.108472)
(-5.2168e-05 4.53889e-06 0.102625)
(-6.06649e-05 2.14305e-06 0.0942441)