/*--------------------------------*- C++ -*----------------------------------*\
| =========                 |                                                 |
| \\      /  F ield         | OpenFOAM: The Open Source CFD Toolbox           |
|  \\    /   O peration     | Version:  v1906                                 |
|   \\  /    A nd           | Web:      www.OpenFOAM.com                      |
|    \\/     M anipulation  |                                                 |
\*---------------------------------------------------------------------------*/
FoamFile
{
    version     2.0;
    format      ascii;
    class       volScalarField;
    location    "300";
    object      nut;
}
// * * * * * * * * * * * * * * * * * * * * * * * * * * * * * * * * * * * * * //

dimensions      [0 2 -1 0 0 0 0];


internalField   nonuniform List<scalar> 
171728
(
0.000136825
0.000138617
0.000138615
0.000136732
0.000138635
0.000138624
0.000138629
0.000138649
0.000136766
0.000138641
0.000138656
0.000136757
0.000122353
0.000122351
0.000122369
0.000122387
2.36121e-05
2.36116e-05
7.37268e-05
7.37319e-05
9.1821e-05
5.00146e-05
9.20482e-05
9.18279e-05
5.00191e-05
5.00036e-05
9.20533e-05
0.000120661
9.38116e-05
0.000133968
0.000133121
0.0001213
0.000120667
0.000137832
9.38175e-05
0.000133967
9.35175e-05
0.000133116
0.000121304
2.36118e-05
2.36074e-05
0.000136031
7.37302e-05
7.37248e-05
7.36261e-05
7.36241e-05
2.36124e-05
2.3608e-05
5.00132e-05
9.20669e-05
9.38219e-05
0.000133984
0.000121306
5.00094e-05
9.20626e-05
0.000133986
9.37919e-05
0.000121312
0.000120667
0.000137847
9.38063e-05
0.000133977
9.35375e-05
0.00013313
0.000121319
9.18237e-05
5.00172e-05
5.00056e-05
9.2053e-05
0.000120666
0.000137867
0.000133995
9.38129e-05
0.000133145
9.35342e-05
0.000121314
9.18237e-05
5.00119e-05
5.00028e-05
9.20473e-05
2.36098e-05
7.37128e-05
7.37286e-05
2.36116e-05
0.000120671
0.000134
9.38247e-05
0.000133155
0.000121312
0.000120678
0.000137874
0.000134016
9.38255e-05
0.000133165
9.35269e-05
0.000121313
9.18206e-05
5.00119e-05
9.20655e-05
9.18338e-05
5.00149e-05
4.99998e-05
9.20563e-05
0.000136074
7.3732e-05
7.37307e-05
7.36322e-05
7.36326e-05
2.36115e-05
2.36072e-05
2.36112e-05
2.36068e-05
2.36103e-05
2.36093e-05
9.72579e-05
0.000112663
7.37032e-05
4.79382e-05
4.79316e-05
0.000112498
9.73076e-05
9.72908e-05
0.000112668
7.36966e-05
4.79332e-05
4.79281e-05
0.000112485
9.73485e-05
7.88223e-05
2.14921e-05
2.14902e-05
2.14903e-05
2.14878e-05
7.88388e-05
3.62667e-05
4.05365e-05
8.80234e-05
9.19213e-05
3.62652e-05
4.05354e-05
8.81021e-05
2.01019e-05
5.00127e-05
7.60338e-05
7.5991e-05
2.0104e-05
3.62685e-05
9.19462e-05
4.05392e-05
8.82006e-05
4.05403e-05
8.81237e-05
3.627e-05
3.62685e-05
4.05365e-05
8.80361e-05
9.19245e-05
3.62669e-05
4.05358e-05
8.8117e-05
2.01029e-05
5.00109e-05
7.60582e-05
7.60147e-05
2.01049e-05
2.01035e-05
7.597e-05
5.00118e-05
2.01015e-05
7.60103e-05
3.62699e-05
9.19431e-05
4.05408e-05
8.82206e-05
4.05394e-05
8.81326e-05
3.62721e-05
2.36097e-05
2.36095e-05
7.87966e-05
2.14863e-05
2.14888e-05
7.87764e-05
2.14884e-05
2.14909e-05
9.7272e-05
0.000112641
7.36938e-05
4.7934e-05
0.000112492
4.79245e-05
9.73242e-05
9.72609e-05
0.00011265
7.36923e-05
4.79419e-05
4.79324e-05
0.000112509
9.731e-05
9.71974e-05
4.79164e-05
0.000112246
7.36649e-05
0.000112399
9.71475e-05
4.7926e-05
9.7184e-05
4.79243e-05
0.000112263
7.36576e-05
9.71341e-05
4.79339e-05
0.000112408
7.88187e-05
2.149e-05
2.14926e-05
2.14879e-05
2.14905e-05
7.88411e-05
2.36103e-05
2.36101e-05
2.01032e-05
5.00109e-05
7.60563e-05
7.60157e-05
2.01052e-05
3.62695e-05
9.19493e-05
8.82271e-05
4.05394e-05
8.81274e-05
4.05398e-05
3.62725e-05
2.01014e-05
5.00065e-05
7.60301e-05
7.59854e-05
2.01035e-05
3.62663e-05
9.19414e-05
4.05429e-05
8.82071e-05
4.05358e-05
8.81113e-05
3.62703e-05
3.62692e-05
8.80414e-05
4.05318e-05
9.19282e-05
3.62669e-05
8.81144e-05
4.05389e-05
2.01035e-05
5.00104e-05
7.60602e-05
7.60158e-05
2.01055e-05
2.01041e-05
7.59686e-05
5.00083e-05
2.01021e-05
7.60136e-05
3.62704e-05
9.19519e-05
8.82127e-05
4.05424e-05
8.81396e-05
4.05357e-05
3.62724e-05
3.6267e-05
4.05319e-05
8.80324e-05
9.19259e-05
3.6265e-05
4.05382e-05
8.81062e-05
2.01024e-05
5.001e-05
7.60388e-05
7.59991e-05
2.01044e-05
2.0103e-05
7.59525e-05
5.00047e-05
2.01011e-05
7.59922e-05
3.62685e-05
9.19478e-05
4.05405e-05
8.82042e-05
4.05375e-05
8.81326e-05
3.62701e-05
2.36077e-05
9.72676e-05
0.000112646
7.36853e-05
4.79276e-05
0.000112487
4.7926e-05
9.73195e-05
9.72601e-05
0.000112673
7.36983e-05
4.79391e-05
4.79374e-05
0.000112502
9.73105e-05
7.88191e-05
2.1489e-05
2.14924e-05
2.14869e-05
2.14903e-05
7.88421e-05
2.36096e-05
3.62684e-05
8.80209e-05
4.0532e-05
9.19401e-05
3.6264e-05
8.81178e-05
4.0539e-05
2.01026e-05
5.00092e-05
7.60375e-05
7.59975e-05
2.01046e-05
2.01032e-05
7.59909e-05
3.62672e-05
9.19444e-05
8.82182e-05
4.0543e-05
8.81196e-05
4.05358e-05
3.62718e-05
3.62695e-05
8.80357e-05
4.05322e-05
9.19324e-05
3.62665e-05
8.81163e-05
4.05392e-05
2.01033e-05
5.00077e-05
7.60535e-05
7.60105e-05
2.01054e-05
2.0104e-05
7.59638e-05
5.00084e-05
2.01019e-05
7.60078e-05
3.627e-05
9.19536e-05
8.82136e-05
4.05423e-05
8.81334e-05
4.05361e-05
3.62727e-05
7.87965e-05
2.1489e-05
2.14861e-05
7.87783e-05
2.1491e-05
2.14881e-05
9.72562e-05
0.000112658
7.37e-05
4.79427e-05
0.000112502
4.79333e-05
9.73122e-05
9.72776e-05
0.000112652
7.36994e-05
4.79301e-05
0.000112501
4.79285e-05
9.73258e-05
9.71878e-05
4.79251e-05
0.000112254
7.36636e-05
9.71303e-05
0.000112423
4.79348e-05
9.72005e-05
4.79173e-05
0.000112253
7.36626e-05
9.7151e-05
0.000112411
4.79242e-05
7.88225e-05
2.14927e-05
2.14898e-05
2.14906e-05
2.14877e-05
7.88404e-05
2.36095e-05
2.36093e-05
2.36091e-05
2.36089e-05
0.000119498
0.000136547
0.000129803
0.000129807
0.000129676
0.000129673
0.000119594
0.000119497
0.000136663
0.000129838
0.000129795
0.000129669
0.000129692
0.000119593
0.000119492
0.000136667
0.0001298
0.000129818
0.000129672
0.000129668
0.000119614
0.000119499
0.000136666
0.000129808
0.000129812
0.000129694
0.000129702
0.000119598
0.000120218
0.000120227
0.000120021
0.000132111
0.000131825
0.000121715
0.00012022
0.000120232
0.000120008
0.000120014
0.000132123
0.000131809
0.000120234
0.000120248
0.000120031
0.000132124
0.000131809
0.000121747
0.000120243
0.000120255
0.000120022
0.000120034
0.00013213
0.000131806
0.00013227
0.000117026
0.000134168
0.00012096
0.000132148
0.000117274
0.000134224
0.000128523
0.000122102
9.36825e-05
0.000107732
0.00012201
0.000107527
0.000128582
0.000132724
0.000121008
0.000117576
0.000134771
0.00011733
0.000134747
0.000132793
0.000132264
0.000117034
0.000134194
0.000120962
0.000132265
0.000117286
0.000134227
0.000128356
0.000122173
9.36714e-05
0.000107736
0.000107526
0.00012196
0.000128763
0.000128279
0.000107295
0.000121596
9.36688e-05
0.000127925
0.000107505
0.000121806
0.000132779
0.00012101
0.000117587
0.000134783
0.000117336
0.000134769
0.000132841
0.000119314
0.000136086
0.000129242
0.000129245
0.000129359
0.000119232
0.000129355
0.000128381
0.000122186
9.36745e-05
0.000107728
0.000121969
0.000107539
0.000128775
0.000132812
0.000121012
0.000117585
0.00013477
0.00011734
0.000134737
0.00013278
0.000128471
0.000122137
9.3675e-05
0.000107723
0.000107517
0.000121945
0.000128656
0.000132725
0.000121002
0.000134947
0.000117581
0.000134649
0.000117312
0.000132892
0.000132449
0.000117023
0.00013401
0.000120976
0.000132012
0.000117296
0.000134457
0.000128515
0.00012211
9.3687e-05
0.00010774
0.000122008
0.000107535
0.000128571
0.000128111
0.000107306
0.000121654
9.36532e-05
0.000128076
0.000121746
0.0001075
0.000132536
0.000121011
0.000117596
0.000135045
0.000117329
0.000134567
0.000132972
0.000132252
0.000134072
0.000117036
0.000120974
0.000132248
0.000134412
0.000117285
0.000128508
0.00012218
9.36831e-05
0.000107724
0.000107533
0.000121987
0.000128653
0.000128147
0.000107299
0.000121598
9.36602e-05
0.000128098
0.000107506
0.000121783
0.00013277
0.00012101
0.00013502
0.000117585
0.000134597
0.000117343
0.000132783
0.000132425
0.000134165
0.000117017
0.000120972
0.000132
0.000134256
0.000117291
0.000128484
0.000122167
9.36782e-05
0.00010772
0.000121997
0.000107532
0.000128615
0.000128211
0.000107492
0.000132628
0.000121015
0.00013478
0.000117591
0.000134749
0.000117322
0.0001329
0.000132385
0.00013419
0.000117043
0.000120976
0.000132172
0.000134262
0.000117299
0.000128435
0.00012214
9.36818e-05
0.000107741
0.000107536
0.000122016
0.000128719
0.000128217
0.000107305
0.000121643
9.36688e-05
0.000128012
0.000107509
0.000121764
0.000132714
0.000121024
0.000134798
0.000117603
0.000134766
0.000117343
0.000132972
0.000119322
0.000136134
0.000129247
0.00012926
0.000119234
0.000129366
0.000129387
0.000196482
0.000194941
0.000194902
0.000177815
0.00017831
0.000177899
0.0001784
0.000194843
0.000194813
0.0001954
0.000195361
0.00017794
0.00017842
0.000194858
0.000194779
0.000195413
0.000195332
0.000194772
0.000195467
0.00019532
0.000177878
0.000178428
0.000194783
0.000195441
0.000195338
0.000178324
0.000195422
0.000195441
9.96061e-05
5.06365e-05
5.06386e-05
9.95535e-05
2.38315e-05
2.38341e-05
9.95593e-05
5.06325e-05
5.06347e-05
9.95185e-05
0.000196294
0.000196273
0.00019622
0.000197439
0.000197278
0.000197264
0.000197208
0.000142417
0.000103113
0.000202664
0.000195105
0.000103177
0.000202879
0.000142288
2.38276e-05
2.38302e-05
0.000142397
0.000202608
0.000103123
0.00019507
0.000202827
0.000103186
0.000142265
7.77878e-05
7.78084e-05
0.000178075
7.78095e-05
7.78337e-05
7.78281e-05
7.78609e-05
2.38318e-05
2.38343e-05
2.38307e-05
2.38332e-05
7.78281e-05
7.78362e-05
0.000178146
7.78468e-05
7.78538e-05
2.38367e-05
2.38341e-05
2.38351e-05
2.38328e-05
0.000178172
7.78722e-05
7.78645e-05
7.78478e-05
7.78465e-05
9.96134e-05
5.0637e-05
5.06398e-05
9.95596e-05
0.000142486
0.000103128
0.000202554
0.000195025
0.00010318
0.000202793
0.000142367
0.000142503
0.000103132
0.00020252
0.000194993
0.000103202
0.000202767
0.000142364
9.96045e-05
5.06441e-05
5.0641e-05
9.96585e-05
9.96149e-05
5.06454e-05
5.06419e-05
9.96632e-05
0.000142504
0.000195198
0.000103222
0.000203291
0.000103171
0.000203007
0.000142648
0.000142525
0.000195158
0.000103268
0.000203261
0.000103194
0.000202974
0.000142669
7.78406e-05
7.78271e-05
0.000178177
7.78643e-05
7.7845e-05
2.38321e-05
2.38347e-05
2.38362e-05
2.38338e-05
0.000178201
7.78822e-05
7.78688e-05
7.78614e-05
7.78451e-05
2.38371e-05
2.38345e-05
0.000142395
0.000103135
0.000202543
0.000195037
0.000103173
0.000202779
0.000142267
9.95542e-05
5.06247e-05
5.06265e-05
9.9511e-05
0.000142403
0.000202496
0.000103054
0.000194962
0.000202741
0.000103108
0.000142267
9.95641e-05
5.06395e-05
5.06323e-05
9.95983e-05
0.00014242
0.000195213
0.000103206
0.000203274
0.000103175
0.000202994
0.000142512
9.95613e-05
5.0631e-05
5.06295e-05
9.95875e-05
0.000142393
0.000195128
0.000203233
0.000103145
0.000202948
0.000103092
0.0001425
9.95718e-05
5.06317e-05
5.06377e-05
9.95279e-05
0.000142408
0.000202549
0.000103065
0.000194952
0.000202788
0.000103123
0.000142275
9.95651e-05
5.06276e-05
5.06292e-05
9.95188e-05
0.000142424
0.000195286
0.000103223
0.000203368
0.000103163
0.000203109
0.00014254
9.9574e-05
5.06435e-05
5.06407e-05
9.96123e-05
0.000142439
0.000195118
0.000203276
0.00010317
0.000202997
0.000103112
0.000142554
9.95697e-05
5.06353e-05
5.06323e-05
9.96095e-05
7.77864e-05
7.78306e-05
0.00017817
7.78062e-05
7.78505e-05
2.38311e-05
2.38336e-05
2.38326e-05
2.38299e-05
0.000178118
7.78342e-05
7.78733e-05
7.78064e-05
7.78504e-05
2.38358e-05
2.38334e-05
0.000142392
0.000202518
0.000103088
0.000194966
0.000202759
0.000103154
0.000142286
9.95533e-05
5.06284e-05
5.06344e-05
9.95216e-05
9.95625e-05
5.06273e-05
5.06335e-05
9.95238e-05
0.000142429
0.000195254
0.000203324
0.000103252
0.000203061
0.000103179
0.00014251
0.000142419
0.000195133
0.000203254
0.000103206
0.000202973
0.000103143
0.000142516
9.95537e-05
5.06376e-05
5.06319e-05
9.95938e-05
9.95665e-05
5.06381e-05
5.06357e-05
9.96037e-05
2.38284e-05
2.38311e-05
2.38296e-05
2.38323e-05
0.000178081
7.78319e-05
7.78577e-05
7.78042e-05
7.78318e-05
2.38335e-05
2.38309e-05
2.38347e-05
2.38321e-05
0.000203392
0.000103168
0.000142541
5.06353e-05
9.96106e-05
0.000103209
5.06384e-05
2.38333e-05
2.38345e-05
3.66201e-05
4.09495e-05
9.43176e-05
9.9583e-05
4.09467e-05
9.4295e-05
3.66218e-05
2.02677e-05
5.06351e-05
7.9025e-05
7.9033e-05
2.02659e-05
2.0267e-05
7.90425e-05
5.06346e-05
7.90286e-05
2.02686e-05
3.66199e-05
9.95769e-05
4.09447e-05
9.42776e-05
4.0946e-05
9.43019e-05
3.66178e-05
2.38329e-05
2.38327e-05
3.662e-05
9.42979e-05
4.09453e-05
9.95365e-05
9.42823e-05
4.09448e-05
3.66213e-05
2.0268e-05
5.06303e-05
7.90293e-05
7.90391e-05
2.02663e-05
2.02673e-05
7.90479e-05
5.06347e-05
7.90345e-05
2.02689e-05
3.66196e-05
9.95411e-05
9.42621e-05
4.09426e-05
9.42841e-05
4.09426e-05
3.66179e-05
2.3829e-05
2.38288e-05
8.14866e-05
2.16614e-05
2.16588e-05
2.16598e-05
2.16572e-05
8.14954e-05
0.000104864
0.000127609
7.77938e-05
4.85528e-05
0.000127633
4.85543e-05
0.000104836
0.00010488
0.000127626
7.78138e-05
4.85451e-05
0.000127667
4.85477e-05
0.000104863
0.000104864
4.85584e-05
7.7795e-05
0.000127692
0.000127665
4.85545e-05
0.000104891
0.000104885
4.8551e-05
7.78189e-05
0.000127718
0.000127678
4.85479e-05
0.000104897
8.14894e-05
2.16589e-05
2.16562e-05
2.16605e-05
2.16578e-05
8.14802e-05
0.000104944
0.000127771
4.85634e-05
7.78326e-05
0.000104914
0.000127787
4.85629e-05
0.00010498
0.000127866
4.85562e-05
7.78692e-05
0.000104949
0.000127886
4.85566e-05
8.15145e-05
2.16626e-05
2.16599e-05
8.15052e-05
2.16642e-05
2.16615e-05
2.38331e-05
2.3833e-05
2.38321e-05
2.38318e-05
8.15247e-05
2.16635e-05
2.16602e-05
2.16619e-05
2.16587e-05
8.15339e-05
0.000104941
0.000127706
7.78344e-05
4.85604e-05
4.85616e-05
0.000127741
0.00010492
0.000104943
0.000127717
7.78481e-05
4.85497e-05
4.85506e-05
0.000127738
0.00010492
0.000104944
4.85652e-05
7.78377e-05
0.000127797
4.85619e-05
0.000104964
0.00012776
0.000104946
4.8553e-05
7.7841e-05
0.000127776
4.85524e-05
0.000104967
0.00012775
8.1527e-05
2.1661e-05
2.16578e-05
2.16626e-05
2.16594e-05
8.15174e-05
2.38353e-05
2.38355e-05
2.38338e-05
2.38341e-05
8.15419e-05
2.16629e-05
2.16596e-05
8.15324e-05
2.16644e-05
2.16611e-05
0.000104987
0.000127885
7.7865e-05
4.85687e-05
4.8569e-05
0.000127852
0.000105006
0.000104987
0.000127864
7.78572e-05
4.85569e-05
4.85568e-05
0.000127827
0.000104998
0.00010499
4.85666e-05
0.000127799
7.78604e-05
0.000104966
4.85664e-05
0.000127839
0.000104994
4.85542e-05
0.000127782
7.78591e-05
0.000104965
4.85551e-05
0.000127825
8.15402e-05
2.16653e-05
2.1662e-05
2.16637e-05
2.16604e-05
8.15497e-05
3.66222e-05
4.09492e-05
9.43471e-05
9.95836e-05
4.09472e-05
9.43201e-05
3.6624e-05
2.02687e-05
5.06359e-05
7.90491e-05
7.90611e-05
2.0267e-05
2.02681e-05
7.90715e-05
5.06356e-05
7.90571e-05
2.02697e-05
3.6622e-05
9.95894e-05
4.09454e-05
9.43094e-05
4.09463e-05
9.43274e-05
3.66202e-05
3.66238e-05
4.0949e-05
9.43171e-05
9.96318e-05
3.66221e-05
4.09512e-05
9.43346e-05
2.02688e-05
5.06407e-05
7.9055e-05
2.02704e-05
7.90453e-05
2.02695e-05
7.90351e-05
5.06417e-05
2.02678e-05
7.905e-05
3.66239e-05
9.96318e-05
4.09545e-05
9.43495e-05
3.66256e-05
4.09528e-05
9.43276e-05
3.6626e-05
4.09503e-05
9.4346e-05
9.96381e-05
3.66242e-05
4.09516e-05
9.43675e-05
2.02699e-05
5.06422e-05
7.90878e-05
7.90751e-05
2.02715e-05
2.02706e-05
7.90629e-05
5.06435e-05
2.0269e-05
7.90802e-05
3.66264e-05
9.96466e-05
4.09543e-05
9.43893e-05
4.09531e-05
9.43706e-05
3.66277e-05
8.15345e-05
2.1661e-05
2.16638e-05
2.16596e-05
2.16623e-05
8.15409e-05
0.000104992
0.000127721
7.78466e-05
4.85527e-05
4.85541e-05
0.000127749
0.000104974
0.000104985
0.000127754
7.78328e-05
4.85614e-05
0.000127767
4.85622e-05
0.000104969
0.000104997
4.85569e-05
7.78496e-05
0.000127801
4.85552e-05
0.000127763
0.000105006
0.000104974
4.85643e-05
7.78361e-05
0.00012779
0.000127767
4.85635e-05
0.000104979
8.15397e-05
2.16589e-05
2.16616e-05
2.16604e-05
2.16631e-05
8.15331e-05
2.38335e-05
2.38333e-05
2.38349e-05
2.38352e-05
8.15415e-05
2.16602e-05
2.16629e-05
8.15355e-05
2.16617e-05
2.16644e-05
0.000105006
0.000127896
7.78717e-05
4.85608e-05
0.000127861
4.85591e-05
0.000105026
0.000104979
0.000127858
7.78598e-05
4.85685e-05
4.85671e-05
0.000127832
0.000104988
0.000105024
4.85568e-05
0.000127809
7.78723e-05
0.000127847
0.000105008
4.85588e-05
0.000104994
4.8565e-05
0.000127791
7.78573e-05
0.000104979
4.85663e-05
0.000127826
8.15365e-05
2.16623e-05
2.1665e-05
2.16608e-05
2.16636e-05
8.15426e-05
2.38357e-05
2.38359e-05
3.66163e-05
4.09458e-05
9.4262e-05
9.95272e-05
4.09424e-05
9.42418e-05
3.66179e-05
2.02657e-05
5.06232e-05
7.89919e-05
7.90014e-05
2.02639e-05
2.0265e-05
7.9011e-05
5.06226e-05
7.89961e-05
2.02666e-05
3.66162e-05
9.95322e-05
4.09418e-05
9.4229e-05
4.09434e-05
9.42501e-05
3.66143e-05
3.66233e-05
9.4293e-05
4.09473e-05
9.95889e-05
3.66216e-05
9.43143e-05
4.09476e-05
2.02692e-05
5.06364e-05
7.9061e-05
2.02707e-05
7.90489e-05
2.02698e-05
7.90396e-05
5.0638e-05
2.02682e-05
7.90543e-05
3.66235e-05
9.95824e-05
9.4328e-05
4.09499e-05
3.66249e-05
9.43042e-05
4.09495e-05
3.66197e-05
4.09459e-05
9.42609e-05
9.95785e-05
3.66182e-05
4.09474e-05
9.42757e-05
2.02668e-05
5.06322e-05
7.90212e-05
7.90092e-05
2.02684e-05
2.02675e-05
7.90021e-05
5.06286e-05
2.02659e-05
7.9013e-05
3.66199e-05
9.95722e-05
4.09493e-05
9.42887e-05
4.09493e-05
9.42706e-05
3.66214e-05
3.66221e-05
9.43169e-05
4.09484e-05
9.95551e-05
9.42942e-05
4.09438e-05
3.66238e-05
2.02694e-05
5.06345e-05
7.90428e-05
7.90565e-05
2.02677e-05
2.02688e-05
7.90654e-05
5.06389e-05
7.90514e-05
2.02704e-05
3.6622e-05
9.95503e-05
9.42863e-05
4.09416e-05
9.43026e-05
4.09461e-05
3.66202e-05
3.66184e-05
4.09469e-05
9.42981e-05
9.95419e-05
4.09463e-05
9.42778e-05
3.662e-05
2.02668e-05
5.06255e-05
7.90069e-05
7.90167e-05
2.02652e-05
2.02662e-05
7.90272e-05
5.06305e-05
7.90145e-05
2.02678e-05
3.6618e-05
9.95429e-05
4.09436e-05
9.42554e-05
4.0943e-05
9.42781e-05
3.66161e-05
3.66257e-05
9.43179e-05
4.09475e-05
9.9594e-05
3.66242e-05
9.43322e-05
4.095e-05
2.02708e-05
5.06441e-05
7.90822e-05
7.90678e-05
2.02724e-05
2.02715e-05
7.90619e-05
5.064e-05
2.02698e-05
7.90747e-05
3.66261e-05
9.95908e-05
9.43483e-05
4.09528e-05
9.43315e-05
4.09512e-05
3.66275e-05
3.66221e-05
4.09489e-05
9.42908e-05
9.95888e-05
3.66203e-05
4.09491e-05
9.43144e-05
2.02682e-05
5.06357e-05
7.90412e-05
7.90301e-05
2.02698e-05
2.02689e-05
7.90212e-05
5.0632e-05
2.02672e-05
7.90353e-05
3.66225e-05
9.95887e-05
4.09505e-05
9.43306e-05
4.09512e-05
9.43144e-05
3.6624e-05
8.15126e-05
2.16592e-05
2.16629e-05
2.16576e-05
2.16613e-05
8.15216e-05
0.00010492
0.00012763
7.77917e-05
4.85457e-05
4.85467e-05
0.000127665
0.000104898
0.000104945
0.000127714
7.78391e-05
4.85603e-05
0.000127748
4.85617e-05
0.000104914
0.000104924
4.85496e-05
7.7796e-05
0.000127715
4.85485e-05
0.000127678
0.000104945
0.00010494
4.85651e-05
7.78423e-05
0.000127795
0.000127761
4.85625e-05
0.000104968
8.15157e-05
2.16567e-05
2.16604e-05
2.16583e-05
2.1662e-05
8.15063e-05
2.38324e-05
2.38323e-05
2.38312e-05
2.38314e-05
8.15284e-05
2.16585e-05
2.16622e-05
8.1519e-05
2.16601e-05
2.16637e-05
0.000104975
0.000127815
7.78203e-05
4.85554e-05
0.000127777
4.85525e-05
0.000104986
0.00010499
0.000127896
7.78641e-05
4.85697e-05
4.85675e-05
0.000127854
0.000105009
0.000104978
4.855e-05
0.000127722
7.78186e-05
0.000127761
0.000104947
4.85529e-05
0.000104996
4.85646e-05
0.000127799
7.78618e-05
0.000104965
4.85672e-05
0.000127843
8.15255e-05
2.1661e-05
2.16645e-05
2.16594e-05
2.1663e-05
8.15346e-05
2.38345e-05
2.38347e-05
3.66195e-05
9.42854e-05
4.09475e-05
9.95302e-05
9.42692e-05
4.09453e-05
3.66209e-05
2.02679e-05
5.063e-05
7.90147e-05
7.90247e-05
2.02662e-05
2.02672e-05
7.90325e-05
5.0634e-05
7.90185e-05
2.02688e-05
3.66192e-05
9.95372e-05
9.42464e-05
4.09437e-05
9.42787e-05
4.09449e-05
3.66174e-05
3.66211e-05
9.42871e-05
4.09484e-05
9.95411e-05
9.42708e-05
4.09451e-05
3.66227e-05
2.02682e-05
5.06302e-05
7.90199e-05
7.90297e-05
2.02665e-05
2.02675e-05
7.90385e-05
5.06298e-05
7.90259e-05
2.02691e-05
3.66208e-05
9.95469e-05
9.42599e-05
4.0944e-05
9.42715e-05
4.0946e-05
3.66191e-05
3.66228e-05
9.42879e-05
4.0948e-05
9.95728e-05
3.66212e-05
9.43004e-05
4.09496e-05
2.0269e-05
5.06403e-05
7.90489e-05
7.90362e-05
2.02706e-05
2.02697e-05
7.90262e-05
5.06365e-05
2.02681e-05
7.90411e-05
3.66229e-05
9.9573e-05
9.43117e-05
4.09522e-05
9.42931e-05
4.09505e-05
3.66244e-05
3.66245e-05
9.42817e-05
4.09485e-05
9.95807e-05
3.66228e-05
9.43002e-05
4.09499e-05
2.02693e-05
5.06389e-05
7.90526e-05
7.90414e-05
2.0271e-05
2.02701e-05
7.90323e-05
5.06352e-05
2.02684e-05
7.90451e-05
3.66248e-05
9.95892e-05
9.43141e-05
4.09526e-05
9.43002e-05
4.09514e-05
3.66262e-05
2.38299e-05
2.38297e-05
2.3831e-05
2.38309e-05
8.15019e-05
2.16608e-05
2.16581e-05
8.14928e-05
2.16624e-05
2.16597e-05
0.0001049
0.000127766
7.78169e-05
4.85625e-05
0.00010491
0.000127728
4.85607e-05
0.000104926
0.000127844
7.78449e-05
4.85548e-05
0.000104942
0.000127798
4.85548e-05
0.00010491
4.85572e-05
0.000127687
7.782e-05
0.000104882
0.000127726
4.85601e-05
0.000104924
4.8553e-05
0.000127726
7.78422e-05
0.000104905
0.000127777
4.85516e-05
8.14991e-05
2.16633e-05
2.16606e-05
8.15079e-05
2.16617e-05
2.1659e-05
2.38321e-05
2.38323e-05
2.38334e-05
2.38335e-05
2.02708e-05
7.90368e-05
5.06355e-05
2.02691e-05
7.90456e-05
3.66256e-05
9.9626e-05
4.09516e-05
9.43294e-05
3.66246e-05
4.09521e-05
9.43548e-05
5.06378e-05
2.38346e-05
2.38359e-05
0.000190468
0.000190467
0.000196762
0.000190807
0.000190806
0.000178123
0.000177693
0.000136909
0.000159034
0.000158971
0.00017795
0.0001591
0.000159026
0.000136884
0.0001371
0.000159377
0.000159355
0.000178441
0.000137074
0.000159384
0.000159416
0.000137014
0.000159082
0.00015909
0.000178024
0.000159105
0.000159155
0.000136985
0.000137147
0.000178297
0.000159378
0.000159373
0.000159369
0.000159359
0.000137159
0.000137133
0.000159144
0.000159168
0.000178064
0.000159238
0.000159205
0.000137099
0.000137219
0.000178314
0.000159393
0.000159449
0.000159366
0.000159399
0.000137242
0.000137006
0.000159046
0.000159083
0.000178032
0.000159125
0.000159116
0.000136979
0.000137146
0.000178243
0.000159379
0.00015944
0.000159325
0.000159375
0.000137169
0.000137033
0.000178195
0.000159344
0.000159271
0.000137046
0.000159291
0.000159252
0.000190203
0.000190206
0.000196613
0.0001906
0.000190593
0.000177655
0.000177268
0.000190201
0.000190172
0.000196596
0.000190597
0.000190561
0.000177646
0.000177259
0.000190149
0.000190121
0.000196545
0.000190551
0.000190526
0.000177561
0.000177167
0.000197067
0.000191674
0.000191672
0.000191171
0.000191168
0.000178516
0.000179003
0.000196866
0.000191449
0.000191437
0.000190902
0.000190885
0.000178143
0.000178549
0.000196851
0.000191447
0.000191411
0.000190901
0.00019086
0.000178135
0.000178543
0.00019679
0.000191392
0.000191372
0.000190834
0.000190812
0.000178041
0.000178456
0.000168229
0.000136234
0.00017311
0.000142348
0.000136198
0.000173029
0.000168294
0.000158364
0.000145672
0.000103139
0.000121809
0.000145723
0.000121847
0.000158243
0.000158325
0.000121889
0.000103151
0.000145793
0.000145759
0.000121852
0.000158468
0.000168156
0.000142349
0.000136122
0.000172919
0.000136171
0.000172999
0.000168109
0.000168133
0.00017306
0.000136196
0.000142333
0.000172986
0.000136139
0.000168124
0.000158218
0.00014565
0.000103153
0.000121782
0.000145656
0.000121828
0.000158199
0.000158298
0.000121871
0.000103156
0.000145729
0.000145712
0.000121831
0.000158309
0.000168031
0.000142328
0.000172841
0.00013611
0.000172907
0.000136137
0.000167981
0.000136943
0.000177945
0.000159121
0.000159096
0.000159104
0.000159081
0.00013696
0.000137042
0.000178031
0.000159258
0.000159191
0.000137063
0.000159195
0.000159164
0.000137121
0.000178279
0.000159282
0.000159265
0.00013709
0.000159344
0.00015929
0.0001681
0.000136231
0.000173174
0.000142439
0.000136195
0.000173072
0.000168268
0.000158302
0.000145636
0.000103144
0.00012181
0.000121832
0.000145642
0.000158182
0.000158255
0.00012187
0.000103149
0.000145774
0.000121834
0.00014573
0.000158396
0.000168151
0.000142407
0.000136121
0.000172939
0.000136167
0.000173033
0.000168025
0.000168184
0.000136291
0.000173177
0.000142431
0.000136239
0.000173076
0.000168298
0.000158271
0.000145643
0.000103165
0.000121814
0.000121857
0.000145689
0.000158163
0.000158271
0.000121913
0.000103165
0.000145757
0.000121867
0.000158352
0.000145712
0.000168135
0.000142421
0.000136175
0.000172943
0.000136212
0.000173032
0.000168066
0.0001684
0.000136258
0.000173184
0.000142567
0.000168217
0.000136303
0.000173302
0.000158485
0.000145866
0.000103201
0.00012195
0.000145824
0.000121915
0.000158551
0.000158464
0.000121861
0.00014579
0.000103202
0.000145831
0.000158353
0.000121902
0.000168344
0.000142576
0.000136352
0.000173424
0.000136294
0.000173317
0.000168424
0.000168433
0.000136296
0.000173192
0.000142593
0.000168232
0.000136364
0.000173311
0.000158418
0.000145911
0.000103231
0.000122011
0.000121966
0.000145863
0.000158585
0.000158481
0.000121916
0.000145789
0.000103234
0.000158371
0.000121965
0.000145836
0.000168322
0.000142618
0.000136447
0.000173434
0.000136387
0.000173323
0.00016848
0.00013714
0.000178066
0.000159258
0.000159277
0.000159256
0.000159217
0.000137148
0.000137217
0.000178307
0.000159295
0.000159351
0.000159312
0.000137192
0.000159405
0.000168089
0.000136186
0.000173075
0.000142336
0.000136131
0.000172994
0.000168167
0.000158277
0.000145624
0.000103152
0.000121788
0.000121822
0.000145643
0.000158173
0.000158318
0.000121863
0.000103156
0.000145753
0.000121831
0.000145694
0.000158378
0.000168045
0.000142321
0.00013608
0.000172856
0.000136132
0.000172935
0.000168003
0.000168056
0.000173088
0.00013615
0.000142336
0.000172978
0.000136088
0.000168177
0.000158193
0.000145544
0.000103072
0.000121713
0.000121747
0.000145612
0.000158094
0.000158166
0.000121793
0.000103087
0.000145659
0.000121757
0.000158308
0.000145627
0.00016801
0.000142321
0.000172849
0.000136036
0.000172945
0.000136098
0.000167925
0.000168246
0.000136188
0.000173117
0.000142451
0.000168222
0.000136241
0.000173212
0.000158516
0.000145852
0.000103182
0.000121941
0.000145853
0.000121907
0.000158568
0.000158481
0.000121881
0.000145767
0.000103192
0.00014583
0.000158418
0.000121901
0.000168349
0.000142483
0.000136297
0.000173331
0.000136242
0.000173236
0.000168337
0.000168284
0.00017309
0.000136137
0.000142447
0.00016811
0.000173211
0.000136192
0.000158329
0.000145822
0.000103118
0.000121871
0.000121837
0.00014578
0.000158444
0.00015841
0.000121777
0.000145688
0.000103123
0.000158244
0.000121825
0.000145694
0.000168211
0.000142456
0.000173325
0.000136248
0.000173217
0.00013621
0.000168393
0.000168099
0.000173112
0.000136188
0.000142347
0.00017303
0.000136127
0.00016823
0.000158263
0.000145565
0.000103093
0.000121764
0.00014561
0.000121787
0.000158118
0.000158224
0.000121834
0.000103091
0.000145673
0.000145631
0.000121803
0.000158327
0.000168145
0.000142329
0.000172893
0.000136094
0.000172981
0.000136131
0.000167978
0.000168401
0.000136252
0.000173155
0.000142488
0.000168339
0.000136293
0.000173246
0.000158505
0.000145918
0.000103197
0.000121969
0.000158575
0.000145864
0.00012193
0.000158519
0.000121904
0.000145798
0.0001032
0.000158397
0.000145849
0.000121934
0.000168433
0.00014249
0.000136329
0.000173369
0.000168528
0.000136281
0.00017327
0.000168302
0.00017315
0.000136211
0.000142475
0.000168227
0.000173242
0.000136253
0.000158424
0.000145778
0.000103145
0.000121909
0.000121873
0.000145762
0.000158503
0.000158401
0.00012184
0.000145701
0.000103147
0.000158322
0.000121878
0.000145744
0.000168369
0.000142495
0.000173364
0.000136311
0.000173268
0.000136252
0.000168411
0.000137022
0.000177994
0.000159204
0.000159212
0.000159184
0.000159135
0.000137071
0.000137129
0.000178303
0.000159212
0.000159298
0.000159239
0.000137089
0.000159363
0.000168083
0.000173085
0.000136181
0.000142328
0.000172994
0.000136119
0.000168141
0.000158175
0.000145547
0.000103118
0.000121753
0.000145611
0.000121798
0.000158149
0.000158252
0.000121853
0.000103128
0.000145661
0.000145631
0.000121805
0.000158268
0.000168031
0.000142337
0.000172857
0.000136094
0.000172942
0.000136118
0.000167951
0.000168255
0.000173117
0.00013619
0.000142464
0.000168252
0.000173214
0.000136239
0.000158448
0.000145917
0.000103223
0.00012194
0.000158535
0.000145877
0.000121908
0.000158443
0.000121883
0.00014577
0.000103213
0.000158401
0.00014582
0.000121909
0.000168375
0.000142492
0.00017334
0.000136283
0.000168412
0.000173237
0.000136256
0.00016821
0.000173113
0.000136176
0.00014247
0.000168208
0.000173218
0.000136229
0.00015841
0.000145854
0.000103178
0.000121925
0.000121884
0.000145811
0.000158486
0.000158353
0.000121848
0.000145708
0.000103178
0.000158344
0.000121896
0.000145772
0.000168331
0.00014247
0.00017331
0.000136283
0.000173239
0.000136233
0.000168314
0.000137011
0.000178213
0.000159215
0.000159186
0.000136986
0.000159273
0.000159247
0.000158582
0.000145845
0.000121912
0.000103185
0.000145875
0.000158495
0.000121938
0.00016851
0.000142583
0.000173371
0.000136299
0.000173479
0.000168461
0.000136344
0.000145853
0.000103229
0.000145909
0.000123067
0.000139419
0.000139431
0.000137257
0.000125863
0.000142542
0.000142551
0.000139612
0.000128817
0.000145626
0.000145633
0.00014198
0.000131907
0.000148664
0.000148671
0.000144272
0.000135113
0.000151655
0.00015166
0.000146568
0.000138415
0.000154593
0.000154598
0.000148745
0.000141792
0.000157474
0.000157478
0.000150945
0.000145228
0.000160296
0.0001603
0.000153177
0.000148704
0.000163059
0.000163064
0.000155206
0.000152205
0.00016576
0.000165767
0.000157209
0.000155716
0.000168398
0.000168404
0.000159134
0.00015922
0.000170971
0.000170975
0.000160997
0.000162701
0.00017347
0.00017347
0.000162834
0.00016614
0.000175878
0.000175877
0.000164631
0.000169515
0.000178187
0.000178183
0.000166256
0.000172804
0.000180389
0.000180383
0.000167772
0.00017598
0.000182468
0.000182459
0.000169178
0.000179022
0.000184416
0.000184404
0.000170533
0.000181906
0.000186226
0.00018621
0.00017175
0.000184611
0.000187898
0.000187876
0.000172873
0.000187125
0.000189434
0.000189408
0.000174021
0.000189435
0.000190821
0.000190795
0.000175007
0.000191531
0.000192066
0.000192034