/*--------------------------------*- C++ -*----------------------------------*\
| =========                 |                                                 |
| \\      /  F ield         | OpenFOAM: The Open Source CFD Toolbox           |
|  \\    /   O peration     | Version:  v1912                                 |
|   \\  /    A nd           | Website:  www.openfoam.com                      |
|    \\/     M anipulation  |                                                 |
\*---------------------------------------------------------------------------*/
FoamFile
{
    version     2.0;
    format      ascii;
    class       volScalarField;
    location    "0.8";
    object      nut;
}
// * * * * * * * * * * * * * * * * * * * * * * * * * * * * * * * * * * * * * //

dimensions      [0 2 -1 0 0 0 0];


internalField   nonuniform List<scalar> 
171728
(
5.89232e-07
6.42496e-07
6.42868e-07
2.50895e-07
3.89331e-08
4.75806e-08
4.77581e-08
6.63748e-08
2.95531e-09
4.12244e-09
4.11589e-09
6.46309e-08
7.29021e-10
2.54405e-09
2.52371e-09
6.46928e-08
7.30852e-10
2.40672e-09
2.41231e-09
6.46965e-08
7.29014e-10
2.40596e-09
2.40802e-09
6.46965e-08
7.18102e-10
2.41152e-09
2.40601e-09
6.46966e-08
7.30139e-10
2.41161e-09
2.40977e-09
6.4697e-08
7.34835e-10
2.40885e-09
2.40226e-09
6.46982e-08
7.30674e-10
2.40895e-09
2.40705e-09
6.46969e-08
7.32734e-10
2.40673e-09
2.40898e-09
6.46979e-08
7.41445e-10
2.40383e-09
2.40754e-09
6.4698e-08
7.48182e-10
2.42788e-09
2.40903e-09
6.46978e-08
7.51536e-10
2.43146e-09
2.40732e-09
6.46976e-08
7.27216e-10
2.40125e-09
2.41002e-09
6.4698e-08
7.30917e-10
2.40561e-09
2.40653e-09
6.46983e-08
7.38297e-10
2.40907e-09
2.40789e-09
6.46987e-08
7.31495e-10
2.40371e-09
2.4087e-09
6.4698e-08
7.34103e-10
2.3969e-09
2.40754e-09
6.46977e-08
7.12892e-10
2.42051e-09
2.40245e-09
6.46933e-08
8.15114e-10
2.41262e-09
2.40746e-09
6.47002e-08
7.33903e-10
2.4127e-09
2.40918e-09
6.47002e-08
7.36623e-10
2.41059e-09
2.40904e-09
6.47007e-08
7.36249e-10
2.41065e-09
2.40934e-09
6.47005e-08
7.38212e-10
2.41047e-09
2.40948e-09
6.47005e-08
7.37334e-10
2.41047e-09
2.40887e-09
6.47007e-08
7.36881e-10
2.41098e-09
2.40949e-09
6.47007e-08
7.37658e-10
2.40989e-09
2.40841e-09
6.47004e-08
7.37271e-10
2.41036e-09
2.40888e-09
6.47002e-08
7.37665e-10
2.41109e-09
2.40972e-09
6.47005e-08
7.36397e-10
2.41035e-09
2.40879e-09
6.47007e-08
7.37462e-10
2.40769e-09
2.40863e-09
6.47003e-08
7.38196e-10
2.41225e-09
2.40998e-09
6.47003e-08
7.36897e-10
2.41094e-09
2.40957e-09
6.47005e-08
7.36897e-10
2.41103e-09
2.40965e-09
6.47006e-08
7.37868e-10
2.41139e-09
2.41073e-09
6.47002e-08
7.37879e-10
2.41185e-09
2.41121e-09
6.47008e-08
7.37753e-10
2.41108e-09
2.41045e-09
6.47013e-08
7.37755e-10
2.41121e-09
2.41578e-09
6.47009e-08
7.53769e-10
2.41869e-09
2.41592e-09
6.46866e-08
8.83909e-10
2.39164e-09
2.41121e-09
6.47002e-08
7.37503e-10
2.4107e-09
2.40438e-09
6.47009e-08
7.40137e-10
2.41068e-09
2.40345e-09
6.47009e-08
7.41085e-10
2.40956e-09
2.40447e-09
6.47014e-08
7.42814e-10
2.40931e-09
2.40769e-09
6.47015e-08
7.41472e-10
2.40829e-09
2.40444e-09
6.47017e-08
7.41111e-10
2.4086e-09
2.40873e-09
6.47018e-08
7.41084e-10
2.40862e-09
2.41079e-09
6.47021e-08
7.41245e-10
2.40951e-09
2.41176e-09
6.47018e-08
7.4143e-10
2.40883e-09
2.4111e-09
6.47015e-08
7.41611e-10
2.40873e-09
2.41174e-09
6.47017e-08
7.41889e-10
2.40853e-09
2.4098e-09
6.47018e-08
7.42696e-10
2.40925e-09
2.41056e-09
6.47016e-08
7.43151e-10
2.41704e-09
2.41104e-09
6.47015e-08
7.44796e-10
2.40773e-09
2.41244e-09
6.47012e-08
7.41847e-10
2.40766e-09
2.40873e-09
6.46982e-08
7.41354e-10
2.41067e-09
2.40811e-09
6.46918e-08
7.41139e-10
2.41034e-09
2.40739e-09
6.46918e-08
7.40926e-10
2.41079e-09
2.40799e-09
6.4692e-08
7.41107e-10
2.411e-09
2.40744e-09
6.46921e-08
7.41526e-10
2.41153e-09
2.40907e-09
6.4692e-08
7.40833e-10
2.41129e-09
2.40825e-09
6.46924e-08
7.40652e-10
2.41133e-09
2.40833e-09
6.46917e-08
7.41731e-10
2.41109e-09
2.4083e-09
6.46916e-08
7.41308e-10
2.41156e-09
2.40857e-09
6.46918e-08
7.4067e-10
2.41062e-09
2.40763e-09
6.46914e-08
7.4067e-10
2.41015e-09
2.40717e-09
6.46914e-08
7.39825e-10
2.41022e-09
2.40752e-09
6.46916e-08
7.3603e-10
2.40899e-09
2.40749e-09
6.46924e-08
7.30833e-10
2.41071e-09
2.38918e-09
6.46946e-08
7.36379e-10
2.41264e-09
2.40375e-09
6.46895e-08
7.40966e-10
2.41095e-09
2.40802e-09
6.46912e-08
7.4085e-10
2.41109e-09
2.40779e-09
6.46918e-08
7.41372e-10
2.41089e-09
2.40721e-09
6.46908e-08
7.42045e-10
2.41153e-09
2.40749e-09
6.46905e-08
7.41579e-10
2.41069e-09
2.40682e-09
6.46902e-08
7.41373e-10
2.41097e-09
2.40695e-09
6.46913e-08
7.41096e-10
2.41099e-09
2.40736e-09
6.46905e-08
7.41567e-10
2.41022e-09
2.40723e-09
6.46904e-08
7.41834e-10
2.41202e-09
2.40907e-09
6.46909e-08
7.41211e-10
2.41038e-09
2.40742e-09
6.46909e-08
7.41024e-10
2.41052e-09
2.40757e-09
6.46908e-08
7.41174e-10
2.41115e-09
2.40818e-09
6.46906e-08
7.43003e-10
2.41093e-09
2.40797e-09
6.46908e-08
7.42447e-10
2.41076e-09
2.40779e-09
6.46908e-08
7.42759e-10
2.41057e-09
2.40805e-09
6.46904e-08
7.43469e-10
2.41145e-09
2.40863e-09
6.4691e-08
7.42209e-10
2.41012e-09
2.40731e-09
6.46909e-08
7.42364e-10
2.41045e-09
2.40732e-09
6.46907e-08
7.4352e-10
2.41156e-09
2.40862e-09
6.46906e-08
7.46554e-10
2.41098e-09
2.40687e-09
6.46925e-08
8.23558e-10
2.43711e-09
2.44344e-09
6.46914e-08
2.83259e-09
3.44234e-09
3.49873e-09
6.46643e-08
3.88025e-08
3.64292e-08
3.63504e-08
6.43048e-08
2.82801e-07
1.62451e-07
1.62492e-07
2.68107e-07
1.83757e-07
4.15578e-07
4.15737e-07
1.83727e-07
4.15602e-07
4.15741e-07
1.10663e-06
1.10664e-06
1.10666e-06
1.10667e-06
4.15457e-07
4.15574e-07
1.83611e-07
4.15464e-07
4.156e-07
1.83563e-07
2.50963e-07
1.71375e-07
6.42769e-07
6.42599e-07
1.04539e-07
1.04499e-07
2.50879e-07
1.71224e-07
6.42708e-07
6.43159e-07
1.04691e-07
1.04613e-07
6.43036e-07
1.04579e-07
1.04498e-07
2.5093e-07
1.71333e-07
6.42742e-07
1.04652e-07
1.04628e-07
1.71354e-07
6.64203e-08
1.67066e-07
4.76486e-08
4.7673e-08
6.21441e-09
6.28555e-09
6.6367e-08
1.67141e-07
4.7671e-08
4.76762e-08
6.18072e-09
6.24416e-09
4.76768e-08
6.13107e-09
6.20519e-09
6.64389e-08
1.67108e-07
4.78098e-08
6.20776e-09
6.1757e-09
1.67108e-07
6.45549e-08
1.66899e-07
4.14318e-09
4.13492e-09
2.6589e-09
2.65625e-09
6.45534e-08
1.66896e-07
4.16131e-09
4.14214e-09
2.64376e-09
2.66292e-09
4.16423e-09
2.64113e-09
2.67208e-09
6.45995e-08
1.66915e-07
4.17651e-09
2.61784e-09
2.61658e-09
1.66882e-07
6.46692e-08
1.66887e-07
2.54883e-09
2.5774e-09
2.44826e-09
2.44186e-09
6.46521e-08
1.66871e-07
2.5137e-09
2.55679e-09
2.4146e-09
2.45109e-09
2.56489e-09
2.4114e-09
2.44248e-09
6.46839e-08
1.66896e-07
2.53055e-09
2.40445e-09
2.4072e-09
1.66856e-07
6.46766e-08
1.66885e-07
2.44379e-09
2.43655e-09
2.44327e-09
2.44015e-09
6.46613e-08
1.66864e-07
2.39949e-09
2.44769e-09
2.41978e-09
2.44274e-09
2.43726e-09
2.40058e-09
2.43369e-09
6.46846e-08
1.66895e-07
2.40374e-09
2.39593e-09
2.39756e-09
1.66855e-07
6.46766e-08
1.66887e-07
2.44369e-09
2.44923e-09
2.42924e-09
2.47275e-09
6.46651e-08
1.66875e-07
2.39154e-09
2.44368e-09
2.41542e-09
2.44104e-09
2.43283e-09
2.41383e-09
2.43015e-09
6.46845e-08
1.66899e-07
2.39873e-09
2.39345e-09
2.3957e-09
1.66858e-07
6.46802e-08
1.66887e-07
2.39841e-09
2.46452e-09
2.46314e-09
2.45311e-09
6.46565e-08
1.66875e-07
2.3863e-09
2.44285e-09
2.42155e-09
2.44243e-09
2.43003e-09
2.41129e-09
2.43192e-09
6.46843e-08
1.66897e-07
2.39793e-09
2.39532e-09
2.39887e-09
1.66856e-07
6.46809e-08
1.66893e-07
2.44086e-09
2.45474e-09
2.44209e-09
2.45317e-09
6.46546e-08
1.66874e-07
2.39755e-09
2.44442e-09
2.42333e-09
2.44325e-09
2.43245e-09
2.41075e-09
2.43169e-09
6.46848e-08
1.66896e-07
2.40212e-09
2.39475e-09
2.39889e-09
1.66855e-07
6.46608e-08
1.66888e-07
2.4406e-09
2.45215e-09
2.42053e-09
2.43653e-09
6.46558e-08
1.66886e-07
2.39388e-09
2.44399e-09
2.40885e-09
2.44134e-09
2.43069e-09
2.40668e-09
2.42905e-09
6.46861e-08
1.66902e-07
2.39796e-09
2.39324e-09
2.39625e-09
1.66862e-07
6.46667e-08
1.66868e-07
2.42436e-09
2.40441e-09
2.46252e-09
2.39845e-09
6.46493e-08
1.66876e-07
2.40055e-09
2.44416e-09
2.413e-09
2.44451e-09
2.42987e-09
2.40697e-09
2.43245e-09
6.46847e-08
1.66897e-07
2.39936e-09
2.39643e-09
2.39975e-09
1.66856e-07
6.4679e-08
1.66882e-07
2.48602e-09
2.41615e-09
2.4409e-09
2.40232e-09
6.46545e-08
1.66875e-07
2.41064e-09
2.44521e-09
2.41233e-09
2.44144e-09
2.4318e-09
2.40644e-09
2.42926e-09
6.46854e-08
1.669e-07
2.40128e-09
2.39425e-09
2.39649e-09
1.6686e-07
6.46673e-08
1.6688e-07
2.43868e-09
2.39124e-09
2.4379e-09
2.39472e-09
6.46545e-08
1.66899e-07
2.40715e-09
2.44282e-09
2.40857e-09
2.44205e-09
2.42939e-09
2.41562e-09
2.43364e-09
6.46861e-08
1.66898e-07
2.39841e-09
2.39661e-09
2.39883e-09
1.66859e-07
6.46676e-08
1.66889e-07
2.43868e-09
2.40243e-09
2.43109e-09
2.45898e-09
6.46527e-08
1.66902e-07
2.40406e-09
2.44324e-09
2.39837e-09
2.43989e-09
2.43393e-09
2.42373e-09
2.43212e-09
6.46862e-08
1.66902e-07
2.40133e-09
2.39421e-09
2.39759e-09
1.66863e-07
6.46581e-08
1.66873e-07
2.43142e-09
2.46719e-09
2.46466e-09
2.447e-09
6.46588e-08
1.66884e-07
2.39402e-09
2.4419e-09
2.39305e-09
2.44359e-09
2.43209e-09
2.40774e-09
2.43456e-09
6.46856e-08
1.66898e-07
2.39995e-09
2.39725e-09
2.40025e-09
1.66857e-07
6.46733e-08
1.66878e-07
2.44435e-09
2.43604e-09
2.44535e-09
2.50039e-09
6.46674e-08
1.66876e-07
2.40803e-09
2.445e-09
2.41086e-09
2.43986e-09
2.43459e-09
2.41337e-09
2.43031e-09
6.4686e-08
1.66902e-07
2.40187e-09
2.39359e-09
2.39561e-09
1.66862e-07
6.46715e-08
1.66877e-07
2.44307e-09
2.47377e-09
2.44787e-09
2.45204e-09
6.46826e-08
1.66858e-07
2.40763e-09
2.4415e-09
2.41014e-09
2.44212e-09
2.42948e-09
2.40607e-09
2.43154e-09
6.46861e-08
1.66901e-07
2.39745e-09
2.39554e-09
2.39773e-09
1.6686e-07
6.46732e-08
1.66876e-07
2.43539e-09
2.45115e-09
2.45221e-09
2.44303e-09
6.46769e-08
1.66901e-07
2.40825e-09
2.44326e-09
2.41108e-09
2.44203e-09
2.43136e-09
2.40942e-09
2.43244e-09
6.46866e-08
1.66903e-07
2.3998e-09
2.39477e-09
2.39803e-09
1.66862e-07
6.46704e-08
1.66895e-07
2.42982e-09
2.43555e-09
2.41266e-09
2.42391e-09
6.46855e-08
1.66901e-07
2.40784e-09
2.44525e-09
2.40043e-09
2.44498e-09
2.43375e-09
2.38918e-09
2.43318e-09
6.46858e-08
1.66901e-07
2.40084e-09
2.39551e-09
2.39584e-09
1.66862e-07
6.46745e-08
1.66863e-07
2.40817e-09
2.44093e-09
2.48879e-09
2.53551e-09
6.47152e-08
1.66942e-07
2.39819e-09
2.44623e-09
2.43108e-09
2.44074e-09
2.43064e-09
2.43833e-09
2.43796e-09
6.46866e-08
1.66904e-07
2.39428e-09
2.39077e-09
2.39778e-09
1.66875e-07
6.47128e-08
1.66929e-07
2.44171e-09
2.47151e-09
2.43376e-09
2.49652e-09
6.46614e-08
1.66889e-07
2.42816e-09
2.44116e-09
2.28677e-09
2.44538e-09
2.44957e-09
2.39536e-09
2.43229e-09
6.4688e-08
1.66907e-07
2.41298e-09
2.39255e-09
2.39863e-09
1.66866e-07
6.4667e-08
1.66898e-07
2.47222e-09
2.47994e-09
2.46025e-09
2.4488e-09
6.46771e-08
1.66892e-07
2.36379e-09
2.44336e-09
2.42125e-09
2.44221e-09
2.43047e-09
2.4166e-09
2.43133e-09
6.46876e-08
1.66904e-07
2.39925e-09
2.39624e-09
2.39928e-09
1.66864e-07
6.46957e-08
1.66896e-07
2.45129e-09
2.45487e-09
2.44085e-09
2.45328e-09
6.46731e-08
1.66893e-07
2.41077e-09
2.44364e-09
2.41372e-09
2.44295e-09
2.43155e-09
2.41153e-09
2.43085e-09
6.46883e-08
1.66905e-07
2.40142e-09
2.39626e-09
2.39858e-09
1.66865e-07
6.46957e-08
1.66897e-07
2.44536e-09
2.4558e-09
2.44035e-09
2.45193e-09
6.46734e-08
1.66893e-07
2.40703e-09
2.44333e-09
2.41203e-09
2.44149e-09
2.43084e-09
2.41136e-09
2.43043e-09
6.46886e-08
1.66905e-07
2.40043e-09
2.39629e-09
2.40866e-09
1.66864e-07
6.46954e-08
1.66897e-07
2.44356e-09
2.45512e-09
2.43976e-09
2.45229e-09
6.46732e-08
1.66893e-07
2.4064e-09
2.44254e-09
2.41145e-09
2.44185e-09
2.43066e-09
2.41128e-09
2.43063e-09
6.46884e-08
1.66905e-07
2.40802e-09
2.39642e-09
2.40249e-09
1.66864e-07
6.46947e-08
1.66898e-07
2.44439e-09
2.45566e-09
2.43959e-09
2.4522e-09
6.4673e-08
1.66893e-07
2.40722e-09
2.44309e-09
2.41126e-09
2.44191e-09
2.43044e-09
2.41171e-09
2.43172e-09
6.46882e-08
1.66905e-07
2.40524e-09
2.39618e-09
2.40177e-09
1.66864e-07
6.46952e-08
1.66895e-07
2.44284e-09
2.4548e-09
2.44124e-09
2.45342e-09
6.46734e-08
1.66891e-07
2.40571e-09
2.44234e-09
2.41291e-09
2.44302e-09
2.43168e-09
2.41206e-09
2.43108e-09
6.46886e-08
1.66903e-07
2.40439e-09
2.39685e-09
2.40195e-09
1.66863e-07
6.46954e-08
1.66898e-07
2.44413e-09
2.45573e-09
2.43919e-09
2.45158e-09
6.46734e-08
1.66894e-07
2.40696e-09
2.44323e-09
2.41089e-09
2.4412e-09
2.43139e-09
2.41048e-09
2.42959e-09
6.46886e-08
1.66906e-07
2.40437e-09
2.39529e-09
2.4005e-09
1.66866e-07
6.46947e-08
1.66898e-07
2.44357e-09
2.45503e-09
2.44008e-09
2.45227e-09
6.4673e-08
1.66894e-07
2.40642e-09
2.44253e-09
2.41175e-09
2.44188e-09
2.43013e-09
2.41135e-09
2.43105e-09
6.46882e-08
1.66906e-07
2.40313e-09
2.39617e-09
2.40194e-09
1.66865e-07
6.46949e-08
1.66897e-07
2.4436e-09
2.45509e-09
2.4402e-09
2.45275e-09
6.4673e-08
1.66892e-07
2.40644e-09
2.44257e-09
2.41185e-09
2.4423e-09
2.43126e-09
2.41192e-09
2.43163e-09
6.46882e-08
1.66905e-07
2.40425e-09
2.39675e-09
2.40251e-09
1.66863e-07
6.46949e-08
1.66898e-07
2.44407e-09
2.45598e-09
2.43983e-09
2.45044e-09
6.46731e-08
1.66893e-07
2.4069e-09
2.44321e-09
2.41116e-09
2.44167e-09
2.43175e-09
2.41149e-09
2.43127e-09
6.46883e-08
1.66905e-07
2.40473e-09
2.3962e-09
2.40221e-09
1.66863e-07
6.46951e-08
1.66898e-07
2.44305e-09
2.43485e-09
2.43971e-09
2.45919e-09
6.46742e-08
1.6689e-07
2.40581e-09
2.44241e-09
2.4113e-09
2.44149e-09
2.43063e-09
2.4139e-09
2.43005e-09
6.46883e-08
1.66906e-07
2.40359e-09
2.39561e-09
2.40089e-09
1.66866e-07
6.46946e-08
1.66898e-07
2.44427e-09
2.4511e-09
2.44014e-09
2.45679e-09
6.46753e-08
1.66899e-07
2.40687e-09
2.44238e-09
2.41185e-09
2.44246e-09
2.43024e-09
2.41269e-09
2.43156e-09
6.46881e-08
1.66905e-07
2.40325e-09
2.39672e-09
2.40243e-09
1.66864e-07
6.46945e-08
1.66898e-07
2.44485e-09
2.45981e-09
2.43986e-09
2.45608e-09
6.4669e-08
1.66899e-07
2.40769e-09
2.44372e-09
2.41151e-09
2.44192e-09
2.43177e-09
2.41201e-09
2.43066e-09
6.4688e-08
1.66905e-07
2.40477e-09
2.39661e-09
2.40207e-09
1.66865e-07
6.46952e-08
1.66898e-07
2.44281e-09
2.45847e-09
2.43997e-09
2.4558e-09
6.46695e-08
1.669e-07
2.40565e-09
2.44216e-09
2.41165e-09
2.44248e-09
2.43065e-09
2.41154e-09
2.43095e-09
6.46885e-08
1.66906e-07
2.4046e-09
2.3921e-09
2.39738e-09
1.66866e-07
6.46951e-08
1.66898e-07
2.4434e-09
2.45878e-09
2.44022e-09
2.45588e-09
6.46693e-08
1.66901e-07
2.40624e-09
2.44268e-09
2.41191e-09
2.4421e-09
2.43092e-09
2.41161e-09
2.43106e-09
6.46886e-08
1.66907e-07
2.4047e-09
2.39431e-09
2.40014e-09
1.66866e-07
6.46945e-08
1.66898e-07
2.44433e-09
2.45923e-09
2.43978e-09
2.45616e-09
6.46688e-08
1.669e-07
2.40716e-09
2.44284e-09
2.41147e-09
2.44235e-09
2.43138e-09
2.41224e-09
2.43139e-09
6.46882e-08
1.66906e-07
2.40615e-09
2.39498e-09
2.40052e-09
1.66865e-07
6.46946e-08
1.66897e-07
2.44407e-09
2.45945e-09
2.44064e-09
2.45651e-09
6.4669e-08
1.66899e-07
2.40693e-09
2.44306e-09
2.41231e-09
2.44268e-09
2.4308e-09
2.41228e-09
2.43208e-09
6.46884e-08
1.66905e-07
2.4056e-09
2.39502e-09
2.40123e-09
1.66864e-07
6.46951e-08
1.66899e-07
2.4441e-09
2.45912e-09
2.43993e-09
2.45542e-09
6.46695e-08
1.669e-07
2.40693e-09
2.44269e-09
2.41155e-09
2.4413e-09
2.4302e-09
2.41205e-09
2.43052e-09
6.46888e-08
1.66906e-07
2.40504e-09
2.39541e-09
2.40024e-09
1.66866e-07
6.46949e-08
1.66898e-07
2.44387e-09
2.45795e-09
2.45223e-09
2.44938e-09
6.46694e-08
1.66899e-07
2.40635e-09
2.44125e-09
2.40807e-09
2.44201e-09
2.42884e-09
2.41434e-09
2.40623e-09
6.46884e-08
1.66907e-07
2.40526e-09
2.39256e-09
2.38277e-09
1.66866e-07
6.46916e-08
1.66905e-07
2.4441e-09
2.46133e-09
2.39272e-09
2.45288e-09
6.46698e-08
1.66919e-07
2.39244e-09
2.44235e-09
2.38052e-09
2.44796e-09
2.4093e-09
2.39624e-09
2.46927e-09
6.46879e-08
1.66908e-07
2.31475e-09
2.39476e-09
2.40339e-09
1.6687e-07
6.46822e-08
1.66896e-07
2.43702e-09
2.4191e-09
2.44381e-09
2.44609e-09
6.46798e-08
1.66929e-07
2.30788e-09
2.44911e-09
2.42761e-09
2.44324e-09
2.44448e-09
2.40379e-09
2.43395e-09
6.4688e-08
1.66907e-07
2.42313e-09
2.40151e-09
2.40153e-09
1.66865e-07
6.46828e-08
1.6689e-07
2.43909e-09
2.46711e-09
2.43664e-09
2.46339e-09
6.47168e-08
1.6692e-07
2.39287e-09
2.44344e-09
2.42098e-09
2.44129e-09
2.43233e-09
2.4122e-09
2.43076e-09
6.46881e-08
1.66908e-07
2.40449e-09
2.39958e-09
2.39846e-09
1.66866e-07
6.46775e-08
1.66888e-07
2.43692e-09
2.45725e-09
2.43711e-09
2.45339e-09
6.46875e-08
1.6692e-07
2.39237e-09
2.44221e-09
2.4234e-09
2.4429e-09
2.43004e-09
2.41055e-09
2.43234e-09
6.46879e-08
1.66907e-07
2.40339e-09
2.40155e-09
2.40087e-09
1.66865e-07
6.46784e-08
1.66886e-07
2.43626e-09
2.45298e-09
2.43721e-09
2.45272e-09
6.46867e-08
1.66919e-07
2.39307e-09
2.44327e-09
2.42117e-09
2.44293e-09
2.43147e-09
2.40999e-09
2.43184e-09
6.46885e-08
1.66905e-07
2.40538e-09
2.39877e-09
2.40062e-09
1.66864e-07
6.46782e-08
1.66887e-07
2.43669e-09
2.45258e-09
2.4363e-09
2.45218e-09
6.46867e-08
1.6692e-07
2.39283e-09
2.44321e-09
2.42422e-09
2.44244e-09
2.43119e-09
2.40909e-09
2.43122e-09
6.46886e-08
1.66907e-07
2.40536e-09
2.40142e-09
2.4027e-09
1.66865e-07
6.46782e-08
1.66888e-07
2.43626e-09
2.4518e-09
2.43594e-09
2.45161e-09
6.46866e-08
1.66921e-07
2.39335e-09
2.44273e-09
2.42467e-09
2.44261e-09
2.42964e-09
2.40874e-09
2.43134e-09
6.46884e-08
1.66907e-07
2.40392e-09
2.40012e-09
2.39895e-09
1.66866e-07
6.46782e-08
1.66887e-07
2.43582e-09
2.45163e-09
2.43669e-09
2.45254e-09
6.46864e-08
1.6692e-07
2.39329e-09
2.4431e-09
2.42442e-09
2.44321e-09
2.43002e-09
2.40959e-09
2.43203e-09
6.46885e-08
1.66907e-07
2.4069e-09
2.39453e-09
2.40022e-09
1.66866e-07
6.46788e-08
1.66887e-07
2.43531e-09
2.45136e-09
2.4367e-09
2.45246e-09
6.46869e-08
1.6692e-07
2.39243e-09
2.44238e-09
2.42435e-09
2.44295e-09
2.43024e-09
2.41007e-09
2.43254e-09
6.46891e-08
1.66907e-07
2.40496e-09
2.39517e-09
2.40146e-09
1.66864e-07
6.46783e-08
1.66888e-07
2.43616e-09
2.45222e-09
2.43597e-09
2.45177e-09
6.46864e-08
1.66921e-07
2.39316e-09
2.44314e-09
2.42366e-09
2.44223e-09
2.43054e-09
2.40883e-09
2.4312e-09
6.46886e-08
1.66908e-07
2.40547e-09
2.39394e-09
2.40015e-09
1.66866e-07
6.46779e-08
1.66889e-07
2.43638e-09
2.45212e-09
2.43619e-09
2.45211e-09
6.46862e-08
1.66922e-07
2.39343e-09
2.44301e-09
2.42391e-09
2.44248e-09
2.42998e-09
2.40958e-09
2.43153e-09
6.46884e-08
1.66908e-07
2.40499e-09
2.39535e-09
2.40167e-09
1.66867e-07
6.46782e-08
1.66888e-07
2.43594e-09
2.45224e-09
2.43672e-09
2.45252e-09
6.46865e-08
1.66921e-07
2.39305e-09
2.44306e-09
2.42452e-09
2.44305e-09
2.43064e-09
2.40975e-09
2.43188e-09
6.46887e-08
1.66907e-07
2.40914e-09
2.39508e-09
2.40117e-09
1.66866e-07
6.46783e-08
1.66887e-07
2.43586e-09
2.45176e-09
2.43665e-09
2.45313e-09
6.46867e-08
1.66921e-07
2.3931e-09
2.44279e-09
2.42487e-09
2.44325e-09
2.43007e-09
2.40986e-09
2.43114e-09
6.46887e-08
1.66907e-07
2.40325e-09
2.39556e-09
2.40222e-09
1.66866e-07
6.46783e-08
1.66887e-07
2.43574e-09
2.45249e-09
2.43472e-09
2.45703e-09
6.46864e-08
1.66923e-07
2.39353e-09
2.44308e-09
2.41595e-09
2.44222e-09
2.42972e-09
2.41348e-09
2.42915e-09
6.46887e-08
1.66907e-07
2.40451e-09
2.39565e-09
2.40196e-09
1.66866e-07
6.46788e-08
1.66886e-07
2.43428e-09
2.46591e-09
2.4316e-09
2.43143e-09
6.46849e-08
1.66937e-07
2.40888e-09
2.44336e-09
2.41336e-09
2.44315e-09
2.42904e-09
2.40981e-09
2.4298e-09
6.46888e-08
1.66906e-07
2.40525e-09
2.39647e-09
2.4036e-09
1.66865e-07
6.46793e-08
1.66888e-07
2.43267e-09
2.41067e-09
2.43379e-09
2.44433e-09
6.46732e-08
1.66922e-07
2.4081e-09
2.44425e-09
2.41134e-09
2.44283e-09
2.43086e-09
2.40653e-09
2.42735e-09
6.46885e-08
1.66906e-07
2.40713e-09
2.39592e-09
2.39675e-09
1.66867e-07
6.4678e-08
1.66888e-07
2.43456e-09
2.44779e-09
2.43516e-09
2.45113e-09
6.46847e-08
1.66922e-07
2.40604e-09
2.4451e-09
2.41023e-09
2.43984e-09
2.42104e-09
2.41121e-09
2.44302e-09
6.46879e-08
1.66904e-07
2.38782e-09
2.39616e-09
2.406e-09
1.66876e-07
6.46777e-08
1.66886e-07
2.43513e-09
2.45148e-09
2.43631e-09
2.4525e-09
6.46853e-08
1.66922e-07
2.40487e-09
2.44051e-09
2.41091e-09
2.4398e-09
2.44414e-09
2.41133e-09
2.44345e-09
6.46886e-08
1.66903e-07
2.4052e-09
2.39543e-09
2.40561e-09
1.66877e-07
6.46783e-08
1.66885e-07
2.4355e-09
2.45182e-09
2.43692e-09
2.45329e-09
6.46858e-08
1.6692e-07
2.40495e-09
2.4402e-09
2.41146e-09
2.44048e-09
2.44388e-09
2.41199e-09
2.44367e-09
6.46891e-08
1.66902e-07
2.40465e-09
2.39609e-09
2.40588e-09
1.66877e-07
6.46783e-08
1.66885e-07
2.43586e-09
2.45223e-09
2.43693e-09
2.45299e-09
6.46858e-08
1.66921e-07
2.40524e-09
2.44052e-09
2.41147e-09
2.44027e-09
2.44309e-09
2.41187e-09
2.44432e-09
6.46891e-08
1.66903e-07
2.40398e-09
2.39572e-09
2.40675e-09
1.66877e-07
6.46782e-08
1.66885e-07
2.43654e-09
2.45269e-09
2.43659e-09
2.45293e-09
6.46858e-08
1.66919e-07
2.40591e-09
2.44114e-09
2.41115e-09
2.44022e-09
2.44408e-09
2.41208e-09
2.44486e-09
6.46891e-08
1.66901e-07
2.40486e-09
2.39557e-09
2.40544e-09
1.66875e-07
6.46781e-08
1.66886e-07
2.43667e-09
2.45286e-09
2.43617e-09
2.45277e-09
6.46857e-08
1.6692e-07
2.4061e-09
2.44122e-09
2.41067e-09
2.44005e-09
2.44457e-09
2.41221e-09
2.44565e-09
6.46889e-08
1.66902e-07
2.40746e-09
2.39611e-09
2.40752e-09
1.66874e-07
6.46783e-08
1.66885e-07
2.43584e-09
2.45261e-09
2.43612e-09
2.45201e-09
6.46859e-08
1.6692e-07
2.40519e-09
2.44098e-09
2.41064e-09
2.43923e-09
2.44473e-09
2.41103e-09
2.44388e-09
6.46891e-08
1.66902e-07
2.40543e-09
2.39505e-09
2.40604e-09
1.66875e-07
6.46784e-08
1.66886e-07
2.43545e-09
2.45219e-09
2.43578e-09
2.45197e-09
6.46855e-08
1.66922e-07
2.40478e-09
2.44053e-09
2.41034e-09
2.43919e-09
2.44482e-09
2.41082e-09
2.44368e-09
6.46887e-08
1.66904e-07
2.40559e-09
2.39477e-09
2.40499e-09
1.66877e-07
6.46778e-08
1.66885e-07
2.43659e-09
2.4527e-09
2.43636e-09
2.45238e-09
6.46854e-08
1.6692e-07
2.406e-09
2.44101e-09
2.41018e-09
2.43961e-09
2.44418e-09
2.4118e-09
2.44469e-09
6.46886e-08
1.66902e-07
2.40612e-09
2.39586e-09
2.40762e-09
1.66874e-07
6.46781e-08
1.66886e-07
2.43604e-09
2.45246e-09
2.4356e-09
2.45168e-09
6.46856e-08
1.66921e-07
2.40619e-09
2.44082e-09
2.40982e-09
2.4389e-09
2.44523e-09
2.41101e-09
2.44294e-09
6.46889e-08
1.66903e-07
2.40672e-09
2.39503e-09
2.40574e-09
1.66876e-07
6.46785e-08
1.66887e-07
2.4351e-09
2.45151e-09
2.43563e-09
2.4515e-09
6.46858e-08
1.66921e-07
2.40442e-09
2.43983e-09
2.40978e-09
2.43872e-09
2.44483e-09
2.41102e-09
2.4427e-09
6.46891e-08
1.66903e-07
2.40627e-09
2.39505e-09
2.40548e-09
1.66877e-07
6.4678e-08
1.66886e-07
2.43572e-09
2.45159e-09
2.43593e-09
2.45256e-09
6.46857e-08
1.66921e-07
2.40496e-09
2.43992e-09
2.4097e-09
2.43993e-09
2.44411e-09
2.41079e-09
2.44306e-09
6.46889e-08
1.66904e-07
2.40549e-09
2.39466e-09
2.4057e-09
1.66878e-07
6.46781e-08
1.66885e-07
2.43591e-09
2.4526e-09
2.43684e-09
2.453e-09
6.46856e-08
1.6692e-07
2.40463e-09
2.44127e-09
2.40947e-09
2.44228e-09
2.44406e-09
2.41043e-09
2.44513e-09
6.46886e-08
1.66904e-07
2.40536e-09
2.39584e-09
2.40515e-09
1.66877e-07
6.46782e-08
1.66884e-07
2.43766e-09
2.45279e-09
2.43748e-09
2.45531e-09
6.46862e-08
1.66918e-07
2.40504e-09
2.44427e-09
2.40931e-09
2.44684e-09
2.445e-09
2.41206e-09
2.45325e-09
6.46891e-08
1.66895e-07
2.40103e-09
2.36329e-09
2.39192e-09
1.66868e-07
6.46787e-08
1.66882e-07
2.43738e-09
2.45452e-09
2.43938e-09
2.45494e-09
6.46866e-08
1.66919e-07
2.40452e-09
2.44515e-09
2.41215e-09
2.44119e-09
2.45142e-09
2.41213e-09
2.44437e-09
6.46917e-08
1.66899e-07
2.38882e-09
2.38845e-09
2.39691e-09
1.66873e-07
6.46778e-08
1.66885e-07
2.43892e-09
2.45515e-09
2.43599e-09
2.45255e-09
6.46851e-08
1.66919e-07
2.40707e-09
2.4421e-09
2.40958e-09
2.43909e-09
2.44604e-09
2.41105e-09
2.44347e-09
6.46873e-08
1.66901e-07
2.40083e-09
2.39193e-09
2.39138e-09
1.66877e-07
6.46763e-08
1.66884e-07
2.43749e-09
2.45319e-09
2.43565e-09
2.45264e-09
6.46843e-08
1.66917e-07
2.40638e-09
2.44082e-09
2.40968e-09
2.43959e-09
2.44308e-09
2.41247e-09
2.44481e-09
6.46871e-08
1.66899e-07
2.41331e-09
2.39671e-09
2.39893e-09
1.66874e-07
6.4677e-08
1.66884e-07
2.43573e-09
2.45197e-09
2.43558e-09
2.45229e-09
6.46849e-08
1.66918e-07
2.40495e-09
2.44003e-09
2.40977e-09
2.43947e-09
2.44468e-09
2.41094e-09
2.44371e-09
6.4688e-08
1.669e-07
2.42101e-09
2.39602e-09
2.40593e-09
1.66873e-07
6.46767e-08
1.66884e-07
2.43587e-09
2.45183e-09
2.43557e-09
2.45275e-09
6.46845e-08
1.66919e-07
2.40521e-09
2.44017e-09
2.40984e-09
2.43996e-09
2.44444e-09
2.41143e-09
2.4438e-09
6.46876e-08
1.66901e-07
2.40528e-09
2.39631e-09
2.40644e-09
1.66874e-07
6.46761e-08
1.66883e-07
2.43684e-09
2.45315e-09
2.43613e-09
2.45257e-09
6.46842e-08
1.66918e-07
2.40623e-09
2.44152e-09
2.41035e-09
2.43968e-09
2.44478e-09
2.41092e-09
2.44336e-09
6.46873e-08
1.669e-07
2.40545e-09
2.39605e-09
2.40645e-09
1.66874e-07
6.46768e-08
1.66882e-07
2.43604e-09
2.45211e-09
2.43639e-09
2.4534e-09
6.46845e-08
1.66917e-07
2.40538e-09
2.44043e-09
2.41064e-09
2.44054e-09
2.44492e-09
2.41222e-09
2.44511e-09
6.46876e-08
1.66899e-07
2.40592e-09
2.39748e-09
2.40785e-09
1.66871e-07
6.46768e-08
1.66884e-07
2.43689e-09
2.45265e-09
2.43494e-09
2.45173e-09
6.46848e-08
1.66919e-07
2.40622e-09
2.44101e-09
2.40922e-09
2.43879e-09
2.44421e-09
2.41108e-09
2.4435e-09
6.46879e-08
1.66901e-07
2.40452e-09
2.39754e-09
2.4069e-09
1.66873e-07
6.46765e-08
1.66885e-07
2.43556e-09
2.45217e-09
2.43557e-09
2.45161e-09
6.46842e-08
1.66919e-07
2.40493e-09
2.44052e-09
2.40983e-09
2.43882e-09
2.44454e-09
2.41102e-09
2.44323e-09
6.46874e-08
1.66901e-07
2.40567e-09
2.39499e-09
2.40584e-09
1.66875e-07
6.46765e-08
1.66882e-07
2.4357e-09
2.45156e-09
2.43639e-09
2.4532e-09
6.46843e-08
1.66916e-07
2.40511e-09
2.43986e-09
2.41066e-09
2.44039e-09
2.44354e-09
2.41289e-09
2.44515e-09
6.46876e-08
1.66898e-07
2.4048e-09
2.39695e-09
2.4079e-09
1.66872e-07
6.46766e-08
1.66883e-07
2.43708e-09
2.45299e-09
2.43568e-09
2.45224e-09
6.46845e-08
1.66917e-07
2.40646e-09
2.44127e-09
2.4099e-09
2.43941e-09
2.44502e-09
2.41125e-09
2.44367e-09
6.46878e-08
1.66899e-07
2.40634e-09
2.39531e-09
2.40634e-09
1.66873e-07
6.46768e-08
1.66884e-07
2.43593e-09
2.45176e-09
2.43545e-09
2.45201e-09
6.46848e-08
1.66919e-07
2.40525e-09
2.44003e-09
2.40969e-09
2.43919e-09
2.44404e-09
2.41122e-09
2.44289e-09
6.4688e-08
1.66901e-07
2.40529e-09
2.39529e-09
2.40556e-09
1.66874e-07
6.46766e-08
1.66882e-07
2.4355e-09
2.45169e-09
2.4365e-09
2.45292e-09
6.46843e-08
1.66917e-07
2.40486e-09
2.44e-09
2.41135e-09
2.44011e-09
2.44319e-09
2.4116e-09
2.4444e-09
6.46876e-08
1.66899e-07
2.40443e-09
2.39564e-09
2.40715e-09
1.66872e-07
6.4677e-08
1.66882e-07
2.43625e-09
2.45265e-09
2.43589e-09
2.45244e-09
6.46846e-08
1.66918e-07
2.40757e-09
2.44102e-09
2.42285e-09
2.43957e-09
2.44515e-09
2.41172e-09
2.44385e-09
6.46878e-08
1.669e-07
2.4065e-09
2.39579e-09
2.40656e-09
1.66873e-07
6.46763e-08
1.66883e-07
2.4366e-09
2.45257e-09
2.43524e-09
2.45226e-09
6.46846e-08
1.66918e-07
2.39324e-09
2.44076e-09
2.42236e-09
2.43948e-09
2.44406e-09
2.41131e-09
2.44353e-09
6.46878e-08
1.669e-07
2.40537e-09
2.39537e-09
2.40621e-09
1.66873e-07
6.46762e-08
1.66883e-07
2.4358e-09
2.45197e-09
2.4359e-09
2.45223e-09
6.46846e-08
1.66919e-07
2.39249e-09
2.4402e-09
2.42304e-09
2.43977e-09
2.44407e-09
2.41111e-09
2.44371e-09
6.46878e-08
1.669e-07
2.40533e-09
2.39515e-09
2.40636e-09
1.66874e-07
6.46761e-08
1.66882e-07
2.43601e-09
2.45229e-09
2.43653e-09
2.45287e-09
6.46842e-08
1.66918e-07
2.39278e-09
2.4432e-09
2.42357e-09
2.44583e-09
2.44455e-09
2.41227e-09
2.44467e-09
6.46871e-08
1.66935e-07
2.40581e-09
2.39606e-09
2.40741e-09
1.66873e-07
6.46763e-08
1.66881e-07
2.43726e-09
2.4526e-09
2.43581e-09
2.45205e-09
6.46846e-08
1.66917e-07
2.39398e-09
2.43478e-09
2.42288e-09
2.44515e-09
2.44487e-09
2.41146e-09
2.4437e-09
6.46847e-08
1.66935e-07
2.40619e-09
2.39536e-09
2.40644e-09
1.66872e-07
6.46766e-08
1.66885e-07
2.43596e-09
2.45168e-09
2.43473e-09
2.45201e-09
6.46846e-08
1.66919e-07
2.39274e-09
2.43391e-09
2.4218e-09
2.44508e-09
2.44419e-09
2.41067e-09
2.44311e-09
6.46847e-08
1.66937e-07
2.4055e-09
2.39444e-09
2.40586e-09
1.66874e-07
6.46761e-08
1.66885e-07
2.43586e-09
2.45147e-09
2.43535e-09
2.45221e-09
6.46844e-08
1.66919e-07
2.39262e-09
2.43382e-09
2.42235e-09
2.44805e-09
2.44336e-09
2.41186e-09
2.44469e-09
6.46844e-08
1.66935e-07
2.40447e-09
2.39583e-09
2.40712e-09
1.66873e-07
6.46758e-08
1.66883e-07
2.43701e-09
2.45254e-09
2.4361e-09
2.4531e-09
6.46843e-08
1.66918e-07
2.39363e-09
2.43616e-09
2.42313e-09
2.4394e-09
2.44559e-09
2.41207e-09
2.44658e-09
6.46876e-08
1.66911e-07
2.40674e-09
2.39548e-09
2.41162e-09
1.66872e-07
6.46763e-08
1.66884e-07
2.43626e-09
2.45281e-09
2.44248e-09
2.45999e-09
6.46846e-08
1.66916e-07
2.39326e-09
2.43948e-09
2.42645e-09
2.46086e-09
2.45438e-09
2.4206e-09
2.44482e-09
6.46881e-08
1.66901e-07
2.41912e-09
2.41008e-09
2.41246e-09
1.66863e-07
6.46724e-08
1.66886e-07
2.45331e-09
2.44855e-09
2.8843e-09
2.88705e-09
6.46807e-08
1.66887e-07
2.39288e-09
2.47322e-09
2.92406e-09
2.9087e-09
2.43712e-09
2.81876e-09
2.82657e-09
6.46843e-08
1.66881e-07
2.39942e-09
2.83712e-09
2.78453e-09
1.66831e-07
6.47126e-08
1.66599e-07
3.49598e-09
3.5435e-09
1.75955e-08
1.75848e-08
6.46912e-08
1.66598e-07
3.51972e-09
3.47786e-09
1.76348e-08
1.7683e-08
3.4727e-09
1.75299e-08
1.75903e-08
6.47039e-08
1.66603e-07
3.47369e-09
1.75655e-08
1.75215e-08
1.66576e-07
6.43187e-08
1.45229e-07
3.64941e-08
3.64764e-08
1.20271e-07
1.20318e-07
6.43251e-08
1.45232e-07
3.63913e-08
3.65713e-08
1.20603e-07
1.20345e-07
3.65363e-08
1.20698e-07
1.20442e-07
6.43842e-08
1.45207e-07
3.6412e-08
1.20579e-07
1.20622e-07
1.45179e-07
2.68144e-07
1.62312e-07
1.62218e-07
2.68078e-07
1.62404e-07
1.62263e-07
2.82798e-07
2.82889e-07
2.82899e-07
1.62332e-07
2.68076e-07
1.6242e-07
8.53808e-08
2.96959e-07
1.94366e-07
1.94409e-07
4.87896e-07
3.83536e-07
3.48294e-07
2.51676e-07
4.87859e-07
3.83551e-07
2.5167e-07
3.48156e-07
4.95883e-07
3.50363e-07
3.50383e-07
1.725e-06
0.000119206
1.85049e-06
0.000121635
0.000244277
0.0002525
1.72555e-06
0.000119224
1.84893e-06
0.000121654
5.89258e-07
5.89145e-07
5.89239e-07
8.15273e-08
8.146e-08
8.14962e-08
8.1556e-08
1.40853e-07
2.41193e-06
5.75699e-07
3.48864e-07
1.01903e-07
2.21101e-06
3.33756e-07
0.00024427
0.000252484
1.4141e-07
5.7516e-07
2.41148e-06
3.48818e-07
1.01803e-07
3.33452e-07
2.21086e-06
5.07062e-06
5.07074e-06
1.66497e-07
4.70176e-06
4.70295e-06
1.66082e-06
0.000121472
1.65709e-06
0.000121472
0.00025266
0.000252656
1.66107e-06
0.000121489
1.65731e-06
0.000121489
3.89195e-08