/*--------------------------------*- C++ -*----------------------------------*\
| =========                 |                                                 |
| \\      /  F ield         | OpenFOAM: The Open Source CFD Toolbox           |
|  \\    /   O peration     | Version:  v1912                                 |
|   \\  /    A nd           | Website:  www.openfoam.com                      |
|    \\/     M anipulation  |                                                 |
\*---------------------------------------------------------------------------*/
FoamFile
{
    version     2.0;
    format      ascii;
    class       volScalarField;
    location    "0.8";
    object      p;
}
// * * * * * * * * * * * * * * * * * * * * * * * * * * * * * * * * * * * * * //

dimensions      [0 2 -2 0 0 0 0];


internalField   nonuniform List<scalar> 
171728
(
0.0214351
0.0214388
0.0214388
0.0214549
0.0212101
0.0212102
0.0212102
0.0212242
0.0209829
0.0209829
0.0209829
0.0209969
0.0207557
0.0207556
0.0207556
0.0207696
0.0205284
0.0205283
0.0205283
0.0205423
0.0203011
0.020301
0.020301
0.020315
0.0200738
0.0200737
0.0200737
0.0200877
0.0198465
0.0198465
0.0198465
0.0198604
0.0196193
0.0196192
0.0196192
0.0196332
0.019392
0.019392
0.019392
0.0194059
0.0191648
0.0191647
0.0191647
0.0191787
0.0189375
0.0189375
0.0189375
0.0189514
0.0187103
0.0187102
0.0187102
0.0187241
0.018483
0.0184829
0.0184829
0.0184969
0.0182557
0.0182557
0.0182557
0.0182696
0.0180284
0.0180284
0.0180284
0.0180423
0.0178012
0.0178011
0.0178011
0.0178151
0.0175739
0.0175738
0.0175738
0.0175878
0.0173466
0.0173465
0.0173465
0.0173605
0.0171193
0.0171192
0.0171192
0.0171332
0.016892
0.0168919
0.0168919
0.0169058
0.0166647
0.0166646
0.0166646
0.0166786
0.0164374
0.0164373
0.0164373
0.0164513
0.0162101
0.01621
0.01621
0.016224
0.0159828
0.0159827
0.0159827
0.0159967
0.0157555
0.0157555
0.0157555
0.0157694
0.0155283
0.0155282
0.0155282
0.0155422
0.015301
0.015301
0.015301
0.0153149
0.0150738
0.0150737
0.0150737
0.0150877
0.0148465
0.0148464
0.0148464
0.0148604
0.0146192
0.0146192
0.0146192
0.0146331
0.014392
0.0143919
0.0143919
0.0144059
0.0141647
0.0141646
0.0141646
0.0141786
0.0139374
0.0139373
0.0139373
0.0139513
0.0137101
0.01371
0.01371
0.013724
0.0134828
0.0134827
0.0134827
0.0134967
0.0132555
0.0132554
0.0132554
0.0132694
0.0130282
0.0130281
0.0130281
0.0130421
0.0128009
0.0128008
0.0128008
0.0128148
0.0125736
0.0125735
0.0125735
0.0125875
0.0123463
0.0123462
0.0123462
0.0123602
0.012119
0.012119
0.012119
0.0121329
0.0118918
0.0118917
0.0118917
0.0119056
0.0116645
0.0116644
0.0116644
0.0116784
0.0114372
0.0114372
0.0114372
0.0114511
0.01121
0.0112099
0.0112099
0.0112239
0.0109827
0.0109827
0.0109827
0.0109966
0.0107555
0.0107554
0.0107554
0.0107693
0.0105282
0.0105281
0.0105281
0.0105421
0.0103009
0.0103008
0.0103008
0.0103148
0.0100736
0.0100735
0.0100735
0.0100875
0.00984631
0.00984624
0.00984624
0.0098602
0.009619
0.00961894
0.00961894
0.00963289
0.0093917
0.00939163
0.00939163
0.00940559
0.0091644
0.00916433
0.00916433
0.00917828
0.0089371
0.00893703
0.00893703
0.00895099
0.00870981
0.00870974
0.00870974
0.00872369
0.00848252
0.00848246
0.00848246
0.00849641
0.00825525
0.00825519
0.00825519
0.00826914
0.00802799
0.00802792
0.00802792
0.00804187
0.00780073
0.00780067
0.00780067
0.00781462
0.00757348
0.00757341
0.00757341
0.00758736
0.00734623
0.00734616
0.00734616
0.00736011
0.00711897
0.00711891
0.00711891
0.00713286
0.00689171
0.00689165
0.00689165
0.0069056
0.00666444
0.00666438
0.00666438
0.00667833
0.00643716
0.0064371
0.0064371
0.00645105
0.00620988
0.00620981
0.00620981
0.00622377
0.00598258
0.00598252
0.00598252
0.00599647
0.00575529
0.00575522
0.00575522
0.00576918
0.00552799
0.00552792
0.00552792
0.00554188
0.00530069
0.00530062
0.00530063
0.00531458
0.00507339
0.00507333
0.00507333
0.00508728
0.00484611
0.00484604
0.00484604
0.00486
0.00461883
0.00461876
0.00461876
0.00463272
0.00439156
0.00439149
0.00439149
0.00440544
0.0041643
0.00416423
0.00416423
0.00417818
0.00393704
0.00393698
0.00393698
0.00395093
0.00370979
0.00370973
0.00370973
0.00372368
0.00348254
0.00348248
0.00348248
0.00349643
0.00325528
0.00325522
0.00325522
0.00326917
0.00302802
0.00302796
0.00302796
0.00304191
0.00280076
0.00280069
0.00280069
0.00281465
0.00257348
0.00257341
0.00257341
0.00258736
0.00234619
0.00234613
0.00234613
0.00236008
0.0021189
0.00211883
0.00211883
0.00213279
0.0018916
0.00189153
0.00189153
0.00190548
0.0016643
0.00166423
0.00166424
0.00167819
0.00143699
0.00143693
0.00143693
0.00145088
0.00120969
0.00120963
0.00120963
0.00122358
0.000982409
0.000982346
0.000982346
0.000996297
0.000755129
0.000755067
0.000755066
0.000769019
0.000527858
0.000527795
0.000527787
0.000541735
0.000301303
0.000300719
0.000300679
0.000314519
8.93084e-05
9.61319e-05
9.60734e-05
9.62825e-05
0.0214858
0.0214812
0.0214812
0.0214858
0.0214812
0.0214812
0.0214885
0.0214885
0.0214885
0.0214885
0.0214812
0.0214812
0.0214858
0.0214812
0.0214812
0.0214858
0.0214549
0.0212532
0.0214388
0.0214388
0.0212671
0.0212671
0.0214549
0.0212532
0.0214388
0.0214388
0.0212671
0.0212671
0.0214388
0.0212671
0.0212671
0.0214549
0.0212532
0.0214388
0.0212671
0.0212671
0.0212532
0.0212242
0.0210258
0.0212102
0.0212102
0.0210397
0.0210397
0.0212242
0.0210258
0.0212102
0.0212102
0.0210397
0.0210397
0.0212102
0.0210397
0.0210397
0.0212242
0.0210258
0.0212102
0.0210397
0.0210397
0.0210258
0.0209969
0.0207985
0.0209829
0.0209829
0.0208124
0.0208124
0.0209969
0.0207985
0.0209829
0.0209829
0.0208124
0.0208124
0.0209829
0.0208124
0.0208124
0.0209969
0.0207985
0.0209829
0.0208124
0.0208124
0.0207985
0.0207696
0.0205712
0.0207556
0.0207556
0.0205851
0.0205851
0.0207696
0.0205712
0.0207556
0.0207556
0.0205851
0.0205851
0.0207556
0.0205851
0.0205851
0.0207696
0.0205712
0.0207556
0.0205851
0.0205851
0.0205712
0.0205423
0.0203439
0.0205283
0.0205283
0.0203578
0.0203578
0.0205423
0.0203439
0.0205283
0.0205283
0.0203578
0.0203578
0.0205283
0.0203578
0.0203578
0.0205423
0.0203439
0.0205283
0.0203578
0.0203578
0.0203439
0.020315
0.0201167
0.020301
0.020301
0.0201306
0.0201306
0.020315
0.0201167
0.020301
0.020301
0.0201306
0.0201306
0.020301
0.0201306
0.0201306
0.020315
0.0201167
0.020301
0.0201306
0.0201306
0.0201167
0.0200877
0.0198894
0.0200737
0.0200737
0.0199033
0.0199033
0.0200877
0.0198894
0.0200737
0.0200737
0.0199033
0.0199033
0.0200737
0.0199033
0.0199033
0.0200877
0.0198894
0.0200737
0.0199033
0.0199033
0.0198894
0.0198604
0.0196621
0.0198465
0.0198465
0.019676
0.019676
0.0198604
0.0196621
0.0198465
0.0198465
0.019676
0.019676
0.0198465
0.019676
0.019676
0.0198604
0.0196621
0.0198465
0.019676
0.019676
0.0196621
0.0196332
0.0194349
0.0196192
0.0196192
0.0194488
0.0194488
0.0196332
0.0194349
0.0196192
0.0196192
0.0194488
0.0194488
0.0196192
0.0194488
0.0194488
0.0196332
0.0194349
0.0196192
0.0194488
0.0194488
0.0194349
0.0194059
0.0192076
0.019392
0.019392
0.0192215
0.0192215
0.0194059
0.0192076
0.019392
0.019392
0.0192215
0.0192215
0.019392
0.0192215
0.0192215
0.0194059
0.0192076
0.019392
0.0192215
0.0192215
0.0192076
0.0191787
0.0189804
0.0191647
0.0191647
0.0189943
0.0189943
0.0191787
0.0189804
0.0191647
0.0191647
0.0189943
0.0189943
0.0191647
0.0189943
0.0189943
0.0191787
0.0189804
0.0191647
0.0189943
0.0189943
0.0189804
0.0189514
0.0187531
0.0189375
0.0189375
0.018767
0.018767
0.0189514
0.0187531
0.0189375
0.0189375
0.018767
0.018767
0.0189375
0.018767
0.018767
0.0189514
0.0187531
0.0189375
0.018767
0.018767
0.0187531
0.0187241
0.0185258
0.0187102
0.0187102
0.0185398
0.0185397
0.0187241
0.0185258
0.0187102
0.0187102
0.0185398
0.0185398
0.0187102
0.0185398
0.0185398
0.0187241
0.0185258
0.0187102
0.0185398
0.0185398
0.0185258
0.0184969
0.0182986
0.0184829
0.0184829
0.0183125
0.0183125
0.0184969
0.0182986
0.0184829
0.0184829
0.0183125
0.0183125
0.0184829
0.0183125
0.0183125
0.0184969
0.0182986
0.0184829
0.0183125
0.0183125
0.0182986
0.0182696
0.0180713
0.0182557
0.0182557
0.0180852
0.0180852
0.0182696
0.0180713
0.0182557
0.0182557
0.0180852
0.0180852
0.0182557
0.0180852
0.0180852
0.0182696
0.0180713
0.0182557
0.0180852
0.0180852
0.0180713
0.0180423
0.017844
0.0180284
0.0180284
0.0178579
0.0178579
0.0180423
0.017844
0.0180284
0.0180284
0.0178579
0.0178579
0.0180284
0.0178579
0.0178579
0.0180423
0.017844
0.0180284
0.0178579
0.0178579
0.017844
0.0178151
0.0176167
0.0178011
0.0178011
0.0176306
0.0176306
0.0178151
0.0176167
0.0178011
0.0178011
0.0176306
0.0176306
0.0178011
0.0176306
0.0176306
0.0178151
0.0176167
0.0178011
0.0176306
0.0176306
0.0176167
0.0175878
0.0173894
0.0175738
0.0175738
0.0174033
0.0174033
0.0175878
0.0173894
0.0175738
0.0175738
0.0174033
0.0174033
0.0175738
0.0174033
0.0174033
0.0175878
0.0173894
0.0175738
0.0174033
0.0174033
0.0173894
0.0173605
0.0171621
0.0173465
0.0173465
0.017176
0.017176
0.0173605
0.0171621
0.0173465
0.0173465
0.017176
0.017176
0.0173465
0.017176
0.017176
0.0173605
0.0171621
0.0173465
0.017176
0.017176
0.0171621
0.0171331
0.0169348
0.0171192
0.0171192
0.0169487
0.0169487
0.0171332
0.0169348
0.0171192
0.0171192
0.0169487
0.0169487
0.0171192
0.0169487
0.0169487
0.0171332
0.0169348
0.0171192
0.0169487
0.0169487
0.0169348
0.0169058
0.0167075
0.0168919
0.0168919
0.0167214
0.0167214
0.0169058
0.0167075
0.0168919
0.0168919
0.0167214
0.0167214
0.0168919
0.0167214
0.0167214
0.0169058
0.0167075
0.0168919
0.0167214
0.0167214
0.0167075
0.0166786
0.0164802
0.0166646
0.0166646
0.0164941
0.0164941
0.0166786
0.0164802
0.0166646
0.0166646
0.0164941
0.0164941
0.0166646
0.0164941
0.0164941
0.0166786
0.0164802
0.0166646
0.0164941
0.0164941
0.0164802
0.0164513
0.0162529
0.0164373
0.0164373
0.0162668
0.0162668
0.0164513
0.0162529
0.0164373
0.0164373
0.0162668
0.0162668
0.0164373
0.0162668
0.0162668
0.0164513
0.0162529
0.0164373
0.0162668
0.0162668
0.0162529
0.016224
0.0160257
0.01621
0.01621
0.0160396
0.0160396
0.016224
0.0160257
0.01621
0.01621
0.0160396
0.0160396
0.01621
0.0160396
0.0160396
0.016224
0.0160257
0.01621
0.0160396
0.0160396
0.0160257
0.0159967
0.0157984
0.0159827
0.0159827
0.0158123
0.0158123
0.0159967
0.0157984
0.0159827
0.0159827
0.0158123
0.0158123
0.0159827
0.0158123
0.0158123
0.0159967
0.0157984
0.0159827
0.0158123
0.0158123
0.0157984
0.0157694
0.0155711
0.0157555
0.0157555
0.015585
0.015585
0.0157694
0.0155711
0.0157555
0.0157555
0.015585
0.015585
0.0157555
0.015585
0.015585
0.0157694
0.0155711
0.0157555
0.015585
0.015585
0.0155711
0.0155422
0.0153439
0.0155282
0.0155282
0.0153578
0.0153578
0.0155422
0.0153439
0.0155282
0.0155282
0.0153578
0.0153578
0.0155282
0.0153578
0.0153578
0.0155422
0.0153439
0.0155282
0.0153578
0.0153578
0.0153439
0.0153149
0.0151166
0.015301
0.015301
0.0151305
0.0151305
0.0153149
0.0151166
0.015301
0.015301
0.0151305
0.0151305
0.015301
0.0151305
0.0151305
0.0153149
0.0151166
0.015301
0.0151305
0.0151305
0.0151166
0.0150877
0.0148894
0.0150737
0.0150737
0.0149033
0.0149033
0.0150877
0.0148894
0.0150737
0.0150737
0.0149033
0.0149033
0.0150737
0.0149033
0.0149033
0.0150877
0.0148894
0.0150737
0.0149033
0.0149033
0.0148894
0.0148604
0.0146621
0.0148464
0.0148464
0.014676
0.014676
0.0148604
0.0146621
0.0148464
0.0148464
0.014676
0.014676
0.0148464
0.014676
0.014676
0.0148604
0.0146621
0.0148464
0.014676
0.014676
0.0146621
0.0146331
0.0144348
0.0146192
0.0146192
0.0144487
0.0144487
0.0146331
0.0144348
0.0146192
0.0146192
0.0144487
0.0144487
0.0146192
0.0144487
0.0144487
0.0146331
0.0144348
0.0146192
0.0144487
0.0144487
0.0144348
0.0144059
0.0142075
0.0143919
0.0143919
0.0142214
0.0142214
0.0144059
0.0142075
0.0143919
0.0143919
0.0142214
0.0142214
0.0143919
0.0142214
0.0142214
0.0144059
0.0142075
0.0143919
0.0142214
0.0142214
0.0142075
0.0141786
0.0139803
0.0141646
0.0141646
0.0139942
0.0139942
0.0141786
0.0139803
0.0141646
0.0141646
0.0139942
0.0139942
0.0141646
0.0139942
0.0139942
0.0141786
0.0139803
0.0141646
0.0139942
0.0139942
0.0139803
0.0139513
0.013753
0.0139373
0.0139373
0.0137669
0.0137669
0.0139513
0.013753
0.0139373
0.0139373
0.0137669
0.0137669
0.0139373
0.0137669
0.0137669
0.0139513
0.013753
0.0139373
0.0137669
0.0137669
0.013753
0.013724
0.0135256
0.01371
0.01371
0.0135396
0.0135396
0.013724
0.0135256
0.01371
0.01371
0.0135396
0.0135396
0.01371
0.0135396
0.0135396
0.013724
0.0135256
0.01371
0.0135396
0.0135396
0.0135256
0.0134967
0.0132983
0.0134827
0.0134827
0.0133122
0.0133122
0.0134967
0.0132983
0.0134827
0.0134827
0.0133122
0.0133122
0.0134827
0.0133122
0.0133122
0.0134967
0.0132983
0.0134827
0.0133122
0.0133122
0.0132983
0.0132694
0.013071
0.0132554
0.0132554
0.0130849
0.0130849
0.0132694
0.013071
0.0132554
0.0132554
0.0130849
0.0130849
0.0132554
0.0130849
0.0130849
0.0132694
0.013071
0.0132554
0.0130849
0.0130849
0.013071
0.0130421
0.0128437
0.0130281
0.0130281
0.0128576
0.0128576
0.0130421
0.0128437
0.0130281
0.0130281
0.0128576
0.0128576
0.0130281
0.0128576
0.0128576
0.0130421
0.0128437
0.0130281
0.0128576
0.0128576
0.0128437
0.0128148
0.0126164
0.0128008
0.0128008
0.0126303
0.0126303
0.0128148
0.0126164
0.0128008
0.0128008
0.0126303
0.0126303
0.0128008
0.0126303
0.0126303
0.0128148
0.0126164
0.0128008
0.0126303
0.0126303
0.0126164
0.0125875
0.0123892
0.0125735
0.0125735
0.0124031
0.0124031
0.0125875
0.0123891
0.0125735
0.0125735
0.0124031
0.0124031
0.0125735
0.0124031
0.0124031
0.0125875
0.0123892
0.0125735
0.0124031
0.0124031
0.0123892
0.0123602
0.0121619
0.0123462
0.0123462
0.0121758
0.0121758
0.0123602
0.0121619
0.0123462
0.0123462
0.0121758
0.0121758
0.0123462
0.0121758
0.0121758
0.0123602
0.0121619
0.0123462
0.0121758
0.0121758
0.0121619
0.0121329
0.0119346
0.012119
0.012119
0.0119485
0.0119485
0.0121329
0.0119346
0.012119
0.012119
0.0119485
0.0119485
0.012119
0.0119485
0.0119485
0.0121329
0.0119346
0.012119
0.0119485
0.0119485
0.0119346
0.0119056
0.0117073
0.0118917
0.0118917
0.0117212
0.0117212
0.0119056
0.0117073
0.0118917
0.0118917
0.0117212
0.0117212
0.0118917
0.0117212
0.0117212
0.0119056
0.0117073
0.0118917
0.0117212
0.0117212
0.0117073
0.0116784
0.0114801
0.0116644
0.0116644
0.011494
0.011494
0.0116784
0.0114801
0.0116644
0.0116644
0.011494
0.011494
0.0116644
0.011494
0.011494
0.0116784
0.0114801
0.0116644
0.011494
0.011494
0.0114801
0.0114511
0.0112528
0.0114372
0.0114372
0.0112667
0.0112667
0.0114511
0.0112528
0.0114372
0.0114372
0.0112667
0.0112667
0.0114372
0.0112667
0.0112667
0.0114511
0.0112528
0.0114372
0.0112667
0.0112667
0.0112528
0.0112239
0.0110256
0.0112099
0.0112099
0.0110395
0.0110395
0.0112239
0.0110256
0.0112099
0.0112099
0.0110395
0.0110395
0.0112099
0.0110395
0.0110395
0.0112239
0.0110256
0.0112099
0.0110395
0.0110395
0.0110256
0.0109966
0.0107983
0.0109827
0.0109827
0.0108122
0.0108122
0.0109966
0.0107983
0.0109827
0.0109827
0.0108122
0.0108122
0.0109827
0.0108122
0.0108122
0.0109966
0.0107983
0.0109827
0.0108122
0.0108122
0.0107983
0.0107693
0.010571
0.0107554
0.0107554
0.0105849
0.0105849
0.0107693
0.010571
0.0107554
0.0107554
0.0105849
0.0105849
0.0107554
0.0105849
0.0105849
0.0107693
0.010571
0.0107554
0.0105849
0.0105849
0.010571
0.0105421
0.0103437
0.0105281
0.0105281
0.0103577
0.0103577
0.0105421
0.0103437
0.0105281
0.0105281
0.0103577
0.0103577
0.0105281
0.0103577
0.0103577
0.0105421
0.0103437
0.0105281
0.0103577
0.0103577
0.0103437
0.0103148
0.0101165
0.0103008
0.0103008
0.0101304
0.0101304
0.0103148
0.0101165
0.0103008
0.0103008
0.0101304
0.0101304
0.0103008
0.0101304
0.0101304
0.0103148
0.0101165
0.0103008
0.0101304
0.0101304
0.0101165
0.0100875
0.00988916
0.0100735
0.0100735
0.00990307
0.00990307
0.0100875
0.00988916
0.0100735
0.0100735
0.00990307
0.00990307
0.0100735
0.00990307
0.00990307
0.0100875
0.00988916
0.0100735
0.00990307
0.00990307
0.00988916
0.0098602
0.00966186
0.00984624
0.00984624
0.00967576
0.00967576
0.0098602
0.00966186
0.00984624
0.00984624
0.00967576
0.00967576
0.00984624
0.00967576
0.00967577
0.0098602
0.00966186
0.00984624
0.00967576
0.00967577
0.00966186
0.00963289
0.00943455
0.00961894
0.00961894
0.00944846
0.00944846
0.00963289
0.00943455
0.00961894
0.00961894
0.00944846
0.00944846
0.00961894
0.00944846
0.00944846
0.00963289
0.00943455
0.00961894
0.00944846
0.00944846
0.00943455
0.00940559
0.00920725
0.00939163
0.00939163
0.00922116
0.00922116
0.00940559
0.00920725
0.00939163
0.00939163
0.00922116
0.00922116
0.00939163
0.00922116
0.00922116
0.00940559
0.00920725
0.00939163
0.00922116
0.00922116
0.00920725
0.00917829
0.00897995
0.00916433
0.00916433
0.00899386
0.00899386
0.00917829
0.00897995
0.00916433
0.00916433
0.00899386
0.00899386
0.00916433
0.00899386
0.00899386
0.00917829
0.00897995
0.00916433
0.00899386
0.00899386
0.00897995
0.00895099
0.00875266
0.00893703
0.00893703
0.00876657
0.00876656
0.00895099
0.00875266
0.00893703
0.00893703
0.00876657
0.00876656
0.00893703
0.00876656
0.00876656
0.00895099
0.00875266
0.00893703
0.00876656
0.00876656
0.00875266
0.0087237
0.00852537
0.00870974
0.00870974
0.00853928
0.00853928
0.0087237
0.00852537
0.00870974
0.00870974
0.00853928
0.00853928
0.00870974
0.00853928
0.00853928
0.0087237
0.00852537
0.00870974
0.00853928
0.00853928
0.00852537
0.00849641
0.0082981
0.00848246
0.00848246
0.00831201
0.00831201
0.00849641
0.0082981
0.00848246
0.00848246
0.00831201
0.00831201
0.00848246
0.00831201
0.00831201
0.00849641
0.0082981
0.00848246
0.00831201
0.00831201
0.0082981
0.00826914
0.00807084
0.00825519
0.00825519
0.00808474
0.00808474
0.00826914
0.00807083
0.00825519
0.00825519
0.00808474
0.00808474
0.00825519
0.00808474
0.00808474
0.00826914
0.00807084
0.00825519
0.00808474
0.00808474
0.00807084
0.00804188
0.00784358
0.00802792
0.00802792
0.00785748
0.00785748
0.00804188
0.00784358
0.00802792
0.00802792
0.00785748
0.00785748
0.00802792
0.00785748
0.00785748
0.00804188
0.00784358
0.00802792
0.00785748
0.00785748
0.00784358
0.00781462
0.00761632
0.00780067
0.00780067
0.00763023
0.00763023
0.00781462
0.00761632
0.00780067
0.00780067
0.00763023
0.00763023
0.00780067
0.00763023
0.00763023
0.00781462
0.00761632
0.00780067
0.00763023
0.00763023
0.00761632
0.00758736
0.00738907
0.00757341
0.00757341
0.00740298
0.00740298
0.00758736
0.00738907
0.00757341
0.00757341
0.00740298
0.00740298
0.00757342
0.00740298
0.00740298
0.00758736
0.00738907
0.00757341
0.00740298
0.00740297
0.00738907
0.00736011
0.00716182
0.00734616
0.00734616
0.00717572
0.00717572
0.00736011
0.00716182
0.00734616
0.00734616
0.00717572
0.00717572
0.00734616
0.00717572
0.00717572
0.00736011
0.00716182
0.00734616
0.00717572
0.00717572
0.00716182
0.00713286
0.00693456
0.00711891
0.00711891
0.00694846
0.00694846
0.00713286
0.00693456
0.00711891
0.00711891
0.00694846
0.00694846
0.00711891
0.00694846
0.00694846
0.00713286
0.00693456
0.00711891
0.00694846
0.00694846
0.00693456
0.0069056
0.00670729
0.00689165
0.00689165
0.0067212
0.00672119
0.0069056
0.00670729
0.00689165
0.00689165
0.0067212
0.0067212
0.00689165
0.00672119
0.0067212
0.0069056
0.00670729
0.00689164
0.0067212
0.00672119
0.00670729
0.00667833
0.00648002
0.00666438
0.00666438
0.00649392
0.00649392
0.00667833
0.00648002
0.00666438
0.00666438
0.00649392
0.00649392
0.00666438
0.00649392
0.00649392
0.00667833
0.00648002
0.00666438
0.00649392
0.00649392
0.00648002
0.00645106
0.00625273
0.0064371
0.0064371
0.00626664
0.00626664
0.00645106
0.00625273
0.0064371
0.0064371
0.00626664
0.00626664
0.0064371
0.00626664
0.00626664
0.00645106
0.00625273
0.0064371
0.00626664
0.00626664
0.00625273
0.00622377
0.00602544
0.00620981
0.00620981
0.00603935
0.00603934
0.00622377
0.00602544
0.00620981
0.00620981
0.00603934
0.00603934
0.00620981
0.00603934
0.00603935
0.00622377
0.00602544
0.00620981
0.00603935
0.00603934
0.00602544
0.00599647
0.00579814
0.00598252
0.00598252
0.00581205
0.00581205
0.00599647
0.00579814
0.00598252
0.00598252
0.00581205
0.00581205
0.00598252
0.00581205
0.00581205
0.00599647
0.00579814
0.00598252
0.00581205
0.00581205
0.00579814
0.00576918
0.00557084
0.00575522
0.00575522
0.00558475
0.00558475
0.00576918
0.00557084
0.00575522
0.00575522
0.00558475
0.00558475
0.00575522
0.00558475
0.00558475
0.00576918
0.00557084
0.00575522
0.00558475
0.00558475
0.00557084
0.00554188
0.00534354
0.00552792
0.00552792
0.00535745
0.00535745
0.00554188
0.00534354
0.00552792
0.00552792
0.00535745
0.00535745
0.00552792
0.00535745
0.00535745
0.00554188
0.00534354
0.00552792
0.00535745
0.00535745
0.00534354
0.00531458
0.00511625
0.00530063
0.00530062
0.00513015
0.00513015
0.00531458
0.00511625
0.00530062
0.00530063
0.00513015
0.00513015
0.00530063
0.00513015
0.00513015
0.00531458
0.00511625
0.00530062
0.00513015
0.00513015
0.00511625
0.00508728
0.00488896
0.00507333
0.00507333
0.00490286
0.00490286
0.00508728
0.00488896
0.00507333
0.00507333
0.00490286
0.00490286
0.00507333
0.00490286
0.00490286
0.00508728
0.00488896
0.00507333
0.00490286
0.00490286
0.00488896
0.00486
0.00466168
0.00484604
0.00484604
0.00467558
0.00467558
0.00486
0.00466168
0.00484604
0.00484604
0.00467558
0.00467558
0.00484604
0.00467558
0.00467558
0.00486
0.00466168
0.00484604
0.00467558
0.00467558
0.00466168
0.00463272
0.00443441
0.00461876
0.00461876
0.00444831
0.00444831
0.00463272
0.00443441
0.00461876
0.00461876
0.00444831
0.00444831
0.00461876
0.00444831
0.00444831
0.00463272
0.00443441
0.00461876
0.00444831
0.00444831
0.00443441
0.00440545
0.00420714
0.00439149
0.00439149
0.00422105
0.00422105
0.00440545
0.00420714
0.00439149
0.00439149
0.00422105
0.00422105
0.00439149
0.00422105
0.00422105
0.00440545
0.00420714
0.00439149
0.00422105
0.00422105
0.00420714
0.00417818
0.00397989
0.00416423
0.00416423
0.00399379
0.00399379
0.00417818
0.00397989
0.00416423
0.00416423
0.00399379
0.00399379
0.00416423
0.00399379
0.00399379
0.00417818
0.00397989
0.00416423
0.00399379
0.00399379
0.00397989
0.00395093
0.00375264
0.00393698
0.00393698
0.00376654
0.00376654
0.00395093
0.00375263
0.00393698
0.00393698
0.00376654
0.00376654
0.00393698
0.00376654
0.00376654
0.00395093
0.00375264
0.00393698
0.00376654
0.00376654
0.00375263
0.00372368
0.00352539
0.00370973
0.00370973
0.00353929
0.00353929
0.00372368
0.00352539
0.00370973
0.00370973
0.00353929
0.00353929
0.00370973
0.00353929
0.00353929
0.00372368
0.00352539
0.00370972
0.00353929
0.00353929
0.00352539
0.00349643
0.00329813
0.00348248
0.00348248
0.00331204
0.00331203
0.00349643
0.00329813
0.00348248
0.00348248
0.00331203
0.00331203
0.00348248
0.00331203
0.00331204
0.00349643
0.00329813
0.00348247
0.00331203
0.00331203
0.00329813
0.00326917
0.00307087
0.00325522
0.00325522
0.00308478
0.00308478
0.00326917
0.00307087
0.00325522
0.00325522
0.00308478
0.00308478
0.00325522
0.00308478
0.00308478
0.00326917
0.00307087
0.00325522
0.00308478
0.00308478
0.00307087
0.00304191
0.00284361
0.00302796
0.00302796
0.00285751
0.00285751
0.00304191
0.00284361
0.00302796
0.00302796
0.00285751
0.00285751
0.00302796
0.00285751
0.00285751
0.00304191
0.00284361
0.00302796
0.00285751
0.00285751
0.00284361
0.00281465
0.00261633
0.00280069
0.00280069
0.00263023
0.00263023
0.00281465
0.00261633
0.00280069
0.00280069
0.00263023
0.00263023
0.00280069
0.00263023
0.00263023
0.00281465
0.00261633
0.00280069
0.00263023
0.00263023
0.00261633
0.00258737
0.00238905
0.00257341
0.00257341
0.00240295
0.00240295
0.00258737
0.00238905
0.00257341
0.00257341
0.00240295
0.00240295
0.00257341
0.00240295
0.00240295
0.00258737
0.00238905
0.00257341
0.00240295
0.00240295
0.00238905
0.00236008
0.00216175
0.00234613
0.00234613
0.00217566
0.00217566
0.00236008
0.00216175
0.00234613
0.00234613
0.00217566
0.00217566
0.00234613
0.00217566
0.00217566
0.00236008
0.00216175
0.00234613
0.00217566
0.00217566
0.00216175
0.00213279
0.00193445
0.00211883
0.00211883
0.00194836
0.00194836
0.00213279
0.00193445
0.00211883
0.00211883
0.00194836
0.00194836
0.00211883
0.00194836
0.00194836
0.00213279
0.00193445
0.00211883
0.00194836
0.00194835
0.00193445
0.00190549
0.00170715
0.00189153
0.00189153
0.00172106
0.00172106
0.00190549
0.00170715
0.00189153
0.00189153
0.00172106
0.00172106
0.00189153
0.00172106
0.00172106
0.00190549
0.00170715
0.00189153
0.00172106
0.00172106
0.00170715
0.00167819
0.00147985
0.00166424
0.00166423
0.00149376
0.00149376
0.00167819
0.00147985
0.00166424
0.00166424
0.00149376
0.00149376
0.00166424
0.00149376
0.00149376
0.00167819
0.00147985
0.00166423
0.00149376
0.00149376
0.00147985
0.00145088
0.00125254
0.00143693
0.00143693
0.00126645
0.00126645
0.00145088
0.00125254
0.00143693
0.00143693
0.00126645
0.00126645
0.00143693
0.00126645
0.00126645
0.00145089
0.00125254
0.00143693
0.00126645
0.00126645
0.00125254
0.00122358
0.00102526
0.00120963
0.00120963
0.00103917
0.00103916
0.00122358
0.00102526
0.00120963
0.00120963
0.00103916
0.00103916
0.00120963
0.00103916
0.00103917
0.00122358
0.00102526
0.00120963
0.00103917
0.00103916
0.00102526
0.000996298
0.000797982
0.000982346
0.000982345
0.000811888
0.000811887
0.000996299
0.000797982
0.000982345
0.000982346
0.000811887
0.000811886
0.000982346
0.000811887
0.000811888
0.000996298
0.000797981
0.000982345
0.000811887
0.000811887
0.000797982
0.000769019
0.000570698
0.000755067
0.000755066
0.000584606
0.00058461
0.00076902
0.000570701
0.000755067
0.000755065
0.000584605
0.000584603
0.000755067
0.00058461
0.000584607
0.000769018
0.000570696
0.000755066
0.000584603
0.000584606
0.000570699
0.000541736
0.00034347
0.00052779
0.000527795
0.000357413
0.000357426
0.00054174
0.000343488
0.00052779
0.000527787
0.000357409
0.000357398
0.000527791
0.000357424
0.00035741
0.000541732
0.000343455
0.000527789
0.000357398
0.000357408
0.000343469
0.000314523
0.000120718
0.000300704
0.000300724
0.000134459
0.000134514
0.000314544
0.000120761
0.0003007
0.00030068
0.000134477
0.000134427
0.000300699
0.000134503
0.000134451
0.000314503
0.000120677
0.000300698
0.000134421
0.000134475
0.000120714
9.62863e-05
9.61008e-05
9.61339e-05
9.63223e-05
9.61049e-05
9.6073e-05
8.93254e-05
8.92903e-05
8.93061e-05
9.60969e-05
9.62526e-05
9.61035e-05
0.0215142
0.0215506
0.0215309
0.021531
0.0216071
0.0215646
0.0216716
0.0215428
0.0216071
0.0215646
0.0215428
0.0216715
0.0215802
0.0216885
0.0216885
0.0213697
0.0214893
0.0214782
0.0213711
0.0213618
0.0213664
0.0213697
0.0214894
0.0214781
0.0213712
0.0214351
0.0214351
0.0214351
0.0212668
0.0212668
0.0212668
0.0212668
0.0213675
0.0214703
0.0214379
0.0213804
0.0214522
0.0213698
0.0213803
0.0213619
0.0213665
0.0213676
0.0214379
0.0214703
0.0213804
0.0214523
0.0213803
0.0213698
0.0214723
0.0214723
0.0213668
0.0213687
0.0213687
0.0211393
0.0212247
0.0212247
0.0211393
0.0212246
0.0211393
0.0211393
0.0212247
0.0212247
0.0211393
0.0212101
0.0212101
0.0212101
0.0210397
0.0210397
0.0210397
0.0210397
0.0211398
0.0212242
0.0212102
0.0211534
0.0212241
0.0211398
0.0211534
0.0212246
0.0211393
0.0211398
0.0212102
0.0212242
0.0211534
0.0212241
0.0211534
0.0211398
0.0212246
0.0212246
0.0211395
0.0211393
0.0211393
0.0209119
0.0209971
0.0209971
0.0209119
0.0209971
0.020912
0.0209119
0.0209971
0.0209971
0.0209119
0.0209829
0.0209829
0.0209829
0.0208125
0.0208125
0.0208125
0.0208125
0.0209125
0.0209966
0.0209829
0.0209261
0.0209966
0.0209124
0.0209261
0.0209971
0.020912
0.0209125
0.0209829
0.0209966
0.0209261
0.0209966
0.0209261
0.0209124
0.0209971
0.0209971
0.0209122
0.020912
0.020912
0.0206846
0.0207698
0.0207698
0.0206846
0.0207698
0.0206847
0.0206846
0.0207698
0.0207698
0.0206846
0.0207557
0.0207557
0.0207557
0.0205852
0.0205852
0.0205852
0.0205852
0.0206852
0.0207693
0.0207556
0.0206988
0.0207693
0.0206851
0.0206988
0.0207698
0.0206847
0.0206852
0.0207556
0.0207693
0.0206988
0.0207693
0.0206988
0.0206851
0.0207698
0.0207698
0.0206849
0.0206847
0.0206847
0.0204573
0.0205425
0.0205425
0.0204573
0.0205425
0.0204574
0.0204573
0.0205425
0.0205425
0.0204573
0.0205284
0.0205284
0.0205284
0.0203579
0.0203579
0.0203579
0.0203579
0.0204579
0.020542
0.0205283
0.0204715
0.020542
0.0204578
0.0204715
0.0205425
0.0204574
0.0204579
0.0205283
0.020542
0.0204715
0.020542
0.0204715
0.0204578
0.0205425
0.0205425
0.0204576
0.0204574
0.0204574
0.0202301
0.0203152
0.0203152
0.0202301
0.0203152
0.0202301
0.0202301
0.0203152
0.0203152
0.0202301
0.0203011
0.0203011
0.0203011
0.0201306
0.0201306
0.0201306
0.0201306
0.0202306
0.0203147
0.020301
0.0202442
0.0203147
0.0202305
0.0202442
0.0203152
0.0202301
0.0202306
0.020301
0.0203147
0.0202442
0.0203147
0.0202442
0.0202305
0.0203152
0.0203152
0.0202303
0.0202301
0.0202301
0.0200028
0.020088
0.020088
0.0200028
0.0200879
0.0200028
0.0200028
0.020088
0.020088
0.0200028
0.0200738
0.0200738
0.0200738
0.0199034
0.0199034
0.0199034
0.0199034
0.0200033
0.0200875
0.0200738
0.0200169
0.0200874
0.0200033
0.0200169
0.0200879
0.0200028
0.0200033
0.0200738
0.0200875
0.0200169
0.0200874
0.0200169
0.0200033
0.0200879
0.0200879
0.020003
0.0200028
0.0200028
0.0197755
0.0198607
0.0198607
0.0197755
0.0198607
0.0197755
0.0197755
0.0198607
0.0198607
0.0197755
0.0198465
0.0198465
0.0198465
0.0196761
0.0196761
0.0196761
0.0196761
0.0197761
0.0198602
0.0198465
0.0197897
0.0198602
0.019776
0.0197897
0.0198607
0.0197755
0.0197761
0.0198465
0.0198602
0.0197897
0.0198602
0.0197897
0.019776
0.0198607
0.0198607
0.0197758
0.0197755
0.0197755
0.0195483
0.0196334
0.0196334
0.0195483
0.0196334
0.0195483
0.0195483
0.0196334
0.0196334
0.0195483
0.0196193
0.0196193
0.0196193
0.0194488
0.0194488
0.0194488
0.0194488
0.0195488
0.0196329
0.0196192
0.0195624
0.0196329
0.0195487
0.0195624
0.0196334
0.0195483
0.0195488
0.0196192
0.0196329
0.0195624
0.0196329
0.0195624
0.0195487
0.0196334
0.0196334
0.0195485
0.0195483
0.0195483
0.019321
0.0194062
0.0194062
0.019321
0.0194061
0.019321
0.019321
0.0194062
0.0194062
0.019321
0.019392
0.019392
0.019392
0.0192216
0.0192216
0.0192216
0.0192216
0.0193215
0.0194057
0.019392
0.0193351
0.0194056
0.0193215
0.0193352
0.0194061
0.019321
0.0193215
0.019392
0.0194057
0.0193351
0.0194056
0.0193352
0.0193215
0.0194061
0.0194061
0.0193212
0.019321
0.019321
0.0190937
0.0191789
0.0191789
0.0190937
0.0191789
0.0190938
0.0190937
0.0191789
0.0191789
0.0190938
0.0191648
0.0191648
0.0191648
0.0189943
0.0189943
0.0189943
0.0189943
0.0190943
0.0191784
0.0191647
0.0191079
0.0191784
0.0190942
0.0191079
0.0191789
0.0190938
0.0190943
0.0191647
0.0191784
0.0191079
0.0191784
0.0191079
0.0190942
0.0191789
0.0191789
0.019094
0.0190938
0.0190938
0.0188665