/*--------------------------------*- C++ -*----------------------------------*\
| =========                 |                                                 |
| \\      /  F ield         | OpenFOAM: The Open Source CFD Toolbox           |
|  \\    /   O peration     | Version:  v1912                                 |
|   \\  /    A nd           | Website:  www.openfoam.com                      |
|    \\/     M anipulation  |                                                 |
\*---------------------------------------------------------------------------*/
FoamFile
{
    version     2.0;
    format      ascii;
    class       volScalarField;
    location    "1.4";
    object      nut;
}
// * * * * * * * * * * * * * * * * * * * * * * * * * * * * * * * * * * * * * //

dimensions      [0 2 -1 0 0 0 0];


internalField   nonuniform List<scalar> 
171728
(
1.0586e-06
1.07814e-06
1.07866e-06
4.42592e-07
7.06937e-08
8.13731e-08
8.15545e-08
9.81377e-08
5.59313e-09
6.81879e-09
6.81626e-09
9.58539e-08
1.64819e-09
3.89323e-09
3.8656e-09
9.59941e-08
1.73084e-09
3.66902e-09
3.67321e-09
9.59982e-08
1.7319e-09
3.66142e-09
3.66705e-09
9.59989e-08
1.72256e-09
3.66798e-09
3.66082e-09
9.59989e-08
1.73579e-09
3.6725e-09
3.66897e-09
9.59979e-08
1.73759e-09
3.66921e-09
3.66151e-09
9.60008e-08
1.73514e-09
3.66899e-09
3.66368e-09
9.59992e-08
1.73328e-09
3.66875e-09
3.66738e-09
9.60002e-08
1.74101e-09
3.6653e-09
3.66586e-09
9.59998e-08
1.74426e-09
3.69632e-09
3.66819e-09
9.59995e-08
1.74894e-09
3.69388e-09
3.66354e-09
9.59995e-08
1.72881e-09
3.65813e-09
3.66847e-09
9.59995e-08
1.73098e-09
3.65718e-09
3.66365e-09
9.60005e-08
1.74008e-09
3.67052e-09
3.6662e-09
9.60016e-08
1.73356e-09
3.66063e-09
3.66578e-09
9.60002e-08
1.73665e-09
3.65018e-09
3.66656e-09
9.5999e-08
1.72406e-09
3.6849e-09
3.66168e-09
9.59919e-08
1.83533e-09
3.6656e-09
3.66624e-09
9.60024e-08
1.73273e-09
3.67103e-09
3.66579e-09
9.6002e-08
1.73713e-09
3.6693e-09
3.66632e-09
9.60026e-08
1.73606e-09
3.66988e-09
3.66738e-09
9.60024e-08
1.73811e-09
3.66783e-09
3.66563e-09
9.60031e-08
1.73597e-09
3.66909e-09
3.66611e-09
9.60023e-08
1.7377e-09
3.67026e-09
3.66748e-09
9.60028e-08
1.73694e-09
3.6692e-09
3.66641e-09
9.60029e-08
1.73656e-09
3.66797e-09
3.6652e-09
9.60022e-08
1.73764e-09
3.66989e-09
3.66726e-09
9.60018e-08
1.73674e-09
3.66968e-09
3.6666e-09
9.60025e-08
1.73754e-09
3.66691e-09
3.66574e-09
9.60028e-08
1.73728e-09
3.67104e-09
3.66683e-09
9.60028e-08
1.7362e-09
3.67084e-09
3.66709e-09
9.60022e-08
1.73749e-09
3.67082e-09
3.66704e-09
9.60029e-08
1.73697e-09
3.6687e-09
3.6657e-09
9.60023e-08
1.73797e-09
3.67077e-09
3.66778e-09
9.60024e-08
1.73767e-09
3.67007e-09
3.6671e-09
9.6003e-08
1.73744e-09
3.67142e-09
3.67396e-09
9.60033e-08
1.75458e-09
3.67739e-09
3.67239e-09
9.59879e-08
1.90004e-09
3.65385e-09
3.66802e-09
9.60014e-08
1.73621e-09
3.65967e-09
3.66202e-09
9.60026e-08
1.73843e-09
3.66869e-09
3.66065e-09
9.60036e-08
1.73937e-09
3.66643e-09
3.66073e-09
9.60033e-08
1.74189e-09
3.6676e-09
3.66556e-09
9.60031e-08
1.74022e-09
3.66583e-09
3.66118e-09
9.60036e-08
1.73915e-09
3.66538e-09
3.6647e-09
9.60049e-08
1.73997e-09
3.66686e-09
3.66907e-09
9.60038e-08
1.74019e-09
3.66786e-09
3.67029e-09
9.60032e-08
1.74015e-09
3.6663e-09
3.66874e-09
9.60037e-08
1.73943e-09
3.6655e-09
3.66832e-09
9.60035e-08
1.74059e-09
3.66621e-09
3.66757e-09
9.60032e-08
1.74118e-09
3.66796e-09
3.66937e-09
9.60037e-08
1.7421e-09
3.67497e-09
3.66803e-09
9.60036e-08
1.7435e-09
3.66939e-09
3.66917e-09
9.60027e-08
1.73857e-09
3.66592e-09
3.66879e-09
9.59988e-08
1.73653e-09
3.67106e-09
3.66894e-09
9.59893e-08
1.73639e-09
3.67035e-09
3.6676e-09
9.59896e-08
1.73694e-09
3.67164e-09
3.66904e-09
9.59888e-08
1.73779e-09
3.67086e-09
3.66735e-09
9.5989e-08
1.73772e-09
3.67208e-09
3.6698e-09
9.59886e-08
1.73622e-09
3.67033e-09
3.66744e-09
9.59894e-08
1.7361e-09
3.6724e-09
3.66959e-09
9.59881e-08
1.73749e-09
3.67204e-09
3.66954e-09
9.59883e-08
1.7368e-09
3.67168e-09
3.66898e-09
9.59889e-08
1.73639e-09
3.67114e-09
3.66839e-09
9.59885e-08
1.73642e-09
3.67022e-09
3.6675e-09
9.59883e-08
1.73607e-09
3.67079e-09
3.66854e-09
9.59888e-08
1.73201e-09
3.66942e-09
3.66796e-09
9.59893e-08
1.72884e-09
3.67094e-09
3.65041e-09
9.59907e-08
1.73319e-09
3.67389e-09
3.66623e-09
9.59865e-08
1.73754e-09
3.67127e-09
3.66874e-09
9.59885e-08
1.73617e-09
3.67043e-09
3.66724e-09
9.59888e-08
1.73586e-09
3.67126e-09
3.6679e-09
9.59872e-08
1.73782e-09
3.67152e-09
3.66806e-09
9.59871e-08
1.73577e-09
3.67098e-09
3.66764e-09
9.59875e-08
1.73648e-09
3.67079e-09
3.66726e-09
9.59875e-08
1.73739e-09
3.67128e-09
3.66798e-09
9.59874e-08
1.73716e-09
3.67041e-09
3.66759e-09
9.5987e-08
1.73656e-09
3.67209e-09
3.66934e-09
9.59879e-08
1.73598e-09
3.67083e-09
3.66813e-09
9.5987e-08
1.73668e-09
3.67132e-09
3.66851e-09
9.59875e-08
1.73717e-09
3.67115e-09
3.66838e-09
9.59875e-08
1.739e-09
3.67134e-09
3.66864e-09
9.59875e-08
1.73926e-09
3.67145e-09
3.66869e-09
9.59876e-08
1.73945e-09
3.67071e-09
3.66844e-09
9.59865e-08
1.739e-09
3.67252e-09
3.67008e-09
9.59874e-08
1.7375e-09
3.67014e-09
3.66789e-09
9.59871e-08
1.73869e-09
3.67056e-09
3.66756e-09
9.5987e-08
1.73978e-09
3.67146e-09
3.66839e-09
9.59873e-08
1.74211e-09
3.66947e-09
3.66453e-09
9.599e-08
1.80923e-09
3.69081e-09
3.6964e-09
9.59883e-08
4.15499e-09
4.65998e-09
4.71593e-09
9.59023e-08
4.97539e-08
4.43849e-08
4.43216e-08
9.49379e-08
4.43613e-07
2.28513e-07
2.28543e-07
4.80009e-07
3.72177e-07
6.68988e-07
6.69314e-07
3.72274e-07
6.69066e-07
6.69118e-07
1.89679e-06
1.89686e-06
1.89677e-06
1.89683e-06
6.68896e-07
6.68869e-07
3.71995e-07
6.68741e-07
6.6908e-07
3.71939e-07
4.42653e-07
2.51122e-07
1.07872e-06
1.07878e-06
1.78936e-07
1.78932e-07
4.4261e-07
2.51036e-07
1.07859e-06
1.07928e-06
1.79103e-07
1.78992e-07
1.079e-06
1.78967e-07
1.78848e-07
4.42571e-07
2.51129e-07
1.07883e-06
1.78996e-07
1.7898e-07
2.51131e-07
9.81916e-08
2.44504e-07
8.14546e-08
8.1479e-08
1.05468e-08
1.06334e-08
9.81731e-08
2.44574e-07
8.14784e-08
8.14488e-08
1.05014e-08
1.05545e-08
8.14349e-08
1.04424e-08
1.0536e-08
9.82091e-08
2.44525e-07
8.15921e-08
1.05204e-08
1.04681e-08
2.44521e-07
9.57699e-08
2.44035e-07
6.86243e-09
6.84953e-09
4.10928e-09
4.10279e-09
9.57763e-08
2.44045e-07
6.87669e-09
6.85838e-09
4.07911e-09
4.11268e-09
6.87084e-09
4.08398e-09
4.12661e-09
9.58284e-08
2.44062e-07
6.87967e-09
4.05021e-09
4.0394e-09
2.44022e-07
9.59755e-08
2.44011e-07
3.90697e-09
3.94487e-09
3.72349e-09
3.72727e-09
9.59518e-08
2.44009e-07
3.85277e-09
3.90971e-09
3.6783e-09
3.73019e-09
3.92597e-09
3.67589e-09
3.71746e-09
9.59964e-08
2.44035e-07
3.87235e-09
3.66248e-09
3.66767e-09
2.43983e-07
9.59774e-08
2.44007e-07
3.72117e-09
3.72351e-09
3.71419e-09
3.72578e-09
9.59589e-08
2.44001e-07
3.66143e-09
3.72365e-09
3.68273e-09
3.71761e-09
3.70848e-09
3.661e-09
3.70383e-09
9.59937e-08
2.44029e-07
3.66053e-09
3.6502e-09
3.65424e-09
2.43979e-07
9.59776e-08
2.44012e-07
3.71881e-09
3.73398e-09
3.6973e-09
3.75135e-09
9.59626e-08
2.44011e-07
3.64905e-09
3.71705e-09
3.67437e-09
3.7119e-09
3.70294e-09
3.67244e-09
3.69739e-09
9.59946e-08
2.44038e-07
3.65489e-09
3.64386e-09
3.64842e-09
2.43986e-07
9.59813e-08
2.44014e-07
3.6714e-09
3.74221e-09
3.73323e-09
3.73131e-09
9.59557e-08
2.44011e-07
3.63895e-09
3.71212e-09
3.67895e-09
3.71435e-09
3.69638e-09
3.67125e-09
3.70036e-09
9.59942e-08
2.44035e-07
3.64915e-09
3.6472e-09
3.65186e-09
2.43983e-07
9.59818e-08
2.44012e-07
3.71998e-09
3.73532e-09
3.71639e-09
3.73366e-09
9.59519e-08
2.44006e-07
3.65483e-09
3.71802e-09
3.68491e-09
3.71665e-09
3.70287e-09
3.67232e-09
3.70254e-09
9.59931e-08
2.44031e-07
3.6566e-09
3.6499e-09
3.65424e-09
2.43978e-07
9.59612e-08
2.44015e-07
3.71537e-09
3.73209e-09
3.68861e-09
3.71445e-09
9.59546e-08
2.44026e-07
3.65076e-09
3.71653e-09
3.66559e-09
3.71264e-09
3.70038e-09
3.66548e-09
3.69697e-09
9.59957e-08
2.44041e-07
3.6516e-09
3.6435e-09
3.64853e-09
2.43988e-07
9.59701e-08
2.44e-07
3.69989e-09
3.68235e-09
3.72595e-09
3.66613e-09
9.59471e-08
2.44009e-07
3.65593e-09
3.7152e-09
3.66139e-09
3.71691e-09
3.69791e-09
3.66963e-09
3.70188e-09
9.59943e-08
2.44034e-07
3.65163e-09
3.64886e-09
3.65396e-09
2.4398e-07
9.59827e-08
2.44011e-07
3.76506e-09
3.69097e-09
3.71538e-09
3.67114e-09
9.59536e-08
2.44009e-07
3.66329e-09
3.7172e-09
3.67019e-09
3.71468e-09
3.70045e-09
3.6682e-09
3.69876e-09
9.59946e-08
2.44037e-07
3.65443e-09
3.64681e-09
3.65e-09
2.43985e-07
9.59697e-08
2.44004e-07
3.71562e-09
3.66143e-09
3.71402e-09
3.66079e-09
9.59542e-08
2.44036e-07
3.66491e-09
3.71543e-09
3.66467e-09
3.71451e-09
3.69939e-09
3.68303e-09
3.7056e-09
9.59953e-08
2.44034e-07
3.65131e-09
3.64901e-09
3.65069e-09
2.43983e-07
9.59719e-08
2.44006e-07
3.71715e-09
3.67651e-09
3.70241e-09
3.73428e-09
9.59485e-08
2.44036e-07
3.66052e-09
3.71611e-09
3.65307e-09
3.71101e-09
3.70648e-09
3.68672e-09
3.70223e-09
9.59958e-08
2.44038e-07
3.65363e-09
3.64521e-09
3.64911e-09
2.4399e-07
9.59708e-08
2.43999e-07
3.70535e-09
3.74251e-09
3.72819e-09
3.72598e-09
9.59549e-08
2.44016e-07
3.65052e-09
3.71196e-09
3.64846e-09
3.71623e-09
3.70093e-09
3.66517e-09
3.70369e-09
9.59959e-08
2.44035e-07
3.65112e-09
3.6488e-09
3.6546e-09
2.43982e-07
9.5974e-08
2.44008e-07
3.73088e-09
3.71595e-09
3.71723e-09
3.77912e-09
9.59647e-08
2.44002e-07
3.66891e-09
3.71846e-09
3.67e-09
3.71269e-09
3.7045e-09
3.66445e-09
3.69847e-09
9.59952e-08
2.44041e-07
3.657e-09
3.64537e-09
3.6496e-09
2.43989e-07
9.59713e-08
2.43999e-07
3.71756e-09
3.74719e-09
3.72414e-09
3.7329e-09
9.5982e-08
2.43987e-07
3.66701e-09
3.71368e-09
3.67026e-09
3.71573e-09
3.69708e-09
3.66674e-09
3.70272e-09
9.59957e-08
2.44036e-07
3.65037e-09
3.64785e-09
3.6536e-09
2.43982e-07
9.59732e-08
2.44004e-07
3.70737e-09
3.73118e-09
3.72341e-09
3.71784e-09
9.59754e-08
2.44033e-07
3.66861e-09
3.71647e-09
3.6688e-09
3.71346e-09
3.70126e-09
3.66815e-09
3.70044e-09
9.59964e-08
2.44042e-07
3.65403e-09
3.64551e-09
3.65101e-09
2.43988e-07
9.59697e-08
2.4402e-07
3.70155e-09
3.70806e-09
3.69538e-09
3.70128e-09
9.59861e-08
2.44033e-07
3.66665e-09
3.7169e-09
3.6625e-09
3.71658e-09
3.70244e-09
3.64415e-09
3.69967e-09
9.59952e-08
2.44039e-07
3.65442e-09
3.64737e-09
3.64781e-09
2.43989e-07
9.59729e-08
2.43993e-07
3.69539e-09
3.73051e-09
3.75532e-09
3.81378e-09
9.60178e-08
2.44071e-07
3.65815e-09
3.71747e-09
3.67873e-09
3.71148e-09
3.69818e-09
3.69109e-09
3.71186e-09
9.59961e-08
2.4404e-07
3.64524e-09
3.64509e-09
3.64353e-09
2.44002e-07
9.60109e-08
2.44063e-07
3.72438e-09
3.75068e-09
3.70008e-09
3.78245e-09
9.59572e-08
2.44033e-07
3.68198e-09
3.71162e-09
3.51399e-09
3.71678e-09
3.72568e-09
3.65578e-09
3.70288e-09
9.59982e-08
2.44044e-07
3.6622e-09
3.64386e-09
3.65181e-09
2.43992e-07
9.59654e-08
2.44027e-07
3.76278e-09
3.77167e-09
3.73441e-09
3.72744e-09
9.59663e-08
2.44022e-07
3.59333e-09
3.7142e-09
3.68185e-09
3.71337e-09
3.70108e-09
3.67584e-09
3.69936e-09
9.5997e-08
2.44043e-07
3.65202e-09
3.64686e-09
3.65187e-09
2.43991e-07
9.5993e-08
2.44025e-07
3.72734e-09
3.73275e-09
3.7158e-09
3.73373e-09
9.5971e-08
2.44022e-07
3.66695e-09
3.7148e-09
3.67214e-09
3.7152e-09
3.69986e-09
3.67119e-09
3.70103e-09
9.59976e-08
2.44043e-07
3.65352e-09
3.64775e-09
3.65268e-09
2.43989e-07
9.59926e-08
2.44023e-07
3.72124e-09
3.73598e-09
3.71354e-09
3.73372e-09
9.5971e-08
2.4402e-07
3.66601e-09
3.71571e-09
3.67035e-09
3.71509e-09
3.70093e-09
3.67152e-09
3.70019e-09
9.59976e-08
2.44041e-07
3.65443e-09
3.64835e-09
3.6606e-09
2.43989e-07
9.59929e-08
2.44025e-07
3.71954e-09
3.73578e-09
3.71162e-09
3.73223e-09
9.59712e-08
2.44022e-07
3.66417e-09
3.71545e-09
3.66846e-09
3.71355e-09
3.70105e-09
3.66962e-09
3.69937e-09
9.59977e-08
2.44043e-07
3.66243e-09
3.64672e-09
3.65624e-09
2.4399e-07
9.5992e-08
2.44028e-07
3.72086e-09
3.73532e-09
3.7112e-09
3.73242e-09
9.5971e-08
2.44022e-07
3.66551e-09
3.71495e-09
3.66803e-09
3.71395e-09
3.69833e-09
3.67104e-09
3.70122e-09
9.59976e-08
2.44043e-07
3.65795e-09
3.64714e-09
3.65563e-09
2.43989e-07
9.59925e-08
2.44022e-07
3.71805e-09
3.73439e-09
3.71477e-09
3.73495e-09
9.5971e-08
2.44019e-07
3.66274e-09
3.71418e-09
3.67158e-09
3.71634e-09
3.70135e-09
3.67194e-09
3.70072e-09
9.59976e-08
2.4404e-07
3.65839e-09
3.64859e-09
3.65642e-09
2.43989e-07
9.59925e-08
2.44026e-07
3.72207e-09
3.73701e-09
3.71144e-09
3.73249e-09
9.59711e-08
2.44022e-07
3.6667e-09
3.71675e-09
3.66827e-09
3.71389e-09
3.70014e-09
3.67077e-09
3.70112e-09
9.59976e-08
2.44043e-07
3.65769e-09
3.64746e-09
3.65685e-09
2.43989e-07
9.59924e-08
2.44026e-07
3.71963e-09
3.73553e-09
3.71195e-09
3.73232e-09
9.59712e-08
2.44023e-07
3.66429e-09
3.71526e-09
3.66878e-09
3.71372e-09
3.70089e-09
3.66977e-09
3.69911e-09
9.59977e-08
2.44043e-07
3.65844e-09
3.64647e-09
3.65486e-09
2.43991e-07
9.59924e-08
2.44026e-07
3.71892e-09
3.73413e-09
3.71269e-09
3.73339e-09
9.59711e-08
2.44022e-07
3.66359e-09
3.71385e-09
3.66948e-09
3.71476e-09
3.7e-09
3.67084e-09
3.70021e-09
9.59976e-08
2.44042e-07
3.65757e-09
3.64757e-09
3.65594e-09
2.4399e-07
9.59919e-08
2.44026e-07
3.72061e-09
3.73649e-09
3.71313e-09
3.7326e-09
9.59704e-08
2.44023e-07
3.66527e-09
3.71589e-09
3.66954e-09
3.71474e-09
3.70158e-09
3.67113e-09
3.70052e-09
9.5997e-08
2.44042e-07
3.6591e-09
3.64776e-09
3.6563e-09
2.4399e-07
9.59926e-08
2.44024e-07
3.72023e-09
3.71893e-09
3.71249e-09
3.73421e-09
9.59718e-08
2.44013e-07
3.66471e-09
3.71534e-09
3.66934e-09
3.71432e-09
3.70032e-09
3.67393e-09
3.69987e-09
9.59977e-08
2.44041e-07
3.65782e-09
3.64731e-09
3.65562e-09
2.4399e-07
9.59924e-08
2.44027e-07
3.7211e-09
3.73915e-09
3.7111e-09
3.73958e-09
9.5973e-08
2.44029e-07
3.66546e-09
3.71467e-09
3.66797e-09
3.71438e-09
3.69907e-09
3.6727e-09
3.70142e-09
9.59978e-08
2.44042e-07
3.65661e-09
3.64812e-09
3.65718e-09
2.43989e-07
9.5992e-08
2.44027e-07
3.71984e-09
3.74134e-09
3.71278e-09
3.73869e-09
9.59671e-08
2.4403e-07
3.66452e-09
3.71553e-09
3.66959e-09
3.71424e-09
3.69982e-09
3.67187e-09
3.69965e-09
9.59974e-08
2.44043e-07
3.65733e-09
3.64785e-09
3.65588e-09
2.43991e-07
9.59928e-08
2.44025e-07
3.71884e-09
3.74084e-09
3.71334e-09
3.73896e-09
9.59671e-08
2.4403e-07
3.66353e-09
3.71468e-09
3.67017e-09
3.71542e-09
3.7003e-09
3.6714e-09
3.69983e-09
9.59975e-08
2.44043e-07
3.65821e-09
3.64382e-09
3.65161e-09
2.43991e-07
9.59924e-08
2.44026e-07
3.72128e-09
3.74226e-09
3.71214e-09
3.7379e-09
9.59671e-08
2.44032e-07
3.66594e-09
3.71619e-09
3.66897e-09
3.71397e-09
3.69959e-09
3.66989e-09
3.69782e-09
9.59979e-08
2.44045e-07
3.65756e-09
3.64456e-09
3.65221e-09
2.43994e-07
9.59924e-08
2.44026e-07
3.7196e-09
3.74004e-09
3.71202e-09
3.73885e-09
9.59672e-08
2.4403e-07
3.66427e-09
3.71372e-09
3.66887e-09
3.71487e-09
3.69856e-09
3.67158e-09
3.69966e-09
9.5998e-08
2.44043e-07
3.65748e-09
3.6463e-09
3.65412e-09
2.43992e-07
9.59915e-08
2.44025e-07
3.72082e-09
3.742e-09
3.7126e-09
3.73894e-09
9.59665e-08
2.4403e-07
3.6655e-09
3.71563e-09
3.66939e-09
3.71495e-09
3.69944e-09
3.67168e-09
3.7018e-09
9.59973e-08
2.44043e-07
3.65839e-09
3.64644e-09
3.65628e-09
2.43989e-07
9.59923e-08
2.44027e-07
3.72032e-09
3.74073e-09
3.71207e-09
3.73863e-09
9.59672e-08
2.44029e-07
3.66498e-09
3.71432e-09
3.66882e-09
3.71434e-09
3.69998e-09
3.6726e-09
3.70141e-09
9.5998e-08
2.44042e-07
3.65901e-09
3.64766e-09
3.65672e-09
2.43989e-07
9.59922e-08
2.44025e-07
3.72111e-09
3.74103e-09
3.72284e-09
3.73154e-09
9.59673e-08
2.44029e-07
3.66534e-09
3.71425e-09
3.6647e-09
3.71264e-09
3.69801e-09
3.67306e-09
3.6728e-09
9.59975e-08
2.44044e-07
3.65943e-09
3.64292e-09
3.63771e-09
2.43992e-07
9.5987e-08
2.44025e-07
3.7147e-09
3.7394e-09
3.66222e-09
3.73426e-09
9.59704e-08
2.4405e-07
3.64772e-09
3.712e-09
3.63766e-09
3.72097e-09
3.67322e-09
3.66302e-09
3.74423e-09
9.59969e-08
2.44045e-07
3.56239e-09
3.64542e-09
3.6434e-09
2.43997e-07
9.59871e-08
2.44018e-07
3.69418e-09
3.69682e-09
3.71839e-09
3.73676e-09
9.59756e-08
2.44053e-07
3.54749e-09
3.72326e-09
3.68665e-09
3.71675e-09
3.71711e-09
3.66519e-09
3.70291e-09
9.59967e-08
2.44043e-07
3.67817e-09
3.65429e-09
3.65746e-09
2.43991e-07
9.59822e-08
2.44014e-07
3.71213e-09
3.7358e-09
3.7055e-09
3.74545e-09
9.60182e-08
2.44048e-07
3.64781e-09
3.71616e-09
3.68158e-09
3.7149e-09
3.70207e-09
3.67136e-09
3.70107e-09
9.59973e-08
2.44044e-07
3.65998e-09
3.65315e-09
3.65492e-09
2.4399e-07
9.59791e-08
2.44011e-07
3.70971e-09
3.73815e-09
3.70574e-09
3.73317e-09
9.59877e-08
2.44049e-07
3.64789e-09
3.71497e-09
3.68338e-09
3.71572e-09
3.69928e-09
3.66779e-09
3.70136e-09
9.59974e-08
2.44043e-07
3.65735e-09
3.65372e-09
3.65545e-09
2.43991e-07
9.59797e-08
2.44012e-07
3.70882e-09
3.73252e-09
3.70592e-09
3.73241e-09
9.59862e-08
2.44049e-07
3.64809e-09
3.71532e-09
3.68103e-09
3.71569e-09
3.69976e-09
3.66869e-09
3.70101e-09
9.59975e-08
2.44043e-07
3.65794e-09
3.65228e-09
3.65538e-09
2.43991e-07
9.59791e-08
2.44011e-07
3.71039e-09
3.73312e-09
3.70514e-09
3.7325e-09
9.5986e-08
2.44048e-07
3.6487e-09
3.7164e-09
3.68428e-09
3.71579e-09
3.70109e-09
3.66799e-09
3.7017e-09
9.59972e-08
2.44043e-07
3.65962e-09
3.6548e-09
3.65854e-09
2.43989e-07
9.59796e-08
2.44012e-07
3.70944e-09
3.73154e-09
3.70502e-09
3.73159e-09
9.59867e-08
2.44049e-07
3.64898e-09
3.71517e-09
3.68446e-09
3.71561e-09
3.70039e-09
3.66771e-09
3.7008e-09
9.59977e-08
2.44044e-07
3.65716e-09
3.65447e-09
3.65663e-09
2.43992e-07
9.59798e-08
2.44012e-07
3.70915e-09
3.73111e-09
3.70564e-09
3.73252e-09
9.59868e-08
2.44049e-07
3.64857e-09
3.71522e-09
3.68455e-09
3.7164e-09
3.69724e-09
3.66762e-09
3.70114e-09
9.59982e-08
2.44044e-07
3.66063e-09
3.64622e-09
3.65493e-09
2.43993e-07
9.59796e-08
2.44011e-07
3.71004e-09
3.7323e-09
3.70531e-09
3.7326e-09
9.59862e-08
2.44048e-07
3.64951e-09
3.71598e-09
3.68412e-09
3.7162e-09
3.69929e-09
3.66788e-09
3.70175e-09
9.59979e-08
2.44044e-07
3.65748e-09
3.64693e-09
3.65647e-09
2.43991e-07
9.59793e-08
2.44013e-07
3.71024e-09
3.73326e-09
3.70423e-09
3.73141e-09
9.59859e-08
2.4405e-07
3.64962e-09
3.71677e-09
3.68302e-09
3.71495e-09
3.70117e-09
3.6668e-09
3.70033e-09
9.59975e-08
2.44045e-07
3.65961e-09
3.64584e-09
3.65509e-09
2.43993e-07
9.59793e-08
2.44014e-07
3.70938e-09
3.73197e-09
3.70378e-09
3.73154e-09
9.59861e-08
2.4405e-07
3.64873e-09
3.71543e-09
3.68261e-09
3.71502e-09
3.69861e-09
3.66705e-09
3.70036e-09
9.59978e-08
2.44045e-07
3.65717e-09
3.64655e-09
3.65551e-09
2.43993e-07
9.59796e-08
2.44012e-07
3.70796e-09
3.73142e-09
3.70591e-09
3.7327e-09
9.59865e-08
2.44049e-07
3.64738e-09
3.71482e-09
3.68482e-09
3.7163e-09
3.69998e-09
3.66812e-09
3.70061e-09
9.59981e-08
2.44044e-07
3.66166e-09
3.64729e-09
3.65551e-09
2.43991e-07
9.59793e-08
2.44011e-07
3.70991e-09
3.73233e-09
3.70523e-09
3.73355e-09
9.59863e-08
2.44048e-07
3.64943e-09
3.71597e-09
3.68436e-09
3.71668e-09
3.70046e-09
3.66896e-09
3.70208e-09
9.59978e-08
2.44042e-07
3.65746e-09
3.64845e-09
3.65842e-09
2.43989e-07
9.59794e-08
2.44011e-07
3.7098e-09
3.73375e-09
3.70315e-09
3.73694e-09
9.59862e-08
2.44052e-07
3.64964e-09
3.71686e-09
3.67396e-09
3.71444e-09
3.70086e-09
3.67086e-09
3.69803e-09
9.59978e-08
2.44043e-07
3.65911e-09
3.64642e-09
3.65571e-09
2.43992e-07
9.59802e-08
2.44011e-07
3.70852e-09
3.74633e-09
3.70019e-09
3.71949e-09
9.59845e-08
2.44064e-07
3.66699e-09
3.71597e-09
3.6689e-09
3.71486e-09
3.69777e-09
3.67476e-09
3.69877e-09
9.59979e-08
2.44044e-07
3.6568e-09
3.64685e-09
3.65626e-09
2.43993e-07
9.59809e-08
2.44013e-07
3.70651e-09
3.68902e-09
3.70349e-09
3.72348e-09
9.5972e-08
2.44051e-07
3.66459e-09
3.71583e-09
3.66867e-09
3.71647e-09
3.70076e-09
3.66511e-09
3.69732e-09
9.59976e-08
2.44043e-07
3.65882e-09
3.64919e-09
3.64868e-09
2.43994e-07
9.59799e-08
2.44011e-07
3.70867e-09
3.72594e-09
3.70508e-09
3.72916e-09
9.59843e-08
2.44051e-07
3.66318e-09
3.71811e-09
3.66666e-09
3.71142e-09
3.69076e-09
3.67281e-09
3.71991e-09
9.59973e-08
2.44038e-07
3.63494e-09
3.65108e-09
3.65365e-09
2.44001e-07
9.59803e-08
2.4401e-07
3.70868e-09
3.72913e-09
3.70597e-09
3.73025e-09
9.59844e-08
2.44051e-07
3.66047e-09
3.7111e-09
3.66695e-09
3.71008e-09
3.72093e-09
3.67296e-09
3.72124e-09
9.59995e-08
2.44038e-07
3.65115e-09
3.64992e-09
3.65458e-09
2.44004e-07
9.59804e-08
2.44009e-07
3.70998e-09
3.72941e-09
3.70587e-09
3.73038e-09
9.5985e-08
2.44051e-07
3.66142e-09
3.71016e-09
3.66678e-09
3.71005e-09
3.7202e-09
3.67274e-09
3.72003e-09
9.60003e-08
2.44037e-07
3.65027e-09
3.64968e-09
3.65339e-09
2.44007e-07
9.59798e-08
2.4401e-07
3.71053e-09
3.73061e-09
3.70595e-09
3.73017e-09
9.59842e-08
2.44052e-07
3.66193e-09
3.71125e-09
3.66688e-09
3.70988e-09
3.72045e-09
3.6717e-09
3.71839e-09
9.59995e-08
2.44039e-07
3.65066e-09
3.64805e-09
3.65218e-09
2.44009e-07
9.598e-08
2.44008e-07
3.71101e-09
3.73056e-09
3.7061e-09
3.73034e-09
9.59845e-08
2.4405e-07
3.66244e-09
3.71132e-09
3.66702e-09
3.71014e-09
3.71904e-09
3.67225e-09
3.7194e-09
9.59997e-08
2.44037e-07
3.64922e-09
3.64841e-09
3.65072e-09
2.44007e-07
9.598e-08
2.4401e-07
3.71194e-09
3.73109e-09
3.70583e-09
3.73074e-09
9.59843e-08
2.4405e-07
3.66331e-09
3.7118e-09
3.66673e-09
3.71051e-09
3.7211e-09
3.67288e-09
3.7213e-09
9.59997e-08
2.44036e-07
3.65331e-09
3.64954e-09
3.65402e-09
2.44004e-07
9.59806e-08
2.44011e-07
3.70999e-09
3.72969e-09
3.70486e-09
3.7294e-09
9.5985e-08
2.44052e-07
3.66134e-09
3.71045e-09
3.66578e-09
3.70909e-09
3.72016e-09
3.67212e-09
3.72003e-09
9.60003e-08
2.44038e-07
3.65004e-09
3.64899e-09
3.65322e-09
2.44006e-07
9.59799e-08
2.44011e-07
3.71021e-09
3.7306e-09
3.70547e-09
3.72915e-09
9.59839e-08
2.44053e-07
3.66158e-09
3.71132e-09
3.6664e-09
3.70887e-09
3.72277e-09
3.67218e-09
3.72005e-09
9.59992e-08
2.44039e-07
3.6527e-09
3.64897e-09
3.65251e-09
2.44006e-07
9.59795e-08
2.44009e-07
3.71155e-09
3.73073e-09
3.70541e-09
3.73033e-09
9.5984e-08
2.44049e-07
3.66292e-09
3.71139e-09
3.6661e-09
3.71001e-09
3.72148e-09
3.673e-09
3.72152e-09
9.59992e-08
2.44036e-07
3.6529e-09
3.65001e-09
3.65588e-09
2.44001e-07
9.59799e-08
2.44012e-07
3.71059e-09
3.73049e-09
3.70344e-09
3.7291e-09
9.59844e-08
2.44052e-07
3.66257e-09
3.71125e-09
3.66232e-09
3.70871e-09
3.72181e-09
3.67191e-09
3.71885e-09
9.59998e-08
2.44039e-07
3.65293e-09
3.64881e-09
3.65316e-09
2.44007e-07
9.59799e-08
2.4401e-07
3.70885e-09
3.72919e-09
3.70623e-09
3.73077e-09
9.59845e-08
2.44052e-07
3.66078e-09
3.70988e-09
3.66502e-09
3.71037e-09
3.72093e-09
3.67293e-09
3.71897e-09
9.59997e-08
2.44038e-07
3.65198e-09
3.64984e-09
3.65325e-09
2.44008e-07
9.59801e-08
2.44008e-07
3.71019e-09
3.72945e-09
3.70604e-09
3.73063e-09
9.59847e-08
2.44051e-07
3.66202e-09
3.71014e-09
3.66459e-09
3.71049e-09
3.72064e-09
3.67243e-09
3.72056e-09
9.6e-08
2.44038e-07
3.65161e-09
3.64927e-09
3.65452e-09
2.44007e-07
9.59801e-08
2.44009e-07
3.71052e-09
3.73074e-09
3.70608e-09
3.72998e-09
9.59845e-08
2.44051e-07
3.66199e-09
3.71193e-09
3.66381e-09
3.71196e-09
3.72099e-09
3.67199e-09
3.72029e-09
9.59997e-08
2.44039e-07
3.65158e-09
3.65074e-09
3.65174e-09
2.44009e-07
9.59806e-08
2.44012e-07
3.71051e-09
3.72905e-09
3.70479e-09
3.73049e-09
9.5985e-08
2.44051e-07
3.66112e-09
3.71323e-09
3.66214e-09
3.71384e-09
3.72017e-09
3.67241e-09
3.72606e-09
9.60004e-08
2.44032e-07
3.64621e-09
3.61177e-09
3.63627e-09
2.43999e-07
9.59799e-08
2.44005e-07
3.71049e-09
3.7311e-09
3.70958e-09
3.7328e-09
9.59843e-08
2.44049e-07
3.66118e-09
3.71311e-09
3.66745e-09
3.70995e-09
3.72492e-09
3.67468e-09
3.72037e-09
9.60025e-08
2.44034e-07
3.63377e-09
3.64681e-09
3.65251e-09
2.44002e-07
9.59794e-08
2.44007e-07
3.71377e-09
3.73254e-09
3.70583e-09
3.73087e-09
9.59836e-08
2.44049e-07
3.66494e-09
3.71058e-09
3.66429e-09
3.7094e-09
3.72233e-09
3.67185e-09
3.71853e-09
9.59984e-08
2.44036e-07
3.64875e-09
3.64565e-09
3.6364e-09
2.44009e-07
9.59784e-08
2.44008e-07
3.71235e-09
3.73142e-09
3.704e-09
3.7295e-09
9.59831e-08
2.44049e-07
3.66399e-09
3.71114e-09
3.66273e-09
3.70879e-09
3.71775e-09
3.67204e-09
3.72038e-09
9.59981e-08
2.44035e-07
3.65884e-09
3.64874e-09
3.64338e-09
2.44005e-07
9.59789e-08
2.44007e-07
3.70842e-09
3.72871e-09
3.70628e-09
3.73069e-09
9.59833e-08
2.44049e-07
3.66025e-09
3.70915e-09
3.6651e-09
3.71018e-09
3.71878e-09
3.67221e-09
3.71879e-09
9.59984e-08
2.44035e-07
3.66567e-09
3.64983e-09
3.65269e-09
2.44004e-07
9.59792e-08
2.44007e-07
3.70932e-09
3.73029e-09
3.70596e-09
3.73098e-09
9.59831e-08
2.44048e-07
3.66118e-09
3.71104e-09
3.66484e-09
3.7105e-09
3.72099e-09
3.67233e-09
3.72062e-09
9.59981e-08
2.44035e-07
3.65119e-09
3.64996e-09
3.65469e-09
2.44003e-07
9.59782e-08
2.44008e-07
3.71178e-09
3.7313e-09
3.70486e-09
3.72948e-09
9.5983e-08
2.44049e-07
3.66366e-09
3.71209e-09
3.6637e-09
3.7089e-09
3.72254e-09
3.67225e-09
3.71898e-09
9.59981e-08
2.44035e-07
3.65273e-09
3.65005e-09
3.65349e-09
2.44003e-07
9.59791e-08
2.44008e-07
3.70847e-09
3.72915e-09
3.70572e-09
3.73091e-09
9.59834e-08
2.44049e-07
3.66036e-09
3.70986e-09
3.6646e-09
3.71034e-09
3.72101e-09
3.67218e-09
3.71996e-09
9.59985e-08
2.44035e-07
3.65158e-09
3.65014e-09
3.65369e-09
2.44002e-07
9.59783e-08
2.4401e-07
3.71061e-09
3.72953e-09
3.70431e-09
3.72946e-09
9.59831e-08
2.4405e-07
3.66251e-09
3.71028e-09
3.6632e-09
3.70887e-09
3.72047e-09
3.67205e-09
3.72026e-09
9.59982e-08
2.44037e-07
3.65028e-09
3.65163e-09
3.65503e-09
2.44003e-07
9.59783e-08
2.44007e-07
3.70999e-09
3.73085e-09
3.7062e-09
3.72926e-09
9.59828e-08
2.44051e-07
3.66192e-09
3.71154e-09
3.66505e-09
3.7089e-09
3.72194e-09
3.67108e-09
3.71835e-09
9.59981e-08
2.44037e-07
3.65258e-09
3.64789e-09
3.65223e-09
2.44006e-07
9.5979e-08
2.44007e-07
3.71013e-09
3.72962e-09
3.7058e-09
3.73154e-09
9.5983e-08
2.44046e-07
3.66204e-09
3.71024e-09
3.66464e-09
3.71111e-09
3.72088e-09
3.67413e-09
3.7214e-09
9.59984e-08
2.44033e-07
3.65163e-09
3.6511e-09
3.65536e-09
2.44001e-07
9.59787e-08
2.44009e-07
3.71041e-09
3.73064e-09
3.705e-09
3.72926e-09
9.59834e-08
2.4405e-07
3.66229e-09
3.71128e-09
3.66382e-09
3.7088e-09
3.72127e-09
3.67173e-09
3.71916e-09
9.59988e-08
2.44036e-07
3.65207e-09
3.64874e-09
3.65318e-09
2.44004e-07
9.59787e-08
2.4401e-07
3.70941e-09
3.72979e-09
3.70491e-09
3.72928e-09
9.5983e-08
2.44051e-07
3.66125e-09
3.7104e-09
3.66378e-09
3.70881e-09
3.72112e-09
3.67291e-09
3.71947e-09
9.59984e-08
2.44037e-07
3.6519e-09
3.64987e-09
3.65346e-09
2.44005e-07
9.59783e-08
2.44007e-07
3.7097e-09
3.72918e-09
3.705e-09
3.72944e-09
9.59829e-08
2.44048e-07
3.66163e-09
3.70974e-09
3.66428e-09
3.70902e-09
3.71946e-09
3.67254e-09
3.71983e-09
9.59982e-08
2.44035e-07
3.65025e-09
3.64947e-09
3.65378e-09
2.44002e-07
9.59783e-08
2.44008e-07
3.71018e-09
3.7299e-09
3.70495e-09
3.72967e-09
9.59831e-08
2.4405e-07
3.66526e-09
3.71066e-09
3.67871e-09
3.70919e-09
3.72086e-09
3.67192e-09
3.72006e-09
9.59984e-08
2.44036e-07
3.65165e-09
3.64894e-09
3.65407e-09
2.44003e-07
9.59772e-08
2.44007e-07
3.71071e-09
3.73112e-09
3.70537e-09
3.73016e-09
9.59827e-08
2.44049e-07
3.64761e-09
3.71163e-09
3.67939e-09
3.70977e-09
3.72059e-09
3.67259e-09
3.71905e-09
9.5998e-08
2.44036e-07
3.65144e-09
3.64958e-09
3.65307e-09
2.44005e-07
9.59773e-08
2.44006e-07
3.71168e-09
3.73019e-09
3.70552e-09
3.72963e-09
9.5983e-08
2.4405e-07
3.64872e-09
3.71078e-09
3.67949e-09
3.70929e-09
3.71898e-09
3.67161e-09
3.71891e-09
9.59983e-08
2.44036e-07
3.64978e-09
3.64862e-09
3.6529e-09
2.44006e-07
9.59773e-08
2.44005e-07
3.71105e-09
3.72912e-09
3.7066e-09
3.73058e-09
9.59827e-08
2.44047e-07
3.64813e-09
3.71234e-09
3.68057e-09
3.71627e-09
3.72137e-09
3.67304e-09
3.72052e-09
9.59978e-08
2.44067e-07
3.65215e-09
3.64919e-09
3.65449e-09
2.44001e-07
9.59776e-08
2.44008e-07
3.71189e-09
3.73116e-09
3.70439e-09
3.73001e-09
9.59829e-08
2.4405e-07
3.64903e-09
3.7054e-09
3.67833e-09
3.71602e-09
3.72214e-09
3.67211e-09
3.71878e-09
9.60009e-08
2.4407e-07
3.65292e-09
3.64856e-09
3.65284e-09
2.44005e-07
9.5978e-08
2.44011e-07
3.70915e-09
3.72959e-09
3.70399e-09
3.72955e-09
9.59831e-08
2.44052e-07
3.64632e-09
3.70399e-09
3.67792e-09
3.71554e-09
3.72082e-09
3.6721e-09
3.71869e-09
9.60011e-08
2.44072e-07
3.65167e-09
3.6485e-09
3.65286e-09
2.44006e-07
9.59771e-08
2.44007e-07
3.71037e-09
3.72956e-09
3.70538e-09
3.73107e-09
9.59829e-08
2.44048e-07
3.64746e-09
3.70414e-09
3.6794e-09
3.71971e-09
3.7209e-09
3.6735e-09
3.72123e-09
9.60009e-08
2.44071e-07
3.65163e-09
3.64999e-09
3.65507e-09
2.44003e-07
9.59774e-08
2.44007e-07
3.7112e-09
3.73052e-09
3.70465e-09
3.7317e-09
9.59833e-08
2.44049e-07
3.64843e-09
3.70496e-09
3.67946e-09
3.70952e-09
3.72195e-09
3.67155e-09
3.72082e-09
9.60017e-08
2.44046e-07
3.65289e-09
3.6471e-09
3.65962e-09
2.44003e-07
9.59768e-08
2.44011e-07
3.71084e-09
3.73276e-09
3.70882e-09
3.73728e-09
9.59829e-08
2.44048e-07
3.64964e-09
3.71078e-09
3.68162e-09
3.73263e-09
3.73002e-09
3.67858e-09
3.71381e-09
9.59985e-08
2.44041e-07
3.66906e-09
3.66188e-09
3.66603e-09
2.43992e-07
9.59703e-08
2.44021e-07
3.72165e-09
3.72129e-09
4.13787e-09
4.11697e-09
9.59778e-08
2.44029e-07
3.64748e-09
3.7404e-09
4.141e-09
4.15634e-09
3.69929e-09
4.00335e-09
4.05386e-09
9.59917e-08
2.44042e-07
3.64233e-09
4.03492e-09
4.02107e-09
2.43986e-07
9.5955e-08
2.43838e-07
4.75569e-09
4.79559e-09
2.21554e-08
2.22436e-08
9.59155e-08
2.43882e-07
4.7382e-09
4.71057e-09
2.22307e-08
2.22707e-08
4.70299e-09
2.20932e-08
2.21923e-08
9.59564e-08
2.43838e-07
4.66402e-09
2.2111e-08
2.20742e-08
2.43876e-07
9.49053e-08
1.37435e-07
4.44771e-08
4.45101e-08
1.75478e-07
1.75111e-07
9.49714e-08
1.37463e-07
4.43653e-08
4.45736e-08
1.75188e-07
1.75046e-07
4.45386e-08
1.75623e-07
1.75416e-07
9.49788e-08
1.37371e-07
4.43745e-08
1.75355e-07
1.75144e-07
1.37373e-07
4.8003e-07
2.28233e-07
2.28037e-07
4.79969e-07
2.28377e-07
2.281e-07
4.43601e-07
4.43692e-07
4.4366e-07
2.28249e-07
4.79944e-07
2.28377e-07
5.9894e-08
2.65364e-07
1.73367e-07
1.73385e-07
5.06714e-07
3.54296e-07
4.43739e-07
2.3192e-07
5.06651e-07
3.54273e-07
2.31901e-07
4.43625e-07
4.71347e-07
4.52972e-07
4.52873e-07
3.01875e-06
0.000120034
3.04934e-06
0.000121457
0.000241466
0.000248603
3.01924e-06
0.000120052
3.04907e-06
0.000121475
1.05878e-06
1.05822e-06
1.0585e-06
1.46075e-07
1.45996e-07
1.46033e-07
1.46095e-07
2.33549e-07
4.78147e-06
8.33795e-07
6.34521e-07
1.64991e-07
3.62236e-06
5.41107e-07
0.000241459
0.000248588
2.33179e-07
8.33055e-07
4.78061e-06
6.34407e-07
1.64728e-07
5.40782e-07
3.62162e-06
7.48912e-06
7.48989e-06
2.41133e-07
7.79793e-06
7.7996e-06
2.88914e-06
0.000120965
2.88215e-06
0.000120959
0.000249187
0.00024918
2.88955e-06
0.000120981
2.88256e-06
0.000120976
7.06811e-08
7.06671e-08
7.07079e-08
9.90879e-09
9.90669e-09
9.89926e-09