/*--------------------------------*- C++ -*----------------------------------*\
| =========                 |                                                 |
| \\      /  F ield         | OpenFOAM: The Open Source CFD Toolbox           |
|  \\    /   O peration     | Version:  v1912                                 |
|   \\  /    A nd           | Website:  www.openfoam.com                      |
|    \\/     M anipulation  |                                                 |
\*---------------------------------------------------------------------------*/
FoamFile
{
    version     2.0;
    format      ascii;
    class       volScalarField;
    location    "1.4";
    object      p;
}
// * * * * * * * * * * * * * * * * * * * * * * * * * * * * * * * * * * * * * //

dimensions      [0 2 -2 0 0 0 0];


internalField   nonuniform List<scalar> 
171728
(
0.0209204
0.020923
0.020923
0.0209393
0.0207018
0.0207019
0.0207019
0.0207155
0.0204801
0.02048
0.02048
0.0204936
0.0202582
0.0202581
0.0202581
0.0202717
0.0200363
0.0200362
0.0200362
0.0200498
0.0198144
0.0198143
0.0198143
0.0198279
0.0195925
0.0195924
0.0195924
0.019606
0.0193706
0.0193705
0.0193705
0.0193841
0.0191487
0.0191486
0.0191486
0.0191622
0.0189268
0.0189267
0.0189267
0.0189403
0.0187049
0.0187048
0.0187048
0.0187184
0.0184831
0.018483
0.018483
0.0184965
0.0182612
0.0182611
0.0182611
0.0182746
0.0180393
0.0180392
0.0180392
0.0180528
0.0178174
0.0178173
0.0178173
0.0178309
0.0175955
0.0175954
0.0175954
0.017609
0.0173736
0.0173735
0.0173735
0.0173871
0.0171517
0.0171516
0.0171516
0.0171652
0.0169298
0.0169297
0.0169297
0.0169433
0.0167079
0.0167078
0.0167078
0.0167214
0.016486
0.0164859
0.0164859
0.0164995
0.0162641
0.016264
0.016264
0.0162776
0.0160422
0.0160421
0.0160421
0.0160557
0.0158203
0.0158202
0.0158202
0.0158338
0.0155985
0.0155983
0.0155983
0.0156119
0.0153766
0.0153765
0.0153765
0.01539
0.0151547
0.0151546
0.0151546
0.0151681
0.0149328
0.0149327
0.0149327
0.0149462
0.0147109
0.0147108
0.0147108
0.0147243
0.014489
0.0144889
0.0144889
0.0145024
0.0142671
0.014267
0.014267
0.0142805
0.0140452
0.0140451
0.0140451
0.0140586
0.0138233
0.0138232
0.0138232
0.0138367
0.0136014
0.0136013
0.0136013
0.0136148
0.0133795
0.0133793
0.0133793
0.0133929
0.0131575
0.0131574
0.0131574
0.013171
0.0129356
0.0129355
0.0129355
0.0129491
0.0127137
0.0127136
0.0127136
0.0127272
0.0124918
0.0124917
0.0124917
0.0125053
0.0122699
0.0122698
0.0122698
0.0122834
0.012048
0.0120479
0.0120479
0.0120615
0.0118261
0.011826
0.011826
0.0118396
0.0116042
0.0116041
0.0116041
0.0116177
0.0113823
0.0113822
0.0113822
0.0113958
0.0111604
0.0111603
0.0111603
0.0111739
0.0109385
0.0109384
0.0109384
0.010952
0.0107166
0.0107165
0.0107165
0.0107301
0.0104947
0.0104946
0.0104946
0.0105082
0.0102728
0.0102727
0.0102727
0.0102863
0.0100509
0.0100508
0.0100508
0.0100644
0.00982899
0.00982889
0.00982889
0.00984246
0.00960709
0.00960699
0.00960699
0.00962056
0.00938519
0.00938509
0.00938509
0.00939866
0.00916329
0.00916319
0.00916319
0.00917676
0.00894139
0.00894129
0.00894129
0.00895486
0.0087195
0.00871939
0.00871939
0.00873297
0.0084976
0.0084975
0.0084975
0.00851107
0.00827571
0.0082756
0.0082756
0.00828918
0.00805381
0.00805371
0.00805371
0.00806728
0.00783192
0.00783181
0.00783182
0.00784539
0.00761003
0.00760992
0.00760992
0.0076235
0.00738814
0.00738803
0.00738803
0.00740161
0.00716625
0.00716614
0.00716614
0.00717972
0.00694436
0.00694425
0.00694425
0.00695783
0.00672247
0.00672236
0.00672236
0.00673594
0.00650058
0.00650047
0.00650047
0.00651405
0.00627869
0.00627858
0.00627858
0.00629215
0.00605679
0.00605669
0.00605669
0.00607026
0.0058349
0.0058348
0.0058348
0.00584837
0.00561301
0.00561291
0.00561291
0.00562648
0.00539112
0.00539102
0.00539102
0.00540459
0.00516923
0.00516913
0.00516913
0.0051827
0.00494734
0.00494723
0.00494723
0.00496081
0.00472545
0.00472534
0.00472534
0.00473892
0.00450356
0.00450345
0.00450345
0.00451703
0.00428166
0.00428156
0.00428156
0.00429513
0.00405977
0.00405967
0.00405967
0.00407324
0.00383788
0.00383777
0.00383777
0.00385135
0.00361599
0.00361588
0.00361588
0.00362946
0.00339409
0.00339399
0.00339399
0.00340756
0.0031722
0.00317209
0.00317209
0.00318567
0.0029503
0.0029502
0.0029502
0.00296377
0.0027284
0.0027283
0.0027283
0.00274187
0.0025065
0.0025064
0.0025064
0.00251997
0.0022846
0.0022845
0.0022845
0.00229807
0.0020627
0.0020626
0.0020626
0.00207617
0.0018408
0.0018407
0.0018407
0.00185427
0.0016189
0.00161879
0.00161879
0.00163237
0.00139699
0.00139689
0.00139689
0.00141046
0.00117509
0.00117499
0.00117499
0.00118856
0.000953189
0.000953084
0.000953084
0.000966659
0.000731284
0.000731181
0.000731181
0.000744756
0.000509396
0.000509286
0.000509285
0.000522852
0.000288312
0.000287652
0.000287643
0.000301021
8.37532e-05
8.87936e-05
8.87804e-05
8.82182e-05
0.0209688
0.0209632
0.0209632
0.0209688
0.0209632
0.0209632
0.0209728
0.0209728
0.0209728
0.0209728
0.0209632
0.0209632
0.0209688
0.0209632
0.0209632
0.0209688
0.0209393
0.0207439
0.020923
0.020923
0.0207573
0.0207574
0.0209393
0.0207439
0.020923
0.020923
0.0207573
0.0207573
0.020923
0.0207574
0.0207573
0.0209393
0.0207439
0.020923
0.0207573
0.0207573
0.0207439
0.0207155
0.020522
0.0207019
0.0207019
0.0205355
0.0205355
0.0207155
0.020522
0.0207019
0.0207019
0.0205355
0.0205355
0.0207019
0.0205355
0.0205355
0.0207155
0.020522
0.0207019
0.0205355
0.0205355
0.020522
0.0204936
0.0203001
0.02048
0.02048
0.0203136
0.0203136
0.0204936
0.0203001
0.02048
0.02048
0.0203136
0.0203136
0.02048
0.0203136
0.0203136
0.0204936
0.0203001
0.02048
0.0203136
0.0203136
0.0203001
0.0202717
0.0200782
0.0202581
0.0202581
0.0200917
0.0200917
0.0202717
0.0200782
0.0202581
0.0202581
0.0200917
0.0200917
0.0202581
0.0200917
0.0200917
0.0202717
0.0200782
0.0202581
0.0200917
0.0200917
0.0200782
0.0200498
0.0198563
0.0200362
0.0200362
0.0198698
0.0198698
0.0200498
0.0198563
0.0200362
0.0200362
0.0198698
0.0198698
0.0200362
0.0198698
0.0198698
0.0200498
0.0198563
0.0200362
0.0198698
0.0198698
0.0198563
0.0198279
0.0196344
0.0198143
0.0198143
0.0196479
0.0196479
0.0198279
0.0196344
0.0198143
0.0198143
0.0196479
0.0196479
0.0198143
0.0196479
0.0196479
0.0198279
0.0196344
0.0198143
0.0196479
0.0196479
0.0196344
0.019606
0.0194125
0.0195924
0.0195924
0.019426
0.019426
0.019606
0.0194125
0.0195924
0.0195924
0.019426
0.019426
0.0195924
0.019426
0.019426
0.019606
0.0194125
0.0195924
0.019426
0.019426
0.0194125
0.0193841
0.0191906
0.0193705
0.0193705
0.0192041
0.0192041
0.0193841
0.0191906
0.0193705
0.0193705
0.0192041
0.0192041
0.0193705
0.0192041
0.0192041
0.0193841
0.0191906
0.0193705
0.0192041
0.0192041
0.0191906
0.0191622
0.0189687
0.0191486
0.0191486
0.0189822
0.0189822
0.0191622
0.0189687
0.0191486
0.0191486
0.0189822
0.0189822
0.0191486
0.0189822
0.0189822
0.0191622
0.0189687
0.0191486
0.0189822
0.0189822
0.0189687
0.0189403
0.0187468
0.0189267
0.0189267
0.0187603
0.0187603
0.0189403
0.0187468
0.0189267
0.0189267
0.0187603
0.0187603
0.0189267
0.0187603
0.0187603
0.0189403
0.0187468
0.0189267
0.0187603
0.0187603
0.0187468
0.0187184
0.0185249
0.0187048
0.0187048
0.0185384
0.0185384
0.0187184
0.0185249
0.0187048
0.0187048
0.0185384
0.0185384
0.0187048
0.0185384
0.0185384
0.0187184
0.0185249
0.0187048
0.0185384
0.0185384
0.0185249
0.0184965
0.018303
0.018483
0.018483
0.0183165
0.0183165
0.0184965
0.018303
0.018483
0.018483
0.0183165
0.0183165
0.018483
0.0183165
0.0183165
0.0184965
0.018303
0.018483
0.0183165
0.0183165
0.018303
0.0182746
0.0180811
0.0182611
0.0182611
0.0180946
0.0180946
0.0182746
0.0180811
0.0182611
0.0182611
0.0180946
0.0180946
0.0182611
0.0180946
0.0180946
0.0182746
0.0180811
0.0182611
0.0180946
0.0180946
0.0180811
0.0180528
0.0178593
0.0180392
0.0180392
0.0178728
0.0178728
0.0180528
0.0178593
0.0180392
0.0180392
0.0178728
0.0178728
0.0180392
0.0178728
0.0178728
0.0180528
0.0178593
0.0180392
0.0178728
0.0178728
0.0178593
0.0178309
0.0176374
0.0178173
0.0178173
0.0176509
0.0176509
0.0178309
0.0176374
0.0178173
0.0178173
0.0176509
0.0176509
0.0178173
0.0176509
0.0176509
0.0178309
0.0176374
0.0178173
0.0176509
0.0176509
0.0176374
0.017609
0.0174155
0.0175954
0.0175954
0.017429
0.017429
0.017609
0.0174155
0.0175954
0.0175954
0.017429
0.017429
0.0175954
0.017429
0.017429
0.017609
0.0174155
0.0175954
0.017429
0.017429
0.0174155
0.0173871
0.0171936
0.0173735
0.0173735
0.0172071
0.0172071
0.0173871
0.0171936
0.0173735
0.0173735
0.0172071
0.0172071
0.0173735
0.0172071
0.0172071
0.0173871
0.0171936
0.0173735
0.0172071
0.0172071
0.0171936
0.0171652
0.0169717
0.0171516
0.0171516
0.0169852
0.0169852
0.0171652
0.0169717
0.0171516
0.0171516
0.0169852
0.0169852
0.0171516
0.0169852
0.0169852
0.0171652
0.0169717
0.0171516
0.0169852
0.0169852
0.0169717
0.0169433
0.0167498
0.0169297
0.0169297
0.0167633
0.0167633
0.0169433
0.0167498
0.0169297
0.0169297
0.0167633
0.0167633
0.0169297
0.0167633
0.0167633
0.0169433
0.0167498
0.0169297
0.0167633
0.0167633
0.0167498
0.0167214
0.0165279
0.0167078
0.0167078
0.0165414
0.0165414
0.0167214
0.0165279
0.0167078
0.0167078
0.0165414
0.0165414
0.0167078
0.0165414
0.0165414
0.0167214
0.0165279
0.0167078
0.0165414
0.0165414
0.0165279
0.0164995
0.016306
0.0164859
0.0164859
0.0163195
0.0163195
0.0164995
0.016306
0.0164859
0.0164859
0.0163195
0.0163195
0.0164859
0.0163195
0.0163195
0.0164995
0.016306
0.0164859
0.0163195
0.0163195
0.016306
0.0162776
0.0160841
0.016264
0.016264
0.0160976
0.0160976
0.0162776
0.0160841
0.016264
0.016264
0.0160976
0.0160976
0.016264
0.0160976
0.0160976
0.0162776
0.0160841
0.016264
0.0160976
0.0160976
0.0160841
0.0160557
0.0158622
0.0160421
0.0160421
0.0158757
0.0158757
0.0160557
0.0158622
0.0160421
0.0160421
0.0158757
0.0158757
0.0160421
0.0158757
0.0158757
0.0160557
0.0158622
0.0160421
0.0158757
0.0158757
0.0158622
0.0158338
0.0156403
0.0158202
0.0158202
0.0156538
0.0156538
0.0158338
0.0156403
0.0158202
0.0158202
0.0156538
0.0156538
0.0158202
0.0156538
0.0156538
0.0158338
0.0156403
0.0158202
0.0156538
0.0156538
0.0156403
0.0156119
0.0154184
0.0155983
0.0155983
0.0154319
0.0154319
0.0156119
0.0154184
0.0155983
0.0155983
0.0154319
0.0154319
0.0155983
0.0154319
0.0154319
0.0156119
0.0154184
0.0155983
0.0154319
0.0154319
0.0154184
0.01539
0.0151965
0.0153765
0.0153765
0.01521
0.01521
0.01539
0.0151965
0.0153765
0.0153765
0.01521
0.01521
0.0153765
0.01521
0.01521
0.01539
0.0151965
0.0153765
0.01521
0.01521
0.0151965
0.0151681
0.0149746
0.0151546
0.0151546
0.0149881
0.0149881
0.0151681
0.0149746
0.0151546
0.0151546
0.0149881
0.0149881
0.0151546
0.0149881
0.0149881
0.0151681
0.0149746
0.0151546
0.0149881
0.0149881
0.0149746
0.0149462
0.0147527
0.0149327
0.0149327
0.0147662
0.0147662
0.0149462
0.0147527
0.0149327
0.0149327
0.0147662
0.0147662
0.0149327
0.0147662
0.0147662
0.0149462
0.0147527
0.0149327
0.0147662
0.0147662
0.0147527
0.0147243
0.0145308
0.0147108
0.0147108
0.0145443
0.0145443
0.0147243
0.0145308
0.0147108
0.0147108
0.0145443
0.0145443
0.0147108
0.0145443
0.0145443
0.0147243
0.0145308
0.0147108
0.0145443
0.0145443
0.0145308
0.0145024
0.0143089
0.0144889
0.0144889
0.0143224
0.0143224
0.0145024
0.0143089
0.0144889
0.0144889
0.0143224
0.0143224
0.0144889
0.0143224
0.0143224
0.0145024
0.0143089
0.0144889
0.0143224
0.0143224
0.0143089
0.0142805
0.014087
0.014267
0.014267
0.0141005
0.0141005
0.0142805
0.014087
0.014267
0.014267
0.0141005
0.0141005
0.014267
0.0141005
0.0141005
0.0142805
0.014087
0.014267
0.0141005
0.0141005
0.014087
0.0140586
0.0138651
0.0140451
0.0140451
0.0138786
0.0138786
0.0140586
0.0138651
0.0140451
0.0140451
0.0138786
0.0138786
0.0140451
0.0138786
0.0138786
0.0140586
0.0138651
0.0140451
0.0138786
0.0138786
0.0138651
0.0138367
0.0136432
0.0138232
0.0138232
0.0136567
0.0136567
0.0138367
0.0136432
0.0138232
0.0138232
0.0136567
0.0136567
0.0138232
0.0136567
0.0136567
0.0138367
0.0136432
0.0138232
0.0136567
0.0136567
0.0136432
0.0136148
0.0134213
0.0136013
0.0136013
0.0134348
0.0134348
0.0136148
0.0134213
0.0136013
0.0136013
0.0134348
0.0134348
0.0136013
0.0134348
0.0134348
0.0136148
0.0134213
0.0136013
0.0134348
0.0134348
0.0134213
0.0133929
0.0131994
0.0133793
0.0133793
0.0132129
0.0132129
0.0133929
0.0131994
0.0133793
0.0133793
0.0132129
0.0132129
0.0133793
0.0132129
0.0132129
0.0133929
0.0131994
0.0133793
0.0132129
0.0132129
0.0131994
0.013171
0.0129775
0.0131574
0.0131574
0.012991
0.012991
0.013171
0.0129775
0.0131574
0.0131574
0.012991
0.012991
0.0131574
0.012991
0.012991
0.013171
0.0129775
0.0131574
0.012991
0.012991
0.0129775
0.0129491
0.0127556
0.0129355
0.0129355
0.0127691
0.0127691
0.0129491
0.0127556
0.0129355
0.0129355
0.0127691
0.0127691
0.0129355
0.0127691
0.0127691
0.0129491
0.0127556
0.0129355
0.0127691
0.0127691
0.0127556
0.0127272
0.0125337
0.0127136
0.0127136
0.0125472
0.0125472
0.0127272
0.0125337
0.0127136
0.0127136
0.0125472
0.0125472
0.0127136
0.0125472
0.0125472
0.0127272
0.0125337
0.0127136
0.0125472
0.0125472
0.0125337
0.0125053
0.0123118
0.0124917
0.0124917
0.0123253
0.0123253
0.0125053
0.0123118
0.0124917
0.0124917
0.0123253
0.0123253
0.0124917
0.0123253
0.0123253
0.0125053
0.0123118
0.0124917
0.0123253
0.0123253
0.0123118
0.0122834
0.0120899
0.0122698
0.0122698
0.0121034
0.0121034
0.0122834
0.0120899
0.0122698
0.0122698
0.0121034
0.0121034
0.0122698
0.0121034
0.0121034
0.0122834
0.0120899
0.0122698
0.0121034
0.0121034
0.0120899
0.0120615
0.011868
0.0120479
0.0120479
0.0118815
0.0118815
0.0120615
0.011868
0.0120479
0.0120479
0.0118815
0.0118815
0.0120479
0.0118815
0.0118815
0.0120615
0.011868
0.0120479
0.0118815
0.0118815
0.011868
0.0118396
0.0116461
0.011826
0.011826
0.0116596
0.0116596
0.0118396
0.0116461
0.011826
0.011826
0.0116596
0.0116596
0.011826
0.0116596
0.0116596
0.0118396
0.0116461
0.011826
0.0116596
0.0116596
0.0116461
0.0116177
0.0114242
0.0116041
0.0116041
0.0114377
0.0114377
0.0116177
0.0114242
0.0116041
0.0116041
0.0114377
0.0114377
0.0116041
0.0114377
0.0114377
0.0116177
0.0114242
0.0116041
0.0114377
0.0114377
0.0114242
0.0113958
0.0112023
0.0113822
0.0113822
0.0112158
0.0112158
0.0113958
0.0112023
0.0113822
0.0113822
0.0112158
0.0112158
0.0113822
0.0112158
0.0112158
0.0113958
0.0112023
0.0113822
0.0112158
0.0112158
0.0112023
0.0111739
0.0109804
0.0111603
0.0111603
0.0109939
0.0109939
0.0111739
0.0109804
0.0111603
0.0111603
0.0109939
0.0109939
0.0111603
0.0109939
0.0109939
0.0111739
0.0109804
0.0111603
0.0109939
0.0109939
0.0109804
0.010952
0.0107585
0.0109384
0.0109384
0.010772
0.010772
0.010952
0.0107585
0.0109384
0.0109384
0.010772
0.010772
0.0109384
0.010772
0.010772
0.010952
0.0107585
0.0109384
0.010772
0.010772
0.0107585
0.0107301
0.0105366
0.0107165
0.0107165
0.0105501
0.0105501
0.0107301
0.0105366
0.0107165
0.0107165
0.0105501
0.0105501
0.0107165
0.0105501
0.0105501
0.0107301
0.0105366
0.0107165
0.0105501
0.0105501
0.0105366
0.0105082
0.0103147
0.0104946
0.0104946
0.0103282
0.0103282
0.0105082
0.0103147
0.0104946
0.0104946
0.0103282
0.0103282
0.0104946
0.0103282
0.0103282
0.0105082
0.0103147
0.0104946
0.0103282
0.0103282
0.0103147
0.0102863
0.0100928
0.0102727
0.0102727
0.0101063
0.0101063
0.0102863
0.0100928
0.0102727
0.0102727
0.0101063
0.0101063
0.0102727
0.0101063
0.0101063
0.0102863
0.0100928
0.0102727
0.0101063
0.0101063
0.0100928
0.0100644
0.00987086
0.0100508
0.0100508
0.00988436
0.00988436
0.0100644
0.00987086
0.0100508
0.0100508
0.00988436
0.00988436
0.0100508
0.00988436
0.00988436
0.0100644
0.00987086
0.0100508
0.00988436
0.00988436
0.00987086
0.00984246
0.00964896
0.00982889
0.00982889
0.00966246
0.00966246
0.00984246
0.00964896
0.00982889
0.00982889
0.00966246
0.00966246
0.00982889
0.00966246
0.00966246
0.00984246
0.00964896
0.00982889
0.00966246
0.00966246
0.00964896
0.00962056
0.00942706
0.00960699
0.00960699
0.00944056
0.00944056
0.00962056
0.00942706
0.00960699
0.00960699
0.00944056
0.00944056
0.00960699
0.00944056
0.00944056
0.00962056
0.00942706
0.00960699
0.00944056
0.00944056
0.00942706
0.00939866
0.00920516
0.00938509
0.00938509
0.00921866
0.00921866
0.00939866
0.00920516
0.00938509
0.00938509
0.00921866
0.00921866
0.00938509
0.00921866
0.00921866
0.00939866
0.00920516
0.00938509
0.00921866
0.00921866
0.00920516
0.00917676
0.00898326
0.00916319
0.00916319
0.00899676
0.00899676
0.00917676
0.00898326
0.00916319
0.00916319
0.00899676
0.00899676
0.00916319
0.00899676
0.00899676
0.00917676
0.00898326
0.00916319
0.00899676
0.00899676
0.00898326
0.00895486
0.00876136
0.00894129
0.00894129
0.00877487
0.00877487
0.00895486
0.00876136
0.00894129
0.00894129
0.00877487
0.00877487
0.00894129
0.00877487
0.00877487
0.00895486
0.00876136
0.00894129
0.00877487
0.00877487
0.00876136
0.00873297
0.00853947
0.00871939
0.00871939
0.00855297
0.00855297
0.00873297
0.00853947
0.00871939
0.00871939
0.00855297
0.00855297
0.00871939
0.00855297
0.00855297
0.00873297
0.00853947
0.00871939
0.00855297
0.00855297
0.00853947
0.00851107
0.00831757
0.0084975
0.0084975
0.00833108
0.00833107
0.00851107
0.00831757
0.0084975
0.0084975
0.00833107
0.00833108
0.0084975
0.00833108
0.00833108
0.00851107
0.00831757
0.0084975
0.00833108
0.00833107
0.00831757
0.00828918
0.00809568
0.0082756
0.0082756
0.00810918
0.00810918
0.00828918
0.00809568
0.0082756
0.0082756
0.00810918
0.00810918
0.0082756
0.00810918
0.00810918
0.00828918
0.00809568
0.0082756
0.00810918
0.00810918
0.00809568
0.00806728
0.00787378
0.00805371
0.00805371
0.00788729
0.00788729
0.00806728
0.00787378
0.00805371
0.00805371
0.00788729
0.00788729
0.00805371
0.00788729
0.00788729
0.00806728
0.00787378
0.00805371
0.00788729
0.00788729
0.00787378
0.00784539
0.00765189
0.00783181
0.00783181
0.0076654
0.0076654
0.00784539
0.00765189
0.00783181
0.00783181
0.0076654
0.0076654
0.00783182
0.0076654
0.0076654
0.00784539
0.00765189
0.00783181
0.0076654
0.0076654
0.00765189
0.0076235
0.00743
0.00760992
0.00760992
0.0074435
0.0074435
0.0076235
0.00743
0.00760992
0.00760992
0.0074435
0.0074435
0.00760992
0.0074435
0.00744351
0.0076235
0.00743
0.00760992
0.00744351
0.0074435
0.00743
0.00740161
0.00720811
0.00738803
0.00738803
0.00722161
0.00722161
0.00740161
0.00720811
0.00738803
0.00738803
0.00722161
0.00722161
0.00738803
0.00722161
0.00722161
0.00740161
0.00720811
0.00738803
0.00722161
0.00722161
0.00720811
0.00717972
0.00698622
0.00716614
0.00716614
0.00699972
0.00699972
0.00717972
0.00698622
0.00716614
0.00716614
0.00699972
0.00699972
0.00716614
0.00699972
0.00699972
0.00717972
0.00698622
0.00716614
0.00699972
0.00699972
0.00698622
0.00695783
0.00676433
0.00694425
0.00694425
0.00677783
0.00677783
0.00695783
0.00676433
0.00694425
0.00694425
0.00677783
0.00677783
0.00694425
0.00677783
0.00677783
0.00695783
0.00676433
0.00694425
0.00677783
0.00677783
0.00676433
0.00673594
0.00654244
0.00672236
0.00672236
0.00655594
0.00655594
0.00673594
0.00654244
0.00672236
0.00672236
0.00655594
0.00655594
0.00672236
0.00655594
0.00655594
0.00673594
0.00654244
0.00672236
0.00655594
0.00655594
0.00654244
0.00651405
0.00632055
0.00650047
0.00650047
0.00633405
0.00633405
0.00651405
0.00632055
0.00650047
0.00650047
0.00633405
0.00633405
0.00650047
0.00633405
0.00633405
0.00651405
0.00632055
0.00650047
0.00633405
0.00633405
0.00632055
0.00629216
0.00609866
0.00627858
0.00627858
0.00611216
0.00611216
0.00629216
0.00609866
0.00627858
0.00627858
0.00611216
0.00611216
0.00627858
0.00611216
0.00611216
0.00629215
0.00609866
0.00627858
0.00611216
0.00611216
0.00609866
0.00607026
0.00587677
0.00605669
0.00605669
0.00589027
0.00589027
0.00607026
0.00587677
0.00605669
0.00605669
0.00589027
0.00589027
0.00605669
0.00589027
0.00589027
0.00607026
0.00587677
0.00605669
0.00589027
0.00589027
0.00587677
0.00584837
0.00565488
0.0058348
0.0058348
0.00566838
0.00566838
0.00584837
0.00565488
0.0058348
0.0058348
0.00566838
0.00566838
0.0058348
0.00566838
0.00566838
0.00584837
0.00565488
0.0058348
0.00566838
0.00566838
0.00565488
0.00562648
0.00543299
0.00561291
0.00561291
0.00544649
0.00544649
0.00562648
0.00543299
0.00561291
0.00561291
0.00544649
0.00544649
0.00561291
0.00544649
0.00544649
0.00562648
0.00543299
0.00561291
0.00544649
0.00544649
0.00543299
0.00540459
0.00521109
0.00539102
0.00539102
0.0052246
0.0052246
0.00540459
0.00521109
0.00539102
0.00539102
0.0052246
0.0052246
0.00539102
0.0052246
0.0052246
0.00540459
0.0052111
0.00539102
0.0052246
0.0052246
0.00521109
0.0051827
0.0049892
0.00516913
0.00516912
0.00500271
0.00500271
0.0051827
0.0049892
0.00516913
0.00516913
0.00500271
0.00500271
0.00516913
0.00500271
0.00500271
0.0051827
0.0049892
0.00516913
0.00500271
0.00500271
0.0049892
0.00496081
0.00476731
0.00494723
0.00494723
0.00478082
0.00478081
0.00496081
0.00476731
0.00494723
0.00494723
0.00478082
0.00478082
0.00494723
0.00478082
0.00478082
0.00496081
0.00476731
0.00494723
0.00478082
0.00478081
0.00476731
0.00473892
0.00454542
0.00472534
0.00472534
0.00455892
0.00455892
0.00473892
0.00454542
0.00472534
0.00472534
0.00455892
0.00455892
0.00472534
0.00455892
0.00455892
0.00473892
0.00454542
0.00472534
0.00455892
0.00455892
0.00454542
0.00451702
0.00432353
0.00450345
0.00450345
0.00433703
0.00433703
0.00451703
0.00432353
0.00450345
0.00450345
0.00433703
0.00433703
0.00450345
0.00433703
0.00433703
0.00451702
0.00432353
0.00450345
0.00433703
0.00433703
0.00432353
0.00429513
0.00410164
0.00428156
0.00428156
0.00411514
0.00411514
0.00429513
0.00410164
0.00428156
0.00428156
0.00411514
0.00411514
0.00428156
0.00411514
0.00411514
0.00429513
0.00410164
0.00428156
0.00411514
0.00411514
0.00410164
0.00407324
0.00387974
0.00405967
0.00405967
0.00389325
0.00389325
0.00407324
0.00387974
0.00405967
0.00405967
0.00389325
0.00389325
0.00405967
0.00389325
0.00389325
0.00407324
0.00387974
0.00405967
0.00389325
0.00389325
0.00387974
0.00385135
0.00365785
0.00383777
0.00383777
0.00367135
0.00367135
0.00385135
0.00365785
0.00383777
0.00383777
0.00367135
0.00367135
0.00383778
0.00367135
0.00367136
0.00385135
0.00365785
0.00383777
0.00367136
0.00367135
0.00365785
0.00362946
0.00343596
0.00361588
0.00361588
0.00344946
0.00344946
0.00362946
0.00343596
0.00361588
0.00361588
0.00344946
0.00344946
0.00361588
0.00344946
0.00344946
0.00362946
0.00343596
0.00361588
0.00344946
0.00344946
0.00343596
0.00340756
0.00321406
0.00339399
0.00339399
0.00322757
0.00322756
0.00340756
0.00321406
0.00339399
0.00339399
0.00322757
0.00322757
0.00339399
0.00322757
0.00322757
0.00340756
0.00321406
0.00339399
0.00322757
0.00322756
0.00321406
0.00318567
0.00299217
0.00317209
0.00317209
0.00300567
0.00300567
0.00318567
0.00299217
0.00317209
0.00317209
0.00300567
0.00300567
0.00317209
0.00300567
0.00300567
0.00318567
0.00299217
0.00317209
0.00300567
0.00300567
0.00299217
0.00296377
0.00277027
0.0029502
0.0029502
0.00278377
0.00278377
0.00296377
0.00277027
0.0029502
0.0029502
0.00278377
0.00278377
0.0029502
0.00278377
0.00278377
0.00296377
0.00277027
0.0029502
0.00278377
0.00278377
0.00277027
0.00274187
0.00254837
0.0027283
0.0027283
0.00256187
0.00256187
0.00274187
0.00254837
0.0027283
0.0027283
0.00256187
0.00256187
0.0027283
0.00256187
0.00256187
0.00274187
0.00254837
0.0027283
0.00256187
0.00256187
0.00254837
0.00251997
0.00232647
0.0025064
0.0025064
0.00233997
0.00233997
0.00251997
0.00232647
0.0025064
0.0025064
0.00233997
0.00233997
0.0025064
0.00233997
0.00233998
0.00251997
0.00232647
0.0025064
0.00233997
0.00233997
0.00232647
0.00229807
0.00210457
0.0022845
0.0022845
0.00211807
0.00211807
0.00229807
0.00210457
0.0022845
0.0022845
0.00211807
0.00211807
0.0022845
0.00211807
0.00211808
0.00229807
0.00210457
0.0022845
0.00211808
0.00211807
0.00210457
0.00207617
0.00188267
0.0020626
0.0020626
0.00189617
0.00189617
0.00207617
0.00188267
0.0020626
0.0020626
0.00189617
0.00189617
0.0020626
0.00189617
0.00189617
0.00207617
0.00188267
0.0020626
0.00189617
0.00189617
0.00188267
0.00185427
0.00166076
0.0018407
0.0018407
0.00167427
0.00167427
0.00185427
0.00166076
0.0018407
0.0018407
0.00167427
0.00167427
0.0018407
0.00167427
0.00167427
0.00185427
0.00166076
0.0018407
0.00167427
0.00167427
0.00166076
0.00163237
0.00143886
0.00161879
0.00161879
0.00145237
0.00145237
0.00163237
0.00143886
0.00161879
0.00161879
0.00145237
0.00145237
0.00161879
0.00145237
0.00145237
0.00163237
0.00143886
0.00161879
0.00145237
0.00145237
0.00143886
0.00141047
0.00121696
0.00139689
0.00139689
0.00123046
0.00123046
0.00141047
0.00121696
0.00139689
0.00139689
0.00123046
0.00123046
0.00139689
0.00123046
0.00123046
0.00141047
0.00121696
0.00139689
0.00123046
0.00123046
0.00121696
0.00118856
0.000995056
0.00117499
0.00117499
0.00100856
0.00100856
0.00118856
0.000995056
0.00117499
0.00117499
0.00100856
0.00100856
0.00117499
0.00100856
0.00100856
0.00118856
0.000995056
0.00117499
0.00100856
0.00100856
0.000995056
0.000966659
0.000773153
0.000953084
0.000953084
0.000786657
0.000786657
0.000966659
0.000773153
0.000953084
0.000953084
0.000786657
0.000786657
0.000953085
0.000786657
0.000786657
0.000966659
0.000773152
0.000953084
0.000786657
0.000786657
0.000773152
0.000744756
0.000551249
0.000731181
0.000731181
0.000564756
0.000564758
0.000744757
0.000551249
0.000731181
0.000731181
0.000564756
0.000564755
0.000731182
0.000564758
0.000564757
0.000744756
0.000551248
0.000731181
0.000564755
0.000564756
0.00055125
0.000522854
0.000329399
0.000509286
0.000509286
0.000342966
0.00034297
0.000522853
0.000329405
0.000509286
0.000509285
0.000342965
0.000342961
0.000509285
0.000342969
0.000342963
0.000522852
0.000329397
0.000509285
0.000342962
0.000342963
0.000329398
0.000301019
0.000110473
0.00028765
0.000287655
0.000124294
0.000124298
0.000301031
0.00011048
0.000287648
0.000287644
0.000124283
0.00012428
0.000287646
0.000124292
0.000124286
0.000301018
0.000110462
0.000287646
0.000124276
0.000124279
0.000110468
8.82241e-05
8.87897e-05
8.87865e-05
8.82284e-05
8.87829e-05
8.87742e-05
8.37552e-05
8.37467e-05
8.37491e-05
8.87848e-05
8.82138e-05
8.87789e-05
0.0209971
0.021032
0.0210131
0.0210131
0.0210885
0.0210458
0.0211507
0.0210245
0.0210885
0.0210458
0.0210245
0.0211506
0.0210612
0.0211701
0.0211701
0.0208592
0.0209787
0.0209655
0.02086
0.0208628
0.0208561
0.0208591
0.0209787
0.0209654
0.02086
0.0209204
0.0209204
0.0209204
0.0207572
0.0207572
0.0207572
0.0207572
0.0208538
0.0209602
0.0209239
0.0208677
0.0209303
0.0208581
0.0208675
0.0208629
0.0208562
0.0208538
0.0209239
0.0209602
0.0208677
0.0209303
0.0208675
0.0208581
0.0209616
0.0209616
0.0208543
0.0208563
0.0208563
0.0206328
0.0207162
0.0207163
0.0206327
0.0207161
0.0206328
0.0206328
0.0207162
0.0207163
0.0206327
0.0207018
0.0207018
0.0207018
0.0205355
0.0205355
0.0205355
0.0205355
0.0206332
0.0207156
0.0207019
0.0206464
0.0207155
0.0206332
0.0206464
0.020716
0.0206328
0.0206332
0.0207019
0.0207156
0.0206464
0.0207155
0.0206464
0.0206332
0.020716
0.020716
0.0206329
0.0206328
0.0206328
0.0204107
0.0204939
0.0204939
0.0204107
0.0204939
0.0204108
0.0204107
0.0204939
0.0204939
0.0204107
0.0204801
0.0204801
0.0204801
0.0203137
0.0203137
0.0203137
0.0203137
0.0204113
0.0204934
0.02048
0.0204245
0.0204934
0.0204112
0.0204245
0.0204939
0.0204108
0.0204113
0.02048
0.0204934
0.0204245
0.0204934
0.0204245
0.0204112
0.0204939
0.0204939
0.020411
0.0204108
0.0204108
0.0201888
0.020272
0.020272
0.0201888
0.0202719
0.0201889
0.0201888
0.020272
0.020272
0.0201888
0.0202582
0.0202582
0.0202582
0.0200918
0.0200918
0.0200918
0.0200918
0.0201894
0.0202715
0.0202581
0.0202026
0.0202715
0.0201893
0.0202026
0.020272
0.0201889
0.0201894
0.0202581
0.0202715
0.0202026
0.0202715
0.0202026
0.0201893
0.020272
0.020272
0.0201891
0.0201889
0.0201889
0.0199669
0.0200501
0.0200501
0.0199669
0.0200501
0.019967
0.0199669
0.0200501
0.0200501
0.0199669
0.0200363
0.0200363
0.0200363
0.0198699
0.0198699
0.0198699
0.0198699
0.0199675
0.0200496
0.0200362
0.0199807
0.0200496
0.0199674
0.0199807
0.0200501
0.019967
0.0199675
0.0200362
0.0200496
0.0199807
0.0200496
0.0199807
0.0199674
0.0200501
0.0200501
0.0199672
0.019967
0.019967
0.019745
0.0198282
0.0198282
0.019745
0.0198282
0.0197451
0.019745
0.0198282
0.0198282
0.019745
0.0198144
0.0198144
0.0198144
0.019648
0.019648
0.019648
0.019648
0.0197456
0.0198277
0.0198143
0.0197588
0.0198277
0.0197455
0.0197589
0.0198282
0.0197451
0.0197456
0.0198143
0.0198277
0.0197588
0.0198277
0.0197589
0.0197455
0.0198282
0.0198282
0.0197453
0.0197451
0.0197451
0.0195231
0.0196063
0.0196063
0.0195232
0.0196063
0.0195232
0.0195231
0.0196063
0.0196063
0.0195232
0.0195925
0.0195925
0.0195925
0.0194261
0.0194261
0.0194261
0.0194261
0.0195237
0.0196058
0.0195924
0.0195369
0.0196058
0.0195237
0.019537
0.0196063
0.0195232
0.0195237
0.0195924
0.0196058
0.0195369
0.0196058
0.019537
0.0195237
0.0196063
0.0196063
0.0195234
0.0195232
0.0195232
0.0193013
0.0193844
0.0193844
0.0193013
0.0193844
0.0193013
0.0193013
0.0193844
0.0193844
0.0193013
0.0193706
0.0193706
0.0193706
0.0192042
0.0192042
0.0192042
0.0192042
0.0193018
0.0193839
0.0193705
0.019315
0.0193839
0.0193018
0.0193151
0.0193844
0.0193013
0.0193018
0.0193705
0.0193839
0.019315
0.0193839
0.0193151
0.0193018
0.0193844
0.0193844
0.0193015
0.0193013
0.0193013
0.0190794
0.0191625
0.0191625
0.0190794
0.0191625
0.0190794
0.0190794
0.0191625
0.0191625
0.0190794
0.0191487
0.0191487
0.0191487
0.0189823
0.0189823
0.0189823
0.0189823
0.0190799
0.019162
0.0191487
0.0190932
0.019162
0.0190799
0.0190932
0.0191625
0.0190794
0.0190799
0.0191487
0.019162
0.0190932
0.019162
0.0190932
0.0190799
0.0191625
0.0191625
0.0190796
0.0190794
0.0190794
0.0188575
0.0189406
0.0189406
0.0188575
0.0189406
0.0188575
0.0188575
0.0189406
0.0189406
0.0188575
0.0189268
0.0189268
0.0189268
0.0187604
0.0187604
0.0187604
0.0187604
0.018858
0.0189401
0.0189268
0.0188713
0.0189401
0.018858
0.0188713
0.0189406
0.0188575
0.018858
0.0189268
0.0189401
0.0188713
0.0189401
0.0188713
0.018858
0.0189406
0.0189406
0.0188578
0.0188575
0.0188575
0.0186356
0.0187187
0.0187188
0.0186356
0.0187187
0.0186356
0.0186356
0.0187187
0.0187188
0.0186356
0.0187049
0.0187049
0.0187049
0.0185385
0.0185385
0.0185385
0.0185385
0.0186361
0.0187182
0.0187049
0.0186494
0.0187182
0.0186361
0.0186494
0.0187187
0.0186356
0.0186361
0.0187049
0.0187182
0.0186494
0.0187182
0.0186494
0.0186361
0.0187187
0.0187187
0.0186359
0.0186356
0.0186356
0.0184137
0.0184969
0.0184969
0.0184137
0.0184968
0.0184137
0.0184137