/*--------------------------------*- C++ -*----------------------------------*\
| =========                 |                                                 |
| \\      /  F ield         | OpenFOAM: The Open Source CFD Toolbox           |
|  \\    /   O peration     | Version:  v1912                                 |
|   \\  /    A nd           | Website:  www.openfoam.com                      |
|    \\/     M anipulation  |                                                 |
\*---------------------------------------------------------------------------*/
FoamFile
{
    version     2.0;
    format      ascii;
    class       volScalarField;
    location    "1.55";
    object      nut;
}
// * * * * * * * * * * * * * * * * * * * * * * * * * * * * * * * * * * * * * //

dimensions      [0 2 -1 0 0 0 0];


internalField   nonuniform List<scalar> 
171728
(
1.20995e-06
1.22733e-06
1.22793e-06
5.10133e-07
8.11638e-08
9.29916e-08
9.31747e-08
1.06023e-07
6.40217e-09
7.6294e-09
7.63103e-09
1.035e-07
1.93969e-09
4.25039e-09
4.22277e-09
1.03665e-07
2.04562e-09
4.00068e-09
4.00472e-09
1.03669e-07
2.0471e-09
3.99199e-09
3.99768e-09
1.03669e-07
2.03783e-09
3.99812e-09
3.99038e-09
1.03669e-07
2.05214e-09
4.00426e-09
4.00022e-09
1.03668e-07
2.05302e-09
3.99992e-09
3.99181e-09
1.03671e-07
2.05096e-09
4.00017e-09
3.99406e-09
1.0367e-07
2.04748e-09
3.99913e-09
3.99709e-09
1.03671e-07
2.05541e-09
3.99687e-09
3.99667e-09
1.0367e-07
2.05812e-09
4.02911e-09
3.99892e-09
1.0367e-07
2.06306e-09
4.02506e-09
3.99381e-09
1.0367e-07
2.04375e-09
3.98817e-09
3.99885e-09
1.0367e-07
2.0458e-09
3.98676e-09
3.99418e-09
1.03671e-07
2.05529e-09
4.00201e-09
3.99688e-09
1.03672e-07
2.04865e-09
3.99062e-09
3.9956e-09
1.03671e-07
2.05512e-09
3.97918e-09
3.99743e-09
1.03669e-07
2.04047e-09
4.01662e-09
3.99278e-09
1.03662e-07
2.1566e-09
3.99475e-09
3.99643e-09
1.03673e-07
2.04735e-09
4.00172e-09
3.99595e-09
1.03672e-07
2.05227e-09
3.99994e-09
3.99646e-09
1.03673e-07
2.05097e-09
4.00113e-09
3.99816e-09
1.03673e-07
2.05309e-09
3.99829e-09
3.9956e-09
1.03673e-07
2.05049e-09
3.99933e-09
3.99585e-09
1.03673e-07
2.05301e-09
4.00175e-09
3.99849e-09
1.03673e-07
2.05185e-09
3.99988e-09
3.99661e-09
1.03674e-07
2.0514e-09
3.99865e-09
3.9954e-09
1.03673e-07
2.05247e-09
4.00109e-09
3.99799e-09
1.03672e-07
2.05196e-09
4.00051e-09
3.9968e-09
1.03673e-07
2.05242e-09
3.9983e-09
3.9963e-09
1.03673e-07
2.05216e-09
4.00181e-09
3.99694e-09
1.03674e-07
2.05112e-09
4.00145e-09
3.99693e-09
1.03673e-07
2.05284e-09
4.00213e-09
3.99746e-09
1.03674e-07
2.05176e-09
3.99911e-09
3.9952e-09
1.03673e-07
2.05298e-09
4.00137e-09
3.99749e-09
1.03673e-07
2.05247e-09
4.00105e-09
3.99716e-09
1.03674e-07
2.05239e-09
4.00252e-09
4.00402e-09
1.03674e-07
2.06969e-09
4.00841e-09
4.00251e-09
1.03659e-07
2.21573e-09
3.98561e-09
3.9978e-09
1.03672e-07
2.05102e-09
3.98893e-09
3.99278e-09
1.03673e-07
2.05327e-09
3.99944e-09
3.99101e-09
1.03674e-07
2.05402e-09
3.99704e-09
3.99101e-09
1.03674e-07
2.05665e-09
3.99803e-09
3.99565e-09
1.03674e-07
2.05514e-09
3.99609e-09
3.99106e-09
1.03674e-07
2.05367e-09
3.99543e-09
3.99448e-09
1.03676e-07
2.05513e-09
3.99769e-09
3.99964e-09
1.03674e-07
2.05487e-09
3.99855e-09
4.00073e-09
1.03674e-07
2.05503e-09
3.99687e-09
3.99905e-09
1.03674e-07
2.05364e-09
3.99538e-09
3.9979e-09
1.03674e-07
2.0555e-09
3.99702e-09
3.99817e-09
1.03674e-07
2.05595e-09
3.99799e-09
3.9992e-09
1.03674e-07
2.05693e-09
4.00606e-09
3.99871e-09
1.03674e-07
2.05812e-09
4.0009e-09
3.99929e-09
1.03673e-07
2.053e-09
3.9963e-09
3.99933e-09
1.03669e-07
2.05056e-09
4.00197e-09
4.00006e-09
1.03659e-07
2.05053e-09
4.00097e-09
3.99844e-09
1.0366e-07
2.05105e-09
4.00307e-09
4.00069e-09
1.03658e-07
2.05204e-09
4.00173e-09
3.99836e-09
1.03659e-07
2.0519e-09
4.00329e-09
4.00117e-09
1.03658e-07
2.05027e-09
4.00116e-09
3.99846e-09
1.03659e-07
2.05019e-09
4.00328e-09
4.00067e-09
1.03658e-07
2.05174e-09
4.00304e-09
4.00076e-09
1.03658e-07
2.05098e-09
4.00287e-09
4.00041e-09
1.03659e-07
2.05058e-09
4.00209e-09
3.99957e-09
1.03658e-07
2.05066e-09
4.00109e-09
3.99859e-09
1.03658e-07
2.05044e-09
4.00201e-09
4e-09
1.03659e-07
2.04611e-09
4.00057e-09
3.99919e-09
1.03659e-07
2.0433e-09
4.00163e-09
3.98135e-09
1.0366e-07
2.04768e-09
4.0055e-09
3.99829e-09
1.03656e-07
2.05173e-09
4.00246e-09
4.00011e-09
1.03658e-07
2.05015e-09
4.00126e-09
3.99832e-09
1.03659e-07
2.04994e-09
4.00221e-09
3.99919e-09
1.03657e-07
2.05238e-09
4.00284e-09
3.9998e-09
1.03657e-07
2.04955e-09
4.00182e-09
3.99887e-09
1.03657e-07
2.05048e-09
4.00205e-09
3.99892e-09
1.03657e-07
2.05153e-09
4.00231e-09
3.99936e-09
1.03657e-07
2.0512e-09
4.00124e-09
3.99866e-09
1.03657e-07
2.05053e-09
4.00303e-09
4.00051e-09
1.03658e-07
2.04992e-09
4.00159e-09
3.99915e-09
1.03657e-07
2.0509e-09
4.00237e-09
3.99978e-09
1.03657e-07
2.05143e-09
4.00293e-09
4.00039e-09
1.03658e-07
2.05318e-09
4.00228e-09
3.99983e-09
1.03657e-07
2.05336e-09
4.0025e-09
3.99996e-09
1.03658e-07
2.05385e-09
4.00183e-09
3.99978e-09
1.03656e-07
2.0536e-09
4.00435e-09
4.00216e-09
1.03657e-07
2.05139e-09
4.00063e-09
3.99865e-09
1.03657e-07
2.05285e-09
4.00086e-09
3.99797e-09
1.03657e-07
2.05421e-09
4.00288e-09
4.00001e-09
1.03658e-07
2.05626e-09
3.99953e-09
3.99476e-09
1.0366e-07
2.12142e-09
4.02051e-09
4.02554e-09
1.03658e-07
4.53107e-09
4.97038e-09
5.02463e-09
1.03561e-07
5.22375e-08
4.63652e-08
4.63189e-08
1.0234e-07
4.91932e-07
2.37677e-07
2.37706e-07
5.25432e-07
4.32771e-07
7.37459e-07
7.3778e-07
4.32879e-07
7.37538e-07
7.37558e-07
2.0878e-06
2.08785e-06
2.0878e-06
2.08784e-06
7.37378e-07
7.37305e-07
4.32593e-07
7.37207e-07
7.37551e-07
4.32521e-07
5.10195e-07
2.7105e-07
1.22797e-06
1.22801e-06
2.04863e-07
2.04867e-07
5.10161e-07
2.70981e-07
1.22785e-06
1.22853e-06
2.05029e-07
2.04934e-07
1.2282e-06
2.049e-07
2.04777e-07
5.10108e-07
2.71063e-07
1.22812e-06
2.04916e-07
2.04912e-07
2.71071e-07
1.06076e-07
2.63444e-07
9.30764e-08
9.31018e-08
1.19342e-08
1.20233e-08
1.06063e-07
2.63509e-07
9.30938e-08
9.3067e-08
1.1886e-08
1.19394e-08
9.30477e-08
1.1825e-08
1.19227e-08
1.06101e-07
2.63459e-07
9.32105e-08
1.19045e-08
1.18486e-08
2.63452e-07
1.03415e-07
2.62872e-07
7.67839e-09
7.66721e-09
4.49778e-09
4.48998e-09
1.03423e-07
2.62884e-07
7.69162e-09
7.6765e-09
4.46347e-09
4.50077e-09
7.68742e-09
4.46958e-09
4.51562e-09
1.03476e-07
2.62901e-07
7.69398e-09
4.43395e-09
4.42054e-09
2.6286e-07
1.03647e-07
2.62843e-07
4.26827e-09
4.30582e-09
4.05859e-09
4.06557e-09
1.03622e-07
2.62844e-07
4.20974e-09
4.26882e-09
4.00993e-09
4.06602e-09
4.28579e-09
4.00826e-09
4.05273e-09
1.0367e-07
2.62871e-07
4.22719e-09
3.99326e-09
3.99908e-09
2.62817e-07
1.03648e-07
2.62838e-07
4.05651e-09
4.06073e-09
4.04789e-09
4.06156e-09
1.03629e-07
2.62835e-07
3.99336e-09
4.05849e-09
4.01332e-09
4.05185e-09
4.04295e-09
3.99117e-09
4.03712e-09
1.03666e-07
2.62864e-07
3.99141e-09
3.97917e-09
3.98394e-09
2.62811e-07
1.03648e-07
2.62846e-07
4.05359e-09
4.07001e-09
4.02987e-09
4.08654e-09
1.03632e-07
2.62847e-07
3.97973e-09
4.05109e-09
4.00358e-09
4.04473e-09
4.03614e-09
4.00239e-09
4.02941e-09
1.03667e-07
2.62875e-07
3.98464e-09
3.97168e-09
3.97664e-09
2.62822e-07
1.03652e-07
2.62847e-07
4.00534e-09
4.07728e-09
4.06682e-09
4.06737e-09
1.03626e-07
2.62845e-07
3.96825e-09
4.04479e-09
4.0088e-09
4.04822e-09
4.02849e-09
4.00251e-09
4.03417e-09
1.03667e-07
2.62872e-07
3.97758e-09
3.97642e-09
3.98162e-09
2.62817e-07
1.03652e-07
2.62844e-07
4.05528e-09
4.07192e-09
4.05108e-09
4.06967e-09
1.03622e-07
2.6284e-07
3.98595e-09
4.05239e-09
4.01544e-09
4.05045e-09
4.03697e-09
4.0032e-09
4.03599e-09
1.03665e-07
2.62867e-07
3.98683e-09
3.97907e-09
3.98371e-09
2.62811e-07
1.03632e-07
2.62849e-07
4.0492e-09
4.06765e-09
4.02201e-09
4.05105e-09
1.03625e-07
2.62862e-07
3.98094e-09
4.04984e-09
3.99521e-09
4.04608e-09
4.03344e-09
3.9963e-09
4.03024e-09
1.03668e-07
2.62878e-07
3.98076e-09
3.97199e-09
3.97773e-09
2.62823e-07
1.03641e-07
2.62835e-07
4.03463e-09
4.02196e-09
4.05675e-09
4.00171e-09
1.03617e-07
2.62844e-07
3.98631e-09
4.04879e-09
3.98901e-09
4.05009e-09
4.03106e-09
4.00032e-09
4.03461e-09
1.03667e-07
2.6287e-07
3.98089e-09
3.97725e-09
3.9827e-09
2.62814e-07
1.03654e-07
2.62845e-07
4.10032e-09
4.02802e-09
4.05037e-09
4.00745e-09
1.03624e-07
2.62845e-07
3.99241e-09
4.04984e-09
4.00021e-09
4.04844e-09
4.03257e-09
3.99916e-09
4.0322e-09
1.03667e-07
2.62873e-07
3.98273e-09
3.97564e-09
3.97923e-09
2.6282e-07
1.03641e-07
2.62837e-07
4.05069e-09
3.99922e-09
4.04942e-09
3.99525e-09
1.03625e-07
2.62872e-07
3.99548e-09
4.04929e-09
3.99437e-09
4.04845e-09
4.03305e-09
4.0157e-09
4.03961e-09
1.03668e-07
2.6287e-07
3.98072e-09
3.97828e-09
3.97948e-09
2.62817e-07
1.03643e-07
2.62837e-07
4.05254e-09
4.01271e-09
4.03652e-09
4.0677e-09
1.03618e-07
2.62871e-07
3.99103e-09
4.04973e-09
3.98236e-09
4.04416e-09
4.04028e-09
4.01794e-09
4.0357e-09
1.03668e-07
2.62875e-07
3.98245e-09
3.97381e-09
3.97781e-09
2.62825e-07
1.03644e-07
2.62833e-07
4.03971e-09
4.07593e-09
4.05958e-09
4.06147e-09
1.03624e-07
2.62851e-07
3.98067e-09
4.04522e-09
3.97775e-09
4.04988e-09
4.03421e-09
3.99512e-09
4.037e-09
1.03668e-07
2.62871e-07
3.98007e-09
3.97731e-09
3.98402e-09
2.62816e-07
1.03644e-07
2.62842e-07
4.06767e-09
4.05158e-09
4.05086e-09
4.11316e-09
1.03634e-07
2.62835e-07
3.99997e-09
4.05206e-09
3.99972e-09
4.04601e-09
4.03772e-09
3.99279e-09
4.03138e-09
1.03667e-07
2.62877e-07
3.98656e-09
3.97368e-09
3.97875e-09
2.62824e-07
1.03641e-07
2.62832e-07
4.05138e-09
4.08158e-09
4.05896e-09
4.06937e-09
1.03652e-07
2.62821e-07
3.99751e-09
4.04734e-09
4.00093e-09
4.05006e-09
4.03001e-09
3.99781e-09
4.0367e-09
1.03668e-07
2.62872e-07
3.97965e-09
3.97699e-09
3.98355e-09
2.62816e-07
1.03644e-07
2.62839e-07
4.04148e-09
4.06749e-09
4.05579e-09
4.05159e-09
1.03645e-07
2.62868e-07
4.00009e-09
4.05049e-09
3.99785e-09
4.04601e-09
4.03474e-09
3.99772e-09
4.03284e-09
1.03669e-07
2.62879e-07
3.98366e-09
3.97314e-09
3.97941e-09
2.62822e-07
1.0364e-07
2.62853e-07
4.0352e-09
4.04179e-09
4.03057e-09
4.03467e-09
1.03656e-07
2.62867e-07
3.99686e-09
4.04988e-09
3.99263e-09
4.05044e-09
4.03502e-09
3.97387e-09
4.03292e-09
1.03668e-07
2.62876e-07
3.98321e-09
3.97659e-09
3.97711e-09
2.62824e-07
1.03643e-07
2.62828e-07
4.03018e-09
4.06493e-09
4.08745e-09
4.15051e-09
1.03688e-07
2.62904e-07
3.98933e-09
4.05119e-09
4.00629e-09
4.0448e-09
4.03161e-09
4.02079e-09
4.04634e-09
1.03669e-07
2.62876e-07
3.97445e-09
3.97444e-09
3.97075e-09
2.62836e-07
1.0368e-07
2.62898e-07
4.0621e-09
4.08801e-09
4.02805e-09
4.12015e-09
1.03627e-07
2.6287e-07
4.01191e-09
4.04519e-09
3.84054e-09
4.05008e-09
4.05996e-09
3.98688e-09
4.03616e-09
1.03671e-07
2.6288e-07
3.98963e-09
3.9723e-09
3.98055e-09
2.62826e-07
1.03635e-07
2.62861e-07
4.09891e-09
4.10936e-09
4.06945e-09
4.06355e-09
1.03634e-07
2.62856e-07
3.9187e-09
4.04743e-09
4.01218e-09
4.04682e-09
4.03407e-09
4.00644e-09
4.03256e-09
1.03669e-07
2.62879e-07
3.98073e-09
3.9753e-09
3.98103e-09
2.62825e-07
1.03663e-07
2.62859e-07
4.06193e-09
4.06818e-09
4.0503e-09
4.06972e-09
1.03641e-07
2.62856e-07
3.997e-09
4.04821e-09
4.00174e-09
4.04847e-09
4.03296e-09
4.00146e-09
4.0341e-09
1.0367e-07
2.62879e-07
3.98264e-09
3.97596e-09
3.98158e-09
2.62823e-07
1.03662e-07
2.62857e-07
4.05552e-09
4.07172e-09
4.04872e-09
4.07077e-09
1.03641e-07
2.62853e-07
3.99677e-09
4.04922e-09
4.00098e-09
4.04941e-09
4.0341e-09
4.00286e-09
4.03412e-09
1.0367e-07
2.62877e-07
3.98368e-09
3.97763e-09
3.98977e-09
2.62822e-07
1.03663e-07
2.62859e-07
4.05445e-09
4.07213e-09
4.04575e-09
4.06831e-09
1.03641e-07
2.62856e-07
3.99529e-09
4.04957e-09
3.99805e-09
4.04689e-09
4.0349e-09
3.99991e-09
4.03224e-09
1.0367e-07
2.62879e-07
3.99225e-09
3.97496e-09
3.98505e-09
2.62824e-07
1.03662e-07
2.62862e-07
4.05538e-09
4.07103e-09
4.04536e-09
4.06843e-09
1.03641e-07
2.62856e-07
3.99624e-09
4.04843e-09
3.99765e-09
4.04724e-09
4.03122e-09
4.00159e-09
4.03428e-09
1.0367e-07
2.62879e-07
3.98695e-09
3.97556e-09
3.98454e-09
2.62823e-07
1.03662e-07
2.62855e-07
4.0519e-09
4.06949e-09
4.04964e-09
4.07181e-09
1.03641e-07
2.62852e-07
3.9928e-09
4.04708e-09
4.00191e-09
4.05047e-09
4.03415e-09
4.00306e-09
4.03441e-09
1.0367e-07
2.62876e-07
3.98726e-09
3.97763e-09
3.98606e-09
2.62822e-07
1.03662e-07
2.6286e-07
4.05759e-09
4.07361e-09
4.04527e-09
4.06829e-09
1.03641e-07
2.62855e-07
3.99843e-09
4.05112e-09
3.99756e-09
4.04697e-09
4.03351e-09
4.00111e-09
4.03451e-09
1.0367e-07
2.62878e-07
3.98719e-09
3.97574e-09
3.98619e-09
2.62821e-07
1.03662e-07
2.6286e-07
4.05382e-09
4.07106e-09
4.04657e-09
4.06892e-09
1.03641e-07
2.62856e-07
3.99469e-09
4.04856e-09
3.99886e-09
4.0476e-09
4.03432e-09
4.00049e-09
4.03244e-09
1.0367e-07
2.62879e-07
3.988e-09
3.97512e-09
3.98416e-09
2.62825e-07
1.03662e-07
2.62859e-07
4.05355e-09
4.0699e-09
4.04687e-09
4.0696e-09
1.03641e-07
2.62855e-07
3.99444e-09
4.0474e-09
3.99913e-09
4.04825e-09
4.03314e-09
4.00139e-09
4.03331e-09
1.0367e-07
2.62878e-07
3.98684e-09
3.97605e-09
3.98498e-09
2.62824e-07
1.03662e-07
2.62859e-07
4.05538e-09
4.07262e-09
4.04771e-09
4.06941e-09
1.0364e-07
2.62856e-07
3.99626e-09
4.04978e-09
3.99957e-09
4.04851e-09
4.03539e-09
4.00165e-09
4.03361e-09
1.03669e-07
2.62878e-07
3.98902e-09
3.97631e-09
3.98535e-09
2.62823e-07
1.03663e-07
2.62857e-07
4.05489e-09
4.05559e-09
4.04678e-09
4.06937e-09
1.03642e-07
2.62846e-07
3.99557e-09
4.04895e-09
3.99912e-09
4.04799e-09
4.03357e-09
4.00447e-09
4.03309e-09
1.0367e-07
2.62877e-07
3.98722e-09
3.97593e-09
3.98478e-09
2.62823e-07
1.03662e-07
2.62861e-07
4.05594e-09
4.07701e-09
4.04487e-09
4.07625e-09
1.03643e-07
2.62862e-07
3.99652e-09
4.04848e-09
3.99722e-09
4.04755e-09
4.0324e-09
4.00306e-09
4.03434e-09
1.0367e-07
2.62878e-07
3.98607e-09
3.97629e-09
3.98606e-09
2.62822e-07
1.03662e-07
2.6286e-07
4.0541e-09
4.07755e-09
4.04694e-09
4.07531e-09
1.03637e-07
2.62864e-07
3.99501e-09
4.04897e-09
3.99922e-09
4.04756e-09
4.0326e-09
4.00216e-09
4.03243e-09
1.0367e-07
2.62879e-07
3.98625e-09
3.97593e-09
3.98461e-09
2.62825e-07
1.03663e-07
2.62858e-07
4.05327e-09
4.07701e-09
4.04753e-09
4.07588e-09
1.03637e-07
2.62863e-07
3.9942e-09
4.04805e-09
3.99982e-09
4.04904e-09
4.03254e-09
4.00225e-09
4.03349e-09
1.0367e-07
2.62879e-07
3.98648e-09
3.97267e-09
3.98139e-09
2.62825e-07
1.03662e-07
2.62859e-07
4.0563e-09
4.07913e-09
4.04641e-09
4.0747e-09
1.03637e-07
2.62865e-07
3.99718e-09
4.05022e-09
3.99869e-09
4.04748e-09
4.03275e-09
4.00052e-09
4.03082e-09
1.03671e-07
2.6288e-07
3.98666e-09
3.97325e-09
3.98139e-09
2.62828e-07
1.03662e-07
2.62859e-07
4.05394e-09
4.076e-09
4.04613e-09
4.07557e-09
1.03637e-07
2.62863e-07
3.99483e-09
4.04686e-09
3.99844e-09
4.0483e-09
4.03111e-09
4.0022e-09
4.0329e-09
1.03671e-07
2.62879e-07
3.98595e-09
3.97499e-09
3.98355e-09
2.62825e-07
1.03661e-07
2.62859e-07
4.05514e-09
4.07818e-09
4.04712e-09
4.07615e-09
1.03637e-07
2.62863e-07
3.99603e-09
4.04898e-09
3.99937e-09
4.04887e-09
4.0321e-09
4.00288e-09
4.03561e-09
1.0367e-07
2.62879e-07
3.98698e-09
3.97571e-09
3.98628e-09
2.62822e-07
1.03662e-07
2.6286e-07
4.05452e-09
4.07702e-09
4.04651e-09
4.07574e-09
1.03637e-07
2.62862e-07
3.99541e-09
4.04777e-09
3.99872e-09
4.04817e-09
4.03361e-09
4.00356e-09
4.03505e-09
1.03671e-07
2.62878e-07
3.98855e-09
3.9766e-09
3.98659e-09
2.62821e-07
1.03662e-07
2.62858e-07
4.05585e-09
4.07761e-09
4.05637e-09
4.06839e-09
1.03637e-07
2.62862e-07
3.99628e-09
4.04798e-09
3.99435e-09
4.04588e-09
4.03109e-09
4.00361e-09
4.00668e-09
1.0367e-07
2.6288e-07
3.98857e-09
3.97131e-09
3.96792e-09
2.62826e-07
1.03657e-07
2.62857e-07
4.04815e-09
4.07547e-09
3.99622e-09
4.07111e-09
1.03641e-07
2.62883e-07
3.9785e-09
4.04519e-09
3.96818e-09
4.0545e-09
4.00519e-09
3.99566e-09
4.07775e-09
1.0367e-07
2.62881e-07
3.89346e-09
3.97409e-09
3.97021e-09
2.62831e-07
1.03659e-07
2.62849e-07
4.02454e-09
4.03201e-09
4.05327e-09
4.07368e-09
1.03645e-07
2.62884e-07
3.87899e-09
4.0571e-09
4.01638e-09
4.05036e-09
4.05022e-09
3.99541e-09
4.03566e-09
1.03669e-07
2.62879e-07
4.00695e-09
3.98326e-09
3.98667e-09
2.62824e-07
1.03653e-07
2.62847e-07
4.04635e-09
4.06854e-09
4.03895e-09
4.08204e-09
1.03689e-07
2.6288e-07
3.97841e-09
4.05022e-09
4.01161e-09
4.04865e-09
4.03563e-09
4.00194e-09
4.03445e-09
1.0367e-07
2.62879e-07
3.98975e-09
3.98239e-09
3.9846e-09
2.62823e-07
1.0365e-07
2.62844e-07
4.0435e-09
4.07459e-09
4.03984e-09
4.06941e-09
1.03658e-07
2.62882e-07
3.97851e-09
4.04895e-09
4.01393e-09
4.04959e-09
4.03265e-09
3.99805e-09
4.0342e-09
1.0367e-07
2.62879e-07
3.98674e-09
3.98286e-09
3.98447e-09
2.62825e-07
1.0365e-07
2.62845e-07
4.04307e-09
4.06874e-09
4.03905e-09
4.06833e-09
1.03657e-07
2.62881e-07
3.9791e-09
4.04926e-09
4.01069e-09
4.04925e-09
4.03264e-09
3.99896e-09
4.03449e-09
1.0367e-07
2.62878e-07
3.98674e-09
3.98142e-09
3.98506e-09
2.62824e-07
1.0365e-07
2.62844e-07
4.04383e-09
4.06902e-09
4.03872e-09
4.0685e-09
1.03657e-07
2.62881e-07
3.97869e-09
4.05007e-09
4.01429e-09
4.04939e-09
4.03425e-09
3.99809e-09
4.03455e-09
1.0367e-07
2.62878e-07
3.98871e-09
3.98361e-09
3.98756e-09
2.62822e-07
1.0365e-07
2.62844e-07
4.04322e-09
4.06737e-09
4.03846e-09
4.06754e-09
1.03657e-07
2.62881e-07
3.97952e-09
4.04877e-09
4.01425e-09
4.04918e-09
4.03347e-09
3.99802e-09
4.03399e-09
1.0367e-07
2.62879e-07
3.986e-09
3.98371e-09
3.98627e-09
2.62825e-07
1.03651e-07
2.62844e-07
4.04237e-09
4.06666e-09
4.03936e-09
4.06871e-09
1.03658e-07
2.62882e-07
3.97838e-09
4.04849e-09
4.01468e-09
4.05023e-09
4.02978e-09
3.99804e-09
4.03424e-09
1.03671e-07
2.6288e-07
3.98948e-09
3.97531e-09
3.98458e-09
2.62826e-07
1.0365e-07
2.62844e-07
4.04447e-09
4.06868e-09
4.03884e-09
4.06864e-09
1.03657e-07
2.62881e-07
3.98069e-09
4.0501e-09
4.01407e-09
4.04985e-09
4.03257e-09
3.99814e-09
4.03509e-09
1.0367e-07
2.62879e-07
3.9863e-09
3.97596e-09
3.98629e-09
2.62824e-07
1.0365e-07
2.62846e-07
4.04398e-09
4.06939e-09
4.03779e-09
4.0675e-09
1.03657e-07
2.62883e-07
3.9801e-09
4.05063e-09
4.01301e-09
4.04866e-09
4.03479e-09
3.99701e-09
4.03372e-09
1.0367e-07
2.6288e-07
3.98873e-09
3.97479e-09
3.98499e-09
2.62826e-07
1.0365e-07
2.62848e-07
4.0433e-09
4.06816e-09
4.03731e-09
4.06756e-09
1.03657e-07
2.62883e-07
3.97939e-09
4.04934e-09
4.01257e-09
4.04868e-09
4.03161e-09
3.99728e-09
4.03363e-09
1.0367e-07
2.62881e-07
3.98569e-09
3.97547e-09
3.9851e-09
2.62827e-07
1.0365e-07
2.62844e-07
4.04112e-09
4.06686e-09
4.03981e-09
4.06907e-09
1.03657e-07
2.62882e-07
3.97727e-09
4.04799e-09
4.01514e-09
4.05029e-09
4.03232e-09
3.99873e-09
4.03401e-09
1.03671e-07
2.62879e-07
3.98949e-09
3.97659e-09
3.98516e-09
2.62826e-07
1.0365e-07
2.62844e-07
4.04408e-09
4.06869e-09
4.03869e-09
4.06948e-09
1.03657e-07
2.62881e-07
3.98031e-09
4.05005e-09
4.01421e-09
4.05022e-09
4.03415e-09
3.99903e-09
4.03489e-09
1.0367e-07
2.62878e-07
3.98704e-09
3.97721e-09
3.9874e-09
2.62822e-07
1.0365e-07
2.62844e-07
4.04304e-09
4.06935e-09
4.0373e-09
4.07345e-09
1.03657e-07
2.62885e-07
3.97956e-09
4.05017e-09
4.00419e-09
4.04844e-09
4.03369e-09
4.00162e-09
4.03171e-09
1.0367e-07
2.62879e-07
3.98776e-09
3.97579e-09
3.98551e-09
2.62826e-07
1.03651e-07
2.62845e-07
4.04282e-09
4.08264e-09
4.0332e-09
4.05693e-09
1.03655e-07
2.62896e-07
3.9982e-09
4.05006e-09
3.99771e-09
4.04779e-09
4.0314e-09
4.00613e-09
4.03158e-09
1.0367e-07
2.62881e-07
3.98611e-09
3.97505e-09
3.98488e-09
2.62827e-07
1.03651e-07
2.62847e-07
4.04013e-09
4.02405e-09
4.03713e-09
4.05912e-09
1.03642e-07
2.62884e-07
3.99485e-09
4.04918e-09
3.99814e-09
4.05e-09
4.03405e-09
3.99539e-09
4.03072e-09
1.0367e-07
2.62879e-07
3.98752e-09
3.97823e-09
3.9774e-09
2.62828e-07
1.03651e-07
2.62845e-07
4.04244e-09
4.06121e-09
4.0389e-09
4.06455e-09
1.03655e-07
2.62884e-07
3.99359e-09
4.05152e-09
3.99596e-09
4.04471e-09
4.02433e-09
4.00355e-09
4.05487e-09
1.0367e-07
2.62874e-07
3.96318e-09
3.98041e-09
3.98067e-09
2.62834e-07
1.03651e-07
2.62844e-07
4.04262e-09
4.06444e-09
4.03993e-09
4.06589e-09
1.03655e-07
2.62885e-07
3.99074e-09
4.04442e-09
3.99634e-09
4.04346e-09
4.05574e-09
4.00406e-09
4.05649e-09
1.03672e-07
2.62873e-07
3.97775e-09
3.9796e-09
3.98194e-09
2.62837e-07
1.03651e-07
2.62843e-07
4.04386e-09
4.06444e-09
4.03996e-09
4.06599e-09
1.03655e-07
2.62885e-07
3.9916e-09
4.04311e-09
3.99629e-09
4.04338e-09
4.05473e-09
4.00379e-09
4.05472e-09
1.03673e-07
2.62873e-07
3.9767e-09
3.97931e-09
3.98021e-09
2.62841e-07
1.0365e-07
2.62843e-07
4.04476e-09
4.06627e-09
4.03987e-09
4.06542e-09
1.03654e-07
2.62886e-07
3.99246e-09
4.04481e-09
3.99621e-09
4.04285e-09
4.05581e-09
4.00228e-09
4.05265e-09
1.03672e-07
2.62875e-07
3.9779e-09
3.97713e-09
3.97859e-09
2.62844e-07
1.03651e-07
2.6284e-07
4.04506e-09
4.06569e-09
4.04015e-09
4.06581e-09
1.03655e-07
2.62884e-07
3.99279e-09
4.04433e-09
3.99648e-09
4.04334e-09
4.0533e-09
4.0031e-09
4.05382e-09
1.03673e-07
2.62873e-07
3.97534e-09
3.97779e-09
3.97725e-09
2.62841e-07
1.0365e-07
2.62843e-07
4.04632e-09
4.06655e-09
4.03952e-09
4.06613e-09
1.03654e-07
2.62883e-07
3.99398e-09
4.04517e-09
3.99584e-09
4.04363e-09
4.05579e-09
4.00356e-09
4.05582e-09
1.03672e-07
2.62872e-07
3.97976e-09
3.97878e-09
3.98061e-09
2.62838e-07
1.03651e-07
2.62844e-07
4.04395e-09
4.06488e-09
4.03871e-09
4.06476e-09
1.03655e-07
2.62886e-07
3.9916e-09
4.04355e-09
3.99506e-09
4.04216e-09
4.05476e-09
4.00278e-09
4.05443e-09
1.03673e-07
2.62874e-07
3.9765e-09
3.97821e-09
3.9797e-09
2.6284e-07
1.03651e-07
2.62844e-07
4.04416e-09
4.06589e-09
4.03925e-09
4.06446e-09
1.03654e-07
2.62886e-07
3.99183e-09
4.04449e-09
3.99559e-09
4.04194e-09
4.05754e-09
4.00298e-09
4.05474e-09
1.03672e-07
2.62875e-07
3.97933e-09
3.97836e-09
3.97927e-09
2.62841e-07
1.0365e-07
2.62843e-07
4.04555e-09
4.066e-09
4.03914e-09
4.06581e-09
1.03654e-07
2.62883e-07
3.99322e-09
4.04457e-09
3.99531e-09
4.04321e-09
4.0563e-09
4.00386e-09
4.05645e-09
1.03672e-07
2.62871e-07
3.97951e-09
3.97947e-09
3.98306e-09
2.62835e-07
1.0365e-07
2.62847e-07
4.0446e-09
4.06599e-09
4.03708e-09
4.0642e-09
1.03655e-07
2.62887e-07
3.9928e-09
4.04464e-09
3.9908e-09
4.04151e-09
4.05705e-09
4.00252e-09
4.05307e-09
1.03672e-07
2.62875e-07
3.98018e-09
3.97801e-09
3.97964e-09
2.62842e-07
1.03651e-07
2.62843e-07
4.04269e-09
4.06433e-09
4.03995e-09
4.06611e-09
1.03655e-07
2.62886e-07
3.99099e-09
4.0429e-09
3.99356e-09
4.04342e-09
4.05547e-09
4.0037e-09
4.0536e-09
1.03672e-07
2.62874e-07
3.97853e-09
3.9792e-09
3.98013e-09
2.62843e-07
1.03651e-07
2.62841e-07
4.04392e-09
4.06459e-09
4.04017e-09
4.06627e-09
1.03655e-07
2.62884e-07
3.99212e-09
4.04316e-09
3.99358e-09
4.04386e-09
4.05543e-09
4.00346e-09
4.05543e-09
1.03673e-07
2.62873e-07
3.9784e-09
3.97889e-09
3.98166e-09
2.62841e-07
1.03651e-07
2.62842e-07
4.04492e-09
4.06633e-09
4.03993e-09
4.06525e-09
1.03655e-07
2.62885e-07
3.99279e-09
4.04542e-09
3.9926e-09
4.04498e-09
4.05587e-09
4.00301e-09
4.05484e-09
1.03672e-07
2.62875e-07
3.97853e-09
3.9804e-09
3.97885e-09
2.62844e-07
1.03651e-07
2.62846e-07
4.0443e-09
4.06414e-09
4.03788e-09
4.06527e-09
1.03655e-07
2.62885e-07
3.99142e-09
4.04624e-09
3.99027e-09
4.04632e-09
4.05479e-09
4.0029e-09
4.06026e-09
1.03673e-07
2.62868e-07
3.97324e-09
3.93985e-09
3.96321e-09
2.62833e-07
1.03651e-07
2.62837e-07
4.04399e-09
4.06594e-09
4.04386e-09
4.06838e-09
1.03654e-07
2.62882e-07
3.99127e-09
4.04592e-09
3.99671e-09
4.04316e-09
4.05883e-09
4.00598e-09
4.05517e-09
1.03675e-07
2.62869e-07
3.96051e-09
3.97735e-09
3.98147e-09
2.62835e-07
1.0365e-07
2.62841e-07
4.04825e-09
4.06807e-09
4.03969e-09
4.06625e-09
1.03654e-07
2.62883e-07
3.9959e-09
4.04388e-09
3.99304e-09
4.04244e-09
4.05757e-09
4.00259e-09
4.05283e-09
1.03671e-07
2.62872e-07
3.97644e-09
3.97504e-09
3.96329e-09
2.62844e-07
1.03649e-07
2.62842e-07
4.04672e-09
4.06702e-09
4.03799e-09
4.06486e-09
1.03653e-07
2.62883e-07
3.99477e-09
4.0446e-09
3.99157e-09
4.04184e-09
4.05208e-09
4.00289e-09
4.0552e-09
1.03671e-07
2.62872e-07
3.98523e-09
3.97806e-09
3.97027e-09
2.62839e-07
1.0365e-07
2.6284e-07
4.04228e-09
4.06376e-09
4.04021e-09
4.06617e-09
1.03654e-07
2.62882e-07
3.99049e-09
4.04209e-09
3.99385e-09
4.04334e-09
4.05315e-09
4.00303e-09
4.0532e-09
1.03671e-07
2.62871e-07
3.99193e-09
3.97911e-09
3.97938e-09
2.62838e-07
1.0365e-07
2.6284e-07
4.04308e-09
4.06564e-09
4.04017e-09
4.06671e-09
1.03653e-07
2.62882e-07
3.99131e-09
4.04429e-09
3.99387e-09
4.04392e-09
4.0557e-09
4.00345e-09
4.05536e-09
1.03671e-07
2.6287e-07
3.97779e-09
3.97958e-09
3.98164e-09
2.62836e-07
1.03649e-07
2.62842e-07
4.04638e-09
4.06702e-09
4.03874e-09
4.06476e-09
1.03653e-07
2.62882e-07
3.99462e-09
4.04571e-09
3.99241e-09
4.04186e-09
4.05761e-09
4.00297e-09
4.05367e-09
1.03671e-07
2.62871e-07
3.97975e-09
3.97924e-09
3.98038e-09
2.62837e-07
1.0365e-07
2.62841e-07
4.04194e-09
4.06422e-09
4.0398e-09
4.06684e-09
1.03654e-07
2.62882e-07
3.99019e-09
4.04281e-09
3.99351e-09
4.04396e-09
4.05549e-09
4.00328e-09
4.05471e-09
1.03671e-07
2.62871e-07
3.97802e-09
3.97971e-09
3.98055e-09
2.62837e-07
1.03649e-07
2.62843e-07
4.04484e-09
4.06507e-09
4.03815e-09
4.0649e-09
1.03653e-07
2.62883e-07
3.9931e-09
4.04372e-09
3.99187e-09
4.04198e-09
4.05533e-09
4.00283e-09
4.05488e-09
1.03671e-07
2.62872e-07
3.97704e-09
3.98091e-09
3.98183e-09
2.62837e-07
1.03649e-07
2.62839e-07
4.04403e-09
4.06623e-09
4.04018e-09
4.06449e-09
1.03653e-07
2.62884e-07
3.99232e-09
4.04477e-09
3.99384e-09
4.04184e-09
4.05719e-09
4.00164e-09
4.05266e-09
1.03671e-07
2.62873e-07
3.97977e-09
3.97702e-09
3.97873e-09
2.6284e-07
1.0365e-07
2.6284e-07
4.04389e-09
4.0648e-09
4.03946e-09
4.06711e-09
1.03653e-07
2.62879e-07
3.99216e-09
4.0433e-09
3.99313e-09
4.04437e-09
4.05538e-09
4.00506e-09
4.05597e-09
1.03671e-07
2.62868e-07
3.97803e-09
3.98061e-09
3.98214e-09
2.62834e-07
1.0365e-07
2.62842e-07
4.04428e-09
4.06582e-09
4.03867e-09
4.06445e-09
1.03654e-07
2.62883e-07
3.99254e-09
4.04432e-09
3.99231e-09
4.04169e-09
4.05593e-09
4.00226e-09
4.05346e-09
1.03672e-07
2.62872e-07
3.97865e-09
3.97787e-09
3.97967e-09
2.62838e-07
1.0365e-07
2.62843e-07
4.04295e-09
4.06502e-09
4.03886e-09
4.06478e-09
1.03653e-07
2.62884e-07
3.99116e-09
4.04351e-09
3.99256e-09
4.04202e-09
4.05577e-09
4.00359e-09
4.0542e-09
1.03671e-07
2.62872e-07
3.97847e-09
3.97917e-09
3.9804e-09
2.62839e-07
1.03649e-07
2.62839e-07
4.04385e-09
4.06453e-09
4.03963e-09
4.06541e-09
1.03653e-07
2.62881e-07
3.99214e-09
4.04296e-09
3.99357e-09
4.04266e-09
4.05413e-09
4.00411e-09
4.05501e-09
1.03671e-07
2.6287e-07
3.97686e-09
3.97963e-09
3.98118e-09
2.62836e-07
1.0365e-07
2.6284e-07
4.04484e-09
4.06587e-09
4.03846e-09
4.06487e-09
1.03654e-07
2.62883e-07
3.99657e-09
4.04451e-09
4.00737e-09
4.04208e-09
4.05615e-09
4.00258e-09
4.0546e-09
1.03672e-07
2.62871e-07
3.97887e-09
3.97821e-09
3.98078e-09
2.62837e-07
1.03648e-07
2.62839e-07
4.04469e-09
4.06654e-09
4.0392e-09
4.06554e-09
1.03653e-07
2.62882e-07
3.97765e-09
4.0449e-09
4.00835e-09
4.04284e-09
4.05536e-09
4.00355e-09
4.05386e-09
1.03671e-07
2.62871e-07
3.97812e-09
3.97911e-09
3.98009e-09
2.62839e-07
1.03648e-07
2.62839e-07
4.04572e-09
4.06548e-09
4.03943e-09
4.06497e-09
1.03653e-07
2.62884e-07
3.97885e-09
4.04394e-09
4.00853e-09
4.04219e-09
4.0535e-09
4.00225e-09
4.05328e-09
1.03671e-07
2.62871e-07
3.97624e-09
3.97785e-09
3.9795e-09
2.6284e-07
1.03648e-07
2.62837e-07
4.04539e-09
4.06437e-09
4.04118e-09
4.06667e-09
1.03653e-07
2.6288e-07
3.97857e-09
4.04547e-09
4.01028e-09
4.05013e-09
4.05619e-09
4.00463e-09
4.05587e-09
1.03671e-07
2.629e-07
3.97889e-09
3.97932e-09
3.98199e-09
2.62834e-07
1.03649e-07
2.62841e-07
4.04687e-09
4.06727e-09
4.03807e-09
4.06516e-09
1.03653e-07
2.62883e-07
3.9801e-09
4.03942e-09
4.00713e-09
4.04895e-09
4.05767e-09
4.00285e-09
4.05315e-09
1.03675e-07
2.62903e-07
3.98034e-09
3.97783e-09
3.97939e-09
2.62838e-07
1.03649e-07
2.62844e-07
4.04253e-09
4.06449e-09
4.03723e-09
4.06424e-09
1.03654e-07
2.62885e-07
3.9758e-09
4.03684e-09
4.00628e-09
4.048e-09
4.05524e-09
4.00226e-09
4.05278e-09
1.03676e-07
2.62905e-07
3.97799e-09
3.97724e-09
3.97918e-09
2.62839e-07
1.03648e-07
2.62839e-07
4.04373e-09
4.06428e-09
4.03921e-09
4.06673e-09
1.03653e-07
2.6288e-07
3.97691e-09
4.03681e-09
4.00839e-09
4.05314e-09
4.05503e-09
4.00444e-09
4.05593e-09
1.03675e-07
2.62905e-07
3.97771e-09
3.97943e-09
3.98202e-09
2.62835e-07
1.03649e-07
2.62839e-07
4.04546e-09
4.06635e-09
4.03821e-09
4.0673e-09
1.03654e-07
2.62881e-07
3.97886e-09
4.03851e-09
4.00836e-09
4.04276e-09
4.05699e-09
4.00204e-09
4.05508e-09
1.03676e-07
2.62881e-07
3.97997e-09
3.97608e-09
3.98696e-09
2.62837e-07
1.03648e-07
2.62844e-07
4.04475e-09
4.06781e-09
4.04178e-09
4.07233e-09
1.03654e-07
2.62881e-07
3.97999e-09
4.04373e-09
4.00984e-09
4.06538e-09
4.06348e-09
4.0084e-09
4.04613e-09
1.03672e-07
2.62877e-07
3.99585e-09
3.99021e-09
3.99427e-09
2.62825e-07
1.03641e-07
2.62851e-07
4.05436e-09
4.05691e-09
4.47e-09
4.44402e-09
1.03648e-07
2.62861e-07
3.97746e-09
4.07313e-09
4.46131e-09
4.48714e-09
4.03087e-09
4.3199e-09
4.3803e-09
1.03664e-07
2.62878e-07
3.96892e-09
4.35647e-09
4.35376e-09
2.62822e-07
1.03612e-07
2.62523e-07
5.06549e-09
5.11173e-09
2.33803e-08
2.34533e-08
1.0357e-07
2.62545e-07
5.04708e-09
5.02299e-09
2.34329e-08
2.34722e-08
5.01486e-09
2.32895e-08
2.33888e-08
1.03617e-07
2.62499e-07
4.96634e-09
2.33033e-08
2.32695e-08
2.62537e-07
1.0236e-07
1.24961e-07
4.64883e-08
4.65007e-08
2.08751e-07
2.08317e-07
1.02371e-07
1.24993e-07
4.63513e-08
4.65648e-08
2.08359e-07
2.08235e-07
4.65298e-08
2.0885e-07
2.08637e-07
1.02383e-07
1.24891e-07
4.63639e-08
2.08554e-07
2.08301e-07
1.24899e-07
5.25457e-07
2.37375e-07
2.37166e-07
5.25402e-07
2.37529e-07
2.37237e-07
4.91916e-07
4.92012e-07
4.91966e-07
2.37394e-07
5.2537e-07
2.37526e-07
5.58077e-08
2.51259e-07
1.65764e-07
1.65785e-07
5.21177e-07
3.40244e-07
5.16527e-07
2.22934e-07
5.21123e-07
3.40258e-07
2.22935e-07
5.16386e-07
4.51255e-07
4.72664e-07
4.72561e-07
3.33208e-06
0.000120066
3.29331e-06
0.000121451
0.00024084
0.000247677
3.3326e-06
0.000120083
3.29384e-06
0.000121469
1.21013e-06
1.20953e-06
1.20982e-06
1.67837e-07
1.67758e-07
1.67798e-07
1.67864e-07
2.66739e-07
5.30841e-06
9.02162e-07
7.36715e-07
1.76985e-07
3.94204e-06
5.99863e-07
0.000240833
0.000247662
2.66193e-07
9.01416e-07
5.30737e-06
7.36607e-07
1.76875e-07
5.99592e-07
3.94124e-06
7.9127e-06
7.91362e-06
2.62042e-07
8.51564e-06
8.51737e-06
3.19299e-06
0.000120833
3.1851e-06
0.000120825
0.000248374
0.000248366
3.19343e-06
0.000120849
3.18555e-06
0.000120841
8.11491e-08
8.11387e-08
8.11815e-08
1.13835e-08
1.1381e-08
1.13783e-08