/*--------------------------------*- C++ -*----------------------------------*\
| =========                 |                                                 |
| \\      /  F ield         | OpenFOAM: The Open Source CFD Toolbox           |
|  \\    /   O peration     | Version:  v1906                                 |
|   \\  /    A nd           | Web:      www.OpenFOAM.com                      |
|    \\/     M anipulation  |                                                 |
\*---------------------------------------------------------------------------*/
FoamFile
{
    version     2.0;
    format      ascii;
    class       volScalarField;
    location    "0.14";
    object      p;
}
// * * * * * * * * * * * * * * * * * * * * * * * * * * * * * * * * * * * * * //

dimensions      [0 2 -2 0 0 0 0];


internalField   nonuniform List<scalar> 
247104
(
5.43068e-12
6.00411e-10
5.73935e-10
3.67507e-10
1.30111e-10
4.11349e-10
5.83121e-10
5.20225e-10
5.88492e-10
6.59853e-10
6.9637e-10
4.65372e-10
3.09086e-10
4.99514e-10
7.10657e-10
6.30487e-10
5.73245e-10
6.95145e-10
4.08546e-10
9.96406e-12
-1.55053e-10
5.26095e-11
4.58329e-10
7.03312e-10
5.44161e-10
3.69175e-10
4.64638e-10
9.46387e-12
-4.77157e-10
-6.57284e-10
-4.28776e-10
7.72702e-11
4.93251e-10
3.1151e-10
7.86904e-12
1.33199e-10
3.08607e-10
-1.5607e-10
-6.57943e-10
-8.41192e-10
-6.0847e-10
-8.5858e-11
3.33863e-10
5.757e-11
4.10076e-10
4.97208e-10
5.0551e-11
-4.30294e-10
-6.09255e-10
-3.82341e-10
1.17083e-10
5.24762e-10
3.56769e-10
5.7697e-10
7.06272e-10
4.55083e-10
7.48687e-11
-8.74496e-11
1.16297e-10
5.00909e-10
7.09936e-10
5.51685e-10
5.14581e-10
6.25654e-10
6.99371e-10
4.90125e-10
3.31634e-10
5.2337e-10
7.09295e-10
5.91347e-10
5.39794e-10
3.08069e-10
5.52105e-11
3.55291e-10
5.51008e-10
-3.38397e-08
-3.59472e-08
-3.57065e-08
-3.68584e-08
-3.72435e-08
-3.72679e-08
-3.73003e-08
-3.54586e-08
-3.51737e-08
-3.57168e-08
-3.78412e-08
-4.10745e-08
-4.12553e-08
-4.12563e-08
-4.10751e-08
-3.74403e-08
-3.72271e-08
-3.68628e-08
-4.10757e-08
-4.11693e-08
-4.11561e-08
-4.11563e-08
-4.11698e-08
-4.1075e-08
-3.69269e-08
-3.59893e-08
-3.38342e-08
-3.72517e-08
-4.12553e-08
-4.11555e-08
-4.10385e-08
-4.10388e-08
-4.11562e-08
-4.12554e-08
-3.71965e-08
-3.5321e-08
-3.59201e-08
-3.72673e-08
-4.12546e-08
-4.1155e-08
-4.10381e-08
-4.10384e-08
-4.11558e-08
-4.12546e-08
-3.70861e-08
-3.74749e-08
-3.72923e-08
-4.10735e-08
-4.11682e-08
-4.1155e-08
-4.11555e-08
-4.11691e-08
-4.10741e-08
-3.71446e-08
-3.63148e-08
-3.54653e-08
-3.74402e-08
-4.1074e-08
-4.12542e-08
-4.12561e-08
-4.10765e-08
-3.74121e-08
-3.6969e-08
-3.54377e-08
-3.51615e-08
-3.72259e-08
-3.69213e-08
-3.71912e-08
-3.70873e-08
-3.71503e-08
-3.69738e-08
-3.43024e-08
-3.59825e-08
-3.53168e-08
-3.7476e-08
-3.63309e-08
-3.54391e-08
-5.39329e-08
-5.41427e-08
-5.43092e-08
-5.65365e-08
-5.65714e-08
-5.65635e-08
-5.65468e-08
-5.41054e-08
-5.40125e-08
-5.42976e-08
-5.71669e-08
-6.03246e-08
-6.05311e-08
-6.05315e-08
-6.03242e-08
-5.62663e-08
-5.60719e-08
-5.65344e-08
-6.03302e-08
-6.08146e-08
-6.08328e-08
-6.08327e-08
-6.08135e-08
-6.03215e-08
-5.54946e-08
-5.35312e-08
-5.39294e-08
-5.65681e-08
-6.05311e-08
-6.08335e-08
-6.08289e-08
-6.0829e-08
-6.08337e-08
-6.05309e-08
-5.55349e-08
-5.39974e-08
-5.41376e-08
-5.65595e-08
-6.05298e-08
-6.08332e-08
-6.08291e-08
-6.08295e-08
-6.08339e-08
-6.05317e-08
-5.56424e-08
-5.61663e-08
-5.65434e-08
-6.03225e-08
-6.08128e-08
-6.08336e-08
-6.08346e-08
-6.08156e-08
-6.03273e-08
-5.54566e-08
-5.35815e-08
-5.41034e-08
-5.62665e-08
-6.0324e-08
-6.05318e-08
-6.05353e-08
-6.03276e-08
-5.57776e-08
-5.57395e-08
-5.36513e-08
-5.40098e-08
-5.60748e-08
-5.54983e-08
-5.55373e-08
-5.56439e-08
-5.54569e-08
-5.57383e-08
-5.35294e-08
-5.35364e-08
-5.39959e-08
-5.61684e-08
-5.35782e-08
-5.36492e-08
-7.39236e-08
-7.40958e-08
-7.4159e-08
-7.65274e-08
-7.65327e-08
-7.66436e-08
-7.6449e-08
-7.39842e-08
-7.38799e-08
-7.41646e-08
-7.74536e-08
-8.0404e-08
-8.04793e-08
-8.04804e-08
-8.04051e-08
-7.634e-08
-7.58282e-08
-7.6525e-08
-8.04028e-08
-8.05962e-08
-8.06067e-08
-8.0607e-08
-8.05963e-08
-8.04046e-08
-7.53358e-08
-7.34674e-08
-7.39198e-08
-7.65277e-08
-8.04794e-08
-8.06076e-08
-8.06122e-08
-8.06121e-08
-8.06071e-08
-8.04787e-08
-7.52243e-08
-7.40013e-08
-7.4093e-08
-7.66394e-08
-8.04796e-08
-8.06075e-08
-8.06124e-08
-8.06125e-08
-8.06073e-08
-8.04799e-08
-7.52939e-08
-7.59811e-08
-7.64476e-08
-8.04035e-08
-8.05961e-08
-8.06077e-08
-8.06085e-08
-8.05973e-08
-8.04044e-08
-7.52211e-08
-7.35832e-08
-7.39789e-08
-7.63407e-08
-8.04055e-08
-8.04798e-08
-8.04815e-08
-8.04042e-08
-7.53914e-08
-7.55306e-08
-7.35105e-08
-7.38862e-08
-7.5826e-08
-7.53355e-08
-7.52249e-08
-7.5294e-08
-7.52234e-08
-7.55319e-08
-7.35694e-08
-7.34696e-08
-7.40022e-08
-7.59742e-08
-7.35808e-08
-7.35106e-08
-9.38822e-08
-9.40404e-08
-9.41954e-08
-9.6605e-08
-9.66166e-08
-9.68061e-08
-9.65174e-08
-9.40191e-08
-9.38989e-08
-9.41978e-08
-9.77022e-08
-1.00554e-07
-1.00576e-07
-1.00576e-07
-1.00555e-07
-9.65283e-08
-9.58373e-08
-9.66064e-08
-1.00557e-07
-1.00607e-07
-1.0061e-07
-1.0061e-07
-1.00607e-07
-1.00555e-07
-9.53111e-08
-9.34424e-08
-9.38775e-08
-9.66176e-08
-1.00577e-07
-1.00611e-07
-1.00612e-07
-1.00612e-07
-1.0061e-07
-1.00577e-07
-9.50828e-08
-9.39045e-08
-9.40431e-08
-9.68075e-08
-1.00576e-07
-1.00611e-07
-1.00612e-07
-1.00612e-07
-1.00611e-07
-1.00576e-07
-9.51333e-08
-9.58561e-08
-9.65183e-08
-1.00556e-07
-1.00608e-07
-1.00611e-07
-1.00611e-07
-1.00608e-07
-1.00555e-07
-9.51465e-08
-9.34978e-08
-9.40188e-08
-9.65307e-08
-1.00554e-07
-1.00577e-07
-1.00578e-07
-1.00556e-07
-9.52577e-08
-9.5499e-08
-9.35069e-08
-9.38874e-08
-9.58362e-08
-9.53105e-08
-9.50842e-08
-9.51347e-08
-9.51487e-08
-9.54988e-08
-9.3554e-08
-9.34417e-08
-9.39053e-08
-9.5856e-08
-9.34965e-08
-9.35059e-08
-1.1392e-07
-1.14073e-07
-1.14267e-07
-1.1669e-07
-1.16692e-07
-1.16915e-07
-1.16599e-07
-1.14089e-07
-1.13955e-07
-1.14269e-07
-1.17818e-07
-1.20659e-07
-1.20664e-07
-1.20664e-07
-1.20659e-07
-1.16656e-07
-1.15894e-07
-1.16689e-07
-1.20657e-07
-1.20672e-07
-1.20672e-07
-1.20672e-07
-1.20671e-07
-1.20658e-07
-1.15362e-07
-1.13493e-07
-1.13916e-07
-1.16696e-07
-1.20665e-07
-1.20673e-07
-1.20672e-07
-1.20672e-07
-1.20672e-07
-1.20664e-07
-1.15101e-07
-1.13918e-07
-1.14073e-07
-1.16921e-07
-1.20665e-07
-1.20673e-07
-1.20672e-07
-1.20672e-07
-1.20672e-07
-1.20663e-07
-1.15136e-07
-1.15863e-07
-1.166e-07
-1.20658e-07
-1.20672e-07
-1.20673e-07
-1.20673e-07
-1.20672e-07
-1.20659e-07
-1.15184e-07
-1.13521e-07
-1.14088e-07
-1.16662e-07
-1.20658e-07
-1.20665e-07
-1.20665e-07
-1.20659e-07
-1.15265e-07
-1.15543e-07
-1.13566e-07
-1.13956e-07
-1.15892e-07
-1.15361e-07
-1.15096e-07
-1.15136e-07
-1.15183e-07
-1.15544e-07
-1.13624e-07
-1.13491e-07
-1.13914e-07
-1.15862e-07
-1.13519e-07
-1.13564e-07
-1.33989e-07
-1.3414e-07
-1.34346e-07
-1.36768e-07
-1.36776e-07
-1.37007e-07
-1.36682e-07
-1.34169e-07
-1.34036e-07
-1.34345e-07
-1.37906e-07
-1.40745e-07
-1.40747e-07
-1.40747e-07
-1.40746e-07
-1.36754e-07
-1.35967e-07
-1.36771e-07
-1.40745e-07
-1.40748e-07
-1.40748e-07
-1.40749e-07
-1.40749e-07
-1.40745e-07
-1.35438e-07
-1.33565e-07
-1.33985e-07
-1.36776e-07
-1.40747e-07
-1.40749e-07
-1.40749e-07
-1.40749e-07
-1.40749e-07
-1.40747e-07
-1.3516e-07
-1.33981e-07
-1.34141e-07
-1.37008e-07
-1.40746e-07
-1.40749e-07
-1.40749e-07
-1.40749e-07
-1.40749e-07
-1.40748e-07
-1.35193e-07
-1.35924e-07
-1.36684e-07
-1.40747e-07
-1.40749e-07
-1.40749e-07
-1.40749e-07
-1.40749e-07
-1.40746e-07
-1.35257e-07
-1.33587e-07
-1.34167e-07
-1.36757e-07
-1.40746e-07
-1.40747e-07
-1.40748e-07
-1.40747e-07
-1.35322e-07
-1.35612e-07
-1.33639e-07
-1.34037e-07
-1.35969e-07
-1.35435e-07
-1.35162e-07
-1.35195e-07
-1.35255e-07
-1.35615e-07
-1.33702e-07
-1.33567e-07
-1.33979e-07
-1.35926e-07
-1.3359e-07
-1.33638e-07
-1.54066e-07
-1.54217e-07
-1.54425e-07
-1.56847e-07
-1.56856e-07
-1.57087e-07
-1.56763e-07
-1.54249e-07
-1.54116e-07
-1.54424e-07
-1.5799e-07
-1.60827e-07
-1.60828e-07
-1.60828e-07
-1.60828e-07
-1.56837e-07
-1.56045e-07
-1.56852e-07
-1.60828e-07
-1.60829e-07
-1.60828e-07
-1.60828e-07
-1.60829e-07
-1.60829e-07
-1.55519e-07
-1.53645e-07
-1.54062e-07
-1.56858e-07
-1.60829e-07
-1.60829e-07
-1.60828e-07
-1.60828e-07
-1.60829e-07
-1.60828e-07
-1.55235e-07
-1.5406e-07
-1.54218e-07
-1.5709e-07
-1.60829e-07
-1.60829e-07
-1.60829e-07
-1.60829e-07
-1.60829e-07
-1.60829e-07
-1.55267e-07
-1.56e-07
-1.56765e-07
-1.60828e-07
-1.60829e-07
-1.60829e-07
-1.60829e-07
-1.60829e-07
-1.60829e-07
-1.55335e-07
-1.53665e-07
-1.5425e-07
-1.56839e-07
-1.60827e-07
-1.6083e-07
-1.60829e-07
-1.60828e-07
-1.55399e-07
-1.55693e-07
-1.53718e-07
-1.54119e-07
-1.56047e-07
-1.55517e-07
-1.55235e-07
-1.55269e-07
-1.55333e-07
-1.55692e-07
-1.5378e-07
-1.53645e-07
-1.54056e-07
-1.56e-07
-1.53666e-07
-1.53715e-07
-1.74146e-07
-1.74296e-07
-1.74505e-07
-1.76929e-07
-1.76936e-07
-1.7717e-07
-1.76844e-07
-1.74329e-07
-1.74196e-07
-1.74504e-07
-1.7807e-07
-1.80909e-07
-1.80909e-07
-1.80909e-07
-1.80909e-07
-1.7692e-07
-1.76125e-07
-1.76933e-07
-1.80909e-07
-1.80909e-07
-1.80909e-07
-1.80909e-07
-1.80909e-07
-1.80909e-07
-1.75596e-07
-1.73724e-07
-1.74141e-07
-1.76936e-07
-1.80909e-07
-1.80909e-07
-1.80909e-07
-1.80909e-07
-1.80909e-07
-1.80909e-07
-1.75314e-07
-1.74138e-07
-1.74297e-07
-1.7717e-07
-1.80909e-07
-1.80909e-07
-1.80909e-07
-1.80909e-07
-1.80909e-07
-1.80909e-07
-1.75346e-07
-1.7608e-07
-1.76845e-07
-1.80909e-07
-1.80909e-07
-1.80909e-07
-1.80909e-07
-1.80909e-07
-1.80909e-07
-1.75413e-07
-1.73744e-07
-1.74328e-07
-1.76922e-07
-1.80908e-07
-1.80908e-07
-1.80908e-07
-1.80909e-07
-1.75474e-07
-1.75769e-07
-1.73797e-07
-1.74198e-07
-1.76128e-07
-1.75599e-07
-1.75315e-07
-1.75348e-07
-1.75413e-07
-1.75771e-07
-1.73859e-07
-1.73726e-07
-1.74136e-07
-1.76079e-07
-1.73745e-07
-1.73794e-07
-1.94226e-07
-1.94376e-07
-1.94586e-07
-1.9701e-07
-1.97016e-07
-1.9725e-07
-1.96924e-07
-1.94409e-07
-1.94276e-07
-1.94584e-07
-1.9815e-07
-2.00989e-07
-2.00989e-07
-2.00989e-07
-2.00989e-07
-1.97002e-07
-1.96205e-07
-1.97014e-07
-2.00988e-07
-2.0099e-07
-2.00989e-07
-2.00989e-07
-2.00989e-07
-2.00989e-07
-1.95676e-07
-1.93805e-07
-1.9422e-07
-1.97017e-07
-2.00989e-07
-2.0099e-07
-2.00989e-07
-2.00989e-07
-2.00989e-07
-2.00989e-07
-1.95395e-07
-1.94218e-07
-1.94376e-07
-1.97253e-07
-2.00989e-07
-2.0099e-07
-2.00989e-07
-2.00989e-07
-2.00989e-07
-2.00989e-07
-1.95427e-07
-1.9616e-07
-1.96926e-07
-2.00989e-07
-2.0099e-07
-2.0099e-07
-2.00989e-07
-2.00989e-07
-2.00989e-07
-1.95494e-07
-1.93824e-07
-1.94409e-07
-1.97002e-07
-2.00989e-07
-2.00989e-07
-2.00989e-07
-2.00989e-07
-1.95554e-07
-1.9585e-07
-1.93877e-07
-1.94279e-07
-1.96209e-07
-1.95677e-07
-1.95394e-07
-1.95426e-07
-1.95492e-07
-1.95851e-07
-1.93939e-07
-1.93805e-07
-1.94215e-07
-1.96157e-07
-1.93824e-07
-1.93874e-07
-2.14308e-07
-2.14457e-07
-2.14668e-07
-2.17094e-07
-2.17098e-07
-2.17331e-07
-2.17005e-07
-2.14487e-07
-2.14357e-07
-2.14665e-07
-2.1823e-07
-2.21071e-07
-2.2107e-07
-2.2107e-07
-2.2107e-07
-2.17082e-07
-2.16286e-07
-2.17095e-07
-2.2107e-07
-2.2107e-07
-2.21071e-07
-2.21071e-07
-2.2107e-07
-2.2107e-07
-2.15757e-07
-2.13885e-07
-2.14302e-07
-2.17098e-07
-2.2107e-07
-2.21071e-07
-2.2107e-07
-2.2107e-07
-2.2107e-07
-2.2107e-07
-2.15476e-07
-2.14299e-07
-2.14457e-07
-2.17334e-07
-2.21071e-07
-2.21071e-07
-2.2107e-07
-2.2107e-07
-2.2107e-07
-2.2107e-07
-2.15508e-07
-2.16241e-07
-2.17007e-07
-2.21071e-07
-2.21071e-07
-2.2107e-07
-2.2107e-07
-2.2107e-07
-2.2107e-07
-2.15574e-07
-2.13905e-07
-2.1449e-07
-2.17084e-07
-2.2107e-07
-2.2107e-07
-2.2107e-07
-2.2107e-07
-2.15635e-07
-2.1593e-07
-2.13958e-07
-2.1436e-07
-2.1629e-07
-2.15758e-07
-2.15474e-07
-2.15507e-07
-2.15572e-07
-2.15931e-07
-2.1402e-07
-2.13886e-07
-2.14296e-07
-2.16238e-07
-2.13905e-07
-2.13955e-07
-2.34388e-07
-2.34538e-07
-2.34756e-07
-2.37172e-07
-2.37179e-07
-2.37412e-07
-2.37086e-07
-2.34567e-07
-2.34437e-07
-2.34747e-07
-2.38314e-07
-2.41151e-07
-2.41151e-07
-2.41151e-07
-2.41151e-07
-2.37162e-07
-2.36366e-07
-2.37176e-07
-2.41151e-07
-2.41151e-07
-2.41151e-07
-2.41151e-07
-2.41151e-07
-2.41151e-07
-2.35838e-07
-2.33966e-07
-2.34382e-07
-2.37179e-07
-2.41151e-07
-2.41151e-07
-2.41151e-07
-2.41151e-07
-2.41151e-07
-2.41151e-07
-2.35557e-07
-2.3438e-07
-2.34538e-07
-2.37414e-07
-2.41151e-07
-2.41151e-07
-2.41151e-07
-2.41151e-07
-2.41151e-07
-2.41151e-07
-2.35588e-07
-2.36321e-07
-2.37088e-07
-2.41151e-07
-2.41151e-07
-2.41151e-07
-2.41151e-07
-2.41151e-07
-2.41151e-07
-2.35655e-07
-2.33986e-07
-2.34571e-07
-2.37166e-07
-2.41151e-07
-2.41151e-07
-2.41151e-07
-2.41151e-07
-2.35716e-07
-2.36011e-07
-2.34039e-07
-2.34441e-07
-2.36371e-07
-2.35839e-07
-2.35555e-07
-2.35588e-07
-2.35653e-07
-2.36012e-07
-2.34101e-07
-2.33967e-07
-2.34377e-07
-2.36318e-07
-2.33985e-07
-2.34036e-07
-2.54469e-07
-2.54618e-07
-2.54836e-07
-2.57253e-07
-2.5726e-07
-2.57493e-07
-2.57166e-07
-2.54648e-07
-2.54521e-07
-2.54827e-07
-2.58394e-07
-2.61232e-07
-2.61232e-07
-2.61232e-07
-2.61232e-07
-2.5724e-07
-2.56447e-07
-2.57256e-07
-2.61232e-07
-2.61232e-07
-2.61231e-07
-2.61231e-07
-2.61232e-07
-2.61231e-07
-2.55918e-07
-2.54047e-07
-2.54463e-07
-2.5726e-07
-2.61232e-07
-2.61232e-07
-2.61232e-07
-2.61232e-07
-2.61232e-07
-2.61232e-07
-2.55637e-07
-2.5446e-07
-2.54619e-07
-2.57495e-07
-2.61232e-07
-2.61232e-07
-2.61232e-07
-2.61232e-07
-2.61232e-07
-2.61232e-07
-2.55669e-07
-2.56402e-07
-2.57168e-07
-2.61232e-07
-2.61232e-07
-2.61232e-07
-2.61232e-07
-2.61232e-07
-2.61232e-07
-2.55736e-07
-2.54066e-07
-2.54651e-07
-2.57246e-07
-2.61232e-07
-2.61232e-07
-2.61231e-07
-2.61231e-07
-2.55797e-07
-2.56092e-07
-2.5412e-07
-2.54521e-07
-2.56451e-07
-2.55919e-07
-2.55636e-07
-2.55668e-07
-2.55733e-07
-2.56093e-07
-2.54181e-07
-2.54047e-07
-2.54457e-07
-2.56399e-07
-2.54066e-07
-2.54116e-07
-2.7455e-07
-2.74699e-07
-2.74916e-07
-2.77333e-07
-2.7734e-07
-2.77573e-07
-2.77247e-07
-2.7473e-07
-2.74602e-07
-2.74908e-07
-2.78475e-07
-2.81312e-07
-2.81312e-07
-2.81312e-07
-2.81312e-07
-2.77321e-07
-2.76528e-07
-2.77337e-07
-2.81312e-07
-2.81312e-07
-2.81312e-07
-2.81312e-07
-2.81312e-07
-2.81312e-07
-2.75999e-07
-2.74127e-07
-2.74543e-07
-2.7734e-07
-2.81312e-07
-2.81312e-07
-2.81312e-07
-2.81312e-07
-2.81312e-07
-2.81312e-07
-2.75718e-07
-2.74541e-07
-2.74699e-07
-2.77576e-07
-2.81312e-07
-2.81312e-07
-2.81312e-07
-2.81312e-07
-2.81312e-07
-2.81312e-07
-2.75749e-07
-2.76483e-07
-2.77249e-07
-2.81312e-07
-2.81312e-07
-2.81312e-07
-2.81312e-07
-2.81312e-07
-2.81312e-07
-2.75816e-07
-2.74147e-07
-2.74732e-07
-2.77327e-07
-2.81312e-07
-2.81312e-07
-2.81312e-07
-2.81312e-07
-2.75877e-07
-2.76172e-07
-2.742e-07
-2.74602e-07
-2.76532e-07
-2.76e-07
-2.75716e-07
-2.75748e-07
-2.75814e-07
-2.76173e-07
-2.74262e-07
-2.74128e-07
-2.74538e-07
-2.76479e-07
-2.74146e-07
-2.74197e-07
-2.9463e-07
-2.9478e-07
-2.94998e-07
-2.97414e-07
-2.97421e-07
-2.97654e-07
-2.97326e-07
-2.94811e-07
-2.94683e-07
-2.94989e-07
-2.98555e-07
-3.01393e-07
-3.01393e-07
-3.01393e-07
-3.01393e-07
-2.97402e-07
-2.96609e-07
-2.97417e-07
-3.01393e-07
-3.01393e-07
-3.01393e-07
-3.01393e-07
-3.01393e-07
-3.01393e-07
-2.9608e-07
-2.94208e-07
-2.94624e-07
-2.97421e-07
-3.01393e-07
-3.01393e-07
-3.01393e-07
-3.01393e-07
-3.01393e-07
-3.01393e-07
-2.95799e-07
-2.94621e-07
-2.9478e-07
-2.97656e-07
-3.01393e-07
-3.01393e-07
-3.01393e-07
-3.01393e-07
-3.01393e-07
-3.01393e-07
-2.9583e-07
-2.96563e-07
-2.97329e-07
-3.01393e-07
-3.01393e-07
-3.01393e-07
-3.01393e-07
-3.01393e-07
-3.01393e-07
-2.95897e-07
-2.94228e-07
-2.94813e-07
-2.97407e-07
-3.01393e-07
-3.01393e-07
-3.01393e-07
-3.01393e-07
-2.95958e-07
-2.96253e-07
-2.94281e-07
-2.94682e-07
-2.96613e-07
-2.96081e-07
-2.95797e-07
-2.95829e-07
-2.95894e-07
-2.96254e-07
-2.94343e-07
-2.94209e-07
-2.94618e-07
-2.9656e-07
-2.94226e-07
-2.94278e-07
-3.14711e-07
-3.14861e-07
-3.15078e-07
-3.17495e-07
-3.17501e-07
-3.17735e-07
-3.17407e-07
-3.14892e-07
-3.14764e-07
-3.1507e-07
-3.18636e-07
-3.21474e-07
-3.21473e-07
-3.21474e-07
-3.21474e-07
-3.17483e-07
-3.1669e-07
-3.17498e-07
-3.21474e-07
-3.21474e-07
-3.21474e-07
-3.21474e-07
-3.21474e-07
-3.21474e-07
-3.1616e-07
-3.14289e-07
-3.14705e-07
-3.17502e-07
-3.21474e-07
-3.21474e-07
-3.21474e-07
-3.21474e-07
-3.21474e-07
-3.21474e-07
-3.15879e-07
-3.14702e-07
-3.14861e-07
-3.17737e-07
-3.21474e-07
-3.21474e-07
-3.21474e-07
-3.21474e-07
-3.21474e-07
-3.21474e-07
-3.15911e-07
-3.16644e-07
-3.1741e-07
-3.21474e-07
-3.21474e-07
-3.21474e-07
-3.21474e-07
-3.21474e-07
-3.21474e-07
-3.15978e-07
-3.14308e-07
-3.14893e-07
-3.17488e-07
-3.21474e-07
-3.21474e-07
-3.21474e-07
-3.21474e-07
-3.16039e-07
-3.16334e-07
-3.14361e-07
-3.14763e-07
-3.16694e-07
-3.16162e-07
-3.15878e-07
-3.15911e-07
-3.15976e-07
-3.16335e-07
-3.14424e-07
-3.1429e-07
-3.14699e-07
-3.16644e-07
-3.14307e-07
-3.14358e-07
-3.34791e-07
-3.34941e-07
-3.35158e-07
-3.37574e-07
-3.37582e-07
-3.37815e-07
-3.37488e-07
-3.34973e-07
-3.34845e-07
-3.35151e-07
-3.38718e-07
-3.41554e-07
-3.41554e-07
-3.41554e-07
-3.41554e-07
-3.37564e-07
-3.36771e-07
-3.37579e-07
-3.41554e-07
-3.41554e-07
-3.41554e-07
-3.41554e-07
-3.41554e-07
-3.41554e-07
-3.36241e-07
-3.3437e-07
-3.34785e-07
-3.37583e-07
-3.41554e-07
-3.41554e-07
-3.41554e-07
-3.41554e-07
-3.41554e-07
-3.41554e-07
-3.3596e-07
-3.34783e-07
-3.34941e-07
-3.37818e-07
-3.41554e-07
-3.41554e-07
-3.41554e-07
-3.41554e-07
-3.41554e-07
-3.41554e-07
-3.35991e-07
-3.36725e-07
-3.37491e-07
-3.41554e-07
-3.41554e-07
-3.41554e-07
-3.41554e-07
-3.41554e-07
-3.41554e-07
-3.36058e-07
-3.34389e-07
-3.34974e-07
-3.37569e-07
-3.41554e-07
-3.41554e-07
-3.41554e-07
-3.41554e-07
-3.3612e-07
-3.36415e-07
-3.34442e-07
-3.34844e-07
-3.36774e-07
-3.36242e-07
-3.35958e-07
-3.3599e-07
-3.36055e-07
-3.36415e-07
-3.34504e-07
-3.3437e-07
-3.3478e-07
-3.36721e-07
-3.34388e-07
-3.34439e-07
-3.54872e-07
-3.55022e-07
-3.55239e-07
-3.57655e-07
-3.57662e-07
-3.57896e-07
-3.57568e-07
-3.55054e-07
-3.54926e-07
-3.55231e-07
-3.58798e-07
-3.61635e-07
-3.61635e-07
-3.61635e-07
-3.61635e-07
-3.57643e-07
-3.56851e-07
-3.57659e-07
-3.61635e-07
-3.61635e-07
-3.61634e-07
-3.61635e-07
-3.61635e-07
-3.61635e-07
-3.56321e-07
-3.5445e-07
-3.54866e-07
-3.57663e-07
-3.61635e-07
-3.61635e-07
-3.61635e-07
-3.61635e-07
-3.61635e-07
-3.61635e-07
-3.5604e-07
-3.54863e-07
-3.55022e-07
-3.57898e-07
-3.61635e-07
-3.61635e-07
-3.61635e-07
-3.61635e-07
-3.61635e-07
-3.61635e-07
-3.56072e-07
-3.56805e-07
-3.57571e-07
-3.61635e-07
-3.61635e-07
-3.61635e-07
-3.61635e-07
-3.61635e-07
-3.61635e-07
-3.56139e-07
-3.54469e-07
-3.55054e-07
-3.57649e-07
-3.61635e-07
-3.61635e-07
-3.61635e-07
-3.61635e-07
-3.562e-07
-3.56495e-07
-3.54522e-07
-3.54924e-07
-3.56855e-07
-3.56323e-07
-3.56039e-07
-3.56071e-07
-3.56136e-07
-3.56496e-07
-3.54585e-07
-3.54451e-07
-3.54861e-07
-3.56802e-07
-3.54468e-07
-3.5452e-07
-3.74953e-07
-3.75103e-07
-3.75319e-07
-3.77735e-07
-3.77743e-07
-3.77976e-07
-3.77648e-07
-3.75134e-07
-3.75006e-07
-3.75311e-07
-3.78878e-07
-3.81715e-07
-3.81715e-07
-3.81715e-07
-3.81715e-07
-3.77724e-07
-3.76931e-07
-3.7774e-07
-3.81716e-07
-3.81715e-07
-3.81715e-07
-3.81715e-07
-3.81715e-07
-3.81715e-07
-3.76402e-07
-3.7453e-07
-3.74947e-07
-3.77744e-07
-3.81715e-07
-3.81715e-07
-3.81715e-07
-3.81715e-07
-3.81715e-07
-3.81715e-07
-3.76121e-07
-3.74944e-07
-3.75102e-07
-3.77979e-07
-3.81715e-07
-3.81715e-07
-3.81715e-07
-3.81715e-07
-3.81715e-07
-3.81715e-07
-3.76152e-07
-3.76885e-07
-3.77652e-07
-3.81715e-07
-3.81715e-07
-3.81715e-07
-3.81715e-07
-3.81715e-07
-3.81715e-07
-3.76219e-07
-3.7455e-07
-3.75135e-07
-3.7773e-07
-3.81715e-07
-3.81715e-07
-3.81715e-07
-3.81715e-07
-3.76281e-07
-3.76575e-07
-3.74603e-07
-3.75005e-07
-3.76936e-07
-3.76404e-07
-3.76121e-07
-3.76153e-07
-3.76217e-07
-3.76577e-07
-3.74665e-07
-3.74532e-07
-3.74941e-07
-3.76883e-07
-3.74549e-07
-3.746e-07
-3.95034e-07
-3.95183e-07
-3.954e-07
-3.97817e-07
-3.97823e-07
-3.98056e-07
-3.97729e-07
-3.95214e-07
-3.95086e-07
-3.95392e-07
-3.98958e-07
-4.01795e-07
-4.01795e-07
-4.01795e-07
-4.01796e-07
-3.97805e-07
-3.97011e-07
-3.9782e-07
-4.01796e-07
-4.01796e-07
-4.01796e-07
-4.01795e-07
-4.01795e-07
-4.01795e-07
-3.96482e-07
-3.94611e-07
-3.95027e-07
-3.97824e-07
-4.01796e-07
-4.01796e-07
-4.01796e-07
-4.01796e-07
-4.01795e-07
-4.01795e-07
-3.96201e-07
-3.95024e-07
-3.95183e-07
-3.98059e-07
-4.01796e-07
-4.01796e-07
-4.01796e-07
-4.01796e-07
-4.01795e-07
-4.01795e-07
-3.96233e-07
-3.96966e-07
-3.97732e-07
-4.01796e-07
-4.01796e-07
-4.01796e-07
-4.01796e-07
-4.01796e-07
-4.01796e-07
-3.963e-07
-3.9463e-07
-3.95215e-07
-3.9781e-07
-4.01796e-07
-4.01796e-07
-4.01796e-07
-4.01796e-07
-3.96362e-07
-3.96656e-07
-3.94684e-07
-3.95085e-07
-3.97016e-07
-3.96484e-07
-3.96201e-07
-3.96232e-07
-3.96297e-07
-3.96657e-07
-3.94746e-07
-3.94612e-07
-3.95022e-07
-3.96964e-07
-3.9463e-07
-3.94681e-07
-4.15114e-07
-4.15263e-07
-4.1548e-07
-4.17897e-07
-4.17904e-07
-4.18136e-07
-4.17809e-07
-4.15294e-07
-4.15165e-07
-4.15472e-07
-4.19038e-07
-4.21875e-07
-4.21875e-07
-4.21876e-07
-4.21876e-07
-4.17885e-07
-4.17092e-07
-4.179e-07
-4.21875e-07
-4.21876e-07
-4.21876e-07
-4.21876e-07
-4.21876e-07
-4.21876e-07
-4.16562e-07
-4.14691e-07
-4.15107e-07
-4.17904e-07
-4.21876e-07
-4.21876e-07
-4.21876e-07
-4.21876e-07
-4.21876e-07
-4.21876e-07
-4.16281e-07
-4.15105e-07
-4.15263e-07
-4.18139e-07
-4.21876e-07
-4.21876e-07
-4.21876e-07
-4.21876e-07
-4.21876e-07
-4.21876e-07
-4.16313e-07
-4.17046e-07
-4.17812e-07
-4.21876e-07
-4.21876e-07
-4.21876e-07
-4.21876e-07
-4.21876e-07
-4.21876e-07
-4.1638e-07
-4.14711e-07
-4.15295e-07
-4.1789e-07
-4.21876e-07
-4.21876e-07
-4.21876e-07
-4.21876e-07
-4.16442e-07
-4.16736e-07
-4.14764e-07
-4.15165e-07
-4.17096e-07
-4.16564e-07
-4.16281e-07
-4.16312e-07
-4.16377e-07
-4.16737e-07
-4.14826e-07
-4.14692e-07
-4.15102e-07
-4.17044e-07
-4.1471e-07
-4.14762e-07
-4.35193e-07
-4.35343e-07
-4.3556e-07
-4.37977e-07
-4.37984e-07
-4.38217e-07
-4.37889e-07
-4.35374e-07
-4.35245e-07
-4.35552e-07
-4.39119e-07
-4.41956e-07
-4.41956e-07
-4.41956e-07
-4.41956e-07
-4.37965e-07
-4.37172e-07
-4.3798e-07
-4.41956e-07
-4.41956e-07
-4.41956e-07
-4.41956e-07
-4.41956e-07
-4.41956e-07
-4.36643e-07
-4.34771e-07
-4.35187e-07
-4.37984e-07
-4.41956e-07
-4.41956e-07
-4.41956e-07
-4.41956e-07
-4.41956e-07
-4.41956e-07
-4.36362e-07
-4.35185e-07
-4.35343e-07
-4.38219e-07
-4.41956e-07
-4.41956e-07
-4.41956e-07
-4.41956e-07
-4.41956e-07
-4.41956e-07
-4.36393e-07
-4.37126e-07
-4.37892e-07
-4.41956e-07
-4.41956e-07
-4.41956e-07
-4.41956e-07
-4.41956e-07
-4.41956e-07
-4.3646e-07
-4.34791e-07
-4.35376e-07
-4.37971e-07
-4.41956e-07
-4.41956e-07
-4.41956e-07
-4.41956e-07
-4.36522e-07
-4.36816e-07
-4.34844e-07
-4.35246e-07
-4.37176e-07
-4.36644e-07
-4.36361e-07
-4.36393e-07
-4.36457e-07
-4.36817e-07
-4.34906e-07
-4.34772e-07
-4.35182e-07
-4.37124e-07
-4.3479e-07
-4.34842e-07
-4.55274e-07
-4.55424e-07
-4.55641e-07
-4.58058e-07
-4.58064e-07
-4.58297e-07
-4.5797e-07
-4.55455e-07
-4.55326e-07
-4.55633e-07
-4.59199e-07
-4.62037e-07
-4.62037e-07
-4.62037e-07
-4.62037e-07
-4.58046e-07
-4.57253e-07
-4.58061e-07
-4.62037e-07
-4.62037e-07
-4.62037e-07
-4.62037e-07
-4.62037e-07
-4.62037e-07
-4.56723e-07
-4.54852e-07
-4.55268e-07
-4.58065e-07
-4.62037e-07
-4.62037e-07
-4.62037e-07
-4.62037e-07
-4.62037e-07
-4.62037e-07
-4.56442e-07
-4.55266e-07
-4.55424e-07
-4.583e-07
-4.62037e-07
-4.62037e-07
-4.62037e-07
-4.62037e-07
-4.62037e-07
-4.62037e-07
-4.56474e-07
-4.57207e-07
-4.57973e-07
-4.62037e-07
-4.62037e-07
-4.62037e-07
-4.62037e-07
-4.62037e-07
-4.62037e-07
-4.56541e-07
-4.54871e-07
-4.55456e-07
-4.58051e-07
-4.62037e-07
-4.62037e-07
-4.62037e-07
-4.62037e-07
-4.56602e-07
-4.56897e-07
-4.54925e-07
-4.55326e-07
-4.57256e-07
-4.56725e-07
-4.56441e-07
-4.56473e-07
-4.56538e-07
-4.56898e-07
-4.54987e-07
-4.54853e-07
-4.55263e-07
-4.57205e-07
-4.54871e-07
-4.54922e-07
-4.75355e-07
-4.75504e-07
-4.75721e-07
-4.78138e-07
-4.78145e-07
-4.78378e-07
-4.7805e-07
-4.75534e-07
-4.75406e-07
-4.75713e-07
-4.7928e-07
-4.82117e-07
-4.82117e-07
-4.82117e-07
-4.82117e-07
-4.78127e-07
-4.77333e-07
-4.78142e-07
-4.82117e-07
-4.82117e-07
-4.82117e-07
-4.82117e-07
-4.82117e-07
-4.82117e-07
-4.76804e-07
-4.74932e-07
-4.75349e-07
-4.78145e-07
-4.82117e-07
-4.82117e-07
-4.82117e-07
-4.82117e-07
-4.82117e-07
-4.82117e-07
-4.76523e-07
-4.75346e-07
-4.75504e-07
-4.78381e-07
-4.82117e-07
-4.82117e-07
-4.82117e-07
-4.82117e-07
-4.82117e-07
-4.82117e-07
-4.76554e-07
-4.77288e-07
-4.78054e-07
-4.82117e-07
-4.82117e-07
-4.82117e-07
-4.82117e-07
-4.82117e-07
-4.82117e-07
-4.76621e-07
-4.74952e-07
-4.75537e-07
-4.78132e-07
-4.82117e-07
-4.82117e-07
-4.82117e-07
-4.82117e-07
-4.76683e-07
-4.76977e-07
-4.75005e-07
-4.75407e-07
-4.77337e-07
-4.76805e-07
-4.76522e-07
-4.76554e-07
-4.76618e-07
-4.76979e-07
-4.75067e-07
-4.74933e-07
-4.75343e-07
-4.77285e-07
-4.74951e-07
-4.75003e-07
-4.95436e-07
-4.95585e-07
-4.95802e-07
-4.98219e-07
-4.98226e-07
-4.98458e-07
-4.98131e-07
-4.95615e-07
-4.95488e-07
-4.95794e-07
-4.99361e-07
-5.02198e-07
-5.02198e-07
-5.02198e-07
-5.02198e-07
-4.98207e-07
-4.97414e-07
-4.98222e-07
-5.02198e-07
-5.02198e-07
-5.02198e-07
-5.02198e-07
-5.02198e-07
-5.02198e-07
-4.96884e-07
-4.95013e-07
-4.95429e-07
-4.98226e-07
-5.02198e-07
-5.02198e-07
-5.02198e-07
-5.02198e-07
-5.02198e-07
-5.02198e-07
-4.96603e-07
-4.95427e-07
-4.95585e-07
-4.98461e-07
-5.02198e-07
-5.02198e-07
-5.02198e-07
-5.02198e-07
-5.02198e-07
-5.02198e-07
-4.96635e-07
-4.97368e-07
-4.98134e-07
-5.02198e-07
-5.02198e-07
-5.02198e-07
-5.02198e-07
-5.02198e-07
-5.02198e-07
-4.96702e-07
-4.95032e-07
-4.95617e-07
-4.98212e-07
-5.02198e-07
-5.02198e-07
-5.02198e-07
-5.02198e-07
-4.96764e-07
-4.97058e-07
-4.95086e-07
-4.95487e-07
-4.97418e-07
-4.96886e-07
-4.96602e-07
-4.96634e-07
-4.96699e-07
-4.97059e-07
-4.95148e-07
-4.95014e-07
-4.95424e-07
-4.97366e-07
-4.95032e-07
-4.95083e-07
-5.15516e-07
-5.15666e-07
-5.15883e-07
-5.18299e-07
-5.18308e-07
-5.18539e-07
-5.18212e-07
-5.15695e-07
-5.15568e-07
-5.15874e-07
-5.19442e-07
-5.22279e-07
-5.22279e-07
-5.22279e-07
-5.22279e-07
-5.18288e-07
-5.17494e-07
-5.18302e-07
-5.22278e-07
-5.22279e-07
-5.22279e-07
-5.22279e-07
-5.22279e-07
-5.22279e-07
-5.16965e-07
-5.15093e-07
-5.1551e-07
-5.18306e-07
-5.22279e-07
-5.22279e-07
-5.22279e-07
-5.22279e-07
-5.22279e-07
-5.22279e-07
-5.16684e-07
-5.15508e-07
-5.15665e-07
-5.18542e-07
-5.22279e-07
-5.22279e-07
-5.22279e-07
-5.22279e-07
-5.22279e-07
-5.22279e-07
-5.16716e-07
-5.17449e-07
-5.18215e-07
-5.22279e-07
-5.22279e-07
-5.22279e-07
-5.22279e-07
-5.22279e-07
-5.22279e-07
-5.16783e-07
-5.15113e-07
-5.15698e-07
-5.18293e-07
-5.22279e-07
-5.22279e-07
-5.22279e-07
-5.22279e-07
-5.16844e-07
-5.17139e-07
-5.15167e-07
-5.15568e-07
-5.17498e-07
-5.16967e-07
-5.16683e-07
-5.16715e-07
-5.1678e-07
-5.1714e-07
-5.15228e-07
-5.15095e-07
-5.15505e-07
-5.17447e-07
-5.15112e-07
-5.15164e-07
-5.35597e-07
-5.35747e-07
-5.35962e-07
-5.3838e-07
-5.38389e-07
-5.3862e-07
-5.38293e-07
-5.35775e-07
-5.35648e-07
-5.35955e-07
-5.39522e-07
-5.42359e-07
-5.42359e-07
-5.42359e-07
-5.42359e-07
-5.38369e-07
-5.37575e-07
-5.38384e-07
-5.42359e-07
-5.42359e-07
-5.42359e-07
-5.42359e-07
-5.42359e-07
-5.42359e-07
-5.37046e-07
-5.35174e-07
-5.35591e-07
-5.38387e-07
-5.42359e-07
-5.42359e-07
-5.42359e-07
-5.42359e-07
-5.42359e-07
-5.42359e-07
-5.36765e-07
-5.35588e-07
-5.35746e-07
-5.38623e-07
-5.42359e-07
-5.42359e-07
-5.42359e-07
-5.42359e-07
-5.42359e-07
-5.42359e-07
-5.36796e-07
-5.3753e-07
-5.38296e-07
-5.42359e-07
-5.42359e-07
-5.42359e-07
-5.42359e-07
-5.42359e-07
-5.42359e-07
-5.36863e-07
-5.35194e-07
-5.35779e-07
-5.38374e-07
-5.42359e-07
-5.42359e-07
-5.42359e-07
-5.42359e-07
-5.36925e-07
-5.37219e-07
-5.35247e-07
-5.35649e-07
-5.37579e-07
-5.37047e-07
-5.36764e-07
-5.36795e-07
-5.3686e-07
-5.3722e-07
-5.35309e-07
-5.35175e-07
-5.35585e-07
-5.37527e-07
-5.35193e-07
-5.35245e-07
-5.55678e-07
-5.55827e-07
-5.56043e-07
-5.5846e-07
-5.58469e-07
-5.58701e-07
-5.58373e-07
-5.55856e-07
-5.55729e-07
-5.56035e-07
-5.59603e-07
-5.6244e-07
-5.6244e-07
-5.6244e-07
-5.6244e-07
-5.58449e-07
-5.57656e-07
-5.58464e-07
-5.6244e-07
-5.6244e-07
-5.6244e-07
-5.6244e-07
-5.6244e-07
-5.6244e-07
-5.57126e-07
-5.55255e-07
-5.55671e-07
-5.58467e-07
-5.6244e-07
-5.6244e-07
-5.6244e-07
-5.6244e-07
-5.6244e-07
-5.6244e-07
-5.56845e-07
-5.55669e-07
-5.55827e-07
-5.58703e-07
-5.6244e-07
-5.6244e-07
-5.6244e-07
-5.6244e-07
-5.6244e-07
-5.6244e-07
-5.56877e-07
-5.5761e-07
-5.58376e-07
-5.6244e-07
-5.6244e-07
-5.6244e-07
-5.6244e-07
-5.6244e-07
-5.6244e-07
-5.56944e-07
-5.55274e-07
-5.55859e-07
-5.58454e-07
-5.6244e-07
-5.6244e-07
-5.6244e-07
-5.6244e-07
-5.57005e-07
-5.573e-07
-5.55328e-07
-5.55729e-07
-5.5766e-07
-5.57128e-07
-5.56844e-07
-5.56876e-07
-5.56941e-07
-5.57301e-07
-5.55389e-07
-5.55256e-07
-5.55666e-07
-5.57608e-07
-5.55274e-07
-5.55325e-07
-5.75759e-07
-5.75908e-07
-5.76125e-07
-5.78542e-07
-5.78551e-07
-5.78782e-07
-5.78455e-07
-5.75937e-07
-5.7581e-07
-5.76117e-07
-5.79684e-07
-5.82522e-07
-5.82521e-07
-5.82522e-07
-5.82522e-07
-5.78532e-07
-5.77738e-07
-5.78546e-07
-5.82521e-07
-5.82521e-07
-5.82521e-07
-5.82521e-07
-5.82521e-07
-5.82521e-07
-5.77208e-07
-5.75336e-07
-5.75753e-07
-5.78549e-07
-5.82521e-07
-5.82522e-07
-5.82522e-07
-5.82522e-07
-5.82521e-07
-5.82521e-07
-5.76926e-07
-5.7575e-07
-5.75908e-07
-5.78785e-07
-5.82521e-07
-5.82521e-07
-5.82521e-07
-5.82521e-07
-5.82521e-07
-5.82521e-07
-5.76958e-07
-5.77692e-07
-5.78458e-07
-5.82521e-07
-5.82521e-07
-5.82521e-07
-5.82521e-07
-5.82521e-07
-5.82521e-07
-5.77025e-07
-5.75356e-07
-5.75941e-07
-5.78536e-07
-5.82521e-07
-5.82521e-07
-5.82521e-07
-5.82521e-07
-5.77087e-07
-5.77382e-07
-5.75409e-07
-5.75811e-07
-5.77741e-07
-5.77209e-07
-5.76926e-07
-5.76958e-07
-5.77022e-07
-5.77383e-07
-5.75471e-07
-5.75337e-07
-5.75747e-07
-5.77689e-07
-5.75355e-07
-5.75407e-07
-5.9584e-07
-5.9599e-07
-5.96205e-07
-5.98623e-07
-5.98631e-07
-5.98863e-07
-5.98535e-07
-5.96018e-07
-5.95891e-07
-5.96198e-07
-5.99765e-07
-6.02602e-07
-6.02602e-07
-6.02602e-07
-6.02602e-07
-5.98612e-07
-5.97818e-07
-5.98627e-07
-6.02602e-07
-6.02602e-07
-6.02602e-07
-6.02602e-07
-6.02602e-07
-6.02602e-07
-5.97289e-07
-5.95416e-07
-5.95834e-07
-5.9863e-07
-6.02602e-07
-6.02602e-07
-6.02602e-07
-6.02602e-07