/*--------------------------------*- C++ -*----------------------------------*\
| =========                 |                                                 |
| \\      /  F ield         | OpenFOAM: The Open Source CFD Toolbox           |
|  \\    /   O peration     | Version:  v1906                                 |
|   \\  /    A nd           | Web:      www.OpenFOAM.com                      |
|    \\/     M anipulation  |                                                 |
\*---------------------------------------------------------------------------*/
FoamFile
{
    version     2.0;
    format      ascii;
    class       volScalarField;
    location    "350";
    object      epsilon;
}
// * * * * * * * * * * * * * * * * * * * * * * * * * * * * * * * * * * * * * //

dimensions      [0 2 -3 0 0 0 0];


internalField   nonuniform List<scalar> 
42616
(
4.95569e-07
4.97402e-07
4.97405e-07
4.99624e-07
4.45581e-07
4.53874e-07
4.53876e-07
4.63942e-07
4.03771e-07
4.18662e-07
4.18668e-07
4.39603e-07
3.68387e-07
3.88672e-07
3.88682e-07
4.17689e-07
3.38037e-07
3.62172e-07
3.62185e-07
3.95942e-07
3.11661e-07
3.38286e-07
3.38301e-07
3.74283e-07
2.88477e-07
3.166e-07
3.16613e-07
3.53314e-07
2.67913e-07
2.96936e-07
2.96943e-07
3.3365e-07
2.49553e-07
2.79238e-07
2.79243e-07
3.15997e-07
2.33094e-07
2.63505e-07
2.63511e-07
3.00585e-07
2.18307e-07
2.49745e-07
2.49753e-07
2.87882e-07
2.05017e-07
2.37953e-07
2.37966e-07
2.7781e-07
1.93084e-07
2.28131e-07
2.28148e-07
2.71088e-07
1.82396e-07
2.20288e-07
2.20307e-07
2.67468e-07
1.72863e-07
2.14421e-07
2.14439e-07
2.66947e-07
1.6441e-07
2.10547e-07
2.10564e-07
2.6975e-07
1.56973e-07
2.08671e-07
2.08687e-07
2.75899e-07
1.50501e-07
2.08799e-07
2.0882e-07
2.85708e-07
1.44949e-07
2.1099e-07
2.11015e-07
2.98617e-07
1.40281e-07
2.15254e-07
2.15286e-07
3.14748e-07
1.36468e-07
2.21609e-07
2.21652e-07
3.34305e-07
5.06391e-07
5.05556e-07
5.05556e-07
5.06407e-07
5.05554e-07
5.05555e-07
5.09644e-07
5.09644e-07
5.09644e-07
5.09644e-07
5.05553e-07
5.0555e-07
5.06408e-07
5.05554e-07
5.05548e-07
5.06405e-07
4.99627e-07
4.67402e-07
4.97405e-07
4.97403e-07
4.6384e-07
4.63857e-07
4.99619e-07
4.67413e-07
4.97408e-07
4.97405e-07
4.63842e-07
4.63847e-07
4.97402e-07
4.63833e-07
4.63855e-07
4.99629e-07
4.67411e-07
4.97408e-07
4.63834e-07
4.63854e-07
4.67436e-07
4.63907e-07
4.41554e-07
4.53884e-07
4.53904e-07
4.26895e-07
4.2692e-07
4.63921e-07
4.41569e-07
4.53885e-07
4.53894e-07
4.2689e-07
4.26908e-07
4.53906e-07
4.26881e-07
4.26926e-07
4.63917e-07
4.41571e-07
4.53903e-07
4.26887e-07
4.26921e-07
4.41608e-07
4.39549e-07
4.1932e-07
4.18677e-07
4.18704e-07
3.95814e-07
3.9584e-07
4.39568e-07
4.1931e-07
4.18673e-07
4.1869e-07
3.95806e-07
3.95824e-07
4.1871e-07
3.95795e-07
3.95843e-07
4.39569e-07
4.19308e-07
4.18704e-07
3.95804e-07
3.95835e-07
4.19356e-07
4.17658e-07
3.97584e-07
3.88694e-07
3.88718e-07
3.68554e-07
3.68568e-07
4.1766e-07
3.97494e-07
3.88685e-07
3.88703e-07
3.68543e-07
3.68558e-07
3.88719e-07
3.68529e-07
3.68571e-07
4.17687e-07
3.97509e-07
3.88712e-07
3.68542e-07
3.68561e-07
3.97567e-07
3.959e-07
3.75936e-07
3.62199e-07
3.6221e-07
3.44072e-07
3.44073e-07
3.95962e-07
3.75783e-07
3.62188e-07
3.62203e-07
3.44059e-07
3.44074e-07
3.62213e-07
3.44042e-07
3.44079e-07
3.95964e-07
3.75808e-07
3.62202e-07
3.44057e-07
3.44065e-07
3.75901e-07
3.74269e-07
3.54894e-07
3.38319e-07
3.38316e-07
3.21862e-07
3.21852e-07
3.74362e-07
3.54706e-07
3.38304e-07
3.3832e-07
3.21846e-07
3.21862e-07
3.38322e-07
3.21829e-07
3.21858e-07
3.74357e-07
3.54877e-07
3.38307e-07
3.21843e-07
3.21841e-07
3.54816e-07
3.53289e-07
3.34955e-07
3.16634e-07
3.16621e-07
3.01699e-07
3.01684e-07
3.53412e-07
3.34894e-07
3.16617e-07
3.16633e-07
3.01683e-07
3.01695e-07
3.16627e-07
3.01668e-07
3.01687e-07
3.53257e-07
3.35076e-07
3.1661e-07
3.01676e-07
3.01669e-07
3.35068e-07
3.33851e-07
3.16957e-07
2.96967e-07
2.96952e-07
2.83506e-07
2.83494e-07
3.33779e-07
3.17107e-07
2.96952e-07
2.96964e-07
2.83492e-07
2.83504e-07
2.96955e-07
2.83478e-07
2.83498e-07
3.33633e-07
3.1697e-07
2.96937e-07
2.83484e-07
2.83477e-07
3.16999e-07
3.16068e-07
3.01466e-07
2.79264e-07
2.79253e-07
2.67275e-07
2.67272e-07
3.15894e-07
3.01406e-07
2.7925e-07
2.79262e-07
2.67265e-07
2.67277e-07
2.79258e-07
2.67254e-07
2.67276e-07
3.16104e-07
3.01278e-07
2.79236e-07
2.67259e-07
2.67252e-07
3.01322e-07
3.00473e-07
2.88291e-07
2.63525e-07
2.63524e-07
2.5302e-07
2.53026e-07
3.00449e-07
2.88269e-07
2.63515e-07
2.63529e-07
2.53011e-07
2.53027e-07
2.63529e-07
2.53002e-07
2.5303e-07
3.00652e-07
2.88455e-07
2.63504e-07
2.53009e-07
2.53002e-07
2.88271e-07
2.87886e-07
2.78011e-07
2.49764e-07
2.4977e-07
2.40737e-07
2.40747e-07
2.87869e-07
2.78e-07
2.49755e-07
2.49771e-07
2.40727e-07
2.40747e-07
2.49775e-07
2.40717e-07
2.40752e-07
2.87644e-07
2.78171e-07
2.49748e-07
2.40728e-07
2.40723e-07
2.78175e-07
2.77915e-07
2.71131e-07
2.37974e-07
2.37983e-07
2.30426e-07
2.30435e-07
2.77911e-07
2.71072e-07
2.37963e-07
2.37983e-07
2.30411e-07
2.30435e-07
2.37988e-07
2.304e-07
2.30438e-07
2.77849e-07
2.7125e-07
2.3796e-07
2.30415e-07
2.30411e-07
2.71215e-07
2.71082e-07
2.67241e-07
2.28158e-07
2.28167e-07
2.22092e-07
2.22099e-07
2.71267e-07
2.672e-07
2.28142e-07
2.28168e-07
2.22073e-07
2.22102e-07
2.28172e-07
2.22059e-07
2.22102e-07
2.71127e-07
2.67289e-07
2.28143e-07
2.22079e-07
2.22072e-07
2.67255e-07
2.67502e-07
2.66302e-07
2.2032e-07
2.20328e-07
2.1573e-07
2.15739e-07
2.67482e-07
2.66272e-07
2.20299e-07
2.20331e-07
2.15706e-07
2.15743e-07
2.20331e-07
2.15693e-07
2.15741e-07
2.6754e-07
2.66333e-07
2.20301e-07
2.15712e-07
2.15707e-07
2.66299e-07
2.66939e-07
2.68418e-07
2.14459e-07
2.14468e-07
2.11358e-07
2.11368e-07
2.66931e-07
2.68386e-07
2.14434e-07
2.14473e-07
2.11332e-07
2.11373e-07
2.14469e-07
2.11316e-07
2.11366e-07
2.66962e-07
2.68443e-07
2.14434e-07
2.11333e-07
2.11331e-07
2.68431e-07
2.69736e-07
2.73854e-07
2.10591e-07
2.10601e-07
2.08977e-07
2.08984e-07
2.69724e-07
2.73858e-07
2.10564e-07
2.10605e-07
2.08948e-07
2.08997e-07
2.10599e-07
2.0893e-07
2.0898e-07
2.69749e-07
2.73856e-07
2.10561e-07
2.08944e-07
2.08946e-07
2.73843e-07
2.75872e-07
2.82579e-07
2.08719e-07
2.08726e-07
2.08652e-07
2.0865e-07
2.75821e-07
2.82849e-07
2.08692e-07
2.08738e-07
2.0862e-07
2.08675e-07
2.08723e-07
2.08592e-07
2.08644e-07
2.75884e-07
2.82484e-07
2.08686e-07
2.08608e-07
2.08614e-07
2.82353e-07
2.85403e-07
2.9468e-07
2.08852e-07
2.08853e-07
2.10313e-07
2.103e-07
2.85195e-07
2.94983e-07
2.08823e-07
2.0888e-07
2.10269e-07
2.10338e-07
2.08859e-07
2.10245e-07
2.10307e-07
2.85533e-07
2.94716e-07
2.08819e-07
2.10269e-07
2.10273e-07
2.94487e-07
2.98315e-07
3.10241e-07
2.11055e-07
2.11051e-07
2.1407e-07
2.14054e-07
2.98058e-07
3.10466e-07
2.11026e-07
2.11087e-07
2.14023e-07
2.14092e-07
2.11054e-07
2.13991e-07
2.14061e-07
2.98255e-07
3.10184e-07
2.11018e-07
2.14019e-07
2.14024e-07
3.10114e-07
3.14653e-07
3.29029e-07
2.15324e-07
2.15324e-07
2.19916e-07
2.19904e-07
3.1436e-07
3.29584e-07
2.15303e-07
2.15364e-07
2.19865e-07
2.19946e-07
2.15325e-07
2.19827e-07
2.19907e-07
3.14726e-07
3.29471e-07
2.15285e-07
2.19864e-07
2.19864e-07
3.29055e-07
3.34436e-07
2.21681e-07
2.21693e-07
3.33847e-07
2.21671e-07
2.21738e-07
2.21689e-07
3.3445e-07
2.21644e-07
5.35663e-07
5.35602e-07
5.35656e-07
5.35656e-07
5.34552e-07
5.35515e-07
5.33357e-07
5.35656e-07
5.34597e-07
5.35515e-07
5.35656e-07
5.32873e-07
5.35246e-07
5.35407e-07
5.36301e-07
1.10558e-06
3.85354e-06
9.38395e-07
4.59225e-06
1.26339e-05
1.66782e-05
1.10541e-06
3.8544e-06
9.38292e-07
4.593e-06
4.95569e-07
4.95569e-07
4.95569e-07
4.57236e-07
4.57236e-07
4.57236e-07
4.57236e-07
5.43352e-07
1.22289e-06
4.95576e-07
4.85578e-07
5.25937e-07
1.21606e-06
4.82309e-07
1.26485e-05
1.66651e-05
5.43516e-07
4.95578e-07
1.22704e-06
4.8558e-07
5.26147e-07
4.82313e-07
1.2155e-06
2.53095e-06
2.53849e-06
4.84296e-07
2.3788e-06
2.38386e-06
1.42756e-06
5.58475e-06
1.32984e-06
6.13402e-06
2.13246e-05
2.31481e-05
1.42775e-06
5.58526e-06
1.3296e-06
6.1342e-06
4.45582e-07
4.45582e-07
4.45583e-07
4.13559e-07
4.1356e-07
4.1356e-07
4.13564e-07
5.87257e-07
1.20045e-06
4.46464e-07
4.44437e-07
5.74229e-07
1.21003e-06
4.35728e-07
2.13272e-05
2.31553e-05
5.87359e-07
4.46472e-07
1.20049e-06
4.44441e-07
5.74357e-07
4.35737e-07
1.20893e-06
2.30582e-06
2.30583e-06
4.53702e-07
2.34475e-06
2.3451e-06
1.6586e-06
6.91569e-06
1.59187e-06
7.32307e-06
2.465e-05
2.49424e-05
1.65924e-06
6.91715e-06
1.59181e-06
7.32419e-06
4.03772e-07
4.03772e-07
4.03776e-07
3.76713e-07
3.76714e-07
3.76714e-07
3.76719e-07
6.15197e-07
1.24736e-06
4.06598e-07
4.10765e-07
6.08244e-07
1.27142e-06
3.97784e-07
2.4653e-05
2.49463e-05
6.15251e-07
4.06606e-07
1.24835e-06
4.10771e-07
6.08303e-07
3.97793e-07
1.27039e-06
2.4615e-06
2.46291e-06
4.30308e-07
2.52169e-06
2.52189e-06
1.8071e-06
7.84648e-06
1.76807e-06
8.10286e-06
2.47338e-05
2.44318e-05
1.80819e-06
7.84735e-06
1.76717e-06
8.10423e-06
3.68389e-07
3.68389e-07
3.68394e-07
3.45216e-07
3.45218e-07
3.45218e-07
3.45223e-07
6.25702e-07
1.31742e-06
3.73537e-07
3.81767e-07
6.24464e-07
1.33946e-06
3.66086e-07
2.47378e-05
2.44347e-05
6.25724e-07
3.73545e-07
1.31775e-06
3.81778e-07
6.24338e-07
3.66096e-07
1.33964e-06
2.62566e-06
2.62537e-06
4.08482e-07
2.67016e-06
2.67225e-06
1.88835e-06
8.39456e-06
1.86982e-06
8.53113e-06
2.36822e-05
2.32662e-05
1.88992e-06
8.39579e-06
1.86852e-06
8.53261e-06
3.38038e-07
3.38039e-07
3.38044e-07
3.1793e-07
3.17929e-07
3.17931e-07
3.17935e-07
6.2139e-07
1.37604e-06
3.45288e-07
3.55979e-07
6.24594e-07
1.39237e-06
3.38809e-07
2.36846e-05
2.32697e-05
6.21391e-07
3.45295e-07
1.37623e-06
3.55993e-07
6.24649e-07
3.38817e-07
1.39267e-06
2.7579e-06
2.75771e-06
3.86688e-07
2.80206e-06
2.80359e-06
1.92603e-06
8.66148e-06
1.9192e-06
8.71765e-06
2.24951e-05
2.21242e-05
1.92643e-06
8.66286e-06
1.91793e-06
8.71912e-06
3.11661e-07
3.11663e-07
3.11666e-07
2.94008e-07
2.94006e-07
2.94009e-07
2.94011e-07
6.07929e-07
1.41977e-06
3.20519e-07
3.3267e-07
6.141e-07
1.43117e-06
3.14766e-07
2.24969e-05
2.21272e-05
6.07984e-07
3.20525e-07
1.42052e-06
3.32686e-07
6.14193e-07
3.14774e-07
1.4322e-06
2.89366e-06
2.89347e-06
3.65254e-07
2.94376e-06
2.94531e-06
1.94387e-06
8.75764e-06
1.94017e-06
8.76823e-06
2.14743e-05
2.11831e-05
1.9444e-06
8.75936e-06
1.94027e-06
8.77005e-06
2.88474e-07
2.88478e-07
2.88479e-07
2.72833e-07
2.7283e-07
2.72834e-07
2.72833e-07
5.90791e-07
1.45518e-06
2.98411e-07
3.115e-07
5.97944e-07
1.46717e-06
2.93237e-07
2.1476e-05
2.11855e-05
5.90546e-07
2.98416e-07
1.45638e-06
3.11512e-07
5.98046e-07
2.93243e-07
1.46711e-06
3.05055e-06
3.0499e-06
3.44764e-07
3.10634e-06
3.1091e-06
1.96183e-06
8.76532e-06
1.95636e-06
8.75971e-06
2.06743e-05
2.04554e-05
1.96278e-06
8.7672e-06
1.95651e-06
8.76161e-06
2.67909e-07
2.67913e-07
2.67912e-07
2.53955e-07
2.53951e-07
2.53955e-07
2.53954e-07
5.74116e-07
1.49333e-06
2.78476e-07
2.92328e-07
5.80848e-07
1.50887e-06
2.73794e-07
2.06763e-05
2.04569e-05
5.74283e-07
2.78476e-07
1.49338e-06
2.92336e-07
5.81148e-07
2.73795e-07
1.50904e-06
3.2293e-06
3.23018e-06
3.2586e-07
3.29191e-06
3.29213e-06
1.99297e-06
8.74566e-06
1.98205e-06
8.73898e-06
2.00738e-05
1.99135e-05
1.99448e-06
8.74774e-06
1.98171e-06
8.74101e-06
2.4955e-07
2.49554e-07
2.49553e-07
2.37044e-07
2.37041e-07
2.37045e-07
2.37044e-07
5.6153e-07
1.54166e-06
2.60424e-07
2.7512e-07
5.66777e-07
1.56137e-06
2.56183e-07
2.00764e-05
1.99146e-05
5.61664e-07
2.6042e-07
1.54176e-06
2.75125e-07
5.66356e-07
2.56181e-07
1.5613e-06
3.4262e-06
3.42748e-06
3.08893e-07
3.49273e-06
3.49332e-06
2.04323e-06
8.72974e-06
2.02615e-06
8.72798e-06
1.96352e-05
1.9519e-05
2.04533e-06
8.73177e-06
2.02469e-06
8.73012e-06
2.33092e-07
2.33095e-07
2.33094e-07
2.21857e-07
2.21856e-07
2.21858e-07
2.21858e-07
5.55578e-07
1.6028e-06
2.44082e-07
2.59881e-07
5.57664e-07
1.62751e-06
2.4025e-07
1.96361e-05
1.95205e-05
5.55636e-07
2.44077e-07
1.60405e-06
2.59887e-07
5.57548e-07
2.40248e-07
1.62517e-06
3.63346e-06
3.63472e-06
2.945e-07
3.70121e-06
3.70239e-06
2.11747e-06
8.72774e-06
2.09234e-06
8.73111e-06
1.93198e-05
1.9241e-05
2.11985e-06
8.72988e-06
2.09069e-06
8.73303e-06
2.18306e-07
2.18309e-07
2.18309e-07
2.08206e-07
2.08206e-07
2.08209e-07
2.08209e-07
5.56858e-07
1.67823e-06
2.29338e-07
2.46614e-07
5.56029e-07
1.70773e-06
2.25892e-07
1.93237e-05
1.92406e-05
5.56882e-07
2.29335e-07
1.68007e-06
2.46623e-07
5.55989e-07
2.25892e-07
1.70589e-06
3.84276e-06
3.84394e-06
2.82844e-07
3.9109e-06
3.91085e-06
2.21914e-06
8.7375e-06
2.18223e-06
8.7459e-06
1.90989e-05
1.90456e-05
2.21959e-06
8.74033e-06
2.182e-06
8.74725e-06
2.05016e-07
2.0502e-07
2.0502e-07
1.95945e-07
1.95945e-07
1.95948e-07
1.95949e-07
5.6666e-07
1.76696e-06
2.16115e-07
2.35312e-07
5.62377e-07
1.80074e-06
2.13041e-07
1.91031e-05
1.90449e-05
5.66687e-07
2.16114e-07
1.769e-06
2.35325e-07
5.62346e-07
2.13043e-07
1.79908e-06
4.04509e-06
4.04657e-06
2.74302e-07
4.11089e-06
4.1124e-06
2.34364e-06
8.75661e-06
2.29917e-06
8.76665e-06
1.89453e-05
1.89099e-05
2.34483e-06
8.75927e-06
2.29827e-06
8.76792e-06
1.93084e-07
1.93087e-07
1.93088e-07
1.84955e-07
1.84954e-07
1.84958e-07
1.84959e-07
5.85774e-07
1.86735e-06
2.04353e-07
2.25983e-07
5.78029e-07
1.90449e-06
2.01633e-07
1.89495e-05
1.89088e-05
5.85751e-07
2.04354e-07
1.86932e-06
2.26001e-07
5.78047e-07
2.01638e-07
1.90234e-06
4.23757e-06
4.23911e-06
2.68899e-07
4.29578e-06
4.2978e-06
2.49176e-06
8.77855e-06
2.43885e-06
8.78851e-06
1.88376e-05
1.88143e-05
2.49177e-06
8.78104e-06
2.4383e-06
8.78979e-06
1.82395e-07
1.824e-07
1.824e-07
1.7514e-07
1.75139e-07
1.75144e-07
1.75144e-07
6.14109e-07
1.97607e-06
1.93997e-07
2.18631e-07
6.04131e-07
2.01533e-06
1.91621e-07
1.88417e-05
1.88128e-05
6.1421e-07
1.93999e-07
1.97671e-06
2.1865e-07
6.04046e-07
1.91626e-07
2.01531e-06
4.41073e-06
4.41363e-06
2.66406e-07
4.46506e-06
4.46687e-06
2.65513e-06
8.79988e-06
2.59723e-06
8.80909e-06
1.87595e-05
1.8743e-05
2.65485e-06
8.80229e-06
2.59753e-06
8.81042e-06
1.72862e-07
1.72867e-07
1.72867e-07
1.66423e-07
1.66422e-07
1.66426e-07
1.66426e-07
6.53715e-07
2.09209e-06
1.85004e-07
2.13257e-07
6.40142e-07
2.1283e-06
1.82962e-07
1.87637e-05
1.87423e-05
6.5436e-07
1.85005e-07
2.09025e-06
2.13276e-07
6.39604e-07
1.82966e-07
2.13052e-06
4.56589e-06
4.56644e-06
2.6696e-07
4.61071e-06
4.61404e-06
2.82871e-06
8.81938e-06
2.76883e-06
8.82771e-06
1.87004e-05
1.86862e-05
2.82887e-06
8.82183e-06
2.76881e-06
8.82917e-06
1.64409e-07
1.64414e-07
1.64413e-07
1.58737e-07
1.58737e-07
1.58741e-07
1.58741e-07
7.03377e-07
2.20802e-06
1.77336e-07
2.09875e-07
6.86328e-07
2.24401e-06
1.75618e-07
1.87035e-05
1.86872e-05
7.0397e-07
1.77334e-07
2.20607e-06
2.09891e-07
6.85745e-07
1.75619e-07
2.24629e-06
4.69883e-06
4.6993e-06
2.70738e-07
4.73773e-06
4.73982e-06
3.00318e-06
8.83709e-06
2.94634e-06
8.84477e-06
1.86518e-05
1.86394e-05
3.00321e-06
8.83955e-06
2.94619e-06
8.84624e-06
1.56972e-07
1.56977e-07
1.56976e-07
1.5203e-07
1.52029e-07
1.52034e-07
1.52034e-07
7.62846e-07
2.32109e-06
1.70963e-07
2.08491e-07
7.42632e-07
2.35925e-06
1.69564e-07
1.86539e-05
1.86408e-05
7.63348e-07
1.70957e-07
2.32077e-06
2.08507e-07
7.42011e-07
1.69563e-07
2.35957e-06
4.81098e-06
4.8128e-06
2.77632e-07
4.84199e-06
4.84393e-06
3.17297e-06
8.85339e-06
3.11864e-06
8.86057e-06
1.86095e-05
1.8598e-05
3.17374e-06
8.85585e-06
3.11819e-06
8.86211e-06
1.50499e-07
1.50506e-07
1.50504e-07
1.46252e-07
1.4625e-07
1.46256e-07
1.46255e-07
8.30915e-07
2.4313e-06
1.65867e-07
2.09152e-07
8.08199e-07
2.4677e-06
1.64786e-07
1.86109e-05
1.85996e-05
8.3093e-07
1.65861e-07
2.43131e-06
2.0917e-07
8.08093e-07
1.64784e-07
2.46799e-06
4.90307e-06
4.90498e-06
2.87977e-07
4.93097e-06
4.9329e-06
3.32937e-06
8.86857e-06
3.28007e-06
8.87534e-06
1.85708e-05
1.85608e-05
3.3293e-06
8.87111e-06
3.28027e-06
8.87704e-06
1.44946e-07
1.44954e-07
1.44951e-07
1.41367e-07
1.41363e-07
1.41371e-07
1.4137e-07
9.06799e-07
2.53529e-06
1.62044e-07
2.11861e-07
8.81671e-07
2.56951e-06
1.61277e-07
1.8572e-05
1.85616e-05
9.0667e-07
1.62038e-07
2.53693e-06
2.11886e-07
8.81584e-07
1.61275e-07
2.56791e-06
4.97957e-06
4.98149e-06
3.01851e-07
5.00266e-06
5.00459e-06
3.46809e-06
8.883e-06
3.42422e-06
8.88941e-06
1.85351e-05
1.85256e-05
3.4683e-06
8.88555e-06
3.42441e-06
8.89114e-06
1.40276e-07
1.40288e-07
1.40283e-07
1.37343e-07
1.37339e-07
1.37348e-07
1.37347e-07
9.87778e-07
2.63159e-06
1.59496e-07
2.16648e-07
9.61193e-07
2.6627e-06
1.59041e-07
1.85359e-05
1.85263e-05
9.87753e-07
1.59491e-07
2.63319e-06
2.1668e-07
9.61319e-07
1.59038e-07
2.6613e-06
5.04235e-06
5.04427e-06
3.1916e-07
5.06119e-06
5.06316e-06
3.58588e-06
8.89651e-06
3.54854e-06
8.90251e-06
1.85013e-05
1.84924e-05
8.89849e-06
3.54882e-06
8.90452e-06
1.36461e-07
1.36475e-07
1.36469e-07
1.07205e-06
2.72047e-06
1.58228e-07
2.23536e-07
1.04476e-06
2.74542e-06
1.58084e-07
1.85022e-05
1.0722e-06
1.58223e-07
2.7208e-06
1.0447e-06
1.58079e-07
5.09362e-06
5.09556e-06
3.40552e-07
5.10912e-06
5.1111e-06
5.35254e-07
5.3636e-07
5.36275e-07
1.09482e-05
5.80692e-07
1.09542e-05
5.79971e-07
5.28211e-07
2.43776e-06
2.43798e-06
5.43008e-07
5.43904e-07
5.34556e-07
5.35513e-07
5.332e-07
5.35656e-07
5.34548e-07
5.35512e-07
5.32254e-07
5.35656e-07
5.3072e-07
3.45775e-06
5.69005e-07
8.24439e-07
5.30734e-07
3.44643e-06
5.82094e-07
8.2531e-07
5.29641e-07
5.28387e-07
1.1906e-06
5.09595e-07
5.32917e-07
5.2835e-07
5.19568e-07
5.29658e-07
5.28389e-07
1.17669e-06
5.09596e-07
5.34711e-07
5.2835e-07
5.19668e-07
5.35248e-07
5.36243e-07
5.35354e-07
1.09128e-05
5.80985e-07
5.28223e-07
2.49795e-06
2.43928e-06
5.40659e-07
5.42594e-07
1.09513e-05
5.81121e-07
5.34556e-07
5.35513e-07
5.32223e-07
5.35656e-07
5.34553e-07
5.35513e-07
5.35656e-07
5.32206e-07
5.30724e-07
3.44837e-06
5.82172e-07
8.24392e-07
5.29642e-07
5.28387e-07
1.17394e-06
5.09596e-07
5.34802e-07
5.2835e-07
5.19562e-07
5.30691e-07
3.44769e-06
5.82133e-07
8.2398e-07
5.29646e-07
5.28387e-07
5.09595e-07
1.17407e-06
5.2835e-07
5.34749e-07
5.19552e-07
5.35663e-07
5.35602e-07
5.35656e-07
5.35656e-07
5.35663e-07
5.35602e-07
5.35656e-07
5.35656e-07
5.35663e-07
5.35603e-07
5.35656e-07
5.35656e-07
5.28434e-07
5.28375e-07
5.09725e-07
5.09725e-07
5.28408e-07
5.28408e-07
5.09781e-07
5.28434e-07
5.28374e-07
5.09725e-07
5.09725e-07
5.28408e-07
5.28408e-07
5.09781e-07
5.28434e-07
5.28374e-07
5.09725e-07
5.09725e-07
5.28408e-07
5.28408e-07
5.09782e-07
5.28434e-07
5.28373e-07
5.09725e-07
5.09725e-07
5.28408e-07
5.28408e-07
5.09782e-07
5.34547e-07
5.35517e-07
5.35656e-07
5.33364e-07
5.2965e-07
5.28384e-07
1.18983e-06
5.09595e-07
5.32862e-07
5.2835e-07
5.19552e-07
5.30722e-07
3.45789e-06
5.69054e-07
8.2405e-07
5.29662e-07
5.28383e-07
5.09596e-07
1.19118e-06
5.2835e-07
5.32777e-07
5.19662e-07
5.30715e-07
3.45818e-06
5.68732e-07
8.25345e-07
5.3525e-07
5.35943e-07
5.35299e-07
1.09295e-05
5.81546e-07
5.28219e-07
2.44192e-06
2.44324e-06
5.43705e-07
5.42849e-07
1.0878e-05
5.80608e-07
5.34552e-07
5.35516e-07
5.35656e-07
5.33416e-07
5.29424e-07
5.28385e-07
5.09596e-07
1.17312e-06
5.2835e-07
5.33155e-07
5.19527e-07
5.2965e-07
5.28384e-07
5.09596e-07
1.19147e-06
5.2835e-07
5.32819e-07
5.1954e-07
5.30722e-07
3.44603e-06
5.82179e-07
8.25436e-07
5.30674e-07
3.45603e-06
5.68897e-07
8.24444e-07
5.28229e-07
2.47175e-06
2.48204e-06
5.40653e-07
5.40485e-07
1.09574e-05
5.80635e-07
1.08858e-05
5.80709e-07
1.26396e-05
1.66448e-05
1.26439e-05
1.66581e-05
2.52657e-06
2.53319e-06
4.8428e-07
2.38412e-06
2.38381e-06
2.05978e-05
1.77219e-05
2.06114e-05
1.77603e-05
4.79421e-07
2.3033e-06
2.30347e-06
2.34672e-06
2.34641e-06
1.10566e-06
3.85328e-06
9.39924e-07
4.59473e-06
5.43369e-07
1.22851e-06
4.95575e-07
4.85579e-07
5.25918e-07
1.21681e-06
4.8231e-07
5.4337e-07
1.23242e-06
4.95577e-07
4.85591e-07
5.26101e-07
1.21738e-06
4.82311e-07
1.16192e-06
5.40057e-06
4.7952e-06
1.28034e-06
1.16223e-06
5.40006e-06
4.79564e-06
1.28018e-06
5.51437e-07
4.74388e-07
1.19983e-06
4.57788e-07
1.21184e-06
4.69723e-07
5.66975e-07
5.51436e-07
4.74406e-07
1.20033e-06
4.57785e-07
1.21311e-06
4.69723e-07
5.66848e-07
2.53181e-06
2.52623e-06
4.84283e-07
2.37832e-06
2.38132e-06
1.26372e-05
1.66402e-05
2.05808e-05
1.77384e-05
4.79434e-07
2.30078e-06
2.30217e-06
2.34721e-06
2.34397e-06
2.05961e-05
1.77199e-05
5.43273e-07
1.23233e-06
4.95575e-07
4.85583e-07
5.25936e-07
1.21625e-06
4.82308e-07
1.10552e-06
3.85463e-06
9.38449e-07
4.59561e-06
5.43293e-07
4.95575e-07
1.23171e-06
4.85584e-07
5.25894e-07
4.82309e-07
1.21639e-06
1.16169e-06
5.4016e-06
4.79576e-06
1.28011e-06
5.51288e-07
4.74393e-07
1.19988e-06
4.57781e-07
1.21273e-06
4.69719e-07
5.6675e-07
1.16179e-06
5.40097e-06
4.79627e-06
1.28022e-06
5.5131e-07
4.74395e-07
4.57783e-07
1.19983e-06
4.6972e-07
1.21288e-06
5.66788e-07
1.10573e-06
3.85289e-06
9.38774e-07
4.59381e-06
5.43519e-07
4.95576e-07
1.23066e-06
4.8559e-07
5.26028e-07
4.82312e-07
1.21993e-06
1.10638e-06
3.85177e-06
9.39403e-07
4.59349e-06
5.51364e-07
4.74381e-07
1.19905e-06
4.57782e-07
1.21006e-06
4.6972e-07
5.66836e-07
1.16199e-06
5.4009e-06
4.79453e-06
1.28033e-06
5.51563e-07
4.74401e-07
4.57791e-07
1.20092e-06
4.69726e-07
1.21422e-06
5.67023e-07
1.1625e-06
5.40199e-06
4.79619e-06
1.28061e-06
2.52552e-06
2.52618e-06
4.84285e-07
2.38246e-06
2.38348e-06
1.25852e-05
1.67056e-05
2.05817e-05
1.7728e-05
4.79426e-07
2.30186e-06
2.30118e-06
2.34559e-06
2.3472e-06
2.05849e-05
1.77699e-05
5.43302e-07
4.95575e-07
1.23082e-06
4.85593e-07
5.25938e-07
4.82308e-07
1.21976e-06
1.10648e-06
3.85205e-06
9.39779e-07
4.59543e-06
1.10581e-06
3.85003e-06
9.38491e-07
4.59483e-06
5.51539e-07
4.74385e-07
4.5779e-07
1.1989e-06
4.69725e-07
1.21204e-06
5.66984e-07
5.51324e-07
4.74402e-07
4.57781e-07
1.2008e-06
4.69719e-07
1.21455e-06
5.66822e-07
1.16228e-06
5.40105e-06
4.79704e-06
1.28063e-06
1.16162e-06
5.40173e-06
4.79691e-06
1.28023e-06
1.26403e-05
1.66568e-05
1.25879e-05
1.67154e-05
4.79446e-07
2.30233e-06
2.30246e-06
2.34533e-06
2.34989e-06
2.06086e-05
1.7759e-05
2.05943e-05
1.77865e-05
2.13431e-05
2.31461e-05
2.13384e-05
2.31448e-05
2.30706e-06
2.30712e-06
4.53651e-07
2.34489e-06
2.34486e-06
2.44831e-05
2.35531e-05
2.44922e-05
2.35565e-05
4.51068e-07
2.43066e-06
2.43201e-06
2.37041e-06
2.37054e-06
1.42735e-06
5.5845e-06
1.32962e-06
6.13462e-06
5.87453e-07
1.20117e-06
4.46473e-07
4.44448e-07
5.74364e-07
1.21042e-06
4.35739e-07
5.8733e-07
1.2018e-06
4.46468e-07
4.4447e-07
5.74246e-07
1.20971e-06
4.35732e-07
1.47227e-06
6.77852e-06
6.29613e-06
1.55359e-06
1.47204e-06
6.7794e-06
6.29683e-06
1.55338e-06
5.93521e-07
4.35469e-07
1.23703e-06
4.15849e-07
1.21722e-06
4.25545e-07
6.03689e-07
5.93432e-07
4.35493e-07
1.23626e-06
4.15845e-07
1.21843e-06
4.25538e-07
6.03603e-07
2.30481e-06
2.30606e-06
4.53668e-07
2.34394e-06
2.34427e-06
2.13389e-05
2.31487e-05
2.4489e-05
2.35595e-05
4.51087e-07
2.4312e-06
2.431e-06
2.37072e-06
2.37069e-06
2.44889e-05
2.35574e-05
5.8727e-07
1.20146e-06
4.46462e-07
4.44446e-07
5.74154e-07
1.20925e-06
4.35726e-07
1.42787e-06
5.58548e-06
1.32973e-06
6.13622e-06
5.87292e-07
4.46465e-07
1.20126e-06
4.44459e-07
5.74188e-07
4.35729e-07
1.21076e-06
1.47203e-06
6.77979e-06
6.29676e-06
1.55384e-06
5.93335e-07
4.35467e-07
1.23606e-06
4.15834e-07
1.21805e-06
4.2553e-07
6.03619e-07
1.47213e-06
6.78098e-06
6.29831e-06
1.55385e-06
5.93377e-07
4.35482e-07
4.15837e-07
1.23743e-06
4.25534e-07
1.21761e-06
6.03592e-07
1.42771e-06
5.58501e-06
1.32971e-06
6.13468e-06
5.87444e-07
4.46476e-07
1.2025e-06
4.44474e-07
5.74414e-07
4.35741e-07
1.21002e-06
1.42756e-06
5.58587e-06
1.33003e-06
6.13486e-06
5.93428e-07
4.35457e-07
1.23692e-06
4.15835e-07
1.21704e-06
4.25532e-07
6.03498e-07
1.47211e-06
6.77974e-06
6.2966e-06
1.55379e-06
5.93508e-07
4.35498e-07
4.15851e-07
1.23641e-06
4.25547e-07
1.21864e-06
6.03691e-07
1.47209e-06
6.78033e-06
6.29724e-06
1.5534e-06
2.30601e-06
2.30489e-06
4.53668e-07
2.34652e-06
2.34421e-06
2.13215e-05
2.31483e-05
2.44928e-05
2.35649e-05
4.51084e-07
2.4327e-06
2.43117e-06
2.37137e-06
2.37037e-06
2.44904e-05
2.35625e-05
5.87341e-07
4.46465e-07
1.20237e-06
4.4447e-07
5.74209e-07
4.35731e-07
1.21004e-06
1.42797e-06
5.58474e-06
1.33e-06
6.13508e-06
1.42759e-06
5.58498e-06
1.32962e-06
6.13503e-06
5.93526e-07
4.35461e-07
4.15843e-07
1.23594e-06
4.2554e-07
1.21779e-06
6.03548e-07
5.93418e-07
4.35493e-07
4.15844e-07
1.23656e-06
4.25538e-07
1.21864e-06
6.03682e-07
1.47216e-06
6.78027e-06
6.29755e-06
1.55379e-06
1.472e-06
6.78082e-06
6.29762e-06
1.55371e-06
2.13365e-05
2.31436e-05
2.13231e-05
2.31459e-05
4.51118e-07
2.43122e-06
2.43185e-06
2.36939e-06
2.37045e-06
2.44912e-05
2.35564e-05
2.44947e-05
2.35622e-05
2.46453e-05
2.49418e-05
2.46538e-05
2.49448e-05
2.4622e-06
2.46294e-06
4.30258e-07
2.52135e-06
2.52241e-06
2.48352e-05
2.49416e-05
2.48371e-05
2.49438e-05
4.28554e-07
2.60162e-06
2.60207e-06
2.55023e-06
2.55031e-06
1.65835e-06
6.91631e-06
1.59158e-06
7.32321e-06
6.15382e-07
1.24751e-06
4.06613e-07
4.1078e-07
6.08266e-07
1.27137e-06
3.97799e-07
6.15359e-07
1.24861e-06
4.06611e-07
4.10807e-07
6.08241e-07
1.27035e-06
3.978e-07
1.69017e-06
7.76278e-06
7.43336e-06
1.74254e-06
1.68986e-06
7.76231e-06
7.43294e-06
1.74225e-06
6.18507e-07
4.03168e-07
1.30498e-06
3.81298e-07
1.28297e-06
3.89371e-07
6.22751e-07
6.18459e-07
4.03195e-07
1.30533e-06
3.81304e-07
1.28387e-06
3.89375e-07
6.22701e-07
2.46243e-06
2.46207e-06
4.30266e-07
2.52188e-06
2.5213e-06
2.46493e-05
2.49416e-05
2.48353e-05
2.49416e-05
4.28563e-07
2.60158e-06
2.60072e-06
2.54969e-06
2.54923e-06
2.48348e-05
2.49409e-05
6.15429e-07
1.24847e-06
4.06598e-07
4.10774e-07
6.08142e-07
1.27034e-06
3.97785e-07
1.65894e-06
6.91764e-06
1.5919e-06
7.32507e-06
6.15348e-07
4.06602e-07
1.24785e-06
4.10792e-07
6.08195e-07
3.97788e-07
1.27163e-06
1.68979e-06
7.76386e-06
7.43417e-06
1.74375e-06
6.18411e-07
4.03161e-07
1.30551e-06
3.81288e-07
1.28397e-06
3.89358e-07
6.22762e-07
1.68995e-06
7.76464e-06
7.43477e-06
1.74313e-06
6.18458e-07
4.03179e-07
3.81289e-07
1.30519e-06
3.89361e-07
1.28324e-06
6.22732e-07
1.65894e-06
6.91651e-06
1.59179e-06
7.3239e-06
6.15402e-07
4.06615e-07
1.24868e-06
4.10812e-07
6.08207e-07
3.97801e-07
1.27043e-06
1.65823e-06
6.91742e-06
1.59178e-06
7.3245e-06
6.1853e-07
4.0315e-07
1.30656e-06
3.81285e-07
1.28291e-06
3.89357e-07
6.22431e-07
1.68984e-06
7.76349e-06
7.43346e-06
1.7423e-06
6.18415e-07
4.03199e-07
3.813e-07
1.30539e-06
3.89373e-07
1.28386e-06
6.22698e-07
1.69008e-06
7.76403e-06
7.43433e-06
1.74231e-06
2.46272e-06
2.46168e-06
4.30271e-07
2.52235e-06
2.52141e-06
2.46499e-05
2.49425e-05
2.48393e-05
2.49458e-05
4.28567e-07
2.60188e-06
2.60109e-06
2.5502e-06
2.54896e-06
2.48406e-05
2.49418e-05
6.15439e-07
4.0661e-07
1.24876e-06
4.10805e-07
6.08202e-07
3.97798e-07
1.27054e-06
1.65904e-06
6.91706e-06
1.59169e-06
7.32431e-06
1.65907e-06
6.91781e-06
1.59167e-06
7.32482e-06
6.1857e-07
4.03157e-07
3.81294e-07
1.30673e-06
3.89365e-07
1.28387e-06
6.22698e-07
6.18434e-07
4.03191e-07
3.81301e-07
1.30551e-06
3.89373e-07
1.28396e-06
6.22735e-07
1.68953e-06
7.76424e-06
7.43428e-06
1.74321e-06
1.68954e-06
7.76413e-06
7.43459e-06
1.74329e-06
2.46535e-05
2.49443e-05
2.46554e-05
2.49451e-05
4.28603e-07
2.59991e-06
2.60186e-06
2.54898e-06
2.54988e-06
2.48353e-05
2.49433e-05
2.48358e-05
2.4944e-05
2.47347e-05
2.44319e-05
2.4736e-05
2.4434e-05
2.6263e-06
2.62601e-06
4.08452e-07
2.67187e-06
2.67222e-06
2.38709e-05
2.42621e-05
2.38733e-05
2.4264e-05
4.0678e-07
2.73624e-06
2.7362e-06
2.69395e-06
2.69406e-06
1.80805e-06
7.84552e-06
1.7677e-06
8.1021e-06
6.25764e-07
1.3185e-06
3.73549e-07
3.81789e-07
6.24389e-07
1.33793e-06
3.66097e-07
6.2569e-07
1.31847e-06
3.73557e-07
3.81809e-07
6.24322e-07
1.33776e-06
3.66106e-07
1.82705e-06
8.35437e-06
8.16286e-06
1.85466e-06
1.82562e-06
8.35338e-06
8.16174e-06
1.85596e-06
6.26172e-07
3.75079e-07
1.36637e-06
3.51992e-07
1.35002e-06
3.58919e-07
6.24945e-07
6.26079e-07
3.75098e-07
1.36611e-06
3.52e-07
1.34988e-06
3.58928e-07
6.24825e-07
2.62551e-06
2.62553e-06
4.08398e-07
2.67169e-06
2.66969e-06
2.47338e-05
2.44318e-05
2.38703e-05
2.42618e-05
4.06818e-07
2.73667e-06
2.73502e-06
2.69348e-06
2.69412e-06
2.38716e-05
2.42617e-05
6.25748e-07
1.31867e-06
3.73539e-07
3.81778e-07
6.24346e-07
1.33808e-06
3.66091e-07
1.80798e-06
7.8477e-06
1.76734e-06
8.10462e-06
6.25705e-07
3.73542e-07
1.31868e-06
3.81796e-07
6.24331e-07
3.66092e-07
1.33803e-06
1.82608e-06
8.35587e-06
8.16401e-06
1.85632e-06
6.26146e-07
3.75068e-07
1.36654e-06
3.51988e-07
1.35023e-06
3.58912e-07
6.24985e-07
1.82581e-06
8.35595e-06
8.16405e-06
1.85611e-06
6.26099e-07
3.75086e-07
3.51989e-07
1.36645e-06
3.58915e-07
1.35025e-06
6.24939e-07
1.80813e-06
7.84653e-06
1.76781e-06
8.10372e-06
6.25711e-07
3.73551e-07
1.31849e-06
3.81811e-07
6.24317e-07
3.66099e-07
1.33785e-06
1.80811e-06
7.84739e-06
1.7678e-06
8.10415e-06
6.2613e-07
3.75055e-07
1.36788e-06
3.51982e-07
1.34899e-06
3.58909e-07
6.24904e-07
1.82572e-06
8.35542e-06
8.16317e-06
1.85605e-06
6.26108e-07
3.75099e-07
3.51993e-07
1.36626e-06
3.58921e-07
1.34999e-06
6.24944e-07
1.82578e-06
8.35553e-06
8.16382e-06
1.85602e-06
2.62624e-06
2.62538e-06
4.08413e-07
2.67204e-06
2.6722e-06
2.47325e-05
2.44328e-05
2.38741e-05
2.42647e-05
4.06825e-07
2.73623e-06
2.73788e-06
2.69413e-06
2.69315e-06
2.3872e-05
2.42637e-05
6.25705e-07
3.73554e-07
1.3186e-06
3.81803e-07
6.24336e-07
3.66103e-07
1.33799e-06
1.80707e-06
7.84753e-06
1.76716e-06
8.10427e-06
1.80685e-06
7.84736e-06
1.76713e-06
8.10389e-06
6.26101e-07
3.75067e-07
3.51992e-07
1.36813e-06
3.58917e-07
1.34918e-06
6.24913e-07
6.26101e-07
3.7509e-07
3.51998e-07
1.36638e-06
3.58925e-07
1.35005e-06
6.24897e-07
1.82651e-06
8.35557e-06
8.16384e-06
1.85464e-06
1.82651e-06
8.35526e-06
8.16353e-06
1.8546e-06
2.47357e-05
2.44329e-05
2.47365e-05
2.4433e-05
4.06805e-07
2.73639e-06
2.73802e-06
2.69384e-06
2.69335e-06
2.38717e-05
2.42631e-05
2.38715e-05
2.42633e-05
2.36828e-05
2.32665e-05
2.3684e-05
2.32685e-05
2.75911e-06
2.75937e-06
3.86728e-07
2.80097e-06
2.80115e-06
2.26747e-05
2.30779e-05
2.26764e-05
2.30786e-05
3.85033e-07
2.87042e-06
2.87072e-06
2.82516e-06
2.82532e-06
1.88951e-06
8.3933e-06
1.86836e-06
8.5301e-06
6.21426e-07
1.3773e-06
3.45298e-07
3.56007e-07
6.24872e-07
1.39065e-06
3.38818e-07
6.21376e-07
1.37709e-06
3.45305e-07
3.56013e-07
6.24632e-07
1.39034e-06
3.38824e-07
1.89955e-06
8.64756e-06
8.5559e-06
1.91022e-06
1.89802e-06
8.64677e-06
8.55473e-06
1.91177e-06
6.20574e-07
3.49966e-07
1.41172e-06
3.26446e-07
1.40065e-06
3.32539e-07