/*--------------------------------*- C++ -*----------------------------------*\
| =========                 |                                                 |
| \\      /  F ield         | OpenFOAM: The Open Source CFD Toolbox           |
|  \\    /   O peration     | Version:  v1906                                 |
|   \\  /    A nd           | Web:      www.OpenFOAM.com                      |
|    \\/     M anipulation  |                                                 |
\*---------------------------------------------------------------------------*/
FoamFile
{
    version     2.0;
    format      ascii;
    class       volVectorField;
    location    "350";
    object      U;
}
// * * * * * * * * * * * * * * * * * * * * * * * * * * * * * * * * * * * * * //

dimensions      [0 1 -1 0 0 0 0];


internalField   nonuniform List<vector> 
42616
(
(0.000106237 0.000106181 0.100294)
(-0.000184939 0.000115484 0.10039)
(0.000115577 -0.000184993 0.10039)
(-0.000247803 -0.000247719 0.100398)
(9.71834e-05 9.71368e-05 0.100854)
(-0.000151451 9.35498e-05 0.100938)
(9.36332e-05 -0.000151489 0.100939)
(-0.000194392 -0.000194317 0.100971)
(9.70573e-05 9.70645e-05 0.101369)
(-0.000152247 9.09357e-05 0.101448)
(9.0903e-05 -0.000152247 0.101448)
(-0.000194805 -0.00019476 0.101475)
(9.48371e-05 9.48487e-05 0.101886)
(-0.000149243 8.71598e-05 0.101954)
(8.72315e-05 -0.000149265 0.101954)
(-0.000192206 -0.000192161 0.101967)
(9.14427e-05 9.14482e-05 0.102391)
(-0.000143616 8.23956e-05 0.102442)
(8.24749e-05 -0.000143676 0.102442)
(-0.000186928 -0.000186945 0.102435)
(8.79789e-05 8.79765e-05 0.102877)
(-0.000137703 7.83389e-05 0.102907)
(7.8385e-05 -0.000137768 0.102907)
(-0.000181533 -0.000181527 0.102874)
(8.48425e-05 8.48301e-05 0.103344)
(-0.000132306 7.50792e-05 0.103348)
(7.51555e-05 -0.000132348 0.103348)
(-0.0001769 -0.000176911 0.103285)
(8.21449e-05 8.21296e-05 0.103793)
(-0.000127595 7.25088e-05 0.103768)
(7.25943e-05 -0.000127591 0.103768)
(-0.000173139 -0.00017317 0.103668)
(7.9852e-05 7.98507e-05 0.104226)
(-0.000123527 7.05254e-05 0.104168)
(7.05807e-05 -0.000123472 0.104168)
(-0.000170208 -0.000170244 0.104027)
(7.78955e-05 7.78671e-05 0.104646)
(-0.000120041 6.91951e-05 0.10455)
(6.91552e-05 -0.000119935 0.104551)
(-0.000168093 -0.000168064 0.104363)
(7.61568e-05 7.61019e-05 0.105053)
(-0.000116902 6.81121e-05 0.104917)
(6.81171e-05 -0.000116791 0.104917)
(-0.000166554 -0.000166539 0.104678)
(7.45833e-05 7.44979e-05 0.10545)
(-0.000113932 6.711e-05 0.105269)
(6.71264e-05 -0.000113837 0.105269)
(-0.000165205 -0.000165241 0.104972)
(7.31033e-05 7.30218e-05 0.105836)
(-0.000111231 6.61201e-05 0.105607)
(6.61447e-05 -0.000111208 0.105607)
(-0.000164036 -0.00016417 0.105246)
(7.16348e-05 7.15859e-05 0.106214)
(-0.000108729 6.5062e-05 0.10593)
(6.50742e-05 -0.000108732 0.10593)
(-0.000163013 -0.000163085 0.105498)
(7.01974e-05 7.01798e-05 0.106581)
(-0.000106294 6.40348e-05 0.106239)
(6.40219e-05 -0.000106284 0.106239)
(-0.000161792 -0.00016177 0.105728)
(6.87752e-05 6.87766e-05 0.10694)
(-0.000103923 6.30405e-05 0.106534)
(6.30267e-05 -0.000103891 0.106534)
(-0.000160305 -0.000160281 0.105935)
(6.73823e-05 6.73888e-05 0.10729)
(-0.000101595 6.20303e-05 0.106813)
(6.20216e-05 -0.000101556 0.106813)
(-0.000158657 -0.000158669 0.106117)
(6.60498e-05 6.60592e-05 0.107631)
(-9.9312e-05 6.10157e-05 0.107077)
(6.10459e-05 -9.93936e-05 0.107077)
(-0.000156812 -0.000156866 0.106274)
(6.4759e-05 6.47703e-05 0.107963)
(-9.73177e-05 6.00599e-05 0.107325)
(6.01011e-05 -9.74358e-05 0.107325)
(-0.000154726 -0.000154812 0.106405)
(6.34984e-05 6.34909e-05 0.108287)
(-9.54606e-05 5.90469e-05 0.107556)
(5.91377e-05 -9.55667e-05 0.107556)
(-0.000152297 -0.000152394 0.106509)
(6.22613e-05 6.22433e-05 0.108602)
(-9.36347e-05 5.80209e-05 0.10777)
(5.8093e-05 -9.3728e-05 0.10777)
(-0.000149469 -0.000149552 0.106585)
(0.000138133 0.000138101 0.100281)
(0.000126502 0.000159974 0.100229)
(-0.000126467 0.000159943 0.100229)
(-0.000138083 0.00013804 0.100281)
(0.000160039 0.000126459 0.100229)
(0.00015997 -0.000126349 0.100229)
(9.38619e-05 9.38106e-05 0.100152)
(-9.38301e-05 9.37787e-05 0.100152)
(9.38086e-05 -9.37962e-05 0.100152)
(-9.38119e-05 -9.38219e-05 0.100152)
(-0.000159969 0.000126418 0.100229)
(-0.000159956 -0.00012638 0.100229)
(0.000138026 -0.000137963 0.100281)
(0.000126381 -0.000159924 0.100229)
(-0.000126394 -0.000159907 0.100229)
(-0.000138068 -0.000137958 0.100281)
(0.000247907 0.000247888 0.100398)
(0.000112811 0.00011266 0.100897)
(0.000115634 0.000184883 0.10039)
(-0.000115557 0.000184904 0.10039)
(9.32052e-05 0.000149018 0.100817)
(-9.30989e-05 0.000149078 0.100817)
(-0.000247773 0.000247734 0.100398)
(-0.000112668 0.00011247 0.100897)
(0.000185031 0.000115521 0.10039)
(0.000184955 -0.000115579 0.10039)
(0.000149054 9.31767e-05 0.100817)
(0.000149054 -9.31327e-05 0.100817)
(-0.000184934 -0.000115578 0.10039)
(-0.000148961 9.30666e-05 0.100817)
(-0.000149067 -9.31139e-05 0.100817)
(0.000247781 -0.000247799 0.100398)
(0.000112687 -0.000112767 0.100897)
(-0.000115518 -0.000184996 0.10039)
(9.31433e-05 -0.000149001 0.100817)
(-9.31002e-05 -0.000148971 0.100817)
(-0.000112782 -0.00011273 0.100897)
(0.000194391 0.000194244 0.100971)
(0.000105386 0.000105344 0.101399)
(9.36015e-05 0.000151463 0.100938)
(-9.35767e-05 0.000151546 0.100938)
(9.13899e-05 0.000152135 0.101319)
(-9.13878e-05 0.000152185 0.101319)
(-0.000194296 0.000194078 0.100971)
(-0.000105383 0.000105271 0.101399)
(0.000151482 9.3588e-05 0.100939)
(0.00015151 -9.36098e-05 0.100939)
(0.000152138 9.14469e-05 0.101319)
(0.00015212 -9.14156e-05 0.101319)
(-0.000151532 -9.3575e-05 0.100939)
(-0.00015212 9.14244e-05 0.101319)
(-0.000152206 -9.142e-05 0.101319)
(0.000194274 -0.000194351 0.100971)
(0.000105327 -0.000105429 0.101399)
(-9.35975e-05 -0.000151479 0.100939)
(9.14072e-05 -0.000152119 0.101319)
(-9.14907e-05 -0.000152108 0.101319)
(-0.000105439 -0.000105389 0.101399)
(0.000194779 0.000194715 0.101474)
(9.77746e-05 9.77705e-05 0.101896)
(9.08813e-05 0.000152297 0.101447)
(-9.08713e-05 0.000152327 0.101448)
(8.83266e-05 0.000150522 0.101829)
(-8.82253e-05 0.000150495 0.101829)
(-0.000194747 0.000194648 0.101474)
(-9.76964e-05 9.76048e-05 0.101896)
(0.000152266 9.0961e-05 0.101448)
(0.000152256 -9.0893e-05 0.101448)
(0.000150437 8.83878e-05 0.101829)
(0.000150425 -8.82673e-05 0.101829)
(-0.000152344 -9.0926e-05 0.101448)
(-0.000150401 8.83033e-05 0.101829)
(-0.000150514 -8.83306e-05 0.101829)
(0.000194686 -0.000194794 0.101475)
(9.76634e-05 -9.77492e-05 0.101896)
(-9.10138e-05 -0.000152226 0.101448)
(8.83562e-05 -0.000150417 0.101829)
(-8.84021e-05 -0.000150404 0.101829)
(-9.78094e-05 -9.77273e-05 0.101896)
(0.000192212 0.000192174 0.101967)
(8.84944e-05 8.84664e-05 0.10237)
(8.72004e-05 0.000149372 0.101954)
(-8.70893e-05 0.000149325 0.101954)
(8.36527e-05 0.000145238 0.102322)
(-8.35071e-05 0.000145134 0.102322)
(-0.000192121 0.000192031 0.101967)
(-8.8398e-05 8.82801e-05 0.10237)
(0.000149286 8.72539e-05 0.101954)
(0.000149262 -8.71349e-05 0.101954)
(0.000145145 8.37023e-05 0.102322)
(0.000145092 -8.35575e-05 0.102322)
(-0.000149352 -8.72024e-05 0.101954)
(-0.000145107 8.35783e-05 0.102322)
(-0.000145207 -8.36538e-05 0.102322)
(0.000192089 -0.000192172 0.101967)
(8.83309e-05 -8.84739e-05 0.10237)
(-8.72625e-05 -0.000149259 0.101954)
(8.3651e-05 -0.000145156 0.102322)
(-8.36774e-05 -0.000145137 0.102322)
(-8.84789e-05 -8.84568e-05 0.10237)
(0.000186994 0.000186922 0.102435)
(7.97059e-05 7.973e-05 0.102816)
(8.24842e-05 0.000143746 0.102442)
(-8.2357e-05 0.000143639 0.102442)
(7.9378e-05 0.000139288 0.102793)
(-7.92738e-05 0.000139172 0.102793)
(-0.000186888 0.00018674 0.102435)
(-7.9623e-05 7.96083e-05 0.102816)
(0.000143653 8.25188e-05 0.102442)
(0.000143598 -8.24079e-05 0.102442)
(0.000139172 7.93841e-05 0.102793)
(0.000139148 -7.93125e-05 0.102793)
(-0.000143715 -8.24615e-05 0.102442)
(-0.000139145 7.9269e-05 0.102793)
(-0.000139251 -7.93255e-05 0.102793)
(0.000186782 -0.000186972 0.102435)
(7.96334e-05 -7.96749e-05 0.102816)
(-8.24899e-05 -0.000143641 0.102442)
(7.93165e-05 -0.000139213 0.102793)
(-7.93212e-05 -0.000139151 0.102793)
(-7.96918e-05 -7.96292e-05 0.102816)
(0.000181597 0.000181567 0.102874)
(7.19473e-05 7.19708e-05 0.103234)
(7.84459e-05 0.000137849 0.102907)
(-7.83481e-05 0.000137744 0.102907)
(7.59427e-05 0.000133739 0.10324)
(-7.58345e-05 0.000133618 0.10324)
(-0.000181489 0.000181433 0.102874)
(-7.18571e-05 7.187e-05 0.103234)
(0.00013773 7.84455e-05 0.102907)
(0.000137717 -7.83811e-05 0.102907)
(0.000133613 7.59281e-05 0.10324)
(0.000133628 -7.58725e-05 0.10324)
(-0.000137809 -7.83934e-05 0.102907)
(-0.000133587 7.58272e-05 0.10324)
(-0.000133678 -7.58923e-05 0.10324)
(0.000181461 -0.000181574 0.102874)
(7.19275e-05 -7.1911e-05 0.103234)
(-7.83815e-05 -0.000137702 0.102907)
(7.58974e-05 -0.000133639 0.10324)
(-7.58653e-05 -0.000133579 0.10324)
(-7.19424e-05 -7.18914e-05 0.103234)
(0.000176971 0.000176937 0.103285)
(6.51448e-05 6.51693e-05 0.103626)
(7.52065e-05 0.000132455 0.103348)
(-7.50917e-05 0.00013233 0.103348)
(7.32379e-05 0.000128854 0.103665)
(-7.31155e-05 0.000128717 0.103665)
(-0.000176844 0.000176811 0.103284)
(-6.50563e-05 6.50617e-05 0.103625)
(0.000132332 7.51855e-05 0.103348)
(0.000132344 -7.51272e-05 0.103348)
(0.000128727 7.32114e-05 0.103665)
(0.000128735 -7.31396e-05 0.103665)
(-0.000132382 -7.51468e-05 0.103348)
(-0.00012871 7.30971e-05 0.103665)
(-0.000128761 -7.31598e-05 0.103665)
(0.000176876 -0.000176933 0.103285)
(6.51346e-05 -6.50864e-05 0.103626)
(-7.51164e-05 -0.000132293 0.103348)
(7.31826e-05 -0.000128717 0.103665)
(-7.31322e-05 -0.000128685 0.103665)
(-6.51181e-05 -6.50906e-05 0.103626)
(0.000173237 0.000173192 0.103668)
(5.91742e-05 5.92727e-05 0.103993)
(7.26517e-05 0.000127727 0.103768)
(-7.25357e-05 0.000127599 0.103768)
(7.1091e-05 0.000124589 0.10407)
(-7.09998e-05 0.000124477 0.10407)
(-0.000173108 0.000173061 0.103668)
(-5.91207e-05 5.91781e-05 0.103993)
(0.00012761 7.26267e-05 0.103768)
(0.000127613 -7.25559e-05 0.103768)
(0.000124457 7.10833e-05 0.10407)
(0.000124457 -7.10024e-05 0.10407)
(-0.000127644 -7.25716e-05 0.103768)
(-0.000124481 7.0966e-05 0.10407)
(-0.000124517 -7.10036e-05 0.10407)
(0.000173136 -0.000173176 0.103668)
(5.92207e-05 -5.91176e-05 0.103993)
(-7.2546e-05 -0.000127571 0.103768)
(7.10298e-05 -0.000124438 0.10407)
(-7.09921e-05 -0.000124432 0.10407)
(-5.9162e-05 -5.91198e-05 0.103993)
(0.000170309 0.000170246 0.104027)
(5.41715e-05 5.43882e-05 0.104338)
(7.06743e-05 0.00012363 0.104168)
(-7.05962e-05 0.000123525 0.104168)
(6.97024e-05 0.000120958 0.104456)
(-6.96493e-05 0.000120864 0.104456)
(-0.000170204 0.000170118 0.104027)
(-5.41666e-05 5.43103e-05 0.104338)
(0.00012349 7.06509e-05 0.104168)
(0.000123489 -7.05927e-05 0.104168)
(0.000120788 6.95968e-05 0.104457)
(0.000120789 -6.96163e-05 0.104456)
(-0.000123558 -7.05403e-05 0.104168)
(-0.000120864 6.94934e-05 0.104456)
(-0.000120888 -6.94566e-05 0.104456)
(0.000170158 -0.000170266 0.104027)
(5.43048e-05 -5.40618e-05 0.104338)
(-7.05327e-05 -0.000123465 0.104168)
(6.94525e-05 -0.000120765 0.104456)
(-6.94167e-05 -0.000120757 0.104456)
(-5.41691e-05 -5.4027e-05 0.104338)
(0.000168179 0.000168218 0.104363)
(4.97539e-05 4.99052e-05 0.104663)
(6.9415e-05 0.000120129 0.104551)
(-6.93695e-05 0.000120035 0.10455)
(6.8656e-05 0.000117743 0.104827)
(-6.8591e-05 0.000117645 0.104827)
(-0.000168121 0.0001681 0.104363)
(-4.9695e-05 4.98293e-05 0.104663)
(0.000119956 6.93045e-05 0.104551)
(0.000119958 -6.93393e-05 0.104551)
(0.000117576 6.85185e-05 0.104827)
(0.000117584 -6.85748e-05 0.104827)
(-0.000120071 -6.91722e-05 0.10455)
(-0.00011766 6.83751e-05 0.104827)
(-0.000117706 -6.83993e-05 0.104827)
(0.000168099 -0.000168112 0.104363)
(4.98247e-05 -4.96613e-05 0.104663)
(-6.91283e-05 -0.000119929 0.104551)
(6.83723e-05 -0.000117552 0.104827)
(-6.83511e-05 -0.000117556 0.104827)
(-4.97397e-05 -4.96296e-05 0.104663)
(0.000166639 0.000166634 0.104678)
(4.55517e-05 4.56021e-05 0.104968)
(6.8394e-05 0.000116962 0.104917)
(-6.8338e-05 0.000116872 0.104917)
(6.76441e-05 0.000114693 0.105182)
(-6.75935e-05 0.000114616 0.105182)
(-0.000166562 0.000166527 0.104678)
(-4.55143e-05 4.55947e-05 0.104968)
(0.00011681 6.82489e-05 0.104917)
(0.000116822 -6.83226e-05 0.104917)
(0.00011457 6.7476e-05 0.105182)
(0.000114589 -6.75778e-05 0.105182)
(-0.000116947 -6.81492e-05 0.104917)
(-0.000114653 6.73576e-05 0.105182)
(-0.000114692 -6.74149e-05 0.105182)
(0.000166543 -0.000166581 0.104678)
(4.55856e-05 -4.55019e-05 0.104968)
(-6.80966e-05 -0.000116801 0.104917)
(6.7377e-05 -0.000114558 0.105182)
(-6.73429e-05 -0.00011458 0.105182)
(-4.55105e-05 -4.54844e-05 0.104968)
(0.000165305 0.000165236 0.104972)
(4.15902e-05 4.1582e-05 0.105254)
(6.73909e-05 0.000113963 0.105269)
(-6.7341e-05 0.000113883 0.105269)
(6.66352e-05 0.000111903 0.105523)
(-6.6573e-05 0.00011186 0.105523)
(-0.000165229 0.000165183 0.104972)
(-4.15757e-05 4.16199e-05 0.105254)
(0.000113841 6.72239e-05 0.105269)
(0.000113857 -6.73276e-05 0.105269)
(0.000111825 6.64854e-05 0.105523)
(0.000111845 -6.65666e-05 0.105523)
(-0.000113967 -6.71694e-05 0.105269)
(-0.000111867 6.63772e-05 0.105523)
(-0.000111884 -6.64159e-05 0.105523)
(0.000165205 -0.000165268 0.104972)
(4.15792e-05 -4.15777e-05 0.105254)
(-6.70913e-05 -0.000113866 0.105269)
(6.64011e-05 -0.000111833 0.105523)
(-6.63406e-05 -0.000111825 0.105523)
(-4.15233e-05 -4.15801e-05 0.105254)
(0.000164154 0.000164042 0.105246)
(3.7622e-05 3.77306e-05 0.105519)
(6.63654e-05 0.000111266 0.105606)
(-6.63057e-05 0.000111236 0.105606)
(6.55723e-05 0.000109412 0.10585)
(-6.5523e-05 0.000109382 0.10585)
(-0.000164132 0.000164036 0.105246)
(-3.75469e-05 3.77162e-05 0.105519)
(0.000111197 6.62367e-05 0.105607)
(0.000111215 -6.63026e-05 0.105606)
(0.000109336 6.54373e-05 0.10585)
(0.00010936 -6.55283e-05 0.10585)
(-0.000111249 -6.61597e-05 0.105606)
(-0.000109338 6.53245e-05 0.105851)
(-0.000109374 -6.53888e-05 0.10585)
(0.000164036 -0.000164188 0.105246)
(3.7719e-05 -3.75618e-05 0.105519)
(-6.60813e-05 -0.000111195 0.105607)
(6.53424e-05 -0.00010934 0.10585)
(-6.52766e-05 -0.000109317 0.10585)
(-3.76179e-05 -3.75605e-05 0.105519)
(0.000163088 0.000163034 0.105498)
(3.34598e-05 3.36232e-05 0.105764)
(6.5304e-05 0.000108802 0.10593)
(-6.52594e-05 0.000108781 0.10593)
(6.45428e-05 0.000106991 0.106163)
(-6.45135e-05 0.000106967 0.106163)
(-0.00016303 0.000163008 0.105498)
(-3.33541e-05 3.35896e-05 0.105764)
(0.000108725 6.5173e-05 0.10593)
(0.000108754 -6.52633e-05 0.10593)
(0.000106898 6.44032e-05 0.106163)
(0.000106947 -6.45132e-05 0.106163)
(-0.000108768 -6.5127e-05 0.10593)
(-0.000106886 6.42839e-05 0.106163)
(-0.000106953 -6.43726e-05 0.106163)
(0.000163007 -0.000163087 0.105498)
(3.36522e-05 -3.33668e-05 0.105764)
(-6.50158e-05 -0.000108703 0.10593)
(6.42814e-05 -0.000106884 0.106163)
(-6.42379e-05 -0.00010685 0.106163)
(-3.35018e-05 -3.33409e-05 0.105764)
(0.00016181 0.000161818 0.105728)
(2.93676e-05 2.94924e-05 0.105987)
(6.4289e-05 0.000106386 0.106239)
(-6.42691e-05 0.000106377 0.106239)
(6.35325e-05 0.000104612 0.106461)
(-6.35453e-05 0.0001046 0.106461)
(-0.00016175 0.000161779 0.105728)
(-2.92847e-05 2.94654e-05 0.105987)
(0.000106294 6.41501e-05 0.106239)
(0.000106351 -6.42627e-05 0.106239)
(0.000104511 6.34144e-05 0.106462)
(0.000104575 -6.3516e-05 0.106461)
(-0.000106362 -6.4124e-05 0.106239)
(-0.000104502 6.33008e-05 0.106462)
(-0.000104582 -6.33703e-05 0.106461)
(0.000161813 -0.000161794 0.105728)
(2.95184e-05 -2.92724e-05 0.105987)
(-6.39913e-05 -0.000106247 0.106239)
(6.32779e-05 -0.00010448 0.106461)
(-6.3255e-05 -0.000104439 0.106462)
(-2.93768e-05 -2.923e-05 0.105987)
(0.000160323 0.000160316 0.105934)
(2.55028e-05 2.56033e-05 0.106186)
(6.32804e-05 0.000104007 0.106534)
(-6.32838e-05 0.000104011 0.106534)
(6.2518e-05 0.000102268 0.106745)
(-6.25293e-05 0.000102252 0.106745)
(-0.000160282 0.000160289 0.105935)
(-2.54496e-05 2.55457e-05 0.106186)
(0.000103913 6.31593e-05 0.106534)
(0.00010399 -6.32626e-05 0.106533)
(0.000102171 6.24116e-05 0.106745)
(0.000102245 -6.25052e-05 0.106745)
(-0.000104 -6.31201e-05 0.106534)
(-0.000102168 6.22846e-05 0.106745)
(-0.000102233 -6.23541e-05 0.106745)
(0.000160325 -0.000160311 0.105935)
(2.56233e-05 -2.54117e-05 0.106186)
(-6.30091e-05 -0.000103851 0.106534)
(6.22749e-05 -0.000102129 0.106745)
(-6.22459e-05 -0.00010209 0.106745)
(-2.54761e-05 -2.53767e-05 0.106186)
(0.000158699 0.000158685 0.106117)
(2.19545e-05 2.20366e-05 0.106361)
(6.22621e-05 0.000101668 0.106813)
(-6.22657e-05 0.00010168 0.106813)
(6.15104e-05 9.99912e-05 0.107012)
(-6.14956e-05 9.99435e-05 0.107013)
(-0.000158683 0.000158646 0.106117)
(-2.18872e-05 2.19511e-05 0.106361)
(0.000101578 6.21421e-05 0.106813)
(0.000101663 -6.2251e-05 0.106813)
(9.99161e-05 6.14088e-05 0.107013)
(9.99909e-05 -6.15081e-05 0.107012)
(-0.000101659 -6.21042e-05 0.106813)
(-9.98483e-05 6.12649e-05 0.107013)
(-9.99134e-05 -6.1344e-05 0.107013)
(0.000158685 -0.000158692 0.106117)
(2.2059e-05 -2.18841e-05 0.106361)
(-6.1993e-05 -0.00010152 0.106813)
(6.12867e-05 -9.98855e-05 0.107013)
(-6.12217e-05 -9.97901e-05 0.107013)
(-2.18832e-05 -2.18325e-05 0.106361)
(0.000156888 0.000156875 0.106274)
(1.86408e-05 1.87141e-05 0.10651)
(6.12734e-05 9.94928e-05 0.107077)
(-6.12374e-05 9.94091e-05 0.107077)
(6.05521e-05 9.79943e-05 0.107264)
(-6.05165e-05 9.78873e-05 0.107264)
(-0.000156857 0.000156813 0.106274)
(-1.85857e-05 1.86256e-05 0.10651)
(9.94004e-05 6.11519e-05 0.107077)
(9.94915e-05 -6.12675e-05 0.107077)
(9.79363e-05 6.0472e-05 0.107265)
(9.79954e-05 -6.05558e-05 0.107264)
(-9.93757e-05 -6.11024e-05 0.107077)
(-9.77883e-05 6.02996e-05 0.107265)
(-9.78417e-05 -6.03931e-05 0.107264)
(0.000156872 -0.000156898 0.106274)
(1.87398e-05 -1.85967e-05 0.106509)
(-6.09764e-05 -9.92553e-05 0.107077)
(6.03404e-05 -9.79042e-05 0.107265)
(-6.025e-05 -9.77509e-05 0.107265)
(-1.85545e-05 -1.85482e-05 0.106509)
(0.000154827 0.000154822 0.106405)
(1.55244e-05 1.55811e-05 0.106631)
(6.03135e-05 9.75594e-05 0.107325)
(-6.0271e-05 9.74143e-05 0.107325)
(5.95819e-05 9.60489e-05 0.1075)
(-5.95394e-05 9.6004e-05 0.1075)
(-0.000154788 0.000154726 0.106405)
(-1.54672e-05 1.54935e-05 0.106632)
(9.74365e-05 6.02025e-05 0.107325)
(9.75174e-05 -6.03145e-05 0.107325)
(9.60392e-05 5.95005e-05 0.1075)
(9.60903e-05 -5.95919e-05 0.107499)
(-9.73691e-05 -6.01577e-05 0.107325)
(-9.59063e-05 5.93034e-05 0.1075)
(-9.59348e-05 -5.94371e-05 0.1075)
(0.000154796 -0.00015484 0.106405)
(1.55931e-05 -1.54844e-05 0.106631)
(-6.00089e-05 -9.72749e-05 0.107325)
(5.93759e-05 -9.60185e-05 0.1075)
(-5.92769e-05 -9.58706e-05 0.1075)
(-1.54415e-05 -1.54579e-05 0.106631)
(0.00015238 0.0001524 0.106508)
(1.26056e-05 1.25986e-05 0.106725)
(5.93355e-05 9.56234e-05 0.107556)
(-5.92948e-05 9.55402e-05 0.107556)
(5.85491e-05 9.41058e-05 0.107718)
(-5.85437e-05 9.41663e-05 0.107718)
(-0.000152345 0.000152271 0.106509)
(-1.25599e-05 1.24999e-05 0.106726)
(9.55407e-05 5.9194e-05 0.107556)
(9.56303e-05 -5.93475e-05 0.107556)
(9.4191e-05 5.84801e-05 0.107718)
(9.42364e-05 -5.85776e-05 0.107718)
(-9.54926e-05 -5.92003e-05 0.107556)
(-9.40811e-05 5.82899e-05 0.107718)
(-9.40955e-05 -5.84364e-05 0.107718)
(0.000152361 -0.000152427 0.106508)
(1.26439e-05 -1.2545e-05 0.106725)
(-5.90401e-05 -9.54178e-05 0.107556)
(5.83543e-05 -9.41777e-05 0.107718)
(-5.82625e-05 -9.40381e-05 0.107718)
(-1.25008e-05 -1.2515e-05 0.106725)
(0.000149517 0.000149556 0.106585)
(5.82833e-05 9.37198e-05 0.10777)
(-5.82734e-05 9.37111e-05 0.10777)
(-0.000149487 0.000149345 0.106585)
(9.36784e-05 5.81356e-05 0.10777)
(9.37792e-05 -5.83153e-05 0.107769)
(-9.3671e-05 -5.818e-05 0.107769)
(0.000149496 -0.000149578 0.106585)
(-5.80136e-05 -9.35874e-05 0.10777)
(-3.97906e-07 -4.01387e-07 0.0999987)
(1.81949e-05 1.81803e-05 0.100004)
(-1.92519e-07 1.34284e-05 0.1)
(1.34405e-05 -1.9564e-07 0.1)
(-5.18385e-05 7.01948e-06 0.100012)
(-2.01533e-05 1.84647e-05 0.100002)
(-0.000135208 6.0109e-05 0.100068)
(-1.24821e-05 -5.54571e-07 0.0999962)
(6.97559e-06 -5.16923e-05 0.100012)
(1.84741e-05 -2.01278e-05 0.100002)
(-5.56875e-07 -1.24732e-05 0.0999962)
(5.8953e-05 -0.000136083 0.100069)
(-2.44738e-05 -2.44919e-05 0.100007)
(-0.000134234 -8.02981e-05 0.100055)
(-8.05177e-05 -0.000133975 0.100056)
(-1.32623e-05 0.000146712 0.100669)
(0.000225974 0.000577026 0.0996102)
(1.11538e-05 0.00033544 0.100561)
(-3.70195e-05 0.00036632 0.0990401)
(-0.000414889 0.000956939 0.0979423)
(-0.00021033 0.000401022 0.0956674)
(0.000146885 -1.33764e-05 0.100669)
(0.000578635 0.000225558 0.0996121)
(0.000336358 1.13475e-05 0.100561)
(0.000366464 -3.85902e-05 0.0990396)
(-0.000106182 0.000106128 0.100294)
(0.000106194 -0.000106177 0.100294)
(-0.000106172 -0.000106203 0.100294)
(9.48272e-05 9.47367e-05 0.100733)
(-9.47772e-05 9.47027e-05 0.100733)
(9.47916e-05 -9.48331e-05 0.100733)
(-9.48091e-05 -9.48292e-05 0.100733)
(-0.000253018 5.90521e-06 0.100719)
(-0.000387467 0.000205697 0.100573)
(-0.000169167 3.99493e-05 0.100332)
(-0.000145243 8.85822e-05 0.100561)
(-0.000335566 2.682e-05 0.100497)
(-0.000150162 0.000168247 0.100661)
(-0.00014121 3.22514e-05 0.100498)
(0.000955271 -0.00041163 0.0979385)
(0.000400007 -0.000207896 0.095668)
(6.07855e-06 -0.0002531 0.100719)
(3.99912e-05 -0.000169166 0.100331)
(0.00020503 -0.000387226 0.100572)
(8.8539e-05 -0.000145272 0.100561)
(2.65699e-05 -0.000335451 0.100497)
(3.2339e-05 -0.000141187 0.100498)
(0.000169328 -0.000150606 0.100661)
(-0.000417076 -0.000169424 0.100453)
(-0.000169298 -0.000419252 0.100453)
(-0.000112587 -0.000112629 0.100646)
(-2.22837e-05 -9.06331e-05 0.10049)
(-9.1112e-05 -2.02455e-05 0.10049)
(1.11762e-06 0.000177578 0.100868)
(-4.52119e-05 0.000356593 0.0983226)
(-3.2455e-06 0.000191942 0.100779)
(-3.90958e-05 0.000318987 0.0979417)
(-0.000195879 0.0003228 0.0926307)
(-0.000171197 0.000277921 0.0910086)
(0.000177695 7.45575e-07 0.100867)
(0.000357308 -4.54357e-05 0.098324)
(0.000192249 -3.52017e-06 0.10078)
(0.000319136 -3.87483e-05 0.0979426)
(-9.7175e-05 9.71184e-05 0.100854)
(9.71797e-05 -9.71887e-05 0.100854)
(-9.72023e-05 -9.71842e-05 0.100854)
(9.72039e-05 9.72092e-05 0.101238)
(-9.71977e-05 9.72123e-05 0.101238)
(9.71908e-05 -9.72331e-05 0.101238)
(-9.72308e-05 -9.71993e-05 0.101238)
(-0.00024828 1.97323e-05 0.101155)
(-0.000205093 0.000198264 0.100823)
(-0.000156671 3.04028e-05 0.100889)
(-0.000151832 9.27257e-05 0.101063)
(-0.0002887 1.81365e-05 0.100986)
(-0.000171519 0.000183289 0.100948)
(-0.000158615 3.05306e-05 0.101015)
(0.0003233 -0.000195168 0.0926276)
(0.000278288 -0.000170623 0.0910091)
(1.99061e-05 -0.000248212 0.101155)
(3.04695e-05 -0.000156686 0.100889)
(0.000198473 -0.000204977 0.100824)
(9.27978e-05 -0.000151875 0.101063)
(1.83314e-05 -0.000288564 0.100986)
(3.05816e-05 -0.000158647 0.101015)
(0.000183754 -0.000171441 0.100948)
(-5.83628e-05 -9.16835e-05 0.10044)
(-9.15116e-05 -5.93267e-05 0.10044)
(-0.000108714 -0.000108654 0.101146)
(-6.36077e-05 -7.27731e-05 0.10044)
(-7.2675e-05 -6.36836e-05 0.100439)
(3.94078e-06 0.00019582 0.100969)
(-1.98482e-05 0.000326096 0.0971203)
(2.45296e-06 0.000223274 0.100898)
(-1.10585e-05 0.00028457 0.0967103)
(-0.000147001 0.000232441 0.0883817)
(-0.000119417 0.000189493 0.0870815)
(0.000195749 3.7971e-06 0.100967)
(0.000326522 -2.00342e-05 0.097121)
(0.000223312 2.34086e-06 0.100899)
(0.000284885 -1.11374e-05 0.0967109)
(-9.70336e-05 9.70635e-05 0.101369)
(9.70369e-05 -9.70728e-05 0.101369)
(-9.70839e-05 -9.70436e-05 0.101369)
(9.55891e-05 9.56009e-05 0.101758)
(-9.55311e-05 9.55773e-05 0.101758)
(9.55852e-05 -9.55714e-05 0.101758)
(-9.55962e-05 -9.5565e-05 0.101758)
(-0.000241894 1.84296e-05 0.101587)
(-0.000220852 0.000187829 0.101026)
(-0.000161052 3.06439e-05 0.101404)
(-0.000152009 9.02559e-05 0.101575)
(-0.00028754 1.8707e-05 0.101417)
(-0.000177253 0.000163942 0.101134)
(-0.000161363 3.05794e-05 0.101534)
(0.000232282 -0.000146357 0.0883777)
(0.000189461 -0.000118983 0.0870828)
(1.86717e-05 -0.000241958 0.101587)
(3.07291e-05 -0.000161082 0.101404)
(0.000187997 -0.000220902 0.101027)
(9.02492e-05 -0.000152014 0.101575)
(1.89663e-05 -0.000287675 0.101417)
(3.0669e-05 -0.000161374 0.101534)
(0.000163943 -0.000177206 0.101133)
(-9.76824e-05 -8.5844e-05 0.10018)
(-8.58296e-05 -9.75056e-05 0.100179)
(-0.000102035 -0.000101931 0.10165)
(-9.42003e-05 -6.30589e-05 0.100112)
(-6.30405e-05 -9.41927e-05 0.100111)
(3.08192e-06 0.000198046 0.10097)
(5.35904e-06 0.000290061 0.0958323)
(2.5965e-06 0.000234304 0.100922)
(9.88363e-06 0.000245386 0.0954173)
(-9.83894e-05 0.000157172 0.0849698)
(-7.37859e-05 0.000120084 0.0839842)
(0.000197903 2.90574e-06 0.100968)
(0.000290233 5.39631e-06 0.0958325)
(0.0002343 2.4926e-06 0.100922)
(0.00024554 1.00901e-05 0.0954177)
(-9.47728e-05 9.48187e-05 0.101886)
(9.48359e-05 -9.48195e-05 0.101886)
(-9.48365e-05 -9.48169e-05 0.101886)
(9.23196e-05 9.23288e-05 0.102267)
(-9.225e-05 9.22867e-05 0.102267)
(9.23115e-05 -9.23194e-05 0.102267)
(-9.23055e-05 -9.23044e-05 0.102267)
(-0.00023061 1.61216e-05 0.101987)
(-0.000219858 0.000165806 0.101137)
(-0.000159781 2.99617e-05 0.101919)
(-0.000147949 8.59834e-05 0.102078)
(-0.000281556 1.62919e-05 0.101825)
(-0.000171231 0.000138558 0.101225)
(-0.000158771 2.96888e-05 0.102046)
(0.000157102 -9.79517e-05 0.0849657)
(0.000120125 -7.34229e-05 0.0839855)
(1.61643e-05 -0.000230639 0.101987)
(3.00299e-05 -0.000159786 0.101919)
(0.000166017 -0.00021987 0.101137)
(8.60566e-05 -0.000147977 0.102078)
(1.63756e-05 -0.000281597 0.101825)
(2.97515e-05 -0.000158765 0.102046)
(0.000138558 -0.000171156 0.101224)
(-0.000118643 -7.57373e-05 0.0997175)
(-7.55711e-05 -0.000118694 0.0997167)
(-9.31953e-05 -9.3154e-05 0.102137)
(-0.000109544 -5.16657e-05 0.0996046)
(-5.14552e-05 -0.000109639 0.0996031)
(1.01873e-06 0.000191226 0.100874)
(1.85223e-05 0.000251755 0.0945316)
(9.27301e-07 0.000233483 0.100847)
(1.8319e-05 0.000205942 0.0941368)
(-6.08188e-05 0.000103252 0.0823363)
(-4.08223e-05 7.26871e-05 0.0816126)
(0.000191088 9.76463e-07 0.100872)
(0.0002519 1.85653e-05 0.0945307)
(0.000233456 9.00957e-07 0.100848)
(0.000206073 1.84953e-05 0.094137)
(-9.13736e-05 9.14005e-05 0.102391)
(9.14272e-05 -9.14478e-05 0.102391)
(-9.14254e-05 -9.14226e-05 0.102391)
(8.88249e-05 8.88238e-05 0.102758)
(-8.87553e-05 8.87659e-05 0.102757)
(8.88006e-05 -8.88394e-05 0.102758)
(-8.88044e-05 -8.88031e-05 0.102757)
(-0.000216021 1.40848e-05 0.102346)
(-0.000211281 0.000143358 0.101154)
(-0.000154934 2.88587e-05 0.102419)
(-0.000142113 8.12975e-05 0.102561)
(-0.000270571 1.39683e-05 0.102193)
(-0.00016053 0.000114939 0.101226)
(-0.000153487 2.85975e-05 0.102541)
(0.000103126 -6.03337e-05 0.0823326)
(7.26013e-05 -4.03327e-05 0.0816145)
(1.42501e-05 -0.000216132 0.102346)
(2.89343e-05 -0.000154957 0.102419)
(0.000143315 -0.000211383 0.101155)
(8.1352e-05 -0.000142176 0.102561)
(1.40704e-05 -0.000270709 0.102193)
(2.86775e-05 -0.000153502 0.102541)
(0.000114717 -0.000160595 0.101224)
(-0.000126946 -6.69333e-05 0.0991144)
(-6.6735e-05 -0.000127035 0.0991134)
(-8.39321e-05 -8.38822e-05 0.102597)
(-0.000113926 -4.29599e-05 0.0989729)
(-4.27985e-05 -0.000114 0.0989711)
(-6.06455e-07 0.000179707 0.100691)
(2.04771e-05 0.000215593 0.0932802)
(-9.39955e-07 0.000226064 0.100682)
(1.71794e-05 0.000169712 0.0929212)
(-3.56215e-05 6.86269e-05 0.0803315)
(-1.93978e-05 4.25837e-05 0.0798086)
(0.000179593 -5.99119e-07 0.10069)
(0.000215589 2.05455e-05 0.0932787)
(0.000226077 -8.64682e-07 0.100684)
(0.000169738 1.73976e-05 0.0929217)
(-8.7907e-05 8.79191e-05 0.102877)
(8.79589e-05 -8.79929e-05 0.102877)
(-8.79558e-05 -8.79566e-05 0.102877)
(8.55839e-05 8.55748e-05 0.103229)
(-8.55041e-05 8.55135e-05 0.103229)
(8.55755e-05 -8.55868e-05 0.103229)
(-8.55438e-05 -8.55527e-05 0.103229)
(-0.000200291 1.26577e-05 0.102663)
(-0.00019976 0.000124223 0.101088)
(-0.00014898 2.7886e-05 0.102898)
(-0.000136288 7.74585e-05 0.103019)
(-0.000257236 1.21553e-05 0.102518)
(-0.000148325 9.51812e-05 0.101146)
(-0.000147467 2.76723e-05 0.103014)
(6.86723e-05 -3.53255e-05 0.0803282)
(4.26239e-05 -1.90433e-05 0.0798106)
(1.28262e-05 -0.000200369 0.102662)
(2.79787e-05 -0.000149009 0.102898)
(0.000124171 -0.000199969 0.101088)
(7.75076e-05 -0.000136352 0.103019)
(1.23376e-05 -0.000257387 0.102518)
(2.77655e-05 -0.000147485 0.103014)
(9.50235e-05 -0.000148445 0.101145)
(-0.000126972 -6.11332e-05 0.0984171)
(-6.09963e-05 -0.000126971 0.0984162)
(-7.56973e-05 -7.56359e-05 0.103029)
(-0.000111419 -3.72532e-05 0.0982589)
(-3.71272e-05 -0.000111452 0.0982571)
(-1.11669e-06 0.000165909 0.100437)
(1.58191e-05 0.00018394 0.0921148)
(-1.76885e-06 0.000215258 0.100442)
(1.1024e-05 0.000138377 0.0917989)
(-2.04031e-05 4.8043e-05 0.0788006)
(-6.51845e-06 2.44541e-05 0.0784253)
(0.000165847 -1.08058e-06 0.100436)
(0.000183885 1.58262e-05 0.0921134)
(0.000215317 -1.69014e-06 0.100443)
(0.000138367 1.11768e-05 0.0917996)
(-8.47603e-05 8.4766e-05 0.103344)
(8.48333e-05 -8.48394e-05 0.103344)
(-8.4794e-05 -8.4806e-05 0.103344)
(8.27808e-05 8.27648e-05 0.103682)
(-8.26966e-05 8.26965e-05 0.103682)
(8.27658e-05 -8.27571e-05 0.103682)
(-8.27198e-05 -8.27301e-05 0.103682)
(-0.000184949 1.19217e-05 0.102939)
(-0.000187638 0.000108647 0.100948)
(-0.000143072 2.71174e-05 0.103356)
(-0.000131062 7.43799e-05 0.103455)
(-0.000243506 1.10488e-05 0.1028)
(-0.000136235 7.89832e-05 0.100996)
(-0.00014167 2.69568e-05 0.103467)
(4.80275e-05 -2.00567e-05 0.0787971)
(2.4605e-05 -6.27727e-06 0.0784277)
(1.19644e-05 -0.000184912 0.102938)
(2.72102e-05 -0.000143076 0.103356)
(0.000108716 -0.000187859 0.100949)
(7.44611e-05 -0.000131092 0.103455)
(1.11413e-05 -0.000243566 0.1028)
(2.70455e-05 -0.000141651 0.103467)
(7.89034e-05 -0.000136291 0.100995)
(-0.000122126 -5.73025e-05 0.0976619)
(-5.71472e-05 -0.000122167 0.097661)
(-6.84168e-05 -6.83798e-05 0.103433)
(-0.000104978 -3.3186e-05 0.0974966)
(-3.29946e-05 -0.000105052 0.0974948)
(-6.20997e-07 0.000151355 0.100123)
(8.37828e-06 0.00015745 0.0910512)
(-1.50359e-06 0.000202824 0.100139)
(3.29116e-06 0.000112472 0.0907782)
(-1.15628e-05 3.62122e-05 0.0776176)