/*--------------------------------*- C++ -*----------------------------------*\
| =========                 |                                                 |
| \\      /  F ield         | OpenFOAM: The Open Source CFD Toolbox           |
|  \\    /   O peration     | Version:  v1906                                 |
|   \\  /    A nd           | Web:      www.OpenFOAM.com                      |
|    \\/     M anipulation  |                                                 |
\*---------------------------------------------------------------------------*/
FoamFile
{
    version     2.0;
    format      ascii;
    class       volScalarField;
    location    "750";
    object      epsilon;
}
// * * * * * * * * * * * * * * * * * * * * * * * * * * * * * * * * * * * * * //

dimensions      [0 2 -3 0 0 0 0];


internalField   nonuniform List<scalar> 
43248
(
1.15383e-06
8.68606e-07
8.6857e-07
1.15376e-06
8.68331e-07
8.68629e-07
8.68384e-07
8.68634e-07
1.15388e-06
8.68498e-07
8.68502e-07
1.15393e-06
3.2284e-07
3.22839e-07
3.22921e-07
3.22917e-07
1.84316e-05
1.84334e-05
5.46276e-06
5.4639e-06
4.09062e-06
9.16329e-06
4.09325e-06
4.09069e-06
9.16429e-06
9.15745e-06
4.09337e-06
2.10403e-06
3.4765e-06
5.62306e-07
5.56366e-07
2.10994e-06
2.1041e-06
8.62471e-07
3.47686e-06
5.62336e-07
3.47332e-06
5.56407e-07
2.10999e-06
1.84329e-05
1.84229e-05
1.14939e-06
5.46421e-06
5.46229e-06
5.46119e-06
5.45941e-06
1.84305e-05
1.84204e-05
9.16503e-06
4.09362e-06
3.47689e-06
5.62379e-07
2.11009e-06
9.16445e-06
4.09354e-06
5.62407e-07
3.47688e-06
2.11003e-06
2.10415e-06
8.62284e-07
3.47646e-06
5.62322e-07
3.47296e-06
5.56397e-07
2.11004e-06
4.09077e-06
9.1642e-06
9.15738e-06
4.09343e-06
2.1041e-06
8.6253e-07
5.62384e-07
3.47647e-06
5.56457e-07
3.47293e-06
2.10999e-06
4.09069e-06
9.16415e-06
9.15732e-06
4.09332e-06
1.84336e-05
5.46407e-06
5.46248e-06
1.84323e-05
2.10421e-06
5.62417e-07
3.47655e-06
5.56474e-07
2.11005e-06
2.10426e-06
8.62403e-07
5.62432e-07
3.47706e-06
5.56507e-07
3.47353e-06
2.11009e-06
4.09046e-06
9.16438e-06
4.09355e-06
4.09058e-06
9.16527e-06
9.15844e-06
4.0936e-06
1.14955e-06
5.46246e-06
5.46438e-06
5.45943e-06
5.46133e-06
1.84322e-05
1.84222e-05
1.8434e-05
1.8424e-05
1.84268e-05
1.8429e-05
4.53926e-06
2.81612e-06
5.4618e-06
9.5045e-06
9.50044e-06
2.81308e-06
4.54317e-06
4.54592e-06
2.815e-06
5.46361e-06
9.50737e-06
9.50478e-06
2.81493e-06
4.54466e-06
9.7344e-06
2.17351e-05
2.17327e-05
2.17296e-05
2.17284e-05
9.73475e-06
1.22035e-05
1.08247e-05
4.74269e-06
4.0913e-06
1.22009e-05
1.0827e-05
4.7433e-06
2.20552e-05
9.16045e-06
7.08633e-06
7.08642e-06
2.20607e-05
1.22043e-05
4.09256e-06
1.08302e-05
4.74496e-06
1.08278e-05
4.74437e-06
1.22069e-05
1.22036e-05
1.08248e-05
4.74273e-06
4.09142e-06
1.2201e-05
1.08271e-05
4.74375e-06
2.20556e-05
9.16149e-06
7.08801e-06
7.0879e-06
2.20608e-05
2.20561e-05
7.08685e-06
9.16024e-06
2.20509e-05
7.08696e-06
1.22044e-05
4.09263e-06
1.08303e-05
4.7454e-06
1.0828e-05
4.74438e-06
1.2207e-05
1.84283e-05
1.84275e-05
9.73241e-06
2.1723e-05
2.17237e-05
9.73196e-06
2.17278e-05
2.17285e-05
4.54591e-06
2.81609e-06
5.46355e-06
9.50794e-06
2.81432e-06
9.50461e-06
4.54659e-06
4.53989e-06
2.81488e-06
5.46178e-06
9.50332e-06
9.49999e-06
2.81312e-06
4.5406e-06
4.54397e-06
9.49983e-06
2.81108e-06
5.46185e-06
2.81289e-06
4.54328e-06
9.50316e-06
4.53798e-06
9.49521e-06
2.80989e-06
5.45992e-06
4.53726e-06
9.49855e-06
2.81168e-06
9.73399e-06
2.1733e-05
2.17337e-05
2.17281e-05
2.17288e-05
9.73444e-06
1.84258e-05
1.8425e-05
2.20555e-05
9.16229e-06
7.08797e-06
7.08781e-06
2.20607e-05
1.22046e-05
4.09244e-06
4.74541e-06
1.08308e-05
4.74436e-06
1.08285e-05
1.22072e-05
2.20554e-05
9.16166e-06
7.08649e-06
7.08655e-06
2.20609e-05
1.22047e-05
4.09238e-06
1.08306e-05
4.74512e-06
1.08283e-05
4.74441e-06
1.22073e-05
1.22034e-05
4.74262e-06
1.08251e-05
4.09148e-06
1.22008e-05
4.74364e-06
1.08274e-05
2.20547e-05
9.16141e-06
7.08756e-06
7.08744e-06
2.20599e-05
2.20551e-05
7.08639e-06
9.16015e-06
2.205e-05
7.08651e-06
1.22042e-05
4.09272e-06
4.7453e-06
1.08306e-05
4.74428e-06
1.08283e-05
1.22068e-05
1.22037e-05
1.0825e-05
4.74244e-06
4.09138e-06
1.22011e-05
1.08273e-05
4.74345e-06
2.20551e-05
9.16135e-06
7.0861e-06
7.08599e-06
2.20603e-05
2.20556e-05
7.08494e-06
9.16011e-06
2.20504e-05
7.08505e-06
1.22046e-05
4.09264e-06
1.08305e-05
4.74511e-06
1.08281e-05
4.74409e-06
1.22072e-05
1.84289e-05
4.54626e-06
2.81611e-06
5.46356e-06
9.50799e-06
2.81445e-06
9.50465e-06
4.54693e-06
4.5403e-06
2.8151e-06
5.46184e-06
9.50343e-06
9.50011e-06
2.81333e-06
4.54095e-06
9.73487e-06
2.17341e-05
2.17345e-05
2.17292e-05
2.17296e-05
9.73532e-06
1.84278e-05
1.22038e-05
4.74246e-06
1.08253e-05
4.09161e-06
1.22012e-05
4.74345e-06
1.08276e-05
2.20555e-05
9.16158e-06
7.08623e-06
7.08607e-06
2.20607e-05
2.20559e-05
7.08515e-06
1.22046e-05
4.09241e-06
4.74513e-06
1.08308e-05
4.74409e-06
1.08285e-05
1.22072e-05
1.22036e-05
4.74296e-06
1.08254e-05
4.09165e-06
1.2201e-05
4.74358e-06
1.08277e-05
2.20551e-05
9.16247e-06
7.08783e-06
7.08791e-06
2.20606e-05
2.20559e-05
7.08687e-06
9.16123e-06
2.20504e-05
7.0868e-06
1.22044e-05
4.09253e-06
4.74521e-06
1.08309e-05
4.74463e-06
1.08286e-05
1.22071e-05
9.73286e-06
2.17242e-05
2.17235e-05
9.73242e-06
2.1729e-05
2.17283e-05
4.54011e-06
2.81503e-06
5.46179e-06
9.50344e-06
2.81323e-06
9.50011e-06
4.5408e-06
4.5461e-06
2.81629e-06
5.4637e-06
9.50821e-06
2.81441e-06
9.50488e-06
4.5468e-06
4.53819e-06
9.49533e-06
2.81001e-06
5.4601e-06
4.53749e-06
2.81183e-06
9.49867e-06
4.54419e-06
9.50011e-06
2.81118e-06
5.46202e-06
4.54347e-06
2.8131e-06
9.50344e-06
9.73444e-06
2.17342e-05
2.17334e-05
2.17293e-05
2.17286e-05
9.73488e-06
1.84277e-05
1.84268e-05
1.84294e-05
1.84286e-05
2.67138e-06
1.15453e-06
1.77353e-06
1.77268e-06
1.77248e-06
1.77297e-06
2.67215e-06
2.67131e-06
1.15446e-06
1.77314e-06
1.773e-06
1.77284e-06
1.77267e-06
2.67204e-06
2.67146e-06
1.15458e-06
1.77321e-06
1.77312e-06
1.7729e-06
1.77278e-06
2.67221e-06
2.67143e-06
1.15462e-06
1.77307e-06
1.77332e-06
1.77273e-06
1.773e-06
2.67218e-06
1.68197e-07
1.68179e-07
1.66059e-07
7.99967e-08
8.05515e-08
3.18861e-07
1.68198e-07
1.6816e-07
1.66058e-07
1.66021e-07
7.99942e-08
8.05488e-08
1.68244e-07
1.68214e-07
1.66071e-07
8.00135e-08
8.0569e-08
3.18937e-07
1.68236e-07
1.68211e-07
1.66094e-07
1.6607e-07
8.00119e-08
8.05676e-08
1.41452e-06
2.36307e-06
1.27749e-06
2.10625e-06
1.41507e-06
2.36506e-06
1.27761e-06
1.62123e-06
2.03671e-06
3.47576e-06
2.86181e-06
2.0359e-06
2.86125e-06
1.62094e-06
1.42028e-06
2.10774e-06
2.36848e-06
1.28299e-06
2.36652e-06
1.28288e-06
1.41973e-06
1.41469e-06
2.36334e-06
1.27754e-06
2.10631e-06
1.41524e-06
2.36532e-06
1.27766e-06
1.62146e-06
2.03686e-06
3.4762e-06
2.86235e-06
2.8618e-06
2.03627e-06
1.62114e-06
1.6165e-06
2.85882e-06
2.03221e-06
3.47399e-06
1.6168e-06
2.85938e-06
2.03282e-06
1.42044e-06
2.10781e-06
2.36873e-06
1.28304e-06
2.36678e-06
1.28293e-06
1.41988e-06
2.66878e-06
1.1487e-06
1.76867e-06
1.76851e-06
1.769e-06
2.66804e-06
1.76885e-06
1.62144e-06
2.03674e-06
3.47635e-06
2.86236e-06
2.03635e-06
2.86174e-06
1.62109e-06
1.42047e-06
2.10791e-06
2.36874e-06
1.28313e-06
2.36678e-06
1.28302e-06
1.4199e-06
1.62131e-06
2.03683e-06
3.47627e-06
2.8619e-06
2.86133e-06
2.03623e-06
1.621e-06
1.42037e-06
2.10784e-06
1.28309e-06
2.36858e-06
1.28298e-06
2.36661e-06
1.41981e-06
1.41464e-06
2.36329e-06
1.27756e-06
2.10636e-06
1.4152e-06
2.36526e-06
1.2777e-06
1.62133e-06
2.03649e-06
3.47584e-06
2.86213e-06
2.03589e-06
2.8616e-06
1.621e-06
1.61636e-06
2.85862e-06
2.03182e-06
3.47359e-06
1.61667e-06
2.03245e-06
2.85917e-06
1.4204e-06
2.10786e-06
2.36867e-06
1.28307e-06
2.36673e-06
1.28296e-06
1.41983e-06
1.41461e-06
1.27754e-06
2.36316e-06
2.10631e-06
1.41515e-06
1.27768e-06
2.36513e-06
1.62128e-06
2.03657e-06
3.47581e-06
2.8618e-06
2.86126e-06
2.03595e-06
1.62096e-06
1.61633e-06
2.85829e-06
2.0319e-06
3.47361e-06
1.61663e-06
2.85884e-06
2.03253e-06
1.42034e-06
2.1078e-06
1.28305e-06
2.36854e-06
1.28293e-06
2.36659e-06
1.41979e-06
1.41464e-06
1.27763e-06
2.3632e-06
2.10638e-06
1.4152e-06
1.27776e-06
2.36514e-06
1.62129e-06
2.03658e-06
3.47588e-06
2.86186e-06
2.03599e-06
2.86121e-06
1.62096e-06
1.61632e-06
2.85887e-06
1.42039e-06
2.10792e-06
1.28313e-06
2.36857e-06
1.28302e-06
2.36663e-06
1.41983e-06
1.41479e-06
1.27766e-06
2.3634e-06
2.10642e-06
1.41534e-06
1.2778e-06
2.36536e-06
1.62151e-06
2.03698e-06
3.4764e-06
2.86234e-06
2.86179e-06
2.03638e-06
1.62118e-06
1.61654e-06
2.85881e-06
2.03232e-06
3.4742e-06
1.61686e-06
2.85938e-06
2.03294e-06
1.42053e-06
2.10797e-06
1.28317e-06
2.36876e-06
1.28306e-06
2.36684e-06
1.41996e-06
2.66893e-06
1.14887e-06
1.76857e-06
1.76884e-06
2.66816e-06
1.76892e-06
1.76918e-06
1.33749e-07
2.30887e-07
2.30923e-07
3.58396e-07
3.52913e-07
2.28647e-07
2.28662e-07
3.52873e-07
2.28583e-07
2.28687e-07
2.28549e-07
2.28629e-07
3.52948e-07
2.28584e-07
2.28592e-07
3.52938e-07
3.58367e-07
3.78396e-07
2.30946e-07
2.31005e-07
2.38812e-07
2.38821e-07
3.58334e-07
3.78357e-07
2.30962e-07
2.31029e-07
2.38708e-07
2.38844e-07
2.30968e-07
2.38691e-07
2.38779e-07
3.58405e-07
3.78441e-07
2.30931e-07
2.38729e-07
2.38739e-07
3.78432e-07
1.34412e-07
1.3441e-07
1.3442e-07
1.34414e-07
3.68234e-06
8.90806e-06
3.64886e-06
8.91303e-06
1.84664e-05
1.8458e-05
3.68289e-06
8.90978e-06
3.64869e-06
8.9148e-06
1.33745e-07
1.33755e-07
1.33749e-07
1.3207e-07
1.32068e-07
1.32079e-07
1.32073e-07
1.15861e-06
2.79621e-06
1.58617e-07
2.33357e-07
1.13072e-06
2.81983e-06
1.58833e-07
1.84683e-05
1.84599e-05
1.15865e-06
1.58615e-07
2.79632e-06
2.33393e-07
1.13076e-06
1.58841e-07
2.82005e-06
5.13142e-06
5.1333e-06
3.65307e-07
5.14374e-06
5.14577e-06
1.8472e-05
1.84807e-05
1.8474e-05
1.84827e-05
3.46455e-07
5.12475e-06
5.12715e-06
5.11149e-06
5.11291e-06
3.59969e-06
8.90719e-06
8.90196e-06
3.63705e-06
3.59975e-06
8.90815e-06
8.90289e-06
3.63716e-06
1.08806e-06
2.26405e-07
2.7831e-06
1.58499e-07
2.75809e-06
1.58449e-07
1.11603e-06
1.08809e-06
2.26453e-07
2.78363e-06
1.58507e-07
2.75846e-06
1.58457e-07
1.11606e-06
1.84729e-05
1.84816e-05
3.46421e-07
5.12683e-06
5.12474e-06
5.11292e-06
5.11142e-06
1.84715e-05
1.84803e-05
3.5995e-06
8.90894e-06
8.90366e-06
3.63764e-06
1.08817e-06
2.26411e-07
2.78368e-06
1.58504e-07
2.75852e-06
1.58453e-07
1.11614e-06
3.59947e-06
8.9086e-06
8.90337e-06
3.63756e-06
1.08815e-06
2.26478e-07
1.5851e-07
2.78374e-06
1.58459e-07
2.75871e-06
1.11613e-06
1.08808e-06
2.26341e-07
2.783e-06
1.58495e-07
2.75795e-06
1.58445e-07
1.11605e-06
3.59978e-06
8.90824e-06
8.90301e-06
3.63722e-06
1.08806e-06
2.26418e-07
1.58498e-07
2.78322e-06
1.58449e-07
2.75807e-06
1.11604e-06
3.59973e-06
8.90792e-06
8.90264e-06
3.63711e-06
1.84748e-05
1.84835e-05
3.46488e-07
5.12674e-06
5.12509e-06
5.11343e-06
5.1113e-06
1.84727e-05
1.84815e-05
1.08813e-06
2.26377e-07
1.58499e-07
2.78321e-06
1.58448e-07
2.75807e-06
1.11609e-06
1.08816e-06
2.26382e-07
1.58498e-07
2.78373e-06
1.58448e-07
2.7586e-06
1.11612e-06
3.59937e-06
8.90801e-06
8.90273e-06
3.63761e-06
3.59945e-06
8.90908e-06
8.90381e-06
3.6377e-06
3.46478e-07
5.12511e-06
5.12716e-06
5.11129e-06
5.11317e-06
1.84728e-05
1.84815e-05
1.84743e-05
1.8483e-05
1.84655e-05
1.84571e-05
1.84674e-05
1.8459e-05
5.13149e-06
5.13304e-06
3.65277e-07
5.14343e-06
5.1457e-06
1.8443e-05
1.84508e-05
1.84444e-05
1.84527e-05
3.71055e-07
5.16092e-06
5.16206e-06
5.14967e-06
5.15136e-06
3.68245e-06
8.90899e-06
3.64893e-06
8.914e-06
1.15858e-06
2.79632e-06
1.58621e-07
2.33462e-07
1.1307e-06
2.8199e-06
1.58839e-07
1.15862e-06
2.79673e-06
1.58631e-07
2.33478e-07
1.13072e-06
2.82046e-06
1.58845e-07
3.69296e-06
8.9186e-06
8.91385e-06
3.72274e-06
3.69303e-06
8.91953e-06
8.91478e-06
3.72286e-06
1.17316e-06
2.36019e-07
2.85473e-06
1.59524e-07
2.83239e-06
1.59141e-07
1.20082e-06
1.17319e-06
2.36084e-07
2.85515e-06
1.59532e-07
2.8328e-06
1.59153e-07
1.20085e-06
5.13302e-06
5.13144e-06
3.65236e-07
5.14544e-06
5.14346e-06
1.8465e-05
1.84566e-05
1.84437e-05
1.84517e-05
3.71024e-07
5.16236e-06
5.16045e-06
5.15122e-06
5.14957e-06
1.84423e-05
1.84504e-05
1.15868e-06
2.79678e-06
1.58623e-07
2.33387e-07
1.13081e-06
2.82049e-06
1.58845e-07
3.68282e-06
8.90948e-06
3.64864e-06
8.91445e-06
1.15868e-06
1.58633e-07
2.79696e-06
2.33502e-07
1.13079e-06
1.58847e-07
2.82055e-06
3.6928e-06
8.92029e-06
8.91559e-06
3.72327e-06
1.17329e-06
2.36042e-07
2.85503e-06
1.59532e-07
2.83287e-06
1.59142e-07
1.20089e-06
3.69277e-06
8.91997e-06
8.91527e-06
3.7232e-06
1.17327e-06
2.36108e-07
1.59531e-07
2.85522e-06
1.59152e-07
2.83303e-06
1.20089e-06
3.68248e-06
8.90912e-06
3.64897e-06
8.9141e-06
1.15859e-06
1.58621e-07
2.79634e-06
2.3344e-07
1.1307e-06
1.58836e-07
2.82004e-06
3.68238e-06
8.90876e-06
3.64891e-06
8.91378e-06
1.1732e-06
2.35958e-07
2.85452e-06
1.59517e-07
2.83229e-06
1.59137e-07
1.20082e-06
3.6931e-06
8.91963e-06
8.91492e-06
3.72287e-06
1.17318e-06
2.36044e-07
1.59522e-07
2.85472e-06
1.59141e-07
2.83242e-06
1.20081e-06
3.69305e-06
8.91932e-06
8.91457e-06
3.72276e-06
5.13344e-06
5.13138e-06
3.65317e-07
5.14546e-06
5.14376e-06
1.84662e-05
1.84578e-05
1.84456e-05
1.84536e-05
3.71098e-07
5.16242e-06
5.16065e-06
5.15157e-06
5.14956e-06
1.84434e-05
1.84515e-05
1.15868e-06
1.58621e-07
2.79687e-06
2.33402e-07
1.1308e-06
1.58837e-07
2.82056e-06
3.68287e-06
8.90886e-06
3.64856e-06
8.91388e-06
3.68296e-06
8.90993e-06
3.64863e-06
8.91494e-06
1.17324e-06
2.35996e-07
1.59527e-07
2.85474e-06
1.59134e-07
2.8324e-06
1.20086e-06
1.17328e-06
2.36004e-07
1.59522e-07
2.85523e-06
1.59141e-07
2.83294e-06
1.2009e-06
3.69268e-06
8.91943e-06
8.91467e-06
3.72326e-06
3.69276e-06
8.92048e-06
8.91573e-06
3.72336e-06
1.84663e-05
1.84579e-05
1.84678e-05
1.84594e-05
3.7109e-07
5.16069e-06
5.16269e-06
5.14961e-06
5.1515e-06
1.84436e-05
1.84516e-05
1.84451e-05
1.84532e-05
1.21277e-05
3.67154e-06
1.06712e-05
4.49083e-06
1.06673e-05
4.48226e-06
1.21304e-05
2.24343e-05
7.21066e-06
8.91015e-06
2.24349e-05
7.21114e-06
1.21271e-05
3.66032e-06
1.06621e-05
4.46663e-06
1.21243e-05
1.06659e-05
4.47568e-06
2.24252e-05
7.21259e-06
8.911e-06
7.21226e-06
2.24246e-05
1.84653e-05
1.8459e-05
1.21277e-05
3.67137e-06
4.49141e-06
1.06715e-05
4.48226e-06
1.06677e-05
1.21304e-05
2.2434e-05
7.21209e-06
8.91191e-06
2.24347e-05
7.21322e-06
1.21271e-05
3.66088e-06
4.4666e-06
1.06624e-05
1.21243e-05
4.47629e-06
1.06662e-05
2.24251e-05
7.21459e-06
8.91273e-06
7.21377e-06
2.24244e-05
1.84673e-05
1.84609e-05
9.72131e-06
2.19016e-05
2.19009e-05
2.19031e-05
2.19025e-05
9.72115e-06
3.96116e-06
1.9262e-06
9.03412e-06
5.13466e-06
3.95416e-06
1.93573e-06
9.03934e-06
3.96814e-06
1.92776e-06
9.03892e-06
5.1367e-06
3.96099e-06
1.93741e-06
9.04415e-06
9.72072e-06
2.19133e-05
2.19127e-05
9.72073e-06
2.19118e-05
2.19111e-05
3.97059e-06
9.04656e-06
5.14075e-06
1.95686e-06
1.94747e-06
9.04153e-06
3.97725e-06
3.97741e-06
9.05138e-06
5.14262e-06
1.95854e-06
1.94902e-06
9.04634e-06
3.98424e-06
1.8473e-05
1.84796e-05
1.84751e-05
1.84816e-05
9.71852e-06
2.1933e-05
2.19331e-05
9.71836e-06
2.19315e-05
2.19316e-05
3.93675e-06
1.91425e-06
5.12174e-06
9.03144e-06
9.02607e-06
1.90413e-06
3.94432e-06
3.94418e-06
1.91523e-06
5.12322e-06
9.03682e-06
9.03141e-06
1.90627e-06
3.95074e-06
3.92657e-06
9.01813e-06
1.882e-06
5.11468e-06
3.91903e-06
9.02367e-06
1.89202e-06
3.93325e-06
9.02346e-06
1.88397e-06
5.11714e-06
3.92625e-06
9.02904e-06
1.89319e-06
9.71957e-06
2.19212e-05
2.19213e-05
2.19228e-05
2.19228e-05
9.71958e-06
1.21202e-05
1.06523e-05
4.43217e-06
3.61251e-06
1.21173e-05
1.06557e-05
4.44231e-06
2.24445e-05
8.90505e-06
7.20923e-06
2.2444e-05
7.20856e-06
2.24536e-05
7.20593e-06
8.90415e-06
2.24541e-05
7.20681e-06
1.21209e-05
3.62492e-06
1.06607e-05
4.45953e-06
1.21237e-05
1.06571e-05
4.44994e-06
1.21202e-05
1.06524e-05
4.43211e-06
3.61262e-06
1.21173e-05
1.06559e-05
4.44297e-06
2.24447e-05
8.90598e-06
7.21156e-06
7.21012e-06
2.2444e-05
2.24537e-05
7.20744e-06
8.90511e-06
2.24543e-05
7.20922e-06
1.21208e-05
3.62498e-06
1.06608e-05
4.46016e-06
1.06572e-05
4.44991e-06
1.21236e-05
1.84739e-05
1.84805e-05
9.71826e-06
2.19324e-05
2.19332e-05
9.71808e-06
2.19309e-05
2.19316e-05
3.94374e-06
1.91558e-06
5.12322e-06
9.03646e-06
1.90591e-06
9.03104e-06
3.95096e-06
3.93669e-06
1.91382e-06
5.12168e-06
9.03179e-06
9.0264e-06
1.90427e-06
3.94412e-06
3.93335e-06
9.02308e-06
1.88367e-06
5.11682e-06
1.89343e-06
3.92585e-06
9.02866e-06
3.92651e-06
9.01845e-06
1.88204e-06
5.11466e-06
3.91881e-06
9.024e-06
1.89167e-06
9.71922e-06
2.19206e-05
2.19213e-05
2.19221e-05
2.19229e-05
9.7193e-06
1.84726e-05
1.84792e-05
1.21202e-05
4.43208e-06
1.06526e-05
3.61309e-06
1.21173e-05
4.44298e-06
1.06561e-05
2.24443e-05
8.90676e-06
7.21137e-06
2.24437e-05
7.20991e-06
2.24533e-05
7.20721e-06
8.90589e-06
2.24539e-05
7.20902e-06
1.21209e-05
3.62472e-06
4.46019e-06
1.0661e-05
1.21237e-05
4.44987e-06
1.06574e-05
1.21205e-05
1.06525e-05
4.43234e-06
3.61302e-06
1.21177e-05
1.0656e-05
4.44242e-06
2.24448e-05
8.90646e-06
7.20939e-06
7.20888e-06
2.24443e-05
2.24539e-05
7.20624e-06
8.90556e-06
2.24544e-05
7.207e-06
1.21212e-05
3.6247e-06
1.06609e-05
4.45962e-06
1.06573e-05
4.45013e-06
1.2124e-05
1.21199e-05
4.43196e-06
1.06525e-05
3.61267e-06
1.2117e-05
4.44281e-06
1.0656e-05
2.24436e-05
8.9061e-06
7.21099e-06
7.20956e-06
2.2443e-05
2.24526e-05
7.20686e-06
8.9052e-06
2.24532e-05
7.20864e-06
1.21205e-05
3.62502e-06
4.46001e-06
1.0661e-05
4.44976e-06
1.06573e-05
1.21234e-05
1.21202e-05
1.06524e-05
4.43184e-06
3.61257e-06
1.21173e-05
1.06559e-05
4.44259e-06
2.24437e-05
8.90573e-06
7.20927e-06
7.20785e-06
2.24431e-05
2.24527e-05
7.20516e-06
8.90486e-06
2.24533e-05
7.20691e-06
1.21208e-05
3.62496e-06
1.06609e-05
4.45979e-06
1.06572e-05
4.44964e-06
1.21236e-05
1.84759e-05
1.84825e-05
9.71916e-06
2.19339e-05
2.19339e-05
9.71903e-06
2.19323e-05
2.19323e-05
3.94411e-06
1.91565e-06
5.12369e-06
9.03679e-06
1.90626e-06
9.03137e-06
3.95135e-06
3.93718e-06
1.91405e-06
5.12159e-06
9.03169e-06
9.0263e-06
1.90445e-06
3.9442e-06
3.93375e-06
9.02342e-06
1.884e-06
5.11665e-06
1.8935e-06
3.92623e-06
9.02899e-06
3.92659e-06
9.01837e-06
1.88224e-06
5.11506e-06
3.91932e-06
9.0239e-06
1.89188e-06
9.72005e-06
2.1922e-05
2.19221e-05
2.19235e-05
2.19236e-05
9.72014e-06
1.84738e-05
1.84803e-05
1.21201e-05
4.43177e-06
1.06524e-05
3.61307e-06
1.21172e-05
4.44265e-06
1.06559e-05
2.24438e-05
8.90583e-06
7.20928e-06
7.20785e-06
2.24431e-05
2.24527e-05
7.20515e-06
8.90496e-06
2.24533e-05
7.20692e-06
1.21207e-05
3.62461e-06
4.45985e-06
1.06609e-05
4.44956e-06
1.06572e-05
1.21235e-05
1.21199e-05
4.43199e-06
1.06526e-05
3.61316e-06
1.21171e-05
4.44298e-06
1.0656e-05
2.24437e-05
8.9069e-06
7.21119e-06
7.20973e-06
2.2443e-05
2.24526e-05
7.20703e-06
8.90603e-06
2.24532e-05
7.20884e-06
1.21206e-05
3.62468e-06
4.46018e-06
1.0661e-05
4.44979e-06
1.06574e-05
1.21234e-05
9.71863e-06
2.19336e-05
2.1933e-05
9.71847e-06
2.1932e-05
2.19314e-05
3.93696e-06
1.91408e-06
5.12161e-06
9.03182e-06
3.9443e-06
1.90441e-06
9.0264e-06
3.9438e-06
1.91575e-06
5.12348e-06
9.03662e-06
3.95128e-06
1.90597e-06
9.03119e-06
3.92667e-06
9.01843e-06
1.88217e-06
5.11508e-06
3.91905e-06
1.89191e-06
9.02401e-06
3.93364e-06
9.02321e-06
1.88372e-06
5.11713e-06
3.92589e-06
1.89359e-06
9.0288e-06
9.71967e-06
2.19219e-05
2.19213e-05
9.71981e-06
2.19234e-05
2.19227e-05
1.84739e-05
1.84804e-05
1.84754e-05
1.84819e-05
1.84644e-05
1.84581e-05
1.84664e-05
1.846e-05
9.72103e-06
2.19009e-05
2.19011e-05
2.19024e-05
2.19025e-05
9.72093e-06
3.96145e-06
1.92579e-06
9.03376e-06
5.13433e-06
3.9537e-06
9.03896e-06
1.93602e-06
3.96751e-06
1.92814e-06
9.03911e-06
5.13667e-06
3.96143e-06
9.04435e-06
1.93676e-06
9.72035e-06
2.19125e-05
2.19126e-05
9.7204e-06
2.1911e-05
2.19111e-05
3.96981e-06
9.04622e-06
5.14078e-06
1.95733e-06
9.04119e-06
3.97806e-06
1.94692e-06
3.97798e-06
9.05161e-06
5.14241e-06
1.95775e-06
9.04655e-06
3.98356e-06
1.94956e-06
1.84436e-05
1.84498e-05
1.84456e-05
1.84518e-05
9.7212e-06
2.18924e-05
2.18925e-05
9.72146e-06
2.18912e-05
2.18907e-05
3.99979e-06
1.99905e-06
5.15791e-06
9.06119e-06
9.05561e-06
1.98781e-06
4.01099e-06
4.00987e-06
1.99785e-06
5.15995e-06
9.06441e-06
9.06039e-06
1.99093e-06
4.01186e-06
3.99437e-06
9.0484e-06
1.96754e-06
5.15209e-06
3.98511e-06
9.05342e-06
1.97823e-06
3.99899e-06
9.05374e-06
1.97052e-06
5.15427e-06
3.9939e-06
9.05849e-06
1.97822e-06
9.72166e-06
2.1882e-05
2.18804e-05
2.18829e-05
2.18821e-05
9.72133e-06
1.21276e-05
3.6716e-06
1.06713e-05
4.49141e-06
1.06675e-05
4.48228e-06
1.21303e-05
2.24344e-05
7.21228e-06
8.91112e-06
2.24351e-05
7.2134e-06
1.2127e-05
3.66043e-06
1.06622e-05
4.46662e-06
1.0666e-05
1.21243e-05
4.4763e-06
2.24255e-05
7.21477e-06
8.91193e-06
7.21396e-06
2.24247e-05
1.21336e-05
1.06727e-05
4.49688e-06
3.70314e-06
1.21309e-05
1.06766e-05
4.50502e-06
2.2406e-05
8.91662e-06
7.2141e-06
7.21407e-06
2.24053e-05
2.24152e-05
7.21337e-06
8.91584e-06
2.24155e-05
7.21361e-06
1.21341e-05
3.71321e-06
1.0682e-05
4.51818e-06
1.06781e-05
4.51065e-06
1.21366e-05
1.21335e-05
1.06728e-05
4.49695e-06
3.70326e-06
1.21309e-05
1.06767e-05
4.50555e-06
2.2406e-05
8.91756e-06
7.21622e-06
7.21594e-06
2.24052e-05
2.2415e-05
7.21517e-06
8.9168e-06
2.24158e-05
7.21569e-06
1.2134e-05
3.71328e-06
1.06821e-05
4.51876e-06
1.06782e-05
4.51066e-06
1.21365e-05
9.72077e-06
2.19003e-05
2.1901e-05
2.19018e-05
2.19026e-05
9.72067e-06
3.96779e-06
1.92768e-06
9.03875e-06
5.13636e-06
9.04398e-06
3.96092e-06
1.93722e-06
3.96096e-06
1.92605e-06
9.03409e-06
5.13433e-06
1.93547e-06
3.95386e-06
9.0393e-06
9.72014e-06
2.1912e-05
2.19127e-05
2.19104e-05
9.72013e-06
2.19112e-05
3.97733e-06
9.05122e-06
5.14234e-06
1.95835e-06
9.04618e-06
1.94893e-06
3.98392e-06
3.97027e-06
9.04653e-06
5.14073e-06
1.9566e-06
1.9473e-06
9.04151e-06
3.97709e-06
1.8464e-05
1.84576e-05
1.84446e-05
1.84508e-05
9.72093e-06
2.18918e-05
2.18925e-05
9.72114e-06
2.18903e-05
2.1891e-05
4.00844e-06
1.99929e-06
5.15969e-06
9.06513e-06
1.99009e-06
9.06034e-06
4.01453e-06
4.00138e-06
1.99756e-06
5.158e-06
9.06042e-06
9.05564e-06
1.98847e-06
4.0077e-06
3.99952e-06
9.05335e-06
1.96972e-06
5.1541e-06
1.97904e-06
3.99314e-06
9.05827e-06
3.99269e-06
9.04866e-06
1.96809e-06
5.15216e-06
3.98609e-06
9.05357e-06
1.9773e-06
9.72134e-06
2.18805e-05
2.18813e-05
2.18819e-05
2.18827e-05
9.72108e-06
1.84432e-05
1.84494e-05
1.2128e-05
3.67132e-06
1.06714e-05
4.49086e-06
1.06676e-05
4.48249e-06
1.21307e-05
2.24346e-05
7.211e-06
8.91157e-06
2.24351e-05
7.21129e-06
1.21274e-05
3.66082e-06
1.06623e-05
4.46683e-06
1.06661e-05
1.21246e-05
4.47575e-06
2.24254e-05
7.21272e-06
8.91241e-06
7.21261e-06
2.24249e-05
1.21335e-05
4.49691e-06
1.0673e-05
3.70368e-06
1.21309e-05
4.50556e-06
1.06769e-05
2.24057e-05
8.91838e-06
7.21606e-06
7.21576e-06
2.24049e-05
2.24146e-05
7.21498e-06
8.91761e-06
2.24154e-05
7.21551e-06
1.2134e-05
3.71304e-06
4.51876e-06
1.06823e-05
4.51061e-06
1.06784e-05
1.21365e-05
1.21339e-05
1.06729e-05
4.49715e-06
3.7036e-06
1.21313e-05
1.06768e-05
4.505e-06
2.24059e-05
8.91804e-06
7.21428e-06
7.21436e-06
2.24054e-05
2.24152e-05
7.21372e-06
8.91725e-06
2.24157e-05
7.21372e-06
1.21344e-05
3.71301e-06
1.06822e-05
4.51821e-06
1.06783e-05
4.51086e-06
1.21369e-05
1.21273e-05
3.67165e-06
4.49125e-06
1.06715e-05
4.48214e-06
1.06676e-05
1.213e-05
2.24334e-05
7.21173e-06
8.91121e-06
7.21284e-06
2.2434e-05
1.21268e-05
3.66048e-06
4.46647e-06
1.06624e-05
4.47614e-06
1.2124e-05
1.06662e-05
2.24244e-05
7.21421e-06
8.91206e-06
7.21341e-06
2.24237e-05
1.21276e-05
3.6716e-06
1.06714e-05
4.49103e-06
1.06675e-05
4.48202e-06
1.21303e-05
2.24335e-05
7.21003e-06
8.91089e-06
2.24341e-05
7.21113e-06
1.2127e-05
3.66038e-06
1.06623e-05
4.46635e-06
1.21243e-05
1.0666e-05
4.47592e-06
2.24245e-05
7.2125e-06
8.9117e-06
7.21172e-06
2.24238e-05
1.21332e-05
4.49681e-06
1.0673e-05
3.70327e-06
1.21306e-05
4.50539e-06
1.06769e-05
2.24049e-05
8.9177e-06
7.21568e-06
7.2154e-06
2.24042e-05
2.2414e-05
7.21462e-06
8.91691e-06
2.24147e-05
7.21513e-06
1.21337e-05
3.71334e-06
4.5186e-06
1.06823e-05
4.51052e-06
1.06783e-05
1.21362e-05
1.21335e-05
1.06728e-05
4.49669e-06
3.70316e-06
1.21309e-05
1.06767e-05
4.50517e-06
2.24051e-05
8.91735e-06
7.21398e-06
7.21373e-06
2.24043e-05
2.24141e-05
7.21294e-06
8.91659e-06
2.24148e-05
7.21344e-06
1.2134e-05
3.71329e-06
1.06821e-05
4.51838e-06
1.06782e-05
4.51041e-06
1.21365e-05
9.72171e-06
2.19018e-05
2.19019e-05
2.19033e-05
2.19034e-05
9.7216e-06
3.9682e-06
1.92803e-06
9.03908e-06
5.13633e-06
9.04432e-06
3.96128e-06
1.93729e-06
3.96108e-06
1.9262e-06
9.03401e-06
5.13465e-06
1.93572e-06
3.95433e-06
9.03921e-06
9.72104e-06
2.19134e-05
2.19134e-05
2.19119e-05
9.72101e-06
2.1912e-05
3.97774e-06
9.05157e-06
5.14273e-06
1.95845e-06
9.04652e-06
1.9493e-06
3.98436e-06
3.97076e-06
9.04652e-06
5.1407e-06
1.95689e-06
1.94745e-06
9.04143e-06
3.97728e-06
1.84651e-05
1.84588e-05
1.84465e-05
1.84527e-05
9.72182e-06
2.18932e-05
2.18933e-05
9.72206e-06
2.18918e-05
2.18918e-05
4.00879e-06
1.99935e-06
5.15999e-06
9.06543e-06
1.99044e-06
9.06066e-06
4.01485e-06
4.0018e-06
1.9978e-06
5.158e-06
9.06036e-06
9.0556e-06
1.9886e-06
4.00778e-06
3.99991e-06
9.05369e-06
1.9701e-06
5.15415e-06
1.97914e-06
3.99357e-06
9.05861e-06
3.99284e-06
9.04864e-06
1.96826e-06
5.1524e-06
3.98658e-06
9.05355e-06
1.97759e-06
9.72221e-06
2.18819e-05
2.1882e-05
2.18833e-05
2.18834e-05
9.72191e-06
1.84444e-05
1.84505e-05
1.21275e-05
3.67124e-06
4.4911e-06
1.06714e-05
4.48194e-06
1.06675e-05
1.21302e-05
2.24335e-05
7.21004e-06
8.91099e-06
7.21114e-06
2.24342e-05
1.21269e-05
3.66087e-06
4.46627e-06
1.06623e-05
4.47598e-06
1.21242e-05
1.06661e-05
2.24245e-05
7.21252e-06
8.9118e-06
7.21173e-06
2.24238e-05
1.21274e-05
3.67131e-06
4.49142e-06
1.06715e-05
4.48216e-06
1.06676e-05
1.21301e-05
2.24334e-05
7.2119e-06
8.91205e-06
2.24341e-05
7.21304e-06
1.21268e-05
3.66096e-06
4.4665e-06
1.06624e-05
1.2124e-05
4.47631e-06
1.06662e-05
2.24244e-05
7.2144e-06
8.91287e-06
7.21358e-06
2.24237e-05
1.21334e-05
4.49661e-06
1.06729e-05
3.70366e-06
1.21308e-05
4.50523e-06
1.06768e-05
2.24051e-05
8.91745e-06
7.214e-06
7.21373e-06
2.24044e-05
2.24141e-05
7.21295e-06
8.9167e-06
2.24149e-05
7.21345e-06
1.21339e-05
3.71293e-06
4.51845e-06
1.06822e-05
4.51033e-06
1.06783e-05
1.21364e-05
1.21332e-05
4.49683e-06
1.0673e-05
3.70375e-06
1.21306e-05
4.50555e-06
1.06769e-05
2.2405e-05
8.91851e-06
7.21586e-06
7.21556e-06
2.24042e-05
2.2414e-05
7.21479e-06
8.91775e-06
2.24147e-05
7.21532e-06
1.21338e-05
3.71301e-06
4.51876e-06
1.06823e-05
4.51055e-06
1.06784e-05
1.21362e-05
1.84653e-05
1.84589e-05
1.84668e-05
1.84604e-05
9.72137e-06
2.1893e-05
2.18924e-05
9.72161e-06
2.18915e-05
2.18909e-05
4.00162e-06
1.99778e-06
5.15807e-06
9.06043e-06
1.98857e-06
9.05563e-06
4.00782e-06
4.00842e-06
1.99946e-06
5.15997e-06
9.06526e-06
1.99013e-06
9.06045e-06
4.01482e-06
3.99277e-06
9.04867e-06
1.96823e-06
5.1524e-06
3.98635e-06
1.97752e-06
9.05357e-06
3.99977e-06
9.05349e-06
1.96979e-06
5.15442e-06
3.99316e-06
1.9792e-06
9.05839e-06
9.7218e-06
2.18818e-05
2.18811e-05
2.18831e-05
2.18825e-05
9.72154e-06
1.84445e-05
1.84506e-05
1.8446e-05
1.84522e-05
1.17709e-07
1.17705e-07
1.3314e-07
1.16608e-07
1.16606e-07
1.09943e-07
1.11234e-07
1.74027e-06
7.67711e-07
7.68015e-07
3.59027e-07
1.73348e-06
7.71712e-07
7.71993e-07
1.71086e-06
3.52312e-07
7.56605e-07
7.56909e-07
7.52652e-07
7.52958e-07
1.71775e-06
1.71073e-06
3.52279e-07
7.56837e-07
7.56557e-07
7.52884e-07
7.52612e-07
1.71767e-06
1.71095e-06
3.52349e-07
7.56959e-07
7.56694e-07
7.53014e-07
7.52733e-07
1.71789e-06
1.71088e-06
3.52337e-07
7.56677e-07
7.56951e-07
1.71783e-06
7.52699e-07
7.52996e-07
1.74018e-06
7.67655e-07
7.6797e-07
3.58998e-07
1.73343e-06
7.71633e-07
7.71944e-07
1.79837e-06
3.77686e-07
8.1784e-07
8.17024e-07
8.12974e-07
8.13795e-07
1.80475e-06
1.7401e-06
7.67893e-07
7.67617e-07
3.58958e-07
7.71584e-07
1.73331e-06
7.71869e-07
1.79831e-06
3.77653e-07
8.17511e-07
8.17216e-07
8.13486e-07
8.13198e-07
1.80468e-06
1.74033e-06
7.68023e-07
7.67736e-07
3.59037e-07
7.71731e-07
1.73353e-06
7.71997e-07
1.79854e-06
3.77728e-07
8.17654e-07
8.17373e-07
8.13634e-07
8.13331e-07
1.8049e-06
1.79846e-06
3.7772e-07
8.17345e-07
8.17643e-07
8.13294e-07
8.13616e-07
1.80483e-06
1.35124e-07
1.18845e-07
1.18843e-07
1.20019e-07
1.20015e-07
1.13904e-07
1.12555e-07
1.3512e-07
1.18845e-07
1.18841e-07
1.20019e-07
1.20014e-07
1.13904e-07
1.12554e-07
1.35129e-07
1.18848e-07
1.18845e-07
1.20021e-07
1.20017e-07
1.13905e-07
1.12556e-07
1.35123e-07
1.18846e-07
1.18843e-07
1.20019e-07
1.20016e-07
1.13905e-07
1.12555e-07
1.17709e-07
1.17704e-07
1.33138e-07
1.16608e-07
1.16603e-07
1.09942e-07
1.11234e-07
1.17712e-07
1.17707e-07
1.33148e-07
1.16611e-07
1.16607e-07
1.09944e-07
1.11235e-07
1.17709e-07
1.17706e-07
1.33142e-07
1.16609e-07
1.16605e-07
1.09943e-07
1.11235e-07
1.32578e-07
1.14513e-07
1.14511e-07
1.15543e-07
1.15539e-07
1.08679e-07
1.07443e-07
1.32573e-07
1.14513e-07
1.14508e-07
1.15543e-07
1.15538e-07
1.08679e-07
1.07443e-07
1.32583e-07
1.14516e-07
1.14512e-07
1.15546e-07
1.15541e-07
1.0868e-07
1.07444e-07
1.32577e-07
1.14514e-07
1.1451e-07
1.15544e-07
1.1554e-07
1.08679e-07
1.07443e-07
4.7666e-07
1.15199e-06
1.47496e-06
3.88743e-07
1.46835e-06
3.87226e-07
4.78144e-07
6.56092e-07
1.00134e-06
2.07338e-06
2.80169e-06
6.53885e-07
1.00618e-06
2.07946e-06
4.69284e-07
1.13735e-06
1.44635e-06
3.80193e-07
4.67843e-07
1.45304e-06
3.81653e-07
6.65664e-07
2.10011e-06
2.81452e-06
1.02324e-06
1.0184e-06
2.09417e-06
6.67903e-07
4.76679e-07
1.15204e-06
3.88774e-07
1.47491e-06
3.87261e-07
1.4683e-06
4.7817e-07
6.56071e-07
1.00142e-06
2.07308e-06
2.80191e-06
6.53852e-07
1.00629e-06
2.07918e-06
4.69309e-07
1.1374e-06
3.80229e-07
1.44631e-06
4.67866e-07
3.81683e-07
1.453e-06
6.6563e-07
2.09983e-06
2.81463e-06
1.02336e-06
1.01849e-06
2.09387e-06
6.67884e-07
1.75559e-06
3.64648e-07
7.8684e-07
7.87127e-07
7.82822e-07
7.83133e-07
1.76223e-06
1.69488e-06
3.47024e-07
7.3778e-07
7.38076e-07
1.68786e-06
7.41699e-07
7.41996e-07
4.52207e-07
1.40159e-06
3.66836e-07
1.09471e-06
4.50842e-07
1.40847e-06
3.68179e-07
6.42244e-07
9.89293e-07
2.77747e-06
2.0582e-06
9.84442e-07
2.05191e-06
6.44447e-07
6.32986e-07
2.03027e-06
9.67475e-07
2.76389e-06
9.72307e-07
6.30823e-07
2.0367e-06
4.59212e-07
1.10938e-06
1.43085e-06
3.74792e-07
1.42404e-06
3.73397e-07
4.60624e-07
4.5227e-07
1.40178e-06
3.66846e-07
1.09475e-06
4.50905e-07
1.40867e-06
3.68196e-07