/*--------------------------------*- C++ -*----------------------------------*\
| =========                 |                                                 |
| \\      /  F ield         | OpenFOAM: The Open Source CFD Toolbox           |
|  \\    /   O peration     | Version:  v1906                                 |
|   \\  /    A nd           | Web:      www.OpenFOAM.com                      |
|    \\/     M anipulation  |                                                 |
\*---------------------------------------------------------------------------*/
FoamFile
{
    version     2.0;
    format      ascii;
    class       volScalarField;
    location    "750";
    object      k;
}
// * * * * * * * * * * * * * * * * * * * * * * * * * * * * * * * * * * * * * //

dimensions      [0 2 -2 0 0 0 0];


internalField   nonuniform List<scalar> 
42840
(
2.19638e-05
3.78086e-05
3.78103e-05
4.28503e-05
2.27439e-05
3.86879e-05
3.86908e-05
4.35478e-05
2.35429e-05
3.9544e-05
3.95468e-05
4.42236e-05
2.43457e-05
4.03673e-05
4.03694e-05
4.48708e-05
2.51648e-05
4.11705e-05
4.11722e-05
4.55013e-05
2.59769e-05
4.19328e-05
4.19342e-05
4.60987e-05
2.67831e-05
4.2668e-05
4.26727e-05
4.66745e-05
2.76043e-05
4.33904e-05
4.33905e-05
4.72395e-05
2.8405e-05
4.40672e-05
4.40674e-05
4.77683e-05
2.91878e-05
4.47125e-05
4.47181e-05
4.82732e-05
2.9975e-05
4.53476e-05
4.53467e-05
4.87709e-05
3.07356e-05
4.59422e-05
4.59429e-05
4.9237e-05
3.15e-05
4.65082e-05
4.65114e-05
4.96778e-05
3.21796e-05
4.70405e-05
4.70418e-05
5.00947e-05
3.29476e-05
4.75828e-05
4.75848e-05
5.05348e-05
3.35983e-05
4.80551e-05
4.8063e-05
5.08875e-05
3.42621e-05
4.84989e-05
4.84808e-05
5.12348e-05
3.48424e-05
4.88976e-05
4.88975e-05
5.15284e-05
3.53978e-05
4.92941e-05
4.93364e-05
5.19169e-05
3.63104e-05
4.99734e-05
4.99492e-05
5.24225e-05
3.67332e-05
5.00887e-05
5.00879e-05
5.24441e-05
3.68914e-05
5.03002e-05
5.01214e-05
5.24904e-05
3.76133e-05
5.05743e-05
5.08813e-05
5.32672e-05
3.8571e-05
5.15916e-05
5.15994e-05
5.38907e-05
3.88689e-05
5.17776e-05
5.14489e-05
5.32088e-05
3.75627e-05
4.93276e-05
4.92574e-05
5.09927e-05
4.26871e-05
3.75853e-05
3.75851e-05
4.26856e-05
3.75833e-05
3.75855e-05
3.75835e-05
3.75881e-05
4.26868e-05
3.75854e-05
3.7586e-05
4.26888e-05
4.28487e-05
4.33892e-05
3.78101e-05
3.78102e-05
3.8471e-05
3.84717e-05
4.28475e-05
4.33885e-05
3.78081e-05
3.78102e-05
3.84694e-05
3.8473e-05
3.78129e-05
3.84705e-05
3.84749e-05
4.28485e-05
4.33905e-05
3.78108e-05
3.84734e-05
3.84732e-05
4.33919e-05
4.35452e-05
4.40705e-05
3.86889e-05
3.86891e-05
3.93341e-05
3.93332e-05
4.35444e-05
4.40683e-05
3.86875e-05
3.86905e-05
3.93327e-05
3.93346e-05
3.86925e-05
3.93323e-05
3.93375e-05
4.35464e-05
4.40701e-05
3.86907e-05
3.9335e-05
3.93359e-05
4.40725e-05
4.42216e-05
4.47235e-05
3.95461e-05
3.95452e-05
4.01641e-05
4.01653e-05
4.42196e-05
4.47233e-05
3.95447e-05
3.95464e-05
4.0162e-05
4.0165e-05
3.95492e-05
4.01643e-05
4.01679e-05
4.42212e-05
4.47242e-05
3.95476e-05
4.01663e-05
4.01663e-05
4.4726e-05
4.48682e-05
4.53594e-05
4.03672e-05
4.03681e-05
4.09741e-05
4.09732e-05
4.48682e-05
4.53573e-05
4.03656e-05
4.03684e-05
4.09727e-05
4.0974e-05
4.03712e-05
4.09718e-05
4.09752e-05
4.48691e-05
4.53588e-05
4.03697e-05
4.09738e-05
4.09738e-05
4.53602e-05
4.55006e-05
4.59627e-05
4.11718e-05
4.11716e-05
4.17468e-05
4.17475e-05
4.54987e-05
4.59626e-05
4.11705e-05
4.11722e-05
4.17454e-05
4.17475e-05
4.11738e-05
4.1747e-05
4.1751e-05
4.55e-05
4.59635e-05
4.11722e-05
4.17492e-05
4.17498e-05
4.5966e-05
4.60954e-05
4.65403e-05
4.19332e-05
4.19337e-05
4.24852e-05
4.2485e-05
4.60953e-05
4.65392e-05
4.19316e-05
4.19328e-05
4.24839e-05
4.2486e-05
4.19365e-05
4.24844e-05
4.24897e-05
4.6096e-05
4.6541e-05
4.1935e-05
4.2488e-05
4.24891e-05
4.65434e-05
4.6671e-05
4.71128e-05
4.2667e-05
4.26679e-05
4.32145e-05
4.3215e-05
4.66703e-05
4.71124e-05
4.26667e-05
4.26707e-05
4.32133e-05
4.32147e-05
4.26729e-05
4.32142e-05
4.32156e-05
4.66726e-05
4.7113e-05
4.26727e-05
4.32144e-05
4.32138e-05
4.71135e-05
4.72401e-05
4.76495e-05
4.33938e-05
4.33916e-05
4.39026e-05
4.39011e-05
4.72385e-05
4.76457e-05
4.33923e-05
4.33906e-05
4.39002e-05
4.38995e-05
4.33934e-05
4.39005e-05
4.39045e-05
4.72381e-05
4.76457e-05
4.33918e-05
4.39017e-05
4.39036e-05
4.76503e-05
4.77667e-05
4.81539e-05
4.40684e-05
4.40684e-05
4.45507e-05
4.4553e-05
4.77644e-05
4.81564e-05
4.40657e-05
4.40659e-05
4.45507e-05
4.45554e-05
4.40701e-05
4.45528e-05
4.45556e-05
4.77645e-05
4.81591e-05
4.40683e-05
4.45567e-05
4.45545e-05
4.81578e-05
4.82686e-05
4.86548e-05
4.47083e-05
4.47115e-05
4.51908e-05
4.51927e-05
4.82711e-05
4.86559e-05
4.47097e-05
4.47163e-05
4.51899e-05
4.51917e-05
4.47161e-05
4.51929e-05
4.51953e-05
4.82746e-05
4.8656e-05
4.47156e-05
4.51942e-05
4.51956e-05
4.86596e-05
4.87676e-05
4.9132e-05
4.5347e-05
4.53476e-05
4.57946e-05
4.57916e-05
4.87682e-05
4.91271e-05
4.53454e-05
4.53442e-05
4.57928e-05
4.57888e-05
4.53494e-05
4.5792e-05
4.57957e-05
4.87663e-05
4.91247e-05
4.53493e-05
4.57907e-05
4.57941e-05
4.91299e-05
4.92394e-05
4.95836e-05
4.59473e-05
4.5943e-05
4.63838e-05
4.63835e-05
4.92335e-05
4.95821e-05
4.59456e-05
4.59418e-05
4.63816e-05
4.63843e-05
4.59468e-05
4.63805e-05
4.63801e-05
4.92328e-05
4.95866e-05
4.59454e-05
4.63835e-05
4.63783e-05
4.95822e-05
4.96774e-05
4.99752e-05
4.65062e-05
4.6509e-05
4.68802e-05
4.6884e-05
4.96784e-05
4.99814e-05
4.65057e-05
4.65114e-05
4.68846e-05
4.68934e-05
4.65071e-05
4.68896e-05
4.68988e-05
4.96829e-05
4.99844e-05
4.65058e-05
4.68977e-05
4.69009e-05
4.99899e-05
5.00808e-05
5.04544e-05
4.70305e-05
4.70364e-05
4.74801e-05
4.74816e-05
5.0087e-05
5.04524e-05
4.70322e-05
4.70373e-05
4.74703e-05
4.74558e-05
4.70458e-05
4.7475e-05
4.74668e-05
5.00868e-05
5.04386e-05
4.70464e-05
4.74589e-05
4.74633e-05
5.04445e-05
5.05457e-05
5.07893e-05
4.75989e-05
4.75893e-05
4.79207e-05
4.79149e-05
5.05371e-05
5.07773e-05
4.75933e-05
4.75812e-05
4.79267e-05
4.7947e-05
4.75872e-05
4.7918e-05
4.79344e-05
5.05312e-05
5.08086e-05
4.75881e-05
4.79504e-05
4.79402e-05
5.0801e-05
5.08761e-05
5.11749e-05
4.80438e-05
4.80511e-05
4.84067e-05
4.84003e-05
5.08725e-05
5.11753e-05
4.80453e-05
4.80615e-05
4.84063e-05
4.83777e-05
4.80544e-05
4.84031e-05
4.83956e-05
5.08943e-05
5.11408e-05
4.80534e-05
4.83715e-05
4.83865e-05
5.11558e-05
5.12536e-05
5.1437e-05
4.85134e-05
4.84958e-05
4.87834e-05
4.88098e-05
5.12467e-05
5.14572e-05
4.85177e-05
4.84893e-05
4.878e-05
4.88058e-05
4.85025e-05
4.88118e-05
4.88003e-05
5.12185e-05
5.14689e-05
4.84953e-05
4.88065e-05
4.87947e-05
5.1459e-05
5.1496e-05
5.17785e-05
4.88526e-05
4.88964e-05
4.91531e-05
4.91481e-05
5.15323e-05
5.17731e-05
4.88453e-05
4.88864e-05
4.91526e-05
4.91712e-05
4.88819e-05
4.91457e-05
4.91744e-05
5.15423e-05
5.18007e-05
4.8883e-05
4.91949e-05
4.91957e-05
5.18032e-05
5.19091e-05
5.23955e-05
4.93268e-05
4.92974e-05
4.98884e-05
4.98498e-05
5.18761e-05
5.23496e-05
4.93269e-05
4.93215e-05
4.98848e-05
4.98337e-05
4.93284e-05
4.98459e-05
4.98484e-05
5.19081e-05
5.23341e-05
4.93429e-05
4.98214e-05
4.98364e-05
5.235e-05
5.24626e-05
5.24256e-05
5.00045e-05
4.99776e-05
5.00826e-05
5.00908e-05
5.24276e-05
5.24521e-05
5.00036e-05
4.99632e-05
5.00883e-05
5.0096e-05
4.99722e-05
5.00872e-05
5.00826e-05
5.24107e-05
5.24527e-05
4.99615e-05
5.00897e-05
5.00814e-05
5.24371e-05
5.24314e-05
5.24144e-05
5.00701e-05
5.00901e-05
5.00679e-05
5.01994e-05
5.24631e-05
5.25808e-05
5.00772e-05
5.00932e-05
5.00604e-05
5.00774e-05
5.0078e-05
5.02175e-05
5.00769e-05
5.24606e-05
5.24129e-05
5.00772e-05
5.00781e-05
5.00642e-05
5.24069e-05
5.25048e-05
5.30443e-05
5.0147e-05
5.03024e-05
5.06481e-05
5.04448e-05
5.2659e-05
5.27748e-05
5.0112e-05
5.01142e-05
5.0652e-05
5.06323e-05
5.01391e-05
5.04455e-05
5.06852e-05
5.24863e-05
5.30445e-05
5.01114e-05
5.06652e-05
5.07222e-05
5.31067e-05
5.31847e-05
5.37524e-05
5.08265e-05
5.05515e-05
5.14307e-05
5.13304e-05
5.28468e-05
5.36294e-05
5.08577e-05
5.08478e-05
5.14694e-05
5.14897e-05
5.08995e-05
5.13516e-05
5.14898e-05
5.31926e-05
5.37697e-05
5.09532e-05
5.14878e-05
5.15082e-05
5.38146e-05
5.38521e-05
5.37283e-05
5.15683e-05
5.15835e-05
5.16386e-05
5.18388e-05
5.38254e-05
5.41729e-05
5.15919e-05
5.16166e-05
5.1636e-05
5.16613e-05
5.15896e-05
5.18222e-05
5.15789e-05
5.38732e-05
5.37653e-05
5.15878e-05
5.16218e-05
5.15374e-05
5.34539e-05
5.35346e-05
5.11689e-05
5.15266e-05
5.18001e-05
4.96906e-05
4.99781e-05
5.41496e-05
5.14195e-05
5.14983e-05
5.15098e-05
4.96416e-05
4.96155e-05
5.13674e-05
4.99511e-05
4.95964e-05
5.35317e-05
5.11351e-05
5.12637e-05
4.96105e-05
4.95567e-05
5.11025e-05
5.09767e-05
4.92495e-05
4.93198e-05
5.10802e-05
4.92346e-05
4.92232e-05
4.92905e-05
5.09588e-05
4.9295e-05
6.48539e-05
7.14058e-05
6.95717e-05
6.48577e-05
7.14117e-05
2.17702e-05
2.17693e-05
2.17726e-05
2.17733e-05
5.36081e-05
3.71284e-05
6.03949e-05
2.95019e-05
6.957e-05
5.36082e-05
3.71309e-05
2.95057e-05
6.03962e-05
4.23279e-05
6.70307e-05
6.70422e-05
6.50817e-05
7.14549e-05
6.4986e-05
7.14911e-05
6.96026e-05
6.96291e-05
6.50857e-05
7.14609e-05
6.49898e-05
7.14971e-05
2.19633e-05
2.19662e-05
2.19667e-05
2.25473e-05
2.25476e-05
2.25512e-05
2.25516e-05
5.40741e-05
6.05631e-05
3.02405e-05
3.80312e-05
5.38833e-05
6.06814e-05
3.04854e-05
6.96008e-05
6.96276e-05
5.40743e-05
3.02435e-05
6.05642e-05
3.80332e-05
5.38837e-05
3.04886e-05
6.06828e-05
6.71329e-05
6.71444e-05
4.30436e-05
6.72058e-05
6.72174e-05
6.53031e-05
7.15411e-05
6.52098e-05
7.15779e-05
6.96613e-05
6.96888e-05
6.53074e-05
7.1547e-05
6.52141e-05
7.15837e-05
2.27439e-05
2.27481e-05
2.2748e-05
2.33417e-05
2.33409e-05
2.33446e-05
2.33455e-05
5.45206e-05
6.08423e-05
3.12149e-05
3.89039e-05
5.43377e-05
6.09563e-05
3.14571e-05
6.96595e-05
6.96871e-05
5.45209e-05
3.12192e-05
6.08437e-05
3.89066e-05
5.43381e-05
3.1461e-05
6.09579e-05
6.73052e-05
6.73166e-05
4.37346e-05
6.73764e-05
6.73879e-05
6.55183e-05
7.16281e-05
6.54283e-05
7.16648e-05
6.9722e-05
6.97499e-05
6.55218e-05
7.16339e-05
6.5432e-05
7.16706e-05
2.35417e-05
2.35458e-05
2.35468e-05
2.41456e-05
2.4146e-05
2.41493e-05
2.41496e-05
5.49504e-05
6.11127e-05
3.21818e-05
3.97534e-05
5.47745e-05
6.12221e-05
3.24214e-05
6.97201e-05
6.97483e-05
5.49505e-05
3.21859e-05
6.11138e-05
3.97559e-05
5.47748e-05
3.24255e-05
6.12234e-05
6.7473e-05
6.74845e-05
4.44034e-05
6.75409e-05
6.75525e-05
6.57263e-05
7.17158e-05
6.56381e-05
7.17531e-05
6.97842e-05
6.98129e-05
6.57307e-05
7.17216e-05
6.5642e-05
7.1759e-05
2.43469e-05
2.43501e-05
2.43505e-05
2.49595e-05
2.49573e-05
2.49614e-05
2.49617e-05
5.53607e-05
6.13708e-05
3.3129e-05
4.05696e-05
5.5192e-05
6.14773e-05
3.33635e-05
6.97824e-05
6.98113e-05
5.53606e-05
3.31325e-05
6.13718e-05
4.0572e-05
5.51923e-05
3.33672e-05
6.14784e-05
6.76341e-05
6.76456e-05
4.50444e-05
6.77021e-05
6.77136e-05
6.59276e-05
7.18034e-05
6.58444e-05
7.18396e-05
6.98474e-05
6.98758e-05
6.59311e-05
7.18092e-05
6.58484e-05
7.18454e-05
2.51629e-05
2.51667e-05
2.51664e-05
2.57749e-05
2.57757e-05
2.57799e-05
2.57808e-05
5.57578e-05
6.16231e-05
3.40637e-05
4.13665e-05
5.55958e-05
6.17233e-05
3.42954e-05
6.98455e-05
6.98741e-05
5.57574e-05
3.40669e-05
6.16238e-05
4.13683e-05
5.55955e-05
3.42983e-05
6.17243e-05
6.77937e-05
6.78052e-05
4.56688e-05
6.78561e-05
6.78676e-05
6.61173e-05
7.189e-05
6.60364e-05
7.19277e-05
6.99112e-05
6.99411e-05
6.61214e-05
7.18958e-05
6.60399e-05
7.19336e-05
2.59771e-05
2.59809e-05
2.59821e-05
2.65814e-05
2.65803e-05
2.65835e-05
2.65856e-05
5.61293e-05
6.18566e-05
3.49708e-05
4.21171e-05
5.59771e-05
6.19523e-05
3.51908e-05
6.99094e-05
6.99396e-05
5.61296e-05
3.49744e-05
6.18577e-05
4.21181e-05
5.59773e-05
3.51934e-05
6.19539e-05
6.794e-05
6.79515e-05
4.62547e-05
6.80021e-05
6.80138e-05
6.63106e-05
7.19799e-05
6.62288e-05
7.20176e-05
6.9978e-05
7.00078e-05
6.63154e-05
7.19857e-05
6.62338e-05
7.20231e-05
2.67826e-05
2.67882e-05
2.67896e-05
2.73961e-05
2.7398e-05
2.74015e-05
2.73999e-05
5.64969e-05
6.20882e-05
3.58487e-05
4.28516e-05
5.63443e-05
6.21858e-05
3.60674e-05
6.99763e-05
7.00061e-05
5.64974e-05
3.58549e-05
6.209e-05
4.28555e-05
5.63452e-05
3.60735e-05
6.21873e-05
6.80901e-05
6.81017e-05
4.68314e-05
6.81525e-05
6.81641e-05
6.64934e-05
7.20681e-05
6.64181e-05
7.21039e-05
7.00436e-05
7.0073e-05
6.6495e-05
7.20734e-05
6.64208e-05
7.21091e-05
2.76033e-05
2.76054e-05
2.7605e-05
2.82081e-05
2.82057e-05
2.82099e-05
2.82126e-05
5.68465e-05
6.23145e-05
3.67183e-05
4.35627e-05
5.67053e-05
6.24015e-05
3.69288e-05
7.00416e-05
7.00715e-05
5.68448e-05
3.67193e-05
6.23138e-05
4.35639e-05
5.67042e-05
3.69312e-05
6.24013e-05
6.82345e-05
6.82459e-05
4.73873e-05
6.82911e-05
6.83028e-05
6.66608e-05
7.21527e-05
6.65897e-05
7.21895e-05
7.01098e-05
7.01401e-05
6.66656e-05
7.21587e-05
6.65924e-05
7.21956e-05
2.84051e-05
2.84079e-05
2.84096e-05
2.89961e-05
2.89955e-05
2.89986e-05
2.89987e-05
5.71725e-05
6.252e-05
3.75447e-05
4.42316e-05
5.7038e-05
6.26058e-05
3.77458e-05
7.01084e-05
7.01389e-05
5.71727e-05
3.75466e-05
6.25214e-05
4.42316e-05
5.7038e-05
3.77465e-05
6.26077e-05
6.83672e-05
6.83787e-05
4.79053e-05
6.84221e-05
6.84333e-05
6.68325e-05
7.2241e-05
6.67593e-05
7.22785e-05
7.01777e-05
7.02083e-05
6.68379e-05
7.2247e-05
6.67656e-05
7.2284e-05
2.91882e-05
2.91949e-05
2.91937e-05
2.97755e-05
2.97789e-05
2.97842e-05
2.9784e-05
5.74936e-05
6.27233e-05
3.83341e-05
4.48731e-05
5.73608e-05
6.28074e-05
3.85304e-05
7.01759e-05
7.02064e-05
5.74951e-05
3.834e-05
6.27255e-05
4.48786e-05
5.73613e-05
3.85368e-05
6.28097e-05
6.85e-05
6.85118e-05
4.84103e-05
6.85562e-05
6.85687e-05
6.70009e-05
7.23295e-05
6.69308e-05
7.23656e-05
7.02457e-05
7.02757e-05
6.7002e-05
7.23345e-05
6.69329e-05
7.23707e-05
2.99767e-05
2.9979e-05
2.99803e-05
3.05453e-05
3.05437e-05
3.0545e-05
3.05498e-05
5.78028e-05
6.2923e-05
3.91134e-05
4.54976e-05
5.76772e-05
6.30018e-05
3.92991e-05
7.02435e-05
7.02743e-05
5.78005e-05
3.91161e-05
6.29215e-05
4.54951e-05
5.76775e-05
3.93001e-05
6.29991e-05
6.86305e-05
6.86421e-05
4.8898e-05
6.86825e-05
6.86935e-05
6.71547e-05
7.24136e-05
6.70902e-05
7.24476e-05
7.03125e-05
7.03422e-05
6.71594e-05
7.24193e-05
6.70933e-05
7.24536e-05
3.07332e-05
3.07356e-05
3.07397e-05
3.13224e-05
3.13178e-05
3.13212e-05
3.13183e-05
5.80909e-05
6.31065e-05
3.98453e-05
4.60938e-05
5.79715e-05
6.31827e-05
4.0031e-05
7.03116e-05
7.03414e-05
5.80909e-05
3.98465e-05
6.31076e-05
4.60963e-05
5.79695e-05
4.00336e-05
6.31868e-05
6.87545e-05
6.87655e-05
4.93631e-05
6.8803e-05
6.88145e-05
6.72897e-05
7.24938e-05
6.72342e-05
7.25306e-05
7.03788e-05
7.04106e-05
6.72962e-05
7.24999e-05
6.72404e-05
7.25363e-05
3.14986e-05
3.15021e-05
3.14967e-05
3.1996e-05
3.19978e-05
3.20122e-05
3.20129e-05
5.83579e-05
6.32786e-05
4.05542e-05
4.66293e-05
5.82519e-05
6.33422e-05
4.07098e-05
7.03769e-05
7.04082e-05
5.83579e-05
4.05563e-05
6.32814e-05
4.66346e-05
5.8253e-05
4.07134e-05
6.33437e-05
6.88611e-05
6.88728e-05
4.97793e-05
6.89066e-05
6.89186e-05
6.7465e-05
7.25869e-05
6.73834e-05
7.26243e-05
7.04521e-05
7.04813e-05
6.74621e-05
7.25914e-05
6.7386e-05
7.26284e-05
3.21815e-05
3.21953e-05
3.21981e-05
3.27669e-05
3.27786e-05
3.27561e-05
3.27635e-05
5.86421e-05
6.34533e-05
4.12043e-05
4.71978e-05
5.85155e-05
6.3542e-05
4.13885e-05
7.0449e-05
7.04796e-05
5.86409e-05
4.12118e-05
6.34504e-05
4.71873e-05
5.85151e-05
4.13867e-05
6.35374e-05
6.89896e-05
6.90016e-05
5.02267e-05
6.90473e-05
6.90594e-05
6.75783e-05
7.26635e-05
6.75444e-05
7.26926e-05
7.0512e-05
7.05408e-05
6.75864e-05
7.26694e-05
6.75425e-05
7.26999e-05
3.29488e-05
3.29323e-05
3.29401e-05
3.34337e-05
3.34153e-05
3.34556e-05
3.34464e-05
5.88773e-05
6.36224e-05
4.1882e-05
4.76828e-05
5.87957e-05
6.36621e-05
4.20177e-05
7.05132e-05
7.05416e-05
5.88875e-05
4.18799e-05
6.36299e-05
4.77083e-05
5.87984e-05
4.20354e-05
6.36826e-05
6.90983e-05
6.91112e-05
5.06254e-05
6.9131e-05
6.91441e-05
6.77171e-05
7.27421e-05
6.76447e-05
7.27758e-05
7.05816e-05
7.06088e-05
6.77201e-05
7.27485e-05
6.76591e-05
7.2781e-05
3.35968e-05
3.36242e-05
3.36102e-05
3.41023e-05
3.41065e-05
3.40823e-05
3.40952e-05
5.91217e-05
6.37613e-05
4.24658e-05
4.81874e-05
5.90069e-05
6.38437e-05
4.26247e-05
7.05763e-05
7.06035e-05
5.91027e-05
4.24785e-05
6.37621e-05
4.81677e-05
5.90112e-05
4.26129e-05
6.38156e-05
6.91935e-05
6.92019e-05
5.09837e-05
6.92351e-05
6.92402e-05
6.77947e-05
7.28089e-05
6.77769e-05
7.28349e-05
7.06379e-05
7.0668e-05
6.78052e-05
7.28151e-05
6.77768e-05
7.28404e-05
3.42473e-05
3.42362e-05
3.4252e-05
3.47112e-05
3.47239e-05
3.4721e-05
3.47131e-05
5.93026e-05
6.38962e-05
4.30301e-05
4.8601e-05
5.92443e-05
6.39216e-05
4.31613e-05
7.06376e-05
7.06688e-05
5.92932e-05
4.30124e-05
6.38765e-05
4.85941e-05
5.92148e-05
4.31519e-05
6.39296e-05
6.92727e-05
6.92818e-05
5.13142e-05
6.92938e-05
6.93084e-05
6.79137e-05
7.28902e-05
6.78428e-05
7.29463e-05
7.07146e-05
7.0754e-05
6.79022e-05
7.28929e-05
6.78458e-05
7.29492e-05
3.48811e-05
3.48683e-05
3.48577e-05
3.52264e-05
3.52358e-05
3.52692e-05
3.52706e-05
5.94859e-05
6.39908e-05
4.3547e-05
4.89679e-05
5.9399e-05
6.40498e-05
4.36439e-05
7.07126e-05
7.07543e-05
5.95092e-05
4.35413e-05
6.40077e-05
4.89844e-05
5.94167e-05
4.36564e-05
6.40684e-05
6.93266e-05
6.93451e-05
5.15996e-05
6.93922e-05
6.94106e-05
6.81782e-05
7.30253e-05
6.80593e-05
7.30537e-05
7.08042e-05
7.08284e-05
6.81842e-05
7.30316e-05
6.80578e-05
7.30613e-05
3.53776e-05
3.5427e-05
3.54306e-05
3.60855e-05
3.60589e-05
3.60412e-05
3.6052e-05
5.98303e-05
6.42014e-05
4.39989e-05
4.94791e-05
5.96535e-05
6.43394e-05
4.41947e-05
7.08031e-05
7.08257e-05
5.98353e-05
4.40542e-05
6.42195e-05
4.94981e-05
5.96794e-05
4.42246e-05
6.43372e-05
6.95611e-05
6.95694e-05
5.20965e-05
6.96405e-05
6.96442e-05
6.8206e-05
7.30525e-05
6.82305e-05
7.30434e-05
7.08367e-05
7.08459e-05
6.8223e-05
7.3061e-05
6.82382e-05
7.3051e-05
3.62923e-05
3.62539e-05
3.6267e-05
3.66991e-05
3.6657e-05
3.66968e-05
3.66888e-05
6.00093e-05
6.4407e-05
4.48019e-05
5.00487e-05
5.99983e-05
6.43738e-05
4.49226e-05
7.08338e-05
7.08406e-05
5.99931e-05
4.47661e-05
6.43966e-05
5.00363e-05
5.99798e-05
4.49009e-05
6.43834e-05
6.96598e-05
6.96653e-05
5.24565e-05
6.95973e-05
6.96052e-05
6.8096e-05
7.3064e-05
6.80884e-05
7.31174e-05
7.08851e-05
7.09262e-05
6.80876e-05
7.30634e-05
6.81036e-05
7.31106e-05
3.67033e-05
3.67548e-05
3.6736e-05
3.67984e-05
3.69529e-05
3.68332e-05
3.68165e-05
5.99391e-05
6.43016e-05
4.50303e-05
5.00947e-05
5.99493e-05
6.4346e-05
4.50502e-05
7.0863e-05
7.09081e-05
5.99031e-05
4.5053e-05
6.42713e-05
5.00772e-05
5.99362e-05
4.50568e-05
6.42509e-05
6.94893e-05
6.94908e-05
5.23763e-05
6.94794e-05
6.94847e-05
6.83702e-05
7.321e-05
6.82756e-05
7.32659e-05
7.0958e-05
7.09906e-05
6.83493e-05
7.32087e-05
6.82092e-05
7.32786e-05
3.70623e-05
3.69101e-05
3.69076e-05
3.74169e-05
3.7306e-05
3.73817e-05
3.74363e-05
6.01936e-05
6.44585e-05
4.52907e-05
5.03481e-05
6.00714e-05
6.4474e-05
4.53788e-05
7.09866e-05
7.104e-05
6.02096e-05
4.5142e-05
6.43925e-05
5.02652e-05
5.99996e-05
4.5294e-05
6.45804e-05
6.96371e-05
6.96702e-05
5.26955e-05
6.97881e-05
6.98277e-05
6.85541e-05
7.33425e-05
6.84399e-05
7.34064e-05
7.10754e-05
7.11476e-05
6.86864e-05
7.33763e-05
6.85216e-05
7.34358e-05
3.74146e-05
3.76001e-05
3.76625e-05
3.83337e-05
3.81795e-05
3.84015e-05
3.8407e-05
6.05464e-05
6.45682e-05
4.57015e-05
5.07882e-05
6.03495e-05
6.47934e-05
4.59088e-05
7.11001e-05
7.11313e-05
6.07156e-05
4.59087e-05
6.48089e-05
5.11049e-05
6.05128e-05
4.61462e-05
6.49791e-05
7.00608e-05
7.00887e-05
5.35147e-05
7.0254e-05
7.02709e-05
6.90751e-05
7.34267e-05
6.89261e-05
7.32781e-05
7.11674e-05
7.10779e-05
6.90514e-05
7.34133e-05
6.89984e-05
7.32357e-05
3.85103e-05
3.86308e-05
3.86082e-05
3.88775e-05
3.90266e-05
3.88759e-05
3.88085e-05
6.11609e-05
6.52323e-05
4.66783e-05
5.17468e-05
6.0985e-05
6.54214e-05
4.68327e-05
7.10736e-05
7.09429e-05
6.10502e-05
4.67031e-05
6.5236e-05
5.16492e-05
6.10039e-05
4.67694e-05
6.52546e-05
7.04331e-05
7.04026e-05
5.39153e-05
7.01442e-05
7.00287e-05
6.72277e-05
7.27974e-05
6.82621e-05
7.26293e-05
7.07188e-05
7.06209e-05
6.70297e-05
7.27787e-05
6.79537e-05
7.26407e-05
3.90333e-05
3.88587e-05
3.87831e-05
3.8015e-05
3.83149e-05
3.79161e-05
3.78712e-05
5.94668e-05
6.47455e-05
4.68873e-05
5.15426e-05
6.05689e-05
6.36097e-05
4.67447e-05
7.06785e-05
7.06711e-05
5.9102e-05
4.66905e-05
6.40873e-05
5.08904e-05
6.00656e-05
4.63782e-05
6.3184e-05
6.88222e-05
6.87668e-05
5.2151e-05
6.80877e-05
6.81077e-05
6.60169e-05
7.28959e-05
6.59924e-05
7.35179e-05
7.08622e-05
7.13359e-05
6.64002e-05
7.29574e-05
6.60977e-05
7.35796e-05
3.77226e-05
3.75039e-05
3.75251e-05
5.77404e-05
6.2136e-05
4.49961e-05
4.89738e-05
5.79151e-05
6.19901e-05
4.46751e-05
7.10563e-05
7.15391e-05
5.81233e-05
4.4914e-05
6.23589e-05
4.91079e-05
5.80326e-05
4.474e-05
6.27069e-05
6.77895e-05
6.79151e-05
5.09094e-05
6.88579e-05
6.89767e-05
6.95695e-05
6.95722e-05
4.23259e-05
6.70315e-05
6.70415e-05
6.9598e-05
6.95719e-05
6.96007e-05
6.95746e-05
4.24904e-05
6.71195e-05
6.71294e-05
6.70456e-05
6.70556e-05
6.48557e-05
7.14108e-05
5.36055e-05
3.71308e-05
6.03951e-05
2.95007e-05
5.36069e-05
3.713e-05
6.03989e-05
2.9501e-05
6.48715e-05
7.14483e-05
7.14124e-05
6.49687e-05
6.48733e-05
7.14534e-05
7.14174e-05
6.49706e-05
5.36462e-05
3.73587e-05
6.05394e-05
2.99928e-05
6.04188e-05
2.97465e-05
5.38409e-05
5.36476e-05
3.73581e-05
6.05435e-05
2.99934e-05
6.04226e-05
2.97469e-05
5.38423e-05
4.23238e-05
6.70413e-05
6.70274e-05
6.9568e-05
6.96002e-05
6.9574e-05
4.24884e-05
6.71298e-05
6.71159e-05
6.70555e-05
6.70418e-05
6.95965e-05
6.95702e-05
5.36087e-05
3.71288e-05
6.03998e-05
2.95034e-05
6.48558e-05
7.1406e-05
5.36068e-05
3.71309e-05
2.9504e-05
6.03932e-05
6.48753e-05
7.14542e-05
7.14183e-05
6.49725e-05
5.36492e-05
3.7357e-05
6.0544e-05
2.99958e-05
6.04234e-05
2.97493e-05
5.38439e-05
6.48733e-05
7.14486e-05
7.14126e-05
6.49706e-05
5.36474e-05
3.7359e-05
2.99963e-05
6.05378e-05
2.97502e-05
6.04172e-05
5.38421e-05
6.48565e-05
7.14098e-05
5.36069e-05
3.71339e-05
2.95044e-05
6.03953e-05
6.48549e-05
7.14072e-05
5.36488e-05
3.73565e-05
6.05397e-05
2.99943e-05
6.04189e-05
2.97479e-05
5.38435e-05
6.48741e-05
7.14524e-05
7.14164e-05
6.49714e-05
5.36475e-05
3.73617e-05
2.99964e-05
6.05396e-05
2.97503e-05
6.0419e-05
5.38423e-05
6.48725e-05
7.14497e-05
7.14137e-05
6.49698e-05
4.23253e-05
6.70336e-05
6.70312e-05
6.95705e-05
6.95985e-05
6.95722e-05
4.24897e-05
6.71221e-05
6.71198e-05
6.70481e-05
6.70454e-05
6.9599e-05
6.95729e-05
5.36093e-05
3.71319e-05
2.95068e-05
6.04005e-05
6.48569e-05
7.1408e-05
6.48581e-05
7.14118e-05
5.3649e-05
3.73589e-05
2.99978e-05
6.05409e-05
2.97518e-05
6.04199e-05
5.38437e-05
5.36501e-05
3.73597e-05
2.99988e-05
6.05449e-05
2.97529e-05
6.04242e-05
5.38446e-05
6.48745e-05
7.14506e-05
7.14146e-05
6.49718e-05
6.48758e-05
7.14542e-05
7.14183e-05
6.4973e-05
6.95698e-05
6.95726e-05
4.24922e-05
6.71189e-05
6.71304e-05
6.70449e-05
6.70564e-05
6.95983e-05
6.95722e-05
6.96011e-05
6.9575e-05
6.96005e-05
6.9627e-05
6.96032e-05
6.96297e-05
6.71333e-05
6.71433e-05
4.30415e-05
6.7206e-05
6.72161e-05
6.96567e-05
6.96296e-05
6.96594e-05
6.96323e-05
4.31999e-05
6.72917e-05
6.73019e-05
6.72197e-05
6.72298e-05
6.50837e-05
7.146e-05
6.49879e-05
7.14961e-05
5.40711e-05
6.05625e-05
3.0239e-05
3.80322e-05
5.38807e-05
6.06806e-05
3.04838e-05
5.40727e-05
6.05668e-05
3.02398e-05
3.80327e-05
5.38822e-05
6.06851e-05
3.04847e-05
6.50987e-05
7.15343e-05
7.14978e-05
6.5193e-05
6.51007e-05
7.15391e-05
7.15027e-05
6.51949e-05
5.41101e-05
3.82522e-05
6.08193e-05
3.09696e-05
6.07033e-05
3.0727e-05
5.42964e-05
5.41116e-05
3.8253e-05
6.08234e-05
3.09707e-05
6.07078e-05
3.0728e-05
5.4298e-05
6.71437e-05
6.71301e-05
4.30408e-05
6.72165e-05
6.72027e-05
6.95988e-05
6.96255e-05
6.96587e-05
6.96317e-05
4.31995e-05
6.73017e-05
6.72879e-05
6.72302e-05
6.72166e-05
6.9655e-05
6.96279e-05
5.40743e-05
6.05671e-05
3.02412e-05
3.803e-05
5.38836e-05
6.06853e-05
3.04859e-05
6.50839e-05
7.14552e-05
6.49879e-05
7.14914e-05
5.40726e-05
3.02421e-05
6.05613e-05
3.80328e-05
5.38819e-05
3.04866e-05
6.06796e-05
6.51028e-05
7.15403e-05
7.15038e-05
6.51973e-05
5.41132e-05
3.82506e-05
6.08242e-05
3.09728e-05
6.0708e-05
3.07292e-05
5.43e-05
6.51009e-05
7.15345e-05
7.14981e-05
6.51954e-05
5.41115e-05
3.82537e-05
3.0974e-05
6.08185e-05
3.07305e-05
6.07026e-05
5.42982e-05
6.50847e-05
7.1459e-05
6.49888e-05
7.14951e-05
5.40728e-05
3.02424e-05
6.05629e-05
3.80354e-05
5.3882e-05
3.04873e-05
6.06813e-05
6.5083e-05
7.14563e-05
6.49871e-05
7.14926e-05
5.41131e-05
3.82517e-05
6.08199e-05
3.09722e-05
6.07043e-05
3.07291e-05
5.42996e-05
6.51018e-05
7.15382e-05
7.15018e-05
6.5196e-05
5.41117e-05
3.8256e-05
3.09742e-05
6.08201e-05
3.07312e-05
6.0704e-05
5.42984e-05
6.51001e-05
7.15357e-05
7.14992e-05
6.51944e-05
6.71364e-05
6.71338e-05
4.3042e-05
6.72092e-05
6.72068e-05
6.96015e-05
6.9628e-05
6.96571e-05
6.96299e-05
4.32007e-05
6.72947e-05
6.72922e-05
6.72232e-05
6.72205e-05
6.96575e-05
6.96306e-05
5.40752e-05
3.02444e-05
6.05681e-05
3.80336e-05
5.38846e-05
3.04895e-05
6.06865e-05
6.50851e-05
7.14573e-05
6.49892e-05
7.14934e-05
6.50861e-05
7.14608e-05
6.49904e-05
7.14969e-05
5.41134e-05
3.82543e-05
3.09765e-05
6.08215e-05
3.0733e-05
6.07055e-05
5.42999e-05
5.41143e-05
3.82544e-05
3.09771e-05
6.08254e-05
3.07338e-05
6.07093e-05
5.43007e-05
6.51022e-05
7.15365e-05
7.15001e-05
6.51965e-05
6.51032e-05
7.154e-05
7.15036e-05
6.51975e-05
6.96008e-05
6.96273e-05
6.96036e-05
6.96301e-05
4.32023e-05
6.72915e-05
6.7303e-05
6.72196e-05
6.72311e-05
6.96569e-05
6.96299e-05
6.96597e-05
6.96327e-05
6.96594e-05
6.96868e-05
6.9662e-05
6.96894e-05
6.73053e-05
6.73155e-05
4.37322e-05
6.73769e-05
6.7387e-05
6.97171e-05
6.96895e-05
6.97198e-05
6.96922e-05
4.38861e-05
6.74604e-05
6.74704e-05
6.73904e-05
6.74005e-05
6.5305e-05
7.15459e-05
6.52117e-05
7.15826e-05
5.45176e-05
6.08417e-05
3.12126e-05
3.89054e-05
5.43345e-05
6.09564e-05
3.14553e-05
5.4519e-05
6.08457e-05
3.12135e-05
3.89052e-05
5.43361e-05
6.09598e-05
3.14561e-05
6.53198e-05
7.16213e-05
7.15846e-05
6.5412e-05
6.53216e-05
7.16263e-05
7.15894e-05
6.54139e-05
5.45551e-05
3.91205e-05
6.10911e-05
3.19387e-05
6.09785e-05
3.16973e-05
5.47352e-05
5.45565e-05
3.91198e-05
6.10946e-05
3.19392e-05
6.09819e-05
3.16979e-05
5.47365e-05
6.73152e-05
6.73017e-05
4.37306e-05
6.73864e-05
6.73726e-05
6.96575e-05
6.96851e-05
6.97192e-05
6.96915e-05
4.38843e-05
6.74703e-05
6.74565e-05
6.73999e-05
6.73864e-05
6.97156e-05
6.96877e-05
5.45213e-05
6.08466e-05
3.12158e-05
3.89037e-05
5.4338e-05
6.09613e-05
3.14584e-05
6.53054e-05
7.15413e-05
6.52122e-05
7.15779e-05
5.45195e-05
3.12173e-05
6.0841e-05
3.89063e-05
5.43363e-05
3.14594e-05
6.0955e-05
6.5324e-05
7.16271e-05
7.15905e-05
6.54158e-05
5.45586e-05
3.91191e-05
6.10956e-05
3.1942e-05
6.09833e-05
3.17e-05
5.47384e-05
6.5322e-05
7.16214e-05
7.15847e-05
6.54139e-05
5.45568e-05
3.91211e-05
3.19427e-05
6.10892e-05
3.1701e-05
6.09772e-05
5.47365e-05
6.5306e-05
7.1545e-05
6.52128e-05
7.15816e-05
5.45194e-05
3.1217e-05
6.08425e-05
3.89087e-05
5.43364e-05
3.14593e-05
6.09569e-05
6.53044e-05
7.15424e-05
6.52112e-05
7.15792e-05
5.4558e-05
3.91188e-05
6.1091e-05
3.19406e-05
6.09785e-05
3.1699e-05
5.47379e-05
6.53226e-05
7.16252e-05
7.15885e-05
6.54147e-05
5.45567e-05
3.91239e-05
3.19431e-05
6.10914e-05
3.17013e-05
6.09789e-05
5.47367e-05
6.5321e-05
7.16226e-05
7.15859e-05
6.54131e-05
6.73086e-05
6.73058e-05
4.37328e-05
6.73793e-05
6.73768e-05
6.96602e-05
6.96876e-05
6.97175e-05
6.96897e-05
4.38863e-05
6.74628e-05
6.74604e-05
6.73931e-05
6.73902e-05
6.9718e-05
6.96903e-05
5.45217e-05
3.12197e-05
6.08477e-05
3.8907e-05
5.43389e-05
3.14617e-05
6.09621e-05
6.53064e-05
7.15432e-05
6.52133e-05
7.15799e-05
6.53073e-05
7.15467e-05
6.52143e-05
7.15834e-05
5.45584e-05
3.91214e-05
3.19445e-05
6.10923e-05
3.17027e-05
6.09798e-05
5.4738e-05
5.45592e-05
3.91222e-05
3.19455e-05
6.10965e-05
3.17037e-05
6.09841e-05
5.47389e-05
6.5323e-05
7.16235e-05
7.15867e-05
6.5415e-05
6.5324e-05
7.16267e-05
7.15901e-05
6.5416e-05
6.96596e-05
6.9687e-05
6.96624e-05
6.96897e-05
4.38883e-05
6.74599e-05
6.74714e-05
6.739e-05
6.74014e-05
6.97173e-05
6.96897e-05
6.97201e-05
6.96925e-05
6.97199e-05
6.97478e-05
6.97226e-05
6.97505e-05
6.74735e-05
6.74834e-05
4.44013e-05
6.75413e-05
6.75512e-05
6.97792e-05
6.97508e-05
6.97819e-05
6.97534e-05
4.45487e-05
6.76217e-05
6.76317e-05
6.75541e-05
6.7564e-05
6.55202e-05
7.1633e-05
6.54302e-05
7.16698e-05
5.49476e-05
6.11125e-05
3.218e-05
3.97551e-05
5.47719e-05
6.12216e-05
3.24201e-05
5.49491e-05
6.11162e-05
3.21804e-05
3.97548e-05
5.47733e-05
6.12258e-05
3.24207e-05
6.55341e-05
7.17088e-05
7.16717e-05
6.56224e-05
6.55361e-05
7.17136e-05
7.16765e-05
6.56243e-05
5.49833e-05
3.99607e-05
6.13493e-05
3.2892e-05
6.12423e-05
3.26574e-05
5.51544e-05
5.49848e-05
3.99613e-05
6.13536e-05
3.28933e-05
6.12467e-05
3.26583e-05
5.5156e-05
6.74835e-05
6.74699e-05
4.43999e-05
6.75518e-05
6.7538e-05
6.97182e-05
6.97463e-05
6.97812e-05
6.97528e-05
4.45479e-05
6.76319e-05
6.76182e-05
6.75646e-05
6.7551e-05
6.97776e-05
6.9749e-05
5.49503e-05
6.1117e-05
3.21833e-05
3.97532e-05
5.47749e-05
6.12259e-05
3.2423e-05
6.55199e-05
7.16282e-05
6.54301e-05
7.1665e-05
5.49486e-05
3.21842e-05
6.11109e-05
3.97552e-05
5.4773e-05
3.24237e-05
6.122e-05
6.55376e-05
7.17147e-05
7.16775e-05
6.56262e-05
5.49858e-05
3.99587e-05
6.13538e-05
3.28937e-05
6.12467e-05
3.26592e-05
5.51572e-05
6.55358e-05
7.1709e-05
7.16718e-05
6.56244e-05
5.49841e-05
3.99611e-05
3.28949e-05
6.13481e-05
3.26604e-05
6.12411e-05
5.51555e-05
6.5521e-05
7.16321e-05
6.5431e-05
7.16688e-05
5.49491e-05
3.21843e-05
6.11128e-05
3.97579e-05
5.47733e-05
3.24237e-05
6.1222e-05
6.55194e-05
7.16294e-05
6.54294e-05
7.16661e-05
5.4986e-05
3.996e-05
6.135e-05
3.28942e-05
6.12432e-05
3.26587e-05
5.51572e-05
6.55369e-05
7.17126e-05
7.16756e-05
6.56251e-05
5.49847e-05
3.99639e-05
3.2896e-05
6.13497e-05
3.26608e-05
6.12429e-05
5.51559e-05
6.55353e-05
7.171e-05
7.16729e-05
6.56234e-05
6.74761e-05
6.74735e-05
4.44013e-05
6.75441e-05
6.75418e-05
6.97208e-05
6.97487e-05
6.97796e-05
6.9751e-05
4.45489e-05
6.76246e-05
6.76221e-05
6.75572e-05
6.75547e-05
6.978e-05
6.97517e-05
5.49513e-05
3.2187e-05
6.1118e-05
3.97564e-05
5.47756e-05
3.24264e-05
6.12273e-05
6.55214e-05
7.16303e-05
6.54313e-05
7.1667e-05
6.55222e-05
7.16335e-05
6.54323e-05
7.16702e-05
5.49863e-05
3.99622e-05
3.28978e-05
6.13513e-05
3.26627e-05