/*--------------------------------*- C++ -*----------------------------------*\
| =========                 |                                                 |
| \\      /  F ield         | OpenFOAM: The Open Source CFD Toolbox           |
|  \\    /   O peration     | Version:  v1906                                 |
|   \\  /    A nd           | Web:      www.OpenFOAM.com                      |
|    \\/     M anipulation  |                                                 |
\*---------------------------------------------------------------------------*/
FoamFile
{
    version     2.0;
    format      ascii;
    class       volScalarField;
    location    "750";
    object      nut;
}
// * * * * * * * * * * * * * * * * * * * * * * * * * * * * * * * * * * * * * //

dimensions      [0 2 -1 0 0 0 0];


internalField   nonuniform List<scalar> 
42840
(
0.000126566
0.000143275
0.000143271
0.000140162
0.000129524
0.000146351
0.000146355
0.00014253
0.000132661
0.000149408
0.000149412
0.000144862
0.000135862
0.000152387
0.000152386
0.000147117
0.000139245
0.00015536
0.000155357
0.000149355
0.000142639
0.000158218
0.000158214
0.000151499
0.00014602
0.000160992
0.00016101
0.000153574
0.000149599
0.000163824
0.000163812
0.000155665
0.000153146
0.000166493
0.00016648
0.000157639
0.00015662
0.000169057
0.000169079
0.000159528
0.0001602
0.000171675
0.000171662
0.000161439
0.000163683
0.000174134
0.00017412
0.000163241
0.000167456
0.000176576
0.00017658
0.000164988
0.000170373
0.00017876
0.000178781
0.000166586
0.000174395
0.000181298
0.000181242
0.000168434
0.000177504
0.000183328
0.000183438
0.000169864
0.000180921
0.000185412
0.000185265
0.000171328
0.000183789
0.000187271
0.000187197
0.000172486
0.000185895
0.000188727
0.000189031
0.000173944
0.000192011
0.000192704
0.000192526
0.00017651
0.000194845
0.000193326
0.00019345
0.000176834
0.000193782
0.000194198
0.000192661
0.00017621
0.000197806
0.000194802
0.000196557
0.000179676
0.00020522
0.000200727
0.00020135
0.000183413
0.000209456
0.000205149
0.000203715
0.000182958
0.000198296
0.000190611
0.000189109
0.000170332
0.000139756
0.000142482
0.000142475
0.000139755
0.000142487
0.000142471
0.000142492
0.000142489
0.00013975
0.00014249
0.000142493
0.000139758
0.00014016
0.000142132
0.000143263
0.000143259
0.000145567
0.000145568
0.000140161
0.000142138
0.000143267
0.000143251
0.000145573
0.000145568
0.000143269
0.000145586
0.000145581
0.000140155
0.000142135
0.000143273
0.00014559
0.000145587
0.00014214
0.000142523
0.000144476
0.000146334
0.000146333
0.000148635
0.000148625
0.000142528
0.000144473
0.000146342
0.000146334
0.000148643
0.000148628
0.000146347
0.000148645
0.000148646
0.000142526
0.000144471
0.000146353
0.000148648
0.000148653
0.000144481
0.000144858
0.000146748
0.0001494
0.00014939
0.000151628
0.000151633
0.000144855
0.000146755
0.000149409
0.000149392
0.000151631
0.000151623
0.00014941
0.00015165
0.000151642
0.000144852
0.000146749
0.000149416
0.000151649
0.000151649
0.000146756
0.00014711
0.000148999
0.000152363
0.000152367
0.000154612
0.000154601
0.000147118
0.000148995
0.000152369
0.000152361
0.000154619
0.0001546
0.00015238
0.000154615
0.000154608
0.000147111
0.000148992
0.000152387
0.000154615
0.000154616
0.000148996
0.000149359
0.000151162
0.000155351
0.000155345
0.000157503
0.000157504
0.000149356
0.000151168
0.000155359
0.000155342
0.000157511
0.0001575
0.00015535
0.000157525
0.00015752
0.000149352
0.000151162
0.000155356
0.000157526
0.000157529
0.000151171
0.00015149
0.000153236
0.0001582
0.0001582
0.00016028
0.000160273
0.000151496
0.000153237
0.000158206
0.000158189
0.000160286
0.000160269
0.00015821
0.00016029
0.000160296
0.000151489
0.000153234
0.000158217
0.000160297
0.000160306
0.000153245
0.000153562
0.000155346
0.000160969
0.00016097
0.000163105
0.000163112
0.000153565
0.000155356
0.000160982
0.00016098
0.000163115
0.000163107
0.000160997
0.000163129
0.000163107
0.000153566
0.000155349
0.000161012
0.000163119
0.000163111
0.000155346
0.000155672
0.000157354
0.000163822
0.00016381
0.000165828
0.000165812
0.000155675
0.000157339
0.000163829
0.000163799
0.00016583
0.000165798
0.000163811
0.000165831
0.00016583
0.000155664
0.000157328
0.000163816
0.000165827
0.000165841
0.00015735
0.000157639
0.000159235
0.000166484
0.000166478
0.000168396
0.000168403
0.000157631
0.000159253
0.000166483
0.000166455
0.000168409
0.000168407
0.000166483
0.00016842
0.00016841
0.000157619
0.000159254
0.000166489
0.000168428
0.000168417
0.000159245
0.000159513
0.000161142
0.000169017
0.000169032
0.000170995
0.00017101
0.000159531
0.000161158
0.00016904
0.000169056
0.000171008
0.000171006
0.000169052
0.000171032
0.000171021
0.000159539
0.000161153
0.000169063
0.000171035
0.000171039
0.000161164
0.000161423
0.000162993
0.000171648
0.000171655
0.000173491
0.000173473
0.000161437
0.000162979
0.000171656
0.000171633
0.000173497
0.000173447
0.000171659
0.0001735
0.000173495
0.000161422
0.000162951
0.000171675
0.000173476
0.000173501
0.000162979
0.000163258
0.000164796
0.000174142
0.000174114
0.000176063
0.000176047
0.000163237
0.000164787
0.000174148
0.000174095
0.00017606
0.000176039
0.000174135
0.000176043
0.000176016
0.000163217
0.000164797
0.000174142
0.000176047
0.000176018
0.000164774
0.000165004
0.000166255
0.000176563
0.000176569
0.000178019
0.000178034
0.000165007
0.000166293
0.000176568
0.00017657
0.00017807
0.000178112
0.000176537
0.000178094
0.000178132
0.000165019
0.000166309
0.00017654
0.00017815
0.000178163
0.000166327
0.000166511
0.000168275
0.000178674
0.000178705
0.000180813
0.00018085
0.000166551
0.000168293
0.000178714
0.00017874
0.00018076
0.000180644
0.000178783
0.000180832
0.000180726
0.000166554
0.000168187
0.000178807
0.000180676
0.000180708
0.000168221
0.0001685
0.000169609
0.000181363
0.000181323
0.000182708
0.000182643
0.000168481
0.000169541
0.000181328
0.000181207
0.000182766
0.000182878
0.000181266
0.000182676
0.000182787
0.00016841
0.000169719
0.000181274
0.000182921
0.000182855
0.00016967
0.000169795
0.000171265
0.000183255
0.000183287
0.000184989
0.000184958
0.000169771
0.000171275
0.000183287
0.000183404
0.000184994
0.000184792
0.000183329
0.000184994
0.00018491
0.000169914
0.000171083
0.000183357
0.000184775
0.00018487
0.000171158
0.000171447
0.000172325
0.000185504
0.000185372
0.000186729
0.000186856
0.000171409
0.00017241
0.000185545
0.000185303
0.000186734
0.00018682
0.000185408
0.000186891
0.000186781
0.000171237
0.000172437
0.000185378
0.000186802
0.000186737
0.000172391
0.000172356
0.000173461
0.000186957
0.000187241
0.000188005
0.000188059
0.000172543
0.000173521
0.000186929
0.000187149
0.000188018
0.000188191
0.000187106
0.000188072
0.000188195
0.000172562
0.000173648
0.000187096
0.000188377
0.000188357
0.000173637
0.000173846
0.000176519
0.000188843
0.00018872
0.000192147
0.000191872
0.000173756
0.000176287
0.000188865
0.000188888
0.000192126
0.000191759
0.000188917
0.000191867
0.000191872
0.000173921
0.000176207
0.000189054
0.000191713
0.000191819
0.000176291
0.000176719
0.00017696
0.000192942
0.000192716
0.000193502
0.000193444
0.000176536
0.000177007
0.00019293
0.000192595
0.000193546
0.000193528
0.000192688
0.00019342
0.000193452
0.000176445
0.000177058
0.000192631
0.000193494
0.000193465
0.000176986
0.000176796
0.00017622
0.000193353
0.000193335
0.000192524
0.000193571
0.000176858
0.000177304
0.000193429
0.000193485
0.000192563
0.000192768
0.000193366
0.000193741
0.000192606
0.000176917
0.000176291
0.000193395
0.00019275
0.000192554
0.000176161
0.000176337
0.00017888
0.000192721
0.000194181
0.000195359
0.000194436
0.000177495
0.000177787
0.000192534
0.000192639
0.000195316
0.000195141
0.00019265
0.000194408
0.000195442
0.000176297
0.000178841
0.00019245
0.000195363
0.000195627
0.000179095
0.000179334
0.000182557
0.000196312
0.000194672
0.000200086
0.000198847
0.000177731
0.000181395
0.000196456
0.000196306
0.000200367
0.000200394
0.000196666
0.000199044
0.000200603
0.000179325
0.000182567
0.000196997
0.000200472
0.000200799
0.000183039
0.000183015
0.00018546
0.000201131
0.000200604
0.00020339
0.000203689
0.000182273
0.000186759
0.000201315
0.00020138
0.000203543
0.000203735
0.000201409
0.000203701
0.000203513
0.000183045
0.00018573
0.000201476
0.000203591
0.000203432
0.000184351
0.000184476
0.00017273
0.000204093
0.00020521
0.000192959
0.000195561
0.000186995
0.000175106
0.000204012
0.000204094
0.000192509
0.000192132
0.000203259
0.000195255
0.000191686
0.000184489
0.00017235
0.000202624
0.000191923
0.000191239
0.000171699
0.000171138
0.000189545
0.000190683
0.000172739
0.000189332
0.00018905
0.000189179
0.000170826
0.000189011
9.23922e-05
5.0036e-05
2.36185e-05
9.2395e-05
5.00329e-05
0.000125838
0.00012583
0.000125838
0.000125848
0.000122161
0.000140921
9.42766e-05
0.000136435
2.36165e-05
0.000122161
0.000140923
0.000136448
9.42781e-05
0.000138547
7.39657e-05
7.39652e-05
9.28683e-05
5.00532e-05
9.26542e-05
5.00659e-05
2.36238e-05
2.36283e-05
9.28712e-05
5.00501e-05
9.26672e-05
5.00628e-05
0.000126563
0.000126565
0.000126572
0.000128773
0.000128779
0.000128784
0.000128791
0.000123485
9.45937e-05
0.000139085
0.000144051
0.000122928
9.4875e-05
0.000139971
2.36217e-05
2.36263e-05
0.000123485
0.000139092
9.45962e-05
0.000144048
0.000122927
0.000139978
9.48767e-05
7.41058e-05
7.41053e-05
0.000140956
7.42264e-05
7.42258e-05
9.33277e-05
5.00834e-05
9.312e-05
5.00963e-05
2.36337e-05
2.36384e-05
9.33314e-05
5.00803e-05
9.31341e-05
5.00931e-05
0.000129528
0.000129541
0.000129542
0.00013186
0.000131857
0.000131864
0.000131874
0.000124761
9.51781e-05
0.000142616
0.000147115
0.000124224
9.54493e-05
0.000143502
2.36317e-05
2.36364e-05
0.000124762
0.000142633
9.51814e-05
0.000147118
0.000124224
0.000143516
9.54516e-05
7.43608e-05
7.43603e-05
0.000143313
7.44781e-05
7.44774e-05
9.37727e-05
5.01138e-05
9.35725e-05
5.01267e-05
2.3644e-05
2.36487e-05
9.37748e-05
5.01107e-05
9.35856e-05
5.01235e-05
0.000132653
0.000132665
0.000132677
0.000135072
0.000135075
0.00013508
0.000135085
0.000126002
9.57447e-05
0.000146182
0.000150164
0.000125479
9.60066e-05
0.000147077
2.3642e-05
2.36467e-05
0.000126002
0.000146197
9.57473e-05
0.000150167
0.000125479
0.000147093
9.60082e-05
7.46079e-05
7.46073e-05
0.000145632
7.47192e-05
7.47185e-05
9.41994e-05
5.01445e-05
9.40046e-05
5.01575e-05
2.36545e-05
2.36594e-05
9.4203e-05
5.01414e-05
9.40175e-05
5.01544e-05
0.000135879
0.00013588
0.000135885
0.000138385
0.000138365
0.000138378
0.000138384
0.000127194
9.62859e-05
0.000149713
0.000153126
0.00012669
9.65404e-05
0.000150595
2.36525e-05
2.36574e-05
0.000127193
0.000149724
9.62887e-05
0.000153127
0.000126689
0.000150606
9.65418e-05
7.4842e-05
7.48413e-05
0.000147873
7.49524e-05
7.49517e-05
9.46139e-05
5.01751e-05
9.44281e-05
5.01878e-05
2.36653e-05
2.36701e-05
9.46159e-05
5.0172e-05
9.4442e-05
5.01846e-05
0.000139225
0.000139234
0.000139234
0.000141794
0.000141806
0.000141819
0.000141826
0.000128363
9.68175e-05
0.000153261
0.000156098
0.00012787
9.706e-05
0.000154158
2.36632e-05
2.36681e-05
0.000128361
0.000153269
9.68193e-05
0.000156096
0.000127868
0.000154162
9.70609e-05
7.50738e-05
7.50731e-05
0.000150105
7.51758e-05
7.5175e-05
9.49998e-05
5.02053e-05
9.48221e-05
5.02185e-05
2.36761e-05
2.36811e-05
9.50026e-05
5.02025e-05
9.48342e-05
5.02156e-05
0.000142645
0.000142656
0.000142667
0.00014517
0.000145161
0.000145154
0.000145177
0.000129461
9.73112e-05
0.000156759
0.000158906
0.000128998
9.75406e-05
0.000157597
2.3674e-05
2.36791e-05
0.000129461
0.000156769
9.73139e-05
0.000158897
0.000128997
0.000157599
9.75427e-05
7.52839e-05
7.52831e-05
0.000152203
7.53831e-05
7.53824e-05
9.53904e-05
5.02367e-05
9.52104e-05
5.02499e-05
2.36875e-05
2.36926e-05
9.53955e-05
5.02338e-05
9.52257e-05
5.02469e-05
0.000146013
0.000146031
0.000146052
0.000148657
0.000148689
0.0001487
0.00014868
0.000130556
9.7795e-05
0.000160137
0.000161703
0.000130084
9.80309e-05
0.000160995
2.36853e-05
2.36904e-05
0.000130559
0.000160165
9.77994e-05
0.000161719
0.000130086
0.000161028
9.80338e-05
7.54955e-05
7.5495e-05
0.000154301
7.5596e-05
7.55952e-05
9.57629e-05
5.02675e-05
9.55943e-05
5.028e-05
2.36986e-05
2.37036e-05
9.57611e-05
5.02644e-05
9.56066e-05
5.02769e-05
0.000149605
0.000149597
0.000149588
0.000152288
0.00015226
0.000152275
0.000152303
0.000131618
9.82768e-05
0.000163603
0.000164501
0.000131174
9.84892e-05
0.000164448
2.36964e-05
2.37015e-05
0.000131612
0.000163594
9.8276e-05
0.000164495
0.00013117
0.000164447
9.84872e-05
7.57009e-05
7.56999e-05
0.000156369
7.57919e-05
7.57912e-05
9.61005e-05
5.0297e-05
9.59437e-05
5.03098e-05
2.37098e-05
2.3715e-05
9.61039e-05
5.02941e-05
9.59538e-05
5.0307e-05
0.000153144
0.000153147
0.000153167
0.000155786
0.000155775
0.000155762
0.000155768
0.000132609
9.87112e-05
0.000166915
0.000167147
0.000132186
9.89199e-05
0.000167726
2.37077e-05
2.37129e-05
0.000132609
0.000166915
9.87146e-05
0.00016713
0.000132184
0.000167712
9.89226e-05
7.5887e-05
7.58863e-05
0.0001583
7.59737e-05
7.59722e-05
9.64427e-05
5.03278e-05
9.62823e-05
5.03408e-05
2.37213e-05
2.37265e-05
9.64495e-05
5.03249e-05
9.63004e-05
5.03378e-05
0.000156616
0.00015664
0.000156634
0.000159254
0.000159294
0.000159329
0.000159316
0.000133594
9.91403e-05
0.00017008
0.000169708
0.000133171
9.93443e-05
0.000170882
2.37191e-05
2.37243e-05
0.000133599
0.000170104
9.91454e-05
0.000169734
0.000133169
0.000170914
9.93497e-05
7.60694e-05
7.60687e-05
0.000160204
7.61585e-05
7.61587e-05
9.67802e-05
5.03586e-05
9.66242e-05
5.03712e-05
2.37328e-05
2.37379e-05
9.67773e-05
5.03554e-05
9.66349e-05
5.0368e-05
0.000160227
0.000160231
0.000160234
0.000162812
0.000162809
0.00016279
0.000162835
0.000134559
9.9564e-05
0.00017333
0.000172293
0.00013415
9.97582e-05
0.000174104
2.37305e-05
2.37357e-05
0.000134555
0.000173341
9.95631e-05
0.000172267
0.000134152
0.000174101
9.97511e-05
7.62499e-05
7.62496e-05
0.000162084
7.63316e-05
7.63299e-05
9.70889e-05
5.03879e-05
9.69438e-05
5.03997e-05
2.37441e-05
2.37491e-05
9.70928e-05
5.03849e-05
9.69547e-05
5.03968e-05
0.000163672
0.000163661
0.000163709
0.000166606
0.000166552
0.000166548
0.000166533
0.000135463
9.99542e-05
0.000176373
0.00017479
0.000135072
0.000100143
0.000177183
2.3742e-05
2.37471e-05
0.000135464
0.000176363
9.99548e-05
0.000174788
0.00013506
0.000177184
0.00010015
7.64196e-05
7.64178e-05
0.000163902
7.64976e-05
7.64964e-05
9.73567e-05
5.04158e-05
9.72372e-05
5.04285e-05
2.37553e-05
2.37606e-05
9.73656e-05
5.0413e-05
9.72538e-05
5.04255e-05
0.000167427
0.00016742
0.000167376
0.000169533
0.000169542
0.000169656
0.000169644
0.000136312
0.000100327
0.000179475
0.000177055
0.000135964
0.00010048
0.0001801
2.37531e-05
2.37583e-05
0.000136313
0.000179469
0.000100335
0.000177073
0.000135965
0.000180103
0.000100483
7.6565e-05
7.65643e-05
0.000165521
7.66316e-05
7.66311e-05
9.76942e-05
5.0448e-05
9.75135e-05
5.04612e-05
2.37676e-05
2.37726e-05
9.76871e-05
5.04447e-05
9.75276e-05
5.04576e-05
0.000170376
0.000170514
0.000170529
0.000173442
0.000173596
0.000173342
0.000173406
0.000137205
0.000100677
0.000182144
0.000179502
0.000136776
0.000100902
0.000183012
2.37652e-05
2.37704e-05
0.0001372
0.000182207
0.000100674
0.000179439
0.000136771
0.000183008
0.000100888
7.67288e-05
7.67284e-05
0.000167302
7.68232e-05
7.68226e-05
9.79344e-05
5.04749e-05
9.78565e-05
5.04849e-05
2.37778e-05
2.37826e-05
9.79416e-05
5.04719e-05
9.7851e-05
5.04824e-05
0.000174473
0.000174214
0.000174299
0.000176721
0.000176502
0.00017687
0.000176807
0.000137996
0.000101069
0.000185359
0.00018169
0.000137716
0.000101165
0.000185918
2.3776e-05
2.37808e-05
0.000138028
0.000185272
0.000101076
0.000181801
0.000137712
0.000185988
0.000101208
7.68855e-05
7.68864e-05
0.000168961
7.69337e-05
7.69353e-05
9.81984e-05
5.0502e-05
9.80346e-05
5.05138e-05
2.37895e-05
2.37941e-05
9.8205e-05
5.04993e-05
9.80727e-05
5.05107e-05
0.000177434
0.000177748
0.000177611
0.000180087
0.000180179
0.000179921
0.000180012
0.000138779
0.000101337
0.000187887
0.000183981
0.000138369
0.000101556
0.000188673
2.37867e-05
2.37913e-05
0.000138738
0.000188046
0.000101362
0.000183902
0.000138408
0.000188641
0.000101501
7.70056e-05
7.70021e-05
0.00017043
7.70736e-05
7.7064e-05
9.83733e-05
5.05254e-05
9.83291e-05
5.05342e-05
2.3799e-05
2.3804e-05
9.839e-05
5.05225e-05
9.83256e-05
5.05312e-05
0.000180803
0.000180639
0.000180801
0.000183212
0.000183218
0.000183166
0.000183116
0.000139421
0.000101668
0.000190555
0.000185875
0.00013921
0.000101733
0.000191151
2.3797e-05
2.38022e-05
0.000139367
0.000190389
0.000101611
0.000185796
0.000139094
0.000191044
0.00010174
7.71183e-05
7.71123e-05
0.000171821
7.71503e-05
7.71529e-05
9.85649e-05
5.05531e-05
9.8435e-05
5.05724e-05
2.38118e-05
2.38184e-05
9.85395e-05
5.05491e-05
9.84546e-05
5.05684e-05
0.000184098
0.000183914
0.000183814
0.000185118
0.000185362
0.000185571
0.000185553
0.000139968
0.000101848
0.000193012
0.000187509
0.000139696
0.000101977
0.00019337
2.38095e-05
2.38165e-05
0.000140039
0.000192871
0.00010188
0.000187538
0.000139737
0.000193352
0.000102009
7.71632e-05
7.71714e-05
0.000172872
7.72427e-05
7.7251e-05
9.90623e-05
5.06001e-05
9.87943e-05
5.06104e-05
2.38269e-05
2.38311e-05
9.90729e-05
5.05973e-05
9.87916e-05
5.0608e-05
0.00018584
0.000186273
0.000186284
0.000190311
0.000190076
0.000189955
0.000190049
0.000141029
0.000102215
0.000194598
0.000189685
0.000140405
0.000102569
0.000195623
2.38248e-05
2.38288e-05
0.000141069
0.000195068
0.000102266
0.000189859
0.000140506
0.000195946
0.000102572
7.74552e-05
7.74485e-05
0.000174972
7.75926e-05
7.75781e-05
9.92234e-05
5.06103e-05
9.92079e-05
5.06071e-05
2.38326e-05
2.38341e-05
9.9246e-05
5.06083e-05
9.92188e-05
5.06048e-05
0.000191849
0.000191458
0.000191596
0.000194861
0.000194264
0.000194668
0.00019466
0.000141864
0.000102768
0.000199549
0.000193217
0.000141719
0.000102755
0.000200394
2.38302e-05
2.38313e-05
0.000141803
0.000199253
0.000102739
0.000193118
0.000141651
0.000200174
0.000102775
7.76464e-05
7.7636e-05
0.000176942
7.75774e-05
7.75771e-05
9.89228e-05
5.06135e-05
9.89594e-05
5.06315e-05
2.38405e-05
2.38474e-05
9.89461e-05
5.06084e-05
9.9007e-05
5.06243e-05
0.000194259
0.000194914
0.000194782
0.000193675
0.000195158
0.000194092
0.000193819
0.000141596
0.000102544
0.00020076
0.000193208
0.000141694
0.000102622
0.000200617
2.38349e-05
2.38423e-05
0.000141542
0.000201041
0.000102522
0.000193282
0.000141687
0.000200834
0.000102452
7.7388e-05
7.73805e-05
0.000176488
7.73393e-05
7.7331e-05
9.94606e-05
5.06636e-05
9.92428e-05
5.06832e-05
2.38528e-05
2.38582e-05
9.93767e-05
5.06581e-05
9.91022e-05
5.06823e-05
0.000195748
0.000194091
0.000193901
0.000196629
0.000196331
0.000196231
0.000196591
0.000142371
0.000102861
0.000201551
0.000194374
0.000141936
0.000102886
0.000201926
2.38555e-05
2.38645e-05
0.000142306
0.000200165
0.0001026
0.000193281
0.000141615
0.000200864
0.000103023
7.74863e-05
7.75175e-05
0.000177218
7.77018e-05
7.77418e-05
9.96937e-05
5.07095e-05
9.95388e-05
5.07318e-05
2.38722e-05
2.38844e-05
9.99368e-05
5.07161e-05
9.96534e-05
5.07372e-05
0.000196468
0.000197527
0.000198054
0.000203069
0.000201042
0.00020364
0.000203963
0.000143294
0.000102896
0.000203099
0.000195767
0.000142741
0.000103355
0.000204197
2.38747e-05
2.38802e-05
0.000143926
0.000204412
0.000103428
0.000197884
0.000143241
0.000206015
0.000103812
7.80404e-05
7.80505e-05
0.000181167
7.83331e-05
7.83382e-05
0.000100872
5.07407e-05
0.000100398
5.06923e-05
2.38886e-05
2.38745e-05
0.000101022
5.07321e-05
0.000100607
5.0673e-05
0.000203842
0.000205808
0.000205906
0.000208708
0.000209318
0.000208884
0.000208472
0.000145894
0.000104299
0.000209665
0.000201944
0.000144848
0.000104979
0.00021104
2.38714e-05
2.38502e-05
0.000145997
0.00021043
0.000104487
0.000201901
0.000145108
0.000211098
0.000105013
7.87486e-05
7.87145e-05
0.000184724
7.86321e-05
7.84448e-05
9.81085e-05
5.05259e-05
0.000100024
5.04643e-05
2.38142e-05
2.37965e-05
9.76319e-05
5.05139e-05
9.94044e-05
5.04628e-05
0.000210329
0.000209633
0.000208974
0.000203032
0.000206538
0.000201719
0.000200889
0.00014241
0.000104549
0.000213805
0.000205223
0.000145719
0.000102305
0.000214101
2.38046e-05
2.38022e-05
0.000140823
0.000212834
0.000103051
0.0002007
0.000143945
0.000211174
0.000101108
7.68577e-05
7.67381e-05
0.000178195
7.56773e-05
7.56552e-05
9.42586e-05
5.05474e-05
9.51942e-05
5.07569e-05
2.38338e-05
2.39115e-05
9.48467e-05
5.05634e-05
9.52682e-05
5.07736e-05
0.000200489
0.000197339
0.000197164
0.000133806
9.85156e-05
0.000200556
0.000187622
0.000136207
9.72101e-05
0.000197373
2.38641e-05
2.39442e-05
0.000134212
0.00019901
9.85413e-05
0.000187201
0.000136021
0.000196732
9.81599e-05
7.45094e-05
7.46527e-05
0.000167458
7.5638e-05
7.58137e-05
2.36193e-05
2.3618e-05
0.000138543
7.39681e-05
7.3965e-05
2.36241e-05
2.36197e-05
2.36229e-05
2.36184e-05
0.000138954
7.40995e-05
7.40964e-05
7.39772e-05
7.39739e-05
9.23948e-05
5.00365e-05
0.000122156
0.000140914
9.42793e-05
0.000136428
0.000122159
0.000140904
9.4278e-05
0.000136423
9.24145e-05
5.00509e-05
5.00383e-05
9.26325e-05
9.24182e-05
5.00514e-05
5.00388e-05
9.26352e-05
0.000122257
0.000141698
9.45806e-05
0.000138187
9.42959e-05
0.000137304
0.000122823
0.00012226
0.000141688
9.45799e-05
0.000138183
9.4294e-05
0.000137299
0.000122826
0.00013854
7.39654e-05
7.39606e-05
2.36192e-05
2.36233e-05
2.36189e-05
0.000138952
7.40974e-05
7.40927e-05
7.39739e-05
7.39676e-05
2.3624e-05
2.36195e-05
0.00012216
0.000140918
9.42755e-05
0.000136433
9.23913e-05
5.0029e-05
0.000122156
0.000140903
0.000136432
9.42604e-05
9.24276e-05
5.00478e-05
5.00352e-05
9.26351e-05
0.000122262
0.000141703
9.45765e-05
0.000138195
9.42916e-05
0.000137315
0.000122827
9.2424e-05
5.00439e-05
5.00313e-05
9.26315e-05
0.000122258
0.000141687
0.000138194
9.45621e-05
0.00013731
9.42755e-05
0.000122823
9.23956e-05
5.00356e-05
0.000122159
0.000140924
0.000136443
9.42776e-05
9.23935e-05
5.00322e-05
0.000122263
0.000141706
9.45788e-05
0.000138195
9.4292e-05
0.00013731
0.000122828
9.24184e-05
5.00505e-05
5.00379e-05
9.2636e-05
0.000122261
0.000141706
0.000138201
9.45786e-05
0.000137318
9.42937e-05
0.000122826
9.24157e-05
5.00471e-05
5.00345e-05
9.26338e-05
0.000138537
7.39504e-05
7.39664e-05
2.36184e-05
2.36213e-05
2.36169e-05
0.000138947
7.40824e-05
7.40986e-05
7.39576e-05
7.39754e-05
2.36233e-05
2.36188e-05
0.000122163
0.000140929
0.000136452
9.42777e-05
9.23941e-05
5.00321e-05
9.23967e-05
5.00327e-05
0.000122261
0.000141707
0.000138208
9.45802e-05
0.000137326
9.42945e-05
0.000122828
0.000122263
0.000141711
0.00013821
9.45788e-05
0.00013733
9.42936e-05
0.00012283
9.24266e-05
5.0047e-05
5.00344e-05
9.26345e-05
9.24275e-05
5.00475e-05
5.0035e-05
9.26369e-05
2.36181e-05
2.36177e-05
0.000138958
7.40973e-05
7.40967e-05
7.39745e-05
7.3974e-05
2.3623e-05
2.36185e-05
2.36225e-05
2.36181e-05
2.36245e-05
2.3629e-05
2.36233e-05
2.36278e-05
7.41081e-05
7.41049e-05
0.000140952
7.42281e-05
7.4225e-05
2.36341e-05
2.36295e-05
2.36328e-05
2.36282e-05
0.000141348
7.43546e-05
7.43517e-05
7.42363e-05
7.42332e-05
9.28711e-05
5.00537e-05
9.26579e-05
5.00664e-05
0.000123479
9.45966e-05
0.000139078
0.000144036
0.000122923
9.48756e-05
0.000139964
0.000123482
9.45955e-05
0.000139075
0.000144034
0.000122926
9.48758e-05
0.000139963
9.28893e-05
5.0081e-05
5.00682e-05
9.30996e-05
9.28932e-05
5.00815e-05
5.00687e-05
9.31023e-05
0.000123576
0.000144802
9.51652e-05
0.000141717
9.4891e-05
0.000140841
0.000124121
0.000123579
0.000144802
9.51648e-05
0.000141718
9.48908e-05
0.000140841
0.000124125
7.41056e-05
7.40994e-05
0.000140956
7.42263e-05
7.42218e-05
2.36244e-05
2.36289e-05
2.36333e-05
2.36287e-05
0.000141354
7.43522e-05
7.43478e-05
7.42341e-05
7.42281e-05
2.36339e-05
2.36293e-05
0.000123482
9.45921e-05
0.000139086
0.000144039
0.000122927
9.48717e-05
0.000139963
9.28677e-05
5.00462e-05
9.26636e-05
5.00589e-05
0.000123479
0.00013908
9.45768e-05
0.000144026
0.000122923
0.000139962
9.48584e-05
9.29027e-05
5.00779e-05
5.00651e-05
9.31031e-05
0.00012358
0.000144807
9.51616e-05
0.000141724
9.48866e-05
0.000140846
0.000124127
9.28992e-05
5.0074e-05
5.00612e-05
9.30997e-05
0.000123576
0.000144798
0.000141728
9.51485e-05
0.000140843
9.48725e-05
0.000124123
9.28724e-05
5.00528e-05
9.26583e-05
5.00655e-05
0.000123482
0.000139089
9.45944e-05
0.000144045
0.000122926
0.000139974
9.48746e-05
9.28701e-05
5.00494e-05
9.26555e-05
5.00621e-05
0.000123582
0.00014482
9.51644e-05
0.000141733
9.48894e-05
0.000140852
0.000124129
9.2894e-05
5.00805e-05
5.00678e-05
9.31039e-05
0.00012358
0.000144814
0.000141737
9.51647e-05
0.000140856
9.48898e-05
0.000124126
9.28912e-05
5.00772e-05
5.00644e-05
9.31017e-05
7.40893e-05
7.41072e-05
0.00014095
7.42117e-05
7.42279e-05
2.36237e-05
2.36282e-05
2.36313e-05
2.36267e-05
0.000141348
7.43381e-05
7.43542e-05
7.42182e-05
7.42362e-05
2.36332e-05
2.36286e-05
0.000123486
0.000139095
9.45944e-05
0.00014405
0.000122929
0.000139981
9.48747e-05
9.28709e-05
5.00493e-05
9.26665e-05
5.0062e-05
9.2873e-05
5.00498e-05
9.26672e-05
5.00625e-05
0.000123582
0.000144821
0.000141749
9.51666e-05
0.000140864
9.48921e-05
0.000124129
0.000123583
0.000144821
0.000141749
9.51648e-05
0.000140866
9.48898e-05
0.00012413
9.29022e-05
5.00771e-05
5.00643e-05
9.31025e-05
9.29026e-05
5.00776e-05
5.00648e-05
9.31046e-05
2.36234e-05
2.36279e-05
2.3623e-05
2.36275e-05
0.000141354
7.4353e-05
7.43524e-05
7.42346e-05
7.4234e-05
2.36329e-05
2.36283e-05
2.36325e-05
2.36279e-05
2.36345e-05
2.36392e-05
2.36333e-05
2.36379e-05
7.43626e-05
7.43596e-05
0.000143307
7.44801e-05
7.44771e-05
2.36443e-05
2.36397e-05
2.36431e-05
2.36384e-05
0.000143694
7.46029e-05
7.45996e-05
7.4488e-05
7.44848e-05
9.33302e-05
5.00838e-05
9.31238e-05
5.00967e-05
0.000124755
9.51802e-05
0.000142602
0.000147102
0.000124217
9.54517e-05
0.000143492
0.000124758
9.51792e-05
0.000142602
0.000147098
0.00012422
9.54497e-05
0.000143491
9.33478e-05
5.01115e-05
5.00986e-05
9.3553e-05
9.33514e-05
5.0112e-05
5.00991e-05
9.35556e-05
0.000124849
0.000147868
9.5734e-05
0.000145273
9.54667e-05
0.000144381
0.000125381
0.000124851
0.000147861
9.57319e-05
0.000145269
9.54639e-05
0.000144379
0.000125384
7.43596e-05
7.43537e-05
0.000143308
7.44767e-05
7.44723e-05
2.36343e-05
2.3639e-05
2.36435e-05
2.36388e-05
0.000143693
7.45999e-05
7.45954e-05
7.4484e-05
7.4478e-05
2.36442e-05
2.36395e-05
0.000124761
9.51762e-05
0.000142616
0.000147108
0.000124222
9.54481e-05
0.000143499
9.33278e-05
5.00763e-05
9.31305e-05
5.00891e-05
0.000124757
0.000142616
9.51621e-05
0.000147098
0.000124219
0.000143501
9.54338e-05
9.33618e-05
5.01083e-05
5.00955e-05
9.35558e-05
0.000124855
0.000147876
9.57299e-05
0.000145282
9.54626e-05
0.000144391
0.000125386
9.33581e-05
5.01044e-05
5.00915e-05
9.35522e-05
0.000124851
0.000147861
0.000145281
9.57149e-05
0.000144388
9.54471e-05
0.000125382
9.33316e-05
5.00829e-05
9.31248e-05
5.00957e-05
0.000124759
0.00014262
9.51794e-05
0.000147113
0.000124222
0.000143506
9.54505e-05
9.33295e-05
5.00796e-05
9.31221e-05
5.00924e-05
0.000124855
0.00014788
9.57314e-05
0.000145284
9.54628e-05
0.00014439
0.000125387
9.33521e-05
5.0111e-05
5.00981e-05
9.35566e-05
0.000124853
0.000147879
0.000145291
9.57323e-05
0.000144396
9.5465e-05
0.000125385
9.33495e-05
5.01076e-05
5.00948e-05
9.35546e-05
7.43443e-05
7.43621e-05
0.000143307
7.44627e-05
7.44787e-05
2.36336e-05
2.36383e-05
2.36415e-05
2.36368e-05
0.000143692
7.45851e-05
7.46014e-05
7.44686e-05
7.44863e-05
2.36434e-05
2.36387e-05
0.000124763
0.000142632
9.51794e-05
0.000147118
0.000124225
0.000143516
9.54505e-05
9.33302e-05
5.00794e-05
9.31331e-05
5.00923e-05
9.33323e-05
5.00799e-05
9.31335e-05
5.00927e-05
0.000124855
0.000147882
0.000145297
9.57331e-05
0.000144402
9.54661e-05
0.000125387
0.000124856
0.000147885
0.0001453
9.57323e-05
0.000144404
9.54648e-05
0.000125388
9.33603e-05
5.01075e-05
5.00947e-05
9.3555e-05
9.33606e-05
5.01079e-05
5.00951e-05
9.35571e-05
2.36334e-05
2.3638e-05
2.36329e-05
2.36376e-05
0.0001437
7.46007e-05
7.46e-05
7.44857e-05
7.4485e-05
2.36432e-05
2.36385e-05
2.36427e-05
2.3638e-05
2.36448e-05
2.36495e-05
2.36435e-05
2.36483e-05
7.46103e-05
7.46068e-05
0.000145627
7.4721e-05
7.47176e-05
2.36549e-05
2.365e-05
2.36536e-05
2.36488e-05
0.000145997
7.48374e-05
7.48341e-05
7.47279e-05
7.47243e-05
9.37755e-05
5.01143e-05
9.35762e-05
5.01272e-05
0.000125997
9.57484e-05
0.000146172
0.000150156
0.000125474
9.60078e-05
0.000147072
0.000126
9.57459e-05
0.000146168
0.000150149
0.000125476
9.60073e-05
0.000147068
9.37912e-05
5.01421e-05
5.01291e-05
9.39867e-05
9.37951e-05
5.01425e-05
5.01295e-05
9.39895e-05
0.000126086
0.000150897
9.62749e-05
0.000148827
9.60212e-05
0.000147958
0.000126596
0.000126089
0.000150896
9.62746e-05
0.00014883
9.60204e-05
0.000147957
0.0001266
7.46069e-05
7.46009e-05
0.000145627
7.47191e-05
7.47145e-05
2.36446e-05
2.36494e-05
2.3654e-05
2.36492e-05
0.000145999
7.48352e-05
7.48308e-05
7.47255e-05
7.47194e-05
2.36547e-05
2.36499e-05
0.000126
9.57438e-05
0.000146189
0.000150162
0.000125478
9.60031e-05
0.00014708
9.37713e-05
5.01067e-05
9.35819e-05
5.01196e-05
0.000125996
0.000146184
9.57278e-05
0.000150146
0.000125474
0.000147079
9.59892e-05
9.38037e-05
5.01389e-05
5.01259e-05
9.39891e-05
0.000126089
0.000150901
9.62702e-05
0.000148823
9.6016e-05
0.000147963
0.000126599
9.38001e-05
5.0135e-05
5.0122e-05
9.39857e-05
0.000126085
0.000150888
0.000148827
9.6257e-05
0.000147959
9.60013e-05
0.000126595
9.37764e-05
5.01134e-05
9.35766e-05
5.01262e-05
0.000126
0.00014619
9.57464e-05
0.000150163
0.000125477
0.000147085
9.60065e-05
9.37743e-05
5.011e-05
9.3574e-05
5.01228e-05
0.000126092
0.000150911
9.62741e-05
0.000148838
9.6019e-05
0.000147962
0.000126602
9.37954e-05
5.01416e-05
5.01286e-05
9.39903e-05
0.00012609
0.000150906
0.00014884
9.62736e-05
0.000147967
9.60197e-05
0.0001266
9.37927e-05
5.01382e-05
5.01252e-05
9.39881e-05
7.45907e-05
7.46088e-05
0.000145623
7.47039e-05
7.47205e-05
2.36439e-05
2.36487e-05
2.3652e-05
2.36472e-05
0.000145994
7.48205e-05
7.48368e-05
7.4709e-05
7.47273e-05
2.3654e-05
2.36491e-05
0.000126004
0.000146201
9.57462e-05
0.00015017
0.00012548
0.000147096
9.60066e-05
9.3775e-05
5.01099e-05
9.35846e-05
5.01227e-05
9.37769e-05
5.01103e-05
9.35848e-05
5.01231e-05
0.000126092
0.000150912
0.00014885
9.62758e-05
0.000147977
9.60217e-05