/*--------------------------------*- C++ -*----------------------------------*\
| =========                 |                                                 |
| \\      /  F ield         | OpenFOAM: The Open Source CFD Toolbox           |
|  \\    /   O peration     | Version:  v1906                                 |
|   \\  /    A nd           | Web:      www.OpenFOAM.com                      |
|    \\/     M anipulation  |                                                 |
\*---------------------------------------------------------------------------*/
FoamFile
{
    version     2.0;
    format      ascii;
    class       volScalarField;
    location    "750";
    object      nut;
}
// * * * * * * * * * * * * * * * * * * * * * * * * * * * * * * * * * * * * * //

dimensions      [0 2 -1 0 0 0 0];


internalField   nonuniform List<scalar> 
43248
(
0.000137316
0.000139333
0.000139332
0.000137316
0.000139346
0.000139329
0.00013935
0.000139349
0.000137313
0.00013935
0.000139353
0.000137321
0.000123056
0.000123054
0.000123057
0.000123069
2.3614e-05
2.36136e-05
7.38303e-05
7.38339e-05
9.19214e-05
5.00202e-05
9.21476e-05
9.19252e-05
5.00218e-05
5.00093e-05
9.21502e-05
0.000120889
9.39698e-05
0.00013468
0.000133815
0.000121475
0.000120893
0.000138544
9.39712e-05
0.000134677
9.36744e-05
0.000133812
0.000121479
2.36138e-05
2.36095e-05
0.000136502
7.38313e-05
7.38265e-05
7.37031e-05
7.36968e-05
2.36144e-05
2.36101e-05
5.00188e-05
9.21507e-05
9.39707e-05
0.000134684
0.000121481
5.00142e-05
9.21472e-05
0.000134683
9.39545e-05
0.000121477
0.000120896
0.000138562
9.39698e-05
0.000134691
9.36723e-05
0.000133825
0.000121482
9.1926e-05
5.00208e-05
5.00084e-05
9.21512e-05
0.000120894
0.000138562
0.000134697
9.39707e-05
0.000133831
9.36743e-05
0.000121479
9.19234e-05
5.00175e-05
5.0005e-05
9.21491e-05
2.36118e-05
7.38172e-05
7.38318e-05
2.36137e-05
0.000120895
0.000134702
9.39718e-05
0.00013384
0.000121482
0.000120896
0.000138566
0.000134706
9.39707e-05
0.000133842
9.36743e-05
0.000121484
9.19344e-05
5.00173e-05
9.21497e-05
9.19356e-05
5.0018e-05
5.00055e-05
9.21524e-05
0.000136507
7.38318e-05
7.38312e-05
7.37041e-05
7.37035e-05
2.36134e-05
2.36091e-05
2.3613e-05
2.36087e-05
2.36123e-05
2.36113e-05
9.73921e-05
0.000112899
7.37738e-05
4.79429e-05
4.79406e-05
0.000112746
9.74678e-05
9.73937e-05
0.000112929
7.3771e-05
4.79416e-05
4.79327e-05
0.000112707
9.75166e-05
7.88864e-05
2.14935e-05
2.14916e-05
2.14923e-05
2.14897e-05
7.89211e-05
3.62678e-05
4.05354e-05
8.80985e-05
9.20234e-05
3.62652e-05
4.05382e-05
8.81802e-05
2.01024e-05
5.00155e-05
7.60831e-05
7.60409e-05
2.01041e-05
3.62686e-05
9.20464e-05
4.05423e-05
8.82797e-05
4.05394e-05
8.81986e-05
3.62712e-05
3.62695e-05
4.05355e-05
8.81161e-05
9.20261e-05
3.6267e-05
4.05384e-05
8.81904e-05
2.01034e-05
5.00167e-05
7.61069e-05
7.60657e-05
2.0105e-05
2.01036e-05
7.60182e-05
5.00144e-05
2.0102e-05
7.60597e-05
3.62704e-05
9.20502e-05
4.05424e-05
8.82901e-05
4.05395e-05
8.82164e-05
3.62729e-05
2.36118e-05
2.36114e-05
7.88802e-05
2.14882e-05
2.14908e-05
7.88426e-05
2.14898e-05
2.14924e-05
9.73895e-05
0.000112905
7.3772e-05
4.79387e-05
0.000112727
4.79331e-05
9.74994e-05
9.7376e-05
0.000112919
7.37658e-05
4.79465e-05
4.79409e-05
0.00011274
9.74858e-05
9.73722e-05
4.7925e-05
0.000112478
7.3763e-05
0.000112658
9.72612e-05
4.79306e-05
9.73585e-05
4.79329e-05
0.000112491
7.37582e-05
9.72476e-05
4.79385e-05
0.000112672
7.88865e-05
2.14915e-05
2.14941e-05
2.14899e-05
2.14925e-05
7.89237e-05
2.36124e-05
2.36121e-05
2.01037e-05
5.00136e-05
7.61055e-05
7.60644e-05
2.01053e-05
3.62703e-05
9.20606e-05
8.82896e-05
4.05419e-05
8.82161e-05
4.0539e-05
3.62728e-05
2.0102e-05
5.00091e-05
7.60795e-05
7.60369e-05
2.01036e-05
3.62677e-05
9.20567e-05
4.05417e-05
8.82768e-05
4.05388e-05
8.81977e-05
3.62703e-05
3.62701e-05
8.81171e-05
4.0535e-05
9.20272e-05
3.62675e-05
8.81913e-05
4.05379e-05
2.01042e-05
5.00157e-05
7.61077e-05
7.60665e-05
2.01058e-05
2.01043e-05
7.60191e-05
5.00134e-05
2.01028e-05
7.60605e-05
3.62709e-05
9.20509e-05
8.82909e-05
4.05419e-05
8.82173e-05
4.0539e-05
3.62735e-05
3.62679e-05
4.05349e-05
8.81076e-05
9.20251e-05
3.62653e-05
4.05378e-05
8.81818e-05
2.01029e-05
5.00124e-05
7.60874e-05
7.60463e-05
2.01045e-05
2.01031e-05
7.59989e-05
5.00101e-05
2.01015e-05
7.60403e-05
3.62687e-05
9.20482e-05
4.05418e-05
8.82814e-05
4.05389e-05
8.82078e-05
3.62713e-05
2.36098e-05
9.7383e-05
0.000112899
7.37565e-05
4.79359e-05
0.000112716
4.79303e-05
9.74934e-05
9.73746e-05
0.00011292
7.37726e-05
4.79477e-05
4.79421e-05
0.000112741
9.74854e-05
7.88873e-05
2.14905e-05
2.14939e-05
2.14889e-05
2.14923e-05
7.89244e-05
2.36117e-05
3.62682e-05
8.8108e-05
4.0535e-05
9.20257e-05
3.62656e-05
8.81824e-05
4.05379e-05
2.01032e-05
5.00122e-05
7.60874e-05
7.60465e-05
2.01048e-05
2.01033e-05
7.60403e-05
3.6269e-05
9.20591e-05
8.82819e-05
4.05419e-05
8.82084e-05
4.0539e-05
3.62716e-05
3.62698e-05
8.81104e-05
4.05351e-05
9.20284e-05
3.62672e-05
8.81915e-05
4.0538e-05
2.01038e-05
5.00129e-05
7.61022e-05
7.60597e-05
2.01054e-05
2.0104e-05
7.60129e-05
5.00106e-05
2.01024e-05
7.60553e-05
3.62706e-05
9.20602e-05
8.8291e-05
4.0542e-05
8.82098e-05
4.05391e-05
3.62732e-05
7.88811e-05
2.14908e-05
2.14879e-05
7.88436e-05
2.14924e-05
2.14894e-05
9.73737e-05
0.000112919
7.37729e-05
4.7947e-05
0.000112741
4.79414e-05
9.74841e-05
9.73911e-05
0.000112908
7.37724e-05
4.79381e-05
0.000112733
4.79325e-05
9.75007e-05
9.73568e-05
4.79334e-05
0.000112492
7.37635e-05
9.72454e-05
0.000112672
4.7939e-05
9.73736e-05
4.79245e-05
0.000112485
7.37629e-05
9.7263e-05
0.000112661
4.79301e-05
7.88875e-05
2.14941e-05
2.14911e-05
2.14925e-05
2.14895e-05
7.89246e-05
2.36114e-05
2.36111e-05
2.3611e-05
2.36107e-05
0.000119723
0.00013712
0.000130232
0.000130267
0.000130083
0.000130083
0.000119959
0.000119725
0.000137119
0.000130244
0.000130249
0.000130074
0.000130078
0.000119957
0.000119719
0.000137117
0.000130239
0.000130247
0.000130069
0.000130077
0.000119953
0.000119724
0.000137124
0.000130249
0.000130249
0.000130079
0.000130079
0.000119958
0.000120783
0.000120788
0.000120504
0.000132406
0.000132174
0.000122388
0.00012078
0.000120791
0.000120502
0.000120512
0.000132405
0.000132174
0.000120787
0.000120797
0.000120524
0.000132407
0.000132173
0.000122401
0.000120794
0.0001208
0.000120514
0.000120523
0.000132406
0.000132174
0.000132531
0.000117219
0.000134315
0.00012113
0.00013237
0.000117435
0.000134505
0.000128734
0.000122432
9.38315e-05
0.000107894
0.000122297
0.000107691
0.0001289
0.000132898
0.000121236
0.000117739
0.000135072
0.000117525
0.000134883
0.000133058
0.000132537
0.000117228
0.000134318
0.000121134
0.000132376
0.000117444
0.000134507
0.000128735
0.000122428
9.38318e-05
0.000107904
0.0001077
0.00012229
0.000128901
0.000128442
0.000107465
0.000121917
9.3815e-05
0.000128276
0.00010767
0.000122056
0.000132904
0.000121239
0.000117749
0.000135074
0.000117534
0.000134885
0.000133064
0.000119675
0.000136699
0.00012962
0.000129624
0.000129791
0.000119442
0.000129795
0.000128738
0.000122432
9.38294e-05
0.000107902
0.000122291
0.000107701
0.000128904
0.000132904
0.000121241
0.000117749
0.000135075
0.000117534
0.000134887
0.000133065
0.000128724
0.000122416
9.38143e-05
0.000107886
0.000107683
0.000122279
0.00012889
0.000132895
0.000121237
0.000135072
0.000117736
0.000134884
0.000117521
0.000133056
0.000132541
0.000117231
0.000134323
0.000121137
0.00013238
0.000117448
0.000134512
0.000128743
0.000122439
9.38298e-05
0.000107907
0.000122301
0.000107703
0.000128909
0.00012845
0.000107468
0.000121928
9.38136e-05
0.000128283
0.000122066
0.000107674
0.000132908
0.000121242
0.000117752
0.000135079
0.000117537
0.00013489
0.000133069
0.000132538
0.000134322
0.000117225
0.000121135
0.000132376
0.000134511
0.000117441
0.00012874
0.000122438
9.38317e-05
0.0001079
0.000107696
0.0001223
0.000128906
0.000128447
0.000107461
0.000121927
9.38147e-05
0.00012828
0.000107667
0.000122065
0.000132905
0.00012124
0.000135078
0.000117745
0.00013489
0.00011753
0.000133065
0.000132538
0.000134322
0.000117225
0.000121138
0.000132376
0.000134511
0.000117442
0.00012874
0.000122439
9.38327e-05
0.000107899
0.000122301
0.000107698
0.000128906
0.000128447
0.000107666
0.000132904
0.000121241
0.000135078
0.000117745
0.000134889
0.00011753
0.000133064
0.00013254
0.000134323
0.00011723
0.00012114
0.000132378
0.000134512
0.000117446
0.000128739
0.000122433
9.38316e-05
0.000107903
0.0001077
0.000122295
0.000128905
0.000128446
0.000107466
0.000121922
9.38147e-05
0.000128279
0.00010767
0.000122061
0.000132906
0.000121243
0.000135079
0.00011775
0.00013489
0.000117535
0.000133066
0.000119677
0.000136704
0.000129625
0.000129626
0.000119441
0.000129796
0.000129797
0.000150141
0.000101711
0.000101703
8.25784e-05
8.28587e-05
0.000102449
0.000102444
8.28628e-05
0.000102479
0.000102436
0.00010249
0.000102457
8.28549e-05
0.00010248
0.00010248
8.28551e-05
8.25823e-05
8.22601e-05
0.000101683
0.000101665
9.95092e-05
9.95042e-05
8.25858e-05
8.22639e-05
0.000101689
0.000101658
9.95433e-05
9.94986e-05
0.000101679
9.95498e-05
9.95192e-05
8.25785e-05
8.22567e-05
0.000101702
9.95417e-05
9.95409e-05
8.22574e-05
0.000151164
0.000151166
0.000151155
0.000151163
7.00618e-05
4.95517e-05
6.90697e-05
4.9561e-05
2.36288e-05
2.36252e-05
7.0055e-05
4.95498e-05
6.90769e-05
4.95591e-05
0.000150146
0.000150135
0.000150143
0.000147069
0.000147072
0.00014706
0.000147069
6.71026e-05
6.57871e-05
0.000126169
0.000100959
6.61426e-05
6.64731e-05
0.000125151
2.36266e-05
2.3623e-05
6.71013e-05
0.000126173
6.57714e-05
0.00010095
6.61414e-05
0.000125146
6.64878e-05
6.10723e-05
6.10748e-05
8.24819e-05
6.15183e-05
6.15192e-05
2.36316e-05
2.36353e-05
2.36303e-05
2.36341e-05
8.30498e-05
6.10285e-05
6.10271e-05
6.05579e-05
6.05664e-05
6.78971e-05
4.95501e-05
4.95404e-05
6.89575e-05
6.78991e-05
4.9552e-05
4.95423e-05
6.89588e-05
6.47505e-05
0.000103271
6.5486e-05
0.000127157
6.4805e-05
0.000128195
6.56817e-05
6.47515e-05
0.000103255
6.55102e-05
0.000127151
6.47873e-05
0.00012819
6.56828e-05
2.36315e-05
2.36353e-05
8.30537e-05
6.10298e-05
6.103e-05
6.05652e-05
6.05587e-05
2.3632e-05
2.36357e-05
6.79046e-05
4.95483e-05
4.95385e-05
6.89507e-05
6.47503e-05
0.000103279
6.55028e-05
0.000127156
6.47905e-05
0.000128197
6.56818e-05
6.79026e-05
4.95444e-05
4.95347e-05
6.89494e-05
6.47495e-05
0.000103247
0.000127148
6.54838e-05
0.000128188
6.48012e-05
6.56808e-05
6.47507e-05
0.000103301
6.54909e-05
0.000127164
6.48001e-05
0.000128203
6.5682e-05
6.78989e-05
4.95507e-05
4.9541e-05
6.89583e-05
6.47496e-05
0.000103269
0.000127159
6.5501e-05
0.000128197
6.47881e-05
6.56808e-05
6.78967e-05
4.95469e-05
4.95371e-05
6.89569e-05
2.36293e-05
2.36331e-05
8.30461e-05
6.10275e-05
6.10272e-05
6.0557e-05
6.05624e-05
2.36309e-05
2.36346e-05
6.47496e-05
0.000103292
0.000127162
6.55066e-05
0.000128202
6.47845e-05
6.56807e-05
6.47505e-05
0.000103292
0.000127164
6.55049e-05
0.000128203
6.47881e-05
6.56817e-05
6.79042e-05
4.95465e-05
4.95367e-05
6.89484e-05
6.79058e-05
4.95475e-05
4.95377e-05
6.89499e-05
8.3047e-05
6.10276e-05
6.10283e-05
6.05626e-05
6.05653e-05
2.36307e-05
2.36344e-05
2.36302e-05
2.36339e-05
2.36288e-05
2.36252e-05
2.36277e-05
2.36241e-05
6.10684e-05
6.10759e-05
8.24848e-05
6.15174e-05
6.15181e-05
2.36189e-05
2.36226e-05
2.36183e-05
2.36215e-05
8.22684e-05
6.1985e-05
6.19874e-05
6.15559e-05
6.15622e-05
7.00631e-05
4.95536e-05
6.90718e-05
4.95629e-05
6.71022e-05
6.57916e-05
0.000126162
0.000100919
6.61422e-05
6.64682e-05
0.000125143
6.71035e-05
6.57746e-05
0.000126156
0.000100914
6.61434e-05
6.64915e-05
0.000125139
7.01677e-05
4.9571e-05
4.95625e-05
7.10948e-05
7.01699e-05
4.95731e-05
4.95643e-05
7.1096e-05
6.75764e-05
0.000100213
6.74214e-05
0.000123167
6.67525e-05
0.000124162
6.85571e-05
6.75776e-05
0.000100195
6.74457e-05
0.000123162
6.67359e-05
0.000124155
6.85598e-05
6.10754e-05
6.10698e-05
8.24896e-05
6.152e-05
6.15187e-05
2.36292e-05
2.36256e-05
2.36191e-05
2.36225e-05
8.22724e-05
6.19885e-05
6.19861e-05
6.15627e-05
6.15579e-05
2.36195e-05
2.36229e-05
6.71026e-05
6.57785e-05
0.000126166
0.000100949
6.61423e-05
6.6483e-05
0.000125141
7.00539e-05
4.9546e-05
6.90749e-05
4.95552e-05
6.71012e-05
0.000126153
6.57878e-05
0.000100907
6.61413e-05
0.000125136
6.64658e-05
7.01748e-05
4.95696e-05
4.95606e-05
7.10882e-05
6.75764e-05
0.000100218
6.74383e-05
0.000123165
6.67408e-05
0.000124166
6.85576e-05
7.01725e-05
4.95655e-05
4.95567e-05
7.10867e-05
6.75754e-05
0.000100189
0.000123162
6.74204e-05
0.000124154
6.67488e-05
6.85563e-05
7.0063e-05
4.95523e-05
6.90714e-05
4.95616e-05
6.71014e-05
0.000126164
6.57752e-05
0.000100928
6.61413e-05
0.000125146
6.64827e-05
7.00616e-05
4.95484e-05
6.90692e-05
4.95577e-05
6.75767e-05
0.000100241
6.74278e-05
0.000123176
6.67484e-05
0.000124169
6.85578e-05
7.01692e-05
4.95718e-05
4.95631e-05
7.10958e-05
6.75754e-05
0.000100209
0.00012317
6.74363e-05
0.000124164
6.67369e-05
6.85565e-05
7.01669e-05
4.9568e-05
4.95592e-05
7.10944e-05
6.10676e-05
6.10719e-05
8.24812e-05
6.15161e-05
6.1517e-05
2.36281e-05
2.36245e-05
2.36169e-05
2.36203e-05
8.22648e-05
6.19835e-05
6.19854e-05
6.15558e-05
6.15596e-05
2.36184e-05
2.36219e-05
6.71024e-05
0.00012617
6.5775e-05
0.00010095
6.61425e-05
0.000125151
6.64868e-05
7.0053e-05
4.95481e-05
6.90766e-05
4.95574e-05
7.00546e-05
4.95491e-05
6.90783e-05
4.95584e-05
6.75755e-05
0.000100233
0.000123171
6.74418e-05
0.000124174
6.6733e-05
6.85563e-05
6.75767e-05
0.000100232
0.000123176
6.74408e-05
0.00012417
6.67365e-05
6.85576e-05
7.01743e-05
4.95677e-05
4.95589e-05
7.10858e-05
7.0176e-05
4.95686e-05
4.95598e-05
7.10874e-05
2.36279e-05
2.36243e-05
2.36274e-05
2.36238e-05
8.2266e-05
6.19854e-05
6.19866e-05
6.15601e-05
6.15624e-05
2.36182e-05
2.36217e-05
2.36177e-05
2.36211e-05
3.61925e-05
6.96279e-05
4.03429e-05
7.10801e-05
4.0338e-05
7.07912e-05
3.61952e-05
2.0217e-05
6.83464e-05
4.95556e-05
2.02171e-05
6.84772e-05
3.61919e-05
6.95189e-05
4.03314e-05
7.03845e-05
3.61892e-05
4.03362e-05
7.06846e-05
2.02142e-05
6.86444e-05
4.95572e-05
6.85188e-05
2.0214e-05
2.36283e-05
2.36256e-05
3.61939e-05
6.9635e-05
7.10817e-05
4.03422e-05
7.08022e-05
4.03373e-05
3.61965e-05
2.02181e-05
6.83699e-05
4.95538e-05
2.02183e-05
6.84952e-05
3.61933e-05
6.9512e-05
7.0396e-05
4.03307e-05
3.61905e-05
7.06858e-05
4.03355e-05
2.02154e-05
6.86636e-05
4.95553e-05
6.8542e-05
2.02152e-05
2.36261e-05
2.36234e-05
7.08094e-05
2.15491e-05
2.15462e-05
2.15496e-05
2.15467e-05
7.09294e-05
7.40464e-05
7.09408e-05
4.71443e-05
6.12762e-05
7.36901e-05
7.14122e-05
4.71534e-05
7.40836e-05
7.09521e-05
4.7136e-05
6.12769e-05
7.3737e-05
7.14181e-05
4.71451e-05
7.0761e-05
2.15529e-05
2.15501e-05
7.06344e-05
2.15524e-05
2.15496e-05
7.41226e-05
4.7166e-05
6.13194e-05
7.20422e-05
7.15763e-05
4.71572e-05
7.44715e-05
7.41688e-05
4.71577e-05
6.13218e-05
7.20481e-05
7.15874e-05
4.71489e-05
7.45087e-05
2.36321e-05
2.36349e-05
2.36308e-05
2.36336e-05
7.0407e-05
2.15603e-05
2.15564e-05
7.02741e-05
2.15598e-05
2.15559e-05
7.32645e-05
7.07684e-05
6.08159e-05
4.71415e-05
4.71322e-05
7.03102e-05
7.35906e-05
7.33038e-05
7.07831e-05
6.0824e-05
4.71307e-05
4.71213e-05
7.03124e-05
7.36362e-05
7.31507e-05
4.71183e-05
6.96723e-05
6.07759e-05
7.28173e-05
4.7128e-05
7.01331e-05
7.31964e-05
4.71075e-05
6.96752e-05
6.07734e-05
7.28572e-05
4.71172e-05
7.01472e-05
7.04569e-05
2.15564e-05
2.15525e-05
2.15569e-05
2.1553e-05
7.05853e-05
3.61851e-05
4.0319e-05
6.95314e-05
6.83775e-05
3.61823e-05
4.03234e-05
6.98545e-05
2.022e-05
4.95462e-05
6.83045e-05
2.02199e-05
6.81684e-05
2.02228e-05
6.79846e-05
4.95445e-05
2.02229e-05
6.81259e-05
3.61858e-05
6.84929e-05
4.03297e-05
7.02763e-05
3.61886e-05
4.03251e-05
6.99648e-05
3.61867e-05
4.03191e-05
6.95447e-05
6.83787e-05
3.61839e-05
4.03235e-05
6.9857e-05
2.02209e-05
4.9548e-05
6.83228e-05
6.81935e-05
2.02207e-05
2.02236e-05
6.80096e-05
4.95464e-05
2.02238e-05
6.8143e-05
3.61874e-05
6.84949e-05
4.03298e-05
7.02792e-05
4.03252e-05
6.9978e-05
3.61902e-05
2.3632e-05
2.36348e-05
7.0407e-05
2.15573e-05
2.15596e-05
7.02745e-05
2.15568e-05
2.15591e-05
7.32905e-05
7.07825e-05
6.08229e-05
4.71323e-05
7.03091e-05
4.71229e-05
7.36494e-05
7.32518e-05
7.07734e-05
6.0817e-05
4.714e-05
4.71306e-05
7.03039e-05
7.36042e-05
7.32054e-05
4.7109e-05
6.96722e-05
6.07759e-05
7.01462e-05
7.28455e-05
4.71187e-05
7.316e-05
4.71168e-05
6.96669e-05
6.07771e-05
7.28066e-05
4.71265e-05
7.01371e-05
7.04567e-05
2.15535e-05
2.15558e-05
2.1554e-05
2.15563e-05
7.05848e-05
2.36324e-05
2.36352e-05
3.61864e-05
6.95433e-05
4.03183e-05
6.83703e-05
3.61836e-05
6.98546e-05
4.03227e-05
2.02212e-05
4.95442e-05
6.83213e-05
2.0221e-05
6.81921e-05
2.02239e-05
6.80083e-05
4.95426e-05
2.02241e-05
6.81416e-05
3.61871e-05
6.85004e-05
7.0277e-05
4.0329e-05
3.61899e-05
6.99767e-05
4.03244e-05
3.61842e-05
4.03182e-05
6.95291e-05
6.83694e-05
3.61813e-05
4.03226e-05
6.98531e-05
2.02196e-05
4.95404e-05
6.83026e-05
6.81651e-05
2.02194e-05
2.02223e-05
6.79814e-05
4.95388e-05
2.02224e-05
6.81239e-05
3.61848e-05
6.84984e-05
4.03289e-05
7.0275e-05
4.03243e-05
6.99622e-05
3.61876e-05
3.61872e-05
6.95446e-05
4.03185e-05
6.83781e-05
3.61843e-05
6.98565e-05
4.03229e-05
2.02217e-05
4.95467e-05
6.83232e-05
6.81939e-05
2.02215e-05
2.02244e-05
6.80102e-05
4.95451e-05
2.02246e-05
6.81435e-05
3.61878e-05
6.84947e-05
7.02788e-05
4.03292e-05
6.99778e-05
4.03246e-05
3.61906e-05
3.61849e-05
4.03184e-05
6.95356e-05
6.83767e-05
3.61821e-05
4.03228e-05
6.98491e-05
2.02203e-05
4.95428e-05
6.83025e-05
6.81732e-05
2.02201e-05
2.0223e-05
6.79892e-05
4.95412e-05
2.02232e-05
6.81227e-05
3.61856e-05
6.84924e-05
4.03291e-05
7.02713e-05
4.03245e-05
6.99689e-05
3.61884e-05
2.36298e-05
2.36326e-05
7.04093e-05
2.15562e-05
2.15595e-05
7.0278e-05
2.15556e-05
2.1559e-05
7.32914e-05
7.0783e-05
6.08151e-05
4.71306e-05
7.03104e-05
4.71212e-05
7.36511e-05
7.32503e-05
7.07777e-05
6.08199e-05
4.71408e-05
4.71314e-05
7.03041e-05
7.36085e-05
7.32082e-05
4.71074e-05
6.96742e-05
6.07752e-05
7.01471e-05
7.28471e-05
4.7117e-05
7.31652e-05
4.71176e-05
6.96675e-05
6.07742e-05
7.28056e-05
4.71273e-05
7.01415e-05
7.04586e-05
2.15523e-05
2.15556e-05
2.15528e-05
2.15561e-05
7.05854e-05
2.36313e-05
2.36341e-05
3.61851e-05
6.95363e-05
4.03182e-05
6.83682e-05
3.61822e-05
6.98477e-05
4.03226e-05
2.02205e-05
4.95425e-05
6.83022e-05
6.81729e-05
2.02203e-05
2.02232e-05
6.79891e-05
4.95409e-05
2.02233e-05
6.81225e-05
3.61857e-05
6.84998e-05
7.02698e-05
4.03288e-05
6.99696e-05
4.03242e-05
3.61885e-05
3.6187e-05
6.95444e-05
4.03183e-05
6.83697e-05
3.61841e-05
6.98546e-05
4.03227e-05
2.02216e-05
4.95435e-05
6.83208e-05
6.81915e-05
2.02214e-05
2.02242e-05
6.80078e-05
4.95419e-05
2.02244e-05
6.8141e-05
3.61876e-05
6.85015e-05
7.02768e-05
4.03289e-05
6.99777e-05
4.03243e-05
3.61904e-05
7.04066e-05
2.15596e-05
2.15567e-05
7.0277e-05
2.15591e-05
2.15562e-05
7.32482e-05
7.07751e-05
6.08198e-05
4.71404e-05
7.36086e-05
7.03017e-05
4.71309e-05
7.32957e-05
7.0781e-05
6.08224e-05
4.71321e-05
7.36458e-05
7.03132e-05
4.71226e-05
7.31642e-05
4.71171e-05
6.96648e-05
6.0774e-05
7.28025e-05
7.01378e-05
4.71268e-05
7.32016e-05
4.71087e-05
6.96764e-05
6.07748e-05
7.28504e-05
7.01438e-05
4.71184e-05
7.04559e-05
2.15558e-05
2.15529e-05
7.0585e-05
2.15562e-05
2.15534e-05
2.36312e-05
2.36339e-05
2.36306e-05
2.36334e-05
2.36284e-05
2.36257e-05
2.36273e-05
2.36246e-05
7.08059e-05
2.15498e-05
2.15459e-05
2.15503e-05
2.15464e-05
7.09265e-05
7.40237e-05
7.09465e-05
4.71455e-05
6.12757e-05
7.37062e-05
4.71546e-05
7.14033e-05
7.4069e-05
7.09483e-05
4.71347e-05
6.12754e-05
7.37449e-05
4.71438e-05
7.14183e-05
7.07578e-05
2.15536e-05
2.15497e-05
7.06342e-05
2.15531e-05
2.15492e-05
7.41398e-05
4.71672e-05
6.13152e-05
7.20332e-05
4.71585e-05
7.44465e-05
7.158e-05
7.41783e-05
4.71564e-05
6.1322e-05
7.2048e-05
4.71476e-05
7.44906e-05
7.15817e-05
2.36195e-05
2.36222e-05
2.36184e-05
2.36211e-05
7.10924e-05
2.1547e-05
2.15431e-05
7.09739e-05
2.15463e-05
2.15431e-05
7.4983e-05
7.32776e-05
6.1795e-05
4.71867e-05
4.71814e-05
7.28248e-05
7.52926e-05
7.5006e-05
7.32912e-05
6.17955e-05
4.71852e-05
4.7174e-05
7.28289e-05
7.53257e-05
7.48588e-05
4.71707e-05
7.2205e-05
6.17544e-05
7.45631e-05
4.71788e-05
7.26557e-05
7.49022e-05
4.71601e-05
7.2207e-05
6.17557e-05
7.46022e-05
4.71692e-05
7.267e-05
7.11371e-05
2.15425e-05
2.15402e-05
2.15433e-05
2.15405e-05
7.12496e-05
3.61942e-05
6.96301e-05
4.0343e-05
7.10841e-05
4.03381e-05
7.08037e-05
3.61969e-05
2.02178e-05
6.83714e-05
4.95575e-05
2.0218e-05
6.84967e-05
3.61936e-05
6.95202e-05
4.03316e-05
7.03975e-05
4.03363e-05
3.61908e-05
7.0688e-05
2.02151e-05
6.86651e-05
4.9559e-05
6.85435e-05
2.02149e-05
3.61981e-05
4.03448e-05
7.11853e-05
7.05869e-05
3.61958e-05
4.03497e-05
7.14628e-05
2.0208e-05
4.95676e-05
6.8963e-05
6.88476e-05
2.02078e-05
2.02108e-05
6.86859e-05
4.95662e-05
2.02113e-05
6.88055e-05
3.61986e-05
7.06893e-05
4.03565e-05
7.18353e-05
4.03515e-05
7.15659e-05
3.62011e-05
3.62e-05
4.03449e-05
7.11973e-05
7.05882e-05
3.61974e-05
4.03498e-05
7.14679e-05
2.02093e-05
4.95695e-05
6.89855e-05
6.88715e-05
2.0209e-05
2.0212e-05
6.87101e-05
4.95681e-05
2.02122e-05
6.88281e-05
3.62005e-05
7.06916e-05
4.03566e-05
7.18398e-05
4.03517e-05
7.15787e-05
3.6203e-05
7.08065e-05
2.15468e-05
2.15491e-05
2.15473e-05
2.15496e-05
7.09272e-05
7.4086e-05
7.09476e-05
4.71363e-05
6.1278e-05
4.71454e-05
7.37317e-05
7.14193e-05
7.40413e-05
7.09426e-05
4.7144e-05
6.12772e-05
7.14104e-05
7.36933e-05
4.71531e-05
7.07584e-05
2.15506e-05
2.15529e-05
2.15501e-05
7.06335e-05
2.15524e-05
7.41614e-05
4.71579e-05
6.13221e-05
7.20468e-05
4.71492e-05
7.15818e-05
7.45089e-05
7.41232e-05
4.71657e-05
6.13168e-05
7.20381e-05
7.15771e-05
4.71569e-05
7.44646e-05
2.36287e-05
2.3626e-05
2.36195e-05
2.36221e-05
7.10902e-05
2.1544e-05
2.15463e-05
7.09738e-05
2.15435e-05
2.15458e-05
7.49947e-05
7.32891e-05
6.17983e-05
4.71821e-05
7.28272e-05
4.71738e-05
7.53374e-05
7.49571e-05
7.32807e-05
6.17939e-05
4.71898e-05
4.71815e-05
7.28227e-05
7.5294e-05
7.49246e-05
4.71616e-05
7.22053e-05
6.17565e-05
7.26669e-05
7.45796e-05
4.71702e-05
7.48807e-05
4.71694e-05
7.22007e-05
6.17547e-05
7.45416e-05
4.71779e-05
7.26584e-05
7.11358e-05
2.15403e-05
2.15426e-05
2.15408e-05
2.15431e-05
7.12507e-05
2.36199e-05
2.36225e-05
3.61916e-05
6.96329e-05
4.03421e-05
7.10797e-05
4.03372e-05
7.07878e-05
3.61943e-05
2.02165e-05
6.8343e-05
4.95499e-05
2.02167e-05
6.84755e-05
3.6191e-05
6.95108e-05
4.03306e-05
7.03816e-05
4.03354e-05
3.61882e-05
7.06837e-05
2.02138e-05
6.86428e-05
4.95515e-05
6.85153e-05
2.02136e-05
3.61997e-05
7.1196e-05
4.03441e-05
7.05802e-05
3.61971e-05
7.14655e-05
4.0349e-05
2.02096e-05
4.95657e-05
6.89839e-05
6.88699e-05
2.02093e-05
2.02123e-05
6.87086e-05
4.95643e-05
2.02125e-05
6.88266e-05
3.62002e-05
7.06963e-05
7.18378e-05
4.03558e-05
7.15773e-05
4.03509e-05
3.62027e-05
3.61974e-05
4.03439e-05
7.11813e-05
7.0579e-05
3.61948e-05
4.03489e-05
7.14633e-05
2.02079e-05
4.95619e-05
6.8961e-05
6.88443e-05
2.02077e-05
2.02107e-05
6.86823e-05
4.95604e-05
2.02108e-05
6.88043e-05
3.61979e-05
7.06941e-05
4.03557e-05
7.18352e-05
4.03507e-05
7.15625e-05
3.62004e-05
3.61946e-05
6.96295e-05
7.10838e-05
4.03424e-05
7.08036e-05
4.03375e-05
3.61973e-05
2.02186e-05
6.83717e-05
4.95562e-05
6.84971e-05
2.02188e-05
3.6194e-05
6.95198e-05
7.03973e-05
4.03309e-05
7.06877e-05
3.61913e-05
4.03357e-05
2.02159e-05
6.86655e-05
4.95578e-05
6.85438e-05
2.02157e-05
3.61924e-05
6.96272e-05
4.03423e-05
7.10763e-05
4.03374e-05
7.07946e-05
3.6195e-05
2.02172e-05
6.8351e-05
4.95524e-05
2.02174e-05
6.84764e-05
3.61918e-05
6.95184e-05
4.03308e-05
7.03884e-05
3.6189e-05
4.03356e-05
7.06802e-05
2.02145e-05
6.86447e-05
4.95539e-05
6.85231e-05
2.02143e-05
3.62004e-05
7.11972e-05
4.03443e-05
7.05881e-05
3.61978e-05
7.14676e-05
4.03492e-05
2.02101e-05
4.95682e-05
6.89856e-05
6.88716e-05
2.02098e-05
2.02128e-05
6.87104e-05
4.95668e-05
2.0213e-05
6.88285e-05
3.62009e-05
7.06908e-05
7.18396e-05
4.0356e-05
7.15785e-05
4.0351e-05
3.62034e-05
3.61982e-05
4.03441e-05
7.11882e-05
7.05867e-05
3.61956e-05
4.03491e-05
7.14602e-05
2.02087e-05
4.95644e-05
6.8965e-05
6.8851e-05
2.02085e-05
2.02114e-05
6.86896e-05
4.95629e-05
2.02116e-05
6.88077e-05
3.61987e-05
7.06884e-05
4.03559e-05
7.18321e-05
4.03509e-05
7.15695e-05
3.62012e-05
7.08079e-05
2.15457e-05
2.1549e-05
2.15461e-05
2.15495e-05
7.09298e-05
7.40864e-05
7.09482e-05
4.71346e-05
6.12746e-05
4.71437e-05
7.37313e-05
7.14181e-05
7.40444e-05
7.0942e-05
4.71449e-05
6.12748e-05
7.1413e-05
7.36905e-05
4.71539e-05
7.07595e-05
2.15494e-05
2.15528e-05
2.1549e-05
7.06339e-05
2.15523e-05
7.41614e-05
4.71563e-05
6.13144e-05
7.20457e-05
4.71475e-05
7.1581e-05
7.45112e-05
7.41208e-05
4.71663e-05
6.13184e-05
7.20409e-05
7.15751e-05
4.71578e-05
7.44697e-05
2.36277e-05
2.3625e-05
2.36173e-05
2.36199e-05
7.10928e-05
2.15428e-05
2.15462e-05
7.09765e-05
2.15424e-05
2.15457e-05
7.49974e-05
7.32905e-05
6.17918e-05
4.71803e-05
7.28312e-05
4.71721e-05
7.53384e-05
7.49573e-05
7.32861e-05
6.17954e-05
4.71904e-05
4.71821e-05
7.28256e-05
7.52979e-05
7.49287e-05
4.716e-05
7.22071e-05
6.17523e-05
7.26695e-05
7.45828e-05
4.71685e-05
7.48878e-05
4.717e-05
7.22013e-05
6.17538e-05
7.45423e-05
4.71785e-05
7.26648e-05
7.11379e-05
2.15391e-05
2.15424e-05
2.15396e-05
2.15429e-05
7.12516e-05
2.36188e-05
2.36214e-05
3.61925e-05
6.96347e-05
7.10748e-05
4.03421e-05
7.07952e-05
4.03372e-05
3.61952e-05
2.02174e-05
6.83507e-05
4.9552e-05
6.84761e-05
2.02176e-05
3.61919e-05
6.951e-05
7.0389e-05
4.03306e-05
7.06787e-05
3.61891e-05
4.03354e-05
2.02147e-05
6.86445e-05
4.95535e-05
6.85228e-05
2.02145e-05
3.61944e-05
6.96365e-05
7.10818e-05
4.03422e-05
7.08034e-05
4.03373e-05
3.61971e-05
2.02185e-05
6.83693e-05
4.9553e-05
2.02187e-05
6.84946e-05
3.61938e-05
6.95116e-05
7.03972e-05
4.03307e-05
3.6191e-05
7.06856e-05
4.03355e-05
2.02158e-05
6.86629e-05
4.95545e-05
6.85414e-05
2.02156e-05
3.61983e-05
7.11888e-05
4.03439e-05
7.05781e-05
3.61957e-05
7.14587e-05
4.03488e-05
2.02089e-05
4.9564e-05
6.89647e-05
6.88507e-05
2.02086e-05
2.02116e-05
6.86894e-05
4.95626e-05
2.02118e-05
6.88075e-05
3.61988e-05
7.06959e-05
7.18306e-05
4.03556e-05
7.15701e-05
4.03507e-05
3.62013e-05
3.62002e-05
7.1197e-05
4.0344e-05
7.05796e-05
3.61976e-05
7.14656e-05
4.0349e-05
2.02099e-05
4.9565e-05
6.89832e-05
6.88692e-05
2.02097e-05
2.02126e-05
6.87079e-05
4.95636e-05
2.02129e-05
6.88259e-05
3.62007e-05
7.06977e-05
7.18375e-05
4.03557e-05
7.15783e-05
4.03508e-05
3.62032e-05
2.36275e-05
2.36248e-05
2.3627e-05
2.36242e-05
7.10905e-05
2.15463e-05
2.15434e-05
7.09754e-05
2.15458e-05
2.15429e-05
7.49528e-05
7.32793e-05
6.17951e-05
4.71901e-05
7.28207e-05
4.71817e-05
7.52942e-05
7.49975e-05
7.32851e-05
6.17972e-05
4.71818e-05
7.28313e-05
4.71734e-05
7.53314e-05
7.48845e-05
4.71697e-05
7.22023e-05
6.17541e-05
7.45416e-05
7.26622e-05
4.71782e-05
7.49217e-05
4.71614e-05
7.22131e-05
6.17552e-05
7.4587e-05
7.26681e-05
4.71699e-05
7.11359e-05
2.15426e-05
2.15397e-05
2.1543e-05
2.15402e-05
7.12507e-05
2.36186e-05
2.36213e-05
2.36181e-05
2.36207e-05
0.000173218
0.000173229
0.000149111
0.000172362
0.00017237
0.00019158
0.000192283
7.4294e-05
7.2934e-05
7.2935e-05
8.26488e-05
7.40655e-05
7.30833e-05
7.30849e-05
7.34066e-05
8.27969e-05
7.26877e-05
7.26884e-05
7.25453e-05
7.25458e-05
7.36344e-05
7.34051e-05
8.28004e-05
7.26857e-05
7.26895e-05
7.25431e-05
7.25468e-05
7.36332e-05
7.34072e-05
8.27931e-05
7.26854e-05
7.26898e-05
7.25428e-05
7.25475e-05
7.36349e-05
7.34058e-05
8.27936e-05
7.26865e-05
7.26876e-05
7.36338e-05
7.25446e-05
7.2545e-05
7.42929e-05
7.29348e-05
7.29358e-05
8.26526e-05
7.40653e-05
7.3084e-05
7.30851e-05
7.60284e-05
8.21676e-05
7.43872e-05
7.44105e-05
7.42387e-05
7.42303e-05
7.62537e-05
7.42929e-05
7.29335e-05
7.29368e-05
8.26568e-05
7.30865e-05
7.40648e-05
7.30831e-05
7.60273e-05
8.21712e-05
7.43982e-05
7.44005e-05
7.42324e-05
7.42346e-05
7.62522e-05
7.42936e-05
7.29327e-05
7.29371e-05
8.26487e-05
7.30861e-05
7.40656e-05
7.30822e-05
7.60304e-05
8.21644e-05
7.43989e-05
7.44019e-05
7.42327e-05
7.42361e-05
7.62551e-05
7.60292e-05
8.21654e-05
7.43986e-05
7.44016e-05
7.42337e-05
7.42361e-05
7.62533e-05
0.000152198
0.00017407
0.000174079
0.00017493
0.000174941
0.000193685
0.000192984
0.000152202
0.000174071
0.000174084
0.00017493
0.000174943
0.000193686
0.000192985
0.000152192
0.000174064
0.000174077
0.000174924
0.000174938
0.000193681
0.000192979
0.0001522
0.00017407
0.00017408
0.00017493
0.000174941
0.000193683
0.000192981
0.000173218
0.000173231
0.000149113
0.000172362
0.000172375
0.000191582
0.000192284
0.000173212
0.000173226
0.000149102
0.000172355
0.000172368
0.000191576
0.000192278
0.000173218
0.000173228
0.00014911
0.000172361
0.000172372
0.000191578
0.00019228
0.000148095
0.000170658
0.000170667
0.000171512
0.000171523
0.000190878
0.000190175
0.000148099
0.000170658
0.000170672
0.000171512
0.000171526
0.000190879
0.000190176
0.000148088
0.000170652
0.000170665
0.000171506
0.00017152
0.000190873
0.00019017
0.000148096
0.000170658
0.000170669
0.000171511
0.000171523
0.000190875
0.000190172
7.28536e-05
6.68551e-05
6.87882e-05
7.53924e-05
6.85477e-05
7.53493e-05
7.29516e-05
6.89751e-05
6.8658e-05
6.8052e-05
6.59855e-05
6.88256e-05
6.88524e-05
6.82559e-05
7.28685e-05
6.63872e-05
6.78431e-05
7.54331e-05
7.27776e-05
6.80828e-05
7.54668e-05
6.91755e-05
6.8874e-05
6.62712e-05
6.94068e-05
6.92092e-05
6.86711e-05
6.93307e-05
7.28501e-05
6.68539e-05
7.53897e-05
6.87828e-05
7.53462e-05
6.85424e-05
7.29477e-05
6.89753e-05
6.86588e-05
6.80446e-05
6.60007e-05
6.88262e-05
6.88529e-05
6.82488e-05
7.28647e-05
6.63859e-05
7.54298e-05
6.78379e-05
7.27738e-05
7.5464e-05
6.80776e-05
6.9176e-05
6.88668e-05
6.62554e-05
6.9407e-05
6.92096e-05
6.86636e-05
6.93308e-05
7.47257e-05
8.24029e-05
7.35038e-05
7.35058e-05
7.33483e-05
7.33497e-05
7.49528e-05
7.29752e-05
8.31032e-05
7.21794e-05
7.21794e-05
7.27469e-05
7.2315e-05
7.23151e-05
7.28016e-05
6.64419e-05
7.57112e-05
6.4988e-05
7.27258e-05
6.66791e-05
7.57256e-05
6.85011e-05
6.83104e-05
6.53014e-05
6.76286e-05
6.81205e-05
6.74237e-05
6.86438e-05
6.83383e-05
6.67987e-05
6.75964e-05
6.49849e-05
6.77822e-05
6.82017e-05
6.70044e-05
7.27348e-05
6.54404e-05
6.73767e-05
7.55778e-05
6.71381e-05
7.55532e-05
7.2818e-05
7.28023e-05
6.64473e-05
7.57111e-05
6.49891e-05
7.27264e-05