/*--------------------------------*- C++ -*----------------------------------*\
| =========                 |                                                 |
| \\      /  F ield         | OpenFOAM: The Open Source CFD Toolbox           |
|  \\    /   O peration     | Version:  v1906                                 |
|   \\  /    A nd           | Web:      www.OpenFOAM.com                      |
|    \\/     M anipulation  |                                                 |
\*---------------------------------------------------------------------------*/
FoamFile
{
    version     2.0;
    format      ascii;
    class       volVectorField;
    location    "750";
    object      U;
}
// * * * * * * * * * * * * * * * * * * * * * * * * * * * * * * * * * * * * * //

dimensions      [0 1 -1 0 0 0 0];


internalField   nonuniform List<vector> 
42840
(
(2.19182e-05 2.19303e-05 0.113168)
(-1.44105e-05 8.75771e-06 0.108214)
(8.75294e-06 -1.44079e-05 0.108213)
(-4.59991e-05 -4.60139e-05 0.104666)
(1.98464e-05 1.98491e-05 0.113177)
(-1.21216e-05 7.49869e-06 0.108161)
(7.48425e-06 -1.2117e-05 0.10816)
(-4.4266e-05 -4.42647e-05 0.104616)
(1.76937e-05 1.77088e-05 0.113179)
(-9.945e-06 6.33514e-06 0.10811)
(6.32533e-06 -9.947e-06 0.108109)
(-4.26466e-05 -4.26508e-05 0.104569)
(1.5631e-05 1.55955e-05 0.113176)
(-7.9217e-06 5.24529e-06 0.108062)
(5.24437e-06 -7.91008e-06 0.108061)
(-4.11541e-05 -4.11673e-05 0.104526)
(1.34897e-05 1.35243e-05 0.113166)
(-5.97912e-06 4.20084e-06 0.108015)
(4.18145e-06 -5.97693e-06 0.108014)
(-3.97689e-05 -3.97638e-05 0.104486)
(1.15499e-05 1.15667e-05 0.113153)
(-4.17045e-06 3.31694e-06 0.10797)
(3.31422e-06 -4.15124e-06 0.107969)
(-3.85246e-05 -3.85305e-05 0.104448)
(9.6672e-06 9.58747e-06 0.113135)
(-2.46593e-06 2.41083e-06 0.107928)
(2.42295e-06 -2.4816e-06 0.107927)
(-3.72838e-05 -3.72797e-05 0.104414)
(7.673e-06 7.77819e-06 0.113113)
(-7.83419e-07 1.50858e-06 0.107888)
(1.49246e-06 -8.08915e-07 0.107887)
(-3.61891e-05 -3.6207e-05 0.104383)
(5.69168e-06 5.68172e-06 0.113088)
(5.27086e-07 8.50462e-07 0.10785)
(8.46737e-07 5.73535e-07 0.107849)
(-3.51656e-05 -3.51638e-05 0.104355)
(4.07802e-06 3.96909e-06 0.113061)
(2.00584e-06 1.06465e-07 0.107814)
(7.75624e-08 1.9689e-06 0.107813)
(-3.42121e-05 -3.41886e-05 0.104329)
(2.41338e-06 2.59896e-06 0.113031)
(3.37829e-06 -4.98451e-07 0.10778)
(-4.96237e-07 3.44976e-06 0.10778)
(-3.33852e-05 -3.3343e-05 0.104306)
(7.40175e-07 6.40672e-07 0.112999)
(4.4388e-06 -1.17274e-06 0.107749)
(-1.12596e-06 4.36451e-06 0.107748)
(-3.24522e-05 -3.25279e-05 0.104285)
(-7.19572e-07 -8.62171e-07 0.112966)
(5.21776e-06 -1.77223e-06 0.10772)
(-1.8765e-06 5.26104e-06 0.107719)
(-3.17247e-05 -3.17259e-05 0.104267)
(-1.94432e-06 -1.37407e-06 0.112931)
(6.54858e-06 -1.93128e-06 0.107692)
(-1.97438e-06 6.53386e-06 0.107691)
(-3.10713e-05 -3.0914e-05 0.104251)
(-2.90484e-06 -3.92409e-06 0.112894)
(7.36197e-06 -3.23646e-06 0.107667)
(-2.83099e-06 7.2236e-06 0.107666)
(-3.02373e-05 -3.05893e-05 0.104237)
(-4.84915e-06 -3.68937e-06 0.112859)
(7.19711e-06 -2.65378e-06 0.107643)
(-3.21619e-06 7.62691e-06 0.107643)
(-3.0155e-05 -2.95902e-05 0.104226)
(-4.87652e-06 -5.69973e-06 0.112821)
(8.81683e-06 -3.8158e-06 0.107622)
(-3.63173e-06 8.30801e-06 0.107622)
(-2.9006e-05 -2.97314e-05 0.104216)
(-6.65353e-06 -6.41251e-06 0.112786)
(9.10103e-06 -4.35496e-06 0.107602)
(-4.228e-06 9.08092e-06 0.107599)
(-2.84384e-05 -2.85023e-05 0.104207)
(-6.11506e-06 -5.81212e-06 0.112742)
(1.08656e-05 -4.39493e-06 0.107579)
(-4.11711e-06 1.13185e-05 0.107578)
(-2.83985e-05 -2.69097e-05 0.104197)
(-1.07253e-05 -1.1614e-05 0.112698)
(1.05079e-05 -5.87054e-06 0.107566)
(-5.89444e-06 1.02e-05 0.107566)
(-2.74084e-05 -2.90475e-05 0.104199)
(-9.7413e-06 -7.53877e-06 0.112672)
(7.54482e-06 -2.87763e-06 0.107556)
(-4.6572e-06 8.03965e-06 0.107558)
(-2.87137e-05 -2.78404e-05 0.104202)
(-2.76953e-06 -5.76151e-06 0.112641)
(1.13613e-05 -8.74968e-06 0.10754)
(-4.91681e-06 1.03806e-05 0.107535)
(-2.5994e-05 -2.9194e-05 0.104187)
(-9.40697e-06 -1.34314e-05 0.11258)
(1.65249e-05 -5.14609e-06 0.107524)
(-4.84944e-06 1.53598e-05 0.107509)
(-2.81059e-05 -2.38555e-05 0.104173)
(-1.75326e-05 -5.07298e-06 0.112553)
(3.49402e-06 6.12786e-06 0.107498)
(-1.33305e-06 6.68912e-06 0.10751)
(-3.17454e-05 -2.63039e-05 0.104198)
(-1.11197e-05 -1.37619e-05 0.112545)
(3.67567e-06 -1.63271e-05 0.107523)
(-1.27648e-05 5.89869e-06 0.107553)
(-2.47503e-05 -4.15341e-05 0.104242)
(4.07337e-06 -2.5663e-05 0.112512)
(2.46851e-05 -2.01288e-05 0.107567)
(-6.84615e-06 1.31212e-05 0.107517)
(-1.6488e-05 -2.23281e-05 0.10419)
(-4.34158e-05 -4.34007e-05 0.104836)
(9.12388e-06 1.50317e-05 0.108225)
(-9.14328e-06 1.50637e-05 0.108225)
(4.34076e-05 -4.34038e-05 0.104837)
(1.49719e-05 9.07162e-06 0.108227)
(1.50462e-05 -9.1403e-06 0.108224)
(-1.49932e-05 9.08405e-06 0.108228)
(-1.50327e-05 -9.11692e-06 0.108225)
(-4.33999e-05 4.34079e-05 0.104836)
(9.07994e-06 -1.49864e-05 0.108227)
(-9.07165e-06 -1.49762e-05 0.108226)
(4.33973e-05 4.34023e-05 0.104836)
(4.60028e-05 4.59859e-05 0.104666)
(-4.37358e-05 -4.37041e-05 0.104782)
(8.80816e-06 1.44547e-05 0.108212)
(-8.8205e-06 1.44814e-05 0.108211)
(7.84568e-06 1.27529e-05 0.108172)
(-7.83617e-06 1.27659e-05 0.108171)
(-4.60112e-05 4.59692e-05 0.104666)
(4.3738e-05 -4.3717e-05 0.104783)
(1.4392e-05 8.74616e-06 0.108213)
(1.44645e-05 -8.81473e-06 0.10821)
(1.26904e-05 7.81044e-06 0.108174)
(1.27617e-05 -7.83822e-06 0.108171)
(-1.4451e-05 -8.80262e-06 0.108211)
(-1.2687e-05 7.80007e-06 0.108174)
(-1.27501e-05 -7.83739e-06 0.108171)
(4.59779e-05 -4.60314e-05 0.104666)
(-4.37141e-05 4.37297e-05 0.104782)
(-8.74927e-06 -1.44031e-05 0.108213)
(7.7953e-06 -1.26812e-05 0.108173)
(-7.80716e-06 -1.2687e-05 0.108173)
(4.37016e-05 4.3718e-05 0.104782)
(4.42496e-05 4.42593e-05 0.104616)
(-4.4007e-05 -4.39844e-05 0.104732)
(7.53917e-06 1.22068e-05 0.108159)
(-7.5342e-06 1.22104e-05 0.108158)
(6.63269e-06 1.05426e-05 0.108121)
(-6.65938e-06 1.05639e-05 0.10812)
(-4.4251e-05 4.42299e-05 0.104616)
(4.39958e-05 -4.39846e-05 0.104733)
(1.2124e-05 7.51708e-06 0.108161)
(1.21908e-05 -7.54115e-06 0.108158)
(1.04807e-05 6.59913e-06 0.108122)
(1.05464e-05 -6.64794e-06 0.108119)
(-1.21916e-05 -7.53143e-06 0.108158)
(-1.04868e-05 6.61606e-06 0.108123)
(-1.05438e-05 -6.63134e-06 0.10812)
(4.42329e-05 -4.42827e-05 0.104616)
(-4.39866e-05 4.39935e-05 0.104732)
(-7.5022e-06 -1.21227e-05 0.10816)
(6.59793e-06 -1.04879e-05 0.108122)
(-6.59566e-06 -1.0491e-05 0.108122)
(4.39789e-05 4.39863e-05 0.104732)
(4.26338e-05 4.26304e-05 0.10457)
(-4.42133e-05 -4.42128e-05 0.104685)
(6.34918e-06 1.00132e-05 0.108108)
(-6.3731e-06 1.00371e-05 0.108107)
(5.5607e-06 8.4545e-06 0.108071)
(-5.56309e-06 8.48863e-06 0.10807)
(-4.26459e-05 4.26166e-05 0.10457)
(4.421e-05 -4.42002e-05 0.104686)
(9.93808e-06 6.32482e-06 0.10811)
(1.00151e-05 -6.36672e-06 0.108107)
(8.40945e-06 5.48862e-06 0.108073)
(8.49157e-06 -5.54514e-06 0.10807)
(-1.00062e-05 -6.34565e-06 0.108108)
(-8.42682e-06 5.51236e-06 0.108074)
(-8.47009e-06 -5.54879e-06 0.108071)
(4.26232e-05 -4.26692e-05 0.104569)
(-4.41965e-05 4.42197e-05 0.104685)
(-6.32106e-06 -9.94361e-06 0.108109)
(5.51164e-06 -8.40929e-06 0.108073)
(-5.50482e-06 -8.41042e-06 0.108072)
(4.41975e-05 4.4202e-05 0.104685)
(4.11548e-05 4.11285e-05 0.104526)
(-4.4406e-05 -4.43568e-05 0.104642)
(5.29404e-06 7.96384e-06 0.108059)
(-5.27868e-06 7.9939e-06 0.108058)
(4.50188e-06 6.50559e-06 0.108024)
(-4.53779e-06 6.50515e-06 0.108023)
(-4.1157e-05 4.11286e-05 0.104526)
(4.43952e-05 -4.43982e-05 0.104642)
(7.93044e-06 5.22625e-06 0.108061)
(8.00296e-06 -5.2716e-06 0.108058)
(6.4139e-06 4.49565e-06 0.108025)
(6.47171e-06 -4.53961e-06 0.108022)
(-7.97857e-06 -5.28747e-06 0.108059)
(-6.4254e-06 4.46298e-06 0.108026)
(-6.49362e-06 -4.48908e-06 0.108023)
(4.11352e-05 -4.11721e-05 0.104526)
(-4.44114e-05 4.43799e-05 0.104641)
(-5.24038e-06 -7.9233e-06 0.10806)
(4.44125e-06 -6.42436e-06 0.108025)
(-4.47033e-06 -6.41425e-06 0.108025)
(4.43794e-05 4.44023e-05 0.104641)
(3.97581e-05 3.9777e-05 0.104486)
(-4.4512e-05 -4.45074e-05 0.104602)
(4.23642e-06 6.00533e-06 0.108013)
(-4.28849e-06 6.02911e-06 0.108012)
(3.58135e-06 4.6933e-06 0.107979)
(-3.56479e-06 4.70883e-06 0.107978)
(-3.97806e-05 3.97324e-05 0.104486)
(4.45397e-05 -4.44986e-05 0.104602)
(5.92898e-06 4.21417e-06 0.108014)
(5.99868e-06 -4.29009e-06 0.108011)
(4.63167e-06 3.53854e-06 0.107981)
(4.69784e-06 -3.55328e-06 0.107978)
(-6.0197e-06 -4.24329e-06 0.108012)
(-4.59593e-06 3.55513e-06 0.107981)
(-4.68964e-06 -3.58513e-06 0.107978)
(3.97222e-05 -3.98122e-05 0.104486)
(-4.44872e-05 4.4542e-05 0.104601)
(-4.20548e-06 -5.94156e-06 0.108013)
(3.54935e-06 -4.6038e-06 0.10798)
(-3.54377e-06 -4.63563e-06 0.10798)
(4.44945e-05 4.44919e-05 0.104601)
(3.85274e-05 3.8509e-05 0.104449)
(-4.47052e-05 -4.47018e-05 0.104565)
(3.35313e-06 4.28084e-06 0.107968)
(-3.34808e-06 4.28174e-06 0.107967)
(2.66427e-06 2.92791e-06 0.107936)
(-2.64628e-06 2.95053e-06 0.107935)
(-3.84983e-05 3.84946e-05 0.104449)
(4.47005e-05 -4.4701e-05 0.104565)
(4.21325e-06 3.30152e-06 0.10797)
(4.26976e-06 -3.31489e-06 0.107967)
(2.90921e-06 2.59593e-06 0.107938)
(2.99533e-06 -2.66653e-06 0.107934)
(-4.26552e-06 -3.32846e-06 0.107967)
(-2.91975e-06 2.61654e-06 0.107938)
(-2.97384e-06 -2.6594e-06 0.107935)
(3.85107e-05 -3.85078e-05 0.104449)
(-4.46587e-05 4.46821e-05 0.104564)
(-3.30562e-06 -4.18551e-06 0.107969)
(2.64653e-06 -2.93547e-06 0.107937)
(-2.6098e-06 -2.9308e-06 0.107937)
(4.46669e-05 4.46748e-05 0.104564)
(3.72446e-05 3.72443e-05 0.104415)
(-4.4771e-05 -4.47158e-05 0.10453)
(2.39499e-06 2.47842e-06 0.107926)
(-2.39341e-06 2.52534e-06 0.107925)
(1.81648e-06 1.34351e-06 0.107895)
(-1.75748e-06 1.28696e-06 0.107894)
(-3.72477e-05 3.72312e-05 0.104415)
(4.47936e-05 -4.47922e-05 0.104531)
(2.44295e-06 2.38915e-06 0.107927)
(2.57257e-06 -2.41662e-06 0.107924)
(1.20141e-06 1.83566e-06 0.107897)
(1.20068e-06 -1.76719e-06 0.107894)
(-2.52272e-06 -2.39599e-06 0.107925)
(-1.1776e-06 1.71614e-06 0.107897)
(-1.28467e-06 -1.7914e-06 0.107894)
(3.72755e-05 -3.72984e-05 0.104414)
(-4.48395e-05 4.47863e-05 0.10453)
(-2.39331e-06 -2.45548e-06 0.107926)
(1.65833e-06 -1.15679e-06 0.107897)
(-1.76452e-06 -1.18643e-06 0.107896)
(4.4766e-05 4.47793e-05 0.10453)
(3.62172e-05 3.62155e-05 0.104383)
(-4.48527e-05 -4.48893e-05 0.1045)
(1.66743e-06 9.46196e-07 0.107885)
(-1.61184e-06 8.36983e-07 0.107885)
(9.63774e-07 -2.57169e-07 0.107857)
(-1.09563e-06 -1.21575e-07 0.107856)
(-3.6186e-05 3.61243e-05 0.104383)
(4.47924e-05 -4.47825e-05 0.1045)
(8.66655e-07 1.60729e-06 0.107887)
(7.85869e-07 -1.63393e-06 0.107884)
(-2.79685e-07 8.78991e-07 0.107858)
(-1.07104e-07 -1.05477e-06 0.107856)
(-9.01032e-07 -1.64633e-06 0.107885)
(1.93614e-07 1.03366e-06 0.107859)
(1.68556e-07 -9.9698e-07 0.107856)
(3.60962e-05 -3.62146e-05 0.104383)
(-4.4759e-05 4.48281e-05 0.104499)
(-1.56556e-06 -8.63075e-07 0.107886)
(1.05348e-06 2.18104e-07 0.107858)
(-9.6795e-07 2.78453e-07 0.107858)
(4.48254e-05 4.48399e-05 0.104499)
(3.516e-05 3.51162e-05 0.104355)
(-4.49231e-05 -4.48769e-05 0.104471)
(8.58958e-07 -5.58994e-07 0.107848)
(-9.15747e-07 -4.2891e-07 0.107847)
(3.09087e-07 -1.62764e-06 0.107821)
(-3.04594e-07 -1.6386e-06 0.10782)
(-3.52181e-05 3.52008e-05 0.104355)
(4.49441e-05 -4.49366e-05 0.104471)
(-6.01581e-07 7.66671e-07 0.107849)
(-4.47014e-07 -8.70959e-07 0.107846)
(-1.61675e-06 2.78553e-07 0.107822)
(-1.59568e-06 -3.2401e-07 0.107819)
(5.06822e-07 -8.69273e-07 0.107847)
(1.64243e-06 2.38034e-07 0.107823)
(1.60437e-06 -3.10127e-07 0.10782)
(3.52048e-05 -3.51914e-05 0.104355)
(-4.49134e-05 4.48941e-05 0.104471)
(-8.05329e-07 6.23993e-07 0.107849)
(2.37422e-07 1.60465e-06 0.107822)
(-2.57469e-07 1.60195e-06 0.107821)
(4.48838e-05 4.48818e-05 0.10447)
(3.41333e-05 3.41975e-05 0.104329)
(-4.48847e-05 -4.4819e-05 0.104445)
(1.84176e-08 -1.98636e-06 0.107812)
(-6.03234e-08 -1.95411e-06 0.107811)
(-2.74287e-07 -2.89057e-06 0.107786)
(3.82466e-07 -2.93953e-06 0.107786)
(-3.41381e-05 3.41508e-05 0.104329)
(4.49564e-05 -4.4874e-05 0.104446)
(-2.05801e-06 1.1642e-07 0.107813)
(-1.93008e-06 -9.05738e-08 0.10781)
(-3.06089e-06 -2.06141e-07 0.107788)
(-3.02447e-06 4.12129e-07 0.107785)
(1.95282e-06 -6.59683e-08 0.107811)
(3.09179e-06 -2.96944e-07 0.107789)
(2.94996e-06 3.49885e-07 0.107786)
(3.41738e-05 -3.42119e-05 0.104329)
(-4.49016e-05 4.49872e-05 0.104445)
(-1.14527e-07 1.99846e-06 0.107813)
(-3.45155e-07 3.13723e-06 0.107788)
(2.68819e-07 3.08982e-06 0.107787)
(4.48396e-05 4.49273e-05 0.104445)
(3.34086e-05 3.33891e-05 0.104306)
(-4.49947e-05 -4.50693e-05 0.104422)
(-4.02358e-07 -3.22208e-06 0.107778)
(4.89989e-07 -3.29719e-06 0.107777)
(-1.01347e-06 -4.15887e-06 0.107754)
(9.8676e-07 -4.10688e-06 0.107754)
(-3.33179e-05 3.33211e-05 0.104306)
(4.49775e-05 -4.49903e-05 0.104423)
(-3.29556e-06 -4.62511e-07 0.10778)
(-3.33855e-06 5.28467e-07 0.107777)
(-4.14672e-06 -1.16456e-06 0.107756)
(-4.06421e-06 9.45274e-07 0.107753)
(3.26304e-06 5.03999e-07 0.107777)
(4.19144e-06 -1.03951e-06 0.107757)
(4.12449e-06 9.63454e-07 0.107754)
(3.33195e-05 -3.3304e-05 0.104306)
(-4.49594e-05 4.49557e-05 0.104422)
(4.99343e-07 3.39721e-06 0.107779)
(-9.88662e-07 4.12469e-06 0.107756)
(1.1105e-06 4.10655e-06 0.107755)
(4.50288e-05 4.49433e-05 0.104422)
(3.24853e-05 3.24144e-05 0.104286)
(-4.49441e-05 -4.49681e-05 0.104402)
(-1.11851e-06 -4.39418e-06 0.107747)
(1.06933e-06 -4.34409e-06 0.107746)
(-1.48446e-06 -5.15274e-06 0.107725)
(1.27357e-06 -5.12327e-06 0.107724)
(-3.25176e-05 3.24605e-05 0.104286)
(4.48228e-05 -4.50397e-05 0.104402)
(-4.41982e-06 -1.24594e-06 0.107748)
(-4.30587e-06 1.04913e-06 0.107745)
(-5.13495e-06 -1.57536e-06 0.107727)
(-5.10531e-06 1.35795e-06 0.107723)
(4.38656e-06 1.09092e-06 0.107746)
(4.98768e-06 -1.63741e-06 0.107727)
(5.11834e-06 1.50871e-06 0.107724)
(3.24861e-05 -3.25528e-05 0.104285)
(-4.50385e-05 4.48607e-05 0.104402)
(1.19392e-06 4.37671e-06 0.107748)
(-1.67314e-06 5.06195e-06 0.107726)
(1.54863e-06 5.19305e-06 0.107726)
(4.49664e-05 4.49804e-05 0.104401)
(3.17194e-05 3.17137e-05 0.104268)
(-4.52243e-05 -4.48862e-05 0.104384)
(-1.70156e-06 -5.41677e-06 0.107718)
(1.54627e-06 -5.37249e-06 0.107717)
(-2.23215e-06 -5.93091e-06 0.107697)
(2.36216e-06 -5.96213e-06 0.107696)
(-3.18285e-05 3.16478e-05 0.104267)
(4.53432e-05 -4.48798e-05 0.104384)
(-5.38016e-06 -1.70583e-06 0.10772)
(-5.35802e-06 1.58829e-06 0.107716)
(-6.22612e-06 -1.79036e-06 0.107698)
(-6.03728e-06 2.23145e-06 0.107695)
(5.3516e-06 1.65366e-06 0.107717)
(6.30024e-06 -1.86412e-06 0.107699)
(5.92955e-06 2.12786e-06 0.107696)
(3.16307e-05 -3.18385e-05 0.104267)
(-4.49272e-05 4.52176e-05 0.104383)
(1.6996e-06 5.34976e-06 0.107719)
(-1.93269e-06 6.18053e-06 0.107698)
(1.8814e-06 6.08024e-06 0.107697)
(4.49107e-05 4.50954e-05 0.104383)
(3.08479e-05 3.10934e-05 0.104251)
(-4.46059e-05 -4.52942e-05 0.104367)
(-2.26196e-06 -6.12655e-06 0.10769)
(2.38137e-06 -6.11488e-06 0.107689)
(-2.14237e-06 -7.2191e-06 0.10767)
(2.53613e-06 -7.17737e-06 0.10767)
(-3.07277e-05 3.11147e-05 0.104251)
(4.48111e-05 -4.52039e-05 0.104368)
(-6.51835e-06 -1.96806e-06 0.107691)
(-6.30419e-06 2.32075e-06 0.107689)
(-6.82828e-06 -3.07996e-06 0.107672)
(-7.15392e-06 2.60972e-06 0.107669)
(6.24298e-06 2.26576e-06 0.107689)
(7.09101e-06 -2.95063e-06 0.107673)
(7.2792e-06 2.34485e-06 0.10767)
(3.10799e-05 -3.08252e-05 0.104251)
(-4.50726e-05 4.49569e-05 0.104367)
(2.0881e-06 6.49434e-06 0.10769)
(-2.74853e-06 7.16604e-06 0.107672)
(3.02421e-06 6.96768e-06 0.107671)
(4.52172e-05 4.47663e-05 0.104367)
(3.07181e-05 3.01024e-05 0.104237)
(-4.52635e-05 -4.44835e-05 0.104355)
(-2.43541e-06 -7.47776e-06 0.107664)
(2.72212e-06 -7.65231e-06 0.107664)
(-3.51388e-06 -7.33582e-06 0.107648)
(2.73184e-06 -7.22326e-06 0.107647)
(-3.05266e-05 3.00853e-05 0.104237)
(4.47291e-05 -4.45567e-05 0.104355)
(-6.89604e-06 -3.19715e-06 0.107666)
(-7.23765e-06 2.66031e-06 0.107663)
(-7.91848e-06 -2.58223e-06 0.107649)
(-7.17794e-06 3.003e-06 0.107645)
(7.33662e-06 2.54768e-06 0.107664)
(7.24483e-06 -2.65401e-06 0.107649)
(7.2118e-06 3.57863e-06 0.107647)
(3.03026e-05 -3.04686e-05 0.104237)
(-4.46569e-05 4.47838e-05 0.104354)
(2.9634e-06 6.97126e-06 0.107665)
(-2.87758e-06 7.3587e-06 0.107648)
(2.56262e-06 7.91124e-06 0.107648)
(4.44857e-05 4.52465e-05 0.104354)
(2.96004e-05 3.02463e-05 0.104226)
(-4.4573e-05 -4.50122e-05 0.104343)
(-3.29254e-06 -7.32834e-06 0.107642)
(2.85721e-06 -7.01589e-06 0.107641)
(-3.25329e-06 -8.10834e-06 0.107625)
(3.77604e-06 -8.51885e-06 0.107624)
(-3.00755e-05 3.02604e-05 0.104226)
(4.51173e-05 -4.50888e-05 0.104343)
(-7.98793e-06 -2.56846e-06 0.107643)
(-7.47481e-06 3.31752e-06 0.10764)
(-7.67184e-06 -3.78656e-06 0.107626)
(-8.4488e-06 3.25185e-06 0.107624)
(7.43636e-06 3.44163e-06 0.107641)
(8.55726e-06 -3.77833e-06 0.107627)
(8.24591e-06 2.90954e-06 0.107624)
(2.99881e-05 -2.99506e-05 0.104226)
(-4.51467e-05 4.47617e-05 0.104343)
(2.80711e-06 8.10576e-06 0.107643)
(-3.73772e-06 8.38883e-06 0.107627)
(3.89791e-06 7.71194e-06 0.107626)
(4.517e-05 4.43414e-05 0.104342)
(2.94287e-05 2.91258e-05 0.104216)
(-4.51368e-05 -4.53135e-05 0.104334)
(-3.88032e-06 -8.43296e-06 0.10762)
(3.71524e-06 -8.7992e-06 0.107619)
(-3.79055e-06 -9.47914e-06 0.107606)
(3.67768e-06 -8.55731e-06 0.107604)
(-2.90766e-05 2.90495e-05 0.104216)
(4.47807e-05 -4.4879e-05 0.104333)
(-8.16244e-06 -4.113e-06 0.107621)
(-8.52346e-06 2.8724e-06 0.107619)
(-9.79899e-06 -4.05914e-06 0.107608)
(-9.1115e-06 3.71895e-06 0.107602)
(8.4996e-06 3.25834e-06 0.107619)
(8.67226e-06 -3.91771e-06 0.107607)
(9.51314e-06 3.62035e-06 0.107604)
(2.90719e-05 -2.95673e-05 0.104217)
(-4.50685e-05 4.50246e-05 0.104331)
(4.13887e-06 8.01818e-06 0.107621)
(-4.14478e-06 8.52997e-06 0.107604)
(4.09873e-06 9.18673e-06 0.107605)
(4.52313e-05 4.50745e-05 0.104332)
(2.86189e-05 2.82284e-05 0.104208)
(-4.56092e-05 -4.49986e-05 0.104319)
(-3.27141e-06 -9.67629e-06 0.1076)
(4.34394e-06 -9.00566e-06 0.107599)
(-4.72183e-06 -9.46088e-06 0.10758)
(5.5065e-06 -1.0493e-05 0.107582)
(-2.85858e-05 2.85044e-05 0.104208)
(4.61595e-05 -4.56005e-05 0.104322)
(-9.59532e-06 -3.94691e-06 0.107602)
(-9.3233e-06 4.68811e-06 0.107597)
(-9.47494e-06 -4.04021e-06 0.107581)
(-9.57326e-06 5.97788e-06 0.10758)
(9.57484e-06 3.6376e-06 0.107599)
(1.07596e-05 -4.55323e-06 0.107584)
(9.21177e-06 5.66287e-06 0.10758)
(2.84937e-05 -2.82265e-05 0.104206)
(-4.4792e-05 4.64275e-05 0.104321)
(3.89916e-06 9.19274e-06 0.107599)
(-3.79897e-06 1.10106e-05 0.107583)
(3.79054e-06 1.02594e-05 0.107581)
(4.45987e-05 4.61993e-05 0.104319)
(2.73674e-05 2.81471e-05 0.104196)
(-4.40934e-05 -4.53383e-05 0.104319)
(-5.45715e-06 -9.66617e-06 0.107573)
(5.02584e-06 -1.0566e-05 0.107576)
(-4.84086e-06 -1.16535e-05 0.107564)
(3.59628e-06 -1.10938e-05 0.107564)
(-2.72866e-05 2.77121e-05 0.104199)
(4.33877e-05 -4.48695e-05 0.104319)
(-1.01375e-05 -4.35992e-06 0.107574)
(-1.00268e-05 5.4745e-06 0.107575)
(-1.12692e-05 -6.26131e-06 0.107566)
(-1.14574e-05 3.66013e-06 0.107563)
(9.64275e-06 6.06602e-06 0.107574)
(1.05191e-05 -5.44278e-06 0.107567)
(1.1592e-05 4.39012e-06 0.107564)
(2.82021e-05 -2.706e-05 0.104198)
(-4.52989e-05 4.32894e-05 0.104318)
(4.2223e-06 1.09832e-05 0.107575)
(-5.78253e-06 1.07114e-05 0.107567)
(6.00543e-06 1.11148e-05 0.107567)
(4.53865e-05 4.37837e-05 0.104318)
(2.86956e-05 2.72993e-05 0.104199)
(-4.49512e-05 -4.29454e-05 0.104324)
(-4.88835e-06 -1.18185e-05 0.107564)
(3.86093e-06 -1.14155e-05 0.107563)
(-6.27181e-06 -8.76729e-06 0.107563)
(4.31473e-06 -8.65635e-06 0.107557)
(-2.92028e-05 2.76304e-05 0.104198)
(4.37472e-05 -4.28473e-05 0.10432)
(-1.09554e-05 -6.49354e-06 0.107565)
(-1.12706e-05 3.71082e-06 0.107562)
(-9.48476e-06 -3.61326e-06 0.107563)
(-8.80307e-06 4.4227e-06 0.107558)
(1.14681e-05 4.33213e-06 0.107563)
(8.56145e-06 -3.56092e-06 0.107559)
(8.71878e-06 5.73397e-06 0.10756)
(2.75007e-05 -2.95009e-05 0.104198)
(-4.3777e-05 4.36641e-05 0.104321)
(6.05575e-06 1.05608e-05 0.107566)
(-4.8797e-06 8.36501e-06 0.107561)
(4.2268e-06 9.15593e-06 0.107562)
(4.34736e-05 4.45226e-05 0.104322)
(2.73377e-05 2.94054e-05 0.104204)
(-4.22737e-05 -4.61593e-05 0.104309)
(-5.90629e-06 -8.0529e-06 0.107561)
(4.48385e-06 -6.96964e-06 0.107554)
(-6.34424e-07 -9.56889e-06 0.10754)
(7.18544e-06 -8.73552e-06 0.10754)
(-2.85368e-05 2.97826e-05 0.1042)
(4.60352e-05 -4.63838e-05 0.104314)
(-9.42598e-06 -3.06819e-06 0.107561)
(-8.32503e-06 4.55427e-06 0.107556)
(-8.56622e-06 -5.37804e-06 0.107544)
(-9.45207e-06 5.21299e-06 0.107542)
(8.42285e-06 5.21536e-06 0.107558)
(9.32848e-06 -7.15951e-06 0.107544)
(1.01339e-05 7.05189e-07 0.10754)
(2.84703e-05 -2.84806e-05 0.104201)
(-4.49368e-05 4.5464e-05 0.104311)
(4.05315e-06 9.0084e-06 0.107559)
(-4.78381e-06 9.28047e-06 0.107542)
(5.30585e-06 8.29228e-06 0.107542)
(4.58507e-05 4.24315e-05 0.104308)
(2.97156e-05 2.54023e-05 0.104188)
(-4.69473e-05 -4.50278e-05 0.104292)
(2.32379e-07 -1.06381e-05 0.107531)
(7.74817e-06 -1.16425e-05 0.107537)
(-6.2273e-06 -1.39597e-05 0.107509)
(6.22894e-06 -1.72918e-05 0.107527)
(-2.55385e-05 2.46805e-05 0.104195)
(4.69634e-05 -4.70709e-05 0.10431)
(-8.27913e-06 -6.06897e-06 0.107535)
(-1.03598e-05 5.44362e-06 0.107534)
(-1.26703e-05 -6.36886e-06 0.107509)
(-1.45033e-05 6.40912e-06 0.107511)
(1.07758e-05 3.77056e-07 0.107531)
(1.62693e-05 -7.40903e-06 0.10753)
(1.26586e-05 6.3974e-06 0.107506)
(2.67152e-05 -2.60717e-05 0.104191)
(-4.56333e-05 4.687e-05 0.104297)
(5.31577e-06 8.39042e-06 0.107532)
(-5.74422e-06 1.52399e-05 0.107514)
(4.5019e-06 1.28757e-05 0.107505)
(4.36696e-05 4.70339e-05 0.104289)
(2.3607e-05 2.68252e-05 0.104176)
(-4.58639e-05 -3.85008e-05 0.104306)
(-9.25665e-06 -1.40242e-05 0.107505)
(5.06211e-06 -1.67012e-05 0.107522)
(-1.26465e-05 -7.3295e-06 0.107509)
(3.19714e-07 -4.84775e-06 0.107501)
(-2.49887e-05 2.54461e-05 0.104192)
(3.94364e-05 -3.61133e-05 0.104295)
(-1.43761e-05 -5.82582e-06 0.107504)
(-1.42495e-05 6.05724e-06 0.107506)
(-1.30486e-05 -1.15242e-06 0.107507)
(-6.05897e-06 4.79826e-06 0.107501)
(1.23719e-05 9.06392e-06 0.107501)
(7.78952e-06 4.79455e-06 0.107503)
(7.41555e-06 1.43563e-05 0.107507)
(2.62993e-05 -2.50644e-05 0.10418)
(-3.81135e-05 4.02676e-05 0.104301)
(4.16482e-06 1.41306e-05 0.1075)
(-6.59983e-07 8.77703e-06 0.107506)
(3.80486e-06 1.33602e-05 0.107509)
(3.9612e-05 4.60496e-05 0.104307)
(2.69907e-05 3.3559e-05 0.104195)
(-3.0986e-05 -4.22988e-05 0.104345)
(-1.12225e-05 -4.62929e-06 0.107513)
(-3.30493e-07 -1.43696e-07 0.107495)
(3.80548e-06 -7.78202e-06 0.107532)
(3.02093e-06 -2.47172e-06 0.1075)
(-3.30681e-05 3.6119e-05 0.104179)
(3.4925e-05 -4.11939e-05 0.104315)
(-1.09238e-05 -1.52749e-08 0.107514)
(-4.10197e-06 5.34266e-06 0.107504)
(-4.53955e-06 -5.38469e-06 0.107539)
(-9.50446e-06 2.03192e-06 0.107534)
(6.37526e-06 1.37007e-05 0.107516)
(6.6572e-07 -7.94098e-06 0.107507)
(1.29003e-05 -4.49922e-06 0.107547)
(3.34713e-05 -3.17955e-05 0.104188)
(-4.41376e-05 3.54226e-05 0.104344)
(4.35026e-06 1.23855e-05 0.107519)
(-9.9451e-06 5.65225e-06 0.10754)
(7.85164e-06 7.67902e-06 0.107556)
(4.49198e-05 3.11594e-05 0.104357)
(4.10657e-05 2.60973e-05 0.104233)
(-4.49289e-05 -5.81595e-05 0.104345)
(9.09154e-06 -1.21043e-05 0.10754)
(4.5036e-06 -9.1893e-06 0.107516)
(3.76e-06 -2.05932e-05 0.107548)
(9.96259e-06 -2.88458e-05 0.107571)
(-3.43573e-05 2.55709e-05 0.104208)
(5.12418e-05 -6.04885e-05 0.104377)
(-3.13495e-06 -1.04208e-05 0.107549)
(-1.33152e-05 -1.02366e-06 0.107549)
(-6.61772e-06 -2.00068e-05 0.107547)
(-1.76181e-05 -3.46634e-06 0.107549)
(1.53928e-05 -1.2234e-05 0.107554)
(1.8419e-05 -2.57666e-05 0.107572)
(1.2528e-05 -1.25594e-05 0.107529)
(2.50127e-05 -3.56215e-05 0.104234)
(-5.34394e-05 4.66987e-05 0.104341)
(9.31906e-06 4.13435e-06 0.107562)
(-1.04085e-05 8.35935e-06 0.107545)
(9.28759e-06 -9.37055e-07 0.107523)
(5.21898e-05 4.10284e-05 0.10432)
(1.83196e-05 1.02119e-05 0.10422)
(-5.52457e-06 -2.23042e-05 0.107534)
(1.2581e-05 -3.12473e-05 0.107571)
(-1.42175e-05 8.59806e-06 0.104256)
(-1.36583e-05 -1.80181e-05 0.107527)
(-1.79435e-05 1.91008e-06 0.107525)
(1.24402e-05 -1.61094e-06 0.107502)
(1.54572e-05 -1.84867e-05 0.104212)
(8.19199e-06 4.93543e-06 0.10749)
(-5.77566e-07 -8.69023e-06 0.091005)
(-1.79914e-06 -7.57165e-06 0.0816098)
(5.9018e-07 -3.93638e-06 0.0709143)
(-8.71292e-06 -5.60483e-07 0.0910043)
(-7.58153e-06 -1.77112e-06 0.08161)
(2.24354e-05 2.24478e-05 0.113164)
(-2.24706e-05 2.24783e-05 0.113165)
(2.24709e-05 -2.24605e-05 0.113164)
(-2.24578e-05 -2.2434e-05 0.113164)
(1.01055e-05 -3.3208e-07 0.0985701)
(-1.61716e-05 9.77598e-06 0.108255)
(7.67979e-06 -4.09636e-06 0.0926589)
(-2.43659e-05 3.38536e-06 0.11082)
(-3.85283e-06 5.62576e-07 0.0709157)
(-3.26269e-07 1.00993e-05 0.0985701)
(9.75659e-06 -1.61714e-05 0.108254)
(3.37905e-06 -2.43653e-05 0.110819)
(-4.12375e-06 7.7115e-06 0.0926585)
(4.32161e-05 4.32215e-05 0.104864)
(4.2901e-06 3.27262e-06 0.0870189)
(3.29075e-06 4.28665e-06 0.087017)
(-5.56283e-07 -9.02175e-06 0.0909901)
(1.98973e-07 6.16318e-06 0.0815713)
(-5.65849e-07 5.32682e-06 0.0909581)
(-1.68202e-06 -7.69848e-06 0.0816149)
(-3.46738e-06 2.25587e-06 0.0708815)
(6.09484e-07 -3.96551e-06 0.0709263)
(-9.04289e-06 -5.29474e-07 0.0909894)
(6.13553e-06 2.04709e-07 0.081571)
(5.37179e-06 -5.40486e-07 0.0909584)
(-7.71392e-06 -1.64651e-06 0.0816151)
(-2.19525e-05 2.19571e-05 0.113168)
(2.19481e-05 -2.19462e-05 0.113167)
(-2.1942e-05 -2.19247e-05 0.113167)
(2.03717e-05 2.03465e-05 0.113175)
(-2.03501e-05 2.03525e-05 0.113175)
(2.03789e-05 -2.03525e-05 0.113174)
(-2.03682e-05 -2.03668e-05 0.113175)
(1.1022e-05 -3.41648e-07 0.098532)
(-1.31356e-05 2.77206e-06 0.0925941)
(-2.22741e-05 2.95964e-06 0.110787)
(-1.38331e-05 8.43473e-06 0.108201)
(-1.52261e-05 -3.17011e-07 0.0984814)
(8.43902e-06 -4.12309e-06 0.092646)
(-2.15717e-05 2.83335e-06 0.110776)
(2.18229e-06 -3.39643e-06 0.0708789)
(-3.88406e-06 5.83659e-07 0.0709277)
(-3.40167e-07 1.1019e-05 0.098532)
(2.97516e-06 -2.22389e-05 0.110786)
(2.78406e-06 -1.31803e-05 0.0925947)
(8.43087e-06 -1.38359e-05 0.1082)
(-3.09576e-07 -1.52266e-05 0.0984808)
(2.84735e-06 -2.15659e-05 0.110775)
(-4.16056e-06 8.45882e-06 0.0926456)
(-3.18456e-06 -4.57965e-06 0.0869803)
(-4.55423e-06 -3.18781e-06 0.086979)
(4.35526e-05 4.35533e-05 0.104808)
(4.62619e-06 3.35811e-06 0.0870185)
(3.37508e-06 4.62127e-06 0.0870166)
(-5.40834e-07 -9.31769e-06 0.0909791)
(2.87415e-07 5.94786e-06 0.0815788)
(-5.63335e-07 4.87541e-06 0.0909461)
(-1.57596e-06 -7.81313e-06 0.0816231)
(-3.40387e-06 2.19086e-06 0.0708954)
(6.57071e-07 -3.98327e-06 0.0709406)
(-9.33863e-06 -5.17374e-07 0.0909784)
(5.91934e-06 2.95595e-07 0.0815784)
(4.92674e-06 -5.26327e-07 0.0909464)
(-7.82254e-06 -1.55033e-06 0.0816233)
(-1.98178e-05 1.98407e-05 0.113177)
(1.98554e-05 -1.98198e-05 0.113176)
(-1.98508e-05 -1.98306e-05 0.113176)
(1.82378e-05 1.82439e-05 0.113179)
(-1.82512e-05 1.82531e-05 0.113179)
(1.82266e-05 -1.82303e-05 0.113178)
(-1.82504e-05 -1.82435e-05 0.113178)
(1.19033e-05 -3.41597e-07 0.0984987)
(-1.22537e-05 2.66651e-06 0.0925844)
(-1.95309e-05 2.46562e-06 0.110743)
(-1.15713e-05 7.20333e-06 0.108149)
(-1.40701e-05 -3.08219e-07 0.0984474)
(9.14604e-06 -4.17742e-06 0.092637)
(-1.88542e-05 2.35739e-06 0.110731)
(2.11666e-06 -3.33924e-06 0.0708928)
(-3.89969e-06 6.32451e-07 0.070942)
(-3.40115e-07 1.19091e-05 0.0984986)
(2.47061e-06 -1.94939e-05 0.110742)
(2.67502e-06 -1.2298e-05 0.0925851)
(7.1789e-06 -1.15706e-05 0.108147)
(-3.14094e-07 -1.40762e-05 0.0984468)
(2.3519e-06 -1.88286e-05 0.11073)
(-4.2088e-06 9.17797e-06 0.0926365)
(-2.83325e-06 -4.42155e-06 0.0869824)
(-4.39737e-06 -2.83396e-06 0.0869811)
(4.38492e-05 4.38606e-05 0.104756)
(4.91835e-06 3.44697e-06 0.0870213)
(3.47072e-06 4.91138e-06 0.0870194)
(-4.96127e-07 -9.58508e-06 0.0909718)
(3.9518e-07 5.74623e-06 0.0815891)
(-5.20894e-07 4.47839e-06 0.0909379)
(-1.47924e-06 -7.90763e-06 0.081634)
(-3.32863e-06 2.14494e-06 0.0709114)
(7.17181e-07 -3.98398e-06 0.070957)
(-9.60969e-06 -4.74138e-07 0.0909711)
(5.71972e-06 3.96306e-07 0.0815887)
(4.52675e-06 -4.91965e-07 0.0909382)
(-7.91658e-06 -1.45177e-06 0.0816342)
(-1.77045e-05 1.7723e-05 0.113179)
(1.77058e-05 -1.76972e-05 0.113178)
(-1.77136e-05 -1.77027e-05 0.113178)
(1.61222e-05 1.61256e-05 0.113177)
(-1.61712e-05 1.616e-05 0.113177)
(1.61507e-05 -1.6141e-05 0.113176)
(-1.61364e-05 -1.61184e-05 0.113176)
(1.27354e-05 -3.54885e-07 0.0984699)
(-1.14204e-05 2.55846e-06 0.0925784)
(-1.69315e-05 2.04005e-06 0.110697)
(-9.42129e-06 6.06424e-06 0.108098)
(-1.29971e-05 -3.20628e-07 0.0984179)
(9.83668e-06 -4.21678e-06 0.0926314)
(-1.62798e-05 1.94464e-06 0.110685)
(2.06951e-06 -3.26436e-06 0.0709088)
(-3.90533e-06 6.89219e-07 0.0709583)
(-3.53922e-07 1.27347e-05 0.0984698)
(2.03454e-06 -1.69169e-05 0.110696)
(2.57717e-06 -1.14694e-05 0.092579)
(6.05636e-06 -9.41832e-06 0.108097)
(-3.17521e-07 -1.30143e-05 0.0984173)
(1.94032e-06 -1.62656e-05 0.110684)
(-4.24128e-06 9.8747e-06 0.092631)
(-2.49441e-06 -4.2803e-06 0.0869875)
(-4.25718e-06 -2.49521e-06 0.0869862)
(4.40845e-05 4.41045e-05 0.104708)
(5.21123e-06 3.54061e-06 0.0870271)
(3.56348e-06 5.20633e-06 0.0870252)
(-5.03795e-07 -9.82112e-06 0.090968)
(4.34465e-07 5.57566e-06 0.0816021)
(-5.16338e-07 4.08808e-06 0.0909333)
(-1.41889e-06 -7.9858e-06 0.0816475)
(-3.22887e-06 2.10881e-06 0.0709293)
(7.96645e-07 -3.97548e-06 0.0709752)
(-9.8356e-06 -4.72585e-07 0.0909674)
(5.54422e-06 4.46748e-07 0.0816016)
(4.13579e-06 -4.85741e-07 0.0909337)
(-7.99217e-06 -1.3764e-06 0.0816478)
(-1.56436e-05 1.56286e-05 0.113176)
(1.56416e-05 -1.56101e-05 0.113175)
(-1.56283e-05 -1.56197e-05 0.113175)
(1.40787e-05 1.41078e-05 0.113169)
(-1.40463e-05 1.40783e-05 0.113169)
(1.40655e-05 -1.40464e-05 0.113168)
(-1.40756e-05 -1.40503e-05 0.113168)
(1.35257e-05 -3.6264e-07 0.0984453)
(-1.06314e-05 2.43215e-06 0.0925757)
(-1.44361e-05 1.60109e-06 0.110651)
(-7.404e-06 4.99169e-06 0.10805)
(-1.19479e-05 -3.45244e-07 0.0983928)
(1.04624e-05 -4.28495e-06 0.0926293)
(-1.38258e-05 1.51918e-06 0.110639)
(2.03268e-06 -3.16982e-06 0.0709267)
(-3.89676e-06 7.68095e-07 0.0709766)
(-3.6161e-07 1.35182e-05 0.0984453)
(1.61815e-06 -1.44013e-05 0.11065)