/*--------------------------------*- C++ -*----------------------------------*\
| =========                 |                                                 |
| \\      /  F ield         | OpenFOAM: The Open Source CFD Toolbox           |
|  \\    /   O peration     | Version:  v1906                                 |
|   \\  /    A nd           | Web:      www.OpenFOAM.com                      |
|    \\/     M anipulation  |                                                 |
\*---------------------------------------------------------------------------*/
FoamFile
{
    version     2.0;
    format      ascii;
    class       surfaceScalarField;
    location    "150";
    object      phi;
}
// * * * * * * * * * * * * * * * * * * * * * * * * * * * * * * * * * * * * * //

dimensions      [0 3 -1 0 0 0 0];
oriented        oriented;


internalField   nonuniform List<scalar> 
124860
(
-1.31242e-06
-1.30157e-06
-0.000272775
3.0053e-07
2.35867e-07
-4.48295e-08
1.46517e-08
-1.3178e-06
2.81091e-07
-3.05048e-07
-9.46801e-07
2.49134e-07
-2.95586e-07
9.37525e-07
-0.00114684
1.32547e-06
-3.21709e-09
-0.00114729
8.08129e-09
-1.31823e-06
2.97758e-07
-2.99541e-07
-9.44608e-07
2.79198e-07
-2.85313e-07
9.45691e-07
-1.28511e-06
-0.000272786
2.66383e-07
2.7197e-07
7.55586e-09
3.99804e-08
-1.26792e-06
3.0867e-07
-2.8612e-07
-9.33037e-07
3.10201e-07
-2.67944e-07
9.48622e-07
-0.00114793
1.32023e-06
2.06524e-09
1.31643e-09
-1.31304e-06
2.97813e-07
-2.99929e-07
-9.41586e-07
2.79483e-07
-2.84815e-07
9.42926e-07
-0.00114695
-3.15001e-09
-0.00114761
7.70177e-09
-1.27848e-06
2.88829e-07
-2.91569e-07
-9.37791e-07
2.77137e-07
-2.81117e-07
9.40605e-07
1.31426e-06
2.47423e-09
-0.0011468
9.09538e-09
-1.30785e-06
2.91482e-07
-2.94714e-07
-9.41156e-07
2.7733e-07
-2.84389e-07
9.43799e-07
-1.28056e-06
-0.000272746
2.67074e-07
2.7155e-07
-3.00808e-09
1.44899e-08
-1.2724e-06
2.9016e-07
-2.90839e-07
-9.39053e-07
2.79063e-07
-2.85429e-07
9.39723e-07
-0.00114734
1.27742e-06
-1.38343e-09
-0.00114785
1.34775e-08
-1.2756e-06
2.89594e-07
-2.94108e-07
-9.39146e-07
2.79038e-07
-2.85336e-07
9.3981e-07
-0.000272772
2.66772e-07
2.7149e-07
-3.83375e-09
2.82411e-08
-0.00117692
-0.00117692
-2.80124e-09
-3.35784e-09
-9.96811e-09
1.80105e-08
-0.00117655
-0.00117675
-2.43196e-09
9.789e-09
-2.49268e-08
-8.82233e-09
-9.71218e-05
-2.72992e-08
-8.05283e-09
-9.71139e-05
-2.60383e-08
-1.91561e-08
-0.000277804
1.29493e-08
-3.0414e-08
-8.219e-08
-0.000277765
1.68837e-08
-2.59746e-10
6.84836e-08
-3.3131e-08
-4.31257e-10
0.000230169
-0.000230204
-4.63231e-08
-0.000192643
4.39966e-09
-5.26179e-10
-7.51002e-08
-0.000230171
3.63526e-08
3.42752e-09
6.91808e-08
-3.35178e-08
-1.55909e-09
0.000230199
-0.000230234
-4.53331e-08
1.00251e-08
-0.000192659
1.71772e-09
4.8441e-08
-6.70716e-09
-7.78939e-09
0.000192659
-0.000192693
-7.47863e-08
-0.000230201
3.61684e-08
2.30329e-09
1.47931e-09
-2.90113e-09
2.04998e-07
0.000253607
-0.000253742
-1.01293e-07
-0.000246445
-1.90398e-08
-0.00116079
-2.29155e-09
-1.92948e-09
-1.03686e-06
8.60953e-07
-8.59244e-07
1.03734e-06
4.73911e-09
2.72528e-09
1.03769e-06
-8.56329e-07
-1.03456e-06
8.6172e-07
-0.0011608
-8.24799e-09
-1.44519e-09
-0.000253608
4.05586e-09
-2.07266e-07
-2.99296e-09
2.05661e-07
0.000253636
-0.000253768
7.23018e-09
-1.31836e-06
-4.95938e-09
9.4596e-07
-2.85277e-07
-9.45084e-07
2.79514e-07
1.32588e-06
-2.99399e-07
2.98246e-07
-0.00114729
2.95354e-08
-1.12936e-07
-0.000246446
-2.21057e-08
-0.00116094
2.89496e-09
-1.03435e-06
8.60907e-07
-8.56865e-07
1.04035e-06
-2.54556e-08
1.63594e-08
1.17586e-07
0.000246446
-0.000246506
2.26508e-09
1.0406e-06
-8.56698e-07
-1.0348e-06
8.6164e-07
-0.00116094
-0.000253636
4.90754e-09
-2.09559e-07
-2.29917e-08
-9.71067e-05
2.62658e-08
9.71067e-05
-9.71397e-05
1.2785e-06
0.000272787
-2.59187e-07
-2.6342e-07
-0.000274861
-5.04585e-08
-0.000277727
1.86345e-08
2.72479e-08
-2.52227e-08
-5.17569e-08
-0.000277886
1.53688e-08
-1.39426e-08
5.19031e-08
0.000277726
-0.000277763
-2.56597e-08
2.48973e-08
-1.72271e-08
4.97512e-08
0.000277884
-0.000277915
-8.56725e-09
-9.71395e-05
8.51597e-09
9.71379e-05
-9.71721e-05
-4.93496e-08
-0.000192673
4.38778e-09
-7.63704e-08
-3.78424e-10
-0.00023019
2.57661e-09
3.5153e-08
-1.24484e-07
-0.000246465
-2.3588e-08
1.75505e-09
3.82673e-09
-1.02891e-06
8.58367e-07
-8.51558e-07
1.03723e-06
-0.00116071
-1.62062e-09
-0.000253628
4.02867e-09
-2.13194e-07
-4.93019e-08
7.59621e-09
-0.000192607
4.16937e-09
-7.64144e-08
-0.000230151
3.52058e-08
2.30881e-09
8.83714e-09
-1.03163e-06
8.58504e-07
-8.51559e-07
1.03744e-06
-0.00116069
2.68581e-08
-1.091e-07
-0.000246386
-2.27417e-08
-0.000253604
-2.10699e-07
4.22038e-09
-6.76405e-08
1.73726e-09
-2.75844e-09
2.02017e-07
0.000253644
-0.000253777
6.64156e-09
1.70153e-09
1.28545e-06
-2.91259e-07
2.89401e-07
9.4106e-07
-2.8097e-07
-9.38235e-07
2.77586e-07
-0.00114762
4.92058e-08
-1.14269e-07
-0.000246513
-2.08384e-08
-0.00116073
-4.66427e-09
4.2638e-09
-1.03098e-06
8.58553e-07
-8.53852e-07
1.03764e-06
-4.82914e-08
1.76453e-08
1.15423e-07
0.000246512
-0.000246572
3.17847e-09
8.48977e-09
1.038e-06
-8.53831e-07
-1.03162e-06
8.59235e-07
-0.00116074
7.60738e-08
-1.81765e-09
-0.000253644
3.82598e-09
-2.10613e-07
5.87639e-10
-1.46135e-09
-3.26945e-08
0.000230186
-0.00023022
-0.000192694
3.40555e-09
-5.68602e-09
0.000192691
-0.000192725
-1.00903e-10
-0.000230189
2.13112e-09
3.70209e-08
-6.81793e-08
1.99904e-07
-3.28875e-09
0.000253625
-0.000253752
7.51954e-09
-1.30777e-06
1.55851e-09
9.44215e-07
-2.84376e-07
-9.4158e-07
2.80413e-07
1.31473e-06
-2.94302e-07
2.9219e-07
-0.00114681
-0.00116073
4.42835e-09
-1.03144e-06
8.58743e-07
-8.54105e-07
1.03822e-06
4.69365e-08
2.76537e-08
-1.12109e-07
-0.000246422
-2.10031e-08
9.15209e-09
1.03861e-06
-8.54092e-07
-1.03187e-06
8.59572e-07
-0.00116074
-4.64672e-08
-2.77211e-08
1.80054e-08
1.13643e-07
0.000246421
-0.000246478
7.58157e-08
-0.000253625
-2.07936e-07
4.59275e-09
-3.30109e-08
-1.52743e-09
0.000230144
-0.000230177
8.5772e-09
-0.000192585
3.21917e-09
-8.3591e-09
-6.02253e-09
0.000192582
-0.000192614
-0.000230147
3.69907e-08
2.4827e-09
-2.80546e-08
-9.70972e-05
-5.18796e-08
-0.0002777
1.14708e-08
2.49552e-08
-2.78434e-08
-5.34456e-08
-0.000277784
1.51634e-08
-8.34326e-09
-9.71013e-05
1.33371e-09
-7.08361e-08
2.05401e-07
-2.90074e-09
0.000253599
-0.000253732
-0.00116041
-1.19864e-08
3.68852e-09
-1.02904e-06
8.51784e-07
-8.51593e-07
1.03112e-06
4.64419e-08
-1.13537e-07
-0.000246431
-2.09409e-08
-1.38512e-08
2.1515e-09
1.03415e-06
-8.48727e-07
-1.02674e-06
8.55504e-07
-0.0011604
-1.32106e-08
-9.84308e-10
7.75095e-08
-0.000253598
-2.11895e-07
4.12585e-09
-7.08824e-08
2.055e-07
-3.75875e-09
0.000253625
-0.000253755
7.10469e-09
-1.2729e-06
-2.91644e-09
9.40142e-07
-2.85095e-07
-9.39669e-07
2.795e-07
1.28071e-06
-2.90998e-07
2.90255e-07
-0.00114785
-0.00116053
4.38749e-09
-1.02622e-06
8.5158e-07
-8.48944e-07
1.03099e-06
4.57449e-08
2.98073e-08
-1.1331e-07
-0.000246443
-2.23956e-08
3.50373e-09
1.03116e-06
-8.48895e-07
-1.02675e-06
8.52346e-07
-0.00116055
-4.744e-08
-2.56553e-08
1.6407e-08
1.16811e-07
0.000246443
-0.000246504
7.72278e-08
-0.000253624
-2.11639e-07
5.64525e-09
1.04305e-09
-1.68401e-09
-3.11172e-08
0.00023015
-0.000230189
-0.000192614
3.46662e-09
1.3718e-10
-0.000230152
2.23325e-09
3.43562e-08
-4.98464e-10
-3.12577e-08
0.000230199
-0.000230237
1.0203e-08
-0.000192664
1.4117e-09
-7.28425e-09
-7.44693e-09
0.000192663
-0.000192695
-0.000230202
2.62285e-09
3.41428e-08
0.000272776
-2.58483e-07
-2.64446e-07
-0.000274834
2.51037e-08
-5.42181e-08
-0.000277772
1.20711e-08
2.29101e-08
-5.03885e-08
-0.000277727
1.62995e-08
-2.34983e-08
-1.44112e-08
5.2394e-08
0.00027777
-0.000277812
-2.51934e-08
-1.15453e-08
5.12436e-08
0.000277726
-0.000277766
-9.70949e-05
9.7093e-05
-9.71249e-05
-9.71054e-05
9.71049e-05
-9.71374e-05
2.59306e-08
7.7481e-09
-9.71555e-05
2.34323e-08
8.83153e-09
-9.71461e-05
-3.86725e-08
4.85231e-08
0.000222542
-3.5962e-08
7.69164e-08
-0.000222592
-0.000252682
-1.02983e-08
2.33119e-08
-3.69901e-08
-1.83094e-08
5.71387e-08
2.87622e-08
-0.000277846
-0.000182328
-1.73954e-08
1.30446e-08
-1.87161e-08
-0.000182366
1.33633e-07
5.65808e-08
-0.000252766
-3.17287e-08
-2.30971e-08
-2.98506e-08
2.12455e-08
0.000222504
-1.88834e-08
5.34814e-08
-0.00022253
-0.000252626
8.02198e-08
-2.45012e-07
-5.99715e-08
-1.15292e-08
4.04911e-08
2.44518e-08
-0.000277795
-0.000182282
-5.5769e-08
2.23165e-08
-1.59115e-08
-0.000182307
7.4673e-08
4.34618e-08
-0.000252682
8.7646e-08
-1.18723e-07
-1.34259e-08
-1.45746e-08
0.000213352
-0.000213379
-8.00834e-05
-1.69921e-08
-8.00696e-05
-1.23863e-08
-8.01155e-05
-8.01001e-05
-0.00014235
-1.35373e-09
-3.48689e-08
0.000142382
4.22109e-09
1.20081e-09
0.000170016
-4.37607e-10
-0.00017005
-3.24538e-08
0.000223595
6.71424e-08
-0.000223629
-9.15253e-10
3.59919e-08
3.50034e-09
0.000230205
-4.4983e-10
-7.47349e-08
-0.00014238
-6.68618e-10
0.000170051
-5.15476e-10
0.00022363
-7.34811e-08
6.62558e-09
3.35154e-08
7.85431e-05
6.06855e-10
-7.85772e-05
-7.45264e-09
4.87937e-08
-0.000192677
-0.000262414
3.22322e-08
-6.39106e-09
-6.56367e-08
1.02328e-09
6.19807e-08
-0.000262451
-4.02737e-09
-1.06683e-09
3.22582e-08
0.000142351
-3.33006e-08
-7.6401e-10
-3.92372e-10
6.84136e-08
-0.000170017
1.25838e-09
-4.63079e-10
-0.000223594
3.50791e-08
-7.62595e-08
-4.6936e-10
6.89852e-08
-0.000142422
2.01668e-11
-3.27056e-08
2.87341e-09
0.000142452
-2.43978e-10
0.00017004
-0.000170074
-3.05762e-08
0.00022368
-2.34344e-09
7.02572e-08
-0.000223718
3.57986e-08
2.24438e-09
0.000230235
-7.43281e-08
-1.57209e-09
-0.000142451
0.000170075
5.25307e-09
0.000223719
-7.54125e-08
3.14971e-08
7.85842e-05
-7.86171e-05
1.47333e-09
-7.82695e-09
-0.000192693
-6.63385e-09
4.81482e-08
-0.000262509
3.01923e-08
-5.3521e-09
-6.48928e-08
-0.000262551
2.34446e-09
6.3134e-08
-2.91141e-09
-7.85842e-05
-3.00301e-08
-3.15399e-08
0.000262509
6.3421e-08
-0.000262551
1.76499e-09
9.90091e-09
-4.50278e-08
-7.86174e-05
-6.4576e-08
1.70349e-10
3.07029e-08
0.000142423
-3.35698e-08
-1.67263e-09
6.89045e-08
-0.000170041
3.34003e-11
-0.000223681
3.29011e-08
-7.57868e-08
7.00894e-08
-9.71392e-05
2.58491e-08
-2.25632e-08
-0.000213361
1.35534e-08
1.55762e-08
-2.98893e-08
-2.60351e-08
0.000213387
1.5208e-08
8.00702e-05
1.53471e-08
-8.01007e-05
1.32243e-08
8.00901e-05
1.72152e-08
-8.01205e-05
2.66774e-08
2.62102e-08
-0.000213385
-1.80081e-08
8.01018e-05
-1.60266e-08
8.01217e-05
3.54752e-08
-3.55584e-08
0.000222489
-0.00022253
-2.67704e-08
6.7602e-08
-0.00025259
3.69756e-08
-1.10223e-07
-5.01919e-08
5.16775e-08
-1.39334e-08
-0.000277764
2.55051e-08
-0.000182273
-3.53072e-08
1.80707e-08
-0.000252663
1.08788e-07
5.10385e-08
-0.000182307
-1.54352e-08
2.98653e-08
-6.9889e-08
-3.37897e-08
3.66324e-08
0.000222572
-0.000222617
-2.62211e-08
6.80134e-08
-0.00025275
3.55117e-08
-1.11122e-07
-4.39227e-08
-1.71199e-08
4.9692e-08
-0.000277918
-2.56927e-08
2.48239e-08
-0.000182355
-3.68791e-08
1.61807e-08
-0.000182389
-1.71535e-08
-0.000252817
1.07354e-07
4.6719e-08
2.59787e-08
-7.35969e-08
-3.66443e-08
-0.000222488
3.51921e-08
-6.98847e-08
3.55979e-08
0.000182272
-0.000182306
0.000252589
-3.57355e-08
5.12413e-08
1.08906e-07
-0.000252662
-5.01544e-08
1.85388e-08
-2.94455e-08
-5.00937e-08
-1.10186e-07
6.74366e-08
-0.000222529
-0.000222571
3.69328e-08
-3.53452e-08
-7.35738e-08
3.37919e-08
0.000182353
-0.000182387
-3.69857e-08
0.000252749
1.07425e-07
4.67368e-08
-0.000252816
1.51409e-08
-5.18722e-08
2.73047e-08
-2.48939e-08
6.8054e-08
-0.000222616
-1.11412e-07
-4.42132e-08
-1.51774e-08
-1.33131e-08
0.000213363
-8.00711e-05
-1.35522e-08
-8.00912e-05
-1.54785e-08
-9.71734e-05
8.17768e-09
-8.20217e-09
2.97242e-08
7.86003e-05
1.76547e-09
-7.86318e-05
-5.1029e-09
4.60377e-08
-0.000192705
-0.000262555
3.13677e-08
-4.70169e-09
-6.38193e-08
2.94567e-09
5.86646e-08
-0.000262592
-2.73384e-09
2.94248e-08
-2.83065e-10
0.000142425
-0.000142453
-1.51589e-09
-3.01021e-08
7.45256e-11
6.7039e-08
-0.000230225
-0.000223691
3.37519e-08
-7.45695e-08
-0.000170032
6.37303e-10
-6.81887e-11
6.59315e-08
-0.000223726
1.35087e-10
-0.000170063
3.21181e-08
7.85467e-05
1.69771e-09
-7.85805e-05
-5.3503e-09
-9.06959e-09
4.80829e-08
-0.000192641
-0.000262416
3.35822e-08
-4.6935e-09
-6.38954e-08
2.67035e-09
5.86059e-08
-0.00026245
-2.94996e-09
-3.79071e-10
3.12928e-08
0.000142353
-0.000142383
-3.00396e-08
-1.43204e-09
6.70968e-08
-0.000230187
-0.000169999
4.0648e-10
-0.000223595
3.58202e-08
-7.44981e-08
-0.00017003
6.56394e-08
-0.000223628
-0.000142416
-3.33745e-08
1.9403e-11
2.35539e-09
0.000142447
-3.01239e-08
0.000223684
-3.09043e-09
6.90842e-08
-0.000223721
-3.93436e-10
0.000170024
4.88681e-10
-0.000170057
2.28353e-09
3.66876e-08
0.000230222
4.83356e-11
-7.57088e-08
-2.26605e-09
-0.000142444
4.75396e-09
0.000223725
-7.6764e-08
0.000170061
4.24531e-10
3.01615e-08
7.85969e-05
-7.86291e-05
2.01666e-09
-5.95907e-09
-0.000192728
4.80718e-08
-0.000262561
3.12091e-08
-5.04194e-09
-6.65377e-08
-0.000262601
2.82114e-09
6.10832e-08
-2.58094e-09
-7.85956e-05
-3.11345e-08
-3.0226e-08
0.000262557
6.1309e-08
-0.000262597
3.70816e-09
-4.90751e-08
-7.86281e-05
-6.63518e-08
2.9815e-08
2.82133e-10
0.000142419
-1.73032e-09
-3.27142e-08
-1.3234e-11
6.76604e-08
-0.000223687
3.38786e-08
-7.72912e-08
-0.000170027
8.75444e-13
5.26771e-10
6.85969e-08
6.93445e-10
-0.000142324
-4.29597e-10
-3.34481e-08
2.82206e-09
0.000142355
1.82583e-10
0.00016998
-0.000170013
-3.01858e-08
0.000223566
-2.9411e-09
6.91946e-08
-0.000223604
3.65878e-08
2.74051e-09
0.000230181
-7.55997e-08
-1.8066e-09
-0.000142352
0.000170016
4.90961e-09
0.000223608
-7.67829e-08
3.04199e-08
7.85274e-05
-7.85595e-05
1.63697e-09
-6.28455e-09
-0.000192617
-8.13066e-09
4.63945e-08
-0.000262369
3.10893e-08
-5.23722e-09
-6.64058e-08
-0.000262409
2.59542e-09
6.14586e-08
-2.90707e-09
-7.85257e-05
-3.09185e-08
-3.05929e-08
0.000262365
6.1777e-08
-0.000262406
3.27194e-09
8.36426e-09
-4.68227e-08
-7.85581e-05
-6.62036e-08
-2.73813e-10
2.99525e-08
0.000142327
-3.28487e-08
-1.68189e-09
6.79304e-08
-0.000169984
5.84225e-10
-0.00022357
3.37538e-08
-7.71193e-08
6.8848e-08
2.51103e-08
-9.71313e-05
3.4656e-08
-3.56238e-08
0.000222467
-2.64455e-08
6.84017e-08
-0.000222508
-0.00025255
3.28855e-08
-1.10837e-07
-4.91867e-08
4.99255e-08
-1.49807e-08
2.79057e-08
-0.000277738
-0.00018226
-3.87438e-08
1.62509e-08
1.08207e-07
5.19789e-08
-0.000252625
-1.73339e-08
-0.000182293
2.6244e-08
-7.34632e-08
-3.67736e-08
3.60493e-08
0.000222543
-2.7412e-08
6.50135e-08
-0.00022258
-0.000252703
3.60622e-08
-1.07513e-07
-4.72496e-08
-1.59172e-08
5.30378e-08
-2.3829e-08
2.70627e-08
-0.000277824
-0.000182313
-3.81274e-08
1.67179e-08
-1.65137e-08
-0.000182349
1.06317e-07
4.8554e-08
-0.000252769
2.89725e-08
-6.78702e-08
-1.37679e-08
-1.45278e-08
0.000213333
-0.000213358
-8.00589e-05
-1.49968e-08
-8.0076e-05
-1.44408e-08
-8.009e-05
-8.01071e-05
8.26957e-09
-9.71334e-05
-0.000142351
-3.28627e-08
-3.07106e-10
3.001e-09
0.000142381
-3.04585e-08
0.000223584
6.95957e-08
-0.000223623
-2.57474e-09
-1.03565e-10
0.000170006
6.34478e-10
-0.000170038
2.60161e-09
3.41369e-08
0.00023019
6.32849e-10
-7.74993e-08
-0.00014238
-1.51144e-09
4.88131e-09
0.000223628
-7.84174e-08
0.00017004
4.14306e-10
3.06491e-08
7.85463e-05
-7.85784e-05
1.45821e-09
-6.20101e-09
4.69309e-08
-0.000192647
-0.000262409
3.08631e-08
-4.95672e-09
-6.32707e-08
-0.000262449
2.73541e-09
6.21694e-08
-2.96595e-09
-3.05085e-08
-7.85449e-05
-6.53156e-08
-0.000262406
-3.35227e-09
3.03709e-08
-9.88054e-11
0.000142353
-1.82204e-09
-3.10856e-08
5.12591e-10
7.08333e-08
-0.000223587
3.32528e-08
-7.63606e-08
-0.000170008
3.03937e-10
2.33861e-10
7.19039e-08
4.62074e-10
-0.000142437
-3.45249e-08
-8.37047e-10
3.43453e-09
0.000142469
-3.27903e-08
0.000223697
-1.62671e-09
6.97449e-08
-0.000223733
9.41925e-10
0.000170052
-0.000170084
3.06213e-09
3.38448e-08
0.00023024
-7.71895e-08
-1.20549e-09
-0.000142467
5.6655e-09
0.000223736
-7.52832e-08
0.000170086
3.35613e-08
7.85971e-05
-7.86321e-05
1.44416e-09
-7.8869e-09
-0.000192697
-6.85126e-09
4.7584e-08
-0.000262545
3.2524e-08
-5.82127e-09
-6.26138e-08
-0.000262581
1.68115e-09
6.02005e-08
-3.121e-09
-7.85965e-05
-3.21187e-08
-3.3761e-08
0.000262544
6.03874e-08
-0.000262579
1.60707e-09
9.68395e-09
-4.57147e-08
-7.86315e-05
-6.24844e-08
3.27391e-08
-5.72059e-10
0.000142438
-8.08943e-10
-3.13568e-08
7.11414e-08
-0.000223699
3.49524e-08
-7.56813e-08
-0.000170054
4.30291e-10
6.97464e-08
-0.000213324
1.59076e-08
1.32305e-08
-2.55827e-08
-3.02247e-08
0.000213351
1.28571e-08
8.00712e-05
1.75743e-08
-8.01016e-05
1.5519e-08
8.00603e-05
1.51307e-08
-8.0091e-05
2.6598e-08
2.63732e-08
-0.000213349
-1.57959e-08
8.01029e-05
-1.83176e-08
8.00919e-05
3.46779e-08
-3.55345e-08
0.000222533
-0.000222571
-2.67708e-08
6.58399e-08
-0.000252691
3.26283e-08
-1.06325e-07
-4.59954e-08
5.22655e-08
-1.42169e-08
-0.000277814
-2.35395e-08
2.76064e-08
-0.000182304
-3.86869e-08
1.59237e-08
-0.000252759
1.05112e-07
4.98679e-08
-0.000182337
-1.75319e-08
2.53927e-08
-7.13487e-08
3.24277e-08
-3.52709e-08
0.000222472
-0.00022251
-2.63121e-08
6.76193e-08
-0.000252594
3.5069e-08
-1.10089e-07
-4.78241e-08
5.13592e-08
-1.12801e-08
-0.000277767
-2.54624e-08
2.55275e-08
-0.000182264
-3.49693e-08
1.84977e-08
-0.000252667
1.08665e-07
4.80433e-08
-0.000182296
-1.50285e-08
3.01939e-08
-6.98947e-08
-0.000222531
-3.2575e-08
3.87951e-08
-7.12016e-08
3.54954e-08
0.000182302
-0.000182334
-3.4786e-08
0.00025269
4.96872e-08
1.05214e-07
-0.000252758
-5.43301e-08
1.19188e-08
2.51707e-08
-2.73441e-08
6.59452e-08
-0.00022257
-4.64082e-08
-1.09046e-07
-0.000222471
-3.47943e-08
3.51798e-08
-7.00015e-08
3.51451e-08
0.000182263
-0.000182295
-3.27599e-08
0.000252594
4.80145e-08
1.08539e-07
-0.000252666
-5.05499e-08
1.58647e-08
2.31467e-08
-2.95292e-08
6.75977e-08
-0.00022251
-4.81945e-08
-1.10281e-07
-1.29291e-08
-1.5631e-08
0.000213327
-8.00724e-05
-1.57983e-08
-8.00612e-05
-1.30896e-08
-9.71265e-05
-9.71377e-05
1.36415e-07
1.08327e-07
0.000245105
-0.000245219
-2.53429e-07
-2.63107e-07
-0.000274844
-0.000264372
4.88317e-08
-0.000264719
2.06264e-07
-0.000264661
-0.000265085
1.26138e-07
1.24229e-07
0.000245115
-0.00024523
-2.58968e-07
-2.63189e-07
-0.00027486
-0.000264744
1.31314e-07
-0.000264376
1.27669e-07
-0.000265068
-0.0002647
1.24416e-07
1.23281e-07
0.000245077
-0.000245191
-2.58486e-07
-2.64144e-07
-0.000274809
-0.000264695
1.28198e-07
-0.000264337
1.28797e-07
-0.000265021
-0.000264662
1.24519e-07
1.23634e-07
0.000245087
-0.000245202
-2.58276e-07
-2.64446e-07
-0.000274833
-0.000264326
1.2742e-07
-0.000264753
1.28896e-07
-0.000264649
-0.000265079
-0.00118946
-1.22224e-10
-1.88457e-09
6.1413e-09
7.57553e-09
-0.00118992
6.82322e-09
-2.28491e-09
-0.00118946
-8.24313e-10
0.00120245
-1.87541e-08
-1.44453e-09
-0.0012024
-1.82526e-08
-7.79288e-09
1.07767e-09
-2.62565e-09
-3.385e-09
-0.00117691
-0.0011895
-4.16222e-10
-0.00119
7.01629e-09
-1.0895e-09
-1.35405e-10
-0.0011895
7.57503e-09
2.61705e-10
-0.00119
0.00120249
-6.27067e-10
-0.0012025
-5.94371e-10
2.33375e-08
-0.0011891
-0.00118952
-1.68094e-10
-2.62493e-08
1.22742e-10
-1.21071e-07
-0.00118929
-1.06117e-07
0.00120179
-1.25894e-07
-0.00120155
-1.10933e-07
-2.63128e-08
-2.63895e-09
1.58071e-08
-0.00117676
-0.00118918
1.34305e-08
-0.00118962
8.95946e-10
2.56141e-08
-0.0011892
1.44606e-09
-0.00118972
0.0012019
-0.001202
-0.000270127
2.25744e-07
-3.4527e-09
0.000270932
1.08187e-08
2.17036e-07
0.000252362
-0.000252506
-8.37903e-09
-2.52507e-09
0.000270731
5.28898e-09
-0.000271385
4.97078e-09
-2.10126e-07
0.000253737
-5.73306e-11
-0.000270934
-1.25719e-08
0.000252507
1.17245e-08
0.00027138
-1.57443e-09
-2.66052e-08
-2.03177e-07
0.000268036
1.55697e-08
-0.000268768
-0.000263402
-2.06078e-08
1.2099e-07
1.9369e-08
-0.000246508
-0.000252704
-1.99299e-07
-1.17827e-08
-0.000263547
8.9316e-09
-0.000252835
-1.10031e-08
-2.19493e-07
5.92399e-09
0.000270124
-4.625e-09
2.0241e-07
1.7111e-10
-0.000252361
-2.22727e-07
-0.000270727
1.05478e-09
-4.46055e-09
2.62637e-09
-0.000270163
2.25327e-07
-3.61527e-09
1.19546e-08
0.00027097
2.17489e-07
0.000252416
-8.17447e-09
-0.000252558
-2.36148e-09
0.000270758
-0.000271401
5.01426e-09
-2.09685e-07
0.000253766
-1.17784e-08
-0.000270971
1.20251e-08
0.000252559
0.000271405
-1.98824e-07
-2.35913e-08
0.000268077
-0.000268811
1.17075e-08
-0.000263414
-2.35688e-08
1.64709e-08
1.17434e-07
-0.000246507
-0.000252755
-2.01538e-07
-1.21747e-08
-0.000252882
8.38798e-09
-0.000263554
-1.21193e-08
-0.000268079
2.01739e-07
2.36524e-08
1.98614e-07
0.000252755
-0.000252882
2.36333e-08
0.000263414
-0.000263554
-2.22171e-08
-1.12787e-07
-0.000268813
-2.17718e-07
3.05511e-09
0.000270162
-3.76663e-09
2.03011e-07
-0.000252416
-2.25021e-07
-0.000270757
3.46365e-09
-1.31092e-07
-0.000245115
-1.27365e-07
2.66295e-07
2.71978e-07
0.000264744
-1.26396e-07
-0.000265068
-1.24526e-07
0.000264377
-0.0002647
-0.00024523
-2.36812e-08
-1.94722e-07
0.000268094
2.20054e-08
-0.00026883
-0.000263442
-2.8708e-08
1.08011e-07
1.73859e-08
-0.00024652
-0.000252767
-2.07376e-07
-1.14771e-08
-0.000263582
8.76078e-09
-0.000252895
-1.95182e-08
-2.16841e-07
6.80527e-09
0.000270163
-0.00027096
-4.57129e-09
2.04711e-07
5.16112e-10
-0.000253762
-0.000252415
-2.28273e-07
-0.000270758
3.48366e-09
-6.63987e-09
-0.000252562
4.68332e-09
-0.000271403
-1.9757e-07
-2.66869e-08
0.000268014
9.10228e-09
-0.00026874
-0.000263348
-2.55522e-08
2.04951e-08
1.10892e-07
-0.000246442
-0.000252678
-2.02159e-07
-1.11335e-08
8.95109e-09
-0.000252805
-0.000263497
-8.99261e-09
2.51625e-09
-2.16615e-07
0.000270104
-0.000270912
2.02144e-07
-3.60698e-09
-0.000253735
-0.000270744
2.43703e-09
-0.000252337
-2.25698e-07
-0.000271386
-0.000252483
-0.000270175
2.28916e-07
-6.48059e-09
2.2049e-08
0.000270969
2.19192e-07
0.000252434
-1.11335e-08
-0.000252575
-3.12476e-09
0.000270767
6.20327e-09
-0.000271422
5.3382e-09
-2.10736e-07
0.000253774
-3.34714e-10
-2.22283e-08
-0.000270969
1.39399e-08
0.000252577
0.000271413
-3.82921e-09
-2.6792e-08
-1.99342e-07
0.000268102
-0.000268836
2.24135e-08
-0.000263468
-2.54381e-08
1.15233e-07
1.77005e-08
-0.000246573
-0.000252794
-2.05235e-07
-1.40483e-08
-0.000263614
-0.000252926
1.13917e-08
-2.19122e-08
-0.000268104
2.57925e-08
2.05547e-07
1.99062e-07
0.000252794
-0.000252925
2.6667e-08
0.000263469
-0.000263615
-1.14104e-07
-2.0814e-08
-0.000268839
-2.18934e-07
6.32111e-09
0.000270173
-4.50492e-09
2.02126e-07
3.19312e-10
-0.000252434
-2.28766e-07
-0.000270764
3.39881e-09
-6.71794e-09
3.64192e-09
-0.000270153
-2.68089e-09
2.26729e-07
8.94904e-09
0.000270958
-2.50899e-09
0.000270768
-0.000271414
2.16696e-07
0.000252365
-8.82695e-09
-0.000252507
-2.08392e-07
5.01038e-09
0.000253752
-9.35436e-09
-0.000270961
0.000271413
1.15399e-08
0.000252508
-1.97357e-07
-2.46446e-08
0.00026806
-0.000268789
9.61598e-09
-0.000263407
-2.26195e-08
1.8003e-08
1.13422e-07
-0.00024648
-0.000252702
-2.03008e-07
-1.17765e-08
-0.000252829
8.93077e-09
-0.000263553
-8.82333e-09
-0.000268062
2.03274e-07
2.29289e-08
1.97219e-07
0.000252701
-0.000252828
2.43317e-08
0.000263408
-0.000263553
-2.08798e-08
-1.11824e-07
-0.000268791
2.94275e-09
-2.16673e-07
0.00027015
1.99558e-07
-3.6992e-09
-0.000270765
2.513e-09
-0.000252366
-2.26395e-07
-0.000270118
-5.99266e-09
2.2773e-07
2.48976e-08
0.000270906
-2.55149e-09
0.000270724
2.30101e-09
-0.000271367
2.20015e-07
0.000252349
-0.000252491
-1.11963e-08
-2.09744e-07
5.21537e-09
0.000253725
2.07023e-10
-0.000270903
-2.45164e-08
0.000271365
-1.50225e-09
1.37603e-08
0.00025249
-2.62374e-08
-2.00839e-07
0.000268047
-0.000268784
2.4596e-08
-0.000263416
-2.60554e-08
1.1678e-07
1.77015e-08
-0.000246491
-0.000252698
-2.04304e-07
-1.15637e-08
-0.000263562
-0.000252831
1.14145e-08
-1.9695e-08
2.04409e-07
-9.39855e-07
-0.00026805
2.65144e-08
-0.000252699
2.11475e-08
6.09986e-09
-2.20153e-07
0.000270116
2.02805e-07
-4.78606e-09
1.59816e-10
-0.000270722
3.43029e-09
-3.9704e-09
-0.000252348
-2.27675e-07
5.71322e-10
-0.000270141
-5.35626e-09
2.27263e-07
2.5371e-08
0.000270925
-5.59456e-09
0.000270739
-0.000271374
2.19935e-07
0.000252408
-1.04383e-08
-0.000252552
-2.09322e-07
5.44282e-09
0.000253752
-2.43145e-08
-0.00027093
0.000271375
1.46095e-08
0.000252551
-2.00937e-07
-2.31559e-08
0.000268076
-0.000268815
2.42585e-08
-0.000263426
-2.39266e-08
1.64818e-08
1.17029e-07
-0.000246504
-0.000252753
-2.0407e-07
-1.50012e-08
-0.000252888
1.04345e-08
-0.00026357
-2.53953e-08
-0.000268078
2.04301e-07
2.43184e-08
2.0074e-07
0.000252754
-0.000252888
2.2809e-08
0.000263427
-0.00026357
-2.22661e-08
-1.13267e-07
-0.000268819
5.33893e-09
-2.20064e-07
0.000270138
2.02933e-07
-3.45376e-09
-0.000270735
5.41821e-09
-0.000252408
-2.27294e-07
-0.000245087
-1.27248e-07
-1.2863e-07
2.66857e-07
2.71588e-07
-1.24804e-07
0.000264326
-0.000264649
-1.24068e-07
0.000264757
-0.000265079
-0.000245203
-8.39269e-07
-8.38755e-07
-0.00114599
4.41247e-07
4.47746e-07
0.00114678
-0.00113696
-1.5109e-06
8.37965e-07
4.15482e-07
0.00113746
-5.10764e-07
1.12373e-06
1.40926e-07
7.40336e-07
-5.57728e-07
-1.24514e-06
7.38052e-08
-0.00113661
-1.5052e-06
8.37953e-07
4.1474e-07
0.0011371
-5.07828e-07
1.11825e-06
1.38037e-07
7.40164e-07
-5.60644e-07
-1.24512e-06
7.71652e-08
-0.000276456
1.5395e-06
1.50505e-06
-4.88571e-07
-4.94423e-07
0.000274394
-1.15936e-06
-1.11926e-06
0.00027647
-0.000274366
8.37979e-08
9.12046e-08
0.00113613
8.42408e-07
-0.00113563
4.19099e-07
-1.54959e-06
1.4529e-07
-5.18931e-07
-1.25176e-06
6.80769e-08
-5.59002e-07
7.41119e-07
1.16546e-06
0.0011366
8.42958e-07
-0.00113609
4.17506e-07
-1.55503e-06
1.48427e-07
-5.21616e-07
-1.2578e-06
7.45425e-08
-5.64971e-07
7.46408e-07
-1.1221e-06
0.000276499
-0.00027439
8.62806e-08
9.18525e-08
0.00113725
8.43837e-07
-0.00113674
4.18161e-07
-1.50998e-06
1.39173e-07
-5.13758e-07
-1.25458e-06
7.47465e-08
-5.64619e-07
7.41083e-07
1.1571e-06
0.00113625
8.47737e-07
-0.00113576
4.17388e-07
-1.54686e-06
1.4543e-07
-5.18863e-07
-1.2518e-06
7.47498e-08
-5.64314e-07
7.4101e-07
8.47999e-07
-0.00113646
4.17592e-07
-1.51253e-06
1.39305e-07
-5.13519e-07
-1.25143e-06
7.17195e-08
7.38502e-07
-5.61388e-07
1.15173e-06
0.00113605
8.47286e-07
-0.00113555
4.17361e-07
-1.54113e-06
1.39516e-07
-5.13136e-07
-1.25158e-06
7.17039e-08
-5.64183e-07
7.41175e-07
-1.11665e-06
0.000276447
-0.000274351
8.63091e-08
9.18496e-08
8.42254e-07
-0.00113611
4.28169e-07
-1.50682e-06
1.36539e-07
-5.10469e-07
-1.24862e-06
7.50909e-08
7.38321e-07
-5.64288e-07
1.11435e-06
0.00113715
8.41923e-07
-0.00113665
4.22e-07
-1.50938e-06
1.36756e-07
-5.13071e-07
-1.2461e-06
7.17935e-08
-5.61444e-07
7.35927e-07
-0.000274368
8.66604e-08
9.19508e-08
1.54802e-06
1.50827e-06
-4.86519e-07
-4.94535e-07
0.000274395
-1.15502e-06
-1.13893e-06
-0.000274463
1.2945e-07
6.43684e-08
0.000276563
4.16527e-07
0.00113662
-5.16393e-07
1.16098e-06
1.46887e-07
7.42778e-07
-5.55413e-07
-1.24819e-06
6.99939e-08
-1.55342e-06
8.3879e-07
4.15289e-07
0.00113709
-5.18816e-07
1.16709e-06
1.50051e-07
7.48336e-07
-5.61315e-07
-1.25413e-06
7.65851e-08
7.94863e-07
-0.00113758
4.14904e-07
-1.54557e-06
1.36367e-07
-5.17494e-07
-1.2424e-06
4.58085e-08
-5.63102e-07
7.40632e-07
0.00113816
1.17171e-06
8.24827e-07
-0.00113803
4.08232e-07
-1.54829e-06
1.54703e-07
-5.10895e-07
-1.24065e-06
8.26853e-08
-5.50502e-07
7.51212e-07
0.00113849
-4.89541e-07
-4.93912e-07
0.000274418
-1.12836e-06
-0.000274479
9.61144e-08
1.01683e-07
0.000276581
4.20545e-07
0.00113773
-5.11014e-07
1.12098e-06
1.41012e-07
7.4566e-07
-5.60965e-07
-1.24823e-06
7.68906e-08
-1.54523e-06
8.38106e-07
4.15279e-07
0.00113675
-5.16155e-07
1.15874e-06
1.47063e-07
7.42769e-07
-5.60756e-07
-1.24832e-06
7.67805e-08
8.34908e-07
-0.00113866
4.3821e-07
-1.49218e-06
1.59994e-07
-4.92528e-07
-1.22949e-06
1.17044e-07
-5.34411e-07
7.5376e-07
0.00113897
1.16337e-06
8.24167e-07
-0.00113769
4.02876e-07
-1.54012e-06
1.5175e-07
-5.08186e-07
-1.23746e-06
8.28052e-08
-5.50099e-07
7.48393e-07
0.00113816
8.37516e-07
4.1515e-07
0.00113654
-5.10299e-07
1.15334e-06
1.41199e-07
7.43093e-07
-5.57832e-07
7.37114e-08
-1.24805e-06
8.2413e-07
-0.00113841
4.08528e-07
-1.50573e-06
1.45733e-07
-5.02852e-07
-1.23423e-06
7.99601e-08
-5.47026e-07
7.4584e-07
0.00113886
1.15806e-06
8.23488e-07
-0.00113749
4.0822e-07
-1.53432e-06
1.4591e-07
-5.02471e-07
-1.23442e-06
7.99114e-08
-5.47115e-07
7.45811e-07
0.00113794
-4.89258e-07
-4.94088e-07
0.00027438
-1.12283e-06
-0.00027444
9.34228e-08
1.01636e-07
0.000276532
8.37649e-07
4.19804e-07
0.00113764
-5.07611e-07
1.11874e-06
1.38466e-07
7.37815e-07
-5.57878e-07
7.38994e-08
-1.24255e-06
8.23986e-07
-0.00113805
4.08248e-07
-1.50006e-06
1.42838e-07
-4.99803e-07
-1.2343e-06
8.32893e-08
-5.49902e-07
7.45705e-07
0.0011385
1.12341e-06
8.23657e-07
-0.00113859
4.07192e-07
-1.49987e-06
1.43192e-07
-4.99667e-07
-1.23168e-06
8.01108e-08
-5.47091e-07
7.4339e-07
0.00113905
-0.000274455
9.65378e-08
1.0183e-07
0.000276538
-0.00114519
4.42897e-07
4.43872e-07
0.001146
-0.00114519
4.42034e-07
4.43766e-07
0.0011456
-0.00114482
4.41856e-07
4.65578e-07
0.00114581
-0.00114502
4.41549e-07
4.59312e-07
2.9937e-10
6.24954e-08
0.000235849
-0.000235906
-3.45562e-10
-5.6093e-09
-0.000196889
-5.99587e-09
1.33201e-07
-1.59038e-08
0.000196777
-0.000236251
4.15957e-10
2.39924e-07
0.000236107
-8.55435e-08
-1.02144e-08
1.29092e-08
1.3441e-08
0.000196617
-1.93694e-09
-0.000196642
-9.8944e-05
5.79835e-09
5.97649e-08
9.88784e-05
-1.3088e-08
1.62476e-09
9.8836e-05
-9.88246e-05
5.98969e-08
-4.46656e-11
0.000235882
-0.000235934
-5.42078e-09
-2.40246e-09
-0.000196917
-5.91645e-09
1.31148e-07
-1.59539e-08
0.000196807
-0.000236281
2.39969e-07
5.44106e-10
0.000236135
-1.04464e-08
-8.35117e-08
1.29058e-08
1.54061e-08
0.000196646
-1.87435e-09
-0.000196672
4.40237e-07
4.42059e-07
0.00114679
4.40092e-07
4.41608e-07
0.0011464
4.39849e-07
4.40931e-07
0.0011466
-0.00114835
4.36705e-07
4.65138e-07
0.00114907
-0.00114837
4.34924e-07
4.36722e-07
0.00114915
-0.00114797
4.29269e-07
4.36217e-07
0.00114875
-0.00114818
4.34563e-07
4.35449e-07
0.00114896
-6.23871e-08
-1.46563e-09
0.000260056
-0.000259993
-1.81361e-08
1.94786e-08
-0.000252842
-6.19964e-08
-1.33002e-07
3.07518e-07
6.35429e-08
0.000252666
0.00113889
-0.00113821
4.05707e-09
8.994e-07
7.92779e-07
-1.1945e-06
-1.36378e-06
5.95978e-07
4.13184e-07
1.12529e-06
0.00113794
8.33238e-07
-1.24153e-06
7.59004e-08