/*--------------------------------*- C++ -*----------------------------------*\
| =========                 |                                                 |
| \\      /  F ield         | OpenFOAM: The Open Source CFD Toolbox           |
|  \\    /   O peration     | Version:  v1906                                 |
|   \\  /    A nd           | Web:      www.OpenFOAM.com                      |
|    \\/     M anipulation  |                                                 |
\*---------------------------------------------------------------------------*/
FoamFile
{
    version     2.0;
    format      ascii;
    class       volScalarField;
    location    "250";
    object      epsilon;
}
// * * * * * * * * * * * * * * * * * * * * * * * * * * * * * * * * * * * * * //

dimensions      [0 2 -3 0 0 0 0];


internalField   nonuniform List<scalar> 
42616
(
5.39908e-07
1.09604e-06
1.09612e-06
1.39555e-06
5.39939e-07
1.09607e-06
1.09616e-06
1.39564e-06
5.3996e-07
1.09608e-06
1.09617e-06
1.39559e-06
5.39969e-07
1.09608e-06
1.09617e-06
1.39556e-06
5.39965e-07
1.09606e-06
1.09615e-06
1.39552e-06
5.39955e-07
1.09601e-06
1.09609e-06
1.39545e-06
5.39988e-07
1.09604e-06
1.09612e-06
1.3955e-06
5.40045e-07
1.09612e-06
1.09621e-06
1.39564e-06
5.40073e-07
1.09616e-06
1.09625e-06
1.39564e-06
5.40075e-07
1.09617e-06
1.09626e-06
1.39558e-06
5.40074e-07
1.09617e-06
1.09626e-06
1.39559e-06
5.4007e-07
1.09617e-06
1.09626e-06
1.3957e-06
5.40063e-07
1.09616e-06
1.09625e-06
1.39572e-06
5.40059e-07
1.09616e-06
1.09624e-06
1.39571e-06
5.40057e-07
1.09616e-06
1.09625e-06
1.39568e-06
5.40058e-07
1.09617e-06
1.09626e-06
1.39565e-06
5.40063e-07
1.09618e-06
1.09627e-06
1.3956e-06
5.40073e-07
1.09621e-06
1.0963e-06
1.39556e-06
5.40073e-07
1.09624e-06
1.09633e-06
1.39555e-06
5.39602e-07
1.09593e-06
1.09601e-06
1.39525e-06
5.19154e-07
1.03582e-06
1.03581e-06
1.34567e-06
1.39332e-06
1.09615e-06
1.0962e-06
1.39327e-06
1.09604e-06
1.09624e-06
1.09603e-06
1.09624e-06
1.39337e-06
1.09612e-06
1.09614e-06
1.39342e-06
1.39545e-06
1.39342e-06
1.09615e-06
1.0962e-06
1.09619e-06
1.09624e-06
1.3954e-06
1.39336e-06
1.09604e-06
1.09625e-06
1.09608e-06
1.09628e-06
1.09625e-06
1.09607e-06
1.09628e-06
1.3955e-06
1.39346e-06
1.09614e-06
1.09616e-06
1.09617e-06
1.3935e-06
1.39555e-06
1.39335e-06
1.0962e-06
1.09624e-06
1.0962e-06
1.09624e-06
1.3955e-06
1.39328e-06
1.09609e-06
1.09628e-06
1.09609e-06
1.09629e-06
1.09628e-06
1.09607e-06
1.09628e-06
1.3956e-06
1.3934e-06
1.09617e-06
1.09616e-06
1.09617e-06
1.39342e-06
1.39552e-06
1.39335e-06
1.09621e-06
1.09625e-06
1.09621e-06
1.09625e-06
1.39545e-06
1.39328e-06
1.0961e-06
1.0963e-06
1.0961e-06
1.0963e-06
1.09629e-06
1.09608e-06
1.0963e-06
1.39556e-06
1.3934e-06
1.09618e-06
1.09617e-06
1.09619e-06
1.39344e-06
1.39547e-06
1.39334e-06
1.09621e-06
1.09625e-06
1.09619e-06
1.09623e-06
1.3954e-06
1.39328e-06
1.0961e-06
1.0963e-06
1.09608e-06
1.09628e-06
1.09629e-06
1.09606e-06
1.09628e-06
1.39551e-06
1.39339e-06
1.09619e-06
1.09616e-06
1.09617e-06
1.39343e-06
1.39542e-06
1.39323e-06
1.09617e-06
1.09622e-06
1.09613e-06
1.09618e-06
1.39537e-06
1.39319e-06
1.09607e-06
1.09627e-06
1.09602e-06
1.09622e-06
1.09627e-06
1.09601e-06
1.09622e-06
1.39547e-06
1.39329e-06
1.09616e-06
1.0961e-06
1.09611e-06
1.39333e-06
1.39534e-06
1.39324e-06
1.09612e-06
1.09617e-06
1.09614e-06
1.09618e-06
1.3953e-06
1.39319e-06
1.09601e-06
1.09621e-06
1.09603e-06
1.09622e-06
1.09622e-06
1.09602e-06
1.09623e-06
1.39539e-06
1.39328e-06
1.09611e-06
1.0961e-06
1.09612e-06
1.39332e-06
1.39542e-06
1.39333e-06
1.09616e-06
1.0962e-06
1.09622e-06
1.09626e-06
1.39537e-06
1.39327e-06
1.09605e-06
1.09624e-06
1.09611e-06
1.0963e-06
1.09625e-06
1.0961e-06
1.09631e-06
1.39546e-06
1.39338e-06
1.09614e-06
1.09618e-06
1.0962e-06
1.39343e-06
1.39554e-06
1.39337e-06
1.09625e-06
1.09629e-06
1.09628e-06
1.09632e-06
1.39549e-06
1.39331e-06
1.09614e-06
1.09633e-06
1.09617e-06
1.09636e-06
1.09634e-06
1.09615e-06
1.09636e-06
1.39559e-06
1.39341e-06
1.09623e-06
1.09624e-06
1.09625e-06
1.39345e-06
1.39555e-06
1.39334e-06
1.09628e-06
1.09632e-06
1.09628e-06
1.09633e-06
1.39549e-06
1.39329e-06
1.09617e-06
1.09637e-06
1.09617e-06
1.09637e-06
1.09637e-06
1.09616e-06
1.09637e-06
1.39559e-06
1.3934e-06
1.09626e-06
1.09625e-06
1.09626e-06
1.39344e-06
1.39548e-06
1.39344e-06
1.09629e-06
1.09633e-06
1.09629e-06
1.09633e-06
1.39544e-06
1.39337e-06
1.09618e-06
1.09638e-06
1.09618e-06
1.09638e-06
1.09638e-06
1.09616e-06
1.09638e-06
1.39553e-06
1.39348e-06
1.09627e-06
1.09625e-06
1.09627e-06
1.39352e-06
1.3955e-06
1.39354e-06
1.09629e-06
1.09634e-06
1.09628e-06
1.09633e-06
1.39545e-06
1.39347e-06
1.09618e-06
1.09638e-06
1.09618e-06
1.09638e-06
1.09638e-06
1.09616e-06
1.09638e-06
1.39555e-06
1.39358e-06
1.09627e-06
1.09625e-06
1.09627e-06
1.39363e-06
1.3956e-06
1.39351e-06
1.09629e-06
1.09633e-06
1.09627e-06
1.09631e-06
1.39553e-06
1.39346e-06
1.09618e-06
1.09638e-06
1.09616e-06
1.09636e-06
1.09638e-06
1.09615e-06
1.09636e-06
1.39564e-06
1.39356e-06
1.09627e-06
1.09623e-06
1.09624e-06
1.39359e-06
1.39562e-06
1.39347e-06
1.09627e-06
1.09632e-06
1.09626e-06
1.0963e-06
1.39557e-06
1.39342e-06
1.09617e-06
1.09636e-06
1.09615e-06
1.09635e-06
1.09637e-06
1.09614e-06
1.09635e-06
1.39567e-06
1.39351e-06
1.09625e-06
1.09622e-06
1.09624e-06
1.39356e-06
1.39562e-06
1.39343e-06
1.09627e-06
1.09632e-06
1.09625e-06
1.0963e-06
1.39556e-06
1.39339e-06
1.09616e-06
1.09636e-06
1.09614e-06
1.09634e-06
1.09637e-06
1.09613e-06
1.09634e-06
1.39566e-06
1.39349e-06
1.09625e-06
1.09622e-06
1.09623e-06
1.39349e-06
1.39561e-06
1.39339e-06
1.09628e-06
1.09632e-06
1.09624e-06
1.09629e-06
1.39557e-06
1.39332e-06
1.09617e-06
1.09637e-06
1.09613e-06
1.09633e-06
1.09637e-06
1.09612e-06
1.09634e-06
1.39565e-06
1.39344e-06
1.09626e-06
1.09621e-06
1.09622e-06
1.39346e-06
1.39559e-06
1.39332e-06
1.09629e-06
1.09633e-06
1.09624e-06
1.09628e-06
1.39555e-06
1.39325e-06
1.09618e-06
1.09638e-06
1.09613e-06
1.09633e-06
1.09638e-06
1.09612e-06
1.09633e-06
1.39564e-06
1.39339e-06
1.09626e-06
1.09621e-06
1.09622e-06
1.39341e-06
1.39553e-06
1.3933e-06
1.0963e-06
1.09635e-06
1.09623e-06
1.09628e-06
1.39546e-06
1.39327e-06
1.09619e-06
1.09639e-06
1.09613e-06
1.09633e-06
1.0964e-06
1.09611e-06
1.09633e-06
1.39558e-06
1.39337e-06
1.09628e-06
1.0962e-06
1.09621e-06
1.39342e-06
1.39546e-06
1.39336e-06
1.09633e-06
1.09638e-06
1.09622e-06
1.09626e-06
1.39543e-06
1.3933e-06
1.09622e-06
1.09642e-06
1.09611e-06
1.09632e-06
1.09642e-06
1.0961e-06
1.09631e-06
1.39554e-06
1.39338e-06
1.09631e-06
1.09619e-06
1.0962e-06
1.39347e-06
1.39545e-06
1.39318e-06
1.09636e-06
1.0964e-06
1.09579e-06
1.09583e-06
1.39541e-06
1.39313e-06
1.09625e-06
1.09645e-06
1.09568e-06
1.09587e-06
1.09645e-06
1.09567e-06
1.09588e-06
1.39548e-06
1.3932e-06
1.09633e-06
1.09574e-06
1.09576e-06
1.39328e-06
1.39516e-06
1.37096e-06
1.09605e-06
1.09609e-06
1.07209e-06
1.07213e-06
1.39512e-06
1.37094e-06
1.09594e-06
1.09614e-06
1.07205e-06
1.07209e-06
1.09614e-06
1.07209e-06
1.07215e-06
1.39517e-06
1.37098e-06
1.09601e-06
1.07209e-06
1.0721e-06
1.37101e-06
1.34561e-06
1.03577e-06
1.03581e-06
1.34562e-06
1.03576e-06
1.03577e-06
5.19182e-07
5.19153e-07
5.19196e-07
1.03583e-06
1.34563e-06
1.03581e-06
5.39901e-07
5.399e-07
5.39997e-07
5.39999e-07
4.35881e-06
9.77704e-06
4.35895e-06
9.77736e-06
1.94428e-05
1.94443e-05
4.35899e-06
9.77911e-06
4.35906e-06
9.77945e-06
5.39904e-07
5.40001e-07
5.40001e-07
5.39931e-07
5.39928e-07
5.40025e-07
5.40026e-07
2.33677e-06
3.75284e-06
8.03726e-07
1.09604e-06
2.33709e-06
3.75246e-06
8.03729e-07
1.94436e-05
1.94453e-05
2.33678e-06
8.03805e-07
3.75284e-06
1.09613e-06
2.33707e-06
8.03808e-07
3.7525e-06
5.80357e-06
5.80556e-06
1.39343e-06
5.80332e-06
5.80533e-06
4.3589e-06
9.77734e-06
4.35908e-06
9.77759e-06
1.94432e-05
1.94445e-05
4.35906e-06
9.77944e-06
4.35919e-06
9.77968e-06
5.39933e-07
5.4003e-07
5.40028e-07
5.39955e-07
5.3995e-07
5.40048e-07
5.40047e-07
2.33676e-06
3.75293e-06
8.03753e-07
1.09607e-06
2.33708e-06
3.7525e-06
8.03751e-07
1.94441e-05
1.94455e-05
2.33675e-06
8.03831e-07
3.75293e-06
1.09616e-06
2.33706e-06
8.03829e-07
3.75255e-06
5.80369e-06
5.80569e-06
1.39345e-06
5.80338e-06
5.80539e-06
4.35888e-06
9.77745e-06
4.3591e-06
9.77763e-06
1.94432e-05
1.94444e-05
4.35902e-06
9.7795e-06
4.35918e-06
9.77966e-06
5.39953e-07
5.40052e-07
5.40049e-07
5.39968e-07
5.39962e-07
5.40061e-07
5.40063e-07
2.33675e-06
3.75294e-06
8.03759e-07
1.09608e-06
2.33705e-06
3.75251e-06
8.03762e-07
1.94441e-05
1.94455e-05
2.33673e-06
8.03837e-07
3.75295e-06
1.09617e-06
2.33702e-06
8.0384e-07
3.75256e-06
5.80374e-06
5.80574e-06
1.39352e-06
5.80343e-06
5.80545e-06
4.35877e-06
9.77735e-06
4.35902e-06
9.77742e-06
1.9443e-05
1.94441e-05
4.35893e-06
9.77939e-06
4.35911e-06
9.77947e-06
5.39964e-07
5.40062e-07
5.40061e-07
5.39966e-07
5.39968e-07
5.40064e-07
5.40065e-07
2.33667e-06
3.75291e-06
8.03763e-07
1.09607e-06
2.33698e-06
3.75243e-06
8.03759e-07
1.94441e-05
1.94453e-05
2.33665e-06
8.03842e-07
3.75292e-06
1.09616e-06
2.33697e-06
8.03839e-07
3.7525e-06
5.80378e-06
5.80579e-06
1.39345e-06
5.8034e-06
5.80544e-06
4.35849e-06
9.77684e-06
4.35882e-06
9.77669e-06
1.94421e-05
1.94429e-05
4.35865e-06
9.7789e-06
4.35893e-06
9.77876e-06
5.39963e-07
5.40059e-07
5.40061e-07
5.39954e-07
5.39957e-07
5.4005e-07
5.40055e-07
2.33649e-06
3.75269e-06
8.03763e-07
1.09603e-06
2.33686e-06
3.75213e-06
8.03751e-07
1.94429e-05
1.94436e-05
2.33646e-06
8.03842e-07
3.75272e-06
1.09612e-06
2.33685e-06
8.03829e-07
3.7522e-06
5.80341e-06
5.80545e-06
1.39329e-06
5.8028e-06
5.80485e-06
4.35826e-06
9.77597e-06
4.35851e-06
9.77601e-06
1.94408e-05
1.9442e-05
4.35842e-06
9.77809e-06
4.35862e-06
9.77814e-06
5.39956e-07
5.40048e-07
5.40052e-07
5.39973e-07
5.39974e-07
5.40065e-07
5.40072e-07
2.33642e-06
3.7524e-06
8.03741e-07
1.096e-06
2.33671e-06
3.75195e-06
8.0374e-07
1.94414e-05
1.94428e-05
2.33636e-06
8.03815e-07
3.7524e-06
1.09608e-06
2.33669e-06
8.0381e-07
3.75198e-06
5.8028e-06
5.80483e-06
1.39319e-06
5.80246e-06
5.80449e-06
4.3584e-06
9.77596e-06
4.3585e-06
9.77643e-06
1.94412e-05
1.9443e-05
4.35857e-06
9.77807e-06
4.35861e-06
9.77851e-06
5.39987e-07
5.40079e-07
5.40083e-07
5.40027e-07
5.40028e-07
5.40122e-07
5.40128e-07
2.33655e-06
3.75249e-06
8.03768e-07
1.09605e-06
2.33675e-06
3.75217e-06
8.0378e-07
1.9442e-05
1.9444e-05
2.3365e-06
8.03836e-07
3.75245e-06
1.09614e-06
2.3367e-06
8.03848e-07
3.75217e-06
5.80302e-06
5.805e-06
1.39336e-06
5.8029e-06
5.80489e-06
4.35876e-06
9.7768e-06
4.35885e-06
9.77722e-06
1.94425e-05
1.9444e-05
4.3589e-06
9.77882e-06
4.35893e-06
9.77925e-06
5.40043e-07
5.40138e-07
5.4014e-07
5.40069e-07
5.40067e-07
5.40164e-07
5.40166e-07
2.33673e-06
3.75278e-06
8.0383e-07
1.09613e-06
2.33693e-06
3.75242e-06
8.03837e-07
1.94433e-05
1.9445e-05
2.3367e-06
8.039e-07
3.75276e-06
1.09622e-06
2.33685e-06
8.03909e-07
3.75246e-06
5.8035e-06
5.80548e-06
1.39356e-06
5.80325e-06
5.80526e-06
4.35886e-06
9.77722e-06
4.35903e-06
9.77747e-06
1.9443e-05
1.94444e-05
4.35902e-06
9.77928e-06
4.35913e-06
9.7796e-06
5.40067e-07
5.40164e-07
5.40165e-07
5.40073e-07
5.40073e-07
5.4017e-07
5.40172e-07
2.33677e-06
3.75292e-06
8.03853e-07
1.09615e-06
2.33701e-06
3.7525e-06
8.03848e-07
1.94438e-05
1.94454e-05
2.33674e-06
8.03926e-07
3.75293e-06
1.09624e-06
2.33695e-06
8.03922e-07
3.75257e-06
5.80366e-06
5.80567e-06
1.39363e-06
5.80334e-06
5.80537e-06
4.35892e-06
9.77737e-06
4.3591e-06
9.77762e-06
1.94432e-05
1.94447e-05
4.35908e-06
9.7795e-06
4.3592e-06
9.77976e-06
5.40072e-07
5.40168e-07
5.40171e-07
5.40073e-07
5.40075e-07
5.4017e-07
5.40175e-07
2.33675e-06
3.75298e-06
8.03864e-07
1.09616e-06
2.33708e-06
3.75256e-06
8.03858e-07
1.94441e-05
1.94457e-05
2.33671e-06
8.03936e-07
3.753e-06
1.09625e-06
2.33703e-06
8.0393e-07
3.75261e-06
5.80375e-06
5.80576e-06
1.39363e-06
5.80342e-06
5.80544e-06
4.35893e-06
9.77746e-06
4.35914e-06
9.77767e-06
1.94433e-05
1.94447e-05
4.35909e-06
9.77961e-06
4.35924e-06
9.77982e-06
5.40074e-07
5.40169e-07
5.40174e-07
5.40069e-07
5.40074e-07
5.40171e-07
5.40177e-07
2.33674e-06
3.75303e-06
8.03869e-07
1.09616e-06
2.33717e-06
3.75255e-06
8.03862e-07
1.94442e-05
1.94457e-05
2.33672e-06
8.03933e-07
3.75304e-06
1.09625e-06
2.3371e-06
8.03926e-07
3.75262e-06
5.80383e-06
5.80584e-06
1.39352e-06
5.80341e-06
5.80545e-06
4.35886e-06
9.77737e-06
4.3591e-06
9.77755e-06
1.9443e-05
1.94446e-05
4.35902e-06
9.77952e-06
4.3592e-06
9.7797e-06
5.40073e-07
5.4017e-07
5.40173e-07
5.40061e-07
5.40068e-07
5.40162e-07
5.40167e-07
2.33674e-06
3.75297e-06
8.03865e-07
1.09615e-06
2.33715e-06
3.75247e-06
8.0385e-07
1.94438e-05
1.94455e-05
2.3367e-06
8.03935e-07
3.753e-06
1.09624e-06
2.33707e-06
8.03919e-07
3.75252e-06
5.80375e-06
5.80576e-06
1.39341e-06
5.80327e-06
5.80529e-06
4.35882e-06
9.77721e-06
4.35904e-06
9.77747e-06
1.94427e-05
1.94446e-05
4.35897e-06
9.77936e-06
4.35913e-06
9.77962e-06
5.40067e-07
5.40162e-07
5.40165e-07
5.40055e-07
5.40063e-07
5.40156e-07
5.40161e-07
2.33675e-06
3.75294e-06
8.03865e-07
1.09614e-06
2.3371e-06
3.75239e-06
8.0385e-07
1.94435e-05
1.94455e-05
2.33671e-06
8.03924e-07
3.75294e-06
1.09623e-06
2.33702e-06
8.03911e-07
3.75244e-06
5.80372e-06
5.80572e-06
1.39344e-06
5.80315e-06
5.80517e-06
4.35879e-06
9.77711e-06
4.35901e-06
9.77747e-06
1.94424e-05
1.94448e-05
4.35894e-06
9.77925e-06
4.3591e-06
9.77962e-06
5.40063e-07
5.40156e-07
5.40161e-07
5.40051e-07
5.40057e-07
5.40152e-07
5.40156e-07
2.33676e-06
3.75294e-06
8.03863e-07
1.09613e-06
2.33706e-06
3.75229e-06
8.03847e-07
1.94432e-05
1.94457e-05
2.33672e-06
8.03928e-07
3.75294e-06
1.09622e-06
2.33699e-06
8.03909e-07
3.75235e-06
5.80369e-06
5.80571e-06
1.39345e-06
5.80295e-06
5.80499e-06
4.35878e-06
9.77705e-06
4.35899e-06
9.77764e-06
1.94421e-05
1.94454e-05
4.35894e-06
9.7792e-06
4.35909e-06
9.7798e-06
5.40057e-07
5.40152e-07
5.40156e-07
5.40049e-07
5.40054e-07
5.40148e-07
5.40151e-07
2.33676e-06
3.75295e-06
8.03867e-07
1.09612e-06
2.33702e-06
3.75213e-06
8.03843e-07
1.94429e-05
1.94463e-05
2.3367e-06
8.03932e-07
3.75298e-06
1.09621e-06
2.33696e-06
8.03908e-07
3.75219e-06
5.80373e-06
5.80574e-06
1.3935e-06
5.80272e-06
5.80475e-06
4.35882e-06
9.77704e-06
4.35902e-06
9.77795e-06
1.94417e-05
1.94464e-05
4.35898e-06
9.77921e-06
4.35912e-06
9.78013e-06
5.40058e-07
5.40152e-07
5.40154e-07
5.40048e-07
5.40053e-07
5.40147e-07
5.40149e-07
2.33676e-06
3.75307e-06
8.03873e-07
1.09612e-06
2.33702e-06
3.75188e-06
8.03844e-07
1.94425e-05
1.94474e-05
2.33671e-06
8.03933e-07
3.75308e-06
1.09621e-06
2.33696e-06
8.03904e-07
3.75193e-06
5.80381e-06
5.80582e-06
1.39354e-06
5.80234e-06
5.80436e-06
4.35892e-06
9.77699e-06
4.35903e-06
9.77869e-06
1.94411e-05
1.94483e-05
4.35908e-06
9.77916e-06
4.35914e-06
9.78085e-06
5.40062e-07
5.40156e-07
5.40157e-07
5.40048e-07
5.40052e-07
5.40146e-07
5.40147e-07
2.33673e-06
3.75326e-06
8.03883e-07
1.09611e-06
2.33702e-06
3.75137e-06
8.03835e-07
1.94419e-05
1.94493e-05
2.33668e-06
8.03945e-07
3.75327e-06
1.0962e-06
2.33697e-06
8.03896e-07
3.75142e-06
5.8043e-06
5.80631e-06
1.39359e-06
5.80246e-06
5.80448e-06
4.3593e-06
9.777e-06
4.35922e-06
9.7799e-06
1.94398e-05
1.94505e-05
4.35945e-06
9.77906e-06
4.3593e-06
9.78194e-06
5.40071e-07
5.40165e-07
5.40167e-07
5.40041e-07
5.40041e-07
5.40138e-07
5.40139e-07
2.3367e-06
3.75374e-06
8.03906e-07
1.09611e-06
2.3371e-06
3.75047e-06
8.03836e-07
1.94409e-05
1.94517e-05
2.33666e-06
8.03966e-07
3.75376e-06
1.0962e-06
2.33706e-06
8.03898e-07
3.75058e-06
5.80573e-06
5.80772e-06
1.39358e-06
5.80322e-06
5.8052e-06
4.35992e-06
9.77602e-06
4.35943e-06
9.78122e-06
1.94365e-05
1.94522e-05
4.36006e-06
9.77795e-06
4.35952e-06
9.78312e-06
5.40068e-07
5.40163e-07
5.40164e-07
5.39751e-07
5.39758e-07
5.39852e-07
5.39851e-07
2.33648e-06
3.75558e-06
8.03917e-07
1.09605e-06
2.3372e-06
3.74962e-06
8.03786e-07
1.94379e-05
1.94537e-05
2.33645e-06
8.03981e-07
3.7557e-06
1.09614e-06
2.33715e-06
8.03849e-07
3.74974e-06
5.80832e-06
5.8103e-06
1.39348e-06
5.80545e-06
5.80745e-06
4.35806e-06
9.77254e-06
4.35888e-06
9.77921e-06
1.94285e-05
1.94451e-05
4.3582e-06
9.77445e-06
4.35898e-06
9.781e-06
5.39598e-07
5.39674e-07
5.39684e-07
5.3155e-07
5.31568e-07
5.31581e-07
5.316e-07
2.33151e-06
3.75996e-06
8.02964e-07
1.09263e-06
2.33687e-06
3.743e-06
8.03123e-07
1.94302e-05
1.94467e-05
2.33149e-06
8.03034e-07
3.76004e-06
1.09269e-06
2.33686e-06
8.03183e-07
3.743e-06
5.81316e-06
5.81516e-06
1.38985e-06
5.8084e-06
5.81029e-06
3.56562e-06
8.99617e-06
4.30365e-06
5.96004e-06
1.72509e-05
8.61283e-06
3.56576e-06
8.99754e-06
4.30383e-06
5.96098e-06
1.73139e-07
3.2705e-07
3.27003e-07
5.78857e-07
1.80745e-07
3.53044e-07
3.53012e-07
2.23903e-06
3.65484e-06
7.74813e-07
9.77939e-07
2.29976e-06
3.75982e-06
7.03436e-07
1.72518e-05
8.61283e-06
2.23902e-06
7.74834e-07
3.65475e-06
9.77912e-07
2.29972e-06
7.0344e-07
3.75968e-06
5.72528e-06
5.72732e-06
1.28618e-06
5.36356e-06
5.36472e-06
1.94423e-05
1.94408e-05
1.94448e-05
1.94432e-05
1.39552e-06
5.80308e-06
5.80503e-06
5.80329e-06
5.80524e-06
4.35892e-06
9.77719e-06
9.77689e-06
4.35874e-06
4.35902e-06
9.7784e-06
9.77809e-06
4.35885e-06
2.33693e-06
1.09615e-06
3.75218e-06
8.03679e-07
3.75253e-06
8.03673e-07
2.33666e-06
2.337e-06
1.09619e-06
3.75275e-06
8.03716e-07
3.7531e-06
8.0371e-07
2.33672e-06
1.9444e-05
1.94424e-05
1.39547e-06
5.80496e-06
5.80319e-06
5.80517e-06
5.80348e-06
1.94418e-05
1.94401e-05
4.35902e-06
9.77925e-06
9.77892e-06
4.3589e-06
2.33711e-06
1.09604e-06
3.75294e-06
8.03754e-07
3.75332e-06
8.03745e-07
2.33682e-06
4.35892e-06
9.77863e-06
9.77829e-06
4.35881e-06
2.33704e-06
1.09624e-06
8.03787e-07
3.7528e-06
8.03782e-07
3.75318e-06
2.33674e-06
2.33706e-06
1.09602e-06
3.75239e-06
8.03721e-07
3.75277e-06
8.03716e-07
2.33677e-06
4.35914e-06
9.77846e-06
9.77814e-06
4.35896e-06
2.33699e-06
1.09624e-06
8.03769e-07
3.75234e-06
8.03764e-07
3.75268e-06
2.33671e-06
4.35903e-06
9.77836e-06
9.77804e-06
4.35885e-06
1.9445e-05
1.94432e-05
1.39557e-06
5.80498e-06
5.80325e-06
5.80527e-06
5.80347e-06
1.94436e-05
1.9442e-05
2.33708e-06
1.09611e-06
8.03801e-07
3.75244e-06
8.03796e-07
3.75278e-06
2.33675e-06
2.33712e-06
1.09613e-06
8.03829e-07
3.75299e-06
8.03824e-07
3.75335e-06
2.3368e-06
4.35919e-06
9.77862e-06
9.7783e-06
4.35895e-06
4.35915e-06
9.77944e-06
9.77912e-06
4.35899e-06
1.39561e-06
5.80321e-06
5.80523e-06
5.80344e-06
5.80544e-06
1.94434e-05
1.94419e-05
1.94454e-05
1.94439e-05
1.94411e-05
1.94425e-05
1.94436e-05
1.94451e-05
5.80341e-06
5.80537e-06
1.39334e-06
5.8032e-06
5.80517e-06
1.94427e-05
1.94413e-05
1.94452e-05
1.94438e-05
1.39549e-06
5.80327e-06
5.80524e-06
5.80352e-06
5.8055e-06
4.35892e-06
9.77825e-06
4.35906e-06
9.77859e-06
2.33662e-06
3.75258e-06
8.03681e-07
1.09616e-06
2.33696e-06
3.75225e-06
8.03684e-07
2.33669e-06
3.75316e-06
8.03719e-07
1.09621e-06
2.33703e-06
3.75283e-06
8.03722e-07
4.35903e-06
9.7775e-06
9.77721e-06
4.35887e-06
4.35914e-06
9.77873e-06
9.77844e-06
4.35899e-06
2.33693e-06
1.09618e-06
3.75231e-06
8.03709e-07
3.75265e-06
8.03695e-07
2.33666e-06
2.33701e-06
1.09623e-06
3.75287e-06
8.03746e-07
3.75323e-06
8.03732e-07
2.33673e-06
5.8053e-06
5.80362e-06
1.39329e-06
5.80508e-06
5.8033e-06
1.94405e-05
1.94421e-05
1.94444e-05
1.9443e-05
1.39545e-06
5.80514e-06
5.80336e-06
5.80541e-06
5.80372e-06
1.94422e-05
1.94407e-05
2.33679e-06
3.75338e-06
8.03753e-07
1.09605e-06
2.33711e-06
3.75302e-06
8.0376e-07
4.3589e-06
9.77848e-06
4.35897e-06
9.77884e-06
2.33672e-06
8.0379e-07
3.75325e-06
1.09625e-06
2.33704e-06
8.03793e-07
3.75287e-06
4.35914e-06
9.77961e-06
9.7793e-06
4.35904e-06
2.33711e-06
1.09607e-06
3.75307e-06
8.03785e-07
3.75346e-06
8.03766e-07
2.33684e-06
4.35906e-06
9.77899e-06
9.77868e-06
4.35896e-06
2.33703e-06
1.09627e-06
8.03818e-07
3.75293e-06
8.03805e-07
3.75333e-06
2.33676e-06
4.35902e-06
9.7783e-06
4.35917e-06
9.77862e-06
2.3367e-06
8.03771e-07
3.75274e-06
1.09626e-06
2.33702e-06
8.03774e-07
3.7524e-06
4.35892e-06
9.77821e-06
4.35906e-06
9.77852e-06
2.33706e-06
1.09606e-06
3.7525e-06
8.03747e-07
3.7529e-06
8.03737e-07
2.33676e-06
4.35923e-06
9.77873e-06
9.77846e-06
4.35906e-06
2.33699e-06
1.09627e-06
8.03794e-07
3.75243e-06
8.03783e-07
3.7528e-06
2.3367e-06
4.35912e-06
9.77861e-06
9.77835e-06
4.35895e-06
5.80542e-06
5.80359e-06
1.39339e-06
5.80511e-06
5.80336e-06
1.94423e-05
1.94438e-05
1.94455e-05
1.94439e-05
1.39554e-06
5.80518e-06
5.80342e-06
5.80554e-06
5.80369e-06
1.94439e-05
1.94426e-05
2.33682e-06
8.03828e-07
3.7534e-06
1.09615e-06
2.33712e-06
8.03832e-07
3.75305e-06
4.35902e-06
9.77847e-06
4.35923e-06
9.77878e-06
4.35906e-06
9.77928e-06
4.35922e-06
9.77959e-06
2.33708e-06
1.09615e-06
8.03825e-07
3.75254e-06
8.03816e-07
3.7529e-06
2.33675e-06
2.33712e-06
1.09616e-06
8.03852e-07
3.75309e-06
8.03842e-07
3.75346e-06
2.3368e-06
4.3593e-06
9.77888e-06
9.77862e-06
4.35905e-06
4.35928e-06
9.77967e-06
9.77942e-06
4.35908e-06
1.94422e-05
1.94437e-05
1.94442e-05
1.94456e-05
1.39558e-06
5.80336e-06
5.80537e-06
5.80366e-06
5.80565e-06
1.94438e-05
1.94424e-05
1.94457e-05
1.94444e-05
1.94415e-05
1.94428e-05
1.9444e-05
1.94453e-05
5.80359e-06
5.80556e-06
1.39337e-06
5.80333e-06
5.80529e-06
1.94429e-05
1.94416e-05
1.94454e-05
1.94441e-05
1.39548e-06
5.80338e-06
5.80533e-06
5.80364e-06
5.8056e-06
4.35901e-06
9.77856e-06
4.35918e-06
9.7788e-06
2.33665e-06
3.7527e-06
8.03714e-07
1.0962e-06
2.33698e-06
3.75233e-06
8.03715e-07
2.33671e-06
3.75327e-06
8.0375e-07
1.09624e-06
2.33705e-06
3.75289e-06
8.03751e-07
4.35909e-06
9.77763e-06
9.77741e-06
4.3589e-06
4.3592e-06
9.77881e-06
9.77861e-06
4.35901e-06
2.33694e-06
1.0962e-06
3.75235e-06
8.03716e-07
3.75272e-06
8.03715e-07
2.33663e-06
2.33701e-06
1.09624e-06
3.7529e-06
8.03752e-07
3.75329e-06
8.03751e-07
2.3367e-06
5.80546e-06
5.80376e-06
1.3933e-06
5.80517e-06
5.80336e-06
1.94408e-05
1.94422e-05
1.94445e-05
1.94432e-05
1.39541e-06
5.8052e-06
5.80338e-06
5.80549e-06
5.80376e-06
1.94422e-05
1.94408e-05
2.3368e-06
3.7535e-06
8.03785e-07
1.09609e-06
2.33714e-06
3.7531e-06
8.03789e-07
4.35897e-06
9.77881e-06
4.3591e-06
9.77904e-06
2.33673e-06
8.03821e-07
3.75337e-06
1.09628e-06
2.33706e-06
8.03822e-07
3.75294e-06
4.35919e-06
9.77969e-06
9.77949e-06
4.35905e-06
2.33709e-06
1.09609e-06
3.75311e-06
8.03791e-07
3.75352e-06
8.03787e-07
2.33679e-06
4.35911e-06
9.77905e-06
9.77885e-06
4.35896e-06
2.33702e-06
1.09628e-06
8.03823e-07
3.75295e-06
8.03822e-07
3.75338e-06
2.33672e-06
4.35906e-06
9.77854e-06
4.35925e-06
9.77876e-06
2.33669e-06
8.03798e-07
3.75283e-06
1.09628e-06
2.33701e-06
8.03798e-07
3.75244e-06
4.35895e-06
9.77842e-06
4.35915e-06
9.77862e-06
2.33704e-06
1.09607e-06
3.75251e-06
8.03753e-07
3.75293e-06
8.03751e-07
2.33673e-06
4.35925e-06
9.77877e-06
9.77856e-06
4.35906e-06
2.33697e-06
1.09628e-06
8.03799e-07
3.75245e-06
8.03798e-07
3.75283e-06
2.33666e-06
4.35914e-06
9.77863e-06
9.77843e-06
4.35895e-06
5.80559e-06
5.80374e-06
1.39341e-06
5.80521e-06
5.80345e-06
1.94427e-05
1.9444e-05
1.94455e-05
1.94441e-05
1.39552e-06
5.80523e-06
5.80348e-06
5.80562e-06
5.80377e-06
1.9444e-05
1.94427e-05
2.3368e-06
8.03855e-07
3.75348e-06
1.09617e-06
2.3371e-06
8.03855e-07
3.75309e-06
4.35903e-06
9.7787e-06
4.35931e-06
9.7789e-06
4.35907e-06
9.77948e-06
4.3593e-06
9.77968e-06
2.33705e-06
1.09616e-06
8.03831e-07
3.75256e-06
8.03829e-07
3.75294e-06
2.33671e-06
2.33709e-06
1.09617e-06
8.03856e-07
3.7531e-06
8.03855e-07
3.75349e-06
2.33676e-06
4.3593e-06
9.7789e-06
9.77871e-06
4.35902e-06
4.35928e-06
9.77967e-06
9.77948e-06
4.35908e-06
1.94425e-05
1.94438e-05
1.94444e-05
1.94457e-05
1.39555e-06
5.80341e-06
5.80542e-06
5.80371e-06
5.8057e-06
1.94438e-05
1.94425e-05
1.94458e-05
1.94445e-05
1.94416e-05
1.94429e-05
1.94441e-05
1.94453e-05
5.80368e-06
5.80564e-06
1.39345e-06
5.8034e-06
5.80534e-06
1.94428e-05
1.94416e-05
1.94453e-05
1.9444e-05
1.39558e-06
5.8034e-06
5.80534e-06
5.8037e-06
5.80565e-06
4.35899e-06
9.77862e-06
4.3592e-06
9.77879e-06
2.33664e-06
3.75274e-06
8.03719e-07
1.09621e-06
2.33695e-06
3.75235e-06
8.03724e-07
2.3367e-06
3.75329e-06
8.03754e-07
1.09625e-06
2.33701e-06
3.75288e-06
8.03759e-07
4.35906e-06
9.77757e-06
9.77742e-06
4.35883e-06
4.35917e-06
9.77872e-06
9.77858e-06
4.35894e-06
2.33693e-06
1.09622e-06
3.75232e-06
8.03724e-07
3.75272e-06
8.03728e-07
2.33658e-06
2.337e-06
1.09625e-06
3.75286e-06
8.03759e-07
3.75327e-06
8.03763e-07
2.33664e-06
5.80551e-06
5.80378e-06
1.39338e-06
5.8052e-06
5.8034e-06
1.94408e-05
1.94422e-05
1.94443e-05
1.94431e-05
1.39551e-06
5.80519e-06
5.80345e-06
5.80551e-06
5.80381e-06
1.94422e-05
1.94408e-05
2.33679e-06
3.75353e-06
8.03791e-07
1.0961e-06
2.3371e-06
3.7531e-06
8.03799e-07
4.35893e-06
9.77884e-06
4.3591e-06
9.77903e-06
2.33671e-06
8.03825e-07
3.75338e-06
1.0963e-06
2.33703e-06
8.0383e-07
3.75294e-06
4.35915e-06
9.7796e-06
9.77945e-06
4.35898e-06
2.33708e-06
1.09611e-06
3.75307e-06
8.03798e-07
3.75351e-06
8.03797e-07
2.33673e-06
4.35906e-06
9.77899e-06
9.77882e-06
4.35889e-06
2.337e-06
1.0963e-06
8.0383e-07
3.75293e-06
8.03834e-07
3.75338e-06
2.33666e-06
4.35904e-06
9.77857e-06
4.35925e-06
9.77877e-06
2.33668e-06
8.03803e-07
3.75284e-06
1.0963e-06
2.33698e-06
8.03809e-07
3.75244e-06
4.35893e-06
9.77844e-06
4.35914e-06
9.77863e-06
2.33704e-06
1.09608e-06
3.75249e-06
8.03763e-07
3.75293e-06
8.03765e-07
2.33668e-06
4.35923e-06
9.77873e-06
9.77856e-06
4.359e-06
2.33697e-06
1.0963e-06
8.0381e-07
3.75243e-06
8.03813e-07
3.75283e-06
2.33661e-06
4.35912e-06
9.77861e-06
9.77844e-06
4.3589e-06
5.80563e-06
5.8038e-06
1.3935e-06
5.80525e-06
5.8035e-06
1.94427e-05
1.9444e-05
1.94455e-05
1.94441e-05
1.39562e-06
5.8053e-06
5.80351e-06
5.80567e-06
5.80381e-06
1.9444e-05
1.94427e-05
2.33678e-06
8.03859e-07
3.7535e-06
1.09619e-06
2.33706e-06
8.03866e-07
3.7531e-06
4.359e-06
9.77871e-06
4.35928e-06
9.77889e-06
4.35909e-06
9.77948e-06
4.35935e-06
9.77968e-06
2.33703e-06
1.09618e-06
8.03842e-07
3.75254e-06
8.03844e-07
3.75294e-06
2.33667e-06
2.33708e-06
1.09619e-06
8.03869e-07
3.75309e-06
8.03871e-07
3.75349e-06
2.33672e-06
4.35926e-06
9.77887e-06
9.7787e-06
4.35897e-06
4.35935e-06
9.77967e-06
9.77949e-06
4.35907e-06
1.94425e-05
1.94438e-05
1.94445e-05
1.94458e-05
1.39565e-06
5.80345e-06
5.80548e-06
5.80376e-06
5.80577e-06
1.94438e-05
1.94425e-05
1.94458e-05
1.94445e-05
1.94415e-05
1.94426e-05
1.94439e-05
1.9445e-05
5.8037e-06
5.80564e-06
1.39337e-06
5.80334e-06
5.80528e-06
1.94419e-05
1.94412e-05
1.94444e-05
1.94436e-05
1.39552e-06
5.80309e-06
5.80504e-06
5.8036e-06
5.80554e-06
4.35888e-06
9.7785e-06
4.35912e-06
9.77859e-06
2.33654e-06
3.75269e-06
8.03719e-07
1.0962e-06
2.33687e-06
3.75226e-06
8.03718e-07
2.33661e-06
3.75324e-06
8.03755e-07
1.09624e-06
2.33694e-06
3.75281e-06
8.03754e-07
4.35895e-06
9.77712e-06
9.77717e-06
4.35865e-06
4.35905e-06
9.77832e-06
9.77834e-06
4.35876e-06
2.33685e-06
1.0962e-06
3.75213e-06
8.03722e-07
3.75262e-06
8.03721e-07
2.33648e-06
2.33692e-06
1.09624e-06
3.75269e-06
8.03759e-07
3.75318e-06
8.03757e-07
2.33655e-06
5.8055e-06
5.80385e-06
1.3933e-06
5.80514e-06
5.80338e-06
1.94408e-05
1.9442e-05
1.94436e-05
1.94427e-05
1.39546e-06
5.80495e-06
5.80309e-06
5.80542e-06
5.80373e-06
1.94413e-05
1.94404e-05
2.33671e-06
3.75348e-06
8.03791e-07
1.09609e-06
2.33703e-06
3.75302e-06
8.03793e-07
4.35884e-06
9.77877e-06
4.35902e-06
9.77887e-06
2.33664e-06
8.03826e-07
3.75336e-06
1.09629e-06
2.33696e-06
8.03825e-07
3.75288e-06
4.35905e-06
9.77918e-06
9.77922e-06
4.35881e-06
2.33701e-06
1.09609e-06
3.75289e-06
8.03799e-07
3.75342e-06
8.03794e-07
2.33665e-06
4.35896e-06
9.77858e-06
9.77862e-06
4.35873e-06
2.33693e-06
1.09629e-06
8.03831e-07
3.75275e-06
8.03829e-07
3.7533e-06
2.33657e-06
4.35894e-06
9.77851e-06
4.35919e-06
9.77859e-06
2.3366e-06
8.03807e-07
3.75281e-06
1.09629e-06
2.33691e-06
8.03807e-07
3.75238e-06
4.35884e-06
9.7784e-06
4.35908e-06
9.77849e-06
2.33695e-06
1.09607e-06
3.7523e-06
8.03763e-07
3.75283e-06
8.03762e-07
2.33658e-06
4.35912e-06
9.77828e-06
9.77833e-06
4.35881e-06
2.33688e-06
1.09629e-06
8.03811e-07
3.75225e-06
8.03809e-07
3.75275e-06
2.33651e-06
4.35902e-06
9.77819e-06
9.77824e-06
4.35871e-06
5.80572e-06
5.80382e-06
1.3934e-06
5.80526e-06
5.80347e-06
1.94427e-05
1.94438e-05
1.94446e-05
1.94437e-05
1.39555e-06
5.80497e-06
5.80325e-06
5.80562e-06
5.80375e-06
1.94432e-05
1.94424e-05
2.33671e-06
8.03866e-07
3.75348e-06
1.09618e-06
2.33702e-06
8.03866e-07
3.75305e-06
4.35893e-06
9.77867e-06
4.35922e-06
9.77877e-06
4.35902e-06
9.77947e-06
4.35933e-06
9.77959e-06
2.33695e-06
1.09617e-06
8.03844e-07
3.75238e-06
8.03842e-07
3.75286e-06
2.33657e-06
2.337e-06
1.09618e-06
8.03872e-07
3.75294e-06
8.0387e-07
3.75343e-06
2.33663e-06
4.35917e-06
9.7785e-06
9.77853e-06
4.3588e-06
4.35927e-06
9.77933e-06
9.77935e-06
4.3589e-06
1.94425e-05
1.94436e-05
1.94445e-05
1.94456e-05
1.39559e-06
5.80318e-06
5.80523e-06
5.80369e-06
5.80572e-06
1.9443e-05
1.94422e-05
1.9445e-05
1.94442e-05
1.94404e-05
1.9441e-05
1.94429e-05
1.94435e-05
5.8033e-06
5.80525e-06
1.39318e-06
5.8027e-06
5.80467e-06
1.94403e-05
1.94395e-05
1.94429e-05
1.9442e-05
1.39533e-06
5.80238e-06
5.80438e-06
5.80291e-06
5.80489e-06
4.3586e-06
9.77804e-06
4.35892e-06
9.77793e-06
2.33635e-06
3.75247e-06
8.03716e-07
1.09615e-06
2.33676e-06
3.75195e-06
8.03704e-07
2.33642e-06
3.75305e-06
8.03754e-07
1.0962e-06
2.33683e-06
3.75254e-06
8.03743e-07
4.35865e-06
9.77625e-06
9.77638e-06
4.35834e-06
4.35876e-06
9.77755e-06
9.77764e-06
4.35846e-06
2.33664e-06
1.09614e-06
3.75179e-06
8.03691e-07
3.75229e-06
8.03698e-07
2.33631e-06
2.33672e-06
1.0962e-06
3.75239e-06
8.0373e-07
3.75289e-06
8.03737e-07
2.33639e-06
5.80519e-06
5.80341e-06
1.39314e-06
5.80463e-06
5.80272e-06
1.94396e-05
1.94404e-05
1.94422e-05
1.94414e-05
1.39529e-06
5.80435e-06
5.80245e-06
5.80486e-06
5.80304e-06
1.94398e-05
1.94388e-05
2.33653e-06
3.75327e-06
8.03789e-07
1.09604e-06
2.33692e-06
3.75272e-06
8.03783e-07
4.35857e-06
9.77828e-06
4.35883e-06
9.77814e-06
2.33646e-06
8.03826e-07
3.75314e-06
1.09624e-06
2.33685e-06
8.03814e-07
3.75256e-06
4.35876e-06
9.77835e-06
9.77845e-06
4.35851e-06
2.33682e-06
1.09604e-06
3.75257e-06
8.03769e-07
3.7531e-06
8.03771e-07
2.33647e-06
4.35867e-06
9.7777e-06
9.77782e-06
4.35842e-06
2.33674e-06
1.09623e-06
8.038e-07
3.75239e-06
8.03808e-07
3.75295e-06
2.3364e-06
4.35865e-06
9.77798e-06
4.35898e-06
9.77784e-06
2.33643e-06
8.03807e-07
3.75261e-06
1.09625e-06
2.33679e-06
8.03796e-07
3.75208e-06
4.35854e-06
9.77789e-06
4.35888e-06
9.77774e-06