/*--------------------------------*- C++ -*----------------------------------*\
| =========                 |                                                 |
| \\      /  F ield         | OpenFOAM: The Open Source CFD Toolbox           |
|  \\    /   O peration     | Version:  v1906                                 |
|   \\  /    A nd           | Web:      www.OpenFOAM.com                      |
|    \\/     M anipulation  |                                                 |
\*---------------------------------------------------------------------------*/
FoamFile
{
    version     2.0;
    format      ascii;
    class       volScalarField;
    location    "250";
    object      k;
}
// * * * * * * * * * * * * * * * * * * * * * * * * * * * * * * * * * * * * * //

dimensions      [0 2 -2 0 0 0 0];


internalField   nonuniform List<scalar> 
42616
(
4.08905e-05
5.3145e-05
5.31459e-05
5.57251e-05
4.08943e-05
5.31509e-05
5.31515e-05
5.57373e-05
4.08966e-05
5.31506e-05
5.31514e-05
5.57235e-05
4.08968e-05
5.31517e-05
5.31531e-05
5.57401e-05
4.08956e-05
5.3151e-05
5.31523e-05
5.57367e-05
4.08864e-05
5.31391e-05
5.31403e-05
5.5717e-05
4.08784e-05
5.31307e-05
5.31302e-05
5.57013e-05
4.08799e-05
5.31374e-05
5.31373e-05
5.57204e-05
4.08964e-05
5.31505e-05
5.31507e-05
5.57328e-05
4.09001e-05
5.31523e-05
5.31538e-05
5.57252e-05
4.09005e-05
5.31531e-05
5.3154e-05
5.5736e-05
4.09009e-05
5.31544e-05
5.31556e-05
5.57405e-05
4.08999e-05
5.31517e-05
5.3152e-05
5.57236e-05
4.08984e-05
5.31502e-05
5.31508e-05
5.57329e-05
4.0897e-05
5.31497e-05
5.31503e-05
5.57339e-05
4.08961e-05
5.31491e-05
5.31496e-05
5.57346e-05
4.08959e-05
5.31498e-05
5.31505e-05
5.57263e-05
4.08965e-05
5.31514e-05
5.31516e-05
5.57227e-05
4.08971e-05
5.31527e-05
5.31532e-05
5.57284e-05
4.08857e-05
5.31334e-05
5.31339e-05
5.57293e-05
4.04233e-05
5.1914e-05
5.19132e-05
5.5327e-05
5.57068e-05
5.31422e-05
5.31429e-05
5.57071e-05
5.31422e-05
5.31422e-05
5.3145e-05
5.31458e-05
5.57082e-05
5.31458e-05
5.31464e-05
5.5711e-05
5.57209e-05
5.57128e-05
5.3142e-05
5.31429e-05
5.31462e-05
5.31476e-05
5.57213e-05
5.57149e-05
5.31421e-05
5.31422e-05
5.31466e-05
5.3147e-05
5.31459e-05
5.31496e-05
5.31503e-05
5.57223e-05
5.5714e-05
5.31464e-05
5.31503e-05
5.31508e-05
5.57161e-05
5.5734e-05
5.57051e-05
5.31478e-05
5.3149e-05
5.3148e-05
5.31488e-05
5.57359e-05
5.57053e-05
5.31482e-05
5.31484e-05
5.31484e-05
5.31483e-05
5.31516e-05
5.31503e-05
5.31509e-05
5.57352e-05
5.57052e-05
5.3152e-05
5.31511e-05
5.31512e-05
5.57071e-05
5.5722e-05
5.57213e-05
5.31485e-05
5.31491e-05
5.31509e-05
5.3151e-05
5.57221e-05
5.57209e-05
5.3149e-05
5.31487e-05
5.31512e-05
5.31511e-05
5.3151e-05
5.31525e-05
5.31531e-05
5.57219e-05
5.57221e-05
5.31513e-05
5.31537e-05
5.31534e-05
5.57226e-05
5.57373e-05
5.5716e-05
5.31502e-05
5.31501e-05
5.31498e-05
5.31496e-05
5.57374e-05
5.5713e-05
5.31503e-05
5.31503e-05
5.31499e-05
5.31495e-05
5.31526e-05
5.31511e-05
5.3152e-05
5.57393e-05
5.57114e-05
5.31529e-05
5.31523e-05
5.31527e-05
5.57146e-05
5.57371e-05
5.56971e-05
5.31495e-05
5.31495e-05
5.31395e-05
5.3141e-05
5.5735e-05
5.56982e-05
5.31497e-05
5.31494e-05
5.31401e-05
5.31406e-05
5.31519e-05
5.31424e-05
5.31436e-05
5.57336e-05
5.56988e-05
5.31526e-05
5.31439e-05
5.31448e-05
5.57002e-05
5.57141e-05
5.56813e-05
5.3136e-05
5.31379e-05
5.31274e-05
5.31296e-05
5.57149e-05
5.56841e-05
5.31365e-05
5.31369e-05
5.3128e-05
5.31279e-05
5.31402e-05
5.31311e-05
5.31312e-05
5.57146e-05
5.56837e-05
5.31413e-05
5.31308e-05
5.31318e-05
5.56858e-05
5.56974e-05
5.56974e-05
5.31269e-05
5.3129e-05
5.31291e-05
5.31305e-05
5.56999e-05
5.56988e-05
5.31275e-05
5.31273e-05
5.31298e-05
5.31296e-05
5.31307e-05
5.31333e-05
5.31339e-05
5.5699e-05
5.56977e-05
5.31312e-05
5.31328e-05
5.31341e-05
5.57003e-05
5.57165e-05
5.57126e-05
5.31331e-05
5.31332e-05
5.31468e-05
5.31468e-05
5.57173e-05
5.57126e-05
5.31337e-05
5.31335e-05
5.31468e-05
5.31457e-05
5.31388e-05
5.31486e-05
5.31492e-05
5.57175e-05
5.57091e-05
5.31387e-05
5.31483e-05
5.3149e-05
5.57112e-05
5.57336e-05
5.57054e-05
5.31486e-05
5.31489e-05
5.31483e-05
5.31491e-05
5.57335e-05
5.57052e-05
5.31488e-05
5.31481e-05
5.31489e-05
5.31488e-05
5.31513e-05
5.31513e-05
5.31523e-05
5.57308e-05
5.57073e-05
5.31512e-05
5.31525e-05
5.31527e-05
5.57086e-05
5.57221e-05
5.57191e-05
5.31487e-05
5.31498e-05
5.31505e-05
5.31512e-05
5.57229e-05
5.57175e-05
5.31496e-05
5.31497e-05
5.31509e-05
5.3151e-05
5.31532e-05
5.31526e-05
5.31533e-05
5.57236e-05
5.57199e-05
5.3154e-05
5.3154e-05
5.31539e-05
5.57207e-05
5.57355e-05
5.57158e-05
5.31505e-05
5.31512e-05
5.31511e-05
5.31524e-05
5.57323e-05
5.57203e-05
5.3151e-05
5.31511e-05
5.31517e-05
5.31517e-05
5.31534e-05
5.31546e-05
5.31554e-05
5.57359e-05
5.57169e-05
5.31538e-05
5.31552e-05
5.31555e-05
5.5719e-05
5.57376e-05
5.5704e-05
5.31515e-05
5.31526e-05
5.31489e-05
5.31494e-05
5.57404e-05
5.57037e-05
5.3152e-05
5.3152e-05
5.31492e-05
5.31492e-05
5.31555e-05
5.31511e-05
5.31516e-05
5.57385e-05
5.57046e-05
5.3156e-05
5.31518e-05
5.3152e-05
5.57066e-05
5.57218e-05
5.57125e-05
5.3149e-05
5.31497e-05
5.31476e-05
5.31484e-05
5.57226e-05
5.57134e-05
5.31493e-05
5.31492e-05
5.3148e-05
5.31477e-05
5.3152e-05
5.315e-05
5.31509e-05
5.57225e-05
5.57115e-05
5.3152e-05
5.31505e-05
5.31512e-05
5.57178e-05
5.57266e-05
5.57139e-05
5.31477e-05
5.31485e-05
5.31462e-05
5.31472e-05
5.57275e-05
5.57148e-05
5.3148e-05
5.31477e-05
5.31465e-05
5.31464e-05
5.31511e-05
5.3149e-05
5.31495e-05
5.57256e-05
5.57154e-05
5.31513e-05
5.31495e-05
5.31498e-05
5.57157e-05
5.57303e-05
5.57126e-05
5.31468e-05
5.31478e-05
5.31451e-05
5.31457e-05
5.57341e-05
5.5704e-05
5.31471e-05
5.3147e-05
5.31455e-05
5.31451e-05
5.31502e-05
5.31475e-05
5.31486e-05
5.5733e-05
5.57087e-05
5.31505e-05
5.31482e-05
5.31488e-05
5.57133e-05
5.57328e-05
5.57037e-05
5.31465e-05
5.31473e-05
5.31447e-05
5.31458e-05
5.57264e-05
5.57052e-05
5.31469e-05
5.31467e-05
5.31451e-05
5.31453e-05
5.315e-05
5.31477e-05
5.31484e-05
5.57297e-05
5.57106e-05
5.31502e-05
5.31484e-05
5.31485e-05
5.57041e-05
5.5727e-05
5.57016e-05
5.31468e-05
5.31478e-05
5.31446e-05
5.31457e-05
5.57259e-05
5.57022e-05
5.31472e-05
5.31473e-05
5.3145e-05
5.31452e-05
5.31505e-05
5.31476e-05
5.31482e-05
5.57324e-05
5.57026e-05
5.31507e-05
5.31478e-05
5.31481e-05
5.57055e-05
5.57197e-05
5.57117e-05
5.31481e-05
5.31494e-05
5.31452e-05
5.31461e-05
5.57248e-05
5.57071e-05
5.31485e-05
5.31488e-05
5.31456e-05
5.31458e-05
5.31518e-05
5.3148e-05
5.31488e-05
5.57255e-05
5.57071e-05
5.31517e-05
5.31485e-05
5.31488e-05
5.57133e-05
5.57269e-05
5.57114e-05
5.31499e-05
5.31508e-05
5.31438e-05
5.31447e-05
5.57232e-05
5.57121e-05
5.31504e-05
5.31506e-05
5.31443e-05
5.31445e-05
5.31535e-05
5.31467e-05
5.31478e-05
5.57232e-05
5.57119e-05
5.31534e-05
5.31471e-05
5.31476e-05
5.57147e-05
5.57269e-05
5.55075e-05
5.31308e-05
5.31315e-05
5.29619e-05
5.2963e-05
5.57256e-05
5.55085e-05
5.31312e-05
5.31311e-05
5.29639e-05
5.29615e-05
5.31342e-05
5.29665e-05
5.29647e-05
5.57252e-05
5.55085e-05
5.31344e-05
5.2966e-05
5.29667e-05
5.55094e-05
5.53248e-05
5.19088e-05
5.19098e-05
5.53259e-05
5.1911e-05
5.19082e-05
4.04249e-05
4.04242e-05
4.04264e-05
5.19116e-05
5.53256e-05
5.19138e-05
4.08903e-05
4.08912e-05
4.08937e-05
4.08951e-05
7.06908e-05
7.45176e-05
7.06874e-05
7.45192e-05
7.20623e-05
7.2066e-05
7.0695e-05
7.45232e-05
7.06909e-05
7.45249e-05
4.08914e-05
4.0894e-05
4.08954e-05
4.08934e-05
4.08945e-05
4.08973e-05
4.08985e-05
6.27907e-05
6.68962e-05
4.80234e-05
5.31453e-05
6.27884e-05
6.6899e-05
4.80235e-05
7.20605e-05
7.20646e-05
6.27897e-05
4.80254e-05
6.68967e-05
5.31461e-05
6.27877e-05
4.80255e-05
6.68996e-05
7.18674e-05
7.18792e-05
5.56997e-05
7.18699e-05
7.18817e-05
7.06952e-05
7.45191e-05
7.06921e-05
7.45204e-05
7.20632e-05
7.20665e-05
7.06993e-05
7.45249e-05
7.06962e-05
7.45261e-05
4.08953e-05
4.08979e-05
4.08991e-05
4.0896e-05
4.08965e-05
4.08992e-05
4.09e-05
6.2796e-05
6.69007e-05
4.80274e-05
5.31509e-05
6.27927e-05
6.69021e-05
4.80279e-05
7.20615e-05
7.20651e-05
6.27945e-05
4.80293e-05
6.6901e-05
5.31516e-05
6.27916e-05
4.80297e-05
6.69027e-05
7.18711e-05
7.18828e-05
5.57208e-05
7.18715e-05
7.18832e-05
7.06968e-05
7.45197e-05
7.06943e-05
7.45206e-05
7.20633e-05
7.20663e-05
7.07001e-05
7.45252e-05
7.06977e-05
7.4526e-05
4.08969e-05
4.08997e-05
4.09002e-05
4.08969e-05
4.08972e-05
4.09001e-05
4.09006e-05
6.27964e-05
6.69016e-05
4.80274e-05
5.31518e-05
6.27925e-05
6.69034e-05
4.80281e-05
7.20615e-05
7.20651e-05
6.27941e-05
4.80292e-05
6.69021e-05
5.31528e-05
6.27906e-05
4.80298e-05
6.69042e-05
7.1872e-05
7.18837e-05
5.57114e-05
7.18729e-05
7.18848e-05
7.0696e-05
7.45192e-05
7.06944e-05
7.45195e-05
7.20628e-05
7.20656e-05
7.06994e-05
7.45247e-05
7.06974e-05
7.45251e-05
4.08969e-05
4.08999e-05
4.09004e-05
4.08962e-05
4.08962e-05
4.08991e-05
4.08999e-05
6.27948e-05
6.69029e-05
4.80279e-05
5.3151e-05
6.2794e-05
6.69042e-05
4.80268e-05
7.20616e-05
7.20646e-05
6.27928e-05
4.80296e-05
6.69032e-05
5.31522e-05
6.27917e-05
4.80287e-05
6.6905e-05
7.18747e-05
7.18866e-05
5.57117e-05
7.18765e-05
7.18885e-05
7.06902e-05
7.45166e-05
7.06915e-05
7.45158e-05
7.20607e-05
7.20625e-05
7.06941e-05
7.45222e-05
7.06951e-05
7.45215e-05
4.08957e-05
4.08987e-05
4.08995e-05
4.08892e-05
4.08902e-05
4.08933e-05
4.08946e-05
6.27895e-05
6.69008e-05
4.80267e-05
5.31493e-05
6.27916e-05
6.6897e-05
4.80255e-05
7.20588e-05
7.20604e-05
6.27888e-05
4.80289e-05
6.6902e-05
5.31511e-05
6.27906e-05
4.80281e-05
6.6899e-05
7.18746e-05
7.18871e-05
5.57161e-05
7.18687e-05
7.18814e-05
7.06793e-05
7.45122e-05
7.06812e-05
7.45124e-05
7.20575e-05
7.20604e-05
7.06832e-05
7.45181e-05
7.06848e-05
7.45183e-05
4.08876e-05
4.08903e-05
4.08916e-05
4.08794e-05
4.0881e-05
4.0883e-05
4.08844e-05
6.27771e-05
6.68871e-05
4.80171e-05
5.31354e-05
6.27786e-05
6.68846e-05
4.8014e-05
7.20549e-05
7.20584e-05
6.27755e-05
4.80199e-05
6.68885e-05
5.31361e-05
6.27776e-05
4.80165e-05
6.68855e-05
7.18566e-05
7.18691e-05
5.56986e-05
7.18531e-05
7.18656e-05
7.06766e-05
7.45121e-05
7.06737e-05
7.45145e-05
7.20584e-05
7.20629e-05
7.06809e-05
7.45179e-05
7.06778e-05
7.45201e-05
4.088e-05
4.08818e-05
4.08833e-05
4.08782e-05
4.08798e-05
4.08817e-05
4.08835e-05
6.27752e-05
6.68823e-05
4.80091e-05
5.31308e-05
6.27708e-05
6.68857e-05
4.80091e-05
7.20565e-05
7.20614e-05
6.27712e-05
4.80103e-05
6.68817e-05
5.31302e-05
6.27679e-05
4.80101e-05
6.6885e-05
7.18535e-05
7.18653e-05
5.56855e-05
7.18581e-05
7.18695e-05
7.06869e-05
7.45164e-05
7.06805e-05
7.45185e-05
7.20615e-05
7.20654e-05
7.06901e-05
7.45217e-05
7.06839e-05
7.45239e-05
4.08812e-05
4.08832e-05
4.08854e-05
4.08935e-05
4.0894e-05
4.08958e-05
4.08976e-05
6.27862e-05
6.68913e-05
4.80137e-05
5.31413e-05
6.27793e-05
6.68956e-05
4.80179e-05
7.20597e-05
7.20639e-05
6.2782e-05
4.8014e-05
6.68899e-05
5.31409e-05
6.27752e-05
4.80181e-05
6.6895e-05
7.18643e-05
7.18755e-05
5.57042e-05
7.18671e-05
7.18786e-05
7.06918e-05
7.45185e-05
7.06892e-05
7.45198e-05
7.20627e-05
7.20663e-05
7.06956e-05
7.45241e-05
7.06924e-05
7.45255e-05
4.08969e-05
4.08989e-05
4.09004e-05
4.08996e-05
4.09003e-05
4.09033e-05
4.09044e-05
6.27919e-05
6.68974e-05
4.80274e-05
5.31508e-05
6.27897e-05
6.6899e-05
4.80279e-05
7.20609e-05
7.20648e-05
6.27893e-05
4.80284e-05
6.68977e-05
5.31513e-05
6.27868e-05
4.8029e-05
6.69001e-05
7.18688e-05
7.18807e-05
5.57189e-05
7.18692e-05
7.18814e-05
7.06938e-05
7.45192e-05
7.06907e-05
7.45205e-05
7.20633e-05
7.20669e-05
7.06978e-05
7.4525e-05
7.06947e-05
7.45263e-05
4.09008e-05
4.09039e-05
4.09047e-05
4.09003e-05
4.09011e-05
4.0904e-05
4.09048e-05
6.27952e-05
6.68994e-05
4.80304e-05
5.31525e-05
6.27916e-05
6.69011e-05
4.80304e-05
7.20615e-05
7.20655e-05
6.27935e-05
4.80328e-05
6.69008e-05
5.31542e-05
6.27894e-05
4.80332e-05
6.69024e-05
7.18703e-05
7.18824e-05
5.57143e-05
7.18709e-05
7.18827e-05
7.06952e-05
7.45197e-05
7.06929e-05
7.45208e-05
7.20636e-05
7.20671e-05
7.06993e-05
7.45255e-05
7.06965e-05
7.45266e-05
4.09013e-05
4.0904e-05
4.09048e-05
4.09008e-05
4.0902e-05
4.09045e-05
4.09058e-05
6.27976e-05
6.6902e-05
4.803e-05
5.31535e-05
6.27925e-05
6.69034e-05
4.8031e-05
7.20618e-05
7.20656e-05
6.27928e-05
4.80318e-05
6.69018e-05
5.31538e-05
6.27895e-05
4.80317e-05
6.69039e-05
7.18731e-05
7.18848e-05
5.57081e-05
7.18729e-05
7.18851e-05
7.06942e-05
7.45193e-05
7.06932e-05
7.45202e-05
7.20628e-05
7.20667e-05
7.06982e-05
7.4525e-05
7.06969e-05
7.4526e-05
4.09019e-05
4.09045e-05
4.09057e-05
4.09001e-05
4.09007e-05
4.09034e-05
4.09042e-05
6.2794e-05
6.69014e-05
4.80317e-05
5.31525e-05
6.2794e-05
6.69009e-05
4.80297e-05
7.2061e-05
7.20651e-05
6.27931e-05
4.80337e-05
6.6903e-05
5.31544e-05
6.27926e-05
4.8033e-05
6.69022e-05
7.18724e-05
7.18846e-05
5.57216e-05
7.18708e-05
7.18827e-05
7.06925e-05
7.45185e-05
7.0691e-05
7.45198e-05
7.20622e-05
7.20667e-05
7.06964e-05
7.45243e-05
7.06947e-05
7.45256e-05
4.09005e-05
4.09031e-05
4.09039e-05
4.08985e-05
4.0899e-05
4.09014e-05
4.09026e-05
6.27939e-05
6.69007e-05
4.80295e-05
5.3151e-05
6.27919e-05
6.68993e-05
4.80288e-05
7.20602e-05
7.20651e-05
6.27892e-05
4.80302e-05
6.69005e-05
5.31512e-05
6.27875e-05
4.80291e-05
6.68999e-05
7.1872e-05
7.18836e-05
5.57117e-05
7.18701e-05
7.18819e-05
7.06919e-05
7.45179e-05
7.06904e-05
7.45198e-05
7.20614e-05
7.20672e-05
7.06953e-05
7.45237e-05
7.06936e-05
7.45256e-05
4.08988e-05
4.09012e-05
4.09025e-05
4.08971e-05
4.08979e-05
4.09002e-05
4.09014e-05
6.27924e-05
6.69002e-05
4.80279e-05
5.31492e-05
6.27899e-05
6.68986e-05
4.80273e-05
7.20594e-05
7.20655e-05
6.27884e-05
4.80293e-05
6.69001e-05
5.31496e-05
6.27878e-05
4.80283e-05
6.68987e-05
7.18721e-05
7.18841e-05
5.57056e-05
7.18684e-05
7.18805e-05
7.06909e-05
7.45176e-05
7.06894e-05
7.45206e-05
7.20605e-05
7.20686e-05
7.06947e-05
7.45235e-05
7.06929e-05
7.45265e-05
4.08978e-05
4.09002e-05
4.09013e-05
4.08958e-05
4.08967e-05
4.08992e-05
4.09003e-05
6.27915e-05
6.69004e-05
4.80276e-05
5.3148e-05
6.27902e-05
6.68958e-05
4.80265e-05
7.20586e-05
7.2067e-05
6.27895e-05
4.80291e-05
6.69014e-05
5.31488e-05
6.2788e-05
4.80281e-05
6.68971e-05
7.18735e-05
7.18855e-05
5.57041e-05
7.18678e-05
7.18799e-05
7.06921e-05
7.45176e-05
7.069e-05
7.45222e-05
7.20596e-05
7.20713e-05
7.06959e-05
7.45235e-05
7.06935e-05
7.45282e-05
4.08969e-05
4.08994e-05
4.09005e-05
4.08952e-05
4.08963e-05
4.08988e-05
4.08999e-05
6.2792e-05
6.69034e-05
4.80265e-05
5.31477e-05
6.2788e-05
6.68955e-05
4.80256e-05
7.20577e-05
7.20697e-05
6.27888e-05
4.80278e-05
6.69038e-05
5.31481e-05
6.27852e-05
4.80267e-05
6.68963e-05
7.18782e-05
7.18902e-05
5.57111e-05
7.18682e-05
7.18802e-05
7.06919e-05
7.45173e-05
7.06887e-05
7.4526e-05
7.20581e-05
7.20759e-05
7.0696e-05
7.45232e-05
7.06927e-05
7.45318e-05
4.08969e-05
4.08993e-05
4.09004e-05
4.08952e-05
4.08964e-05
4.08987e-05
4.08998e-05
6.27901e-05
6.69095e-05
4.80277e-05
5.31473e-05
6.27906e-05
6.68918e-05
4.80254e-05
7.20563e-05
7.20744e-05
6.27877e-05
4.80289e-05
6.691e-05
5.31478e-05
6.27884e-05
4.80266e-05
6.6892e-05
7.18849e-05
7.18968e-05
5.57159e-05
7.18661e-05
7.1878e-05
7.06949e-05
7.45174e-05
7.06897e-05
7.45321e-05
7.20549e-05
7.20813e-05
7.06981e-05
7.4523e-05
7.06929e-05
7.45376e-05
4.08976e-05
4.09e-05
4.0901e-05
4.08952e-05
4.08963e-05
4.08988e-05
4.08998e-05
6.27929e-05
6.69233e-05
4.80287e-05
5.31482e-05
6.27926e-05
6.68857e-05
4.80262e-05
7.20537e-05
7.20805e-05
6.27902e-05
4.80293e-05
6.69232e-05
5.31486e-05
6.2789e-05
4.8027e-05
6.68856e-05
7.18908e-05
7.19025e-05
5.57126e-05
7.18555e-05
7.18671e-05
7.06937e-05
7.45124e-05
7.06855e-05
7.45388e-05
7.20467e-05
7.20856e-05
7.06974e-05
7.45176e-05
7.06894e-05
7.45439e-05
4.08981e-05
4.09005e-05
4.09016e-05
4.08833e-05
4.08844e-05
4.08866e-05
4.08879e-05
6.27866e-05
6.69468e-05
4.80298e-05
5.31474e-05
6.27937e-05
6.68622e-05
4.8025e-05
7.20463e-05
7.20854e-05
6.27834e-05
4.80308e-05
6.69456e-05
5.31479e-05
6.27915e-05
4.80259e-05
6.68606e-05
7.18872e-05
7.18988e-05
5.57069e-05
7.18224e-05
7.18342e-05
7.06667e-05
7.44984e-05
7.06676e-05
7.45524e-05
7.20305e-05
7.2089e-05
7.06692e-05
7.45031e-05
7.06704e-05
7.45571e-05
4.08867e-05
4.08889e-05
4.08901e-05
4.04983e-05
4.04998e-05
4.04997e-05
4.05015e-05
6.27283e-05
6.69842e-05
4.80226e-05
5.31364e-05
6.27947e-05
6.67836e-05
4.79686e-05
7.20306e-05
7.20891e-05
6.27278e-05
4.80242e-05
6.69828e-05
5.31369e-05
6.27926e-05
4.79696e-05
6.67821e-05
7.18579e-05
7.18701e-05
5.56785e-05
7.17288e-05
7.17409e-05
6.67677e-05
7.43466e-05
7.04664e-05
7.54705e-05
7.20569e-05
6.71021e-05
6.67698e-05
7.43497e-05
7.04684e-05
7.54758e-05
2.75404e-05
3.41273e-05
3.41258e-05
4.22263e-05
2.79552e-05
3.52168e-05
3.52159e-05
6.25105e-05
6.66879e-05
4.77645e-05
5.04853e-05
6.25305e-05
6.82736e-05
4.54921e-05
7.20568e-05
6.71016e-05
6.25072e-05
4.77655e-05
6.66854e-05
5.04839e-05
6.25304e-05
4.54921e-05
6.82705e-05
7.11871e-05
7.11985e-05
5.47782e-05
7.25181e-05
7.25285e-05
7.2063e-05
7.20593e-05
7.20656e-05
7.20618e-05
5.57305e-05
7.18664e-05
7.18763e-05
7.18655e-05
7.18752e-05
7.06865e-05
7.45183e-05
7.45168e-05
7.06891e-05
7.06884e-05
7.45233e-05
7.45217e-05
7.0691e-05
6.2783e-05
5.31422e-05
6.68946e-05
4.80198e-05
6.68928e-05
4.80192e-05
6.27864e-05
6.27844e-05
5.31428e-05
6.68991e-05
4.80208e-05
6.6897e-05
4.80202e-05
6.27879e-05
7.20653e-05
7.20614e-05
5.57314e-05
7.18768e-05
7.1865e-05
7.18754e-05
7.18634e-05
7.20621e-05
7.20579e-05
7.06897e-05
7.45239e-05
7.45223e-05
7.06928e-05
6.27849e-05
5.31422e-05
6.68986e-05
4.80213e-05
6.68967e-05
4.80207e-05
6.27888e-05
7.06877e-05
7.45186e-05
7.45169e-05
7.06908e-05
6.27832e-05
5.3142e-05
4.80217e-05
6.68935e-05
4.80211e-05
6.68915e-05
6.2787e-05
6.27867e-05
5.31448e-05
6.68969e-05
4.8023e-05
6.68947e-05
4.80223e-05
6.27907e-05
7.06903e-05
7.4523e-05
7.45214e-05
7.06933e-05
6.27853e-05
5.31456e-05
4.80238e-05
6.68962e-05
4.80231e-05
6.68938e-05
6.27893e-05
7.06886e-05
7.452e-05
7.45184e-05
7.06916e-05
7.20638e-05
7.20595e-05
5.57308e-05
7.187e-05
7.18676e-05
7.18687e-05
7.18663e-05
7.2064e-05
7.20603e-05
6.27859e-05
5.31456e-05
4.8025e-05
6.68976e-05
4.80243e-05
6.68953e-05
6.27898e-05
6.27872e-05
5.31462e-05
4.80257e-05
6.69019e-05
4.80251e-05
6.68996e-05
6.27912e-05
7.06888e-05
7.45209e-05
7.45193e-05
7.06913e-05
7.06913e-05
7.45244e-05
7.45228e-05
7.06939e-05
5.57325e-05
7.1867e-05
7.18789e-05
7.18654e-05
7.18774e-05
7.20634e-05
7.20596e-05
7.20664e-05
7.20626e-05
7.206e-05
7.20637e-05
7.20627e-05
7.20664e-05
7.18666e-05
7.18766e-05
5.56963e-05
7.18691e-05
7.18793e-05
7.20641e-05
7.20607e-05
7.20668e-05
7.20633e-05
5.57169e-05
7.18709e-05
7.18813e-05
7.18693e-05
7.18797e-05
7.06929e-05
7.45225e-05
7.06893e-05
7.45242e-05
6.27863e-05
6.68936e-05
4.802e-05
5.31422e-05
6.2784e-05
6.68964e-05
4.80199e-05
6.27878e-05
6.68981e-05
4.8021e-05
5.31431e-05
6.27854e-05
6.69012e-05
4.8021e-05
7.06895e-05
7.45199e-05
7.45184e-05
7.06936e-05
7.06915e-05
7.45249e-05
7.45234e-05
7.06957e-05
6.27844e-05
5.31434e-05
6.68991e-05
4.80219e-05
6.68958e-05
4.80202e-05
6.27902e-05
6.2786e-05
5.31447e-05
6.6904e-05
4.80232e-05
6.69006e-05
4.80214e-05
6.27918e-05
7.18771e-05
7.1866e-05
5.56976e-05
7.18798e-05
7.18675e-05
7.20589e-05
7.20628e-05
7.20663e-05
7.20629e-05
5.57192e-05
7.18815e-05
7.18695e-05
7.18801e-05
7.18685e-05
7.20631e-05
7.20594e-05
6.27892e-05
6.68977e-05
4.80216e-05
5.31423e-05
6.27864e-05
6.69008e-05
4.80217e-05
7.0693e-05
7.45178e-05
7.0689e-05
7.45196e-05
6.27875e-05
4.80221e-05
6.68928e-05
5.31425e-05
6.27847e-05
4.80222e-05
6.68958e-05
7.06934e-05
7.45257e-05
7.45242e-05
7.06979e-05
6.27873e-05
5.31437e-05
6.69037e-05
4.80242e-05
6.69003e-05
4.80221e-05
6.27934e-05
7.06916e-05
7.45204e-05
7.45189e-05
7.0696e-05
6.27856e-05
5.31441e-05
4.80248e-05
6.68987e-05
4.80227e-05
6.68955e-05
6.27917e-05
7.0695e-05
7.45222e-05
7.06916e-05
7.45238e-05
6.27893e-05
4.80242e-05
6.68953e-05
5.31461e-05
6.27869e-05
4.80243e-05
6.68983e-05
7.06934e-05
7.45193e-05
7.06899e-05
7.45208e-05
6.27887e-05
5.31469e-05
6.69014e-05
4.80255e-05
6.68985e-05
4.80238e-05
6.2794e-05
7.06936e-05
7.45243e-05
7.4523e-05
7.06971e-05
6.27874e-05
5.31477e-05
4.80263e-05
6.69006e-05
4.80246e-05
6.68976e-05
6.27927e-05
7.06919e-05
7.45213e-05
7.452e-05
7.06955e-05
7.1871e-05
7.18679e-05
5.56974e-05
7.18725e-05
7.18703e-05
7.2061e-05
7.20647e-05
7.2065e-05
7.20612e-05
5.5718e-05
7.1875e-05
7.18718e-05
7.18736e-05
7.18706e-05
7.2065e-05
7.20616e-05
6.27911e-05
4.80261e-05
6.69009e-05
5.31466e-05
6.27889e-05
4.80262e-05
6.69039e-05
7.06927e-05
7.45202e-05
7.06898e-05
7.45218e-05
7.06953e-05
7.45236e-05
7.06923e-05
7.45251e-05
6.27878e-05
5.31476e-05
4.80275e-05
6.6902e-05
4.80258e-05
6.68989e-05
6.27929e-05
6.27892e-05
5.31482e-05
4.80282e-05
6.69061e-05
4.80266e-05
6.69032e-05
6.27943e-05
7.06914e-05
7.45223e-05
7.4521e-05
7.06944e-05
7.0694e-05
7.45256e-05
7.45243e-05
7.0697e-05
7.20604e-05
7.2064e-05
7.20634e-05
7.2067e-05
5.572e-05
7.18712e-05
7.18829e-05
7.18702e-05
7.18818e-05
7.20642e-05
7.20609e-05
7.20672e-05
7.20639e-05
7.2061e-05
7.20644e-05
7.20637e-05
7.20671e-05
7.18709e-05
7.18813e-05
5.57178e-05
7.18719e-05
7.18823e-05
7.20645e-05
7.20613e-05
7.20671e-05
7.20639e-05
5.57335e-05
7.18734e-05
7.18835e-05
7.1872e-05
7.18823e-05
7.06973e-05
7.45241e-05
7.06941e-05
7.45253e-05
6.27932e-05
6.68982e-05
4.80242e-05
5.31481e-05
6.2789e-05
6.69004e-05
4.80251e-05
6.27948e-05
6.69031e-05
4.80254e-05
5.31492e-05
6.27906e-05
6.69051e-05
4.80262e-05
7.06933e-05
7.45206e-05
7.45195e-05
7.06961e-05
7.06954e-05
7.45254e-05
7.45243e-05
7.06981e-05
6.27908e-05
5.3148e-05
6.69015e-05
4.8025e-05
6.68993e-05
4.80251e-05
6.27926e-05
6.27924e-05
5.31489e-05
6.69058e-05
4.80261e-05
6.69039e-05
4.80263e-05
6.27942e-05
7.18814e-05
7.18698e-05
5.57187e-05
7.18822e-05
7.18697e-05
7.20596e-05
7.20631e-05
7.20665e-05
7.20633e-05
5.5734e-05
7.18831e-05
7.18699e-05
7.18821e-05
7.18699e-05
7.20631e-05
7.20596e-05
6.27962e-05
6.6903e-05
4.80264e-05
5.31485e-05
6.27921e-05
6.69051e-05
4.80272e-05
7.06974e-05
7.45195e-05
7.06943e-05
7.45207e-05
6.27945e-05
4.8027e-05
6.68981e-05
5.31486e-05
6.27904e-05
4.80277e-05
6.68999e-05
7.06972e-05
7.45262e-05
7.45251e-05
7.06999e-05
6.27936e-05
5.31485e-05
6.6906e-05
4.80271e-05
6.6904e-05
4.80272e-05
6.27953e-05
7.06954e-05
7.45207e-05
7.45197e-05
7.0698e-05
6.27919e-05
5.31484e-05
4.80275e-05
6.69005e-05
4.80277e-05
6.68989e-05
6.27936e-05
7.06979e-05
7.45234e-05
7.06954e-05
7.45245e-05
6.27946e-05
4.80282e-05
6.68996e-05
5.31517e-05
6.27912e-05
4.80287e-05
6.69011e-05
7.06962e-05
7.45204e-05
7.06938e-05
7.45214e-05
6.27934e-05
5.31506e-05
6.69025e-05
4.80274e-05
6.6901e-05
4.80278e-05
6.27947e-05
7.06958e-05
7.45246e-05
7.45235e-05
7.06982e-05
6.27919e-05
5.31512e-05
4.80281e-05
6.69014e-05
4.80286e-05
6.68998e-05
6.27933e-05
7.06942e-05
7.45214e-05
7.45204e-05
7.06964e-05
7.18755e-05
7.18717e-05
5.57186e-05
7.18757e-05
7.18724e-05
7.20619e-05
7.20651e-05
7.20651e-05
7.20616e-05
5.5734e-05
7.18762e-05
7.18734e-05
7.1876e-05
7.18723e-05
7.20652e-05
7.2062e-05
6.27957e-05
4.803e-05
6.6905e-05
5.3152e-05
6.27929e-05
4.80304e-05
6.69065e-05
7.06946e-05
7.45214e-05
7.06928e-05
7.45224e-05
7.06971e-05
7.45246e-05
7.06954e-05
7.45256e-05
6.27918e-05
5.31512e-05
4.80291e-05
6.69032e-05
4.80296e-05
6.69014e-05
6.27928e-05
6.2793e-05
5.31515e-05
4.80297e-05
6.69067e-05
4.80302e-05
6.69051e-05
6.2794e-05
7.06927e-05
7.45224e-05
7.45214e-05
7.06943e-05
7.06952e-05
7.45256e-05
7.45246e-05
7.06967e-05
7.20611e-05
7.20643e-05
7.20641e-05
7.20673e-05
5.57362e-05
7.1872e-05
7.18837e-05
7.18713e-05
7.18829e-05
7.20643e-05
7.20611e-05
7.20674e-05
7.20641e-05
7.20614e-05
7.20645e-05
7.20639e-05
7.20671e-05
7.18735e-05
7.18835e-05
5.57129e-05
7.18747e-05
7.18846e-05
7.20644e-05
7.20614e-05
7.20669e-05
7.20638e-05
5.57354e-05
7.1876e-05
7.18858e-05
7.18748e-05
7.18846e-05
7.06988e-05
7.45244e-05
7.06963e-05
7.45253e-05
6.27945e-05
6.69006e-05
4.80251e-05
5.31502e-05
6.27904e-05
6.69029e-05
4.80261e-05
6.27959e-05
6.69047e-05
4.80262e-05
5.31504e-05
6.27919e-05
6.69067e-05
4.80271e-05
7.06948e-05
7.45203e-05
7.45195e-05
7.06965e-05
7.06967e-05
7.45249e-05
7.45242e-05
7.06984e-05
6.27926e-05
5.3151e-05
6.69032e-05
4.80269e-05
6.69017e-05
4.80269e-05
6.27946e-05
6.2794e-05
5.31511e-05
6.69066e-05
4.80277e-05
6.69054e-05
4.80278e-05
6.2796e-05
7.1883e-05
7.18702e-05
5.57113e-05
7.18839e-05
7.18704e-05
7.20596e-05
7.20631e-05
7.20661e-05
7.20631e-05
5.5734e-05
7.18846e-05
7.18727e-05
7.18837e-05
7.18709e-05
7.20632e-05
7.20596e-05
6.27969e-05
6.69051e-05
4.80272e-05
5.31506e-05
6.27929e-05
6.6907e-05
4.80282e-05
7.06982e-05
7.45197e-05
7.06959e-05
7.45206e-05
6.27952e-05
4.80276e-05
6.68997e-05
5.31503e-05
6.27912e-05
4.80286e-05
6.69014e-05
7.06978e-05
7.45257e-05
7.4525e-05
7.06997e-05
6.27948e-05
5.31513e-05
6.69071e-05
4.80287e-05
6.69058e-05
4.80288e-05
6.27967e-05
7.06959e-05
7.45204e-05
7.45196e-05
7.06978e-05
6.27931e-05
5.31512e-05
4.80292e-05
6.69018e-05
4.80293e-05
6.69004e-05
6.27949e-05
7.06988e-05
7.45236e-05
7.06963e-05
7.45246e-05
6.27949e-05
4.80281e-05
6.69003e-05
5.31521e-05
6.27909e-05
4.80287e-05
6.69024e-05
7.0697e-05
7.45204e-05
7.06945e-05
7.45214e-05
6.27945e-05
5.31526e-05
6.69039e-05
4.80288e-05
6.69024e-05
4.80289e-05
6.27969e-05
7.06968e-05
7.45244e-05
7.45235e-05
7.06988e-05
6.2793e-05
5.31531e-05
4.80295e-05
6.69028e-05
4.80295e-05
6.69012e-05
6.27954e-05
7.0695e-05
7.45213e-05
7.45204e-05
7.0697e-05
7.18765e-05
7.18733e-05
5.57117e-05
7.18766e-05
7.18744e-05
7.2062e-05
7.20652e-05
7.20652e-05
7.20615e-05
5.57345e-05
7.18788e-05
7.18756e-05
7.1877e-05
7.18744e-05
7.20651e-05
7.2062e-05
6.27953e-05
4.80297e-05
6.69056e-05
5.31524e-05
6.27917e-05
4.80303e-05
6.69076e-05
7.06945e-05
7.45214e-05
7.06926e-05
7.45223e-05
7.06966e-05
7.45246e-05
7.06949e-05
7.45256e-05
6.27923e-05
5.31537e-05
4.80305e-05
6.69045e-05
4.80306e-05
6.69029e-05
6.27944e-05
6.27935e-05
5.31534e-05
4.8031e-05
6.69082e-05
4.80311e-05
6.69065e-05
6.27956e-05
7.06927e-05
7.45222e-05
7.45214e-05
7.06944e-05
7.06948e-05
7.45256e-05
7.45246e-05
7.06962e-05
7.20612e-05
7.20644e-05
7.20642e-05
7.20674e-05
5.57343e-05
7.18744e-05
7.18863e-05
7.18731e-05
7.18848e-05
7.20643e-05
7.20612e-05
7.20674e-05
7.20643e-05
7.20611e-05
7.20637e-05
7.20636e-05
7.20663e-05
7.18762e-05
7.1886e-05
5.57086e-05
7.18777e-05
7.18875e-05
7.20622e-05
7.20603e-05
7.20648e-05
7.20628e-05
5.57257e-05
7.18772e-05
7.18868e-05
7.18777e-05
7.18874e-05
7.06979e-05
7.45238e-05
7.06962e-05
7.45243e-05
6.27923e-05
6.69019e-05
4.80259e-05
5.31497e-05
6.27916e-05
6.69033e-05
4.80248e-05
6.27936e-05
6.69052e-05
4.80266e-05
5.31494e-05
6.27929e-05
6.69065e-05
4.80256e-05
7.06938e-05
7.4518e-05
7.45183e-05
7.06944e-05
7.06956e-05
7.45229e-05
7.4523e-05
7.06963e-05
6.27897e-05
5.31497e-05
6.69019e-05
4.80248e-05
6.69019e-05
4.80247e-05
6.2792e-05
6.27911e-05
5.31494e-05
6.69054e-05
4.80256e-05
6.69051e-05
4.80255e-05
6.27934e-05
7.18845e-05
7.1874e-05
5.57082e-05
7.18857e-05
7.18755e-05
7.20596e-05
7.20625e-05
7.20643e-05
7.20621e-05
5.57245e-05
7.18854e-05
7.18732e-05
7.18856e-05
7.18757e-05
7.20608e-05
7.20587e-05
6.27944e-05
6.69058e-05
4.80275e-05
5.31498e-05
6.27934e-05
6.69072e-05
4.80264e-05
7.06975e-05
7.45193e-05
7.06954e-05
7.45198e-05
6.27927e-05
4.8028e-05
6.69008e-05
5.31495e-05
6.27917e-05
4.80269e-05
6.69025e-05
7.0697e-05
7.45236e-05
7.45238e-05
7.06982e-05
6.27919e-05
5.31498e-05
6.6906e-05
4.80264e-05
6.6906e-05
4.80263e-05
6.27946e-05
7.06952e-05
7.45184e-05
7.45185e-05
7.06963e-05
6.27902e-05
5.31494e-05
4.80269e-05
6.69016e-05
4.80267e-05
6.69015e-05
6.27929e-05
7.06986e-05
7.45232e-05
7.06967e-05
7.45237e-05
6.27934e-05
4.80286e-05
6.69015e-05
5.31519e-05
6.27924e-05
4.80277e-05
6.69032e-05
7.06969e-05
7.45202e-05
7.0695e-05
7.45207e-05
6.27923e-05
5.3151e-05
6.69027e-05
4.80267e-05
6.6903e-05
4.80267e-05
6.27945e-05
7.06963e-05
7.45221e-05
7.45223e-05
7.06969e-05
6.27909e-05
5.31519e-05
4.80276e-05
6.6902e-05
4.80275e-05
6.69019e-05
6.27932e-05
7.06947e-05
7.45192e-05
7.45194e-05
7.06952e-05
7.18803e-05
7.18758e-05
5.57104e-05
7.18824e-05
7.18776e-05
7.20618e-05
7.20646e-05
7.20629e-05
7.20608e-05
5.57261e-05
7.18811e-05
7.18776e-05
7.18829e-05
7.18776e-05
7.20632e-05
7.20611e-05
6.27939e-05
4.80301e-05
6.6907e-05
5.31524e-05
6.27928e-05
4.80293e-05
6.69089e-05
7.06945e-05
7.45212e-05
7.06926e-05
7.45218e-05
7.06961e-05
7.45246e-05
7.06944e-05
7.45252e-05
6.27906e-05
5.31522e-05
4.80288e-05
6.69041e-05
4.80286e-05
6.69037e-05
6.27932e-05
6.27917e-05
5.31525e-05
4.80295e-05
6.69082e-05
4.80293e-05
6.69077e-05
6.27942e-05
7.06927e-05
7.45204e-05
7.45205e-05
7.06934e-05
7.06943e-05
7.45239e-05
7.4524e-05
7.06948e-05
7.2061e-05
7.20638e-05
7.20642e-05
7.2067e-05
5.57275e-05
7.18762e-05
7.18885e-05
7.18765e-05
7.18885e-05
7.20623e-05
7.20603e-05
7.20656e-05
7.20635e-05
7.20585e-05
7.206e-05
7.20611e-05
7.20627e-05
7.18754e-05
7.18849e-05
5.57111e-05
7.18696e-05
7.18793e-05
7.20582e-05
7.20563e-05
7.20611e-05
7.2059e-05
5.57248e-05
7.18597e-05
7.18701e-05
7.18662e-05
7.18762e-05
7.06922e-05
7.45215e-05
7.06934e-05
7.45209e-05
6.27876e-05
6.68997e-05
4.80247e-05
5.31473e-05
6.27892e-05
6.68963e-05
4.80236e-05
6.27891e-05
6.69032e-05
4.80256e-05
5.31479e-05
6.27906e-05
6.69006e-05
4.80245e-05
7.06868e-05
7.45136e-05
7.45142e-05
7.06846e-05
7.06888e-05
7.4519e-05
7.45194e-05
7.06868e-05
6.27833e-05
5.31437e-05
6.68886e-05
4.80169e-05
6.68933e-05
4.80204e-05
6.27802e-05
6.27848e-05
5.31448e-05
6.68943e-05
4.80182e-05
6.68979e-05
4.80216e-05
6.27818e-05
7.18842e-05
7.18721e-05
5.5714e-05
7.18798e-05
7.18649e-05
7.20568e-05
7.20587e-05
7.20609e-05
7.20588e-05
5.57274e-05
7.18716e-05
7.18556e-05
7.18771e-05
7.18634e-05
7.20572e-05
7.20547e-05
6.27904e-05
6.6904e-05
4.80264e-05
5.31477e-05
6.27917e-05
6.69006e-05
4.80256e-05
7.06922e-05
7.45169e-05
7.06933e-05
7.45161e-05
6.27888e-05
4.80269e-05
6.68997e-05
5.31481e-05
6.279e-05
4.80261e-05
6.6896e-05
7.06904e-05
7.45194e-05
7.45199e-05
7.06884e-05
6.27861e-05
5.31443e-05
6.68932e-05
4.80193e-05
6.68978e-05
4.80227e-05
6.27832e-05
7.06886e-05
7.45139e-05
7.45145e-05
7.06865e-05
6.27844e-05
5.31448e-05
4.80199e-05
6.68876e-05
4.80234e-05
6.68929e-05
6.27815e-05
7.06923e-05
7.45206e-05
7.06939e-05
7.45199e-05
6.27882e-05
4.80276e-05
6.68999e-05
5.31504e-05
6.27902e-05
4.80265e-05
6.68967e-05
7.06906e-05
7.45177e-05