/*--------------------------------*- C++ -*----------------------------------*\
| =========                 |                                                 |
| \\      /  F ield         | OpenFOAM: The Open Source CFD Toolbox           |
|  \\    /   O peration     | Version:  v1906                                 |
|   \\  /    A nd           | Web:      www.OpenFOAM.com                      |
|    \\/     M anipulation  |                                                 |
\*---------------------------------------------------------------------------*/
FoamFile
{
    version     2.0;
    format      ascii;
    class       volScalarField;
    location    "250";
    object      p;
}
// * * * * * * * * * * * * * * * * * * * * * * * * * * * * * * * * * * * * * //

dimensions      [0 2 -2 0 0 0 0];


internalField   nonuniform List<scalar> 
42616
(
0.000729348
0.00072932
0.000729319
0.000731407
0.000692766
0.000692739
0.000692739
0.000694826
0.000656178
0.00065615
0.00065615
0.000658238
0.000619585
0.000619556
0.000619556
0.000621645
0.000582986
0.000582959
0.00058296
0.000585048
0.00054639
0.000546364
0.000546364
0.000548453
0.000509812
0.000509785
0.000509784
0.000511872
0.000473246
0.000473215
0.000473215
0.000475301
0.00043667
0.000436641
0.000436642
0.000438728
0.000400091
0.000400064
0.000400064
0.000402151
0.000363507
0.000363479
0.000363478
0.000365565
0.00032692
0.000326891
0.000326892
0.000328979
0.000290332
0.000290306
0.000290305
0.000292392
0.000253745
0.000253718
0.000253717
0.000255803
0.000217159
0.000217132
0.000217132
0.000219215
0.000180574
0.000180549
0.000180548
0.000182628
0.000143989
0.000143963
0.000143962
0.000146038
0.000107399
0.000107378
0.000107377
0.000109438
7.08128e-05
7.07798e-05
7.07785e-05
7.28074e-05
3.49676e-05
3.43842e-05
3.43814e-05
3.62631e-05
6.15795e-06
7.3214e-06
7.31944e-06
5.31359e-06
0.000736389
0.000738465
0.000738465
0.00073639
0.000738465
0.000738465
0.000738465
0.000738465
0.000736389
0.000738465
0.000738465
0.000736389
0.000731406
0.00069981
0.000729319
0.000729319
0.000701886
0.000701886
0.000731406
0.00069981
0.000729319
0.000729319
0.000701886
0.000701886
0.00072932
0.000701886
0.000701886
0.000731407
0.00069981
0.000729319
0.000701886
0.000701886
0.000699809
0.000694826
0.000663221
0.000692739
0.000692739
0.000665295
0.000665295
0.000694825
0.000663221
0.000692739
0.000692739
0.000665295
0.000665295
0.000692739
0.000665295
0.000665295
0.000694826
0.000663221
0.000692738
0.000665295
0.000665295
0.000663221
0.000658238
0.00062663
0.00065615
0.00065615
0.000628706
0.000628706
0.000658237
0.000626631
0.00065615
0.00065615
0.000628705
0.000628706
0.00065615
0.000628706
0.000628706
0.000658238
0.000626631
0.00065615
0.000628706
0.000628706
0.000626631
0.000621644
0.000590034
0.000619556
0.000619556
0.000592111
0.000592111
0.000621644
0.000590035
0.000619555
0.000619556
0.000592111
0.000592111
0.000619556
0.000592111
0.000592111
0.000621645
0.000590035
0.000619556
0.000592111
0.000592111
0.000590034
0.000585048
0.000553436
0.00058296
0.00058296
0.00055551
0.000555511
0.000585048
0.000553437
0.000582959
0.00058296
0.00055551
0.00055551
0.00058296
0.00055551
0.000555511
0.000585048
0.000553436
0.00058296
0.00055551
0.00055551
0.000553436
0.000548452
0.000516853
0.000546364
0.000546364
0.000518926
0.000518926
0.000548452
0.000516853
0.000546364
0.000546364
0.000518926
0.000518926
0.000546364
0.000518926
0.000518927
0.000548452
0.000516853
0.000546364
0.000518926
0.000518926
0.000516853
0.000511872
0.000480283
0.000509784
0.000509784
0.000482358
0.000482358
0.000511871
0.000480283
0.000509784
0.000509784
0.000482358
0.000482358
0.000509785
0.000482358
0.000482358
0.000511871
0.000480283
0.000509784
0.000482358
0.000482358
0.000480283
0.000475301
0.000443711
0.000473215
0.000473215
0.000445787
0.000445787
0.0004753
0.000443711
0.000473215
0.000473215
0.000445787
0.000445787
0.000473215
0.000445786
0.000445786
0.000475301
0.000443711
0.000473215
0.000445787
0.000445787
0.000443711
0.000438728
0.000407133
0.000436642
0.000436642
0.000409207
0.000409207
0.000438727
0.000407134
0.000436642
0.000436642
0.000409207
0.000409207
0.000436642
0.000409208
0.000409208
0.000438728
0.000407133
0.000436642
0.000409207
0.000409208
0.000407133
0.00040215
0.00037055
0.000400063
0.000400064
0.000372625
0.000372625
0.000402151
0.00037055
0.000400064
0.000400064
0.000372625
0.000372625
0.000400064
0.000372624
0.000372624
0.00040215
0.00037055
0.000400064
0.000372624
0.000372624
0.000370549
0.000365565
0.000333965
0.000363478
0.000363478
0.00033604
0.00033604
0.000365565
0.000333965
0.000363478
0.000363478
0.000336039
0.000336039
0.000363479
0.000336039
0.000336039
0.000365565
0.000333965
0.000363478
0.00033604
0.00033604
0.000333965
0.000328979
0.000297376
0.000326892
0.000326892
0.00029945
0.00029945
0.000328978
0.000297377
0.000326892
0.000326892
0.000299449
0.000299449
0.000326892
0.000299451
0.00029945
0.000328979
0.000297376
0.000326892
0.000299449
0.000299449
0.000297376
0.000292392
0.000260788
0.000290305
0.000290305
0.000262863
0.000262863
0.000292392
0.000260788
0.000290304
0.000290304
0.000262862
0.000262862
0.000290306
0.000262862
0.000262862
0.000292392
0.000260788
0.000290305
0.000262863
0.000262863
0.000260788
0.000255803
0.000224203
0.000253717
0.000253717
0.000226277
0.000226277
0.000255802
0.000224203
0.000253717
0.000253717
0.000226277
0.000226277
0.000253718
0.000226276
0.000226277
0.000255803
0.000224203
0.000253717
0.000226277
0.000226277
0.000224202
0.000219215
0.000187618
0.000217132
0.000217132
0.000189691
0.000189691
0.000219215
0.000187619
0.000217132
0.000217132
0.000189691
0.000189691
0.000217133
0.00018969
0.000189691
0.000219216
0.000187618
0.000217132
0.00018969
0.000189691
0.000187619
0.000182628
0.000151036
0.000180548
0.000180549
0.000153105
0.000153105
0.000182629
0.000151036
0.000180548
0.000180548
0.000153105
0.000153105
0.000180548
0.000153105
0.000153106
0.000182628
0.000151035
0.000180548
0.000153106
0.000153106
0.000151036
0.000146038
0.000114452
0.000143963
0.000143963
0.000116517
0.000116518
0.000146037
0.000114453
0.000143963
0.000143962
0.000116517
0.000116518
0.000143963
0.000116518
0.000116517
0.000146036
0.000114452
0.000143963
0.000116517
0.000116517
0.000114452
0.000109438
7.78576e-05
0.000107377
0.000107378
7.99197e-05
7.99195e-05
0.000109438
7.78587e-05
0.000107377
0.000107377
7.99198e-05
7.99192e-05
0.000107377
7.99192e-05
7.99189e-05
0.000109437
7.78571e-05
0.000107377
7.99186e-05
7.99187e-05
7.78568e-05
7.28084e-05
4.12923e-05
7.07802e-05
7.07801e-05
4.33552e-05
4.33555e-05
7.28083e-05
4.12935e-05
7.07796e-05
7.07792e-05
4.33533e-05
4.33522e-05
7.0779e-05
4.33542e-05
4.33521e-05
7.28082e-05
4.12896e-05
7.07787e-05
4.33518e-05
4.33509e-05
4.12892e-05
3.62673e-05
8.6093e-06
3.43861e-05
3.43862e-05
1.17862e-05
1.1786e-05
3.62673e-05
8.6087e-06
3.43846e-05
3.43825e-05
1.17885e-05
1.17804e-05
3.43811e-05
1.17865e-05
1.17786e-05
3.62643e-05
8.60457e-06
3.43806e-05
1.17842e-05
1.17842e-05
8.60327e-06
5.3182e-06
7.32014e-06
7.31985e-06
5.3184e-06
7.32195e-06
7.3156e-06
6.15715e-06
6.15666e-06
6.1555e-06
7.31495e-06
5.31515e-06
7.31871e-06
0.000738493
0.000738493
0.000738493
0.000738493
0.000717918
0.000731607
0.000731604
0.000717913
0.000731606
0.000717913
0.000717917
0.000731606
0.000731604
0.000717913
0.000729348
0.000729349
0.000729348
0.000701913
0.000701912
0.000701913
0.000701912
0.000717973
0.000731576
0.000729327
0.000720175
0.000731553
0.000717944
0.00072018
0.000731606
0.000717913
0.000717973
0.000729327
0.000731576
0.000720175
0.000731553
0.00072018
0.000717944
0.00073161
0.00073161
0.000718101
0.00071791
0.00071791
0.000681332
0.000695022
0.000695019
0.000681328
0.000695021
0.000681329
0.000681332
0.000695022
0.00069502
0.000681328
0.000692766
0.000692766
0.000692765
0.000665325
0.000665325
0.000665325
0.000665324
0.000681386
0.000694992
0.000692747
0.00068359
0.000694967
0.000681359
0.000683598
0.000695021
0.000681329
0.000681386
0.000692747
0.000694992
0.00068359
0.000694967
0.000683598
0.000681359
0.000695026
0.000695026
0.000681514
0.000681326
0.000681326
0.000644742
0.000658436
0.000658434
0.000644738
0.000658435
0.000644739
0.000644742
0.000658436
0.000658434
0.000644738
0.000656178
0.000656178
0.000656177
0.000628734
0.000628734
0.000628734
0.000628734
0.000644795
0.000658406
0.000656156
0.000647004
0.000658384
0.000644768
0.000647011
0.000658435
0.000644739
0.000644795
0.000656156
0.000658406
0.000647004
0.000658383
0.000647011
0.000644768
0.000658439
0.000658439
0.000644929
0.000644735
0.000644735
0.000608151
0.000621845
0.000621843
0.000608146
0.000621844
0.000608147
0.000608151
0.000621845
0.000621844
0.000608146
0.000619585
0.000619586
0.000619585
0.000592136
0.000592137
0.000592136
0.000592135
0.000608205
0.000621815
0.000619562
0.000610407
0.000621793
0.000608177
0.000610413
0.000621844
0.000608147
0.000608205
0.000619562
0.000621816
0.000610407
0.000621793
0.000610414
0.000608177
0.000621848
0.000621848
0.000608332
0.000608144
0.000608144
0.000571554
0.000585248
0.000585245
0.00057155
0.000585247
0.000571552
0.000571554
0.000585248
0.000585245
0.00057155
0.000582987
0.000582986
0.000582985
0.000555537
0.000555537
0.000555537
0.000555537
0.000571607
0.000585217
0.000582967
0.000573807
0.000585192
0.00057158
0.000573814
0.000585247
0.000571552
0.000571607
0.000582967
0.000585217
0.000573807
0.000585191
0.000573814
0.00057158
0.000585251
0.000585251
0.000571732
0.000571548
0.000571548
0.000534962
0.000548655
0.000548652
0.000534958
0.000548654
0.00053496
0.000534962
0.000548655
0.000548652
0.000534958
0.00054639
0.000546389
0.000546389
0.000518955
0.000518955
0.000518955
0.000518954
0.000535014
0.000548623
0.00054637
0.000537217
0.000548599
0.000534988
0.000537225
0.000548655
0.00053496
0.000535014
0.00054637
0.000548624
0.000537217
0.000548599
0.000537224
0.000534988
0.000548658
0.000548658
0.000535143
0.000534956
0.000534957
0.000498384
0.000512072
0.000512069
0.000498379
0.000512071
0.00049838
0.000498383
0.000512071
0.000512069
0.000498379
0.000509812
0.000509812
0.000509811
0.000482387
0.000482387
0.000482387
0.000482387
0.000498436
0.00051204
0.000509791
0.000500644
0.000512018
0.00049841
0.00050065
0.00051207
0.00049838
0.000498436
0.00050979
0.000512041
0.000500644
0.000512018
0.00050065
0.000498409
0.000512074
0.000512075
0.00049857
0.000498376
0.000498376
0.000461813
0.000475499
0.000475497
0.000461808
0.000475498
0.000461809
0.000461813
0.000475499
0.000475497
0.000461808
0.000473246
0.000473246
0.000473245
0.000445815
0.000445814
0.000445815
0.000445814
0.000461866
0.000475468
0.000473222
0.000464073
0.000475447
0.000461839
0.00046408
0.000475498
0.000461809
0.000461867
0.000473222
0.000475469
0.000464073
0.000475447
0.00046408
0.000461839
0.000475502
0.000475502
0.000461998
0.000461806
0.000461806
0.00042524
0.000438926
0.000438923
0.000425235
0.000438925
0.000425236
0.000425239
0.000438926
0.000438923
0.000425235
0.00043667
0.00043667
0.00043667
0.000409236
0.000409236
0.000409236
0.000409235
0.000425295
0.000438896
0.000436649
0.000427496
0.000438872
0.000425266
0.000427502
0.000438925
0.000425236
0.000425295
0.00043665
0.000438896
0.000427496
0.000438872
0.000427502
0.000425266
0.000438929
0.000438929
0.000425421
0.000425233
0.000425233
0.000388658
0.000402349
0.000402346
0.000388653
0.000402348
0.000388655
0.000388658
0.000402348
0.000402346
0.000388654
0.000400091
0.000400091
0.00040009
0.000372653
0.000372653
0.000372653
0.000372653
0.000388713
0.000402317
0.000400073
0.000390918
0.000402293
0.000388686
0.000390926
0.000402347
0.000388655
0.000388711
0.000400073
0.000402317
0.000390918
0.000402292
0.000390926
0.000388685
0.000402351
0.000402351
0.000388843
0.000388652
0.000388652
0.000352075
0.000365766
0.000365763
0.00035207
0.000365765
0.000352071
0.000352074
0.000365766
0.000365764
0.00035207
0.000363507
0.000363507
0.000363507
0.000336066
0.000336066
0.000336066
0.000336066
0.000352124
0.000365734
0.000363486
0.000354333
0.000365712
0.000352099
0.000354342
0.000365765
0.000352071
0.000352127
0.000363485
0.000365736
0.000354332
0.000365714
0.00035434
0.0003521
0.000365769
0.000365769
0.000352258
0.000352067
0.000352068
0.000315487
0.000329178
0.000329175
0.000315483
0.000329178
0.000315484
0.000315486
0.000329179
0.000329177
0.000315483
0.00032692
0.00032692
0.000326919
0.000299478
0.000299478
0.000299478
0.000299477
0.000315542
0.000329149
0.000326896
0.000317742
0.000329127
0.000315514
0.000317749
0.000329178
0.000315484
0.000315541
0.000326899
0.000329147
0.000317742
0.000329124
0.000317749
0.000315514
0.000329182
0.000329181
0.000315668
0.000315482
0.000315481
0.0002789
0.000292591
0.000292588
0.000278895
0.00029259
0.000278895
0.000278899
0.000292591
0.000292589
0.000278895
0.000290332
0.000290332
0.000290331
0.00026289
0.000262891
0.000262891
0.00026289
0.000278953
0.000292559
0.000290313
0.000281157
0.000292535
0.000278927
0.000281164
0.000292591
0.000278895
0.000278953
0.000290311
0.00029256
0.000281157
0.000292538
0.000281163
0.000278926
0.000292593
0.000292594
0.000279084
0.000278893
0.000278893
0.000242314
0.000256004
0.000256001
0.000242309
0.000256004
0.000242308
0.000242314
0.000256004
0.000256001
0.000242309
0.000253745
0.000253745
0.000253745
0.000226304
0.000226303
0.000226304
0.000226303
0.000242366
0.000255972
0.000253725
0.000244571
0.00025595
0.00024234
0.000244578
0.000256005
0.000242308
0.000242369
0.000253725
0.000255972
0.000244569
0.000255949
0.000244574
0.000242342
0.000256007
0.000256007
0.000242497
0.000242308
0.000242308
0.000205728
0.000219416
0.000219414
0.000205724
0.000219418
0.000205721
0.000205728
0.000219416
0.000219414
0.000205724
0.000217159
0.000217159
0.000217158
0.000189717
0.000189717
0.000189717
0.000189717
0.000205781
0.000219384
0.000217139
0.000207983
0.000219362
0.000205757
0.000207991
0.000219419
0.000205721
0.000205781
0.000217141
0.000219383
0.000207983
0.00021936
0.00020799
0.000205757
0.000219418
0.000219418
0.000205911
0.000205723
0.000205723
0.00016914
0.000182829
0.000182827
0.000169138
0.000182835
0.00016913
0.00016914
0.000182829
0.000182828
0.000169138
0.000180574
0.000180574
0.000180574
0.000153128
0.000153128
0.000153128
0.000153128
0.000169194
0.000182795
0.000180555
0.000171399
0.000182777
0.000169174
0.000171406
0.000182835
0.00016913
0.000169194
0.000180554
0.000182795
0.000171398
0.000182777
0.000171405
0.000169174
0.00018283
0.00018283
0.000169327
0.00016914
0.00016914
0.000132554
0.000146242
0.000146243
0.000132555
0.000146257
0.000132534
0.000132553
0.000146242
0.000146243
0.000132555
0.000143989
0.000143988
0.000143989
0.000116534
0.000116535
0.000116534
0.000116535
0.000132613
0.000146202
0.000143969
0.00013481
0.000146189
0.000132598
0.000134814
0.000146257
0.000132533
0.000132613
0.00014397
0.000146202
0.000134809
0.000146188
0.000134814
0.000132598
0.000146238
0.000146238
0.000132742
0.000132561
0.000132561
9.59563e-05
0.000109645
0.000109651
9.59666e-05
0.000109684
9.59134e-05
9.59565e-05
0.000109645
0.000109651
9.59667e-05
0.0001074
0.000107399
0.000107399
7.99256e-05
7.9926e-05
7.99249e-05
7.99254e-05
9.60147e-05
0.000109594
0.000107386
9.82205e-05
0.000109594
9.60213e-05
9.82224e-05
0.000109683
9.59125e-05
9.60133e-05
0.000107385
0.000109593
9.82203e-05
0.000109594
9.82226e-05
9.60202e-05
0.000109634
0.000109634
9.61561e-05
9.5983e-05
9.59824e-05
5.93196e-05
7.30232e-05
7.3047e-05
5.93499e-05
7.31343e-05
5.9185e-05
5.93179e-05
7.30221e-05
7.30447e-05
5.93482e-05
7.08132e-05
7.08119e-05
7.08121e-05
4.36146e-05
4.36148e-05
4.36121e-05
4.3612e-05
5.93787e-05
7.29535e-05
7.07954e-05
6.16163e-05
7.29945e-05
5.94263e-05
6.1639e-05
7.31294e-05
5.91874e-05
5.93786e-05
7.07941e-05
7.29528e-05
6.16146e-05
7.29943e-05
6.16374e-05
5.94242e-05
7.29894e-05
7.29903e-05
5.95516e-05
5.93908e-05
5.9391e-05
2.20757e-05
3.60594e-05
3.61995e-05
2.15077e-05
3.64275e-05
2.09358e-05
2.20639e-05
3.60521e-05
3.61944e-05
2.15013e-05
3.49678e-05
3.49643e-05
3.4964e-05
1.18866e-05
1.18849e-05
1.1884e-05
1.1883e-05
2.25612e-05
3.60094e-05
3.46448e-05
2.57405e-05
3.62884e-05
2.20359e-05
2.60792e-05
3.64141e-05
2.09412e-05
2.25615e-05
3.4643e-05
3.60066e-05
2.57374e-05
3.62887e-05
2.60768e-05
2.2037e-05
3.59424e-05
3.5942e-05
2.35336e-05
2.18274e-05
2.18244e-05
3.03121e-06
4.49501e-06
3.87391e-06
1.33148e-08
1.99143e-06
-3.68554e-06
3.04102e-06
4.48028e-06
3.85979e-06
2.64346e-08
7.27678e-07
7.39908e-06
7.39854e-06
8.26185e-06
7.81163e-06
4.03964e-06
4.04007e-06
1.8111e-06
3.40234e-06
6.75571e-06
1.38117e-06
4.93903e-06
5.64319e-06
-2.32576e-06
1.96071e-06
-3.69233e-06
1.8189e-06
6.75445e-06
3.40086e-06
1.38152e-06
4.94031e-06
-2.32276e-06
5.65786e-06
7.5486e-07
7.56228e-07
7.09352e-07
3.67357e-06
3.7046e-06
0.000736204
0.000749894
0.000736204
0.000749894
0.000749697
0.000736201
0.000736201
0.000749898
0.000749898
0.000749892
0.000736203
0.000749895
0.000736207
0.000749892
0.000736203
0.000749895
0.000736207
0.000749839
0.00074761
0.000736233
0.000738473
0.000749864
0.000747619
0.00073626
0.000749839
0.00074761
0.000736233
0.000738473
0.000749864
0.000747619
0.00073626
0.000736204
0.000749894
0.000749697
0.000736201
0.000736201
0.000749898
0.000749898
0.000736204
0.000749894
0.000749892
0.000736203
0.000749895
0.000736206
0.000749839
0.00074761
0.000736233
0.000738473
0.000749864
0.000747619
0.00073626
0.000749893
0.000736203
0.000749895
0.000736206
0.00074984
0.000747611
0.000738474
0.000736234
0.000747619
0.000749864
0.00073626
0.00074984
0.000747611
0.000736233
0.000738474
0.000749864
0.000747619
0.00073626
0.000749892
0.000736203
0.000749895
0.000736207
0.00074984
0.000747611
0.000738474
0.000736233
0.000747619
0.000749865
0.00073626
0.000749892
0.000736203
0.000749895
0.000736207
0.000736204
0.000749894
0.000749697
0.000736201
0.000736201
0.000749898
0.000749898
0.000736204
0.000749894
0.000749839
0.000747611
0.000738474
0.000736233
0.000747619
0.000749864
0.00073626
0.00074984
0.000747611
0.000738474
0.000736233
0.000747619
0.000749864
0.00073626
0.000749892
0.000736203
0.000749895
0.000736207
0.000749892
0.000736203
0.000749895
0.000736207
0.000749698
0.000736201
0.000736201
0.000749898
0.000749898
0.000736204
0.000749894
0.000736204
0.000749894
0.000731606
0.000717914
0.000731606
0.000717913
0.00073161
0.00073161
0.000718101
0.00071791
0.00071791
0.000699621
0.000713314
0.000699621
0.000713314
0.000713119
0.000699617
0.000699617
0.000713318
0.000713318
0.000717918
0.000731606
0.000731604
0.000717913
0.000717973
0.000731577
0.000729327
0.000720175
0.000731553
0.000717944
0.000720181
0.000717973
0.000731576
0.000729327
0.000720175
0.000731553
0.000717944
0.000720181
0.000713313
0.00069962
0.000713315
0.000699624
0.000713313
0.000699619
0.000713315
0.000699624
0.000713264
0.000711031
0.00069965
0.000701893
0.000713285
0.000711037
0.000699677
0.000713264
0.000711031
0.00069965
0.000701893
0.000713285
0.000711037
0.000699677
0.00073161
0.00073161
0.000718102
0.00071791
0.00071791
0.000731606
0.000717913
0.000699621
0.000713314
0.000713119
0.000699618
0.000699618
0.000713318
0.000713318
0.000699621
0.000713314
0.000717973
0.000731576
0.000729327
0.000720175
0.000731553
0.000717944
0.000720181
0.000717917
0.000731606
0.000731604
0.000717913
0.000717973
0.000729327
0.000731576
0.000720175
0.000731553
0.000720181
0.000717944
0.000713314
0.000699619
0.000713315
0.000699623
0.000713264
0.000711031
0.00069965
0.000701893
0.000713285
0.000711037
0.000699677
0.000713314
0.000699619
0.000713315
0.000699623
0.000713264
0.000711031
0.000701893
0.00069965
0.000711037
0.000713285
0.000699676
0.000717918
0.000731606
0.000731604
0.000717913
0.000717973
0.000729327
0.000731576
0.000720175
0.000731553
0.000720181
0.000717944
0.000717918
0.000731606
0.000731604
0.000717913
0.000713264
0.000711031
0.00069965
0.000701893
0.000713285
0.000711037
0.000699676
0.000713313
0.00069962
0.000713315
0.000699624
0.000713264
0.000711031
0.000701893
0.00069965
0.000711037
0.000713285
0.000699676
0.000713313
0.00069962
0.000713315
0.000699624
0.00073161
0.00073161
0.000718101
0.000717911
0.00071791
0.000731606
0.000717914
0.00069962
0.000713314
0.000713119
0.000699618
0.000699617
0.000713318
0.000713318
0.000699621
0.000713314
0.000717973
0.000729327
0.000731576
0.000720175
0.000731553
0.00072018
0.000717944
0.000717918
0.000731606
0.000731603
0.000717913
0.000717918
0.000731606
0.000731604
0.000717913
0.000713264
0.000711031
0.000701893
0.00069965
0.000711036
0.000713285
0.000699676
0.000713264
0.000711031
0.000701893
0.00069965
0.000711036
0.000713285
0.000699676
0.000713313
0.00069962
0.000713315
0.000699624
0.000713313
0.00069962
0.000713315
0.000699624
0.000731606
0.000717914
0.000731606
0.000717914
0.000713119
0.000699617
0.000699617
0.000713318
0.000713318
0.000699621
0.000713314
0.000699621
0.000713314
0.000695021
0.000681329
0.000695022
0.000681329
0.000695026
0.000695026
0.000681515
0.000681326
0.000681326
0.000663035
0.00067673
0.000663035
0.00067673
0.00067653
0.000663032
0.000663032
0.000676734
0.000676734
0.000681332
0.000695022
0.000695019
0.000681328
0.000681386
0.000694992
0.000692747
0.000683591
0.000694968
0.000681359
0.000683599
0.000681386
0.000694992
0.000692747
0.000683591
0.000694968
0.000681359
0.000683599
0.000676728
0.000663034
0.000676731
0.000663039
0.000676728
0.000663034
0.000676731
0.000663039
0.000676678
0.000674443
0.000663065
0.000665302
0.000676701
0.00067445
0.000663094
0.000676678
0.000674442
0.000663065
0.000665302
0.000676701
0.00067445
0.000663094
0.000695026
0.000695026
0.000681515
0.000681326
0.000681327
0.000695022
0.000681329
0.000663035
0.00067673
0.00067653
0.000663032
0.000663033
0.000676734
0.000676734
0.000663035
0.00067673
0.000681386
0.000694992
0.000692747
0.000683591
0.000694967
0.000681359
0.000683599
0.000681332
0.000695022
0.00069502
0.000681328
0.000681386
0.000692747
0.000694992
0.00068359
0.000694967
0.000683599
0.000681359
0.000676728
0.000663034
0.000676731
0.000663039
0.000676678
0.000674442
0.000663065
0.000665301
0.000676701
0.000674449
0.000663094
0.000676728
0.000663034
0.000676731
0.000663039
0.000676678
0.000674442
0.000665302
0.000663065
0.000674449
0.0006767
0.000663094
0.000681332
0.000695022
0.000695019
0.000681328
0.000681386
0.000692747
0.000694992
0.00068359
0.000694967
0.000683598
0.000681359
0.000681332
0.000695022
0.000695019
0.000681328
0.000676678
0.000674442
0.000663065
0.000665302
0.000676701
0.000674449
0.000663094
0.000676728
0.000663034
0.000676731
0.000663039
0.000676678
0.000674442
0.000665302
0.000663065
0.000674449
0.000676701
0.000663094
0.000676728
0.000663034
0.000676731
0.000663039
0.000695025
0.000695026
0.000681514
0.000681326
0.000681326
0.000695022
0.000681329
0.000663035
0.00067673
0.00067653
0.000663032
0.000663032
0.000676734
0.000676735
0.000663035
0.00067673
0.000681386
0.000692747
0.000694992
0.00068359
0.000694967
0.000683598
0.000681359
0.000681333
0.000695022
0.000695019
0.000681328
0.000681333
0.000695022
0.000695019
0.000681328
0.000676678
0.000674442
0.000665301
0.000663065
0.000674449
0.000676701
0.000663094
0.000676678
0.000674442
0.000665302
0.000663065
0.000674449
0.000676701
0.000663094
0.000676728
0.000663034
0.000676731
0.000663039
0.000676728
0.000663034
0.000676731
0.000663039
0.000695021
0.000681329
0.000695022
0.000681329
0.00067653
0.000663032
0.000663032
0.000676735
0.000676735
0.000663036
0.00067673
0.000663036
0.00067673
0.000658435
0.000644739
0.000658435
0.000644739
0.000658439
0.000658439
0.000644928
0.000644735
0.000644735
0.000626444
0.000640139
0.000626444
0.000640139
0.000639944
0.000626441
0.000626441
0.000640143
0.000640143
0.000644742
0.000658436
0.000658434
0.000644738
0.000644794
0.000658406
0.000656156
0.000647004
0.000658384
0.000644768
0.000647011
0.000644794
0.000658406
0.000656156
0.000647004
0.000658384
0.000644768
0.000647011
0.000640137
0.000626443
0.00064014
0.000626448
0.000640137
0.000626443
0.00064014
0.000626448
0.000640085
0.000637856
0.000626474
0.000628713
0.000640109
0.000637863
0.000626501
0.000640085
0.000637856
0.000626474
0.000628713
0.000640109
0.000637863
0.000626501
0.000658439
0.000658439
0.000644929
0.000644735
0.000644736
0.000658435
0.000644739
0.000626444
0.000640139
0.000639943
0.000626441
0.000626441
0.000640143
0.000640143
0.000626444
0.000640139
0.000644794
0.000658405
0.000656156
0.000647004
0.000658383
0.000644768
0.000647011
0.000644742
0.000658436
0.000658434
0.000644738
0.000644794
0.000656156
0.000658405
0.000647004
0.000658384
0.000647011
0.000644768
0.000640137
0.000626443
0.00064014
0.000626448
0.000640085
0.000637855
0.000626474
0.000628713
0.000640109
0.000637863
0.000626502
0.000640137
0.000626443
0.00064014
0.000626448
0.000640085
0.000637856
0.000628713
0.000626475
0.000637863
0.000640109
0.000626502
0.000644742
0.000658436
0.000658434
0.000644738
0.000644795
0.000656156
0.000658406
0.000647004
0.000658384
0.000647011
0.000644768
0.000644742
0.000658436
0.000658434
0.000644738
0.000640085
0.000637856
0.000626474
0.000628713
0.000640109
0.000637864
0.000626501
0.000640137
0.000626443
0.00064014
0.000626448
0.000640085
0.000637856
0.000628713
0.000626474
0.000637864
0.00064011
0.000626502
0.000640137
0.000626443
0.00064014
0.000626448
0.000658439
0.000658439
0.000644929
0.000644736
0.000644735
0.000658435
0.000644739
0.000626444
0.000640139
0.000639944
0.000626441
0.000626441
0.000640143
0.000640143
0.000626444
0.000640139
0.000644795
0.000656156
0.000658406
0.000647004
0.000658383
0.000647011
0.000644768
0.000644743
0.000658436
0.000658434
0.000644738
0.000644743
0.000658436
0.000658434
0.000644738
0.000640085
0.000637856
0.000628713
0.000626474
0.000637863
0.00064011
0.000626502
0.000640085
0.000637856
0.000628713
0.000626474
0.000637863
0.00064011
0.000626502
0.000640137
0.000626443
0.00064014
0.000626448
0.000640137
0.000626443
0.00064014
0.000626448
0.000658435
0.000644739
0.000658435
0.000644739
0.000639944
0.000626441
0.000626441
0.000640143
0.000640143
0.000626444
0.000640139
0.000626444
0.000640139
0.000621844
0.000608147
0.000621844
0.000608147
0.000621848
0.000621849
0.000608333
0.000608144
0.000608144
0.000589848
0.000603545
0.000589848
0.000603546
0.000603348
0.000589844
0.000589844
0.00060355
0.00060355
0.000608151
0.000621845
0.000621843
0.000608146
0.000608205
0.000621815
0.000619562
0.000610407
0.000621793
0.000608177
0.000610413
0.000608205
0.000621815
0.000619562
0.000610407
0.000621793
0.000608177
0.000610413
0.000603544
0.000589846
0.000603547
0.00058985
0.000603544
0.000589846
0.000603547
0.00058985
0.000603494
0.00060126
0.000589877
0.000592118
0.000603517
0.000601266
0.000589902
0.000603494
0.00060126
0.000589877
0.000592118
0.000603516
0.000601266
0.000589902
0.000621848
0.000621848
0.000608333
0.000608144
0.000608144
0.000621844
0.000608147
0.000589847
0.000603546
0.000603348
0.000589844
0.000589844
0.00060355
0.00060355
0.000589847
0.000603546
0.000608205
0.000621815
0.000619562
0.000610407
0.000621793
0.000608177
0.000610413
0.00060815
0.000621845
0.000621844
0.000608146
0.000608205
0.000619562
0.000621815
0.000610407
0.000621793
0.000610414
0.000608177
0.000603545
0.000589846
0.000603547
0.00058985
0.000603493
0.00060126
0.000589877
0.000592118
0.000603516
0.000601266
0.000589902
0.000603545
0.000589846
0.000603547
0.00058985
0.000603494
0.000601259
0.000592118
0.000589877
0.000601266
0.000603516
0.000589902
0.000608151
0.000621845
0.000621843
0.000608146
0.000608205
0.000619562
0.000621815
0.000610407
0.000621793
0.000610413
0.000608177
0.000608151
0.000621845
0.000621843
0.000608146
0.000603494
0.000601259
0.000589877
0.000592118
0.000603516
0.000601266
0.000589902
0.000603544
0.000589846
0.000603547
0.00058985
0.000603493
0.00060126
0.000592118
0.000589876
0.000601266
0.000603516
0.000589902
0.000603544
0.000589846
0.000603547
0.00058985
0.000621848
0.000621849
0.000608332
0.000608144
0.000608144
0.000621844
0.000608147
0.000589847
0.000603546
0.000603348
0.000589844
0.000589844
0.00060355
0.00060355
0.000589847
0.000603546
0.000608205
0.000619562
0.000621815
0.000610407
0.000621793
0.000610414
0.000608177
0.000608151
0.000621845
0.000621843
0.000608146
0.000608151
0.000621845
0.000621843
0.000608146
0.000603494
0.000601259
0.000592118
0.000589876
0.000601266
0.000603516
0.000589902
0.000603493
0.00060126
0.000592118
0.000589876
0.000601266
0.000603516
0.000589902
0.000603544
0.000589846
0.000603547
0.00058985
0.000603544
0.000589846
0.000603547
0.00058985
0.000621844
0.000608147
0.000621844
0.000608147
0.000603348
0.000589844
0.000589844
0.00060355
0.00060355
0.000589847
0.000603545
0.000589847
0.000603545
0.000585247
0.000571552
0.000585247
0.000571552
0.000585252
0.000585252
0.000571733
0.000571549
0.000571549
0.000553255
0.000566952
0.000553255
0.000566952
0.000566747
0.000553251
0.000553251
0.000566956
0.000566956
0.000571554
0.000585248
0.000585245
0.00057155
0.000571607
0.000585217
0.000582968
0.000573808
0.000585192
0.000571581
0.000573815
0.000571607
0.000585217
0.000582968
0.000573808
0.000585192
0.00057158
0.000573815
0.000566949
0.000553253
0.000566952
0.000553257
0.000566949
0.000553253
0.000566952
0.000553257
0.000566898
0.000564658
0.000553283
0.000555516
0.000566921
0.000564664
0.00055331
0.000566898
0.000564658
0.000553283
0.000555516
0.000566921
0.000564664
0.00055331
0.000585251
0.000585251
0.000571733
0.000571548
0.000571549
0.000585247
0.000571552
0.000553255
0.000566951
0.000566747
0.000553251
0.000553251
0.000566955
0.000566955
0.000553255
0.000566952
0.000571607
0.000585217
0.000582968
0.000573807
0.000585192
0.000571581
0.000573815
0.000571554
0.000585248
0.000585245
0.00057155
0.000571607
0.000582968
0.000585217
0.000573808
0.000585192
0.000573815
0.00057158
0.000566949
0.000553253
0.000566952
0.000553257
0.000566897
0.000564658
0.000553283
0.000555516
0.000566921
0.000564664
0.000553309
0.000566949
0.000553253
0.000566952
0.000553257
0.000566898
0.000564658
0.000555516
0.000553283
0.000564664
0.000566921
0.000553309
0.000571554
0.000585248
0.000585245
0.00057155
0.000571607
0.000582967
0.000585217
0.000573808
0.000585192
0.000573814
0.00057158
0.000571554