/*--------------------------------*- C++ -*----------------------------------*\
| =========                 |                                                 |
| \\      /  F ield         | OpenFOAM: The Open Source CFD Toolbox           |
|  \\    /   O peration     | Version:  v1906                                 |
|   \\  /    A nd           | Web:      www.OpenFOAM.com                      |
|    \\/     M anipulation  |                                                 |
\*---------------------------------------------------------------------------*/
FoamFile
{
    version     2.0;
    format      ascii;
    class       surfaceScalarField;
    location    "250";
    object      phi;
}
// * * * * * * * * * * * * * * * * * * * * * * * * * * * * * * * * * * * * * //

dimensions      [0 3 -1 0 0 0 0];
oriented        oriented;


internalField   nonuniform List<scalar> 
123728
(
1.65977e-09
1.59511e-09
-0.00117895
-1.43523e-09
-1.56499e-09
0.00117895
-0.00113478
-1.20644e-06
-1.52793e-09
3.40471e-09
0.00113478
-2.2132e-07
1.20819e-06
2.1974e-07
8.55945e-07
-2.04757e-07
-8.55247e-07
2.02404e-07
-0.00113441
-1.2009e-06
-1.65393e-09
3.39478e-09
0.00113441
-2.21303e-07
1.20265e-06
2.19757e-07
8.55766e-07
-2.07408e-07
-8.5513e-07
2.05092e-07
-0.000271075
1.23538e-06
1.20106e-06
-2.11801e-07
-2.17056e-07
0.000269068
1.10806e-09
1.20485e-09
-0.00117895
-1.04173e-09
-1.13003e-09
0.00117895
-0.00113478
-1.20646e-06
-1.58002e-09
3.22009e-09
0.00113478
-2.21269e-07
1.20817e-06
2.19772e-07
8.55755e-07
-2.04774e-07
-8.55416e-07
2.02343e-07
-0.00113441
-1.20095e-06
-1.57274e-09
3.28494e-09
0.00113441
-2.21266e-07
1.20261e-06
2.19783e-07
8.5558e-07
-2.0743e-07
-8.55298e-07
2.05024e-07
-0.000271075
1.23532e-06
1.20101e-06
-2.1177e-07
-2.17021e-07
0.000269067
3.57838e-10
7.48506e-10
-0.00117895
-6.92255e-10
-5.35626e-10
0.00117895
-0.00113478
-1.20653e-06
-9.53246e-10
3.38539e-09
0.00113478
-2.21352e-07
1.20811e-06
2.19716e-07
8.55652e-07
-2.04875e-07
-8.55512e-07
2.0232e-07
-0.00113441
-1.201e-06
-9.73147e-10
3.40099e-09
0.00113441
-2.21351e-07
1.20255e-06
2.19709e-07
8.55507e-07
-2.07508e-07
-8.55369e-07
2.05033e-07
-0.000271075
1.23543e-06
1.20113e-06
-2.1186e-07
-2.17107e-07
0.000269068
-4.94454e-11
-9.92666e-11
-0.00117895
-4.23433e-10
-5.8104e-10
0.00117895
-0.00113478
-1.20669e-06
1.05803e-10
3.61508e-09
0.00113478
-2.21569e-07
1.208e-06
2.19514e-07
8.55442e-07
-2.05226e-07
-8.55734e-07
2.01955e-07
-0.00113441
-1.20119e-06
1.53051e-10
3.76021e-09
0.00113441
-2.21598e-07
1.20242e-06
2.195e-07
8.55253e-07
-2.07874e-07
-8.55617e-07
2.04634e-07
-0.000271075
1.2357e-06
1.20131e-06
-2.12079e-07
-2.17381e-07
0.000269067
-5.55827e-11
-3.26183e-11
-0.00117896
-5.62259e-10
-7.33088e-10
0.00117896
-0.00113478
-1.2068e-06
-5.27779e-11
3.74202e-09
0.00113478
-2.21589e-07
1.20792e-06
2.19511e-07
8.55431e-07
-2.05224e-07
-8.55801e-07
2.01934e-07
-0.00113442
-1.20122e-06
1.60221e-10
3.61555e-09
0.00113442
-2.21518e-07
1.20241e-06
2.19586e-07
8.55188e-07
-2.07933e-07
-8.55745e-07
2.04565e-07
-0.000271075
1.23566e-06
1.20131e-06
-2.12099e-07
-2.17375e-07
0.000269068
5.45474e-10
8.1518e-10
-0.00117896
-1.02193e-09
-7.43235e-10
0.00117896
-0.00113479
-1.20659e-06
-7.56191e-10
3.38728e-09
0.00113479
-2.21398e-07
1.20812e-06
2.19713e-07
8.55604e-07
-2.05029e-07
-8.5564e-07
2.02188e-07
-0.00113442
-1.20109e-06
-1.05623e-09
3.3716e-09
0.00113442
-2.21431e-07
1.20253e-06
2.19681e-07
8.55456e-07
-2.07669e-07
-8.55501e-07
2.04895e-07
-0.000271076
1.23547e-06
1.20123e-06
-2.1197e-07
-2.17179e-07
0.000269069
2.05759e-09
2.17267e-09
-0.00117896
-1.43977e-09
-1.55179e-09
0.00117896
-0.00113478
-1.20617e-06
-1.90166e-09
2.5186e-09
0.00113478
-2.21007e-07
1.20849e-06
2.20069e-07
8.56135e-07
-2.04453e-07
-8.55069e-07
2.02764e-07
-0.00113442
-1.2007e-06
-2.10173e-09
2.81633e-09
0.00113442
-2.21055e-07
1.20289e-06
2.20033e-07
8.55995e-07
-2.07118e-07
-8.5492e-07
2.05443e-07
-0.000271076
1.23512e-06
1.20084e-06
-2.11512e-07
-2.16759e-07
0.000269068
3.33298e-09
3.66661e-09
-0.00117896
-2.41798e-09
-2.21501e-09
0.00117895
-0.00113478
-1.20596e-06
-3.92221e-09
2.22667e-09
0.00113478
-2.20854e-07
1.20867e-06
2.20183e-07
8.56354e-07
-2.04204e-07
-8.54749e-07
2.02926e-07
-0.00113441
-1.20039e-06
-3.89227e-09
2.10999e-09
0.00113441
-2.20787e-07
1.20317e-06
2.20254e-07
8.56183e-07
-2.06858e-07
-8.54627e-07
2.05601e-07
-0.000271075
1.23488e-06
1.2005e-06
-2.11275e-07
-2.16574e-07
0.000269067
3.28425e-09
3.12012e-09
-0.00117895
-2.48506e-09
-2.91251e-09
0.00117895
-0.00113478
-1.20619e-06
-3.4634e-09
2.32197e-09
0.00113478
-2.21022e-07
1.20845e-06
2.20006e-07
8.56087e-07
-2.04501e-07
-8.55023e-07
2.02573e-07
-0.00113441
-1.20066e-06
-3.15729e-09
2.45625e-09
0.00113441
-2.2101e-07
1.20288e-06
2.20015e-07
8.55875e-07
-2.07176e-07
-8.54953e-07
2.05238e-07
-0.000271075
1.23514e-06
1.20076e-06
-2.11573e-07
-2.16861e-07
0.000269068
1.75196e-09
2.03109e-09
-0.00117895
-1.72913e-09
-1.62599e-09
0.00117895
-0.00113478
-1.20636e-06
-1.94213e-09
2.70439e-09
0.00113478
-2.21167e-07
1.20827e-06
2.19873e-07
8.55838e-07
-2.04627e-07
-8.55301e-07
2.02451e-07
-0.00113441
-1.20082e-06
-2.13646e-09
2.65489e-09
0.00113441
-2.21168e-07
1.20271e-06
2.19868e-07
8.55693e-07
-2.07224e-07
-8.55153e-07
2.05204e-07
-0.000271076
1.23524e-06
1.201e-06
-2.11761e-07
-2.16937e-07
0.000269068
1.21084e-09
1.33629e-09
-0.00117895
-1.16846e-09
-1.16248e-09
0.00117895
-0.00113478
-1.20639e-06
-1.29605e-09
2.82235e-09
0.00113478
-2.21231e-07
1.20826e-06
2.19811e-07
8.55667e-07
-2.04741e-07
-8.55419e-07
2.0235e-07
-0.00113441
-1.2009e-06
-1.39704e-09
3.06874e-09
0.00113441
-2.2127e-07
1.20269e-06
2.19787e-07
8.55492e-07
-2.07487e-07
-8.55293e-07
2.04935e-07
-0.000271076
1.23529e-06
1.20101e-06
-2.11764e-07
-2.17027e-07
0.000269068
1.13944e-09
1.30675e-09
-0.00117895
-1.11375e-09
-1.14897e-09
0.00117895
-0.00113478
-1.20659e-06
-1.42283e-09
3.40622e-09
0.00113478
-2.214e-07
1.20806e-06
2.19607e-07
8.55556e-07
-2.04912e-07
-8.55432e-07
2.02047e-07
-0.00113441
-1.20104e-06
-1.34191e-09
3.27246e-09
0.00113441
-2.21358e-07
1.2025e-06
2.19635e-07
8.55411e-07
-2.07495e-07
-8.55313e-07
2.04775e-07
-0.000271075
1.23555e-06
1.20118e-06
-2.11947e-07
-2.17216e-07
0.000269068
1.22783e-09
1.43336e-09
-0.00117895
-1.07555e-09
-1.00403e-09
0.00117895
-0.00113478
-1.20652e-06
-1.49627e-09
2.99342e-09
0.00113478
-2.21269e-07
1.20804e-06
2.19657e-07
8.55631e-07
-2.04607e-07
-8.55258e-07
2.02127e-07
-0.00113441
-1.20099e-06
-1.64459e-09
3.0238e-09
0.00113442
-2.21234e-07
1.20252e-06
2.19687e-07
8.55438e-07
-2.07298e-07
-8.55148e-07
2.04811e-07
-0.000271076
1.23536e-06
1.20111e-06
-2.11802e-07
-2.17023e-07
0.000269068
1.75848e-09
1.98415e-09
-0.00117895
-1.53978e-09
-1.44246e-09
0.00117895
-0.00113478
-1.2063e-06
-1.79854e-09
2.79939e-09
0.00113478
-2.21134e-07
1.20814e-06
2.1963e-07
8.55394e-07
-2.04403e-07
-8.55161e-07
2.01943e-07
-0.00113441
-1.20084e-06
-1.74797e-09
2.87029e-09
0.00113442
-2.2114e-07
1.20253e-06
2.196e-07
8.55315e-07
-2.07106e-07
-8.54954e-07
2.04546e-07
-0.000271076
1.23526e-06
1.20095e-06
-2.11658e-07
-2.16929e-07
0.000269068
2.21044e-09
2.31895e-09
-0.00117895
-1.56769e-09
-1.65266e-09
0.00117895
-0.00113478
-1.20623e-06
-2.66635e-09
2.47762e-09
0.00113478
-2.20974e-07
1.20803e-06
2.19467e-07
8.55076e-07
-2.0396e-07
-8.54756e-07
2.01432e-07
-0.00113441
-1.20068e-06
-2.60163e-09
2.53194e-09
0.00113442
-2.20933e-07
1.20247e-06
2.19465e-07
8.5492e-07
-2.06556e-07
-8.54664e-07
2.0416e-07
-0.000271076
1.23511e-06
1.20078e-06
-2.11418e-07
-2.16681e-07
0.000269068
2.85344e-09
2.9609e-09
-0.00117895
-2.20808e-09
-2.22923e-09
0.00117895
-0.00113478
-1.20585e-06
-2.88671e-09
1.84088e-09
0.00113478
-2.2047e-07
1.20793e-06
2.19251e-07
8.5439e-07
-2.02861e-07
-8.54011e-07
2.00611e-07
-0.00113441
-1.20033e-06
-2.94874e-09
1.92693e-09
0.00113442
-2.20462e-07
1.20238e-06
2.19209e-07
8.54229e-07
-2.05552e-07
-8.53873e-07
2.03268e-07
-0.000271076
1.23472e-06
1.20042e-06
-2.10816e-07
-2.16057e-07
0.000269067
3.26194e-09
3.51929e-09
-0.00117895
-3.36419e-09
-3.27018e-09
0.00117895
-0.00113478
-1.20555e-06
-3.41542e-09
2.34019e-09
0.00113478
-2.19901e-07
1.2071e-06
2.18119e-07
8.52791e-07
-2.0105e-07
-8.52594e-07
1.98172e-07
-0.00113441
-1.19997e-06
-3.54217e-09
2.21508e-09
0.00113442
-2.1984e-07
1.2016e-06
2.181e-07
8.52613e-07
-2.0371e-07
-8.52496e-07
2.00829e-07
-0.000271076
1.23449e-06
1.20017e-06
-2.09949e-07
-2.15214e-07
0.000269067
2.86782e-09
2.98809e-09
-0.00117895
-5.30954e-09
-5.23345e-09
0.00117895
-0.00113478
-1.20445e-06
-3.15536e-09
2.95304e-09
0.00113478
-2.18147e-07
1.20528e-06
2.15521e-07
8.49119e-07
-1.96721e-07
-8.49736e-07
1.93057e-07
-0.00113441
-1.19888e-06
-3.18851e-09
2.87265e-09
0.00113442
-2.18103e-07
1.19978e-06
2.1557e-07
8.48949e-07
-1.99356e-07
-8.49572e-07
1.95796e-07
-0.000271078
1.23332e-06
1.19897e-06
-2.07292e-07
-2.12546e-07
0.000269066
1.91734e-08
1.93519e-08
-0.00117895
-1.81401e-08
-2.38852e-08
0.00117896
-0.00113478
-1.20139e-06
-1.35185e-08
-4.5281e-09
0.0011348
-2.13346e-07
1.20252e-06
2.13331e-07
8.44945e-07
-1.90104e-07
-8.45931e-07
1.83363e-07
-0.00113442
-1.19315e-06
-1.93903e-08
1.11147e-09
0.00113445
-2.13313e-07
1.19421e-06
2.1056e-07
8.42043e-07
-1.90095e-07
-8.43055e-07
1.86032e-07
-0.000271088
1.23302e-06
1.19599e-06
-1.98224e-07
-2.03425e-07
0.00026906
9.06307e-07
9.13667e-07
-0.00117882
-7.95071e-07
-7.84218e-07
0.00117858
-0.00113508
-1.10856e-06
-9.07733e-07
-3.90696e-07
0.0011355
-1.31815e-07
1.36577e-06
3.01545e-07
9.9472e-07
-9.04704e-08
-7.42585e-07
2.84553e-07
-0.00113473
-1.10011e-06
-9.18908e-07
-4.02483e-07
0.00113518
-1.31603e-07
1.36044e-06
3.04497e-07
9.91703e-07
-9.58579e-08
-7.39705e-07
2.87331e-07
-0.000271172
1.14294e-06
1.10023e-06
-1.11692e-07
-1.14223e-07
0.000269155
5.45172e-06
5.44446e-06
-0.00116554
-1.16561e-05
-1.15495e-05
0.000283922
0.00028577
0.000285684
0.000285685
4.49465e-06
6.73809e-06
7.15903e-06
4.49863e-06
6.73885e-06
7.16262e-06
-0.000281434
5.40956e-06
-5.44161e-06
5.9352e-06
-3.41105e-06
0.000278942
-0.000281409
-5.44401e-06
5.41482e-06
-3.4192e-06
5.93213e-06
0.000278925
-0.000272125
-5.40617e-06
-5.41773e-06
5.74505e-06
5.7331e-06
0.00027147
-1.2426e-06
-1.20557e-06
0.000271093
-0.000269075
2.11015e-07
2.18779e-07
0.00113394
-1.77613e-09
-0.00113394
3.28057e-09
-1.24077e-06
2.25155e-07
-2.26755e-07
-8.55279e-07
2.02337e-07
-2.04697e-07
8.55826e-07
1.24813e-06
0.00113439
-1.50519e-09
-0.00113439
3.54938e-09
-1.24638e-06
2.2793e-07
-2.29603e-07
-8.60928e-07
2.05076e-07
-2.07536e-07
8.61392e-07
-1.20827e-06
0.000271123
-0.000269096
2.13768e-07
2.1605e-07
0.00113505
-1.74361e-09
-0.00113505
2.99978e-09
-1.20366e-06
2.22632e-07
-2.24055e-07
-8.58061e-07
2.05159e-07
-2.07478e-07
8.58648e-07
1.24263e-06
0.00113405
-1.5409e-09
-0.00113405
3.48008e-09
-1.24084e-06
2.27943e-07
-2.29565e-07
-8.58056e-07
2.05054e-07
-2.07472e-07
8.58498e-07
-1.57659e-09
-0.00113478
3.08505e-09
-1.20636e-06
2.19789e-07
-2.21249e-07
-8.5534e-07
2.02409e-07
8.55869e-07
-2.04735e-07
1.2371e-06
0.00113384
-1.39633e-09
-0.00113384
3.4716e-09
-1.23532e-06
2.22359e-07
-2.23965e-07
-8.55371e-07
2.02279e-07
-2.04741e-07
8.55761e-07
-1.20273e-06
0.000271071
-0.000269055
2.1117e-07
2.1859e-07
-1.66386e-09
-0.00113441
3.03729e-09
-1.20082e-06
2.19818e-07
-2.21224e-07
-8.55167e-07
2.05075e-07
8.5575e-07
-2.07406e-07
1.20276e-06
0.00113495
-1.44446e-09
-0.00113495
3.27563e-09
-1.201e-06
2.19809e-07
-2.21355e-07
-8.55448e-07
2.05104e-07
-2.07491e-07
8.55947e-07
-0.000269068
2.13492e-07
2.18781e-07
1.24083e-06
1.20371e-06
-2.09209e-07
-2.17005e-07
0.000269075
-1.24263e-06
-1.20557e-06
0.000271093
-0.000269074
2.1105e-07
2.18849e-07
3.53769e-09
0.00113394
-2.26811e-07
1.24254e-06
2.25128e-07
8.55872e-07
-2.04728e-07
-8.5521e-07
2.0233e-07
-1.24643e-06
-1.34344e-09
3.71718e-09
0.00113439
-2.29644e-07
1.24809e-06
2.27917e-07
8.61439e-07
-2.0757e-07
-8.60862e-07
2.05065e-07
0.00113394
-1.21243e-09
-0.00113394
3.10011e-09
-1.24075e-06
2.25293e-07
-2.26628e-07
-8.55365e-07
2.02373e-07
-2.04661e-07
8.55701e-07
1.24824e-06
0.00113439
-8.91612e-10
-0.00113439
2.82019e-09
-1.24629e-06
2.28133e-07
-2.29409e-07
-8.61042e-07
2.05084e-07
-2.07526e-07
8.61242e-07
-2.11966e-07
-2.14318e-07
0.000269096
-1.20825e-06
0.000271122
-0.000269096
2.13787e-07
2.1615e-07
3.20382e-09
0.00113505
-2.24103e-07
1.20553e-06
2.2261e-07
8.58702e-07
-2.07509e-07
-8.57986e-07
2.05152e-07
-1.24088e-06
-1.35263e-09
3.61509e-09
0.00113405
-2.29608e-07
1.24259e-06
2.27922e-07
8.5854e-07
-2.07508e-07
-8.57998e-07
2.0504e-07
0.00113505
-1.20001e-09
-0.00113505
2.86351e-09
-1.20367e-06
2.22728e-07
-2.23959e-07
-8.58131e-07
2.05211e-07
-2.07425e-07
8.58547e-07
1.24267e-06
0.00113404
-8.48958e-10
-0.00113404
2.95545e-09
-1.2408e-06
2.2808e-07
-2.29434e-07
-8.58165e-07
2.05061e-07
-2.07462e-07
8.58357e-07
-1.28614e-09
3.73779e-09
0.00113384
-2.24031e-07
1.23703e-06
2.22314e-07
8.55812e-07
-2.0478e-07
2.02258e-07
-8.55305e-07
-1.47978e-09
-0.00113478
3.0003e-09
-1.20639e-06
2.19872e-07
-2.21171e-07
-8.55391e-07
2.02462e-07
8.55781e-07
-2.04681e-07
1.23714e-06
0.00113384
-1.15476e-09
-0.00113384
2.99531e-09
-1.23528e-06
2.22515e-07
-2.23827e-07
-8.55446e-07
2.02309e-07
-2.04714e-07
8.55657e-07
-2.09378e-07
-2.16839e-07
0.000269055
-1.20268e-06
0.00027107
-0.000269055
2.11166e-07
2.18645e-07
-1.35931e-09
3.54807e-09
0.00113495
-2.21421e-07
1.2027e-06
2.19762e-07
8.56001e-07
-2.07531e-07
2.05082e-07
-8.55381e-07
-1.52318e-09
-0.00113441
3.07472e-09
-1.20088e-06
2.19873e-07
-2.2118e-07
-8.55219e-07
2.05127e-07
8.55664e-07
-2.07352e-07
1.20281e-06
0.00113494
-1.20164e-09
-0.00113494
2.77749e-09
-1.20097e-06
2.19959e-07
-2.21222e-07
-8.55525e-07
2.05136e-07
-2.07464e-07
8.55843e-07
-0.000269067
2.13549e-07
2.18838e-07
1.2408e-06
1.20375e-06
-2.09218e-07
-2.16969e-07
0.000269074
-1.24247e-06
-1.20536e-06
0.000271093
-0.000269074
2.10856e-07
2.18681e-07
3.25304e-09
0.00113394
-2.26705e-07
1.24257e-06
2.25208e-07
8.55635e-07
-2.04771e-07
-8.55423e-07
2.02235e-07
-1.24633e-06
-8.4785e-10
2.87965e-09
0.00113439
-2.29478e-07
1.24819e-06
2.28061e-07
8.61187e-07
-2.07637e-07
-8.61091e-07
2.0495e-07
0.00113394
-4.73044e-10
-0.00113394
3.73798e-09
-1.24091e-06
2.25061e-07
-2.26866e-07
-8.55508e-07
2.02123e-07
-2.04969e-07
8.55555e-07
1.24809e-06
0.00113439
-4.29683e-10
-0.00113439
3.38468e-09
-1.24643e-06
2.27921e-07
-2.29632e-07
-8.61152e-07
2.04876e-07
-2.07802e-07
8.61136e-07
-2.11982e-07
-2.14254e-07
0.000269096
-1.20813e-06
0.000271123
-0.000269096
2.13657e-07
2.16002e-07
3.07592e-09
0.00113505
-2.24059e-07
1.20548e-06
2.22623e-07
8.5851e-07
-2.07525e-07
-8.58156e-07
2.05087e-07
-1.24085e-06
-8.32474e-10
3.03537e-09
0.00113404
-2.29507e-07
1.24262e-06
2.28006e-07
8.58311e-07
-2.07567e-07
-8.58206e-07
2.04933e-07
0.00113505
-8.45371e-10
-0.00113505
3.67751e-09
-1.20388e-06
2.22483e-07
-2.24223e-07
-8.58221e-07
2.04997e-07
-2.07694e-07
8.58445e-07
1.24253e-06
0.00113404
-5.70626e-10
-0.00113404
3.51921e-09
-1.24094e-06
2.27884e-07
-2.29638e-07
-8.58237e-07
2.04893e-07
-2.07699e-07
8.58286e-07
-1.23489e-09
3.07742e-09
0.00113384
-2.23886e-07
1.2371e-06
2.22451e-07
8.55621e-07
-2.04812e-07
2.02185e-07
-8.5548e-07
-1.15918e-09
-0.00113478
3.56365e-09
-1.20653e-06
2.19703e-07
-2.21372e-07
-8.55481e-07
2.02269e-07
8.55688e-07
-2.04933e-07
1.23704e-06
0.00113384
-8.76318e-10
-0.00113384
3.44665e-09
-1.23538e-06
2.22344e-07
-2.24001e-07
-8.55531e-07
2.02139e-07
-2.04952e-07
8.55579e-07
-2.09409e-07
-2.16823e-07
0.000269055
-1.20259e-06
0.00027107
-0.000269055
2.11072e-07
2.18507e-07
-1.30536e-09
2.88445e-09
0.00113494
-2.21286e-07
1.20275e-06
2.19887e-07
8.55819e-07
-2.07558e-07
2.05018e-07
-8.55552e-07
-1.13699e-09
-0.00113441
3.57639e-09
-1.20098e-06
2.19716e-07
-2.21354e-07
-8.553e-07
2.04941e-07
8.55584e-07
-2.07602e-07
1.20269e-06
0.00113495
-1.00106e-09
-0.00113495
3.37297e-09
-1.20109e-06
2.19766e-07
-2.21419e-07
-8.55588e-07
2.04982e-07
-2.07685e-07
8.55785e-07
-0.000269068
2.1343e-07
2.18731e-07
1.24095e-06
1.2039e-06
-2.09359e-07
-2.17103e-07
0.000269074
-1.2422e-06
-1.2052e-06
0.000271092
-0.000269074
2.10648e-07
2.18391e-07
3.59818e-09
0.00113394
-2.26876e-07
1.24242e-06
2.25052e-07
8.5552e-07
-2.04899e-07
-8.5554e-07
2.02193e-07
-1.24648e-06
-4.08298e-10
3.37726e-09
0.00113439
-2.29654e-07
1.24802e-06
2.27891e-07
8.61127e-07
-2.07716e-07
-8.61161e-07
2.04962e-07
0.00113394
-3.20043e-12
-0.00113394
4.22076e-09
-1.2412e-06
2.24779e-07
-2.27151e-07
-8.55634e-07
2.0194e-07
-2.05091e-07
8.55452e-07
1.24778e-06
0.00113439
-9.74177e-11
-0.00113439
4.20663e-09
-1.24678e-06
2.27618e-07
-2.29945e-07
-8.61236e-07
2.04723e-07
-2.07888e-07
8.61068e-07
-2.12054e-07
-2.14375e-07
0.000269096
-1.20799e-06
0.000271122
-0.000269096
2.13478e-07
2.15686e-07
3.50714e-09
0.00113505
-2.24218e-07
1.20533e-06
2.2249e-07
8.58408e-07
-2.07637e-07
-8.58253e-07
2.05052e-07
-1.24099e-06
-5.27112e-10
3.51096e-09
0.00113404
-2.29666e-07
1.24246e-06
2.27847e-07
8.58269e-07
-2.07615e-07
-8.58252e-07
2.04972e-07
0.00113505
-1.16223e-11
-0.00113505
3.81419e-09
-1.20407e-06
2.22282e-07
-2.24426e-07
-8.58418e-07
2.04744e-07
-2.07891e-07
8.58271e-07
1.24221e-06
0.00113405
-4.19839e-11
-0.00113404
4.43608e-09
-1.24129e-06
2.2755e-07
-2.29983e-07
-8.58371e-07
2.04673e-07
-2.07845e-07
8.58163e-07
-7.0029e-10
3.46908e-09
0.00113384
-2.24034e-07
1.23697e-06
2.22301e-07
8.55566e-07
-2.04873e-07
2.02215e-07
-8.5554e-07
3.56192e-11
-0.00113478
3.59253e-09
-1.2067e-06
2.19535e-07
-2.21534e-07
-8.55692e-07
2.01999e-07
8.55497e-07
-2.05142e-07
1.23675e-06
0.00113384
6.68882e-11
-0.00113384
4.27013e-09
-1.23571e-06
2.22051e-07
-2.24307e-07
-8.55676e-07
2.01929e-07
-2.05088e-07
8.55443e-07
-2.09462e-07
-2.16928e-07
0.000269055
-1.20237e-06
0.00027107
-0.000269054
2.10812e-07
2.18194e-07
-8.44672e-10
3.39505e-09
0.00113495
-2.21446e-07
1.20263e-06
2.19729e-07
8.55771e-07
-2.07607e-07
2.05054e-07
-8.55601e-07
-5.16937e-12
-0.00113441
3.75355e-09
-1.20122e-06
2.19492e-07
-2.21584e-07
-8.55494e-07
2.04686e-07
8.55398e-07
-2.07784e-07
1.20245e-06
0.00113495
1.23188e-10
-0.00113495
3.96453e-09
-1.20136e-06
2.19537e-07
-2.21668e-07
-8.55768e-07
2.04728e-07
-2.07864e-07
8.55607e-07
-0.000269067
2.13192e-07
2.18444e-07
1.24119e-06
1.20405e-06
-2.09568e-07
-2.17385e-07
0.000269074
-1.24235e-06
-1.2053e-06
0.000271093
-0.000269075
2.1069e-07
2.18485e-07
4.20951e-09
0.00113394
-2.2718e-07
1.24223e-06
2.24777e-07
8.55379e-07
-2.05182e-07
-8.55686e-07
2.01882e-07
-1.24675e-06
-3.24677e-12
4.20186e-09
0.00113439
-2.29958e-07
1.24782e-06
2.27629e-07
8.60988e-07
-2.07983e-07
-8.61296e-07
2.04664e-07
0.00113395
1.30521e-10
-0.00113394
3.59215e-09
-1.2411e-06
2.25008e-07
-2.26981e-07
-8.55877e-07
2.01847e-07
-2.05211e-07
8.55234e-07
1.2479e-06
0.0011344
3.71318e-10
-0.0011344
3.75079e-09
-1.24667e-06
2.27796e-07
-2.29803e-07
-8.61494e-07
2.04617e-07
-2.08022e-07
8.60838e-07
-2.12248e-07
-2.14672e-07
0.000269096
-1.20792e-06
0.000271123
-0.000269096
2.13391e-07
2.15791e-07
3.70242e-09
0.00113505
-2.2444e-07
1.20524e-06
2.22293e-07
8.58204e-07
-2.07977e-07
-8.5847e-07
2.047e-07
-1.24127e-06
5.34097e-11
4.4553e-09
0.00113405
-2.29995e-07
1.24225e-06
2.27566e-07
8.58076e-07
-2.07946e-07
-8.58442e-07
2.04611e-07
0.00113506
2.11837e-10
-0.00113505
3.23801e-09
-1.204e-06
2.22461e-07
-2.2429e-07
-8.5863e-07
2.04698e-07
-2.07963e-07
8.58094e-07
1.24234e-06
0.00113405
3.92163e-10
-0.00113405
3.84689e-09
-1.24118e-06
2.27773e-07
-2.29805e-07
-8.58626e-07
2.04591e-07
-2.0796e-07
8.57944e-07
1.27128e-10
4.38434e-09
0.00113384
-2.24333e-07
1.23677e-06
2.22044e-07
8.55362e-07
-2.05193e-07
2.01858e-07
-8.55737e-07
1.78445e-10
-0.00113478
3.51459e-09
-1.20676e-06
2.19543e-07
-2.21552e-07
-8.55833e-07
2.02016e-07
8.55398e-07
-2.05155e-07
1.2368e-06
0.00113384
3.27338e-10
-0.00113384
3.88326e-09
-1.23568e-06
2.22174e-07
-2.24218e-07
-8.55903e-07
2.01839e-07
-2.05209e-07
8.55258e-07
-2.09715e-07
-2.17226e-07
0.000269054
-1.20241e-06
0.00027107
-0.000269055
2.1083e-07
2.18274e-07
2.91325e-10
3.90045e-09
0.00113495
-2.21658e-07
1.20252e-06
2.19564e-07
8.55511e-07
-2.07974e-07
2.04652e-07
-8.55848e-07
4.07035e-10
-0.00113442
3.51119e-09
-1.20119e-06
2.19603e-07
-2.215e-07
-8.55726e-07
2.04616e-07
8.55212e-07
-2.07892e-07
1.20252e-06
0.00113495
6.08984e-10
-0.00113495
3.46044e-09
-1.20129e-06
2.19661e-07
-2.21559e-07
-8.56019e-07
2.04634e-07
-2.0799e-07
8.55401e-07
-0.000269068
2.13202e-07
2.18453e-07
1.24106e-06
1.204e-06
-2.09544e-07
-2.17298e-07
0.000269075
-1.24246e-06
-1.20537e-06
0.000271094
-0.000269076
2.10802e-07
2.18603e-07
3.54371e-09
0.00113395
-2.26953e-07
1.24239e-06
2.25018e-07
8.5524e-07
-2.05295e-07
-8.55887e-07
2.0176e-07
-1.24665e-06
3.35306e-10
3.72372e-09
0.0011344
-2.29789e-07
1.24795e-06
2.27812e-07
8.60835e-07
-2.0811e-07
-8.61505e-07
2.04518e-07
0.00113395
-1.20383e-10
-0.00113395
3.38227e-09
-1.24098e-06
2.25068e-07
-2.26908e-07
-8.5577e-07
2.01951e-07
-2.05184e-07
8.55376e-07
1.248e-06
0.0011344
1.76014e-10
-0.0011344
3.60129e-09
-1.24655e-06
2.27844e-07
-2.2974e-07
-8.61419e-07
2.04693e-07
-2.08021e-07
8.60943e-07
-2.12355e-07
-2.14583e-07
0.000269096
-1.20807e-06
0.000271124
-0.000269097
2.13562e-07
2.15887e-07
3.39082e-09
0.00113506
-2.24306e-07
1.20531e-06
2.2243e-07
8.58115e-07
-2.08042e-07
-8.58616e-07
2.04614e-07
-1.24116e-06
2.57594e-10
3.71797e-09
0.00113405
-2.29769e-07
1.24239e-06
2.27808e-07
8.57954e-07
-2.08038e-07
-8.58623e-07
2.04505e-07
0.00113506
-4.73678e-10
-0.00113506
3.46232e-09
-1.20393e-06
2.22482e-07
-2.24272e-07
-8.58521e-07
2.048e-07
-2.07933e-07
8.58227e-07
1.24249e-06
0.00113405
-6.74332e-11
-0.00113405
3.37548e-09
-1.24102e-06
2.27832e-07
-2.29726e-07
-8.58543e-07
2.04681e-07
-2.07948e-07
8.58058e-07
1.65925e-10
3.84997e-09
0.00113384
-2.24208e-07
1.23684e-06
2.22185e-07
8.55281e-07
-2.05287e-07
2.01753e-07
-8.55879e-07
-5.19267e-10
-0.00113479
3.57424e-09
-1.20664e-06
2.19648e-07
-2.21464e-07
-8.55741e-07
2.02081e-07
8.55493e-07
-2.05148e-07
1.237e-06
0.00113385
-2.70785e-10
-0.00113384
3.30179e-09
-1.23547e-06
2.22304e-07
-2.2408e-07
-8.55786e-07
2.01961e-07
-2.05156e-07
8.5539e-07
-2.09727e-07
-2.17156e-07
0.000269055
-1.20252e-06
0.000271072
-0.000269056
2.10946e-07
2.18408e-07
3.55245e-10
3.5641e-09
0.00113495
-2.21582e-07
1.20253e-06
2.19637e-07
8.55435e-07
-2.08053e-07
2.04565e-07
-8.55989e-07
-7.13107e-10
-0.00113442
3.4536e-09
-1.20109e-06
2.1964e-07
-2.21468e-07
-8.5558e-07
2.04743e-07
8.55375e-07
-2.0783e-07
1.20259e-06
0.00113495
-5.5772e-10
-0.00113495
3.46521e-09
-1.20122e-06
2.19679e-07
-2.21543e-07
-8.55834e-07
2.04811e-07
-2.07881e-07
8.55605e-07
-0.000269069
2.13302e-07
2.1864e-07
1.24096e-06
1.20391e-06
-2.09396e-07
-2.1716e-07
0.000269076
-1.24265e-06
-1.20562e-06
0.000271094
-0.000269076
2.11144e-07
2.18936e-07
3.30867e-09
0.00113395
-2.26873e-07
1.24249e-06
2.25103e-07
8.55514e-07
-2.05024e-07
-8.55637e-07
2.02106e-07
-1.24656e-06
-3.28151e-10
3.5212e-09
0.0011344
-2.29718e-07
1.24801e-06
2.27876e-07
8.61104e-07
-2.07843e-07
-8.61268e-07
2.04866e-07
0.00113395
-1.57815e-09
-0.00113395
3.5434e-09
-1.24077e-06
2.25228e-07
-2.26736e-07
-8.55137e-07
2.02463e-07
-2.04633e-07
8.55971e-07
1.24822e-06
0.0011344
-1.72896e-09
-0.0011344
3.50711e-09
-1.24634e-06
2.28063e-07
-2.29527e-07
-8.60755e-07
2.05234e-07
-2.07442e-07
8.61567e-07
-2.12125e-07
-2.14475e-07
0.000269097
-1.20844e-06
0.000271124
-0.000269097
2.13988e-07
2.16225e-07
3.33571e-09
0.00113506
-2.24227e-07
1.2054e-06
2.22524e-07
8.5837e-07
-2.07791e-07
-8.58389e-07
2.04939e-07
-1.24104e-06
-4.90248e-10
3.39093e-09
0.00113405
-2.29718e-07
1.24248e-06
2.27845e-07
8.58218e-07
-2.07785e-07
-8.58396e-07
2.04836e-07
0.00113506
-1.61293e-09
-0.00113506
3.16563e-09
-1.20366e-06
2.22712e-07
-2.24031e-07
-8.57896e-07
2.0533e-07
-2.0738e-07
8.5882e-07
1.24272e-06
0.00113405
-1.55814e-09
-0.00113405
3.53969e-09
-1.24081e-06
2.28042e-07
-2.29535e-07
-8.57894e-07
2.05208e-07
-2.07386e-07
8.58666e-07
-5.90555e-10
3.26069e-09
0.00113385
-2.24058e-07
1.237e-06
2.22326e-07
8.55524e-07
-2.05018e-07
2.02085e-07
-8.55661e-07
-1.31367e-09
-0.00113479
2.84132e-09
-1.20625e-06
2.19975e-07
-2.21125e-07
-8.5523e-07
2.02534e-07
8.55972e-07
-2.04683e-07
1.23726e-06
0.00113384
-1.3185e-09
-0.00113385
3.34711e-09
-1.23522e-06
2.22533e-07
-2.23864e-07
-8.55233e-07
2.02437e-07
-2.04659e-07
8.55903e-07
-2.09576e-07
-2.17021e-07
0.000269056
-1.20283e-06
0.000271071
-0.000269056
2.11346e-07
2.18754e-07
-9.74251e-10
3.44673e-09
0.00113495
-2.21518e-07
1.2026e-06
2.19709e-07
8.55743e-07
-2.07739e-07
2.04938e-07
-8.55703e-07
-1.59026e-09
-0.00113442
3.0745e-09
-1.20079e-06
2.1993e-07
-2.21183e-07
-8.55036e-07
2.05199e-07
8.55889e-07
-2.07352e-07
1.20289e-06
0.00113495
-1.5701e-09
-0.00113495
3.34776e-09
-1.20094e-06
2.19955e-07
-2.21279e-07
-8.553e-07
2.05255e-07
-2.07415e-07
8.56105e-07
-0.000269069
2.13701e-07
2.18999e-07
1.2407e-06
1.20359e-06
-2.09022e-07
-2.16786e-07
0.000269075
-1.24301e-06
-1.20593e-06
0.000271093
-0.000269074
2.11441e-07
2.1923e-07
3.37125e-09
0.00113395
-2.26633e-07
1.2427e-06
2.25319e-07
8.56081e-07
-2.04453e-07
-8.55006e-07
2.02647e-07
-1.24626e-06
-2.29969e-09
3.26119e-09
0.0011344
-2.29407e-07
1.24828e-06
2.28168e-07
8.61693e-07
-2.07256e-07
-8.60619e-07
2.05425e-07
0.00113394
-2.82968e-09
-0.00113394
2.61319e-09
-1.24041e-06
2.25573e-07
-2.26354e-07
-8.54783e-07
2.02774e-07
-2.04228e-07
8.56259e-07
1.24863e-06
0.00113439
-2.91639e-09
-0.00113439
2.33446e-09
-1.24593e-06
2.28428e-07
-2.29121e-07
-8.60403e-07
2.05527e-07
-2.07055e-07
8.61853e-07
-2.11681e-07
-2.14074e-07
0.000269097
-1.20863e-06
0.000271122
-0.000269096
2.14183e-07
2.16558e-07
2.94178e-09
0.00113506
-2.23922e-07
1.20567e-06
2.22802e-07
8.58965e-07
-2.07175e-07
-8.57737e-07
2.05536e-07
-1.24071e-06
-2.13149e-09
3.28828e-09
0.00113405
-2.29394e-07
1.24279e-06
2.28162e-07
8.58802e-07
-2.07186e-07
-8.5775e-07
2.05413e-07
0.00113505
-3.19737e-09
-0.00113505
2.46699e-09
-1.20335e-06
2.23018e-07
-2.23687e-07
-8.57499e-07
2.05625e-07
-2.0698e-07
8.59144e-07
1.24304e-06
0.00113405
-2.95376e-09
-0.00113405
2.51636e-09
-1.24046e-06
2.28374e-07
-2.2914e-07
-8.57522e-07
2.05503e-07
-2.06991e-07
8.5897e-07
-1.82909e-09
3.07537e-09
0.00113384
-2.23725e-07
1.23732e-06
2.22644e-07
8.56052e-07
-2.04443e-07
2.02654e-07
-8.55083e-07
-3.28673e-09
-0.00113478
2.43087e-09
-1.20604e-06
2.20156e-07
-2.20898e-07
-8.54753e-07
2.02895e-07
8.56372e-07
-2.04214e-07
1.23749e-06
0.00113384
-2.86515e-09
-0.00113384
2.61321e-09
-1.23495e-06
2.22771e-07
-2.23559e-07
-8.54813e-07
2.02755e-07
-2.04233e-07
8.5624e-07
-2.09128e-07
-2.16602e-07
0.000269056
-1.20312e-06
0.00027107
-0.000269055
2.11605e-07
2.19054e-07
-2.07331e-09
3.10955e-09
0.00113495
-2.21147e-07
1.20295e-06
2.20059e-07
8.56261e-07
-2.07204e-07
2.05471e-07
-8.55143e-07
-3.30575e-09
-0.00113442
2.28577e-09
-1.20047e-06
2.20239e-07
-2.20822e-07
-8.54572e-07
2.05581e-07
8.56272e-07
-2.06862e-07
1.2032e-06
0.00113495
-3.12971e-09
-0.00113495
2.28984e-09
-1.20059e-06
2.20278e-07
-2.20899e-07
-8.54861e-07
2.05606e-07
-2.06958e-07
8.56464e-07
-0.000269067
2.13969e-07
2.19222e-07
1.24031e-06
1.20323e-06
-2.08726e-07
-2.16505e-07
0.000269074
-1.24283e-06
-1.20578e-06
0.000271093
-0.000269074
2.11231e-07
2.19017e-07
2.34044e-09
0.00113394
-2.26302e-07
1.24306e-06
2.25604e-07
8.56251e-07
-2.04231e-07
-8.54765e-07
2.02793e-07
-1.24583e-06
-3.23097e-09
2.10902e-09
0.00113439
-2.29078e-07
1.24867e-06
2.28445e-07
8.61822e-07
-2.07069e-07
-8.60406e-07
2.05537e-07
0.00113394
-3.21197e-09
-0.00113394
2.3905e-09
-1.2405e-06
2.25478e-07
-2.26395e-07
-8.54923e-07
2.02651e-07
-2.043e-07
8.56058e-07
1.24844e-06
0.00113439
-2.83346e-09
-0.00113439
2.1895e-09
-1.24604e-06
2.28311e-07
-2.2919e-07
-8.60581e-07
2.05378e-07
-2.07153e-07
8.61617e-07
-2.11499e-07
-2.13772e-07
0.000269096
-1.20843e-06
0.000271123
-0.000269096
2.13959e-07
2.16309e-07
2.16063e-09
0.00113505
-2.2362e-07
1.206e-06
2.23063e-07
8.59119e-07
-2.06999e-07
-8.57498e-07
2.05634e-07
-1.24037e-06
-3.36024e-09
2.22962e-09
0.00113404
-2.29109e-07
1.24309e-06
2.28389e-07
8.58948e-07
-2.07004e-07
-8.5752e-07
2.05512e-07
0.00113505
-3.08538e-09
-0.00113505
2.08932e-09
-1.20341e-06
2.22925e-07
-2.23719e-07
-8.57709e-07
2.05473e-07
-2.07095e-07
8.5889e-07
1.24284e-06
0.00113404
-2.93067e-09
-0.00113404
2.44646e-09
-1.24059e-06
2.28252e-07
-2.29233e-07
-8.57687e-07
2.05385e-07
-2.07068e-07
8.5876e-07
-3.4452e-09
2.31505e-09
0.00113384
-2.23532e-07
1.23753e-06
2.22785e-07
8.56212e-07
-2.04235e-07
2.0277e-07
-8.54822e-07
-3.48093e-09
-0.00113478
2.46227e-09
-1.20619e-06
2.20037e-07
-2.20976e-07
-8.54929e-07
2.02704e-07
8.56164e-07
-2.04357e-07
1.23726e-06
0.00113384
-3.28246e-09
-0.00113384
2.69707e-09
-1.23513e-06
2.22623e-07
-2.23684e-07
-8.54966e-07
2.02586e-07
-2.04363e-07
8.56068e-07
-2.08888e-07
-2.16344e-07
0.000269055
-1.2029e-06
0.00027107
-0.000269055
2.11373e-07
2.18784e-07
-3.6357e-09
1.98624e-09
0.00113494
-2.20856e-07
1.20325e-06
2.20302e-07
8.56425e-07
-2.06978e-07
2.05598e-07
-8.54875e-07
-3.19311e-09
-0.00113441
2.49084e-09
-1.20063e-06
2.2007e-07
-2.20949e-07
-8.5482e-07
2.05344e-07
8.55988e-07
-2.07059e-07
1.20301e-06
0.00113494
-2.97386e-09
-0.00113494
2.13611e-09
-1.20072e-06
2.20136e-07
-2.21003e-07
-8.55098e-07
2.05385e-07
-2.07143e-07
8.56198e-07
-0.000269067
2.13715e-07
2.18954e-07
1.24056e-06
1.20347e-06
-2.09016e-07
-2.16784e-07
0.000269074
-1.24261e-06
-1.20554e-06
0.000271093
-0.000269075
2.11012e-07
2.18827e-07
2.47402e-09
0.00113394
-2.26494e-07
1.24279e-06
2.25384e-07
8.55949e-07
-2.04467e-07
-8.55051e-07
2.02483e-07
-1.2461e-06
-2.99885e-09
2.33987e-09
0.00113439
-2.29287e-07
1.2484e-06
2.28215e-07
8.61525e-07
-2.07306e-07
-8.60697e-07
2.05229e-07
0.00113394
-1.65962e-09
-0.00113394
3.27558e-09
-1.24075e-06
2.25207e-07
-2.26707e-07
-8.55264e-07
2.02315e-07
-2.04708e-07
8.55738e-07
1.24812e-06
0.00113439
-1.49399e-09
-0.00113439
3.35607e-09
-1.24636e-06
2.27982e-07
-2.29547e-07
-8.60871e-07
2.05093e-07
-2.07509e-07
8.61349e-07
-2.11768e-07
-2.14073e-07
0.000269096
-1.20829e-06
0.000271123
-0.000269097
2.13813e-07
2.16075e-07
2.08715e-09
0.00113505
-2.23814e-07
1.20575e-06
2.22838e-07
8.58803e-07
-2.07245e-07
-8.57811e-07
2.05325e-07
-1.24063e-06