/*--------------------------------*- C++ -*----------------------------------*\
| =========                 |                                                 |
| \\      /  F ield         | OpenFOAM: The Open Source CFD Toolbox           |
|  \\    /   O peration     | Version:  v1906                                 |
|   \\  /    A nd           | Web:      www.OpenFOAM.com                      |
|    \\/     M anipulation  |                                                 |
\*---------------------------------------------------------------------------*/
FoamFile
{
    version     2.0;
    format      ascii;
    class       volVectorField;
    location    "250";
    object      U;
}
// * * * * * * * * * * * * * * * * * * * * * * * * * * * * * * * * * * * * * //

dimensions      [0 1 -1 0 0 0 0];


internalField   nonuniform List<vector> 
42616
(
(0.000107958 0.000107892 0.100299)
(-0.000190195 0.00011927 0.100385)
(0.000119341 -0.000190187 0.100385)
(-0.000239593 -0.000239612 0.100397)
(9.42792e-05 9.42319e-05 0.10086)
(-0.000158939 9.68064e-05 0.100942)
(9.68113e-05 -0.000158935 0.100942)
(-0.000201044 -0.000201096 0.100968)
(9.54251e-05 9.54131e-05 0.10137)
(-0.000155796 9.34669e-05 0.101449)
(9.34556e-05 -0.000155803 0.101449)
(-0.000201995 -0.000202047 0.101471)
(9.38828e-05 9.38732e-05 0.101892)
(-0.000152046 9.00868e-05 0.101957)
(9.00997e-05 -0.00015205 0.101957)
(-0.000198963 -0.000199008 0.101964)
(9.11256e-05 9.11255e-05 0.102398)
(-0.000146289 8.55731e-05 0.102446)
(8.55818e-05 -0.000146292 0.102446)
(-0.000193586 -0.000193646 0.102432)
(8.81456e-05 8.81535e-05 0.102885)
(-0.000140626 8.16025e-05 0.102912)
(8.16241e-05 -0.000140635 0.102912)
(-0.000188079 -0.000188126 0.10287)
(8.53276e-05 8.53456e-05 0.103353)
(-0.000135499 7.84003e-05 0.103354)
(7.84271e-05 -0.000135502 0.103354)
(-0.000183806 -0.000183852 0.10328)
(8.28505e-05 8.28597e-05 0.103803)
(-0.000131067 7.59591e-05 0.103774)
(7.59846e-05 -0.000131066 0.103774)
(-0.000180279 -0.000180354 0.103663)
(8.06616e-05 8.0629e-05 0.104237)
(-0.000127328 7.42401e-05 0.104174)
(7.42481e-05 -0.00012733 0.104174)
(-0.000177835 -0.000177904 0.104023)
(7.86967e-05 7.86685e-05 0.104658)
(-0.00012414 7.29534e-05 0.104557)
(7.28519e-05 -0.000124069 0.104557)
(-0.000177095 -0.000177133 0.104358)
(7.71416e-05 7.71152e-05 0.105066)
(-0.000121128 7.15784e-05 0.104925)
(7.18253e-05 -0.000121281 0.104924)
(-0.000175857 -0.000175934 0.104674)
(7.5486e-05 7.54767e-05 0.105464)
(-0.000118649 7.05126e-05 0.105277)
(7.02919e-05 -0.000118413 0.105277)
(-0.00017672 -0.000176786 0.104965)
(7.40376e-05 7.40182e-05 0.105851)
(-0.000116326 6.94872e-05 0.105615)
(6.92509e-05 -0.000116207 0.105615)
(-0.000175878 -0.000175995 0.105241)
(7.26218e-05 7.26566e-05 0.106229)
(-0.000113921 6.83481e-05 0.105938)
(6.78452e-05 -0.000113656 0.105939)
(-0.000175882 -0.000175889 0.10549)
(7.15128e-05 7.14599e-05 0.106598)
(-0.000111449 6.68638e-05 0.106248)
(6.73021e-05 -0.000111655 0.106248)
(-0.000174741 -0.000174797 0.105721)
(6.96848e-05 6.97171e-05 0.106957)
(-0.000109591 6.63787e-05 0.106542)
(6.62022e-05 -0.000109573 0.106542)
(-0.000170806 -0.000170804 0.105927)
(6.82858e-05 6.82746e-05 0.107307)
(-0.000107497 6.53144e-05 0.106822)
(6.5609e-05 -0.000107597 0.106822)
(-0.000171531 -0.000171563 0.106106)
(6.6842e-05 6.68672e-05 0.107649)
(-0.000105438 6.42051e-05 0.107086)
(6.39117e-05 -0.000105249 0.107086)
(-0.000171935 -0.000171983 0.106262)
(6.53494e-05 6.53761e-05 0.107982)
(-0.000103571 6.31393e-05 0.107334)
(6.28273e-05 -0.000103339 0.107334)
(-0.000169852 -0.000169898 0.106393)
(6.37995e-05 6.38213e-05 0.108306)
(-0.000101659 6.20677e-05 0.107565)
(6.17432e-05 -0.000101415 0.107565)
(-0.000167015 -0.000167071 0.106496)
(6.2272e-05 6.22869e-05 0.108622)
(-9.96421e-05 6.10249e-05 0.107779)
(6.10207e-05 -9.95565e-05 0.107779)
(-0.000163475 -0.000163543 0.106572)
(0.000134959 0.000134949 0.100282)
(0.000124248 0.000152867 0.100229)
(-0.00012424 0.000152848 0.100229)
(-0.000134955 0.000134916 0.100282)
(0.000152896 0.0001242 0.100229)
(0.000152868 -0.000124217 0.100229)
(9.08046e-05 9.0753e-05 0.100151)
(-9.07948e-05 9.07503e-05 0.100151)
(9.07789e-05 -9.07987e-05 0.100151)
(-9.07765e-05 -9.07968e-05 0.100151)
(-0.000152891 0.000124196 0.100229)
(-0.000152878 -0.000124213 0.100229)
(0.000134948 -0.000134967 0.100282)
(0.000124201 -0.000152897 0.100229)
(-0.000124197 -0.00015288 0.100229)
(-0.000134957 -0.000134941 0.100282)
(0.000239636 0.000239615 0.100397)
(0.000111305 0.000111179 0.100892)
(0.000119392 0.000190088 0.100385)
(-0.000119343 0.000190129 0.100385)
(8.91025e-05 0.000147213 0.100823)
(-8.90639e-05 0.00014721 0.100823)
(-0.000239646 0.000239564 0.100397)
(-0.000111267 0.000111147 0.100892)
(0.000190231 0.000119289 0.100385)
(0.000190169 -0.000119349 0.100385)
(0.000147189 8.90739e-05 0.100823)
(0.000147222 -8.90949e-05 0.100823)
(-0.000190151 -0.000119353 0.100385)
(-0.000147158 8.9075e-05 0.100823)
(-0.00014718 -8.90891e-05 0.100823)
(0.000239568 -0.000239658 0.100397)
(0.000111258 -0.000111271 0.100892)
(-0.000119321 -0.000190216 0.100385)
(8.9076e-05 -0.000147148 0.100823)
(-8.90554e-05 -0.000147174 0.100823)
(-0.000111256 -0.000111275 0.100892)
(0.000201133 0.000200967 0.100968)
(0.000105721 0.000105641 0.101395)
(9.68199e-05 0.000158993 0.100941)
(-9.67928e-05 0.000158989 0.100941)
(9.41997e-05 0.000156671 0.10132)
(-9.41998e-05 0.000156672 0.10132)
(-0.000201095 0.000200933 0.100967)
(-0.000105709 0.000105632 0.101395)
(0.000158972 9.68005e-05 0.100942)
(0.00015899 -9.6813e-05 0.100942)
(0.000156627 9.42039e-05 0.10132)
(0.000156667 -9.42064e-05 0.10132)
(-0.000158967 -9.68079e-05 0.100942)
(-0.000156624 9.42126e-05 0.10132)
(-0.000156645 -9.41973e-05 0.10132)
(0.000201042 -0.000201105 0.100968)
(0.000105664 -0.000105676 0.101395)
(-9.67932e-05 -0.000158961 0.100942)
(9.42001e-05 -0.000156624 0.10132)
(-9.42067e-05 -0.000156644 0.10132)
(-0.000105696 -0.000105703 0.101395)
(0.000202053 0.000201925 0.101471)
(9.66475e-05 9.65882e-05 0.101893)
(9.34493e-05 0.000155854 0.101449)
(-9.34541e-05 0.000155851 0.101449)
(9.1147e-05 0.000153335 0.101832)
(-9.11362e-05 0.000153326 0.101832)
(-0.00020205 0.000201918 0.101471)
(-9.66291e-05 9.6583e-05 0.101893)
(0.000155804 9.3463e-05 0.101449)
(0.000155844 -9.34575e-05 0.101449)
(0.000153277 9.11498e-05 0.101832)
(0.000153309 -9.11326e-05 0.101832)
(-0.000155827 -9.34516e-05 0.101449)
(-0.000153273 9.11425e-05 0.101832)
(-0.000153311 -9.11396e-05 0.101832)
(0.000201994 -0.00020207 0.101471)
(9.65373e-05 -9.65719e-05 0.101893)
(-9.34641e-05 -0.000155826 0.101449)
(9.11477e-05 -0.000153274 0.101832)
(-9.114e-05 -0.000153285 0.101832)
(-9.66488e-05 -9.665e-05 0.101893)
(0.000198926 0.000198823 0.101964)
(8.60951e-05 8.60501e-05 0.102366)
(9.00969e-05 0.000152111 0.101957)
(-9.00826e-05 0.000152099 0.101957)
(8.66968e-05 0.000147835 0.102326)
(-8.66778e-05 0.000147824 0.102326)
(-0.000198945 0.000198836 0.101964)
(-8.59864e-05 8.59476e-05 0.102366)
(0.000152054 9.00983e-05 0.101957)
(0.000152083 -9.00808e-05 0.101957)
(0.000147779 8.66958e-05 0.102326)
(0.000147809 -8.66756e-05 0.102326)
(-0.000152085 -9.00833e-05 0.101957)
(-0.000147769 8.6681e-05 0.102326)
(-0.000147814 -8.66804e-05 0.102326)
(0.000198883 -0.00019898 0.101964)
(8.60781e-05 -8.61115e-05 0.102366)
(-9.00826e-05 -0.000152055 0.101957)
(8.67001e-05 -0.000147776 0.102326)
(-8.66761e-05 -0.000147774 0.102326)
(-8.60521e-05 -8.60524e-05 0.102366)
(0.000193634 0.00019354 0.102432)
(7.61684e-05 7.61323e-05 0.102812)
(8.55707e-05 0.000146348 0.102446)
(-8.5569e-05 0.000146348 0.102446)
(8.25323e-05 0.000142064 0.102797)
(-8.25175e-05 0.000142065 0.102797)
(-0.000193603 0.000193506 0.102431)
(-7.61239e-05 7.60914e-05 0.102812)
(0.000146291 8.5572e-05 0.102446)
(0.000146324 -8.55542e-05 0.102446)
(0.000142007 8.25323e-05 0.102798)
(0.00014203 -8.24943e-05 0.102798)
(-0.000146332 -8.55637e-05 0.102446)
(-0.000142 8.25234e-05 0.102798)
(-0.000142044 -8.25101e-05 0.102798)
(0.000193491 -0.000193593 0.102432)
(7.59849e-05 -7.60279e-05 0.102812)
(-8.5562e-05 -0.000146287 0.102446)
(8.25272e-05 -0.000141998 0.102798)
(-8.25057e-05 -0.000141994 0.102798)
(-7.60725e-05 -7.60831e-05 0.102812)
(0.000188165 0.000188078 0.102871)
(6.69886e-05 6.69463e-05 0.103229)
(8.15967e-05 0.000140684 0.102912)
(-8.15971e-05 0.000140694 0.102912)
(7.91331e-05 0.000136776 0.103245)
(-7.9097e-05 0.000136767 0.103245)
(-0.000188135 0.000188051 0.102871)
(-6.69314e-05 6.69173e-05 0.103229)
(0.000140628 8.15994e-05 0.102912)
(0.000140667 -8.15849e-05 0.102912)
(0.000136724 7.91329e-05 0.103245)
(0.000136743 -7.90861e-05 0.103245)
(-0.000140676 -8.15983e-05 0.102912)
(-0.000136706 7.91138e-05 0.103245)
(-0.000136768 -7.91254e-05 0.103245)
(0.000188002 -0.00018811 0.10287)
(6.6926e-05 -6.69584e-05 0.10323)
(-8.15965e-05 -0.000140625 0.102912)
(7.9136e-05 -0.000136714 0.103245)
(-7.91219e-05 -0.000136714 0.103245)
(-6.70093e-05 -6.70096e-05 0.103229)
(0.000183726 0.000183638 0.10328)
(5.91445e-05 5.90858e-05 0.10362)
(7.83941e-05 0.000135549 0.103354)
(-7.83888e-05 0.000135555 0.103354)
(7.64957e-05 0.00013218 0.103671)
(-7.64365e-05 0.000132145 0.103671)
(-0.000183589 0.000183512 0.10328)
(-5.88932e-05 5.88793e-05 0.103621)
(0.000135498 7.84013e-05 0.103354)
(0.00013553 -7.83722e-05 0.103354)
(0.00013213 7.65346e-05 0.103671)
(0.000132134 -7.64399e-05 0.103671)
(-0.000135537 -7.83838e-05 0.103354)
(-0.00013209 7.64654e-05 0.103671)
(-0.00013215 -7.64801e-05 0.103671)
(0.000183503 -0.000183621 0.10328)
(5.89498e-05 -5.90162e-05 0.103621)
(-7.83835e-05 -0.000135484 0.103354)
(7.65145e-05 -0.000132108 0.103671)
(-7.64828e-05 -0.000132096 0.103671)
(-5.88811e-05 -5.88934e-05 0.10362)
(0.000180463 0.00018036 0.103664)
(5.23231e-05 5.23119e-05 0.103987)
(7.59424e-05 0.000131103 0.103774)
(-7.5954e-05 0.000131127 0.103774)
(7.46932e-05 0.00012827 0.104076)
(-7.46741e-05 0.000128261 0.104076)
(-0.000180082 0.000179961 0.103664)
(-5.25209e-05 5.25788e-05 0.103988)
(0.000131055 7.594e-05 0.103774)
(0.000131093 -7.59299e-05 0.103774)
(0.000128214 7.46222e-05 0.104076)
(0.000128226 -7.46519e-05 0.104076)
(-0.000131107 -7.59494e-05 0.103774)
(-0.000128193 7.45947e-05 0.104076)
(-0.000128239 -7.46355e-05 0.104076)
(0.000180036 -0.00018018 0.103664)
(5.26083e-05 -5.25615e-05 0.103988)
(-7.59596e-05 -0.000131054 0.103774)
(7.45742e-05 -0.000128172 0.104076)
(-7.45828e-05 -0.000128173 0.104076)
(-5.28375e-05 -5.2816e-05 0.103988)
(0.00017818 0.000178124 0.104022)
(4.69433e-05 4.69819e-05 0.104333)
(7.43551e-05 0.0001274 0.104174)
(-7.43146e-05 0.000127399 0.104174)
(7.33071e-05 0.00012493 0.104463)
(-7.32889e-05 0.000124934 0.104463)
(-0.00017788 0.000177819 0.104023)
(-4.69299e-05 4.69928e-05 0.104333)
(0.000127348 7.42943e-05 0.104174)
(0.000127382 -7.43185e-05 0.104174)
(0.000124874 7.32522e-05 0.104463)
(0.00012492 -7.33079e-05 0.104463)
(-0.000127375 -7.4263e-05 0.104174)
(-0.000124861 7.32186e-05 0.104463)
(-0.000124955 -7.32868e-05 0.104463)
(0.000177734 -0.00017778 0.104023)
(4.73643e-05 -4.73053e-05 0.104332)
(-7.42166e-05 -0.000127306 0.104174)
(7.32382e-05 -0.00012486 0.104463)
(-7.32403e-05 -0.000124886 0.104463)
(-4.68076e-05 -4.67817e-05 0.104332)
(0.000176655 0.000176603 0.104359)
(4.2238e-05 4.22712e-05 0.104655)
(7.29854e-05 0.000124171 0.104557)
(-7.30285e-05 0.000124216 0.104557)
(7.22277e-05 0.000122069 0.104834)
(-7.21538e-05 0.000122038 0.104834)
(-0.000176629 0.000176564 0.104359)
(-4.21315e-05 4.2194e-05 0.104655)
(0.000124112 7.29306e-05 0.104557)
(0.000124129 -7.29233e-05 0.104557)
(0.000121999 7.21897e-05 0.104834)
(0.000121974 -7.20035e-05 0.104834)
(-0.000124133 -7.29245e-05 0.104557)
(-0.000121956 7.20897e-05 0.104834)
(-0.000121927 -7.20146e-05 0.104834)
(0.000177149 -0.000177215 0.104359)
(4.07512e-05 -4.07204e-05 0.104657)
(-7.28763e-05 -0.000124062 0.104557)
(7.19516e-05 -0.000121907 0.104834)
(-7.19712e-05 -0.000121852 0.104834)
(-4.19111e-05 -4.19184e-05 0.104657)
(0.000177076 0.000177039 0.104673)
(3.56113e-05 3.5574e-05 0.104963)
(7.17805e-05 0.000121286 0.104925)
(-7.16417e-05 0.000121208 0.104925)
(7.0772e-05 0.000119273 0.10519)
(-7.11092e-05 0.000119462 0.10519)
(-0.000177082 0.000177042 0.104673)
(-3.62008e-05 3.62393e-05 0.104962)
(0.000121218 7.17122e-05 0.104925)
(0.000121353 -7.1885e-05 0.104924)
(0.000119209 7.07109e-05 0.10519)
(0.000119524 -7.12799e-05 0.105189)
(-0.000121284 -7.16794e-05 0.104924)
(-0.0001194 7.10087e-05 0.10519)
(-0.000119597 -7.12168e-05 0.10519)
(0.000175972 -0.000176018 0.104672)
(3.72805e-05 -3.73086e-05 0.104959)
(-7.16222e-05 -0.000121207 0.104924)
(7.11818e-05 -0.000119461 0.10519)
(-7.11594e-05 -0.000119517 0.10519)
(-3.62614e-05 -3.62786e-05 0.10496)
(0.00017492 0.000174822 0.104967)
(3.18751e-05 3.18502e-05 0.105247)
(7.05249e-05 0.000118698 0.105276)
(-7.0617e-05 0.000118709 0.105277)
(6.97306e-05 0.000116807 0.105531)
(-6.97483e-05 0.000116857 0.105531)
(-0.000175706 0.00017562 0.104967)
(-3.16573e-05 3.17053e-05 0.105247)
(0.000118639 7.0483e-05 0.105277)
(0.00011847 -7.03787e-05 0.105277)
(0.000116758 6.96605e-05 0.105532)
(0.00011687 -6.99444e-05 0.105531)
(-0.000118686 -7.0668e-05 0.105277)
(-0.000116786 6.96805e-05 0.105532)
(-0.000116942 -6.99536e-05 0.105531)
(0.000177142 -0.000177275 0.104966)
(3.28445e-05 -3.27995e-05 0.105247)
(-7.06262e-05 -0.000118609 0.105277)
(6.98942e-05 -0.000116792 0.105532)
(-6.98823e-05 -0.000116879 0.105531)
(-3.25458e-05 -3.25773e-05 0.105246)
(0.000175244 0.000175109 0.105241)
(2.63707e-05 2.6361e-05 0.105512)
(6.93448e-05 0.000116255 0.105615)
(-6.95442e-05 0.000116398 0.105614)
(6.86392e-05 0.000114586 0.105859)
(-6.86611e-05 0.000114645 0.105858)
(-0.000175056 0.000174964 0.105241)
(-2.59253e-05 2.60406e-05 0.105511)
(0.000116201 6.92993e-05 0.105615)
(0.000116283 -6.93096e-05 0.105615)
(0.000114504 6.85824e-05 0.105859)
(0.000114588 -6.86063e-05 0.105859)
(-0.000116336 -6.94641e-05 0.105615)
(-0.000114563 6.8582e-05 0.105859)
(-0.000114721 -6.87672e-05 0.105858)
(0.000175399 -0.000175538 0.105242)
(2.59778e-05 -2.58605e-05 0.105512)
(-6.94179e-05 -0.000116262 0.105615)
(6.85243e-05 -0.000114491 0.105859)
(-6.87015e-05 -0.000114623 0.105858)
(-2.62242e-05 -2.61465e-05 0.105511)
(0.000174811 0.000174765 0.105491)
(2.22169e-05 2.22451e-05 0.105755)
(6.79612e-05 0.000113793 0.105938)
(-6.84856e-05 0.000113992 0.105938)
(6.7868e-05 0.000112368 0.106171)
(-6.74002e-05 0.000112071 0.106172)
(-0.000175738 0.000175735 0.105489)
(-2.18616e-05 2.19823e-05 0.105755)
(0.000113703 6.79347e-05 0.105939)
(0.000113733 -6.79769e-05 0.105938)
(0.000112314 6.77569e-05 0.106171)
(0.000112271 -6.784e-05 0.106171)
(-0.000113919 -6.83281e-05 0.105938)
(-0.00011201 6.72948e-05 0.106172)
(-0.000112238 -6.76314e-05 0.106171)
(0.000174842 -0.000174872 0.105491)
(2.3106e-05 -2.29895e-05 0.105755)
(-6.82775e-05 -0.000113808 0.105938)
(6.77112e-05 -0.000112187 0.106172)
(-6.74966e-05 -0.000112151 0.106172)
(-2.24289e-05 -2.23838e-05 0.105755)
(0.000175371 0.00017531 0.10572)
(1.56129e-05 1.57035e-05 0.105978)
(6.75836e-05 0.00011175 0.106248)
(-6.69613e-05 0.000111507 0.106248)
(6.5984e-05 0.000109786 0.10647)
(-6.65227e-05 0.000110079 0.10647)
(-0.000174197 0.000174206 0.105721)
(-1.59257e-05 1.60549e-05 0.105979)
(0.000111712 6.74563e-05 0.106248)
(0.00011174 -6.74182e-05 0.106248)
(0.000109733 6.59516e-05 0.106471)
(0.000109947 -6.61781e-05 0.10647)
(-0.000111885 -6.7625e-05 0.106248)
(-0.000109945 6.64198e-05 0.10647)
(-0.000109745 -6.57889e-05 0.106471)
(0.000175198 -0.000175208 0.105721)
(1.49954e-05 -1.48918e-05 0.105979)
(-6.74764e-05 -0.000111813 0.106248)
(6.60742e-05 -0.000109858 0.106471)
(-6.57198e-05 -0.000109635 0.106471)
(-1.42861e-05 -1.4213e-05 0.105979)
(0.000172233 0.000172244 0.105927)
(1.09766e-05 1.10484e-05 0.106177)
(6.62206e-05 0.000109661 0.106542)
(-6.65106e-05 0.000109731 0.106542)
(6.52813e-05 0.000107967 0.106754)
(-6.55727e-05 0.000108185 0.106753)
(-0.000172733 0.00017273 0.105927)
(-1.10154e-05 1.10983e-05 0.106176)
(0.0001096 6.61776e-05 0.106542)
(0.00010967 -6.63298e-05 0.106542)
(0.000107923 6.52235e-05 0.106754)
(0.000108298 -6.56891e-05 0.106753)
(-0.000109721 -6.63272e-05 0.106541)
(-0.000108068 6.54653e-05 0.106754)
(-0.000108149 -6.54205e-05 0.106753)
(0.000171601 -0.000171614 0.105927)
(1.05864e-05 -1.04862e-05 0.106175)
(-6.62551e-05 -0.000109594 0.106542)
(6.55731e-05 -0.000108192 0.106753)
(-6.53277e-05 -0.000108033 0.106754)
(-9.88281e-06 -9.82001e-06 0.106176)
(0.000171306 0.000171282 0.106108)
(6.98639e-06 7.04353e-06 0.10635)
(6.52888e-05 0.000107623 0.106822)
(-6.54441e-05 0.000107614 0.106822)
(6.42802e-05 0.000105967 0.107021)
(-6.464e-05 0.00010618 0.107021)
(-0.000172089 0.000172049 0.106107)
(-7.41279e-06 7.46899e-06 0.106349)
(0.000107588 6.51866e-05 0.106822)
(0.0001077 -6.57568e-05 0.106821)
(0.000105944 6.42164e-05 0.107022)
(0.000106206 -6.46932e-05 0.107021)
(-0.000107568 -6.54212e-05 0.106821)
(-0.000106069 6.45066e-05 0.107021)
(-0.000106194 -6.47485e-05 0.107021)
(0.000172507 -0.000172544 0.106106)
(7.6754e-06 -7.59676e-06 0.106348)
(-6.52942e-05 -0.000107461 0.106822)
(6.45471e-05 -0.000106104 0.107021)
(-6.46422e-05 -0.000106084 0.107021)
(-7.72795e-06 -7.68572e-06 0.106348)
(0.000170176 0.000170149 0.106264)
(3.22995e-06 3.27403e-06 0.106498)
(6.42812e-05 0.000105614 0.107086)
(-6.43233e-05 0.000105532 0.107086)
(6.31996e-05 0.000104076 0.107273)
(-6.35555e-05 0.000104254 0.107273)
(-0.000171074 0.000171015 0.106263)
(-3.72812e-06 3.80251e-06 0.106498)
(0.000105556 6.42204e-05 0.107086)
(0.00010535 -6.40484e-05 0.107086)
(0.00010402 6.3148e-05 0.107274)
(0.000104299 -6.38261e-05 0.107273)
(-0.000105357 -6.41119e-05 0.107086)
(-0.000104155 6.34333e-05 0.107273)
(-0.000104247 -6.3769e-05 0.107273)
(0.000171696 -0.000171754 0.106262)
(4.82217e-06 -4.75293e-06 0.106497)
(-6.40209e-05 -0.000105245 0.107086)
(6.3674e-05 -0.000104196 0.107273)
(-6.36606e-05 -0.000104143 0.107273)
(-4.88503e-06 -4.84414e-06 0.106497)
(0.00016805 0.000168022 0.106393)
(-1.50377e-07 -1.00449e-07 0.106619)
(6.31438e-05 0.000103711 0.107334)
(-6.32268e-05 0.000103674 0.107334)
(6.21597e-05 0.000102112 0.107508)
(-6.24018e-05 0.000102265 0.107508)
(-0.000168859 0.000168825 0.106393)
(-9.65098e-08 1.75047e-07 0.106619)
(0.000103632 6.3085e-05 0.107334)
(0.000103444 -6.29471e-05 0.107334)
(0.000102078 6.21e-05 0.107509)
(0.000102369 -6.2747e-05 0.107508)
(-0.000103358 -6.2783e-05 0.107334)
(-0.000102171 6.22734e-05 0.107509)
(-0.000102376 -6.28159e-05 0.107508)
(0.000169842 -0.0001699 0.106393)
(1.2549e-06 -1.17795e-06 0.106618)
(-6.26906e-05 -0.000103252 0.107334)
(6.25953e-05 -0.000102263 0.107508)
(-6.26948e-05 -0.000102275 0.107508)
(-1.40304e-06 -1.37492e-06 0.106618)
(0.00016539 0.000165373 0.106497)
(-3.17522e-06 -3.15781e-06 0.106713)
(6.20322e-05 0.000101696 0.107565)
(-6.21799e-05 0.000101737 0.107564)
(6.11196e-05 0.00010008 0.107726)
(-6.11943e-05 0.000100179 0.107726)
(-0.000165926 0.000165886 0.106496)
(3.26578e-06 -3.2211e-06 0.106713)
(0.00010164 6.1955e-05 0.107565)
(0.000101512 -6.18711e-05 0.107565)
(0.000100076 6.10714e-05 0.107727)
(0.000100438 -6.17985e-05 0.107726)
(-0.000101495 -6.18802e-05 0.107565)
(-0.000100077 6.10859e-05 0.107727)
(-0.000100383 -6.16949e-05 0.107726)
(0.00016688 -0.000166937 0.106496)
(-2.11096e-06 2.19305e-06 0.106712)
(-6.1779e-05 -0.000101395 0.107565)
(6.16556e-05 -0.000100329 0.107726)
(-6.1562e-05 -0.000100285 0.107726)
(2.29201e-06 2.31009e-06 0.106712)
(0.000162184 0.000162134 0.106572)
(6.09653e-05 9.9641e-05 0.107778)
(-6.11366e-05 9.97311e-05 0.107778)
(-0.00016237 0.000162293 0.106572)
(9.95951e-05 6.08756e-05 0.107778)
(9.96566e-05 -6.11702e-05 0.107778)
(-9.96725e-05 -6.11958e-05 0.107778)
(0.000163569 -0.000163626 0.106572)
(-6.10795e-05 -9.95691e-05 0.107779)
(-3.34131e-07 -3.36786e-07 0.0999988)
(1.68283e-05 1.68229e-05 0.100003)
(-4.50611e-07 1.39328e-05 0.1)
(1.39404e-05 -4.53156e-07 0.1)
(-4.66041e-05 5.72833e-06 0.100009)
(-1.52711e-05 1.55877e-05 0.0999999)
(-0.000127914 6.04508e-05 0.100058)
(-1.31109e-05 -8.63775e-07 0.0999958)
(5.7226e-06 -4.6588e-05 0.100009)
(1.55913e-05 -1.5271e-05 0.0999999)
(-8.61895e-07 -1.31089e-05 0.0999958)
(6.04612e-05 -0.000127844 0.100058)
(-1.87247e-05 -1.87279e-05 0.100003)
(-0.000134955 -8.10572e-05 0.100055)
(-8.10649e-05 -0.000134935 0.100055)
(-3.47639e-05 0.00013605 0.100724)
(0.000177044 0.0003885 0.0994165)
(2.38684e-06 0.000305452 0.100516)
(-8.40112e-05 0.000243386 0.0991476)
(-0.00030349 0.0008379 0.0977722)
(-0.000129198 0.000304516 0.0957183)
(0.00013578 -3.49093e-05 0.100724)
(0.000389117 0.000176006 0.0994172)
(0.000306204 2.24787e-06 0.100517)
(0.000243511 -8.39092e-05 0.099148)
(-0.000107942 0.000107894 0.100299)
(0.000107929 -0.000107939 0.100299)
(-0.00010792 -0.000107948 0.100299)
(9.17524e-05 9.16834e-05 0.100739)
(-9.17083e-05 9.17007e-05 0.100739)
(9.17376e-05 -9.17511e-05 0.100739)
(-9.17169e-05 -9.17614e-05 0.100739)
(-0.000280711 6.40031e-06 0.100754)
(-0.000399058 0.000229237 0.100526)
(-0.000175287 3.7383e-05 0.100332)
(-0.000153241 9.45079e-05 0.100558)
(-0.000358992 1.56359e-05 0.100479)
(-0.000148844 0.000198779 0.100739)
(-0.000152721 3.32782e-05 0.100497)
(0.000836859 -0.000301622 0.0977703)
(0.00030453 -0.0001288 0.0957195)
(6.35228e-06 -0.000280625 0.100754)
(3.74181e-05 -0.000175261 0.100332)
(0.00022934 -0.000399039 0.100526)
(9.44673e-05 -0.00015323 0.100558)
(1.56327e-05 -0.000358868 0.100479)
(3.33272e-05 -0.000152706 0.100497)
(0.000198815 -0.000148838 0.100739)
(-0.000372633 -0.000141967 0.100361)
(-0.000142171 -0.000372881 0.100361)
(-0.000111979 -0.000112054 0.100655)
(1.1086e-05 -7.89069e-05 0.10059)
(-7.91648e-05 1.11056e-05 0.10059)
(-1.65345e-05 0.000198348 0.100868)
(-5.49142e-05 0.000288102 0.0983199)
(-2.02841e-05 0.00020874 0.100777)
(-4.48071e-05 0.000271127 0.0979454)
(-0.000150374 0.000313462 0.0926213)
(-0.000137197 0.000273092 0.0909996)
(0.00019827 -1.66919e-05 0.100867)
(0.000288352 -5.47997e-05 0.0983202)
(0.000208787 -2.0424e-05 0.100778)
(0.000271259 -4.47403e-05 0.0979456)
(-9.42335e-05 9.42494e-05 0.10086)
(9.42899e-05 -9.42835e-05 0.10086)
(-9.42674e-05 -9.42819e-05 0.10086)
(9.61986e-05 9.61822e-05 0.101239)
(-9.61701e-05 9.61982e-05 0.101239)
(9.62114e-05 -9.62072e-05 0.101239)
(-9.62055e-05 -9.62019e-05 0.101239)
(-0.000263626 1.32869e-05 0.101153)
(-0.000219024 0.000214164 0.100818)
(-0.000164512 3.10414e-05 0.100897)
(-0.000160205 9.74311e-05 0.101064)
(-0.00029797 1.41208e-05 0.100977)
(-0.000183317 0.000197895 0.100945)
(-0.000168725 3.24797e-05 0.101019)
(0.000313434 -0.000150085 0.0926194)
(0.000273195 -0.000137065 0.0910013)
(1.33595e-05 -0.000263603 0.101153)
(3.11143e-05 -0.000164509 0.100897)
(0.000214234 -0.000219095 0.100819)
(9.74275e-05 -0.000160204 0.101064)
(1.4213e-05 -0.000297939 0.100977)
(3.25465e-05 -0.000168722 0.101019)
(0.000197871 -0.000183242 0.100945)
(-8.39006e-05 -9.71657e-05 0.100438)
(-9.72744e-05 -8.39194e-05 0.100438)
(-0.00011248 -0.000112479 0.101144)
(-8.66751e-05 -8.26267e-05 0.10043)
(-8.27595e-05 -8.67271e-05 0.10043)
(-9.37406e-06 0.000210797 0.100957)
(-2.19467e-05 0.000281539 0.0971363)
(-1.16121e-05 0.000230431 0.100902)
(-1.22545e-05 0.000256997 0.0967129)
(-0.000117406 0.000225948 0.0883852)
(-9.69367e-05 0.000187301 0.0870651)
(0.000210723 -9.49207e-06 0.100956)
(0.000281675 -2.18808e-05 0.0971363)
(0.000230485 -1.17277e-05 0.100903)
(0.000257103 -1.21717e-05 0.0967131)
(-9.53973e-05 9.54292e-05 0.10137)
(9.54388e-05 -9.54348e-05 0.10137)
(-9.54307e-05 -9.54293e-05 0.10137)
(9.43502e-05 9.43403e-05 0.101763)
(-9.43277e-05 9.43624e-05 0.101763)
(9.43735e-05 -9.4353e-05 0.101763)
(-9.43558e-05 -9.43561e-05 0.101763)
(-0.000251008 1.22034e-05 0.10158)
(-0.000222511 0.000190512 0.101028)
(-0.000167313 3.27725e-05 0.101407)
(-0.00015516 9.28666e-05 0.101577)
(-0.000290179 1.20927e-05 0.101414)
(-0.000182274 0.000169382 0.101124)
(-0.000167152 3.27079e-05 0.101537)
(0.000225781 -0.00011721 0.0883823)
(0.000187377 -9.69241e-05 0.0870667)
(1.22601e-05 -0.000250994 0.10158)
(3.28144e-05 -0.000167324 0.101407)
(0.000190558 -0.000222543 0.101028)
(9.28633e-05 -0.000155166 0.101577)
(1.21472e-05 -0.000290182 0.101414)
(3.27453e-05 -0.000167149 0.101537)
(0.000169378 -0.000182171 0.101123)
(-0.000116045 -9.15241e-05 0.100182)
(-9.16276e-05 -0.000116118 0.100182)
(-0.00010149 -0.000101495 0.101646)
(-0.000111934 -7.22901e-05 0.100086)
(-7.23749e-05 -0.000112008 0.100086)
(-6.96623e-06 0.000210203 0.100953)
(5.44709e-06 0.000258165 0.0958568)
(-7.8779e-06 0.000236272 0.100926)
(1.01516e-05 0.00022965 0.0954234)
(-7.73323e-05 0.000150022 0.084977)
(-5.91443e-05 0.000118909 0.083966)
(0.00021013 -7.05355e-06 0.100952)
(0.00025825 5.49152e-06 0.0958567)
(0.000236352 -7.95756e-06 0.100928)
(0.000229738 1.02308e-05 0.0954236)
(-9.38625e-05 9.38973e-05 0.101892)
(9.39137e-05 -9.3889e-05 0.101892)
(-9.38903e-05 -9.3891e-05 0.101892)
(9.1871e-05 9.18668e-05 0.102273)
(-9.18556e-05 9.18933e-05 0.102273)
(9.19086e-05 -9.18733e-05 0.102273)
(-9.18823e-05 -9.18814e-05 0.102273)
(-0.000238542 1.1156e-05 0.101978)
(-0.000219892 0.00016273 0.101141)
(-0.000165096 3.20918e-05 0.101923)
(-0.000150695 8.89737e-05 0.102081)
(-0.000282655 1.10196e-05 0.101822)
(-0.000175038 0.000141191 0.101214)
(-0.000163802 3.17593e-05 0.10205)
(0.000149834 -7.72242e-05 0.0849738)
(0.000118991 -5.91895e-05 0.0839676)
(1.11894e-05 -0.000238532 0.101978)
(3.21149e-05 -0.000165095 0.101923)
(0.000162796 -0.000219962 0.101142)
(8.89889e-05 -0.0001507 0.102081)
(1.10495e-05 -0.00028267 0.101822)
(3.17734e-05 -0.000163787 0.10205)
(0.000141176 -0.000174996 0.101213)
(-0.000133081 -7.9522e-05 0.0997188)
(-7.95839e-05 -0.000133146 0.0997186)
(-9.14296e-05 -9.14286e-05 0.102133)
(-0.000123752 -6.0333e-05 0.0995707)
(-6.03887e-05 -0.000123809 0.0995699)
(-6.43162e-06 0.000202312 0.100852)
(1.90959e-05 0.000226753 0.0945603)
(-6.85088e-06 0.000231238 0.100852)
(1.88255e-05 0.000197291 0.0941435)
(-4.54427e-05 9.53619e-05 0.0823425)
(-3.13361e-05 7.20476e-05 0.0815916)
(0.00020222 -6.48592e-06 0.100851)
(0.00022678 1.91343e-05 0.0945596)
(0.000231333 -6.90289e-06 0.100853)
(0.000197432 1.88339e-05 0.0941441)
(-9.11167e-05 9.11592e-05 0.102398)
(9.11643e-05 -9.11256e-05 0.102398)
(-9.11417e-05 -9.1137e-05 0.102398)
(8.8897e-05 8.88999e-05 0.102765)
(-8.88893e-05 8.89324e-05 0.102765)
(8.89383e-05 -8.88911e-05 0.102765)
(-8.89125e-05 -8.8907e-05 0.102765)
(-0.000223572 1.02814e-05 0.102335)
(-0.00021086 0.000137578 0.101161)
(-0.000159035 3.06787e-05 0.102424)
(-0.000144833 8.45076e-05 0.102565)
(-0.000271035 9.91646e-06 0.102189)
(-0.00016422 0.000116937 0.101214)
(-0.00015734 3.03246e-05 0.102546)
(9.51884e-05 -4.52473e-05 0.0823391)
(7.20311e-05 -3.11927e-05 0.0815937)
(1.03034e-05 -0.000223551 0.102335)
(3.068e-05 -0.000159025 0.102424)
(0.000137554 -0.000211001 0.101162)
(8.45175e-05 -0.000144835 0.102565)
(9.9478e-06 -0.000271058 0.102189)
(3.0329e-05 -0.00015732 0.102546)
(0.000116953 -0.000164082 0.101212)
(-0.000137773 -6.87611e-05 0.0991148)
(-6.881e-05 -0.000137871 0.0991145)
(-8.10422e-05 -8.10508e-05 0.102592)
(-0.000125203 -5.09655e-05 0.0989325)
(-5.09798e-05 -0.000125293 0.0989313)
(-6.17241e-06 0.000190674 0.100665)
(2.05417e-05 0.000194544 0.0933111)
(-6.66827e-06 0.000220975 0.100688)
(1.73856e-05 0.000165417 0.0929272)
(-2.42582e-05 6.00581e-05 0.0803358)
(-1.34926e-05 4.22777e-05 0.079785)
(0.00019057 -6.14483e-06 0.100664)
(0.000194446 2.06203e-05 0.0933099)
(0.000221078 -6.65215e-06 0.100689)
(0.000165613 1.73531e-05 0.0929281)
(-8.81393e-05 8.81866e-05 0.102885)
(8.82013e-05 -8.81465e-05 0.102885)
(-8.81699e-05 -8.81621e-05 0.102885)
(8.59917e-05 8.59992e-05 0.103238)
(-8.59771e-05 8.60295e-05 0.103238)
(8.60458e-05 -8.598e-05 0.103238)
(-8.60048e-05 -8.59935e-05 0.103238)
(-0.000207814 9.73267e-06 0.10265)
(-0.000199553 0.000116822 0.101096)
(-0.000152216 2.9334e-05 0.102904)
(-0.000139274 8.0719e-05 0.103024)
(-0.000257487 9.18538e-06 0.102513)
(-0.000152216 9.78062e-05 0.101132)
(-0.000150515 2.90357e-05 0.10302)
(5.9865e-05 -2.41009e-05 0.0803323)
(4.23689e-05 -1.34368e-05 0.0797871)
(9.75956e-06 -0.000207809 0.102649)
(2.93339e-05 -0.000152204 0.102904)
(0.000116755 -0.000199663 0.101097)
(8.07283e-05 -0.000139277 0.103024)
(9.20371e-06 -0.000257505 0.102514)
(2.9027e-05 -0.000150493 0.103021)
(9.77612e-05 -0.000152284 0.101131)
(-0.000135592 -6.07122e-05 0.0984173)
(-6.07697e-05 -0.00013564 0.0984168)
(-7.13567e-05 -7.13627e-05 0.103024)
(-0.000121968 -4.42349e-05 0.0982133)
(-4.42856e-05 -0.000121994 0.0982119)
(-5.0324e-06 0.000176964 0.100405)
(1.54522e-05 0.000164829 0.0921464)
(-5.81023e-06 0.000207905 0.100447)
(1.09101e-05 0.000137129 0.0918031)
(-1.15786e-05 3.8652e-05 0.0788051)
(-3.05432e-06 2.45783e-05 0.0784008)
(0.000176888 -5.04704e-06 0.100404)
(0.000164744 1.55756e-05 0.0921452)
(0.000208027 -5.85201e-06 0.100449)
(0.000137109 1.10322e-05 0.091804)
(-8.53202e-05 8.53693e-05 0.103353)
(8.5388e-05 -8.53161e-05 0.103353)
(-8.53524e-05 -8.53422e-05 0.103353)
(8.34212e-05 8.34539e-05 0.103692)
(-8.341e-05 8.34623e-05 0.103692)
(8.34852e-05 -8.34051e-05 0.103692)
(-8.34337e-05 -8.34161e-05 0.103692)
(-0.000192471 9.5422e-06 0.102924)
(-0.000187266 9.96583e-05 0.100958)
(-0.000145578 2.82523e-05 0.103363)
(-0.000134306 7.77015e-05 0.103461)
(-0.000243633 8.80665e-06 0.102795)
(-0.000140418 8.21865e-05 0.100981)
(-0.000144008 2.80021e-05 0.103474)
(3.83996e-05 -1.15066e-05 0.0788015)
(2.47997e-05 -3.22392e-06 0.0784033)
(9.58477e-06 -0.000192456 0.102923)
(2.82423e-05 -0.000145565 0.103363)
(9.96262e-05 -0.000187296 0.100959)
(7.77386e-05 -0.000134323 0.103461)
(8.84458e-06 -0.000243666 0.102795)
(2.79989e-05 -0.00014399 0.103474)
(8.18749e-05 -0.000140247 0.100979)
(-0.000127641 -5.50589e-05 0.097664)
(-5.50597e-05 -0.000127659 0.0976632)
(-6.28203e-05 -6.28149e-05 0.103428)
(-0.000113451 -3.88798e-05 0.0974489)
(-3.88941e-05 -0.00011347 0.0974471)
(-3.11406e-06 0.000162503 0.100087)
(7.91437e-06 0.000138905 0.0910836)
(-4.04512e-06 0.000193522 0.100145)
(2.76846e-06 0.000113099 0.090781)