/*--------------------------------*- C++ -*----------------------------------*\
| =========                 |                                                 |
| \\      /  F ield         | OpenFOAM: The Open Source CFD Toolbox           |
|  \\    /   O peration     | Version:  v1906                                 |
|   \\  /    A nd           | Web:      www.OpenFOAM.com                      |
|    \\/     M anipulation  |                                                 |
\*---------------------------------------------------------------------------*/
FoamFile
{
    version     2.0;
    format      ascii;
    class       volScalarField;
    location    "200";
    object      epsilon;
}
// * * * * * * * * * * * * * * * * * * * * * * * * * * * * * * * * * * * * * //

dimensions      [0 2 -3 0 0 0 0];


internalField   nonuniform List<scalar> 
43024
(
2.86574e-07
8.04992e-07
8.04484e-07
1.09097e-06
2.86634e-07
8.05334e-07
8.04591e-07
1.09264e-06
2.86718e-07
8.05906e-07
8.04998e-07
1.09374e-06
2.86956e-07
8.06323e-07
8.05262e-07
1.09354e-06
2.87041e-07
8.06791e-07
8.05432e-07
1.09276e-06
2.87116e-07
8.06928e-07
8.05605e-07
1.09198e-06
2.87264e-07
8.06773e-07
8.05437e-07
1.09169e-06
2.87261e-07
8.06793e-07
8.05348e-07
1.0914e-06
2.87176e-07
8.06622e-07
8.05349e-07
1.09184e-06
2.87092e-07
8.06348e-07
8.05399e-07
1.09079e-06
2.87017e-07
8.05862e-07
8.05452e-07
1.09046e-06
2.86918e-07
8.05838e-07
8.05435e-07
1.0907e-06
2.86846e-07
8.0559e-07
8.05319e-07
1.09055e-06
2.86763e-07
8.05321e-07
8.05199e-07
1.09017e-06
2.86718e-07
8.05066e-07
8.05125e-07
1.09052e-06
2.86686e-07
8.04813e-07
8.05049e-07
1.0911e-06
2.8665e-07
8.04578e-07
8.05007e-07
1.09137e-06
2.86645e-07
8.04443e-07
8.05018e-07
1.09035e-06
2.86566e-07
8.04414e-07
8.05044e-07
1.09056e-06
2.85895e-07
8.04066e-07
8.04686e-07
1.0877e-06
2.70586e-07
7.4648e-07
7.46992e-07
1.0362e-06
1.08919e-06
8.0502e-07
8.05028e-07
1.08896e-06
8.04967e-07
8.04835e-07
8.04839e-07
8.05027e-07
1.08884e-06
8.04444e-07
8.04631e-07
1.08878e-06
1.09165e-06
1.09112e-06
8.0486e-07
8.04914e-07
8.04996e-07
8.05161e-07
1.09146e-06
1.09078e-06
8.0477e-07
8.04684e-07
8.04836e-07
8.04889e-07
8.04924e-07
8.05295e-07
8.05133e-07
1.09158e-06
1.09077e-06
8.04577e-07
8.04548e-07
8.04492e-07
1.09052e-06
1.09319e-06
1.09171e-06
8.05214e-07
8.05534e-07
8.054e-07
8.0583e-07
1.09386e-06
1.09221e-06
8.05107e-07
8.05278e-07
8.05184e-07
8.05273e-07
8.05276e-07
8.05677e-07
8.0542e-07
1.09352e-06
1.09166e-06
8.04825e-07
8.04975e-07
8.04874e-07
1.0911e-06
1.09479e-06
1.093e-06
8.05658e-07
8.0616e-07
8.05888e-07
8.06424e-07
1.0951e-06
1.0932e-06
8.05619e-07
8.0582e-07
8.05818e-07
8.05846e-07
8.05932e-07
8.06225e-07
8.0579e-07
1.09469e-06
1.09257e-06
8.05075e-07
8.05237e-07
8.05176e-07
1.09091e-06
1.0949e-06
1.09309e-06
8.06087e-07
8.06955e-07
8.06191e-07
8.06915e-07
1.09594e-06
1.09303e-06
8.06284e-07
8.06065e-07
8.06251e-07
8.0613e-07
8.05988e-07
8.06767e-07
8.0589e-07
1.09432e-06
1.09235e-06
8.05392e-07
8.05373e-07
8.05201e-07
1.09062e-06
1.09479e-06
1.09266e-06
8.06654e-07
8.07065e-07
8.06464e-07
8.06976e-07
1.09595e-06
1.09231e-06
8.06383e-07
8.0633e-07
8.06415e-07
8.06171e-07
8.06109e-07
8.06924e-07
8.05943e-07
1.095e-06
1.09162e-06
8.05516e-07
8.05641e-07
8.05321e-07
1.08965e-06
1.09439e-06
1.09159e-06
8.06635e-07
8.07108e-07
8.06514e-07
8.06821e-07
1.09515e-06
1.0925e-06
8.06583e-07
8.06379e-07
8.06415e-07
8.06078e-07
8.06049e-07
8.06793e-07
8.05896e-07
1.09429e-06
1.09088e-06
8.05663e-07
8.05427e-07
8.05385e-07
1.08969e-06
1.09442e-06
1.09155e-06
8.06674e-07
8.06939e-07
8.06464e-07
8.06606e-07
1.09425e-06
1.09282e-06
8.06589e-07
8.06165e-07
8.06325e-07
8.05891e-07
8.06089e-07
8.06785e-07
8.05834e-07
1.09269e-06
1.09027e-06
8.05599e-07
8.05342e-07
8.05453e-07
1.08887e-06
1.09349e-06
1.09182e-06
8.0658e-07
8.06785e-07
8.06308e-07
8.06357e-07
1.09465e-06
1.09223e-06
8.06491e-07
8.06151e-07
8.06246e-07
8.05774e-07
8.06106e-07
8.06677e-07
8.05696e-07
1.09205e-06
1.08962e-06
8.05628e-07
8.05327e-07
8.05372e-07
1.08917e-06
1.09357e-06
1.09155e-06
8.06521e-07
8.06658e-07
8.06104e-07
8.06164e-07
1.09389e-06
1.09139e-06
8.06389e-07
8.0595e-07
8.06063e-07
8.05691e-07
8.05874e-07
8.06422e-07
8.05434e-07
1.09269e-06
1.08967e-06
8.05571e-07
8.05335e-07
8.05199e-07
1.08887e-06
1.09323e-06
1.09057e-06
8.0642e-07
8.06453e-07
8.05984e-07
8.05906e-07
1.09318e-06
1.09057e-06
8.06366e-07
8.05851e-07
8.05932e-07
8.05504e-07
8.05626e-07
8.05858e-07
8.05124e-07
1.09266e-06
1.08991e-06
8.05398e-07
8.05373e-07
8.04997e-07
1.08809e-06
1.09358e-06
1.09056e-06
8.0617e-07
8.06224e-07
8.05763e-07
8.05723e-07
1.0924e-06
1.09044e-06
8.0626e-07
8.05811e-07
8.05842e-07
8.05327e-07
8.05339e-07
8.05817e-07
8.04847e-07
1.09158e-06
1.08966e-06
8.05313e-07
8.05364e-07
8.04853e-07
1.08857e-06
1.09362e-06
1.09054e-06
8.06094e-07
8.05945e-07
8.05525e-07
8.05468e-07
1.09228e-06
1.08995e-06
8.06029e-07
8.05554e-07
8.05613e-07
8.05184e-07
8.05093e-07
8.05566e-07
8.04603e-07
1.09145e-06
1.0895e-06
8.0506e-07
8.05239e-07
8.04696e-07
1.08796e-06
1.09247e-06
1.09037e-06
8.05869e-07
8.05772e-07
8.05364e-07
8.05196e-07
1.0917e-06
1.08954e-06
8.05934e-07
8.05554e-07
8.05412e-07
8.05136e-07
8.04899e-07
8.05263e-07
8.04429e-07
1.09236e-06
1.09001e-06
8.05076e-07
8.05102e-07
8.0457e-07
1.08763e-06
1.09212e-06
1.09041e-06
8.05693e-07
8.055e-07
8.05466e-07
8.04926e-07
1.09133e-06
1.08897e-06
8.05703e-07
8.05517e-07
8.05265e-07
8.05264e-07
8.0484e-07
8.04984e-07
8.04416e-07
1.09236e-06
1.09047e-06
8.04939e-07
8.04995e-07
8.04493e-07
1.08808e-06
1.09279e-06
1.0904e-06
8.05469e-07
8.05287e-07
8.05349e-07
8.0464e-07
1.0908e-06
1.08819e-06
8.05724e-07
8.05259e-07
8.05455e-07
8.0509e-07
8.04872e-07
8.04706e-07
8.04614e-07
1.09233e-06
1.09047e-06
8.04923e-07
8.04895e-07
8.04683e-07
1.08876e-06
1.09376e-06
1.09161e-06
8.05392e-07
8.05103e-07
8.05327e-07
8.04704e-07
1.09116e-06
1.08828e-06
8.05474e-07
8.05105e-07
8.05296e-07
8.04982e-07
8.04629e-07
8.04424e-07
8.04498e-07
1.09225e-06
1.09044e-06
8.04711e-07
8.04803e-07
8.04581e-07
1.08912e-06
1.09354e-06
1.0912e-06
8.05408e-07
8.04704e-07
8.05306e-07
8.04371e-07
1.09099e-06
1.08845e-06
8.05353e-07
8.05054e-07
8.05198e-07
8.04975e-07
8.04562e-07
8.04228e-07
8.04434e-07
1.0922e-06
1.08941e-06
8.04644e-07
8.04774e-07
8.04471e-07
1.08778e-06
1.09352e-06
1.09107e-06
8.05427e-07
8.04423e-07
8.05339e-07
8.0416e-07
1.09015e-06
1.08825e-06
8.05298e-07
8.05098e-07
8.05201e-07
8.04997e-07
8.04544e-07
8.04124e-07
8.04388e-07
1.09142e-06
1.08853e-06
8.04561e-07
8.04757e-07
8.04359e-07
1.08738e-06
1.0938e-06
1.08919e-06
8.05516e-07
8.04295e-07
8.05001e-07
8.03671e-07
1.09007e-06
1.08558e-06
8.05384e-07
8.05171e-07
8.04869e-07
8.04621e-07
8.04555e-07
8.03713e-07
8.03999e-07
1.09122e-06
1.08589e-06
8.04504e-07
8.04331e-07
8.03871e-07
1.08721e-06
1.08996e-06
1.06308e-06
8.0531e-07
8.03968e-07
7.82256e-07
7.80882e-07
1.08637e-06
1.06046e-06
8.05174e-07
8.04933e-07
7.82227e-07
7.81821e-07
8.04308e-07
7.82014e-07
7.81255e-07
1.08693e-06
1.06152e-06
8.04164e-07
7.825e-07
7.81086e-07
1.06178e-06
1.03965e-06
7.48482e-07
7.47093e-07
1.03669e-06
7.48464e-07
7.48026e-07
2.70097e-07
2.70252e-07
2.70339e-07
7.47444e-07
1.03777e-06
7.4728e-07
4.08296e-06
9.06307e-06
1.8246e-05
4.07993e-06
9.06588e-06
2.86551e-07
2.86858e-07
2.86198e-07
2.85912e-07
2.06919e-06
8.04382e-07
3.43971e-06
5.0701e-07
1.82444e-05
2.0705e-06
8.04354e-07
5.06247e-07
3.44311e-06
1.09095e-06
5.43118e-06
5.43385e-06
4.08424e-06
9.06331e-06
4.08408e-06
9.0639e-06
1.82444e-05
1.82473e-05
4.08146e-06
9.06613e-06
4.08124e-06
9.06681e-06
2.86735e-07
2.8609e-07
2.85808e-07
2.86624e-07
2.86831e-07
2.86202e-07
2.85879e-07
2.06832e-06
3.4403e-06
5.07019e-07
8.05259e-07
2.06689e-06
3.44014e-06
5.07058e-07
1.82424e-05
1.82454e-05
2.06875e-06
5.0625e-07
3.44377e-06
8.04595e-07
2.06832e-06
5.06432e-07
3.44362e-06
5.43209e-06
5.43483e-06
1.08988e-06
5.43178e-06
5.43446e-06
4.08443e-06
9.064e-06
4.08493e-06
9.06436e-06
1.82454e-05
1.8248e-05
4.08158e-06
9.06731e-06
4.08202e-06
9.06798e-06
2.86999e-07
2.86272e-07
2.85897e-07
2.86694e-07
2.87157e-07
2.86378e-07
2.85997e-07
2.06903e-06
3.44146e-06
5.07129e-07
8.05651e-07
2.068e-06
3.44116e-06
5.07472e-07
1.82438e-05
1.82468e-05
2.06918e-06
5.06333e-07
3.4446e-06
8.04942e-07
2.06894e-06
5.06443e-07
3.44419e-06
5.43267e-06
5.43528e-06
1.09107e-06
5.43221e-06
5.43456e-06
4.08461e-06
9.06425e-06
4.08514e-06
9.0647e-06
1.8246e-05
1.82488e-05
4.08129e-06
9.06811e-06
4.08174e-06
9.06863e-06
2.87241e-07
2.86523e-07
2.8638e-07
2.86912e-07
2.87454e-07
2.86566e-07
2.86351e-07
2.07018e-06
3.4421e-06
5.07471e-07
8.06341e-07
2.06942e-06
3.44177e-06
5.07674e-07
1.82452e-05
1.82483e-05
2.06952e-06
5.06477e-07
3.44513e-06
8.05245e-07
2.06919e-06
5.06955e-07
3.44457e-06
5.43314e-06
5.43498e-06
1.0919e-06
5.4326e-06
5.43412e-06
4.08423e-06
9.06469e-06
4.0847e-06
9.06508e-06
1.82464e-05
1.82488e-05
4.08191e-06
9.06858e-06
4.08214e-06
9.0689e-06
2.87565e-07
2.86693e-07
2.86471e-07
2.87045e-07
2.87704e-07
2.86777e-07
2.8649e-07
2.07141e-06
3.44266e-06
5.07795e-07
8.06757e-07
2.07105e-06
3.44235e-06
5.07984e-07
1.82465e-05
1.82496e-05
2.06949e-06
5.06783e-07
3.44508e-06
8.05528e-07
2.06879e-06
5.07048e-07
3.4443e-06
5.43281e-06
5.43438e-06
1.09148e-06
5.43161e-06
5.43379e-06
4.0845e-06
9.0652e-06
4.08474e-06
9.06562e-06
1.82461e-05
1.82485e-05
4.08175e-06
9.06857e-06
4.08218e-06
9.06877e-06
2.87817e-07
2.86886e-07
2.86594e-07
2.87015e-07
2.8785e-07
2.86903e-07
2.86601e-07
2.07081e-06
3.44317e-06
5.08034e-07
8.06972e-07
2.0703e-06
3.44269e-06
5.08063e-07
1.82472e-05
1.82497e-05
2.06908e-06
5.06992e-07
3.44494e-06
8.057e-07
2.06878e-06
5.07284e-07
3.44418e-06
5.43215e-06
5.43435e-06
1.09039e-06
5.43172e-06
5.43357e-06
4.08425e-06
9.06538e-06
4.08475e-06
9.06558e-06
1.82456e-05
1.82478e-05
4.08323e-06
9.0681e-06
4.08271e-06
9.06831e-06
2.87966e-07
2.87014e-07
2.8672e-07
2.87272e-07
2.87866e-07
2.86904e-07
2.8672e-07
2.06964e-06
3.44235e-06
5.08192e-07
8.06961e-07
2.0699e-06
3.44141e-06
5.0831e-07
1.82466e-05
1.82491e-05
2.06868e-06
5.07387e-07
3.4449e-06
8.05695e-07
2.06992e-06
5.07474e-07
3.44461e-06
5.43256e-06
5.43392e-06
1.09023e-06
5.43179e-06
5.43297e-06
4.08398e-06
9.06513e-06
4.08454e-06
9.06525e-06
1.82448e-05
1.82468e-05
4.0839e-06
9.06789e-06
4.08436e-06
9.06818e-06
2.87956e-07
2.87022e-07
2.86866e-07
2.87304e-07
2.87798e-07
2.86877e-07
2.86757e-07
2.07024e-06
3.44192e-06
5.08165e-07
8.06922e-07
2.06926e-06
3.44134e-06
5.08284e-07
1.8246e-05
1.82487e-05
2.06862e-06
5.07478e-07
3.44513e-06
8.05489e-07
2.06867e-06
5.07602e-07
3.44461e-06
5.43233e-06
5.43358e-06
1.08968e-06
5.43173e-06
5.43274e-06
4.08453e-06
9.06507e-06
4.08476e-06
9.06559e-06
1.82438e-05
1.82462e-05
4.08369e-06
9.0678e-06
4.08406e-06
9.06795e-06
2.87876e-07
2.8704e-07
2.86978e-07
2.87231e-07
2.87672e-07
2.86844e-07
2.86819e-07
2.07004e-06
3.44185e-06
5.08116e-07
8.06849e-07
2.06998e-06
3.44117e-06
5.08244e-07
1.82467e-05
1.82496e-05
2.06975e-06
5.07609e-07
3.44505e-06
8.05441e-07
2.06954e-06
5.07764e-07
3.44435e-06
5.43219e-06
5.43301e-06
1.08979e-06
5.43129e-06
5.4321e-06
4.0847e-06
9.06551e-06
4.08506e-06
9.06565e-06
1.82438e-05
1.82463e-05
4.08462e-06
9.06742e-06
4.08468e-06
9.06772e-06
2.87774e-07
2.8705e-07
2.8703e-07
2.87152e-07
2.87566e-07
2.86833e-07
2.86842e-07
2.06936e-06
3.44152e-06
5.08104e-07
8.06641e-07
2.06957e-06
3.44063e-06
5.08185e-07
1.82465e-05
1.82489e-05
2.06903e-06
5.0777e-07
3.44505e-06
8.05304e-07
2.06893e-06
5.07812e-07
3.44452e-06
5.4318e-06
5.43276e-06
1.09003e-06
5.4309e-06
5.43209e-06
4.08517e-06
9.06519e-06
4.08556e-06
9.06546e-06
1.82438e-05
1.82466e-05
4.08545e-06
9.06751e-06
4.08576e-06
9.06792e-06
2.87639e-07
2.86941e-07
2.86933e-07
2.87083e-07
2.87403e-07
2.86795e-07
2.86792e-07
2.06974e-06
3.44118e-06
5.08108e-07
8.06225e-07
2.06992e-06
3.44044e-06
5.08183e-07
1.8246e-05
1.82487e-05
2.06942e-06
5.07865e-07
3.44491e-06
8.05283e-07
2.06913e-06
5.07955e-07
3.44437e-06
5.4316e-06
5.43295e-06
1.08872e-06
5.43043e-06
5.43233e-06
4.08467e-06
9.0651e-06
4.08532e-06
9.06536e-06
1.82443e-05
1.8247e-05
4.08486e-06
9.06777e-06
4.08548e-06
9.06797e-06
2.87551e-07
2.86953e-07
2.86865e-07
2.86949e-07
2.87308e-07
2.8682e-07
2.86697e-07
2.06915e-06
3.44085e-06
5.08055e-07
8.05998e-07
2.06865e-06
3.44026e-06
5.08029e-07
1.82461e-05
1.82489e-05
2.06906e-06
5.0794e-07
3.44512e-06
8.05321e-07
2.06912e-06
5.07927e-07
3.44464e-06
5.43097e-06
5.43291e-06
1.08878e-06
5.4303e-06
5.43205e-06
4.08361e-06
9.0648e-06
4.0845e-06
9.06499e-06
1.82443e-05
1.82479e-05
4.08438e-06
9.0676e-06
4.08496e-06
9.06789e-06
2.87365e-07
2.86884e-07
2.86862e-07
2.86915e-07
2.87176e-07
2.86775e-07
2.86663e-07
2.0686e-06
3.44105e-06
5.07977e-07
8.05713e-07
2.06749e-06
3.44041e-06
5.07895e-07
1.82458e-05
1.82489e-05
2.06847e-06
5.07877e-07
3.44507e-06
8.05242e-07
2.06915e-06
5.07969e-07
3.44429e-06
5.43108e-06
5.43323e-06
1.08859e-06
5.43014e-06
5.43233e-06
4.08328e-06
9.06459e-06
4.08356e-06
9.06511e-06
1.8245e-05
1.82478e-05
4.08445e-06
9.06736e-06
4.08463e-06
9.06779e-06
2.87261e-07
2.86829e-07
2.86767e-07
2.86813e-07
2.87062e-07
2.86694e-07
2.86592e-07
2.06619e-06
3.44119e-06
5.07816e-07
8.05345e-07
2.06689e-06
3.44077e-06
5.07932e-07
1.8246e-05
1.82496e-05
2.06885e-06
5.07875e-07
3.44481e-06
8.05109e-07
2.06756e-06
5.07888e-07
3.44395e-06
5.43056e-06
5.43254e-06
1.08874e-06
5.42918e-06
5.43178e-06
4.08413e-06
9.06534e-06
4.08441e-06
9.06623e-06
1.82439e-05
1.8248e-05
4.08451e-06
9.06762e-06
4.08485e-06
9.06825e-06
2.87179e-07
2.86849e-07
2.86728e-07
2.86772e-07
2.86944e-07
2.86675e-07
2.86594e-07
2.06765e-06
3.44166e-06
5.07666e-07
8.05058e-07
2.06676e-06
3.44092e-06
5.07681e-07
1.82466e-05
1.82511e-05
2.06902e-06
5.07825e-07
3.44477e-06
8.04979e-07
2.06927e-06
5.07826e-07
3.44399e-06
5.43058e-06
5.4333e-06
1.08831e-06
5.42996e-06
5.43198e-06
4.08354e-06
9.06624e-06
4.08428e-06
9.06717e-06
1.82445e-05
1.82498e-05
4.08565e-06
9.06825e-06
4.08555e-06
9.06912e-06
2.87057e-07
2.8676e-07
2.8676e-07
2.86723e-07
2.86841e-07
2.86608e-07
2.86632e-07
2.06789e-06
3.44206e-06
5.07664e-07
8.04789e-07
2.06716e-06
3.44146e-06
5.07571e-07
1.82475e-05
1.82531e-05
2.06865e-06
5.07651e-07
3.44485e-06
8.04888e-07
2.06855e-06
5.07667e-07
3.44423e-06
5.43199e-06
5.4335e-06
1.08877e-06
5.43054e-06
5.4323e-06
4.08435e-06
9.06686e-06
4.08437e-06
9.06816e-06
1.8245e-05
1.82521e-05
4.08596e-06
9.06871e-06
4.08653e-06
9.07002e-06
2.86908e-07
2.86735e-07
2.8669e-07
2.86696e-07
2.86724e-07
2.86578e-07
2.86631e-07
2.06688e-06
3.44328e-06
5.07657e-07
8.04495e-07
2.06684e-06
3.44229e-06
5.07518e-07
1.82486e-05
1.8256e-05
2.06881e-06
5.07544e-07
3.44535e-06
8.04781e-07
2.06827e-06
5.0752e-07
3.44364e-06
5.43258e-06
5.43482e-06
1.08941e-06
5.43032e-06
5.43291e-06
4.08404e-06
9.06758e-06
4.08489e-06
9.06955e-06
1.82456e-05
1.82554e-05
4.08472e-06
9.06963e-06
4.08582e-06
9.07174e-06
2.86804e-07
2.86747e-07
2.86708e-07
2.86691e-07
2.86574e-07
2.86625e-07
2.86658e-07
2.06782e-06
3.44464e-06
5.07623e-07
8.04253e-07
2.0673e-06
3.44278e-06
5.07463e-07
1.82496e-05
1.82594e-05
2.06885e-06
5.07386e-07
3.44593e-06
8.04724e-07
2.06792e-06
5.07255e-07
3.44445e-06
5.43301e-06
5.43591e-06
1.08951e-06
5.42992e-06
5.43288e-06
4.08245e-06
9.06821e-06
4.08385e-06
9.07138e-06
1.82458e-05
1.82591e-05
4.08377e-06
9.07062e-06
4.08453e-06
9.07402e-06
2.86696e-07
2.86645e-07
2.86723e-07
2.86613e-07
2.86494e-07
2.86666e-07
2.86678e-07
2.06801e-06
3.44599e-06
5.07547e-07
8.04101e-07
2.06782e-06
3.44273e-06
5.07363e-07
1.82498e-05
1.82631e-05
2.06997e-06
5.0718e-07
3.44793e-06
8.04695e-07
2.06953e-06
5.06995e-07
3.44462e-06
5.43402e-06
5.43685e-06
1.08821e-06
5.42972e-06
5.43248e-06
4.08207e-06
9.06847e-06
4.08268e-06
9.0742e-06
1.82457e-05
1.82636e-05
4.08459e-06
9.07155e-06
4.08482e-06
9.07753e-06
2.8653e-07
2.86681e-07
2.86591e-07
2.86551e-07
2.86428e-07
2.8663e-07
2.86558e-07
2.06781e-06
3.44829e-06
5.07364e-07
8.04021e-07
2.06828e-06
3.44309e-06
5.07241e-07
1.825e-05
1.82681e-05
2.06988e-06
5.06963e-07
3.44987e-06
8.04648e-07
2.07058e-06
5.06844e-07
3.44448e-06
5.4353e-06
5.43799e-06
1.08895e-06
5.43055e-06
5.43325e-06
4.0797e-06
9.06743e-06
4.08315e-06
9.0749e-06
1.8245e-05
1.82622e-05
4.08188e-06
9.07103e-06
4.08584e-06
9.07836e-06
2.85873e-07
2.86054e-07
2.85948e-07
2.80433e-07
2.80204e-07
2.80405e-07
2.80305e-07
2.06356e-06
3.45387e-06
5.05885e-07
8.00617e-07
2.06919e-06
3.441e-06
5.06317e-07
1.82499e-05
1.82671e-05
2.06526e-06
5.05432e-07
3.45497e-06
8.01201e-07
2.071e-06
5.0605e-07
3.44194e-06
5.43977e-06
5.44246e-06
1.08088e-06
5.43701e-06
5.43953e-06
3.31975e-06
8.31567e-06
4.0361e-06
5.48235e-06
1.61395e-05
8.11925e-06
3.32055e-06
8.31839e-06
4.03753e-06
5.48409e-06
7.02042e-08
1.41721e-07
1.41617e-07
2.98575e-07
7.21713e-08
1.49291e-07
1.49002e-07
1.97141e-06
3.35477e-06
4.81395e-07
6.90625e-07
2.02843e-06
3.42021e-06
4.33686e-07
1.61434e-05
8.12071e-06
1.97188e-06
4.80802e-07
3.36011e-06
6.9118e-07
2.02907e-06
4.32949e-07
3.42103e-06
5.36919e-06
5.37178e-06
9.83218e-07
5.00899e-06
5.01059e-06
1.82421e-05
1.82464e-05
1.09105e-06
5.42844e-06
5.4296e-06
1.82429e-05
1.82398e-05
1.82466e-05
1.8244e-05
1.0912e-06
5.42879e-06
5.42951e-06
5.42881e-06
5.42986e-06
4.08253e-06
9.0645e-06
2.06939e-06
8.04728e-07
3.44242e-06
5.06239e-07
2.06943e-06
8.04796e-07
3.44183e-06
5.0609e-07
4.08316e-06
9.0635e-06
9.06286e-06
4.08339e-06
4.08269e-06
9.06457e-06
9.06419e-06
4.08277e-06
2.0683e-06
8.04893e-07
3.44225e-06
5.06418e-07
3.4424e-06
5.06365e-07
2.06786e-06
2.06785e-06
8.04804e-07
3.4416e-06
5.06408e-07
3.44187e-06
5.06265e-07
2.06677e-06
1.09043e-06
5.43008e-06
5.42682e-06
1.8249e-05
1.82467e-05
1.82437e-05
1.09123e-06
5.43037e-06
5.42673e-06
5.43046e-06
5.42717e-06
1.82489e-05
1.82464e-05
2.06803e-06
8.04886e-07
3.44125e-06
5.07531e-07
4.08034e-06
9.06486e-06
2.06834e-06
8.04566e-07
5.07353e-07
3.44222e-06
4.08017e-06
9.06628e-06
9.06565e-06
4.08057e-06
2.06755e-06
8.04934e-07
3.4413e-06
5.07565e-07
3.44145e-06
5.07536e-07
2.06608e-06
4.08048e-06
9.06484e-06
9.06456e-06
4.08074e-06
2.06689e-06
8.04689e-07
5.07442e-07
3.4422e-06
5.07411e-07
3.44236e-06
2.06676e-06
4.08384e-06
9.06619e-06
2.07037e-06
8.04699e-07
5.06519e-07
3.44383e-06
4.08483e-06
9.06664e-06
2.06721e-06
8.04652e-07
3.43958e-06
5.06969e-07
3.43967e-06
5.07051e-07
2.06696e-06
4.08387e-06
9.06652e-06
9.06594e-06
4.08349e-06
2.06861e-06
8.04805e-07
5.06547e-07
3.44363e-06
5.06537e-07
3.44376e-06
2.06846e-06
4.08494e-06
9.06678e-06
9.06634e-06
4.0845e-06
1.09111e-06
5.42959e-06
5.42939e-06
1.82436e-05
1.82448e-05
1.82419e-05
1.09135e-06
5.42976e-06
5.42935e-06
5.43001e-06
5.42969e-06
1.8244e-05
1.82412e-05
2.0708e-06
8.04588e-07
5.06165e-07
3.44559e-06
4.08401e-06
9.06543e-06
4.08457e-06
9.0667e-06
2.06888e-06
8.04419e-07
5.0624e-07
3.44305e-06
5.06373e-07
3.44321e-06
2.06792e-06
2.0692e-06
8.04576e-07
5.06289e-07
3.44533e-06
5.06314e-07
3.4457e-06
2.06847e-06
4.08412e-06
9.06571e-06
9.0652e-06
4.08363e-06
4.08484e-06
9.06709e-06
9.06651e-06
4.08493e-06
1.82477e-05
1.82478e-05
1.09114e-06
5.43126e-06
5.43405e-06
5.43155e-06
5.43427e-06
1.82481e-05
1.82454e-05
1.82483e-05
1.82455e-05
1.82407e-05
1.82434e-05
1.82441e-05
1.82469e-05
5.42968e-06
5.4302e-06
1.09032e-06
5.42932e-06
5.42978e-06
1.82439e-05
1.8241e-05
1.82477e-05
1.82446e-05
1.09265e-06
5.4297e-06
5.43014e-06
5.42995e-06
5.43042e-06
4.08336e-06
9.06427e-06
4.08337e-06
9.06468e-06
2.06967e-06
3.4429e-06
5.06228e-07
8.04987e-07
2.06959e-06
3.44287e-06
5.0632e-07
2.06861e-06
3.44225e-06
5.06247e-07
8.05107e-07
2.06809e-06
3.44214e-06
5.06408e-07
4.08468e-06
9.06424e-06
9.06372e-06
4.08443e-06
4.08381e-06
9.0649e-06
9.06443e-06
4.08355e-06
2.06943e-06
8.04885e-07
3.44328e-06
5.06361e-07
3.44341e-06
5.06334e-07
2.0694e-06
2.06915e-06
8.05116e-07
3.44254e-06
5.06528e-07
3.44267e-06
5.06484e-07
2.06915e-06
5.43116e-06
5.42754e-06
1.0902e-06
5.43106e-06
5.42702e-06
1.82464e-05
1.82491e-05
1.82477e-05
1.8245e-05
1.09264e-06
5.43142e-06
5.42747e-06
5.43176e-06
5.42778e-06
1.82497e-05
1.82467e-05
2.06597e-06
3.44215e-06
5.07361e-07
8.04879e-07
2.06619e-06
3.4418e-06
5.07466e-07
4.08142e-06
9.06454e-06
4.08127e-06
9.06475e-06
2.06687e-06
5.07242e-07
3.44296e-06
8.04863e-07
2.06738e-06
5.0737e-07
3.44266e-06
4.08184e-06
9.06745e-06
9.06669e-06
4.0816e-06
2.06709e-06
8.04837e-07
3.4423e-06
5.07382e-07
3.44235e-06
5.07381e-07
2.06648e-06
4.08177e-06
9.06468e-06
9.06442e-06
4.08131e-06
2.06778e-06
8.04638e-07
5.07307e-07
3.44269e-06
5.07148e-07
3.44313e-06
2.06722e-06
4.0837e-06
9.06632e-06
4.08393e-06
9.06697e-06
2.06892e-06
5.06335e-07
3.44438e-06
8.05022e-07
2.06922e-06
5.06432e-07
3.44445e-06
4.08456e-06
9.06656e-06
4.08492e-06
9.06724e-06
2.06826e-06
8.05275e-07
3.44066e-06
5.07104e-07
3.44063e-06
5.07083e-07
2.06813e-06
4.08405e-06
9.06753e-06
9.06682e-06
4.08348e-06
2.06918e-06
8.05087e-07
5.0642e-07
3.44496e-06
5.064e-07
3.44501e-06
2.06894e-06
4.08489e-06
9.06791e-06
9.0671e-06
4.08455e-06
5.43064e-06
5.43017e-06
1.0901e-06
5.43038e-06
5.43003e-06
1.82417e-05
1.82448e-05
1.82462e-05
1.8243e-05
1.09247e-06
5.43093e-06
5.43046e-06
5.43119e-06
5.43075e-06
1.82455e-05
1.82425e-05
2.06888e-06
5.06104e-07
3.44589e-06
8.04639e-07
2.06888e-06
5.06225e-07
3.44562e-06
4.08368e-06
9.0655e-06
4.08413e-06
9.06602e-06
4.08484e-06
9.06683e-06
4.08537e-06
9.06721e-06
2.06872e-06
8.04552e-07
5.06336e-07
3.44391e-06
5.06408e-07
3.44401e-06
2.06788e-06
2.06886e-06
8.04315e-07
5.05906e-07
3.44588e-06
5.05608e-07
3.44615e-06
2.0697e-06
4.08408e-06
9.06628e-06
9.0658e-06
4.08361e-06
4.08518e-06
9.0671e-06
9.06693e-06
4.08458e-06
1.82457e-05
1.82486e-05
1.8246e-05
1.82488e-05
1.09177e-06
5.43188e-06
5.43455e-06
5.43238e-06
5.43501e-06
1.82491e-05
1.82463e-05
1.8249e-05
1.82464e-05
1.82417e-05
1.82447e-05
1.82455e-05
1.82486e-05
5.43041e-06
5.43086e-06
1.09138e-06
5.43011e-06
5.43069e-06
1.82453e-05
1.82424e-05
1.82494e-05
1.82464e-05
1.09412e-06
5.43054e-06
5.43129e-06
5.43083e-06
5.4315e-06
4.08358e-06
9.06469e-06
4.08389e-06
9.06528e-06
2.07036e-06
3.44378e-06
5.06406e-07
8.05402e-07
2.07041e-06
3.44354e-06
5.0683e-07
2.06845e-06
3.44304e-06
5.06558e-07
8.05802e-07
2.0694e-06
3.44283e-06
5.07093e-07
4.08474e-06
9.06446e-06
9.06407e-06
4.08462e-06
4.08407e-06
9.06566e-06
9.06512e-06
4.08385e-06
2.0699e-06
8.05377e-07
3.44376e-06
5.06576e-07
3.44399e-06
5.06633e-07
2.06991e-06
2.06967e-06
8.05791e-07
3.44331e-06
5.06893e-07
3.44337e-06
5.06542e-07
2.06943e-06
5.43215e-06
5.42827e-06
1.09125e-06
5.43161e-06
5.42782e-06
1.82473e-05
1.82503e-05
1.82483e-05
1.82456e-05
1.09483e-06
5.43168e-06
5.42799e-06
5.43218e-06
5.42857e-06
1.82507e-05
1.82478e-05
2.06812e-06
3.44291e-06
5.07647e-07
8.05278e-07
2.06787e-06
3.44288e-06
5.07798e-07
4.08113e-06
9.06445e-06
4.08152e-06
9.06498e-06
2.06768e-06
5.07621e-07
3.44325e-06
8.05416e-07
2.06756e-06
5.07716e-07
3.44299e-06
4.08183e-06
9.06832e-06
9.06778e-06
4.08136e-06
2.06877e-06
8.05184e-07
3.44323e-06
5.07603e-07
3.44341e-06
5.07648e-07
2.06706e-06
4.08148e-06
9.06542e-06
9.06481e-06
4.08118e-06
2.06796e-06
8.05255e-07
5.07727e-07
3.44341e-06
5.07695e-07
3.44356e-06
2.06796e-06
4.08369e-06
9.06739e-06
4.08384e-06
9.06809e-06
2.07006e-06
5.06556e-07
3.44548e-06
8.05705e-07
2.07031e-06
5.06942e-07
3.445e-06
4.08478e-06
9.06778e-06
4.08499e-06
9.06831e-06
2.06909e-06
8.05593e-07
3.44132e-06
5.07459e-07
3.44152e-06
5.07478e-07
2.06984e-06
4.08411e-06
9.06862e-06
9.06791e-06
4.08395e-06
2.07079e-06
8.05091e-07
5.06623e-07
3.44512e-06
5.06342e-07
3.4455e-06
2.07123e-06
4.08524e-06
9.06861e-06
9.06812e-06
4.08521e-06
5.43171e-06
5.43125e-06
1.09116e-06
5.43119e-06
5.43089e-06
1.82432e-05
1.82461e-05
1.82476e-05
1.82445e-05
1.09419e-06
5.43166e-06
5.43097e-06
5.43203e-06
5.43153e-06
1.82465e-05
1.82437e-05
2.07001e-06
5.06387e-07
3.44625e-06
8.04911e-07
2.07013e-06
5.06345e-07
3.44552e-06
4.08313e-06
9.06606e-06
4.08394e-06
9.0665e-06
4.08409e-06
9.06672e-06
4.08486e-06
9.0667e-06
2.06934e-06
8.0497e-07
5.06323e-07
3.44448e-06
5.06342e-07
3.44461e-06
2.06842e-06
2.06996e-06
8.04886e-07
5.06208e-07
3.4454e-06
5.0626e-07
3.44587e-06
2.06901e-06
4.08351e-06
9.06675e-06
9.06628e-06
4.08301e-06
4.08433e-06
9.06648e-06
9.06632e-06
4.08357e-06
1.82468e-05
1.82497e-05
1.82466e-05
1.82489e-05
1.09408e-06
5.43232e-06
5.43433e-06
5.43282e-06
5.43498e-06
1.82502e-05
1.82474e-05
1.82488e-05
1.82464e-05
1.8243e-05
1.82457e-05
1.82471e-05
1.82499e-05
5.43117e-06
5.43198e-06
1.0918e-06
5.43067e-06
5.43164e-06
1.82463e-05
1.82435e-05
1.82499e-05
1.82474e-05
1.0956e-06
5.43099e-06
5.43191e-06
5.43136e-06
5.43231e-06
4.08355e-06
9.06539e-06
4.08417e-06
9.06553e-06
2.06937e-06
3.44427e-06
5.07063e-07
8.05927e-07
2.07033e-06
3.44403e-06
5.07207e-07
2.06892e-06
3.44378e-06
5.07404e-07
8.06623e-07
2.06999e-06
3.44331e-06
5.07475e-07
4.08481e-06
9.06493e-06
9.06446e-06
4.08428e-06
4.0838e-06
9.06521e-06
9.06513e-06
4.08331e-06
2.06998e-06
8.05908e-07
3.44432e-06
5.07098e-07
3.4445e-06
5.07122e-07
2.07001e-06
2.06962e-06
8.06089e-07
3.44314e-06
5.07323e-07
3.44363e-06
5.07382e-07
2.06828e-06
5.43236e-06
5.42881e-06
1.09256e-06
5.43205e-06
5.42856e-06
1.82484e-05
1.82516e-05
1.82489e-05
1.82464e-05
1.09537e-06
5.43223e-06
5.42903e-06
5.43274e-06
5.42939e-06
1.82521e-05
1.82492e-05
2.06702e-06
3.44378e-06
5.08094e-07
8.05844e-07
2.06787e-06
3.4436e-06
5.08115e-07
4.08108e-06
9.06522e-06
4.08146e-06
9.06583e-06
2.06786e-06
5.07927e-07
3.44397e-06
8.05815e-07
2.06824e-06
5.0807e-07
3.4438e-06
4.08158e-06
9.06882e-06
9.06839e-06
4.08159e-06
2.06841e-06
8.0571e-07
3.44389e-06
5.08166e-07
3.44413e-06
5.08147e-07
2.06826e-06
4.08144e-06
9.06629e-06
9.06567e-06
4.08123e-06
2.06794e-06
8.058e-07
5.08137e-07
3.44428e-06
5.08113e-07
3.44443e-06
2.06789e-06
4.08438e-06
9.0685e-06
4.08437e-06
9.06921e-06
2.07048e-06
5.07136e-07
3.44557e-06
8.05895e-07
2.07096e-06
5.07285e-07
3.44532e-06
4.08562e-06
9.06839e-06
4.08571e-06
9.06889e-06
2.07039e-06
8.06261e-07
3.4419e-06
5.07769e-07
3.4422e-06
5.07741e-07
2.07062e-06
4.08491e-06
9.06958e-06
9.06906e-06
4.08492e-06
2.07178e-06
8.05834e-07
5.07002e-07
3.44534e-06
5.07043e-07
3.44576e-06
2.07201e-06
4.08615e-06
9.0689e-06
9.06863e-06
4.08611e-06
5.43244e-06
5.43167e-06
1.09245e-06
5.43205e-06
5.43125e-06
1.82442e-05
1.82471e-05
1.82489e-05
1.82459e-05
1.09435e-06
5.43242e-06
5.43145e-06
5.4329e-06
5.43187e-06
1.82477e-05
1.82448e-05
2.06874e-06
5.06433e-07
3.44577e-06
8.05242e-07
2.06979e-06
5.06604e-07
3.44536e-06
4.08316e-06
9.0665e-06
4.08347e-06
9.06681e-06
4.08326e-06
9.06615e-06
4.08391e-06
9.06647e-06
2.06903e-06
8.05228e-07
5.06714e-07
3.44458e-06
5.06564e-07
3.44492e-06
2.06851e-06
2.06975e-06
8.05204e-07
5.06471e-07
3.4456e-06
5.06531e-07
3.44586e-06
2.06953e-06
4.08358e-06
9.06685e-06
9.06655e-06
4.08301e-06
4.08365e-06
9.06667e-06
9.06623e-06
4.08321e-06
1.82479e-05
1.82506e-05
1.82463e-05
1.82487e-05
1.09325e-06
5.4323e-06
5.43374e-06
5.43313e-06
5.43453e-06
1.825e-05
1.8248e-05
1.82488e-05
1.82463e-05
1.8244e-05
1.82467e-05
1.82474e-05
1.82497e-05
5.43165e-06
5.43253e-06
1.09288e-06
5.4312e-06
5.43195e-06
1.82465e-05
1.82443e-05
1.82495e-05
1.82472e-05
1.09468e-06
5.43091e-06
5.43201e-06
5.43179e-06
5.4326e-06
4.08333e-06
9.06488e-06
4.08369e-06
9.06511e-06
2.07013e-06
3.44478e-06
5.07337e-07
8.06459e-07
2.0701e-06
3.44433e-06
5.07529e-07
2.06994e-06
3.44354e-06
5.0755e-07
8.06903e-07
2.06966e-06
3.44315e-06
5.07957e-07
4.08456e-06
9.06538e-06
9.06484e-06
4.08424e-06
4.08368e-06
9.06515e-06
9.0648e-06
4.08318e-06
2.07042e-06
8.05861e-07
3.44441e-06
5.07364e-07
3.44474e-06
5.07435e-07
2.07035e-06
2.07036e-06
8.06912e-07
3.44324e-06
5.07647e-07
3.44355e-06
5.07317e-07
2.06975e-06
5.43284e-06
5.4299e-06
1.09303e-06
5.43222e-06
5.42931e-06
1.82496e-05
1.82522e-05
1.82486e-05
1.82462e-05
1.09629e-06
5.4321e-06
5.42889e-06
5.43273e-06
5.42988e-06
1.82519e-05
1.82495e-05
2.06942e-06
3.44443e-06
5.08259e-07
8.06245e-07
2.0689e-06
3.44397e-06
5.0842e-07
4.08122e-06
9.06606e-06
4.08159e-06
9.06656e-06
2.06907e-06
5.08298e-07
3.44476e-06
8.06181e-07
2.069e-06
5.08361e-07
3.44434e-06
4.08213e-06
9.06883e-06
9.0686e-06
4.08177e-06
2.06934e-06
8.06248e-07
3.44382e-06
5.08457e-07
3.4444e-06
5.08445e-07
2.06888e-06
4.08147e-06
9.06676e-06
9.06631e-06
4.08115e-06
2.06902e-06
8.06151e-07
5.08386e-07
3.44414e-06
5.08377e-07
3.44479e-06
2.06853e-06
4.08548e-06
9.06938e-06
4.08541e-06
9.06986e-06
2.07094e-06
5.07409e-07
3.44565e-06
8.06045e-07
2.07185e-06
5.07601e-07
3.44492e-06
4.08648e-06
9.06852e-06
4.08661e-06
9.06844e-06
2.07083e-06
8.06742e-07
3.44249e-06
5.08023e-07
3.44281e-06
5.08023e-07
2.07082e-06
4.0859e-06
9.06989e-06
9.06961e-06
4.08544e-06
2.07184e-06
8.05971e-07
5.07281e-07
3.44447e-06
5.0735e-07
3.44527e-06
2.07161e-06
4.087e-06
9.06792e-06
9.06801e-06
4.08681e-06
5.4332e-06
5.43212e-06
1.09266e-06
5.43277e-06
5.4314e-06
1.82453e-05
1.82477e-05
1.82497e-05
1.82471e-05
1.09429e-06
5.4326e-06
5.43127e-06
5.43356e-06
5.43198e-06
1.82478e-05
1.82453e-05
2.07019e-06
5.06796e-07
3.44609e-06
8.05424e-07
2.06983e-06
5.06866e-07
3.44572e-06
4.08312e-06
9.0665e-06
4.08345e-06
9.06667e-06
4.08344e-06
9.06643e-06
4.08365e-06
9.06678e-06
2.06946e-06
8.05408e-07
5.06968e-07
3.44437e-06
5.0699e-07
3.44462e-06
2.06908e-06
2.07017e-06
8.05268e-07
5.06855e-07
3.44568e-06
5.06847e-07
3.44614e-06
2.06982e-06
4.08353e-06
9.06693e-06
9.06641e-06
4.08304e-06
4.0839e-06
9.06683e-06
9.06651e-06
4.08335e-06
1.82473e-05
1.8249e-05
1.82465e-05
1.82495e-05
1.09307e-06
5.43137e-06
5.43366e-06
5.43207e-06
5.43422e-06
1.82488e-05
1.82464e-05
1.82499e-05
1.82471e-05
1.8244e-05
1.82465e-05
1.82471e-05
1.82495e-05
5.43149e-06
5.43266e-06
1.09271e-06
5.43086e-06
5.43217e-06
1.82465e-05
1.82441e-05
1.8249e-05
1.8247e-05
1.0945e-06
5.43065e-06
5.43192e-06
5.43141e-06
5.43282e-06
4.08323e-06
9.06492e-06
4.08348e-06
9.06543e-06
2.07026e-06
3.44488e-06
5.07632e-07
8.06528e-07
2.07051e-06
3.44445e-06
5.07748e-07
2.06994e-06
3.44372e-06
5.08138e-07
8.07079e-07
2.07048e-06
3.4434e-06
5.08047e-07
4.08483e-06
9.06569e-06
9.06538e-06
4.08436e-06
4.08365e-06
9.06589e-06
9.06527e-06
4.08347e-06
2.07058e-06
8.06482e-07
3.44452e-06
5.07536e-07
3.44491e-06
5.07607e-07
2.07036e-06
2.06951e-06
8.07058e-07
3.44361e-06
5.07984e-07
3.44392e-06
5.07998e-07
2.06945e-06
5.43265e-06