/*--------------------------------*- C++ -*----------------------------------*\
| =========                 |                                                 |
| \\      /  F ield         | OpenFOAM: The Open Source CFD Toolbox           |
|  \\    /   O peration     | Version:  v1906                                 |
|   \\  /    A nd           | Web:      www.OpenFOAM.com                      |
|    \\/     M anipulation  |                                                 |
\*---------------------------------------------------------------------------*/
FoamFile
{
    version     2.0;
    format      ascii;
    class       volScalarField;
    location    "200";
    object      nut;
}
// * * * * * * * * * * * * * * * * * * * * * * * * * * * * * * * * * * * * * //

dimensions      [0 2 -1 0 0 0 0];


internalField   nonuniform List<scalar> 
43024
(
0.000116382
0.000131131
0.000130827
0.000130402
0.000116456
0.000131212
0.000130907
0.000130385
0.000116509
0.000131276
0.000130953
0.000130357
0.000116487
0.000131349
0.000131005
0.00012949
0.000116517
0.000131346
0.000131024
0.000129714
0.000116518
0.000131253
0.000130949
0.000129253
0.000116379
0.000131203
0.000130894
0.000129667
0.000116312
0.000131159
0.000130848
0.000129129
0.000116242
0.000131094
0.000130782
0.000129281
0.000116198
0.000131034
0.000130764
0.000129451
0.000116152
0.000131015
0.000130772
0.000129486
0.000116138
0.000130958
0.000130768
0.00012942
0.000116099
0.000130935
0.000130802
0.00012946
0.000116101
0.000130919
0.000130825
0.000129509
0.000116084
0.000130889
0.000130853
0.000129801
0.000116082
0.000130864
0.000130852
0.000129973
0.000116086
0.000130843
0.00013086
0.00012945
0.000116088
0.000130845
0.000130847
0.000128862
0.000116136
0.000130858
0.000130837
0.00012943
0.000116143
0.000130835
0.000130823
0.000129716
0.000116558
0.000129175
0.000129174
0.000129162
0.000130427
0.000130899
0.000131003
0.000130491
0.000131006
0.000130929
0.000131131
0.000130976
0.000130352
0.000130815
0.000130903
0.000130376
0.000130398
0.000130382
0.000130944
0.000131045
0.00013102
0.000131138
0.000130457
0.000130479
0.000131062
0.00013098
0.000131134
0.000131046
0.00013101
0.000131182
0.000131042
0.000130298
0.000130313
0.000130938
0.000130894
0.000131
0.000130369
0.000130372
0.00013033
0.000131048
0.000131129
0.000131118
0.000131225
0.000130386
0.000130469
0.000131124
0.000131016
0.000131195
0.000131108
0.000131047
0.000131278
0.000131101
0.000130227
0.000130287
0.000130964
0.000130947
0.000131016
0.000130418
0.000130256
0.000130202
0.000131109
0.000131229
0.000131118
0.000131295
0.000130414
0.000130435
0.000131152
0.000131067
0.000131195
0.000131121
0.000131045
0.000131335
0.000131097
0.000130154
0.000130148
0.000131015
0.000130993
0.000131029
0.000129824
0.00013026
0.000129834
0.000131096
0.000131239
0.000131112
0.000131286
0.000130399
0.000129968
0.000131147
0.000131124
0.00013119
0.000131123
0.000131066
0.000131349
0.000131028
0.000130232
0.000130095
0.00013099
0.000131033
0.000130997
0.000129679
0.00012962
0.000129707
0.000131052
0.000131277
0.000131057
0.000131238
0.000129881
0.00012999
0.000131182
0.00013108
0.000131166
0.000131062
0.000130994
0.000131275
0.000130982
0.000129761
0.000129378
0.000130952
0.000130954
0.000130958
0.000129528
0.000129771
0.000129297
0.000131033
0.000131204
0.000130995
0.000131155
0.000129877
0.000130003
0.000131128
0.000131016
0.000131075
0.000130982
0.000130965
0.000131208
0.000130943
0.00012904
0.00012895
0.000130901
0.000130906
0.000130936
0.000129589
0.000129257
0.000129317
0.000130965
0.000131133
0.000130937
0.000131091
0.000130059
0.000130059
0.000131037
0.000130957
0.000131007
0.000130909
0.000130918
0.000131164
0.000130928
0.000128992
0.000129031
0.000130903
0.000130853
0.00013091
0.000129054
0.000129397
0.000129295
0.000130921
0.00013106
0.000130896
0.000131022
0.000130135
0.000129544
0.000130974
0.000130868
0.000130943
0.000130835
0.00013088
0.000131098
0.000130876
0.000129148
0.000129182
0.000130882
0.000130789
0.000130889
0.000129333
0.000129076
0.000129362
0.000130853
0.000130957
0.00013086
0.000130943
0.000129331
0.000129497
0.000130922
0.000130805
0.000130904
0.000130809
0.00013085
0.000131032
0.000130854
0.000128819
0.000128895
0.000130854
0.000130764
0.000130875
0.000129356
0.00012915
0.000129019
0.000130804
0.000130895
0.000130807
0.000130884
0.000129551
0.00012919
0.000130854
0.000130778
0.000130864
0.000130763
0.000130817
0.000131021
0.000130815
0.00012881
0.00012892
0.000130843
0.000130771
0.000130871
0.000129453
0.000129004
0.000129468
0.000130777
0.000130829
0.000130796
0.000130842
0.000129282
0.000129277
0.00013081
0.000130712
0.000130825
0.000130726
0.00013078
0.000130958
0.000130789
0.000128984
0.000128948
0.000130818
0.000130768
0.000130847
0.000129362
0.000129098
0.000129391
0.000130743
0.000130802
0.000130781
0.000130795
0.000129365
0.00012913
0.000130791
0.00013069
0.000130803
0.000130717
0.000130748
0.00013094
0.000130779
0.00012906
0.000129384
0.000130819
0.000130796
0.000130847
0.000129456
0.000129152
0.000129023
0.000130727
0.000130745
0.000130762
0.00013077
0.000128911
0.000129263
0.000130751
0.000130671
0.000130773
0.000130722
0.000130739
0.000130923
0.000130784
0.000129345
0.000129605
0.000130798
0.000130819
0.000130831
0.000129498
0.000129079
0.000129371
0.000130714
0.000130722
0.000130693
0.000130731
0.000129043
0.000128976
0.000130733
0.000130681
0.000130767
0.000130687
0.000130737
0.000130893
0.000130793
0.000129601
0.000129706
0.000130785
0.000130847
0.000130832
0.000129794
0.000129394
0.000129679
0.000130713
0.00013068
0.000130712
0.000130697
0.000129078
0.000129044
0.000130714
0.000130711
0.000130716
0.000130697
0.000130749
0.000130868
0.000130774
0.000129756
0.000129301
0.000130787
0.000130849
0.000130808
0.000129969
0.000129566
0.000129749
0.000130747
0.000130631
0.000130757
0.000130598
0.000128985
0.000129017
0.000130743
0.000130724
0.000130746
0.00013072
0.000130812
0.000130841
0.000130827
0.000129388
0.000129248
0.000130843
0.000130853
0.000130847
0.000129735
0.000129794
0.000129388
0.000130797
0.00013062
0.000130797
0.000130589
0.000129008
0.000128975
0.000130782
0.000130754
0.000130775
0.000130741
0.000130861
0.000130838
0.000130844
0.000129304
0.000128695
0.000130877
0.000130846
0.000130838
0.000128841
0.000129424
0.000129449
0.000130837
0.000130621
0.000130839
0.000130609
0.000129043
0.000129366
0.000130815
0.000130772
0.000130819
0.000130749
0.000130877
0.000130844
0.000130861
0.000128432
0.000128746
0.000130862
0.000130825
0.000130826
0.000129489
0.000129388
0.000129722
0.000130879
0.000130652
0.000130879
0.00013065
0.000129456
0.000129432
0.000130863
0.000130786
0.000130867
0.000130773
0.000130898
0.000130853
0.000130882
0.000128803
0.00012925
0.000130859
0.000130841
0.000130831
0.000129514
0.000129592
0.000129469
0.000130873
0.000130643
0.000131823
0.000131573
0.000129321
0.000128981
0.000130863
0.000130765
0.000131819
0.00013171
0.000130874
0.000131668
0.000131814
0.000129152
0.000129077
0.00013082
0.000131658
0.00013173
0.000129125
0.000129422
0.000129166
0.000128908
0.000129028
0.000129159
0.000129036
0.000116672
0.000116601
0.000116646
0.000129125
0.000129039
0.000129039
9.05188e-05
4.98646e-05
2.35413e-05
9.04982e-05
4.9863e-05
0.000116374
0.00011644
0.000116228
0.000116201
0.000116792
0.000131183
9.16905e-05
0.000126081
2.35386e-05
0.000116731
0.000130817
0.000125929
9.17096e-05
0.000130022
7.28517e-05
7.28617e-05
9.05641e-05
4.98653e-05
9.05233e-05
4.9866e-05
2.35409e-05
2.35421e-05
9.05828e-05
4.98627e-05
9.04901e-05
4.9864e-05
0.000116494
0.000116293
0.000116259
0.000116438
0.000116565
0.000116345
0.000116324
0.000116818
9.17045e-05
0.000126123
0.000131128
0.000116847
9.16994e-05
0.000126141
2.35376e-05
2.35389e-05
0.000116863
0.000125942
9.17335e-05
0.00013083
0.000116857
0.000125916
9.17671e-05
7.28654e-05
7.287e-05
0.000130362
7.28804e-05
7.28803e-05
9.05756e-05
4.98671e-05
9.05772e-05
4.98681e-05
2.35415e-05
2.35428e-05
9.05894e-05
4.98653e-05
9.05767e-05
4.98669e-05
0.000116549
0.000116352
0.000116361
0.000116501
0.000116602
0.000116427
0.000116404
0.000116999
9.1736e-05
0.000126195
0.000131208
0.000116867
9.17704e-05
0.000126151
2.35382e-05
2.35395e-05
0.00011672
0.000125989
9.17738e-05
0.000130888
0.000116627
0.000126027
9.17651e-05
7.28707e-05
7.28741e-05
0.00013037
7.286e-05
7.28737e-05
9.05923e-05
4.98675e-05
9.05692e-05
4.98686e-05
2.35417e-05
2.35431e-05
9.05604e-05
4.98675e-05
9.05593e-05
4.98686e-05
0.000116624
0.000116399
0.000116294
0.000116499
0.000116631
0.000116455
0.000116352
0.000116974
9.17465e-05
0.000126241
0.000131254
0.00011701
9.17286e-05
0.000126235
2.35388e-05
2.354e-05
0.000116527
0.000126075
9.17631e-05
0.000130945
0.000116561
0.000125996
9.17103e-05
7.28693e-05
7.28631e-05
0.000129993
7.28837e-05
7.28616e-05
9.0532e-05
4.98686e-05
9.05283e-05
4.98694e-05
2.35422e-05
2.35432e-05
9.05858e-05
4.98687e-05
9.05474e-05
4.98698e-05
0.000116611
0.000116428
0.00011633
0.00011651
0.000116638
0.000116442
0.000116361
0.000116993
9.17432e-05
0.00012629
0.000131317
0.000116879
9.1786e-05
0.000126291
2.35394e-05
2.35406e-05
0.000116872
0.00012613
9.16667e-05
0.000130976
0.000116796
0.000126101
9.16555e-05
7.28425e-05
7.28597e-05
0.000129438
7.28388e-05
7.28672e-05
9.05839e-05
4.98688e-05
9.05407e-05
4.98702e-05
2.35421e-05
2.35431e-05
9.05348e-05
4.98689e-05
9.05532e-05
4.98698e-05
0.000116634
0.000116409
0.000116329
0.000116562
0.000116634
0.000116423
0.000116353
0.000117036
9.17793e-05
0.00012634
0.000131301
0.000116947
9.1798e-05
0.000126333
2.35398e-05
2.3541e-05
0.000116848
0.000126181
9.172e-05
0.000130968
0.000116875
0.000126137
9.17467e-05
7.28395e-05
7.2853e-05
0.00012917
7.28565e-05
7.2858e-05
9.05748e-05
4.98701e-05
9.054e-05
4.98704e-05
2.35421e-05
2.3543e-05
9.0567e-05
4.98689e-05
9.05212e-05
4.9869e-05
0.000116581
0.000116378
0.000116325
0.000116406
0.000116578
0.000116385
0.000116336
0.000117044
9.17121e-05
0.000126292
0.000131234
0.000117032
9.16985e-05
0.000126253
2.35398e-05
2.35407e-05
0.00011701
0.000126143
9.1748e-05
0.000130904
0.000116891
0.000126141
9.17877e-05
7.28597e-05
7.28527e-05
0.000129277
7.28712e-05
7.28407e-05
9.05672e-05
4.987e-05
9.05642e-05
4.98701e-05
2.35418e-05
2.35427e-05
9.06258e-05
4.98681e-05
9.05974e-05
4.98682e-05
0.000116516
0.00011634
0.000116283
0.000116328
0.000116493
0.000116332
0.000116332
0.000116882
9.17055e-05
0.000126234
0.000131167
0.000116861
9.17292e-05
0.000126189
2.35393e-05
2.35402e-05
0.000116875
0.000126165
9.17898e-05
0.000130873
0.000116706
0.000126131
9.17978e-05
7.28487e-05
7.28518e-05
0.000129122
7.28692e-05
7.28388e-05
9.05936e-05
4.98687e-05
9.05494e-05
4.98698e-05
2.35411e-05
2.35421e-05
9.05721e-05
4.98676e-05
9.05882e-05
4.98679e-05
0.000116476
0.00011626
0.000116239
0.000116262
0.000116461
0.000116277
0.000116278
0.000116988
9.1735e-05
0.000126221
0.000131121
0.000117045
9.17267e-05
0.000126179
2.35392e-05
2.35405e-05
0.000116748
0.000126167
9.17346e-05
0.000130808
0.000116846
0.00012613
9.17106e-05
7.28625e-05
7.2816e-05
0.000129315
7.28436e-05
7.28336e-05
9.0569e-05
4.98702e-05
9.05678e-05
4.98707e-05
2.35409e-05
2.35422e-05
9.05994e-05
4.98673e-05
9.05819e-05
4.98674e-05
0.000116385
0.000116188
0.000116191
0.00011621
0.000116378
0.000116233
0.000116242
0.000116902
9.16728e-05
0.000126202
0.000131054
0.000116938
9.17125e-05
0.000126176
2.35397e-05
2.35408e-05
0.000116896
0.000126136
9.17661e-05
0.000130774
0.000116938
0.000126117
9.17814e-05
7.28555e-05
7.28273e-05
0.000129425
7.28562e-05
7.28417e-05
9.06058e-05
4.98698e-05
9.05846e-05
4.98703e-05
2.35409e-05
2.35419e-05
9.06356e-05
4.98666e-05
9.0615e-05
4.98673e-05
0.000116353
0.000116187
0.000116194
0.000116148
0.000116366
0.000116215
0.000116216
0.000116899
9.17133e-05
0.000126182
0.000131011
0.000116824
9.16919e-05
0.000126148
2.35395e-05
2.35406e-05
0.000116863
0.000126106
9.17322e-05
0.000130777
0.000116825
0.000126078
9.17903e-05
7.28516e-05
7.28271e-05
0.000129609
7.2828e-05
7.28529e-05
9.05877e-05
4.987e-05
9.05893e-05
4.98706e-05
2.35412e-05
2.35424e-05
9.06163e-05
4.98672e-05
9.0599e-05
4.98674e-05
0.000116289
0.000116161
0.000116192
0.000116148
0.000116314
0.000116184
0.000116237
0.000116857
9.16846e-05
0.000126165
0.00013096
0.000116931
9.17336e-05
0.00012615
2.35394e-05
2.35407e-05
0.000116944
0.000126095
9.17911e-05
0.000130783
0.000116887
0.000126094
9.18061e-05
7.28231e-05
7.28458e-05
0.000129591
7.2854e-05
7.28252e-05
9.05416e-05
4.98699e-05
9.05546e-05
4.98702e-05
2.35409e-05
2.35422e-05
9.05899e-05
4.98665e-05
9.05769e-05
4.98673e-05
0.000116296
0.000116156
0.00011616
0.00011609
0.000116297
0.000116185
0.000116205
0.000116952
9.16805e-05
0.000126126
0.00013095
0.00011697
9.17214e-05
0.000126134
2.35393e-05
2.35405e-05
0.000117118
0.000126123
9.17634e-05
0.000130788
0.000117024
0.000126092
9.17298e-05
7.28557e-05
7.28472e-05
0.000129214
7.28635e-05
7.28552e-05
9.05349e-05
4.98685e-05
9.05259e-05
4.98692e-05
2.35415e-05
2.35429e-05
9.05354e-05
4.98663e-05
9.05415e-05
4.98666e-05
0.000116254
0.000116158
0.000116173
0.000116097
0.000116285
0.000116187
0.000116229
0.000116967
9.16753e-05
0.000126136
0.000130941
0.000116921
9.16676e-05
0.000126087
2.35392e-05
2.35407e-05
0.000116981
0.000126103
9.17099e-05
0.000130819
0.000117029
0.000126081
9.17453e-05
7.28467e-05
7.28129e-05
0.000129206
7.28401e-05
7.28291e-05
9.05762e-05
4.98686e-05
9.05117e-05
4.98704e-05
2.35412e-05
2.35428e-05
9.05591e-05
4.98667e-05
9.0542e-05
4.98679e-05
0.000116219
0.000116128
0.000116178
0.000116077
0.000116266
0.00011617
0.000116222
0.000116874
9.17366e-05
0.000126145
0.00013092
0.000116819
9.17485e-05
0.000126121
2.35393e-05
2.35412e-05
0.000116912
0.000126076
9.17693e-05
0.000130843
0.000116716
0.000126053
9.18156e-05
7.2835e-05
7.28559e-05
0.000129604
7.28574e-05
7.28618e-05
9.05192e-05
4.98706e-05
9.05336e-05
4.98728e-05
2.35412e-05
2.35435e-05
9.05609e-05
4.98676e-05
9.05559e-05
4.98699e-05
0.000116205
0.000116152
0.00011615
0.000116079
0.000116249
0.000116186
0.000116209
0.000116825
9.16996e-05
0.000126127
0.000130895
0.000116812
9.17799e-05
0.000126139
2.35397e-05
2.3542e-05
0.000116848
0.000126085
9.17943e-05
0.000130863
0.000116847
0.000126051
9.1839e-05
7.287e-05
7.28683e-05
0.000129848
7.28785e-05
7.28786e-05
9.05164e-05
4.98724e-05
9.0512e-05
4.98748e-05
2.35415e-05
2.35445e-05
9.06238e-05
4.98693e-05
9.06181e-05
4.98715e-05
0.000116201
0.000116123
0.000116185
0.000116073
0.000116226
0.00011618
0.000116227
0.000116797
9.181e-05
0.000126146
0.000130863
0.000116882
9.18375e-05
0.000126155
2.354e-05
2.35432e-05
0.000116862
0.000126045
9.17698e-05
0.00013086
0.000116891
0.000126018
9.17897e-05
7.28834e-05
7.28928e-05
0.000129983
7.28845e-05
7.28975e-05
9.05429e-05
4.98738e-05
9.05373e-05
4.98775e-05
2.35417e-05
2.35459e-05
9.05498e-05
4.98705e-05
9.05501e-05
4.98743e-05
0.000116179
0.0001161
0.000116192
0.000116078
0.00011623
0.000116152
0.000116228
0.000116822
9.18705e-05
0.00012612
0.000130848
0.000116813
9.18795e-05
0.000126141
2.35405e-05
2.35448e-05
0.000116714
0.000126029
9.1864e-05
0.000130866
0.000116587
0.000126023
9.1893e-05
7.28994e-05
7.29168e-05
0.000129098
7.28963e-05
7.29157e-05
9.04199e-05
4.98753e-05
9.04479e-05
4.98812e-05
2.35419e-05
2.35476e-05
9.04711e-05
4.98726e-05
9.04771e-05
4.98787e-05
0.000116153
0.000116132
0.00011619
0.00011613
0.000116198
0.000116133
0.000116216
0.000116736
9.19267e-05
0.000126141
0.000130849
0.00011676
9.192e-05
0.000126154
2.35407e-05
2.35465e-05
0.000116469
0.000126006
9.19604e-05
0.000130843
0.000116594
0.000126014
9.19551e-05
7.29333e-05
7.29489e-05
0.000129102
7.29309e-05
7.29432e-05
9.04275e-05
4.98759e-05
9.04199e-05
4.98862e-05
2.35418e-05
2.35495e-05
9.04867e-05
4.98745e-05
9.04687e-05
4.98854e-05
0.000116146
0.000116106
0.000116229
0.000116149
0.000116139
0.000116113
0.000116217
0.000116708
9.201e-05
0.000126129
0.000130862
0.000116748
9.19392e-05
0.000126107
2.35409e-05
2.35486e-05
0.000116481
0.000125985
9.20372e-05
0.000130843
0.000116776
0.000125957
9.1961e-05
7.29877e-05
7.30002e-05
0.000129456
7.29521e-05
7.29662e-05
9.04619e-05
4.98785e-05
9.03857e-05
4.99187e-05
2.35437e-05
2.35624e-05
9.05037e-05
4.98781e-05
9.04631e-05
4.99193e-05
0.000116059
0.000116056
0.000116164
0.000115768
0.000115716
0.000115697
0.000115814
0.000116671
9.20582e-05
0.000126132
0.000130997
0.000116723
9.18759e-05
0.000126024
2.35429e-05
2.35619e-05
0.000116555
0.00012593
9.20769e-05
0.000130976
0.000116595
0.000125773
9.18946e-05
7.298e-05
7.29938e-05
0.000129765
7.27832e-05
7.27963e-05
9.50732e-05
5.38969e-05
9.05975e-05
8.55743e-05
2.65072e-05
4.45443e-05
9.50666e-05
5.38965e-05
9.06332e-05
8.55764e-05
0.000131002
0.000116484
0.000116488
0.000117822
0.000130184
0.000116693
0.000116648
0.000118355
9.3221e-05
0.000125703
0.000126571
0.000117081
9.65919e-05
0.000121352
2.65072e-05
4.45501e-05
0.000118713
0.000125409
9.3109e-05
0.000126556
0.000116972
0.000121139
9.66004e-05
7.24756e-05
7.24782e-05
0.000129573
7.93233e-05
7.93601e-05
2.35411e-05
2.35409e-05
0.000130082
7.28317e-05
7.28092e-05
2.35414e-05
2.35401e-05
2.3541e-05
2.35398e-05
0.000130322
7.28359e-05
7.28269e-05
7.28238e-05
7.28107e-05
9.05338e-05
4.98665e-05
0.000116672
0.000130884
9.17273e-05
0.000126003
0.000116649
0.000130952
9.1741e-05
0.000126026
9.05183e-05
4.98655e-05
4.98643e-05
9.05338e-05
9.05024e-05
4.98668e-05
4.98662e-05
9.05227e-05
0.000116707
0.000130885
9.17674e-05
0.000126006
9.17326e-05
0.00012599
0.000116838
0.000116613
0.000130989
9.17448e-05
0.000126029
9.17294e-05
0.000126016
0.000116849
0.000130201
7.2804e-05
7.28027e-05
2.35442e-05
2.35418e-05
2.35404e-05
0.000130359
7.28351e-05
7.28064e-05
7.28212e-05
7.28004e-05
2.35442e-05
2.35431e-05
0.000116692
0.000130991
9.17412e-05
0.000126187
9.05154e-05
4.98595e-05
0.000116659
0.000130891
0.000126148
9.1702e-05
9.04867e-05
4.98632e-05
4.98625e-05
9.04978e-05
0.000116821
0.000130995
9.17807e-05
0.000126212
9.1731e-05
0.000126195
0.00011677
9.04971e-05
4.98597e-05
4.98588e-05
9.05378e-05
0.000116798
0.000130911
0.000126165
9.17299e-05
0.000126149
9.16855e-05
0.000116888
9.06025e-05
4.98681e-05
0.000116752
0.000131003
0.000125945
9.17755e-05
9.06204e-05
4.98662e-05
0.000116795
0.000131153
9.17206e-05
0.000126128
9.16697e-05
0.000126097
0.000116857
9.05922e-05
4.9868e-05
4.98673e-05
9.05966e-05
0.000116847
0.000130995
0.000125972
9.17942e-05
0.000125956
9.17805e-05
0.000116984
9.06156e-05
4.98665e-05
4.98659e-05
9.0617e-05
0.00012996
7.27993e-05
7.28329e-05
2.35406e-05
2.35386e-05
2.35375e-05
0.000130187
7.28053e-05
7.28316e-05
7.27961e-05
7.28355e-05
2.35407e-05
2.35396e-05
0.000116811
0.000130865
0.00012585
9.1739e-05
9.0572e-05
4.98637e-05
9.05521e-05
4.98643e-05
0.000116716
0.000130815
0.000125935
9.17471e-05
0.000125901
9.16961e-05
0.00011689
0.000116874
0.000130885
0.000125839
9.18054e-05
0.000125819
9.17889e-05
0.00011686
9.05578e-05
4.98636e-05
4.98629e-05
9.05677e-05
9.05511e-05
4.98656e-05
4.98642e-05
9.05937e-05
2.35423e-05
2.35413e-05
0.000130271
7.28724e-05
7.28703e-05
7.28638e-05
7.2868e-05
2.35425e-05
2.35413e-05
2.35415e-05
2.35403e-05
2.35405e-05
2.35419e-05
2.35399e-05
2.3541e-05
7.28378e-05
7.28069e-05
0.000130401
7.28429e-05
7.28234e-05
2.3542e-05
2.35409e-05
2.35411e-05
2.354e-05
0.000130385
7.28527e-05
7.28199e-05
7.28352e-05
7.28158e-05
9.05603e-05
4.98664e-05
9.04957e-05
4.98667e-05
0.000116643
9.17467e-05
0.000126087
0.000130988
0.000116755
9.17444e-05
0.000126126
0.000116804
9.17198e-05
0.000126106
0.000131086
0.000116707
9.17335e-05
0.000126142
9.05647e-05
4.98672e-05
4.98658e-05
9.05917e-05
9.05504e-05
4.98671e-05
4.98663e-05
9.05689e-05
0.000116777
0.000131006
9.17991e-05
0.000126139
9.17745e-05
0.000126132
0.000116715
0.000116743
0.000131095
9.17633e-05
0.000126146
9.17276e-05
0.000126124
0.000116698
7.28265e-05
7.2798e-05
0.000130452
7.28396e-05
7.27991e-05
2.35431e-05
2.35442e-05
2.35425e-05
2.35412e-05
0.000130432
7.28418e-05
7.28077e-05
7.28334e-05
7.27897e-05
2.35444e-05
2.35431e-05
0.000116937
9.17219e-05
0.000126285
0.000131106
0.000116857
9.1731e-05
0.000126311
9.05796e-05
4.98592e-05
9.05277e-05
4.986e-05
0.000116955
0.000126242
9.17548e-05
0.000131007
0.000116864
0.000126262
9.17738e-05
9.05755e-05
4.98654e-05
4.98636e-05
9.05925e-05
0.000116754
0.000131112
9.17501e-05
0.000126354
9.1692e-05
0.000126341
0.000116914
9.05677e-05
4.98595e-05
4.98594e-05
9.05565e-05
0.000116825
0.000131066
0.000126298
9.17207e-05
0.000126325
9.17522e-05
0.000116815
9.05902e-05
4.98676e-05
9.0579e-05
4.98684e-05
0.000116897
0.000126037
9.17732e-05
0.000131036
0.000116854
0.000126056
9.1813e-05
9.06057e-05
4.9866e-05
9.06001e-05
4.98668e-05
0.000116719
0.000131168
9.17129e-05
0.000126188
9.1664e-05
0.000126168
0.000116939
9.05486e-05
4.98691e-05
4.98678e-05
9.05472e-05
0.000116777
0.000131037
0.000126073
9.17875e-05
0.000126068
9.17823e-05
0.000116837
9.05804e-05
4.98673e-05
4.98663e-05
9.05549e-05
7.28056e-05
7.28173e-05
0.000130317
7.28222e-05
7.28412e-05
2.35396e-05
2.3541e-05
2.35392e-05
2.35379e-05
0.000130288
7.283e-05
7.28411e-05
7.28132e-05
7.28236e-05
2.35413e-05
2.354e-05
0.000116821
0.000125903
9.17783e-05
0.000130958
0.000116805
0.000125907
9.17749e-05
9.05596e-05
4.98633e-05
9.05525e-05
4.98646e-05
9.05847e-05
4.98654e-05
9.05838e-05
4.98666e-05
0.000116857
0.000130872
0.000125955
9.17892e-05
0.000125941
9.17241e-05
0.000116856
0.000116917
0.000131019
0.000126006
9.1821e-05
0.000126057
9.1741e-05
0.000116912
9.05449e-05
4.98651e-05
4.9864e-05
9.05579e-05
9.05751e-05
4.98673e-05
4.9866e-05
9.05851e-05
2.35415e-05
2.35427e-05
2.35406e-05
2.35418e-05
0.000130409
7.2879e-05
7.28673e-05
7.2876e-05
7.28791e-05
2.35429e-05
2.35418e-05
2.35419e-05
2.35409e-05
2.35411e-05
2.35423e-05
2.35402e-05
2.35416e-05
7.28486e-05
7.28141e-05
0.000130377
7.28534e-05
7.28281e-05
2.35426e-05
2.35414e-05
2.35421e-05
2.35406e-05
0.000130285
7.28526e-05
7.28411e-05
7.28489e-05
7.28205e-05
9.05539e-05
4.98666e-05
9.05507e-05
4.98673e-05
0.000116895
9.17909e-05
0.000126163
0.000131078
0.000116786
9.17493e-05
0.000126126
0.00011691
9.17516e-05
0.000126192
0.000131167
0.000116754
9.17703e-05
0.000126115
9.05538e-05
4.98683e-05
4.98676e-05
9.05786e-05
9.0519e-05
4.98685e-05
4.9867e-05
9.05749e-05
0.000116879
0.000131097
9.17856e-05
0.000126217
9.1749e-05
0.000126172
0.000116785
0.00011683
0.000131194
9.18002e-05
0.000126219
9.17622e-05
0.000126286
0.000116902
7.28419e-05
7.28028e-05
0.000130515
7.28562e-05
7.27999e-05
2.35433e-05
2.35446e-05
2.35427e-05
2.35418e-05
0.000130359
7.2842e-05
7.28e-05
7.28496e-05
7.27995e-05
2.35447e-05
2.35436e-05
0.000116768
9.17334e-05
0.000126314
0.000131138
0.000116743
9.17801e-05
0.000126336
9.0543e-05
4.98586e-05
9.05326e-05
4.98593e-05
0.000116885
0.000126246
9.16866e-05
0.000131055
0.000116791
0.000126283
9.17598e-05
9.05801e-05
4.98678e-05
4.98668e-05
9.05777e-05
0.000116864
0.00013117
9.17771e-05
0.000126414
9.17654e-05
0.000126387
0.000117011
9.05364e-05
4.98599e-05
4.98587e-05
9.05592e-05
0.000116871
0.00013109
0.000126311
9.17703e-05
0.000126303
9.17167e-05
0.000116919
9.05708e-05
4.98689e-05
9.05159e-05
4.98703e-05
0.000116859
0.000126073
9.18247e-05
0.000131025
0.000116892
0.000126052
9.1789e-05
9.05797e-05
4.98674e-05
9.05634e-05
4.98689e-05
0.000117026
0.00013128
9.1722e-05
0.000126226
9.17452e-05
0.000126194
0.000117025
9.05672e-05
4.9871e-05
4.98701e-05
9.05878e-05
0.000116882
0.000131136
0.000126174
9.18143e-05
0.00012621
9.1757e-05
0.000116948
9.05509e-05
4.98698e-05
4.98684e-05
9.05742e-05
7.28247e-05
7.28304e-05
0.000130314
7.28254e-05
7.2859e-05
2.35403e-05
2.35418e-05
2.35398e-05
2.35384e-05
0.000130191
7.28355e-05
7.28526e-05
7.28157e-05
7.28538e-05
2.3542e-05
2.35408e-05
0.000116892
0.000125911
9.17709e-05
0.000130996
0.000116848
0.000125989
9.17988e-05
9.04975e-05
4.98648e-05
9.05173e-05
4.98656e-05
9.0567e-05
4.98667e-05
9.05674e-05
4.98671e-05
0.000116701
0.000130937
0.000126101
9.17915e-05
0.000126082
9.17657e-05
0.000116703
0.000116857
0.000130997
0.000126046
9.17896e-05
0.000126008
9.1789e-05
0.000116906
9.04919e-05
4.98659e-05
4.98652e-05
9.0507e-05
9.05228e-05
4.98661e-05
4.98664e-05
9.05349e-05
2.35419e-05
2.3543e-05
2.3541e-05
2.35421e-05
0.000130279
7.28725e-05
7.28714e-05
7.28705e-05
7.28669e-05
2.35433e-05
2.35421e-05
2.35419e-05
2.35411e-05
2.35417e-05
2.35429e-05
2.35411e-05
2.35424e-05
7.28536e-05
7.28355e-05
0.000130333
7.28613e-05
7.28346e-05
2.35432e-05
2.35418e-05
2.35426e-05
2.35414e-05
0.000130176
7.28705e-05
7.28499e-05
7.28464e-05
7.28364e-05
9.05561e-05
4.98684e-05
9.05615e-05
4.98697e-05
0.00011691
9.17408e-05
0.000126131
0.00013109
0.000116752
9.1804e-05
0.000126137
0.000116974
9.17881e-05
0.000126124
0.000131216
0.000116882
9.18101e-05
0.000126187
9.05686e-05
4.9869e-05
4.98683e-05
9.05728e-05
9.0533e-05
4.98689e-05
4.98692e-05
9.05185e-05
0.000116767
0.000131108
9.17851e-05
0.000126187
9.1793e-05
0.000126159
0.000116802
0.000116882
0.00013133
9.17657e-05
0.000126243
9.17687e-05
0.0001262
0.000116843
7.28302e-05
7.27979e-05
0.000130485
7.28582e-05
7.27961e-05
2.35436e-05
2.35449e-05
2.35433e-05
2.3542e-05
0.000130456
7.28579e-05
7.28125e-05
7.28412e-05
7.2809e-05
2.35454e-05
2.3544e-05
0.000116869
9.17667e-05
0.000126308
0.00013117
0.000116936
9.17938e-05
0.000126368
9.05439e-05
4.98596e-05
9.05235e-05
4.98606e-05
0.000116979
0.000126283
9.17523e-05
0.000131104
0.000116907
0.000126307
9.17704e-05
9.05417e-05
4.98693e-05
4.98682e-05
9.05351e-05
0.000116848
0.000131196
9.17941e-05
0.000126374
9.17804e-05
0.000126355
0.000116915
9.05397e-05
4.98615e-05
4.98601e-05
9.05662e-05
0.00011696
0.000131124
0.000126328
9.18044e-05
0.000126323
9.17462e-05
0.000117009
9.0551e-05
4.98708e-05
9.05477e-05
4.98722e-05
0.000116873
0.000126094
9.18007e-05
0.000131066
0.00011685
0.000126104
9.18254e-05
9.05835e-05
4.98694e-05
9.05677e-05
4.98704e-05
0.00011685
0.000131318
9.17862e-05
0.000126271
9.17643e-05
0.000126265
0.000116803
9.05666e-05
4.98741e-05
4.98722e-05
9.05847e-05
0.000116929
0.000131081
0.000126199
9.18174e-05
0.000126171
9.1803e-05
0.000116946
9.0584e-05
4.98714e-05
4.98702e-05
9.0586e-05
7.28302e-05
7.28417e-05
0.000130192
7.28242e-05
7.28568e-05
2.35409e-05
2.35421e-05
2.35405e-05
2.3539e-05
0.00013021
7.28502e-05
7.28614e-05
7.28362e-05
7.28516e-05
2.35424e-05
2.35412e-05
0.000116923
0.000126022
9.17713e-05
0.000131001
0.000116841
0.000126013
9.17746e-05
9.05248e-05
4.98656e-05
9.04825e-05
4.98659e-05
9.05388e-05
4.98656e-05
9.05252e-05
4.98656e-05
0.00011661
0.000130978
0.000126111
9.17371e-05
0.000126135
9.17429e-05
0.000116805
0.000116861
0.000131024
0.000126064
9.17826e-05
0.000126039
9.17419e-05
0.000116753
9.04938e-05
4.98662e-05
4.98654e-05
9.05087e-05
9.05239e-05
4.98657e-05
4.9865e-05
9.05308e-05
2.35423e-05
2.35436e-05
2.35409e-05
2.35419e-05
0.000129831
7.28673e-05
7.28668e-05
7.28737e-05
7.28596e-05
2.35437e-05
2.35427e-05
2.35419e-05
2.35408e-05
2.35422e-05
2.35434e-05
2.35416e-05
2.35427e-05
7.28594e-05
7.28461e-05
0.000130198
7.28712e-05
7.28515e-05
2.35434e-05
2.35424e-05
2.35426e-05
2.35416e-05
0.000130273
7.28443e-05
7.28483e-05
7.28652e-05
7.28468e-05
9.05623e-05
4.98682e-05
9.05296e-05
4.98684e-05
0.000116853
9.18017e-05
0.000126154
0.000131064
0.000116675
9.18222e-05
0.000126135
0.000116838
9.17271e-05
0.00012623
0.000131277
0.000116821
9.17686e-05
0.000126171
9.05514e-05
4.98693e-05
4.98689e-05
9.05811e-05
9.05508e-05
4.98679e-05
4.98678e-05
9.05609e-05
0.000116865
0.000131157
9.1807e-05
0.000126176
9.18103e-05
0.00012615
0.000116919
0.000116687
0.000131279
9.17567e-05
0.000126263
9.1768e-05
0.000126341
0.00011671
7.28444e-05
7.28135e-05
0.000130233
7.28594e-05
7.2827e-05
2.35444e-05
2.35457e-05
2.35431e-05
2.35422e-05
0.000129931
7.28451e-05
7.28225e-05
7.28409e-05
7.28062e-05
2.35456e-05
2.35446e-05
0.000116971
9.17505e-05
0.000126386
0.000131179
0.000116846
9.18099e-05
0.000126381
9.05558e-05
4.98613e-05
9.05574e-05
4.98622e-05
0.000116997
0.00012634
9.17809e-05
0.000131109
0.000116961
0.000126345
9.18051e-05
9.05649e-05
4.98696e-05
4.98694e-05
9.05735e-05
0.000116995
0.000131189
9.17456e-05
0.000126374
9.17779e-05
0.00012637
0.000116888
9.0532e-05
4.9862e-05
4.98617e-05
9.05269e-05
0.000116946
0.000131121
0.000126358
9.17493e-05
0.000126358
9.17766e-05
0.000116911
9.06278e-05
4.98737e-05
9.05732e-05
4.98749e-05
0.000116896
0.000126125
9.1789e-05
0.000131043
0.000116856
0.000126082
9.17902e-05
9.06254e-05
4.98711e-05
9.05973e-05
4.98713e-05
0.000117035
0.000131352
9.17961e-05
0.000126326
9.17471e-05
0.000126311
0.000117045
9.06213e-05
4.98757e-05
4.98745e-05
9.06358e-05
0.000116966
0.000131035
0.00012619
9.17474e-05
0.000126172
9.17807e-05
0.000117039
9.05935e-05
4.98702e-05
4.98706e-05
9.06617e-05
7.28421e-05
7.28593e-05
0.000130112
7.28386e-05
7.28517e-05
2.35415e-05
2.35426e-05
2.35409e-05
2.35397e-05
0.000130195
7.28364e-05
7.28537e-05
7.2851e-05
7.28516e-05
2.35426e-05
2.35415e-05
0.000116889
0.000126002
9.17693e-05
0.000130975
0.000116797
0.000126023
9.18298e-05
9.05475e-05
4.98655e-05
9.04889e-05
4.98652e-05
9.05449e-05
4.98652e-05
9.0515e-05
4.98662e-05
0.00011678
0.000131018
0.000126178
9.17621e-05
0.000126165
9.16936e-05
0.000116902
0.000116888
0.000130991
0.000126045
9.18502e-05
0.00012604
9.18264e-05
0.000116671
9.05396e-05
4.98651e-05
4.98646e-05
9.05542e-05
9.05383e-05
4.98668e-05
4.98659e-05
9.05401e-05
2.35426e-05
2.35431e-05
2.35408e-05
2.35419e-05
0.000129524
7.28476e-05
7.28578e-05
7.28401e-05
7.28549e-05
2.35429e-05
2.3542e-05
2.35421e-05
2.35409e-05
2.35423e-05
2.35433e-05
2.35415e-05
2.35424e-05
7.28361e-05
7.28343e-05
0.000129576
7.28465e-05
7.28323e-05
2.35435e-05
2.35423e-05
2.35424e-05
2.35415e-05
0.000129645
7.28609e-05
7.28231e-05
7.28466e-05
7.28462e-05
9.05262e-05
4.98674e-05
9.05187e-05
4.98681e-05
0.00011687
9.17614e-05
0.000126126
0.000131063
0.000116874
9.17912e-05
0.000126093
0.000116883
9.17802e-05
0.000126174
0.000131265
0.000116607
9.18014e-05
0.000126199
9.05787e-05
4.98708e-05
4.98698e-05
9.05798e-05
9.05464e-05
4.98684e-05
4.98674e-05
9.05807e-05
0.000116853
0.000131064
9.17889e-05
0.000126121
9.1766e-05
0.000126128
0.000116831
0.000116933
0.000131258
9.17957e-05
0.000126213
9.17561e-05
0.000126215
0.000116949