/*--------------------------------*- C++ -*----------------------------------*\
| =========                 |                                                 |
| \\      /  F ield         | OpenFOAM: The Open Source CFD Toolbox           |
|  \\    /   O peration     | Version:  v1906                                 |
|   \\  /    A nd           | Web:      www.OpenFOAM.com                      |
|    \\/     M anipulation  |                                                 |
\*---------------------------------------------------------------------------*/
FoamFile
{
    version     2.0;
    format      ascii;
    class       volScalarField;
    location    "200";
    object      p;
}
// * * * * * * * * * * * * * * * * * * * * * * * * * * * * * * * * * * * * * //

dimensions      [0 2 -2 0 0 0 0];


internalField   nonuniform List<scalar> 
43024
(
0.000699568
0.000699548
0.000699546
0.00070112
0.000664447
0.000664428
0.000664425
0.000666
0.000629327
0.00062931
0.000629307
0.000630881
0.000594207
0.000594189
0.000594187
0.000595759
0.000559083
0.000559056
0.000559061
0.00056064
0.000523953
0.000523934
0.000523929
0.000525508
0.000488812
0.000488793
0.000488797
0.000490374
0.000453671
0.00045365
0.000453654
0.000455228
0.000418532
0.00041851
0.000418516
0.000420085
0.000383391
0.000383372
0.000383379
0.000384947
0.000348254
0.000348237
0.000348238
0.00034981
0.00031312
0.000313104
0.000313104
0.000314676
0.000277987
0.000277973
0.00027797
0.000279543
0.000242863
0.000242847
0.000242847
0.000244414
0.000207734
0.000207724
0.000207716
0.000209283
0.000172597
0.000172587
0.000172584
0.000174143
0.000137452
0.000137449
0.000137444
0.000138988
0.000102295
0.000102291
0.000102291
0.0001038
6.71402e-05
6.71309e-05
6.71296e-05
6.85739e-05
3.26763e-05
3.21996e-05
3.21965e-05
3.33214e-05
6.63328e-06
7.2699e-06
7.26697e-06
5.67612e-06
0.000706751
0.000708326
0.000708327
0.000706757
0.000708326
0.000708324
0.000708332
0.00070833
0.00070675
0.000708327
0.000708325
0.000706755
0.000701116
0.00067163
0.000699546
0.000699546
0.000673205
0.000673207
0.000701119
0.000671634
0.000699544
0.000699542
0.000673204
0.000673203
0.000699548
0.000673208
0.000673207
0.000701113
0.00067163
0.000699545
0.000673204
0.000673205
0.000671635
0.000665996
0.000636514
0.000664425
0.000664427
0.000638087
0.000638089
0.000665999
0.000636516
0.000664426
0.000664425
0.000638089
0.000638085
0.000664426
0.000638089
0.000638087
0.000665995
0.000636511
0.000664426
0.000638086
0.000638088
0.000636516
0.00063088
0.000601394
0.000629307
0.000629308
0.000602966
0.000602965
0.00063088
0.000601393
0.000629309
0.000629306
0.000602966
0.000602969
0.000629308
0.000602969
0.000602966
0.000630876
0.000601396
0.000629308
0.00060297
0.000602963
0.000601394
0.000595756
0.000566276
0.000594186
0.000594186
0.000567845
0.000567842
0.000595759
0.000566265
0.000594184
0.000594187
0.000567843
0.000567842
0.000594185
0.000567838
0.000567843
0.000595758
0.00056627
0.000594184
0.000567844
0.000567847
0.000566276
0.000560637
0.000531144
0.000559059
0.000559062
0.000532719
0.000532716
0.000560629
0.000531145
0.000559062
0.000559062
0.000532718
0.000532716
0.000559061
0.000532717
0.000532714
0.000560634
0.000531146
0.000559064
0.000532714
0.000532714
0.000531145
0.000525506
0.000496003
0.000523937
0.000523934
0.00049758
0.000497578
0.000525508
0.000496006
0.000523935
0.00052393
0.000497578
0.000497581
0.000523932
0.000497576
0.000497581
0.000525503
0.000496011
0.000523933
0.000497581
0.000497582
0.000496011
0.000490366
0.000460863
0.000488795
0.000488794
0.000462438
0.000462437
0.000490366
0.000460866
0.000488794
0.000488796
0.000462439
0.000462438
0.000488796
0.000462437
0.00046244
0.00049037
0.000460869
0.000488797
0.000462439
0.00046244
0.000460868
0.000455225
0.000425728
0.000453654
0.000453651
0.000427294
0.000427296
0.000455225
0.000425724
0.000453655
0.000453655
0.000427296
0.000427301
0.000453655
0.000427296
0.000427296
0.000455229
0.000425728
0.000453654
0.000427302
0.000427297
0.000425727
0.000420085
0.000390583
0.000418511
0.000418513
0.000392157
0.000392157
0.000420085
0.000390584
0.000418509
0.000418516
0.000392158
0.000392157
0.000418512
0.000392156
0.000392156
0.000420087
0.000390587
0.000418513
0.000392162
0.000392161
0.000390587
0.000384943
0.000355442
0.000383373
0.000383374
0.000357017
0.000357019
0.000384945
0.000355446
0.000383373
0.000383371
0.000357017
0.000357019
0.000383373
0.000357019
0.000357018
0.000384946
0.000355449
0.000383376
0.000357023
0.000357019
0.00035545
0.000349805
0.000320312
0.000348235
0.000348237
0.000321883
0.000321881
0.000349807
0.000320312
0.000348235
0.000348238
0.000321881
0.000321884
0.000348237
0.000321885
0.000321886
0.000349808
0.00032031
0.000348237
0.000321883
0.000321886
0.000320315
0.000314673
0.000285178
0.000313102
0.000313102
0.00028675
0.000286752
0.000314675
0.00028518
0.0003131
0.000313105
0.000286747
0.000286752
0.000313106
0.000286751
0.000286755
0.000314672
0.000285178
0.000313105
0.000286752
0.000286753
0.000285183
0.000279539
0.000250054
0.000277971
0.000277974
0.000251622
0.000251625
0.000279541
0.000250056
0.000277968
0.000277973
0.000251623
0.000251622
0.000277976
0.000251624
0.000251627
0.000279538
0.000250052
0.000277972
0.000251625
0.000251626
0.000250057
0.000244411
0.000214928
0.000242845
0.000242848
0.000216498
0.000216499
0.000244416
0.000214928
0.000242847
0.000242845
0.000216499
0.000216491
0.000242849
0.000216499
0.000216498
0.00024441
0.000214922
0.000242849
0.000216494
0.000216496
0.00021493
0.000209282
0.000179793
0.000207723
0.000207723
0.000181364
0.000181362
0.000209282
0.000179797
0.000207722
0.000207718
0.000181359
0.000181358
0.000207722
0.000181361
0.000181364
0.000209277
0.000179789
0.00020772
0.000181359
0.000181364
0.000179797
0.000174139
0.000144654
0.000172587
0.000172587
0.000146219
0.000146219
0.000174142
0.000144653
0.000172585
0.000172583
0.000146218
0.000146219
0.00017259
0.000146222
0.000146221
0.000174135
0.000144656
0.000172588
0.000146219
0.000146219
0.000144663
0.000138984
0.000109501
0.000137444
0.000137443
0.000111064
0.000111066
0.000138981
0.000109507
0.000137443
0.000137445
0.000111065
0.000111064
0.000137444
0.000111066
0.000111064
0.000138984
0.000109506
0.000137444
0.000111062
0.000111063
0.000109504
0.000103801
7.43426e-05
0.000102293
0.000102292
7.58936e-05
7.58952e-05
0.000103802
7.43418e-05
0.000102292
0.000102291
7.58957e-05
7.58942e-05
0.000102289
7.58954e-05
7.58921e-05
0.000103803
7.4338e-05
0.00010229
7.58955e-05
7.58929e-05
7.43381e-05
6.85782e-05
3.92457e-05
6.71297e-05
6.71302e-05
4.08141e-05
4.08131e-05
6.85765e-05
3.92459e-05
6.71316e-05
6.71299e-05
4.08125e-05
4.08112e-05
6.71269e-05
4.08123e-05
4.08075e-05
6.85755e-05
3.92419e-05
6.71271e-05
4.08105e-05
4.08066e-05
3.92393e-05
3.33296e-05
8.25948e-06
3.22005e-05
3.22001e-05
1.03618e-05
1.03626e-05
3.33298e-05
8.26017e-06
3.22001e-05
3.21993e-05
1.03615e-05
1.03529e-05
3.2193e-05
1.03585e-05
1.03498e-05
3.33254e-05
8.25182e-06
3.21898e-05
1.03516e-05
1.03532e-05
8.2511e-06
5.67335e-06
7.27366e-06
7.2772e-06
5.67919e-06
7.27291e-06
7.26644e-06
6.63501e-06
6.63147e-06
6.6269e-06
7.26152e-06
5.67093e-06
7.26271e-06
0.000723759
0.000723753
0.000723748
0.000723751
0.000723749
0.00070835
0.00070835
0.000708349
0.00070835
0.000723852
0.000725883
0.000723801
0.000725891
0.000723743
0.000723857
0.000725879
0.000725883
0.000723801
0.000724297
0.000723751
0.000723754
0.000688651
0.000701677
0.000701672
0.00068864
0.000701684
0.000688637
0.000688648
0.000701674
0.000701663
0.00068864
0.000699568
0.000699567
0.000699569
0.000673226
0.000673228
0.000673225
0.000673225
0.000688755
0.000701627
0.000699552
0.000690766
0.00070157
0.000688696
0.000690771
0.000701677
0.000688635
0.000688751
0.000699553
0.000701623
0.000690763
0.000701568
0.00069077
0.000688693
0.000701681
0.000701685
0.000689194
0.000688643
0.000688642
0.000653537
0.000666561
0.000666551
0.000653527
0.000666566
0.00065352
0.000653532
0.000666557
0.00066655
0.000653525
0.00066445
0.000664446
0.000664445
0.000638107
0.000638112
0.000638108
0.000638107
0.000653639
0.000666509
0.000664432
0.000655648
0.000666453
0.000653579
0.000655653
0.000666562
0.000653518
0.000653632
0.000664431
0.000666507
0.000655644
0.000666445
0.000655651
0.000653577
0.000666565
0.000666562
0.000654074
0.000653525
0.000653524
0.000618415
0.000631442
0.000631434
0.000618406
0.000631449
0.000618403
0.000618417
0.000631442
0.000631436
0.000618406
0.000629331
0.000629328
0.000629327
0.000602987
0.000602989
0.00060299
0.000602986
0.000618519
0.000631391
0.000629316
0.000620528
0.000631334
0.000618461
0.000620535
0.000631449
0.000618403
0.000618513
0.000629313
0.000631387
0.000620527
0.000631332
0.000620533
0.000618456
0.000631448
0.000631445
0.000618961
0.000618409
0.000618403
0.000583292
0.00059632
0.000596311
0.000583288
0.000596324
0.000583283
0.000583299
0.000596325
0.000596316
0.00058329
0.000594209
0.000594208
0.000594205
0.000567865
0.000567865
0.000567865
0.000567863
0.000583397
0.000596272
0.000594196
0.000585404
0.000596218
0.000583343
0.000585412
0.000596333
0.000583287
0.000583395
0.000594194
0.00059627
0.000585406
0.000596214
0.000585413
0.000583339
0.000596333
0.000596329
0.00058383
0.000583285
0.000583287
0.000548173
0.000561203
0.000561193
0.000548165
0.000561209
0.00054816
0.000548172
0.0005612
0.000561194
0.000548166
0.000559084
0.000559082
0.000559081
0.000532738
0.000532736
0.000532735
0.000532734
0.00054827
0.000561151
0.000559066
0.000550276
0.000561089
0.000548217
0.000550285
0.000561207
0.000548157
0.000548269
0.000559067
0.000561149
0.000550279
0.00056109
0.000550286
0.000548213
0.0005612
0.000561202
0.000548706
0.000548158
0.000548159
0.000513041
0.000526074
0.00052606
0.000513029
0.000526076
0.000513023
0.000513039
0.000526072
0.000526065
0.00051303
0.000523952
0.000523951
0.000523951
0.000497598
0.000497597
0.000497599
0.000497599
0.000513137
0.000526014
0.000523934
0.000515146
0.00052596
0.000513081
0.000515146
0.000526079
0.000513027
0.000513137
0.000523938
0.000526021
0.000515144
0.00052596
0.000515154
0.000513081
0.000526072
0.000526073
0.000513575
0.000513024
0.000513024
0.000477899
0.000490934
0.000490925
0.000477889
0.000490938
0.000477884
0.0004779
0.000490932
0.000490925
0.000477889
0.000488813
0.000488814
0.000488814
0.000462456
0.000462454
0.000462459
0.000462458
0.000477995
0.000490874
0.000488798
0.000480009
0.000490818
0.000477937
0.000480015
0.000490939
0.000477887
0.000478002
0.000488802
0.000490882
0.000480008
0.000490824
0.000480016
0.000477946
0.000490932
0.000490937
0.000478439
0.000477885
0.000477889
0.000442758
0.00045579
0.000455779
0.000442749
0.000455796
0.000442743
0.000442754
0.00045579
0.000455781
0.000442747
0.000453669
0.000453674
0.000453673
0.000427316
0.000427315
0.000427317
0.000427317
0.000442857
0.000455737
0.000453658
0.000444863
0.000455679
0.000442799
0.000444873
0.000455795
0.000442744
0.00044286
0.00045366
0.00045574
0.000444866
0.000455684
0.000444874
0.0004428
0.000455796
0.000455798
0.000443294
0.000442748
0.000442747
0.000407613
0.000420651
0.000420642
0.000407606
0.000420654
0.000407601
0.000407622
0.000420651
0.000420642
0.00040761
0.000418531
0.000418533
0.000418532
0.000392177
0.000392176
0.000392177
0.000392177
0.000407715
0.000420598
0.000418518
0.000409724
0.000420537
0.000407659
0.000409732
0.000420656
0.000407602
0.000407716
0.00041852
0.000420599
0.000409732
0.000420541
0.000409736
0.000407658
0.000420655
0.000420653
0.000408153
0.000407603
0.000407603
0.000372474
0.000385508
0.0003855
0.000372466
0.000385515
0.000372458
0.000372478
0.000385509
0.000385502
0.000372466
0.000383392
0.000383393
0.000383394
0.000357038
0.000357037
0.000357039
0.000357039
0.000372576
0.000385455
0.000383378
0.000374584
0.000385401
0.000372519
0.000374595
0.000385517
0.000372465
0.000372578
0.000383381
0.000385456
0.000374592
0.0003854
0.000374596
0.00037252
0.000385514
0.000385513
0.000373015
0.000372468
0.000372467
0.00033734
0.00035037
0.000350363
0.000337331
0.000350376
0.000337329
0.000337336
0.000350371
0.000350361
0.000337329
0.000348254
0.000348256
0.000348256
0.000321903
0.000321902
0.000321903
0.000321904
0.00033744
0.000350318
0.000348239
0.000339451
0.000350261
0.000337383
0.000339454
0.000350378
0.000337326
0.000337442
0.000348242
0.000350321
0.000339449
0.000350264
0.000339456
0.000337386
0.000350377
0.000350377
0.00033788
0.000337329
0.00033733
0.000302201
0.000315237
0.000315228
0.000302196
0.000315241
0.000302189
0.000302207
0.000315235
0.000315229
0.000302196
0.00031312
0.000313121
0.000313122
0.00028677
0.000286771
0.000286771
0.000286772
0.000302309
0.000315182
0.00031311
0.000304315
0.000315128
0.000302255
0.000304324
0.000315239
0.000302189
0.000302309
0.000313109
0.000315182
0.000304318
0.000315128
0.000304323
0.00030225
0.00031524
0.000315243
0.000302749
0.000302197
0.000302196
0.000267082
0.000280105
0.000280096
0.00026707
0.00028011
0.000267064
0.000267073
0.000280106
0.000280095
0.000267064
0.000277991
0.00027799
0.000277991
0.000251644
0.000251644
0.000251642
0.000251643
0.000267178
0.000280053
0.000277979
0.000269187
0.000279996
0.000267123
0.000269194
0.000280108
0.000267058
0.000267179
0.000277974
0.000280054
0.000269184
0.000279996
0.000269193
0.00026712
0.00028011
0.000280109
0.000267616
0.000267068
0.000267069
0.000231955
0.000244979
0.000244973
0.000231945
0.000244989
0.000231939
0.000231952
0.000244977
0.00024497
0.000231942
0.000242864
0.000242862
0.000242863
0.000216517
0.000216518
0.000216513
0.000216515
0.000232057
0.000244925
0.000242849
0.000234059
0.000244874
0.000231998
0.000234066
0.000244981
0.000231935
0.000232051
0.00024285
0.00024492
0.000234061
0.000244867
0.000234066
0.000231991
0.000244981
0.00024498
0.00023249
0.000231943
0.000231937
0.000196824
0.000209849
0.000209847
0.000196812
0.00020986
0.000196807
0.000196822
0.000209848
0.000209842
0.000196816
0.000207736
0.000207733
0.000207734
0.000181379
0.00018138
0.000181378
0.000181381
0.000196928
0.000209797
0.000207729
0.000198933
0.000209745
0.000196872
0.00019894
0.000209854
0.000196801
0.000196923
0.000207718
0.000209795
0.000198925
0.000209741
0.000198931
0.000196865
0.000209852
0.000209851
0.000197364
0.000196812
0.000196809
0.000161685
0.000174711
0.000174711
0.000161673
0.000174723
0.000161664
0.000161681
0.000174708
0.000174705
0.000161671
0.000172598
0.000172597
0.000172599
0.000146236
0.000146237
0.000146235
0.000146235
0.0001618
0.000174659
0.000172588
0.000163792
0.000174612
0.000161734
0.000163793
0.000174719
0.000161661
0.000161785
0.000172589
0.000174651
0.00016379
0.000174603
0.000163798
0.000161726
0.000174715
0.000174713
0.000162228
0.000161673
0.000161675
0.000126531
0.000139561
0.000139559
0.000126526
0.00013958
0.000126509
0.000126532
0.000139562
0.000139564
0.000126526
0.000137454
0.000137452
0.000137452
0.00011108
0.000111078
0.000111079
0.000111079
0.000126644
0.000139506
0.000137451
0.000128647
0.000139464
0.000126587
0.000128655
0.000139578
0.000126509
0.00012665
0.000137442
0.000139506
0.000128641
0.000139467
0.000128646
0.000126589
0.000139571
0.000139569
0.000127085
0.000126529
0.000126528
9.13634e-05
0.000104402
0.000104411
9.13682e-05
0.000104433
9.13203e-05
9.13652e-05
0.000104401
0.00010441
9.13682e-05
0.000102293
0.000102295
0.000102295
7.59117e-05
7.59107e-05
7.59093e-05
7.59094e-05
9.14888e-05
0.000104335
0.000102283
9.34795e-05
0.000104309
9.14313e-05
9.34803e-05
0.000104434
9.13222e-05
9.14857e-05
0.00010229
0.000104336
9.34806e-05
0.00010431
9.34878e-05
9.14334e-05
0.000104403
0.000104404
9.19194e-05
9.1358e-05
9.13586e-05
5.61798e-05
6.92153e-05
6.92309e-05
5.61956e-05
6.93112e-05
5.60449e-05
5.61831e-05
6.92181e-05
6.92366e-05
5.61978e-05
6.71386e-05
6.71382e-05
6.71367e-05
4.10341e-05
4.10318e-05
4.10319e-05
4.1027e-05
5.63241e-05
6.91303e-05
6.71196e-05
5.8318e-05
6.91413e-05
5.62937e-05
5.83273e-05
6.93111e-05
5.60467e-05
5.63241e-05
6.71191e-05
6.91309e-05
5.83188e-05
6.91456e-05
5.83227e-05
5.62924e-05
6.92161e-05
6.92156e-05
5.67625e-05
5.61954e-05
5.61978e-05
2.06534e-05
3.38598e-05
3.39361e-05
2.02429e-05
3.4285e-05
1.91874e-05
2.06448e-05
3.38551e-05
3.39363e-05
2.02401e-05
3.26753e-05
3.26732e-05
3.26682e-05
1.16252e-05
1.16235e-05
1.16176e-05
1.16163e-05
2.11563e-05
3.37112e-05
3.24562e-05
2.37822e-05
3.39347e-05
2.07178e-05
2.42981e-05
3.4273e-05
1.91953e-05
2.1157e-05
3.245e-05
3.3711e-05
2.37781e-05
3.39464e-05
2.42907e-05
2.07173e-05
3.37479e-05
3.37506e-05
2.20121e-05
2.05446e-05
2.05449e-05
5.658e-07
2.95549e-06
3.35852e-06
2.31239e-06
4.96298e-06
-1.91368e-06
5.79293e-07
2.94221e-06
3.34398e-06
2.31177e-06
2.32784e-06
7.20553e-06
7.2037e-06
6.17976e-06
7.34272e-06
3.34593e-06
3.34555e-06
2.86954e-06
2.4918e-06
6.86984e-06
2.35941e-06
5.0578e-06
6.4863e-06
9.13649e-07
4.94127e-06
-1.9013e-06
2.8742e-06
6.8696e-06
2.48675e-06
2.35994e-06
5.05507e-06
9.14093e-07
6.48749e-06
-4.64278e-07
-4.60471e-07
1.8404e-06
6.2034e-06
6.21234e-06
0.000723746
0.000723744
0.000724296
0.000723747
0.000723747
0.000706194
0.000719233
0.000706192
0.000719229
0.000718676
0.000706197
0.000706195
0.000719229
0.000719227
0.000723759
0.000723754
0.000723849
0.00072588
0.000723801
0.00072589
0.00072385
0.000725884
0.0007238
0.000725891
0.000719219
0.0007062
0.000719229
0.000706212
0.00071922
0.000706201
0.000719232
0.00070621
0.000719117
0.000717103
0.000706251
0.000708335
0.000719176
0.000717114
0.000706318
0.000719116
0.000717107
0.000706255
0.000708335
0.000719175
0.000717113
0.000706319
0.000724299
0.00072375
0.000723749
0.000723748
0.000706195
0.000719236
0.000718681
0.0007062
0.000706202
0.000719232
0.000719231
0.000706199
0.000719235
0.00072385
0.000725879
0.000723798
0.000725887
0.000723755
0.00072375
0.00072385
0.000725879
0.000725885
0.000723799
0.000719213
0.000706196
0.000719223
0.000706204
0.000719112
0.000717104
0.000706249
0.000708333
0.000719171
0.000717113
0.000706314
0.000719215
0.000706195
0.000719224
0.000706204
0.000719113
0.000717103
0.000708332
0.000706249
0.00071711
0.000719171
0.000706312
0.000723756
0.000723753
0.000723851
0.000725882
0.000725891
0.000723803
0.000723757
0.000723755
0.000719117
0.00071711
0.000706257
0.000708336
0.000719175
0.000717114
0.000706319
0.00071922
0.000706205
0.000719229
0.000706218
0.000719117
0.000717107
0.000708336
0.000706254
0.000717115
0.000719176
0.000706318
0.000719219
0.000706202
0.000719232
0.000706214
0.000724296
0.000723746
0.000723748
0.000723748
0.000706191
0.00071923
0.000718675
0.000706195
0.000706196
0.000719227
0.000719229
0.000706193
0.000719233
0.000723858
0.00072588
0.000725886
0.000723806
0.000723765
0.000723753
0.000723764
0.000723757
0.000719117
0.000717104
0.000708334
0.000706252
0.000717109
0.000719174
0.000706318
0.00071912
0.000717103
0.000708334
0.000706256
0.000717111
0.000719181
0.000706318
0.000719221
0.0007062
0.000719227
0.000706212
0.000719223
0.000706205
0.000719235
0.000706212
0.00072375
0.000723751
0.000718674
0.0007062
0.000706202
0.000719232
0.000719236
0.000706197
0.000719237
0.0007062
0.000719239
0.000701681
0.000688636
0.00070168
0.000688636
0.000701679
0.000701678
0.000689192
0.000688639
0.00068864
0.000671078
0.000684124
0.000671077
0.000684124
0.000683552
0.000671081
0.000671081
0.000684121
0.000684121
0.000688653
0.000701679
0.00070167
0.000688643
0.000688759
0.000701623
0.000699554
0.000690766
0.000701567
0.000688695
0.000690772
0.000688757
0.000701625
0.000699554
0.000690766
0.000701569
0.000688696
0.000690772
0.000684111
0.000671084
0.000684119
0.000671093
0.000684113
0.000671086
0.00068412
0.000671094
0.000684008
0.000681985
0.000671137
0.000673211
0.000684065
0.00068199
0.000671199
0.000684007
0.000681987
0.000671139
0.00067321
0.000684066
0.00068199
0.0006712
0.000701682
0.000701683
0.000689196
0.000688641
0.000688641
0.000701687
0.000688637
0.00067108
0.000684125
0.000683558
0.000671084
0.000671084
0.000684122
0.000684119
0.000671081
0.000684123
0.000688751
0.00070162
0.000699551
0.000690763
0.000701565
0.000688693
0.000690769
0.000688647
0.000701672
0.000701664
0.000688639
0.00068875
0.00069955
0.000701619
0.00069076
0.000701563
0.000690768
0.000688692
0.000684108
0.000671083
0.000684116
0.000671093
0.000684001
0.000681983
0.000671135
0.000673208
0.000684063
0.000681988
0.000671194
0.000684106
0.000671081
0.000684117
0.000671093
0.000684
0.000681981
0.000673209
0.000671134
0.000681988
0.000684061
0.000671193
0.000688653
0.000701682
0.000701674
0.000688641
0.000688755
0.000699553
0.000701626
0.000690766
0.000701568
0.000690771
0.000688697
0.000688655
0.000701678
0.000701675
0.000688643
0.000684006
0.000681988
0.00067114
0.000673212
0.000684065
0.000681992
0.000671204
0.00068411
0.000671085
0.000684118
0.000671096
0.000684006
0.000681987
0.000673212
0.000671139
0.000681991
0.000684067
0.000671203
0.000684112
0.000671086
0.00068412
0.000671094
0.000701675
0.000701678
0.000689189
0.000688639
0.000688639
0.000701681
0.000688636
0.000671075
0.000684122
0.000683551
0.000671078
0.000671081
0.00068412
0.000684119
0.000671078
0.000684122
0.000688753
0.000699553
0.000701625
0.000690765
0.000701566
0.000690771
0.000688697
0.000688651
0.000701676
0.000701667
0.000688642
0.00068865
0.00070168
0.000701667
0.000688642
0.000684001
0.000681984
0.000673211
0.000671138
0.000681991
0.000684063
0.000671198
0.000684003
0.000681986
0.00067321
0.000671138
0.000681991
0.000684067
0.000671197
0.000684108
0.000671084
0.000684117
0.000671099
0.00068411
0.000671085
0.000684119
0.000671098
0.000701684
0.000688638
0.000701687
0.000688637
0.000683557
0.000671085
0.000671083
0.000684122
0.000684123
0.000671082
0.000684126
0.000671079
0.000684126
0.000666566
0.00065352
0.000666563
0.00065352
0.000666562
0.00066656
0.000654074
0.000653524
0.000653524
0.000635962
0.000649007
0.000635964
0.000649006
0.000648436
0.000635966
0.000635967
0.000649005
0.000649004
0.000653535
0.000666562
0.00066655
0.000653524
0.000653636
0.000666506
0.000664432
0.000655645
0.000666448
0.000653578
0.000655653
0.000653637
0.000666508
0.00066443
0.000655648
0.000666449
0.000653577
0.000655651
0.000648995
0.000635966
0.000649003
0.000635977
0.000648992
0.000635966
0.000649001
0.000635976
0.000648887
0.000646867
0.000636018
0.000638093
0.000648948
0.000646874
0.000636083
0.000648889
0.00064687
0.000636021
0.000638094
0.000648946
0.000646874
0.000636081
0.000666565
0.000666563
0.000654077
0.000653523
0.000653527
0.000666568
0.000653523
0.00063596
0.000649007
0.000648438
0.000635963
0.000635965
0.000649004
0.000649006
0.000635961
0.00064901
0.000653636
0.000666504
0.00066443
0.000655647
0.000666444
0.000653578
0.00065565
0.000653533
0.000666557
0.000666549
0.000653524
0.000653636
0.00066443
0.000666503
0.000655646
0.000666443
0.000655651
0.000653577
0.000648993
0.000635968
0.000649002
0.000635978
0.000648886
0.000646868
0.00063602
0.000638093
0.000648947
0.000646872
0.000636081
0.000648993
0.000635968
0.000649001
0.000635977
0.000648887
0.000646866
0.000638091
0.000636022
0.000646871
0.000648947
0.000636082
0.000653535
0.000666562
0.000666555
0.000653527
0.000653638
0.000664432
0.000666509
0.000655644
0.00066645
0.000655652
0.00065358
0.000653536
0.000666564
0.000666553
0.000653527
0.000648889
0.000646869
0.000636022
0.000638095
0.000648948
0.000646873
0.000636085
0.000648992
0.000635966
0.000649004
0.00063598
0.000648889
0.000646866
0.000638095
0.00063602
0.000646874
0.000648949
0.000636084
0.000648992
0.000635968
0.000649002
0.00063598
0.000666558
0.000666562
0.000654074
0.000653522
0.000653522
0.000666565
0.000653518
0.000635963
0.000649005
0.000648436
0.000635967
0.000635966
0.000649001
0.000649003
0.000635961
0.000649006
0.000653633
0.000664432
0.000666506
0.000655647
0.000666445
0.000655652
0.000653577
0.000653533
0.000666561
0.000666554
0.000653524
0.000653533
0.000666562
0.00066655
0.000653524
0.000648881
0.000646866
0.000638092
0.000636019
0.000646871
0.000648945
0.000636082
0.000648883
0.000646869
0.000638089
0.000636019
0.000646871
0.000648946
0.00063608
0.000648988
0.000635966
0.000649
0.000635978
0.00064899
0.000635966
0.000649002
0.000635977
0.00066657
0.000653521
0.000666566
0.000653521
0.000648438
0.000635966
0.000635964
0.000649004
0.000649004
0.000635963
0.000649008
0.000635961
0.000649008
0.000631448
0.0006184
0.000631449
0.000618401
0.000631444
0.000631446
0.000618956
0.000618404
0.000618405
0.000600839
0.000613887
0.000600843
0.000613889
0.000613319
0.000600843
0.000600846
0.000613884
0.000613885
0.000618417
0.000631445
0.000631433
0.00061841
0.000618516
0.000631389
0.000629312
0.000620526
0.00063133
0.000618459
0.000620532
0.000618515
0.00063139
0.000629314
0.000620526
0.000631329
0.000618461
0.000620533
0.000613873
0.000600844
0.000613881
0.000600854
0.000613873
0.000600843
0.000613885
0.000600854
0.000613765
0.000611747
0.000600897
0.000602972
0.000613827
0.000611751
0.000600959
0.000613764
0.000611745
0.000600896
0.000602971
0.000613829
0.000611751
0.00060096
0.000631445
0.000631445
0.000618956
0.000618407
0.000618404
0.000631449
0.0006184
0.000600839
0.00061389
0.000613317
0.000600842
0.000600849
0.000613888
0.000613885
0.000600844
0.000613889
0.00061852
0.000631388
0.000629313
0.000620528
0.000631329
0.00061846
0.000620534
0.000618417
0.000631444
0.000631434
0.000618408
0.00061852
0.000629311
0.00063139
0.000620525
0.00063133
0.000620533
0.000618463
0.000613873
0.00060085
0.000613883
0.00060086
0.000613771
0.000611748
0.000600903
0.000602971
0.000613829
0.000611754
0.000600965
0.000613875
0.000600852
0.000613883
0.000600859
0.000613771
0.000611748
0.000602973
0.000600903
0.000611755
0.00061383
0.000600965
0.000618418
0.000631444
0.000631435
0.000618406
0.000618521
0.000629315
0.00063139
0.000620527
0.000631332
0.000620535
0.000618461
0.000618416
0.000631443
0.000631436
0.000618409
0.000613769
0.000611749
0.000600904
0.000602976
0.00061383
0.000611755
0.000600968
0.000613877
0.00060085
0.000613884
0.000600859
0.000613772
0.000611747
0.000602972
0.000600907
0.000611754
0.000613832
0.000600967
0.000613876
0.000600856
0.000613887
0.000600863
0.000631445
0.000631445
0.000618955
0.000618408
0.000618403
0.000631447
0.0006184
0.000600846
0.00061389
0.000613318
0.000600849
0.000600846
0.000613888
0.000613884
0.000600843
0.000613887
0.000618514
0.00062931
0.000631387
0.000620526
0.000631327
0.000620531
0.000618459
0.000618414
0.000631442
0.00063143
0.000618403
0.000618413
0.000631442
0.00063143
0.000618405
0.000613763
0.00061175
0.000602976
0.0006009
0.000611755
0.000613826
0.000600963
0.000613765
0.000611744
0.000602973
0.0006009
0.000611753
0.000613828
0.000600962
0.000613866
0.00060085
0.00061388
0.000600856
0.000613868
0.000600846
0.000613881
0.000600855
0.000631449
0.000618405
0.000631448
0.0006184
0.000613319
0.000600856
0.000600848
0.00061389
0.000613886
0.000600852
0.000613894
0.000600844
0.000613888
0.000596326
0.000583284
0.00059633
0.000583285
0.000596323
0.000596326
0.000583834
0.000583288
0.000583289
0.000565723
0.000578771
0.00056572
0.000578772
0.000578197
0.000565728
0.000565724
0.000578768
0.00057877
0.000583295
0.00059632
0.000596309
0.000583287
0.000583396
0.000596266
0.000594191
0.000585405
0.000596206
0.000583339
0.00058541
0.000583395
0.000596264
0.000594192
0.000585405
0.000596207
0.000583339
0.000585411
0.000578752
0.000565726
0.000578764
0.000565737
0.000578753
0.000565726
0.000578764
0.000565735
0.000578645
0.000576627
0.000565781
0.000567849
0.000578708
0.000576629
0.000565841
0.000578645
0.000576624
0.00056578
0.00056785
0.000578708
0.000576629
0.00056584
0.00059632
0.000596328
0.000583837
0.000583287
0.000583287
0.00059633
0.000583284
0.000565722
0.000578771
0.000578197
0.000565726
0.000565729
0.000578767
0.000578765
0.000565725
0.000578771
0.000583399
0.000596273
0.00059419
0.000585403
0.000596213
0.000583342
0.00058541
0.000583301
0.000596329
0.000596318
0.000583293
0.000583399
0.000594192
0.000596273
0.000585404
0.000596213
0.00058541
0.000583345
0.000578755
0.000565724
0.000578766
0.000565739
0.000578649
0.000576624
0.000565779
0.00056785
0.000578709
0.000576631
0.000565841
0.000578758
0.000565728
0.000578768
0.000565736
0.000578648
0.000576623
0.000567849
0.00056578
0.000576629
0.000578712
0.000565841
0.000583296
0.000596325
0.000596315
0.000583288
0.000583398
0.000594192
0.000596275
0.000585404
0.000596214
0.000585413
0.000583343
0.000583295
0.000596331
0.000596319
0.000583289
0.000578646
0.000576622
0.000565783
0.000567849
0.000578711
0.000576631
0.000565842
0.000578752
0.00056573
0.000578764
0.000565738
0.000578648
0.000576624
0.000567848
0.000565776
0.000576633
0.00057871
0.00056584
0.000578753
0.000565726
0.000578763
0.000565737
0.000596329
0.000596327
0.000583833
0.000583291
0.000583285
0.00059633
0.000583281
0.000565723
0.000578774
0.000578195
0.000565728
0.000565729
0.00057877
0.000578765
0.000565724
0.000578768
0.000583396
0.000594194
0.000596269
0.000585405
0.00059621
0.000585413
0.000583339
0.000583295
0.000596326
0.000596311
0.000583285
0.000583294
0.000596323
0.000596311
0.000583286
0.000578644
0.000576626
0.00056785
0.000565781
0.000576631
0.000578708
0.000565841
0.000578646
0.000576627
0.00056785
0.000565778
0.000576631
0.000578707
0.000565838
0.000578749
0.000565728
0.000578761
0.000565739
0.000578751
0.000565726
0.000578762
0.000565741
0.000596338
0.000583282
0.000596331
0.000583283
0.000578195
0.000565721
0.000565723
0.000578764
0.000578764
0.000565719
0.000578768
0.00056572
0.000578769
0.000561209
0.00054816
0.000561206
0.000548161
0.000561208
0.000561204
0.00054871
0.000548163
0.000548164
0.000530595
0.000543645
0.000530594
0.000543647
0.000543071
0.000530597
0.000530598
0.000543641
0.000543645
0.000548171
0.000561203
0.00056119
0.000548165
0.000548278
0.000561152
0.000559066
0.000550279
0.000561089
0.000548218
0.000550283
0.000548278
0.000561149
0.000559068
0.000550281
0.000561088
0.000548219
0.000550284
0.000543631
0.0005306
0.000543639
0.000530609
0.000543629
0.000530598
0.000543639
0.00053061
0.000543526
0.000541501
0.000530651
0.000532721
0.000543585
0.000541502
0.000530713
0.000543525
0.000541499
0.000530651
0.00053272
0.000543586
0.000541502
0.000530714
0.000561205
0.000561206
0.000548707