/*--------------------------------*- C++ -*----------------------------------*\
| =========                 |                                                 |
| \\      /  F ield         | OpenFOAM: The Open Source CFD Toolbox           |
|  \\    /   O peration     | Version:  v1906                                 |
|   \\  /    A nd           | Web:      www.OpenFOAM.com                      |
|    \\/     M anipulation  |                                                 |
\*---------------------------------------------------------------------------*/
FoamFile
{
    version     2.0;
    format      ascii;
    class       volScalarField;
    location    "200";
    object      k;
}
// * * * * * * * * * * * * * * * * * * * * * * * * * * * * * * * * * * * * * //

dimensions      [0 2 -2 0 0 0 0];


internalField   nonuniform List<scalar> 
42616
(
3.58932e-05
3.58914e-05
3.58914e-05
3.59957e-05
3.39293e-05
3.38876e-05
3.38874e-05
3.39604e-05
3.21569e-05
3.20042e-05
3.20042e-05
3.19457e-05
3.05329e-05
3.02231e-05
3.02228e-05
2.99779e-05
2.90302e-05
2.85457e-05
2.85455e-05
2.81102e-05
2.76317e-05
2.69769e-05
2.69767e-05
2.6377e-05
2.63261e-05
2.55193e-05
2.5519e-05
2.4793e-05
2.51057e-05
2.41719e-05
2.4172e-05
2.3365e-05
2.39647e-05
2.29359e-05
2.29368e-05
2.20913e-05
2.2899e-05
2.18106e-05
2.18122e-05
2.09706e-05
2.19047e-05
2.07932e-05
2.07958e-05
1.99961e-05
2.09786e-05
1.98811e-05
1.98846e-05
1.91626e-05
2.01157e-05
1.90724e-05
1.90766e-05
1.84684e-05
1.93148e-05
1.83642e-05
1.83686e-05
1.79082e-05
1.85748e-05
1.77531e-05
1.77573e-05
1.74771e-05
1.78933e-05
1.72373e-05
1.7241e-05
1.71679e-05
1.72678e-05
1.68156e-05
1.68191e-05
1.69855e-05
1.66964e-05
1.64872e-05
1.64905e-05
1.69377e-05
1.61776e-05
1.62521e-05
1.62553e-05
1.70306e-05
1.5709e-05
1.61101e-05
1.61132e-05
1.72517e-05
1.52891e-05
1.60611e-05
1.6064e-05
1.75981e-05
3.63061e-05
3.62907e-05
3.62907e-05
3.63062e-05
3.62907e-05
3.62907e-05
3.6423e-05
3.6423e-05
3.6423e-05
3.6423e-05
3.62907e-05
3.62907e-05
3.63062e-05
3.62907e-05
3.62907e-05
3.63062e-05
3.59957e-05
3.42667e-05
3.58914e-05
3.58914e-05
3.43755e-05
3.43753e-05
3.59957e-05
3.42664e-05
3.58913e-05
3.58914e-05
3.43755e-05
3.43754e-05
3.58915e-05
3.43756e-05
3.43757e-05
3.59957e-05
3.42663e-05
3.58914e-05
3.43755e-05
3.43756e-05
3.42671e-05
3.39599e-05
3.22568e-05
3.38875e-05
3.38872e-05
3.24651e-05
3.24647e-05
3.39594e-05
3.22564e-05
3.38875e-05
3.38874e-05
3.24652e-05
3.2465e-05
3.38876e-05
3.24653e-05
3.24654e-05
3.39595e-05
3.22565e-05
3.38876e-05
3.24652e-05
3.24655e-05
3.22576e-05
3.19449e-05
3.02887e-05
3.2004e-05
3.20036e-05
3.06584e-05
3.06579e-05
3.19445e-05
3.02884e-05
3.20042e-05
3.20039e-05
3.06589e-05
3.06582e-05
3.20043e-05
3.06589e-05
3.06588e-05
3.19445e-05
3.0288e-05
3.20044e-05
3.06587e-05
3.06589e-05
3.02891e-05
2.99774e-05
2.84117e-05
3.02225e-05
3.02219e-05
2.89541e-05
2.89534e-05
2.99769e-05
2.8411e-05
3.0223e-05
3.02223e-05
2.8955e-05
2.89543e-05
3.02229e-05
2.8955e-05
2.89549e-05
2.99768e-05
2.84117e-05
3.0223e-05
2.89547e-05
2.89549e-05
2.84129e-05
2.81089e-05
2.66589e-05
2.85448e-05
2.8544e-05
2.73576e-05
2.73571e-05
2.8108e-05
2.66582e-05
2.85458e-05
2.8545e-05
2.73589e-05
2.73581e-05
2.85457e-05
2.73586e-05
2.7359e-05
2.81088e-05
2.66588e-05
2.85457e-05
2.73585e-05
2.7359e-05
2.66604e-05
2.63753e-05
2.50507e-05
2.69758e-05
2.69753e-05
2.58721e-05
2.5872e-05
2.63747e-05
2.50506e-05
2.69772e-05
2.69763e-05
2.58737e-05
2.58727e-05
2.69773e-05
2.58734e-05
2.58741e-05
2.63751e-05
2.50509e-05
2.69773e-05
2.58731e-05
2.58742e-05
2.50528e-05
2.47914e-05
2.35972e-05
2.55181e-05
2.5518e-05
2.44972e-05
2.44972e-05
2.47911e-05
2.35966e-05
2.55197e-05
2.55186e-05
2.44989e-05
2.44976e-05
2.552e-05
2.44983e-05
2.44993e-05
2.47904e-05
2.35967e-05
2.55203e-05
2.44983e-05
2.45e-05
2.35975e-05
2.33617e-05
2.22972e-05
2.41709e-05
2.41709e-05
2.32341e-05
2.32339e-05
2.33613e-05
2.22952e-05
2.41726e-05
2.41713e-05
2.32357e-05
2.32342e-05
2.4173e-05
2.32345e-05
2.32358e-05
2.33609e-05
2.22955e-05
2.41738e-05
2.32351e-05
2.3237e-05
2.2296e-05
2.2088e-05
2.11519e-05
2.29358e-05
2.29355e-05
2.20823e-05
2.20816e-05
2.20874e-05
2.11505e-05
2.29374e-05
2.29358e-05
2.20838e-05
2.20819e-05
2.29374e-05
2.20817e-05
2.20832e-05
2.20874e-05
2.1151e-05
2.29386e-05
2.20831e-05
2.20849e-05
2.11511e-05
2.09694e-05
2.01536e-05
2.18114e-05
2.18107e-05
2.10391e-05
2.10382e-05
2.09677e-05
2.01512e-05
2.18129e-05
2.1811e-05
2.10406e-05
2.10386e-05
2.18122e-05
2.10376e-05
2.10394e-05
2.0968e-05
2.01522e-05
2.18139e-05
2.10399e-05
2.10415e-05
2.01527e-05
1.99957e-05
1.92957e-05
2.0795e-05
2.0794e-05
2.0102e-05
2.01007e-05
1.99934e-05
1.92926e-05
2.07965e-05
2.07944e-05
2.01034e-05
2.01012e-05
2.07951e-05
2.00994e-05
2.01017e-05
1.99948e-05
1.92949e-05
2.07973e-05
2.01027e-05
2.0104e-05
1.92955e-05
1.91625e-05
1.8569e-05
1.98839e-05
1.98825e-05
1.92682e-05
1.92667e-05
1.91597e-05
1.85658e-05
1.98853e-05
1.98831e-05
1.92695e-05
1.92675e-05
1.98835e-05
1.92649e-05
1.92677e-05
1.91617e-05
1.85684e-05
1.98859e-05
1.9269e-05
1.92701e-05
1.85688e-05
1.84684e-05
1.79724e-05
1.90758e-05
1.90743e-05
1.85354e-05
1.8534e-05
1.84654e-05
1.797e-05
1.90771e-05
1.90751e-05
1.85366e-05
1.85347e-05
1.90753e-05
1.85319e-05
1.85349e-05
1.84679e-05
1.79721e-05
1.90777e-05
1.85363e-05
1.85372e-05
1.79725e-05
1.79082e-05
1.751e-05
1.83678e-05
1.83664e-05
1.79001e-05
1.78989e-05
1.79057e-05
1.75081e-05
1.83688e-05
1.8367e-05
1.79011e-05
1.78995e-05
1.83672e-05
1.78968e-05
1.78995e-05
1.79078e-05
1.75097e-05
1.83695e-05
1.7901e-05
1.79017e-05
1.75099e-05
1.74771e-05
1.71842e-05
1.77564e-05
1.77552e-05
1.73601e-05
1.7359e-05
1.74751e-05
1.71839e-05
1.77572e-05
1.77558e-05
1.73609e-05
1.73595e-05
1.77558e-05
1.73571e-05
1.73594e-05
1.74766e-05
1.71849e-05
1.7758e-05
1.7361e-05
1.73616e-05
1.71841e-05
1.71681e-05
1.69857e-05
1.72403e-05
1.72391e-05
1.69146e-05
1.69134e-05
1.71633e-05
1.69871e-05
1.72409e-05
1.72396e-05
1.69152e-05
1.6914e-05
1.72395e-05
1.69118e-05
1.69137e-05
1.71652e-05
1.69884e-05
1.72416e-05
1.69153e-05
1.69158e-05
1.69853e-05
1.69861e-05
1.69292e-05
1.68185e-05
1.68172e-05
1.65623e-05
1.65611e-05
1.69799e-05
1.6928e-05
1.68189e-05
1.68178e-05
1.6563e-05
1.65619e-05
1.68175e-05
1.65597e-05
1.65614e-05
1.6981e-05
1.69299e-05
1.68196e-05
1.65631e-05
1.65634e-05
1.69286e-05
1.69384e-05
1.69964e-05
1.64899e-05
1.64886e-05
1.63034e-05
1.63021e-05
1.69363e-05
1.69954e-05
1.64904e-05
1.64894e-05
1.63042e-05
1.63031e-05
1.64889e-05
1.6301e-05
1.63025e-05
1.69383e-05
1.69948e-05
1.64909e-05
1.63042e-05
1.63044e-05
1.6996e-05
1.70322e-05
1.71901e-05
1.62546e-05
1.62532e-05
1.61377e-05
1.61362e-05
1.70289e-05
1.7195e-05
1.62552e-05
1.62543e-05
1.61386e-05
1.61377e-05
1.62536e-05
1.61353e-05
1.61368e-05
1.70319e-05
1.71948e-05
1.62556e-05
1.61385e-05
1.61386e-05
1.71953e-05
1.72565e-05
1.75153e-05
1.61126e-05
1.61111e-05
1.6065e-05
1.60636e-05
1.72471e-05
1.75232e-05
1.61133e-05
1.61126e-05
1.60659e-05
1.60653e-05
1.61117e-05
1.60627e-05
1.60642e-05
1.72516e-05
1.75265e-05
1.61134e-05
1.60657e-05
1.60659e-05
1.75257e-05
1.76102e-05
1.60633e-05
1.6062e-05
1.75973e-05
1.60642e-05
1.60637e-05
1.60626e-05
1.75997e-05
1.60642e-05
3.73774e-05
3.73766e-05
3.7377e-05
3.7377e-05
3.73702e-05
3.73777e-05
3.73051e-05
3.73769e-05
3.73702e-05
3.73777e-05
3.73769e-05
3.73045e-05
3.73741e-05
3.72973e-05
3.72965e-05
3.5862e-05
4.06679e-05
3.65929e-05
4.50657e-05
5.52516e-05
6.52227e-05
3.58605e-05
4.06776e-05
3.65929e-05
4.5061e-05
3.58932e-05
3.58933e-05
3.58933e-05
3.44002e-05
3.44001e-05
3.44002e-05
3.44002e-05
3.52729e-05
3.56068e-05
3.58931e-05
3.53767e-05
3.6049e-05
3.4186e-05
3.53822e-05
5.52305e-05
6.51129e-05
3.52712e-05
3.58931e-05
3.56052e-05
3.53766e-05
3.60487e-05
3.53821e-05
3.41814e-05
3.65781e-05
3.65775e-05
3.52786e-05
3.4024e-05
3.40135e-05
3.39426e-05
5.13038e-05
3.4672e-05
5.46188e-05
7.67596e-05
8.10269e-05
3.39418e-05
5.12989e-05
3.46673e-05
5.46115e-05
3.39293e-05
3.39293e-05
3.39293e-05
3.25847e-05
3.25847e-05
3.25847e-05
3.25848e-05
3.30455e-05
3.24368e-05
3.39292e-05
3.34067e-05
3.38927e-05
3.15273e-05
3.34674e-05
7.66927e-05
8.09839e-05
3.30418e-05
3.39291e-05
3.24336e-05
3.34066e-05
3.38892e-05
3.34672e-05
3.15298e-05
3.16519e-05
3.1657e-05
3.32602e-05
3.08336e-05
3.0844e-05
3.22272e-05
5.91686e-05
3.2911e-05
6.14659e-05
8.44572e-05
8.51027e-05
3.223e-05
5.91612e-05
3.29098e-05
6.14597e-05
3.21569e-05
3.21569e-05
3.2157e-05
3.09267e-05
3.09266e-05
3.09266e-05
3.09267e-05
3.07785e-05
3.04779e-05
3.21364e-05
3.15496e-05
3.16299e-05
2.98521e-05
3.17088e-05
8.44376e-05
8.50953e-05
3.07731e-05
3.21362e-05
3.0482e-05
3.15494e-05
3.16249e-05
3.17084e-05
2.98557e-05
3.01583e-05
3.01671e-05
3.12649e-05
2.99458e-05
2.99492e-05
3.07306e-05
6.43577e-05
3.13304e-05
6.57505e-05
8.46127e-05
8.39159e-05
3.07415e-05
6.43536e-05
3.13354e-05
6.57502e-05
3.05328e-05
3.05328e-05
3.05329e-05
2.93956e-05
2.93955e-05
2.93955e-05
2.93957e-05
2.85868e-05
2.91145e-05
3.04673e-05
2.97938e-05
2.9406e-05
2.86491e-05
3.00663e-05
8.46174e-05
8.39188e-05
2.85816e-05
3.04667e-05
2.91176e-05
2.97935e-05
2.93999e-05
3.00656e-05
2.86519e-05
2.99157e-05
2.99155e-05
2.93369e-05
3.00249e-05
3.00186e-05
2.94914e-05
6.73161e-05
2.99812e-05
6.80418e-05
8.21849e-05
8.12165e-05
2.95082e-05
6.73174e-05
2.99881e-05
6.8046e-05
2.90301e-05
2.90302e-05
2.90303e-05
2.79722e-05
2.79721e-05
2.79722e-05
2.79724e-05
2.65491e-05
2.80955e-05
2.88992e-05
2.81431e-05
2.73083e-05
2.77538e-05
2.85218e-05
8.21902e-05
8.1225e-05
2.65451e-05
2.88985e-05
2.80983e-05
2.81429e-05
2.73039e-05
2.85211e-05
2.77581e-05
3.04536e-05
3.04578e-05
2.752e-05
3.07852e-05
3.07791e-05
2.85817e-05
6.87302e-05
2.89255e-05
6.90249e-05
7.94094e-05
7.85327e-05
2.859e-05
6.87355e-05
2.89276e-05
6.90308e-05
2.76315e-05
2.76317e-05
2.76319e-05
2.66442e-05
2.66441e-05
2.66442e-05
2.66446e-05
2.47236e-05
2.73827e-05
2.74237e-05
2.66021e-05
2.5406e-05
2.7155e-05
2.70689e-05
7.94117e-05
7.85375e-05
2.47198e-05
2.7423e-05
2.73729e-05
2.66018e-05
2.54014e-05
2.70682e-05
2.71639e-05
3.16189e-05
3.16209e-05
2.58379e-05
3.21183e-05
3.21185e-05
2.80353e-05
6.92345e-05
2.82163e-05
6.92897e-05
7.69877e-05
7.62911e-05
2.80388e-05
6.92426e-05
2.82205e-05
6.92984e-05
2.6326e-05
2.63261e-05
2.63265e-05
2.54031e-05
2.54031e-05
2.54031e-05
2.54037e-05
2.31423e-05
2.69678e-05
2.60383e-05
2.51721e-05
2.37397e-05
2.68866e-05
2.57058e-05
7.69881e-05
7.62932e-05
2.3142e-05
2.60376e-05
2.69652e-05
2.51718e-05
2.37373e-05
2.57051e-05
2.68921e-05
3.32739e-05
3.3274e-05
2.43058e-05
3.39061e-05
3.39084e-05
2.7893e-05
6.92735e-05
2.79038e-05
6.92441e-05
7.50666e-05
7.45365e-05
2.78958e-05
6.92835e-05
2.79048e-05
6.92541e-05
2.51056e-05
2.51056e-05
2.51063e-05
2.42427e-05
2.42426e-05
2.42427e-05
2.42434e-05
2.18253e-05
2.69053e-05
2.47416e-05
2.38524e-05
2.23289e-05
2.69522e-05
2.44312e-05
7.5068e-05
7.45379e-05
2.18271e-05
2.47413e-05
2.69117e-05
2.38527e-05
2.23299e-05
2.44309e-05
2.69546e-05
3.52814e-05
3.52883e-05
2.29264e-05
3.6012e-05
3.6014e-05
2.81413e-05
6.91723e-05
2.80238e-05
6.91386e-05
7.36095e-05
7.32152e-05
2.81549e-05
6.9182e-05
2.80182e-05
6.91471e-05
2.39645e-05
2.39646e-05
2.39654e-05
2.31585e-05
2.31581e-05
2.31584e-05
2.31592e-05
2.07841e-05
2.7169e-05
2.35325e-05
2.26443e-05
2.11854e-05
2.73362e-05
2.32435e-05
7.36069e-05
7.32172e-05
2.07858e-05
2.35328e-05
2.71892e-05
2.26454e-05
2.11866e-05
2.32438e-05
2.73357e-05
3.75269e-05
3.75434e-05
2.17051e-05
3.83054e-05
3.83243e-05
2.88132e-05
6.90927e-05
2.85539e-05
6.90845e-05
7.25316e-05
7.22524e-05
2.8826e-05
6.91002e-05
2.85495e-05
6.90913e-05
2.28985e-05
2.28988e-05
2.28995e-05
2.21467e-05
2.21459e-05
2.21464e-05
2.21471e-05
2.00121e-05
2.77529e-05
2.24075e-05
2.15462e-05
2.03053e-05
2.80234e-05
2.21392e-05
7.25307e-05
7.22462e-05
2.00169e-05
2.24083e-05
2.77769e-05
2.1548e-05
2.03064e-05
2.21401e-05
2.8019e-05
3.99064e-05
3.99291e-05
2.0634e-05
4.07129e-05
4.07319e-05
2.98965e-05
6.90843e-05
2.94994e-05
6.91024e-05
7.17557e-05
7.15605e-05
2.99091e-05
6.90903e-05
2.9493e-05
6.91069e-05
2.19038e-05
2.19044e-05
2.1905e-05
2.12038e-05
2.12027e-05
2.12034e-05
2.1204e-05
1.9503e-05
2.86223e-05
2.1366e-05
2.05555e-05
1.96881e-05
2.89841e-05
2.11188e-05
7.17597e-05
7.1554e-05
1.95112e-05
2.13675e-05
2.86528e-05
2.05582e-05
1.96909e-05
2.11203e-05
2.89824e-05
4.23391e-05
4.23509e-05
1.97067e-05
4.31412e-05
4.31526e-05
3.13808e-05
6.91362e-05
3.08545e-05
6.91805e-05
7.12082e-05
7.10757e-05
3.13931e-05
6.91452e-05
3.08481e-05
6.91816e-05
2.09774e-05
2.09782e-05
2.09788e-05
2.03258e-05
2.03244e-05
2.03254e-05
2.03258e-05
1.9256e-05
2.97522e-05
2.04077e-05
1.96692e-05
1.93335e-05
3.0184e-05
2.01809e-05
7.12135e-05
7.10689e-05
1.92659e-05
2.04099e-05
2.97771e-05
1.96729e-05
1.93382e-05
2.01831e-05
3.01871e-05
4.47244e-05
4.47287e-05
1.89159e-05
4.54914e-05
4.54953e-05
3.32483e-05
6.92365e-05
3.25955e-05
6.92892e-05
7.08263e-05
7.0738e-05
3.32507e-05
6.92448e-05
3.25847e-05
6.92909e-05
2.01143e-05
2.01153e-05
2.01157e-05
1.95092e-05
1.95076e-05
1.95088e-05
1.95091e-05
1.92777e-05
3.11005e-05
1.95298e-05
1.8886e-05
1.9246e-05
3.15846e-05
1.93227e-05
7.08319e-05
7.07305e-05
1.92837e-05
1.95326e-05
3.11183e-05
1.88903e-05
1.92527e-05
1.93254e-05
3.15897e-05
4.69848e-05
4.69895e-05
1.82543e-05
4.77017e-05
4.77039e-05
3.54319e-05
6.93517e-05
3.46769e-05
6.94042e-05
7.05579e-05
7.04999e-05
3.54328e-05
6.93604e-05
3.46712e-05
6.94071e-05
1.93131e-05
1.93144e-05
1.93147e-05
1.87542e-05
1.87525e-05
1.87539e-05
1.87541e-05
1.95488e-05
3.26103e-05
1.87295e-05
1.82024e-05
1.94276e-05
3.31453e-05
1.85412e-05
7.05634e-05
7.04916e-05
1.95543e-05
1.87325e-05
3.26244e-05
1.82068e-05
1.94312e-05
1.85442e-05
3.3149e-05
4.90736e-05
4.90793e-05
1.77243e-05
4.97264e-05
4.97291e-05
3.78651e-05
6.94644e-05
3.70349e-05
6.95123e-05
7.03634e-05
7.03232e-05
3.78669e-05
6.94734e-05
3.7033e-05
6.95162e-05
1.85731e-05
1.85745e-05
1.85747e-05
1.80583e-05
1.80566e-05
1.8058e-05
1.80582e-05
2.00755e-05
3.42386e-05
1.8004e-05
1.76151e-05
1.98675e-05
3.47838e-05
1.78341e-05
7.03656e-05
7.03163e-05
2.00732e-05
1.8007e-05
3.42369e-05
1.76192e-05
1.98701e-05
1.78371e-05
3.47988e-05
5.09613e-05
5.09681e-05
1.73306e-05
5.15414e-05
5.15486e-05
4.04366e-05
6.95669e-05
3.95685e-05
6.96108e-05
7.02166e-05
7.01815e-05
4.04484e-05
6.95762e-05
3.95692e-05
6.96149e-05
1.78916e-05
1.7893e-05
1.78931e-05
1.74191e-05
1.74175e-05
1.74189e-05
1.74189e-05
2.0844e-05
3.59281e-05
1.73509e-05
1.71227e-05
2.05551e-05
3.64785e-05
1.71988e-05
7.02188e-05
7.01787e-05
2.08458e-05
1.73538e-05
3.59213e-05
1.71264e-05
2.0558e-05
1.72017e-05
3.64958e-05
5.26362e-05
5.2645e-05
1.70691e-05
5.31468e-05
5.3157e-05
4.30529e-05
6.96601e-05
4.21703e-05
6.97002e-05
7.00951e-05
7.00635e-05
4.30724e-05
6.96693e-05
4.21586e-05
6.97047e-05
1.72663e-05
1.72677e-05
1.72677e-05
1.68344e-05
1.68329e-05
1.68343e-05
1.68343e-05
2.18433e-05
3.76284e-05
1.67693e-05
1.67242e-05
2.14832e-05
3.81778e-05
1.66348e-05
7.00953e-05
7.00628e-05
2.18481e-05
1.6772e-05
3.7623e-05
1.67276e-05
2.14856e-05
1.66374e-05
3.81921e-05
5.41065e-05
5.41166e-05
1.69394e-05
5.45513e-05
5.45622e-05
4.55925e-05
6.97455e-05
4.47213e-05
6.97833e-05
6.99878e-05
6.99591e-05
4.56105e-05
6.9752e-05
4.47143e-05
6.97898e-05
1.66949e-05
1.66963e-05
1.66962e-05
1.63027e-05
1.63013e-05
1.63026e-05
1.63026e-05
2.30551e-05
3.92976e-05
1.62567e-05
1.64187e-05
2.26332e-05
3.9844e-05
1.61392e-05
6.99878e-05
6.99592e-05
2.30632e-05
1.62594e-05
3.92985e-05
1.6422e-05
2.26387e-05
1.61418e-05
3.98482e-05
5.53875e-05
5.53975e-05
1.69458e-05
5.57742e-05
5.57831e-05
4.79557e-05
6.98278e-05
4.71372e-05
6.98587e-05
6.98898e-05
6.98639e-05
4.79707e-05
6.98326e-05
4.71322e-05
6.98681e-05
1.61763e-05
1.61775e-05
1.61774e-05
1.5822e-05
1.58207e-05
1.58219e-05
1.58219e-05
2.44596e-05
4.09161e-05
1.58119e-05
1.62065e-05
2.39817e-05
4.14271e-05
1.57112e-05
6.98901e-05
6.98641e-05
2.44626e-05
1.58144e-05
4.09197e-05
1.62097e-05
2.39864e-05
1.57137e-05
4.14333e-05
5.65007e-05
5.65098e-05
1.70797e-05
5.68359e-05
5.68464e-05
5.00784e-05
6.99031e-05
4.93404e-05
6.99326e-05
6.97993e-05
6.97755e-05
5.00911e-05
6.99099e-05
4.9336e-05
6.99395e-05
1.57078e-05
1.5709e-05
1.57089e-05
1.53904e-05
1.53891e-05
1.53903e-05
1.53903e-05
2.60076e-05
4.24509e-05
1.54345e-05
1.60874e-05
2.54868e-05
4.293e-05
1.53506e-05
6.97994e-05
6.97755e-05
2.60091e-05
1.54368e-05
4.24526e-05
1.60906e-05
2.54892e-05
1.53528e-05
4.29323e-05
5.74685e-05
5.74773e-05
1.73471e-05
5.77613e-05
5.77716e-05
5.19302e-05
6.99737e-05
5.12842e-05
7.00012e-05
6.97149e-05
6.96927e-05
6.99807e-05
5.12809e-05
7.00081e-05
1.52879e-05
1.52892e-05
1.52889e-05
2.76525e-05
4.38838e-05
1.51243e-05
1.60636e-05
2.7105e-05
4.43297e-05
1.50571e-05
6.97146e-05
2.76544e-05
1.51264e-05
4.38791e-05
2.71063e-05
1.5059e-05
5.83143e-05
5.83226e-05
1.77375e-05
5.85702e-05
5.85804e-05
3.73742e-05
3.72968e-05
3.72983e-05
5.31643e-05
3.71923e-05
5.31895e-05
3.71921e-05
3.70928e-05
3.72171e-05
3.71351e-05
3.7176e-05
3.71732e-05
3.73702e-05
3.73777e-05
3.73052e-05
3.73768e-05
3.73702e-05
3.73777e-05
3.73046e-05
3.73768e-05
3.71728e-05
3.92865e-05
3.71541e-05
3.67299e-05
3.71729e-05
3.92166e-05
3.71636e-05
3.67298e-05
3.70958e-05
3.71021e-05
3.59939e-05
3.64209e-05
3.71643e-05
3.71108e-05
3.63049e-05
3.70957e-05
3.71021e-05
3.59882e-05
3.64209e-05
3.7166e-05
3.71108e-05
3.6305e-05
3.73742e-05
3.72969e-05
3.72969e-05
5.31962e-05
3.71926e-05
3.70928e-05
3.72201e-05
3.72127e-05
3.71764e-05
3.71761e-05
5.31921e-05
3.71926e-05
3.73702e-05
3.73777e-05
3.73048e-05
3.73769e-05
3.73702e-05
3.73777e-05
3.73768e-05
3.73046e-05
3.71728e-05
3.92186e-05
3.71635e-05
3.67303e-05
3.70958e-05
3.71021e-05
3.59835e-05
3.64209e-05
3.71657e-05
3.71108e-05
3.6305e-05
3.71728e-05
3.92182e-05
3.71636e-05
3.67293e-05
3.70958e-05
3.71021e-05
3.64209e-05
3.59877e-05
3.71108e-05
3.7166e-05
3.63048e-05
3.73774e-05
3.73766e-05
3.7377e-05
3.7377e-05
3.73774e-05
3.73766e-05
3.7377e-05
3.7377e-05
3.73774e-05
3.73766e-05
3.7377e-05
3.7377e-05
3.71133e-05
3.71098e-05
3.64241e-05
3.64241e-05
3.71125e-05
3.71125e-05
3.64261e-05
3.71133e-05
3.71098e-05
3.64241e-05
3.64241e-05
3.71125e-05
3.71125e-05
3.64261e-05
3.71133e-05
3.71098e-05
3.64241e-05
3.64241e-05
3.71125e-05
3.71125e-05
3.64261e-05
3.71133e-05
3.71098e-05
3.64241e-05
3.64241e-05
3.71125e-05
3.71125e-05
3.64261e-05
3.73702e-05
3.73777e-05
3.73768e-05
3.73049e-05
3.70958e-05
3.71021e-05
3.59918e-05
3.64209e-05
3.71643e-05
3.71108e-05
3.63052e-05
3.71728e-05
3.929e-05
3.71542e-05
3.67322e-05
3.70958e-05
3.71021e-05
3.64209e-05
3.59999e-05
3.71108e-05
3.71649e-05
3.63051e-05
3.71728e-05
3.92919e-05
3.71542e-05
3.67319e-05
3.73741e-05
3.72965e-05
3.72966e-05
5.32102e-05
3.71925e-05
3.70929e-05
3.72271e-05
3.72204e-05
3.71762e-05
3.71769e-05
5.31921e-05
3.71926e-05
3.73703e-05
3.73777e-05
3.73769e-05
3.7305e-05
3.70958e-05
3.71021e-05
3.64209e-05
3.59858e-05
3.71108e-05
3.7166e-05
3.63053e-05
3.70958e-05
3.71021e-05
3.64209e-05
3.59994e-05
3.71108e-05
3.71644e-05
3.6305e-05
3.71728e-05
3.92196e-05
3.71636e-05
3.67318e-05
3.71728e-05
3.92901e-05
3.71539e-05
3.673e-05
3.70929e-05
3.72081e-05
3.72199e-05
3.7175e-05
3.71759e-05
5.31877e-05
3.71924e-05
5.31797e-05
3.71922e-05
5.53218e-05
6.52172e-05
5.51628e-05
6.51096e-05
3.65753e-05
3.65114e-05
3.52784e-05
3.40071e-05
3.40006e-05
7.49832e-05
6.7961e-05
7.49057e-05
6.78545e-05
3.49722e-05
3.19483e-05
3.19524e-05
3.34281e-05
3.34202e-05
3.58592e-05
4.06828e-05
3.65905e-05
4.50589e-05
3.52713e-05
3.56019e-05
3.58931e-05
3.53766e-05
3.60484e-05
3.41775e-05
3.53821e-05
3.52707e-05
3.55986e-05
3.58931e-05
3.53765e-05
3.60483e-05
3.41739e-05
3.53821e-05
3.56279e-05
5.01719e-05
4.63657e-05
3.48784e-05
3.56241e-05
5.01722e-05
4.63651e-05
3.48709e-05
3.49964e-05
3.48716e-05
3.26772e-05
3.44015e-05
3.38197e-05
3.48854e-05
3.41734e-05
3.49953e-05
3.48714e-05
3.26716e-05
3.44014e-05
3.38134e-05
3.48854e-05
3.41711e-05
3.6567e-05
3.65734e-05
3.52784e-05
3.39838e-05
3.40226e-05
5.52131e-05
6.52045e-05
7.4986e-05
6.79579e-05
3.49721e-05
3.19105e-05
3.1938e-05
3.33918e-05
3.34407e-05
7.49646e-05
6.79387e-05
3.52711e-05
3.55962e-05
3.58931e-05
3.53766e-05
3.60485e-05
3.4177e-05
3.53821e-05
3.58645e-05
4.06875e-05
3.65911e-05
4.50594e-05
3.52721e-05
3.58931e-05
3.56005e-05
3.53766e-05
3.60485e-05
3.53822e-05
3.41774e-05
3.56245e-05
5.01674e-05
4.6363e-05
3.48748e-05
3.49956e-05
3.48715e-05
3.26768e-05
3.44014e-05
3.38177e-05
3.48854e-05
3.41723e-05
3.56276e-05
5.01698e-05
4.63637e-05
3.48723e-05
3.49964e-05
3.48715e-05
3.44015e-05
3.2678e-05
3.48855e-05
3.38194e-05
3.41715e-05
3.5868e-05
4.06685e-05
3.65951e-05
4.5062e-05
3.52724e-05
3.58931e-05
3.56059e-05
3.53767e-05
3.6049e-05
3.53822e-05
3.418e-05
3.58663e-05
4.06774e-05
3.65941e-05
4.50632e-05
3.49978e-05
3.48717e-05
3.26836e-05
3.44016e-05
3.38275e-05
3.48855e-05
3.41747e-05
3.56332e-05
5.01715e-05
4.6363e-05
3.48816e-05
3.49972e-05
3.48717e-05
3.44015e-05
3.26772e-05
3.48855e-05
3.38187e-05
3.41735e-05
3.56306e-05
5.01702e-05
4.63682e-05
3.48778e-05
3.65878e-05
3.65721e-05
3.52784e-05
3.4015e-05
3.39951e-05
5.51848e-05
6.51405e-05
7.49154e-05
6.78579e-05
3.4972e-05
3.19595e-05
3.19287e-05
3.34348e-05
3.34043e-05
7.49249e-05
6.78871e-05
3.52712e-05
3.58931e-05
3.56048e-05
3.53766e-05
3.60485e-05
3.53821e-05
3.41774e-05
3.58618e-05
4.06835e-05
3.65931e-05
4.50597e-05
3.58621e-05
4.06738e-05
3.65917e-05
4.50622e-05
3.49955e-05
3.48716e-05
3.44014e-05
3.26813e-05
3.48855e-05
3.38219e-05
3.41716e-05
3.49955e-05
3.48716e-05
3.44014e-05
3.26758e-05
3.48854e-05
3.38161e-05
3.41717e-05
3.56245e-05
5.01723e-05
4.63656e-05
3.48733e-05
3.56245e-05
5.01714e-05
4.63657e-05
3.48736e-05
5.52022e-05
6.50749e-05
5.52224e-05
6.51303e-05
3.49724e-05
3.19588e-05
3.196e-05
3.34374e-05
3.3429e-05
7.48736e-05
6.78234e-05
7.49004e-05
6.78746e-05
7.67509e-05
8.10232e-05
7.6681e-05
8.0969e-05
3.16427e-05
3.16498e-05
3.32595e-05
3.08119e-05
3.08334e-05
8.40938e-05
8.19739e-05
8.40592e-05
8.1923e-05
3.29497e-05
3.02023e-05
3.02334e-05
3.06571e-05
3.06778e-05
3.39324e-05
5.13034e-05
3.46631e-05
5.46193e-05
3.30447e-05
3.24299e-05
3.39292e-05
3.34066e-05
3.38918e-05
3.15217e-05
3.34674e-05
3.30409e-05
3.2423e-05
3.3929e-05
3.34063e-05
3.3889e-05
3.15177e-05
3.34672e-05
3.3769e-05
5.8384e-05
5.55792e-05
3.30581e-05
3.37583e-05
5.83848e-05
5.55791e-05
3.30486e-05
3.27626e-05
3.29326e-05
3.06031e-05
3.25717e-05
3.13476e-05
3.30151e-05
3.19066e-05
3.27585e-05
3.29323e-05
3.06009e-05
3.25714e-05
3.13432e-05
3.30149e-05
3.19025e-05
3.16062e-05
3.16363e-05
3.32589e-05
3.07948e-05
3.07999e-05
7.67303e-05
8.10049e-05
8.40944e-05
8.19776e-05
3.29491e-05
3.02027e-05
3.02e-05
3.06412e-05
3.06523e-05
8.40791e-05
8.19543e-05
3.3044e-05
3.24298e-05
3.39291e-05
3.34067e-05
3.38903e-05
3.15242e-05
3.34673e-05
3.3934e-05
5.12997e-05
3.46632e-05
5.46155e-05
3.30412e-05
3.39291e-05
3.24316e-05
3.34065e-05
3.38891e-05
3.34672e-05
3.15249e-05
3.37647e-05
5.83762e-05
5.55721e-05
3.30595e-05
3.27617e-05
3.29327e-05
3.06076e-05
3.25716e-05
3.135e-05
3.30151e-05
3.19067e-05
3.37565e-05
5.83803e-05
5.55737e-05
3.3051e-05
3.27585e-05
3.29325e-05
3.25714e-05
3.0607e-05
3.30149e-05
3.13519e-05
3.19032e-05
3.39443e-05
5.13e-05
3.46737e-05
5.4616e-05
3.30435e-05
3.39292e-05
3.24288e-05
3.34068e-05
3.38913e-05
3.34673e-05
3.15226e-05
3.39384e-05
5.13011e-05
3.46696e-05
5.46141e-05
3.27634e-05
3.29327e-05
3.06091e-05
3.25717e-05
3.13538e-05
3.30152e-05
3.19081e-05
3.37696e-05
5.83805e-05
5.55738e-05
3.30607e-05
3.27614e-05
3.29328e-05
3.25716e-05
3.06044e-05
3.30151e-05
3.13474e-05
3.19064e-05
3.37644e-05
5.83792e-05
5.5574e-05
3.30566e-05
3.16617e-05
3.16254e-05
3.32591e-05
3.08405e-05
3.08183e-05
7.67001e-05
8.0985e-05
8.40731e-05
8.19376e-05
3.29493e-05
3.0232e-05
3.02231e-05
3.06889e-05
3.06662e-05
8.40715e-05
8.19407e-05
3.30425e-05
3.39291e-05
3.24274e-05
3.34068e-05
3.38893e-05
3.34672e-05
3.1523e-05
3.39365e-05
5.13023e-05
3.46642e-05
5.46176e-05
3.39378e-05
5.13005e-05
3.46646e-05
5.46145e-05
3.27591e-05
3.29326e-05
3.25715e-05
3.06131e-05
3.3015e-05
3.13555e-05
3.19037e-05
3.27601e-05
3.29329e-05
3.25716e-05
3.06055e-05
3.3015e-05
3.13482e-05
3.19056e-05
3.37588e-05
5.83821e-05
5.55766e-05
3.30525e-05
3.37616e-05
5.83786e-05
5.55736e-05
3.30571e-05
7.66515e-05
8.09464e-05
7.66739e-05
8.09581e-05
3.29505e-05
3.02291e-05
3.02393e-05
3.06752e-05
3.06874e-05
8.40465e-05
8.19048e-05
8.40507e-05
8.19142e-05
8.44568e-05
8.51027e-05
8.44234e-05
8.50842e-05
3.01345e-05
3.01629e-05
3.12643e-05
2.99166e-05
2.99488e-05
8.48455e-05
8.50996e-05
8.48342e-05
8.50819e-05
3.09518e-05
2.98687e-05
2.98983e-05
2.98995e-05
2.993e-05
3.22209e-05
5.91684e-05
3.29019e-05
6.14672e-05
3.07754e-05
3.04715e-05
3.21364e-05
3.15492e-05
3.16279e-05
2.98465e-05
3.17086e-05
3.07722e-05
3.04689e-05
3.2136e-05
3.15488e-05
3.16239e-05
2.98425e-05
3.17082e-05
3.20966e-05
6.38996e-05
6.20804e-05
3.14508e-05
3.20906e-05
6.39024e-05
6.20804e-05
3.1448e-05
3.05035e-05
3.11007e-05
2.92023e-05
3.08742e-05
2.97332e-05
3.1288e-05
2.96641e-05
3.05006e-05
3.11003e-05
2.91941e-05
3.08738e-05
2.97329e-05
3.12876e-05
2.96624e-05
3.01316e-05
3.01362e-05
3.12641e-05
2.99142e-05
2.99229e-05
8.44408e-05
8.50932e-05
8.48463e-05
8.50991e-05
3.09515e-05
2.98605e-05
2.9879e-05
2.98948e-05
2.9907e-05
8.48424e-05
8.50905e-05
3.07766e-05
3.04764e-05
3.21364e-05
3.15495e-05
3.1628e-05
2.98525e-05
3.17086e-05
3.22237e-05
5.91629e-05
3.29016e-05
6.14633e-05
3.07735e-05
3.21361e-05
3.04755e-05
3.15491e-05
3.16245e-05
3.17083e-05
2.98497e-05
3.20988e-05
6.38962e-05
6.20739e-05
3.14568e-05
3.05048e-05
3.11011e-05
2.92083e-05
3.08743e-05
2.97414e-05
3.12881e-05
2.96668e-05
3.20924e-05
6.38993e-05
6.20756e-05
3.14536e-05
3.0502e-05
3.11006e-05
3.0874e-05
2.92046e-05
3.12878e-05
2.97421e-05
2.96646e-05
3.22322e-05
5.91624e-05
3.29142e-05
6.14631e-05
3.07773e-05
3.21363e-05
3.04727e-05
3.15495e-05
3.16281e-05
3.17086e-05
2.98483e-05
3.223e-05
5.91628e-05
3.29103e-05
6.1462e-05
3.05069e-05
3.11012e-05
2.92084e-05
3.08745e-05
2.97417e-05
3.12882e-05
2.9668e-05
3.21014e-05
6.38989e-05
6.20748e-05
3.14569e-05
3.05059e-05
3.11011e-05
3.08744e-05
2.92043e-05
3.12881e-05
2.97397e-05
2.96675e-05
3.20999e-05
6.38979e-05
6.20754e-05
3.14562e-05
3.01635e-05
3.01534e-05
3.12638e-05
2.99435e-05
2.9939e-05
8.44371e-05
8.50933e-05
8.48406e-05
8.5093e-05
3.09512e-05
2.98948e-05
2.98915e-05
2.99262e-05
2.99205e-05
8.48545e-05
8.50902e-05
3.0776e-05
3.21363e-05
3.04738e-05
3.15497e-05
3.16269e-05
3.17086e-05
2.9848e-05
3.22226e-05
5.91654e-05
3.2903e-05
6.1465e-05
3.2229e-05
5.9162e-05
3.29081e-05
6.14608e-05
3.05011e-05
3.1101e-05
3.0874e-05
2.92113e-05
3.12878e-05
2.9747e-05
2.96624e-05
3.05041e-05
3.11012e-05
3.08743e-05
2.92028e-05
3.1288e-05
2.97403e-05
2.96657e-05
3.20911e-05
6.39013e-05
6.20783e-05
3.14484e-05
3.20976e-05
6.38963e-05
6.2074e-05
3.14556e-05
8.44136e-05
8.50791e-05
8.44167e-05
8.50793e-05
3.09523e-05
2.98992e-05
2.98976e-05
2.99278e-05
2.99298e-05
8.48351e-05
8.50773e-05
8.48343e-05
8.50773e-05
8.46141e-05
8.3917e-05
8.46101e-05
8.39151e-05
2.9888e-05
2.99155e-05
2.93362e-05
2.99905e-05
3.00193e-05
8.26222e-05
8.35264e-05
8.26265e-05
8.35271e-05
2.90281e-05
3.02943e-05
3.03155e-05
3.00751e-05
3.01005e-05
3.07339e-05
6.43585e-05
3.1329e-05
6.57536e-05
2.85827e-05
2.91047e-05
3.04669e-05
2.97931e-05
2.94019e-05
2.8644e-05
3.00658e-05
2.85828e-05
2.91049e-05
3.04665e-05
2.97924e-05
2.94005e-05
2.86357e-05
3.00655e-05
3.06226e-05
6.71015e-05
6.60744e-05
3.00739e-05
3.06217e-05
6.71048e-05
6.60758e-05
3.00801e-05
2.83325e-05
2.93703e-05
2.81592e-05
2.92818e-05
2.85601e-05
2.96708e-05
2.75406e-05
2.83329e-05
2.93696e-05
2.81562e-05
2.92816e-05
2.85593e-05
2.96706e-05
2.75422e-05
2.98777e-05
2.99e-05
2.93356e-05
2.99806e-05
3.00044e-05
8.46096e-05
8.39171e-05
8.26201e-05
8.35255e-05
2.90273e-05
3.02834e-05
3.03057e-05
3.0065e-05
3.00896e-05
8.26264e-05
8.35256e-05
2.85872e-05
2.91155e-05
3.04671e-05
2.97937e-05
2.94047e-05
2.86486e-05
3.00661e-05
3.07391e-05
6.4355e-05
3.13299e-05
6.5753e-05
2.85854e-05
3.04668e-05
2.91158e-05
2.9793e-05
2.94027e-05
3.00658e-05
2.8649e-05
3.06291e-05
6.7104e-05
6.60731e-05
3.00883e-05
2.83371e-05
2.9371e-05
2.8164e-05
2.92823e-05
2.85703e-05
2.96713e-05
2.75467e-05
3.06253e-05
6.71066e-05
6.60746e-05
3.00854e-05
2.83354e-05
2.93703e-05
2.9282e-05
2.81696e-05
2.96709e-05
2.85687e-05
2.75451e-05
3.07373e-05
6.43536e-05
3.13374e-05
6.5751e-05
2.8587e-05
3.04672e-05
2.91126e-05
2.97936e-05
2.94056e-05
3.00662e-05
2.86481e-05
3.07402e-05
6.43545e-05
3.13366e-05
6.57512e-05
2.83366e-05
2.93711e-05
2.81668e-05
2.92824e-05
2.85674e-05
2.96714e-05
2.75446e-05
3.06277e-05
6.71029e-05
6.60719e-05
3.00851e-05
2.83369e-05
2.93709e-05
2.92824e-05
2.81659e-05
2.96713e-05
2.85683e-05
2.75455e-05
3.06258e-05
6.7105e-05
6.60741e-05
3.00857e-05
2.99143e-05
2.99084e-05
2.93359e-05
3.00183e-05
3.00168e-05
8.46049e-05
8.3918e-05
8.26291e-05
8.35307e-05
2.90278e-05
3.0316e-05
3.03179e-05
3.01009e-05
3.00945e-05
8.26256e-05
8.35293e-05
2.85847e-05
3.0467e-05
2.91125e-05
2.97936e-05
2.94033e-05
3.0066e-05
2.86444e-05
3.07311e-05
6.43574e-05
3.13254e-05
6.57543e-05
3.07355e-05
6.43526e-05
3.13327e-05
6.57486e-05
2.83312e-05
2.93708e-05
2.92816e-05
2.81689e-05
2.96707e-05
2.857e-05
2.75403e-05
2.83341e-05
2.93709e-05
2.92821e-05
2.81621e-05
2.96711e-05
2.8569e-05
2.75426e-05
3.06202e-05
6.71073e-05
6.60766e-05
3.00748e-05
3.06275e-05
6.71014e-05
6.60713e-05
3.00786e-05
8.46067e-05
8.39164e-05
8.46052e-05
8.39145e-05
2.9029e-05
3.0329e-05
3.03168e-05
3.01006e-05
3.01016e-05
8.26263e-05
8.35277e-05
8.26243e-05
8.35263e-05
8.21866e-05
8.1219e-05
8.2189e-05
8.12246e-05
3.04329e-05
3.04557e-05
2.75185e-05
3.07596e-05
3.07752e-05
7.98347e-05
8.07791e-05
7.98403e-05
8.0782e-05
2.72239e-05
3.13693e-05
3.13846e-05
3.09486e-05
3.09678e-05
2.94988e-05
6.73181e-05
2.99804e-05
6.8046e-05
2.65453e-05
2.80938e-05
2.88986e-05
2.81422e-05
2.73046e-05
2.77489e-05
2.85212e-05
2.65475e-05
2.80914e-05
2.88985e-05
2.81415e-05
2.73063e-05
2.77473e-05
2.85211e-05
2.94114e-05
6.86574e-05
6.8173e-05
2.89901e-05
2.9413e-05
6.86626e-05
6.81765e-05
2.89966e-05
2.63256e-05
2.77465e-05
2.74108e-05
2.77834e-05
2.76978e-05
2.81494e-05
2.56031e-05