/*--------------------------------*- C++ -*----------------------------------*\
| =========                 |                                                 |
| \\      /  F ield         | OpenFOAM: The Open Source CFD Toolbox           |
|  \\    /   O peration     | Version:  v1906                                 |
|   \\  /    A nd           | Web:      www.OpenFOAM.com                      |
|    \\/     M anipulation  |                                                 |
\*---------------------------------------------------------------------------*/
FoamFile
{
    version     2.0;
    format      ascii;
    class       volScalarField;
    location    "200";
    object      nut;
}
// * * * * * * * * * * * * * * * * * * * * * * * * * * * * * * * * * * * * * //

dimensions      [0 2 -1 0 0 0 0];


internalField   nonuniform List<scalar> 
42616
(
0.000233972
0.000233083
0.000233081
0.000233401
0.000232522
0.000227709
0.000227698
0.000223729
0.00023049
0.000220177
0.000220171
0.000208932
0.000227756
0.000211506
0.000211499
0.000193625
0.000224376
0.00020249
0.000202482
0.000179604
0.000220483
0.000193618
0.00019361
0.000167281
0.000216227
0.000185136
0.000185125
0.000156604
0.000211739
0.00017711
0.000177099
0.000147265
0.000207125
0.000169575
0.000169571
0.000139101
0.000202465
0.000162505
0.000162506
0.000131789
0.000197813
0.000155846
0.000155853
0.000125018
0.000193202
0.000149546
0.000149555
0.000118919
0.000188614
0.00014356
0.000143571
0.000113134
0.000184083
0.000137837
0.000137848
0.000107907
0.000179639
0.000132337
0.000132345
0.000102996
0.00017527
0.000127051
0.000127057
9.83513e-05
0.000170966
0.000121993
0.000122
9.41376e-05
0.000166711
0.000117199
0.000117207
9.05262e-05
0.000162507
0.000112695
0.000112699
8.75751e-05
0.000158328
0.000108538
0.000108542
8.51432e-05
0.000154168
0.00010478
0.000104783
8.33352e-05
0.00023425
0.000234459
0.00023446
0.000234256
0.000234459
0.000234459
0.000234275
0.000234275
0.000234275
0.000234275
0.000234457
0.000234461
0.000234256
0.000234458
0.000234463
0.000234267
0.000233399
0.000226067
0.00023308
0.000233076
0.000229282
0.000229266
0.0002334
0.000226051
0.000233076
0.000233078
0.000229277
0.000229275
0.000233085
0.000229286
0.000229287
0.000233397
0.000226046
0.00023308
0.000229276
0.00022928
0.000226089
0.000223705
0.000212045
0.000227704
0.000227686
0.000222198
0.00022218
0.000223685
0.000212032
0.0002277
0.000227695
0.000222202
0.000222189
0.000227708
0.000222204
0.000222204
0.000223682
0.000212026
0.000227703
0.000222197
0.000222203
0.000212069
0.000208912
0.000196897
0.000220168
0.000220152
0.000213715
0.000213704
0.000208898
0.000196886
0.000220174
0.000220159
0.000213728
0.000213707
0.000220174
0.000213731
0.000213721
0.000208892
0.000196884
0.000220175
0.000213725
0.000213726
0.000196907
0.000193613
0.000182757
0.000211486
0.000211475
0.00020472
0.00020471
0.00019363
0.000182762
0.000211501
0.000211479
0.00020474
0.000204716
0.000211493
0.000204743
0.00020473
0.000193604
0.000182758
0.000211498
0.000204735
0.000204736
0.000182773
0.000179586
0.000170203
0.000202465
0.000202455
0.000195778
0.00019577
0.00017957
0.000170213
0.000202486
0.000202462
0.000195802
0.000195778
0.000202477
0.000195804
0.000195795
0.000179572
0.000170204
0.000202483
0.000195797
0.000195803
0.000170217
0.000167251
0.000159219
0.00019359
0.000193583
0.000187185
0.00018718
0.00016724
0.000159238
0.000193615
0.00019359
0.000187211
0.000187184
0.000193608
0.000187214
0.000187204
0.00016724
0.000159219
0.000193618
0.000187204
0.000187218
0.000159233
0.000156537
0.000149583
0.000185105
0.000185101
0.00017904
0.000179036
0.000156526
0.000149592
0.000185132
0.000185103
0.000179066
0.000179035
0.000185125
0.00017907
0.000179058
0.000156526
0.00014964
0.00018514
0.000179058
0.000179078
0.000149597
0.000147253
0.000141148
0.00017708
0.000177076
0.000171387
0.00017138
0.000147225
0.000141148
0.000177106
0.000177074
0.000171413
0.000171377
0.000177097
0.000171413
0.0001714
0.000147154
0.000141095
0.000177119
0.000171406
0.000171426
0.000141072
0.000138925
0.000133642
0.00016955
0.000169544
0.00016421
0.000164201
0.000138972
0.000133649
0.000169576
0.000169541
0.000164237
0.000164201
0.000169562
0.000164232
0.00016422
0.00013899
0.000133574
0.00016959
0.000164232
0.00016425
0.00013356
0.000131654
0.000126732
0.000162484
0.000162475
0.000157456
0.000157445
0.000131651
0.00012672
0.000162511
0.000162475
0.000157484
0.000157447
0.000162493
0.000157476
0.000157464
0.000131713
0.000126804
0.000162524
0.00015748
0.000157496
0.000126826
0.00012512
0.000120464
0.000155829
0.000155816
0.000151073
0.000151059
0.000125101
0.000120416
0.000155856
0.000155819
0.000151102
0.000151064
0.000155836
0.00015109
0.000151081
0.000124996
0.000120539
0.000155867
0.000151099
0.000151112
0.000120551
0.000118834
0.000114512
0.000149529
0.000149515
0.000145013
0.000144998
0.000118968
0.000114424
0.000149557
0.000149519
0.000145041
0.000145003
0.000149536
0.000145029
0.000145019
0.000118916
0.000114504
0.000149568
0.000145039
0.00014505
0.000114535
0.000113155
0.000108814
0.000143545
0.00014353
0.000139228
0.000139216
0.00011321
0.000108803
0.000143572
0.000143534
0.000139257
0.00013922
0.00014355
0.000139246
0.000139233
0.000113134
0.000108814
0.000143582
0.000139256
0.000139265
0.000108839
0.000107909
0.000103625
0.000137821
0.000137807
0.000133676
0.000133664
0.000107906
0.000103628
0.000137849
0.000137811
0.000133706
0.000133667
0.000137824
0.000133695
0.000133678
0.000107908
0.000103622
0.000137857
0.000133704
0.000133712
0.000103631
0.00010299
9.90173e-05
0.000132319
0.000132304
0.000128334
0.00012832
0.000102994
9.90401e-05
0.000132347
0.000132308
0.000128361
0.000128322
0.000132319
0.000128355
0.000128334
0.000102985
9.90261e-05
0.000132355
0.000128362
0.000128369
9.90185e-05
9.8351e-05
9.48196e-05
0.00012703
0.000127013
0.000123219
0.000123202
9.83192e-05
9.48733e-05
0.000127055
0.000127016
0.000123246
0.000123204
0.000127029
0.000123242
0.000123219
9.83165e-05
9.48463e-05
0.000127064
0.000123247
0.000123253
9.48076e-05
9.41375e-05
9.12453e-05
0.000121973
0.000121956
0.000118329
0.000118314
9.40855e-05
9.13103e-05
0.000121998
0.000121955
0.000118352
0.000118308
0.000121972
0.000118352
0.000118329
9.40834e-05
9.12704e-05
0.000122007
0.000118355
0.000118359
9.11781e-05
9.05044e-05
8.81552e-05
0.000117178
0.00011716
0.000113747
0.000113736
9.04787e-05
8.81637e-05
0.000117201
0.00011716
0.000113778
0.000113734
0.00011718
0.000113774
0.000113755
9.04926e-05
8.8192e-05
0.000117213
0.000113781
0.000113783
8.81356e-05
8.75383e-05
8.56432e-05
0.000112675
0.000112657
0.00010949
0.000109479
8.75772e-05
8.56918e-05
0.000112692
0.000112653
0.000109523
0.000109478
0.000112675
0.000109519
0.000109499
8.75335e-05
8.5732e-05
0.000112706
0.000109524
0.000109526
8.58198e-05
8.52635e-05
8.37549e-05
0.00010852
0.000108501
0.000105619
0.000105608
8.51568e-05
8.39875e-05
0.000108535
0.000108499
0.000105651
0.000105609
0.000108523
0.000105648
0.00010563
8.51368e-05
8.3959e-05
0.00010855
0.000105653
0.000105656
8.40182e-05
8.36026e-05
0.000104768
0.000104744
8.33473e-05
0.000104777
0.000104744
0.000104767
8.33903e-05
0.000104793
0.00023473
0.000234746
0.000234729
0.000234729
0.000235098
0.000234799
0.000234851
0.000234726
0.0002351
0.000234799
0.000234726
0.000234714
0.000234869
0.000233671
0.000233405
0.000104658
3.84941e-05
0.000128294
3.97889e-05
2.14454e-05
2.28937e-05
0.000104637
3.85139e-05
0.000128276
3.97798e-05
0.000233972
0.000233972
0.000233972
0.000232929
0.000232928
0.000232928
0.000232929
0.000206118
9.28791e-05
0.000233967
0.000231965
0.00022239
8.65502e-05
0.000233608
2.14923e-05
2.28674e-05
0.000206009
0.000233967
9.28484e-05
0.000231958
0.000222369
0.000233605
8.63398e-05
4.72496e-05
4.72598e-05
0.000231291
4.36713e-05
4.35844e-05
7.26357e-05
4.24132e-05
8.1367e-05
4.37612e-05
2.4809e-05
2.54898e-05
7.26251e-05
4.24081e-05
8.13446e-05
4.37541e-05
0.000232522
0.000232521
0.000232523
0.000231063
0.000231062
0.000231062
0.000231064
0.000167359
7.88836e-05
0.000232062
0.000225989
0.000180062
7.40046e-05
0.000231351
2.47955e-05
2.54804e-05
0.000167261
0.000232055
7.88582e-05
0.000225978
0.000179949
0.000231342
7.39351e-05
3.907e-05
3.90572e-05
0.000219445
3.6503e-05
3.65134e-05
5.63414e-05
4.55464e-05
6.12434e-05
4.64225e-05
2.60236e-05
2.61228e-05
5.6366e-05
4.55404e-05
6.12361e-05
4.64159e-05
0.000230489
0.000230489
0.000230492
0.000228505
0.000228504
0.000228503
0.000228505
0.000138571
6.69791e-05
0.000228598
0.000218079
0.000148058
6.31464e-05
0.000227485
2.60175e-05
2.61188e-05
0.000138499
0.000228586
6.70438e-05
0.000218074
0.000147976
0.000227471
6.30961e-05
3.32583e-05
3.32606e-05
0.000204449
3.20282e-05
3.20293e-05
4.70034e-05
4.75019e-05
5.00045e-05
4.80132e-05
2.60506e-05
2.59403e-05
4.70573e-05
4.74963e-05
4.99898e-05
4.80085e-05
0.000227756
0.000227755
0.000227757
0.000225275
0.000225274
0.000225273
0.000225276
0.000117545
5.78651e-05
0.000223654
0.000209259
0.000124658
5.52144e-05
0.000222238
2.60509e-05
2.59369e-05
0.000117505
0.000223639
5.78773e-05
0.000209251
0.000124574
0.000222221
5.52149e-05
3.06845e-05
3.06801e-05
0.000189656
3.03902e-05
3.03719e-05
4.14319e-05
4.85821e-05
4.33099e-05
4.88427e-05
2.56709e-05
2.55191e-05
4.15023e-05
4.8578e-05
4.32912e-05
4.88398e-05
0.000224375
0.000224374
0.000224377
0.000221496
0.000221494
0.000221494
0.000221498
0.00010213
5.16194e-05
0.000217687
0.000200244
0.000107435
4.98022e-05
0.000216094
2.56695e-05
2.55182e-05
0.000102113
0.000217673
5.15914e-05
0.000200236
0.000107393
0.000216078
4.98629e-05
3.02637e-05
3.02696e-05
0.000176298
3.04664e-05
3.0444e-05
3.81851e-05
4.90897e-05
3.92713e-05
4.91931e-05
2.52337e-05
2.50937e-05
3.82021e-05
4.90872e-05
3.9257e-05
4.91901e-05
0.000220481
0.000220481
0.000220486
0.000217317
0.000217316
0.000217315
0.000217322
9.05294e-05
4.75361e-05
0.000211174
0.000191455
9.4538e-05
4.63708e-05
0.000209507
2.52319e-05
2.50925e-05
9.05124e-05
0.000211162
4.74585e-05
0.000191446
9.45211e-05
0.000209493
4.64087e-05
3.11105e-05
3.10957e-05
0.000164541
3.15542e-05
3.1558e-05
3.63949e-05
4.9272e-05
3.69372e-05
4.9286e-05
2.48458e-05
2.47329e-05
3.63996e-05
4.9271e-05
3.69467e-05
4.92844e-05
0.000216226
0.000216224
0.000216232
0.000212876
0.000212877
0.000212873
0.000212884
8.15961e-05
4.49908e-05
0.000204482
0.000183083
8.47746e-05
4.43556e-05
0.000202811
2.48438e-05
2.47312e-05
8.15946e-05
0.000204471
4.49399e-05
0.000183072
8.47651e-05
0.000202798
4.44137e-05
3.2682e-05
3.26626e-05
0.000154229
3.33051e-05
3.33163e-05
3.56934e-05
4.92835e-05
3.58249e-05
4.9267e-05
2.45337e-05
2.44466e-05
3.57036e-05
4.92825e-05
3.58244e-05
4.9266e-05
0.00021174
0.000211736
0.000211747
0.000208286
0.000208286
0.000208281
0.000208295
7.46541e-05
4.36169e-05
0.000197844
0.000175179
7.72662e-05
4.33519e-05
0.000196212
2.45325e-05
2.44462e-05
7.46966e-05
0.000197837
4.35983e-05
0.00017517
7.72697e-05
0.000196202
4.33484e-05
3.47073e-05
3.47094e-05
0.000145192
3.54542e-05
3.54445e-05
3.5749e-05
4.92498e-05
3.56771e-05
4.92302e-05
2.42947e-05
2.4228e-05
3.58105e-05
4.92496e-05
3.56484e-05
4.92289e-05
0.000207125
0.000207121
0.000207134
0.000203631
0.000203629
0.000203626
0.000203639
6.9217e-05
4.31069e-05
0.000191393
0.000167766
7.13349e-05
4.30974e-05
0.000189814
2.42908e-05
2.42291e-05
6.9263e-05
0.000191393
4.31583e-05
0.000167763
7.12938e-05
0.000189811
4.30727e-05
3.70159e-05
3.70296e-05
0.0001372
3.78091e-05
3.78189e-05
3.65404e-05
4.92192e-05
3.62503e-05
4.92157e-05
2.4114e-05
2.40716e-05
3.65996e-05
4.92171e-05
3.62067e-05
4.92135e-05
0.000202462
0.00020246
0.000202473
0.000198973
0.000198966
0.000198967
0.000198979
6.4888e-05
4.32228e-05
0.000185154
0.000160804
6.65726e-05
4.35092e-05
0.000183633
2.41129e-05
2.40648e-05
6.49216e-05
0.000185162
4.33257e-05
0.000160806
6.6556e-05
0.000183638
4.34156e-05
3.94835e-05
3.94981e-05
0.000130051
4.03263e-05
4.03196e-05
3.79571e-05
4.92155e-05
3.74656e-05
4.92231e-05
2.39843e-05
2.39566e-05
3.8021e-05
4.92134e-05
3.74199e-05
4.92185e-05
0.000197805
0.000197807
0.000197819
0.000194349
0.000194339
0.000194343
0.000194353
6.14976e-05
4.39013e-05
0.000179172
0.00015424
6.2767e-05
4.43126e-05
0.000177722
2.39876e-05
2.39481e-05
6.15399e-05
0.000179186
4.40255e-05
0.000154247
6.27743e-05
0.000177733
4.42684e-05
4.19949e-05
4.20108e-05
0.000123603
4.28563e-05
4.28617e-05
3.99656e-05
4.92298e-05
3.92423e-05
4.92537e-05
2.38921e-05
2.38757e-05
4.00045e-05
4.92372e-05
3.92477e-05
4.92423e-05
0.000193192
0.000193196
0.000193207
0.000189762
0.000189751
0.000189755
0.000189765
5.89685e-05
4.5056e-05
0.000173471
0.00014802
5.98115e-05
4.56036e-05
0.000172086
2.38969e-05
2.38664e-05
5.9011e-05
0.000173487
4.51378e-05
0.00014803
5.98432e-05
0.000172098
4.56024e-05
4.45053e-05
4.4487e-05
0.000117478
4.53035e-05
4.53128e-05
4.24761e-05
4.92661e-05
4.15714e-05
4.92918e-05
2.38276e-05
2.38191e-05
4.24731e-05
4.9272e-05
4.15483e-05
4.92815e-05
0.000188603
0.000188607
0.000188617
0.000185209
0.000185196
0.000185202
0.000185209
5.71656e-05
4.65852e-05
0.000168019
0.000142107
5.76499e-05
4.72074e-05
0.000166692
2.38331e-05
2.38092e-05
5.71897e-05
0.000168036
4.66258e-05
0.000142118
5.76719e-05
0.000166705
4.72093e-05
4.6898e-05
4.6891e-05
0.000111632
4.76525e-05
4.76439e-05
4.53966e-05
4.93074e-05
4.43492e-05
4.93327e-05
2.37821e-05
2.37792e-05
4.5385e-05
4.93125e-05
4.43407e-05
4.9323e-05
0.000184071
0.000184076
0.000184084
0.000180744
0.000180731
0.000180737
0.000180742
5.59699e-05
4.83911e-05
0.000162781
0.000136445
5.62707e-05
4.91189e-05
0.000161503
2.37881e-05
2.37688e-05
5.59634e-05
0.000162798
4.84256e-05
0.000136454
5.62835e-05
0.000161516
4.9124e-05
4.91239e-05
4.91204e-05
0.00010617
4.98556e-05
4.98459e-05
4.86422e-05
4.93479e-05
4.74894e-05
4.93706e-05
2.37493e-05
2.37489e-05
4.8632e-05
4.93527e-05
4.74905e-05
4.9362e-05
0.000179626
0.000179632
0.000179637
0.000176357
0.000176343
0.00017635
0.000176354
5.54511e-05
5.04655e-05
0.000157724
0.000130998
5.55321e-05
5.11165e-05
0.000156488
2.37531e-05
2.37403e-05
5.5491e-05
0.000157742
5.04212e-05
0.000131006
5.55049e-05
0.000156502
5.12045e-05
5.12012e-05
5.1184e-05
0.000101269
5.1835e-05
5.18495e-05
5.20513e-05
4.93844e-05
5.08563e-05
4.94055e-05
2.37262e-05
2.37227e-05
5.2083e-05
4.93888e-05
5.08579e-05
4.93972e-05
0.000175256
0.000175263
0.000175268
0.000172037
0.000172023
0.00017203
0.000172034
5.55537e-05
5.26539e-05
0.00015282
0.000125768
5.54279e-05
5.33215e-05
0.000151621
2.37281e-05
2.37187e-05
5.55759e-05
0.000152838
5.25952e-05
0.000125774
5.53998e-05
0.000151635
5.33788e-05
5.30797e-05
5.30638e-05
9.68641e-05
5.36742e-05
5.36714e-05
5.55271e-05
4.94176e-05
5.43398e-05
4.9437e-05
2.37069e-05
2.37021e-05
5.55832e-05
4.94218e-05
5.4305e-05
4.94297e-05
0.000170951
0.000170958
0.000170963
0.00016777
0.000167756
0.000167764
0.000167767
5.62741e-05
5.48744e-05
0.000148066
0.000120772
5.59462e-05
5.56384e-05
0.0001469
2.37059e-05
2.36998e-05
5.62974e-05
0.000148083
5.48829e-05
0.000120779
5.59629e-05
0.000146915
5.56886e-05
5.4777e-05
5.47776e-05
9.28836e-05
5.52941e-05
5.52954e-05
5.89441e-05
4.9448e-05
5.77381e-05
4.94664e-05
2.36892e-05
2.36845e-05
5.90035e-05
4.94455e-05
5.76985e-05
4.94641e-05
0.000166698
0.000166703
0.00016671
0.000163554
0.000163541
0.000163548
0.000163553
5.75498e-05
5.71321e-05
0.000143426
0.000116031
5.70678e-05
5.79375e-05
0.000142287
2.36875e-05
2.36823e-05
5.7574e-05
0.000143444
5.71542e-05
0.000116036
5.70894e-05
0.0001423
5.7907e-05
5.62977e-05
5.62975e-05
8.95673e-05
5.67945e-05
5.67914e-05
6.21576e-05
4.94828e-05
6.09791e-05
4.94888e-05
2.36728e-05
2.36681e-05
6.21896e-05
4.94745e-05
6.09621e-05
4.94916e-05
0.000162496
0.0001625
0.000162507
0.000159374
0.000159362
0.000159367
0.000159373
5.93649e-05
5.93936e-05
0.000138885
0.0001116
5.87258e-05
6.01559e-05
0.000137774
2.36709e-05
2.36662e-05
5.93887e-05
0.000138901
5.94314e-05
0.000111606
5.87305e-05
0.000137787
6.01293e-05
5.76803e-05
5.76784e-05
8.68786e-05
5.81317e-05
5.81316e-05
6.50951e-05
4.95087e-05
6.39783e-05
4.95149e-05
2.36572e-05
2.36532e-05
6.51208e-05
4.95061e-05
6.39634e-05
4.9513e-05
0.000158319
0.000158321
0.00015833
0.000155213
0.000155203
0.000155206
0.000155214
6.15969e-05
6.15938e-05
0.000134445
0.000107531
6.08302e-05
6.22963e-05
0.000133368
2.36555e-05
2.36513e-05
6.16213e-05
0.000134461
6.16284e-05
0.000107538
6.08287e-05
0.00013338
6.23338e-05
5.89316e-05
5.89283e-05
8.48425e-05
5.93298e-05
5.93363e-05
6.77068e-05
4.95332e-05
6.66958e-05
4.95389e-05
2.36432e-05
2.36396e-05
4.95318e-05
6.66837e-05
4.95378e-05
0.000154162
0.00015416
0.000154171
6.41467e-05
6.37339e-05
0.000130127
0.000103905
6.33136e-05
6.4368e-05
0.000129091
2.36411e-05
6.41489e-05
0.000130139
6.36885e-05
6.32876e-05
0.000129102
6.00842e-05
6.00789e-05
8.34205e-05
6.04565e-05
6.04551e-05
0.000234874
0.000233444
0.000233441
2.3605e-05
0.00021431
2.35821e-05
0.000213943
0.00023442
4.97136e-05
4.94122e-05
0.000230164
0.000229392
0.000235096
0.0002348
0.000234909
0.000234727
0.000235099
0.0002348
0.000234783
0.000234726
0.000234498
4.01163e-05
0.000216725
0.000147166
0.00023455
3.9945e-05
0.000220794
0.000147079
0.000233966
0.000234471
9.85401e-05
0.00023427
0.00023307
0.000234597
0.00022832
0.000233954
0.00023447
9.79806e-05
0.000234271
0.000233494
0.000234597
0.000228322
0.000234873
0.000233454
0.000233584
2.35742e-05
0.000214214
0.000234421
4.97506e-05
4.97031e-05
0.000230102
0.000230249
2.35629e-05
0.000214745
0.000235095
0.0002348
0.000234744
0.000234726
0.000235101
0.0002348
0.000234726
0.000234759
0.000234505
3.99469e-05
0.000220922
0.000147101
0.000233977
0.000234471
9.79189e-05
0.000234271
0.000233476
0.000234597
0.000228329
0.000234549
3.9937e-05
0.000220958
0.000147122
0.00023395
0.00023447
0.00023427
9.80291e-05
0.000234597
0.000233515
0.000228287
0.00023473
0.000234746
0.000234729
0.000234729
0.00023473
0.000234746
0.000234729
0.000234729
0.00023473
0.000234746
0.000234729
0.000234729
0.000234591
0.000234573
0.000234253
0.000234253
0.000234592
0.000234592
0.000234252
0.000234591
0.000234573
0.000234253
0.000234253
0.000234592
0.000234592
0.000234252
0.000234591
0.000234573
0.000234253
0.000234253
0.000234592
0.000234592
0.000234252
0.000234591
0.000234574
0.000234253
0.000234253
0.000234592
0.000234592
0.000234252
0.000235098
0.000234798
0.000234726
0.000234847
0.000233959
0.000234472
9.86804e-05
0.000234271
0.000233153
0.000234597
0.00022834
0.000234503
4.01192e-05
0.00021677
0.000147329
0.000233961
0.000234474
0.000234271
9.91482e-05
0.000234597
0.000233054
0.000228352
0.000234548
4.0117e-05
0.000216646
0.000147293
0.000234873
0.000233525
0.000233528
2.34964e-05
0.000214541
0.000234423
5.04771e-05
4.97765e-05
0.000230154
0.000230344
2.35246e-05
0.000214622
0.000235111
0.000234798
0.000234726
0.00023483
0.000233954
0.000234472
0.000234271
9.81197e-05
0.000234597
0.000233538
0.000228336
0.000233912
0.000234474
0.00023427
9.90531e-05
0.000234597
0.000233095
0.000228302
0.000234497
3.99422e-05
0.000220969
0.000147287
0.000234547
4.01109e-05
0.000216645
0.000147038
0.00023443
5.05364e-05
5.04969e-05
0.000228712
0.000229263
2.35149e-05
0.000214026
2.35388e-05
0.000214174
2.14147e-05
2.28865e-05
2.14934e-05
2.28683e-05
4.7184e-05
4.70895e-05
0.000231276
4.35516e-05
4.35851e-05
2.45234e-05
2.33564e-05
2.45078e-05
2.3334e-05
0.000229568
3.98484e-05
3.98674e-05
4.26728e-05
4.26566e-05
0.000104626
3.85307e-05
0.000128182
3.97806e-05
0.000206033
9.22102e-05
0.000233966
0.000231963
0.000222314
8.63916e-05
0.000233605
0.000205994
9.20731e-05
0.000233966
0.000231953
0.000222278
8.63125e-05
0.000233605
9.82897e-05
4.19442e-05
4.03386e-05
8.55168e-05
9.82281e-05
4.19442e-05
4.03399e-05
8.5462e-05
0.000199873
0.000230701
8.01069e-05
0.000232667
8.50099e-05
0.000233178
0.000185412
0.000199817
0.000230689
8.00378e-05
0.000232663
8.4857e-05
0.000233177
0.000185334
4.71594e-05
4.72191e-05
0.000231272
4.34238e-05
4.36475e-05
2.14566e-05
2.28883e-05
2.45206e-05
2.33465e-05
0.000229562
3.97171e-05
3.98334e-05
4.25237e-05
4.27397e-05
2.45206e-05
2.33552e-05
0.000206003
9.20304e-05
0.000233967
0.000231957
0.000222338
8.63835e-05
0.000233605
0.000104693
3.85314e-05
0.000128225
3.97769e-05
0.000206065
0.000233967
9.21173e-05
0.000231957
0.000222315
0.000233606
8.63762e-05
9.8266e-05
4.19396e-05
4.03352e-05
8.5493e-05
0.000199851
0.000230695
8.00926e-05
0.000232665
8.4894e-05
0.000233178
0.000185376
9.82943e-05
4.19386e-05
4.03357e-05
8.54793e-05
0.000199889
0.000230695
0.000232666
8.0102e-05
0.000233179
8.49364e-05
0.000185359
0.000104758
3.8506e-05
0.000128457
3.9781e-05
0.000206106
0.000233968
9.20608e-05
0.000231968
0.000222408
0.000233608
8.62451e-05
0.000104743
3.85063e-05
0.000128459
3.97802e-05
0.000199958
0.000230704
8.01969e-05
0.000232671
8.51116e-05
0.000233182
0.000185458
9.8369e-05
4.19442e-05
4.0342e-05
8.55538e-05
0.000199942
0.000230707
0.000232669
8.00648e-05
0.000233181
8.48688e-05
0.000185428
9.83576e-05
4.19418e-05
4.03417e-05
8.55336e-05
4.75951e-05
4.72447e-05
0.000231269
4.36654e-05
4.35183e-05
2.14812e-05
2.28747e-05
2.45067e-05
2.33267e-05
0.00022956
3.98912e-05
3.98079e-05
4.27821e-05
4.261e-05
2.45123e-05
2.33432e-05
0.000205992
0.000233966
9.20252e-05
0.00023196
0.000222335
0.000233605
8.61936e-05
0.000104635
3.85262e-05
0.000128388
3.97779e-05
0.00010461
3.85059e-05
0.000128253
3.97788e-05
0.000199849
0.000230697
0.000232664
8.01573e-05
0.000233178
8.49703e-05
0.000185343
0.000199838
0.0002307
0.000232664
8.00399e-05
0.000233178
8.48214e-05
0.000185338
9.82865e-05
4.19418e-05
4.03398e-05
8.54754e-05
9.82629e-05
4.19412e-05
4.03396e-05
8.5466e-05
2.14875e-05
2.28656e-05
2.1466e-05
2.28732e-05
0.000229591
3.99033e-05
3.98793e-05
4.27799e-05
4.26987e-05
2.45052e-05
2.33318e-05
2.45098e-05
2.33432e-05
2.48083e-05
2.54899e-05
2.47957e-05
2.54797e-05
3.9021e-05
3.90483e-05
0.000219421
3.64393e-05
3.64907e-05
2.5968e-05
2.56389e-05
2.5961e-05
2.56292e-05
0.000216583
3.37797e-05
3.38463e-05
3.56662e-05
3.57118e-05
7.25926e-05
4.24115e-05
8.13113e-05
4.37597e-05
0.000167343
7.87975e-05
0.000232059
0.000225985
0.000180022
7.39555e-05
0.000231349
0.000167268
7.8737e-05
0.000232053
0.000225966
0.000179944
7.38391e-05
0.00023134
6.9712e-05
4.52438e-05
4.41438e-05
6.32984e-05
6.96711e-05
4.52433e-05
4.41429e-05
6.32784e-05
0.00016279
0.000224143
6.81937e-05
0.000229614
7.26155e-05
0.000230534
0.000151815
0.000162719
0.000224124
6.81166e-05
0.000229602
7.26149e-05
0.000230523
0.000151759
3.88992e-05
3.90166e-05
0.000219399
3.63738e-05
3.64124e-05
2.4806e-05
2.54879e-05
2.59677e-05
2.56387e-05
0.000216559
3.37697e-05
3.37826e-05
3.56141e-05
3.56547e-05
2.59665e-05
2.56364e-05
0.000167327
7.87966e-05
0.000232057
0.000225983
0.000179985
7.38935e-05
0.000231346
7.25865e-05
4.24049e-05
8.13216e-05
4.37539e-05
0.000167277
0.000232055
7.87939e-05
0.000225976
0.000179962
0.000231342
7.39582e-05
6.97094e-05
4.5237e-05
4.41374e-05
6.33172e-05
0.000162774
0.000224143
6.81555e-05
0.000229612
7.26662e-05
0.000230531
0.000151818
6.96705e-05
4.52365e-05
4.41356e-05
6.3277e-05
0.000162716
0.000224134
0.000229604
6.82052e-05
0.000230524
7.26156e-05
0.000151759
7.26534e-05
4.24095e-05
8.13974e-05
4.37591e-05
0.000167343
0.00023206
7.876e-05
0.000225989
0.00018003
0.000231348
7.38567e-05
7.26371e-05
4.24082e-05
8.13722e-05
4.37555e-05
0.000162828
0.000224148
6.82345e-05
0.000229616
7.2661e-05
0.000230535
0.000151834
6.9736e-05
4.52417e-05
4.41408e-05
6.33297e-05
0.000162778
0.000224148
0.000229611
6.81283e-05
0.000230531
7.26345e-05
0.00015183
6.97151e-05
4.52384e-05
4.41385e-05
6.33145e-05
3.9077e-05
3.89904e-05
0.000219397
3.65096e-05
3.64542e-05
2.47992e-05
2.54823e-05
2.59613e-05
2.56295e-05
0.000216558
3.38318e-05
3.38247e-05
3.57203e-05
3.56892e-05
2.59634e-05
2.56322e-05
0.000167283
0.000232055
7.87383e-05
0.000225984
0.000179947
0.000231343
7.38457e-05
7.2593e-05
4.24078e-05
8.13184e-05
4.37568e-05
7.26008e-05
4.24071e-05
8.13129e-05
4.37549e-05
0.000162728
0.000224139
0.000229604
6.81881e-05
0.000230526
7.27024e-05
0.00015175
0.000162732
0.000224146
0.000229608
6.81205e-05
0.000230527
7.26281e-05
0.000151785
6.9678e-05
4.52397e-05
4.41397e-05
6.32853e-05
6.96839e-05
4.52373e-05
4.41374e-05
6.32971e-05
2.47922e-05
2.54766e-05
2.47958e-05
2.54782e-05
0.000216608
3.38437e-05
3.38521e-05
3.57221e-05
3.57252e-05
2.59596e-05
2.56269e-05
2.59596e-05
2.5628e-05
2.6024e-05
2.61235e-05
2.60171e-05
2.61186e-05
3.31985e-05
3.32551e-05
0.000204433
3.19728e-05
3.20313e-05
2.60796e-05
2.61234e-05
2.60732e-05
2.61183e-05
0.000201162
3.09015e-05
3.09446e-05
3.15733e-05
3.16251e-05
5.63324e-05
4.5546e-05
6.12114e-05
4.6422e-05
0.000138554
6.69422e-05
0.000228595
0.000218069
0.000148013
6.31267e-05
0.000227481
0.000138525
6.69641e-05
0.000228582
0.000218054
0.000147961
6.30448e-05
0.000227467
5.48767e-05
4.73324e-05
4.66536e-05
5.10618e-05
5.48531e-05
4.73326e-05
4.66533e-05
5.10647e-05
0.000135391
0.000215914
5.87529e-05
0.000224998
6.19822e-05
0.00022628
0.000127233
0.000135358
0.000215902
5.87181e-05
0.000224986
6.20235e-05
0.000226266
0.000127217
3.31902e-05
3.32039e-05
0.000204433
3.19679e-05
3.19946e-05
2.60221e-05
2.61222e-05
2.60795e-05
2.61226e-05
0.000201158
3.08891e-05
3.09231e-05
3.15677e-05
3.15873e-05
2.60802e-05
2.6122e-05
0.000138563
6.70093e-05
0.000228594
0.000218078
0.000148007
6.30865e-05
0.00022748
5.63375e-05
4.55384e-05
6.12058e-05
4.64153e-05
0.000138523
0.000228584
6.69467e-05
0.00021806
0.00014796
0.00022747
6.31286e-05
5.48672e-05
4.73266e-05
4.66476e-05
5.10971e-05
0.00013539
0.000215925
5.87631e-05
0.000224999
6.20556e-05
0.000226281
0.000127218
5.48464e-05
4.73257e-05
4.66457e-05
5.10876e-05
0.000135355
0.000215906
0.000224989
5.87476e-05
0.00022627
6.2006e-05
0.000127182
5.63732e-05
4.55434e-05
6.12582e-05
4.64204e-05
0.000138585
0.000228592
6.69824e-05
0.000218075
0.000148014
0.000227479
6.30616e-05
5.63608e-05
4.55412e-05
6.12465e-05
4.64173e-05
0.000135444
0.000215928
5.88295e-05
0.000225005
6.20194e-05
0.000226285
0.00012722
5.48848e-05
4.73313e-05
4.66505e-05
5.10891e-05
0.000135409
0.00021592
0.000225
5.87461e-05
0.00022628
6.20487e-05
0.000127261
5.48874e-05
4.73281e-05
4.66487e-05
5.10899e-05
3.32443e-05
3.32441e-05
0.00020442
3.20148e-05
3.20178e-05
2.60197e-05
2.61206e-05
2.6072e-05
2.61187e-05
0.000201147
3.09317e-05
3.0939e-05
3.16054e-05
3.16165e-05
2.60891e-05
2.61199e-05
0.000138544
0.000228589
6.6982e-05
0.000218077
0.000147987
0.000227476
6.30553e-05
5.63423e-05
4.55422e-05
6.12133e-05
4.64181e-05
5.63587e-05
4.554e-05
6.12272e-05
4.6416e-05
0.000135379
0.000215923
0.000224989
5.88493e-05
0.000226271
6.20826e-05
0.000127228
0.000135386
0.000215924
0.000224997
5.87389e-05
0.000226277
6.20476e-05
0.000127239
5.48465e-05
4.73295e-05
4.66493e-05
5.10856e-05
5.48637e-05
4.73267e-05
4.66473e-05
5.11026e-05
2.60161e-05
2.61184e-05
2.6016e-05
2.61177e-05
0.000201176
3.09492e-05
3.09428e-05
3.16284e-05
3.16243e-05
2.60763e-05
2.61182e-05
2.60756e-05
2.61174e-05
2.60519e-05
2.59412e-05
2.60506e-05
2.5938e-05
3.064e-05
3.06803e-05
0.000189643
3.03415e-05
3.03778e-05
2.57402e-05
2.58811e-05
2.57385e-05
2.58794e-05
0.000186395
3.02045e-05
3.02231e-05
3.0246e-05
3.0276e-05
4.70531e-05
4.75017e-05
4.99875e-05
4.80137e-05
0.000117519
5.78716e-05
0.000223645
0.000209238
0.000124596
5.51475e-05
0.000222229
0.000117521
5.78727e-05
0.000223634
0.000209228
0.000124579
5.51158e-05
0.000222219
4.62381e-05
4.85041e-05
4.81317e-05
4.38646e-05
4.62049e-05
4.85046e-05
4.81315e-05
4.39121e-05
0.000115398
0.00020698
5.21861e-05
0.000219237
5.44363e-05
0.000220756
0.000109251
0.000115392
0.00020697
5.2174e-05
0.00021923
5.44289e-05
0.000220748
0.000109266
3.06279e-05
3.06608e-05
0.00018964
3.03242e-05
3.03501e-05
2.60501e-05
2.59412e-05
2.57389e-05
2.58798e-05
0.000186391
3.02001e-05
3.02218e-05
3.02313e-05
3.02725e-05
2.57405e-05
2.58803e-05
0.00011754
5.79057e-05
0.000223649
0.000209255
0.000124625
5.51489e-05
0.000222232
4.70542e-05
4.74945e-05
4.99729e-05
4.80075e-05
0.000117526
0.000223638
5.78971e-05
0.000209232
0.000124611
0.000222223
5.51821e-05
4.62203e-05
4.85005e-05
4.81268e-05
4.39322e-05
0.000115419
0.000206998
5.21867e-05
0.000219243
5.44603e-05
0.000220763
0.000109288
4.6211e-05
4.84991e-05
4.81247e-05
4.39202e-05
0.000115407
0.000206975
0.000219236
5.22155e-05
0.000220753
5.44363e-05
0.000109279
4.70552e-05
4.74992e-05
5.00075e-05
4.80127e-05
0.00011756
0.000223649
5.78948e-05
0.000209245
0.00012462
0.000222235
5.51488e-05
4.70667e-05
4.74973e-05
5.00085e-05
4.80095e-05
0.000115426
0.000207003
5.22283e-05
0.000219248
5.44071e-05
0.000220767
0.000109287
4.62181e-05
4.85036e-05
4.81295e-05
4.39233e-05
0.000115422
0.000206989
0.000219246
5.21965e-05
0.000220764
5.44541e-05
0.000109286
4.62141e-05
4.85013e-05
4.81278e-05
4.39264e-05
3.06661e-05
3.06755e-05
0.000189637
3.03704e-05
3.03753e-05
2.6042e-05
2.59393e-05
2.57378e-05
2.5879e-05
0.000186387
3.02276e-05
3.02525e-05
3.02658e-05
3.02713e-05
2.57393e-05
2.58793e-05
0.000117524
0.000223645
5.7892e-05
0.000209251
0.000124593
0.00022223
5.51342e-05
4.70144e-05
4.74978e-05
4.9964e-05
4.80108e-05
4.70202e-05
4.74958e-05
4.99812e-05
4.80079e-05
0.000115378
0.000206995
0.000219231
5.22678e-05
0.000220752
5.44151e-05
0.000109249
0.000115395
0.000206995
0.00021924
5.21857e-05
0.000220759
5.44541e-05
0.000109257
4.62235e-05
4.85023e-05
4.8128e-05
4.38658e-05
4.62422e-05
4.84993e-05
4.8126e-05
4.38719e-05
2.60492e-05
2.59399e-05
2.60478e-05
2.59384e-05
0.000186406
3.02752e-05
3.02392e-05
3.0278e-05
3.02769e-05
2.57393e-05
2.58793e-05
2.5738e-05
2.58782e-05
2.56724e-05
2.55206e-05
2.56703e-05
2.55191e-05
3.02541e-05
3.02795e-05
0.000176277
3.04116e-05
3.04272e-05
2.53023e-05
2.54516e-05
2.53008e-05
2.54497e-05
0.000173199
3.08981e-05
3.09114e-05
3.0555e-05
3.05719e-05
4.14865e-05
4.85817e-05
4.32729e-05
4.88431e-05
0.000102116
5.16341e-05
0.000217676
0.000200219
0.000107431
4.9789e-05
0.000216082
0.00010213
5.16189e-05
0.000217671
0.000200209
0.000107401
4.97794e-05
0.000216079
4.10258e-05
4.90631e-05
4.88903e-05
3.95795e-05
4.09965e-05
4.90637e-05
4.88902e-05
3.9599e-05
0.00010049
0.000197989
4.78598e-05
0.000212819
4.9358e-05
0.000214461
9.59208e-05
0.000100502