/*--------------------------------*- C++ -*----------------------------------*\
| =========                 |                                                 |
| \\      /  F ield         | OpenFOAM: The Open Source CFD Toolbox           |
|  \\    /   O peration     | Version:  v1906                                 |
|   \\  /    A nd           | Web:      www.OpenFOAM.com                      |
|    \\/     M anipulation  |                                                 |
\*---------------------------------------------------------------------------*/
FoamFile
{
    version     2.0;
    format      ascii;
    class       volScalarField;
    location    "200";
    object      p;
}
// * * * * * * * * * * * * * * * * * * * * * * * * * * * * * * * * * * * * * //

dimensions      [0 2 -2 0 0 0 0];


internalField   nonuniform List<scalar> 
42616
(
0.00356822
0.00356806
0.00356807
0.00357088
0.00351466
0.0035148
0.00351479
0.00351701
0.00346339
0.00346343
0.00346342
0.00346573
0.00341148
0.00341144
0.00341144
0.00341372
0.0033604
0.00336035
0.00336035
0.00336258
0.00331069
0.00331064
0.00331064
0.00331284
0.00326241
0.00326238
0.00326238
0.00326454
0.00321543
0.00321541
0.00321541
0.00321753
0.00316953
0.00316953
0.00316953
0.00317162
0.00312453
0.00312454
0.00312454
0.0031266
0.00308026
0.00308027
0.00308027
0.00308231
0.00303658
0.00303659
0.00303659
0.00303861
0.00299341
0.00299342
0.00299342
0.00299541
0.0029507
0.00295071
0.00295071
0.00295269
0.00290843
0.00290844
0.00290844
0.0029104
0.00286656
0.00286657
0.00286657
0.00286852
0.00282507
0.00282508
0.00282508
0.00282701
0.00278394
0.00278394
0.00278394
0.00278586
0.00274313
0.00274314
0.00274314
0.00274504
0.00270264
0.00270265
0.00270265
0.00270454
0.00266244
0.00266244
0.00266244
0.00266432
0.0035816
0.00358178
0.00358177
0.0035816
0.00358178
0.00358179
0.00358251
0.00358251
0.00358251
0.00358251
0.00358177
0.00358178
0.00358161
0.00358179
0.00358178
0.0035816
0.00357088
0.00352469
0.00356806
0.00356806
0.00352719
0.00352719
0.00357088
0.00352468
0.00356807
0.00356807
0.00352719
0.00352719
0.00356807
0.00352719
0.00352719
0.00357088
0.00352469
0.00356806
0.00352719
0.00352719
0.00352469
0.00351701
0.00347376
0.0035148
0.0035148
0.00347642
0.00347642
0.00351701
0.00347376
0.0035148
0.0035148
0.00347642
0.00347642
0.0035148
0.00347642
0.00347642
0.00351701
0.00347376
0.00351479
0.00347642
0.00347642
0.00347376
0.00346573
0.00342171
0.00346343
0.00346343
0.00342439
0.00342439
0.00346573
0.00342171
0.00346343
0.00346343
0.00342439
0.00342439
0.00346343
0.00342439
0.00342439
0.00346573
0.00342171
0.00346343
0.00342439
0.00342439
0.00342172
0.00341372
0.00337039
0.00341144
0.00341144
0.003373
0.003373
0.00341372
0.00337039
0.00341144
0.00341144
0.003373
0.003373
0.00341144
0.003373
0.003373
0.00341372
0.00337039
0.00341144
0.003373
0.003373
0.00337039
0.00336258
0.00332042
0.00336035
0.00336035
0.00332293
0.00332293
0.00336258
0.00332042
0.00336035
0.00336035
0.00332293
0.00332293
0.00336035
0.00332293
0.00332293
0.00336258
0.00332042
0.00336035
0.00332293
0.00332293
0.00332042
0.00331284
0.0032719
0.00331064
0.00331064
0.00327432
0.00327432
0.00331284
0.0032719
0.00331064
0.00331064
0.00327432
0.00327432
0.00331064
0.00327432
0.00327432
0.00331284
0.0032719
0.00331064
0.00327432
0.00327432
0.0032719
0.00326454
0.00322471
0.00326238
0.00326238
0.00322704
0.00322704
0.00326454
0.00322471
0.00326238
0.00326238
0.00322704
0.00322704
0.00326238
0.00322704
0.00322704
0.00326454
0.00322471
0.00326238
0.00322704
0.00322704
0.00322471
0.00321753
0.00317865
0.00321541
0.00321541
0.00318091
0.00318091
0.00321753
0.00317865
0.00321541
0.00321541
0.00318091
0.00318091
0.00321541
0.00318091
0.00318091
0.00321753
0.00317865
0.00321541
0.00318091
0.00318091
0.00317865
0.00317162
0.00313351
0.00316953
0.00316953
0.00313571
0.00313571
0.00317162
0.00313351
0.00316953
0.00316953
0.00313571
0.00313571
0.00316953
0.00313571
0.00313571
0.00317162
0.00313351
0.00316953
0.00313571
0.00313571
0.00313351
0.00312661
0.00308912
0.00312454
0.00312454
0.00309127
0.00309127
0.00312661
0.00308912
0.00312454
0.00312454
0.00309127
0.00309127
0.00312454
0.00309127
0.00309127
0.00312661
0.00308912
0.00312454
0.00309127
0.00309127
0.00308912
0.00308231
0.00304534
0.00308026
0.00308026
0.00304745
0.00304746
0.00308231
0.00304533
0.00308026
0.00308026
0.00304746
0.00304746
0.00308026
0.00304746
0.00304746
0.00308231
0.00304534
0.00308026
0.00304746
0.00304746
0.00304533
0.00303861
0.00300207
0.00303659
0.00303659
0.00300416
0.00300416
0.00303861
0.00300207
0.00303659
0.00303659
0.00300417
0.00300417
0.00303659
0.00300417
0.00300417
0.00303861
0.00300207
0.00303659
0.00300417
0.00300417
0.00300207
0.00299541
0.00295928
0.00299342
0.00299342
0.00296135
0.00296135
0.00299541
0.00295928
0.00299342
0.00299342
0.00296135
0.00296135
0.00299342
0.00296135
0.00296135
0.00299542
0.00295928
0.00299342
0.00296135
0.00296135
0.00295928
0.00295269
0.00291694
0.00295071
0.00295071
0.00291897
0.00291897
0.00295269
0.00291694
0.00295071
0.00295071
0.00291897
0.00291897
0.00295071
0.00291897
0.00291897
0.00295269
0.00291694
0.00295071
0.00291897
0.00291897
0.00291694
0.0029104
0.00287502
0.00290844
0.00290844
0.002877
0.002877
0.0029104
0.00287501
0.00290844
0.00290844
0.002877
0.002877
0.00290844
0.002877
0.002877
0.0029104
0.00287501
0.00290844
0.002877
0.002877
0.00287501
0.00286852
0.00283347
0.00286657
0.00286657
0.00283542
0.00283542
0.00286852
0.00283347
0.00286657
0.00286657
0.00283542
0.00283542
0.00286657
0.00283542
0.00283542
0.00286852
0.00283347
0.00286657
0.00283542
0.00283542
0.00283347
0.00282701
0.00279228
0.00282508
0.00282508
0.0027942
0.0027942
0.00282701
0.00279228
0.00282508
0.00282508
0.00279419
0.0027942
0.00282508
0.0027942
0.0027942
0.00282701
0.00279228
0.00282508
0.0027942
0.0027942
0.00279228
0.00278586
0.00275143
0.00278394
0.00278394
0.00275331
0.00275331
0.00278586
0.00275143
0.00278394
0.00278394
0.00275331
0.00275331
0.00278394
0.00275331
0.00275331
0.00278586
0.00275143
0.00278394
0.00275331
0.00275331
0.00275143
0.00274504
0.00271089
0.00274314
0.00274314
0.00271274
0.00271274
0.00274504
0.00271088
0.00274314
0.00274314
0.00271274
0.00271274
0.00274314
0.00271274
0.00271274
0.00274504
0.00271089
0.00274314
0.00271274
0.00271274
0.00271089
0.00270454
0.00267064
0.00270265
0.00270264
0.00267247
0.00267247
0.00270453
0.00267064
0.00270265
0.00270265
0.00267247
0.00267247
0.00270265
0.00267247
0.00267247
0.00270453
0.00267064
0.00270265
0.00267247
0.00267247
0.00267064
0.00266432
0.00266244
0.00266244
0.00266432
0.00266244
0.00266244
0.00266244
0.00266432
0.00266244
0.00359073
0.0036007
0.00359531
0.00359531
0.00361771
0.0036047
0.00363325
0.0035986
0.00361775
0.00360469
0.00359861
0.00363319
0.00360919
0.00363726
0.00363735
0.00354972
0.00354982
0.00356812
0.00354805
0.0035277
0.00354702
0.00354973
0.00354973
0.00356812
0.00354806
0.00356822
0.00356823
0.00356823
0.00352708
0.00352707
0.00352707
0.00352707
0.00354841
0.00356515
0.0035683
0.00355258
0.0035705
0.00354938
0.00355321
0.00352786
0.00354704
0.0035484
0.0035683
0.00356514
0.00355258
0.00357049
0.00355321
0.00354937
0.00356191
0.00356184
0.00354944
0.00354972
0.00354972
0.00350002
0.0035179
0.00351891
0.00349912
0.00351727
0.00349865
0.00350002
0.00351789
0.00351891
0.00349912
0.00351466
0.00351466
0.00351466
0.00347636
0.00347636
0.00347636
0.00347636
0.00349912
0.00351839
0.00351473
0.00350217
0.00351768
0.00349959
0.00350211
0.00351728
0.00349865
0.00349912
0.00351473
0.00351838
0.00350217
0.00351767
0.00350211
0.00349959
0.00351866
0.00351866
0.00349954
0.00349972
0.00349972
0.00344776
0.00346636
0.0034672
0.00344698
0.00346606
0.00344675
0.00344776
0.00346636
0.0034672
0.00344698
0.00346339
0.00346339
0.00346339
0.00342442
0.00342442
0.00342442
0.00342442
0.00344724
0.00346673
0.0034634
0.00345041
0.00346644
0.00344741
0.00345039
0.00346606
0.00344675
0.00344724
0.0034634
0.00346673
0.0034504
0.00346644
0.00345039
0.00344741
0.00346681
0.0034668
0.00344772
0.00344736
0.00344736
0.00339564
0.00341413
0.00341482
0.00339503
0.00341397
0.00339488
0.00339564
0.00341413
0.00341482
0.00339503
0.00341148
0.00341148
0.00341148
0.00337305
0.00337305
0.00337305
0.00337305
0.00339537
0.00341444
0.00341145
0.00339855
0.00341434
0.00339541
0.00339856
0.00341397
0.00339488
0.00339537
0.00341145
0.00341444
0.00339855
0.00341434
0.00339856
0.00339541
0.00341444
0.00341444
0.0033959
0.00339529
0.00339529
0.00334477
0.00336291
0.00336341
0.00334433
0.00336279
0.00334419
0.00334477
0.00336291
0.00336341
0.00334433
0.0033604
0.0033604
0.0033604
0.00332298
0.00332298
0.00332298
0.00332298
0.00334465
0.00336315
0.00336036
0.00334779
0.00336311
0.00334466
0.00334779
0.00336279
0.0033442
0.00334465
0.00336036
0.00336315
0.00334778
0.00336311
0.00334779
0.00334466
0.00336313
0.00336313
0.00334522
0.00334453
0.00334453
0.00329542
0.00331313
0.00331348
0.00329511
0.00331305
0.00329498
0.00329542
0.00331313
0.00331348
0.00329511
0.00331069
0.00331069
0.00331069
0.00327435
0.00327435
0.00327435
0.00327435
0.00329541
0.00331331
0.00331064
0.00329845
0.0033133
0.0032954
0.00329844
0.00331303
0.00329499
0.0032954
0.00331064
0.00331331
0.00329845
0.0033133
0.00329844
0.0032954
0.00331332
0.00331332
0.00329598
0.00329529
0.00329529
0.00324752
0.00326481
0.00326506
0.0032473
0.00326473
0.0032472
0.00324752
0.00326481
0.00326506
0.0032473
0.00326241
0.00326241
0.00326241
0.00322706
0.00322706
0.00322706
0.00322706
0.00324758
0.00326495
0.00326237
0.00325052
0.00326494
0.00324757
0.00325051
0.00326473
0.0032472
0.00324758
0.00326237
0.00326495
0.00325052
0.00326494
0.00325051
0.00324757
0.00326498
0.00326498
0.00324815
0.00324746
0.00324746
0.0032009
0.0032178
0.00321798
0.00320073
0.00321773
0.00320063
0.0032009
0.0032178
0.00321798
0.00320073
0.00321543
0.00321543
0.00321543
0.00318092
0.00318092
0.00318092
0.00318092
0.00320099
0.00321792
0.00321539
0.00320384
0.00321791
0.00320099
0.00320383
0.00321772
0.00320063
0.00320099
0.00321539
0.00321792
0.00320384
0.00321791
0.00320383
0.00320099
0.00321795
0.00321795
0.00320155
0.00320088
0.00320088
0.00315531
0.00317189
0.00317203
0.00315518
0.00317182
0.00315508
0.00315531
0.00317189
0.00317203
0.00315518
0.00316953
0.00316953
0.00316953
0.00313571
0.00313571
0.00313571
0.00313571
0.00315544
0.00317199
0.00316951
0.0031582
0.00317198
0.00315543
0.00315818
0.00317182
0.00315508
0.00315544
0.00316951
0.00317199
0.0031582
0.00317198
0.00315818
0.00315543
0.00317203
0.00317203
0.00315597
0.00315531
0.00315531
0.00311057
0.00312688
0.00312699
0.00311045
0.00312681
0.00311036
0.00311057
0.00312688
0.00312699
0.00311045
0.00312453
0.00312453
0.00312453
0.00309127
0.00309127
0.00309127
0.00309127
0.00311072
0.00312696
0.00312451
0.00311341
0.00312695
0.0031107
0.00311338
0.00312681
0.00311036
0.00311072
0.00312451
0.00312696
0.00311341
0.00312695
0.00311338
0.0031107
0.003127
0.003127
0.00311123
0.00311057
0.00311057
0.0030665
0.00308258
0.00308268
0.00306639
0.00308252
0.0030663
0.0030665
0.00308259
0.00308268
0.00306639
0.00308026
0.00308026
0.00308026
0.00304745
0.00304745
0.00304745
0.00304745
0.00306667
0.00308266
0.00308024
0.00306929
0.00308265
0.00306664
0.00306927
0.00308252
0.0030663
0.00306667
0.00308024
0.00308266
0.00306929
0.00308265
0.00306927
0.00306664
0.0030827
0.0030827
0.00306716
0.0030665
0.0030665
0.003023
0.00303888
0.00303898
0.00302288
0.00303882
0.00302279
0.003023
0.00303888
0.00303898
0.00302288
0.00303658
0.00303658
0.00303658
0.00300415
0.00300415
0.00300415
0.00300415
0.00302319
0.00303895
0.00303657
0.00302575
0.00303896
0.00302314
0.00302573
0.00303882
0.0030228
0.00302319
0.00303657
0.00303895
0.00302575
0.00303896
0.00302573
0.00302314
0.00303898
0.00303898
0.00302364
0.00302299
0.00302299
0.00297999
0.00299569
0.00299579
0.00297987
0.00299564
0.00297979
0.00297999
0.00299569
0.00299579
0.00297987
0.00299341
0.00299341
0.00299341
0.00296134
0.00296134
0.00296134
0.00296134
0.0029802
0.00299575
0.0029934
0.0029827
0.00299578
0.00298012
0.00298269
0.00299564
0.00297979
0.0029802
0.0029934
0.00299575
0.0029827
0.00299578
0.00298269
0.00298012
0.00299578
0.00299579
0.00298061
0.00297996
0.00297996
0.00293743
0.00295297
0.00295307
0.0029373
0.00295292
0.00293723
0.00293743
0.00295297
0.00295307
0.0029373
0.0029507
0.0029507
0.0029507
0.00291896
0.00291896
0.00291896
0.00291896
0.00293766
0.00295302
0.0029507
0.00294011
0.00295306
0.00293756
0.0029401
0.00295292
0.00293723
0.00293766
0.0029507
0.00295302
0.00294011
0.00295306
0.0029401
0.00293756
0.00295305
0.00295305
0.00293806
0.00293739
0.00293739
0.00289529
0.00291067
0.00291078
0.00289516
0.00291063
0.0028951
0.00289529
0.00291067
0.00291078
0.00289516
0.00290843
0.00290843
0.00290843
0.00287699
0.00287699
0.00287699
0.00287699
0.00289554
0.00291071
0.00290843
0.00289794
0.00291077
0.00289541
0.00289793
0.00291063
0.00289509
0.00289554
0.00290843
0.00291071
0.00289794
0.00291077
0.00289793
0.00289541
0.00291074
0.00291074
0.00289593
0.00289524
0.00289524
0.00285354
0.00286878
0.00286889
0.00285341
0.00286874
0.00285335
0.00285354
0.00286878
0.00286889
0.00285341
0.00286656
0.00286656
0.00286656
0.00283541
0.00283541
0.00283541
0.00283541
0.00285381
0.00286882
0.00286657
0.00285616
0.00286889
0.00285366
0.00285616
0.00286874
0.00285335
0.00285381
0.00286657
0.00286882
0.00285616
0.00286889
0.00285616
0.00285366
0.00286884
0.00286885
0.00285419
0.00285348
0.00285348
0.00281217
0.00282728
0.00282738
0.00281204
0.00282724
0.00281198
0.00281217
0.00282728
0.00282738
0.00281204
0.00282507
0.00282507
0.00282507
0.00279419
0.00279419
0.00279419
0.00279419
0.00281245
0.0028273
0.00282508
0.00281476
0.00282738
0.00281228
0.00281476
0.00282724
0.00281198
0.00281245
0.00282508
0.0028273
0.00281476
0.00282738
0.00281476
0.00281228
0.00282733
0.00282733
0.00281283
0.0028121
0.0028121
0.00277115
0.00278614
0.00278624
0.00277102
0.0027861
0.00277097
0.00277115
0.00278614
0.00278624
0.00277102
0.00278394
0.00278394
0.00278394
0.0027533
0.0027533
0.0027533
0.0027533
0.00277144
0.00278615
0.00278394
0.00277371
0.00278624
0.00277125
0.00277371
0.0027861
0.00277097
0.00277144
0.00278394
0.00278615
0.00277371
0.00278624
0.00277371
0.00277125
0.00278618
0.00278618
0.00277181
0.00277107
0.00277107
0.00273045
0.00274534
0.00274542
0.00273032
0.00274529
0.00273028
0.00273045
0.00274533
0.00274542
0.00273033
0.00274313
0.00274313
0.00274313
0.00271274
0.00271274
0.00271274
0.00271274
0.00273074
0.00274534
0.00274314
0.00273299
0.00274542
0.00273055
0.00273299
0.0027453
0.00273028
0.00273074
0.00274314
0.00274534
0.00273299
0.00274542
0.00273299
0.00273055
0.00274537
0.00274537
0.00273112
0.00273037
0.00273037
0.00269005
0.00270483
0.00270492
0.00268993
0.0027048
0.00268991
0.00269005
0.00270483
0.00270492
0.00268993
0.00270264
0.00270264
0.00270264
0.00267246
0.00267246
0.00267246
0.00267246
0.00269035
0.00270483
0.00270265
0.00269257
0.00270491
0.00269015
0.00269257
0.0027048
0.00268989
0.00269035
0.00270265
0.00270483
0.00269257
0.00270491
0.00269257
0.00269015
0.00270486
0.00270486
0.00269073
0.00268997
0.00268997
0.00264993
0.00266462
0.0026647
0.00264981
0.00266458
0.00264978
0.00266462
0.0026647
0.00264982
0.00266244
0.00266244
0.00266244
0.00265022
0.00266461
0.00266244
0.00265243
0.00266469
0.00265002
0.00265243
0.00266459
0.00265023
0.00266244
0.00266461
0.00266469
0.00265243
0.00266465
0.00266465
0.00265061
0.00264986
0.00264986
0.00360918
0.00363732
0.00363719
0.0035917
0.00363725
0.00359164
0.00363704
0.00360585
0.00359003
0.00359012
0.00363153
0.00363133
0.00361773
0.00360469
0.00363323
0.0035986
0.00361772
0.00360469
0.00363314
0.0035986
0.00362145
0.00358542
0.00363387
0.00358318
0.00362144
0.00358548
0.00363355
0.0035832
0.00361314
0.00360186
0.00358499
0.00358382
0.00362782
0.0035967
0.00358336
0.00361313
0.00360186
0.00358495
0.00358382
0.00362765
0.0035967
0.00358337
0.00360919
0.00363721
0.00363734
0.00359174
0.00363707
0.00360585
0.00359004
0.00359004
0.00363139
0.00363155
0.00359183
0.00363728
0.00361772
0.00360468
0.00363314
0.00359859
0.00361772
0.00360469
0.00359859
0.00363317
0.00362145
0.00358551
0.00363354
0.00358322
0.00361312
0.00360185
0.003585
0.00358383
0.00362762
0.0035967
0.00358339
0.00362144
0.00358554
0.00363358
0.00358321
0.00361312
0.00360186
0.00358383
0.00358498
0.0035967
0.00362768
0.00358338
0.00359073
0.0036007
0.00359531
0.00359531
0.00359073
0.0036007
0.00359531
0.00359532
0.00359073
0.0036007
0.00359531
0.00359532
0.00358942
0.00359833
0.00358089
0.00358089
0.00359365
0.00359365
0.00357926
0.00358942
0.00359833
0.00358089
0.00358089
0.00359365
0.00359365
0.00357926
0.00358942
0.00359834
0.00358089
0.0035809
0.00359365
0.00359366
0.00357927
0.00358942
0.00359834
0.00358089
0.0035809
0.00359365
0.00359366
0.00357927
0.00361768
0.00360469
0.00359859
0.00363314
0.00361312
0.00360186
0.00358499
0.00358382
0.00362784
0.0035967
0.00358337
0.00362141
0.00358544
0.00363389
0.00358318
0.0036131
0.00360186
0.00358383
0.00358503
0.0035967
0.00362774
0.00358338
0.0036214
0.00358543
0.00363371
0.0035832
0.00360918
0.00363726
0.00363727
0.00359158
0.00363711
0.00360585
0.00359011
0.00359008
0.00363144
0.00363144
0.00359172
0.00363714
0.00361775
0.0036047
0.00359861
0.00363326
0.00361316
0.00360186
0.00358383
0.00358496
0.00359671
0.00362769
0.00358338
0.00361315
0.00360187
0.00358383
0.00358499
0.00359671
0.00362785
0.00358338
0.00362146
0.00358551
0.00363361
0.0035832
0.00362146
0.00358544
0.0036339
0.0035832
0.00360585
0.00359013
0.00359004
0.00363146
0.00363157
0.00359167
0.00363716
0.00359171
0.00363731
0.00352771
0.00354701
0.00352783
0.00354702
0.00356182
0.00356186
0.00354946
0.00354972
0.00354973
0.0035237
0.00354002
0.00352369
0.00354009
0.00354182
0.0035252
0.0035252
0.00354271
0.00354274
0.00354972
0.0035497
0.00356812
0.00354806
0.00354841
0.00356516
0.0035683
0.00355258
0.00357049
0.00354937
0.00355321
0.00354841
0.00356514
0.0035683
0.00355258
0.0035705
0.00354938
0.00355321
0.00354323
0.00352438
0.00354117
0.0035254
0.00354323
0.00352437
0.00354117
0.0035254
0.00354192
0.00353955
0.00352494
0.00352717
0.00354252
0.00353974
0.0035242
0.00354192
0.00353955
0.00352494
0.00352717
0.00354252
0.00353974
0.0035242
0.0035618
0.00356183
0.00354947
0.00354973
0.00354973
0.0035279
0.00354706
0.00352369
0.00354002
0.00354181
0.0035252
0.00352521
0.00354272
0.00354272
0.00352371
0.00354007
0.00354841
0.00356517
0.00356831
0.00355259
0.0035705
0.00354939
0.00355322
0.00354973
0.00354971
0.00356811
0.00354809
0.00354842
0.00356831
0.00356515
0.00355258
0.0035705
0.00355322
0.00354939
0.00354324
0.00352437
0.00354121
0.0035254
0.00354193
0.00353955
0.00352494
0.00352717
0.00354253
0.00353974
0.0035242
0.00354323
0.00352437
0.0035412
0.0035254
0.00354193
0.00353955
0.00352717
0.00352494
0.00353974
0.00354253
0.0035242
0.00354972
0.00354981
0.00356811
0.00354808
0.00354842
0.00356831
0.00356521
0.00355258
0.00357052
0.00355321
0.00354939
0.00354973
0.00354991
0.00356814
0.00354808
0.00354192
0.00353954
0.00352494
0.00352717
0.00354251
0.00353974
0.0035242
0.00354322
0.00352438
0.00354117
0.0035254
0.00354192
0.00353955
0.00352717
0.00352494
0.00353974
0.00354252
0.0035242
0.00354323
0.00352438
0.00354117
0.0035254
0.00356183
0.00356183
0.00354944
0.00354974
0.00354971
0.00352787
0.00354701
0.00352369
0.00354005
0.00354182
0.0035252
0.0035252
0.00354273
0.00354271
0.00352368
0.00354003
0.0035484
0.0035683
0.00356516
0.00355258
0.0035705
0.00355321
0.00354937
0.00354972
0.00354971
0.0035681
0.00354805
0.00354972
0.00354983
0.00356811
0.00354806
0.00354192
0.00353955
0.00352717
0.00352493
0.00353974
0.00354252
0.00352419
0.00354191
0.00353955
0.00352717
0.00352493
0.00353974
0.00354251
0.00352419
0.00354322
0.00352437
0.00354119
0.00352539
0.00354322
0.00352436
0.00354117
0.00352539
0.00352797
0.00354703
0.00352791
0.00354702
0.00354182
0.0035252
0.00352519
0.00354273
0.00354272
0.0035237
0.00354003
0.00352367
0.00354005
0.00351728
0.00349866
0.00351726
0.00349865
0.00351867
0.00351866
0.00349954
0.00349971
0.00349972
0.00347283
0.00349199
0.00347283
0.00349199
0.00349163
0.00347362
0.00347362
0.00349298
0.00349298
0.00350002
0.0035179
0.00351891
0.00349912
0.00349912
0.00351838
0.00351473
0.00350217
0.00351767
0.00349959
0.00350211
0.00349912
0.00351838
0.00351473
0.00350217
0.00351767
0.00349959
0.00350211
0.00349332
0.00347315
0.00349241
0.003474
0.00349332
0.00347315
0.00349241
0.003474
0.00349236
0.00348936
0.0034736
0.00347638
0.00349282
0.0034893
0.00347331
0.00349236
0.00348935
0.0034736
0.00347638
0.00349282
0.0034893
0.00347331
0.00351866
0.00351867
0.00349954
0.00349971
0.00349971
0.0035173
0.00349866
0.00347283
0.00349199
0.00349163
0.00347362
0.00347362
0.00349298
0.00349298
0.00347283
0.00349199
0.00349912
0.00351838
0.00351473
0.00350217
0.00351767
0.00349959
0.00350211
0.00350002
0.0035179
0.00351891
0.00349912
0.00349912
0.00351473
0.00351838
0.00350217
0.00351767
0.00350211
0.00349959
0.00349332
0.00347315
0.00349241
0.003474
0.00349236
0.00348935
0.0034736
0.00347638
0.00349282
0.0034893
0.00347331
0.00349332
0.00347315
0.00349241
0.003474
0.00349236
0.00348935
0.00347638
0.0034736
0.0034893
0.00349282
0.00347331
0.00350002
0.00351791
0.00351891
0.00349912
0.00349912
0.00351473
0.00351838
0.00350217
0.00351768
0.00350211
0.00349959
0.00350002
0.00351789
0.00351891
0.00349912
0.00349236
0.00348935
0.0034736
0.00347638
0.00349282
0.0034893
0.00347331
0.00349332
0.00347315
0.00349241
0.003474
0.00349236
0.00348936
0.00347638
0.0034736
0.0034893
0.00349282
0.00347331
0.00349332
0.00347315
0.00349241
0.003474
0.00351866
0.00351866
0.00349954
0.00349971
0.00349971
0.00351727
0.00349865
0.00347283
0.00349199
0.00349162
0.00347362
0.00347362
0.00349298
0.00349298
0.00347283
0.00349199
0.00349912
0.00351473
0.00351838
0.00350217
0.00351767
0.00350211
0.00349959
0.00350002
0.0035179
0.00351892
0.00349912
0.00350002
0.0035179
0.00351892
0.00349912
0.00349236
0.00348935
0.00347638
0.0034736
0.0034893
0.00349282
0.00347331
0.00349236
0.00348935
0.00347638
0.0034736
0.0034893
0.00349282
0.00347331
0.00349332
0.00347315
0.00349241
0.00347399
0.00349332
0.00347315
0.00349241
0.00347399
0.00351726
0.00349865
0.00351727
0.00349865
0.00349163
0.00347362
0.00347362
0.00349298
0.00349298
0.00347283
0.00349199
0.00347283
0.00349199
0.00346606
0.00344675
0.00346606
0.00344675
0.0034668
0.0034668
0.00344772
0.00344736
0.00344736
0.0034207
0.00343997
0.00342071
0.00343997
0.00343968
0.0034212
0.0034212
0.00344054
0.00344054
0.00344776
0.00346635
0.0034672
0.00344698
0.00344724
0.00346673
0.0034634
0.00345041
0.00346644
0.00344741
0.00345039
0.00344724
0.00346673
0.0034634
0.00345041
0.00346644
0.00344741
0.00345039
0.00344095
0.00342089
0.00344018
0.00342159
0.00344095
0.00342089
0.00344018
0.00342159
0.00344035
0.00343739
0.00342129
0.00342439
0.00344052
0.00343738
0.0034212
0.00344035
0.00343739
0.00342129
0.00342439
0.00344052
0.00343738
0.0034212
0.0034668
0.0034668
0.00344772
0.00344735
0.00344736
0.00346606
0.00344675
0.00342071
0.00343997
0.00343968
0.0034212
0.0034212
0.00344054
0.00344054
0.00342071
0.00343997
0.00344724
0.00346673
0.0034634
0.00345041
0.00346644
0.00344741
0.00345039
0.00344776
0.00346635
0.0034672
0.00344698
0.00344724
0.0034634
0.00346673
0.00345041
0.00346644
0.00345039
0.00344741
0.00344095
0.00342089
0.00344018
0.00342159
0.00344035
0.00343739
0.00342129
0.00342439
0.00344052
0.00343738
0.0034212
0.00344095
0.00342089
0.00344018
0.00342158
0.00344035
0.00343739
0.00342439
0.00342129
0.00343738
0.00344052
0.0034212
0.00344776
0.00346636
0.0034672
0.00344698
0.00344724
0.0034634
0.00346673
0.00345041
0.00346644
0.00345039
0.00344741
0.00344776
0.00346636
0.0034672
0.00344699
0.00344035
0.00343739
0.00342129
0.00342439
0.00344052
0.00343738
0.0034212
0.00344095
0.00342089
0.00344018
0.00342159
0.00344035
0.00343739
0.00342439
0.00342129
0.00343738
0.00344052
0.0034212
0.00344095
0.00342089
0.00344018
0.00342159
0.0034668
0.0034668
0.00344772
0.00344735
0.00344736
0.00346606
0.00344675
0.0034207
0.00343997
0.00343968
0.0034212
0.0034212
0.00344054
0.00344054
0.0034207
0.00343997
0.00344724
0.0034634
0.00346673
0.0034504
0.00346644
0.00345039
0.00344741
0.00344776
0.00346635
0.0034672
0.00344698
0.00344776
0.00346636
0.0034672
0.00344698
0.00344035
0.00343739
0.00342439
0.00342129
0.00343738
0.00344052
0.0034212
0.00344035
0.00343739
0.00342439
0.00342129
0.00343738
0.00344052
0.0034212
0.00344095
0.00342089
0.00344018
0.00342158
0.00344095
0.00342089
0.00344018
0.00342159
0.00346606
0.00344675
0.00346606
0.00344675
0.00343968
0.0034212
0.0034212
0.00344055
0.00344054
0.00342071
0.00343997
0.00342071
0.00343997
0.00341397
0.00339488
0.00341397
0.00339488
0.00341443
0.00341444
0.0033959
0.00339529
0.00339529
0.00336936
0.00338821
0.00336936
0.00338821
0.00338799
0.00336973
0.00336973
0.00338861
0.00338861
0.00339564
0.00341413
0.00341482
0.00339503
0.00339537
0.00341444
0.00341145
0.00339855
0.00341434
0.00339541
0.00339856
0.00339537
0.00341444
0.00341145
0.00339856
0.00341434
0.00339541
0.00339856
0.00338894
0.0033695
0.00338835
0.00337002
0.00338895
0.0033695
0.00338835
0.00337002
0.00338857
0.00338574
0.00336985
0.00337301
0.00338863
0.00338575
0.00336983
0.00338857
0.00338574
0.00336985
0.00337301
0.00338863
0.00338575
0.00336983
0.00341443
0.00341443
0.0033959
0.00339529
0.00339529
0.00341397
0.00339488
0.00336936
0.00338822
0.00338799
0.00336973
0.00336973
0.00338861
0.00338861
0.00336936
0.00338822
0.00339537
0.00341444
0.00341145
0.00339855
0.00341434
0.00339541
0.00339856
0.00339564
0.00341413
0.00341482
0.00339503
0.00339537
0.00341145
0.00341444
0.00339856
0.00341434
0.00339856
0.00339541
0.00338894
0.0033695
0.00338835
0.00337002
0.00338857
0.00338574
0.00336985
0.00337301
0.00338863
0.00338575
0.00336983
0.00338894
0.0033695
0.00338835
0.00337002
0.00338857
0.00338574
0.00337301
0.00336985
0.00338575
0.00338862
0.00336983
0.00339564
0.00341413
0.00341482
0.00339503
0.00339537
0.00341145
0.00341444
0.00339855
0.00341434
0.00339856
0.00339541
0.00339564
0.00341414
0.00341482
0.00339503
0.00338857
0.00338574
0.00336985
0.00337301
0.00338863
0.00338575
0.00336983
0.00338895
0.0033695
0.00338835
0.00337002
0.00338857
0.00338574
0.00337301
0.00336985
0.00338575
0.00338863
0.00336983
0.00338895
0.0033695
0.00338835
0.00337002
0.00341443
0.00341444
0.0033959
0.00339529
0.00339529
0.00341397
0.00339488
0.00336936
0.00338821
0.00338799
0.00336973
0.00336973
0.00338861
0.00338861
0.00336936
0.00338822
0.00339537
0.00341145
0.00341444
0.00339855
0.00341434
0.00339856
0.00339541
0.00339564
0.00341413
0.00341482
0.00339503
0.00339564
0.00341413
0.00341482
0.00339503
0.00338857
0.00338574
0.00337301
0.00336985
0.00338575
0.00338863
0.00336983
0.00338857
0.00338574
0.00337301
0.00336985
0.00338575
0.00338863
0.00336983
0.00338894
0.0033695
0.00338835
0.00337002
0.00338894
0.0033695
0.00338835
0.00337002
0.00341397
0.00339488
0.00341397
0.00339488
0.003388
0.00336973
0.00336973
0.00338861
0.00338861
0.00336936
0.00338822
0.00336936
0.00338822
0.00336279
0.0033442
0.00336279
0.0033442
0.00336313
0.00336313
0.00334522
0.00334453
0.00334453
0.00331942
0.00333773
0.00331941
0.00333772
0.00333753
0.00331972
0.00331972
0.00333803
0.00333803
0.00334477
0.00336291
0.00336341
0.00334433
0.00334465
0.00336315
0.00336036
0.00334778
0.00336311
0.00334466
0.00334779
0.00334465
0.00336315
0.00336036
0.00334779
0.00336311
0.00334465
0.00334779
0.00333825
0.00331953
0.00333783
0.0033199
0.00333825
0.00331954
0.00333783
0.0033199
0.00333802
0.00333531
0.00331984
0.00332293
0.00333804
0.00333532
0.00331984
0.00333802
0.00333531
0.00331984
0.00332293
0.00333804
0.00333532
0.00331984
0.00336314
0.00336313
0.00334522
0.00334453
0.00334453
0.00336279
0.0033442
0.00331942
0.00333772
0.00333753
0.00331973
0.00331972
0.00333803
0.00333803
0.00331942
0.00333773
0.00334465
0.00336315
0.00336036
0.00334778
0.00336311
0.00334466
0.00334779
0.00334477
0.00336291
0.00336341
0.00334433
0.00334465
0.00336036
0.00336315
0.00334778
0.00336311
0.00334779
0.00334466
0.00333825
0.00331953
0.00333783
0.0033199
0.00333802
0.00333531
0.00331984
0.00332293
0.00333804
0.00333532
0.00331984
0.00333825
0.00331953
0.00333783
0.0033199
0.00333802
0.00333531
0.00332293
0.00331984
0.00333532
0.00333804
0.00331984
0.00334477
0.00336291
0.00336341
0.00334433
0.00334465
0.00336036
0.00336315
0.00334778
0.00336311
0.00334779
0.00334466
0.00334477
0.00336291
0.00336341
0.00334433
0.00333802
0.00333531
0.00331984
0.00332293
0.00333804
0.00333532
0.00331984
0.00333825
0.00331953
0.00333783
0.0033199
0.00333802
0.00333531
0.00332293
0.00331984
0.00333532
0.00333804
0.00331984
0.00333825
0.00331953
0.00333783
0.0033199
0.00336313
0.00336313
0.00334522
0.00334453
0.00334453
0.00336279
0.0033442
0.00331941
0.00333773
0.00333753
0.00331972
0.00331972
0.00333803
0.00333803
0.00331941
0.00333772
0.00334465
0.00336036
0.00336315
0.00334778
0.00336311
0.00334779
0.00334466
0.00334477
0.00336291
0.00336341
0.00334433
0.00334477
0.00336291
0.00336341
0.00334433
0.00333802
0.00333531
0.00332293
0.00331984
0.00333532
0.00333804
0.00331984
0.00333802
0.00333531
0.00332293
0.00331984
0.00333532
0.00333804
0.00331984
0.00333825
0.00331953
0.00333783
0.0033199
0.00333825
0.00331953
0.00333783
0.0033199
0.00336279
0.0033442
0.00336279
0.0033442
0.00333753
0.00331972
0.00331972
0.00333803
0.00333803
0.00331942
0.00333772
0.00331941
0.00333772
0.00331303
0.003295
0.00331303
0.003295
0.00331332
0.00331332
0.00329598
0.00329529
0.00329529
0.00327093
0.00328871
0.00327093
0.00328871
0.00328852
0.00327121
0.00327121
0.00328897
0.00328897
0.00329541
0.00331313
0.00331348
0.0032951
0.0032954
0.00331331
0.00331064
0.00329845
0.0033133
0.0032954
0.00329844
0.0032954
0.00331331
0.00331064
0.00329845
0.0033133
0.0032954
0.00329844
0.00328909
0.00327104
0.00328879
0.0032713
0.00328909
0.00327104
0.00328879
0.0032713
0.00328894
0.00328634
0.00327132
0.00327431
0.00328896
0.00328633
0.00327132
0.00328894
0.00328634
0.00327132
0.00327431
0.00328895
0.00328633
0.00327132
0.00331332
0.00331332
0.00329598