/*--------------------------------*- C++ -*----------------------------------*\
| =========                 |                                                 |
| \\      /  F ield         | OpenFOAM: The Open Source CFD Toolbox           |
|  \\    /   O peration     | Version:  v1912                                 |
|   \\  /    A nd           | Website:  www.openfoam.com                      |
|    \\/     M anipulation  |                                                 |
\*---------------------------------------------------------------------------*/
FoamFile
{
    version     2.0;
    format      ascii;
    class       volScalarField;
    location    "0.75";
    object      nut;
}
// * * * * * * * * * * * * * * * * * * * * * * * * * * * * * * * * * * * * * //

dimensions      [0 2 -1 0 0 0 0];


internalField   nonuniform List<scalar> 
171728
(
5.61201e-07
6.19507e-07
6.19838e-07
2.41424e-07
3.69513e-08
4.54758e-08
4.56575e-08
6.36939e-08
2.77988e-09
3.93442e-09
3.92818e-09
6.19927e-08
6.70488e-10
2.43585e-09
2.41676e-09
6.20491e-08
6.66011e-10
2.30522e-09
2.31108e-09
6.20529e-08
6.63833e-10
2.30549e-09
2.30683e-09
6.20529e-08
6.52803e-10
2.31077e-09
2.30527e-09
6.2053e-08
6.65028e-10
2.31029e-09
2.30857e-09
6.20533e-08
6.69882e-10
2.30798e-09
2.30143e-09
6.20544e-08
6.64899e-10
2.30761e-09
2.30596e-09
6.20533e-08
6.68547e-10
2.30529e-09
2.30788e-09
6.20541e-08
6.76585e-10
2.30273e-09
2.30662e-09
6.20543e-08
6.8354e-10
2.32592e-09
2.30804e-09
6.20542e-08
6.86738e-10
2.32997e-09
2.30654e-09
6.2054e-08
6.62186e-10
2.29991e-09
2.30893e-09
6.20544e-08
6.66378e-10
2.30594e-09
2.30594e-09
6.20548e-08
6.7337e-10
2.30786e-09
2.30688e-09
6.2055e-08
6.66101e-10
2.3028e-09
2.30778e-09
6.20544e-08
6.6996e-10
2.29611e-09
2.30625e-09
6.2054e-08
6.49394e-10
2.31905e-09
2.30154e-09
6.20501e-08
7.49524e-10
2.31225e-09
2.30646e-09
6.20564e-08
6.69135e-10
2.31125e-09
2.30785e-09
6.20565e-08
6.71979e-10
2.3098e-09
2.3083e-09
6.2057e-08
6.71658e-10
2.30935e-09
2.30809e-09
6.20568e-08
6.73546e-10
2.30953e-09
2.30857e-09
6.20569e-08
6.72849e-10
2.30939e-09
2.30784e-09
6.2057e-08
6.72303e-10
2.30975e-09
2.30831e-09
6.2057e-08
6.73102e-10
2.30913e-09
2.30768e-09
6.20568e-08
6.72679e-10
2.30919e-09
2.30776e-09
6.20566e-08
6.73041e-10
2.31003e-09
2.30871e-09
6.20568e-08
6.71793e-10
2.30945e-09
2.30793e-09
6.2057e-08
6.72953e-10
2.30687e-09
2.30789e-09
6.20566e-08
6.7344e-10
2.31101e-09
2.30884e-09
6.20566e-08
6.72462e-10
2.31014e-09
2.30889e-09
6.20569e-08
6.72048e-10
2.31007e-09
2.30877e-09
6.20569e-08
6.73137e-10
2.31035e-09
2.30976e-09
6.20566e-08
6.73405e-10
2.31084e-09
2.31027e-09
6.20571e-08
6.7301e-10
2.30995e-09
2.30939e-09
6.20575e-08
6.73052e-10
2.31035e-09
2.3149e-09
6.20572e-08
6.89079e-10
2.31709e-09
2.31458e-09
6.20431e-08
8.15747e-10
2.29048e-09
2.31029e-09
6.20566e-08
6.71662e-10
2.31043e-09
2.30309e-09
6.20571e-08
6.74726e-10
2.30989e-09
2.3027e-09
6.20573e-08
6.75876e-10
2.30865e-09
2.30361e-09
6.20577e-08
6.77354e-10
2.30813e-09
2.3065e-09
6.20579e-08
6.7617e-10
2.30768e-09
2.30391e-09
6.20581e-08
6.75967e-10
2.30784e-09
2.30804e-09
6.20581e-08
6.75723e-10
2.30763e-09
2.30974e-09
6.20584e-08
6.75886e-10
2.3085e-09
2.31069e-09
6.20582e-08
6.76189e-10
2.30799e-09
2.31019e-09
6.20579e-08
6.76526e-10
2.30798e-09
2.31097e-09
6.2058e-08
6.76585e-10
2.30758e-09
2.3088e-09
6.20581e-08
6.77366e-10
2.30849e-09
2.30975e-09
6.20578e-08
6.77894e-10
2.31582e-09
2.30986e-09
6.20578e-08
6.79687e-10
2.30644e-09
2.31156e-09
6.20576e-08
6.76787e-10
2.30674e-09
2.30762e-09
6.20546e-08
6.7642e-10
2.30958e-09
2.30709e-09
6.20485e-08
6.76032e-10
2.30892e-09
2.30607e-09
6.20484e-08
6.75824e-10
2.30938e-09
2.30668e-09
6.20488e-08
6.7605e-10
2.30979e-09
2.30634e-09
6.20488e-08
6.76287e-10
2.31022e-09
2.30783e-09
6.20488e-08
6.76055e-10
2.31018e-09
2.30723e-09
6.20492e-08
6.75767e-10
2.3101e-09
2.3072e-09
6.20486e-08
6.76819e-10
2.30984e-09
2.30714e-09
6.20485e-08
6.76334e-10
2.31046e-09
2.30757e-09
6.20486e-08
6.75676e-10
2.30966e-09
2.30676e-09
6.20482e-08
6.75689e-10
2.30911e-09
2.30622e-09
6.20482e-08
6.75027e-10
2.30902e-09
2.3064e-09
6.20483e-08
6.70871e-10
2.30802e-09
2.3066e-09
6.20493e-08
6.65385e-10
2.30945e-09
2.28809e-09
6.20514e-08
6.71265e-10
2.31105e-09
2.30212e-09
6.20464e-08
6.75988e-10
2.30994e-09
2.30705e-09
6.2048e-08
6.75735e-10
2.30981e-09
2.30664e-09
6.20485e-08
6.76329e-10
2.30981e-09
2.30624e-09
6.20476e-08
6.76882e-10
2.31002e-09
2.30607e-09
6.20472e-08
6.76562e-10
2.30964e-09
2.30587e-09
6.20471e-08
6.76478e-10
2.30967e-09
2.30573e-09
6.20481e-08
6.7603e-10
2.31001e-09
2.3065e-09
6.20473e-08
6.76582e-10
2.30937e-09
2.30648e-09
6.20472e-08
6.7689e-10
2.31089e-09
2.30803e-09
6.20477e-08
6.76383e-10
2.30925e-09
2.30639e-09
6.20477e-08
6.76031e-10
2.30964e-09
2.30679e-09
6.20476e-08
6.76013e-10
2.30994e-09
2.30707e-09
6.20475e-08
6.77914e-10
2.30997e-09
2.30711e-09
6.20477e-08
6.77428e-10
2.30961e-09
2.30674e-09
6.20476e-08
6.77592e-10
2.30951e-09
2.30708e-09
6.20473e-08
6.78329e-10
2.31008e-09
2.30733e-09
6.20478e-08
6.77166e-10
2.30919e-09
2.30645e-09
6.20476e-08
6.7729e-10
2.30955e-09
2.30651e-09
6.20474e-08
6.78475e-10
2.31013e-09
2.3073e-09
6.20473e-08
6.81269e-10
2.30987e-09
2.30598e-09
6.20492e-08
7.59363e-10
2.33733e-09
2.34361e-09
6.20482e-08
2.74269e-09
3.34882e-09
3.404e-09
6.20276e-08
3.79425e-08
3.57914e-08
3.57023e-08
6.18014e-08
2.73098e-07
1.56548e-07
1.56592e-07
2.50615e-07
1.75787e-07
3.97249e-07
3.97391e-07
1.75748e-07
3.9727e-07
3.97406e-07
1.04365e-06
1.04365e-06
1.04367e-06
1.04368e-06
3.97134e-07
3.97249e-07
1.75644e-07
3.97148e-07
3.97267e-07
1.75599e-07
2.4149e-07
1.64656e-07
6.19719e-07
6.19554e-07
9.99958e-08
9.99537e-08
2.41408e-07
1.645e-07
6.19697e-07
6.20082e-07
1.0015e-07
1.00077e-07
6.19973e-07
1.0004e-07
9.99633e-08
2.4146e-07
1.64609e-07
6.19726e-07
1.00118e-07
1.00092e-07
1.64633e-07
6.37377e-08
1.60457e-07
4.55439e-08
4.55681e-08
5.92945e-09
5.99908e-09
6.36804e-08
1.60531e-07
4.55655e-08
4.55748e-08
5.89692e-09
5.96136e-09
4.55763e-08
5.84831e-09
5.92106e-09
6.37585e-08
1.60501e-07
4.57092e-08
5.92402e-09
5.89512e-09
1.60501e-07
6.19176e-08
1.60306e-07
3.9532e-09
3.94561e-09
2.54458e-09
2.5422e-09
6.19155e-08
1.60301e-07
3.97148e-09
3.95283e-09
2.53055e-09
2.5486e-09
3.97667e-09
2.52716e-09
2.55696e-09
6.19609e-08
1.60321e-07
3.98806e-09
2.50511e-09
2.50458e-09
1.60289e-07
6.20253e-08
1.60295e-07
2.44053e-09
2.46749e-09
2.34611e-09
2.33839e-09
6.20089e-08
1.60278e-07
2.40708e-09
2.44874e-09
2.31333e-09
2.3484e-09
2.45565e-09
2.30978e-09
2.34029e-09
6.20395e-08
1.60303e-07
2.42301e-09
2.30362e-09
2.30626e-09
1.60264e-07
6.20331e-08
1.60293e-07
2.34136e-09
2.33164e-09
2.34118e-09
2.33559e-09
6.2018e-08
1.60271e-07
2.29835e-09
2.34511e-09
2.31816e-09
2.34021e-09
2.33507e-09
2.29952e-09
2.33173e-09
6.20404e-08
1.60301e-07
2.30273e-09
2.29519e-09
2.2967e-09
1.60263e-07
6.20333e-08
1.60295e-07
2.34123e-09
2.34517e-09
2.32733e-09
2.37027e-09
6.2022e-08
1.60282e-07
2.29063e-09
2.34116e-09
2.31383e-09
2.33891e-09
2.33092e-09
2.31297e-09
2.3284e-09
6.20403e-08
1.60306e-07
2.29793e-09
2.29293e-09
2.29517e-09
1.60267e-07
6.20368e-08
1.60295e-07
2.29591e-09
2.36209e-09
2.36117e-09
2.35044e-09
6.20135e-08
1.60283e-07
2.28541e-09
2.34094e-09
2.32075e-09
2.34015e-09
2.32834e-09
2.31005e-09
2.3299e-09
6.20402e-08
1.60304e-07
2.2975e-09
2.29475e-09
2.29817e-09
1.60265e-07
6.20373e-08
1.60301e-07
2.33821e-09
2.35191e-09
2.33978e-09
2.35033e-09
6.20116e-08
1.60281e-07
2.2969e-09
2.34208e-09
2.32188e-09
2.34091e-09
2.3302e-09
2.30944e-09
2.32971e-09
6.20407e-08
1.60303e-07
2.3012e-09
2.29393e-09
2.29822e-09
1.60264e-07
6.20177e-08
1.60295e-07
2.33835e-09
2.3495e-09
2.31897e-09
2.33438e-09
6.20126e-08
1.60293e-07
2.29333e-09
2.34186e-09
2.30786e-09
2.33916e-09
2.32892e-09
2.30562e-09
2.32719e-09
6.20419e-08
1.60309e-07
2.29753e-09
2.29279e-09
2.29572e-09
1.6027e-07
6.20233e-08
1.60276e-07
2.32188e-09
2.30337e-09
2.35977e-09
2.29784e-09
6.20065e-08
1.60284e-07
2.29968e-09
2.34189e-09
2.31284e-09
2.3421e-09
2.32791e-09
2.30506e-09
2.33013e-09
6.20407e-08
1.60304e-07
2.29871e-09
2.29546e-09
2.29873e-09
1.60264e-07
6.20353e-08
1.6029e-07
2.38326e-09
2.31519e-09
2.3389e-09
2.30207e-09
6.20114e-08
1.60282e-07
2.31051e-09
2.34304e-09
2.31145e-09
2.33929e-09
2.32986e-09
2.30533e-09
2.3276e-09
6.20412e-08
1.60307e-07
2.30064e-09
2.29393e-09
2.29617e-09
1.60268e-07
6.20239e-08
1.60288e-07
2.33643e-09
2.29115e-09
2.33537e-09
2.29403e-09
6.20114e-08
1.60306e-07
2.30642e-09
2.34066e-09
2.30749e-09
2.33963e-09
2.3276e-09
2.31395e-09
2.33149e-09
6.20419e-08
1.60305e-07
2.29801e-09
2.29609e-09
2.29835e-09
1.60267e-07
6.20241e-08
1.60297e-07
2.33612e-09
2.30128e-09
2.3293e-09
2.35564e-09
6.20101e-08
1.60309e-07
2.30337e-09
2.34101e-09
2.29781e-09
2.33784e-09
2.33179e-09
2.32216e-09
2.33025e-09
6.20421e-08
1.60308e-07
2.30084e-09
2.29389e-09
2.29726e-09
1.60271e-07
6.2014e-08
1.60281e-07
2.32939e-09
2.36377e-09
2.36286e-09
2.34424e-09
6.2016e-08
1.60292e-07
2.29329e-09
2.3399e-09
2.29214e-09
2.34122e-09
2.33009e-09
2.30655e-09
2.33253e-09
6.20415e-08
1.60306e-07
2.2994e-09
2.29669e-09
2.29945e-09
1.60266e-07
6.203e-08
1.60286e-07
2.34103e-09
2.33253e-09
2.34341e-09
2.39721e-09
6.20244e-08
1.60284e-07
2.30675e-09
2.34251e-09
2.30982e-09
2.33788e-09
2.33245e-09
2.31376e-09
2.3288e-09
6.20419e-08
1.60309e-07
2.30093e-09
2.29345e-09
2.29526e-09
1.6027e-07
6.20283e-08
1.60285e-07
2.34111e-09
2.37216e-09
2.34544e-09
2.34938e-09
6.20393e-08
1.60265e-07
2.30692e-09
2.33959e-09
2.30903e-09
2.3399e-09
2.32805e-09
2.30495e-09
2.32953e-09
6.2042e-08
1.60308e-07
2.2972e-09
2.29513e-09
2.297e-09
1.60269e-07
6.20301e-08
1.60284e-07
2.3333e-09
2.34848e-09
2.3501e-09
2.34089e-09
6.20339e-08
1.60308e-07
2.30721e-09
2.34094e-09
2.31005e-09
2.34003e-09
2.32936e-09
2.3084e-09
2.3307e-09
6.20424e-08
1.6031e-07
2.29909e-09
2.29447e-09
2.29755e-09
1.6027e-07
6.20274e-08
1.60303e-07
2.32806e-09
2.33346e-09
2.30804e-09
2.32012e-09
6.20422e-08
1.60309e-07
2.30679e-09
2.34304e-09
2.29893e-09
2.34274e-09
2.33204e-09
2.28842e-09
2.33136e-09
6.20417e-08
1.60308e-07
2.30035e-09
2.29477e-09
2.29518e-09
1.6027e-07
6.20312e-08
1.60271e-07
2.30385e-09
2.33613e-09
2.38585e-09
2.43338e-09
6.20715e-08
1.60349e-07
2.29706e-09
2.34382e-09
2.33045e-09
2.33885e-09
2.32874e-09
2.33807e-09
2.33586e-09
6.20424e-08
1.60311e-07
2.29367e-09
2.29025e-09
2.29792e-09
1.60283e-07
6.20691e-08
1.60336e-07
2.33742e-09
2.36932e-09
2.33113e-09
2.39334e-09
6.20187e-08
1.60295e-07
2.32773e-09
2.33929e-09
2.19073e-09
2.34318e-09
2.34681e-09
2.29412e-09
2.33012e-09
6.20438e-08
1.60314e-07
2.31231e-09
2.29196e-09
2.29792e-09
1.60274e-07
6.20238e-08
1.60305e-07
2.36766e-09
2.37593e-09
2.35753e-09
2.34601e-09
6.20347e-08
1.603e-07
2.26557e-09
2.34131e-09
2.31959e-09
2.33983e-09
2.32842e-09
2.31516e-09
2.32934e-09
6.20435e-08
1.60311e-07
2.2987e-09
2.29556e-09
2.2986e-09
1.60272e-07
6.20524e-08
1.60304e-07
2.34839e-09
2.3518e-09
2.3386e-09
2.35054e-09
6.203e-08
1.603e-07
2.30964e-09
2.34107e-09
2.31276e-09
2.34074e-09
2.3293e-09
2.31055e-09
2.32895e-09
6.20442e-08
1.60312e-07
2.30051e-09
2.29594e-09
2.29803e-09
1.60273e-07
6.20524e-08
1.60304e-07
2.34294e-09
2.35312e-09
2.33803e-09
2.34895e-09
6.20304e-08
1.603e-07
2.30628e-09
2.34125e-09
2.31075e-09
2.33904e-09
2.32911e-09
2.31005e-09
2.32839e-09
6.20446e-08
1.60312e-07
2.30004e-09
2.29564e-09
2.30802e-09
1.60272e-07
6.20521e-08
1.60305e-07
2.34073e-09
2.35193e-09
2.33771e-09
2.34952e-09
6.20301e-08
1.60301e-07
2.30526e-09
2.33994e-09
2.31045e-09
2.33961e-09
2.32847e-09
2.31028e-09
2.32891e-09
6.20443e-08
1.60312e-07
2.30711e-09
2.29607e-09
2.30198e-09
1.60272e-07
6.20515e-08
1.60306e-07
2.34182e-09
2.35277e-09
2.33717e-09
2.34911e-09
6.203e-08
1.603e-07
2.30634e-09
2.34081e-09
2.30988e-09
2.33933e-09
2.32857e-09
2.31017e-09
2.32957e-09
6.20442e-08
1.60312e-07
2.30455e-09
2.29531e-09
2.30091e-09
1.60272e-07
6.2052e-08
1.60303e-07
2.34034e-09
2.352e-09
2.33916e-09
2.35065e-09
6.20303e-08
1.60299e-07
2.3049e-09
2.34013e-09
2.31188e-09
2.34078e-09
2.32967e-09
2.31088e-09
2.32912e-09
6.20445e-08
1.6031e-07
2.30364e-09
2.29632e-09
2.30124e-09
1.60272e-07
6.20522e-08
1.60306e-07
2.34148e-09
2.35282e-09
2.33723e-09
2.34899e-09
6.20304e-08
1.60301e-07
2.306e-09
2.34092e-09
2.30997e-09
2.33913e-09
2.32915e-09
2.30958e-09
2.32797e-09
6.20446e-08
1.60313e-07
2.30338e-09
2.29503e-09
2.30013e-09
1.60274e-07
6.20515e-08
1.60305e-07
2.34133e-09
2.35246e-09
2.33785e-09
2.34936e-09
6.203e-08
1.60301e-07
2.30586e-09
2.34056e-09
2.31056e-09
2.33951e-09
2.32845e-09
2.31016e-09
2.32906e-09
6.20441e-08
1.60313e-07
2.30269e-09
2.29562e-09
2.3012e-09
1.60274e-07
6.20516e-08
1.60305e-07
2.34086e-09
2.3521e-09
2.33829e-09
2.34997e-09
6.203e-08
1.603e-07
2.30538e-09
2.34018e-09
2.31098e-09
2.34005e-09
2.3292e-09
2.31092e-09
2.32971e-09
6.20441e-08
1.60312e-07
2.30343e-09
2.2964e-09
2.30184e-09
1.60272e-07
6.20518e-08
1.60306e-07
2.34157e-09
2.35303e-09
2.33775e-09
2.3476e-09
6.20301e-08
1.603e-07
2.30608e-09
2.34086e-09
2.31012e-09
2.33943e-09
2.32962e-09
2.31049e-09
2.3296e-09
6.20442e-08
1.60312e-07
2.30384e-09
2.29587e-09
2.30179e-09
1.60272e-07
6.20518e-08
1.60306e-07
2.34053e-09
2.33182e-09
2.33772e-09
2.35697e-09
6.20311e-08
1.60298e-07
2.30498e-09
2.34014e-09
2.31035e-09
2.33937e-09
2.32872e-09
2.31284e-09
2.32824e-09
6.20443e-08
1.60313e-07
2.30292e-09
2.29525e-09
2.30032e-09
1.60274e-07
6.20514e-08
1.60305e-07
2.34194e-09
2.3479e-09
2.33804e-09
2.35374e-09
6.20321e-08
1.60306e-07
2.30623e-09
2.34038e-09
2.31078e-09
2.34013e-09
2.32856e-09
2.31139e-09
2.32948e-09
6.20441e-08
1.60312e-07
2.30283e-09
2.2961e-09
2.30158e-09
1.60273e-07
6.20512e-08
1.60305e-07
2.34217e-09
2.35664e-09
2.33795e-09
2.35329e-09
6.2026e-08
1.60306e-07
2.30669e-09
2.34129e-09
2.31065e-09
2.33982e-09
2.32965e-09
2.31096e-09
2.32886e-09
6.20439e-08
1.60312e-07
2.3039e-09
2.29625e-09
2.30151e-09
1.60273e-07
6.2052e-08
1.60305e-07
2.34059e-09
2.35578e-09
2.33808e-09
2.35313e-09
6.20265e-08
1.60307e-07
2.30512e-09
2.34022e-09
2.3108e-09
2.34049e-09
2.32914e-09
2.31074e-09
2.32926e-09
6.20444e-08
1.60313e-07
2.30439e-09
2.29198e-09
2.29694e-09
1.60274e-07
6.20517e-08
1.60306e-07
2.34085e-09
2.35579e-09
2.33803e-09
2.35286e-09
6.20262e-08
1.60308e-07
2.30538e-09
2.34044e-09
2.31076e-09
2.33976e-09
2.329e-09
2.31045e-09
2.32906e-09
6.20445e-08
1.60314e-07
2.30402e-09
2.29382e-09
2.29939e-09
1.60274e-07
6.20513e-08
1.60306e-07
2.34166e-09
2.35611e-09
2.33759e-09
2.35308e-09
6.20258e-08
1.60307e-07
2.30618e-09
2.34049e-09
2.31032e-09
2.33995e-09
2.32939e-09
2.31093e-09
2.32923e-09
6.20441e-08
1.60313e-07
2.3054e-09
2.29434e-09
2.29961e-09
1.60274e-07
6.20514e-08
1.60304e-07
2.34164e-09
2.35648e-09
2.33851e-09
2.35349e-09
6.2026e-08
1.60306e-07
2.30618e-09
2.34085e-09
2.31123e-09
2.34033e-09
2.32896e-09
2.31111e-09
2.33007e-09
6.20443e-08
1.60312e-07
2.30499e-09
2.29452e-09
2.30047e-09
1.60273e-07
6.20517e-08
1.60306e-07
2.34162e-09
2.35604e-09
2.33783e-09
2.35256e-09
6.20264e-08
1.60307e-07
2.30614e-09
2.34038e-09
2.31048e-09
2.33913e-09
2.32803e-09
2.31097e-09
2.32859e-09
6.20447e-08
1.60313e-07
2.3041e-09
2.29501e-09
2.29952e-09
1.60274e-07
6.20517e-08
1.60306e-07
2.34136e-09
2.35513e-09
2.34979e-09
2.34607e-09
6.20263e-08
1.60306e-07
2.30554e-09
2.33923e-09
2.30686e-09
2.33951e-09
2.32717e-09
2.31281e-09
2.30414e-09
6.20443e-08
1.60313e-07
2.30473e-09
2.29179e-09
2.28147e-09
1.60275e-07
6.20485e-08
1.60313e-07
2.34184e-09
2.35808e-09
2.29109e-09
2.35055e-09
6.20265e-08
1.60326e-07
2.29167e-09
2.33999e-09
2.28002e-09
2.34564e-09
2.30663e-09
2.29501e-09
2.3667e-09
6.20437e-08
1.60315e-07
2.21544e-09
2.29451e-09
2.30447e-09
1.60278e-07
6.20388e-08
1.60305e-07
2.33735e-09
2.31662e-09
2.34136e-09
2.34104e-09
6.20369e-08
1.60337e-07
2.21126e-09
2.34671e-09
2.32651e-09
2.34076e-09
2.34235e-09
2.30223e-09
2.33162e-09
6.20439e-08
1.60314e-07
2.32228e-09
2.30077e-09
2.30029e-09
1.60274e-07
6.20396e-08
1.60298e-07
2.33825e-09
2.36381e-09
2.3347e-09
2.36103e-09
6.20728e-08
1.60327e-07
2.29203e-09
2.34074e-09
2.31995e-09
2.33927e-09
2.33007e-09
2.31158e-09
2.32908e-09
6.2044e-08
1.60315e-07
2.30333e-09
2.29932e-09
2.29798e-09
1.60275e-07
6.20342e-08
1.60296e-07
2.33631e-09
2.35455e-09
2.3348e-09
2.35048e-09
6.20443e-08
1.60328e-07
2.292e-09
2.34006e-09
2.32201e-09
2.34041e-09
2.32834e-09
2.30938e-09
2.33022e-09
6.20439e-08
1.60314e-07
2.3029e-09
2.30081e-09
2.29999e-09
1.60273e-07
6.20351e-08
1.60295e-07
2.33541e-09
2.35013e-09
2.33508e-09
2.35004e-09
6.20435e-08
1.60327e-07
2.29255e-09
2.34096e-09
2.32012e-09
2.34065e-09
2.3297e-09
2.3089e-09
2.32984e-09
6.20444e-08
1.60313e-07
2.30485e-09
2.29815e-09
2.29984e-09
1.60273e-07
6.2035e-08
1.60295e-07
2.33571e-09
2.34957e-09
2.33416e-09
2.34968e-09
6.20434e-08
1.60328e-07
2.29221e-09
2.34072e-09
2.32303e-09
2.34037e-09
2.32892e-09
2.3083e-09
2.32944e-09
6.20445e-08
1.60314e-07
2.30431e-09
2.30108e-09
2.30216e-09
1.60274e-07
6.20349e-08
1.60296e-07
2.33553e-09
2.34928e-09
2.33391e-09
2.34914e-09
6.20434e-08
1.60328e-07
2.29298e-09
2.34072e-09
2.32364e-09
2.34056e-09
2.32797e-09
2.30791e-09
2.32962e-09
6.20444e-08
1.60315e-07
2.30369e-09
2.29964e-09
2.29818e-09
1.60275e-07
6.20349e-08
1.60296e-07
2.33512e-09
2.34897e-09
2.33444e-09
2.3498e-09
6.20432e-08
1.60328e-07
2.29298e-09
2.34094e-09
2.32311e-09
2.34087e-09
2.32838e-09
2.30852e-09
2.33005e-09
6.20444e-08
1.60314e-07
2.30623e-09
2.29404e-09
2.29953e-09
1.60274e-07
6.20355e-08
1.60296e-07
2.33442e-09
2.34853e-09
2.33451e-09
2.34982e-09
6.20436e-08
1.60327e-07
2.29187e-09
2.34005e-09
2.32311e-09
2.34072e-09
2.32817e-09
2.30918e-09
2.33084e-09
6.2045e-08
1.60314e-07
2.30413e-09
2.29487e-09
2.30102e-09
1.60273e-07
6.2035e-08
1.60297e-07
2.33513e-09
2.34933e-09
2.33384e-09
2.34916e-09
6.20431e-08
1.60328e-07
2.29248e-09
2.34077e-09
2.32249e-09
2.34002e-09
2.32847e-09
2.30795e-09
2.32939e-09
6.20445e-08
1.60315e-07
2.30463e-09
2.29365e-09
2.2996e-09
1.60275e-07
6.20346e-08
1.60297e-07
2.33555e-09
2.34942e-09
2.33391e-09
2.34929e-09
6.2043e-08
1.60329e-07
2.29296e-09
2.34082e-09
2.32258e-09
2.34007e-09
2.32812e-09
2.30842e-09
2.32942e-09
6.20443e-08
1.60315e-07
2.30436e-09
2.29479e-09
2.30088e-09
1.60275e-07
6.20348e-08
1.60296e-07
2.33519e-09
2.34964e-09
2.33428e-09
2.34963e-09
6.20432e-08
1.60328e-07
2.29266e-09
2.34098e-09
2.32302e-09
2.34058e-09
2.32892e-09
2.30852e-09
2.32971e-09
6.20445e-08
1.60314e-07
2.30871e-09
2.29444e-09
2.30024e-09
1.60274e-07
6.20349e-08
1.60295e-07
2.33477e-09
2.34892e-09
2.33418e-09
2.35013e-09
6.20433e-08
1.60328e-07
2.29238e-09
2.34047e-09
2.3234e-09
2.34068e-09
2.32814e-09
2.30868e-09
2.32913e-09
6.20445e-08
1.60314e-07
2.3026e-09
2.29497e-09
2.30147e-09
1.60274e-07
6.20349e-08
1.60296e-07
2.33487e-09
2.34974e-09
2.33233e-09
2.35424e-09
6.20431e-08
1.6033e-07
2.29312e-09
2.34086e-09
2.3147e-09
2.33993e-09
2.32799e-09
2.31246e-09
2.32751e-09
6.20445e-08
1.60314e-07
2.3041e-09
2.29527e-09
2.30162e-09
1.60275e-07
6.20354e-08
1.60294e-07
2.33265e-09
2.36281e-09
2.32953e-09
2.3282e-09
6.20416e-08
1.60345e-07
2.3078e-09
2.34089e-09
2.31264e-09
2.34104e-09
2.32679e-09
2.30838e-09
2.32806e-09
6.20446e-08
1.60313e-07
2.30438e-09
2.29634e-09
2.30325e-09
1.60273e-07
6.20359e-08
1.60296e-07
2.33137e-09
2.30793e-09
2.33144e-09
2.34158e-09
6.203e-08
1.60329e-07
2.30753e-09
2.3421e-09
2.31021e-09
2.34036e-09
2.32879e-09
2.30544e-09
2.32534e-09
6.20445e-08
1.60313e-07
2.30648e-09
2.29528e-09
2.29625e-09
1.60275e-07
6.20345e-08
1.60296e-07
2.33349e-09
2.34514e-09
2.33295e-09
2.34846e-09
6.20414e-08
1.60329e-07
2.30526e-09
2.34273e-09
2.30935e-09
2.33763e-09
2.31936e-09
2.30979e-09
2.34024e-09
6.20437e-08
1.60311e-07
2.28808e-09
2.29542e-09
2.3046e-09
1.60284e-07
6.20343e-08
1.60295e-07
2.33418e-09
2.34886e-09
2.33382e-09
2.34976e-09
6.2042e-08
1.60329e-07
2.30424e-09
2.33848e-09
2.30977e-09
2.33762e-09
2.3418e-09
2.3098e-09
2.34067e-09
6.20443e-08
1.60311e-07
2.30446e-09
2.29465e-09
2.30434e-09
1.60285e-07
6.20348e-08
1.60293e-07
2.33425e-09
2.34894e-09
2.33435e-09
2.35043e-09
6.20425e-08
1.60327e-07
2.30401e-09
2.33795e-09
2.31022e-09
2.3382e-09
2.341e-09
2.31053e-09
2.34122e-09
6.20447e-08
1.60309e-07
2.30341e-09
2.29536e-09
2.30492e-09
1.60285e-07
6.20349e-08
1.60294e-07
2.33453e-09
2.34929e-09
2.33468e-09
2.35041e-09
6.20426e-08
1.60328e-07
2.30424e-09
2.33822e-09
2.31055e-09
2.33825e-09
2.34055e-09
2.31066e-09
2.34187e-09
6.20448e-08
1.6031e-07
2.30305e-09
2.29525e-09
2.30579e-09
1.60285e-07
6.20348e-08
1.60293e-07
2.33551e-09
2.34997e-09
2.33436e-09
2.35035e-09
6.20426e-08
1.60327e-07
2.30519e-09
2.33906e-09
2.31026e-09
2.33822e-09
2.34141e-09
2.31085e-09
2.34264e-09
6.20447e-08
1.60309e-07
2.30381e-09
2.29512e-09
2.30479e-09
1.60283e-07
6.20348e-08
1.60294e-07
2.33563e-09
2.35008e-09
2.33372e-09
2.34996e-09
6.20425e-08
1.60327e-07
2.30538e-09
2.33908e-09
2.30956e-09
2.3378e-09
2.34191e-09
2.31081e-09
2.34294e-09
6.20447e-08
1.60309e-07
2.30635e-09
2.29546e-09
2.30635e-09
1.60282e-07
6.2035e-08
1.60294e-07
2.33485e-09
2.34995e-09
2.33411e-09
2.34968e-09
6.20427e-08
1.60328e-07
2.30451e-09
2.33895e-09
2.30997e-09
2.33747e-09
2.34214e-09
2.30996e-09
2.34163e-09
6.20449e-08
1.6031e-07
2.30448e-09
2.29473e-09
2.30532e-09
1.60284e-07
6.2035e-08
1.60295e-07
2.33469e-09
2.3496e-09
2.33321e-09
2.34922e-09
6.20424e-08
1.60329e-07
2.30434e-09
2.33859e-09
2.30912e-09
2.33701e-09
2.34208e-09
2.3094e-09
2.34106e-09
6.20446e-08
1.60311e-07
2.30448e-09
2.29409e-09
2.30386e-09
1.60285e-07
6.20344e-08
1.60293e-07
2.33537e-09
2.34994e-09
2.33443e-09
2.34996e-09
6.20423e-08
1.60327e-07
2.30511e-09
2.33888e-09
2.30954e-09
2.33777e-09
2.34173e-09
2.31063e-09
2.3422e-09
6.20444e-08
1.60309e-07
2.30523e-09
2.29543e-09
2.3066e-09
1.60283e-07
6.20348e-08
1.60295e-07
2.33532e-09
2.34991e-09
2.33335e-09
2.34908e-09
6.20425e-08
1.60328e-07
2.30566e-09
2.33891e-09
2.30905e-09
2.33688e-09
2.34264e-09
2.30978e-09
2.34065e-09
6.20447e-08
1.6031e-07
2.30571e-09
2.29454e-09
2.30491e-09
1.60284e-07
6.2035e-08
1.60295e-07
2.33442e-09
2.34912e-09
2.33337e-09
2.34888e-09
6.20426e-08
1.60328e-07
2.30396e-09
2.33807e-09
2.30902e-09
2.33667e-09
2.34246e-09
2.30976e-09
2.34015e-09
6.20448e-08
1.60311e-07
2.30548e-09
2.29453e-09
2.30436e-09
1.60285e-07
6.20347e-08
1.60294e-07
2.3348e-09
2.349e-09
2.33347e-09
2.34986e-09
6.20424e-08
1.60328e-07
2.30425e-09
2.33796e-09
2.30871e-09
2.33779e-09
2.3415e-09
2.30927e-09
2.34047e-09
6.20446e-08
1.60311e-07
2.30444e-09
2.29388e-09
2.30454e-09
1.60286e-07
6.20347e-08
1.60293e-07
2.33513e-09
2.35003e-09
2.33473e-09
2.35063e-09
6.20424e-08
1.60327e-07
2.30407e-09
2.33933e-09
2.3088e-09
2.34048e-09
2.34153e-09
2.30935e-09
2.34317e-09
6.20443e-08
1.60311e-07
2.30437e-09
2.29545e-09
2.30544e-09
1.60285e-07
6.20347e-08
1.60292e-07
2.33694e-09
2.35044e-09
2.33536e-09
2.35283e-09
6.2043e-08
1.60325e-07
2.30449e-09
2.34257e-09
2.30859e-09
2.34516e-09
2.34277e-09
2.31063e-09
2.35049e-09
6.20448e-08
1.60302e-07
2.30118e-09
2.26332e-09
2.29166e-09
1.60276e-07
6.20353e-08
1.60291e-07
2.33663e-09
2.35189e-09
2.33664e-09
2.35205e-09
6.20434e-08
1.60326e-07
2.30391e-09
2.34338e-09
2.31085e-09
2.33912e-09
2.34862e-09
2.31054e-09
2.34202e-09
6.20473e-08
1.60306e-07
2.28853e-09
2.28732e-09
2.29607e-09
1.60281e-07
6.20344e-08
1.60293e-07
2.33741e-09
2.35215e-09
2.33384e-09
2.34995e-09
6.20419e-08
1.60326e-07
2.30577e-09
2.33994e-09
2.3089e-09
2.33713e-09
2.34314e-09
2.30994e-09
2.34073e-09
6.2043e-08
1.60308e-07
2.30006e-09
2.29157e-09
2.29047e-09
1.60284e-07
6.2033e-08
1.60292e-07
2.33653e-09
2.35049e-09
2.3333e-09
2.34992e-09
6.20411e-08
1.60324e-07
2.30564e-09
2.3388e-09
2.30881e-09
2.33745e-09
2.34062e-09
2.31099e-09
2.34203e-09
6.20429e-08
1.60307e-07
2.31239e-09
2.29599e-09
2.298e-09
1.60281e-07
6.20335e-08
1.60292e-07
2.33465e-09
2.34927e-09
2.33334e-09
2.34971e-09
6.20416e-08
1.60326e-07
2.30409e-09
2.33798e-09
2.30903e-09
2.33747e-09
2.34187e-09
2.3098e-09
2.34154e-09
6.20436e-08
1.60308e-07
2.31963e-09
2.29564e-09
2.30524e-09
1.60281e-07
6.20333e-08
1.60292e-07
2.33491e-09
2.34921e-09
2.33304e-09
2.34979e-09
6.20412e-08
1.60326e-07
2.30449e-09
2.33818e-09
2.30881e-09
2.33758e-09
2.34211e-09
2.30976e-09
2.34073e-09
6.20433e-08
1.60308e-07
2.3046e-09
2.29537e-09
2.30484e-09
1.60282e-07
6.20327e-08
1.60291e-07
2.33553e-09
2.35021e-09
2.33393e-09
2.35027e-09
6.20409e-08
1.60325e-07
2.30517e-09
2.33921e-09
2.30965e-09
2.33797e-09
2.34183e-09
2.30999e-09
2.34118e-09
6.2043e-08
1.60307e-07
2.30411e-09
2.29586e-09
2.30573e-09
1.60282e-07
6.20335e-08
1.60291e-07
2.33508e-09
2.3496e-09
2.33372e-09
2.35031e-09
6.20414e-08
1.60324e-07
2.30466e-09
2.33856e-09
2.30946e-09
2.33802e-09
2.3426e-09
2.31055e-09
2.34212e-09
6.20434e-08
1.60306e-07
2.30522e-09
2.29654e-09
2.30635e-09
1.60279e-07
6.20335e-08
1.60293e-07
2.33571e-09
2.34979e-09
2.33278e-09
2.34928e-09
6.20415e-08
1.60326e-07
2.30527e-09
2.33877e-09
2.30855e-09
2.33693e-09
2.34152e-09
2.31015e-09
2.34127e-09
6.20436e-08
1.60308e-07
2.30344e-09
2.29727e-09
2.30616e-09
1.60281e-07
6.20332e-08
1.60293e-07
2.33466e-09
2.34944e-09
2.33311e-09
2.34904e-09
6.2041e-08
1.60327e-07
2.30427e-09
2.33843e-09
2.30886e-09
2.33682e-09
2.34208e-09
2.30985e-09
2.34071e-09
6.20432e-08
1.60309e-07
2.30483e-09
2.29457e-09
2.30483e-09
1.60282e-07
6.20331e-08
1.60291e-07
2.33491e-09
2.34909e-09
2.33429e-09
2.35059e-09
6.20411e-08
1.60324e-07
2.30456e-09
2.33803e-09
2.31007e-09
2.33835e-09
2.34134e-09
2.31159e-09
2.34248e-09
6.20433e-08
1.60306e-07
2.30419e-09
2.29639e-09
2.3067e-09
1.6028e-07
6.20333e-08
1.60291e-07
2.3362e-09
2.35036e-09
2.33327e-09
2.34955e-09
6.20413e-08
1.60324e-07
2.30583e-09
2.33928e-09
2.309e-09
2.3373e-09
2.34237e-09
2.31004e-09
2.34131e-09
6.20435e-08
1.60306e-07
2.30528e-09
2.29484e-09
2.30547e-09
1.60281e-07
6.20334e-08
1.60293e-07
2.33492e-09
2.34901e-09
2.33321e-09
2.34959e-09
6.20415e-08
1.60326e-07
2.30448e-09
2.33792e-09
2.30893e-09
2.33735e-09
2.34151e-09
2.31009e-09
2.34037e-09
6.20437e-08
1.60308e-07
2.30438e-09
2.2949e-09
2.3045e-09
1.60282e-07
6.20332e-08
1.6029e-07
2.33461e-09
2.34931e-09
2.33421e-09
2.35035e-09
6.20412e-08
1.60324e-07
2.30421e-09
2.33826e-09
2.31053e-09
2.33813e-09
2.34079e-09
2.31029e-09
2.34196e-09
6.20433e-08
1.60306e-07
2.30359e-09
2.29508e-09
2.30616e-09
1.6028e-07
6.20336e-08
1.60291e-07
2.33509e-09
2.34999e-09
2.33355e-09
2.3498e-09
6.20415e-08
1.60325e-07
2.30647e-09
2.339e-09
2.32176e-09
2.3375e-09
2.34244e-09
2.31044e-09
2.34136e-09
6.20437e-08
1.60307e-07
2.30535e-09
2.29526e-09
2.30554e-09
1.60281e-07
6.2033e-08
1.60291e-07
2.33557e-09
2.34988e-09
2.33288e-09
2.34975e-09
6.20414e-08
1.60325e-07
2.29271e-09
2.33872e-09
2.32125e-09
2.33753e-09
2.34158e-09
2.30999e-09
2.34096e-09
6.20436e-08
1.60307e-07
2.30449e-09
2.29478e-09
2.3051e-09
1.60281e-07
6.20329e-08
1.60291e-07
2.33478e-09
2.34941e-09
2.33369e-09
2.34975e-09
6.20414e-08
1.60326e-07
2.29198e-09
2.33827e-09
2.32208e-09
2.33788e-09
2.34147e-09
2.31002e-09
2.34143e-09
6.20436e-08
1.60307e-07
2.3043e-09
2.29481e-09
2.30554e-09
1.60282e-07
6.20329e-08
1.60291e-07
2.33502e-09
2.34983e-09
2.33403e-09
2.35009e-09
6.2041e-08
1.60325e-07
2.29231e-09
2.34138e-09
2.3223e-09
2.34361e-09
2.34202e-09
2.31089e-09
2.34198e-09
6.20429e-08
1.60342e-07
2.30485e-09
2.29546e-09
2.3062e-09
1.60281e-07
6.20329e-08
1.6029e-07
2.33595e-09
2.34969e-09
2.3336e-09
2.34957e-09
6.20414e-08
1.60325e-07
2.29316e-09
2.33255e-09
2.32191e-09
2.34321e-09
2.34196e-09
2.31014e-09
2.34112e-09
6.204e-08
1.60342e-07
2.30487e-09
2.29482e-09
2.30531e-09
1.6028e-07
6.20332e-08
1.60293e-07
2.33507e-09
2.34933e-09
2.3326e-09
2.34962e-09
6.20414e-08
1.60326e-07
2.29234e-09
2.33223e-09
2.32092e-09
2.34323e-09
2.34175e-09
2.30953e-09
2.341e-09
6.204e-08
1.60344e-07
2.30462e-09
2.29408e-09
2.30523e-09
1.60282e-07
6.20327e-08
1.60293e-07
2.33492e-09
2.34903e-09
2.33288e-09
2.34928e-09
6.20411e-08
1.60326e-07
2.29219e-09
2.33206e-09
2.32112e-09
2.34564e-09
2.34098e-09
2.31056e-09
2.34208e-09
6.20397e-08
1.60342e-07
2.30371e-09
2.29529e-09
2.30603e-09
1.60281e-07
6.20324e-08
1.60292e-07
2.33568e-09
2.34943e-09
2.33363e-09
2.34997e-09
6.20409e-08
1.60325e-07
2.29277e-09
2.33389e-09
2.32181e-09
2.33691e-09
2.34268e-09
2.31038e-09
2.34384e-09
6.2043e-08
1.60318e-07
2.30546e-09
2.2946e-09
2.31011e-09
1.6028e-07
6.20329e-08
1.60293e-07
2.33522e-09
2.34996e-09
2.34099e-09
2.35778e-09
6.20412e-08
1.60324e-07
2.2925e-09
2.33737e-09
2.32562e-09
2.35863e-09
2.35156e-09
2.32003e-09
2.34324e-09
6.20437e-08
1.60308e-07
2.31818e-09
2.30983e-09
2.31218e-09
1.60271e-07
6.20294e-08
1.60292e-07
2.35474e-09
2.34793e-09
2.78694e-09
2.79174e-09
6.20378e-08
1.60293e-07
2.29309e-09
2.37217e-09
2.82801e-09
2.81199e-09
2.33684e-09
2.72747e-09
2.73114e-09
6.20404e-08
1.60284e-07
2.30073e-09
2.74516e-09
2.69041e-09
1.60236e-07
6.20748e-08
1.59934e-07
3.39866e-09
3.44602e-09
1.7292e-08
1.72811e-08
6.2055e-08
1.59936e-07
3.42423e-09
3.38154e-09
1.73345e-08
1.73864e-08
3.37699e-09
1.7234e-08
1.72879e-08
6.20655e-08
1.59943e-07
3.38083e-09
1.72751e-08
1.72284e-08
1.59912e-07
6.1812e-08
1.44815e-07
3.58485e-08
3.58273e-08
1.22145e-07
1.22249e-07
6.18219e-08
1.44814e-07
3.57486e-08
3.59229e-08
1.22543e-07
1.22257e-07
3.5886e-08
1.2262e-07
1.22332e-07
6.18813e-08
1.44798e-07
3.57733e-08
1.22484e-07
1.22574e-07
1.44767e-07
2.50654e-07
1.56425e-07
1.56338e-07
2.50587e-07
1.56508e-07
1.56386e-07
2.73097e-07
2.73189e-07
2.73201e-07
1.56446e-07
2.50591e-07
1.56525e-07
8.73682e-08
2.95681e-07
1.94104e-07
1.94151e-07
4.83211e-07
3.80609e-07
3.32733e-07
2.50373e-07
4.83176e-07
3.8063e-07
2.50371e-07
3.32597e-07
4.89076e-07
3.38057e-07
3.38082e-07
1.61473e-06
0.000119087
1.73719e-06
0.000121659
0.000244577
0.000252835
1.61536e-06
0.000119104
1.73569e-06
0.000121677
5.61214e-07
5.6113e-07
5.61212e-07
7.7542e-08
7.74757e-08
7.75135e-08
7.75721e-08
1.37533e-07
2.21157e-06
5.54262e-07
3.3345e-07
9.85231e-08
2.08366e-06
3.18986e-07
0.00024457
0.00025282
1.38118e-07
5.53775e-07
2.21109e-06
3.33417e-07
9.84878e-08
3.18704e-07
2.08349e-06
4.80646e-06
4.80636e-06
1.60317e-07
4.4272e-06
4.42852e-06
1.55765e-06
0.000121512
1.55414e-06
0.000121512
0.000252967
0.000252963
1.55789e-06
0.000121529
1.55434e-06
0.00012153
3.6936e-08
3.692e-08
3.69511e-08