/*--------------------------------*- C++ -*----------------------------------*\
| =========                 |                                                 |
| \\      /  F ield         | OpenFOAM: The Open Source CFD Toolbox           |
|  \\    /   O peration     | Version:  v1912                                 |
|   \\  /    A nd           | Website:  www.openfoam.com                      |
|    \\/     M anipulation  |                                                 |
\*---------------------------------------------------------------------------*/
FoamFile
{
    version     2.0;
    format      ascii;
    class       volScalarField;
    location    "0.75";
    object      p;
}
// * * * * * * * * * * * * * * * * * * * * * * * * * * * * * * * * * * * * * //

dimensions      [0 2 -2 0 0 0 0];


internalField   nonuniform List<scalar> 
171728
(
0.021481
0.0214847
0.0214847
0.0215007
0.0212554
0.0212555
0.0212555
0.0212695
0.0210277
0.0210277
0.0210277
0.0210417
0.0208
0.0208
0.0208
0.020814
0.0205723
0.0205722
0.0205722
0.0205862
0.0203445
0.0203445
0.0203445
0.0203585
0.0201168
0.0201167
0.0201167
0.0201307
0.019889
0.019889
0.019889
0.019903
0.0196613
0.0196612
0.0196612
0.0196752
0.0194335
0.0194335
0.0194335
0.0194475
0.0192058
0.0192057
0.0192057
0.0192197
0.0189781
0.018978
0.018978
0.018992
0.0187503
0.0187502
0.0187502
0.0187642
0.0185226
0.0185225
0.0185225
0.0185365
0.0182948
0.0182948
0.0182948
0.0183087
0.0180671
0.018067
0.018067
0.018081
0.0178393
0.0178393
0.0178393
0.0178533
0.0176116
0.0176115
0.0176115
0.0176255
0.0173838
0.0173838
0.0173838
0.0173978
0.0171561
0.017156
0.017156
0.01717
0.0169283
0.0169283
0.0169283
0.0169423
0.0167006
0.0167005
0.0167005
0.0167145
0.0164728
0.0164728
0.0164728
0.0164868
0.0162451
0.016245
0.016245
0.016259
0.0160173
0.0160173
0.0160173
0.0160313
0.0157896
0.0157895
0.0157895
0.0158035
0.0155618
0.0155618
0.0155618
0.0155758
0.0153341
0.015334
0.015334
0.015348
0.0151064
0.0151063
0.0151063
0.0151203
0.0148786
0.0148785
0.0148785
0.0148925
0.0146509
0.0146508
0.0146508
0.0146648
0.0144231
0.0144231
0.0144231
0.014437
0.0141954
0.0141953
0.0141953
0.0142093
0.0139676
0.0139676
0.0139676
0.0139816
0.0137399
0.0137398
0.0137398
0.0137538
0.0135121
0.0135121
0.0135121
0.0135261
0.0132844
0.0132843
0.0132843
0.0132983
0.0130566
0.0130566
0.0130566
0.0130706
0.0128289
0.0128288
0.0128288
0.0128428
0.0126011
0.0126011
0.0126011
0.0126151
0.0123734
0.0123733
0.0123733
0.0123873
0.0121456
0.0121456
0.0121456
0.0121596
0.0119179
0.0119178
0.0119178
0.0119318
0.0116901
0.0116901
0.0116901
0.0117041
0.0114624
0.0114623
0.0114623
0.0114763
0.0112347
0.0112346
0.0112346
0.0112486
0.0110069
0.0110068
0.0110068
0.0110208
0.0107792
0.0107791
0.0107791
0.0107931
0.0105514
0.0105514
0.0105514
0.0105653
0.0103237
0.0103236
0.0103236
0.0103376
0.0100959
0.0100959
0.0100959
0.0101099
0.00986817
0.00986811
0.00986811
0.0098821
0.00964042
0.00964036
0.00964036
0.00965436
0.00941268
0.00941262
0.00941262
0.00942661
0.00918493
0.00918487
0.00918487
0.00919886
0.00895718
0.00895712
0.00895712
0.00897112
0.00872944
0.00872938
0.00872938
0.00874337
0.00850169
0.00850163
0.00850163
0.00851562
0.00827394
0.00827388
0.00827388
0.00828788
0.0080462
0.00804614
0.00804614
0.00806013
0.00781845
0.00781839
0.00781839
0.00783238
0.0075907
0.00759064
0.00759064
0.00760463
0.00736295
0.00736289
0.00736289
0.00737689
0.00713521
0.00713515
0.00713515
0.00714914
0.00690746
0.0069074
0.0069074
0.00692139
0.00667971
0.00667965
0.00667965
0.00669364
0.00645197
0.0064519
0.00645191
0.0064659
0.00622422
0.00622416
0.00622416
0.00623815
0.00599647
0.00599641
0.00599641
0.0060104
0.00576872
0.00576866
0.00576866
0.00578266
0.00554098
0.00554092
0.00554092
0.00555491
0.00531323
0.00531317
0.00531317
0.00532716
0.00508548
0.00508542
0.00508542
0.00509942
0.00485774
0.00485768
0.00485768
0.00487167
0.00462999
0.00462993
0.00462993
0.00464392
0.00440224
0.00440218
0.00440218
0.00441618
0.0041745
0.00417444
0.00417444
0.00418843
0.00394675
0.00394669
0.00394669
0.00396068
0.003719
0.00371894
0.00371894
0.00373293
0.00349125
0.00349119
0.00349119
0.00350519
0.00326351
0.00326345
0.00326345
0.00327744
0.00303576
0.0030357
0.0030357
0.00304969
0.00280801
0.00280795
0.00280795
0.00282195
0.00258027
0.00258021
0.00258021
0.0025942
0.00235252
0.00235246
0.00235246
0.00236645
0.00212477
0.00212471
0.00212471
0.0021387
0.00189702
0.00189696
0.00189696
0.00191096
0.00166928
0.00166922
0.00166922
0.00168321
0.00144153
0.00144147
0.00144147
0.00145546
0.00121378
0.00121372
0.00121372
0.00122772
0.000986036
0.000985976
0.000985977
0.000999969
0.000758288
0.00075823
0.00075823
0.000772223
0.000530553
0.000530491
0.000530492
0.000544477
0.000303494
0.000302908
0.000302918
0.000316784
9.04536e-05
9.76237e-05
9.76442e-05
9.79628e-05
0.0215318
0.0215274
0.0215274
0.0215318
0.0215274
0.0215274
0.0215346
0.0215346
0.0215346
0.0215346
0.0215274
0.0215274
0.0215318
0.0215274
0.0215274
0.0215318
0.0215007
0.0212985
0.0214847
0.0214847
0.0213125
0.0213124
0.0215007
0.0212985
0.0214847
0.0214847
0.0213124
0.0213124
0.0214847
0.0213124
0.0213124
0.0215007
0.0212985
0.0214847
0.0213124
0.0213124
0.0212985
0.0212695
0.0210707
0.0212555
0.0212555
0.0210847
0.0210847
0.0212695
0.0210707
0.0212555
0.0212555
0.0210847
0.0210847
0.0212555
0.0210847
0.0210847
0.0212695
0.0210707
0.0212555
0.0210847
0.0210847
0.0210707
0.0210417
0.020843
0.0210277
0.0210277
0.0208569
0.0208569
0.0210417
0.020843
0.0210277
0.0210277
0.0208569
0.0208569
0.0210277
0.0208569
0.0208569
0.0210417
0.020843
0.0210277
0.0208569
0.0208569
0.020843
0.020814
0.0206152
0.0208
0.0208
0.0206292
0.0206292
0.020814
0.0206152
0.0208
0.0208
0.0206292
0.0206292
0.0208
0.0206292
0.0206292
0.020814
0.0206152
0.0208
0.0206292
0.0206292
0.0206152
0.0205862
0.0203875
0.0205722
0.0205722
0.0204014
0.0204014
0.0205862
0.0203875
0.0205722
0.0205722
0.0204014
0.0204014
0.0205722
0.0204014
0.0204014
0.0205862
0.0203875
0.0205722
0.0204014
0.0204014
0.0203875
0.0203585
0.0201597
0.0203445
0.0203445
0.0201737
0.0201737
0.0203585
0.0201597
0.0203445
0.0203445
0.0201737
0.0201737
0.0203445
0.0201737
0.0201737
0.0203585
0.0201597
0.0203445
0.0201737
0.0201737
0.0201597
0.0201307
0.019932
0.0201167
0.0201167
0.0199459
0.0199459
0.0201307
0.019932
0.0201167
0.0201167
0.0199459
0.0199459
0.0201167
0.0199459
0.0199459
0.0201307
0.019932
0.0201167
0.0199459
0.0199459
0.019932
0.019903
0.0197042
0.019889
0.019889
0.0197182
0.0197182
0.019903
0.0197042
0.019889
0.019889
0.0197182
0.0197182
0.019889
0.0197182
0.0197182
0.019903
0.0197042
0.019889
0.0197182
0.0197182
0.0197042
0.0196752
0.0194765
0.0196612
0.0196612
0.0194904
0.0194904
0.0196752
0.0194765
0.0196612
0.0196612
0.0194904
0.0194904
0.0196612
0.0194904
0.0194904
0.0196752
0.0194765
0.0196612
0.0194904
0.0194904
0.0194765
0.0194475
0.0192487
0.0194335
0.0194335
0.0192627
0.0192627
0.0194475
0.0192487
0.0194335
0.0194335
0.0192627
0.0192627
0.0194335
0.0192627
0.0192627
0.0194475
0.0192487
0.0194335
0.0192627
0.0192627
0.0192487
0.0192197
0.019021
0.0192057
0.0192057
0.0190349
0.0190349
0.0192197
0.019021
0.0192057
0.0192057
0.0190349
0.0190349
0.0192057
0.0190349
0.0190349
0.0192197
0.019021
0.0192057
0.0190349
0.0190349
0.019021
0.018992
0.0187932
0.018978
0.018978
0.0188072
0.0188072
0.018992
0.0187932
0.018978
0.018978
0.0188072
0.0188072
0.018978
0.0188072
0.0188072
0.018992
0.0187932
0.018978
0.0188072
0.0188072
0.0187932
0.0187642
0.0185655
0.0187502
0.0187502
0.0185794
0.0185794
0.0187642
0.0185655
0.0187502
0.0187502
0.0185794
0.0185794
0.0187502
0.0185794
0.0185794
0.0187642
0.0185655
0.0187502
0.0185794
0.0185794
0.0185655
0.0185365
0.0183377
0.0185225
0.0185225
0.0183517
0.0183517
0.0185365
0.0183377
0.0185225
0.0185225
0.0183517
0.0183517
0.0185225
0.0183517
0.0183517
0.0185365
0.0183377
0.0185225
0.0183517
0.0183517
0.0183377
0.0183087
0.01811
0.0182948
0.0182948
0.0181239
0.0181239
0.0183087
0.01811
0.0182948
0.0182948
0.0181239
0.0181239
0.0182948
0.0181239
0.0181239
0.0183087
0.01811
0.0182948
0.0181239
0.0181239
0.01811
0.018081
0.0178822
0.018067
0.018067
0.0178962
0.0178962
0.018081
0.0178822
0.018067
0.018067
0.0178962
0.0178962
0.018067
0.0178962
0.0178962
0.018081
0.0178822
0.018067
0.0178962
0.0178962
0.0178822
0.0178533
0.0176545
0.0178393
0.0178393
0.0176684
0.0176684
0.0178533
0.0176545
0.0178393
0.0178393
0.0176684
0.0176684
0.0178393
0.0176684
0.0176684
0.0178533
0.0176545
0.0178393
0.0176684
0.0176684
0.0176545
0.0176255
0.0174268
0.0176115
0.0176115
0.0174407
0.0174407
0.0176255
0.0174268
0.0176115
0.0176115
0.0174407
0.0174407
0.0176115
0.0174407
0.0174407
0.0176255
0.0174268
0.0176115
0.0174407
0.0174407
0.0174268
0.0173978
0.017199
0.0173838
0.0173838
0.017213
0.0172129
0.0173978
0.017199
0.0173838
0.0173838
0.017213
0.017213
0.0173838
0.017213
0.017213
0.0173978
0.017199
0.0173838
0.017213
0.017213
0.017199
0.01717
0.0169713
0.017156
0.017156
0.0169852
0.0169852
0.01717
0.0169713
0.017156
0.017156
0.0169852
0.0169852
0.017156
0.0169852
0.0169852
0.01717
0.0169713
0.017156
0.0169852
0.0169852
0.0169713
0.0169423
0.0167435
0.0169283
0.0169283
0.0167575
0.0167575
0.0169423
0.0167435
0.0169283
0.0169283
0.0167575
0.0167575
0.0169283
0.0167575
0.0167575
0.0169423
0.0167435
0.0169283
0.0167575
0.0167575
0.0167435
0.0167145
0.0165158
0.0167005
0.0167005
0.0165297
0.0165297
0.0167145
0.0165158
0.0167005
0.0167005
0.0165297
0.0165297
0.0167005
0.0165297
0.0165297
0.0167145
0.0165158
0.0167005
0.0165297
0.0165297
0.0165158
0.0164868
0.016288
0.0164728
0.0164728
0.016302
0.016302
0.0164868
0.016288
0.0164728
0.0164728
0.016302
0.016302
0.0164728
0.016302
0.016302
0.0164868
0.016288
0.0164728
0.016302
0.016302
0.016288
0.016259
0.0160603
0.016245
0.016245
0.0160742
0.0160742
0.016259
0.0160603
0.016245
0.016245
0.0160742
0.0160742
0.016245
0.0160742
0.0160742
0.016259
0.0160603
0.016245
0.0160742
0.0160742
0.0160603
0.0160313
0.0158325
0.0160173
0.0160173
0.0158465
0.0158465
0.0160313
0.0158325
0.0160173
0.0160173
0.0158465
0.0158465
0.0160173
0.0158465
0.0158465
0.0160313
0.0158325
0.0160173
0.0158465
0.0158465
0.0158325
0.0158035
0.0156048
0.0157895
0.0157895
0.0156187
0.0156187
0.0158035
0.0156048
0.0157895
0.0157895
0.0156187
0.0156187
0.0157895
0.0156187
0.0156187
0.0158035
0.0156048
0.0157895
0.0156187
0.0156187
0.0156048
0.0155758
0.015377
0.0155618
0.0155618
0.015391
0.015391
0.0155758
0.015377
0.0155618
0.0155618
0.015391
0.015391
0.0155618
0.015391
0.015391
0.0155758
0.015377
0.0155618
0.015391
0.015391
0.015377
0.015348
0.0151493
0.015334
0.015334
0.0151632
0.0151632
0.015348
0.0151493
0.015334
0.015334
0.0151632
0.0151632
0.015334
0.0151632
0.0151632
0.015348
0.0151493
0.015334
0.0151632
0.0151632
0.0151493
0.0151203
0.0149215
0.0151063
0.0151063
0.0149355
0.0149355
0.0151203
0.0149215
0.0151063
0.0151063
0.0149355
0.0149355
0.0151063
0.0149355
0.0149355
0.0151203
0.0149215
0.0151063
0.0149355
0.0149355
0.0149215
0.0148925
0.0146938
0.0148785
0.0148785
0.0147077
0.0147077
0.0148925
0.0146938
0.0148785
0.0148785
0.0147077
0.0147077
0.0148785
0.0147077
0.0147077
0.0148925
0.0146938
0.0148785
0.0147077
0.0147077
0.0146938
0.0146648
0.014466
0.0146508
0.0146508
0.01448
0.01448
0.0146648
0.014466
0.0146508
0.0146508
0.01448
0.01448
0.0146508
0.01448
0.01448
0.0146648
0.014466
0.0146508
0.01448
0.01448
0.014466
0.014437
0.0142383
0.0144231
0.0144231
0.0142522
0.0142522
0.014437
0.0142383
0.0144231
0.0144231
0.0142522
0.0142522
0.0144231
0.0142522
0.0142522
0.014437
0.0142383
0.0144231
0.0142522
0.0142522
0.0142383
0.0142093
0.0140105
0.0141953
0.0141953
0.0140245
0.0140245
0.0142093
0.0140105
0.0141953
0.0141953
0.0140245
0.0140245
0.0141953
0.0140245
0.0140245
0.0142093
0.0140105
0.0141953
0.0140245
0.0140245
0.0140105
0.0139816
0.0137828
0.0139676
0.0139676
0.0137967
0.0137967
0.0139816
0.0137828
0.0139676
0.0139676
0.0137967
0.0137967
0.0139676
0.0137967
0.0137967
0.0139816
0.0137828
0.0139676
0.0137967
0.0137967
0.0137828
0.0137538
0.0135551
0.0137398
0.0137398
0.013569
0.013569
0.0137538
0.0135551
0.0137398
0.0137398
0.013569
0.013569
0.0137398
0.013569
0.013569
0.0137538
0.0135551
0.0137398
0.013569
0.013569
0.0135551
0.0135261
0.0133273
0.0135121
0.0135121
0.0133413
0.0133413
0.0135261
0.0133273
0.0135121
0.0135121
0.0133413
0.0133413
0.0135121
0.0133413
0.0133413
0.0135261
0.0133273
0.0135121
0.0133413
0.0133413
0.0133273
0.0132983
0.0130996
0.0132843
0.0132843
0.0131135
0.0131135
0.0132983
0.0130996
0.0132843
0.0132843
0.0131135
0.0131135
0.0132843
0.0131135
0.0131135
0.0132983
0.0130996
0.0132843
0.0131135
0.0131135
0.0130996
0.0130706
0.0128718
0.0130566
0.0130566
0.0128858
0.0128858
0.0130706
0.0128718
0.0130566
0.0130566
0.0128858
0.0128858
0.0130566
0.0128858
0.0128858
0.0130706
0.0128718
0.0130566
0.0128858
0.0128858
0.0128718
0.0128428
0.0126441
0.0128288
0.0128288
0.012658
0.012658
0.0128428
0.0126441
0.0128288
0.0128288
0.012658
0.012658
0.0128288
0.012658
0.012658
0.0128428
0.0126441
0.0128288
0.012658
0.012658
0.0126441
0.0126151
0.0124163
0.0126011
0.0126011
0.0124303
0.0124303
0.0126151
0.0124163
0.0126011
0.0126011
0.0124303
0.0124303
0.0126011
0.0124303
0.0124303
0.0126151
0.0124163
0.0126011
0.0124303
0.0124303
0.0124163
0.0123873
0.0121886
0.0123733
0.0123733
0.0122025
0.0122025
0.0123873
0.0121886
0.0123733
0.0123733
0.0122025
0.0122025
0.0123733
0.0122025
0.0122025
0.0123873
0.0121886
0.0123733
0.0122025
0.0122025
0.0121886
0.0121596
0.0119608
0.0121456
0.0121456
0.0119748
0.0119748
0.0121596
0.0119608
0.0121456
0.0121456
0.0119748
0.0119748
0.0121456
0.0119748
0.0119748
0.0121596
0.0119608
0.0121456
0.0119748
0.0119748
0.0119608
0.0119318
0.0117331
0.0119178
0.0119178
0.011747
0.011747
0.0119318
0.0117331
0.0119178
0.0119178
0.011747
0.011747
0.0119178
0.011747
0.011747
0.0119318
0.0117331
0.0119178
0.011747
0.011747
0.0117331
0.0117041
0.0115053
0.0116901
0.0116901
0.0115193
0.0115193
0.0117041
0.0115053
0.0116901
0.0116901
0.0115193
0.0115193
0.0116901
0.0115193
0.0115193
0.0117041
0.0115053
0.0116901
0.0115193
0.0115193
0.0115053
0.0114763
0.0112776
0.0114623
0.0114623
0.0112915
0.0112915
0.0114763
0.0112776
0.0114623
0.0114623
0.0112915
0.0112915
0.0114623
0.0112915
0.0112915
0.0114763
0.0112776
0.0114623
0.0112915
0.0112915
0.0112776
0.0112486
0.0110498
0.0112346
0.0112346
0.0110638
0.0110638
0.0112486
0.0110498
0.0112346
0.0112346
0.0110638
0.0110638
0.0112346
0.0110638
0.0110638
0.0112486
0.0110498
0.0112346
0.0110638
0.0110638
0.0110498
0.0110208
0.0108221
0.0110068
0.0110068
0.010836
0.010836
0.0110208
0.0108221
0.0110068
0.0110068
0.010836
0.010836
0.0110068
0.010836
0.010836
0.0110208
0.0108221
0.0110068
0.010836
0.010836
0.0108221
0.0107931
0.0105943
0.0107791
0.0107791
0.0106083
0.0106083
0.0107931
0.0105943
0.0107791
0.0107791
0.0106083
0.0106083
0.0107791
0.0106083
0.0106083
0.0107931
0.0105943
0.0107791
0.0106083
0.0106083
0.0105943
0.0105653
0.0103666
0.0105514
0.0105514
0.0103805
0.0103805
0.0105653
0.0103666
0.0105514
0.0105514
0.0103805
0.0103805
0.0105514
0.0103805
0.0103805
0.0105653
0.0103666
0.0105514
0.0103805
0.0103805
0.0103666
0.0103376
0.0101388
0.0103236
0.0103236
0.0101528
0.0101528
0.0103376
0.0101388
0.0103236
0.0103236
0.0101528
0.0101528
0.0103236
0.0101528
0.0101528
0.0103376
0.0101388
0.0103236
0.0101528
0.0101528
0.0101388
0.0101099
0.0099111
0.0100959
0.0100959
0.00992505
0.00992505
0.0101099
0.0099111
0.0100959
0.0100959
0.00992505
0.00992505
0.0100959
0.00992505
0.00992505
0.0101099
0.0099111
0.0100959
0.00992505
0.00992505
0.0099111
0.0098821
0.00968335
0.00986811
0.00986811
0.0096973
0.0096973
0.00988211
0.00968335
0.00986811
0.00986811
0.0096973
0.0096973
0.00986811
0.0096973
0.0096973
0.0098821
0.00968335
0.00986811
0.0096973
0.0096973
0.00968335
0.00965436
0.00945561
0.00964036
0.00964036
0.00946955
0.00946955
0.00965436
0.00945561
0.00964036
0.00964036
0.00946955
0.00946955
0.00964036
0.00946955
0.00946955
0.00965436
0.00945561
0.00964036
0.00946955
0.00946955
0.00945561
0.00942661
0.00922786
0.00941262
0.00941262
0.00924181
0.00924181
0.00942661
0.00922786
0.00941262
0.00941262
0.00924181
0.00924181
0.00941262
0.00924181
0.00924181
0.00942661
0.00922786
0.00941262
0.00924181
0.00924181
0.00922786
0.00919886
0.00900011
0.00918487
0.00918487
0.00901406
0.00901406
0.00919887
0.00900011
0.00918487
0.00918487
0.00901406
0.00901406
0.00918487
0.00901406
0.00901406
0.00919886
0.00900011
0.00918487
0.00901406
0.00901406
0.00900011
0.00897112
0.00877237
0.00895712
0.00895712
0.00878631
0.00878631
0.00897112
0.00877237
0.00895712
0.00895712
0.00878631
0.00878631
0.00895712
0.00878631
0.00878631
0.00897112
0.00877237
0.00895712
0.00878631
0.00878631
0.00877237
0.00874337
0.00854462
0.00872938
0.00872938
0.00855857
0.00855857
0.00874337
0.00854462
0.00872938
0.00872938
0.00855857
0.00855857
0.00872938
0.00855857
0.00855857
0.00874337
0.00854462
0.00872938
0.00855857
0.00855857
0.00854462
0.00851562
0.00831687
0.00850163
0.00850163
0.00833082
0.00833082
0.00851562
0.00831687
0.00850163
0.00850163
0.00833082
0.00833082
0.00850163
0.00833082
0.00833082
0.00851562
0.00831687
0.00850163
0.00833082
0.00833082
0.00831687
0.00828788
0.00808912
0.00827388
0.00827388
0.00810307
0.00810307
0.00828788
0.00808912
0.00827388
0.00827388
0.00810307
0.00810307
0.00827388
0.00810307
0.00810307
0.00828788
0.00808913
0.00827388
0.00810307
0.00810307
0.00808912
0.00806013
0.00786138
0.00804614
0.00804614
0.00787533
0.00787532
0.00806013
0.00786138
0.00804614
0.00804614
0.00787533
0.00787533
0.00804614
0.00787533
0.00787533
0.00806013
0.00786138
0.00804613
0.00787533
0.00787532
0.00786138
0.00783238
0.00763363
0.00781839
0.00781839
0.00764758
0.00764758
0.00783238
0.00763363
0.00781839
0.00781839
0.00764758
0.00764758
0.00781839
0.00764758
0.00764758
0.00783238
0.00763363
0.00781839
0.00764758
0.00764758
0.00763363
0.00760463
0.00740588
0.00759064
0.00759064
0.00741983
0.00741983
0.00760464
0.00740588
0.00759064
0.00759064
0.00741983
0.00741983
0.00759064
0.00741983
0.00741983
0.00760463
0.00740588
0.00759064
0.00741983
0.00741983
0.00740588
0.00737689
0.00717814
0.00736289
0.00736289
0.00719208
0.00719208
0.00737689
0.00717813
0.00736289
0.00736289
0.00719208
0.00719208
0.00736289
0.00719208
0.00719208
0.00737689
0.00717814
0.00736289
0.00719208
0.00719208
0.00717814
0.00714914
0.00695039
0.00713515
0.00713515
0.00696434
0.00696434
0.00714914
0.00695039
0.00713515
0.00713515
0.00696434
0.00696434
0.00713515
0.00696434
0.00696434
0.00714914
0.00695039
0.00713515
0.00696434
0.00696433
0.00695039
0.00692139
0.00672264
0.0069074
0.0069074
0.00673659
0.00673659
0.00692139
0.00672264
0.0069074
0.0069074
0.00673659
0.00673659
0.0069074
0.00673659
0.00673659
0.00692139
0.00672264
0.0069074
0.00673659
0.00673659
0.00672264
0.00669365
0.00649489
0.00667965
0.00667965
0.00650884
0.00650884
0.00669365
0.00649489
0.00667965
0.00667965
0.00650884
0.00650884
0.00667965
0.00650884
0.00650884
0.00669365
0.00649489
0.00667965
0.00650884
0.00650884
0.00649489
0.0064659
0.00626715
0.00645191
0.0064519
0.00628109
0.00628109
0.0064659
0.00626715
0.0064519
0.00645191
0.00628109
0.00628109
0.00645191
0.00628109
0.0062811
0.0064659
0.00626715
0.0064519
0.0062811
0.00628109
0.00626715
0.00623815
0.0060394
0.00622416
0.00622416
0.00605335
0.00605335
0.00623815
0.0060394
0.00622416
0.00622416
0.00605335
0.00605335
0.00622416
0.00605335
0.00605335
0.00623815
0.0060394
0.00622416
0.00605335
0.00605335
0.0060394
0.0060104
0.00581165
0.00599641
0.00599641
0.0058256
0.0058256
0.0060104
0.00581165
0.00599641
0.00599641
0.0058256
0.0058256
0.00599641
0.0058256
0.0058256
0.0060104
0.00581165
0.00599641
0.0058256
0.0058256
0.00581165
0.00578266
0.00558391
0.00576866
0.00576866
0.00559785
0.00559785
0.00578266
0.00558391
0.00576866
0.00576866
0.00559785
0.00559785
0.00576866
0.00559785
0.00559786
0.00578266
0.00558391
0.00576866
0.00559786
0.00559785
0.00558391
0.00555491
0.00535616
0.00554092
0.00554092
0.00537011
0.00537011
0.00555491
0.00535616
0.00554092
0.00554092
0.00537011
0.00537011
0.00554092
0.00537011
0.00537011
0.00555491
0.00535616
0.00554092
0.00537011
0.00537011
0.00535616
0.00532716
0.00512841
0.00531317
0.00531317
0.00514236
0.00514236
0.00532716
0.00512841
0.00531317
0.00531317
0.00514236
0.00514236
0.00531317
0.00514236
0.00514236
0.00532716
0.00512841
0.00531317
0.00514236
0.00514236
0.00512841
0.00509942
0.00490067
0.00508542
0.00508542
0.00491461
0.00491461
0.00509942
0.00490067
0.00508542
0.00508542
0.00491461
0.00491461
0.00508542
0.00491461
0.00491461
0.00509942
0.00490067
0.00508542
0.00491461
0.00491461
0.00490067
0.00487167
0.00467292
0.00485768
0.00485768
0.00468687
0.00468687
0.00487167
0.00467292
0.00485768
0.00485768
0.00468687
0.00468687
0.00485768
0.00468687
0.00468687
0.00487167
0.00467292
0.00485768
0.00468687
0.00468687
0.00467292
0.00464392
0.00444517
0.00462993
0.00462993
0.00445912
0.00445912
0.00464392
0.00444517
0.00462993
0.00462993
0.00445912
0.00445912
0.00462993
0.00445912
0.00445912
0.00464392
0.00444517
0.00462993
0.00445912
0.00445912
0.00444517
0.00441618
0.00421742
0.00440218
0.00440218
0.00423137
0.00423137
0.00441618
0.00421742
0.00440218
0.00440218
0.00423137
0.00423137
0.00440218
0.00423137
0.00423137
0.00441618
0.00421743
0.00440218
0.00423137
0.00423137
0.00421742
0.00418843
0.00398968
0.00417444
0.00417444
0.00400363
0.00400362
0.00418843
0.00398968
0.00417444
0.00417444
0.00400363
0.00400363
0.00417444
0.00400363
0.00400363
0.00418843
0.00398968
0.00417443
0.00400363
0.00400362
0.00398968
0.00396068
0.00376193
0.00394669
0.00394669
0.00377588
0.00377588
0.00396068
0.00376193
0.00394669
0.00394669
0.00377588
0.00377588
0.00394669
0.00377588
0.00377588
0.00396068
0.00376193
0.00394669
0.00377588
0.00377588
0.00376193
0.00373293
0.00353418
0.00371894
0.00371894
0.00354813
0.00354813
0.00373294
0.00353418
0.00371894
0.00371894
0.00354813
0.00354813
0.00371894
0.00354813
0.00354813
0.00373293
0.00353418
0.00371894
0.00354813
0.00354813
0.00353418
0.00350519
0.00330644
0.00349119
0.00349119
0.00332038
0.00332038
0.00350519
0.00330644
0.00349119
0.00349119
0.00332038
0.00332038
0.00349119
0.00332038
0.00332038
0.00350519
0.00330644
0.00349119
0.00332038
0.00332038
0.00330644
0.00327744
0.00307869
0.00326345
0.00326345
0.00309264
0.00309264
0.00327744
0.00307869
0.00326345
0.00326345
0.00309264
0.00309264
0.00326345
0.00309264
0.00309264
0.00327744
0.00307869
0.00326345
0.00309264
0.00309264
0.00307869
0.00304969
0.00285094
0.0030357
0.0030357
0.00286489
0.00286489
0.00304969
0.00285094
0.0030357
0.0030357
0.00286489
0.00286489
0.0030357
0.00286489
0.00286489
0.00304969
0.00285094
0.0030357
0.00286489
0.00286489
0.00285094
0.00282195
0.00262319
0.00280795
0.00280795
0.00263714
0.00263714
0.00282195
0.00262319
0.00280795
0.00280795
0.00263714
0.00263714
0.00280795
0.00263714
0.00263714
0.00282195
0.00262319
0.00280795
0.00263714
0.00263714
0.00262319
0.0025942
0.00239545
0.00258021
0.0025802
0.0024094
0.00240939
0.0025942
0.00239545
0.00258021
0.00258021
0.0024094
0.0024094
0.00258021
0.0024094
0.0024094
0.0025942
0.00239545
0.0025802
0.0024094
0.00240939
0.00239545
0.00236645
0.0021677
0.00235246
0.00235246
0.00218165
0.00218165
0.00236645
0.0021677
0.00235246
0.00235246
0.00218165
0.00218165
0.00235246
0.00218165
0.00218165
0.00236645
0.0021677
0.00235246
0.00218165
0.00218165
0.0021677
0.0021387
0.00193995
0.00212471
0.00212471
0.0019539
0.0019539
0.00213871
0.00193995
0.00212471
0.00212471
0.0019539
0.0019539
0.00212471
0.0019539
0.0019539
0.0021387
0.00193995
0.00212471
0.0019539
0.0019539
0.00193995
0.00191096
0.00171221
0.00189696
0.00189696
0.00172615
0.00172615
0.00191096
0.00171221
0.00189696
0.00189696
0.00172615
0.00172615
0.00189696
0.00172615
0.00172615
0.00191096
0.00171221
0.00189696
0.00172615
0.00172615
0.00171221
0.00168321
0.00148446
0.00166922
0.00166922
0.00149841
0.00149841
0.00168321
0.00148446
0.00166922
0.00166922
0.00149841
0.00149841
0.00166922
0.00149841
0.00149841
0.00168321
0.00148446
0.00166922
0.00149841
0.00149841
0.00148446
0.00145546
0.00125671
0.00144147
0.00144147
0.00127066
0.00127066
0.00145546
0.00125671
0.00144147
0.00144147
0.00127066
0.00127066
0.00144147
0.00127066
0.00127066
0.00145546
0.00125671
0.00144147
0.00127066
0.00127066
0.00125671
0.00122772
0.00102897
0.00121372
0.00121372
0.00104291
0.00104291
0.00122772
0.00102896
0.00121372
0.00121372
0.00104291
0.00104291
0.00121372
0.00104291
0.00104291
0.00122772
0.00102897
0.00121372
0.00104291
0.00104291
0.00102897
0.000999969
0.000801218
0.000985976
0.000985976
0.000815166
0.000815166
0.00099997
0.000801218
0.000985976
0.000985976
0.000815166
0.000815166
0.000985977
0.000815166
0.000815167
0.00099997
0.000801219
0.000985975
0.000815166
0.000815166
0.000801219
0.000772223
0.000573472
0.000758229
0.000758229
0.000587422
0.000587424
0.000772223
0.000573471
0.00075823
0.00075823
0.000587421
0.000587423
0.00075823
0.000587424
0.000587423
0.000772223
0.000573474
0.00075823
0.000587424
0.000587424
0.000573473
0.000544477
0.000345767
0.000530489
0.000530489
0.00035975
0.000359747
0.000544477
0.000345765
0.000530491
0.000530492
0.00035975
0.000359755
0.00053049
0.000359749
0.000359749
0.000544478
0.000345776
0.000530491
0.000359755
0.000359752
0.000345769
0.000316784
0.00012262
0.000302913
0.000302901
0.000136323
0.000136306
0.00031678
0.000122606
0.000302911
0.00030292
0.000136311
0.000136331
0.000302906
0.000136299
0.000136315
0.000316795
0.000122633
0.000302913
0.000136325
0.00013631
0.000122616
9.79667e-05
9.76382e-05
9.76245e-05
9.79554e-05
9.76317e-05
9.76451e-05
9.04468e-05
9.04588e-05
9.04507e-05
9.76335e-05
9.7978e-05
9.763e-05
0.0215606
0.0215972
0.0215774
0.0215774
0.0216541
0.0216113
0.0217187
0.0215893
0.0216541
0.0216113
0.0215893
0.0217186
0.021627
0.0217358
0.0217358
0.0214153
0.021534
0.0215237
0.0214165
0.0214063
0.0214118
0.0214153
0.0215341
0.0215236
0.0214164
0.021481
0.021481
0.021481
0.0213122
0.0213122
0.0213122
0.0213122
0.0214134
0.0215154
0.0214837
0.021426
0.0214995
0.0214152
0.021426
0.0214064
0.0214118
0.0214135
0.0214837
0.0215154
0.021426
0.0214996
0.021426
0.0214151
0.0215173
0.0215172
0.0214124
0.0214141
0.0214141
0.0211844
0.02127
0.02127
0.0211844
0.0212699
0.0211845
0.0211844
0.02127
0.02127
0.0211844
0.0212554
0.0212554
0.0212554
0.0210847
0.0210847
0.0210847
0.0210847
0.0211849
0.0212695
0.0212554
0.0211986
0.0212694
0.0211849
0.0211985
0.0212699
0.0211845
0.0211849
0.0212554
0.0212695
0.0211986
0.0212694
0.0211985
0.0211849
0.0212699
0.0212699
0.0211846
0.0211845
0.0211845
0.0209566
0.021042
0.021042
0.0209566
0.0210419
0.0209566
0.0209566
0.021042
0.021042
0.0209566
0.0210277
0.0210277
0.0210277
0.020857
0.020857
0.020857
0.020857
0.0209571
0.0210415
0.0210277
0.0209708
0.0210414
0.0209571
0.0209708
0.021042
0.0209566
0.0209571
0.0210277
0.0210415
0.0209708
0.0210414
0.0209708
0.0209571
0.0210419
0.0210419
0.0209568
0.0209566
0.0209566
0.0207289
0.0208142
0.0208142
0.0207289
0.0208142
0.0207289
0.0207289
0.0208142
0.0208142
0.0207289
0.0208
0.0208
0.0208
0.0206292
0.0206292
0.0206292
0.0206292
0.0207294
0.0208137
0.0208
0.020743
0.0208137
0.0207293
0.020743
0.0208142
0.0207289
0.0207294
0.0208
0.0208137
0.020743
0.0208137
0.020743
0.0207293
0.0208142
0.0208142
0.0207291
0.0207289
0.0207289
0.0205011
0.0205865
0.0205865
0.0205011
0.0205864
0.0205011
0.0205011
0.0205865
0.0205865
0.0205011
0.0205723
0.0205723
0.0205723
0.0204015
0.0204015
0.0204015
0.0204015
0.0205016
0.020586
0.0205722
0.0205153
0.0205859
0.0205016
0.0205153
0.0205864
0.0205011
0.0205016
0.0205722
0.020586
0.0205153
0.0205859
0.0205153
0.0205016
0.0205864
0.0205864
0.0205013
0.0205011
0.0205011
0.0202734
0.0203587
0.0203587
0.0202734
0.0203587
0.0202734
0.0202734
0.0203587
0.0203587
0.0202734
0.0203445
0.0203445
0.0203445
0.0201737
0.0201737
0.0201737
0.0201737
0.0202739
0.0203582
0.0203445
0.0202875
0.0203582
0.0202739
0.0202876
0.0203587
0.0202734
0.0202739
0.0203445
0.0203582
0.0202875
0.0203582
0.0202876
0.0202739
0.0203587
0.0203587
0.0202736
0.0202734
0.0202734
0.0200456
0.020131
0.020131
0.0200456
0.0201309
0.0200456
0.0200456
0.020131
0.020131
0.0200456
0.0201168
0.0201168
0.0201168
0.019946
0.019946
0.019946
0.019946
0.0200462
0.0201305
0.0201167
0.0200598
0.0201304
0.0200461
0.0200598
0.020131
0.0200456
0.0200462
0.0201167
0.0201305
0.0200598
0.0201304
0.0200598
0.0200461
0.0201309
0.0201309
0.0200458
0.0200456
0.0200456
0.0198179
0.0199032
0.0199032
0.0198179
0.0199032
0.0198179
0.0198179
0.0199032
0.0199032
0.0198179
0.019889
0.019889
0.019889
0.0197182
0.0197182
0.0197182
0.0197182
0.0198184
0.0199027
0.019889
0.019832
0.0199027
0.0198184
0.0198321
0.0199032
0.0198179
0.0198184
0.019889
0.0199027
0.019832
0.0199027
0.0198321
0.0198184
0.0199032
0.0199032
0.0198181
0.0198179
0.0198179
0.0195901
0.0196755
0.0196755
0.0195901
0.0196755
0.0195901
0.0195901
0.0196755
0.0196755
0.0195901
0.0196613
0.0196613
0.0196613
0.0194905
0.0194905
0.0194905
0.0194905
0.0195907
0.019675
0.0196613
0.0196043
0.019675
0.0195906
0.0196043
0.0196755
0.0195901
0.0195907
0.0196613
0.019675
0.0196043
0.019675
0.0196043
0.0195906
0.0196754
0.0196754
0.0195903
0.0195902
0.0195902
0.0193624
0.0194477
0.0194477
0.0193624
0.0194477
0.0193624
0.0193624
0.0194477
0.0194477
0.0193624
0.0194335
0.0194335
0.0194335
0.0192627
0.0192627
0.0192627
0.0192627
0.0193629
0.0194472
0.0194335
0.0193765
0.0194472
0.0193629
0.0193766
0.0194477
0.0193624
0.0193629
0.0194335
0.0194472
0.0193765
0.0194472
0.0193766
0.0193629
0.0194477
0.0194477
0.0193626
0.0193624
0.0193624
0.0191346
0.01922
0.01922
0.0191346
0.01922
0.0191347
0.0191346
0.01922
0.01922
0.0191346
0.0192058
0.0192058
0.0192058
0.019035
0.019035
0.019035
0.019035
0.0191352
0.0192195
0.0192058
0.0191488
0.0192195
0.0191351
0.0191488
0.01922
0.0191347
0.0191352
0.0192058
0.0192195
0.0191488
0.0192195
0.0191488
0.0191351
0.01922
0.01922
0.0191349
0.0191347
0.0191347
0.0189069
0.0189922
0.0189922
0.0189069
0.0189922
0.0189069
0.0189069
0.0189922
0.0189922
0.0189069
0.0189781
0.0189781
0.0189781
0.0188072
0.0188072
0.0188072
0.0188072
0.0189074