/*--------------------------------*- C++ -*----------------------------------*\
| =========                 |                                                 |
| \\      /  F ield         | OpenFOAM: The Open Source CFD Toolbox           |
|  \\    /   O peration     | Version:  v1906                                 |
|   \\  /    A nd           | Web:      www.OpenFOAM.com                      |
|    \\/     M anipulation  |                                                 |
\*---------------------------------------------------------------------------*/
FoamFile
{
    version     2.0;
    format      ascii;
    class       volScalarField;
    location    "300";
    object      epsilon;
}
// * * * * * * * * * * * * * * * * * * * * * * * * * * * * * * * * * * * * * //

dimensions      [0 2 -3 0 0 0 0];


internalField   nonuniform List<scalar> 
171728
(
1.14844e-06
8.6298e-07
8.62953e-07
1.14851e-06
8.62728e-07
8.63025e-07
8.62781e-07
8.6305e-07
1.1486e-06
8.62896e-07
8.62921e-07
1.14866e-06
3.19679e-07
3.1967e-07
3.1978e-07
3.19795e-07
1.84271e-05
1.84288e-05
5.46245e-06
5.46361e-06
4.09155e-06
9.16106e-06
4.09355e-06
4.0914e-06
9.16177e-06
9.15527e-06
4.09374e-06
2.10207e-06
3.475e-06
5.58161e-07
5.52251e-07
2.10669e-06
2.1021e-06
8.56887e-07
3.47519e-06
5.5819e-07
3.47213e-06
5.52295e-07
2.10674e-06
1.84281e-05
1.84179e-05
1.14397e-06
5.46372e-06
5.4618e-06
5.46121e-06
5.4594e-06
1.84256e-05
1.84153e-05
9.16282e-06
4.09351e-06
3.47511e-06
5.58259e-07
2.10685e-06
9.16219e-06
4.09341e-06
5.58273e-07
3.47538e-06
2.10674e-06
2.10228e-06
8.56729e-07
3.47496e-06
5.58198e-07
3.47136e-06
5.52329e-07
2.10684e-06
4.09183e-06
9.16164e-06
9.15489e-06
4.09377e-06
2.10219e-06
8.56977e-07
5.58286e-07
3.47505e-06
5.52401e-07
3.47141e-06
2.10682e-06
4.09162e-06
9.16198e-06
9.15504e-06
4.09386e-06
1.8429e-05
5.46372e-06
5.46206e-06
1.84275e-05
2.10229e-06
5.58312e-07
3.47463e-06
5.52427e-07
2.10685e-06
2.10228e-06
8.56856e-07
5.58358e-07
3.47529e-06
5.52477e-07
3.47225e-06
2.10698e-06
4.09182e-06
9.16194e-06
4.09352e-06
4.09157e-06
9.16297e-06
9.15641e-06
4.09397e-06
1.14409e-06
5.46198e-06
5.4641e-06
5.45956e-06
5.46128e-06
1.84278e-05
1.84175e-05
1.84297e-05
1.84194e-05
1.84219e-05
1.84241e-05
4.53802e-06
2.81207e-06
5.46169e-06
9.50047e-06
9.49669e-06
2.81011e-06
4.54092e-06
4.54435e-06
2.8113e-06
5.46346e-06
9.50363e-06
9.50072e-06
2.81217e-06
4.54294e-06
9.73622e-06
2.17305e-05
2.17283e-05
2.17237e-05
2.17225e-05
9.73576e-06
1.22029e-05
1.08234e-05
4.74415e-06
4.09177e-06
1.22e-05
1.08264e-05
4.7443e-06
2.20533e-05
9.15803e-06
7.08848e-06
7.08901e-06
2.20601e-05
1.22033e-05
4.09343e-06
1.08295e-05
4.74598e-06
1.08266e-05
4.74576e-06
1.22063e-05
1.2203e-05
1.08236e-05
4.74439e-06
4.09195e-06
1.22001e-05
1.08264e-05
4.74461e-06
2.20535e-05
9.15924e-06
7.09012e-06
7.0905e-06
2.20601e-05
2.20556e-05
7.08949e-06
9.15778e-06
2.2049e-05
7.08911e-06
1.22035e-05
4.09348e-06
1.08294e-05
4.7461e-06
1.08269e-05
4.74593e-06
1.22063e-05
1.84232e-05
1.84228e-05
9.73337e-06
2.17169e-05
2.17176e-05
9.73377e-06
2.17232e-05
2.17239e-05
4.54452e-06
2.81247e-06
5.46358e-06
9.50375e-06
2.81142e-06
9.50075e-06
4.54483e-06
4.53845e-06
2.81135e-06
5.46172e-06
9.49915e-06
9.49615e-06
2.81026e-06
4.53891e-06
4.54223e-06
9.49605e-06
2.80819e-06
5.46123e-06
2.80918e-06
4.5418e-06
9.49904e-06
4.53626e-06
9.49145e-06
2.80704e-06
5.45944e-06
4.53582e-06
9.49444e-06
2.80805e-06
9.73576e-06
2.17282e-05
2.17289e-05
2.17219e-05
2.17226e-05
9.73537e-06
1.84206e-05
1.84202e-05
2.20537e-05
9.15989e-06
7.09009e-06
7.09043e-06
2.20603e-05
1.22039e-05
4.09352e-06
4.74593e-06
1.08302e-05
4.74611e-06
1.08273e-05
1.22065e-05
2.20534e-05
9.15924e-06
7.08861e-06
7.08912e-06
2.20602e-05
1.22039e-05
4.0936e-06
1.08296e-05
4.74584e-06
1.08276e-05
4.74595e-06
1.22065e-05
1.22025e-05
4.7442e-06
1.08242e-05
4.09196e-06
1.21998e-05
4.74454e-06
1.08262e-05
2.20523e-05
9.15903e-06
7.08959e-06
7.08996e-06
2.20589e-05
2.20543e-05
7.08896e-06
9.15781e-06
2.20478e-05
7.08857e-06
1.22031e-05
4.09359e-06
4.74618e-06
1.08294e-05
4.74584e-06
1.08273e-05
1.22059e-05
1.2203e-05
1.08241e-05
4.7441e-06
4.09189e-06
1.22002e-05
1.08261e-05
4.74442e-06
2.20532e-05
9.15899e-06
7.08832e-06
7.08869e-06
2.20598e-05
2.20553e-05
7.08769e-06
9.158e-06
2.20487e-05
7.08731e-06
1.22035e-05
4.09355e-06
1.08295e-05
4.74606e-06
1.0827e-05
4.7457e-06
1.22064e-05
1.8424e-05
4.54483e-06
2.81218e-06
5.46343e-06
9.50419e-06
2.81162e-06
9.50051e-06
4.54518e-06
4.53886e-06
2.81111e-06
5.46176e-06
9.49959e-06
9.49595e-06
2.81053e-06
4.53923e-06
9.73668e-06
2.17295e-05
2.17298e-05
2.17231e-05
2.17235e-05
9.73629e-06
1.84225e-05
1.22029e-05
4.74419e-06
1.08245e-05
4.09169e-06
1.22005e-05
4.74409e-06
1.08265e-05
2.20533e-05
9.15898e-06
7.08822e-06
7.08856e-06
2.20598e-05
2.20553e-05
7.08718e-06
1.22038e-05
4.0937e-06
4.74566e-06
1.08297e-05
4.74582e-06
1.08277e-05
1.22063e-05
1.2203e-05
4.7445e-06
1.08247e-05
4.0921e-06
1.22004e-05
4.74463e-06
1.08267e-05
2.20533e-05
9.16035e-06
7.09005e-06
7.09055e-06
2.20602e-05
2.20557e-05
7.08955e-06
9.15895e-06
2.20488e-05
7.08903e-06
1.22037e-05
4.09361e-06
4.74626e-06
1.08299e-05
4.74614e-06
1.08277e-05
1.22064e-05
9.73407e-06
2.17186e-05
2.1718e-05
9.73447e-06
2.17249e-05
2.17242e-05
4.53891e-06
2.81146e-06
5.46192e-06
9.49949e-06
2.81055e-06
9.49649e-06
4.53905e-06
4.54473e-06
2.81268e-06
5.46374e-06
9.50457e-06
2.81158e-06
9.50088e-06
4.54521e-06
4.53635e-06
9.49178e-06
2.80741e-06
5.45968e-06
4.53624e-06
2.80798e-06
9.49479e-06
4.54257e-06
9.49643e-06
2.8084e-06
5.4618e-06
4.5421e-06
2.80939e-06
9.49973e-06
9.73646e-06
2.173e-05
2.17293e-05
2.17236e-05
2.1723e-05
9.73608e-06
1.84228e-05
1.84224e-05
1.84247e-05
1.84243e-05
2.66793e-06
1.14908e-06
1.76878e-06
1.768e-06
1.76724e-06
1.76786e-06
2.66864e-06
2.6679e-06
1.149e-06
1.76821e-06
1.76814e-06
1.76781e-06
1.76763e-06
2.66858e-06
2.66814e-06
1.14914e-06
1.76822e-06
1.76817e-06
1.76796e-06
1.76789e-06
2.66823e-06
2.66803e-06
1.14911e-06
1.76819e-06
1.76837e-06
1.76768e-06
1.76784e-06
2.66873e-06
1.66578e-07
1.66572e-07
1.64498e-07
7.94085e-08
7.99273e-08
3.15734e-07
1.66589e-07
1.6655e-07
1.64482e-07
1.64447e-07
7.93924e-08
7.99327e-08
1.66649e-07
1.66624e-07
1.64517e-07
7.94173e-08
7.99592e-08
3.15846e-07
1.66647e-07
1.66633e-07
1.64529e-07
1.64517e-07
7.94112e-08
7.99618e-08
1.41004e-06
2.36139e-06
1.27335e-06
2.10301e-06
1.41125e-06
2.36225e-06
1.27388e-06
1.61698e-06
2.03245e-06
3.47439e-06
2.85988e-06
2.03156e-06
2.85966e-06
1.61718e-06
1.41624e-06
2.10576e-06
2.36566e-06
1.27933e-06
2.36479e-06
1.27863e-06
1.41541e-06
1.41052e-06
2.36163e-06
1.27323e-06
2.10307e-06
1.41085e-06
2.36251e-06
1.27391e-06
1.61851e-06
2.03209e-06
3.47505e-06
2.86048e-06
2.86031e-06
2.03216e-06
1.61595e-06
1.6118e-06
2.85733e-06
2.02802e-06
3.47213e-06
1.61359e-06
2.85756e-06
2.02812e-06
1.41606e-06
2.1058e-06
2.36591e-06
1.2793e-06
2.36504e-06
1.27857e-06
1.41565e-06
2.66531e-06
1.14334e-06
1.76356e-06
1.76344e-06
1.76397e-06
2.66434e-06
1.76387e-06
1.61825e-06
2.03187e-06
3.47523e-06
2.8607e-06
2.03224e-06
2.86003e-06
1.61584e-06
1.41555e-06
2.1059e-06
2.36591e-06
1.27943e-06
2.36502e-06
1.27874e-06
1.41557e-06
1.61683e-06
2.03241e-06
3.47488e-06
2.85994e-06
2.85969e-06
2.03232e-06
1.61712e-06
1.41543e-06
2.10582e-06
1.27872e-06
2.36571e-06
1.27888e-06
2.36483e-06
1.41544e-06
1.40961e-06
2.36174e-06
1.27435e-06
2.10321e-06
1.41224e-06
2.36252e-06
1.273e-06
1.61714e-06
2.0323e-06
3.47442e-06
2.86025e-06
2.03161e-06
2.86004e-06
1.61737e-06
1.6128e-06
2.857e-06
2.02729e-06
3.47207e-06
1.6124e-06
2.02825e-06
2.85757e-06
1.41726e-06
2.10595e-06
2.36588e-06
1.27804e-06
2.36513e-06
1.27969e-06
1.41465e-06
1.41084e-06
1.27372e-06
2.36156e-06
2.10315e-06
1.41069e-06
1.27335e-06
2.36239e-06
1.61704e-06
2.03174e-06
3.47449e-06
2.86036e-06
2.85974e-06
2.03177e-06
1.61729e-06
1.61272e-06
2.85686e-06
2.02799e-06
3.47217e-06
1.6123e-06
2.85708e-06
2.02805e-06
1.41574e-06
2.10586e-06
1.27823e-06
2.36577e-06
1.27936e-06
2.36492e-06
1.41587e-06
1.40983e-06
1.27366e-06
2.36159e-06
2.10317e-06
1.41204e-06
1.27394e-06
2.36235e-06
1.61687e-06
2.03198e-06
3.47451e-06
2.86025e-06
2.03151e-06
2.85949e-06
1.61717e-06
1.61253e-06
2.85723e-06
1.41648e-06
2.10596e-06
1.27953e-06
2.36575e-06
1.27892e-06
2.36496e-06
1.4154e-06
1.40971e-06
1.27366e-06
2.36184e-06
2.1033e-06
1.41232e-06
1.27406e-06
2.36256e-06
1.61861e-06
2.03244e-06
3.47514e-06
2.8605e-06
2.86037e-06
2.0321e-06
1.61609e-06
1.61191e-06
2.85738e-06
2.02816e-06
3.4725e-06
1.61371e-06
2.85761e-06
2.02847e-06
1.41734e-06
2.10596e-06
1.27958e-06
2.36591e-06
1.27895e-06
2.36522e-06
1.41475e-06
2.66545e-06
1.14351e-06
1.76355e-06
1.76367e-06
2.66447e-06
1.76396e-06
1.76403e-06
6.44185e-07
1.19551e-06
1.19554e-06
1.42699e-06
1.42885e-06
1.42823e-06
1.42829e-06
1.19573e-06
1.19557e-06
1.19736e-06
1.19713e-06
1.42808e-06
1.42784e-06
1.19562e-06
1.19543e-06
1.19723e-06
1.19702e-06
1.19498e-06
1.19705e-06
1.19657e-06
1.42796e-06
1.4276e-06
1.19497e-06
1.19712e-06
1.19658e-06
1.42683e-06
1.19723e-06
1.19724e-06
4.24989e-06
9.49445e-06
9.4972e-06
4.24959e-06
1.89294e-05
1.89349e-05
4.24859e-06
9.4958e-06
9.49837e-06
4.24843e-06
6.44288e-07
6.4438e-07
6.44117e-07
6.47032e-07
6.47121e-07
6.47249e-07
6.46968e-07
2.31402e-06
3.65834e-06
9.34465e-07
1.19612e-06
3.65851e-06
9.35299e-07
2.31391e-06
1.89272e-05
1.89334e-05
2.3138e-06
9.34389e-07
3.65858e-06
1.19617e-06
9.35228e-07
3.65876e-06
2.31381e-06
5.64221e-06
5.64512e-06
1.42592e-06
5.64248e-06
5.64557e-06
5.64453e-06
5.64776e-06
1.89275e-05
1.89334e-05
1.89299e-05
1.89354e-05
5.64434e-06
5.64649e-06
1.42734e-06
5.64467e-06
5.64652e-06
1.89383e-05
1.89328e-05
1.89403e-05
1.89347e-05
1.42917e-06
5.64589e-06
5.64746e-06
5.64551e-06
5.64724e-06
4.25007e-06
9.496e-06
9.49872e-06
4.24977e-06
2.31494e-06
3.65858e-06
9.3429e-07
1.19635e-06
3.65871e-06
9.3514e-07
2.31466e-06
2.31505e-06
3.65925e-06
9.34396e-07
1.19618e-06
3.65949e-06
9.35223e-07
2.31478e-06
4.25052e-06
9.50007e-06
9.49747e-06
4.25084e-06
4.25067e-06
9.5013e-06
9.49899e-06
4.25093e-06
2.31539e-06
1.197e-06
3.65952e-06
9.36507e-07
3.65939e-06
9.36002e-07
2.31539e-06
2.31548e-06
1.19679e-06
3.6604e-06
9.36581e-07
3.66021e-06
9.36083e-07
2.31571e-06
5.64658e-06
5.64442e-06
1.42709e-06
5.64684e-06
5.64471e-06
1.89283e-05
1.89343e-05
1.89391e-05
1.89341e-05
1.42883e-06
5.64782e-06
5.64598e-06
5.64765e-06
5.64566e-06
1.89393e-05
1.89336e-05
2.31398e-06
3.65948e-06
9.34309e-07
1.19624e-06
3.65934e-06
9.35156e-07
2.31392e-06
4.24831e-06
9.49323e-06
9.49599e-06
4.24817e-06
2.3137e-06
9.34345e-07
3.65758e-06
1.19604e-06
9.35157e-07
3.65758e-06
2.31368e-06
4.24906e-06
9.5012e-06
9.49894e-06
4.24925e-06
2.31442e-06
1.19688e-06
3.65989e-06
9.36491e-07
3.65995e-06
9.35985e-07
2.31454e-06
4.24877e-06
9.49893e-06
9.49621e-06
4.24892e-06
2.31423e-06
1.19666e-06
9.36483e-07
3.65831e-06
9.35997e-07
3.65827e-06
2.31418e-06
4.24898e-06
9.49633e-06
9.49889e-06
4.24877e-06
2.31383e-06
9.34292e-07
3.65705e-06
1.19558e-06
9.35102e-07
3.65716e-06
2.31369e-06
4.24874e-06
9.49308e-06
9.49599e-06
4.2485e-06
2.31454e-06
1.19671e-06
3.65944e-06
9.36585e-07
3.65925e-06
9.36125e-07
2.3147e-06
4.24955e-06
9.50191e-06
9.49917e-06
4.24979e-06
2.31434e-06
1.19621e-06
9.36445e-07
3.65798e-06
9.35951e-07
3.65784e-06
2.31443e-06
4.24933e-06
9.49899e-06
9.49631e-06
4.24962e-06
5.64479e-06
5.64454e-06
1.4267e-06
5.64501e-06
5.64482e-06
1.89289e-05
1.89345e-05
1.89387e-05
1.89327e-05
1.42911e-06
5.64618e-06
5.64585e-06
5.64592e-06
5.64561e-06
1.89391e-05
1.89338e-05
2.31385e-06
9.34285e-07
3.65827e-06
1.19558e-06
9.35099e-07
3.65842e-06
2.31381e-06
4.24865e-06
9.49573e-06
9.49807e-06
4.24853e-06
4.24873e-06
9.4961e-06
9.49842e-06
4.24853e-06
2.3143e-06
1.19678e-06
9.36513e-07
3.65965e-06
9.36054e-07
3.65946e-06
2.31441e-06
2.31442e-06
1.19622e-06
9.36438e-07
3.6593e-06
9.35948e-07
3.65913e-06
2.31444e-06
4.24921e-06
9.50122e-06
9.49864e-06
4.24933e-06
4.24926e-06
9.50111e-06
9.49867e-06
4.24948e-06
1.89242e-05
1.89303e-05
1.89298e-05
1.89357e-05
1.42791e-06
5.64364e-06
5.64687e-06
5.64331e-06
5.64644e-06
1.89357e-05
1.89298e-05
1.89406e-05
1.89351e-05
9.3732e-07
3.65871e-06
2.31505e-06
9.49967e-06
4.25024e-06
3.66005e-06
9.50173e-06
1.89351e-05
1.89398e-05
1.2551e-05
1.11488e-05
4.8937e-06
4.25006e-06
1.11476e-05
4.89395e-06
1.25526e-05
2.25838e-05
9.49579e-06
7.2322e-06
7.23148e-06
2.25783e-05
2.25811e-05
7.23212e-06
9.49632e-06
7.23284e-06
2.25866e-05
1.25507e-05
4.24941e-06
1.11456e-05
4.89349e-06
1.11471e-05
4.89323e-06
1.2549e-05
1.89326e-05
1.89318e-05
1.25491e-05
4.89265e-06
1.11473e-05
4.24877e-06
4.89286e-06
1.11458e-05
1.25507e-05
2.25812e-05
9.49712e-06
7.2325e-06
7.23194e-06
2.25758e-05
2.25788e-05
7.23258e-06
9.49728e-06
7.23313e-06
2.25842e-05
1.25489e-05
4.24822e-06
4.89251e-06
1.1144e-05
4.89226e-06
1.11456e-05
1.25473e-05
1.89306e-05
1.89299e-05
9.94234e-06
2.22286e-05
2.22285e-05
2.22237e-05
2.22237e-05
9.94141e-06
4.71553e-06
2.99467e-06
5.64191e-06
9.85891e-06
2.99447e-06
9.86015e-06
4.71602e-06
4.72154e-06
2.9964e-06
5.64487e-06
9.86538e-06
2.99622e-06
9.8665e-06
4.72203e-06
4.71641e-06
9.86162e-06
5.64279e-06
2.99475e-06
2.99495e-06
9.86059e-06
4.71588e-06
4.7224e-06
9.86793e-06
5.64581e-06
2.99658e-06
2.99676e-06
9.86691e-06
4.72191e-06
9.94057e-06
2.22209e-05
2.2221e-05
2.22258e-05
2.22259e-05
9.94145e-06
4.71712e-06
2.99581e-06
9.86493e-06
5.64422e-06
4.71764e-06
2.99561e-06
9.86618e-06
4.72322e-06
2.99796e-06
9.87114e-06
5.64741e-06
4.72374e-06
2.99779e-06
9.87225e-06
9.94386e-06
2.22317e-05
2.22314e-05
9.9448e-06
2.22364e-05
2.2236e-05
1.89308e-05
1.89302e-05
1.8933e-05
1.89323e-05
9.94611e-06
2.22339e-05
2.22332e-05
2.22292e-05
2.22285e-05
9.9452e-06
4.71834e-06
2.99691e-06
5.64406e-06
9.86302e-06
9.8643e-06
2.99673e-06
4.71879e-06
4.724e-06
2.99821e-06
5.64611e-06
9.86778e-06
9.8689e-06
2.99799e-06
4.72445e-06
4.71922e-06
9.86563e-06
5.64494e-06
2.99708e-06
9.86469e-06
4.71875e-06
2.99726e-06
4.72487e-06
9.87018e-06
5.64689e-06
2.9982e-06
9.86905e-06
4.72439e-06
2.99842e-06
9.94431e-06
2.22267e-05
2.2226e-05
2.22315e-05
2.22307e-05
9.94518e-06
1.89352e-05
1.89359e-05
1.89372e-05
1.89378e-05
9.94611e-06
2.22316e-05
2.22309e-05
9.947e-06
2.22363e-05
2.22356e-05
4.72013e-06
2.99773e-06
5.64617e-06
9.86835e-06
9.86714e-06
2.9979e-06
4.71961e-06
4.72576e-06
2.99871e-06
5.64777e-06
9.87294e-06
9.8717e-06
2.9989e-06
4.72526e-06
4.7192e-06
9.86577e-06
2.99756e-06
5.64527e-06
4.71968e-06
9.86707e-06
2.99739e-06
4.72484e-06
9.87041e-06
2.99862e-06
5.64691e-06
4.72532e-06
9.87154e-06
2.99841e-06
9.94782e-06
2.22385e-05
2.22378e-05
2.22339e-05
2.22332e-05
9.94693e-06
1.25514e-05
1.11491e-05
4.89413e-06
4.25024e-06
1.11478e-05
4.89431e-06
1.25529e-05
2.25843e-05
9.49734e-06
7.23361e-06
7.23306e-06
2.2579e-05
2.25818e-05
7.23373e-06
9.49787e-06
7.23428e-06
2.25871e-05
1.25511e-05
4.24959e-06
1.11459e-05
4.89382e-06
1.11473e-05
4.89364e-06
1.25494e-05
1.25544e-05
1.11493e-05
4.89434e-06
4.25035e-06
1.25528e-05
1.11507e-05
4.89409e-06
2.25866e-05
9.49919e-06
7.23337e-06
2.25919e-05
7.2341e-06
2.25893e-05
7.23343e-06
9.49862e-06
2.25839e-05
7.23272e-06
1.25546e-05
4.25102e-06
1.11521e-05
4.89453e-06
1.25561e-05
1.1151e-05
4.8948e-06
1.25547e-05
1.11495e-05
4.89476e-06
4.25049e-06
1.25531e-05
1.11508e-05
4.89457e-06
2.25872e-05
9.50047e-06
7.235e-06
7.23558e-06
2.25923e-05
2.25898e-05
7.23489e-06
9.49998e-06
2.25846e-05
7.23436e-06
1.25548e-05
4.25112e-06
1.11523e-05
4.89502e-06
1.11511e-05
4.89521e-06
1.25563e-05
9.94552e-06
2.22307e-05
2.22323e-05
2.22262e-05
2.22278e-05
9.94438e-06
4.72431e-06
2.9982e-06
5.64628e-06
9.86774e-06
9.86868e-06
2.99798e-06
4.72487e-06
4.71809e-06
2.99652e-06
5.64407e-06
9.86317e-06
2.99625e-06
9.86422e-06
4.71874e-06
4.72508e-06
9.86978e-06
5.64715e-06
2.99823e-06
9.86891e-06
2.99844e-06
4.72448e-06
4.71879e-06
9.86548e-06
5.64505e-06
2.99643e-06
2.99666e-06
9.86441e-06
4.71817e-06
9.94395e-06
2.22242e-05
2.22258e-05
2.22288e-05
2.22303e-05
9.94503e-06
1.89317e-05
1.8931e-05
1.89362e-05
1.89371e-05
9.94485e-06
2.22282e-05
2.22298e-05
9.94595e-06
2.22327e-05
2.22343e-05
4.7255e-06
2.99871e-06
5.64817e-06
9.87191e-06
2.99894e-06
9.87109e-06
4.72486e-06
4.71923e-06
2.99692e-06
5.64633e-06
9.86806e-06
9.86705e-06
2.99712e-06
4.71862e-06
4.72467e-06
9.87002e-06
2.99867e-06
5.64734e-06
2.99845e-06
4.7253e-06
9.87087e-06
4.71839e-06
9.86573e-06
2.99683e-06
5.64533e-06
4.71899e-06
9.86679e-06
2.99662e-06
9.94632e-06
2.22347e-05
2.22363e-05
2.22302e-05
2.22318e-05
9.94526e-06
1.89361e-05
1.89369e-05
1.25483e-05
1.11466e-05
4.89185e-06
4.24848e-06
1.11454e-05
4.89215e-06
1.25499e-05
2.25796e-05
9.49456e-06
7.23039e-06
7.22967e-06
2.25739e-05
2.25769e-05
7.23023e-06
9.4951e-06
7.23098e-06
2.25825e-05
1.25481e-05
4.24795e-06
1.11437e-05
4.89183e-06
1.11449e-05
4.8915e-06
1.25465e-05
1.25524e-05
4.89317e-06
1.11475e-05
4.24888e-06
1.25509e-05
4.89295e-06
1.11489e-05
2.25847e-05
9.50033e-06
7.23383e-06
2.259e-05
7.23438e-06
2.25871e-05
7.23371e-06
9.4997e-06
2.25818e-05
7.23317e-06
1.25526e-05
4.24941e-06
4.89334e-06
1.11504e-05
1.25542e-05
4.89356e-06
1.11491e-05
1.25516e-05
1.1147e-05
4.89242e-06
4.2486e-06
1.25501e-05
1.11484e-05
4.89213e-06
2.25827e-05
9.49765e-06
7.23133e-06
7.23207e-06
2.25883e-05
2.25854e-05
7.23148e-06
9.49748e-06
2.25799e-05
7.23075e-06
1.25518e-05
4.24913e-06
1.11499e-05
4.89248e-06
1.11485e-05
4.89279e-06
1.25533e-05
1.25507e-05
4.89309e-06
1.11487e-05
4.24917e-06
4.89329e-06
1.11474e-05
1.25523e-05
2.25842e-05
9.49737e-06
7.23294e-06
7.23244e-06
2.25787e-05
2.25819e-05
7.23319e-06
9.49758e-06
7.23368e-06
2.25873e-05
1.25504e-05
4.24855e-06
4.89287e-06
1.11455e-05
4.89266e-06
1.11468e-05
1.25488e-05
1.25497e-05
1.11483e-05
4.89242e-06
4.24893e-06
1.11465e-05
4.89258e-06
1.25514e-05
2.25803e-05
9.4946e-06
7.23011e-06
7.22955e-06
2.25748e-05
2.2578e-05
7.23024e-06
9.49472e-06
7.23079e-06
2.25835e-05
1.25494e-05
4.24829e-06
1.11446e-05
4.8921e-06
1.11464e-05
4.89191e-06
1.25476e-05
1.25541e-05
4.89365e-06
1.11492e-05
4.24936e-06
1.25525e-05
4.89346e-06
1.11505e-05
2.25878e-05
9.50067e-06
7.23461e-06
7.2351e-06
2.25931e-05
2.25903e-05
7.23435e-06
9.50048e-06
2.25849e-05
7.23386e-06
1.25542e-05
4.24999e-06
4.89387e-06
1.11522e-05
4.89408e-06
1.11509e-05
1.25558e-05
1.25534e-05
1.11482e-05
4.89304e-06
4.24916e-06
1.25517e-05
1.11502e-05
4.89288e-06
2.25842e-05
9.49782e-06
7.23152e-06
7.23208e-06
2.25895e-05
2.25865e-05
7.23141e-06
9.4976e-06
2.25812e-05
7.23086e-06
1.25537e-05
4.2498e-06
1.11517e-05
4.89337e-06
1.115e-05
4.89353e-06
1.25554e-05
9.94508e-06
2.22317e-05
2.22323e-05
2.22269e-05
2.22276e-05
9.94413e-06
4.72326e-06
2.99696e-06
5.6444e-06
9.86596e-06
9.86722e-06
2.99673e-06
4.72375e-06
4.71794e-06
2.99667e-06
5.64425e-06
9.86287e-06
2.99647e-06
9.86397e-06
4.71846e-06
4.72417e-06
9.86872e-06
5.64538e-06
2.99705e-06
9.86746e-06
2.99726e-06
4.72367e-06
4.71885e-06
9.86531e-06
5.64512e-06
2.99678e-06
2.99698e-06
9.8643e-06
4.71834e-06
9.94334e-06
2.22244e-05
2.22252e-05
2.22292e-05
2.223e-05
9.94425e-06
1.89321e-05
1.89314e-05
1.89353e-05
1.89361e-05
9.94494e-06
2.22294e-05
2.223e-05
9.94587e-06
2.22341e-05
2.22346e-05
4.72512e-06
2.99774e-06
5.64656e-06
9.87151e-06
2.99794e-06
9.87047e-06
4.72458e-06
4.71976e-06
2.99741e-06
5.64616e-06
9.86783e-06
9.86692e-06
2.9976e-06
4.7192e-06
4.72414e-06
9.86905e-06
2.99757e-06
5.64557e-06
2.99736e-06
4.72465e-06
9.87007e-06
4.71881e-06
9.86562e-06
2.99727e-06
5.64531e-06
4.71933e-06
9.86662e-06
2.99708e-06
9.94659e-06
2.22364e-05
2.22368e-05
2.22317e-05
2.22322e-05
9.94567e-06
1.8936e-05
1.89368e-05
1.25497e-05
4.89245e-06
1.11481e-05
4.24889e-06
4.8927e-06
1.11469e-05
1.25513e-05
2.25825e-05
9.49665e-06
7.23117e-06
7.23062e-06
2.25771e-05
2.258e-05
7.23128e-06
9.4969e-06
7.23181e-06
2.25853e-05
1.25496e-05
4.24826e-06
4.89237e-06
1.11451e-05
4.89205e-06
1.11465e-05
1.2548e-05
1.25496e-05
4.89246e-06
1.11484e-05
4.24891e-06
4.89275e-06
1.11472e-05
1.25512e-05
2.25816e-05
9.49695e-06
7.23246e-06
7.23174e-06
2.25759e-05
2.25788e-05
7.23239e-06
9.49759e-06
7.23311e-06
2.25845e-05
1.25494e-05
4.24833e-06
4.89235e-06
1.11455e-05
4.89205e-06
1.11467e-05
1.25477e-05
1.2553e-05
4.89304e-06
1.11485e-05
4.24896e-06
1.25515e-05
4.89276e-06
1.11497e-05
2.25856e-05
9.49962e-06
7.23256e-06
7.23312e-06
2.25908e-05
2.25881e-05
7.23244e-06
9.49953e-06
2.25829e-05
7.23191e-06
1.25532e-05
4.24959e-06
4.89317e-06
1.11512e-05
4.89345e-06
1.11501e-05
1.25547e-05
1.25529e-05
4.89311e-06
1.11488e-05
4.24908e-06
1.25513e-05
4.89282e-06
1.11503e-05
2.25845e-05
9.50002e-06
7.23363e-06
7.23437e-06
2.25901e-05
2.25873e-05
7.2337e-06
9.49987e-06
2.25817e-05
7.23298e-06
1.25531e-05
4.24966e-06
4.89321e-06
1.11518e-05
4.89351e-06
1.11505e-05
1.25546e-05
1.89275e-05
1.8927e-05
1.89331e-05
1.89325e-05
9.94227e-06
2.22265e-05
2.22264e-05
9.94318e-06
2.22313e-05
2.22311e-05
4.71722e-06
2.99532e-06
5.64393e-06
9.86463e-06
4.71668e-06
2.99552e-06
9.86346e-06
4.72329e-06
2.99739e-06
5.64713e-06
9.87081e-06
4.72278e-06
2.99755e-06
9.86952e-06
4.71629e-06
9.86202e-06
2.99521e-06
5.64302e-06
4.71682e-06
2.99502e-06
9.86317e-06
4.72235e-06
9.86794e-06
2.99713e-06
5.64621e-06
4.72284e-06
2.99697e-06
9.86947e-06
9.94395e-06
2.22339e-05
2.22336e-05
9.94304e-06
2.22291e-05
2.22289e-05
1.89325e-05
1.8933e-05
1.89376e-05
1.89383e-05
2.25925e-05
7.23271e-06
9.50051e-06
2.25872e-05
7.23216e-06
1.25572e-05
4.25007e-06
1.11521e-05
4.89399e-06
1.25556e-05
1.11535e-05
4.89383e-06
9.50245e-06
1.89384e-05
1.89428e-05
4.26037e-07
4.26038e-07
6.45297e-07
4.27303e-07
4.27302e-07
2.15235e-07
2.14324e-07
2.85121e-06
1.98899e-06
1.98934e-06
1.42543e-06
1.98825e-06
1.98861e-06
2.85154e-06
2.85227e-06
1.99013e-06
1.99063e-06
1.42733e-06
2.85259e-06
1.98943e-06
1.9899e-06
2.85351e-06
1.99079e-06
1.99104e-06
1.42676e-06
1.99007e-06
1.9903e-06
2.85383e-06
2.8547e-06
1.42966e-06
1.99106e-06
1.99126e-06
1.99176e-06
1.99197e-06
2.85437e-06
2.8536e-06
1.99092e-06
1.99062e-06
1.42661e-06
1.98985e-06
1.99014e-06
2.85398e-06
2.85429e-06
1.42923e-06
1.99083e-06
1.99045e-06
1.99157e-06
1.99121e-06
2.85388e-06
2.85297e-06
1.9903e-06
1.99043e-06
1.42627e-06
1.98972e-06
1.98954e-06
2.85329e-06
2.85419e-06
1.42956e-06
1.9905e-06
1.99064e-06
1.99124e-06
1.99138e-06
2.85387e-06
2.85233e-06
1.42839e-06
1.98911e-06
1.98958e-06
2.85198e-06
1.98983e-06
1.9903e-06
4.26147e-07
4.26299e-07
6.45377e-07
4.27418e-07
4.27573e-07
2.15392e-07
2.14403e-07
4.26271e-07
4.26276e-07
6.45478e-07
4.27544e-07
4.27559e-07
2.15435e-07
2.14441e-07
4.26316e-07
4.26187e-07
6.45209e-07
4.27577e-07
4.27455e-07
2.15437e-07
2.14442e-07
6.46406e-07
4.29304e-07
4.29296e-07
4.28579e-07
4.28571e-07
2.16399e-07
2.17351e-07
6.46452e-07
4.2948e-07
4.29605e-07
4.28646e-07
4.28786e-07
2.16403e-07
2.17503e-07
6.46561e-07
4.29608e-07
4.29611e-07
4.28769e-07
4.28778e-07
2.16447e-07
2.17552e-07
6.46283e-07
4.29616e-07
4.29507e-07
4.28788e-07
4.28671e-07
2.16435e-07
2.17534e-07
1.68446e-06
2.56122e-06
1.55885e-06
2.31425e-06
2.56146e-06
1.55985e-06
1.68314e-06
1.86107e-06
2.24647e-06
3.65802e-06
3.04061e-06
2.24591e-06
3.04019e-06
1.86268e-06
1.86306e-06
3.04059e-06
3.65882e-06
2.24619e-06
2.24673e-06
3.04097e-06
1.86119e-06
1.6828e-06
2.31383e-06
2.56121e-06
1.55943e-06
2.56108e-06
1.55847e-06
1.68408e-06
1.68423e-06
1.55854e-06
2.56074e-06
2.31405e-06
1.55966e-06
2.56102e-06
1.68292e-06
1.86108e-06
2.24658e-06
3.65829e-06
3.04018e-06
2.24605e-06
3.03969e-06
1.86221e-06
1.86254e-06
3.04006e-06
3.65905e-06
2.24636e-06
2.24686e-06
3.04051e-06
1.86147e-06
1.6824e-06
2.3137e-06
1.55934e-06
2.5608e-06
1.5582e-06
2.56066e-06
1.68429e-06
2.85178e-06
1.42748e-06
1.98857e-06
1.98894e-06
1.98928e-06
1.98965e-06
2.85144e-06
2.8541e-06
1.42875e-06
1.99039e-06
1.99063e-06
2.85376e-06
1.99112e-06
1.99135e-06
2.85406e-06
1.42782e-06
1.99143e-06
1.99164e-06
2.85439e-06
1.99072e-06
1.99093e-06
1.6852e-06
2.56182e-06
1.55913e-06
2.31506e-06
2.56196e-06
1.56039e-06
1.68304e-06
1.86124e-06
2.24694e-06
3.65826e-06
3.04075e-06
3.04037e-06
2.24642e-06
1.86277e-06
1.86331e-06
3.04069e-06
3.65901e-06
2.24674e-06
3.04104e-06
2.24725e-06
1.86151e-06
1.68276e-06
2.31447e-06
2.56169e-06
1.56e-06
2.56156e-06
1.5588e-06
1.68446e-06
1.68486e-06
2.56222e-06
1.55916e-06
2.31517e-06
2.56237e-06
1.56042e-06
1.68325e-06
1.86152e-06
2.2472e-06
3.65897e-06
3.04127e-06
3.04096e-06
2.24665e-06
1.86289e-06
1.86312e-06
3.04132e-06
3.65976e-06
2.24697e-06
3.04167e-06
1.86205e-06
2.24749e-06
1.68333e-06
2.31458e-06
2.56206e-06
1.56e-06
2.56193e-06
1.55884e-06
1.68455e-06
1.68311e-06
2.56215e-06
1.56095e-06
2.31525e-06
1.6856e-06
2.56189e-06
1.5595e-06
1.86371e-06
2.24731e-06
3.65983e-06
3.04126e-06
2.24781e-06
3.04157e-06
1.86267e-06
1.86211e-06
3.04128e-06
2.24751e-06
3.65909e-06
2.24701e-06
1.86365e-06
3.04096e-06
1.68603e-06
2.31567e-06
2.56219e-06
1.55986e-06
2.56247e-06
1.56125e-06
1.68407e-06
1.68333e-06
2.56266e-06
1.56096e-06
2.31524e-06
1.6858e-06
2.56239e-06
1.55952e-06
1.86428e-06
2.24755e-06
3.6607e-06
3.04191e-06
3.04251e-06
2.24808e-06
1.86217e-06
1.86197e-06
3.04209e-06
2.24776e-06
3.65993e-06
1.86338e-06
3.0416e-06
2.24723e-06
1.68628e-06
2.31583e-06
2.56254e-06
1.55989e-06
2.56295e-06
1.56127e-06
1.68422e-06
2.85406e-06
1.42851e-06
1.99039e-06
1.99008e-06
1.99082e-06
1.99114e-06
2.85367e-06
2.85378e-06
1.42745e-06
1.99133e-06
1.99099e-06
1.99059e-06
2.85418e-06
1.99024e-06
1.68498e-06
2.56128e-06
1.55875e-06
2.31424e-06
2.56145e-06
1.5599e-06
1.68285e-06
1.8616e-06
2.24735e-06
3.65906e-06
3.04077e-06
3.04042e-06
2.24679e-06
1.86322e-06
1.86313e-06
3.04069e-06
3.65977e-06
2.24705e-06
3.04103e-06
2.24759e-06
1.862e-06
1.68254e-06
2.31385e-06
2.56118e-06
1.55955e-06
2.56104e-06
1.55841e-06
1.68436e-06
1.68393e-06
1.55842e-06
2.56034e-06
2.31399e-06
1.55977e-06
2.5607e-06
1.68224e-06
1.86042e-06
2.24613e-06
3.65719e-06
3.03942e-06
3.039e-06
2.24556e-06
1.86167e-06
1.86228e-06
3.03921e-06
3.65795e-06
2.24584e-06
3.0397e-06
1.86046e-06
2.24638e-06
1.68248e-06
2.3136e-06
1.55938e-06
2.5605e-06
1.55818e-06
2.56012e-06
1.68377e-06
1.68348e-06
2.56156e-06
1.56034e-06
2.31416e-06
1.68511e-06
2.56132e-06
1.55903e-06
1.86365e-06
2.24753e-06
3.66027e-06
3.04122e-06
2.24807e-06
3.04153e-06
1.86256e-06
1.86223e-06
3.04124e-06
2.2478e-06
3.65954e-06
2.24726e-06
1.8634e-06
3.04092e-06
1.68523e-06
2.31467e-06
2.56143e-06
1.55937e-06
2.56179e-06
1.56068e-06
1.68393e-06
1.68254e-06
1.56022e-06
2.56086e-06
2.31388e-06
1.68476e-06
1.55875e-06
2.56051e-06
1.86302e-06
2.24639e-06
3.65867e-06
3.03955e-06
3.04019e-06
2.24692e-06
1.86147e-06
1.86058e-06
3.03996e-06
2.24661e-06
3.6579e-06
1.86271e-06
3.03941e-06
2.24609e-06
1.68506e-06
2.31433e-06
1.55907e-06
2.56056e-06
1.56044e-06
2.56097e-06
1.68273e-06
1.68432e-06
1.5586e-06
2.56077e-06
2.31405e-06
1.55969e-06
2.561e-06
1.68251e-06
1.86001e-06
2.24531e-06
3.65673e-06
3.03943e-06
2.24476e-06
3.03899e-06
1.86196e-06
1.86213e-06
3.03931e-06
3.65746e-06
2.24505e-06
2.24557e-06
3.03976e-06
1.86072e-06
1.68185e-06
2.31363e-06
1.5594e-06
2.56064e-06
1.55824e-06
2.56048e-06
1.68412e-06
1.68352e-06
2.5617e-06
1.56023e-06
2.31428e-06
1.68475e-06
2.5614e-06
1.55908e-06
1.86347e-06
2.24677e-06
3.65976e-06
3.04127e-06
1.86245e-06
2.24729e-06
3.04159e-06
1.86187e-06
3.04126e-06
2.24698e-06
3.65895e-06
1.86349e-06
2.24647e-06
3.04093e-06
1.68501e-06
2.31482e-06
2.56181e-06
1.55943e-06
1.68349e-06
2.56198e-06
1.56068e-06
1.68313e-06
1.56012e-06
2.56128e-06
2.31423e-06
1.68446e-06
1.5589e-06
2.56102e-06
1.86251e-06
2.24564e-06
3.65829e-06
3.04006e-06
3.04047e-06
2.24615e-06
1.86127e-06
1.86116e-06
3.04011e-06
2.24582e-06
3.65754e-06
1.86225e-06
3.03969e-06
2.24532e-06
1.68467e-06
2.31465e-06
1.55924e-06
2.56136e-06
1.56052e-06
2.56162e-06
1.68334e-06
2.85354e-06
1.42858e-06
1.98985e-06
1.99004e-06
1.99075e-06
1.9906e-06
2.85322e-06
2.85355e-06
1.42715e-06
1.9909e-06
1.99106e-06
1.99018e-06
2.85386e-06
1.99032e-06
1.68445e-06
1.55844e-06
2.56081e-06
2.31411e-06
1.55971e-06
2.56111e-06
1.68248e-06
1.86081e-06
2.24611e-06
3.65796e-06
3.04017e-06
2.24559e-06
3.03967e-06
1.86202e-06
1.86229e-06
3.03993e-06
3.65872e-06
2.24594e-06
2.24644e-06
3.04051e-06
1.86117e-06
1.6821e-06
2.31361e-06
1.55934e-06
2.56076e-06
1.55815e-06
2.5607e-06
1.68427e-06
1.68315e-06
1.5601e-06
2.56128e-06
2.31417e-06
1.68446e-06
1.55878e-06
2.56096e-06
1.86355e-06
2.24694e-06
3.65994e-06
3.04073e-06
1.86158e-06
2.24746e-06
3.04113e-06
1.86133e-06
3.04083e-06
2.24713e-06
3.65918e-06
1.86274e-06
2.24663e-06
3.04041e-06
1.68464e-06
2.31454e-06
1.5591e-06
2.56125e-06
1.68327e-06
1.56048e-06
2.56146e-06
1.68321e-06
1.56017e-06
2.56137e-06
2.3141e-06
1.68464e-06
1.55878e-06
2.56113e-06
1.86314e-06
2.24658e-06
3.6596e-06
3.04072e-06
3.0412e-06
2.2471e-06
1.86128e-06
1.86154e-06
3.04086e-06
2.24675e-06
3.65883e-06
1.86259e-06
3.04026e-06
2.24626e-06
1.68475e-06
2.31459e-06
1.55914e-06
2.56124e-06
1.56046e-06
2.56156e-06
1.68349e-06
2.85171e-06
1.42635e-06
1.98954e-06
1.98995e-06
2.85205e-06
1.98882e-06
1.98922e-06
1.86152e-06
2.24641e-06
3.04082e-06
3.65841e-06
2.24588e-06
1.86323e-06
3.04047e-06
1.68339e-06
2.31486e-06
1.56098e-06
2.56202e-06
1.55959e-06
1.68528e-06
2.56175e-06
2.2474e-06
3.65974e-06
2.24689e-06
3.23665e-07
8.68816e-07
8.68929e-07
1.154e-06
3.39694e-07
8.92261e-07
8.92366e-07
1.17342e-06
3.55966e-07
9.14734e-07
9.14835e-07
1.19201e-06
3.72411e-07
9.36248e-07
9.36336e-07
1.20967e-06
3.88952e-07
9.56808e-07
9.56882e-07
1.22652e-06
4.05519e-07
9.76455e-07
9.76529e-07
1.24263e-06
4.22049e-07
9.95231e-07
9.95311e-07
1.25805e-06
4.38481e-07
1.01318e-06
1.01327e-06
1.27277e-06
4.54764e-07
1.03037e-06
1.03047e-06
1.28699e-06
4.70849e-07
1.04686e-06
1.04697e-06
1.30082e-06
4.86694e-07
1.06268e-06
1.06282e-06
1.31416e-06
5.02251e-07
1.07786e-06
1.07802e-06
1.32701e-06
5.17455e-07
1.09239e-06
1.09258e-06
1.33933e-06
5.32222e-07
1.10622e-06
1.10642e-06
1.35107e-06
5.4645e-07
1.11928e-06
1.11948e-06
1.36222e-06
5.6002e-07
1.13147e-06
1.13165e-06
1.3726e-06
5.72809e-07
1.14268e-06
1.14282e-06
1.38213e-06
5.84702e-07
1.15279e-06
1.1529e-06
1.39071e-06
5.95613e-07
1.16174e-06
1.16182e-06
1.39827e-06
6.05492e-07
1.1695e-06
1.16956e-06
1.40487e-06
6.14326e-07
1.17611e-06
1.17617e-06
1.41064e-06
6.22116e-07
1.18164e-06
1.1817e-06