/*--------------------------------*- C++ -*----------------------------------*\
| =========                 |                                                 |
| \\      /  F ield         | OpenFOAM: The Open Source CFD Toolbox           |
|  \\    /   O peration     | Version:  v1906                                 |
|   \\  /    A nd           | Web:      www.OpenFOAM.com                      |
|    \\/     M anipulation  |                                                 |
\*---------------------------------------------------------------------------*/
FoamFile
{
    version     2.0;
    format      ascii;
    class       volScalarField;
    location    "300";
    object      p;
}
// * * * * * * * * * * * * * * * * * * * * * * * * * * * * * * * * * * * * * //

dimensions      [0 2 -2 0 0 0 0];


internalField   nonuniform List<scalar> 
171728
(
0.00168128
0.00168293
0.00168293
0.00168128
0.00168293
0.00168293
0.00168293
0.00168293
0.00168128
0.00168293
0.00168293
0.00168128
0.00168301
0.00168301
0.00168301
0.00168301
0.00168058
0.00168058
0.0016806
0.0016806
0.00169392
0.00168059
0.00168061
0.00169392
0.00168059
0.00169392
0.00168061
0.00169386
0.00168066
0.00168298
0.00169195
0.00168075
0.00169386
0.0016919
0.00168066
0.00168298
0.00169388
0.00169195
0.00168075
0.00168058
0.00169392
0.00169348
0.0016806
0.0016806
0.00169393
0.00169392
0.00168058
0.00169392
0.00168059
0.00168061
0.00168066
0.00168298
0.00168075
0.00168059
0.00168061
0.00168298
0.00168066
0.00168075
0.00169386
0.0016919
0.00168066
0.00168298
0.00169388
0.00169195
0.00168075
0.00169392
0.00168059
0.00169392
0.00168061
0.00169386
0.0016919
0.00168298
0.00168066
0.00169195
0.00169388
0.00168075
0.00169392
0.00168059
0.00169392
0.00168061
0.00168058
0.0016806
0.0016806
0.00168058
0.00169386
0.00168298
0.00168066
0.00169195
0.00168075
0.00169386
0.0016919
0.00168298
0.00168066
0.00169195
0.00169388
0.00168075
0.00169392
0.00168059
0.00168061
0.00169392
0.00168059
0.00169392
0.00168061
0.00169348
0.0016806
0.0016806
0.00169393
0.00169393
0.00168058
0.00169392
0.00168059
0.00169392
0.00168495
0.00168495
0.00168494
0.00168067
0.00168495
0.0016806
0.00168495
0.00168492
0.00168063
0.00168493
0.00168069
0.00168495
0.00168059
0.00168495
0.00168492
0.00168064
0.00168496
0.00168058
0.00168058
0.00168496
0.00168496
0.00168058
0.00168955
0.00169393
0.00169392
0.00168958
0.00169393
0.00168955
0.00168957
0.00168496
0.00168494
0.00168059
0.00168496
0.00168058
0.00168496
0.00168495
0.00168058
0.00168061
0.00168496
0.00168495
0.00168058
0.00168955
0.00169393
0.00169392
0.00168958
0.00169393
0.00168955
0.00168957
0.00168496
0.00168494
0.00168059
0.00168496
0.00168058
0.00168955
0.00169393
0.00168956
0.00169393
0.00168955
0.00168496
0.00168495
0.00168058
0.0016806
0.00168496
0.00168495
0.00168058
0.00168495
0.00168955
0.00168955
0.00169393
0.00169393
0.00169394
0.00168955
0.00168955
0.00168494
0.00168068
0.00168495
0.00168059
0.00168492
0.00168495
0.00168063
0.00168494
0.00168068
0.00168495
0.00168059
0.00168495
0.00168492
0.00168063
0.0016896
0.00169392
0.00169389
0.00168957
0.00168965
0.00169391
0.00168956
0.0016896
0.00169392
0.00169389
0.00168957
0.00169391
0.00168956
0.00168965
0.00168497
0.00168058
0.00168058
0.00168496
0.00168496
0.00168058
0.00168495
0.00168955
0.00168496
0.00168494
0.00168059
0.00168496
0.00168058
0.00168496
0.00168495
0.0016806
0.00168058
0.00168495
0.00168495
0.00168058
0.00168496
0.00168494
0.00168059
0.00168496
0.00168058
0.00168495
0.00168495
0.00168058
0.0016806
0.00168495
0.00168495
0.00168058
0.00168955
0.00169392
0.00169393
0.00168958
0.00169393
0.00168957
0.00168955
0.00168496
0.00168494
0.00168059
0.00168496
0.00168058
0.00168955
0.00169393
0.00168956
0.00169393
0.00168955
0.00168496
0.00168495
0.0016806
0.00168058
0.00168495
0.00168495
0.00168058
0.00168955
0.00169393
0.00169392
0.00168958
0.00169393
0.00168955
0.00168957
0.00168496
0.00168494
0.00168059
0.00168496
0.00168058
0.00168955
0.00169393
0.00168956
0.00169393
0.00168955
0.00168496
0.00168495
0.00168058
0.0016806
0.00168495
0.00168495
0.00168058
0.00168495
0.00168494
0.00168068
0.00168495
0.00168059
0.00168492
0.00168495
0.00168063
0.00168494
0.00168068
0.00168495
0.00168059
0.00168495
0.00168492
0.00168063
0.00168497
0.00168058
0.00168058
0.00168496
0.00168496
0.00168058
0.00168495
0.00168955
0.00169392
0.00169393
0.00168958
0.00169393
0.00168957
0.00168955
0.00168496
0.00168494
0.00168059
0.00168496
0.00168058
0.00168955
0.00168955
0.00168496
0.00168495
0.0016806
0.00168058
0.00168495
0.00168495
0.00168058
0.00168955
0.00169392
0.00169393
0.00168958
0.00169393
0.00168957
0.00168955
0.00168496
0.00168494
0.00168059
0.00168496
0.00168058
0.00168955
0.00169393
0.00168956
0.00169393
0.00168955
0.00168496
0.00168495
0.00168061
0.00168058
0.00168495
0.00168495
0.00168058
0.00168955
0.00169393
0.00169393
0.00169394
0.00168955
0.00168955
0.00168494
0.00168068
0.00168495
0.00168059
0.00168492
0.00168495
0.00168063
0.00168494
0.00168068
0.00168495
0.00168059
0.00168492
0.00168495
0.00168063
0.0016896
0.00169392
0.00169389
0.00168956
0.00169391
0.00168965
0.00168956
0.0016896
0.00169392
0.00169389
0.00168956
0.00169391
0.00168965
0.00168956
0.00168497
0.00168058
0.00168058
0.00168496
0.00168496
0.00168058
0.00168495
0.00168955
0.00168495
0.00168955
0.00168484
0.0016845
0.00168096
0.00168099
0.00168471
0.00168471
0.00168079
0.00168484
0.0016845
0.00168098
0.00168098
0.00168471
0.00168471
0.00168079
0.00168484
0.0016845
0.00168098
0.00168098
0.00168471
0.00168471
0.00168079
0.00168484
0.0016845
0.00168098
0.00168098
0.00168471
0.00168471
0.00168079
0.00168302
0.00168302
0.00169199
0.00169199
0.00168302
0.00169198
0.00168302
0.00168302
0.00169199
0.00169199
0.00169199
0.00168302
0.00168302
0.00168302
0.00169199
0.00169199
0.00168302
0.00169198
0.00168302
0.00168302
0.00169199
0.00169199
0.00169199
0.00168302
0.00168997
0.00169386
0.00169368
0.00168972
0.00169366
0.00168971
0.00168998
0.00168472
0.00168082
0.00168491
0.00168071
0.00168477
0.0016849
0.00168096
0.00168469
0.00168489
0.00168074
0.00168101
0.00168489
0.00168471
0.001681
0.00168997
0.00169386
0.00169368
0.00168972
0.00169366
0.00168971
0.00168998
0.00168472
0.00168083
0.00168491
0.00168071
0.0016849
0.00168478
0.00168096
0.00168993
0.00169387
0.00169375
0.00168963
0.00169369
0.00168968
0.0016898
0.00168469
0.00168489
0.00168074
0.00168101
0.00168489
0.00168471
0.001681
0.00168975
0.00169025
0.00169368
0.00169368
0.00168995
0.00169381
0.00168995
0.00168472
0.00168083
0.00168491
0.00168071
0.00168478
0.0016849
0.00168096
0.00168469
0.00168489
0.00168074
0.00168101
0.00168489
0.00168471
0.001681
0.00168472
0.00168083
0.00168491
0.00168071
0.0016849
0.00168478
0.00168096
0.00168469
0.00168489
0.00168101
0.00168074
0.00168471
0.00168489
0.001681
0.00168997
0.00169386
0.00169368
0.00168972
0.00169366
0.00168971
0.00168998
0.00168472
0.00168083
0.00168491
0.00168071
0.00168478
0.0016849
0.00168096
0.00168993
0.00169387
0.00169375
0.00168963
0.00169369
0.00168979
0.00168968
0.00168469
0.00168489
0.00168074
0.00168101
0.00168489
0.00168471
0.001681
0.00168996
0.00169368
0.00169386
0.00168972
0.00169366
0.00168998
0.00168971
0.00168472
0.00168083
0.00168491
0.00168071
0.0016849
0.00168478
0.00168096
0.00168993
0.00169387
0.00169375
0.00168963
0.00169369
0.00168968
0.00168979
0.00168469
0.00168489
0.00168101
0.00168074
0.00168471
0.00168489
0.00168099
0.00168997
0.00169368
0.00169386
0.00168972
0.00169366
0.00168998
0.00168971
0.00168472
0.00168083
0.00168491
0.00168071
0.00168478
0.0016849
0.00168096
0.00168993
0.00168968
0.00168469
0.00168489
0.00168101
0.00168074
0.00168471
0.00168489
0.001681
0.00168997
0.00169368
0.00169386
0.00168972
0.00169366
0.00168998
0.00168971
0.00168472
0.00168083
0.00168491
0.00168071
0.0016849
0.00168478
0.00168096
0.00168993
0.00169387
0.00169375
0.00168963
0.00169369
0.00168968
0.0016898
0.00168469
0.00168489
0.00168101
0.00168074
0.00168471
0.00168489
0.001681
0.00168975
0.00169025
0.00169368
0.00169368
0.00169381
0.00168995
0.00168995
0.000785765
0.000785727
0.000785728
0.000787317
0.000751785
0.00078732
0.000757471
0.00078573
0.000785728
0.000759081
0.00075908
0.000787316
0.00075747
0.00078573
0.000785728
0.00075908
0.000759079
0.000785727
0.000759079
0.000759079
0.000787318
0.00075747
0.000785727
0.00075908
0.000759079
0.00075747
0.00075019
0.000750191
0.00077468
0.000787881
0.000774678
0.000787872
0.000787885
0.000774673
0.000774681
0.00078788
0.000774678
0.000787872
0.000785763
0.000785763
0.000785762
0.00075911
0.000759109
0.000759109
0.000759108
0.000774766
0.000787835
0.00078574
0.000776847
0.000774718
0.00077686
0.000787788
0.000787884
0.000774673
0.000774766
0.000785741
0.000787835
0.000776848
0.00077686
0.000774716
0.000787787
0.000787879
0.000787879
0.000775238
0.000774671
0.000774671
0.000752349
0.000752348
0.000787886
0.000774675
0.000787886
0.000774675
0.000787883
0.000787883
0.000775241
0.000774673
0.000774673
0.000756905
0.000770125
0.000756905
0.000770126
0.00076956
0.000756903
0.000756904
0.000770122
0.000770122
0.00077468
0.000787879
0.000774676
0.000787872
0.000774769
0.000787837
0.000785743
0.00077685
0.000774718
0.000776863
0.00078779
0.000774769
0.000787836
0.000785743
0.000776848
0.000774717
0.000776862
0.00078779
0.000770112
0.000756908
0.00077012
0.000756912
0.000770112
0.000756907
0.000770118
0.000756911
0.00077003
0.000767968
0.000756948
0.000759093
0.000770077
0.00076798
0.000757
0.00077003
0.000767966
0.000756947
0.000759092
0.000770076
0.000767979
0.000757
0.000787881
0.000787881
0.000775239
0.000774672
0.000774674
0.000787884
0.000774674
0.000756904
0.000770124
0.000769557
0.000756903
0.000756904
0.000770121
0.000770121
0.000756904
0.000770125
0.000774767
0.000787836
0.000785743
0.00077685
0.000774718
0.000776862
0.000787789
0.00077468
0.000787879
0.000774677
0.000787872
0.000774767
0.000785742
0.000787834
0.000776848
0.000776861
0.000774717
0.000787789
0.000770113
0.000756908
0.00077012
0.000756911
0.000770029
0.000767967
0.000756949
0.000759091
0.000770075
0.000767979
0.000756998
0.000770113
0.000756907
0.000770119
0.000756912
0.000770029
0.000767966
0.000759091
0.000756948
0.000767978
0.000770075
0.000756998
0.000774679
0.000787878
0.000774676
0.00078787
0.000774766
0.00078574
0.000787834
0.000776847
0.00077686
0.000774716
0.000787787
0.000774679
0.000787878
0.000774675
0.00078787
0.000770028
0.000767965
0.000756949
0.00075909
0.000770074
0.000767977
0.000756998
0.000770111
0.000756907
0.000770118
0.000756911
0.000770028
0.000767965
0.000759091
0.000756948
0.000767978
0.000770074
0.000756998
0.000770111
0.000756907
0.000770118
0.000756911
0.00078788
0.00078788
0.000775239
0.000774672
0.000774671
0.000787883
0.000774672
0.000756904
0.000770124
0.000769558
0.000756903
0.000756902
0.00077012
0.00077012
0.000756902
0.000770123
0.000774766
0.000785741
0.000787834
0.000776847
0.00077686
0.000774715
0.000787787
0.00077468
0.000787878
0.000774675
0.00078787
0.000774679
0.000787877
0.000774676
0.00078787
0.000770028
0.000767966
0.000759091
0.000756948
0.000767977
0.000770075
0.000756998
0.000770028
0.000767965
0.000759091
0.000756948
0.000767977
0.000770074
0.000756998
0.000770111
0.000756906
0.000770118
0.000756912
0.000770111
0.000756906
0.000770118
0.000756911
0.000787883
0.000774673
0.000787883
0.000774672
0.000769557
0.000756903
0.000756902
0.00077012
0.00077012
0.000756904
0.000770124
0.000756903
0.000770123
0.000750201
0.000752304
0.000752257
0.000752346
0.000752339
0.000752302
0.000752345
0.000752352
0.000752351
0.000779011
0.000774668
0.000774678
0.000778993
0.000779009
0.000778996
0.000774668
0.000783552
0.000783557
0.000787888
0.000783548
0.000787891
0.000779012
0.000774668
0.000779001
0.000779009
0.000774671
0.000783549
0.00078356
0.000787888
0.000787875
0.000783549
0.000783559
0.00078789
0.000783553
0.000779006
0.000779011
0.000774678
0.00077467
0.000778994
0.000778997
0.00077901
0.000774669
0.000783551
0.000783557
0.000787887
0.000783547
0.00078789
0.000779012
0.000774668
0.000779002
0.000779009
0.000774672
0.000783549
0.00078356
0.000787875
0.000787888
0.000783558
0.000783549
0.00078789
0.000783553
0.000779006
0.000779014
0.000774667
0.000774667
0.000779014
0.000779014
0.000774661
0.000783575
0.000787824
0.000783551
0.000787879
0.000783607
0.000783555
0.000787856
0.000783575
0.000787824
0.00078355
0.000787879
0.000783607
0.000783555
0.000787856
0.000778978
0.000774677
0.000779001
0.000774728
0.000778945
0.000779002
0.000774696
0.000778978
0.000774676
0.000779001
0.000774728
0.000778945
0.000779001
0.000774695
0.00078354
0.000787892
0.000787892
0.000783546
0.000783546
0.000787892
0.000748039
0.000752294
0.000752348
0.000748014
0.000752326
0.000748071
0.000748019
0.000748038
0.000752294
0.000752348
0.000748013
0.000752325
0.00074807
0.000748018
0.000748003
0.000752361
0.000752361
0.000752361
0.000748009
0.000748009
0.000783554
0.000779007
0.000783555
0.000779008
0.000779016
0.000774669
0.000774669
0.000779016
0.000779016
0.000774663
0.000783578
0.000787827
0.000783553
0.000787882
0.000783558
0.00078361
0.000787859
0.000783578
0.000787826
0.000783553
0.000787883
0.000783558
0.000783609
0.000787859
0.000778981
0.000774678
0.000779004
0.00077473
0.000779003
0.000774698
0.000778949
0.00077898
0.000774678
0.000779004
0.000774729
0.000779004
0.000774697
0.000778947
0.000783543
0.000787895
0.000787895
0.000783549
0.000783549
0.000787895
0.000761241
0.00076579
0.000761241
0.000765791
0.000765779
0.000770134
0.000770134
0.000770135
0.000765785
0.000765785
0.000761214
0.00075696
0.000761238
0.000756907
0.000761237
0.000761182
0.000756928
0.000761214
0.000756961
0.000761238
0.000756908
0.000761237
0.000761182
0.000756928
0.000765814
0.000770122
0.000770067
0.00076579
0.000770099
0.000765794
0.000765847
0.000765814
0.000770122
0.000770066
0.00076579
0.000770099
0.000765795
0.000765846
0.00076125
0.000756898
0.000756898
0.000761249
0.000761249
0.000756892
0.00077901
0.000774668
0.000774677
0.000778993
0.000779008
0.000778995
0.000774667
0.00078355
0.000783555
0.000787886
0.000783546
0.000787889
0.00077901
0.000774666
0.000779
0.000779008
0.00077467
0.000783547
0.00078356
0.000787888
0.000787874
0.000783548
0.000783557
0.000787889
0.000765785
0.000770127
0.000770114
0.000765798
0.000770129
0.000765786
0.000765795
0.000761245
0.000761235
0.000756898
0.000756902
0.000761242
0.000765788
0.000770127
0.000765794
0.00077013
0.000765784
0.000761245
0.000761228
0.0007569
0.000756909
0.0007569
0.000761243
0.00076123
0.000765785
0.000770127
0.000770114
0.000765797
0.000770128
0.000765786
0.000765795
0.000761244
0.000761234
0.000756897
0.000761242
0.000756901
0.000765787
0.000770126
0.000765793
0.000770129
0.000765783
0.000761244
0.000761227
0.000756899
0.000756908
0.000761243
0.00076123
0.000756898
0.000779017
0.000774669
0.000774669
0.000779017
0.000779017
0.000774663
0.000783577
0.000787826
0.000783552
0.000787881
0.000783557
0.000783609
0.000787858
0.000783577
0.000787824
0.000783553
0.000787882
0.000783608
0.000783558
0.000787858
0.000778979
0.000774678
0.000779002
0.000774729
0.000779003
0.000778946
0.000774697
0.000778979
0.000774678
0.000779003
0.000774729
0.000778946
0.000779004
0.000774697
0.000783543
0.000787895
0.000787895
0.000783549
0.00078355
0.000787895
0.000783554
0.000779006
0.00076124
0.00076579
0.000765781
0.000770136
0.000770136
0.000770136
0.000765786
0.000765786
0.000761214
0.00075696
0.000761237
0.000756908
0.000761181
0.000761237
0.000756928
0.000761215
0.000756961
0.000761237
0.000756908
0.000761237
0.000761182
0.000756928
0.000765815
0.000770122
0.000770065
0.000765789
0.000765846
0.000770099
0.000765795
0.000765815
0.000770122
0.000770066
0.000765791
0.000770099
0.000765795
0.000765847
0.000761251
0.000756899
0.000756899
0.00076125
0.000761251
0.000756893
0.000761241
0.000765791
0.000779011
0.00077467
0.000774678
0.000778994
0.000779009
0.000778996
0.000774669
0.000783551
0.000783556
0.000787886
0.000783547
0.00078789
0.000779012
0.000774667
0.000779
0.000779008
0.000774671
0.000783549
0.000783559
0.000787888
0.000787874
0.000783549
0.000783558
0.000787889
0.000765786
0.000770115
0.000770128
0.000765797
0.00077013
0.000765795
0.000765786
0.000761245
0.000761235
0.000756898
0.000756902
0.000761243
0.000765788
0.000770128
0.000765794
0.00077013
0.000765784
0.000761245
0.000761228
0.000756909
0.0007569
0.000756899
0.000761231
0.000761244
0.000765786
0.000770128
0.000770114
0.000765797
0.00077013
0.000765786
0.000765795
0.000761245
0.000761235
0.000756898
0.000761242
0.000756902
0.000765788
0.000770126
0.000765793
0.00077013
0.000765784
0.000761245
0.000761228
0.000756901
0.000756909
0.000761244
0.00076123
0.0007569
0.00077901
0.000774677
0.000774668
0.000778992
0.000778995
0.000779008
0.000774668
0.00078355
0.000783556
0.000787886
0.000783546
0.000787889
0.00077901
0.000774667
0.000779
0.000779008
0.000774671
0.000783547
0.000783559
0.000787873
0.000787886
0.000783557
0.000783548
0.000787888
0.000779009
0.000774668
0.000774676
0.000778992
0.000779008
0.000778994
0.000774667
0.000783549
0.000783555
0.000787885
0.000783545
0.000787888
0.000779009
0.000774665
0.000779
0.000779006
0.000774669
0.000783547
0.000783558
0.000787886
0.000787873
0.000783547
0.000783555
0.000787887
0.000765785
0.000770114
0.000770127
0.000765797
0.000770129
0.000765794
0.000765785
0.000761245
0.000761235
0.000756898
0.000761242
0.000756901
0.000765788
0.000770126
0.000765793
0.000770129
0.000765783
0.000761245
0.000761227
0.000756909
0.000756899
0.00076123
0.000761243
0.000756899
0.000765784
0.000770127
0.000770113
0.000765796
0.000770128
0.000765785
0.000765793
0.000761244
0.000761234
0.000756897
0.000761242
0.000756901
0.000765787
0.000770125
0.000765792
0.000770129
0.000765782
0.000761244
0.000761227
0.000756899
0.000756908
0.000761243
0.000761229
0.000756898
0.000779014
0.000774666
0.000774667
0.000779014
0.000779014
0.00077466
0.000783576
0.000787824
0.000783552
0.00078788
0.000783556
0.000783609
0.000787857
0.000783576
0.000787824
0.000783551
0.00078788
0.000783608
0.000783556
0.000787856
0.000778978
0.000774676
0.000779002
0.000774729
0.000779002
0.000778946
0.000774696
0.000778978
0.000774676
0.000779002
0.000774728
0.000778946
0.000779001
0.000774696
0.000783541
0.000787893
0.000787893
0.000783547
0.000783547
0.000787893
0.000783553
0.000779006
0.00076124
0.00076579
0.000765778
0.000770133
0.000770132
0.000770133
0.000765784
0.000765783
0.000761212
0.00075696
0.000761236
0.000756907
0.000761181
0.000761236
0.000756926
0.000761212
0.000756959
0.000761236
0.000756906
0.000761235
0.000761181
0.000756926
0.000765813
0.00077012
0.000770064
0.000765789
0.000765846
0.000770096
0.000765793
0.000765813
0.000770119
0.000770065
0.000765788
0.000770097
0.000765793
0.000765846
0.000761248
0.000756897
0.000756897
0.000761248
0.000761248
0.000756891
0.000761239
0.00076579
0.00077901
0.000774677
0.000774668
0.000778992
0.000778995
0.000779008
0.000774668
0.00078355
0.000783555
0.000787885
0.000783545
0.000787889
0.00077901
0.000774666
0.000779
0.000779007
0.00077467
0.000783548
0.000783559
0.000787873
0.000787886
0.000783556
0.000783548
0.000787888
0.000779009
0.000774677
0.000774669
0.000778992
0.000778994
0.000779008
0.000774668
0.000783549
0.000783554
0.000787884
0.000783545
0.000787888
0.00077901
0.000774666
0.000778999
0.000779006
0.00077467
0.000783547
0.000783558
0.000787872
0.000787886
0.000783556
0.000783548
0.000787888
0.000765785
0.000770114
0.000770127
0.000765797
0.000770129
0.000765795
0.000765786
0.000761245
0.000761234
0.000756897
0.000761242
0.000756901
0.000765787
0.000770127
0.000765792
0.000770129
0.000765783
0.000761245
0.000761228
0.000756909
0.0007569
0.00076123
0.000761244
0.000756899
0.000765785
0.000770113
0.000770127
0.000765797
0.000770128
0.000765795
0.000765786
0.000761245
0.000761234
0.000756898
0.000761241
0.000756901
0.000765788
0.000770125
0.000765793
0.000770129
0.000765784
0.000761245
0.000761228
0.000756909
0.0007569
0.000761229
0.000761243
0.000756899
0.000783552
0.000779005
0.000783551
0.000779004
0.000765778
0.000770133
0.000770133
0.000770133
0.000765784
0.000765784
0.000761213
0.00075696
0.000761236
0.000756908
0.000756928
0.00076118
0.000761236
0.000761212
0.00075696
0.000761236
0.000756906
0.000756927
0.000761181
0.000761235
0.000765813
0.000770121
0.000770065
0.000765788
0.000770098
0.000765845
0.000765794
0.000765813
0.00077012
0.000770066
0.000765788
0.000770097
0.000765845
0.000765793
0.000761249
0.000756898
0.000756897
0.000756892
0.000761248
0.000761248
0.00076124
0.00076579
0.000761239
0.000765789
0.000748012
0.000752353
0.000748018
0.000752356
0.000748008
0.000748009
0.000748022
0.000752354
0.000752341
0.000752356
0.00074801
0.000748019
0.000748018
0.000748015
0.000748014
0.000785782
0.000785782
0.000776883
0.000776899
0.000776899
0.00077692
0.000785805
0.000783681
0.000787591
0.000787592
0.000784118
0.000783852
0.000783853
0.000787754
0.000748144
0.00075206
0.000752061
0.000748581
0.000752224
0.000748316
0.000748316
0.000783684
0.000787594
0.000787594
0.000784121
0.000783857
0.000783855
0.000787757
0.000761112
0.000760674
0.000757207
0.000757206
0.000760948
0.000760949
0.000757034
0.000783681
0.000787591
0.000787591
0.000784118
0.000783853
0.000783854
0.000787755
0.000761112
0.000760671
0.000757206
0.000757205
0.000760947
0.000760947
0.000757034
0.000783682
0.000787592
0.000787593
0.000784119
0.000783853
0.000783855
0.000787755
0.000761111
0.000760672
0.000757206
0.000757205
0.000760947
0.000760948
0.000757033
0.000761111
0.000760673
0.000757205
0.000757206
0.000757033
0.000760947
0.000760948
0.000785782
0.00078578
0.000776881
0.000776899
0.000776897
0.000776919
0.000785805
0.000785782
0.000785781
0.000776881
0.000776898
0.000776898
0.000776919
0.000785805
0.00078578
0.00078578
0.00077688
0.000776897
0.000776897
0.000776919
0.000785804
0.000767998
0.000759123
0.000759123
0.000768012
0.000768012
0.00076803
0.000759139
0.000767997
0.000759123
0.000759122
0.000768012
0.000768011
0.00076803
0.000759139
0.000767996
0.000759122
0.000759122
0.000768011
0.000768011
0.00076803
0.000759139
0.000767996
0.000759122
0.000759122
0.000768011
0.000768011
0.00076803
0.000759138
0.000778674
0.000774762
0.000775002
0.000778909
0.000778913
0.000778678
0.000775006
0.000783848
0.000787682
0.000783597
0.000787807
0.000783754
0.000783626
0.000787584
0.000778706
0.000774747
0.000778957
0.000774875
0.000778803
0.000778929
0.000774969
0.000783885
0.000783646
0.000787791
0.000787557
0.000783642
0.000783882
0.000787552
0.000778674
0.000775002
0.000774762
0.000778909
0.000778678
0.000778913
0.000775005
0.000783849
0.000787682
0.000783596
0.000787806
0.000783755
0.000783626
0.000787584
0.000778706
0.000774746
0.000778956
0.000774875
0.000778803
0.000778928
0.000774968
0.000783885
0.000783646
0.000787557
0.000787791
0.000783881
0.000783642
0.000787553
0.000778875
0.000778438
0.000774973
0.000774973
0.000778712
0.000778713
0.000774801
0.000778878
0.00077844
0.000774976
0.000774975
0.000774803
0.000778715
0.000778715
0.00076592
0.000766358
0.000769833
0.000769834
0.000769997
0.000766093
0.000766092
0.000778677
0.000774764
0.000775006
0.000778912
0.000778915
0.000778681
0.000775008
0.00078385
0.000787685
0.000783598
0.000787809
0.000783628
0.000783757
0.000787587
0.000778708
0.000774747
0.000778959
0.000774876
0.00077893
0.000778806
0.00077497
0.000783888
0.000783649
0.000787794
0.000787559
0.000783644
0.000783885
0.000787555
0.000778677
0.000774764
0.000775005
0.000778912
0.000778916
0.000778681
0.000775009
0.00078385
0.000787682
0.000783598
0.000787807
0.000783627
0.000783756
0.000787586
0.000778707
0.000774747
0.000778957
0.000774877
0.000778929
0.000774971
0.000778804
0.000783888
0.000783649
0.000787794
0.000787559
0.000783644
0.000783885
0.000787555
0.000766125
0.000770033
0.0007698
0.000765886
0.000769796
0.000765881
0.000766122
0.000760942
0.000757107
0.000761192
0.000756978
0.000761039
0.000761164
0.000757202
0.000766087
0.000770048
0.000769924
0.000765835
0.000765993
0.000769827
0.000765865
0.00076091
0.000761146
0.000756995
0.000757236
0.000761149
0.000760914
0.000757239
0.000766125
0.000770034
0.0007698
0.000765885
0.000769796
0.000765881
0.000766121
0.000760941
0.000757107
0.000761191
0.000756978
0.000761163
0.000761038
0.000757202
0.000766087
0.000770048
0.000769923
0.000765834
0.000769827
0.000765864
0.000765994
0.00076091
0.000761145
0.000756996
0.000757236
0.000761149
0.000760914
0.00075724
0.000778875
0.000778438
0.000774975
0.000774973
0.000778712
0.000778713
0.000774802
0.00076592
0.000766356
0.000769831
0.000769832
0.000766092
0.000769996
0.000766091
0.000778675
0.000774763
0.000775002
0.000778911
0.000778914
0.000778679
0.000775006
0.00078385
0.000787683
0.000783597
0.000787807
0.000783627
0.000783756
0.000787586
0.000778707
0.000774747
0.000778957
0.000774875
0.000778929
0.000778804
0.000774969
0.000783887
0.000783647
0.000787793
0.000787558
0.000783643
0.000783883
0.000787554
0.000778674
0.000775002
0.000774763
0.000778911
0.000778679
0.000778914
0.000775006
0.000783848
0.000787682
0.000783597
0.000787807
0.000783626
0.000783755
0.000787585
0.000778706
0.000774747
0.000778956
0.000774875
0.000778928
0.000774969
0.000778803
0.000783886
0.000783647
0.000787558
0.000787792
0.000783883
0.000783642
0.000787554
0.000766124
0.000770032
0.000769798
0.000765884
0.000769794
0.000765881
0.00076612
0.000760941
0.000757107
0.000761192
0.000756978
0.000761038
0.000761164
0.000757201
0.000766087
0.000770047
0.000769923
0.000765835
0.000765993
0.000769825
0.000765864
0.000760909
0.000761145
0.000756994
0.000757233
0.000761149
0.000760913
0.000757237
0.000766123
0.000769797
0.000770033
0.000765884
0.000769794
0.000766119
0.00076588
0.000760939
0.000757107
0.000761191
0.000756978
0.000761162
0.000761037
0.0007572
0.000766086
0.000770047
0.000769922
0.000765834
0.000769825
0.000765864
0.000765992
0.000760908
0.000761144
0.000757233
0.000756994
0.000760912
0.000761148
0.000757237
0.000778674
0.000775001
0.000774762
0.000778909
0.000778678
0.000778913
0.000775005
0.000783847
0.000787682
0.000783595
0.000787805
0.000783753
0.000783625
0.000787584
0.000778705
0.000774746
0.000778956
0.000774874
0.000778803
0.000778927
0.000774968
0.000783885
0.000783646
0.000787556
0.000787791
0.000783881
0.000783641
0.000787553
0.000766123
0.000770032
0.000769797
0.000765884
0.000769794
0.00076588
0.000766119
0.00076094
0.000757107
0.000761191
0.000756979
0.000757201
0.000761038
0.000761164
0.000766087
0.000770047
0.000769923
0.000765835
0.000769826
0.000765993
0.000765865
0.000760908
0.000761144
0.000756994
0.000757234
0.000757237
0.000761149
0.000760912
0.000766123
0.000769797
0.000770031
0.000765883
0.000769794
0.000766119
0.000765878
0.00076094
0.000757105
0.00076119
0.000756977
0.000761162
0.000761037
0.0007572
0.000766085
0.000770046
0.000769922
0.000765833
0.000769825
0.000765862
0.000765991
0.000760908
0.000761144
0.000757233
0.000756993
0.000760912
0.000761148
0.000757237
0.000778877
0.000778438
0.000774975
0.000774974
0.000778713
0.000778712
0.000774802
0.000765919
0.000766356
0.000769832
0.000769833
0.000766092
0.000769995
0.000766091
0.000778674
0.000775001
0.000774762
0.000778909
0.000778678
0.000778913
0.000775005
0.000783848
0.000787681
0.000783595
0.000787805
0.000783754
0.000783625
0.000787584
0.000778706
0.000774746
0.000778955
0.000774875
0.000778802
0.000778927
0.000774968
0.000783885
0.000783645
0.000787556
0.000787791
0.000783881
0.000783641
0.000787552
0.000766122
0.000769797
0.000770032
0.000765883
0.000769793
0.000766119
0.000765879
0.00076094
0.000757107
0.000761191
0.000756978
0.0007572
0.000761038
0.000761163
0.000766086
0.000770047
0.000769923
0.000765833
0.000769825
0.000765993
0.000765863
0.000760908
0.000761143
0.000757233
0.000756993
0.000757236
0.000760911
0.000761148
0.000766122
0.000769797
0.000770031
0.000765883
0.000769793
0.000766118
0.000765879
0.00076094
0.000757107
0.000761191
0.000756978
0.000761163
0.000761037
0.0007572
0.000766086
0.000770047
0.000769923
0.000765833
0.000769825
0.000765863
0.000765993
0.000760908
0.000761144
0.000757233
0.000756994
0.000760911
0.000761148
0.000757236
0.000765919
0.000766355
0.000769832
0.000769833
0.000769996
0.00076609
0.000766091
0.000748311
0.000752151
0.000752275
0.000748059
0.000748217
0.000752053
0.000748089
0.000748349
0.000748109
0.000752026
0.000752261
0.000748345
0.000752022
0.000748105
0.00075215
0.000748058
0.000748218
0.00167404
0.00167396
0.00167396
0.00167554
0.00163822
0.00163814
0.00163814
0.00163971
0.00160247
0.00160239
0.00160239
0.00160396
0.00156679
0.0015667
0.0015667
0.00156826
0.00153115
0.00153106
0.00153106
0.00153263
0.00149557
0.00149548
0.00149548
0.00149704
0.00146003
0.00145994
0.00145994
0.0014615
0.00142453
0.00142443
0.00142443
0.00142599
0.00138905
0.00138895
0.00138895
0.00139051
0.00135358
0.00135349
0.00135349
0.00135505
0.00131813
0.00131803
0.00131803
0.00131959
0.00128267
0.00128257
0.00128257
0.00128413
0.00124719
0.00124709
0.00124709
0.00124866
0.00121171
0.0012116
0.0012116
0.00121317
0.0011762
0.0011761
0.0011761
0.00117767
0.00114067
0.00114058
0.00114058
0.00114215
0.00110514
0.00110505
0.00110505
0.00110663
0.00106961
0.00106953
0.00106953
0.0010711
0.00103409
0.00103401
0.00103401
0.00103559
0.000998586
0.000998518
0.000998518
0.00100009
0.000963105
0.000963042
0.000963043
0.00096462
0.000927642
0.000927585
0.000927585
0.000929163
0.000892188
0.000892138
0.000892138
0.000893717
0.000856732
0.000856688
0.000856688
0.00085827
0.000821264
0.000821222
0.000821222
0.000822807
0.00167554
0.00164545
0.00167396
0.00167396
0.00164709
0.00164709
0.00167554
0.00164545
0.00167396
0.00167396
0.00164709
0.00164709
0.00167396
0.00164709
0.00164709
0.00167554
0.00164545
0.00167396
0.00164709
0.00164709
0.00164545
0.00163971
0.00160968
0.00163814
0.00163814
0.00161132
0.00161132
0.00163971
0.00160968
0.00163814
0.00163814
0.00161132
0.00161132
0.00163814
0.00161132
0.00161132
0.00163971
0.00160968
0.00163814
0.00161132
0.00161132
0.00160968
0.00160396
0.00157398
0.00160239
0.00160239
0.00157562
0.00157562
0.00160396
0.00157398
0.00160239
0.00160239
0.00157562
0.00157562
0.00160239