/*--------------------------------*- C++ -*----------------------------------*\
| =========                 |                                                 |
| \\      /  F ield         | OpenFOAM: The Open Source CFD Toolbox           |
|  \\    /   O peration     | Version:  v1906                                 |
|   \\  /    A nd           | Web:      www.OpenFOAM.com                      |
|    \\/     M anipulation  |                                                 |
\*---------------------------------------------------------------------------*/
FoamFile
{
    version     2.0;
    format      ascii;
    class       volScalarField;
    location    "800";
    object      epsilon;
}
// * * * * * * * * * * * * * * * * * * * * * * * * * * * * * * * * * * * * * //

dimensions      [0 2 -3 0 0 0 0];


internalField   nonuniform List<scalar> 
171728
(
1.14881e-06
8.63025e-07
8.63011e-07
1.14863e-06
8.62771e-07
8.63043e-07
8.62831e-07
8.63055e-07
1.14829e-06
8.62931e-07
8.62924e-07
1.14818e-06
3.19682e-07
3.19693e-07
3.19758e-07
3.19762e-07
1.84274e-05
1.84292e-05
5.46248e-06
5.46336e-06
4.09153e-06
9.16105e-06
4.09375e-06
4.09161e-06
9.16235e-06
9.15535e-06
4.0939e-06
2.10218e-06
3.47515e-06
5.58161e-07
5.52257e-07
2.10678e-06
2.10226e-06
8.5694e-07
3.47546e-06
5.58216e-07
3.47182e-06
5.52327e-07
2.10685e-06
1.84288e-05
1.84185e-05
1.14401e-06
5.46375e-06
5.46192e-06
5.4613e-06
5.45934e-06
1.84262e-05
1.84158e-05
9.16299e-06
4.09366e-06
3.47545e-06
5.58265e-07
2.10696e-06
9.16226e-06
4.09401e-06
5.58284e-07
3.47496e-06
2.1069e-06
2.10239e-06
8.56757e-07
3.47502e-06
5.58238e-07
3.47153e-06
5.52348e-07
2.10704e-06
4.0917e-06
9.16211e-06
9.15521e-06
4.09398e-06
2.10233e-06
8.56975e-07
5.5829e-07
3.47501e-06
5.52397e-07
3.47155e-06
2.10693e-06
4.09175e-06
9.1622e-06
9.15521e-06
4.09383e-06
1.84295e-05
5.46366e-06
5.46204e-06
1.84281e-05
2.10244e-06
5.5834e-07
3.47458e-06
5.52433e-07
2.10699e-06
2.10246e-06
8.5685e-07
5.58344e-07
3.4753e-06
5.52455e-07
3.47232e-06
2.10701e-06
4.09177e-06
9.16211e-06
4.09351e-06
4.09182e-06
9.16307e-06
9.15662e-06
4.09358e-06
1.1446e-06
5.46215e-06
5.46409e-06
5.4596e-06
5.46153e-06
1.84282e-05
1.84179e-05
1.84301e-05
1.84197e-05
1.84222e-05
1.84244e-05
4.53796e-06
2.81207e-06
5.46166e-06
9.50096e-06
9.49654e-06
2.81011e-06
4.54088e-06
4.54445e-06
2.81131e-06
5.46371e-06
9.50364e-06
9.5012e-06
2.81218e-06
4.54274e-06
9.73621e-06
2.17309e-05
2.17287e-05
2.17241e-05
2.17229e-05
9.73575e-06
1.22031e-05
1.08238e-05
4.74422e-06
4.09183e-06
1.22004e-05
1.08267e-05
4.7442e-06
2.20536e-05
9.15836e-06
7.08836e-06
7.0889e-06
2.20605e-05
1.22038e-05
4.09339e-06
1.083e-05
4.74578e-06
1.0827e-05
4.74585e-06
1.22064e-05
1.22035e-05
1.0824e-05
4.74448e-06
4.09197e-06
1.22005e-05
1.08269e-05
4.74472e-06
2.20544e-05
9.1593e-06
7.09018e-06
7.09054e-06
2.2061e-05
2.20564e-05
7.08955e-06
9.15833e-06
2.20498e-05
7.08917e-06
1.22038e-05
4.09342e-06
1.08302e-05
4.7463e-06
1.08271e-05
4.74603e-06
1.2207e-05
1.84239e-05
1.84234e-05
9.73342e-06
2.17175e-05
2.17182e-05
9.73382e-06
2.17238e-05
2.17244e-05
4.5446e-06
2.8125e-06
5.4636e-06
9.50404e-06
2.81144e-06
9.50112e-06
4.54464e-06
4.53848e-06
2.8113e-06
5.46167e-06
9.49972e-06
9.49606e-06
2.81021e-06
4.53881e-06
4.54205e-06
9.49641e-06
2.80825e-06
5.46149e-06
2.80923e-06
4.54199e-06
9.4994e-06
4.53626e-06
9.49141e-06
2.80701e-06
5.45958e-06
4.53578e-06
9.49498e-06
2.80802e-06
9.73579e-06
2.17288e-05
2.17295e-05
2.17225e-05
2.17232e-05
9.73543e-06
1.84211e-05
1.84208e-05
2.20542e-05
9.16003e-06
7.09002e-06
7.09037e-06
2.20608e-05
1.22043e-05
4.09377e-06
4.74609e-06
1.08302e-05
4.74607e-06
1.08282e-05
1.22072e-05
2.20541e-05
9.15969e-06
7.08857e-06
7.08908e-06
2.2061e-05
1.22042e-05
4.09336e-06
1.08305e-05
4.74609e-06
1.08274e-05
4.74593e-06
1.22072e-05
1.22033e-05
4.74427e-06
1.08242e-05
4.09215e-06
1.22002e-05
4.74456e-06
1.08271e-05
2.20531e-05
9.15916e-06
7.0896e-06
7.08996e-06
2.20597e-05
2.20551e-05
7.08898e-06
9.1581e-06
2.20485e-05
7.0886e-06
1.22035e-05
4.09368e-06
4.74613e-06
1.08304e-05
4.74587e-06
1.08274e-05
1.22069e-05
1.22035e-05
1.08245e-05
4.74418e-06
4.09182e-06
1.22007e-05
1.08266e-05
4.74441e-06
2.20539e-05
9.15915e-06
7.08823e-06
7.0886e-06
2.20605e-05
2.20559e-05
7.08761e-06
9.15818e-06
2.20493e-05
7.08723e-06
1.22041e-05
4.09365e-06
1.08297e-05
4.74605e-06
1.08277e-05
4.74583e-06
1.2207e-05
1.84245e-05
4.54494e-06
2.81223e-06
5.46362e-06
9.50404e-06
2.81177e-06
9.50111e-06
4.54485e-06
4.53899e-06
2.81118e-06
5.46191e-06
9.49946e-06
9.49654e-06
2.81069e-06
4.53902e-06
9.73666e-06
2.17298e-05
2.17302e-05
2.17235e-05
2.17239e-05
9.73627e-06
1.84232e-05
1.22035e-05
4.74428e-06
1.0825e-05
4.0918e-06
1.2201e-05
4.74431e-06
1.0827e-05
2.20542e-05
9.15964e-06
7.08828e-06
7.08864e-06
2.20607e-05
2.20561e-05
7.08726e-06
1.22044e-05
4.09367e-06
4.74581e-06
1.08301e-05
4.74582e-06
1.08281e-05
1.22068e-05
1.22034e-05
4.74456e-06
1.08251e-05
4.09186e-06
1.22008e-05
4.74457e-06
1.08271e-05
2.20539e-05
9.16061e-06
7.08999e-06
7.09051e-06
2.20608e-05
2.20562e-05
7.08952e-06
9.15913e-06
2.20494e-05
7.089e-06
1.22042e-05
4.09375e-06
4.74616e-06
1.08302e-05
4.74617e-06
1.08282e-05
1.2207e-05
9.73406e-06
2.1719e-05
2.17183e-05
9.73447e-06
2.17252e-05
2.17245e-05
4.53892e-06
2.81146e-06
5.46196e-06
9.49963e-06
2.81058e-06
9.49669e-06
4.53883e-06
4.54491e-06
2.81267e-06
5.46391e-06
9.50442e-06
2.81176e-06
9.50148e-06
4.54486e-06
4.53633e-06
9.49196e-06
2.80742e-06
5.45973e-06
4.53627e-06
2.80801e-06
9.49498e-06
4.54231e-06
9.49675e-06
2.80862e-06
5.46163e-06
4.54228e-06
2.80921e-06
9.49977e-06
9.73645e-06
2.17303e-05
2.17296e-05
2.1724e-05
2.17233e-05
9.73608e-06
1.84232e-05
1.84228e-05
1.84251e-05
1.84247e-05
2.66791e-06
1.14915e-06
1.76884e-06
1.76768e-06
1.76724e-06
1.76783e-06
2.66861e-06
2.66785e-06
1.14904e-06
1.76823e-06
1.76807e-06
1.76776e-06
1.76759e-06
2.66853e-06
2.66833e-06
1.14946e-06
1.76778e-06
1.76754e-06
1.76809e-06
1.76807e-06
2.66815e-06
2.66836e-06
1.14951e-06
1.76744e-06
1.76787e-06
1.76793e-06
1.76808e-06
2.66819e-06
1.6658e-07
1.6657e-07
1.6447e-07
7.93901e-08
7.9932e-08
3.15753e-07
1.6659e-07
1.66554e-07
1.64478e-07
1.64444e-07
7.93888e-08
7.99304e-08
1.66633e-07
1.66613e-07
1.64498e-07
7.94085e-08
7.99515e-08
3.15818e-07
1.66627e-07
1.6661e-07
1.64513e-07
1.64498e-07
7.94067e-08
7.99497e-08
1.41074e-06
2.36147e-06
1.27348e-06
2.10312e-06
1.41059e-06
2.36234e-06
1.27358e-06
1.61683e-06
2.0325e-06
3.47424e-06
2.85988e-06
2.03162e-06
2.85966e-06
1.61716e-06
1.41568e-06
2.10587e-06
2.36573e-06
1.2783e-06
2.36483e-06
1.27921e-06
1.41582e-06
1.40953e-06
2.36179e-06
1.27383e-06
2.10319e-06
1.41228e-06
2.36262e-06
1.27312e-06
1.61862e-06
2.03257e-06
3.47491e-06
2.86056e-06
2.8604e-06
2.03202e-06
1.61604e-06
1.61189e-06
2.85742e-06
2.02776e-06
3.4726e-06
1.6137e-06
2.85764e-06
2.02858e-06
1.41742e-06
2.10594e-06
2.36597e-06
1.27804e-06
2.36517e-06
1.27954e-06
1.41437e-06
2.66528e-06
1.14355e-06
1.76361e-06
1.76344e-06
1.76401e-06
2.66432e-06
1.76385e-06
1.61706e-06
2.03255e-06
3.47496e-06
2.86082e-06
2.03206e-06
2.86005e-06
1.61732e-06
1.4159e-06
2.10605e-06
2.36602e-06
1.27959e-06
2.36511e-06
1.27916e-06
1.41581e-06
1.61767e-06
2.03193e-06
3.47524e-06
2.86005e-06
2.85989e-06
2.03252e-06
1.61577e-06
1.41559e-06
2.10599e-06
1.27841e-06
2.36583e-06
1.27949e-06
2.36493e-06
1.41491e-06
1.41116e-06
2.36183e-06
1.2734e-06
2.10336e-06
1.41103e-06
2.36263e-06
1.27418e-06
1.61721e-06
2.03223e-06
3.47433e-06
2.86028e-06
2.03158e-06
2.86009e-06
1.61746e-06
1.61289e-06
2.85705e-06
2.02721e-06
3.47208e-06
1.61247e-06
2.02821e-06
2.85761e-06
1.41608e-06
2.10603e-06
2.36599e-06
1.27949e-06
2.36519e-06
1.27872e-06
1.41609e-06
1.40964e-06
1.27368e-06
2.36167e-06
2.10327e-06
1.41223e-06
1.27384e-06
2.36248e-06
1.61842e-06
2.03189e-06
3.47442e-06
2.86037e-06
2.85982e-06
2.03195e-06
1.61595e-06
1.61177e-06
2.85693e-06
2.0278e-06
3.47216e-06
1.61353e-06
2.85715e-06
2.02798e-06
1.41725e-06
2.106e-06
1.2795e-06
2.36583e-06
1.27909e-06
2.36504e-06
1.41469e-06
1.40976e-06
1.27455e-06
2.36174e-06
2.10335e-06
1.41244e-06
1.2732e-06
2.36248e-06
1.61826e-06
2.03205e-06
3.47488e-06
2.86028e-06
2.03208e-06
2.85974e-06
1.61589e-06
1.61151e-06
2.85707e-06
1.41744e-06
2.10609e-06
1.27826e-06
2.36586e-06
1.27987e-06
2.3651e-06
1.41474e-06
1.41071e-06
1.27415e-06
2.36189e-06
2.10336e-06
1.41072e-06
1.2733e-06
2.36263e-06
1.61825e-06
2.03198e-06
3.47522e-06
2.86053e-06
2.86039e-06
2.03254e-06
1.61604e-06
1.61207e-06
2.85739e-06
2.02841e-06
3.47257e-06
1.61259e-06
2.85763e-06
2.02823e-06
1.416e-06
2.10614e-06
1.27828e-06
2.366e-06
1.27977e-06
2.36525e-06
1.41573e-06
2.66497e-06
1.14337e-06
1.76366e-06
1.76389e-06
2.66489e-06
1.76355e-06
1.76385e-06
6.51845e-07
1.18286e-06
1.18293e-06
1.41522e-06
1.41814e-06
1.41519e-06
1.41589e-06
1.18293e-06
1.18296e-06
1.18526e-06
1.18528e-06
1.41511e-06
1.41586e-06
1.18285e-06
1.18298e-06
1.18518e-06
1.1853e-06
1.18299e-06
1.18518e-06
1.18531e-06
1.41518e-06
1.41595e-06
1.1829e-06
1.18525e-06
1.18522e-06
1.41593e-06
1.18604e-06
1.18595e-06
4.23631e-06
9.54925e-06
9.55406e-06
4.23571e-06
1.90609e-05
1.90714e-05
4.23649e-06
9.55109e-06
9.55628e-06
4.23582e-06
6.51848e-07
6.51939e-07
6.51932e-07
6.56504e-07
6.56507e-07
6.56599e-07
6.56593e-07
2.29402e-06
3.64447e-06
9.29868e-07
1.18366e-06
3.64491e-06
9.30974e-07
2.29376e-06
1.90619e-05
1.90724e-05
2.29404e-06
9.29923e-07
3.64449e-06
1.18373e-06
9.31031e-07
3.64499e-06
2.29371e-06
5.64517e-06
5.6471e-06
1.41448e-06
5.64625e-06
5.64821e-06
5.64954e-06
5.65148e-06
1.90593e-05
1.90698e-05
1.90617e-05
1.90722e-05
5.64507e-06
5.64698e-06
1.41445e-06
5.64616e-06
5.64807e-06
1.90808e-05
1.90705e-05
1.90833e-05
1.90729e-05
1.41671e-06
5.64834e-06
5.65025e-06
5.64729e-06
5.64919e-06
4.23641e-06
9.55034e-06
9.55524e-06
4.23581e-06
2.29394e-06
3.64424e-06
9.29806e-07
1.18374e-06
3.64473e-06
9.30914e-07
2.29362e-06
2.294e-06
3.64478e-06
9.29844e-07
1.18376e-06
3.64525e-06
9.30952e-07
2.29368e-06
4.23705e-06
9.55984e-06
9.55511e-06
4.2376e-06
4.23715e-06
9.56109e-06
9.55628e-06
4.2377e-06
2.29446e-06
1.18452e-06
3.64599e-06
9.33025e-07
3.64555e-06
9.32001e-07
2.29473e-06
2.29453e-06
1.18455e-06
3.64651e-06
9.33063e-07
3.64608e-06
9.32039e-07
2.29479e-06
5.64686e-06
5.64523e-06
1.41442e-06
5.64795e-06
5.64618e-06
1.90587e-05
1.90692e-05
1.90824e-05
1.90721e-05
1.41662e-06
5.65013e-06
5.64836e-06
5.64909e-06
5.64746e-06
1.90803e-05
1.90698e-05
2.29412e-06
3.64503e-06
9.29872e-07
1.18365e-06
3.64548e-06
9.31001e-07
2.29378e-06
4.23639e-06
9.55049e-06
9.55565e-06
4.23572e-06
2.29403e-06
9.29893e-07
3.64487e-06
1.18378e-06
9.31002e-07
3.6453e-06
2.2937e-06
4.23716e-06
9.56204e-06
9.557e-06
4.23779e-06
2.29463e-06
1.18444e-06
3.64673e-06
9.33113e-07
3.64634e-06
9.32069e-07
2.2949e-06
4.23707e-06
9.56143e-06
9.55636e-06
4.23769e-06
2.29455e-06
1.18457e-06
9.33115e-07
3.64656e-06
9.3209e-07
3.64618e-06
2.29481e-06
4.23646e-06
9.55049e-06
9.55527e-06
4.2359e-06
2.29396e-06
9.29885e-07
3.64435e-06
1.18379e-06
9.3099e-07
3.64484e-06
2.29368e-06
4.23637e-06
9.55014e-06
9.55531e-06
4.23579e-06
2.2946e-06
1.18445e-06
3.64617e-06
9.33085e-07
3.64578e-06
9.32062e-07
2.29481e-06
4.23723e-06
9.56113e-06
9.55635e-06
4.23775e-06
2.29452e-06
1.18458e-06
9.33099e-07
3.6461e-06
9.3208e-07
3.64566e-06
2.29476e-06
4.23712e-06
9.56109e-06
9.556e-06
4.23765e-06
5.64703e-06
5.64523e-06
1.41451e-06
5.64798e-06
5.64634e-06
1.90606e-05
1.90711e-05
1.90835e-05
1.9073e-05
1.4167e-06
5.65016e-06
5.64852e-06
5.64925e-06
5.64745e-06
1.90821e-05
1.90718e-05
2.29408e-06
9.29933e-07
3.64499e-06
1.1837e-06
9.3104e-07
3.64547e-06
2.29374e-06
4.23641e-06
9.55066e-06
9.55547e-06
4.23584e-06
4.23645e-06
9.55118e-06
9.55634e-06
4.23582e-06
2.29455e-06
1.18452e-06
9.33144e-07
3.64625e-06
9.3212e-07
3.6458e-06
2.29482e-06
2.29459e-06
1.18449e-06
9.33153e-07
3.64673e-06
9.3213e-07
3.6463e-06
2.29486e-06
4.23717e-06
9.56133e-06
9.55652e-06
4.2377e-06
4.23715e-06
9.5621e-06
9.55705e-06
4.23774e-06
1.90604e-05
1.90709e-05
1.90623e-05
1.90728e-05
1.41674e-06
5.64843e-06
5.65038e-06
5.64739e-06
5.64932e-06
1.90819e-05
1.90716e-05
1.90838e-05
1.90734e-05
9.3411e-07
3.64689e-06
2.29524e-06
9.56175e-06
4.23838e-06
3.64754e-06
9.56299e-06
1.90826e-05
1.90844e-05
1.26396e-05
1.1233e-05
4.8816e-06
4.23639e-06
1.12301e-05
4.88171e-06
1.26434e-05
2.27379e-05
9.55114e-06
7.23776e-06
7.2374e-06
2.27307e-05
2.27372e-05
7.23868e-06
9.55218e-06
7.23905e-06
2.27443e-05
1.26395e-05
4.23564e-06
1.12266e-05
4.88097e-06
1.12295e-05
4.88086e-06
1.26357e-05
1.90658e-05
1.90665e-05
1.26401e-05
4.88195e-06
1.12338e-05
4.2365e-06
4.88197e-06
1.12309e-05
1.26438e-05
2.27379e-05
9.55336e-06
7.23925e-06
7.23908e-06
2.27309e-05
2.27374e-05
7.24035e-06
9.55406e-06
7.24054e-06
2.27443e-05
1.26399e-05
4.2358e-06
4.88122e-06
1.12274e-05
4.88119e-06
1.12303e-05
1.26362e-05
1.90669e-05
1.90675e-05
9.95766e-06
2.23738e-05
2.2373e-05
2.23676e-05
2.23667e-05
9.95733e-06
4.70057e-06
2.97314e-06
5.64513e-06
9.91421e-06
2.97298e-06
9.9161e-06
4.70091e-06
4.70631e-06
2.97434e-06
5.6471e-06
9.91864e-06
2.97418e-06
9.92117e-06
4.70663e-06
4.70162e-06
9.91903e-06
5.64629e-06
2.97339e-06
2.97356e-06
9.91715e-06
4.70127e-06
4.70734e-06
9.92411e-06
5.64822e-06
2.9746e-06
2.97476e-06
9.92162e-06
4.70701e-06
9.95553e-06
2.23617e-05
2.23609e-05
2.2368e-05
2.23672e-05
9.95585e-06
4.70329e-06
2.97471e-06
9.92586e-06
5.64948e-06
4.70367e-06
2.97452e-06
9.92762e-06
4.70902e-06
2.97591e-06
9.93062e-06
5.65144e-06
4.70939e-06
2.97573e-06
9.93241e-06
9.96265e-06
2.23848e-05
2.2384e-05
9.96301e-06
2.2391e-05
2.23902e-05
1.90642e-05
1.90649e-05
1.90667e-05
1.90673e-05
9.95758e-06
2.23739e-05
2.23731e-05
2.23676e-05
2.23669e-05
9.95725e-06
4.70056e-06
2.97313e-06
5.64505e-06
9.91426e-06
9.91616e-06
2.97298e-06
4.70088e-06
4.70628e-06
2.97431e-06
5.64696e-06
9.91914e-06
9.92104e-06
2.97414e-06
4.70659e-06
4.7016e-06
9.91909e-06
5.64619e-06
2.97339e-06
9.91721e-06
4.70127e-06
2.97355e-06
4.70731e-06
9.92397e-06
5.64809e-06
2.97456e-06
9.92208e-06
4.70699e-06
2.97473e-06
9.95544e-06
2.23618e-05
2.2361e-05
2.2368e-05
2.23673e-05
9.95576e-06
1.9076e-05
1.90753e-05
1.90784e-05
1.90778e-05
9.95905e-06
2.23735e-05
2.23727e-05
9.95938e-06
2.23797e-05
2.23789e-05
4.70298e-06
2.97416e-06
5.64837e-06
9.92492e-06
9.92307e-06
2.97433e-06
4.70264e-06
4.70869e-06
2.97533e-06
5.65028e-06
9.92988e-06
9.9279e-06
2.97551e-06
4.70835e-06
4.70196e-06
9.92017e-06
2.97395e-06
5.64726e-06
4.7023e-06
9.92206e-06
2.97379e-06
4.70768e-06
9.92504e-06
2.97513e-06
5.64917e-06
4.70801e-06
9.92695e-06
2.97495e-06
9.96117e-06
2.23854e-05
2.23847e-05
2.23792e-05
2.23785e-05
9.96083e-06
1.26398e-05
1.12332e-05
4.88191e-06
4.23649e-06
1.12302e-05
4.88195e-06
1.26435e-05
2.2738e-05
9.55241e-06
7.2393e-06
7.23911e-06
2.2731e-05
2.27375e-05
7.24039e-06
9.55337e-06
7.24059e-06
2.27444e-05
1.26396e-05
4.23574e-06
1.12268e-05
4.88121e-06
1.12297e-05
4.88117e-06
1.26359e-05
1.26472e-05
1.12336e-05
4.88244e-06
4.23696e-06
1.26435e-05
1.12366e-05
4.88232e-06
2.275e-05
9.55801e-06
7.2412e-06
2.27571e-05
7.24158e-06
2.27507e-05
7.24032e-06
9.557e-06
2.27436e-05
7.23995e-06
1.26473e-05
4.23769e-06
1.12401e-05
4.88304e-06
1.2651e-05
1.12371e-05
4.88316e-06
1.26473e-05
1.12338e-05
4.88268e-06
4.23706e-06
1.26437e-05
1.12367e-05
4.88263e-06
2.27503e-05
9.55915e-06
7.24291e-06
7.24312e-06
2.27571e-05
2.27508e-05
7.24186e-06
9.55818e-06
2.27439e-05
7.24166e-06
1.26475e-05
4.23779e-06
1.12402e-05
4.88335e-06
1.12373e-05
4.8834e-06
1.26511e-05
9.95722e-06
2.23725e-05
2.23733e-05
2.23662e-05
2.2367e-05
9.95689e-06
4.70611e-06
2.9742e-06
5.64684e-06
9.91834e-06
9.92089e-06
2.97402e-06
4.70645e-06
4.70039e-06
2.97308e-06
5.64507e-06
9.91378e-06
2.97291e-06
9.91634e-06
4.70071e-06
4.70716e-06
9.92382e-06
5.64798e-06
2.97444e-06
9.92131e-06
2.97462e-06
4.70682e-06
4.70143e-06
9.91928e-06
5.64635e-06
2.97333e-06
2.97351e-06
9.91676e-06
4.7011e-06
9.95508e-06
2.23603e-05
2.23612e-05
2.23666e-05
2.23675e-05
9.95539e-06
1.90636e-05
1.90643e-05
1.90776e-05
1.90769e-05
9.95869e-06
2.2372e-05
2.23728e-05
9.95902e-06
2.23783e-05
2.23791e-05
4.70855e-06
2.97521e-06
5.65017e-06
9.92965e-06
2.97541e-06
9.92713e-06
4.70819e-06
4.70282e-06
2.9741e-06
5.64854e-06
9.92513e-06
9.9226e-06
2.97429e-06
4.70247e-06
4.70751e-06
9.92426e-06
2.97502e-06
5.64905e-06
2.97483e-06
4.70786e-06
9.92673e-06
4.70179e-06
9.91973e-06
2.97391e-06
5.64728e-06
4.70214e-06
9.9222e-06
2.97372e-06
9.96081e-06
2.2384e-05
2.23849e-05
2.23778e-05
2.23786e-05
9.96047e-06
1.90754e-05
1.90748e-05
1.26402e-05
1.12336e-05
4.88175e-06
4.23641e-06
1.12307e-05
4.88186e-06
1.26439e-05
2.27382e-05
9.55273e-06
7.238e-06
7.23765e-06
2.2731e-05
2.27375e-05
7.23892e-06
9.55344e-06
7.23928e-06
2.27446e-05
1.264e-05
4.23572e-06
1.12272e-05
4.88112e-06
1.12301e-05
4.88101e-06
1.26363e-05
1.26476e-05
4.8827e-06
1.12344e-05
4.23713e-06
1.2644e-05
4.88266e-06
1.12373e-05
2.27502e-05
9.55987e-06
7.24287e-06
2.27571e-05
7.24307e-06
2.27507e-05
7.24181e-06
9.55916e-06
2.27438e-05
7.24162e-06
1.26478e-05
4.23781e-06
4.88339e-06
1.12408e-05
1.26514e-05
4.88342e-06
1.12379e-05
1.26477e-05
1.12342e-05
4.88259e-06
4.23705e-06
1.2644e-05
1.12371e-05
4.88247e-06
2.27503e-05
9.55924e-06
7.24144e-06
7.24181e-06
2.27574e-05
2.2751e-05
7.24055e-06
9.55854e-06
2.27439e-05
7.24019e-06
1.26479e-05
4.23771e-06
1.12406e-05
4.88318e-06
1.12377e-05
4.8833e-06
1.26515e-05
1.26404e-05
4.88179e-06
1.12332e-05
4.23658e-06
4.88188e-06
1.1231e-05
1.26429e-05
2.27372e-05
9.55236e-06
7.23887e-06
7.23868e-06
2.27302e-05
2.27367e-05
7.23996e-06
9.55342e-06
7.24015e-06
2.27436e-05
1.26391e-05
4.23579e-06
4.88114e-06
1.12275e-05
4.88105e-06
1.12298e-05
1.26365e-05
1.26401e-05
1.12331e-05
4.8816e-06
4.23646e-06
1.12309e-05
4.88165e-06
1.26437e-05
2.27377e-05
9.5524e-06
7.23739e-06
7.2372e-06
2.27307e-05
2.27372e-05
7.23848e-06
9.55309e-06
7.23867e-06
2.27441e-05
1.26399e-05
4.2357e-06
1.12274e-05
4.8809e-06
1.12296e-05
4.88086e-06
1.26362e-05
1.26467e-05
4.88261e-06
1.12345e-05
4.23712e-06
1.26442e-05
4.88251e-06
1.12368e-05
2.27495e-05
9.55922e-06
7.24248e-06
7.24268e-06
2.27564e-05
2.275e-05
7.24142e-06
9.55822e-06
2.27431e-05
7.24123e-06
1.26481e-05
4.23787e-06
4.88322e-06
1.12403e-05
4.88333e-06
1.1238e-05
1.26506e-05
1.26475e-05
1.12344e-05
4.88237e-06
4.23702e-06
1.2644e-05
1.12366e-05
4.88232e-06
2.275e-05
9.55889e-06
7.24099e-06
7.2412e-06
2.27568e-05
2.27505e-05
7.23994e-06
9.5582e-06
2.27436e-05
7.23974e-06
1.2648e-05
4.23776e-06
1.12401e-05
4.88303e-06
1.12379e-05
4.88309e-06
1.26511e-05
9.95815e-06
2.23736e-05
2.23741e-05
2.23674e-05
2.23678e-05
9.95782e-06
4.70647e-06
2.97431e-06
5.64687e-06
9.91879e-06
9.92069e-06
2.97412e-06
4.70682e-06
4.70078e-06
2.97326e-06
5.64523e-06
9.91396e-06
2.97309e-06
9.91652e-06
4.70112e-06
4.70754e-06
9.92362e-06
5.64815e-06
2.97454e-06
9.92173e-06
2.97473e-06
4.70718e-06
4.70184e-06
9.91945e-06
5.64634e-06
2.97351e-06
2.97368e-06
9.91693e-06
4.70149e-06
9.95601e-06
2.23615e-05
2.2362e-05
2.23678e-05
2.23683e-05
9.95633e-06
1.90655e-05
1.90662e-05
1.90786e-05
1.9078e-05
9.95961e-06
2.23732e-05
2.23736e-05
9.95995e-06
2.23794e-05
2.23799e-05
4.70893e-06
2.97531e-06
5.65034e-06
9.92943e-06
2.97552e-06
9.9276e-06
4.70855e-06
4.70323e-06
2.97429e-06
5.64853e-06
9.92528e-06
9.92274e-06
2.97447e-06
4.70285e-06
4.70788e-06
9.9247e-06
2.97514e-06
5.64908e-06
2.97493e-06
4.70824e-06
9.92659e-06
4.70218e-06
9.91988e-06
2.97408e-06
5.64744e-06
4.70254e-06
9.92235e-06
2.97391e-06
9.96174e-06
2.23852e-05
2.23856e-05
2.2379e-05
2.23794e-05
9.96139e-06
1.90773e-05
1.90766e-05
1.26406e-05
4.88166e-06
1.12331e-05
4.23651e-06
4.88179e-06
1.12309e-05
1.26431e-05
2.27381e-05
9.55258e-06
7.23759e-06
7.23742e-06
2.27312e-05
2.27376e-05
7.2387e-06
9.55362e-06
7.23888e-06
2.27445e-05
1.26393e-05
4.23572e-06
4.88104e-06
1.12274e-05
4.8809e-06
1.12296e-05
1.26367e-05
1.26402e-05
4.88185e-06
1.12332e-05
4.2365e-06
4.882e-06
1.1231e-05
1.26427e-05
2.27372e-05
9.55343e-06
7.23933e-06
7.23895e-06
2.273e-05
2.27365e-05
7.24023e-06
9.55413e-06
7.24062e-06
2.27437e-05
1.26389e-05
4.23578e-06
4.88126e-06
1.12275e-05
4.88111e-06
1.12297e-05
1.26363e-05
1.26469e-05
4.88252e-06
1.12344e-05
4.23705e-06
1.26444e-05
4.88237e-06
1.12367e-05
2.27504e-05
9.55939e-06
7.24122e-06
7.24141e-06
2.27573e-05
2.27509e-05
7.24015e-06
9.55842e-06
2.2744e-05
7.23997e-06
1.26483e-05
4.23781e-06
4.8831e-06
1.12401e-05
4.88323e-06
1.12379e-05
1.26507e-05
1.26465e-05
4.88273e-06
1.12345e-05
4.2371e-06
1.2644e-05
4.88257e-06
1.12368e-05
2.27493e-05
9.55992e-06
7.24275e-06
7.24314e-06
2.27564e-05
2.27501e-05
7.24189e-06
9.55922e-06
2.27429e-05
7.2415e-06
1.26478e-05
4.2378e-06
4.88328e-06
1.12402e-05
4.88345e-06
1.1238e-05
1.26503e-05
1.90653e-05
1.9066e-05
1.90672e-05
1.90679e-05
9.95912e-06
2.23734e-05
2.23725e-05
9.95946e-06
2.23796e-05
2.23787e-05
4.703e-06
2.97416e-06
5.64848e-06
9.92485e-06
4.70264e-06
2.97434e-06
9.92299e-06
4.70872e-06
2.97537e-06
5.65041e-06
9.92971e-06
4.70837e-06
2.97554e-06
9.92762e-06
4.70196e-06
9.9201e-06
2.97396e-06
5.64735e-06
4.70232e-06
2.97379e-06
9.922e-06
4.7077e-06
9.92457e-06
2.97516e-06
5.64931e-06
4.70804e-06
2.97499e-06
9.92697e-06
9.96124e-06
2.23853e-05
2.23845e-05
9.96089e-06
2.23791e-05
2.23783e-05
1.90771e-05
1.90764e-05
1.90789e-05
1.90783e-05
2.27631e-05
7.24245e-06
9.56396e-06
2.27563e-05
7.24223e-06
1.26546e-05
4.23827e-06
1.12414e-05
4.88379e-06
1.2652e-05
1.12435e-05
4.88372e-06
9.56476e-06
1.90874e-05
1.90892e-05
4.41731e-07
4.41691e-07
6.5343e-07
4.43619e-07
4.43584e-07
2.35582e-07
2.33652e-07
2.8269e-06
1.96718e-06
1.96743e-06
1.41371e-06
1.96649e-06
1.96673e-06
2.82722e-06
2.82821e-06
1.9687e-06
1.96895e-06
1.41659e-06
2.82854e-06
1.96798e-06
1.96821e-06
2.82692e-06
1.96719e-06
1.96742e-06
1.41368e-06
1.96649e-06
1.96672e-06
2.82723e-06
2.82826e-06
1.41742e-06
1.96764e-06
1.96787e-06
1.96835e-06
1.96859e-06
2.82793e-06
2.82682e-06
1.9673e-06
1.96719e-06
1.41366e-06
1.9665e-06
1.96661e-06
2.82714e-06
2.82816e-06
1.41733e-06
1.96775e-06
1.96765e-06
1.96847e-06
1.96835e-06
2.82783e-06
2.82698e-06
1.96735e-06
1.96727e-06
1.41374e-06
1.96659e-06
1.96666e-06
2.82729e-06
2.82831e-06
1.41741e-06
1.96781e-06
1.96774e-06
1.96852e-06
1.96844e-06
2.828e-06
2.82824e-06
1.41745e-06
1.96764e-06
1.96788e-06
2.82791e-06
1.96835e-06
1.9686e-06
4.41738e-07
4.4169e-07
6.53433e-07
4.43626e-07
4.43578e-07
2.35581e-07
2.33651e-07
4.41817e-07
4.41774e-07
6.53524e-07
4.43705e-07
4.43662e-07
2.35646e-07
2.33716e-07
4.41811e-07
4.4177e-07
6.53518e-07
4.43702e-07
4.43658e-07
2.35645e-07
2.33714e-07
6.54996e-07
4.47307e-07
4.47272e-07
4.4549e-07
4.4545e-07
2.3751e-07
2.39413e-07
6.54999e-07
4.47313e-07
4.47265e-07
4.45496e-07
4.45447e-07
2.37508e-07
2.39411e-07
6.55091e-07
4.47394e-07
4.47349e-07
4.45576e-07
4.45533e-07
2.37575e-07
2.39477e-07
6.55083e-07
4.47389e-07
4.47346e-07
4.45568e-07
4.45528e-07
2.37572e-07
2.39476e-07
1.66451e-06
2.53955e-06
1.54151e-06
2.29419e-06
2.53978e-06
1.54247e-06
1.66284e-06
1.84145e-06
2.22238e-06
3.64425e-06
3.02097e-06
2.22189e-06
3.02058e-06
1.84276e-06
1.84332e-06
3.02105e-06
3.64513e-06
2.22225e-06
2.22275e-06
3.02145e-06
1.8419e-06
1.66244e-06
2.2936e-06
2.53938e-06
1.54188e-06
2.53916e-06
1.54093e-06
1.66395e-06
1.66432e-06
1.54158e-06
2.53942e-06
2.29414e-06
1.54242e-06
2.53962e-06
1.66304e-06
1.8415e-06
2.22244e-06
3.64433e-06
3.0206e-06
2.22197e-06
3.02027e-06
1.8426e-06
1.84312e-06
3.02075e-06
3.64516e-06
2.22233e-06
2.22281e-06
3.02108e-06
1.84206e-06
1.66249e-06
2.29359e-06
1.54184e-06
2.53922e-06
1.541e-06
2.53901e-06
1.66382e-06
2.82758e-06
1.41599e-06
1.9669e-06
1.96713e-06
1.96759e-06
1.96784e-06
2.82726e-06
2.8276e-06
1.41596e-06
1.9669e-06
1.96713e-06
2.82727e-06
1.9676e-06
1.96784e-06
2.82761e-06
1.41519e-06
1.96799e-06
1.96823e-06
2.82794e-06
1.96728e-06
1.96751e-06
1.6642e-06
2.53935e-06
1.5415e-06
2.29406e-06
2.53954e-06
1.54234e-06
1.66304e-06
1.84142e-06
2.22233e-06
3.64408e-06
3.02052e-06
3.02019e-06
2.22187e-06
1.84249e-06
1.84301e-06
3.02066e-06
3.6449e-06
2.22223e-06
3.02099e-06
2.2227e-06
1.84197e-06
1.66253e-06
2.29352e-06
2.53914e-06
1.54176e-06
2.53895e-06
1.54092e-06
1.66369e-06
1.66439e-06
2.5396e-06
1.54153e-06
2.29412e-06
2.53981e-06
1.54239e-06
1.66304e-06
1.84162e-06
2.22268e-06
3.6446e-06
3.02112e-06
3.02076e-06
2.2222e-06
1.84275e-06
1.84326e-06
3.02123e-06
3.64544e-06
2.22256e-06
3.02159e-06
1.84215e-06
2.22305e-06
1.66252e-06
2.29358e-06
2.53941e-06
1.54181e-06
2.53921e-06
1.54095e-06
1.6639e-06
1.66349e-06
2.53992e-06
1.54289e-06
2.29434e-06
1.66466e-06
2.53971e-06
1.54204e-06
1.84396e-06
2.22287e-06
3.64617e-06
3.02156e-06
2.22336e-06
3.02189e-06
1.843e-06
1.8425e-06
3.02145e-06
2.22304e-06
3.64537e-06
2.22256e-06
1.84349e-06
3.02111e-06
1.66509e-06
2.29485e-06
2.54008e-06
1.54256e-06
2.54028e-06
1.54341e-06
1.66395e-06
1.66357e-06
2.54019e-06
1.54294e-06
2.29441e-06
1.66486e-06
2.53997e-06
1.54207e-06
1.84421e-06
2.2232e-06
3.64671e-06
3.02213e-06
3.02249e-06
2.22372e-06
1.8432e-06
1.84268e-06
3.02205e-06
2.22339e-06
3.64589e-06
1.84375e-06
3.02169e-06
2.22289e-06
1.66529e-06
2.29491e-06
2.54033e-06
1.54259e-06
2.54055e-06
1.54346e-06
1.66409e-06
2.8275e-06
1.41588e-06
1.96701e-06
1.96691e-06
1.9676e-06
1.96771e-06
2.82717e-06
2.82751e-06
1.41515e-06
1.9681e-06
1.96799e-06
1.96739e-06
2.82784e-06
1.96729e-06
1.66444e-06
2.53965e-06
1.54162e-06
2.29422e-06
2.53984e-06
1.54247e-06
1.66317e-06
1.84165e-06
2.22277e-06
3.64482e-06
3.02116e-06
3.0208e-06
2.22229e-06
1.84278e-06
1.84329e-06
3.02128e-06
3.6457e-06
2.22265e-06
3.02164e-06
2.22313e-06
1.84219e-06
1.6626e-06
2.29367e-06
2.53944e-06
1.54189e-06
2.53923e-06
1.54104e-06
1.66394e-06
1.6643e-06
1.54156e-06
2.53943e-06
2.29414e-06
1.54241e-06
2.53964e-06
1.66304e-06
1.84149e-06
2.22265e-06
3.64464e-06
3.02066e-06
3.02032e-06
2.22217e-06
1.84259e-06
1.8431e-06
3.02079e-06
3.64553e-06
2.22253e-06
3.02114e-06
1.84204e-06
2.22302e-06
1.66248e-06
2.2936e-06
1.54183e-06
2.53923e-06
1.54099e-06
2.53904e-06
1.6638e-06
1.66369e-06
2.54022e-06
1.54301e-06
2.2945e-06
1.6649e-06
2.54e-06
1.54216e-06
1.84424e-06
2.22329e-06
3.64696e-06
3.02217e-06
2.2238e-06
3.02254e-06
1.84324e-06
1.84272e-06
3.02209e-06
2.22348e-06
3.64611e-06
2.22298e-06
1.84378e-06
3.02172e-06
1.66533e-06
2.29502e-06
2.54039e-06
1.54269e-06
2.54058e-06
1.54354e-06
1.66416e-06
1.66357e-06
1.54296e-06
2.54002e-06
2.29443e-06
1.66476e-06
1.54211e-06
2.53981e-06
1.84406e-06
2.22317e-06
3.6468e-06
3.02169e-06
3.02204e-06
2.22369e-06
1.84305e-06
1.84257e-06
3.0216e-06
2.22336e-06
3.64594e-06
1.84359e-06
3.02125e-06
2.22286e-06
1.6652e-06
2.29493e-06
1.54263e-06
2.54017e-06
1.54349e-06
2.54038e-06
1.66399e-06
1.66424e-06
1.54153e-06
2.53939e-06
2.29411e-06
1.54238e-06
2.5396e-06
1.66308e-06
1.84146e-06
2.22236e-06
3.64418e-06
3.02055e-06
2.22189e-06
3.0202e-06
1.84254e-06
1.84305e-06
3.02067e-06
3.64501e-06
2.22225e-06
2.22272e-06
3.02103e-06
1.84201e-06
1.66256e-06
2.29353e-06
1.5418e-06
2.5392e-06
1.54095e-06
2.53899e-06
1.66373e-06
1.66318e-06
2.54016e-06
1.54302e-06
2.29443e-06
1.66514e-06
2.53993e-06
1.54205e-06
1.84454e-06
2.2229e-06
3.6464e-06
3.02194e-06
1.8427e-06
2.22342e-06
3.02235e-06
1.8423e-06
3.02191e-06
2.22309e-06
3.64555e-06
1.84391e-06
2.22259e-06
3.0215e-06
1.66583e-06
2.29498e-06
2.54029e-06
1.54257e-06
1.66361e-06
2.54053e-06
1.54355e-06
1.66352e-06
1.54292e-06
2.53998e-06
2.29437e-06
1.66471e-06
1.54207e-06
2.53976e-06
1.844e-06
2.22289e-06
3.64628e-06
3.02157e-06
3.02193e-06
2.22339e-06
1.843e-06
1.84254e-06
3.02149e-06
2.22307e-06
3.64548e-06
1.84354e-06
3.02112e-06
2.22258e-06
1.66516e-06
2.29489e-06
1.54259e-06
2.54012e-06
1.54345e-06
2.54034e-06
1.66397e-06
2.82765e-06
1.41596e-06
1.96707e-06
1.967e-06
1.96768e-06
1.96777e-06
2.82734e-06
2.82768e-06
1.41524e-06
1.96816e-06
1.96807e-06
1.96745e-06
2.82799e-06
1.96738e-06
1.6644e-06
1.5416e-06
2.5396e-06
2.29418e-06
1.54244e-06
2.53981e-06
1.66313e-06
1.84165e-06
2.22278e-06
3.64482e-06
3.02111e-06
2.2223e-06
3.02074e-06
1.84275e-06
1.84327e-06
3.02122e-06
3.64566e-06
2.22266e-06
2.22315e-06
3.02159e-06
1.84219e-06
1.66258e-06
2.29365e-06
1.54186e-06
2.53941e-06
1.54102e-06
2.5392e-06
1.6639e-06
1.66358e-06
1.54297e-06
2.54e-06
2.29442e-06
1.66478e-06
1.54212e-06
2.53978e-06
1.84407e-06
2.22298e-06
3.64643e-06
3.02165e-06
1.84309e-06
2.22348e-06
3.02198e-06
1.84259e-06
3.02154e-06
2.22316e-06
3.64563e-06
1.8436e-06
2.22266e-06
3.0212e-06
1.66521e-06
2.29494e-06
1.54264e-06
2.54016e-06
1.66404e-06
1.54349e-06
2.54037e-06
1.66366e-06
1.54299e-06
2.54019e-06
2.29448e-06
1.66487e-06
1.54215e-06
2.53997e-06
1.84422e-06
2.22331e-06
3.64693e-06
3.02212e-06
3.0225e-06
2.22382e-06
1.84324e-06
1.84272e-06
3.02205e-06
2.2235e-06
3.64611e-06
1.84375e-06
3.02167e-06
2.223e-06
1.6653e-06
2.29498e-06
1.54267e-06
2.54033e-06
1.54352e-06
2.54055e-06
1.66414e-06
2.82759e-06
1.41522e-06
1.96798e-06
1.96824e-06
2.82792e-06
1.96729e-06
1.96752e-06
1.8434e-06
2.22369e-06
3.02235e-06
3.6467e-06
2.22318e-06
1.84447e-06
3.02198e-06
1.66435e-06
2.29512e-06
1.54394e-06
2.54068e-06
1.54309e-06
1.66562e-06
2.54044e-06
2.22412e-06
3.64733e-06
2.2236e-06
3.23649e-07
8.68839e-07
8.68946e-07
1.15461e-06
3.39685e-07
8.92269e-07
8.92382e-07
1.17375e-06
3.55963e-07
9.14714e-07
9.14824e-07
1.19211e-06
3.72405e-07
9.36152e-07
9.36258e-07
1.20961e-06
3.88932e-07
9.56576e-07
9.56682e-07
1.22623e-06
4.05461e-07
9.76001e-07
9.76108e-07
1.24201e-06
4.21915e-07
9.94435e-07
9.94541e-07
1.2569e-06
4.38217e-07
1.01188e-06
1.01199e-06
1.27102e-06
4.54295e-07
1.02837e-06
1.02847e-06
1.28444e-06
4.70081e-07
1.0439e-06
1.044e-06
1.29713e-06
4.85517e-07
1.05851e-06
1.0586e-06
1.30908e-06
5.0055e-07
1.07221e-06
1.0723e-06
1.32034e-06
5.15132e-07
1.08503e-06
1.08511e-06
1.33093e-06
5.29222e-07
1.09699e-06
1.09706e-06
1.34086e-06
5.42783e-07
1.10812e-06
1.1082e-06
1.35013e-06
5.55787e-07
1.11846e-06
1.11853e-06
1.35881e-06
5.68206e-07
1.12801e-06
1.12808e-06
1.36688e-06
5.80022e-07
1.13681e-06
1.13687e-06
1.37437e-06
5.9122e-07
1.14488e-06
1.14494e-06
1.3813e-06
6.0179e-07
1.15224e-06
1.1523e-06
1.38767e-06
6.11724e-07
1.15892e-06
1.15898e-06
1.39351e-06
6.2102e-07
1.16494e-06
1.165e-06
1.39883e-06
6.29675e-07
1.17032e-06
1.17038e-06
1.40364e-06
6.37694e-07