/*--------------------------------*- C++ -*----------------------------------*\
| =========                 |                                                 |
| \\      /  F ield         | OpenFOAM: The Open Source CFD Toolbox           |
|  \\    /   O peration     | Version:  v1906                                 |
|   \\  /    A nd           | Web:      www.OpenFOAM.com                      |
|    \\/     M anipulation  |                                                 |
\*---------------------------------------------------------------------------*/
FoamFile
{
    version     2.0;
    format      ascii;
    class       volScalarField;
    location    "800";
    object      k;
}
// * * * * * * * * * * * * * * * * * * * * * * * * * * * * * * * * * * * * * //

dimensions      [0 2 -2 0 0 0 0];


internalField   nonuniform List<scalar> 
171728
(
4.17594e-05
3.6459e-05
3.64594e-05
4.1768e-05
3.6456e-05
3.64592e-05
3.6457e-05
3.64626e-05
4.17853e-05
3.64591e-05
3.6461e-05
4.17914e-05
2.08485e-05
2.08489e-05
2.08511e-05
2.08526e-05
6.95311e-05
6.95338e-05
6.68952e-05
6.69051e-05
6.46102e-05
7.13526e-05
6.47083e-05
6.46128e-05
7.1357e-05
7.13236e-05
6.47106e-05
5.30904e-05
6.01854e-05
2.88251e-05
2.85798e-05
5.3292e-05
5.30927e-05
3.62274e-05
6.01916e-05
2.8827e-05
6.00681e-05
2.8582e-05
5.32941e-05
6.95335e-05
6.95076e-05
4.15825e-05
6.6906e-05
6.68892e-05
6.68416e-05
6.68295e-05
6.95293e-05
6.95033e-05
7.13575e-05
6.47118e-05
6.01905e-05
2.88291e-05
5.32933e-05
7.13535e-05
6.47088e-05
2.88296e-05
6.01839e-05
5.32935e-05
5.30966e-05
3.62251e-05
6.01842e-05
2.88285e-05
6.0066e-05
2.85836e-05
5.32971e-05
6.46145e-05
7.13557e-05
7.13219e-05
6.47125e-05
5.30947e-05
3.62305e-05
2.88307e-05
6.01872e-05
2.85857e-05
6.00653e-05
5.3296e-05
6.46132e-05
7.13534e-05
7.13199e-05
6.47092e-05
6.95318e-05
6.68967e-05
6.68946e-05
6.9532e-05
5.30951e-05
2.88329e-05
6.01889e-05
2.85876e-05
5.32952e-05
5.30964e-05
3.6229e-05
2.8834e-05
6.01937e-05
2.8589e-05
6.00704e-05
5.32969e-05
6.46133e-05
7.13555e-05
6.47129e-05
6.46149e-05
7.13598e-05
7.13237e-05
6.47141e-05
4.15707e-05
6.68943e-05
6.69074e-05
6.68339e-05
6.6844e-05
6.95318e-05
6.95059e-05
6.95348e-05
6.95088e-05
6.95186e-05
6.95213e-05
7.0029e-05
5.93323e-05
6.68779e-05
7.11355e-05
7.11206e-05
5.92678e-05
7.00692e-05
7.00897e-05
5.93259e-05
6.68861e-05
7.11469e-05
7.11291e-05
5.92862e-05
7.00995e-05
9.2342e-05
7.20373e-05
7.20306e-05
7.20232e-05
7.20168e-05
9.23494e-05
7.01251e-05
6.9822e-05
6.81159e-05
6.46501e-05
7.01142e-05
6.98307e-05
6.8152e-05
7.0184e-05
7.13372e-05
7.73852e-05
7.73663e-05
7.01985e-05
7.01269e-05
6.46688e-05
6.98443e-05
6.82017e-05
6.98356e-05
6.8166e-05
7.01389e-05
7.01271e-05
6.98227e-05
6.81264e-05
6.4652e-05
7.01175e-05
6.98314e-05
6.81594e-05
7.01872e-05
7.13443e-05
7.74073e-05
7.73895e-05
7.02012e-05
7.01914e-05
7.73603e-05
7.13366e-05
7.01775e-05
7.73783e-05
7.01305e-05
6.46708e-05
6.9845e-05
6.82094e-05
6.98363e-05
6.81752e-05
7.014e-05
6.9521e-05
6.952e-05
9.23145e-05
7.20056e-05
7.20109e-05
9.23027e-05
7.20194e-05
7.20247e-05
7.00848e-05
5.93323e-05
6.68869e-05
7.11472e-05
5.92813e-05
7.11289e-05
7.01057e-05
7.0033e-05
5.9321e-05
6.68746e-05
7.11335e-05
7.11188e-05
5.92722e-05
7.00542e-05
7.00404e-05
7.11057e-05
5.91825e-05
6.68611e-05
5.92339e-05
7.00192e-05
7.11235e-05
6.99887e-05
7.10953e-05
5.91733e-05
6.68439e-05
6.99673e-05
7.11103e-05
5.92228e-05
9.2338e-05
7.20306e-05
7.20359e-05
7.20166e-05
7.20219e-05
9.23469e-05
6.95167e-05
6.95158e-05
7.01872e-05
7.13447e-05
7.74069e-05
7.73863e-05
7.02012e-05
7.01302e-05
6.46743e-05
6.82083e-05
6.98486e-05
6.81757e-05
6.98357e-05
7.01416e-05
7.0184e-05
7.13381e-05
7.73846e-05
7.73655e-05
7.01986e-05
7.01284e-05
6.46728e-05
6.98455e-05
6.82004e-05
6.98369e-05
6.81687e-05
7.01385e-05
7.01268e-05
6.81261e-05
6.9823e-05
6.46538e-05
7.01171e-05
6.81586e-05
6.98317e-05
7.01862e-05
7.13426e-05
7.74046e-05
7.73859e-05
7.02002e-05
7.01904e-05
7.73567e-05
7.13352e-05
7.01765e-05
7.73756e-05
7.01302e-05
6.46726e-05
6.82078e-05
6.98453e-05
6.81759e-05
6.98366e-05
7.01408e-05
7.01262e-05
6.98205e-05
6.81214e-05
6.46517e-05
7.01156e-05
6.98332e-05
6.81541e-05
7.01855e-05
7.13407e-05
7.73867e-05
7.73695e-05
7.01994e-05
7.01896e-05
7.734e-05
7.13329e-05
7.01757e-05
7.73581e-05
7.01288e-05
6.46726e-05
6.98471e-05
6.82032e-05
6.98341e-05
6.81716e-05
7.0139e-05
6.95191e-05
7.00849e-05
5.93287e-05
6.68816e-05
7.11451e-05
5.92809e-05
7.11266e-05
7.01067e-05
7.00357e-05
5.93255e-05
6.6877e-05
7.11366e-05
7.11183e-05
5.92738e-05
7.0057e-05
9.23419e-05
7.20304e-05
7.20368e-05
7.20164e-05
7.20228e-05
9.23547e-05
6.95195e-05
7.01275e-05
6.81189e-05
6.98221e-05
6.46547e-05
7.01158e-05
6.81557e-05
6.98347e-05
7.01863e-05
7.13398e-05
7.73885e-05
7.73677e-05
7.02002e-05
7.01904e-05
7.73593e-05
7.01284e-05
6.46723e-05
6.82054e-05
6.98486e-05
6.81692e-05
6.98357e-05
7.0141e-05
7.01283e-05
6.81236e-05
6.98225e-05
6.46558e-05
7.01171e-05
6.81599e-05
6.98351e-05
7.01869e-05
7.13442e-05
7.74047e-05
7.73851e-05
7.02016e-05
7.01918e-05
7.73558e-05
7.1339e-05
7.01773e-05
7.73758e-05
7.01302e-05
6.46734e-05
6.82094e-05
6.9849e-05
6.81735e-05
6.98361e-05
7.01417e-05
9.2319e-05
7.20123e-05
7.20063e-05
9.23071e-05
7.20262e-05
7.20201e-05
7.00354e-05
5.93247e-05
6.68791e-05
7.11369e-05
5.92737e-05
7.11186e-05
7.00569e-05
7.00879e-05
5.93365e-05
6.68892e-05
7.11483e-05
5.9284e-05
7.11299e-05
7.01092e-05
6.99912e-05
7.10953e-05
5.9175e-05
6.68495e-05
6.99695e-05
5.92264e-05
7.11132e-05
7.00436e-05
7.11066e-05
5.91852e-05
6.68626e-05
7.00221e-05
5.92382e-05
7.11246e-05
9.23425e-05
7.20374e-05
7.20313e-05
7.20234e-05
7.20174e-05
9.23514e-05
6.95194e-05
6.95182e-05
6.95223e-05
6.95212e-05
5.95191e-05
4.17734e-05
5.05078e-05
5.05017e-05
5.04662e-05
5.04756e-05
5.95509e-05
5.95177e-05
4.17741e-05
5.05103e-05
5.05061e-05
5.047e-05
5.04686e-05
5.95501e-05
5.95166e-05
4.17598e-05
5.04994e-05
5.05123e-05
5.04668e-05
5.0462e-05
5.95518e-05
5.95191e-05
4.17592e-05
5.05087e-05
5.05129e-05
5.04671e-05
5.0471e-05
5.95536e-05
1.49188e-05
1.49187e-05
1.48075e-05
1.07942e-05
1.08212e-05
2.0664e-05
1.49192e-05
1.49181e-05
1.48078e-05
1.48068e-05
1.07942e-05
1.08211e-05
1.49215e-05
1.49213e-05
1.48097e-05
1.07954e-05
1.08224e-05
2.06676e-05
1.49216e-05
1.49214e-05
1.48101e-05
1.481e-05
1.07954e-05
1.08224e-05
4.55445e-05
5.54119e-05
4.35742e-05
5.31702e-05
4.55178e-05
5.54867e-05
4.35921e-05
4.80415e-05
5.2512e-05
6.01379e-05
5.8511e-05
5.24765e-05
5.84522e-05
4.80868e-05
4.56901e-05
5.32121e-05
5.55973e-05
4.37954e-05
5.55243e-05
4.37495e-05
4.5722e-05
4.55528e-05
5.54188e-05
4.35767e-05
5.3172e-05
4.55274e-05
5.54941e-05
4.35947e-05
4.80475e-05
5.25278e-05
6.01427e-05
5.85212e-05
5.84619e-05
5.24792e-05
4.80944e-05
4.7935e-05
5.83686e-05
5.23479e-05
6.01173e-05
4.78954e-05
5.84281e-05
5.23939e-05
4.56974e-05
5.32139e-05
5.56055e-05
4.3798e-05
5.55302e-05
4.3752e-05
4.57283e-05
5.94438e-05
4.15767e-05
5.03253e-05
5.03233e-05
5.03559e-05
5.94124e-05
5.03537e-05
4.80479e-05
5.25146e-05
6.01433e-05
5.85198e-05
5.24834e-05
5.84606e-05
4.80915e-05
4.57015e-05
5.32182e-05
5.56029e-05
4.37715e-05
5.5531e-05
4.37522e-05
4.57263e-05
4.80437e-05
5.25122e-05
6.01412e-05
5.85113e-05
5.84524e-05
5.24794e-05
4.80886e-05
4.56989e-05
5.32145e-05
4.37703e-05
5.55991e-05
4.37508e-05
5.55254e-05
4.57237e-05
4.55306e-05
5.54237e-05
4.35806e-05
5.3175e-05
4.55337e-05
5.54912e-05
4.35982e-05
4.80593e-05
5.2512e-05
6.01408e-05
5.85182e-05
5.24833e-05
5.84604e-05
4.8071e-05
4.79205e-05
5.83671e-05
5.23512e-05
6.01099e-05
4.79065e-05
5.23814e-05
5.84257e-05
4.57162e-05
5.32171e-05
5.56015e-05
4.38007e-05
5.55345e-05
4.37564e-05
4.57053e-05
4.55422e-05
4.35782e-05
5.54192e-05
5.31734e-05
4.5537e-05
4.35967e-05
5.54899e-05
4.80588e-05
5.25152e-05
6.01401e-05
5.85139e-05
5.8456e-05
5.24814e-05
4.80711e-05
4.79209e-05
5.83626e-05
5.23501e-05
6.01131e-05
4.79051e-05
5.84215e-05
5.23838e-05
4.5711e-05
5.32154e-05
4.37999e-05
5.56006e-05
4.37556e-05
5.5531e-05
4.57064e-05
4.55558e-05
4.35673e-05
5.5418e-05
5.31752e-05
4.55168e-05
4.36123e-05
5.54902e-05
4.80461e-05
5.25198e-05
6.01403e-05
5.85141e-05
5.24799e-05
5.84559e-05
4.80907e-05
4.79321e-05
5.84211e-05
4.56988e-05
5.32186e-05
4.37755e-05
5.56011e-05
4.37559e-05
5.55302e-05
4.5725e-05
4.55534e-05
4.35654e-05
5.54211e-05
5.31756e-05
4.55255e-05
4.36158e-05
5.54947e-05
4.80498e-05
5.25253e-05
6.01453e-05
5.85208e-05
5.84627e-05
5.24845e-05
4.80955e-05
4.79361e-05
5.83692e-05
5.23525e-05
6.01194e-05
4.78977e-05
5.84281e-05
5.23921e-05
4.5698e-05
5.32191e-05
4.38017e-05
5.56062e-05
4.37503e-05
5.55312e-05
4.57291e-05
5.94475e-05
4.15951e-05
5.03211e-05
5.03239e-05
5.94136e-05
5.03608e-05
5.03666e-05
3.83842e-05
5.11091e-05
5.11096e-05
5.32906e-05
5.34868e-05
5.32905e-05
5.34422e-05
5.11068e-05
5.11072e-05
5.12929e-05
5.12934e-05
5.3301e-05
5.34317e-05
5.11071e-05
5.11063e-05
5.12931e-05
5.12925e-05
5.11088e-05
5.12952e-05
5.12948e-05
5.33008e-05
5.34317e-05
5.11087e-05
5.12958e-05
5.12948e-05
5.34423e-05
5.13548e-05
5.13548e-05
6.85095e-05
7.33538e-05
7.33803e-05
6.84833e-05
7.11149e-05
7.11409e-05
6.85141e-05
7.33606e-05
7.33851e-05
6.84879e-05
3.83848e-05
3.83874e-05
3.8388e-05
3.86998e-05
3.87004e-05
3.8703e-05
3.87036e-05
6.0524e-05
6.46926e-05
4.63279e-05
5.11723e-05
6.47234e-05
4.64076e-05
6.04754e-05
7.11134e-05
7.11397e-05
6.05212e-05
4.6329e-05
6.46939e-05
5.11728e-05
4.64088e-05
6.47245e-05
6.0476e-05
6.98617e-05
6.98737e-05
5.33446e-05
6.98809e-05
6.98919e-05
6.99169e-05
6.99287e-05
7.11128e-05
7.11389e-05
7.11154e-05
7.11415e-05
6.98622e-05
6.98722e-05
5.33447e-05
6.98812e-05
6.98908e-05
7.11663e-05
7.11406e-05
7.11689e-05
7.11432e-05
5.33886e-05
6.99085e-05
6.99184e-05
6.98905e-05
6.99007e-05
6.85114e-05
7.33592e-05
7.33851e-05
6.84852e-05
6.05195e-05
6.46908e-05
4.63249e-05
5.117e-05
6.47218e-05
4.64046e-05
6.04745e-05
6.05207e-05
6.46948e-05
4.6326e-05
5.11705e-05
6.47257e-05
4.64057e-05
6.04757e-05
6.85154e-05
7.34099e-05
7.33839e-05
6.85404e-05
6.85174e-05
7.34145e-05
7.33887e-05
6.85424e-05
6.05312e-05
5.12325e-05
6.47574e-05
4.65596e-05
6.47281e-05
4.64834e-05
6.05733e-05
6.05325e-05
5.1233e-05
6.47615e-05
4.65607e-05
6.47321e-05
4.64846e-05
6.05746e-05
6.9872e-05
6.98595e-05
5.33345e-05
6.98904e-05
6.98787e-05
7.11114e-05
7.11378e-05
7.11684e-05
7.11426e-05
5.33992e-05
6.99177e-05
6.9906e-05
6.99003e-05
6.98878e-05
7.11652e-05
7.11392e-05
6.05226e-05
6.46954e-05
4.63269e-05
5.11702e-05
6.47262e-05
4.64067e-05
6.04775e-05
6.85119e-05
7.33552e-05
7.33797e-05
6.84857e-05
6.05206e-05
4.63268e-05
6.469e-05
5.11695e-05
4.64064e-05
6.47204e-05
6.04755e-05
6.852e-05
7.34151e-05
7.33905e-05
6.8545e-05
6.05343e-05
5.12328e-05
6.4762e-05
4.65617e-05
6.47327e-05
4.64855e-05
6.05765e-05
6.85179e-05
7.34093e-05
7.33852e-05
6.85429e-05
6.05323e-05
5.12321e-05
4.65615e-05
6.47562e-05
4.64854e-05
6.47273e-05
6.05745e-05
6.85134e-05
7.33583e-05
7.33848e-05
6.84852e-05
6.05206e-05
4.6328e-05
6.46914e-05
5.1172e-05
4.64076e-05
6.47219e-05
6.04756e-05
6.85106e-05
7.33562e-05
7.33807e-05
6.84843e-05
6.05321e-05
5.12348e-05
6.47592e-05
4.65625e-05
6.47299e-05
4.64864e-05
6.0578e-05
6.85174e-05
7.34143e-05
7.33884e-05
6.85443e-05
6.05322e-05
5.12345e-05
4.65625e-05
6.47577e-05
4.64864e-05
6.47286e-05
6.05745e-05
6.85165e-05
7.34103e-05
7.33862e-05
6.85415e-05
6.98655e-05
6.98633e-05
5.33345e-05
6.98848e-05
6.98818e-05
7.1114e-05
7.11401e-05
7.11671e-05
7.11412e-05
5.3399e-05
6.9912e-05
6.99091e-05
6.98938e-05
6.98917e-05
7.11675e-05
7.11418e-05
6.05223e-05
4.63293e-05
6.46966e-05
5.11719e-05
4.6409e-05
6.47275e-05
6.04771e-05
6.85106e-05
7.33563e-05
7.3383e-05
6.84842e-05
6.85129e-05
7.33603e-05
7.33849e-05
6.84866e-05
6.05328e-05
5.12354e-05
4.65638e-05
6.47604e-05
4.64876e-05
6.47311e-05
6.05751e-05
6.05339e-05
5.12345e-05
4.6564e-05
6.47632e-05
4.64879e-05
6.47339e-05
6.05762e-05
6.85165e-05
7.34124e-05
7.33866e-05
6.85415e-05
6.85188e-05
7.34149e-05
7.33903e-05
6.85438e-05
7.11131e-05
7.11392e-05
7.1116e-05
7.1142e-05
5.33886e-05
6.99081e-05
6.99195e-05
6.98901e-05
6.9902e-05
7.11666e-05
7.11409e-05
7.11695e-05
7.11438e-05
4.66381e-05
6.47639e-05
6.05861e-05
7.34157e-05
6.85473e-05
6.47696e-05
7.34187e-05
7.11682e-05
7.11711e-05
7.17898e-05
7.15676e-05
7.15371e-05
6.84997e-05
7.15582e-05
7.15282e-05
7.17993e-05
7.16283e-05
7.33653e-05
7.96982e-05
7.97018e-05
7.16133e-05
7.16269e-05
7.9715e-05
7.33689e-05
7.97115e-05
7.16418e-05
7.17848e-05
6.84936e-05
7.15433e-05
7.15133e-05
7.15528e-05
7.15226e-05
7.1775e-05
7.11271e-05
7.11288e-05
7.17929e-05
7.15451e-05
7.15698e-05
6.85042e-05
7.15361e-05
7.15604e-05
7.18023e-05
7.16304e-05
7.33703e-05
7.97157e-05
7.97239e-05
7.16159e-05
7.16294e-05
7.97371e-05
7.33757e-05
7.97288e-05
7.16439e-05
7.17878e-05
6.84981e-05
7.15213e-05
7.15455e-05
7.15305e-05
7.1555e-05
7.17782e-05
7.11259e-05
7.11273e-05
9.49274e-05
7.34526e-05
7.34462e-05
7.34389e-05
7.34326e-05
9.49297e-05
7.40749e-05
6.51189e-05
6.98667e-05
7.31882e-05
6.51326e-05
7.32009e-05
7.40688e-05
7.41221e-05
6.51277e-05
6.98778e-05
7.32004e-05
6.51423e-05
7.32098e-05
7.41177e-05
7.40861e-05
7.32152e-05
6.98761e-05
6.51558e-05
6.51423e-05
7.32028e-05
7.40918e-05
7.41349e-05
7.32242e-05
6.9888e-05
6.51654e-05
6.51511e-05
7.32149e-05
7.41392e-05
9.4915e-05
7.34262e-05
7.34198e-05
7.34399e-05
7.34335e-05
9.49127e-05
7.41406e-05
6.52089e-05
7.32453e-05
6.99217e-05
7.41351e-05
6.52212e-05
7.32582e-05
7.41884e-05
6.52177e-05
7.32557e-05
6.99328e-05
7.41832e-05
6.52308e-05
7.32684e-05
9.49724e-05
7.34768e-05
7.34704e-05
9.49699e-05
7.34903e-05
7.34839e-05
7.1125e-05
7.11267e-05
7.11276e-05
7.11294e-05
9.49264e-05
7.34527e-05
7.3446e-05
7.34391e-05
7.34323e-05
9.4929e-05
7.4076e-05
6.51188e-05
6.9867e-05
7.31889e-05
7.32014e-05
6.51337e-05
7.407e-05
7.41218e-05
6.51272e-05
6.98768e-05
7.31983e-05
7.32108e-05
6.51416e-05
7.41159e-05
7.40874e-05
7.32158e-05
6.98765e-05
6.51568e-05
7.32035e-05
7.40929e-05
6.51422e-05
7.41332e-05
7.32252e-05
6.98867e-05
6.51647e-05
7.32129e-05
7.41387e-05
6.51506e-05
9.49144e-05
7.34263e-05
7.34195e-05
7.344e-05
7.34332e-05
9.49117e-05
7.11543e-05
7.11527e-05
7.11569e-05
7.11553e-05
9.49435e-05
7.34518e-05
7.3445e-05
9.49409e-05
7.34654e-05
7.34586e-05
7.41206e-05
6.52009e-05
6.99042e-05
7.32445e-05
7.32321e-05
6.51873e-05
7.41257e-05
7.41664e-05
6.52089e-05
6.99144e-05
7.32535e-05
7.32417e-05
6.51956e-05
7.41713e-05
7.41095e-05
7.3218e-05
6.5165e-05
6.9895e-05
7.41042e-05
7.32301e-05
6.51791e-05
7.41553e-05
7.32275e-05
6.51733e-05
6.99047e-05
7.415e-05
7.32393e-05
6.5187e-05
9.49552e-05
7.3478e-05
7.34713e-05
7.34644e-05
7.34577e-05
9.49578e-05
7.1792e-05
7.15681e-05
7.15445e-05
6.85015e-05
7.15587e-05
7.15355e-05
7.18014e-05
7.163e-05
7.33698e-05
7.97166e-05
7.97251e-05
7.16155e-05
7.1629e-05
7.97382e-05
7.33735e-05
7.97298e-05
7.16436e-05
7.1787e-05
6.84955e-05
7.15438e-05
7.15207e-05
7.15533e-05
7.15299e-05
7.17774e-05
7.18138e-05
7.1573e-05
7.15427e-05
6.85253e-05
7.18043e-05
7.15826e-05
7.15517e-05
7.16537e-05
7.33987e-05
7.97407e-05
7.16686e-05
7.97372e-05
7.16552e-05
7.97245e-05
7.33951e-05
7.16403e-05
7.97279e-05
7.18189e-05
6.8531e-05
7.15974e-05
7.15656e-05
7.18284e-05
7.15879e-05
7.1557e-05
7.18159e-05
7.15736e-05
7.15501e-05
6.85272e-05
7.18065e-05
7.15832e-05
7.15591e-05
7.16559e-05
7.34035e-05
7.97639e-05
7.97557e-05
7.16703e-05
7.1657e-05
7.97429e-05
7.33998e-05
7.16425e-05
7.97511e-05
7.18211e-05
6.85329e-05
7.1598e-05
7.15732e-05
7.15885e-05
7.15644e-05
7.18304e-05
9.49251e-05
7.3446e-05
7.34518e-05
7.34323e-05
7.34381e-05
9.49271e-05
7.41206e-05
6.51263e-05
6.98761e-05
7.31997e-05
7.3209e-05
6.51395e-05
7.41165e-05
7.40742e-05
6.51204e-05
6.98645e-05
7.31894e-05
6.51326e-05
7.31989e-05
7.40698e-05
7.41336e-05
7.32234e-05
6.98863e-05
6.51627e-05
7.32142e-05
6.51497e-05
7.41378e-05
7.4087e-05
7.32132e-05
6.98739e-05
6.51557e-05
6.51438e-05
7.32039e-05
7.40914e-05
9.49124e-05
7.34195e-05
7.34253e-05
7.34333e-05
7.3439e-05
9.49104e-05
7.11239e-05
7.11254e-05
7.11564e-05
7.11547e-05
9.49416e-05
7.34451e-05
7.34508e-05
9.49396e-05
7.34587e-05
7.34645e-05
7.41668e-05
6.52069e-05
6.9914e-05
7.32521e-05
6.51947e-05
7.32431e-05
7.41706e-05
7.41202e-05
6.52e-05
6.99015e-05
7.32419e-05
7.32328e-05
6.51888e-05
7.41243e-05
7.41544e-05
7.32288e-05
6.51724e-05
6.99041e-05
6.5185e-05
7.41504e-05
7.32381e-05
7.4108e-05
7.32185e-05
6.51666e-05
6.98924e-05
7.41038e-05
7.32278e-05
6.51781e-05
9.49539e-05
7.34713e-05
7.34771e-05
7.34577e-05
7.34635e-05
9.49559e-05
7.11529e-05
7.11515e-05
7.17905e-05
7.1569e-05
7.15373e-05
6.8502e-05
7.15596e-05
7.15283e-05
7.18e-05
7.1628e-05
7.33648e-05
7.9697e-05
7.97005e-05
7.1613e-05
7.16265e-05
7.97136e-05
7.33702e-05
7.97102e-05
7.16415e-05
7.17855e-05
6.8496e-05
7.15446e-05
7.15134e-05
7.15542e-05
7.15227e-05
7.17759e-05
7.18168e-05
7.15506e-05
7.15753e-05
6.85299e-05
7.18074e-05
7.15596e-05
7.15849e-05
7.16563e-05
7.34053e-05
7.97627e-05
7.16707e-05
7.97546e-05
7.16574e-05
7.97419e-05
7.34002e-05
7.16429e-05
7.975e-05
7.1822e-05
6.85356e-05
7.15737e-05
7.15995e-05
7.18314e-05
7.15649e-05
7.15902e-05
7.18145e-05
7.15745e-05
7.15428e-05
6.85277e-05
7.1805e-05
7.15841e-05
7.15518e-05
7.16534e-05
7.34e-05
7.97394e-05
7.9736e-05
7.16682e-05
7.16549e-05
7.97233e-05
7.33947e-05
7.164e-05
7.97267e-05
7.18196e-05
6.85334e-05
7.15987e-05
7.15658e-05
7.15894e-05
7.15571e-05
7.1829e-05
7.17905e-05
7.15463e-05
7.15706e-05
6.85014e-05
7.1534e-05
7.1558e-05
7.18043e-05
7.16302e-05
7.33699e-05
7.97148e-05
7.97236e-05
7.16156e-05
7.16292e-05
7.97367e-05
7.33734e-05
7.9728e-05
7.16437e-05
7.17898e-05
6.84973e-05
7.15194e-05
7.15433e-05
7.15317e-05
7.15557e-05
7.17756e-05
7.17912e-05
7.157e-05
7.15391e-05
6.85006e-05
7.15574e-05
7.15302e-05
7.18006e-05
7.16288e-05
7.33658e-05
7.96964e-05
7.97049e-05
7.16142e-05
7.16278e-05
7.97179e-05
7.33712e-05
7.97097e-05
7.16423e-05
7.17862e-05
6.84946e-05
7.15427e-05
7.15154e-05
7.15551e-05
7.15246e-05
7.17766e-05
7.18188e-05
7.15487e-05
7.15731e-05
6.8529e-05
7.18051e-05
7.15608e-05
7.15856e-05
7.1656e-05
7.34031e-05
7.97622e-05
7.97539e-05
7.16705e-05
7.16572e-05
7.9741e-05
7.33995e-05
7.16427e-05
7.97496e-05
7.18196e-05
6.85329e-05
7.1575e-05
7.16005e-05
7.1563e-05
7.1588e-05
7.1833e-05
7.18152e-05
7.15725e-05
7.15446e-05
6.85264e-05
7.18055e-05
7.15849e-05
7.15536e-05
7.16546e-05
7.3401e-05
7.97434e-05
7.97356e-05
7.1669e-05
7.16557e-05
7.97228e-05
7.33957e-05
7.16412e-05
7.97308e-05
7.18202e-05
6.8532e-05
7.15999e-05
7.15676e-05
7.15874e-05
7.15589e-05
7.183e-05
9.49295e-05
7.34462e-05
7.34529e-05
7.34325e-05
7.34392e-05
9.49321e-05
7.41207e-05
6.51257e-05
6.98705e-05
7.31965e-05
7.32091e-05
6.5137e-05
7.41166e-05
7.40762e-05
6.5121e-05
6.98675e-05
7.31907e-05
6.51353e-05
7.32001e-05
7.40721e-05
7.41337e-05
7.32236e-05
6.98799e-05
6.51602e-05
7.32111e-05
6.51491e-05
7.41378e-05
7.40893e-05
7.32145e-05
6.98777e-05
6.51584e-05
6.51444e-05
7.32052e-05
7.40933e-05
9.49174e-05
7.34197e-05
7.34264e-05
7.34335e-05
7.34401e-05
9.49147e-05
7.11262e-05
7.11279e-05
7.11549e-05
7.11535e-05
9.49465e-05
7.34452e-05
7.34519e-05
9.49441e-05
7.34589e-05
7.34655e-05
7.41669e-05
6.52045e-05
6.99074e-05
7.32519e-05
6.51941e-05
7.32396e-05
7.41709e-05
7.41226e-05
6.52027e-05
6.99054e-05
7.32432e-05
7.32341e-05
6.51895e-05
7.41263e-05
7.41545e-05
7.32256e-05
6.51717e-05
6.98984e-05
6.51825e-05
7.41505e-05
7.32379e-05
7.411e-05
7.32198e-05
6.51672e-05
6.98955e-05
7.41061e-05
7.32291e-05
6.51808e-05
9.49584e-05
7.34715e-05
7.34781e-05
7.34579e-05
7.34645e-05
9.49607e-05
7.11555e-05
7.11538e-05
7.17888e-05
7.15382e-05
7.15702e-05
6.85006e-05
7.15292e-05
7.15575e-05
7.18029e-05
7.16299e-05
7.3368e-05
7.96978e-05
7.97063e-05
7.16153e-05
7.16289e-05
7.97194e-05
7.33715e-05
7.9711e-05
7.16434e-05
7.17883e-05
6.84945e-05
7.15143e-05
7.15428e-05
7.15236e-05
7.15553e-05
7.17741e-05
7.17893e-05
7.1542e-05
7.15708e-05
6.85029e-05
7.1533e-05
7.15581e-05
7.18034e-05
7.16293e-05
7.337e-05
7.97145e-05
7.97179e-05
7.16142e-05
7.16278e-05
7.97311e-05
7.33754e-05
7.97277e-05
7.16428e-05
7.17889e-05
6.8497e-05
7.15181e-05
7.15435e-05
7.15274e-05
7.15559e-05
7.17746e-05
7.18175e-05
7.15438e-05
7.15726e-05
6.85263e-05
7.18034e-05
7.15528e-05
7.15853e-05
7.16557e-05
7.34013e-05
7.97449e-05
7.97369e-05
7.16701e-05
7.16568e-05
7.97241e-05
7.33977e-05
7.16423e-05
7.97323e-05
7.18178e-05
6.85319e-05
7.15668e-05
7.15999e-05
7.1558e-05
7.15873e-05
7.18318e-05
7.1818e-05
7.15476e-05
7.15732e-05
6.85287e-05
7.18039e-05
7.15565e-05
7.15859e-05
7.16547e-05
7.34051e-05
7.97568e-05
7.97535e-05
7.16696e-05
7.16563e-05
7.97408e-05
7.34e-05
7.16413e-05
7.9744e-05
7.18184e-05
6.85343e-05
7.15705e-05
7.16005e-05
7.15618e-05
7.1588e-05
7.1832e-05
7.11253e-05
7.11271e-05
7.11281e-05
7.11299e-05
9.49442e-05
7.34516e-05
7.34453e-05
9.49417e-05
7.34653e-05
7.34589e-05
7.41192e-05
6.51999e-05
6.99036e-05
7.32436e-05
7.41246e-05
6.51873e-05
7.32314e-05
7.41673e-05
6.52096e-05
6.99157e-05
7.32535e-05
7.41725e-05
6.51961e-05
7.32431e-05
7.41086e-05
7.32174e-05
6.5165e-05
6.98946e-05
7.41028e-05
6.51781e-05
7.32294e-05
7.41563e-05
7.32294e-05
6.51738e-05
6.99058e-05
7.41512e-05
6.51877e-05
7.32389e-05
9.49559e-05
7.34779e-05
7.34714e-05
9.49584e-05
7.34643e-05
7.34579e-05
7.11546e-05
7.1153e-05
7.11575e-05
7.11558e-05
7.16823e-05
7.97481e-05
7.34246e-05
7.16679e-05
7.97559e-05
7.18453e-05
6.85562e-05
7.1602e-05
7.1573e-05
7.18332e-05
7.16147e-05
7.15811e-05
7.343e-05
7.11802e-05
7.1183e-05
3.12671e-05
3.12655e-05
3.84909e-05
3.13974e-05
3.1396e-05
2.2259e-05
2.21077e-05
6.58145e-05
5.93016e-05
5.93049e-05
5.3295e-05
5.93093e-05
5.93098e-05
6.58067e-05
6.59107e-05
5.94423e-05
5.94434e-05
5.34903e-05
6.59038e-05
5.94483e-05
5.94491e-05
6.58154e-05
5.93038e-05
5.93052e-05
5.32952e-05
5.93087e-05
5.93102e-05
6.58074e-05
6.58815e-05
5.34383e-05
5.94127e-05
5.9414e-05
5.94089e-05
5.94095e-05
6.58877e-05
6.58139e-05
5.9307e-05
5.93087e-05
5.3285e-05
5.93079e-05
5.93062e-05
6.58082e-05
6.58817e-05
5.34491e-05
5.94106e-05
5.94125e-05
5.94108e-05
5.94127e-05
6.58871e-05
6.58135e-05
5.93043e-05
5.93085e-05
5.32849e-05
5.93083e-05
5.9304e-05
6.58083e-05
6.58818e-05
5.3449e-05
5.94095e-05
5.94118e-05
5.94101e-05
5.94119e-05
6.58868e-05
6.58805e-05
5.34385e-05
5.9413e-05
5.94141e-05
6.58874e-05
5.94086e-05
5.94093e-05
3.12674e-05
3.12661e-05
3.84915e-05
3.13978e-05
3.13964e-05
2.22591e-05
2.21077e-05
3.12705e-05
3.12694e-05
3.84941e-05
3.14009e-05
3.13998e-05
2.22626e-05
2.21112e-05
3.1271e-05
3.12695e-05
3.84947e-05
3.14015e-05
3.13998e-05
2.22627e-05
2.21113e-05
3.85967e-05
3.16538e-05
3.16524e-05
3.15269e-05
3.15254e-05
2.24101e-05
2.25598e-05
3.85973e-05
3.16541e-05
3.16528e-05
3.15272e-05
3.15259e-05
2.24102e-05
2.25599e-05
3.85999e-05
3.16572e-05
3.16561e-05
3.15303e-05
3.15293e-05
2.24137e-05
2.25634e-05
3.86004e-05
3.16578e-05
3.16562e-05
3.15308e-05
3.15293e-05
2.24137e-05
2.25634e-05
5.6141e-05
6.22283e-05
5.48507e-05
6.0504e-05
6.2209e-05
5.48466e-05
5.61357e-05
5.72157e-05
6.0225e-05
6.47048e-05
6.40866e-05
6.02341e-05
6.41004e-05
5.7212e-05
5.72486e-05
6.41227e-05
6.47115e-05
6.02643e-05
6.02558e-05
6.41089e-05
5.72518e-05
5.60936e-05
6.04957e-05
6.21834e-05
5.48002e-05
6.22026e-05
5.48046e-05
5.60989e-05
5.61413e-05
5.48427e-05
6.22221e-05
6.0505e-05
5.48554e-05
6.22077e-05
5.61313e-05
5.72072e-05
6.0229e-05
6.47058e-05
6.40822e-05
6.02302e-05
6.40944e-05
5.72177e-05
5.72538e-05
6.41168e-05
6.47127e-05
6.02608e-05
6.02596e-05
6.41047e-05
5.72437e-05
5.60897e-05
6.04928e-05
5.48083e-05
6.21817e-05
5.47967e-05
6.21964e-05
5.60992e-05
6.58322e-05
5.33406e-05
5.93451e-05
5.93449e-05
5.9338e-05
5.93401e-05
6.58396e-05
6.58329e-05
5.33407e-05
5.93453e-05
5.93451e-05
6.58401e-05
5.9338e-05
5.93404e-05
6.58641e-05
5.33927e-05
5.9373e-05
5.93747e-05
6.58574e-05
5.93786e-05
5.93795e-05
5.61378e-05
6.22195e-05
5.48401e-05
6.05034e-05
6.22052e-05
5.48531e-05
5.6126e-05
5.72036e-05
6.02259e-05
6.47032e-05
6.40785e-05
6.40916e-05
6.02273e-05
5.72138e-05
5.72499e-05
6.41139e-05
6.47097e-05
6.02578e-05
6.41013e-05
6.02564e-05
5.724e-05
5.60842e-05
6.04913e-05
6.21792e-05
5.48061e-05
6.2194e-05
5.47943e-05
5.60961e-05
5.61403e-05
6.22245e-05
5.48407e-05
6.05046e-05
6.22101e-05
5.48537e-05
5.61311e-05
5.72064e-05
6.02282e-05
6.47071e-05
6.4086e-05
6.40991e-05
6.02292e-05
5.72167e-05
5.72532e-05
6.41214e-05
6.47137e-05
6.02598e-05
6.4109e-05
5.72431e-05
6.02589e-05
5.60893e-05
6.04925e-05
6.2184e-05
5.48068e-05
6.21989e-05
5.47952e-05
5.60979e-05
5.61677e-05
6.22307e-05
5.48957e-05
6.0547e-05
5.61789e-05
6.22449e-05
5.4883e-05
5.73215e-05
6.03158e-05
6.47462e-05
6.41569e-05
6.03153e-05
6.41453e-05
5.73108e-05
5.72752e-05
6.41232e-05
6.02858e-05
6.47398e-05
6.02873e-05
5.7286e-05
6.41358e-05
5.6219e-05
6.05583e-05
6.22693e-05
5.49243e-05
6.22556e-05
5.49388e-05
5.62078e-05
5.61718e-05
6.22356e-05
5.48968e-05
6.05483e-05
5.61814e-05
6.22499e-05
5.4884e-05
5.7325e-05
6.03179e-05
6.47502e-05
6.41646e-05
6.4153e-05
6.03182e-05
5.73141e-05
5.72783e-05
6.41308e-05
6.02883e-05
6.47438e-05
5.72895e-05
6.41435e-05
6.02893e-05
5.62216e-05
6.05596e-05
6.22744e-05
5.49253e-05
6.22606e-05
5.49397e-05
5.62116e-05
6.58334e-05
5.33506e-05
5.93401e-05
5.93419e-05
5.93425e-05
5.93409e-05
6.58391e-05
6.58633e-05
5.33844e-05
5.93768e-05
5.93785e-05
5.93764e-05
6.5858e-05
5.9378e-05
5.61424e-05
6.22255e-05
5.48427e-05
6.05065e-05
6.22111e-05
5.48554e-05
5.61322e-05
5.72077e-05
6.02294e-05
6.47077e-05
6.40868e-05
6.40997e-05
6.02305e-05
5.72182e-05
5.72544e-05
6.4122e-05
6.47143e-05
6.02612e-05
6.41096e-05
6.02601e-05
5.72441e-05
5.60906e-05
6.04943e-05
6.21851e-05
5.48085e-05
6.21998e-05
5.47968e-05
5.61004e-05
5.61383e-05
5.48409e-05
6.22196e-05
6.05044e-05
5.48538e-05
6.22053e-05
5.61282e-05
5.7202e-05
6.02252e-05
6.47017e-05
6.40775e-05
6.40895e-05
6.0226e-05
5.72124e-05
5.72486e-05
6.4112e-05
6.47089e-05
6.02565e-05
6.41001e-05
5.72385e-05
6.02557e-05
5.60866e-05
6.04923e-05
5.4807e-05
6.21793e-05
5.47952e-05
6.2194e-05
5.60963e-05
5.61731e-05
6.22367e-05
5.48983e-05
6.05501e-05
5.61833e-05
6.22508e-05
5.48857e-05
5.7326e-05
6.03193e-05
6.47506e-05
6.41651e-05
6.03195e-05
6.41536e-05
5.7315e-05
5.72793e-05
6.41314e-05
6.02896e-05
6.47443e-05
6.02907e-05
5.72905e-05
6.4144e-05
5.62233e-05
6.05614e-05
6.22753e-05
5.49272e-05
6.22615e-05
5.49414e-05
5.62129e-05
5.61691e-05
5.48968e-05
6.22308e-05
6.05481e-05
5.61793e-05
5.48841e-05
6.2245e-05
5.73203e-05
6.03166e-05
6.47453e-05
6.41552e-05
6.41442e-05
6.0315e-05
5.73096e-05
5.72738e-05
6.41223e-05
6.02851e-05
6.47384e-05
5.72848e-05
6.41341e-05
6.02861e-05
5.62193e-05
6.05594e-05
5.49255e-05
6.22694e-05
5.49397e-05
6.22557e-05
5.62089e-05
5.61398e-05
5.48408e-05
6.22211e-05
6.05044e-05
5.48531e-05
6.22069e-05
5.6127e-05
5.72048e-05
6.02264e-05
6.47033e-05
6.40804e-05
6.02276e-05
6.40922e-05
5.72152e-05
5.72511e-05
6.41146e-05
6.47103e-05
6.02581e-05
6.02569e-05
6.41029e-05
5.72411e-05
5.60855e-05
6.04925e-05
5.48062e-05
6.21811e-05
5.47961e-05
6.21956e-05
5.60982e-05
5.61762e-05
6.22348e-05
5.48898e-05
6.05515e-05
5.61818e-05
6.22535e-05
5.48937e-05
5.73201e-05
6.03213e-05
6.47478e-05
6.41659e-05
5.73231e-05
6.03161e-05
6.41526e-05
5.72879e-05
6.41313e-05
6.02852e-05
6.47415e-05
5.7285e-05
6.0293e-05
6.41446e-05
5.62215e-05
6.05593e-05
6.22782e-05
5.49365e-05
5.62157e-05
6.22596e-05
5.4933e-05
5.6169e-05
5.48966e-05
6.22324e-05
6.05481e-05
5.61807e-05
5.48845e-05
6.22465e-05
5.73226e-05
6.03161e-05
6.47466e-05
6.41579e-05
6.41466e-05
6.03158e-05
5.73119e-05
5.72762e-05
6.41251e-05
6.02863e-05
6.47401e-05
5.72872e-05
6.41366e-05
6.02876e-05
5.62208e-05
6.05593e-05
5.49262e-05
6.22709e-05
5.49394e-05
6.22572e-05
5.62092e-05
6.58334e-05
5.33504e-05
5.934e-05
5.93428e-05
5.93425e-05
5.93402e-05
6.58386e-05
6.58629e-05
5.33843e-05
5.93742e-05
5.93775e-05
5.93739e-05
6.58581e-05
5.93782e-05
5.61422e-05
5.4843e-05
6.22243e-05
6.05061e-05
5.48558e-05
6.221e-05
5.61321e-05
5.72074e-05
6.02305e-05
6.47089e-05
6.40854e-05
6.02317e-05
6.40985e-05
5.72179e-05
5.72541e-05
6.41209e-05
6.47155e-05
6.02622e-05
6.02611e-05
6.41084e-05
5.72439e-05
5.60906e-05
6.0494e-05
5.4809e-05
6.21839e-05
5.47974e-05
6.21987e-05
5.61002e-05
5.61723e-05
5.48983e-05
6.22333e-05
6.05487e-05
5.61823e-05
5.48858e-05
6.22474e-05
5.73254e-05
6.03188e-05
6.4749e-05
6.41601e-05
5.73145e-05
6.03189e-05
6.41486e-05
5.72788e-05
6.41269e-05
6.0289e-05
6.47426e-05
5.729e-05
6.02902e-05
6.41389e-05
5.62224e-05
6.056e-05
5.49272e-05
6.22719e-05
5.62121e-05
5.49414e-05
6.22582e-05
5.61731e-05
5.48988e-05
6.22355e-05
6.05498e-05
5.61832e-05
5.48862e-05
6.22497e-05
5.73258e-05
6.03218e-05
6.47521e-05
6.41642e-05
6.41521e-05
6.03206e-05
5.73149e-05
5.72792e-05
6.41303e-05
6.02906e-05
6.47456e-05
5.72903e-05
6.41428e-05
6.02918e-05
5.62232e-05
6.05611e-05
5.49276e-05
6.22741e-05
5.49417e-05
6.22604e-05
5.62129e-05
6.5864e-05
5.33926e-05
5.93728e-05
5.93745e-05
6.58565e-05
5.93786e-05
5.93794e-05
5.7345e-05
6.03441e-05
6.41677e-05
6.47747e-05
6.03429e-05
5.73577e-05
6.41781e-05
5.62472e-05
6.06002e-05
5.49832e-05
6.22817e-05
5.49671e-05
5.62593e-05
6.22942e-05
6.0347e-05
6.47802e-05
6.03461e-05
2.1035e-05
3.66873e-05
3.66896e-05
4.19387e-05
2.17934e-05
3.75928e-05
3.75956e-05
4.26623e-05
2.257e-05
3.84731e-05
3.84754e-05
4.33617e-05
2.33611e-05
3.93263e-05
3.93283e-05
4.40334e-05
2.41628e-05
4.01513e-05
4.01533e-05
4.46826e-05
2.49712e-05
4.09479e-05
4.095e-05
4.53045e-05
2.57827e-05
4.17157e-05
4.17178e-05
4.5911e-05
2.65936e-05
4.24547e-05
4.24568e-05
4.64988e-05
2.74005e-05
4.31648e-05
4.31669e-05
4.70529e-05
2.82002e-05
4.38463e-05
4.38483e-05
4.75852e-05
2.89901e-05
4.44993e-05
4.45011e-05
4.8096e-05
2.97673e-05
4.51242e-05
4.51258e-05
4.85837e-05
3.05296e-05
4.57212e-05
4.57225e-05
4.90502e-05
3.12746e-05
4.62907e-05
4.62916e-05
4.94961e-05
3.20006e-05
4.68329e-05
4.68338e-05
4.99189e-05
3.27059e-05
4.73483e-05
4.7349e-05
5.03256e-05
3.3389e-05
4.78372e-05
4.78378e-05
5.07067e-05
3.40486e-05
4.82998e-05
4.83002e-05
5.10705e-05
3.46838e-05
4.87367e-05
4.87371e-05
5.14161e-05
3.52935e-05
4.91483e-05
4.91485e-05
5.17394e-05
3.58769e-05
4.95349e-05
4.95351e-05
5.20447e-05
3.64336e-05
4.9897e-05
4.98973e-05
5.23341e-05
3.69629e-05
5.0235e-05
5.02353e-05
5.2605e-05
3.74645e-05