/*--------------------------------*- C++ -*----------------------------------*\
| =========                 |                                                 |
| \\      /  F ield         | OpenFOAM: The Open Source CFD Toolbox           |
|  \\    /   O peration     | Version:  v1906                                 |
|   \\  /    A nd           | Web:      www.OpenFOAM.com                      |
|    \\/     M anipulation  |                                                 |
\*---------------------------------------------------------------------------*/
FoamFile
{
    version     2.0;
    format      ascii;
    class       volScalarField;
    location    "800";
    object      nut;
}
// * * * * * * * * * * * * * * * * * * * * * * * * * * * * * * * * * * * * * //

dimensions      [0 2 -1 0 0 0 0];


internalField   nonuniform List<scalar> 
171728
(
0.000136617
0.000138621
0.000138626
0.000136694
0.000138639
0.000138619
0.000138637
0.000138643
0.000136848
0.000138637
0.000138652
0.000136901
0.00012237
0.00012237
0.000122371
0.000122387
2.36122e-05
2.36117e-05
7.37296e-05
7.37398e-05
9.18245e-05
5.00169e-05
9.20537e-05
9.18303e-05
5.00161e-05
5.00074e-05
9.20568e-05
0.000120671
9.38105e-05
0.000133975
0.000133113
0.000121324
0.000120678
0.000137837
9.38216e-05
0.00013398
9.35347e-05
0.000133116
0.00012133
2.3612e-05
2.36076e-05
0.000136029
7.37364e-05
7.37242e-05
7.36275e-05
7.36272e-05
2.36126e-05
2.36082e-05
5.00132e-05
9.20657e-05
9.38183e-05
0.000133987
0.00012132
5.00115e-05
9.20492e-05
0.000133988
9.38107e-05
0.000121324
0.000120687
0.000137849
9.38101e-05
0.000133988
9.3536e-05
0.000133126
0.000121332
9.1833e-05
5.00154e-05
5.00058e-05
9.20603e-05
0.000120682
0.000137855
0.000133997
9.382e-05
0.000133134
9.35332e-05
0.000121333
9.1828e-05
5.00117e-05
5.0003e-05
9.20545e-05
2.361e-05
7.37171e-05
7.37343e-05
2.36119e-05
0.000120678
0.000134005
9.38367e-05
0.000133143
0.000121327
0.000120683
0.000137864
0.000134014
9.38324e-05
0.00013315
9.35285e-05
0.000121333
9.18281e-05
5.00151e-05
9.20724e-05
9.18313e-05
5.0016e-05
5.00006e-05
9.20742e-05
0.000135883
7.37323e-05
7.3735e-05
7.36335e-05
7.36296e-05
2.36116e-05
2.36073e-05
2.36113e-05
2.36069e-05
2.36104e-05
2.36094e-05
9.72608e-05
0.000112667
7.37028e-05
4.79344e-05
4.79367e-05
0.000112501
9.73099e-05
9.72902e-05
0.000112674
7.36929e-05
4.79362e-05
4.79246e-05
0.000112488
9.73541e-05
7.88227e-05
2.14921e-05
2.14903e-05
2.14904e-05
2.14879e-05
7.88389e-05
3.62678e-05
4.05366e-05
8.80187e-05
9.19312e-05
3.62644e-05
4.05357e-05
8.81122e-05
2.0102e-05
5.00101e-05
7.60349e-05
7.59918e-05
2.01041e-05
3.62673e-05
9.19494e-05
4.05393e-05
8.82117e-05
4.05405e-05
8.8118e-05
3.6272e-05
3.62685e-05
4.05368e-05
8.8041e-05
9.19336e-05
3.62675e-05
4.05358e-05
8.81219e-05
2.01031e-05
5.00149e-05
7.60587e-05
7.602e-05
2.01051e-05
2.01037e-05
7.59731e-05
5.00093e-05
2.01017e-05
7.60126e-05
3.6271e-05
9.19545e-05
4.05395e-05
8.82218e-05
4.05407e-05
8.81383e-05
3.62715e-05
2.36099e-05
2.36097e-05
7.87983e-05
2.14864e-05
2.1489e-05
7.87749e-05
2.14885e-05
2.1491e-05
9.72735e-05
0.00011265
7.36962e-05
4.79346e-05
0.000112499
4.79247e-05
9.73305e-05
9.72606e-05
0.000112655
7.36953e-05
4.7938e-05
4.79367e-05
0.000112514
9.73123e-05
9.72049e-05
4.79172e-05
0.000112252
7.3668e-05
0.000112408
9.71474e-05
4.79262e-05
9.71854e-05
4.79285e-05
0.000112267
7.36559e-05
9.71361e-05
4.79307e-05
0.000112414
7.88193e-05
2.14902e-05
2.14927e-05
2.14881e-05
2.14906e-05
7.88374e-05
2.36105e-05
2.36103e-05
2.01033e-05
5.00113e-05
7.60597e-05
7.60155e-05
2.01053e-05
3.62694e-05
9.19565e-05
8.82227e-05
4.05436e-05
8.8139e-05
4.05361e-05
3.62727e-05
2.01016e-05
5.0004e-05
7.60312e-05
7.59884e-05
2.01036e-05
3.62678e-05
9.19615e-05
4.05389e-05
8.82025e-05
4.05403e-05
8.81235e-05
3.62693e-05
3.62689e-05
8.80441e-05
4.05362e-05
9.19346e-05
3.6268e-05
8.81228e-05
4.05354e-05
2.01037e-05
5.00132e-05
7.60596e-05
7.60189e-05
2.01057e-05
2.01043e-05
7.59722e-05
5.00085e-05
2.01023e-05
7.60134e-05
3.62719e-05
9.19537e-05
8.82209e-05
4.0539e-05
8.81431e-05
4.05401e-05
3.62726e-05
3.62677e-05
4.05321e-05
8.80337e-05
9.1936e-05
3.62649e-05
4.05392e-05
8.8114e-05
2.01026e-05
5.00106e-05
7.60392e-05
7.60014e-05
2.01046e-05
2.01032e-05
7.59541e-05
5.0005e-05
2.01012e-05
7.59937e-05
3.62686e-05
9.19543e-05
4.05435e-05
8.82105e-05
4.05361e-05
8.81328e-05
3.62704e-05
2.36078e-05
9.72664e-05
0.000112647
7.36843e-05
4.79318e-05
0.000112484
4.79217e-05
9.7329e-05
9.72573e-05
0.000112678
7.36974e-05
4.79435e-05
4.79335e-05
0.000112501
9.73158e-05
7.88188e-05
2.14891e-05
2.14925e-05
2.1487e-05
2.14904e-05
7.88438e-05
2.36097e-05
3.6269e-05
8.80253e-05
4.05324e-05
9.1945e-05
3.62643e-05
8.81199e-05
4.05394e-05
2.01028e-05
5.00067e-05
7.60421e-05
7.59975e-05
2.01048e-05
2.01034e-05
7.59957e-05
3.62673e-05
9.19531e-05
8.82205e-05
4.05438e-05
8.81267e-05
4.05364e-05
3.6273e-05
3.62702e-05
8.80321e-05
4.05324e-05
9.19467e-05
3.62662e-05
8.81259e-05
4.05395e-05
2.01034e-05
5.00075e-05
7.60557e-05
7.60116e-05
2.01055e-05
2.01041e-05
7.59647e-05
5.00083e-05
2.0102e-05
7.60095e-05
3.62696e-05
9.19545e-05
8.82243e-05
4.05439e-05
8.81313e-05
4.05364e-05
3.62731e-05
7.88007e-05
2.1489e-05
2.14861e-05
7.87772e-05
2.14911e-05
2.14882e-05
9.7258e-05
0.000112663
7.37012e-05
4.79431e-05
0.000112505
4.79332e-05
9.73195e-05
9.72754e-05
0.00011266
7.36972e-05
4.79342e-05
0.000112496
4.79243e-05
9.73356e-05
9.71905e-05
4.79256e-05
0.000112257
7.3666e-05
9.71318e-05
0.000112428
4.79346e-05
9.72081e-05
4.79168e-05
0.000112247
7.36694e-05
9.71491e-05
0.000112425
4.79257e-05
7.88216e-05
2.14928e-05
2.14899e-05
2.14907e-05
2.14878e-05
7.88397e-05
2.36096e-05
2.36093e-05
2.36092e-05
2.3609e-05
0.000119504
0.000136667
0.000129798
0.000129853
0.000129702
0.000129708
0.0001196
0.000119501
0.000136686
0.000129857
0.000129847
0.000129684
0.000129689
0.000119601
0.000119476
0.000136542
0.000129833
0.000129918
0.000129643
0.00012962
0.000119625
0.000119485
0.000136532
0.000129906
0.000129896
0.000129656
0.000129666
0.000119631
0.000120251
0.000120256
0.000119983
0.000132087
0.000131847
0.00012171
0.00012025
0.000120258
0.000119982
0.00011999
0.000132087
0.000131847
0.000120255
0.000120266
0.000119999
0.000132085
0.000131844
0.000121727
0.000120262
0.000120271
0.000119994
0.000120003
0.000132088
0.000131847
0.000132333
0.000117022
0.000134186
0.00012098
0.000132192
0.000117295
0.000134286
0.000128473
0.000122104
9.3687e-05
0.000107738
0.000121992
0.00010753
0.000128689
0.000132715
0.000121013
0.000117594
0.000135042
0.00011733
0.000134662
0.000132888
0.000132494
0.000117035
0.000134165
0.000120985
0.000132089
0.000117312
0.000134351
0.000128363
0.000122173
9.36837e-05
0.00010775
0.000107538
0.00012198
0.000128819
0.000128296
0.000107307
0.000121625
9.36671e-05
0.00012794
0.000107517
0.00012179
0.000132594
0.000121017
0.000117617
0.000135085
0.000117338
0.000134643
0.000133061
0.00011932
0.000136047
0.000129244
0.000129246
0.000129372
0.000119237
0.000129373
0.000128489
0.000122113
9.36843e-05
0.000107735
0.000121997
0.000107546
0.000128701
0.000132762
0.00012103
0.000117603
0.000134758
0.000117345
0.000134684
0.000132914
0.000128418
0.000122139
9.36703e-05
0.000107733
0.000107522
0.000121951
0.000128809
0.000132775
0.000121017
0.000134874
0.000117597
0.000134642
0.00011733
0.000132983
0.000132213
0.000117053
0.000134234
0.000120988
0.000132243
0.000117299
0.000134261
0.000128538
0.00012212
9.36936e-05
0.00010775
0.000122026
0.000107544
0.00012858
0.000128139
0.000107315
0.000121674
9.36582e-05
0.000128098
0.000121754
0.00010751
0.000132829
0.000121026
0.000117599
0.000134949
0.000117355
0.000134757
0.000132765
0.000132423
0.00013419
0.000117043
0.000120987
0.000132149
0.000134287
0.000117301
0.000128439
0.000122155
9.36889e-05
0.00010773
0.000107538
0.000121995
0.000128701
0.00012823
0.000107303
0.000121634
9.36658e-05
0.000128005
0.000107512
0.000121779
0.00013269
0.00012102
0.000134943
0.000117603
0.000134712
0.000117347
0.000132903
0.000132491
0.000134032
0.000117034
0.00012099
0.000132013
0.000134451
0.000117302
0.000128383
0.000122167
9.36772e-05
0.000107735
0.00012198
0.00010754
0.000128811
0.000128311
0.000107513
0.000132601
0.00012103
0.000134923
0.000117603
0.000134633
0.000117341
0.000133006
0.000132387
0.000134061
0.00011704
0.000120991
0.000132224
0.000134462
0.000117314
0.000128405
0.000122197
9.36836e-05
0.00010775
0.000107541
0.000121973
0.000128825
0.000128287
0.00010731
0.000121608
9.36742e-05
0.000128041
0.000107518
0.000121803
0.000132732
0.000121029
0.000135082
0.000117618
0.000134608
0.000117338
0.000132938
0.000119348
0.000136188
0.00012922
0.000129217
0.000119216
0.000129432
0.00012944
0.000203424
0.00019875
0.000198742
0.000180601
0.000181558
0.000180604
0.000181544
0.000198719
0.000198719
0.000199777
0.000199776
0.000180686
0.000181476
0.000198735
0.000198708
0.000199792
0.000199765
0.000198725
0.000199807
0.000199782
0.000180674
0.000181465
0.000198739
0.0001998
0.000199797
0.00018154
0.000200127
0.000200142
9.97143e-05
5.07129e-05
5.0724e-05
9.96517e-05
2.38792e-05
2.38836e-05
9.97232e-05
5.07125e-05
5.07188e-05
9.96626e-05
0.00020343
0.000203429
0.000203438
0.000205316
0.000205321
0.00020532
0.000205328
0.000143714
0.000103352
0.000207734
0.000199106
0.000103438
0.000208201
0.0001435
2.3877e-05
2.38814e-05
0.0001437
0.000207731
0.000103355
0.000199099
0.000208199
0.000103439
0.000143506
7.78115e-05
7.78116e-05
0.000181062
7.78393e-05
7.78369e-05
7.78742e-05
7.78737e-05
2.38798e-05
2.38842e-05
2.38785e-05
2.38829e-05
7.78141e-05
7.78101e-05
0.000181066
7.78414e-05
7.78363e-05
2.38888e-05
2.38845e-05
2.38875e-05
2.38832e-05
0.000181076
7.7872e-05
7.78677e-05
7.78465e-05
7.7843e-05
9.97173e-05
5.07146e-05
5.07243e-05
9.96549e-05
0.000143698
0.000103352
0.00020772
0.000199076
0.000103437
0.000208187
0.000143504
0.0001437
0.00010335
0.000207722
0.000199075
0.000103435
0.000208189
0.000143506
9.9714e-05
5.07342e-05
5.07234e-05
9.97738e-05
9.97172e-05
5.0734e-05
5.07238e-05
9.9777e-05
0.000143721
0.00019943
0.000103515
0.000209106
0.000103435
0.000208652
0.000143904
0.000143723
0.000199429
0.000103514
0.000209108
0.000103432
0.000208654
0.000143907
7.7811e-05
7.78058e-05
0.000181001
7.78371e-05
7.78355e-05
2.38797e-05
2.38842e-05
2.38882e-05
2.38838e-05
0.000181159
7.78679e-05
7.78662e-05
7.78435e-05
7.78382e-05
2.38888e-05
2.38843e-05
0.000143702
0.000103345
0.000207724
0.000199091
0.00010343
0.000208187
0.000143509
9.97191e-05
5.07082e-05
5.07147e-05
9.96584e-05
0.000143698
0.000207718
0.000103332
0.000199064
0.000208185
0.000103417
0.000143504
9.97246e-05
5.07297e-05
5.07225e-05
9.97828e-05
0.000143726
0.000199446
0.000103509
0.000209106
0.000103427
0.000208656
0.000143909
9.97206e-05
5.0725e-05
5.07186e-05
9.97787e-05
0.000143721
0.000199418
0.000209104
0.000103495
0.00020865
0.000103414
0.000143905
9.97217e-05
5.07125e-05
5.07238e-05
9.9653e-05
0.000143702
0.00020773
0.000103351
0.000199082
0.000208197
0.000103435
0.000143506
9.97159e-05
5.07115e-05
5.07178e-05
9.96531e-05
0.000143717
0.000199461
0.000103516
0.000209119
0.000103434
0.000208665
0.000143922
9.97152e-05
5.07334e-05
5.0723e-05
9.97815e-05
0.000143722
0.000199435
0.000209116
0.000103513
0.000208661
0.000103433
0.000143908
9.97153e-05
5.07281e-05
5.07218e-05
9.97756e-05
7.77944e-05
7.78144e-05
0.00018099
7.78241e-05
7.78401e-05
2.3879e-05
2.38833e-05
2.3886e-05
2.38817e-05
0.000181148
7.78548e-05
7.78709e-05
7.78268e-05
7.7847e-05
2.38879e-05
2.38837e-05
0.000143703
0.000207732
0.00010335
0.000199096
0.000208199
0.000103435
0.000143509
9.97148e-05
5.07089e-05
5.07202e-05
9.96516e-05
9.97207e-05
5.07117e-05
5.07182e-05
9.9659e-05
0.000143723
0.000199453
0.000209118
0.000103518
0.000208663
0.000103437
0.000143907
0.000143726
0.00019945
0.000209118
0.000103513
0.000208663
0.000103432
0.00014391
9.9714e-05
5.07298e-05
5.07196e-05
9.97744e-05
9.97214e-05
5.07291e-05
5.0722e-05
9.97803e-05
2.38787e-05
2.3883e-05
2.38783e-05
2.38826e-05
0.000181072
7.787e-05
7.78683e-05
7.78441e-05
7.78441e-05
2.38876e-05
2.38833e-05
2.38872e-05
2.38829e-05
0.000209568
0.000103511
0.000143933
5.07321e-05
9.97752e-05
0.000103511
5.07296e-05
2.38879e-05
2.38875e-05
3.66972e-05
4.10372e-05
9.43504e-05
9.96836e-05
4.10373e-05
9.43246e-05
3.66961e-05
2.03077e-05
5.07188e-05
7.89833e-05
7.89943e-05
2.03056e-05
2.03075e-05
7.90066e-05
5.07183e-05
7.89956e-05
2.03097e-05
3.66925e-05
9.96836e-05
4.10328e-05
9.42997e-05
4.1033e-05
9.43263e-05
3.66936e-05
2.38812e-05
2.38815e-05
3.66989e-05
9.43645e-05
4.1037e-05
9.96942e-05
9.43403e-05
4.10369e-05
3.6698e-05
2.0309e-05
5.07139e-05
7.90017e-05
7.90199e-05
2.03069e-05
2.03088e-05
7.90321e-05
5.07176e-05
7.90137e-05
2.03109e-05
3.66943e-05
9.96929e-05
9.43157e-05
4.10325e-05
9.43409e-05
4.10329e-05
3.66953e-05
2.38791e-05
2.38793e-05
8.14456e-05
2.17029e-05
2.16999e-05
2.17009e-05
2.16979e-05
8.14523e-05
0.000105059
0.000128363
7.78232e-05
4.86258e-05
0.000128425
4.86333e-05
0.000105034
0.000105065
0.000128346
7.78207e-05
4.86203e-05
0.000128411
4.86203e-05
0.000105045
0.000105067
4.8638e-05
7.78281e-05
0.000128498
0.000128437
4.86308e-05
0.000105091
0.000105078
4.86251e-05
7.78281e-05
0.000128484
0.00012842
4.86249e-05
0.000105098
8.1442e-05
2.1699e-05
2.1696e-05
2.1701e-05
2.1698e-05
8.14353e-05
0.000105185
0.000128651
4.86445e-05
7.78856e-05
0.000105161
0.000128708
4.8653e-05
0.000105192
0.000128633
4.8635e-05
7.78836e-05
0.000105169
0.000128693
4.86431e-05
8.14822e-05
2.17064e-05
2.17035e-05
8.14749e-05
2.17085e-05
2.17055e-05
2.38819e-05
2.38821e-05
2.38806e-05
2.38809e-05
8.14447e-05
2.17029e-05
2.16996e-05
2.17008e-05
2.16976e-05
8.14519e-05
0.000105063
0.000128364
7.78251e-05
4.86264e-05
4.86337e-05
0.000128429
0.000105038
0.000105065
0.000128346
7.78206e-05
4.8615e-05
4.86224e-05
0.00012841
0.000105041
0.000105072
4.86385e-05
7.78305e-05
0.000128502
4.86314e-05
0.000105095
0.000128438
0.000105074
4.86271e-05
7.78269e-05
0.000128483
4.862e-05
0.000105097
0.00012842
8.14415e-05
2.1699e-05
2.16957e-05
2.1701e-05
2.16977e-05
8.14343e-05
2.38868e-05
2.38865e-05
2.38855e-05
2.38852e-05
8.14621e-05
2.17027e-05
2.16995e-05
8.14549e-05
2.17047e-05
2.17015e-05
0.000105135
0.000128643
7.7862e-05
4.8648e-05
4.86407e-05
0.000128582
0.000105157
0.000105137
0.000128624
7.78584e-05
4.86357e-05
4.86297e-05
0.000128563
0.000105159
0.000105126
4.86362e-05
0.00012851
7.78569e-05
0.000105104
4.86429e-05
0.000128573
0.000105128
4.86249e-05
0.000128492
7.78521e-05
0.000105106
4.86313e-05
0.000128554
8.14647e-05
2.17066e-05
2.17033e-05
2.17046e-05
2.17013e-05
8.1472e-05
3.6699e-05
4.10373e-05
9.43639e-05
9.96866e-05
4.10374e-05
9.43393e-05
3.6698e-05
2.03087e-05
5.07182e-05
7.9003e-05
7.90218e-05
2.03066e-05
2.03085e-05
7.90339e-05
5.07183e-05
7.90152e-05
2.03106e-05
3.66943e-05
9.96866e-05
4.10329e-05
9.43144e-05
4.10332e-05
9.43397e-05
3.66954e-05
3.66998e-05
4.10413e-05
9.43487e-05
9.97448e-05
3.67008e-05
4.10416e-05
9.43747e-05
2.03114e-05
5.07284e-05
7.90299e-05
2.03135e-05
7.90189e-05
2.03116e-05
7.90075e-05
5.07289e-05
2.03095e-05
7.90183e-05
3.67047e-05
9.97441e-05
4.10456e-05
9.43978e-05
3.67036e-05
4.10456e-05
9.43726e-05
3.67017e-05
4.10414e-05
9.43636e-05
9.97479e-05
3.67025e-05
4.10417e-05
9.43884e-05
2.03123e-05
5.0729e-05
7.90572e-05
7.90387e-05
2.03144e-05
2.03125e-05
7.90272e-05
5.07291e-05
2.03104e-05
7.90456e-05
3.67065e-05
9.97474e-05
4.10457e-05
9.44118e-05
4.10457e-05
9.43875e-05
3.67055e-05
8.14455e-05
2.17003e-05
2.17029e-05
2.16983e-05
2.17009e-05
8.14516e-05
0.000105065
0.000128347
7.78207e-05
4.86208e-05
4.86207e-05
0.000128407
0.000105046
0.000105061
0.000128372
7.78192e-05
4.86294e-05
0.000128427
4.86295e-05
0.000105042
0.000105078
4.86255e-05
7.78275e-05
0.00012848
4.86255e-05
0.000128421
0.000105098
0.000105074
4.86341e-05
7.78224e-05
0.000128501
0.000128446
4.86342e-05
0.000105094
8.14411e-05
2.16964e-05
2.1699e-05
2.16984e-05
2.1701e-05
8.1435e-05
2.38819e-05
2.3882e-05
2.38862e-05
2.38859e-05
8.14618e-05
2.17002e-05
2.17028e-05
8.14555e-05
2.17022e-05
2.17048e-05
0.000105142
0.000128621
7.7859e-05
4.8635e-05
0.000128564
4.86353e-05
0.000105161
0.000105137
0.000128642
7.78536e-05
4.86435e-05
4.86439e-05
0.000128589
0.000105157
0.000105129
4.86304e-05
0.000128493
7.78526e-05
0.000128551
0.00010511
4.86307e-05
0.000105126
4.86389e-05
0.000128518
7.78508e-05
0.000105106
4.86392e-05
0.000128571
8.14655e-05
2.1704e-05
2.17066e-05
2.1702e-05
2.17046e-05
8.14717e-05
2.38867e-05
2.38865e-05
3.66964e-05
4.10368e-05
9.43477e-05
9.969e-05
4.10367e-05
9.4322e-05
3.66953e-05
2.03073e-05
5.07096e-05
7.89784e-05
7.89892e-05
2.03052e-05
2.03071e-05
7.90012e-05
5.07133e-05
7.89906e-05
2.03092e-05
3.66917e-05
9.96885e-05
4.10323e-05
9.4297e-05
4.10327e-05
9.43236e-05
3.66928e-05
3.67017e-05
9.43645e-05
4.1041e-05
9.9754e-05
3.67025e-05
9.43892e-05
4.10414e-05
2.03126e-05
5.07277e-05
7.90554e-05
2.03147e-05
7.90371e-05
2.03128e-05
7.90257e-05
5.07244e-05
2.03107e-05
7.90439e-05
3.67065e-05
9.97548e-05
9.44122e-05
4.10455e-05
3.67055e-05
9.43883e-05
4.10454e-05
3.6699e-05
4.10408e-05
9.43462e-05
9.97497e-05
3.67e-05
4.10411e-05
9.43722e-05
2.03109e-05
5.07238e-05
7.90247e-05
7.90141e-05
2.0313e-05
2.03111e-05
7.90025e-05
5.07202e-05
2.0309e-05
7.90133e-05
3.67038e-05
9.97507e-05
4.10453e-05
9.43953e-05
4.10452e-05
9.43701e-05
3.6703e-05
3.66957e-05
9.43708e-05
4.10399e-05
9.96841e-05
9.43365e-05
4.10335e-05
3.67026e-05
2.03095e-05
5.07186e-05
7.90042e-05
7.90237e-05
2.03074e-05
2.03093e-05
7.90357e-05
5.07178e-05
7.90163e-05
2.03114e-05
3.66988e-05
9.96908e-05
9.43125e-05
4.10295e-05
9.43466e-05
4.10355e-05
3.66917e-05
3.66973e-05
4.10398e-05
9.43555e-05
9.96847e-05
4.10335e-05
9.4331e-05
3.66966e-05
2.03082e-05
5.07127e-05
7.89839e-05
7.90027e-05
2.03061e-05
2.03081e-05
7.90146e-05
5.07166e-05
7.89962e-05
2.03101e-05
3.66928e-05
9.96853e-05
4.10295e-05
9.43063e-05
4.10354e-05
9.43315e-05
3.66938e-05
3.67063e-05
9.43613e-05
4.10381e-05
9.9752e-05
3.66995e-05
9.4395e-05
4.10441e-05
2.03131e-05
5.07281e-05
7.90587e-05
7.904e-05
2.03152e-05
2.03133e-05
7.90283e-05
5.07285e-05
2.03112e-05
7.90473e-05
3.67032e-05
9.97455e-05
9.44187e-05
4.10486e-05
9.43852e-05
4.10424e-05
3.67097e-05
3.67004e-05
4.1038e-05
9.43551e-05
9.97465e-05
3.67006e-05
4.1044e-05
9.43799e-05
2.03119e-05
5.0727e-05
7.90377e-05
7.90199e-05
2.03139e-05
2.0312e-05
7.90083e-05
5.07233e-05
2.031e-05
7.90263e-05
3.67041e-05
9.97453e-05
4.10484e-05
9.44032e-05
4.10423e-05
9.43789e-05
3.67051e-05
8.14454e-05
2.16993e-05
2.17027e-05
2.16972e-05
2.17007e-05
8.14524e-05
0.000105057
0.000128339
7.78078e-05
4.86143e-05
4.86218e-05
0.000128393
0.000105038
0.000105058
0.000128367
7.78236e-05
4.86304e-05
0.00012843
4.86302e-05
0.000105039
0.00010507
4.86266e-05
7.7811e-05
0.000128466
4.86193e-05
0.000128414
0.00010509
0.000105072
4.8635e-05
7.78309e-05
0.000128503
0.000128441
4.8635e-05
0.000105091
8.14421e-05
2.16954e-05
2.16988e-05
2.16974e-05
2.17008e-05
8.14349e-05
2.3881e-05
2.38813e-05
2.3884e-05
2.38837e-05
8.14625e-05
2.16991e-05
2.17026e-05
8.14556e-05
2.17011e-05
2.17046e-05
0.000105133
0.000128607
7.78421e-05
4.86358e-05
0.000128557
4.86284e-05
0.000105153
0.000105135
0.000128644
7.78624e-05
4.86445e-05
4.86448e-05
0.000128584
0.000105154
0.000105122
4.8624e-05
0.000128486
7.78394e-05
0.000128537
0.000105102
4.8631e-05
0.000105123
4.864e-05
0.000128513
7.78557e-05
0.000105104
4.86402e-05
0.000128574
8.14656e-05
2.1703e-05
2.17065e-05
2.1701e-05
2.17045e-05
8.14723e-05
2.38859e-05
2.38857e-05
3.66935e-05
9.4352e-05
4.104e-05
9.96833e-05
9.43257e-05
4.10334e-05
3.67006e-05
2.03085e-05
5.07148e-05
7.89843e-05
7.9003e-05
2.03064e-05
2.03083e-05
7.90151e-05
5.07142e-05
7.89965e-05
2.03104e-05
3.66968e-05
9.96843e-05
9.43007e-05
4.10295e-05
9.43281e-05
4.10356e-05
3.66897e-05
3.66952e-05
9.43583e-05
4.10403e-05
9.96906e-05
9.43316e-05
4.10339e-05
3.67024e-05
2.03089e-05
5.07131e-05
7.89984e-05
7.90093e-05
2.03068e-05
2.03087e-05
7.90216e-05
5.07168e-05
7.90107e-05
2.03108e-05
3.66985e-05
9.96899e-05
9.43066e-05
4.10299e-05
9.43341e-05
4.10359e-05
3.66914e-05
3.67044e-05
9.43501e-05
4.1038e-05
9.97457e-05
3.66974e-05
9.43767e-05
4.10443e-05
2.03121e-05
5.07248e-05
7.90382e-05
7.90202e-05
2.03142e-05
2.03123e-05
7.90085e-05
5.07249e-05
2.03102e-05
7.90268e-05
3.67009e-05
9.9744e-05
9.43996e-05
4.10485e-05
9.43738e-05
4.10421e-05
3.6708e-05
3.67061e-05
9.43559e-05
4.10384e-05
9.97513e-05
3.66991e-05
9.43827e-05
4.10446e-05
2.03125e-05
5.07271e-05
7.9045e-05
7.90341e-05
2.03146e-05
2.03127e-05
7.90226e-05
5.07238e-05
2.03106e-05
7.90333e-05
3.67027e-05
9.97513e-05
9.44058e-05
4.10488e-05
9.43797e-05
4.10425e-05
3.67094e-05
2.38807e-05
2.3881e-05
2.38802e-05
2.38806e-05
8.14626e-05
2.17027e-05
2.16998e-05
8.14556e-05
2.17048e-05
2.17018e-05
0.00010513
0.000128639
7.78594e-05
4.86472e-05
0.000105154
0.000128581
4.86401e-05
0.000105139
0.000128625
7.78595e-05
4.86365e-05
0.000105162
0.000128564
4.8633e-05
0.000105124
4.86356e-05
0.00012851
7.78547e-05
0.000105099
0.000128569
4.86423e-05
0.000105131
4.86298e-05
0.000128493
7.78527e-05
0.000105109
0.000128555
4.86306e-05
8.14654e-05
2.17066e-05
2.17036e-05
8.14725e-05
2.17046e-05
2.17016e-05
2.38856e-05
2.38853e-05
2.38852e-05
2.38849e-05
2.03158e-05
7.9031e-05
5.07327e-05
2.03138e-05
7.90488e-05
3.67104e-05
9.98037e-05
4.10461e-05
9.44026e-05
3.67057e-05
4.1053e-05
9.44253e-05
5.07359e-05
2.38899e-05
2.38895e-05
0.000199186
0.000199184
0.000204061
0.000199996
0.000199994
0.000189283
0.00018826
0.000137903
0.000160891
0.000160888
0.000180823
0.000160989
0.000160972
0.000137856
0.000138243
0.000161531
0.000161516
0.000181781
0.000138198
0.000161622
0.000161607
0.000137907
0.000160902
0.000160891
0.000180828
0.000160986
0.000160975
0.000137858
0.000138118
0.000181321
0.000161457
0.000161444
0.000161377
0.000161361
0.00013816
0.000137905
0.00016091
0.000160929
0.000180762
0.000160981
0.000160962
0.000137866
0.000138124
0.000181406
0.000161436
0.000161455
0.000161378
0.000161398
0.000138163
0.000137895
0.000160891
0.000160921
0.000180751
0.000160976
0.000160946
0.000137859
0.000138117
0.000181395
0.000161425
0.000161444
0.00016137
0.000161387
0.000138153
0.000138115
0.000181319
0.000161457
0.000161445
0.00013816
0.000161376
0.000161359
0.000199187
0.000199192
0.000204066
0.000199997
0.000200002
0.000189286
0.000188263
0.000199191
0.000199197
0.000204065
0.000200001
0.000200007
0.000189292
0.000188269
0.000199201
0.000199199
0.000204073
0.00020001
0.000200009
0.000189295
0.000188272
0.000204693
0.000201599
0.000201597
0.000200802
0.0002008
0.000190305
0.000191323
0.000204699
0.0002016
0.000201605
0.000200803
0.000200808
0.000190307
0.000191325
0.000204697
0.000201604
0.00020161
0.000200807
0.000200812
0.000190313
0.000191331
0.000204706
0.000201612
0.000201612
0.000200816
0.000200815
0.000190317
0.000191334
0.000170418
0.000137234
0.000175655
0.000143609
0.000137136
0.00017552
0.000170557
0.000159997
0.000146885
0.000103397
0.000122358
0.000146962
0.000122426
0.000159863
0.000160019
0.000122492
0.000103393
0.000147085
0.000147011
0.000122423
0.00016016
0.000170342
0.000143606
0.000137045
0.000175289
0.000137142
0.000175425
0.00017022
0.00017044
0.000175596
0.000137213
0.000143617
0.000175582
0.000137139
0.00017051
0.000159946
0.0001469
0.000103398
0.000122355
0.000146938
0.000122416
0.000159909
0.000160066
0.000122482
0.000103396
0.000147063
0.000147026
0.000122422
0.000160101
0.000170314
0.000143593
0.000175346
0.000137046
0.000175368
0.000137122
0.000170236
0.000137945
0.000180842
0.00016115
0.00016113
0.000161055
0.000161045
0.000137991
0.000137946
0.000180845
0.000161151
0.000161131
0.000137993
0.000161054
0.000161047
0.000138077
0.000181298
0.000161212
0.000161202
0.000138033
0.0001613
0.000161286
0.000170431
0.000137206
0.000175588
0.000143615
0.000137133
0.000175576
0.000170478
0.000159932
0.000146893
0.000103397
0.000122345
0.000122409
0.00014693
0.000159896
0.000160053
0.000122474
0.000103394
0.000147055
0.000122413
0.000147018
0.000160088
0.000170276
0.000143591
0.00013704
0.000175341
0.000137115
0.000175361
0.00017023
0.000170426
0.000137214
0.000175589
0.000143616
0.00013714
0.000175574
0.000170509
0.000159931
0.000146881
0.000103394
0.000122349
0.000122414
0.000146918
0.00015989
0.00016005
0.00012248
0.000103392
0.000147043
0.000122418
0.00016009
0.000147006
0.000170308
0.000143592
0.000137046
0.00017534
0.000137123
0.000175363
0.000170219
0.000170685
0.000137225
0.000175787
0.000143803
0.000170634
0.000137298
0.000175802
0.000160371
0.000147296
0.000103475
0.000122602
0.000147261
0.000122544
0.000160395
0.000160239
0.000122478
0.000147138
0.000103477
0.000147177
0.000160213
0.00012254
0.000170833
0.000143825
0.000137386
0.000176007
0.000137315
0.000176002
0.000170882
0.000170701
0.000137232
0.000175788
0.000143806
0.000170628
0.000137306
0.000175804
0.000160369
0.000147284
0.000103472
0.000122609
0.000122549
0.000147252
0.000160396
0.000160241
0.000122483
0.000147127
0.000103475
0.000160211
0.000122546
0.000147165
0.000170828
0.000143827
0.000137395
0.000176009
0.000137322
0.000176003
0.000170891
0.000137953
0.000180923
0.000161113
0.000161132
0.000161079
0.00016106
0.000137993
0.000138078
0.000181245
0.000161224
0.000161242
0.000161279
0.00013804
0.000161297
0.000170434
0.000137216
0.000175591
0.000143619
0.000137142
0.000175577
0.000170503
0.000159935
0.000146881
0.00010339
0.00012235
0.000122414
0.000146918
0.000159896
0.000160054
0.00012248
0.000103386
0.000147044
0.000122418
0.000147007
0.000160092
0.000170308
0.000143595
0.00013705
0.000175342
0.000137126
0.000175364
0.00017023
0.000170424
0.000175586
0.000137202
0.000143614
0.000175572
0.000137128
0.000170491
0.000159917
0.000146868
0.000103376
0.000122335
0.000122395
0.000146904
0.000159881
0.000160038
0.000122462
0.000103374
0.000147029
0.000122402
0.000160074
0.000146993
0.000170296
0.00014359
0.000175338
0.000137035
0.00017536
0.00013711
0.00017022
0.000170697
0.000137235
0.000175789
0.000143809
0.000170635
0.000137309
0.000175805
0.000160372
0.000147285
0.000103466
0.000122609
0.000147253
0.00012255
0.000160397
0.000160242
0.000122483
0.000147128
0.00010347
0.000147166
0.000160214
0.000122546
0.000170834
0.00014383
0.000137396
0.000176011
0.000137325
0.000176005
0.000170891
0.000170686
0.000175785
0.00013722
0.000143803
0.000170625
0.0001758
0.000137294
0.000160356
0.00014728
0.000103454
0.00012259
0.000122534
0.000147238
0.000160384
0.000160225
0.000122468
0.000147113
0.000103456
0.000160198
0.000122528
0.000147152
0.000170823
0.000143825
0.000176006
0.000137382
0.000176
0.00013731
0.000170884
0.000170439
0.00017559
0.000137211
0.000143616
0.000175572
0.000137137
0.00017048
0.000159936
0.000146893
0.000103394
0.000122351
0.00014693
0.00012241
0.0001599
0.000160057
0.000122477
0.000103393
0.000147056
0.000147018
0.000122417
0.000160091
0.000170281
0.000143596
0.000175337
0.000137045
0.00017537
0.00013712
0.000170238
0.000170768
0.000137229
0.000175733
0.000143819
0.000170602
0.000137325
0.000175868
0.000160312
0.000147321
0.000103473
0.000122621
0.000160489
0.000147261
0.000122554
0.000160327
0.00012249
0.000147132
0.000103477
0.000160172
0.000147203
0.000122557
0.000170772
0.000143822
0.000137414
0.000176084
0.000170965
0.000137319
0.00017595
0.00017069
0.000175788
0.000137229
0.000143807
0.000170639
0.000175808
0.000137303
0.000160374
0.000147296
0.000103473
0.000122606
0.000122548
0.000147261
0.000160401
0.000160241
0.000122483
0.000147139
0.000103475
0.000160216
0.000122542
0.000147177
0.000170836
0.000143828
0.000176016
0.000137391
0.000176002
0.000137319
0.000170889
0.000137946
0.000180912
0.000161108
0.00016113
0.000161072
0.000161052
0.000137983
0.000138068
0.000181234
0.000161205
0.00016123
0.000161261
0.000138033
0.00016129
0.000170436
0.000175596
0.000137214
0.000143619
0.000175581
0.000137139
0.000170506
0.000159934
0.000146885
0.000103394
0.000122347
0.000146923
0.000122412
0.000159897
0.000160054
0.000122479
0.000103391
0.000147048
0.00014701
0.000122415
0.000160091
0.00017031
0.000143595
0.000175348
0.000137046
0.000175369
0.000137122
0.000170233
0.000170704
0.000175794
0.000137232
0.000143806
0.000170642
0.00017581
0.000137306
0.000160383
0.000147303
0.000103476
0.000122611
0.000160407
0.00014727
0.000122553
0.000160251
0.000122488
0.000147146
0.000103479
0.000160226
0.000147185
0.000122548
0.000170841
0.000143827
0.000176016
0.000137394
0.000170898
0.00017601
0.000137322
0.000170701
0.000175794
0.000137231
0.000143808
0.000170638
0.00017581
0.000137306
0.000160373
0.000147296
0.000103472
0.000122607
0.000122546
0.000147256
0.000160397
0.000160242
0.00012248
0.000147131
0.000103474
0.000160214
0.000122544
0.00014717
0.000170837
0.00014383
0.000176016
0.000137394
0.000176009
0.000137322
0.000170894
0.000138077
0.000181293
0.000161211
0.0001612
0.00013803
0.0001613
0.000161285
0.000160551
0.00014738
0.000122611
0.000103551
0.000147408
0.000160529
0.000122666
0.00017108
0.000144008
0.000176227
0.000137409
0.000176221
0.000171023
0.000137476
0.000147365
0.00010355
0.000147395
0.000123041
0.000139423
0.000139423
0.000137099
0.000125839
0.000142546
0.00014255
0.000139558
0.000128795
0.000145637
0.000145637
0.000141951
0.00013189
0.000148683
0.000148681
0.000144266
0.000135102
0.000151678
0.000151676
0.000146536
0.000138412
0.000154617
0.000154615
0.00014873
0.000141799
0.000157495
0.000157493
0.00015093
0.000145247
0.000160311
0.00016031
0.000153099
0.000148738
0.000163062
0.000163062
0.000155132
0.000152256
0.000165748
0.000165747
0.00015711
0.000155789
0.000168367
0.000168365
0.000159036
0.000159322
0.000170916
0.000170914
0.000160893
0.000162842
0.000173396
0.000173392
0.000162693
0.000166337
0.000175803
0.000175799
0.000164438
0.000169798
0.000178138
0.000178133
0.00016611
0.000173215
0.000180398
0.000180393
0.00016775
0.000176581
0.000182583
0.000182577
0.000169295
0.000179886
0.000184691
0.000184684
0.000170796
0.000183124
0.000186722
0.000186715
0.000172247
0.000186289
0.000188676
0.000188668
0.00017362
0.000189373
0.000190551
0.000190544
0.000174938
0.000192372
0.000192348
0.000192341
0.000176216
0.00019528
0.000194067
0.000194059
0.000177436
0.000198094
0.000195706
0.000195698