/*--------------------------------*- C++ -*----------------------------------*\
| =========                 |                                                 |
| \\      /  F ield         | OpenFOAM: The Open Source CFD Toolbox           |
|  \\    /   O peration     | Version:  v1906                                 |
|   \\  /    A nd           | Web:      www.OpenFOAM.com                      |
|    \\/     M anipulation  |                                                 |
\*---------------------------------------------------------------------------*/
FoamFile
{
    version     2.0;
    format      ascii;
    class       volScalarField;
    location    "50";
    object      k;
}
// * * * * * * * * * * * * * * * * * * * * * * * * * * * * * * * * * * * * * //

dimensions      [0 2 -2 0 0 0 0];


internalField   nonuniform List<scalar> 
43248
(
2.016e-05
2.03783e-05
2.03809e-05
2.01685e-05
2.03805e-05
2.03787e-05
2.03848e-05
2.03784e-05
2.0194e-05
2.03771e-05
2.03806e-05
2.01988e-05
2.1026e-05
2.10265e-05
2.10241e-05
2.10261e-05
7.25558e-05
7.2547e-05
4.12563e-05
4.12933e-05
3.01233e-05
6.87718e-05
3.01178e-05
3.01063e-05
6.87522e-05
6.87562e-05
3.00979e-05
2.0609e-05
2.90483e-05
2.06794e-05
2.06805e-05
2.06094e-05
2.05965e-05
2.03815e-05
2.90494e-05
2.06791e-05
2.90535e-05
2.06796e-05
2.05969e-05
7.25607e-05
7.25541e-05
2.01631e-05
4.13232e-05
4.11849e-05
4.12796e-05
4.11394e-05
7.25444e-05
7.25398e-05
6.87642e-05
3.0066e-05
2.90404e-05
2.06838e-05
2.05914e-05
6.89287e-05
3.01023e-05
2.06814e-05
2.91386e-05
2.06019e-05
2.06005e-05
2.03848e-05
2.9037e-05
2.06799e-05
2.90443e-05
2.06805e-05
2.06145e-05
3.00025e-05
6.87652e-05
6.8766e-05
3.0049e-05
2.0629e-05
2.03794e-05
2.06774e-05
2.90272e-05
2.06771e-05
2.9039e-05
2.0591e-05
3.00895e-05
6.87457e-05
6.87531e-05
3.0086e-05
7.26368e-05
4.16958e-05
4.12726e-05
7.25478e-05
2.05624e-05
2.06773e-05
2.9039e-05
2.06775e-05
2.05704e-05
2.05778e-05
2.03815e-05
2.06799e-05
2.90492e-05
2.06812e-05
2.90632e-05
2.05621e-05
2.9968e-05
6.87499e-05
2.99753e-05
3.0077e-05
6.87633e-05
6.87763e-05
3.00692e-05
2.01636e-05
4.10499e-05
4.11221e-05
4.11256e-05
4.12115e-05
7.25368e-05
7.25371e-05
7.2552e-05
7.25529e-05
7.25525e-05
7.2546e-05
3.2794e-05
2.32681e-05
4.1186e-05
6.73737e-05
6.73698e-05
2.32686e-05
3.27655e-05
3.28129e-05
2.32729e-05
4.12962e-05
6.73666e-05
6.73706e-05
2.32822e-05
3.27958e-05
6.02832e-05
7.2645e-05
7.26389e-05
7.2637e-05
7.26312e-05
6.02903e-05
7.41337e-05
7.54233e-05
3.40393e-05
3.01178e-05
7.41339e-05
7.54222e-05
3.40334e-05
7.15812e-05
6.87728e-05
5.27787e-05
5.27685e-05
7.15892e-05
7.41344e-05
3.01229e-05
7.54222e-05
3.40345e-05
7.54234e-05
3.40401e-05
7.41341e-05
7.41319e-05
7.54222e-05
3.4013e-05
3.01e-05
7.41319e-05
7.54209e-05
3.40082e-05
7.15346e-05
6.87534e-05
5.25135e-05
5.24041e-05
7.15427e-05
7.15417e-05
5.25177e-05
6.87529e-05
7.15344e-05
5.24677e-05
7.41325e-05
3.01043e-05
7.54207e-05
3.40099e-05
7.5422e-05
3.40146e-05
7.41322e-05
7.25575e-05
7.25581e-05
5.99279e-05
7.26068e-05
7.26099e-05
5.99718e-05
7.26111e-05
7.26142e-05
3.27826e-05
2.32825e-05
4.13155e-05
6.73716e-05
2.32865e-05
6.73728e-05
3.27731e-05
3.27667e-05
2.32831e-05
4.118e-05
6.73587e-05
6.73597e-05
2.32857e-05
3.27573e-05
3.27754e-05
6.73711e-05
2.3284e-05
4.12933e-05
2.32817e-05
3.27863e-05
6.73705e-05
3.27596e-05
6.73597e-05
2.32834e-05
4.10987e-05
3.27704e-05
6.73576e-05
2.32804e-05
5.99255e-05
7.26095e-05
7.26125e-05
7.26035e-05
7.26065e-05
5.99119e-05
7.2541e-05
7.25419e-05
7.15495e-05
6.87672e-05
5.26521e-05
5.26027e-05
7.15602e-05
7.41776e-05
3.00733e-05
3.36747e-05
7.54238e-05
3.36621e-05
7.54253e-05
7.41632e-05
7.18115e-05
6.89354e-05
5.36456e-05
5.36511e-05
7.1813e-05
7.41621e-05
3.01085e-05
7.54241e-05
3.41933e-05
7.54252e-05
3.42023e-05
7.41615e-05
7.41228e-05
3.36505e-05
7.54225e-05
3.0003e-05
7.41341e-05
3.3603e-05
7.54215e-05
7.15517e-05
6.87678e-05
5.27966e-05
5.28146e-05
7.15535e-05
7.15624e-05
5.2811e-05
6.87652e-05
7.15566e-05
5.28628e-05
7.41198e-05
3.00144e-05
3.35114e-05
7.54222e-05
3.35285e-05
7.54229e-05
7.41251e-05
7.41476e-05
7.5422e-05
3.37229e-05
3.0085e-05
7.41431e-05
7.54208e-05
3.37048e-05
7.14977e-05
6.87541e-05
5.23389e-05
5.23904e-05
7.1505e-05
7.15036e-05
5.24912e-05
6.87557e-05
7.14975e-05
5.2379e-05
7.41494e-05
3.00907e-05
7.54208e-05
3.36764e-05
7.54221e-05
3.36932e-05
7.41503e-05
7.26356e-05
3.27987e-05
2.33476e-05
4.17705e-05
6.74287e-05
2.33524e-05
6.74304e-05
3.27946e-05
3.27688e-05
2.32737e-05
4.11911e-05
6.73582e-05
6.73588e-05
2.3275e-05
3.27647e-05
6.02652e-05
7.26449e-05
7.26408e-05
7.26351e-05
7.26309e-05
6.02775e-05
7.25439e-05
7.41671e-05
3.37501e-05
7.54227e-05
2.99761e-05
7.41639e-05
3.37585e-05
7.54219e-05
7.15468e-05
6.87511e-05
5.25551e-05
5.25175e-05
7.15544e-05
7.15526e-05
5.26155e-05
7.41706e-05
2.99915e-05
3.37967e-05
7.54218e-05
3.3725e-05
7.54232e-05
7.41565e-05
7.41314e-05
3.40152e-05
7.5422e-05
3.00712e-05
7.41325e-05
3.40049e-05
7.5421e-05
7.15215e-05
6.87681e-05
5.24361e-05
5.23834e-05
7.15235e-05
7.15356e-05
5.24814e-05
6.87695e-05
7.15351e-05
5.2473e-05
7.41313e-05
3.00755e-05
3.39965e-05
7.54209e-05
3.40068e-05
7.5422e-05
7.41299e-05
5.98745e-05
7.2595e-05
7.25921e-05
5.98491e-05
7.25975e-05
7.25948e-05
3.27491e-05
2.32677e-05
4.10937e-05
6.73495e-05
2.32718e-05
6.73534e-05
3.27367e-05
3.27726e-05
2.32664e-05
4.1151e-05
6.73656e-05
2.32714e-05
6.73682e-05
3.27601e-05
3.27443e-05
6.73648e-05
2.32741e-05
4.11026e-05
3.2757e-05
2.32688e-05
6.73553e-05
3.27681e-05
6.73708e-05
2.3276e-05
4.11427e-05
3.27811e-05
2.32696e-05
6.73681e-05
5.99042e-05
7.2591e-05
7.25885e-05
7.25876e-05
7.25851e-05
5.98976e-05
7.25358e-05
7.25386e-05
7.2551e-05
7.25539e-05
2.23791e-05
2.01295e-05
2.04001e-05
2.04273e-05
2.03936e-05
2.04367e-05
2.2372e-05
2.23924e-05
2.01598e-05
2.04554e-05
2.04764e-05
2.04898e-05
2.04672e-05
2.2388e-05
2.23719e-05
2.01699e-05
2.04346e-05
2.04478e-05
2.04483e-05
2.0427e-05
2.2369e-05
2.2361e-05
2.01695e-05
2.03991e-05
2.04202e-05
2.03997e-05
2.04521e-05
2.23544e-05
2.13225e-05
2.13233e-05
2.13227e-05
2.1561e-05
2.1561e-05
2.10268e-05
2.13223e-05
2.13224e-05
2.13224e-05
2.13226e-05
2.15609e-05
2.15609e-05
2.13222e-05
2.13216e-05
2.13218e-05
2.15607e-05
2.15607e-05
2.10263e-05
2.13217e-05
2.13225e-05
2.13217e-05
2.13226e-05
2.15607e-05
2.15607e-05
1.99707e-05
2.12446e-05
1.99952e-05
2.05965e-05
1.99678e-05
2.12354e-05
1.9955e-05
2.01478e-05
2.08869e-05
2.90541e-05
2.39061e-05
2.08858e-05
2.39107e-05
2.0148e-05
1.99683e-05
2.06041e-05
2.12425e-05
1.99741e-05
2.1245e-05
1.99823e-05
2.00041e-05
1.99862e-05
2.12571e-05
1.9991e-05
2.05962e-05
1.99948e-05
2.12592e-05
1.99503e-05
2.01606e-05
2.08953e-05
2.90569e-05
2.38698e-05
2.38731e-05
2.09248e-05
2.01623e-05
2.016e-05
2.38696e-05
2.09152e-05
2.90469e-05
2.016e-05
2.38663e-05
2.09117e-05
2.0013e-05
2.06153e-05
2.12585e-05
1.99433e-05
2.12643e-05
1.99519e-05
1.99835e-05
2.2387e-05
2.01627e-05
2.04673e-05
2.04683e-05
2.04701e-05
2.23904e-05
2.04742e-05
2.01762e-05
2.09018e-05
2.90496e-05
2.38812e-05
2.09301e-05
2.38856e-05
2.01444e-05
1.99838e-05
2.05949e-05
2.12241e-05
1.99724e-05
2.12357e-05
1.99576e-05
1.99818e-05
2.01424e-05
2.09402e-05
2.9148e-05
2.40579e-05
2.4065e-05
2.09692e-05
2.01659e-05
1.9994e-05
2.05996e-05
2.00416e-05
2.12757e-05
1.99861e-05
2.12805e-05
2.00017e-05
2.00072e-05
2.12032e-05
1.9965e-05
2.06088e-05
1.99713e-05
2.12054e-05
1.99667e-05
2.01588e-05
2.08982e-05
2.9045e-05
2.38863e-05
2.08988e-05
2.38944e-05
2.01747e-05
2.01464e-05
2.38964e-05
2.09017e-05
2.90357e-05
2.01523e-05
2.08933e-05
2.38906e-05
1.99821e-05
2.06316e-05
2.12025e-05
1.99935e-05
2.12169e-05
1.99589e-05
1.9978e-05
1.99856e-05
1.99767e-05
2.12068e-05
2.06036e-05
1.99485e-05
1.99743e-05
2.1208e-05
2.01321e-05
2.0888e-05
2.90364e-05
2.38332e-05
2.38398e-05
2.0891e-05
2.0117e-05
2.01322e-05
2.3844e-05
2.09048e-05
2.90292e-05
2.01421e-05
2.38365e-05
2.08896e-05
2.00361e-05
2.06036e-05
1.9968e-05
2.12104e-05
2.00036e-05
2.1213e-05
2.00072e-05
1.99845e-05
1.9926e-05
2.12282e-05
2.05585e-05
1.99576e-05
1.99808e-05
2.12405e-05
2.0144e-05
2.09223e-05
2.90457e-05
2.38782e-05
2.09004e-05
2.38826e-05
2.01113e-05
2.01204e-05
2.38759e-05
1.99791e-05
2.05711e-05
1.99982e-05
2.12416e-05
1.99797e-05
2.12436e-05
1.9997e-05
2.00233e-05
1.99955e-05
2.12516e-05
2.05771e-05
2.0008e-05
1.99557e-05
2.12515e-05
2.01607e-05
2.08651e-05
2.90592e-05
2.38766e-05
2.38876e-05
2.08731e-05
2.01227e-05
2.01452e-05
2.38961e-05
2.09077e-05
2.90527e-05
2.01448e-05
2.3886e-05
2.08786e-05
1.99784e-05
2.05906e-05
1.99339e-05
2.12412e-05
1.99443e-05
2.12588e-05
1.99868e-05
2.23587e-05
2.01905e-05
2.04358e-05
2.04209e-05
2.23661e-05
2.03971e-05
2.04296e-05
2.10274e-05
2.03869e-05
2.03817e-05
2.0157e-05
2.01921e-05
2.03835e-05
2.03823e-05
2.02077e-05
2.03794e-05
2.03815e-05
2.03868e-05
2.03817e-05
2.01873e-05
2.03813e-05
2.03805e-05
2.0206e-05
2.0175e-05
2.02284e-05
2.0384e-05
2.03829e-05
2.03847e-05
2.03862e-05
2.01715e-05
2.0157e-05
2.03808e-05
2.03818e-05
2.03807e-05
2.03799e-05
2.03816e-05
2.03864e-05
2.03811e-05
2.0215e-05
2.01649e-05
2.03809e-05
2.03811e-05
2.03819e-05
2.01533e-05
2.10274e-05
2.1027e-05
2.10261e-05
2.10262e-05
3.01333e-05
6.87605e-05
3.01343e-05
6.87572e-05
7.25411e-05
7.2548e-05
3.0091e-05
6.87586e-05
3.00993e-05
6.8757e-05
2.10271e-05
2.10261e-05
2.10262e-05
2.10273e-05
2.10277e-05
2.10262e-05
2.1026e-05
2.05857e-05
2.90537e-05
2.06831e-05
2.03873e-05
2.05955e-05
2.90463e-05
2.0683e-05
7.26347e-05
7.26349e-05
2.05871e-05
2.06808e-05
2.90456e-05
2.03821e-05
2.0595e-05
2.06816e-05
2.90359e-05
4.12656e-05
4.12783e-05
2.01885e-05
4.12726e-05
4.11688e-05
7.25464e-05
7.25428e-05
7.25392e-05
7.25385e-05
2.01637e-05
4.11817e-05
4.11107e-05
4.11687e-05
4.11803e-05
3.01294e-05
6.87577e-05
6.87573e-05
3.01272e-05
3.0117e-05
6.87521e-05
6.8756e-05
3.01115e-05
2.05854e-05
2.03838e-05
2.9038e-05
2.06838e-05
2.90471e-05
2.06837e-05
2.06285e-05
2.05772e-05
2.03819e-05
2.90419e-05
2.06822e-05
2.9051e-05
2.068e-05
2.05945e-05
7.25426e-05
7.25404e-05
2.01664e-05
4.1112e-05
4.1166e-05
4.11664e-05
4.11107e-05
7.2539e-05
7.25363e-05
3.01055e-05
6.87576e-05
6.87595e-05
3.00958e-05
2.06352e-05
2.03791e-05
2.9031e-05
2.0682e-05
2.90425e-05
2.06825e-05
2.06329e-05
3.00468e-05
6.88456e-05
6.88449e-05
3.00099e-05
2.0613e-05
2.03816e-05
2.0681e-05
2.91308e-05
2.06819e-05
2.91399e-05
2.06093e-05
2.06217e-05
2.03859e-05
2.90446e-05
2.06847e-05
2.90526e-05
2.0685e-05
2.05919e-05
3.00885e-05
6.87402e-05
6.8739e-05
3.00846e-05
2.06196e-05
2.03821e-05
2.06838e-05
2.90646e-05
2.06848e-05
2.90761e-05
2.0613e-05
3.00648e-05
6.88013e-05
6.88176e-05
3.00911e-05
7.26371e-05
7.26338e-05
2.01716e-05
4.18333e-05
4.1069e-05
4.18687e-05
4.10851e-05
7.25468e-05
7.25508e-05
2.05458e-05
2.03807e-05
2.06806e-05
2.90376e-05
2.0681e-05
2.90489e-05
2.05962e-05
2.05892e-05
2.03812e-05
2.06816e-05
2.90704e-05
2.06813e-05
2.90816e-05
2.06027e-05
3.00418e-05
6.87716e-05
6.87896e-05
3.00318e-05
3.00482e-05
6.87934e-05
6.88087e-05
3.00428e-05
2.02339e-05
4.13022e-05
4.12711e-05
4.13218e-05
4.12873e-05
7.25719e-05
7.25731e-05
7.25747e-05
7.25754e-05
7.25451e-05
7.25489e-05
7.25364e-05
7.25395e-05
4.12136e-05
4.1111e-05
2.01911e-05
4.11275e-05
4.10947e-05
7.25546e-05
7.25473e-05
7.25456e-05
7.25393e-05
2.01958e-05
4.11911e-05
4.11853e-05
4.11523e-05
4.11693e-05
3.01119e-05
6.87604e-05
3.01171e-05
6.87519e-05
2.0626e-05
2.90471e-05
2.06841e-05
2.03841e-05
2.06514e-05
2.90383e-05
2.06846e-05
2.05924e-05
2.90511e-05
2.06838e-05
2.03844e-05
2.06053e-05
2.90494e-05
2.06842e-05
3.01402e-05
6.87563e-05
6.87581e-05
3.01381e-05
3.01181e-05
6.87501e-05
6.87524e-05
3.01153e-05
2.06266e-05
2.03842e-05
2.90429e-05
2.06849e-05
2.90474e-05
2.06845e-05
2.06346e-05
2.06069e-05
2.03852e-05
2.90589e-05
2.06845e-05
2.90608e-05
2.0684e-05
2.06223e-05
4.10963e-05
4.11957e-05
2.01592e-05
4.11675e-05
4.12173e-05
7.25373e-05
7.25401e-05
7.25537e-05
7.25485e-05
2.01525e-05
4.12477e-05
4.11846e-05
4.12795e-05
4.12378e-05
7.25392e-05
7.2538e-05
2.06085e-05
2.90386e-05
2.06831e-05
2.03804e-05
2.0634e-05
2.90308e-05
2.06832e-05
2.9954e-05
6.88523e-05
3.00131e-05
6.88565e-05
2.0575e-05
2.06809e-05
2.91396e-05
2.03815e-05
2.06031e-05
2.06808e-05
2.91283e-05
3.00957e-05
6.87601e-05
6.87591e-05
3.00903e-05
2.06106e-05
2.03804e-05
2.9034e-05
2.06822e-05
2.90402e-05
2.06826e-05
2.05963e-05
2.9971e-05
6.8868e-05
6.88611e-05
2.993e-05
2.05816e-05
2.03806e-05
2.06804e-05
2.91181e-05
2.06806e-05
2.91345e-05
2.05769e-05
3.00881e-05
6.87436e-05
3.00908e-05
6.87473e-05
2.06232e-05
2.06848e-05
2.90719e-05
2.03814e-05
2.06238e-05
2.06846e-05
2.90611e-05
3.01013e-05
6.8802e-05
3.01005e-05
6.87887e-05
2.06025e-05
2.03869e-05
2.90466e-05
2.06832e-05
2.90553e-05
2.0683e-05
2.05764e-05
3.00943e-05
6.87568e-05
6.87526e-05
3.00914e-05
2.06074e-05
2.03812e-05
2.06837e-05
2.90572e-05
2.06837e-05
2.90689e-05
2.06183e-05
3.01077e-05
6.87809e-05
6.87877e-05
3.01039e-05
4.18353e-05
4.10896e-05
2.01677e-05
4.16979e-05
4.11499e-05
7.25428e-05
7.2542e-05
7.26219e-05
7.26293e-05
2.01575e-05
4.15083e-05
4.112e-05
4.15353e-05
4.11073e-05
7.25379e-05
7.25382e-05
2.06208e-05
2.06827e-05
2.90778e-05
2.03813e-05
2.06058e-05
2.06829e-05
2.90641e-05
3.00275e-05
6.87741e-05
3.0036e-05
6.87651e-05
3.00411e-05
6.87959e-05
3.00478e-05
6.87855e-05
2.05871e-05
2.03817e-05
2.06808e-05
2.9033e-05
2.06816e-05
2.90434e-05
2.05838e-05
2.06103e-05
2.03818e-05
2.06828e-05
2.90618e-05
2.06828e-05
2.90712e-05
2.06083e-05
3.00326e-05
6.87651e-05
6.87727e-05
2.99816e-05
3.00458e-05
6.87682e-05
6.87792e-05
3.00399e-05
7.25685e-05
7.25684e-05
7.25698e-05
7.25655e-05
2.01551e-05
4.12696e-05
4.12389e-05
4.12844e-05
4.1192e-05
7.25648e-05
7.25658e-05
7.2563e-05
7.25621e-05
7.41342e-05
3.01373e-05
7.54876e-05
3.40249e-05
7.55021e-05
3.40319e-05
7.4134e-05
7.15683e-05
5.27983e-05
6.87595e-05
7.15587e-05
5.28048e-05
7.41329e-05
3.01304e-05
7.54927e-05
3.40305e-05
7.4133e-05
7.54787e-05
3.40256e-05
7.15614e-05
5.25273e-05
6.87609e-05
5.26901e-05
7.15654e-05
7.25452e-05
7.25449e-05
7.41605e-05
3.0097e-05
3.3578e-05
7.54279e-05
3.35574e-05
7.54291e-05
7.41623e-05
7.15576e-05
5.25475e-05
6.8757e-05
7.15517e-05
5.26013e-05
7.41599e-05
3.00927e-05
3.35246e-05
7.54293e-05
7.41578e-05
3.34805e-05
7.54281e-05
7.15508e-05
5.25663e-05
6.87589e-05
5.26062e-05
7.15558e-05
7.26369e-05
7.2634e-05
6.0172e-05
7.26467e-05
7.2643e-05
7.2635e-05
7.26314e-05
6.03467e-05
3.27784e-05
2.3302e-05
6.73702e-05
4.12709e-05
3.27835e-05
2.32986e-05
6.73682e-05
3.28059e-05
2.32967e-05
6.73793e-05
4.11998e-05
3.28109e-05
2.32931e-05
6.73768e-05
6.02241e-05
7.26281e-05
7.26248e-05
6.0217e-05
7.26386e-05
7.26351e-05
3.27916e-05
6.73681e-05
4.12673e-05
2.33014e-05
2.33035e-05
6.73695e-05
3.2789e-05
3.28191e-05
6.73754e-05
4.124e-05
2.32939e-05
2.32975e-05
6.73777e-05
3.28167e-05
7.25434e-05
7.2545e-05
7.25378e-05
7.25405e-05
5.98224e-05
7.26088e-05
7.26042e-05
5.9806e-05
7.26168e-05
7.26123e-05
3.27733e-05
2.32758e-05
4.11866e-05
6.73583e-05
6.73599e-05
2.32814e-05
3.27673e-05
3.2799e-05
2.32709e-05
4.11686e-05
6.73656e-05
6.73702e-05
2.32771e-05
3.2793e-05
3.27642e-05
6.73613e-05
2.32854e-05
4.11482e-05
3.27742e-05
6.73586e-05
2.3279e-05
3.279e-05
6.73885e-05
2.32826e-05
4.11692e-05
3.27999e-05
6.73732e-05
2.32759e-05
5.97824e-05
7.26241e-05
7.26193e-05
7.26125e-05
7.26076e-05
5.99573e-05
7.41306e-05
7.54242e-05
3.4027e-05
3.01246e-05
7.41309e-05
7.54233e-05
3.40214e-05
7.15539e-05
6.87586e-05
5.27681e-05
7.1563e-05
5.27476e-05
7.15574e-05
5.26106e-05
6.87555e-05
7.1549e-05
5.26345e-05
7.41316e-05
3.0131e-05
7.54648e-05
3.40232e-05
7.41315e-05
7.54495e-05
3.40285e-05
7.41632e-05
7.54241e-05
3.40084e-05
3.01116e-05
7.41645e-05
7.54229e-05
3.40012e-05
7.1504e-05
6.87536e-05
5.25391e-05
5.24471e-05
7.15106e-05
7.15131e-05
5.25186e-05
6.87527e-05
7.15086e-05
5.25224e-05
7.41727e-05
3.01168e-05
7.54233e-05
3.3999e-05
7.54243e-05
3.40054e-05
7.41686e-05
7.25399e-05
7.25423e-05
6.00146e-05
7.26083e-05
7.26102e-05
5.99883e-05
7.2619e-05
7.2621e-05
3.28032e-05
2.32941e-05
4.10672e-05
6.73774e-05
2.32973e-05
6.73954e-05
3.27991e-05
3.27792e-05
2.32892e-05
4.11698e-05
6.7356e-05
6.7357e-05
2.32922e-05
3.27755e-05
3.27916e-05
6.73886e-05
2.32965e-05
4.11354e-05
2.32932e-05
3.27968e-05
6.73864e-05
3.27675e-05
6.73571e-05
2.32913e-05
4.10797e-05
3.27726e-05
6.73548e-05
2.32874e-05
6.00017e-05
7.26244e-05
7.26269e-05
7.26146e-05
7.26167e-05
6.00652e-05
7.25361e-05
7.25376e-05
7.41384e-05
3.37127e-05
7.54291e-05
3.00992e-05
7.41444e-05
3.36361e-05
7.54281e-05
7.15552e-05
6.87603e-05
5.25231e-05
7.15593e-05
5.26054e-05
7.15612e-05
5.25957e-05
6.87588e-05
7.15521e-05
5.26972e-05
7.41734e-05
3.01026e-05
3.35223e-05
7.54282e-05
7.41568e-05
3.35873e-05
7.54293e-05
7.41472e-05
7.54292e-05
3.39374e-05
2.99969e-05
7.41475e-05
7.5428e-05
3.39064e-05
7.16792e-05
6.88477e-05
5.28822e-05
5.29198e-05
7.1687e-05
7.16863e-05
5.29455e-05
6.88434e-05
7.16788e-05
5.29422e-05
7.41473e-05
3.00155e-05
7.5428e-05
3.38819e-05
7.54291e-05
3.38961e-05
7.41498e-05
7.41463e-05
3.3508e-05
7.54249e-05
3.00832e-05
7.41592e-05
3.34799e-05
7.54235e-05
7.15199e-05
6.87407e-05
5.25304e-05
5.24543e-05
7.15279e-05
7.15254e-05
5.25395e-05
6.87384e-05
7.15174e-05
5.25165e-05
7.4147e-05
3.00891e-05
3.35967e-05
7.54234e-05
3.35787e-05
7.54246e-05
7.41423e-05
7.4205e-05
7.54264e-05
3.36562e-05
3.00746e-05
7.41937e-05
7.54259e-05
3.36093e-05
7.15632e-05
6.88125e-05
5.26777e-05
5.26733e-05
7.1562e-05
7.15806e-05
5.27566e-05
6.88085e-05
7.15844e-05
5.26251e-05
7.41884e-05
3.00899e-05
7.54434e-05
3.36557e-05
7.54268e-05
3.36806e-05
7.41983e-05
7.26346e-05
7.26366e-05
6.01564e-05
7.26612e-05
7.2657e-05
6.03236e-05
7.26657e-05
7.26614e-05
3.28421e-05
2.33535e-05
4.18689e-05
6.74421e-05
2.33595e-05
6.74438e-05
3.2833e-05
3.28112e-05
2.32733e-05
4.10924e-05
6.736e-05
6.73632e-05
2.32784e-05
3.28022e-05
3.28339e-05
6.74437e-05
2.33622e-05
4.18642e-05
2.33568e-05
3.2843e-05
6.74426e-05
3.28029e-05
6.73659e-05
2.32819e-05
4.11082e-05
3.2812e-05
6.7363e-05
2.32759e-05
6.01973e-05
7.26602e-05
7.26556e-05
7.26568e-05
7.26523e-05
6.00892e-05
7.25468e-05
7.25515e-05
7.41815e-05
3.36225e-05
7.54231e-05
3.00351e-05
7.41772e-05
3.36137e-05
7.54224e-05
7.15438e-05
6.87836e-05
5.23662e-05
5.24062e-05
7.15438e-05
7.15596e-05
5.24959e-05
6.87799e-05
7.15615e-05
5.23741e-05
7.41959e-05
3.00385e-05
3.35079e-05
7.54223e-05
3.35807e-05
7.54235e-05
7.4171e-05
7.41894e-05
3.35866e-05
7.54241e-05
3.00429e-05
7.41734e-05
3.3547e-05
7.54233e-05
7.15393e-05
6.87977e-05
5.24743e-05
5.25024e-05
7.15373e-05
7.15566e-05
5.25518e-05
6.87974e-05
7.15611e-05
5.24381e-05
7.41745e-05
3.00481e-05
3.36448e-05
7.5423e-05
3.36352e-05
7.54242e-05
7.41712e-05
5.9982e-05
7.26217e-05
7.26184e-05
6.00878e-05
7.26267e-05
7.26233e-05
3.27776e-05
2.32982e-05
4.13066e-05
6.73695e-05
3.2771e-05
2.33024e-05
6.73717e-05
3.2805e-05
2.32928e-05
4.12982e-05
6.73786e-05
3.27984e-05
2.3297e-05
6.73808e-05
3.27682e-05
6.73736e-05
2.33049e-05
4.13016e-05
3.27778e-05
2.32995e-05
6.73713e-05
3.27957e-05
6.73816e-05
2.32992e-05
4.1286e-05
3.28054e-05
2.3294e-05
6.738e-05
6.01164e-05
7.26307e-05
7.26274e-05
6.01273e-05
7.26218e-05
7.26185e-05
7.25707e-05
7.25743e-05
7.25735e-05
7.25776e-05
7.25484e-05
7.2547e-05
7.2538e-05
7.25368e-05
6.00289e-05
7.26422e-05
7.26371e-05
7.26304e-05
7.26251e-05
6.0137e-05
3.27734e-05
2.32783e-05
6.73602e-05
4.11989e-05
3.27792e-05
6.73591e-05
2.32724e-05
3.27987e-05
2.32724e-05
6.73659e-05
4.107e-05
3.28047e-05
6.73638e-05
2.326e-05
6.00266e-05
7.26222e-05
7.2617e-05
6.00008e-05
7.26334e-05
7.26284e-05
3.27851e-05
6.73596e-05
4.12024e-05
2.32688e-05
6.73613e-05
3.27818e-05
2.32743e-05
3.28102e-05
6.73646e-05
4.1136e-05
2.3255e-05
6.73656e-05
3.28068e-05
2.32538e-05
7.25503e-05
7.25506e-05
7.25424e-05
7.2543e-05
6.00502e-05
7.26387e-05
7.26332e-05
6.01417e-05
7.2645e-05
7.26395e-05
3.27978e-05
2.3274e-05
4.1224e-05
6.73786e-05
6.73794e-05
2.32748e-05
3.27247e-05
3.28195e-05
2.32627e-05
4.12008e-05
6.73653e-05
6.73684e-05
2.32684e-05
3.28024e-05
3.27871e-05
6.7366e-05
2.32721e-05
4.11971e-05
3.27947e-05
6.73658e-05
2.32691e-05
3.28105e-05
6.7367e-05
2.32621e-05
4.11631e-05
3.28192e-05
6.73661e-05
2.32509e-05
6.00819e-05
7.26412e-05
7.2635e-05
7.26372e-05
7.26309e-05
6.00806e-05
7.41596e-05
3.01173e-05
7.54374e-05
3.39993e-05
7.5425e-05
3.40041e-05
7.41622e-05
7.1512e-05
5.2519e-05
6.8756e-05
7.15049e-05
5.24967e-05
7.41464e-05
3.01118e-05
7.54248e-05
3.40041e-05
7.54237e-05
7.41723e-05
3.39978e-05
7.15076e-05
5.24446e-05
6.87618e-05
5.24931e-05
7.15159e-05
7.41723e-05
7.54967e-05
3.40309e-05
3.0136e-05
7.41479e-05
7.55001e-05
3.4026e-05
7.15587e-05
6.87587e-05
5.25322e-05
5.26727e-05
7.15624e-05
7.15647e-05
5.25597e-05
6.87563e-05
7.15572e-05
5.26219e-05
7.41739e-05
3.01424e-05
7.54859e-05
3.40263e-05
7.55173e-05
3.40329e-05
7.41716e-05
7.4163e-05
7.54983e-05
3.40069e-05
3.01136e-05
7.41628e-05
7.54922e-05
3.40033e-05
7.15236e-05
6.87516e-05
5.26652e-05
5.26641e-05
7.1533e-05
7.15244e-05
5.25841e-05
6.87493e-05
7.15148e-05
5.25301e-05
7.41692e-05
3.01197e-05
7.54919e-05
3.40076e-05
7.55134e-05
3.40117e-05
7.41606e-05
6.01679e-05
7.26351e-05
7.26381e-05
7.26276e-05
7.26306e-05
6.00371e-05
3.28068e-05
2.32988e-05
6.73752e-05
4.11699e-05
6.73721e-05
3.28118e-05
2.32971e-05
3.27839e-05
2.32945e-05
6.73582e-05
4.12058e-05
2.32922e-05
3.27886e-05
6.73573e-05
6.00871e-05
7.26208e-05
7.26235e-05
7.26302e-05
6.01012e-05
7.26331e-05
3.28206e-05
6.73702e-05
4.11945e-05
2.3302e-05
6.73724e-05
2.33035e-05
3.28152e-05
3.27979e-05
6.73587e-05
4.12203e-05
2.32952e-05
2.32975e-05
6.73596e-05
3.27927e-05
7.25399e-05
7.25381e-05
7.25513e-05
7.25527e-05
5.99456e-05
7.26263e-05
7.26292e-05
5.99894e-05
7.26288e-05
7.26317e-05
3.28253e-05
2.3315e-05
4.12573e-05
6.73719e-05
2.33171e-05
6.73732e-05
3.28152e-05
3.28024e-05
2.32965e-05
4.11949e-05
6.73594e-05
6.73609e-05
2.33011e-05
3.27921e-05
3.28166e-05
6.73723e-05
2.33102e-05
4.13113e-05
2.33098e-05
3.28257e-05
6.7372e-05
3.27941e-05
6.73607e-05
2.33003e-05
4.12483e-05
3.28032e-05
6.73599e-05
2.32972e-05
5.99845e-05
7.26206e-05
7.26234e-05
7.26182e-05
7.2621e-05
5.9992e-05
7.25374e-05
7.25402e-05
7.41959e-05
3.00048e-05
7.54277e-05
3.37118e-05
7.5429e-05
3.37212e-05
7.41952e-05
7.16966e-05
5.30601e-05
6.88522e-05
7.16851e-05
5.30651e-05
7.41678e-05
3.00039e-05
7.54289e-05
3.37871e-05
7.54278e-05
7.41515e-05
3.37259e-05
7.16943e-05
5.31444e-05
6.88565e-05
5.31206e-05
7.17056e-05
7.41513e-05
3.35942e-05
7.54287e-05
3.00905e-05
7.4158e-05
3.36302e-05
7.54275e-05
7.15519e-05
6.87612e-05
5.26804e-05
5.27272e-05
7.15592e-05
7.15554e-05
5.25916e-05
6.87576e-05
7.15491e-05
5.25597e-05
7.41646e-05
3.00953e-05
3.36046e-05
7.54275e-05
3.36466e-05
7.54286e-05
7.41386e-05
7.41843e-05
7.54288e-05
3.36945e-05
2.99489e-05
7.42089e-05
7.54276e-05
3.36314e-05
7.17069e-05
6.88668e-05
5.32059e-05
5.3089e-05
7.17171e-05
7.17119e-05
5.3145e-05
6.88604e-05
7.17026e-05
5.31012e-05
7.41791e-05
2.99474e-05
7.54271e-05
3.36912e-05
7.54285e-05
3.36899e-05
7.41798e-05
7.41545e-05
3.00924e-05
3.36704e-05
7.54238e-05
3.36406e-05
7.5425e-05
7.41453e-05
7.15335e-05
5.25865e-05
6.87431e-05
5.25967e-05
7.15248e-05
7.41496e-05
3.00861e-05
3.35928e-05
7.54248e-05
3.35581e-05
7.41609e-05
7.54236e-05
7.15306e-05
5.25925e-05
6.87523e-05
5.2621e-05
7.15398e-05
7.41845e-05
3.01052e-05
7.54533e-05
3.37268e-05
7.54576e-05
3.37123e-05
7.41759e-05
7.15461e-05
5.26364e-05
6.88006e-05
7.15463e-05
5.26427e-05
7.41827e-05
3.00978e-05
7.5473e-05
3.36177e-05
7.41756e-05
7.54511e-05
3.36864e-05
7.15353e-05
5.26032e-05
6.87961e-05
5.2653e-05
7.15369e-05
7.41396e-05
3.36536e-05
7.54249e-05
3.00895e-05
7.41466e-05
3.35891e-05
7.54462e-05
7.15476e-05
6.87567e-05
5.27777e-05
5.27766e-05
7.15588e-05
7.15505e-05
5.27611e-05
6.87524e-05
7.15394e-05
5.27555e-05
7.41512e-05
3.00958e-05
3.36502e-05
7.54691e-05
3.36611e-05
7.54865e-05
7.41799e-05
7.41717e-05
7.54769e-05
3.37233e-05
3.01026e-05
7.41782e-05
7.54617e-05
3.36583e-05
7.15235e-05
6.87831e-05
5.25448e-05
5.26282e-05
7.15263e-05
7.15328e-05
5.26425e-05
6.87832e-05
7.15283e-05
5.26562e-05
7.41692e-05
3.01087e-05
7.54684e-05
3.3698e-05
7.54705e-05
3.37052e-05
7.41739e-05
6.01521e-05
7.26558e-05
7.26503e-05
7.26484e-05
7.26432e-05
6.02368e-05
3.28333e-05
2.3356e-05
6.7443e-05
4.17872e-05
6.74416e-05
3.28427e-05
2.33501e-05
3.28027e-05
2.32768e-05
6.73604e-05
4.10826e-05
2.32725e-05
3.28121e-05
6.7358e-05
6.0122e-05
7.26526e-05
7.26478e-05
7.26571e-05
6.02289e-05
7.26521e-05
3.28418e-05
6.74534e-05
4.17728e-05
2.33447e-05
6.74478e-05
2.33517e-05
3.2835e-05
3.28114e-05
6.73575e-05
4.11611e-05
2.32735e-05
2.32768e-05
6.73592e-05
3.28048e-05
7.25435e-05
7.25408e-05
7.26227e-05
7.2629e-05
6.03436e-05
7.26497e-05
7.2644e-05
6.02875e-05
7.26583e-05
7.26526e-05
3.28471e-05
2.3328e-05
4.15196e-05
6.74337e-05
2.33362e-05
6.74364e-05
3.28384e-05
3.26826e-05
2.32694e-05
4.11783e-05
6.73551e-05
6.73573e-05
2.32758e-05
3.26375e-05
3.28382e-05
6.74464e-05
2.33452e-05
4.15119e-05
2.33356e-05
3.28451e-05
6.74377e-05
3.28103e-05
6.73576e-05
2.32772e-05
4.11444e-05
3.2815e-05
6.73559e-05
2.32737e-05
6.0216e-05
7.26571e-05
7.26514e-05
7.26505e-05
7.26449e-05
6.03136e-05
7.25371e-05
7.25396e-05
7.41814e-05
3.00337e-05
3.3492e-05
7.54288e-05
3.35471e-05
7.54275e-05
7.41803e-05
7.15408e-05
5.25317e-05
6.87737e-05
5.24628e-05
7.15366e-05
7.41771e-05
3.00295e-05
3.3585e-05
7.54231e-05
3.35245e-05
7.41761e-05
7.54221e-05
7.15346e-05
5.25499e-05
6.87715e-05
5.25586e-05
7.15401e-05
7.41705e-05
3.00467e-05
3.36249e-05
7.54386e-05
3.36441e-05
7.54501e-05
7.41705e-05
7.15281e-05
5.24388e-05
6.87857e-05
7.1525e-05
5.24941e-05
7.41688e-05
3.00421e-05
3.36654e-05
7.54237e-05
7.41769e-05
3.36388e-05
7.54225e-05
7.15191e-05
5.257e-05
6.8788e-05
5.24533e-05
7.15259e-05
7.41756e-05
3.35787e-05
7.54442e-05
3.0027e-05
7.41847e-05
3.35721e-05
7.54489e-05
7.15293e-05
6.87706e-05
5.24242e-05
5.24141e-05
7.15316e-05
7.15404e-05
5.26211e-05
6.87676e-05
7.15349e-05
5.25733e-05
7.41716e-05
3.00305e-05
3.3489e-05
7.54591e-05
3.35527e-05
7.54577e-05
7.41665e-05
7.41837e-05
3.36291e-05
7.5457e-05
3.00405e-05
7.41767e-05
3.36205e-05
7.54893e-05
7.15219e-05
6.87747e-05
5.24916e-05
5.2511e-05
7.15317e-05
7.15261e-05
5.25429e-05
6.87772e-05
7.152e-05
5.24245e-05
7.41874e-05
3.00453e-05
3.35707e-05
7.54669e-05
3.35999e-05
7.5472e-05
7.41811e-05
7.25695e-05
7.25669e-05
7.25697e-05
7.25658e-05
6.0405e-05
7.26431e-05
7.26394e-05
6.03525e-05
7.26529e-05
7.26491e-05
3.28089e-05
2.33065e-05
4.12706e-05
6.73678e-05
2.331e-05
6.73692e-05
3.27982e-05
3.28362e-05
2.32975e-05
4.11689e-05
6.73762e-05
2.33003e-05
6.73763e-05
3.28255e-05
3.27984e-05
6.73696e-05
2.33073e-05
4.1258e-05
3.28024e-05
2.33048e-05
6.73682e-05
3.28259e-05
6.73764e-05
2.32984e-05
4.1209e-05
3.28299e-05
2.32955e-05
6.73752e-05
6.03039e-05
7.26476e-05
7.26439e-05
7.26462e-05
7.26424e-05
6.00371e-05
7.25635e-05
7.25671e-05
7.25604e-05
7.25634e-05
2.13232e-05
2.1323e-05
2.10275e-05
2.13234e-05
2.13236e-05
2.15614e-05
2.15614e-05
2.23749e-05
2.04331e-05
2.04101e-05
2.01534e-05
2.2375e-05
2.04094e-05
2.04302e-05
2.23686e-05
2.0157e-05
2.0436e-05
2.04508e-05
2.0436e-05
2.04298e-05
2.23636e-05
2.24048e-05
2.01769e-05
2.0459e-05
2.04272e-05
2.04986e-05
2.04336e-05
2.24005e-05
2.2395e-05
2.01798e-05
2.04701e-05
2.0421e-05
2.04959e-05
2.04434e-05
2.23903e-05
2.2369e-05
2.01882e-05
2.04124e-05
2.04133e-05
2.23646e-05
2.04103e-05
2.04209e-05
2.2363e-05
2.04493e-05
2.04225e-05
2.02065e-05
2.2368e-05
2.04144e-05
2.04142e-05
2.23731e-05
2.02001e-05
2.04636e-05
2.04382e-05
2.04359e-05
2.04406e-05
2.23695e-05
2.24032e-05
2.0449e-05
2.04513e-05
2.01636e-05
2.04547e-05
2.24062e-05
2.04505e-05
2.2417e-05
2.01452e-05
2.04552e-05
2.04649e-05
2.04925e-05
2.04781e-05
2.24108e-05
2.2393e-05
2.04706e-05
2.04176e-05
2.01856e-05
2.04105e-05
2.23965e-05
2.04843e-05
2.24052e-05
2.0193e-05
2.04206e-05
2.04349e-05
2.0454e-05
2.04233e-05
2.2398e-05
2.24009e-05
2.01809e-05
2.04349e-05
2.0431e-05
2.04688e-05
2.044e-05
2.23977e-05
2.10274e-05
2.13231e-05
2.13226e-05
2.1323e-05
2.13225e-05
2.15612e-05
2.15613e-05
2.10271e-05
2.13223e-05
2.13234e-05
2.13222e-05
2.13234e-05
2.15611e-05
2.15612e-05
2.10261e-05
2.1323e-05
2.13225e-05
2.13232e-05
2.13225e-05
2.1561e-05
2.1561e-05
2.10262e-05
2.13229e-05
2.13227e-05
2.13232e-05
2.13229e-05
2.15613e-05
2.15612e-05
2.13227e-05
2.13235e-05
2.10277e-05
2.13234e-05
2.13235e-05
2.15612e-05
2.15612e-05
2.13232e-05
2.13227e-05
2.10262e-05
2.13232e-05
2.13227e-05
2.1561e-05
2.1561e-05
2.1323e-05
2.13228e-05
2.10263e-05
2.13233e-05
2.13229e-05
2.1561e-05
2.1561e-05
2.10273e-05
2.13235e-05
2.13236e-05
2.13234e-05
2.13236e-05
2.15614e-05
2.15615e-05
2.10276e-05
2.13233e-05
2.13234e-05
2.13234e-05
2.13234e-05
2.15612e-05
2.15614e-05
2.10262e-05
2.13229e-05
2.13227e-05
2.13228e-05
2.13226e-05
2.15611e-05
2.15611e-05
2.10262e-05
2.13233e-05
2.13227e-05
2.1323e-05
2.13228e-05
2.15611e-05
2.15612e-05
1.99968e-05
2.0581e-05
2.12088e-05
1.9997e-05
2.12081e-05
1.99829e-05
2.00262e-05
2.01504e-05
2.09502e-05
2.38711e-05
2.90457e-05
2.01467e-05
2.09534e-05
2.38668e-05
1.99882e-05
2.05846e-05
2.11981e-05
1.99929e-05
1.99849e-05
2.12013e-05
1.99621e-05
2.01521e-05
2.38707e-05
2.90546e-05
2.09576e-05
2.09578e-05
2.38742e-05
2.01683e-05
2.00124e-05
2.06098e-05
1.99954e-05
2.12003e-05
2.00383e-05
2.12029e-05
2.00316e-05
2.01513e-05
2.0919e-05
2.38826e-05
2.90368e-05
2.01479e-05
2.09029e-05
2.38758e-05
2.00057e-05
2.05958e-05
1.99839e-05
2.12034e-05
1.99814e-05
2.00059e-05
2.12004e-05
2.01734e-05
2.38742e-05
2.90448e-05
2.09344e-05
2.09174e-05
2.38807e-05
2.01425e-05
2.23855e-05
2.01575e-05
2.04219e-05
2.04281e-05
2.04182e-05
2.04351e-05
2.23851e-05
2.23652e-05
2.01916e-05
2.042e-05
2.04252e-05
2.23718e-05
2.04215e-05
2.04171e-05
2.00167e-05
2.12487e-05
1.99773e-05
2.05866e-05
2.00104e-05
2.12562e-05
2.00006e-05
2.01489e-05
2.09046e-05
2.90465e-05
2.38859e-05
2.09192e-05
2.38904e-05
2.01469e-05
2.01518e-05
2.38896e-05
2.09039e-05
2.90377e-05
2.08978e-05
2.01832e-05
2.38842e-05
2.0037e-05
2.06232e-05
2.12565e-05
2.00213e-05
2.126e-05
2.00277e-05
1.99972e-05
1.99959e-05
2.12642e-05
2.00141e-05
2.05849e-05
2.0022e-05
2.12612e-05
1.99925e-05
2.01319e-05
2.09087e-05