/*--------------------------------*- C++ -*----------------------------------*\
| =========                 |                                                 |
| \\      /  F ield         | OpenFOAM: The Open Source CFD Toolbox           |
|  \\    /   O peration     | Version:  v1906                                 |
|   \\  /    A nd           | Web:      www.OpenFOAM.com                      |
|    \\/     M anipulation  |                                                 |
\*---------------------------------------------------------------------------*/
FoamFile
{
    version     2.0;
    format      ascii;
    class       surfaceScalarField;
    location    "50";
    object      phi;
}
// * * * * * * * * * * * * * * * * * * * * * * * * * * * * * * * * * * * * * //

dimensions      [0 3 -1 0 0 0 0];
oriented        oriented;


internalField   nonuniform List<scalar> 
124860
(
-1.27263e-06
-1.2624e-06
-0.000268761
2.78988e-07
2.14439e-07
-3.94354e-08
8.89673e-09
-1.28207e-06
2.84963e-07
-3.0805e-07
-9.48197e-07
2.69752e-07
-3.15706e-07
9.37404e-07
-0.00110366
1.28569e-06
1.17826e-10
-0.0011041
3.37203e-09
-1.28279e-06
3.01601e-07
-3.02904e-07
-9.45886e-07
3.00293e-07
-3.05017e-07
9.45739e-07
-1.24624e-06
-0.000268779
2.45216e-07
2.50551e-07
9.08221e-09
3.45293e-08
-1.23302e-06
3.12824e-07
-2.89208e-07
-9.34568e-07
3.31231e-07
-2.8782e-07
9.48294e-07
-0.0011047
1.28009e-06
4.60796e-09
-6.28817e-10
-1.27743e-06
3.01189e-07
-3.03208e-07
-9.42568e-07
3.00457e-07
-3.04311e-07
9.42919e-07
-0.00110377
-1.41929e-09
-0.00110445
4.10854e-09
-1.24367e-06
2.9315e-07
-2.94547e-07
-9.39937e-07
2.97873e-07
-3.01949e-07
9.40883e-07
1.27502e-06
2.56882e-09
-0.00110356
2.03848e-09
-1.27177e-06
2.96257e-07
-2.97083e-07
-9.41951e-07
2.98214e-07
-3.03931e-07
9.4387e-07
-1.24094e-06
-0.000268739
2.4523e-07
2.50049e-07
8.60432e-10
1.4706e-08
-1.23806e-06
2.92842e-07
-2.94807e-07
-9.3999e-07
3.00186e-07
-3.04916e-07
9.40022e-07
-0.00110411
1.23877e-06
-1.05397e-09
-0.00110463
6.58844e-09
-1.2405e-06
2.9387e-07
-2.97052e-07
-9.39851e-07
3.00761e-07
-3.04873e-07
9.41172e-07
-0.000268755
2.45681e-07
2.50815e-07
-2.02661e-09
2.70871e-08
-0.00110642
-0.00110643
-1.13279e-09
-1.99968e-10
-5.33321e-09
2.23201e-08
-0.00110606
-0.00110625
-1.62809e-09
9.0084e-09
-2.04045e-08
-9.35331e-09
-0.000103788
-2.23188e-08
-7.93779e-09
-0.000103781
-2.79884e-08
-1.29787e-08
-0.000300771
1.5138e-08
-3.25304e-08
-8.0738e-08
-0.000300752
1.80754e-08
1.81139e-10
6.69815e-08
-3.10544e-08
4.00828e-10
0.00024826
-0.000248297
-4.78621e-08
-0.00020844
7.81974e-09
1.16968e-10
-6.76461e-08
-0.000248261
3.1536e-08
-1.27957e-10
6.68788e-08
-3.10566e-08
5.50782e-10
0.000248301
-0.000248338
-4.77985e-08
8.53014e-09
-0.000208481
5.55177e-09
4.88868e-08
-6.19269e-09
-9.40745e-09
0.00020848
-0.000208513
-6.75418e-08
-0.000248302
3.12947e-08
1.39398e-10
1.51926e-09
1.5795e-09
1.92803e-07
0.000262205
-0.000262334
-1.14515e-07
-0.000263083
-1.11119e-08
-0.00110102
-3.00903e-09
-4.02422e-09
-1.01399e-06
8.29279e-07
-8.31483e-07
1.01025e-06
3.50783e-09
1.16815e-09
1.01054e-06
-8.2853e-07
-1.01157e-06
8.29376e-07
-0.00110102
-3.24025e-09
-1.4499e-09
-0.000262205
-1.76597e-09
-1.88425e-07
1.04395e-09
1.92906e-07
0.000262239
-0.000262365
3.58246e-09
-1.28251e-06
-8.60224e-11
9.45851e-07
-3.04951e-07
-9.46505e-07
3.00388e-07
1.28557e-06
-3.02837e-07
3.01539e-07
-0.0011041
3.07088e-08
-1.27437e-07
-0.000263102
-1.38377e-08
-0.00110117
1.634e-09
-1.01145e-06
8.29279e-07
-8.28897e-07
1.01317e-06
-3.00851e-08
1.18218e-08
1.3108e-07
0.000263103
-0.000263167
1.23218e-09
1.01355e-06
-8.28743e-07
-1.01185e-06
8.29388e-07
-0.00110116
-0.000262239
-9.29356e-10
-1.90986e-07
-1.93457e-08
-0.000103797
1.95159e-08
0.000103796
-0.000103822
1.24328e-06
0.000268779
-2.42583e-07
-2.47249e-07
-0.000270815
-4.80419e-08
-0.000300719
1.91716e-08
2.21886e-08
-2.73541e-08
-4.7995e-08
-0.000300848
1.84855e-08
-1.79201e-08
5.03608e-08
0.000300721
-0.000300764
-2.24777e-08
2.70427e-08
-1.8209e-08
4.97105e-08
0.000300848
-0.000300885
-9.02522e-09
-0.000103789
7.16122e-09
0.000103787
-0.000103816
-5.02815e-08
-0.000208462
6.32731e-09
-6.80882e-08
-9.06734e-10
-0.000248297
3.54957e-10
2.91316e-08
-1.38332e-07
-0.000263113
-1.59081e-08
-2.44082e-10
7.66355e-10
-1.00524e-06
8.26536e-07
-8.2291e-07
1.01053e-06
-0.00110091
-2.21122e-09
-0.000262222
-1.16232e-09
-1.94079e-07
-4.96332e-08
8.01481e-09
-0.000208425
6.31956e-09
-6.7499e-08
-0.000248251
2.85697e-08
-6.93485e-10
6.32821e-09
-1.00828e-06
8.26413e-07
-8.23058e-07
1.01019e-06
-0.00110089
2.97981e-08
-1.22396e-07
-0.00026301
-1.54945e-08
-0.000262195
-1.91218e-07
-1.38775e-09
-6.75891e-08
2.5909e-09
1.53684e-09
1.90736e-07
0.000262234
-0.000262361
3.90742e-09
4.10686e-09
1.24637e-06
-2.94364e-07
2.93142e-07
9.4042e-07
-3.02029e-07
-9.40656e-07
2.97726e-07
-0.00110445
4.98279e-08
-1.27609e-07
-0.000263151
-1.28325e-08
-0.00110095
-1.98797e-09
9.40278e-10
-1.00843e-06
8.26635e-07
-8.25798e-07
1.01042e-06
-5.19331e-08
1.14222e-08
1.30985e-07
0.000263151
-0.000263214
4.79659e-09
6.57296e-09
1.01043e-06
-8.26188e-07
-1.00908e-06
8.26396e-07
-0.00110096
6.73046e-08
-1.15694e-09
-0.000262232
-1.82672e-09
-1.9112e-07
8.50245e-10
-2.76996e-10
-3.09339e-08
0.000248303
-0.00024834
-0.000208479
5.58799e-09
-8.83117e-09
0.00020848
-0.000208516
6.70949e-10
-0.000248303
-8.35883e-10
3.11281e-08
-6.73662e-08
1.87656e-07
1.97984e-09
0.000262209
-0.000262329
2.04967e-09
-1.27156e-06
3.14134e-09
9.43882e-07
-3.04208e-07
-9.42738e-07
3.00858e-07
1.27492e-06
-2.97012e-07
2.96171e-07
-0.00110357
-0.0011009
5.97443e-10
-1.00819e-06
8.27071e-07
-8.25681e-07
1.01072e-06
4.91015e-08
2.9915e-08
-1.25717e-07
-0.000263082
-1.43465e-08
5.84662e-09
1.01086e-06
-8.25904e-07
-1.00882e-06
8.26741e-07
-0.0011009
-4.90767e-08
-3.03256e-08
1.17616e-08
1.28048e-07
0.000263081
-0.000263142
6.78291e-08
-0.000262209
-1.88931e-07
-4.12788e-10
-3.113e-08
9.39628e-10
0.000248262
-0.000248298
8.27394e-09
-0.000208413
6.58835e-09
-8.12603e-09
-7.2994e-09
0.000208413
-0.000208446
-0.000248262
3.16555e-08
1.11116e-09
-2.17257e-08
-0.000103818
-4.85594e-08
-0.000300648
1.46911e-08
1.98719e-08
-3.00251e-08
-5.09083e-08
-0.000300795
1.74619e-08
-7.75595e-09
-0.000103778
1.60034e-09
-7.02814e-08
1.93338e-07
1.37011e-09
0.000262196
-0.000262322
-0.00110064
-7.5245e-09
8.74747e-10
-1.00602e-06
8.21441e-07
-8.23449e-07
1.0048e-06
4.80038e-08
-1.27643e-07
-0.000263086
-1.39254e-08
-9.67114e-09
1.15391e-09
1.00776e-06
-8.20881e-07
-1.00367e-06
8.23804e-07
-0.00110063
-1.38932e-08
-6.28771e-10
7.01214e-08
-0.000262196
-1.93723e-07
-1.85417e-09
-7.04602e-08
1.93264e-07
8.00876e-10
0.000262231
-0.000262353
1.9771e-09
-1.23764e-06
-8.2494e-10
9.41181e-07
-3.05078e-07
-9.40519e-07
3.00548e-07
1.24138e-06
-2.94403e-07
2.93667e-07
-0.00110463
-0.00110079
4.34167e-10
-1.00301e-06
8.21516e-07
-8.20742e-07
1.00503e-06
4.75727e-08
3.03431e-08
-1.27517e-07
-0.000263094
-1.37464e-08
4.84433e-10
1.0054e-06
-8.20759e-07
-1.00352e-06
8.21342e-07
-0.0011008
-5.03885e-08
-3.02009e-08
1.21654e-08
1.31597e-07
0.000263094
-0.000263157
6.99942e-08
-0.000262231
-1.93837e-07
3.60261e-10
-7.90006e-11
1.05342e-09
-2.87293e-08
0.000248252
-0.000248294
-0.000208423
6.60103e-09
-3.45701e-11
-0.000248251
1.73692e-10
2.95677e-08
4.72657e-10
-2.93912e-08
0.000248292
-0.000248333
9.10856e-09
-0.000208464
5.5281e-09
-7.14617e-09
-8.82258e-09
0.000208465
-0.0002085
-0.000248291
3.75086e-10
2.89465e-08
0.000268758
-2.41739e-07
-2.47627e-07
-0.000270778
2.09453e-08
-5.09972e-08
-0.000300797
1.33024e-08
1.93369e-08
-4.77166e-08
-0.000300731
1.51675e-08
-1.99489e-08
-1.61299e-08
5.15372e-08
0.000300796
-0.000300842
-2.14802e-08
-1.52689e-08
5.00134e-08
0.00030073
-0.000300774
-0.000103767
0.000103766
-0.000103794
-0.000103778
0.000103779
-0.000103808
2.17383e-08
6.44796e-09
-0.000103817
1.99707e-08
8.17396e-09
-0.000103809
-3.85641e-08
4.64399e-08
0.000239535
-3.51329e-08
8.04279e-08
-0.000239588
-0.000265794
-1.6576e-08
3.4012e-08
-3.35423e-08
-1.98723e-08
5.70856e-08
3.21509e-08
-0.000300819
-0.000196502
-1.38964e-08
1.18632e-08
-1.73847e-08
-0.000196543
1.30845e-07
5.52389e-08
-0.000265877
-3.89824e-08
-2.03418e-08
-2.87824e-08
1.84693e-08
0.000239506
-1.75355e-08
5.55839e-08
-0.000239534
-0.000265744
7.82654e-08
-2.42827e-07
-5.73898e-08
-1.35283e-08
3.87816e-08
2.73087e-08
-0.000300784
-0.000196467
-5.50342e-08
2.07847e-08
-1.52123e-08
-0.000196494
6.99597e-08
4.18481e-08
-0.000265799
8.91341e-08
-1.21476e-07
-1.02404e-08
-1.04552e-08
0.000233179
-0.000233211
-8.55167e-05
-1.29764e-08
-8.55059e-05
-9.00553e-09
-8.55443e-05
-8.55315e-05
-0.00015376
7.58337e-10
-3.13463e-08
0.00015379
1.03844e-09
2.22286e-09
0.000184587
-2.95872e-10
-0.00018462
-3.07791e-08
0.000242461
6.8214e-08
-0.000242499
2.01558e-10
3.14006e-08
-4.47986e-12
0.000248296
1.31884e-10
-6.77401e-08
-0.00015379
1.16453e-09
0.000184619
-3.51911e-10
0.000242498
-6.91848e-08
1.44442e-09
3.15508e-08
8.32777e-05
-4.26084e-10
-8.33088e-05
-9.30219e-09
5.12036e-08
-0.000208476
-0.000285816
2.95294e-08
-1.45551e-09
-6.54525e-08
-8.40659e-11
6.47881e-08
-0.000285858
-4.53128e-11
-1.63583e-09
3.14061e-08
0.00015376
-3.05661e-08
4.53301e-11
2.3991e-11
6.62334e-08
-0.000184587
-9.66241e-10
-7.24178e-11
-0.000242459
3.14199e-08
-7.162e-08
-2.57812e-10
7.03923e-08
-0.000153833
1.28265e-09
-2.91677e-08
2.72823e-10
0.00015386
2.06818e-09
0.00018462
-0.000184653
-2.89689e-08
0.000242561
2.04136e-11
7.11824e-08
-0.000242602
3.13378e-08
4.68035e-11
0.000248338
-6.78165e-08
4.55657e-10
-0.00015386
0.000184652
1.39086e-09
0.000242602
-7.20591e-08
2.9392e-08
8.3302e-05
-8.33312e-05
-2.07258e-10
-9.14286e-09
-0.000208514
-7.01786e-09
4.89995e-08
-0.000285951
2.74491e-08
-1.55289e-09
-6.55583e-08
-0.000285995
-8.34088e-11
6.48033e-08
-6.63145e-11
-8.33033e-05
-2.7588e-08
-2.8904e-08
0.000285951
6.5188e-08
-0.000285996
5.3378e-09
8.90114e-09
-4.79345e-08
-8.33318e-05
-6.53758e-08
-1.0363e-09
2.93385e-08
0.000153832
-3.08127e-08
1.71769e-10
6.63079e-08
-0.00018462
-1.09263e-09
-0.000242561
2.93968e-08
-7.19155e-08
7.05114e-08
-0.000103825
2.05278e-08
-1.99574e-08
-0.000233195
1.07832e-08
1.09492e-08
-2.65322e-08
-2.38823e-08
0.000233224
1.16045e-08
8.54945e-05
1.62596e-08
-8.55223e-05
1.17226e-08
8.55084e-05
1.62016e-08
-8.55363e-05
2.55282e-08
2.34642e-08
-0.000233221
-1.51899e-08
8.55204e-05
-1.49535e-08
8.55343e-05
3.29133e-08
-3.36891e-08
0.000239497
-0.000239539
-2.53344e-08
6.8856e-08
-0.000265711
3.26713e-08
-1.04277e-07
-4.73e-08
4.95257e-08
-1.72206e-08
-0.00030076
2.94924e-08
-0.000196462
-3.48797e-08
1.68535e-08
-0.000265782
1.04621e-07
4.93882e-08
-0.000196498
-1.50111e-08
2.64657e-08
-7.09833e-08
-3.35726e-08
3.32941e-08
0.000239566
-0.000239613
-2.34739e-08
7.10318e-08
-0.00026587
3.2415e-08
-1.04546e-07
-4.15948e-08
-1.78854e-08
4.89666e-08
-0.000300883
-2.2709e-08
2.70196e-08
-0.000196514
-3.51003e-08
1.62976e-08
-0.00019655
-1.54567e-08
-0.000265936
1.04132e-07
4.41825e-08
2.37239e-08
-7.34118e-08
-3.24775e-08
-0.000239497
3.44248e-08
-7.086e-08
3.48278e-08
0.000196461
-0.000196497
0.000265712
-3.28634e-08
4.99911e-08
1.04927e-07
-0.000265783
-4.75603e-08
1.81142e-08
-3.00428e-08
-4.69911e-08
-1.03923e-07
6.87507e-08
-0.000239538
-0.000239566
3.43001e-08
-3.22e-08
-7.30213e-08
3.51625e-08
0.000196513
-0.000196551
-3.32497e-08
0.00026587
1.04452e-07
4.42689e-08
-0.000265936
1.77051e-08
-4.74797e-08
2.24456e-08
-2.73424e-08
7.12097e-08
-0.000239612
-1.04109e-07
-4.16848e-08
-1.0598e-08
-1.0187e-08
0.000233196
-8.54948e-05
-1.09624e-08
-8.55086e-05
-1.14741e-08
-0.000103818
6.75105e-09
-8.83942e-09
2.73713e-08
8.33128e-05
-2.08832e-09
-8.33381e-05
-7.85068e-09
4.87562e-08
-0.000208495
-0.000285947
2.7767e-08
-1.10635e-09
-6.27364e-08
3.27924e-11
6.20121e-08
-0.00028599
-5.48349e-10
2.91013e-08
-1.93069e-09
0.000153811
-0.00015384
8.4044e-10
-2.88193e-08
-5.01764e-10
6.6313e-08
-0.000248335
-0.000242572
2.89188e-08
-6.98956e-08
-0.000184612
-9.37635e-10
-1.75175e-10
6.73794e-08
-0.000242609
-1.39661e-10
-0.000184643
3.21745e-08
8.33698e-05
5.8717e-10
-8.34025e-05
-8.30704e-09
-7.43394e-09
5.14431e-08
-0.000208461
-0.000285727
2.85359e-08
-7.86647e-10
-6.27008e-08
3.08366e-11
6.15071e-08
-0.000285765
1.18675e-09
-1.01076e-09
3.19756e-08
0.000153773
-0.000153803
-2.90874e-08
6.79636e-11
6.6815e-08
-0.000248289
-0.000184578
-2.03179e-09
-0.000242421
3.07203e-08
-6.89798e-08
-0.000184608
6.80277e-08
-0.000242457
-0.000153808
-2.88338e-08
2.56426e-09
-1.10826e-09
0.000153835
-2.91333e-08
0.000242583
-7.79641e-10
7.19858e-08
-0.000242626
1.21098e-09
0.00018462
5.05789e-10
-0.000184652
-8.27767e-10
3.13414e-08
0.000248339
7.81213e-10
-6.7264e-08
-4.09494e-10
-0.000153836
4.51652e-10
0.000242625
-7.17142e-08
0.000184653
7.74211e-10
3.10847e-08
8.33095e-05
-8.33422e-05
1.68676e-09
-9.33282e-09
-0.000208515
5.18509e-08
-0.000285959
2.60807e-08
-9.59977e-10
-6.56396e-08
-0.000286003
4.13226e-10
6.47904e-08
2.02832e-09
-8.33165e-05
-2.68797e-08
-2.8585e-08
0.000285959
6.56737e-08
-0.000286005
5.55567e-09
-4.96389e-08
-8.33455e-05
-6.51851e-08
3.05133e-08
8.95541e-10
0.000153806
-4.67683e-10
-3.10249e-08
8.58649e-10
6.67987e-08
-0.000242585
2.82886e-08
-7.20859e-08
-0.000184621
-3.27421e-09
1.68984e-09
7.07944e-08
1.24953e-09
-0.000153741
3.78491e-10
-2.94534e-08
2.29321e-10
0.00015377
2.62724e-09
0.000184579
-0.000184612
-2.82756e-08
0.000242472
2.68671e-10
7.10565e-08
-0.000242514
3.13779e-08
9.31729e-10
0.000248298
-6.75365e-08
6.6106e-10
-0.000153767
0.000184611
2.08837e-09
0.000242514
-7.22525e-08
2.81233e-08
8.3239e-05
-8.32664e-05
-6.93238e-10
-7.93218e-09
-0.000208446
-7.40619e-09
4.81014e-08
-0.000285841
2.97254e-08
-2.38176e-09
-6.62571e-08
-0.000285883
-8.61955e-10
6.34936e-08
-1.89975e-09
-8.32377e-05
-2.85164e-08
-2.74277e-08
0.000285836
6.44297e-08
-0.00028588
6.92164e-09
7.80969e-09
-4.80759e-08
-8.32644e-05
-6.66077e-08
-2.35651e-09
2.87642e-08
0.000153743
-3.07973e-08
8.04262e-10
6.65137e-08
-0.000184579
1.0712e-09
-0.000242472
3.09944e-08
-7.23074e-08
7.04522e-08
2.2706e-08
-0.000103848
3.20414e-08
-3.50677e-08
0.000239474
-2.48757e-08
7.19796e-08
-0.000239518
-0.000265656
2.86389e-08
-1.04691e-07
-4.6311e-08
4.83246e-08
-1.43803e-08
2.97721e-08
-0.000300689
-0.000196467
-3.60776e-08
1.56395e-08
1.0382e-07
5.04329e-08
-0.00026573
-1.47094e-08
-0.000196502
2.33341e-08
-7.25602e-08
-3.54128e-08
3.42903e-08
0.00023955
-2.67754e-08
6.7227e-08
-0.000239589
-0.00026583
3.13039e-08
-1.01974e-07
-4.36946e-08
-1.67071e-08
5.15248e-08
-2.02981e-08
2.9672e-08
-0.000300839
-0.000196513
-3.64981e-08
1.55628e-08
-1.45623e-08
-0.000196551
1.01571e-07
4.77063e-08
-0.000265894
2.55496e-08
-6.78243e-08
-1.02297e-08
-1.03178e-08
0.000233172
-0.000233203
-8.55047e-05
-1.06328e-08
-8.5521e-05
-1.0718e-08
-8.55296e-05
-8.55459e-05
7.41179e-09
-0.000103806
-0.00015375
-3.02277e-08
1.13148e-10
1.13009e-09
0.000153779
-2.79686e-08
0.000242462
7.12146e-08
-0.000242505
5.86154e-10
3.30677e-09
0.000184575
-1.54252e-09
-0.000184605
9.38704e-10
2.93717e-08
0.000248292
-3.82147e-10
-7.00635e-08
-0.000153776
1.67157e-09
1.73223e-09
0.000242506
-7.46115e-08
0.000184606
-1.35059e-09
2.81523e-08
8.32653e-05
-8.32929e-05
-5.56775e-10
-8.28375e-09
4.88438e-08
-0.000208456
-0.00028583
2.9127e-08
-1.36838e-09
-6.30692e-08
-0.000285874
-7.1051e-11
6.43644e-08
-7.04723e-10
-2.8131e-08
-8.32636e-05
-6.59327e-08
-0.000285829
-5.58203e-09
2.85017e-08
-1.83534e-09
0.000153752
2.66791e-10
-2.83971e-08
3.02851e-11
6.94437e-08
-0.000242461
3.06659e-08
-7.19002e-08
-0.000184576
-3.85196e-10
-7.98089e-10
7.35184e-08
-8.71264e-10
-0.000153828
-3.02946e-08
2.77019e-09
-1.31292e-09
0.000153857
-3.23304e-08
0.000242558
1.60486e-10
7.1671e-08
-0.000242597
2.02181e-10
0.00018461
-0.000184641
-1.45128e-10
2.87706e-08
0.000248333
-6.98726e-08
-1.95668e-09
-0.000153859
1.46758e-09
0.000242598
-7.14139e-08
0.00018464
3.3006e-08
8.32882e-05
-8.33225e-05
1.26984e-09
-8.70388e-09
-0.000208498
-7.11998e-09
4.96672e-08
-0.000285961
2.90306e-08
-2.13983e-09
-6.3183e-08
-0.000285998
-5.89017e-10
6.17728e-08
6.30088e-10
-8.32956e-05
-2.81483e-08
-3.30649e-08
0.000285956
6.28165e-08
-0.000285995
5.39527e-09
8.64547e-09
-4.67103e-08
-8.33307e-05
-6.25268e-08
3.23014e-08
-1.30223e-10
0.000153826
8.03231e-10
-2.90652e-08
6.9639e-08
-0.000242559
3.10542e-08
-7.17336e-08
-0.00018461
-1.88187e-09
7.07124e-08
-0.000233193
1.08576e-08
9.84498e-09
-2.34927e-08
-2.6549e-08
0.000233222
1.1561e-08
8.54997e-05
1.67446e-08
-8.5528e-05
1.25096e-08
8.54886e-05
1.58024e-08
-8.55169e-05
2.44162e-08
2.61228e-08
-0.000233219
-1.38506e-08
8.55244e-05
-1.49332e-08
8.55133e-05
3.05354e-08
-3.56935e-08
0.000239557
-0.000239597
-2.35217e-08
6.83163e-08
-0.000265819
3.00504e-08
-9.99138e-08
-4.46447e-08
5.13588e-08
-1.58252e-08
-0.000300843
-1.94552e-08
3.02626e-08
-0.000196501
-3.62612e-08
1.39636e-08
-0.000265885
1.01281e-07
4.67198e-08
-0.000196536
-1.67716e-08
2.41462e-08
-7.13695e-08
3.03132e-08
-3.44462e-08
0.000239497
-0.000239536
-2.52478e-08
6.91763e-08
-0.000265722
3.06313e-08
-1.04463e-07
-4.52823e-08
4.93353e-08
-1.51619e-08
-0.000300774
-2.09379e-08
2.98002e-08
-0.000196458
-3.34026e-08
1.48212e-08
-0.000265792
1.04239e-07
4.62229e-08
-0.000196492
-1.58256e-08
2.71522e-08
-7.0986e-08
-0.000239556
-2.9207e-08
3.60646e-08
-7.0677e-08
3.66803e-08
0.000196501
-0.000196537
-3.11468e-08
0.000265819
4.7153e-08
1.01574e-07
-0.000265885
-5.09253e-08
1.28459e-08
2.0618e-08
-2.97189e-08
6.87525e-08
-0.000239595
-4.43576e-08
-1.0203e-07
-0.000239496
-2.96679e-08
3.3183e-08
-7.03998e-08
3.52863e-08
0.000196458
-0.000196493
-3.09342e-08
0.000265721
4.6752e-08
1.0464e-07
-0.000265791
-4.77747e-08
1.49466e-08
1.8778e-08
-3.02602e-08
6.94787e-08
-0.000239535
-4.51497e-08
-1.04072e-07
-1.04445e-08
-1.14066e-08
0.000233195
-8.54972e-05
-1.0685e-08
-8.54861e-05
-9.84938e-09
-0.000103794
-0.000103807
1.36859e-07
1.07932e-07
0.000255857
-0.000255966
-2.37056e-07
-2.47137e-07
-0.000270792
-0.00026722
4.42518e-08
-0.000267572
2.05213e-07
-0.000267498
-0.000267931
1.25918e-07
1.23248e-07
0.000255873
-0.000255982
-2.42412e-07
-2.47112e-07
-0.000270816
-0.000267604
1.28505e-07
-0.000267232
1.25538e-07
-0.000267919
-0.000267546
1.24617e-07
1.24132e-07
0.000255845
-0.000255954
-2.42273e-07
-2.47638e-07
-0.000270765
-0.000267566
1.24795e-07
-0.000267194
1.24476e-07
-0.000267883
-0.000267511
1.23232e-07
1.23142e-07
0.000255855
-0.000255964
-2.41624e-07
-2.4732e-07
-0.000270779
-0.000267174
1.25734e-07
-0.000267615
1.2637e-07
-0.000267488
-0.000267932
-0.00111103
-2.4663e-10
-1.85941e-09
5.53221e-09
4.93786e-09
-0.00111145
6.2013e-09
-1.90188e-09
-0.00111103
-4.00897e-09
0.00111855
-1.66477e-08
-1.33911e-09
-0.00111851
-1.68922e-08
-6.75885e-09
9.60164e-10
-7.82663e-10
-1.82531e-10
-0.00110643
-0.00111107
8.08614e-11
-0.00111153
5.13107e-09
4.09678e-10
3.91133e-10
-0.00111107
6.01755e-09
1.5145e-09
-0.00111153
0.0011186
2.02984e-10
-0.00111861
2.92293e-10
2.28822e-08
-0.00111069
-0.00111107
-2.80137e-10
-2.16014e-08
5.2237e-10
-1.10641e-07
-0.00111086
-1.02884e-07
0.00111794
-1.15392e-07
-0.00111772
-1.0372e-07
-2.28446e-08
-1.47963e-09
1.48147e-08
-0.00110626
-0.00111076
1.05295e-08
-0.00111118
-5.50238e-10
2.21722e-08
-0.00111077
1.32639e-10
-0.00111127
0.00111804
-0.00111813
-0.000269181
2.12214e-07
-2.60409e-09
0.000269976
5.63064e-09
2.10208e-07
0.000263156
-0.000263296
-8.79012e-11
-6.44871e-10
0.000268039
4.84316e-09
-0.000268679
-4.54448e-10
-1.91014e-07
0.000262329
-2.38958e-11
-0.000269977
-6.32651e-09
0.000263297
1.17737e-09
0.000268677
-1.90594e-09
-1.92498e-08
-2.08355e-07
0.000270698
8.72858e-09
-0.000271427
-0.000270298
-1.23062e-08
1.35791e-07
1.39942e-08
-0.000263149
-0.000266941
-2.01454e-07
-1.09096e-09
-0.000270442
-2.51824e-10
-0.00026707
-5.44567e-09
-2.1298e-07
3.67879e-09
0.00026918
-2.12931e-11
1.89985e-07
1.25804e-10
-0.000263154
-2.09827e-07
-0.000268037
-3.10913e-10
-4.70965e-09
2.27259e-09
-0.000269234
2.12296e-07
-1.74053e-09
5.51022e-09
0.000270031
2.10469e-07
0.000263228
-2.11065e-10
-0.000263366
-1.60982e-09
0.000268069
-0.000268698
-6.77327e-10
-1.91004e-07
0.000262363
-6.37785e-09
-0.00027003
7.82603e-10
0.000263366
0.000268703
-2.03475e-07
-1.64299e-08
0.00027075
-0.000271482
6.0848e-09
-0.000270318
-1.48576e-08
1.13481e-08
1.30821e-07
-0.000263165
-0.000267019
-2.04168e-07
-1.0365e-09
-0.000267146
-1.8858e-10
-0.000270459
-5.62712e-09
-0.000270749
2.03759e-07
1.45731e-08
2.03467e-07
0.000267021
-0.000267147
1.65334e-08
0.000270318
-0.000270458
-1.33388e-08
-1.27256e-07
-0.000271482
-2.10464e-07
1.84113e-09
0.000269234
6.04801e-10
1.90047e-07
-0.000263227
-2.12579e-07
-0.000268069
1.17031e-09
-1.2847e-07
-0.000255872
-1.25561e-07
2.45207e-07
2.50342e-07
0.000267605
-1.2625e-07
-0.000267919
-1.23482e-07
0.000267232
-0.000267546
-0.000255982
-1.69206e-08
-2.00097e-07
0.00027077
1.66284e-08
-0.000271505
-0.000270345
-1.96085e-08
1.22382e-07
1.15036e-08
-0.000263171
-0.000267024
-2.09645e-07
-7.25633e-10
-0.000270485
9.07867e-11
-0.00026715
-1.31188e-08
-2.09647e-07
4.94819e-09
0.000269227
-0.000270011
3.07051e-10
1.92296e-07
1.53472e-10
-0.000262348
-0.000263225
-2.15936e-07
-0.00026805
2.17844e-09
-7.35725e-09
-0.000263367
4.04307e-09
-0.000268679
-2.02478e-07
-1.96949e-08
0.000270673
3.76412e-09
-0.000271397
-0.000270243
-1.69172e-08
1.44535e-08
1.24942e-07
-0.000263068
-0.000266869
-2.04216e-07
-8.82769e-10
-4.41133e-10
-0.000266995
-0.000270392
-2.42819e-09
1.59899e-09
-2.10041e-07
0.000269161
-0.000269957
1.89839e-07
9.25789e-10
-0.000262318
-0.000268035
1.68909e-10
-0.000263119
-2.12641e-07
-0.000268662
-0.000263261
-0.000269237
2.14757e-07
-4.69529e-09
1.57732e-08
0.000270022
2.1349e-07
0.000263245
-2.28952e-09
-0.000263382
-2.10608e-09
0.000268054
7.07607e-09
-0.000268694
-2.58109e-10
-1.90646e-07
0.000262357
5.53669e-10
-1.67274e-08
-0.000270018
3.58962e-09
0.000263384
0.000268688
-3.13662e-09
-1.93168e-08
-2.05478e-07
0.000270782
-0.000271514
1.67077e-08
-0.000270377
-1.71324e-08
1.30532e-07
1.18414e-08
-0.000263214
-0.000267045
-2.07405e-07
-3.53636e-09
-0.000270523
-0.000267176
2.12486e-09
-1.56768e-08
-0.000270781
1.71382e-08
2.06562e-07
2.05964e-07
0.000267044
-0.000267175
1.89651e-08
0.000270378
-0.000270523
-1.27217e-07
-1.30384e-08
-0.000271513
-2.12846e-07
5.21024e-09
0.000269238
2.75501e-10
1.89943e-07
1.05088e-09
-0.000263244
-2.15536e-07
-0.000268053
9.80022e-10
-5.91446e-09
4.24612e-09
-0.000269175
-1.9783e-09
2.12654e-07
3.49303e-09
0.000269972
-5.03766e-10
0.000268039
-0.00026867
2.10173e-07
0.000263158
8.96645e-10
-0.000263296
-1.88388e-07
5.20574e-10
0.00026233
-3.08184e-09
-0.000269971
0.000268673
2.08189e-09
0.000263297
-2.02195e-07
-1.62928e-08
0.000270697
-0.000271423
2.84383e-09
-0.000270294
-1.51337e-08
1.13518e-08
1.27298e-07
-0.000263142
-0.000266955
-2.05283e-07
-1.87264e-09
-0.000267081
-1.26129e-09
-0.00027044
-3.46668e-09
-0.000270695
2.04827e-07
1.48509e-08
2.02518e-07
0.000266954
-0.00026708
1.62899e-08
0.000270294
-0.000270439
-1.34628e-08
-1.25215e-07
-0.000271422
6.85413e-10
-2.10049e-07
0.000269176
1.87142e-07
1.68085e-09
-0.000268039
1.16667e-09
-0.000263158
-2.13084e-07
-0.000269172
-4.12862e-09
2.14801e-07
1.83791e-08
0.000269951
-1.82863e-09
0.000268026
3.08331e-09
-0.000268654
2.13403e-07
0.000263149
-0.000263287
-2.31445e-09
-1.90834e-07
-1.96706e-10
0.000262317
3.74941e-10
-0.000269945
-1.95044e-08
0.000268655
-7.29868e-10
3.93422e-09
0.000263285
-1.96701e-08
-2.05575e-07
0.000270708
-0.000271442
1.93871e-08
-0.000270313
-1.68613e-08
1.30517e-07
1.11359e-08
-0.000263149
-0.000266946
-2.07102e-07
-1.05449e-09
-0.000270459
-0.000267078
2.16412e-09
-1.28665e-08
2.06993e-07
-9.40707e-07
-0.000270707
1.6703e-08
-0.000266948
1.41231e-08
5.0214e-09
-2.13344e-07
0.000269173
1.90402e-07
-4.55786e-10
5.15687e-10
-0.000268026
8.90004e-10
-3.48876e-09
-0.000263147
-2.15258e-07
1.20662e-09
-0.000269221
-4.2435e-09
2.14809e-07
1.90075e-08
0.000269997
-4.07266e-09
0.000268056
-0.000268676
2.13301e-07
0.000263216
-1.97389e-09
-0.000263355
-1.90979e-07
2.58518e-10
0.000262352
-1.90101e-08
-0.000269996
0.000268681
4.28293e-09
0.000263356
-2.05518e-07
-1.60105e-08
0.000270757
-0.000271494
1.86629e-08
-0.000270332
-1.53765e-08
1.16826e-08
1.30921e-07
-0.000263157
-0.000267011
-2.07332e-07
-4.48187e-09
-0.000267144
1.49175e-09
-0.000270476
-1.90912e-08
-0.000270755
2.06623e-07
1.51957e-08
2.0601e-07
0.000267009
-0.000267142
1.60111e-08
0.000270332
-0.000270475
-1.33384e-08
-1.27034e-07
-0.000271493
3.65533e-09
-2.12955e-07
0.000269222
1.90263e-07
1.27952e-09
-0.000268055
3.44005e-09
-0.000263216
-2.15344e-07
-0.000255854
-1.25352e-07
-1.25866e-07
2.4548e-07
2.50575e-07
-1.23769e-07
0.000267174
-0.000267487
-1.23788e-07
0.000267618
-0.000267931
-0.000255963
1.84015e-09
1.46617e-09
-0.00110643
-1.30619e-09
4.66369e-09
0.00110642
-0.00110445
-1.24335e-06
-1.49291e-09
3.24846e-09
0.00110445
-2.97534e-07
1.24645e-06
2.95646e-07
9.40831e-07
-3.01599e-07
-9.39924e-07
2.97886e-07
-0.0011041
-1.23832e-06
-4.52526e-10
4.2729e-09
0.0011041
-2.95083e-07
1.24063e-06
2.92699e-07
9.40703e-07
-3.04839e-07
-9.39868e-07
3.00383e-07
-0.000270774
1.27207e-06
1.23811e-06
-2.42047e-07
-2.47885e-07
0.000268754
-1.283e-06
-1.24422e-06
0.000270789
-0.000268756
2.42847e-07
2.50607e-07
0.00110364
-1.30628e-09
-0.00110364
3.13195e-09
-1.27949e-06
3.01656e-07
-3.02617e-07
-9.42748e-07
2.95363e-07
-2.98902e-07
9.43488e-07
1.28863e-06
0.00110409
-1.40928e-09
-0.0011041
3.24389e-09
-1.28526e-06
3.04397e-07
-3.05533e-07
-9.47891e-07
3.0111e-07
-3.04176e-07
9.49574e-07
-1.24703e-06
0.000270814
-0.000268775
2.46045e-07
2.50381e-07
0.00110473
-6.62724e-10
-0.00110473
2.13243e-09
-1.24023e-06
2.96546e-07
-2.97088e-07
-9.46033e-07
3.00893e-07
-3.04735e-07
9.43849e-07
1.28034e-06
0.00110377
5.00408e-09
-0.00110377
5.10164e-09
-1.27745e-06
3.01437e-07
-3.0333e-07
-9.43093e-07
3.00404e-07
-3.05033e-07
9.43244e-07
3.78033e-09
-0.00110445
2.68379e-09
-1.24297e-06
2.96288e-07
-2.96942e-07
-9.43033e-07
2.97925e-07
9.41075e-07
-3.01876e-07
1.27527e-06
0.00110356
3.78608e-09
-0.00110357
3.81599e-09
-1.27218e-06
2.96128e-07
-2.97386e-07
-9.42595e-07
2.9797e-07
-3.04775e-07
9.43973e-07
-1.24086e-06
0.000270765
-0.000268739
2.45065e-07
2.50298e-07
1.50863e-09
-0.00110412
1.42092e-08
-1.23823e-06
2.92947e-07
-2.94826e-07
-9.40107e-07
3.00187e-07
9.40768e-07
-3.05364e-07
1.23914e-06
0.00110464
4.06373e-10
-0.00110463
7.40902e-09
-1.24077e-06
2.93701e-07
-2.97404e-07
-9.37822e-07
2.9796e-07
-3.02545e-07
9.38469e-07
-0.000268756
2.45595e-07
2.50761e-07
1.27977e-06
1.24047e-06
-2.39179e-07
-2.47214e-07
0.000268756
-1.27212e-06
-1.25685e-06
-0.000268763
2.78802e-07
2.1363e-07
0.0002708
3.46885e-09
0.00110364
-3.02897e-07
1.28247e-06
3.01069e-07
9.43365e-07
-2.98949e-07
-9.42539e-07
2.9532e-07
-1.28546e-06
-1.54282e-09
3.49511e-09
0.00110409
-3.05915e-07
1.28821e-06
3.0386e-07
9.49366e-07
-3.04317e-07
-9.47843e-07
3.00741e-07
-3.35143e-08
-0.00110366
9.82174e-09
-1.28262e-06
2.87313e-07
-3.11419e-07
-9.48365e-07
2.69708e-07
-3.18675e-07
9.348e-07
0.00110378
1.28849e-06
1.31653e-09
-0.00110409
3.84506e-09
-1.2856e-06
3.04141e-07
-3.06071e-07
-9.46258e-07
2.99918e-07
-3.05409e-07
9.45768e-07
0.00110409
-2.42044e-07
-2.47373e-07
0.000268775
-1.24614e-06
-0.000268775
2.44877e-07
2.50243e-07
0.000270815
7.22708e-09
0.00110473
-2.97318e-07
1.24382e-06
2.95998e-07
9.46646e-07
-3.04849e-07
-9.4312e-07
3.00788e-07
-1.27736e-06
-2.22079e-10
4.55206e-09
0.00110377
-3.03371e-07
1.28024e-06
3.01482e-07
9.43085e-07
-3.05248e-07
-9.43475e-07
3.00106e-07
1.07105e-08
-0.00110471
3.54386e-08
-1.23052e-06
3.09838e-07
-2.86699e-07
-9.35501e-07
3.30585e-07
-2.88901e-07
9.48377e-07
0.00110456
1.28088e-06
1.23059e-09
-0.00110377
-2.63573e-09
-1.27693e-06
3.02188e-07
-3.02883e-07
-9.44131e-07
3.00245e-07
-3.05148e-07
9.42174e-07
0.00110377
-2.31007e-09
3.22391e-09
0.00110356
-2.97435e-07
1.27478e-06
2.95567e-07
9.4428e-07
-3.01658e-07
2.98037e-07
-9.42073e-07
-7.60378e-10
-0.00110445
5.06527e-09
-1.24408e-06
2.95524e-07
-2.98055e-07
-9.40142e-07
2.97794e-07
-3.01988e-07
9.40322e-07
0.00110445
1.27524e-06
-1.35971e-09
-0.00110356
2.2602e-09
-1.27192e-06
2.9604e-07
-2.97393e-07
-9.39743e-07
2.98153e-07
-3.01772e-07
9.40942e-07
0.00110356
-2.42539e-07
-2.47448e-07
0.000268739
-1.24089e-06
-0.00026874
2.42541e-07
2.50744e-07
0.000270768
-1.33548e-09
7.50287e-09
0.00110463
-2.94806e-07
1.24124e-06
2.93022e-07
9.38834e-07
-3.0201e-07
2.98278e-07
-9.37158e-07
-2.49158e-09
-0.0011041
4.37404e-09
-1.23825e-06
2.92816e-07
-2.95014e-07
-9.3972e-07
3.01104e-07
-3.04114e-07
9.40964e-07
0.0011041
1.24137e-06
-2.27882e-09
-0.00110463
2.66852e-09
-1.23836e-06
2.93452e-07
-2.94878e-07
-9.36913e-07
2.98486e-07
-3.0156e-07
9.38372e-07
0.00110463
-0.000268753
2.45178e-07
2.50893e-07
0.000270773
-0.00110643
-1.38588e-09
-1.47351e-09
0.00110643
-0.00110643
-1.18268e-09
-1.19739e-09
0.00110605
-0.00110607
1.81995e-10
2.27308e-08
0.00110625
-0.00110626
-4.92558e-10
1.60043e-08
3.83617e-10
-6.78297e-08
0.000248296
-0.000248259
3.12428e-08
-2.16247e-10
-0.000208468
-6.96652e-09
5.13611e-08
-8.80105e-09
0.000208432
-0.000248296
5.52019e-10
6.67481e-08
0.000248259
-3.13047e-08
6.06337e-10
8.398e-09
-5.01843e-08
0.000208468
6.44766e-09
-0.000208433
-0.000103813
6.6326e-09
1.91284e-08
0.000103788
-9.29204e-09
-2.16352e-08
0.000103824
-0.000103793
-7.0236e-08
-2.87508e-10
0.000248333
-0.000248292
7.55899e-11
2.90645e-08
-0.000208497
-6.35137e-09
4.96545e-08
-9.87511e-09
0.000208463
-0.000248331
6.76007e-08
3.98341e-10
0.000248292
5.11695e-10
-2.95974e-08
9.03754e-09
-4.80897e-08
0.000208497
5.75354e-09
-0.000208464
-1.29548e-09
-1.06145e-09
0.00110643
-5.10076e-10
-9.35754e-10
0.00110605
-1.1788e-09
-2.28698e-09
0.00110625
-0.00110642
-8.13359e-10
2.7327e-08
0.00110637
-0.00110644
-1.08922e-09
4.12502e-10
0.00110644
-0.00110605
-6.57324e-09
-8.92609e-11
0.00110606
-0.00110625
-2.32267e-09
-1.94227e-09
0.00110625
6.77857e-08
-1.30606e-09
0.000262362
-0.000262235
-2.44393e-09
-1.91311e-07
-0.000263218
-2.61852e-08
-5.11438e-08
1.30274e-07
1.06566e-08
0.000263154
0.00110095
-0.00110096
4.11903e-09
5.20641e-09
1.01046e-06
-8.25952e-07
-1.0086e-06
8.26962e-07