/*--------------------------------*- C++ -*----------------------------------*\
| =========                 |                                                 |
| \\      /  F ield         | OpenFOAM: The Open Source CFD Toolbox           |
|  \\    /   O peration     | Version:  v1906                                 |
|   \\  /    A nd           | Web:      www.OpenFOAM.com                      |
|    \\/     M anipulation  |                                                 |
\*---------------------------------------------------------------------------*/
FoamFile
{
    version     2.0;
    format      ascii;
    class       volScalarField;
    location    "375";
    object      p;
}
// * * * * * * * * * * * * * * * * * * * * * * * * * * * * * * * * * * * * * //

dimensions      [0 2 -2 0 0 0 0];


internalField   nonuniform List<scalar> 
171728
(
0.0035999
0.00360022
0.00360023
0.00360328
0.00354454
0.00354496
0.00354496
0.00354795
0.00349379
0.00349376
0.00349376
0.00349652
0.00344141
0.00344142
0.00344142
0.0034442
0.00339006
0.00339007
0.00339007
0.00339282
0.00334009
0.0033401
0.0033401
0.00334282
0.00329157
0.00329159
0.00329159
0.00329426
0.00324434
0.00324437
0.00324437
0.00324701
0.00319822
0.00319824
0.00319824
0.00320086
0.00315299
0.00315301
0.00315301
0.0031556
0.00310848
0.00310851
0.0031085
0.00311107
0.00306457
0.00306459
0.00306459
0.00306713
0.00302117
0.00302119
0.00302119
0.00302371
0.00297825
0.00297827
0.00297827
0.00298077
0.00293575
0.00293575
0.00293575
0.00293826
0.00289366
0.00289367
0.00289367
0.00289615
0.00285195
0.00285194
0.00285194
0.00285443
0.00281061
0.0028106
0.00281061
0.00281307
0.00276959
0.00276957
0.00276958
0.00277204
0.00272889
0.00272887
0.00272886
0.00273133
0.00268849
0.00268845
0.00268845
0.00269091
0.00264835
0.0026483
0.0026483
0.00265075
0.00260846
0.00260841
0.00260841
0.00261085
0.00256881
0.00256875
0.00256875
0.00257118
0.00252939
0.00252933
0.00252933
0.00253175
0.00249018
0.00249012
0.00249012
0.00249253
0.00245118
0.00245113
0.00245113
0.00245352
0.00241238
0.00241233
0.00241234
0.0024147
0.00237378
0.00237373
0.00237373
0.00237608
0.00233536
0.00233532
0.00233532
0.00233765
0.00229712
0.00229709
0.00229709
0.00229939
0.00225906
0.00225903
0.00225903
0.00226131
0.00222116
0.00222114
0.00222114
0.0022234
0.00218343
0.00218341
0.00218341
0.00218565
0.00214585
0.00214583
0.00214583
0.00214806
0.00210842
0.00210841
0.00210841
0.00211061
0.00207115
0.00207113
0.00207113
0.00207332
0.002034
0.00203399
0.00203399
0.00203616
0.00199702
0.00199699
0.00199698
0.00199914
0.00196012
0.00196011
0.00196011
0.00196226
0.00192339
0.00192335
0.00192336
0.00192548
0.00188674
0.00188671
0.0018867
0.00188883
0.00185023
0.00185017
0.00185019
0.0018523
0.00181381
0.00181376
0.00181375
0.00181586
0.00177749
0.00177743
0.00177743
0.00177953
0.00174127
0.0017412
0.0017412
0.00174329
0.00170514
0.00170506
0.00170506
0.00170714
0.00166908
0.001669
0.001669
0.00167107
0.0016331
0.00163301
0.00163301
0.00163508
0.0015972
0.0015971
0.0015971
0.00159916
0.00156136
0.00156125
0.00156125
0.0015633
0.00152558
0.00152547
0.00152547
0.00152751
0.00148985
0.00148974
0.00148974
0.00149178
0.00145418
0.00145406
0.00145406
0.0014561
0.00141855
0.00141843
0.00141843
0.00142046
0.00138297
0.00138284
0.00138284
0.00138487
0.00134742
0.00134729
0.00134729
0.00134932
0.00131191
0.00131178
0.00131178
0.0013138
0.00127642
0.0012763
0.0012763
0.00127832
0.00124097
0.00124084
0.00124084
0.00124286
0.00120553
0.00120541
0.00120541
0.00120742
0.00117011
0.00117
0.00117
0.001172
0.00113471
0.0011346
0.0011346
0.0011366
0.00109931
0.00109921
0.00109921
0.00110121
0.00106393
0.00106382
0.00106382
0.00106583
0.00102855
0.00102844
0.00102845
0.00103045
0.000993147
0.000993054
0.000993053
0.00099506
0.000957783
0.000957678
0.000957678
0.000959679
0.000922351
0.000922273
0.000922274
0.000924282
0.000886981
0.000886875
0.000886874
0.000888876
0.000851521
0.000851456
0.000851457
0.000853467
0.000816119
0.000816009
0.000816008
0.000818012
0.000780604
0.000780559
0.000780559
0.000782573
0.000745195
0.000745084
0.000745083
0.000747088
0.00070963
0.000709565
0.000709566
0.00071157
0.000674139
0.000674103
0.000674101
0.000676135
0.000638566
0.000638465
0.000638465
0.00064046
0.000603069
0.000603029
0.000603029
0.000605064
0.000567229
0.000567147
0.000567146
0.000569156
0.000532256
0.000532253
0.000532254
0.000534254
0.000495747
0.000495651
0.000495648
0.000497708
0.000459948
0.000460076
0.000460073
0.000462065
0.000427257
0.000427656
0.000427651
0.000429654
0.000390712
0.000390026
0.000390023
0.000391939
0.000350334
0.00035002
0.000350015
0.000352279
0.000314307
0.000315438
0.00031544
0.00031783
0.000283108
0.000283721
0.000283717
0.000285712
0.000253665
0.000251907
0.00025191
0.000253099
0.000218089
0.000217322
0.000217323
0.000219008
0.000176512
0.000176734
0.000176735
0.000179254
0.000134938
0.000136136
0.000136133
0.000138882
9.73497e-05
9.78807e-05
9.78827e-05
0.000100201
6.3428e-05
6.34669e-05
6.34655e-05
6.53102e-05
3.18111e-05
3.09626e-05
3.09599e-05
3.24499e-05
5.63068e-06
6.3885e-06
6.38728e-06
4.8013e-06
0.0036133
0.00361353
0.00361353
0.0036133
0.00361353
0.00361353
0.00361429
0.00361429
0.00361429
0.00361429
0.00361353
0.00361353
0.0036133
0.00361353
0.00361353
0.0036133
0.00360328
0.00355452
0.00360022
0.00360022
0.0035568
0.0035568
0.00360328
0.00355452
0.00360023
0.00360022
0.0035568
0.0035568
0.00360022
0.0035568
0.0035568
0.00360328
0.00355452
0.00360023
0.0035568
0.0035568
0.00355452
0.00354795
0.00350344
0.00354496
0.00354496
0.00350689
0.00350689
0.00354795
0.00350344
0.00354496
0.00354496
0.00350689
0.00350689
0.00354496
0.00350689
0.00350689
0.00354795
0.00350344
0.00354496
0.00350689
0.00350689
0.00350344
0.00349652
0.00345108
0.00349376
0.00349376
0.00345444
0.00345444
0.00349652
0.00345108
0.00349376
0.00349376
0.00345444
0.00345444
0.00349376
0.00345444
0.00345444
0.00349652
0.00345108
0.00349376
0.00345444
0.00345444
0.00345108
0.0034442
0.00339953
0.00344142
0.00344142
0.00340279
0.00340279
0.0034442
0.00339953
0.00344142
0.00344142
0.00340279
0.00340279
0.00344142
0.00340279
0.00340279
0.0034442
0.00339953
0.00344142
0.00340279
0.00340279
0.00339953
0.00339282
0.00334932
0.00339007
0.00339007
0.00335246
0.00335245
0.00339282
0.00334932
0.00339007
0.00339007
0.00335246
0.00335245
0.00339007
0.00335245
0.00335246
0.00339282
0.00334932
0.00339007
0.00335245
0.00335246
0.00334932
0.00334282
0.00330057
0.0033401
0.0033401
0.00330359
0.00330358
0.00334282
0.00330057
0.0033401
0.00334011
0.00330359
0.00330358
0.0033401
0.00330358
0.00330359
0.00334282
0.00330057
0.0033401
0.00330358
0.00330359
0.00330057
0.00329427
0.00325314
0.00329158
0.00329159
0.00325606
0.00325606
0.00329427
0.00325315
0.00329158
0.00329159
0.00325606
0.00325606
0.00329158
0.00325606
0.00325606
0.00329427
0.00325315
0.00329158
0.00325606
0.00325606
0.00325314
0.00324702
0.00320685
0.00324436
0.00324436
0.00320968
0.00320967
0.00324701
0.00320685
0.00324435
0.00324436
0.00320968
0.00320968
0.00324436
0.00320967
0.00320968
0.00324701
0.00320685
0.00324436
0.00320968
0.00320968
0.00320685
0.00320086
0.00316147
0.00319823
0.00319824
0.00316425
0.00316424
0.00320086
0.00316147
0.00319823
0.00319824
0.00316425
0.00316424
0.00319823
0.00316424
0.00316424
0.00320086
0.00316148
0.00319823
0.00316424
0.00316424
0.00316148
0.0031556
0.00311685
0.003153
0.00315301
0.00311957
0.00311957
0.0031556
0.00311685
0.003153
0.00315301
0.00311957
0.00311957
0.00315301
0.00311957
0.00311957
0.0031556
0.00311685
0.00315301
0.00311957
0.00311957
0.00311684
0.00311106
0.00307284
0.0031085
0.00310851
0.00307551
0.00307552
0.00311107
0.00307283
0.0031085
0.0031085
0.00307551
0.00307552
0.0031085
0.00307552
0.00307552
0.00311106
0.00307283
0.0031085
0.00307552
0.00307552
0.00307283
0.00306713
0.00302934
0.0030646
0.00306459
0.003032
0.003032
0.00306713
0.00302934
0.0030646
0.00306459
0.003032
0.003032
0.00306458
0.003032
0.003032
0.00306713
0.00302934
0.00306458
0.003032
0.00303199
0.00302934
0.00302371
0.00298633
0.00302119
0.00302119
0.00298895
0.00298895
0.0030237
0.00298633
0.00302119
0.00302119
0.00298895
0.00298894
0.0030212
0.00298895
0.00298895
0.0030237
0.00298633
0.0030212
0.00298894
0.00298895
0.00298633
0.00298077
0.00294377
0.00297827
0.00297827
0.00294634
0.00294635
0.00298077
0.00294377
0.00297827
0.00297827
0.00294634
0.00294635
0.00297826
0.00294635
0.00294635
0.00298077
0.00294377
0.00297826
0.00294635
0.00294635
0.00294377
0.00293826
0.00290162
0.00293576
0.00293574
0.00290415
0.00290415
0.00293825
0.00290162
0.00293576
0.00293575
0.00290415
0.00290415
0.00293576
0.00290415
0.00290415
0.00293825
0.00290162
0.00293576
0.00290415
0.00290415
0.00290162
0.00289615
0.00285984
0.00289366
0.00289367
0.00286233
0.00286234
0.00289615
0.00285984
0.00289366
0.00289367
0.00286233
0.00286235
0.00289366
0.00286234
0.00286234
0.00289615
0.00285984
0.00289366
0.00286235
0.00286234
0.00285984
0.00285443
0.00281844
0.00285195
0.00285194
0.0028209
0.0028209
0.00285443
0.00281844
0.00285195
0.00285194
0.0028209
0.0028209
0.00285195
0.0028209
0.0028209
0.00285442
0.00281844
0.00285195
0.0028209
0.0028209
0.00281844
0.00281307
0.00277737
0.00281061
0.0028106
0.00277981
0.00277981
0.00281307
0.00277737
0.00281061
0.00281061
0.00277981
0.00277981
0.0028106
0.00277981
0.00277981
0.00281307
0.00277737
0.0028106
0.00277981
0.00277981
0.00277737
0.00277204
0.00273662
0.00276957
0.00276957
0.00273901
0.00273901
0.00277204
0.00273661
0.00276957
0.00276958
0.00273901
0.00273902
0.00276957
0.00273901
0.00273901
0.00277204
0.00273662
0.00276957
0.00273902
0.00273901
0.00273662
0.00273133
0.00269616
0.00272887
0.00272886
0.00269853
0.00269853
0.00273132
0.00269616
0.00272887
0.00272886
0.00269853
0.00269852
0.00272887
0.00269853
0.00269853
0.00273132
0.00269616
0.00272887
0.00269852
0.00269853
0.00269616
0.0026909
0.00265598
0.00268845
0.00268845
0.00265832
0.00265832
0.00269091
0.00265598
0.00268845
0.00268845
0.00265831
0.00265831
0.00268846
0.00265832
0.00265832
0.0026909
0.00265598
0.00268846
0.00265831
0.00265832
0.00265598
0.00265075
0.00261605
0.0026483
0.0026483
0.00261836
0.00261836
0.00265075
0.00261605
0.0026483
0.0026483
0.00261836
0.00261836
0.0026483
0.00261836
0.00261836
0.00265075
0.00261605
0.0026483
0.00261836
0.00261836
0.00261605
0.00261085
0.00257636
0.00260841
0.00260841
0.00257864
0.00257864
0.00261085
0.00257635
0.00260841
0.00260841
0.00257864
0.00257864
0.00260841
0.00257864
0.00257865
0.00261085
0.00257636
0.00260841
0.00257864
0.00257865
0.00257635
0.00257119
0.00253689
0.00256876
0.00256875
0.00253916
0.00253916
0.00257118
0.00253689
0.00256875
0.00256875
0.00253916
0.00253916
0.00256875
0.00253916
0.00253916
0.00257118
0.00253689
0.00256875
0.00253916
0.00253916
0.00253689
0.00253175
0.00249765
0.00252933
0.00252933
0.00249991
0.0024999
0.00253175
0.00249765
0.00252933
0.00252933
0.00249991
0.00249991
0.00252933
0.0024999
0.0024999
0.00253175
0.00249765
0.00252933
0.00249991
0.0024999
0.00249765
0.00249253
0.00245862
0.00249012
0.00249012
0.00246086
0.00246086
0.00249253
0.00245861
0.00249012
0.00249012
0.00246086
0.00246086
0.00249013
0.00246086
0.00246086
0.00249253
0.00245862
0.00249012
0.00246086
0.00246086
0.00245862
0.00245351
0.00241978
0.00245113
0.00245113
0.00242201
0.00242201
0.00245351
0.00241978
0.00245113
0.00245113
0.00242201
0.00242202
0.00245113
0.00242201
0.00242201
0.00245351
0.00241978
0.00245113
0.00242202
0.00242201
0.00241978
0.0024147
0.00238114
0.00241233
0.00241233
0.00238337
0.00238336
0.0024147
0.00238114
0.00241233
0.00241234
0.00238337
0.00238337
0.00241234
0.00238336
0.00238337
0.0024147
0.00238114
0.00241233
0.00238337
0.00238337
0.00238114
0.00237608
0.00234269
0.00237373
0.00237373
0.00234491
0.00234491
0.00237608
0.00234269
0.00237373
0.00237373
0.00234491
0.00234491
0.00237373
0.00234491
0.00234491
0.00237608
0.00234269
0.00237373
0.00234491
0.00234491
0.00234269
0.00233765
0.00230442
0.00233532
0.00233532
0.00230663
0.00230663
0.00233765
0.00230442
0.00233532
0.00233532
0.00230663
0.00230663
0.00233532
0.00230663
0.00230663
0.00233764
0.00230442
0.00233532
0.00230663
0.00230663
0.00230442
0.00229939
0.00226632
0.00229709
0.00229709
0.00226852
0.00226853
0.00229939
0.00226632
0.00229709
0.00229709
0.00226852
0.00226853
0.00229709
0.00226853
0.00226852
0.00229939
0.00226632
0.00229709
0.00226853
0.00226852
0.00226632
0.00226131
0.00222839
0.00225903
0.00225903
0.00223059
0.00223059
0.00226131
0.00222839
0.00225903
0.00225903
0.00223059
0.00223059
0.00225903
0.00223059
0.00223059
0.00226131
0.00222839
0.00225903
0.00223059
0.00223059
0.00222839
0.0022234
0.00219062
0.00222114
0.00222114
0.00219282
0.00219282
0.0022234
0.00219062
0.00222114
0.00222114
0.00219282
0.00219283
0.00222114
0.00219282
0.00219283
0.0022234
0.00219062
0.00222114
0.00219283
0.00219283
0.00219063
0.00218565
0.00215302
0.00218341
0.00218341
0.00215521
0.00215521
0.00218565
0.00215302
0.00218341
0.00218341
0.00215521
0.00215521
0.00218341
0.00215521
0.00215521
0.00218565
0.00215302
0.00218341
0.00215521
0.00215521
0.00215302
0.00214805
0.00211556
0.00214583
0.00214583
0.00211775
0.00211775
0.00214806
0.00211556
0.00214583
0.00214583
0.00211775
0.00211775
0.00214583
0.00211775
0.00211775
0.00214806
0.00211556
0.00214583
0.00211775
0.00211775
0.00211556
0.00211062
0.00207825
0.00210841
0.00210841
0.00208044
0.00208044
0.00211062
0.00207825
0.00210841
0.00210841
0.00208044
0.00208044
0.00210841
0.00208044
0.00208044
0.00211061
0.00207825
0.00210841
0.00208044
0.00208044
0.00207826
0.00207332
0.00204109
0.00207113
0.00207113
0.00204326
0.00204327
0.00207332
0.00204109
0.00207113
0.00207113
0.00204326
0.00204327
0.00207113
0.00204327
0.00204327
0.00207332
0.00204109
0.00207113
0.00204327
0.00204327
0.00204109
0.00203616
0.00200405
0.00203399
0.00203399
0.00200623
0.00200622
0.00203616
0.00200405
0.00203399
0.00203399
0.00200623
0.00200622
0.00203399
0.00200622
0.00200622
0.00203617
0.00200405
0.00203399
0.00200622
0.00200622
0.00200405
0.00199914
0.00196715
0.00199699
0.00199699
0.00196931
0.00196932
0.00199914
0.00196715
0.00199699
0.00199698
0.00196931
0.00196931
0.00199698
0.00196932
0.00196932
0.00199914
0.00196715
0.00199698
0.00196931
0.00196932
0.00196715
0.00196225
0.00193037
0.0019601
0.00196011
0.00193253
0.00193252
0.00196225
0.00193037
0.0019601
0.0019601
0.00193253
0.00193253
0.00196011
0.00193252
0.00193252
0.00196225
0.00193037
0.00196011
0.00193253
0.00193252
0.00193037
0.00192549
0.00189371
0.00192336
0.00192335
0.00189586
0.00189587
0.00192548
0.00189372
0.00192336
0.00192336
0.00189586
0.00189585
0.00192335
0.00189587
0.00189586
0.00192548
0.00189371
0.00192335
0.00189585
0.00189586
0.00189371
0.00188883
0.00185716
0.0018867
0.00188671
0.0018593
0.0018593
0.00188884
0.00185716
0.0018867
0.0018867
0.0018593
0.00185931
0.00188671
0.0018593
0.00185931
0.00188883
0.00185717
0.00188671
0.00185931
0.00185931
0.00185717
0.0018523
0.00182072
0.00185018
0.00185017
0.00182285
0.00182286
0.00185229
0.00182073
0.00185019
0.00185019
0.00182285
0.00182285
0.00185019
0.00182286
0.00182285
0.0018523
0.00182072
0.00185019
0.00182285
0.00182285
0.00182072
0.00181586
0.00178438
0.00181376
0.00181376
0.0017865
0.0017865
0.00181587
0.00178438
0.00181375
0.00181375
0.0017865
0.0017865
0.00181375
0.0017865
0.0017865
0.00181585
0.00178438
0.00181375
0.0017865
0.0017865
0.00178438
0.00177953
0.00174813
0.00177743
0.00177743
0.00175025
0.00175025
0.00177953
0.00174813
0.00177743
0.00177743
0.00175025
0.00175025
0.00177743
0.00175025
0.00175025
0.00177953
0.00174813
0.00177743
0.00175025
0.00175025
0.00174813
0.00174329
0.00171198
0.0017412
0.0017412
0.00171409
0.00171409
0.00174329
0.00171198
0.0017412
0.0017412
0.00171409
0.00171408
0.0017412
0.00171409
0.00171409
0.00174329
0.00171197
0.0017412
0.00171408
0.00171408
0.00171197
0.00170714
0.0016759
0.00170506
0.00170506
0.00167801
0.00167801
0.00170714
0.0016759
0.00170506
0.00170506
0.00167801
0.00167801
0.00170506
0.00167801
0.001678
0.00170714
0.0016759
0.00170506
0.00167801
0.001678
0.0016759
0.00167107
0.0016399
0.001669
0.001669
0.001642
0.001642
0.00167107
0.0016399
0.001669
0.001669
0.001642
0.001642
0.001669
0.001642
0.001642
0.00167107
0.0016399
0.001669
0.001642
0.001642
0.0016399
0.00163508
0.00160398
0.00163301
0.00163301
0.00160607
0.00160607
0.00163508
0.00160398
0.00163301
0.00163301
0.00160607
0.00160607
0.00163301
0.00160607
0.00160607
0.00163508
0.00160398
0.00163301
0.00160607
0.00160607
0.00160398
0.00159916
0.00156812
0.0015971
0.0015971
0.00157021
0.00157021
0.00159916
0.00156812
0.0015971
0.0015971
0.00157021
0.00157021
0.0015971
0.00157021
0.00157021
0.00159916
0.00156812
0.0015971
0.00157021
0.00157021
0.00156812
0.0015633
0.00153232
0.00156125
0.00156125
0.00153441
0.00153441
0.0015633
0.00153232
0.00156125
0.00156125
0.00153441
0.00153441
0.00156125
0.00153441
0.00153441
0.0015633
0.00153232
0.00156125
0.00153441
0.00153441
0.00153232
0.00152751
0.00149658
0.00152546
0.00152546
0.00149866
0.00149866
0.00152751
0.00149658
0.00152546
0.00152546
0.00149866
0.00149866
0.00152547
0.00149866
0.00149866
0.00152751
0.00149658
0.00152547
0.00149866
0.00149866
0.00149658
0.00149178
0.0014609
0.00148974
0.00148974
0.00146297
0.00146297
0.00149178
0.0014609
0.00148974
0.00148974
0.00146297
0.00146297
0.00148974
0.00146297
0.00146297
0.00149178
0.0014609
0.00148974
0.00146297
0.00146297
0.0014609
0.0014561
0.00142526
0.00145406
0.00145406
0.00142733
0.00142733
0.0014561
0.00142526
0.00145406
0.00145406
0.00142733
0.00142733
0.00145406
0.00142733
0.00142733
0.0014561
0.00142526
0.00145406
0.00142733
0.00142733
0.00142526
0.00142046
0.00138967
0.00141843
0.00141843
0.00139173
0.00139173
0.00142046
0.00138967
0.00141843
0.00141843
0.00139173
0.00139173
0.00141843
0.00139173
0.00139173
0.00142046
0.00138967
0.00141843
0.00139173
0.00139173
0.00138967
0.00138487
0.00135411
0.00138284
0.00138284
0.00135618
0.00135618
0.00138487
0.00135411
0.00138284
0.00138284
0.00135618
0.00135618
0.00138284
0.00135618
0.00135618
0.00138487
0.00135411
0.00138284
0.00135618
0.00135618
0.00135411
0.00134932
0.00131859
0.00134729
0.00134729
0.00132065
0.00132065
0.00134932
0.00131859
0.00134729
0.00134729
0.00132065
0.00132065
0.00134729
0.00132065
0.00132065
0.00134932
0.00131859
0.00134729
0.00132065
0.00132065
0.00131859
0.0013138
0.00128311
0.00131178
0.00131178
0.00128517
0.00128517
0.0013138
0.00128311
0.00131178
0.00131178
0.00128517
0.00128516
0.00131178
0.00128517
0.00128517
0.0013138
0.00128311
0.00131178
0.00128517
0.00128517
0.00128311
0.00127832
0.00124765
0.0012763
0.0012763
0.00124971
0.00124971
0.00127832
0.00124765
0.0012763
0.0012763
0.00124971
0.00124971
0.0012763
0.00124971
0.00124971
0.00127832
0.00124765
0.0012763
0.00124971
0.00124971
0.00124765
0.00124286
0.00121221
0.00124084
0.00124084
0.00121427
0.00121427
0.00124286
0.00121221
0.00124084
0.00124084
0.00121427
0.00121427
0.00124084
0.00121427
0.00121427
0.00124286
0.00121221
0.00124084
0.00121427
0.00121427
0.00121221
0.00120742
0.00117679
0.00120541
0.00120541
0.00117885
0.00117885
0.00120742
0.00117679
0.00120541
0.00120541
0.00117885
0.00117885
0.00120541
0.00117885
0.00117885
0.00120742
0.00117679
0.00120541
0.00117885
0.00117885
0.00117679
0.001172
0.00114139
0.00117
0.00117
0.00114345
0.00114345
0.001172
0.00114139
0.00117
0.00117
0.00114345
0.00114345
0.00117
0.00114345
0.00114345
0.001172
0.00114139
0.00117
0.00114345
0.00114345
0.00114139
0.0011366
0.001106
0.0011346
0.0011346
0.00110805
0.00110805
0.0011366
0.001106
0.0011346
0.0011346
0.00110805
0.00110805
0.0011346
0.00110805
0.00110805
0.0011366
0.001106
0.0011346
0.00110805
0.00110805
0.001106
0.00110121
0.00107062
0.00109921
0.00109921
0.00107267
0.00107267
0.00110121
0.00107062
0.00109921
0.00109921
0.00107267
0.00107267
0.00109921
0.00107267
0.00107267
0.00110121
0.00107062
0.00109921
0.00107267
0.00107267
0.00107062
0.00106583
0.00103524
0.00106382
0.00106382
0.00103729
0.00103729
0.00106583
0.00103524
0.00106382
0.00106382
0.00103729
0.00103729
0.00106382
0.00103729
0.00103729
0.00106582
0.00103524
0.00106382
0.00103729
0.00103729
0.00103524
0.00103045
0.000999855
0.00102845
0.00102844
0.0010019
0.0010019
0.00103045
0.000999856
0.00102845
0.00102845
0.0010019
0.0010019
0.00102845
0.0010019
0.0010019
0.00103045
0.000999855
0.00102845
0.0010019
0.0010019
0.000999855
0.00099506
0.000964478
0.000993053
0.000993054
0.000966525
0.000966525
0.00099506
0.000964478
0.000993053
0.000993053
0.000966524
0.000966524
0.000993054
0.000966525
0.000966524
0.00099506
0.000964477
0.000993053
0.000966523
0.000966524
0.000964477
0.00095968
0.000929081
0.000957678
0.000957678
0.000931121
0.000931121
0.000959679
0.000929081
0.000957678
0.000957678
0.000931121
0.000931122
0.000957678
0.00093112
0.000931121
0.000959679
0.000929081
0.000957678
0.000931122
0.000931121
0.00092908
0.000924282
0.000893682
0.000922273
0.000922273
0.000895731
0.000895731
0.000924282
0.000893683
0.000922273
0.000922274
0.00089573
0.00089573
0.000922273
0.000895732
0.000895732
0.000924283
0.000893681
0.000922274
0.00089573
0.000895731
0.000893682
0.000888876
0.00085827
0.000886875
0.000886875
0.000860305
0.000860304
0.000888876
0.00085827
0.000886874
0.000886874
0.000860305
0.000860305
0.000886875
0.000860303
0.000860303
0.000888876
0.000858271
0.000886875
0.000860304
0.000860303
0.000858269
0.000853467
0.000822831
0.000851457
0.000851456
0.000824887
0.000824888
0.000853467
0.000822832
0.000851457
0.000851457
0.000824887
0.000824888
0.000851456
0.00082489
0.000824891
0.000853468
0.000822831
0.000851457
0.00082489
0.000824891
0.000822834
0.00081801
0.000787381
0.000816007
0.000816008
0.000789413
0.000789411
0.000818011
0.000787379
0.000816007
0.000816007
0.000789413
0.000789412
0.00081601
0.00078941
0.000789409
0.000818011
0.000787379
0.00081601
0.00078941
0.000789409
0.000787377
0.000782576
0.000751918
0.000780561
0.00078056
0.000753979
0.000753981
0.000782574
0.000751923
0.000780561
0.000780561
0.000753978
0.00075398
0.000780558
0.000753983
0.000753984
0.000782574
0.000751921
0.000780558
0.000753982
0.000753984
0.000751925
0.000747082
0.000716384
0.000745079
0.000745082
0.000718425
0.000718423
0.000747086
0.000716381
0.000745079
0.00074508
0.000718426
0.000718425
0.000745085
0.000718422
0.000718421
0.000747085
0.000716382
0.000745085
0.000718423
0.000718422
0.00071638
0.000711576
0.000680972
0.00070957
0.000709567
0.000682999
0.000682998
0.000711572
0.000680974
0.000709571
0.000709569
0.000682998
0.000682998
0.000709564
0.000682998
0.000682998
0.000711573
0.000680973
0.000709565
0.000682998
0.000682998
0.000680974
0.000676128
0.000645276
0.000674097
0.000674101
0.000647331
0.000647332
0.000676133
0.000645277
0.000674096
0.000674098
0.000647331
0.000647332
0.000674104
0.000647333
0.000647333
0.000676132
0.000645277
0.000674103
0.000647332
0.000647333
0.000645277
0.00064046
0.000609913
0.000638467
0.000638466
0.000611941
0.000611938
0.00064046
0.000609909
0.000638467
0.000638467
0.000611941
0.00061194
0.000638465
0.000611937
0.000611936
0.00064046
0.00060991
0.000638465
0.000611938
0.000611936
0.000609907
0.000605069
0.000574004
0.000603031
0.00060303
0.000576066
0.000576069
0.000605065
0.000574008
0.000603031
0.00060303
0.000576066
0.000576067
0.000603028
0.000576069
0.00057607
0.000605066
0.000574006
0.000603028
0.000576068
0.00057607
0.000574008
0.000569152
0.000538982
0.000567144
0.000567146
0.000540958
0.000540957
0.000569155
0.00053898
0.000567145
0.000567145
0.000540959
0.000540959
0.000567147
0.000540957
0.000540957
0.000569154
0.000538981
0.000567147
0.000540958
0.000540957
0.000538979
0.000534257
0.000502779
0.000532255
0.000532253
0.000504953
0.000504954
0.000534255
0.000502781
0.000532254
0.000532255
0.000504953
0.000504952
0.000532253
0.000504955
0.000504954
0.000534257
0.000502777
0.000532253
0.000504952
0.000504954
0.00050278
0.000497707
0.000466577
0.00049565
0.000495651
0.000468379
0.00046838
0.000497708
0.000466579
0.000495649
0.000495648
0.00046838
0.000468379
0.000495651
0.00046838
0.000468378
0.000497705
0.000466574
0.00049565
0.000468377
0.000468377
0.000466575
0.000462066
0.000434138
0.000460074
0.000460075
0.000435833
0.000435834
0.000462068
0.000434141
0.000460074
0.000460074
0.000435828
0.000435828
0.000460074
0.000435834
0.000435837
0.000462065
0.000434136
0.000460074
0.000435827
0.000435832
0.000434141
0.000429651
0.000397242
0.000427656
0.000427656
0.000399793
0.000399791
0.000429653
0.000397242
0.000427651
0.000427651
0.000399791
0.000399788
0.000427658
0.000399793
0.000399792
0.000429648
0.000397239
0.000427655
0.00039979
0.000399791
0.00039724
0.000391941
0.000357404
0.000390028
0.000390025
0.000359771
0.000359775
0.00039194
0.00035741
0.000390026
0.000390024
0.000359771
0.00035977
0.000390027
0.000359775
0.000359774
0.000391938
0.000357404
0.000390024
0.000359771
0.000359775
0.000357409
0.000352273
0.000322433
0.000350016
0.000350025
0.000323789
0.000323789
0.000352278
0.000322431
0.000350018
0.00035002
0.000323789
0.00032379
0.00035002
0.000323786
0.000323788
0.000352273
0.000322432
0.000350023
0.000323788
0.000323788
0.00032243
0.000317833
0.000289928
0.00031544
0.000315442
0.000291369
0.000291359
0.000317831
0.000289928
0.000315442
0.000315443
0.000291358
0.000291358
0.000315441
0.000291365
0.000291367
0.000317832
0.000289926
0.000315441
0.000291355
0.000291357
0.000289928
0.000285703
0.000257448
0.000283728
0.000283723
0.000259986
0.000259987
0.000285712
0.000257449
0.000283719
0.000283724
0.000259986
0.000259986
0.000283724
0.000259987
0.000259987
0.000285707
0.00025745
0.00028372
0.000259988
0.000259988
0.000257449
0.000253096
0.000224022
0.000251906
0.000251907
0.000226515
0.000226513
0.000253097
0.000224026
0.000251906
0.000251909
0.000226512
0.000226515
0.000251908
0.000226516
0.000226514
0.000253101
0.000224026
0.000251909
0.000226519
0.000226515
0.000224022
0.000219008
0.000184815
0.000217321
0.000217321
0.000187127
0.00018713
0.000219012
0.000184815
0.000217322
0.000217321
0.00018713
0.000187129
0.000217319
0.000187128
0.000187126
0.000219012
0.000184813
0.000217322
0.000187131
0.000187131
0.000184814
0.000179254
0.000144394
0.000176734
0.000176734
0.000146177
0.000146177
0.000179254
0.000144396
0.000176735
0.000176734
0.000146175
0.000146176
0.000176733
0.000146177
0.000146177
0.000179254
0.000144393
0.000176734
0.000146175
0.000146176
0.000144395
0.000138882
0.000105243
0.000136136
0.000136135
0.000107077
0.000107077
0.000138882
0.000105243
0.000136133
0.000136134
0.000107078
0.000107077
0.000136135
0.000107077
0.000107078
0.000138882
0.000105242
0.000136134
0.000107077
0.000107078
0.000105244
0.000100201
6.98683e-05
9.78863e-05
9.78827e-05
7.17361e-05
7.17369e-05
0.000100197
6.98691e-05
9.78866e-05
9.78866e-05
7.17353e-05
7.17364e-05
9.78866e-05
7.17364e-05
7.17366e-05
0.0001002
6.98681e-05
9.78832e-05
7.17341e-05
7.17335e-05
6.98683e-05
6.53107e-05
3.69371e-05
6.34677e-05
6.34649e-05
3.89649e-05
3.89651e-05
6.53094e-05
3.69378e-05
6.34663e-05
6.34666e-05
3.89628e-05
3.8961e-05
6.34666e-05
3.89631e-05
3.89613e-05
6.5311e-05
3.69349e-05
6.34638e-05
3.8961e-05
3.89608e-05
3.69339e-05
3.24545e-05
7.62052e-06
3.09657e-05
3.09651e-05
1.03813e-05
1.03804e-05
3.24534e-05
7.61951e-06
3.09629e-05
3.09604e-05
1.03823e-05
1.03755e-05
3.09602e-05
1.03801e-05
1.03736e-05
3.2452e-05
7.61567e-06
3.09591e-05
1.03782e-05
1.03782e-05
7.61466e-06
4.80557e-06
6.3887e-06
6.38779e-06
4.8051e-06
6.38962e-06
6.38413e-06
5.62953e-06
5.62912e-06
5.62801e-06
6.38327e-06
4.80246e-06
6.38663e-06
0.00362168
0.00363144
0.00362624
0.00362624
0.00364862
0.0036354
0.00366401
0.00362945
0.00364862
0.00363541
0.00362945
0.00366401
0.00363998
0.00366775
0.00366775
0.00357704
0.00359618
0.00360537
0.00356912
0.00356986
0.00357263
0.00357702
0.00359616
0.00360537
0.0035691
0.0035999
0.0035999
0.0035999
0.00355649
0.00355649
0.00355649
0.00355649
0.00357454
0.00360036
0.0036003
0.00358336
0.00360339
0.00357344
0.00358425
0.00356996
0.00357262
0.00357454
0.0036003
0.00360038
0.00358337
0.00360338
0.00358425
0.00357344
0.00360624
0.00360622
0.00357777
0.00357308
0.00357307
0.00353041
0.00354969
0.00355105
0.00352895
0.00354859
0.0035285
0.0035304
0.00354968
0.00355105
0.00352894
0.00354454
0.00354454
0.00354454
0.00350695
0.00350695
0.00350695
0.00350695
0.00352899
0.00354976
0.00354454
0.00353267
0.00354855
0.00352953
0.0035324
0.00354859
0.00352849
0.00352899
0.00354454
0.00354976
0.00353267
0.00354855
0.0035324
0.00352953
0.00355078
0.00355078
0.00352922
0.00352987
0.00352987
0.00347815
0.00349695
0.00349802
0.00347712
0.00349659
0.00347684
0.00347815
0.00349695
0.00349802
0.00347712
0.00349379
0.00349379
0.00349379
0.00345441
0.00345441
0.00345441
0.00345441
0.00347725
0.00349735
0.00349367
0.00348062
0.00349679
0.00347761
0.00348053
0.00349659
0.00347684
0.00347725
0.00349367
0.00349735
0.00348062
0.00349679
0.00348053
0.00347761
0.00349759
0.00349759
0.00347724
0.00347767
0.00347767
0.00342562
0.00344428
0.00344514
0.00342486
0.00344407
0.00342468
0.00342562
0.00344428
0.00344514
0.00342486
0.00344141
0.00344141
0.00344141
0.00340278
0.00340278
0.00340278
0.00340278
0.00342512
0.00344468
0.00344137
0.00342847
0.0034444
0.0034253
0.00342844
0.00344407
0.00342468
0.00342512
0.00344137
0.00344468
0.00342847
0.0034444
0.00342844
0.0034253
0.00344472
0.00344472
0.00342516
0.00342524
0.00342524
0.00337443
0.00339279
0.00339342
0.00337388
0.00339264
0.00337374
0.00337443
0.00339278
0.00339342
0.00337388
0.00339006
0.00339006
0.00339006
0.00335244
0.00335244
0.00335244
0.00335244
0.00337416
0.00339314
0.00339004
0.00337744
0.00339297
0.00337427
0.00337741
0.00339264
0.00337374
0.00337416
0.00339004
0.00339314
0.00337744
0.00339297
0.00337741
0.00337427
0.00339312
0.00339312
0.00337424
0.00337418
0.00337418
0.00332479
0.00334274
0.0033432
0.0033244
0.00334263
0.00332427
0.00332479
0.00334274
0.0033432
0.0033244
0.00334009
0.00334009
0.00334009
0.00330357
0.00330357
0.00330357
0.00330357
0.00332468
0.00334304
0.00334008
0.00332784
0.00334292
0.00332474
0.00332781
0.00334262
0.00332428
0.00332468
0.00334008