/*--------------------------------*- C++ -*----------------------------------*\
| =========                 |                                                 |
| \\      /  F ield         | OpenFOAM: The Open Source CFD Toolbox           |
|  \\    /   O peration     | Version:  v1906                                 |
|   \\  /    A nd           | Web:      www.OpenFOAM.com                      |
|    \\/     M anipulation  |                                                 |
\*---------------------------------------------------------------------------*/
FoamFile
{
    version     2.0;
    format      ascii;
    class       volScalarField;
    location    "750";
    object      k;
}
// * * * * * * * * * * * * * * * * * * * * * * * * * * * * * * * * * * * * * //

dimensions      [0 2 -2 0 0 0 0];


internalField   nonuniform List<scalar> 
43024
(
3.78136e-05
4.96822e-05
4.96749e-05
5.2193e-05
4.06432e-05
5.42914e-05
5.47985e-05
5.72858e-05
4.4524e-05
5.74176e-05
5.73883e-05
5.91042e-05
4.26019e-05
5.1956e-05
5.129e-05
5.21586e-05
3.57686e-05
4.65721e-05
4.64728e-05
4.83405e-05
3.56762e-05
5.00074e-05
5.02745e-05
5.36712e-05
4.30691e-05
5.45472e-05
5.51634e-05
5.72281e-05
4.4489e-05
5.42907e-05
5.48477e-05
5.56071e-05
4.20428e-05
5.318e-05
5.25853e-05
5.36119e-05
4.09715e-05
5.30853e-05
5.28195e-05
5.47387e-05
4.31527e-05
5.54973e-05
5.49558e-05
5.83135e-05
4.4827e-05
5.5735e-05
5.4475e-05
5.72364e-05
4.20147e-05
4.96504e-05
5.05778e-05
5.1214e-05
3.76697e-05
4.77029e-05
4.97178e-05
5.00026e-05
3.80756e-05
5.29831e-05
5.33612e-05
5.54153e-05
4.49832e-05
5.74104e-05
5.55918e-05
5.84121e-05
4.6296e-05
5.58854e-05
5.34421e-05
5.54779e-05
4.21229e-05
4.97969e-05
5.03118e-05
5.17949e-05
3.94019e-05
4.90693e-05
5.07296e-05
5.26818e-05
4.03457e-05
5.2967e-05
5.37645e-05
5.56029e-05
4.2856e-05
5.34187e-05
5.30664e-05
5.56946e-05
5.1651e-05
4.98508e-05
4.96774e-05
5.1272e-05
4.98225e-05
4.95947e-05
4.96984e-05
4.99391e-05
5.12524e-05
4.96554e-05
4.99453e-05
5.1894e-05
5.17913e-05
5.62413e-05
4.98773e-05
4.96569e-05
5.29941e-05
5.22535e-05
5.12817e-05
5.55961e-05
4.9855e-05
4.96098e-05
5.30812e-05
5.29369e-05
5.00044e-05
5.23137e-05
5.33611e-05
5.13089e-05
5.62284e-05
5.00271e-05
5.30056e-05
5.34967e-05
5.65224e-05
5.71232e-05
5.94637e-05
5.46452e-05
5.4275e-05
5.70203e-05
5.73434e-05
5.66932e-05
6.00111e-05
5.4712e-05
5.47868e-05
5.70288e-05
5.74137e-05
5.48042e-05
5.72912e-05
5.67689e-05
5.72511e-05
6.0069e-05
5.48912e-05
5.73329e-05
5.6752e-05
5.91349e-05
5.94724e-05
5.40476e-05
5.70875e-05
5.74765e-05
5.42768e-05
5.48932e-05
6.00634e-05
5.4572e-05
5.70881e-05
5.74765e-05
5.4171e-05
5.41591e-05
5.67916e-05
5.48053e-05
5.35437e-05
6.00775e-05
5.37864e-05
5.67644e-05
5.40303e-05
5.33571e-05
5.33276e-05
5.27419e-05
4.78066e-05
5.15866e-05
5.20026e-05
4.67931e-05
4.68782e-05
5.31355e-05
4.78804e-05
5.15e-05
5.13606e-05
4.67718e-05
4.66865e-05
5.11059e-05
4.69597e-05
4.71634e-05
5.23945e-05
4.77216e-05
5.09632e-05
4.67731e-05
4.71381e-05
4.83476e-05
4.76952e-05
5.14029e-05
4.63944e-05
4.64679e-05
4.75302e-05
4.76112e-05
4.77922e-05
5.15462e-05
4.6381e-05
4.63597e-05
4.75233e-05
4.77597e-05
4.69332e-05
4.7767e-05
4.86372e-05
4.76852e-05
5.17577e-05
4.69242e-05
4.7958e-05
4.86983e-05
5.2542e-05
5.27537e-05
5.76595e-05
4.9981e-05
4.99023e-05
5.49902e-05
5.42157e-05
5.27517e-05
5.64733e-05
4.9983e-05
5.01422e-05
5.50809e-05
5.47303e-05
5.08278e-05
5.41207e-05
5.46159e-05
5.29833e-05
5.70787e-05
5.08921e-05
5.46472e-05
5.47295e-05
5.71089e-05
5.79412e-05
5.72155e-05
5.55868e-05
5.4673e-05
5.57265e-05
5.4756e-05
5.66138e-05
5.59711e-05
5.57055e-05
5.52839e-05
5.58647e-05
5.54338e-05
5.49692e-05
5.46087e-05
5.47951e-05
5.73029e-05
5.67248e-05
5.51009e-05
5.52825e-05
5.49359e-05
5.59753e-05
5.67996e-05
5.40545e-05
5.52408e-05
5.44354e-05
5.27819e-05
5.33988e-05
5.585e-05
5.5136e-05
5.53632e-05
5.50123e-05
5.26866e-05
5.29406e-05
5.41152e-05
5.33472e-05
5.23879e-05
5.64193e-05
5.44469e-05
5.42057e-05
5.28745e-05
5.22683e-05
5.3699e-05
5.38493e-05
5.32852e-05
5.2285e-05
5.32043e-05
5.17878e-05
5.3005e-05
5.51243e-05
5.49316e-05
5.21752e-05
5.2618e-05
5.17116e-05
5.24709e-05
5.21481e-05
5.30348e-05
5.21459e-05
5.43471e-05
5.45105e-05
5.20197e-05
5.25091e-05
5.20703e-05
5.41404e-05
5.33949e-05
5.65354e-05
5.1829e-05
5.30266e-05
5.42173e-05
5.46512e-05
5.49524e-05
5.70335e-05
5.17732e-05
5.26807e-05
5.42027e-05
5.45006e-05
5.25992e-05
5.49177e-05
5.55815e-05
5.4884e-05
5.67708e-05
5.26433e-05
5.46876e-05
5.55051e-05
5.80072e-05
5.70908e-05
5.84888e-05
5.51749e-05
5.53154e-05
5.63373e-05
5.59151e-05
5.74187e-05
5.79538e-05
5.50726e-05
5.48156e-05
5.61409e-05
5.49148e-05
5.61095e-05
5.59454e-05
5.63501e-05
5.6914e-05
5.61353e-05
5.59724e-05
5.49378e-05
5.61464e-05
5.78863e-05
5.84827e-05
5.38838e-05
5.63217e-05
5.5778e-05
5.31097e-05
5.1442e-05
5.75869e-05
5.18049e-05
5.61297e-05
5.46296e-05
5.31889e-05
5.15753e-05
5.59362e-05
5.11324e-05
5.10674e-05
5.57267e-05
5.24724e-05
5.57091e-05
5.1339e-05
5.11762e-05
5.17921e-05
5.29669e-05
4.93819e-05
5.1247e-05
4.98582e-05
4.8054e-05
4.77114e-05
5.10457e-05
4.89232e-05
5.1428e-05
5.07221e-05
4.83602e-05
4.96425e-05
4.97923e-05
4.77264e-05
4.82839e-05
5.21576e-05
5.14149e-05
5.00132e-05
4.97016e-05
4.86412e-05
4.98427e-05
4.92855e-05
5.17177e-05
4.77879e-05
4.76611e-05
4.86453e-05
5.03937e-05
4.89741e-05
5.39363e-05
4.81006e-05
4.96395e-05
4.88765e-05
5.16706e-05
4.82898e-05
5.08322e-05
5.1363e-05
5.15753e-05
5.48293e-05
4.86502e-05
5.20774e-05
5.15546e-05
5.44942e-05
5.28381e-05
5.78677e-05
5.06505e-05
5.26291e-05
5.5642e-05
5.68889e-05
5.51171e-05
5.94813e-05
5.07455e-05
5.30309e-05
5.54275e-05
5.53938e-05
5.31242e-05
5.6957e-05
5.61527e-05
5.55318e-05
5.75544e-05
5.31854e-05
5.54556e-05
5.59095e-05
5.83035e-05
5.83375e-05
5.88811e-05
5.64828e-05
5.74244e-05
5.70683e-05
5.73567e-05
5.9748e-05
5.82465e-05
5.6198e-05
5.5594e-05
5.67106e-05
5.50866e-05
5.642e-05
5.71536e-05
5.58309e-05
5.76086e-05
5.55437e-05
5.61224e-05
5.4732e-05
5.53922e-05
5.62186e-05
5.84801e-05
5.37495e-05
5.68314e-05
5.63694e-05
5.25959e-05
5.1053e-05
5.7356e-05
5.17486e-05
5.64719e-05
5.39394e-05
5.251e-05
5.09302e-05
5.44094e-05
5.07409e-05
5.07592e-05
5.49358e-05
5.20687e-05
5.39665e-05
5.06615e-05
5.07218e-05
5.19527e-05
5.3213e-05
5.1508e-05
5.13943e-05
5.00025e-05
4.97491e-05
4.89711e-05
5.12937e-05
5.04972e-05
5.14219e-05
5.04938e-05
4.99946e-05
5.02962e-05
5.02333e-05
4.89713e-05
4.99698e-05
5.19544e-05
5.24883e-05
5.02941e-05
5.02613e-05
5.01601e-05
5.22185e-05
5.15124e-05
5.32812e-05
4.96944e-05
4.90235e-05
5.08126e-05
5.16424e-05
5.07999e-05
5.43114e-05
4.99622e-05
5.05757e-05
5.1149e-05
5.29821e-05
5.02441e-05
5.19855e-05
5.28605e-05
5.29555e-05
5.54912e-05
5.05474e-05
5.32603e-05
5.3094e-05
5.53218e-05
5.3752e-05
5.51232e-05
5.17649e-05
5.2673e-05
5.33053e-05
5.40993e-05
5.48467e-05
5.61671e-05
5.20013e-05
5.35139e-05
5.32651e-05
5.39559e-05
5.34799e-05
5.42558e-05
5.40721e-05
5.57387e-05
5.58788e-05
5.36354e-05
5.41689e-05
5.41024e-05
5.59078e-05
5.51034e-05
5.25397e-05
5.33039e-05
5.61148e-05
5.2472e-05
5.29193e-05
4.36192e-05
4.32719e-05
4.33612e-05
5.3084e-05
5.56067e-05
5.30622e-05
6.6711e-05
7.31092e-05
7.1001e-05
6.66723e-05
7.31256e-05
3.78584e-05
3.78399e-05
3.77178e-05
3.78765e-05
5.87173e-05
5.01963e-05
6.28361e-05
4.57687e-05
7.10777e-05
5.87087e-05
4.99891e-05
4.56227e-05
6.28045e-05
5.18164e-05
6.84625e-05
6.8533e-05
6.93262e-05
7.40472e-05
6.75971e-05
7.46594e-05
7.16851e-05
7.21232e-05
6.95037e-05
7.40736e-05
6.77531e-05
7.46823e-05
3.77457e-05
3.76667e-05
3.78633e-05
3.89272e-05
3.84514e-05
3.88827e-05
3.94143e-05
6.07445e-05
6.32435e-05
4.53151e-05
4.98055e-05
5.89309e-05
6.5042e-05
4.53863e-05
7.17895e-05
7.2202e-05
6.11099e-05
4.53172e-05
6.3657e-05
4.9921e-05
5.92566e-05
4.54516e-05
6.54952e-05
7.00309e-05
7.01038e-05
5.35085e-05
7.1413e-05
7.14495e-05
7.30179e-05
7.51075e-05
7.20876e-05
7.48736e-05
7.23788e-05
7.21467e-05
7.31221e-05
7.51213e-05
7.22458e-05
7.48719e-05
4.0128e-05
4.0746e-05
4.0976e-05
4.41287e-05
4.42634e-05
4.43542e-05
4.39644e-05
6.57258e-05
6.82676e-05
4.91287e-05
5.58041e-05
6.42816e-05
6.9506e-05
5.06348e-05
7.2377e-05
7.20629e-05
6.58614e-05
4.95436e-05
6.86205e-05
5.61317e-05
6.45573e-05
5.08878e-05
6.96953e-05
7.32577e-05
7.32543e-05
5.857e-05
7.36356e-05
7.3626e-05
6.94345e-05
7.35006e-05
7.19732e-05
7.25883e-05
7.10911e-05
7.05131e-05
6.91654e-05
7.34623e-05
7.17936e-05
7.2547e-05
4.47558e-05
4.47323e-05
4.42749e-05
4.4097e-05
4.44529e-05
4.41701e-05
4.36846e-05
6.32612e-05
6.91994e-05
5.24055e-05
5.73338e-05
6.58839e-05
6.64901e-05
5.23827e-05
7.09359e-05
7.03975e-05
6.27668e-05
5.23386e-05
6.87256e-05
5.72319e-05
6.56013e-05
5.22815e-05
6.58861e-05
7.17078e-05
7.16491e-05
5.76841e-05
6.95277e-05
6.94524e-05
6.38875e-05
7.17939e-05
6.51922e-05
7.18774e-05
7.0173e-05
7.04084e-05
6.38074e-05
7.17828e-05
6.4994e-05
7.18851e-05
4.30596e-05
4.24699e-05
4.20706e-05
3.67945e-05
3.69796e-05
3.67187e-05
3.69456e-05
5.57778e-05
6.18198e-05
4.8293e-05
4.95955e-05
5.7848e-05
6.03251e-05
4.59469e-05
7.01478e-05
7.04395e-05
5.55539e-05
4.77601e-05
6.13525e-05
4.90999e-05
5.74215e-05
4.55477e-05
6.00823e-05
6.6628e-05
6.66147e-05
4.96208e-05
6.60592e-05
6.60879e-05
6.64373e-05
7.29865e-05
6.44102e-05
7.38208e-05
7.11812e-05
7.16397e-05
6.64618e-05
7.29878e-05
6.44981e-05
7.38237e-05
3.58842e-05
3.57413e-05
3.61057e-05
3.51846e-05
3.52107e-05
3.52333e-05
3.57639e-05
5.74008e-05
6.0529e-05
4.25264e-05
4.65351e-05
5.52954e-05
6.24912e-05
4.24054e-05
7.1231e-05
7.16997e-05
5.75371e-05
4.24883e-05
6.06817e-05
4.64668e-05
5.5376e-05
4.24049e-05
6.25817e-05
6.74918e-05
6.75232e-05
4.90429e-05
6.91603e-05
6.91685e-05
7.08404e-05
7.4755e-05
6.96804e-05
7.49053e-05
7.19764e-05
7.19833e-05
7.09725e-05
7.47972e-05
6.97007e-05
7.49824e-05
3.56119e-05
3.57389e-05
3.63324e-05
4.16677e-05
4.09072e-05
4.1457e-05
4.14891e-05
6.27823e-05
6.55459e-05
4.4875e-05
5.19081e-05
6.12785e-05
6.65191e-05
4.69821e-05
7.20884e-05
7.21304e-05
6.30094e-05
4.5134e-05
6.56776e-05
5.22366e-05
6.14016e-05
4.72619e-05
6.6819e-05
7.13909e-05
7.13993e-05
5.57616e-05
7.19688e-05
7.19996e-05
7.03645e-05
7.45825e-05
7.10922e-05
7.42695e-05
7.18315e-05
7.18011e-05
7.08221e-05
7.46738e-05
7.1488e-05
7.42996e-05
4.22173e-05
4.2806e-05
4.263e-05
4.4518e-05
4.37236e-05
4.42373e-05
4.37162e-05
6.26879e-05
6.66014e-05
5.02251e-05
5.46877e-05
6.33144e-05
6.60611e-05
5.04862e-05
7.19592e-05
7.1834e-05
6.33178e-05
5.06721e-05
6.72714e-05
5.53588e-05
6.37823e-05
5.09656e-05
6.68178e-05
7.16271e-05
7.17034e-05
5.71355e-05
7.09925e-05
7.10346e-05
6.89765e-05
7.3834e-05
6.93242e-05
7.36769e-05
7.17978e-05
7.17997e-05
6.87132e-05
7.37635e-05
6.93673e-05
7.35916e-05
4.37382e-05
4.42176e-05
4.36654e-05
4.27696e-05
4.30773e-05
4.27935e-05
4.22254e-05
6.12972e-05
6.55518e-05
5.02766e-05
5.38998e-05
6.16196e-05
6.54778e-05
4.97534e-05
7.16489e-05
7.16146e-05
6.10159e-05
5.0681e-05
6.57131e-05
5.40374e-05
6.17884e-05
4.98922e-05
6.51507e-05
7.01029e-05
6.99959e-05
5.45439e-05
6.96703e-05
6.95223e-05
6.83133e-05
7.35737e-05
6.85351e-05
7.36821e-05
7.17821e-05
7.17999e-05
6.80112e-05
7.35435e-05
6.80674e-05
7.37343e-05
4.26634e-05
4.22227e-05
4.1782e-05
4.09964e-05
4.20303e-05
4.15673e-05
4.13899e-05
6.08251e-05
6.54024e-05
4.86727e-05
5.30792e-05
6.09487e-05
6.52798e-05
4.85196e-05
7.16716e-05
7.18212e-05
6.02966e-05
4.82297e-05
6.46283e-05
5.24615e-05
6.02992e-05
4.80611e-05
6.46824e-05
6.92214e-05
6.9192e-05
5.34851e-05
6.9446e-05
6.96663e-05
6.97002e-05
7.4282e-05
6.85672e-05
7.47083e-05
7.20109e-05
7.21599e-05
6.98794e-05
7.43076e-05
6.89827e-05
7.46486e-05
4.20186e-05
4.15847e-05
4.14725e-05
4.21421e-05
4.28308e-05
4.26839e-05
4.34771e-05
6.27959e-05
6.55082e-05
4.85305e-05
5.33488e-05
6.15063e-05
6.65724e-05
4.88575e-05
7.19985e-05
7.20041e-05
6.29465e-05
4.82852e-05
6.59759e-05
5.35588e-05
6.18208e-05
4.898e-05
6.6734e-05
7.13011e-05
7.13636e-05
5.62921e-05
7.242e-05
7.23326e-05
7.17797e-05
7.49892e-05
7.13544e-05
7.47585e-05
7.20406e-05
7.17234e-05
7.10653e-05
7.48446e-05
7.09211e-05
7.46426e-05
4.34936e-05
4.3147e-05
4.40784e-05
4.4746e-05
4.43782e-05
4.36889e-05
4.47023e-05
6.47271e-05
6.78801e-05
5.11083e-05
5.58336e-05
6.44823e-05
6.80585e-05
5.14589e-05
7.17181e-05
7.1489e-05
6.38299e-05
5.07382e-05
6.71806e-05
5.50526e-05
6.39403e-05
5.09252e-05
6.66519e-05
7.32601e-05
7.30436e-05
5.86127e-05
7.26845e-05
7.2503e-05
6.8219e-05
7.36471e-05
7.01904e-05
7.29661e-05
7.09575e-05
7.06983e-05
6.83692e-05
7.37217e-05
6.97387e-05
7.31093e-05
4.43719e-05
4.36589e-05
4.46461e-05
4.37012e-05
4.2086e-05
4.1911e-05
4.18236e-05
6.00578e-05
6.58504e-05
5.14581e-05
5.48688e-05
6.24095e-05
6.38012e-05
5.08468e-05
7.11386e-05
7.10669e-05
5.99224e-05
5.07024e-05
6.47982e-05
5.34039e-05
6.15482e-05
4.9907e-05
6.36973e-05
7.00057e-05
7.00928e-05
5.49114e-05
6.84101e-05
6.86041e-05
6.4698e-05
7.23923e-05
6.54224e-05
7.24504e-05
7.06996e-05
7.10239e-05
6.56283e-05
7.25397e-05
6.62331e-05
7.25746e-05
4.05443e-05
4.09954e-05
4.05231e-05
3.82375e-05
3.77283e-05
3.9227e-05
3.82578e-05
5.60251e-05
6.11799e-05
4.60133e-05
4.8597e-05
5.68161e-05
6.0594e-05
4.49539e-05
7.11633e-05
7.14134e-05
5.74466e-05
4.6645e-05
6.25594e-05
5.00605e-05
5.78765e-05
4.59729e-05
6.24224e-05
6.69226e-05
6.71258e-05
5.01064e-05
6.68265e-05
6.6981e-05
6.67766e-05
7.32279e-05
6.53069e-05
7.39248e-05
7.17912e-05
7.2317e-05
6.73746e-05
7.33251e-05
6.61145e-05
7.3985e-05
3.74516e-05
3.90468e-05
3.80638e-05
3.74852e-05
3.80641e-05
3.94249e-05
3.87606e-05
5.88011e-05
6.16492e-05
4.39521e-05
4.78677e-05
5.68432e-05
6.34332e-05
4.40337e-05
7.18981e-05
7.21937e-05
5.98626e-05
4.53755e-05
6.35045e-05
4.99059e-05
5.83193e-05
4.5454e-05
6.47189e-05
6.8459e-05
6.85006e-05
5.12423e-05
6.98609e-05
6.98874e-05
7.1244e-05
7.49875e-05
6.97136e-05
7.53849e-05
7.28199e-05
7.28692e-05
7.08062e-05
7.49203e-05
6.97048e-05
7.5229e-05
3.98126e-05
4.04698e-05
4.03413e-05
4.37236e-05
4.51236e-05
4.38766e-05
4.44156e-05
6.44019e-05
6.68866e-05
4.82807e-05
5.47568e-05
6.26336e-05
6.84001e-05
5.0025e-05
7.23635e-05
7.23034e-05
6.38015e-05
4.85788e-05
6.67668e-05
5.43724e-05
6.2675e-05
4.97552e-05
6.74507e-05
7.20028e-05
7.20662e-05
5.71335e-05
7.26747e-05
7.27549e-05
7.22594e-05
7.53767e-05
7.24518e-05
7.49568e-05
7.23744e-05
7.19365e-05
7.1021e-05
7.51326e-05
7.14748e-05
7.47557e-05
4.60336e-05
4.4476e-05
4.50703e-05
4.63202e-05
4.66708e-05
4.4787e-05
4.5387e-05
6.4789e-05
6.93057e-05
5.27292e-05
5.754e-05
6.54741e-05
6.83966e-05
5.28873e-05
7.18679e-05
7.16359e-05
6.29817e-05
5.14069e-05
6.7386e-05
5.55833e-05
6.4163e-05
5.14464e-05
6.61281e-05
7.25243e-05
7.25137e-05
5.82741e-05
7.12782e-05
7.12046e-05
6.8135e-05
7.38989e-05
6.97346e-05
7.34466e-05
7.123e-05
7.11008e-05
6.79362e-05
7.3863e-05
6.90579e-05
7.35051e-05
4.64267e-05
4.45039e-05
4.50357e-05
4.35426e-05
4.21172e-05
4.16235e-05
4.16212e-05
5.93649e-05
6.53427e-05
5.1751e-05
5.38773e-05
6.13705e-05
6.34077e-05
4.99481e-05
7.13691e-05
7.13854e-05
5.88632e-05
4.99279e-05
6.40554e-05
5.22402e-05
6.01714e-05
4.865e-05
6.30826e-05
6.93766e-05
6.92953e-05
5.35185e-05
6.84811e-05
6.84676e-05
6.60859e-05
7.31204e-05
6.63634e-05
7.3219e-05
7.1161e-05
7.14321e-05
6.67945e-05
7.32793e-05
6.68603e-05
7.3402e-05
4.07918e-05
4.08952e-05
4.0807e-05
3.96408e-05
3.88924e-05
4.00631e-05
3.98902e-05
5.7414e-05
6.19426e-05
4.60697e-05
4.92323e-05
5.75494e-05
6.18277e-05
4.55107e-05
7.15727e-05
7.18216e-05
5.83726e-05
4.63761e-05
6.27891e-05
5.017e-05
5.80756e-05
4.61467e-05
6.31747e-05
6.82531e-05
6.83168e-05
5.16235e-05
6.86561e-05
6.87405e-05
6.77447e-05
7.36403e-05
6.67883e-05
7.40216e-05
7.18529e-05
7.2125e-05
6.84529e-05
7.38038e-05
6.76706e-05
7.41255e-05
3.88234e-05
4.0086e-05
3.9909e-05
3.9594e-05
4.00786e-05
4.15944e-05
4.14976e-05
6.00852e-05
6.32456e-05
4.52984e-05
4.95628e-05
5.8914e-05
6.42239e-05
4.56609e-05
7.20658e-05
7.21776e-05
6.11655e-05
4.63735e-05
6.47584e-05
5.16681e-05
6.01567e-05
4.71201e-05
6.54846e-05
7.00281e-05
7.0091e-05
5.38828e-05
7.0599e-05
7.06652e-05
6.94693e-05
7.43166e-05
6.8942e-05
7.44482e-05
7.22239e-05
7.22689e-05
6.94022e-05
7.42994e-05
6.92264e-05
7.43862e-05
4.13216e-05
4.23201e-05
4.22869e-05
4.24687e-05
4.33108e-05
4.3159e-05
4.32336e-05
6.23083e-05
6.59999e-05
4.88031e-05
5.36641e-05
6.19192e-05
6.6128e-05
4.94334e-05
7.20881e-05
7.20606e-05
6.24201e-05
4.94095e-05
6.62904e-05
5.4009e-05
6.23753e-05
4.97203e-05
6.60996e-05
7.11021e-05
7.11998e-05
5.59499e-05
7.09702e-05
7.10702e-05
6.55755e-05
7.41674e-05
6.94088e-05
7.49939e-05
7.20473e-05
6.66551e-05
6.50031e-05
7.40514e-05
6.89813e-05
7.4876e-05
3.08751e-05
3.72567e-05
3.71172e-05
4.4511e-05
3.04734e-05
3.86113e-05
3.83809e-05
6.15769e-05
6.60613e-05
5.00835e-05
5.21696e-05
6.21248e-05
6.73193e-05
4.81614e-05
7.17414e-05
6.61818e-05
6.08867e-05
4.99008e-05
6.54652e-05
5.13989e-05
6.1645e-05
4.77107e-05
6.646e-05
7.00183e-05
7.00427e-05
5.47829e-05
7.07421e-05
7.06912e-05
7.11719e-05
7.11777e-05
5.17818e-05
6.82895e-05
6.8315e-05
7.16807e-05
7.12652e-05
7.16814e-05
7.12702e-05
5.17115e-05
6.92925e-05
6.93199e-05
6.83308e-05
6.83609e-05
6.66724e-05
7.29223e-05
5.86372e-05
5.01144e-05
6.29952e-05
4.57563e-05
5.86185e-05
5.02063e-05
6.27874e-05
4.58067e-05
6.66654e-05
7.38362e-05
7.32421e-05
6.71163e-05
6.66139e-05
7.36388e-05
7.30441e-05
6.69794e-05
5.85163e-05
4.99134e-05
6.35278e-05
4.535e-05
6.29751e-05
4.54796e-05
5.85286e-05
5.84801e-05
4.98433e-05
6.27581e-05
4.53049e-05
6.26815e-05
4.54731e-05
5.8447e-05
5.17805e-05
6.79469e-05
6.79803e-05
7.10082e-05
7.15448e-05
7.10868e-05
5.1592e-05
6.83903e-05
6.84221e-05
6.79003e-05
6.79371e-05
7.15419e-05
7.1091e-05
5.85557e-05
5.00688e-05
6.29907e-05
4.56355e-05
6.66217e-05
7.30012e-05
5.85107e-05
4.99623e-05
4.56055e-05
6.26966e-05
6.66465e-05
7.38629e-05
7.32624e-05
6.72765e-05
5.84608e-05
4.98783e-05
6.3572e-05
4.52866e-05
6.29757e-05
4.5391e-05
5.85688e-05
6.65905e-05
7.37824e-05
7.31396e-05
6.71865e-05
5.84066e-05
4.96919e-05
4.52136e-05
6.30116e-05
4.53338e-05
6.26406e-05
5.84888e-05
6.68033e-05
7.2961e-05
5.87465e-05
5.00782e-05
4.57009e-05
6.31387e-05
6.68508e-05
7.32168e-05
5.86115e-05
4.98528e-05
6.28425e-05
4.53385e-05
6.27413e-05
4.54788e-05
5.8646e-05
6.67675e-05
7.36606e-05
7.30795e-05
6.72358e-05
5.86637e-05
4.99587e-05
4.54041e-05
6.39283e-05
4.54913e-05
6.31506e-05
5.87728e-05
6.683e-05
7.39061e-05
7.33508e-05
6.74095e-05
5.15604e-05
6.79192e-05
6.79887e-05
7.10889e-05
7.16538e-05
7.11751e-05
5.14269e-05
6.87591e-05
6.88053e-05
6.79143e-05
6.79841e-05
7.16482e-05
7.11848e-05
5.87625e-05
5.00591e-05
4.56287e-05
6.31855e-05
6.6843e-05
7.30566e-05
6.69023e-05
7.32717e-05
5.86401e-05
4.97413e-05
4.5316e-05
6.31539e-05
4.54047e-05
6.27565e-05
5.88213e-05
5.87106e-05
4.99566e-05
4.54064e-05
6.40506e-05
4.5464e-05
6.32106e-05
5.89694e-05
6.68322e-05
7.38114e-05
7.31913e-05
6.75234e-05
6.69005e-05
7.39638e-05
7.34105e-05
6.76528e-05
7.12473e-05
7.12693e-05
5.17978e-05
6.96255e-05
6.97067e-05
6.86291e-05
6.87249e-05
7.17168e-05
7.13384e-05
7.1728e-05
7.13589e-05
7.1792e-05
7.21173e-05
7.17905e-05
7.21118e-05
6.97241e-05
6.97436e-05
5.29565e-05
7.12205e-05
7.12125e-05
7.22397e-05
7.2174e-05
7.22345e-05
7.21677e-05
5.39088e-05
7.29897e-05
7.29675e-05
7.171e-05
7.16941e-05
6.92237e-05
7.38752e-05
6.74667e-05
7.46032e-05
6.07232e-05
6.39857e-05
4.53327e-05
5.0123e-05
5.88009e-05
6.56692e-05
4.54155e-05
6.05834e-05
6.3148e-05
4.52692e-05
4.97735e-05
5.86645e-05
6.50086e-05
4.5328e-05
6.99152e-05
7.50934e-05
7.48159e-05
7.1635e-05
6.9827e-05
7.5226e-05
7.48062e-05
7.16118e-05
6.14583e-05
5.11122e-05
6.79394e-05
4.7355e-05
6.62665e-05
4.58695e-05
6.3722e-05
6.13304e-05
5.03987e-05
6.77257e-05
4.7064e-05
6.56905e-05
4.57029e-05
6.36548e-05
6.88792e-05
6.88966e-05
5.19779e-05
7.05983e-05
7.05724e-05
7.16774e-05
7.21093e-05
7.23824e-05
7.22172e-05
5.28988e-05
7.29273e-05
7.28833e-05
7.1204e-05
7.11713e-05
7.23654e-05
7.22009e-05
6.09405e-05
6.40246e-05
4.52822e-05
5.01266e-05
5.89654e-05
6.57034e-05
4.53989e-05
6.94632e-05
7.40217e-05
6.76766e-05
7.47315e-05
6.08759e-05
4.5204e-05
6.3539e-05
4.9843e-05
5.88639e-05
4.5313e-05
6.54424e-05
7.00947e-05
7.51088e-05
7.4837e-05
7.18038e-05
6.16843e-05
5.11943e-05
6.79664e-05
4.76389e-05
6.62983e-05
4.59733e-05
6.39369e-05
7.00708e-05
7.52799e-05
7.49213e-05
7.18341e-05
6.16358e-05
5.08424e-05
4.7564e-05
6.81237e-05
4.58734e-05
6.61345e-05
6.39455e-05
6.93087e-05
7.38889e-05
6.76765e-05
7.45938e-05
6.09224e-05
4.54037e-05
6.43452e-05
5.03811e-05
5.91356e-05
4.55229e-05
6.59065e-05
6.94322e-05
7.40957e-05
6.78342e-05
7.46421e-05
6.14455e-05
5.04512e-05
6.77007e-05
4.72281e-05
6.57076e-05
4.58023e-05
6.36404e-05
6.98734e-05
7.51936e-05
7.47899e-05
7.15554e-05
6.1607e-05
5.16445e-05
4.76706e-05
6.7955e-05
4.60858e-05
6.64505e-05
6.37201e-05
6.99791e-05
7.50065e-05
7.47784e-05
7.15845e-05
6.9259e-05
6.92851e-05
5.24732e-05
7.10268e-05
7.10062e-05
7.17814e-05
7.21826e-05
7.23982e-05
7.22825e-05
5.35368e-05
7.33e-05
7.32505e-05
7.16367e-05
7.16026e-05
7.2375e-05
7.22622e-05
6.12305e-05
4.5421e-05
6.44652e-05
5.04625e-05
5.9424e-05
4.55973e-05
6.60133e-05
6.96043e-05
7.40399e-05
6.796e-05
7.4718e-05
6.96798e-05
7.41498e-05
6.80784e-05
7.46772e-05
6.18158e-05
5.0955e-05
4.77947e-05
6.80943e-05
4.60825e-05
6.61628e-05
6.39526e-05
6.19147e-05
5.18219e-05
4.80379e-05
6.80186e-05
4.63401e-05
6.65477e-05
6.39694e-05
7.01653e-05
7.52303e-05
7.48979e-05
7.17864e-05
7.02212e-05
7.50074e-05
7.48056e-05
7.17719e-05
7.18139e-05
7.20937e-05
7.18214e-05
7.20892e-05
5.44365e-05
7.29922e-05
7.29924e-05
7.18564e-05
7.18796e-05
7.21718e-05
7.21373e-05
7.21586e-05
7.21298e-05
7.2206e-05
7.19259e-05
7.2202e-05
7.1924e-05
7.33023e-05
7.32834e-05
5.86641e-05
7.38131e-05
7.38108e-05
7.11944e-05
7.175e-05
7.11905e-05
7.17478e-05
5.90747e-05
7.28824e-05
7.28899e-05
7.38292e-05
7.38305e-05
7.30862e-05
7.52752e-05
7.20889e-05
7.51589e-05
6.58253e-05
6.83781e-05
4.92251e-05
5.58797e-05
6.43752e-05
6.92465e-05
5.06937e-05
6.58625e-05
6.83029e-05
4.90544e-05
5.58195e-05
6.43347e-05
6.95644e-05
5.06435e-05
7.31289e-05
7.38361e-05
7.46653e-05
7.27385e-05
7.32139e-05
7.40607e-05
7.49441e-05
7.28926e-05
6.60877e-05
5.66555e-05
6.90829e-05
5.22258e-05
6.93558e-05
5.16865e-05
6.6239e-05
6.61464e-05
5.68297e-05
6.97895e-05
5.23296e-05
6.97756e-05
5.1729e-05
6.63405e-05
7.33972e-05
7.33555e-05
5.87631e-05
7.43219e-05
7.42812e-05
7.23615e-05
7.21315e-05
7.13451e-05
7.19674e-05
5.93343e-05
7.3836e-05
7.37832e-05
7.44264e-05
7.4386e-05
7.13334e-05
7.19505e-05
6.59599e-05
6.84048e-05
4.94465e-05
5.59232e-05
6.45747e-05
6.92743e-05
5.08415e-05
7.32087e-05
7.53067e-05
7.22941e-05
7.50738e-05
6.60371e-05
4.94602e-05
6.86688e-05
5.61636e-05
6.46032e-05
5.09179e-05
6.97803e-05
7.32096e-05
7.38038e-05
7.46564e-05
7.26081e-05
6.61956e-05
5.66789e-05
6.90841e-05
5.22521e-05
6.93826e-05
5.17663e-05
6.62582e-05
7.33031e-05
7.38591e-05
7.48313e-05
7.27086e-05
6.62837e-05
5.70209e-05
5.23839e-05
6.96608e-05
5.18808e-05
6.99323e-05
6.63595e-05
7.29419e-05
7.5239e-05
7.20054e-05
7.51109e-05
6.56723e-05
4.93717e-05
6.83419e-05
5.58604e-05
6.43273e-05
5.06986e-05
6.90747e-05
7.28647e-05
7.50118e-05
7.20066e-05
7.47333e-05
6.59902e-05
5.67917e-05
6.97118e-05
5.22195e-05
6.97122e-05
5.1659e-05
6.61461e-05
7.30563e-05
7.40152e-05
7.48957e-05
7.26735e-05
6.59093e-05
5.64988e-05
5.20519e-05
6.86359e-05
5.15849e-05
6.91453e-05
6.60067e-05
7.29597e-05
7.36737e-05
7.45157e-05
7.24758e-05
7.37317e-05
7.36797e-05
5.91013e-05
7.44798e-05
7.44251e-05
7.23542e-05
7.20396e-05
7.11875e-05
7.1858e-05
5.9588e-05
7.33952e-05
7.33284e-05
7.45221e-05
7.44663e-05
7.11728e-05
7.18385e-05
6.57728e-05
4.96194e-05
6.83939e-05
5.5903e-05
6.45448e-05
5.08362e-05
6.90922e-05
7.30165e-05
7.52516e-05
7.22066e-05
7.49995e-05
7.29242e-05
7.50076e-05
7.217e-05
7.46867e-05
6.60753e-05
5.69583e-05
5.22196e-05
6.95307e-05
5.1769e-05
6.98384e-05
6.60723e-05
6.59677e-05
5.6506e-05
5.20251e-05
6.85293e-05
5.16284e-05
6.91511e-05
6.59253e-05
7.30866e-05
7.37931e-05
7.47575e-05
7.23359e-05
7.2983e-05
7.35894e-05
7.44578e-05
7.21808e-05
7.21183e-05
7.18114e-05
7.21019e-05
7.17912e-05
5.88986e-05
7.23717e-05
7.23221e-05
7.36194e-05
7.36064e-05
7.10776e-05
7.16283e-05
7.10562e-05
7.16073e-05
7.09783e-05
7.04906e-05
7.09737e-05
7.04879e-05
7.22488e-05
7.22467e-05
5.84063e-05
7.00652e-05
7.0042e-05
7.01959e-05
7.03599e-05
7.01991e-05
7.03587e-05
5.74447e-05
6.72504e-05
6.7251e-05
6.92882e-05
6.9264e-05
6.95225e-05
7.36828e-05
7.21233e-05
7.26505e-05
6.34136e-05
6.84266e-05
5.24012e-05
5.69726e-05
6.59774e-05
6.60526e-05
5.23758e-05
6.35348e-05
6.92932e-05
5.2537e-05
5.7396e-05
6.61111e-05
6.65818e-05
5.25212e-05
6.84801e-05
7.18553e-05
7.23318e-05
6.58963e-05
6.85489e-05
7.18438e-05
7.23651e-05
6.59197e-05
6.23081e-05
5.63347e-05
6.24757e-05
5.08641e-05
6.51102e-05
5.20727e-05
5.89603e-05
6.24128e-05
5.68456e-05
6.26265e-05
5.10815e-05
6.55346e-05
5.22395e-05
5.90162e-05
7.30535e-05
7.30019e-05
5.92405e-05
7.04856e-05
7.0441e-05
7.10803e-05
7.05133e-05
7.01767e-05
7.03634e-05
5.82263e-05
6.72977e-05
6.73108e-05
6.95886e-05
6.95579e-05
7.01879e-05
7.03664e-05
6.31351e-05
6.84019e-05
5.23935e-05
5.69634e-05
6.5875e-05
6.59811e-05
5.23515e-05
6.91673e-05
7.34723e-05
7.1867e-05
7.24685e-05
6.31731e-05
5.25285e-05
6.88756e-05
5.73269e-05
6.59802e-05
5.24822e-05
6.60139e-05
6.81996e-05
7.18375e-05
7.22946e-05
6.56637e-05
6.20001e-05
5.62903e-05
6.24095e-05
5.06151e-05
6.50319e-05
5.1993e-05
5.86527e-05
6.81825e-05
7.17649e-05
7.22055e-05
6.56129e-05
6.20147e-05
5.65389e-05
5.06452e-05
6.21051e-05
5.21005e-05
6.4945e-05
5.86148e-05
6.9297e-05
7.36421e-05
7.18841e-05
7.26349e-05
6.30595e-05
5.21875e-05
6.79165e-05
5.66188e-05
6.56892e-05
5.21451e-05
6.54986e-05
6.91533e-05
7.33485e-05
7.1692e-05
7.25094e-05
6.21491e-05
5.67735e-05
6.26066e-05
5.08696e-05
6.54563e-05
5.20824e-05
5.88549e-05
6.83466e-05
7.18713e-05
7.23605e-05
6.58448e-05
6.19619e-05
5.58004e-05
5.044e-05
6.2176e-05
5.1791e-05
6.45844e-05
5.87345e-05
6.82227e-05
7.19325e-05
7.22891e-05
6.57867e-05
7.25736e-05
7.25064e-05
5.87593e-05
6.98951e-05
6.98511e-05
7.09265e-05
7.03988e-05
7.01388e-05
7.02675e-05
5.76163e-05
6.68472e-05
6.68683e-05
6.90082e-05
6.89758e-05
7.01526e-05
7.0274e-05
6.26314e-05
5.21208e-05
6.77893e-05
5.65696e-05
6.54182e-05
5.20552e-05
6.53261e-05
6.88307e-05
7.3415e-05
7.14991e-05
7.24468e-05
6.87559e-05
7.3263e-05
7.13672e-05
7.24374e-05
6.16291e-05
5.64235e-05
5.03288e-05
6.20735e-05
5.18667e-05
6.48332e-05
5.83735e-05
6.15146e-05
5.56799e-05
5.0064e-05
6.20429e-05
5.16222e-05
6.44105e-05
5.83314e-05
6.78849e-05
7.17964e-05
7.21979e-05
6.54852e-05
6.78313e-05
7.1909e-05
7.2228e-05
6.54896e-05
7.08772e-05
7.04583e-05
7.08577e-05
7.04473e-05
5.66716e-05
6.70325e-05
6.70014e-05
6.88019e-05
6.87294e-05
7.02759e-05
7.03587e-05
7.02795e-05
7.03521e-05
7.0192e-05
7.0411e-05
7.01957e-05
7.04134e-05
6.67277e-05
6.67404e-05
4.97266e-05
6.57984e-05
6.58364e-05
7.10308e-05
7.05114e-05
7.10262e-05
7.05116e-05
4.89989e-05
6.60673e-05
6.60894e-05
6.56957e-05
6.57359e-05
6.38895e-05
7.17796e-05
6.52043e-05
7.1875e-05
5.56499e-05
6.17255e-05
4.82738e-05
4.93499e-05
5.79052e-05
6.02341e-05
4.58823e-05
5.5664e-05
6.18127e-05
4.84603e-05
4.95946e-05
5.79463e-05
6.02531e-05
4.60012e-05
6.37093e-05
7.27164e-05
7.2033e-05
6.38641e-05
6.37122e-05
7.27276e-05
7.20376e-05
6.38785e-05
5.52029e-05
4.77425e-05
5.98795e-05
4.2863e-05
5.99836e-05
4.40447e-05
5.47872e-05
5.52146e-05
4.78786e-05
5.99835e-05
4.2897e-05
6.00135e-05
4.41121e-05
5.48024e-05
6.67353e-05
6.67645e-05
4.98515e-05
6.58144e-05
6.58697e-05
7.0185e-05
7.04207e-05
7.10305e-05
7.0514e-05
4.90764e-05
6.63367e-05
6.63855e-05
6.57396e-05
6.57983e-05
7.10311e-05
7.05226e-05
5.54994e-05
6.16721e-05
4.80112e-05
4.92895e-05
5.76274e-05
6.02209e-05
4.56824e-05
6.37666e-05
7.17256e-05
6.49399e-05
7.19057e-05
5.54547e-05
4.79872e-05
6.13541e-05
4.91109e-05
5.75809e-05
4.56378e-05
6.00042e-05
6.3662e-05
7.27203e-05
7.20401e-05
6.39377e-05
5.50963e-05
4.77055e-05
5.98906e-05
4.27972e-05
5.99807e-05
4.39174e-05
5.47666e-05
6.36293e-05
7.27861e-05
7.20752e-05
6.39527e-05
5.50595e-05
4.75562e-05
4.27671e-05
5.99795e-05
4.38746e-05
5.98289e-05
5.47547e-05
6.40517e-05
7.18162e-05
6.51878e-05
7.19371e-05
5.57694e-05
4.7948e-05
6.15407e-05
4.91692e-05
5.77558e-05
4.57508e-05
6.0423e-05
6.40685e-05
7.1907e-05
6.51519e-05
7.21195e-05
5.53999e-05
4.79247e-05
6.01073e-05
4.30581e-05
6.01028e-05
4.41737e-05
5.51329e-05
6.3926e-05
7.27876e-05
7.2101e-05
6.43142e-05
5.54139e-05
4.78622e-05
4.31111e-05
6.05625e-05
4.41175e-05
6.02896e-05
5.51864e-05
6.3955e-05
7.2995e-05
7.22885e-05
6.43987e-05
6.63541e-05
6.63889e-05
4.93511e-05
6.56329e-05
6.56971e-05
7.01633e-05
7.04548e-05
7.10844e-05
7.05517e-05
4.86751e-05
6.64358e-05
6.64988e-05
6.56043e-05
6.56711e-05
7.10874e-05
7.05674e-05
5.5597e-05
4.7599e-05
6.14318e-05
4.90725e-05
5.74033e-05
4.54983e-05
6.0388e-05
6.39277e-05
7.17669e-05
6.48876e-05
7.19801e-05
6.3982e-05
7.18932e-05
6.49087e-05
7.21449e-05
5.52431e-05
4.76002e-05
4.29353e-05
6.01374e-05
4.39248e-05
5.99256e-05
5.51081e-05
5.53001e-05
4.7807e-05
4.30471e-05
6.06255e-05
4.39686e-05
6.02736e-05
5.51881e-05
6.38493e-05
7.28609e-05
7.21508e-05
6.44712e-05
6.39099e-05
7.30274e-05
7.23169e-05
6.45597e-05
7.02942e-05
7.05928e-05
7.03017e-05
7.06057e-05
4.90789e-05
6.69794e-05
6.70242e-05
6.60489e-05
6.60833e-05
7.12197e-05
7.07067e-05
7.12286e-05
7.07193e-05
7.1193e-05
7.17201e-05
7.11868e-05
7.17165e-05
6.65781e-05
6.65851e-05
4.79409e-05
6.83161e-05
6.82917e-05
7.21659e-05
7.18455e-05
7.21741e-05
7.18435e-05
4.86367e-05
7.06619e-05
7.06246e-05
6.89274e-05
6.8895e-05
6.64549e-05
7.29908e-05
6.44322e-05
7.37644e-05
5.68327e-05
6.01676e-05
4.22772e-05
4.63466e-05
5.48676e-05
6.21544e-05
4.21274e-05
5.68658e-05
6.03745e-05
4.22942e-05
4.64224e-05
5.48871e-05
6.23689e-05
4.21387e-05
6.71288e-05
7.46379e-05
7.40629e-05
6.91379e-05
6.71402e-05
7.44396e-05
7.3976e-05
6.91142e-05
5.76795e-05
4.65358e-05
6.50535e-05
4.27108e-05
6.28794e-05
4.21936e-05
6.0306e-05
5.77076e-05
4.6615e-05
6.50019e-05
4.27105e-05
6.3059e-05
4.22027e-05
6.02993e-05
6.68693e-05
6.69042e-05
4.81605e-05
6.85875e-05
6.85719e-05