/*--------------------------------*- C++ -*----------------------------------*\
| =========                 |                                                 |
| \\      /  F ield         | OpenFOAM: The Open Source CFD Toolbox           |
|  \\    /   O peration     | Version:  v1906                                 |
|   \\  /    A nd           | Web:      www.OpenFOAM.com                      |
|    \\/     M anipulation  |                                                 |
\*---------------------------------------------------------------------------*/
FoamFile
{
    version     2.0;
    format      ascii;
    class       volScalarField;
    location    "750";
    object      nut;
}
// * * * * * * * * * * * * * * * * * * * * * * * * * * * * * * * * * * * * * //

dimensions      [0 2 -1 0 0 0 0];


internalField   nonuniform List<scalar> 
43024
(
0.000195146
0.000188395
0.000187149
0.000171264
0.000208711
0.000209209
0.000212702
0.000193951
0.000250381
0.000238001
0.000239045
0.000212163
0.000255986
0.000217226
0.000212379
0.000184556
0.000186507
0.000176455
0.000175553
0.000158292
0.000167617
0.000186861
0.000188012
0.000177856
0.000231476
0.000219043
0.000222286
0.000199548
0.00025435
0.000219961
0.000225278
0.000194536
0.000232983
0.000211955
0.000208677
0.000182926
0.000217231
0.000208206
0.000206141
0.000183245
0.000231566
0.000223385
0.000221739
0.000203063
0.000255825
0.000236483
0.000226626
0.000207116
0.000244224
0.000200149
0.000202541
0.000177905
0.000199152
0.00018145
0.000192708
0.000165488
0.00018692
0.000205828
0.000211001
0.000187882
0.000249184
0.00023887
0.000229542
0.000206989
0.00027579
0.000242156
0.000223683
0.00019881
0.000242827
0.000200035
0.000201256
0.000178333
0.000211819
0.000189416
0.000198105
0.000178453
0.000212833
0.00021266
0.000218348
0.000193772
0.000243524
0.000227035
0.000226179
0.000202178
0.000170971
0.000190898
0.000190735
0.000170579
0.000190651
0.000189658
0.00019081
0.000190731
0.000169566
0.000189934
0.000190533
0.00017142
0.000169811
0.000188163
0.000188254
0.0001883
0.000201427
0.000196093
0.000168782
0.000184074
0.000187981
0.000186829
0.000202015
0.00020039
0.00018831
0.0001966
0.000204265
0.000167773
0.000187206
0.000188213
0.000200999
0.000205214
0.000190128
0.000192454
0.000211571
0.00021223
0.00020898
0.000231908
0.00023316
0.000189134
0.000213159
0.00021272
0.000212451
0.000232062
0.000234179
0.00021386
0.000232887
0.000230968
0.000192081
0.000214542
0.000214545
0.000233758
0.000231078
0.000210983
0.000212915
0.000196264
0.000236831
0.000238334
0.000232401
0.000237023
0.000214854
0.000199447
0.000237007
0.000239532
0.000231651
0.00023184
0.000235854
0.000236242
0.000226566
0.000216198
0.000195326
0.000235998
0.000230759
0.000225254
0.00019165
0.000188553
0.000159155
0.000214618
0.000217747
0.000179712
0.000180245
0.000190958
0.000159318
0.000213991
0.000213076
0.000179583
0.000178832
0.000210228
0.000180618
0.000180949
0.000187036
0.000158214
0.000209202
0.000179221
0.000180752
0.000160293
0.000156846
0.000166473
0.000175528
0.000175948
0.000171173
0.000172465
0.000157062
0.000168304
0.000175473
0.000175031
0.000171142
0.000173018
0.000177505
0.000173563
0.000178313
0.000156109
0.000168965
0.00017738
0.000174365
0.000178653
0.000172694
0.000172272
0.000200087
0.00018525
0.00018597
0.000219507
0.000215868
0.000173779
0.000195848
0.000185202
0.000186962
0.000219893
0.000218336
0.000191577
0.000215439
0.000218298
0.000174413
0.000197979
0.000191901
0.000217998
0.00021887
0.000198734
0.000201853
0.00020303
0.000224489
0.00021972
0.000230503
0.000222889
0.000196689
0.000194662
0.000225076
0.000222916
0.000231597
0.000228335
0.00022154
0.000221918
0.000224852
0.000199343
0.000199774
0.00022223
0.00022736
0.000226069
0.000196917
0.000200503
0.000186564
0.000228377
0.00022094
0.000211767
0.000213605
0.000193695
0.00018966
0.000229534
0.000226397
0.000211265
0.00021148
0.000220742
0.000213264
0.000208436
0.000197792
0.000186957
0.000221732
0.000211061
0.000207825
0.00018393
0.000185078
0.000179864
0.000208064
0.000212115
0.000202714
0.000209648
0.00018938
0.000187501
0.00020739
0.000208867
0.00020196
0.000205157
0.000206416
0.000209416
0.000201769
0.000186036
0.000184554
0.00020568
0.000205043
0.000201118
0.000181204
0.000179052
0.00019312
0.000200899
0.000208331
0.000213315
0.000217007
0.000186715
0.000196501
0.000200411
0.000205546
0.000213657
0.000218108
0.000202943
0.000218829
0.000222644
0.000185891
0.000197337
0.000203318
0.000219326
0.000222575
0.000201165
0.000195896
0.000209023
0.000220186
0.00022211
0.000232527
0.000232671
0.000198642
0.000210206
0.000219905
0.000220773
0.000231115
0.000226766
0.000226971
0.00023355
0.000236854
0.000198271
0.000200237
0.000226454
0.00022751
0.000235367
0.00021044
0.000209949
0.000194066
0.000236622
0.000236155
0.000223894
0.000212774
0.000208973
0.000183418
0.000234882
0.000227288
0.000223732
0.00020962
0.000238065
0.000210492
0.000208765
0.000197995
0.000182619
0.000236004
0.000207802
0.000208773
0.000181754
0.000188419
0.000167448
0.000211461
0.000201728
0.00018792
0.000184585
0.00017852
0.000162951
0.000212102
0.00020376
0.000189567
0.00019473
0.000199884
0.000184517
0.000187369
0.000180412
0.000173527
0.00020073
0.000194845
0.000189322
0.000166586
0.00016571
0.000170418
0.000184962
0.000181557
0.000180907
0.000189783
0.000161067
0.000179481
0.000186701
0.000192632
0.000182452
0.000200044
0.000184658
0.000192586
0.000197251
0.000172902
0.000186336
0.000186755
0.00020273
0.000198701
0.00018371
0.000174892
0.000201332
0.000192102
0.000203434
0.000225158
0.000233784
0.000184605
0.000210075
0.000192871
0.000208697
0.000224085
0.000226424
0.000208314
0.000234483
0.000230537
0.000189628
0.000203358
0.000209008
0.000227041
0.000229211
0.000205999
0.000203936
0.000214021
0.00023187
0.000238659
0.000242804
0.000249013
0.000211943
0.000214725
0.000230279
0.00022908
0.00024054
0.000233647
0.000233564
0.000248353
0.000238831
0.000204009
0.00019961
0.000231968
0.000231768
0.00023593
0.000203326
0.000212133
0.00019037
0.000244667
0.000245264
0.0002187
0.000209317
0.000209589
0.000181065
0.000242145
0.000226843
0.000217753
0.000205898
0.000230274
0.000207179
0.00020513
0.000195836
0.000179919
0.000227101
0.000204149
0.00020462
0.000179696
0.000186828
0.000176403
0.000210091
0.000201436
0.000197206
0.000191563
0.000177895
0.000169898
0.000209896
0.000202372
0.000198434
0.000197258
0.000201002
0.000191203
0.000195893
0.000178733
0.000177776
0.000201193
0.000196647
0.000196606
0.000176938
0.000175557
0.000182507
0.000195627
0.000189568
0.000199557
0.000203777
0.00017008
0.000186498
0.000196849
0.000197379
0.000201679
0.000212846
0.00019588
0.000205901
0.000212392
0.000179339
0.000192997
0.00019749
0.000214519
0.00021386
0.000192356
0.000184634
0.000194903
0.000205777
0.000210799
0.000220727
0.000225551
0.000189051
0.000199917
0.000207416
0.000216879
0.000220593
0.000225818
0.00021694
0.000226554
0.000226255
0.000194303
0.000200063
0.000217897
0.000227238
0.000226656
0.000199852
0.000197716
0.000221123
0.000226204
0.000202981
0.000220842
0.000225109
0.000250515
0.000249154
0.000249962
0.000225848
0.000202074
0.000225925
9.64867e-05
5.06228e-05
2.38576e-05
9.63669e-05
5.06233e-05
0.000198023
0.000198564
0.000196899
0.000197406
0.000138632
0.000195339
9.98884e-05
0.000205335
2.38683e-05
0.000138416
0.000193714
0.000203905
9.96803e-05
0.000174163
7.55582e-05
7.56186e-05
9.98648e-05
5.09418e-05
9.68849e-05
5.11544e-05
2.39708e-05
2.40451e-05
0.000100171
5.09459e-05
9.71475e-05
5.11573e-05
0.000195654
0.000193767
0.000194658
0.000194542
0.000190164
0.000193472
0.000199277
0.000140948
9.89828e-05
0.000198139
0.00018551
0.000136219
0.000102236
0.000194993
2.39865e-05
2.40566e-05
0.000142028
0.000197162
9.97237e-05
0.000185139
0.000137085
0.000194594
0.000103096
7.72252e-05
7.73175e-05
0.000175728
7.90773e-05
7.91139e-05
0.000107551
5.13169e-05
0.000105205
5.12464e-05
2.40909e-05
2.40557e-05
0.000107787
5.13167e-05
0.000105522
5.12412e-05
0.000203202
0.000208999
0.000212439
0.000243793
0.000244014
0.000245598
0.000242969
0.000158679
0.000108962
0.000216995
0.000219954
0.000152488
0.000112334
0.000229356
2.40895e-05
2.40403e-05
0.000159334
0.000220526
0.000109801
0.000222438
0.000153526
0.000231821
0.0001129
8.19118e-05
8.18806e-05
0.000202413
8.28872e-05
8.28726e-05
0.000103356
5.07829e-05
0.000107585
5.04638e-05
2.38814e-05
2.37823e-05
0.000102875
5.07649e-05
0.00010733
5.04443e-05
0.000251459
0.000252375
0.000248812
0.000266627
0.000269889
0.000267553
0.000261908
0.000158361
0.000114557
0.000250905
0.000243811
0.000164908
0.000109711
0.000257431
2.38533e-05
2.37604e-05
0.000156916
0.000251462
0.000113771
0.00024436
0.000164435
0.000257616
0.000108557
8.13165e-05
8.12569e-05
0.000211964
7.84764e-05
7.83699e-05
9.19634e-05
5.01742e-05
9.50222e-05
5.01939e-05
2.37205e-05
2.37574e-05
9.17728e-05
5.01651e-05
9.46002e-05
5.01914e-05
0.000260834
0.000254294
0.00024906
0.00019771
0.000199837
0.000196539
0.00019743
0.000131856
9.95023e-05
0.000237524
0.000200625
0.000140181
9.56159e-05
0.000218054
2.37138e-05
2.37604e-05
0.000130996
0.000232587
9.84634e-05
0.000196953
0.000138651
0.000214162
9.50471e-05
7.3984e-05
7.39261e-05
0.000170168
7.2781e-05
7.2793e-05
9.4939e-05
5.05718e-05
9.14379e-05
5.08613e-05
2.3886e-05
2.3964e-05
9.49897e-05
5.05673e-05
9.16392e-05
5.08571e-05
0.000187939
0.000185913
0.000188105
0.00016817
0.000169805
0.000169095
0.000173055
0.000132015
9.41417e-05
0.000186028
0.00017266
0.000126405
9.79078e-05
0.000180812
2.38924e-05
2.39719e-05
0.000132466
0.000185201
9.44987e-05
0.000171831
0.000126565
0.00018029
9.80696e-05
7.39028e-05
7.39363e-05
0.000157989
7.61193e-05
7.61071e-05
0.000103667
5.11902e-05
0.000101113
5.12469e-05
2.40228e-05
2.40249e-05
0.000103768
5.11991e-05
0.000101059
5.12679e-05
0.000168857
0.000168907
0.000174013
0.000217054
0.00021184
0.000215808
0.000217484
0.000150623
0.00010444
0.000188317
0.000199223
0.000144703
0.000106921
0.000203762
2.40392e-05
2.40473e-05
0.000150958
0.000189838
0.000104511
0.000200578
0.000144857
0.000205346
0.000107258
7.93842e-05
7.93216e-05
0.000189883
8.04205e-05
8.0373e-05
0.000103368
5.11426e-05
0.000104731
5.10353e-05
2.39999e-05
2.39944e-05
0.000104328
5.11695e-05
0.000105338
5.10419e-05
0.000224915
0.000229516
0.000229269
0.000251997
0.000242945
0.000248909
0.000244907
0.00015199
0.000107535
0.000231947
0.000220961
0.000153848
0.00010633
0.00023595
2.402e-05
2.3999e-05
0.000154188
0.000234845
0.000108696
0.00022476
0.000154942
0.000239278
0.000108024
8.02744e-05
8.03182e-05
0.000201539
7.94332e-05
7.94805e-05
0.000100604
5.08835e-05
0.00010122
5.08281e-05
2.39937e-05
2.3994e-05
0.000100274
5.08549e-05
0.000101523
5.07936e-05
0.000244434
0.00025105
0.000246468
0.000240565
0.000240216
0.000239138
0.00023377
0.000146801
0.000104965
0.000238596
0.000217265
0.000147943
0.0001048
0.000234698
2.39674e-05
2.39613e-05
0.000146447
0.000243374
0.000105668
0.000219746
0.000149143
0.000237417
0.000104479
7.8157e-05
7.80255e-05
0.00018916
7.75445e-05
7.73186e-05
9.9325e-05
5.07899e-05
9.98344e-05
5.08236e-05
2.39911e-05
2.39935e-05
9.85259e-05
5.07733e-05
9.88828e-05
5.08356e-05
0.000236055
0.000232936
0.000228892
0.000219923
0.000228391
0.000223332
0.000220329
0.000144827
0.000104703
0.000225457
0.000211091
0.000145562
0.000104388
0.000223785
2.39698e-05
2.39943e-05
0.000142404
0.0002226
0.000103086
0.000207207
0.000143425
0.000220183
0.000102744
7.66624e-05
7.6517e-05
0.000181066
7.65279e-05
7.68532e-05
0.000101025
5.10261e-05
9.89799e-05
5.1174e-05
2.40277e-05
2.40536e-05
0.000101614
5.10309e-05
9.99199e-05
5.11497e-05
0.000226528
0.00022204
0.000218763
0.000222064
0.000230157
0.000230679
0.000235274
0.000149247
0.000103923
0.000219183
0.000208567
0.000145147
0.000106178
0.000220065
2.40248e-05
2.40267e-05
0.00015053
0.000216837
0.000105217
0.000210926
0.000146497
0.000221597
0.000107067
7.88834e-05
7.90222e-05
0.000191182
8.05853e-05
8.04903e-05
0.000105708
5.12767e-05
0.000104386
5.12055e-05
2.40364e-05
2.39851e-05
0.00010456
5.12221e-05
0.000103848
5.1159e-05
0.000236838
0.000235555
0.000241685
0.000250587
0.000250804
0.000244641
0.000254351
0.000159222
0.000109466
0.000238141
0.000226555
0.000156143
0.000110907
0.000241937
2.39807e-05
2.39423e-05
0.000156902
0.000236749
0.000108714
0.000223678
0.000155251
0.000239397
0.000108343
8.22861e-05
8.19762e-05
0.000207866
8.21825e-05
8.18614e-05
0.000100692
5.08289e-05
0.000104147
5.05907e-05
2.38561e-05
2.38108e-05
0.000100614
5.08476e-05
0.000102908
5.06343e-05
0.00025549
0.000247152
0.000258075
0.000259521
0.000243888
0.000236743
0.000238778
0.000147722
0.000107761
0.000253295
0.000234214
0.00015494
0.000103738
0.000252567
2.38825e-05
2.38696e-05
0.000145847
0.000245903
0.000104796
0.000220669
0.000150903
0.000241801
0.000102561
7.87653e-05
7.88379e-05
0.000198232
7.65053e-05
7.67265e-05
9.3249e-05
5.03821e-05
9.50205e-05
5.03958e-05
2.38078e-05
2.38605e-05
9.48794e-05
5.04284e-05
9.6359e-05
5.04344e-05
0.000228978
0.000228398
0.000226428
0.000205765
0.000198957
0.000210104
0.000202698
0.000132305
9.76312e-05
0.000215519
0.000192319
0.000135928
9.58611e-05
0.000206191
2.3884e-05
2.39249e-05
0.000136175
0.00021725
9.97498e-05
0.000198654
0.000138355
0.000211427
9.9057e-05
7.39997e-05
7.42796e-05
0.000171205
7.3465e-05
7.37095e-05
9.56813e-05
5.06588e-05
9.33173e-05
5.08982e-05
2.3988e-05
2.40763e-05
9.69278e-05
5.06877e-05
9.48456e-05
5.09147e-05
0.000193895
0.000207139
0.000199108
0.000185904
0.000186509
0.000201724
0.000194579
0.000136831
9.63463e-05
0.000192682
0.000178728
0.000131684
9.9503e-05
0.000189494
2.40057e-05
2.40558e-05
0.000140666
0.000202881
0.000100293
0.000191407
0.000136465
0.000200508
0.00010259
7.51243e-05
7.51606e-05
0.000169072
7.69378e-05
7.6936e-05
0.000103808
5.12662e-05
0.000100803
5.14067e-05
2.41624e-05
2.41724e-05
0.00010332
5.12396e-05
0.000101093
5.13497e-05
0.000199438
0.000209392
0.000206982
0.00023581
0.000249715
0.000242023
0.000246005
0.000155247
0.000106313
0.000214959
0.000217693
0.000148709
0.000109851
0.000228848
2.40859e-05
2.40773e-05
0.00015435
0.000219767
0.000106908
0.000218168
0.000149804
0.000229379
0.000108728
7.99206e-05
8.00011e-05
0.000197898
8.10438e-05
8.12257e-05
0.000107123
5.14142e-05
0.000106584
5.12751e-05
2.40938e-05
2.40211e-05
0.00010478
5.13255e-05
0.000105019
5.11998e-05
0.000260174
0.000248958
0.000253572
0.000271165
0.000279559
0.000261216
0.00026667
0.000161308
0.000112871
0.000254728
0.000242615
0.000161173
0.000112235
0.000259752
2.4006e-05
2.39668e-05
0.00015554
0.000246331
0.000109632
0.000232415
0.000158122
0.000250044
0.000107478
8.14342e-05
8.15666e-05
0.000210709
7.99619e-05
7.99804e-05
9.98809e-05
5.09123e-05
0.000102816
5.07532e-05
2.39009e-05
2.38776e-05
9.92381e-05
5.08928e-05
0.000101348
5.07666e-05
0.000282541
0.000261694
0.000266789
0.000257155
0.000244234
0.000235442
0.000235197
0.000144275
0.000106306
0.000262854
0.00022906
0.000151114
0.000102238
0.000249003
2.39204e-05
2.39224e-05
0.000141782
0.000246026
0.000103107
0.000215695
0.000146549
0.000236116
0.000100834
7.73632e-05
7.72449e-05
0.000189203
7.59946e-05
7.5933e-05
9.54794e-05
5.06334e-05
9.6232e-05
5.06641e-05
2.38855e-05
2.393e-05
9.65202e-05
5.06832e-05
9.69153e-05
5.07223e-05
0.00023028
0.000227626
0.000226588
0.000215815
0.000207912
0.000215713
0.000214483
0.000135717
9.85078e-05
0.000215606
0.00019553
0.000137084
9.78684e-05
0.000210225
2.39524e-05
2.39938e-05
0.000137857
0.000216193
9.96029e-05
0.00019955
0.000137897
0.000213486
0.000100069
7.53072e-05
7.53598e-05
0.000176382
7.56972e-05
7.57702e-05
9.79889e-05
5.08069e-05
9.63176e-05
5.09389e-05
2.40005e-05
2.40467e-05
9.93363e-05
5.08592e-05
9.79061e-05
5.09712e-05
0.000204275
0.000213538
0.000212332
0.000207009
0.000208914
0.000223825
0.000223377
0.000142819
0.000100006
0.000202235
0.000190929
0.000139106
0.000101954
0.000203086
2.40354e-05
2.40547e-05
0.00014626
0.000209159
0.000103008
0.000203805
0.000142812
0.000213958
0.000104713
7.74572e-05
7.74599e-05
0.000184512
7.82841e-05
7.82896e-05
0.000101356
5.10472e-05
0.000100218
5.11142e-05
2.40661e-05
2.40829e-05
0.00010131
5.10371e-05
0.000100877
5.10893e-05
0.000220132
0.000230862
0.00023098
0.000236162
0.00024321
0.000243673
0.000244457
0.000151156
0.000105796
0.000226947
0.000218345
0.000149179
0.000106409
0.000232572
2.40423e-05
2.40469e-05
0.00015193
0.000232306
0.000106568
0.00022104
0.00015097
0.000235307
0.000106646
7.90134e-05
7.9118e-05
0.000196774
7.88585e-05
7.90099e-05
0.000110898
5.52308e-05
0.000102381
8.59726e-05
2.70873e-05
4.66385e-05
0.000109716
5.51831e-05
0.000101691
8.59324e-05
0.000258191
0.000248752
0.00024805
0.000246045
0.00024734
0.000257311
0.00025555
0.00015551
0.00010899
0.000246919
0.000228577
0.000153058
0.00011065
0.000247426
2.70282e-05
4.62611e-05
0.000153461
0.000246792
0.000108059
0.000224584
0.000151979
0.000244527
0.000109126
7.8414e-05
7.84662e-05
0.000204989
8.59492e-05
8.58823e-05
2.38871e-05
2.38864e-05
0.000174555
7.54587e-05
7.54712e-05
2.39718e-05
2.39023e-05
2.39702e-05
2.39014e-05
0.000173449
7.62678e-05
7.62983e-05
7.52781e-05
7.53006e-05
9.64591e-05
5.05571e-05
0.000138424
0.000194218
9.99627e-05
0.000205242
0.000138464
0.000195478
9.98071e-05
0.000205905
9.62209e-05
5.08692e-05
5.06671e-05
9.61426e-05
9.61877e-05
5.07988e-05
5.05981e-05
9.59034e-05
0.000137685
0.000192459
9.97658e-05
0.000200699
9.95934e-05
0.000202659
0.00013556
0.000137689
0.000192633
9.83201e-05
0.000200706
9.94001e-05
0.000202865
0.000135459
0.00017556
7.52197e-05
7.52809e-05
2.386e-05
2.39473e-05
2.38715e-05
0.000174045
7.49938e-05
7.50734e-05
7.50109e-05
7.5075e-05
2.3948e-05
2.38734e-05
0.000138058
0.000193923
9.99221e-05
0.000204214
9.63015e-05
5.0578e-05
0.000137973
0.000193665
0.000204173
9.94789e-05
9.60904e-05
5.08734e-05
5.06689e-05
9.64196e-05
0.000137344
0.000192224
9.98513e-05
0.000199961
9.95485e-05
0.000201867
0.00013543
9.60277e-05
5.0842e-05
5.0624e-05
9.62471e-05
0.000137245
0.000191415
0.000199561
9.86177e-05
0.000201592
9.90901e-05
0.000135216
9.66599e-05
5.05701e-05
0.000138602
0.000193565
0.000204376
0.000100082
9.66982e-05
5.06555e-05
0.00013796
0.000192635
9.85132e-05
0.00020072
9.95054e-05
0.000202669
0.000136028
9.64159e-05
5.08061e-05
5.06098e-05
9.64522e-05
0.000137958
0.000192292
0.000200624
0.000100645
0.000202337
9.9729e-05
0.000136268
9.64435e-05
5.089e-05
5.07004e-05
9.6773e-05
0.000174077
7.50767e-05
7.5188e-05
2.38721e-05
2.39637e-05
2.38841e-05
0.000172743
7.5445e-05
7.55424e-05
7.48319e-05
7.49509e-05
2.39647e-05
2.38877e-05
0.000138483
0.000193373
0.000203596
0.000100096
9.66499e-05
5.05998e-05
9.67128e-05
5.06731e-05
0.000137759
0.000191625
0.000199972
9.89534e-05
0.000201775
9.93066e-05
0.000136244
0.000137833
0.00019217
0.000200185
0.000100874
0.000201871
9.9765e-05
0.000136667
9.63738e-05
5.08551e-05
5.06446e-05
9.69533e-05
9.64309e-05
5.09089e-05
5.07197e-05
9.71971e-05
2.38985e-05
2.39013e-05
0.000173174
7.67578e-05
7.6859e-05
7.56304e-05
7.57485e-05
2.3977e-05
2.39135e-05
2.3978e-05
2.39161e-05
2.39905e-05
2.40461e-05
2.39886e-05
2.40434e-05
7.67607e-05
7.67787e-05
0.000172962
7.87376e-05
7.87076e-05
2.40687e-05
2.40561e-05
2.40661e-05
2.40533e-05
0.000176463
8.13473e-05
8.12712e-05
7.94011e-05
7.93504e-05
9.96582e-05
5.08798e-05
9.66535e-05
5.11315e-05
0.000140716
0.000100461
0.000197982
0.000186546
0.000135636
0.000103613
0.000194927
0.000140264
9.87411e-05
0.000198043
0.00018532
0.000135283
0.000102121
0.000194676
0.000100894
5.13105e-05
5.12095e-05
0.000104277
0.000100703
5.13523e-05
5.12024e-05
0.000104179
0.000142832
0.000190291
0.000108504
0.000203936
0.000104766
0.000194838
0.000150371
0.00014239
0.000185923
0.000107726
0.00020154
0.000103374
0.000193768
0.000150054
7.5547e-05
7.55958e-05
0.00016853
7.77116e-05
7.76909e-05
2.39707e-05
2.40439e-05
2.4091e-05
2.40613e-05
0.000171351
8.09954e-05
8.09373e-05
7.84931e-05
7.84475e-05
2.40893e-05
2.40597e-05
0.000141337
0.000100526
0.000197112
0.000186453
0.000136038
0.000103676
0.000194338
0.000100065
5.09242e-05
9.69978e-05
5.11701e-05
0.000141081
0.00019663
9.94276e-05
0.00018465
0.000135707
0.000193668
0.00010293
0.000101217
5.13108e-05
5.12118e-05
0.000104597
0.000143509
0.000190789
0.000108541
0.000206081
0.000104816
0.000195293
0.000151089
0.000101134
5.13659e-05
5.12366e-05
0.000104603
0.000143288
0.000188071
0.000205208
0.000108592
0.000194367
0.000104234
0.000151021
9.98884e-05
5.08843e-05
9.7114e-05
5.11281e-05
0.000141546
0.00019797
0.000101266
0.000187796
0.000136827
0.000195429
0.000104229
0.000100141
5.09553e-05
9.74008e-05
5.11452e-05
0.000142935
0.00018631
0.000107708
0.000203017
0.000103447
0.000194544
0.000150167
0.00010086
5.13409e-05
5.11966e-05
0.000104133
0.000143516
0.000193908
0.000206731
0.000108698
0.000196469
0.000105289
0.000150565
0.000101091
5.12771e-05
5.11934e-05
0.00010425
7.60004e-05
7.6071e-05
0.000170236
7.82752e-05
7.82638e-05
2.39871e-05
2.40553e-05
2.4092e-05
2.40706e-05
0.000174023
8.15682e-05
8.15072e-05
7.9078e-05
7.90442e-05
2.409e-05
2.40691e-05
0.000142486
0.000197457
0.000101493
0.000188149
0.000137629
0.000195465
0.000104453
0.000100422
5.09336e-05
9.75875e-05
5.11685e-05
0.000100598
5.0973e-05
9.78212e-05
5.11565e-05
0.000144079
0.0001889
0.000207363
0.000108583
0.000196076
0.000104353
0.000151275
0.000144495
0.000195052
0.00020967
0.000108847
0.000198146
0.000105497
0.000151474
0.000101395
5.13519e-05
5.12316e-05
0.000104612
0.00010155
5.12767e-05
5.1202e-05
0.000104645
2.39933e-05
2.40413e-05
2.39938e-05
2.40397e-05
0.000179348
8.14538e-05
8.14218e-05
7.96854e-05
7.96961e-05
2.40565e-05
2.40491e-05
2.40535e-05
2.4047e-05
2.40643e-05
2.40198e-05
2.40618e-05
2.40178e-05
8.18633e-05
8.17928e-05
0.000202226
8.29893e-05
8.29529e-05
2.38991e-05
2.39911e-05
2.38967e-05
2.3989e-05
0.000204891
8.27928e-05
8.28058e-05
8.32672e-05
8.32412e-05
0.000107621
5.13715e-05
0.000105145
5.13426e-05
0.000159018
0.000109531
0.000217812
0.000221253
0.000152759
0.000112067
0.000229974
0.000159021
0.000109009
0.00021614
0.000219945
0.000152511
0.000112429
0.000229162
0.000107978
5.08984e-05
5.11775e-05
0.000108872
0.000108075
5.09763e-05
5.12717e-05
0.000109149
0.000160435
0.000227575
0.000113934
0.000245284
0.000112578
0.00023909
0.000164647
0.000160506
0.000227954
0.000115251
0.000245711
0.000113148
0.000239053
0.00016485
8.17233e-05
8.16701e-05
0.000201585
8.34997e-05
8.34642e-05
2.40892e-05
2.40542e-05
2.39243e-05
2.40265e-05
0.000205121
8.42314e-05
8.41938e-05
8.38375e-05
8.3807e-05
2.39234e-05
2.40248e-05
0.000159548
0.000109562
0.000219654
0.000221603
0.000153455
0.000112112
0.000231339
0.000107916
5.13772e-05
0.000105562
5.13095e-05
0.000159728
0.000219433
0.000109848
0.000222491
0.000153449
0.000231637
0.000113034
0.000108211
5.08826e-05
5.11699e-05
0.000108713
0.000160933
0.000227788
0.000113976
0.000245789
0.000112628
0.000239918
0.000165112
0.000108357
5.09018e-05
5.12289e-05
0.000108938
0.000161154
0.000229476
0.000246657
0.000115434
0.000240569
0.000113676
0.000165462
0.000107392
5.13587e-05
0.000105046
5.13257e-05
0.000158663
0.000219447
0.000109629
0.000221722
0.000152796
0.000230518
0.00011188
0.000107314
5.12802e-05
0.000105119
5.11946e-05
0.000160093
0.000227791
0.000115133
0.000244983
0.00011304
0.000238702
0.00016435
0.000107824
5.09598e-05
5.12546e-05
0.000108778
0.000160004
0.000227074
0.000244313
0.000113168
0.000238714
0.000112362
0.000164105
0.000107724
5.08377e-05
5.11224e-05
0.00010843
8.22659e-05
8.22129e-05
0.000203603
8.38388e-05
8.37928e-05
2.40875e-05
2.40383e-05
2.3896e-05
2.4007e-05
0.000206762
8.37293e-05
8.36699e-05
8.41824e-05
8.41514e-05
2.38953e-05
2.40056e-05
0.000159174
0.000221667
0.000109757
0.000222129
0.000153639
0.000231978
0.000111954
0.000107636
5.13611e-05
0.00010549
5.12864e-05
0.000107514
5.12779e-05
0.000105487
5.11781e-05
0.000160683
0.000229189
0.000245637
0.000115207
0.000240026
0.000113534
0.000164789
0.000160482
0.000227247
0.000244592
0.000113006
0.000239415
0.000112449
0.000164394
0.000108055
5.08812e-05
5.12062e-05
0.000108285
0.000107922
5.08077e-05
5.11021e-05
0.000107975
2.40488e-05
2.39997e-05
2.40453e-05
2.39955e-05
0.000204687
8.21506e-05
8.20999e-05
8.31878e-05
8.31836e-05
2.38779e-05
2.39697e-05
2.38734e-05
2.39654e-05
2.38625e-05
2.37789e-05
2.386e-05
2.37767e-05
8.20289e-05
8.20312e-05
0.000215289
7.93002e-05
7.92587e-05
2.37259e-05
2.3756e-05
2.37247e-05
2.3754e-05
0.00021068
7.51801e-05
7.51409e-05
7.82071e-05
7.81547e-05
0.000103529
5.08468e-05
0.000107876
5.04859e-05
0.000158932
0.000112792
0.000251252
0.000241995
0.000165184
0.000108701
0.000257689
0.000159342
0.000114735
0.000251881
0.000244209
0.00016556
0.000109912
0.00025858
0.000101577
5.01984e-05
5.03724e-05
9.65247e-05
0.000101714
5.01935e-05
5.03841e-05
9.65728e-05
0.000155593
0.000243429
0.000101151
0.000257692
0.000106757
0.000262203
0.00014456
0.000155951
0.000246785
0.00010148
0.000259625
0.000107741
0.000263465
0.000144748
8.32479e-05
8.32039e-05
0.000219627
7.99736e-05
7.99199e-05
2.38806e-05
2.37833e-05
2.37217e-05
2.37561e-05
0.000214937
7.52423e-05
7.52553e-05
7.86949e-05
7.8651e-05
2.37247e-05
2.37576e-05
0.000158125
0.000112764
0.000251703
0.000242107
0.000165152
0.000108553
0.00025796
0.000102913
5.07683e-05
0.000107506
5.04157e-05
0.000158328
0.000252765
0.000114054
0.000244958
0.000165567
0.000259165
0.00010884
0.000101058
5.01869e-05
5.03543e-05
9.60416e-05
0.000154631
0.000243242
0.00010097
0.000255514
0.00010658
0.000261876
0.000143455
0.000101057
5.01586e-05
5.03214e-05
9.59629e-05
0.00015475
0.000245522
0.000255893
0.000100345
0.000262991
0.000106566
0.000143355
0.000103068
5.08318e-05
0.000107444
5.04793e-05
0.00015769
0.000249975
0.000111831
0.000240383
0.000164388
0.000256077
0.000107471
0.000102788
5.07252e-05
0.000107092
5.04302e-05
0.000154946
0.000246234
0.00010139
0.000257333
0.000107554
0.000261965
0.000143918
0.000101276
5.0202e-05
5.03813e-05
9.63181e-05
0.000154299
0.000239921
0.000253373
0.000100225
0.00025979
0.00010552
0.000143439
0.000101026
5.02189e-05
5.03512e-05
9.61788e-05
8.2687e-05
8.26335e-05
0.000218057
7.91837e-05
7.91312e-05
2.38535e-05
2.37624e-05
2.37131e-05
2.37374e-05
0.00021249
7.45738e-05
7.45992e-05
7.78902e-05
7.78515e-05
2.37172e-05
2.37403e-05
0.000156404
0.000250181
0.000111624
0.000240348
0.000163833
0.000256004
0.000107119
0.000102243
5.07505e-05
0.000106836
5.04099e-05
0.000102067
5.06945e-05
0.000106568
5.04036e-05
0.00015333
0.000244663
0.000252677
0.000100225
0.000260902
0.000106314
0.000142234
0.000152872
0.000239254
0.000250123
9.98921e-05
0.000258838
0.00010515
0.000141991
0.000100424
5.01714e-05
5.03204e-05
9.55968e-05
0.000100283
5.02089e-05
5.03282e-05
9.55598e-05
2.38439e-05
2.37715e-05
2.38396e-05
2.37687e-05
0.000206824
7.46892e-05
7.46057e-05
7.74204e-05
7.73059e-05
2.37377e-05
2.37538e-05
2.37373e-05
2.37517e-05
2.37247e-05
2.37588e-05
2.37236e-05
2.37575e-05
7.43254e-05
7.43039e-05
0.000172199
7.26039e-05
7.26353e-05
2.38614e-05
2.37752e-05
2.38589e-05
2.37736e-05
0.000167359
7.20976e-05
7.21309e-05
7.23252e-05
7.23646e-05
9.19668e-05
5.01681e-05
9.50475e-05
5.01914e-05
0.000131819
9.93725e-05
0.000237868
0.000199022
0.000140701
9.55522e-05
0.000218085
0.000131843
9.95371e-05
0.000239598
0.000200825
0.000140833
9.55072e-05
0.000219211
9.1435e-05
5.04788e-05
5.02463e-05
9.0611e-05
9.14405e-05
5.04817e-05
5.02464e-05
9.06404e-05
0.00012978
0.00018715
9.33145e-05
0.000191196
9.47637e-05
0.000201998
0.000126259
0.000129793
0.000188094
9.34156e-05
0.000191549
9.47426e-05
0.000202657
0.000126282
7.43103e-05
7.43478e-05
0.000172881
7.25744e-05
7.26637e-05
2.37236e-05
2.37605e-05
2.38606e-05
2.37746e-05
0.000167706
7.24616e-05
7.25657e-05
7.23222e-05
7.24169e-05
2.38619e-05
2.37772e-05
0.000131222
9.92153e-05
0.000235399
0.000198585
0.000139678
9.54889e-05
0.000216123
9.17015e-05
5.01421e-05
9.4511e-05
5.0195e-05
0.000131053
0.000235195
9.85181e-05
0.000197249
0.000139535
0.00021567
9.49307e-05
9.13187e-05
5.04753e-05
5.02438e-05
9.07486e-05
0.000129356
0.000186895
9.33332e-05
0.000190453
9.47287e-05
0.000200689
0.000126079
9.12624e-05
5.04959e-05
5.02529e-05
9.07844e-05
0.000129214
0.000185699
0.000190093
9.33243e-05
0.000200222
9.43206e-05
0.000125983
9.21526e-05
5.01799e-05
9.48935e-05
5.02121e-05
0.000131741
0.000234052
9.86581e-05
0.000196496
0.00013979
0.000215769
9.55965e-05
9.21533e-05
5.02078e-05
9.47938e-05
5.02726e-05
0.000130078
0.00018821
9.36443e-05
0.000192233
9.48969e-05
0.000202479
0.00012691
9.1734e-05
5.05022e-05
5.02678e-05
9.13835e-05
0.000130052
0.000186644
0.000192075
9.43092e-05
0.000201381
9.50721e-05
0.000126955
9.1755e-05
5.05717e-05
5.033e-05
9.15167e-05
7.37314e-05
7.378e-05
0.00017001
7.22906e-05
7.23918e-05
2.37182e-05
2.37649e-05
2.38677e-05
2.37788e-05
0.000165431
7.26175e-05
7.27357e-05
7.20449e-05
7.21523e-05
2.38702e-05
2.37833e-05
0.000131044
0.000230837
9.83725e-05
0.000195783
0.000138487
0.000213319
9.54738e-05
9.18817e-05
5.01587e-05
9.42737e-05
5.02233e-05
9.19453e-05
5.02015e-05
9.42683e-05
5.02804e-05
0.000129483
0.000185786
0.000190775
9.36207e-05
0.000199897
9.4481e-05
0.00012662
0.000129583
0.000186233
0.000191273
9.44289e-05
0.000199831
9.49824e-05
0.000126768
9.15336e-05
5.05246e-05
5.02816e-05
9.17083e-05
9.16031e-05
5.05818e-05
5.03385e-05
9.18452e-05
2.37399e-05
2.3788e-05
2.37401e-05
2.37892e-05
0.000166408
7.32912e-05
7.3348e-05
7.25282e-05
7.25423e-05
2.38923e-05
2.38066e-05
2.3893e-05
2.38078e-05
2.38886e-05
2.39777e-05
2.38858e-05
2.39753e-05
7.26879e-05
7.26955e-05
0.000153681
7.4871e-05
7.48224e-05
2.40542e-05
2.3999e-05
2.40537e-05
2.39969e-05
0.0001548
7.8098e-05
7.79881e-05
7.56526e-05
7.55823e-05
9.50018e-05
5.05726e-05
9.14908e-05
5.08421e-05
0.000130095
9.33937e-05
0.000184608
0.0001716
0.000125386
9.70131e-05
0.000179099
0.000130244
9.38148e-05
0.000184823
0.000172093
0.00012543
9.76171e-05
0.000179295
9.61545e-05
5.11482e-05
5.09458e-05
0.000100031
9.62144e-05
5.1081e-05
5.09164e-05
0.000100046
0.000132488
0.000168447
0.000102871
0.00017399
9.83429e-05
0.000174616
0.000140892
0.000132643
0.000169279
0.000103176
0.000174283
9.89445e-05
0.000174866
0.000141003
7.31054e-05
7.31815e-05
0.000154777