/*--------------------------------*- C++ -*----------------------------------*\
| =========                 |                                                 |
| \\      /  F ield         | OpenFOAM: The Open Source CFD Toolbox           |
|  \\    /   O peration     | Version:  v1906                                 |
|   \\  /    A nd           | Web:      www.OpenFOAM.com                      |
|    \\/     M anipulation  |                                                 |
\*---------------------------------------------------------------------------*/
FoamFile
{
    version     2.0;
    format      ascii;
    class       surfaceScalarField;
    location    "750";
    object      phi;
}
// * * * * * * * * * * * * * * * * * * * * * * * * * * * * * * * * * * * * * //

dimensions      [0 3 -1 0 0 0 0];
oriented        oriented;


internalField   nonuniform List<scalar> 
124860
(
-8.44774e-07
-8.45295e-07
-0.00114621
4.47001e-07
4.47742e-07
0.001147
-0.00113705
-1.51068e-06
8.45237e-07
4.15887e-07
0.00113754
-4.97018e-07
1.12572e-06
1.26399e-07
7.23905e-07
-5.35375e-07
-1.23884e-06
5.31126e-08
-0.00113669
-1.50513e-06
8.44956e-07
4.15667e-07
0.00113718
-4.94033e-07
1.12002e-06
1.2368e-07
7.23799e-07
-5.3786e-07
-1.23864e-06
5.6148e-08
-0.000276416
1.53995e-06
1.50522e-06
-4.91955e-07
-4.97647e-07
0.000274361
-8.2369e-07
-8.24356e-07
-0.00114935
4.37822e-07
4.3853e-07
0.00115013
-0.00113895
-1.50265e-06
8.24119e-07
4.0742e-07
0.00113939
-4.84216e-07
1.13171e-06
1.31518e-07
7.30267e-07
-5.18954e-07
-1.22158e-06
5.92592e-08
-0.00113859
-1.49704e-06
8.24011e-07
4.07037e-07
0.00113903
-4.81371e-07
1.12606e-06
1.28676e-07
7.30188e-07
-5.21348e-07
-1.22135e-06
6.2269e-08
-0.000276496
1.53193e-06
1.49713e-06
-4.78689e-07
-4.84393e-07
0.00027443
-8.0213e-07
-8.02742e-07
-0.0011524
4.28353e-07
4.29017e-07
0.00115315
-0.00114065
-1.49372e-06
8.02628e-07
3.9969e-07
0.00114104
-4.71155e-07
1.13693e-06
1.36355e-07
7.36534e-07
-5.02685e-07
-1.20383e-06
6.55657e-08
-0.00114028
-1.48811e-06
8.02428e-07
3.99539e-07
0.00114068
-4.68336e-07
1.13128e-06
1.33505e-07
7.36471e-07
-5.05207e-07
-1.20359e-06
6.84862e-08
-0.000276511
1.52298e-06
1.48823e-06
-4.65238e-07
-4.70901e-07
0.000274436
-7.79947e-07
-7.80478e-07
-0.00115536
4.18505e-07
4.19175e-07
0.00115608
-0.00114215
-1.48366e-06
7.80363e-07
3.92206e-07
0.00114249
-4.58227e-07
1.14188e-06
1.41018e-07
7.42812e-07
-4.86664e-07
-1.18577e-06
7.19564e-08
-0.00114178
-1.47804e-06
7.80197e-07
3.9207e-07
0.00114213
-4.55403e-07
1.13623e-06
1.38168e-07
7.42737e-07
-4.89202e-07
-1.18554e-06
7.48525e-08
-0.000276465
1.51296e-06
1.47822e-06
-4.51459e-07
-4.57077e-07
0.000274382
-7.5742e-07
-7.57888e-07
-0.00115821
4.08665e-07
4.09342e-07
0.00115891
-0.00114345
-1.47268e-06
7.57807e-07
3.84489e-07
0.00114374
-4.45556e-07
1.14663e-06
1.4555e-07
7.49141e-07
-4.71002e-07
-1.1676e-06
7.84251e-08
-0.00114308
-1.46705e-06
7.57659e-07
3.84372e-07
0.00114338
-4.4273e-07
1.14098e-06
1.42704e-07
7.49053e-07
-4.73545e-07
-1.16738e-06
8.13047e-08
-0.000276365
1.50198e-06
1.46723e-06
-4.37477e-07
-4.4307e-07
0.000274276
-7.34732e-07
-7.35158e-07
-0.00116096
3.99092e-07
3.99749e-07
0.00116163
-0.00114455
-1.46085e-06
7.35078e-07
3.76054e-07
0.0011448
-4.3314e-07
1.15133e-06
1.50006e-07
7.55472e-07
-4.55764e-07
-1.14959e-06
8.49644e-08
-0.00114419
-1.45522e-06
7.34918e-07
3.75912e-07
0.00114444
-4.30305e-07
1.14569e-06
1.4718e-07
7.55377e-07
-4.58305e-07
-1.14938e-06
8.78373e-08
-0.000276219
1.49015e-06
1.45539e-06
-4.23419e-07
-4.28989e-07
0.000274125
-7.11986e-07
-7.12366e-07
-0.0011636
3.89843e-07
3.905e-07
0.00116425
-0.00114547
-1.44842e-06
7.12318e-07
3.66765e-07
0.00114567
-4.21004e-07
1.156e-06
1.54459e-07
7.61772e-07
-4.40976e-07
-1.13188e-06
9.15361e-08
-0.0011451
-1.4428e-06
7.12188e-07
3.66658e-07
0.0011453
-4.18185e-07
1.15036e-06
1.51626e-07
7.61671e-07
-4.43518e-07
-1.13167e-06
9.43948e-08
-0.000276033
1.47773e-06
1.44296e-06
-4.09516e-07
-4.15065e-07
0.000273937
-6.89272e-07
-6.89623e-07
-0.00116614
3.81062e-07
3.81694e-07
0.00116676
-0.0011462
-1.43556e-06
6.89536e-07
3.56387e-07
0.00114635
-4.09129e-07
1.1607e-06
1.58975e-07
7.68e-07
-4.26668e-07
-1.11462e-06
9.81137e-08
-0.00114583
-1.42994e-06
6.89398e-07
3.5627e-07
0.00114599
-4.06317e-07
1.15505e-06
1.56135e-07
7.67892e-07
-4.2921e-07
-1.11442e-06
1.00964e-07
-0.000275818
1.46489e-06
1.43012e-06
-3.95883e-07
-4.01413e-07
0.00027372
-6.66366e-07
-6.6666e-07
-0.00116856
3.72497e-07
3.73148e-07
0.00116915
-0.00114675
-1.42247e-06
6.66595e-07
3.44768e-07
0.00114686
-3.9753e-07
1.16539e-06
1.63566e-07
7.74153e-07
-4.12833e-07
-1.0979e-06
1.04692e-07
-0.00114638
-1.41685e-06
6.66444e-07
3.44656e-07
0.0011465
-3.94712e-07
1.15976e-06
1.60738e-07
7.74038e-07
-4.15377e-07
-1.09772e-06
1.07533e-07
-0.000275579
1.45177e-06
1.417e-06
-3.82588e-07
-3.88097e-07
0.000273481
-6.43383e-07
-6.43624e-07
-0.00117087
3.64341e-07
3.64947e-07
0.00117142
-0.00114714
-1.40941e-06
6.43628e-07
3.3211e-07
0.00114721
-3.86302e-07
1.16997e-06
1.68134e-07
7.80226e-07
-3.99494e-07
-1.08172e-06
1.11208e-07
-0.00114677
-1.40378e-06
6.43465e-07
3.3198e-07
0.00114684
-3.83476e-07
1.16435e-06
1.6532e-07
7.80103e-07
-4.02038e-07
-1.08155e-06
1.14042e-07
-0.000275324
1.4387e-06
1.40393e-06
-3.69858e-07
-3.75347e-07
0.000273226
-6.19973e-07
-6.20202e-07
-0.00117305
3.55947e-07
3.56544e-07
0.00117358
-0.00114737
-1.39644e-06
6.20162e-07
3.18695e-07
0.0011474
-3.75382e-07
1.17447e-06
1.72704e-07
7.86159e-07
-3.8663e-07
-1.06618e-06
1.17664e-07
-0.001147
-1.39081e-06
6.19999e-07
3.18555e-07
0.00114703
-3.72559e-07
1.16886e-06
1.69893e-07
7.86032e-07
-3.89167e-07
-1.066e-06
1.20491e-07
-0.000275059
1.42575e-06
1.391e-06
-3.57688e-07
-3.63157e-07
0.000272963
-5.96057e-07
-5.9632e-07
-0.00117512
3.47502e-07
3.48105e-07
0.00117561
-0.00114745
-1.38371e-06
5.96246e-07
3.04253e-07
0.00114746
-3.64874e-07
1.17886e-06
1.77253e-07
7.9201e-07
-3.74225e-07
-1.05123e-06
1.24099e-07
-0.00114709
-1.37811e-06
5.96158e-07
3.04148e-07
0.00114709
-3.62052e-07
1.17323e-06
1.74443e-07
7.91873e-07
-3.76783e-07
-1.05107e-06
1.26873e-07
-0.000274789
1.41299e-06
1.37825e-06
-3.46033e-07
-3.51513e-07
0.000272695
-5.72277e-07
-5.72511e-07
-0.00117706
3.39529e-07
3.40129e-07
0.00117752
-0.00114741
-1.37132e-06
5.72444e-07
2.8851e-07
0.00114739
-3.54668e-07
1.18307e-06
1.8183e-07
7.9761e-07
-3.62317e-07
-1.037e-06
1.30372e-07
-0.00114705
-1.3657e-06
5.72316e-07
2.88351e-07
0.00114702
-3.51845e-07
1.17746e-06
1.7903e-07
7.97489e-07
-3.64876e-07
-1.03682e-06
1.3315e-07
-0.000274518
1.40056e-06
1.36581e-06
-3.34975e-07
-3.40417e-07
0.000272427
-5.48357e-07
-5.486e-07
-0.00117887
3.31744e-07
3.32321e-07
0.0011793
-0.00114726
-1.35926e-06
5.48597e-07
2.71657e-07
0.0011472
-3.44639e-07
1.18718e-06
1.86571e-07
8.02937e-07
-3.50968e-07
-1.02351e-06
1.36424e-07
-0.00114689
-1.35364e-06
5.48493e-07
2.71568e-07
0.00114684
-3.41814e-07
1.18159e-06
1.83785e-07
8.02803e-07
-3.5354e-07
-1.02334e-06
1.39181e-07
-0.000274249
1.38849e-06
1.35377e-06
-3.24483e-07
-3.29906e-07
0.000272161
-5.24208e-07
-5.2446e-07
-0.00118055
3.23786e-07
3.24379e-07
0.00118095
-0.001147
-1.34773e-06
5.24452e-07
2.54467e-07
0.00114693
-3.35067e-07
1.19101e-06
1.91104e-07
8.08039e-07
-3.40138e-07
-1.0107e-06
1.42269e-07
-0.00114663
-1.34212e-06
5.24305e-07
2.54323e-07
0.00114656
-3.32251e-07
1.18541e-06
1.88307e-07
8.07895e-07
-3.42696e-07
-1.01054e-06
1.45033e-07
-0.000273985
1.37696e-06
1.34226e-06
-3.14651e-07
-3.20067e-07
0.000271901
-4.99965e-07
-5.0015e-07
-0.00118211
3.15949e-07
3.16499e-07
0.00118247
-0.00114666
-1.33662e-06
5.00117e-07
2.36928e-07
0.00114656
-3.25849e-07
1.19469e-06
1.95545e-07
8.12927e-07
-3.29805e-07
-9.9853e-07
1.47918e-07
-0.00114629
-1.33101e-06
5.00022e-07
2.36816e-07
0.0011462
-3.23029e-07
1.18911e-06
1.9276e-07
8.12769e-07
-3.32348e-07
-9.98378e-07
1.50681e-07
-0.000273728
1.36584e-06
1.33115e-06
-3.05291e-07
-3.10696e-07
0.000271647
-4.75234e-07
-4.7541e-07
-0.00118353
3.07525e-07
3.08077e-07
0.00118386
-0.00114625
-1.32598e-06
4.75392e-07
2.18984e-07
0.00114613
-3.1708e-07
1.19817e-06
1.99765e-07
8.17568e-07
-3.1994e-07
-9.8701e-07
1.53372e-07
-0.00114588
-1.32038e-06
4.75226e-07
2.18879e-07
0.00114577
-3.14262e-07
1.19259e-06
1.96987e-07
8.17411e-07
-3.22474e-07
-9.86859e-07
1.56127e-07
-0.000273479
1.35517e-06
1.32051e-06
-2.96492e-07
-3.01872e-07
0.000271401
-4.50408e-07
-4.50564e-07
-0.00118482
2.98854e-07
2.99455e-07
0.00118512
-0.00114577
-1.31588e-06
4.50594e-07
2.01092e-07
0.00114565
-3.08765e-07
1.20142e-06
2.03794e-07
8.22018e-07
-3.10523e-07
-9.76076e-07
1.58629e-07
-0.00114541
-1.31028e-06
4.50364e-07
2.00982e-07
0.00114528
-3.05949e-07
1.19585e-06
2.01017e-07
8.21875e-07
-3.13083e-07
-9.75917e-07
1.6137e-07
-0.000273238
1.34506e-06
1.31043e-06
-2.88231e-07
-2.93599e-07
0.000271164
-4.25217e-07
-4.25317e-07
-0.00118598
2.89727e-07
2.90283e-07
0.00118625
-0.00114525
-1.3063e-06
4.25293e-07
1.83618e-07
0.00114512
-3.009e-07
1.20443e-06
2.07584e-07
8.2627e-07
-3.01526e-07
-9.65697e-07
1.63683e-07
-0.00114488
-1.3007e-06
4.25144e-07
1.83548e-07
0.00114475
-2.98086e-07
1.19887e-06
2.04814e-07
8.26121e-07
-3.04102e-07
-9.65543e-07
1.66409e-07
-0.000273007
1.33546e-06
1.30085e-06
-2.80473e-07
-2.85831e-07
0.000270937
-3.99677e-07
-4.11196e-07
-0.00118701
2.79914e-07
2.80399e-07
0.00118726
-0.0011447
-1.29724e-06
3.99698e-07
1.66741e-07
0.00114455
-2.93418e-07
1.20723e-06
2.11137e-07
8.30324e-07
-2.92995e-07
-9.55887e-07
1.68495e-07
-0.00114433
-1.29163e-06
3.99556e-07
1.6663e-07
0.00114418
-2.90649e-07
1.20166e-06
2.08385e-07
8.30169e-07
-2.95574e-07
-9.5574e-07
1.71216e-07
-0.000272785
1.32638e-06
1.29178e-06
-2.73228e-07
-2.78576e-07
0.000270718
-3.73791e-07
-3.73904e-07
-0.00118793
2.69325e-07
2.6978e-07
0.00118814
-0.00114411
-1.28875e-06
3.73831e-07
1.50662e-07
0.00114396
-2.83764e-07
1.20973e-06
2.11609e-07
8.3422e-07
-2.84867e-07
-9.46583e-07
1.73066e-07
-0.00114374
-1.28313e-06
3.73739e-07
1.50505e-07
0.00114359
-2.83704e-07
1.20417e-06
2.11672e-07
8.34051e-07
-2.87473e-07
-9.46445e-07
1.75797e-07
-0.000272573
1.31785e-06
1.28328e-06
-2.66505e-07
-2.71843e-07
0.00027051
-3.47793e-07
-3.47974e-07
-0.00118872
2.5822e-07
2.58553e-07
0.0011889
-0.00114351
-1.28067e-06
3.47852e-07
1.35116e-07
0.00114336
-2.77183e-07
1.21209e-06
2.14716e-07
8.37957e-07
-2.77141e-07
-9.37745e-07
1.77464e-07
-0.00114314
-1.27508e-06
3.47765e-07
1.34996e-07
0.00114299
-2.77143e-07
1.20651e-06
2.14753e-07
8.37779e-07
-2.79755e-07
-9.37621e-07
1.80188e-07
-0.000272371
1.30979e-06
1.27523e-06
-2.60211e-07
-2.65544e-07
0.000270311
-3.2175e-07
-3.21818e-07
-0.00118939
2.46162e-07
2.46631e-07
0.00118954
-0.0011429
-1.27313e-06
3.21774e-07
1.20524e-07
0.00114274
-2.71085e-07
1.21417e-06
2.17519e-07
8.41516e-07
-2.69822e-07
-9.29399e-07
1.81647e-07
-0.00114253
-1.26756e-06
3.21668e-07
1.20438e-07
0.00114237
-2.71055e-07
1.20858e-06
2.17544e-07
8.41353e-07
-2.72424e-07
-9.29263e-07
1.84376e-07
-0.000272178
1.30225e-06
1.26771e-06
-2.54389e-07
-2.5971e-07
0.000270123
-2.95779e-07
-2.95805e-07
-0.00118996
2.33682e-07
2.34152e-07
0.00119008
-0.00114228
-1.26606e-06
2.95733e-07
1.06833e-07
0.00114213
-2.65385e-07
1.21606e-06
2.20097e-07
8.44936e-07
-2.62849e-07
-9.21468e-07
1.85646e-07
-0.00114191
-1.26048e-06
2.95606e-07
1.06705e-07
0.00114176
-2.65334e-07
1.21049e-06
2.20147e-07
8.44777e-07
-2.65455e-07
-9.21334e-07
1.88371e-07
-0.000271996
1.29516e-06
1.26064e-06
-2.48977e-07
-2.54297e-07
0.000269943
-2.69817e-07
-2.69742e-07
-0.00119041
2.20231e-07
2.20725e-07
0.00119051
-0.00114167
-1.25946e-06
2.69803e-07
9.41593e-08
0.00114152
-2.60098e-07
1.21773e-06
2.22419e-07
8.48156e-07
-2.56266e-07
-9.13999e-07
1.89421e-07
-0.0011413
-1.25389e-06
2.69736e-07
9.40902e-08
0.00114115
-2.60063e-07
1.21215e-06
2.22451e-07
8.47995e-07
-2.58865e-07
-9.13871e-07
1.92152e-07
-0.000271823
1.28852e-06
1.25402e-06
-2.43978e-07
-2.49278e-07
0.000269774
-2.4443e-07
-2.44248e-07
-0.00119077
2.06461e-07
2.06924e-07
0.00119085
-0.00114107
-1.25331e-06
2.44307e-07
8.23434e-08
0.00114092
-2.55191e-07
1.21922e-06
2.24531e-07
8.51223e-07
-2.50052e-07
-9.06938e-07
1.92996e-07
-0.0011407
-1.24775e-06
2.44181e-07
8.22322e-08
0.00114055
-2.55154e-07
1.21364e-06
2.2457e-07
8.51062e-07
-2.52663e-07
-9.06814e-07
1.95711e-07
-0.000271661
1.28238e-06
1.24791e-06
-2.39412e-07
-2.447e-07
0.000269614
-2.19125e-07
-2.18946e-07
-0.00119104
1.92376e-07
1.92823e-07
-0.00114047
-1.2475e-06
2.18867e-07
7.15953e-08
-2.50574e-07
1.2206e-06
2.26496e-07
8.54173e-07
-2.44071e-07
-9.0022e-07
1.96461e-07
-0.0011401
-1.24193e-06
2.18769e-07
7.14157e-08
-2.50531e-07
1.21505e-06
2.2654e-07
8.54019e-07
-2.46707e-07
-9.00095e-07
1.99147e-07
-0.000271507
1.27653e-06
1.24206e-06
-2.35067e-07
-2.40358e-07
0.000269464
-1.1618e-06
-1.12125e-06
0.000276433
-0.000274339
8.908e-08
9.9415e-08
0.00113622
8.49967e-07
4.19055e-07
-1.55017e-06
1.30732e-07
-5.05671e-07
-1.24577e-06
4.86382e-08
-5.36723e-07
7.24939e-07
1.16478e-06
0.00113669
8.50072e-07
4.19139e-07
-1.55302e-06
1.30711e-07
-5.05731e-07
-1.25173e-06
5.43801e-08
-5.42464e-07
7.3064e-07
-1.12402e-06
0.000276458
-0.000274358
9.17778e-08
9.68427e-08
0.00113734
8.50452e-07
4.17949e-07
-1.50991e-06
1.25123e-07
-5.00227e-07
-1.24585e-06
5.45774e-08
-5.42288e-07
7.25188e-07
1.15905e-06
0.00113634
8.49934e-07
4.1922e-07
-1.54754e-06
1.30772e-07
-5.05635e-07
-1.24592e-06
5.44217e-08
-5.42224e-07
7.24912e-07
8.50361e-07
4.18146e-07
-1.51258e-06
1.25233e-07
-5.00116e-07
-1.24306e-06
5.15823e-08
7.22293e-07
-5.39535e-07
1.1535e-06
0.00113613
8.49989e-07
4.19276e-07
-1.54183e-06
1.25014e-07
-5.00045e-07
-1.24314e-06
5.14923e-08
-5.39486e-07
7.22157e-07
-1.11833e-06
0.000276411
-0.000274319
8.91039e-08
9.66948e-08
8.50085e-07
4.17878e-07
-1.50702e-06
1.22527e-07
-4.9714e-07
-1.24282e-06
5.45841e-08
7.22227e-07
-5.42065e-07
1.11851e-06
0.00113724
8.50378e-07
4.18075e-07
-1.50711e-06
1.22332e-07
-4.97326e-07
-1.24039e-06
5.16863e-08
-5.39527e-07
7.19735e-07
-0.000274333
9.16094e-08
9.69384e-08
1.54829e-06
1.50799e-06
-4.89347e-07
-5.00297e-07
0.000274367
-1.1682e-06
-1.12743e-06
0.000276513
-0.000274425
9.83384e-08
1.08949e-07
4.16763e-07
0.00113671
-5.02537e-07
1.16353e-06
1.32005e-07
7.26546e-07
-5.32566e-07
-1.24154e-06
5.01565e-08
-1.55113e-06
8.44937e-07
4.16868e-07
0.00113718
-5.02631e-07
1.16647e-06
1.31869e-07
7.32256e-07
-5.38284e-07
-1.2475e-06
5.59198e-08
0.00113811
8.29076e-07
-0.00113766
4.10351e-07
-1.54228e-06
1.35716e-07
-4.93056e-07
-1.22862e-06
5.47542e-08
-5.20143e-07
7.31337e-07
1.17105e-06
0.00113858
8.29337e-07
-0.00113813
4.10439e-07
-1.54524e-06
1.35672e-07
-4.93167e-07
-1.23457e-06
6.05056e-08
-5.25841e-07
7.37039e-07
-4.92394e-07
-4.97148e-07
0.000274386
-1.13029e-06
0.000276539
-0.000274445
1.01171e-07
1.06221e-07
4.15707e-07
0.00113783
-4.97037e-07
1.12293e-06
1.2641e-07
7.26791e-07
-5.38117e-07
-1.24163e-06
5.6095e-08
-1.54568e-06
8.44795e-07
4.16955e-07
0.00113683
-5.02539e-07
1.16074e-06
1.31917e-07
7.26543e-07
-5.38044e-07
-1.24168e-06
5.59646e-08
0.00113924
8.29695e-07
-0.00113878
4.09205e-07
-1.50215e-06
1.3011e-07
-4.87599e-07
-1.22867e-06
6.07055e-08
-5.25664e-07
7.31627e-07
1.16545e-06
0.00113823
8.29167e-07
-0.00113778
4.10545e-07
-1.53965e-06
1.35586e-07
-4.93174e-07
-1.22875e-06
6.05484e-08
-5.25609e-07
7.31333e-07
8.44846e-07
4.16989e-07
0.00113662
-4.96985e-07
1.15521e-06
1.2619e-07
7.23787e-07
-5.35299e-07
5.30316e-08
-1.23889e-06
8.29505e-07
-0.00113849
4.09515e-07
-1.50475e-06
1.30216e-07
-4.8755e-07
-1.22591e-06
5.77056e-08
7.28706e-07
-5.22984e-07
1.15979e-06
0.00113802
8.29223e-07
-0.00113757
4.1056e-07
-1.53401e-06
1.30003e-07
-4.87477e-07
-1.22598e-06
5.76225e-08
-5.22879e-07
7.28575e-07
-4.89807e-07
-4.97304e-07
0.000274347
-1.12463e-06
0.000276491
-0.000274405
9.85023e-08
1.06233e-07
8.45236e-07
4.15773e-07
0.00113773
-4.94261e-07
1.12022e-06
1.23516e-07
7.2137e-07
-5.35339e-07
5.32286e-08
-1.23614e-06
8.29352e-07
-0.00113813
4.09104e-07
-1.49914e-06
1.27359e-07
-4.8466e-07
-1.22566e-06
6.0728e-08
7.28654e-07
-5.2545e-07
1.12483e-06
0.00113913
8.29466e-07
-0.00113867
4.09265e-07
-1.49923e-06
1.27366e-07
-4.84729e-07
-1.22325e-06
5.78225e-08
-5.22963e-07
7.2615e-07
-0.000274419
1.01032e-07
1.06351e-07
1.54016e-06
1.50002e-06
-4.76186e-07
-4.8692e-07
0.000274436
-1.17362e-06
-1.1329e-06
0.000276528
-0.000274446
1.07079e-07
1.1766e-07
4.08281e-07
0.00113855
-4.89683e-07
1.16965e-06
1.37052e-07
7.32871e-07
-5.161e-07
-1.22429e-06
5.62498e-08
-1.54315e-06
8.23979e-07
4.0836e-07
0.00113902
-4.89833e-07
1.17247e-06
1.36971e-07
7.38599e-07
-5.21774e-07
-1.23023e-06
6.20205e-08
0.00113981
8.07588e-07
-0.0011394
4.0259e-07
-1.53359e-06
1.40717e-07
-4.79892e-07
-1.21101e-06
6.09102e-08
-5.04026e-07
7.37605e-07
1.17647e-06
0.00114028
8.07845e-07
-0.00113987
4.02653e-07
-1.53655e-06
1.40661e-07
-4.79983e-07
-1.21695e-06
6.66633e-08
-5.09687e-07
7.43304e-07
-4.79155e-07
-4.83934e-07
0.000274456
-1.13569e-06
0.000276553
-0.000274466
1.09853e-07
1.14898e-07
4.07105e-07
0.00113968
-4.84223e-07
1.12889e-06
1.31461e-07
7.33162e-07
-5.21611e-07
-1.22433e-06
6.22035e-08
-1.53755e-06
8.23793e-07
4.08422e-07
0.00113867
-4.89876e-07
1.16688e-06
1.369e-07
7.32913e-07
-5.21528e-07
-1.22439e-06
6.2065e-08
0.00114093
8.08186e-07
-0.00114053
4.01272e-07
-1.49339e-06
1.35171e-07
-4.74398e-07
-1.21103e-06
6.68742e-08
-5.09496e-07
7.37909e-07
1.17088e-06
0.00113993
8.07682e-07
-0.00113952
4.02657e-07
-1.53091e-06
1.40581e-07
-4.80002e-07
-1.21115e-06
6.67032e-08
-5.09463e-07
7.376e-07
8.23877e-07
4.08466e-07
0.00113846
-4.84157e-07
1.16122e-06
1.31337e-07
7.30133e-07
-5.18809e-07
5.91225e-08
-1.22161e-06
8.08071e-07
-0.00114024
4.01517e-07
-1.49603e-06
1.35214e-07
-4.74362e-07
-1.2083e-06
6.39788e-08
7.34962e-07
-5.0674e-07
1.16521e-06
0.00113972
8.07754e-07
-0.00113931
4.02661e-07
-1.52534e-06
1.35017e-07
-4.74337e-07
-1.20836e-06
6.37904e-08
-5.06726e-07
7.34852e-07
-4.76553e-07
-4.83917e-07
0.000274417
-1.13004e-06
0.000276505
-0.000274427
1.07209e-07
1.14916e-07
8.2408e-07
4.07201e-07
0.00113957
-4.81406e-07
1.12626e-06
1.28702e-07
7.2772e-07
-5.18928e-07
5.93575e-08
-1.21889e-06
8.07873e-07
-0.00113988
4.01367e-07
-1.4904e-06
1.32339e-07
-4.71522e-07
-1.20804e-06
6.689e-08
7.34934e-07
-5.09288e-07
1.13016e-06
0.00114083
8.08021e-07
-0.00114042
4.01462e-07
-1.49058e-06
1.32333e-07
-4.7162e-07
-1.20835e-06
6.69013e-08
-5.09441e-07
7.35189e-07
-0.00027444
1.09668e-07
1.15006e-07
1.53123e-06
1.49102e-06
-4.62658e-07
-4.73406e-07
0.000274442
-1.17862e-06
-1.13792e-06
0.000276482
-0.000274407
1.15393e-07
1.2597e-07
4.00748e-07
0.0011402
-4.76608e-07
1.1749e-06
1.41886e-07
7.39147e-07
-4.99999e-07
-1.20655e-06
6.24898e-08
-1.53424e-06
8.02406e-07
4.00823e-07
0.00114067
-4.76774e-07
1.17771e-06
1.418e-07
7.44882e-07
-5.05633e-07
-1.21247e-06
6.82464e-08
0.00114131
7.85533e-07
-0.00114095
3.9516e-07
-1.52384e-06
1.45386e-07
-4.66938e-07
-1.19299e-06
6.72707e-08
-4.87971e-07
7.43869e-07
1.18148e-06
0.00114178
7.85752e-07
-0.00114142
3.95167e-07
-1.5268e-06
1.45369e-07
-4.67011e-07
-1.19892e-06
7.30095e-08
-4.93597e-07
7.49575e-07
-4.65692e-07
-4.70472e-07
0.000274461
-1.1407e-06
0.000276507
-0.000274427
1.18164e-07
1.23209e-07
3.99412e-07
0.00114133
-4.71108e-07
1.13418e-06
1.36349e-07
7.39444e-07
-5.05465e-07
-1.20658e-06
6.84439e-08
-1.52862e-06
8.02234e-07
4.00799e-07
0.00114032
-4.76805e-07
1.17213e-06
1.41752e-07
7.39197e-07
-5.05406e-07
-1.20664e-06
6.82796e-08
0.00114243
7.86043e-07
-0.00114208
3.93804e-07
-1.48359e-06
1.39872e-07
-4.61425e-07
-1.193e-06
7.32185e-08
-4.93417e-07
7.44177e-07
1.1759e-06
0.00114143
7.85546e-07
-0.00114107
3.95154e-07
-1.52114e-06
1.45329e-07
-4.66997e-07
-1.19311e-06
7.30365e-08
-4.93394e-07
7.43876e-07
8.02264e-07
4.00745e-07
0.00114011
-4.71032e-07
1.16652e-06
1.36267e-07
7.36407e-07
-5.02691e-07
6.53566e-08
-1.20387e-06
7.8594e-07
-0.00114179
3.94026e-07
-1.48626e-06
1.39936e-07
-4.61391e-07
-1.19029e-06
7.03404e-08
7.4123e-07
-4.90647e-07
1.17021e-06
0.00114122
7.85627e-07
-0.00114086
3.95227e-07
-1.51557e-06
1.39694e-07
-4.61381e-07
-1.19034e-06
7.01461e-08
-4.90655e-07
7.41122e-07
-4.63071e-07
-4.70457e-07
0.000274422
-1.13506e-06
0.000276459
-0.000274387
1.15529e-07
1.23227e-07
8.02545e-07
3.99551e-07
0.00114122
-4.68331e-07
1.13146e-06
1.33572e-07
7.36734e-07
-5.05408e-07
6.84595e-08
-1.20387e-06
7.85734e-07
-0.00114143
3.93888e-07
-1.48062e-06
1.37078e-07
-4.58549e-07
-1.19002e-06
7.32249e-08
7.41204e-07
-4.93208e-07
1.13513e-06
0.00114233
7.85981e-07
-0.00114197
3.94057e-07
-1.48083e-06
1.36997e-07
-4.58693e-07
-1.19035e-06
7.32373e-08
-4.93362e-07
7.41445e-07
-0.000274401
1.17936e-07
1.23304e-07
1.52121e-06
1.48096e-06
-4.48842e-07
-4.59572e-07
0.000274388
-1.18336e-06
-1.14269e-06
0.000276382
-0.000274313
1.23362e-07
1.33936e-07
3.93328e-07
0.00114165
-4.63731e-07
1.17982e-06
1.46487e-07
7.45427e-07
-4.84004e-07
-1.18848e-06
6.88868e-08
-1.52421e-06
7.80184e-07
3.93338e-07
0.00114212
-4.63849e-07
1.18264e-06
1.46446e-07
7.51158e-07
-4.89612e-07
-1.19439e-06
7.46248e-08
0.00114261
7.63085e-07
-0.0011423
3.87601e-07
-1.51311e-06
1.49853e-07
-4.54262e-07
-1.17484e-06
7.37651e-08
-4.72206e-07
7.5018e-07
1.18622e-06
0.00114308
7.6331e-07
-0.00114277
3.87608e-07
-1.51607e-06
1.49855e-07
-4.54336e-07
-1.18075e-06
7.94598e-08
-4.77822e-07
7.55896e-07
-4.51856e-07
-4.56641e-07
0.000274408
-1.14546e-06
0.000276408
-0.000274333
1.26127e-07
1.31171e-07
3.91955e-07
0.00114278
-4.58214e-07
1.13912e-06
1.40982e-07
7.45731e-07
-4.89449e-07
-1.1885e-06
7.48293e-08
-1.51858e-06
7.79979e-07
3.93322e-07
0.00114177
-4.63851e-07
1.17707e-06
1.46416e-07
7.45472e-07
-4.89412e-07
-1.18857e-06
7.46517e-08
0.00114374
7.6354e-07
-0.00114343
3.86213e-07
-1.47283e-06
1.4437e-07
-4.48733e-07
-1.17485e-06
7.96995e-08
-4.7763e-07
7.50493e-07
1.18064e-06
0.00114273
7.63074e-07
-0.00114242
3.87591e-07
-1.51043e-06
1.49827e-07
-4.54319e-07
-1.17494e-06
7.95109e-08
-4.77615e-07
7.50206e-07
7.80015e-07
3.93341e-07
0.00114156
-4.58162e-07
1.17144e-06
1.40866e-07
7.4269e-07
-4.86684e-07
7.17527e-08
-1.1858e-06
7.63452e-07
-0.00114314
3.86464e-07
-1.47551e-06
1.44436e-07
-4.4871e-07
-1.17213e-06
7.68e-08
7.47556e-07
-4.74877e-07
1.17497e-06
0.00114252
7.63131e-07
-0.00114221
3.87631e-07
-1.50482e-06
1.44209e-07
-4.4866e-07
-1.17219e-06
7.66319e-08
-4.74882e-07
7.47431e-07
-4.49222e-07
-4.56619e-07
0.000274369
-1.13981e-06
0.000276359
-0.000274294
1.23487e-07
1.31186e-07
7.80391e-07
3.92157e-07
0.00114267
-4.55473e-07
1.13636e-06
1.38174e-07
7.43011e-07
-4.89392e-07
7.48391e-08
-1.18581e-06
7.63284e-07
-0.00114278
3.86352e-07
-1.46988e-06
1.41585e-07
-4.45875e-07
-1.17186e-06
7.96651e-08
7.47526e-07
-4.77443e-07
1.1399e-06
0.00114363
7.63504e-07
-0.00114332
3.86454e-07
-1.47007e-06
1.41526e-07
-4.4597e-07
-1.1722e-06
7.97086e-08
-4.77585e-07
7.47753e-07
-0.000274307
1.25918e-07
1.31295e-07
1.51025e-06
1.46997e-06
-4.34873e-07
-4.45581e-07
0.000274282
-1.18805e-06
-1.1474e-06
0.000276236
-0.000274173
1.31091e-07
1.41663e-07
3.8561e-07
0.0011429
-4.51092e-07
1.18454e-06
1.50971e-07
7.51749e-07
-4.6833e-07
-1.17033e-06
7.53974e-08
-1.51324e-06
7.57666e-07
3.85632e-07
0.00114337
-4.51183e-07
1.18739e-06
1.50964e-07
7.5748e-07
-4.73944e-07
-1.17622e-06
8.10836e-08
0.00114371
7.40427e-07
-0.00114345
3.79347e-07
-1.50148e-06
1.543e-07
-4.41771e-07
-1.15679e-06
8.0314e-08
-4.56849e-07
7.56491e-07
1.19092e-06
0.00114418
7.40649e-07
-0.00114392
3.79362e-07
-1.50443e-06
1.54312e-07
-4.41842e-07
-1.16268e-06
8.59738e-08
-4.62474e-07
7.62213e-07
-4.37869e-07
-4.42651e-07
0.000274302
-1.15017e-06
0.000276261
-0.000274193
1.3386e-07
1.38899e-07
3.84224e-07
0.00114403
-4.4556e-07
1.14387e-06
1.45497e-07
7.52058e-07
-4.73753e-07
-1.17034e-06
8.13249e-08
-1.50761e-06
7.57424e-07
3.856e-07
0.00114302
-4.51175e-07
1.18181e-06
1.50941e-07
7.51793e-07
-4.73731e-07
-1.1704e-06
8.11415e-08
0.00114484
7.40824e-07
-0.00114458
3.77964e-07
-1.46118e-06
1.48843e-07
-4.36232e-07
-1.15679e-06
8.62319e-08
-4.62258e-07
7.56809e-07
1.18534e-06
0.00114383
7.40385e-07
-0.00114357
3.79331e-07
-1.49879e-06
1.54293e-07
-4.41821e-07
-1.15688e-06
8.6039e-08
-4.62251e-07
7.56524e-07
7.57482e-07
3.85633e-07
0.00114281
-4.45513e-07
1.17616e-06
1.45343e-07
7.49006e-07
-4.71e-07
7.82596e-08
-1.16766e-06
7.40766e-07
-0.0011443
3.78227e-07
-1.46387e-06
1.48902e-07
-4.36216e-07
-1.15407e-06
8.33202e-08
7.53881e-07
-4.59536e-07
1.17968e-06
0.00114362
7.40449e-07
-0.00114336
3.79347e-07
-1.49318e-06
1.48703e-07
-4.36149e-07
-1.15414e-06
8.31675e-08
-4.59522e-07
7.53745e-07
-4.35235e-07
-4.42622e-07
0.000274263
-1.14452e-06
0.000276213
-0.000274153
1.3122e-07
1.38913e-07
7.57839e-07
3.8446e-07
0.00114392
-4.42822e-07
1.14109e-06
1.42664e-07
7.49327e-07
-4.73701e-07
8.13339e-08
-1.16767e-06
7.40595e-07
-0.00114393
3.78108e-07
-1.45824e-06
1.46063e-07
-4.33381e-07
-1.1538e-06
8.61758e-08
7.53847e-07
-4.62102e-07
1.14462e-06
0.00114473
7.40791e-07
-0.00114448
3.78188e-07
-1.45842e-06
1.46035e-07
-4.33454e-07
-1.15414e-06
8.62329e-08
-4.62218e-07
7.54068e-07
-0.000274167
1.33663e-07
1.39045e-07
1.49845e-06
1.45815e-06
-4.20845e-07
-4.31529e-07
0.000274131
-1.19271e-06
-1.15209e-06
0.000276051
-0.000273994
1.38551e-07
1.49119e-07
3.77189e-07
0.00114396
-4.38688e-07
1.18921e-06
1.554e-07
7.58068e-07
-4.53084e-07
-1.15232e-06
8.19536e-08
-1.50142e-06
7.34957e-07
3.77182e-07
0.00114443
-4.38767e-07
1.19207e-06
1.55413e-07
7.638e-07
-4.58699e-07
-1.15819e-06
8.7617e-08
0.00114462
7.17707e-07
-0.00114441
3.70302e-07
-1.48919e-06
1.5874e-07
-4.29565e-07
-1.139e-06
8.6884e-08
-4.41956e-07
7.628e-07
1.19558e-06
0.00114509
7.17914e-07
-0.00114488
3.70286e-07
-1.49213e-06
1.5876e-07
-4.29628e-07
-1.14487e-06
9.25368e-08
-4.47561e-07
7.68515e-07
-4.23819e-07
-4.28605e-07
0.000274151
-1.15485e-06
0.000276076
-0.000274013
1.41324e-07
1.46356e-07
3.75794e-07
0.00114509
-4.33146e-07
1.14856e-06
1.49951e-07
7.58381e-07
-4.58492e-07
-1.15232e-06
8.78647e-08
-1.49578e-06
7.34697e-07
3.77126e-07
0.00114407
-4.38743e-07
1.1865e-06
1.55407e-07
7.58112e-07
-4.58478e-07
-1.15239e-06
8.7679e-08
0.00114576
7.18071e-07
-0.00114555
3.68903e-07
-1.44887e-06
1.53309e-07
-4.24018e-07
-1.13898e-06
9.27866e-08
-4.4735e-07
7.63117e-07
1.18999e-06
0.00114474
7.17667e-07
-0.00114453
3.70291e-07
-1.48649e-06
1.5873e-07
-4.29615e-07
-1.13908e-06
9.25908e-08
-4.47352e-07
7.6283e-07
7.34756e-07
3.7715e-07
0.00114387
-4.3307e-07
1.18086e-06
1.49817e-07
7.5532e-07
-4.55751e-07
8.48068e-08
-1.14966e-06
7.18015e-07
-0.00114526
3.69157e-07
-1.45156e-06
1.53358e-07
-4.24004e-07
-1.13627e-06
8.98896e-08
7.60196e-07
-4.44629e-07
1.18433e-06
0.00114453
7.17738e-07
-0.00114432
3.70318e-07
-1.4809e-06
1.53137e-07
-4.23964e-07
-1.13634e-06
8.97287e-08
-4.44621e-07
7.60056e-07
-4.21183e-07
-4.2857e-07
0.000274112
-1.14919e-06
0.000276028
-0.000273974
1.38676e-07
1.46359e-07
7.35094e-07
3.75988e-07
0.00114498
-4.30374e-07
1.1458e-06
1.47153e-07
7.55643e-07
-4.58446e-07
8.78696e-08
-1.14966e-06
7.17854e-07
-0.00114489
3.69069e-07
-1.44594e-06
1.50509e-07
-4.21183e-07
-1.13601e-06
9.27334e-08
7.60153e-07
-4.47194e-07
1.14929e-06
0.00114565
7.1806e-07
-0.00114544
3.69166e-07
-1.44613e-06
1.50484e-07
-4.21264e-07
-1.13634e-06
9.27841e-08
-4.47311e-07
7.60378e-07
-0.000273987
1.41107e-07
1.4649e-07
1.48601e-06
1.4457e-06
-4.06929e-07
-4.17589e-07
0.000273943
-1.19735e-06
-1.15676e-06
0.000275835
-0.000273783
1.45718e-07
1.56281e-07
3.67864e-07
0.00114482
-4.26541e-07
1.19387e-06
1.59857e-07
7.64366e-07
-4.38308e-07
-1.13461e-06
8.85295e-08
-1.48899e-06
7.12228e-07
3.67892e-07
0.00114529
-4.2663e-07
1.19672e-06
1.59857e-07
7.70091e-07
-4.43906e-07
-1.14047e-06
9.4182e-08
0.00114535
6.94963e-07
-0.00114519
3.60241e-07
-1.47643e-06
1.63196e-07
-4.17651e-07
-1.12161e-06
9.3468e-08
-4.27534e-07
7.69053e-07
1.20025e-06
0.00114582
6.9514e-07
-0.00114566
3.60159e-07
-1.47936e-06
1.6326e-07
-4.17685e-07
-1.12745e-06
9.91098e-08
-4.33125e-07
7.74769e-07
-4.09892e-07
-4.14684e-07
0.000273963
-1.15954e-06
0.00027586
-0.000273803
1.48514e-07
1.53541e-07
3.66467e-07
0.00114596
-4.20992e-07
1.15326e-06
1.54432e-07
7.64681e-07
-4.43702e-07
-1.1346e-06
9.4426e-08
-1.48336e-06
7.11978e-07
3.67868e-07
0.00114494
-4.26616e-07
1.19114e-06
1.59845e-07
7.6441e-07
-4.43697e-07
-1.13468e-06
9.4234e-08
0.00114649
6.9528e-07
-0.00114632
3.58857e-07
-1.43611e-06
1.57786e-07
-4.12099e-07
-1.12159e-06
9.93585e-08
-4.32915e-07
7.69372e-07
1.19467e-06
0.00114547
6.94871e-07
-0.0011453
3.60143e-07
-1.47371e-06
1.63241e-07
-4.17654e-07
-1.12169e-06
9.91591e-08
-4.32925e-07
7.69082e-07
7.12022e-07
3.67851e-07
0.00114473
-4.20937e-07
1.18551e-06
1.54278e-07
7.61624e-07
-4.4097e-07
9.13708e-08
-1.13195e-06
6.95204e-07
-0.00114603
3.59064e-07
-1.4388e-06
1.57863e-07
-4.12065e-07
-1.11887e-06
9.64714e-08
7.66455e-07
-4.30197e-07
1.189e-06
0.00114526
6.94951e-07
-0.00114509
3.60208e-07
-1.46812e-06
1.57619e-07
-4.12028e-07
-1.11896e-06
9.63092e-08
-4.30194e-07
7.66306e-07
-4.07271e-07
-4.14661e-07
0.000273924
-1.1539e-06
0.000275812
-0.000273763
1.4588e-07
1.53555e-07
7.12334e-07
3.66693e-07
0.00114585
-4.18236e-07
1.15048e-06
1.51629e-07
7.61946e-07
-4.43659e-07
9.4424e-08
-1.13195e-06
6.9504e-07
-0.00114567
3.58955e-07
-1.43316e-06
1.55027e-07
-4.09232e-07
-1.11863e-06
9.93041e-08
7.66401e-07
-4.32764e-07
1.15398e-06
0.00114638
6.95249e-07
-0.00114621
3.5907e-07
-1.43334e-06
1.54978e-07
-4.09327e-07
-1.11895e-06
9.93555e-08
-4.32878e-07
7.66631e-07
-0.000273777
1.48288e-07
1.53671e-07
1.47318e-06
1.43286e-06
-3.93301e-07
-4.03937e-07
0.000273726
-1.20203e-06
-1.16148e-06
0.000275596
-0.000273548
1.52626e-07
1.63179e-07
3.57561e-07
0.0011455
-4.14704e-07
1.19851e-06
1.64326e-07
7.70596e-07
-4.24011e-07
-1.11734e-06
9.51088e-08
-1.47612e-06
6.89457e-07
3.57495e-07
0.00114598
-4.14753e-07
1.20139e-06
1.64366e-07
7.76314e-07
-4.29594e-07
-1.12319e-06
1.00752e-07
0.0011459
6.72081e-07
-0.00114578
3.48867e-07
-1.46337e-06
1.67772e-07
-4.05964e-07
-1.10474e-06
1.00057e-07
-4.13584e-07
7.75209e-07
1.20491e-06
0.00114637
6.72297e-07
-0.00114625
3.48851e-07
-1.46632e-06
1.67817e-07
-4.06029e-07
-1.11057e-06
1.05684e-07
-4.19167e-07
7.80929e-07
-3.96223e-07
-4.01017e-07
0.000273746
-1.16422e-06