/*--------------------------------*- C++ -*----------------------------------*\
| =========                 |                                                 |
| \\      /  F ield         | OpenFOAM: The Open Source CFD Toolbox           |
|  \\    /   O peration     | Version:  v1906                                 |
|   \\  /    A nd           | Web:      www.OpenFOAM.com                      |
|    \\/     M anipulation  |                                                 |
\*---------------------------------------------------------------------------*/
FoamFile
{
    version     2.0;
    format      ascii;
    class       surfaceScalarField;
    location    "750";
    object      phi;
}
// * * * * * * * * * * * * * * * * * * * * * * * * * * * * * * * * * * * * * //

dimensions      [0 3 -1 0 0 0 0];
oriented        oriented;


internalField   nonuniform List<scalar> 
124908
(
2.0128e-07
1.80806e-07
-0.00118357
9.22418e-10
-1.12653e-07
0.0011833
-0.00113209
-1.16589e-06
-2.50896e-07
5.99619e-08
0.00113164
-1.7949e-07
1.24356e-06
2.61439e-07
9.72358e-07
-8.10744e-08
-7.3348e-07
3.22811e-07
-0.00113144
-1.16763e-06
-1.90191e-07
8.54185e-08
0.00113097
-1.83991e-07
1.23081e-06
2.57407e-07
9.62855e-07
-9.28463e-08
-7.41735e-07
3.16111e-07
-0.0002699
1.14562e-06
1.13237e-06
-1.34713e-07
-1.22625e-07
0.000267879
2.99045e-07
4.14457e-07
-0.00118232
-3.12937e-07
-1.45517e-07
0.00118207
-0.00113053
-1.16862e-06
-2.273e-07
-1.88579e-08
0.00113048
-1.8481e-07
1.23693e-06
2.51235e-07
8.88906e-07
-1.58461e-07
-8.06451e-07
2.36204e-07
-0.00113007
-1.15407e-06
-2.8622e-07
-1.12339e-07
0.00113014
-1.77227e-07
1.24075e-06
2.58862e-07
8.90277e-07
-1.61208e-07
-8.05999e-07
2.39723e-07
-0.000269875
1.16993e-06
1.15625e-06
-1.7547e-07
-1.714e-07
0.000267895
2.55078e-07
2.80843e-07
-0.00118171
-3.60217e-07
-2.2425e-07
0.00118176
-0.00113156
-1.20242e-06
-2.56587e-07
-1.96808e-07
0.00113229
-2.32961e-07
1.20707e-06
2.05641e-07
7.98282e-07
-2.73578e-07
-9.08111e-07
1.30625e-07
-0.00113156
-1.19049e-06
-3.5245e-07
-2.16443e-07
0.00113234
-2.3046e-07
1.20793e-06
2.07332e-07
8.08847e-07
-2.66367e-07
-8.97588e-07
1.43651e-07
-0.000270261
1.27877e-06
1.21859e-06
-2.68012e-07
-2.96696e-07
0.000268328
-1.15586e-07
-3.41663e-07
-0.00118277
7.85657e-08
-1.86651e-07
0.00118333
-0.00113446
-1.24744e-06
2.12198e-07
-4.43319e-08
0.00113472
-2.64671e-07
1.17702e-06
1.8973e-07
7.91012e-07
-2.84464e-07
-9.3719e-07
1.42287e-07
-0.00113423
-1.26227e-06
3.57373e-07
1.40113e-07
0.00113428
-2.82387e-07
1.15143e-06
1.72951e-07
7.79503e-07
-2.96316e-07
-9.47058e-07
1.34395e-07
-0.000270637
1.31975e-06
1.23227e-06
-2.48897e-07
-2.84787e-07
0.000268619
-5.17625e-07
-4.73469e-07
-0.00118462
5.70372e-07
4.43911e-07
0.00118459
-0.00113341
-1.22195e-06
4.98725e-07
2.43645e-07
0.00113243
-2.25399e-07
1.19914e-06
2.22903e-07
9.2062e-07
-1.36173e-07
-7.98721e-07
2.79851e-07
-0.00113248
-1.2166e-06
5.86237e-07
2.1057e-07
0.00113148
-2.21922e-07
1.19388e-06
2.27127e-07
9.11597e-07
-1.48939e-07
-8.08303e-07
2.7399e-07
-0.000270159
1.18196e-06
1.2048e-06
-1.6319e-07
-1.20713e-07
0.000268056
3.11725e-07
4.28225e-07
-0.00118235
1.50453e-07
2.91652e-07
0.00118116
-0.00112967
-1.12782e-06
-6.46891e-07
5.94068e-08
0.0011293
-1.50508e-07
1.28166e-06
2.88808e-07
1.01974e-06
-3.63108e-08
-6.77314e-07
3.56245e-07
-0.00112895
-1.11318e-06
-7.10581e-07
-1.03359e-08
0.00112866
-1.41974e-07
1.28213e-06
2.95022e-07
1.02607e-06
-3.09677e-08
-6.68952e-07
3.65444e-07
-0.000269579
1.11312e-06
1.10565e-06
-1.17642e-07
-1.05248e-07
0.000267583
1.06534e-06
1.04211e-06
-0.00117858
-8.77241e-07
-8.96663e-07
0.00117824
-0.00113006
-1.05821e-06
-1.00759e-06
-5.0824e-07
0.00113065
-9.42331e-08
1.34209e-06
3.38223e-07
9.56745e-07
-1.06163e-07
-7.37798e-07
2.89913e-07
-0.00112943
-1.05836e-06
-9.47844e-07
-5.00707e-07
0.00113003
-9.87421e-08
1.3302e-06
3.33173e-07
9.41143e-07
-1.22308e-07
-7.50807e-07
2.76859e-07
-0.000269942
1.13293e-06
1.09112e-06
-1.50174e-07
-1.63969e-07
0.000268032
2.80071e-07
5.24033e-07
-0.00117871
-8.48055e-07
-4.76324e-07
0.00117923
-0.00113212
-1.20309e-06
1.62432e-08
-1.08561e-07
0.00113236
-2.20578e-07
1.2002e-06
2.15262e-07
8.19351e-07
-2.3678e-07
-8.88603e-07
1.7107e-07
-0.00113196
-1.17339e-06
-1.74549e-07
-3.18723e-07
0.00113244
-2.01677e-07
1.221e-06
2.3528e-07
8.38234e-07
-2.25704e-07
-8.74115e-07
1.91983e-07
-0.000270542
1.21757e-06
1.22073e-06
-2.38301e-07
-2.26101e-07
0.000268569
-1.51534e-07
-4.49089e-07
-0.00118081
2.39888e-07
5.47154e-08
0.00118111
-0.00113246
-1.23701e-06
2.51491e-07
-4.8378e-08
0.00113242
-2.4465e-07
1.18661e-06
2.06411e-07
8.39986e-07
-2.26615e-07
-8.79668e-07
1.89483e-07
-0.00113278
-1.25417e-06
3.16317e-07
1.9828e-07
0.00113254
-2.69579e-07
1.15441e-06
1.78751e-07
8.35949e-07
-2.27369e-07
-8.79767e-07
1.91496e-07
-0.000270542
1.32247e-06
1.17503e-06
-1.81763e-07
-2.69803e-07
0.000268496
-2.01547e-07
-2.85117e-07
-0.00118122
5.16398e-07
1.79272e-07
0.00118101
-0.00113216
-1.2015e-06
-4.1369e-08
5.2583e-08
0.00113197
-2.23078e-07
1.20565e-06
2.13816e-07
8.99464e-07
-1.55206e-07
-8.12938e-07
2.53608e-07
-0.00113136
-1.22566e-06
2.20586e-07
1.35978e-07
0.00113107
-2.425e-07
1.17949e-06
2.02397e-07
8.61133e-07
-1.99213e-07
-8.52283e-07
2.1672e-07
-0.000270149
1.22006e-06
1.2381e-06
-2.3189e-07
-1.85623e-07
0.000268108
-2.94156e-07
6.44275e-08
-0.00117989
5.66269e-08
5.49438e-07
0.00117952
-0.00113137
-1.25204e-06
-1.5128e-07
3.76362e-07
0.00113136
-2.65192e-07
1.16072e-06
1.78318e-07
8.47844e-07
-2.11019e-07
-8.53557e-07
1.86078e-07
-0.00113111
-1.19781e-06
-4.42191e-07
5.02608e-08
0.00113138
-2.2258e-07
1.20587e-06
2.22498e-07
8.87102e-07
-1.82806e-07
-8.20196e-07
2.26447e-07
-0.000270088
1.18083e-06
1.21414e-06
-2.34434e-07
-1.97426e-07
0.000268125
2.9438e-07
-1.63618e-07
-0.00117892
1.33015e-07
-3.4969e-07
0.00117901
-0.00113233
-1.15112e-06
-2.0204e-08
-3.7809e-07
0.00113288
-1.75789e-07
1.2696e-06
2.71815e-07
7.71221e-07
-3.02145e-07
-9.42003e-07
1.10494e-07
-0.00113225
-1.18078e-06
1.71762e-07
-2.33729e-10
0.00113235
-2.04969e-07
1.22547e-06
2.4179e-07
7.66724e-07
-3.00405e-07
-9.4065e-07
1.12597e-07
-0.000270527
1.3193e-06
1.15804e-06
-2.11821e-07
-3.04132e-07
0.000268565
1.40084e-07
1.63441e-07
-0.00118035
-2.85952e-07
-6.42864e-07
0.00118098
-0.00113375
-1.19141e-06
4.12481e-07
-1.99552e-07
0.00113355
-2.17072e-07
1.22116e-06
2.24489e-07
8.48059e-07
-2.20865e-07
-8.80092e-07
2.04848e-07
-0.00113186
-1.18978e-06
6.88679e-07
-2.10929e-07
0.00113154
-2.12222e-07
1.2099e-06
2.27776e-07
8.08552e-07
-2.56041e-07
-9.15245e-07
1.71424e-07
-0.000270562
1.22178e-06
1.28972e-06
-2.71419e-07
-1.88202e-07
0.00026851
-1.68838e-07
4.01453e-07
-0.00118204
-4.60554e-07
3.86916e-07
0.00118188
-0.00113151
-1.24489e-06
5.57439e-08
4.54873e-07
0.0011306
-2.54029e-07
1.16699e-06
1.90185e-07
9.90245e-07
-6.30511e-08
-7.19625e-07
3.41947e-07
-0.00113049
-1.19339e-06
-2.84794e-07
-3.76861e-08
0.00113018
-2.16732e-07
1.2063e-06
2.25162e-07
1.00787e-06
-5.04072e-08
-7.03616e-07
3.60891e-07
-0.000270044
1.11856e-06
1.19787e-06
-1.55688e-07
-1.0232e-07
0.000267985
4.69897e-07
5.07082e-07
-0.00117975
-2.58727e-07
2.95891e-07
0.00117873
-0.00112872
-1.14748e-06
-8.19928e-07
7.39702e-08
0.00112865
-1.60594e-07
1.25774e-06
2.77404e-07
9.97367e-07
-5.14623e-08
-6.93203e-07
3.3588e-07
-0.00112989
-1.11795e-06
-1.23141e-06
-3.6509e-08
0.00113009
-1.49126e-07
1.27879e-06
2.89735e-07
1.04457e-06
-1.15785e-08
-6.49045e-07
3.79966e-07
-0.00026986
1.16762e-06
1.02775e-06
-6.49998e-08
-1.67284e-07
0.000267897
5.91492e-07
1.56569e-07
-0.00117636
5.30283e-08
-4.09283e-07
0.00117596
-0.0011299
-1.09812e-06
-7.34037e-07
-4.98767e-07
0.00113068
-1.27067e-07
1.30549e-06
3.06229e-07
8.73144e-07
-1.89223e-07
-8.21027e-07
2.02864e-07
-0.00113129
-1.12308e-06
-6.57508e-07
-1.76754e-07
0.00113178
-1.54592e-07
1.27524e-06
2.84233e-07
8.72926e-07
-1.9514e-07
-8.24477e-07
2.06017e-07
-0.000270354
1.24326e-06
1.09498e-06
-1.68871e-07
-2.46702e-07
0.000268431
1.99494e-07
-9.43566e-08
-0.00117614
5.80828e-08
-6.55953e-07
0.00117663
-0.00113321
-1.17682e-06
1.39282e-07
-4.21308e-07
0.00113381
-2.11205e-07
1.23359e-06
2.26932e-07
7.57912e-07
-3.01742e-07
-9.5708e-07
1.09151e-07
-0.00113288
-1.203e-06
5.91677e-07
-1.42939e-07
0.00113295
-2.27488e-07
1.20069e-06
2.14272e-07
7.27672e-07
-3.31553e-07
-9.87021e-07
8.41567e-08
-0.000270853
1.29706e-06
1.28273e-06
-3.06398e-07
-2.70353e-07
0.00026885
-2.94085e-07
-2.18317e-08
-0.00117889
-2.01281e-07
-1.93148e-07
0.0011796
-0.00113395
-1.30742e-06
6.65402e-07
3.28851e-07
0.0011335
-3.21219e-07
1.10755e-06
1.19216e-07
8.1746e-07
-2.32475e-07
-8.9953e-07
1.73718e-07
-0.00113221
-1.27414e-06
6.98993e-07
1.23137e-07
0.0011318
-2.90336e-07
1.12577e-06
1.46694e-07
8.21297e-07
-2.25588e-07
-8.92478e-07
1.83834e-07
-0.000270633
1.21927e-06
1.31889e-06
-2.80125e-07
-1.85612e-07
0.00026856
-2.06092e-07
1.59589e-07
-0.00118048
-1.89956e-07
4.26059e-07
0.00118029
-0.00113144
-1.28121e-06
5.17128e-08
5.56571e-07
0.00113082
-2.79448e-07
1.12875e-06
1.5665e-07
9.20232e-07
-1.14292e-07
-7.70757e-07
2.58323e-07
-0.0011306
-1.23524e-06
-3.10693e-07
2.58634e-07
0.00113037
-2.5186e-07
1.15421e-06
1.77361e-07
9.51734e-07
-8.09676e-08
-7.32461e-07
2.92399e-07
-0.000270196
1.16559e-06
1.16552e-06
-1.43361e-07
-1.43236e-07
0.000268152
1.21866e-06
1.18794e-06
-0.00117845
-9.10785e-07
-5.99895e-07
0.00117755
-0.00113021
-1.04448e-06
-1.45578e-06
-4.66634e-07
0.0011307
-6.56952e-08
1.42762e-06
3.703e-07
1.0684e-06
-1.72571e-08
-6.59202e-07
3.47857e-07
-0.00113076
-1.03146e-06
-1.72615e-06
-4.66714e-07
0.00113142
-6.93901e-08
1.42617e-06
3.67495e-07
1.09017e-06
2.84293e-09
-6.29953e-07
3.72037e-07
-0.000270325
1.11367e-06
9.69323e-07
-9.63457e-09
-1.0203e-07
0.000268354
5.53248e-06
5.45017e-06
-0.0011632
-1.16367e-05
-1.18249e-05
0.000283342
0.000285153
0.000285064
0.000285082
4.57551e-06
6.8145e-06
7.23298e-06
4.50539e-06
6.74116e-06
7.16614e-06
-0.000280454
5.49004e-06
-5.50322e-06
5.9666e-06
-3.51465e-06
0.000278015
-0.000280685
-5.49426e-06
5.47119e-06
-3.48694e-06
5.95808e-06
0.000278237
-0.000271603
-5.36493e-06
-5.47377e-06
5.77451e-06
5.70046e-06
0.000270967
-1.31098e-06
-1.26733e-06
0.000269982
-0.000268005
2.91879e-07
3.10124e-07
0.00113099
-2.03588e-07
-0.00113131
-1.45067e-07
-1.17243e-06
3.00775e-07
-1.54552e-07
-7.60929e-07
2.99514e-07
-1.09335e-07
9.47989e-07
1.31886e-06
0.00113178
-2.24447e-07
-0.00113213
-1.07298e-07
-1.17507e-06
3.01878e-07
-1.58856e-07
-7.61418e-07
3.07971e-07
-1.07345e-07
9.59327e-07
-1.24752e-06
0.000270087
-0.000268108
2.79682e-07
3.08151e-07
0.00113204
-1.46231e-07
-0.00113237
-1.75104e-07
-1.13862e-06
2.88587e-07
-1.58468e-07
-7.6136e-07
3.0726e-07
-1.07757e-07
9.53814e-07
1.30895e-06
0.00113115
-1.3875e-07
-0.00113159
-6.74806e-08
-1.1729e-06
2.99208e-07
-1.60545e-07
-7.65348e-07
2.99374e-07
-1.13416e-07
9.47601e-07
-2.54564e-07
-0.00113244
-5.10976e-09
-1.16265e-06
2.61393e-07
-1.80378e-07
-7.44396e-07
3.17627e-07
9.66067e-07
-9.19607e-08
1.30646e-06
0.0011306
-1.4711e-07
-0.0011309
-1.74966e-07
-1.16677e-06
3.00048e-07
-1.50108e-07
-7.70592e-07
2.90317e-07
-1.19401e-07
9.38525e-07
-1.23225e-06
0.000269976
-0.000268014
2.71335e-07
3.08008e-07
-1.85249e-07
-0.00113186
4.98211e-08
-1.16609e-06
2.54783e-07
-1.86529e-07
-7.48783e-07
3.12692e-07
9.59081e-07
-9.95051e-08
1.2599e-06
0.00113162
-1.01571e-07
-0.00113193
-1.83642e-07
-1.14144e-06
2.83154e-07
-1.59227e-07
-7.67545e-07
2.98118e-07
-1.1751e-07
9.4247e-07
-0.000267931
2.89282e-07
3.08272e-07
1.15595e-06
1.13491e-06
-1.28619e-07
-1.21657e-07
0.000267941
-1.30984e-06
-1.24464e-06
0.000269864
-0.000267845
2.55621e-07
2.7981e-07
-2.04635e-07
0.00113063
-1.37908e-07
1.32634e-06
3.15248e-07
9.56915e-07
-9.68068e-08
-7.50447e-07
3.10372e-07
-1.16742e-06
-1.63062e-07
-1.03803e-07
0.00113131
-1.49564e-07
1.3234e-06
3.07504e-07
9.62294e-07
-9.90911e-08
-7.54527e-07
3.11498e-07
0.00112992
-2.84746e-07
-0.00113004
-2.1966e-07
-1.16151e-06
2.86171e-07
-1.57071e-07
-7.63864e-07
2.8607e-07
-1.10959e-07
9.34573e-07
1.28536e-06
0.0011301
-1.26497e-07
-0.00113037
-4.47084e-08
-1.19615e-06
2.66242e-07
-1.8248e-07
-7.87164e-07
2.69466e-07
-1.32287e-07
9.20855e-07
-1.48419e-07
-1.22377e-07
0.000268025
-1.23916e-06
0.00026983
-0.000267817
2.55465e-07
2.55754e-07
-1.72792e-07
0.00113167
-1.53502e-07
1.27025e-06
2.92293e-07
9.66413e-07
-9.17407e-08
-7.47016e-07
3.20867e-07
-1.16462e-06
-8.55378e-08
-9.37588e-08
0.00113065
-1.50978e-07
1.31473e-06
3.05915e-07
9.48825e-07
-1.08591e-07
-7.6156e-07
3.01912e-07
0.00113099
-3.85563e-07
-0.00113109
-6.15082e-08
-1.1541e-06
2.59226e-07
-1.80937e-07
-7.56926e-07
2.95697e-07
-1.05513e-07
9.46248e-07
1.28265e-06
0.00112962
-1.37607e-07
-0.0011298
-1.24912e-07
-1.1873e-06
2.67478e-07
-1.8095e-07
-7.89624e-07
2.65883e-07
-1.366e-07
9.13409e-07
-1.88537e-07
-2.75776e-07
0.0011303
-1.30438e-07
1.32596e-06
3.16568e-07
9.51271e-07
-1.03247e-07
3.04243e-07
-7.56844e-07
-2.35708e-07
-0.00113077
5.15621e-08
-1.16814e-06
2.56761e-07
-1.80703e-07
-7.7766e-07
2.66067e-07
9.17471e-07
-1.28448e-07
1.31168e-06
0.00112993
-3.64426e-07
-0.00112994
-2.97429e-07
-1.1484e-06
2.87707e-07
-1.49764e-07
-7.58182e-07
2.92124e-07
-1.05559e-07
9.41074e-07
-1.50924e-07
-1.27751e-07
0.000267922
-1.23851e-06
0.000269761
-0.000267751
2.54006e-07
2.56497e-07
-1.84073e-07
-2.24624e-07
0.00113132
-1.49997e-07
1.2679e-06
2.90415e-07
9.58758e-07
-9.82904e-08
3.14372e-07
-7.49859e-07
-2.63658e-07
-0.0011302
-2.58628e-08
-1.15761e-06
2.60984e-07
-1.7645e-07
-7.82541e-07
2.64387e-07
9.13118e-07
-1.36316e-07
1.25117e-06
0.00113102
-4.85682e-07
-0.001131
-1.42578e-07
-1.14222e-06
2.64316e-07
-1.70533e-07
-7.4745e-07
3.01649e-07
-1.00126e-07
9.51229e-07
-0.000267857
2.63016e-07
2.8195e-07
1.18139e-06
1.16793e-06
-1.77861e-07
-1.73138e-07
0.000267866
-1.21824e-06
-1.1901e-06
0.000270222
-0.000268132
1.62258e-07
1.56231e-07
-1.71611e-07
0.00112994
-1.80616e-07
1.28811e-06
2.61891e-07
9.1312e-07
-1.34012e-07
-7.83969e-07
2.61479e-07
-1.21448e-06
-1.64047e-07
-4.06603e-08
0.00113003
-2.03497e-07
1.26611e-06
2.45176e-07
8.99262e-07
-1.55184e-07
-8.08477e-07
2.45994e-07
0.00113098
-2.69682e-07
-0.00113047
-1.51516e-08
-1.25558e-06
1.88035e-07
-2.58115e-07
-8.7287e-07
1.62084e-07
-2.37069e-07
8.28534e-07
1.23075e-06
0.00113113
-3.09042e-07
-0.00113054
-8.31619e-08
-1.25659e-06
2.01838e-07
-2.52152e-07
-8.77699e-07
1.65493e-07
-2.38742e-07
8.3537e-07
-1.78766e-07
-1.90025e-07
0.000267816
-1.21941e-06
0.000270193
-0.000268086
1.81245e-07
1.62126e-07
-2.18477e-08
0.00113104
-1.97515e-07
1.22964e-06
2.42272e-07
9.22488e-07
-1.31572e-07
-7.79233e-07
2.68077e-07
-1.20274e-06
-2.12008e-07
-1.33076e-07
0.00112967
-1.99421e-07
1.26697e-06
2.4929e-07
8.98283e-07
-1.53935e-07
-8.04893e-07
2.4801e-07
0.00113216
-3.4091e-07
-0.00113162
1.75945e-08
-1.21333e-06
1.98977e-07
-2.45535e-07
-8.80097e-07
1.56244e-07
-2.47731e-07
8.26131e-07
1.23194e-06
0.00113111
-4.23226e-07
-0.00113042
-1.37877e-07
-1.24501e-06
2.05164e-07
-2.49144e-07
-8.63472e-07
1.77457e-07
-2.28966e-07
8.45861e-07
-3.77565e-07
-2.22323e-07
0.00113004
-1.74521e-07
1.28881e-06
2.62663e-07
9.20701e-07
-1.27204e-07
2.68753e-07
-7.77005e-07
-2.48011e-07
-0.001131
-1.89731e-07
-1.18824e-06
2.21059e-07
-2.15752e-07
-8.85249e-07
1.50763e-07
8.17291e-07
-2.49057e-07
1.21436e-06
0.00113115
-3.1422e-07
-0.00113064
1.97499e-09
-1.2494e-06
1.85665e-07
-2.55656e-07
-8.66974e-07
1.70238e-07
-2.30483e-07
8.36099e-07
-1.72962e-07
-1.9246e-07
0.00026777
-1.22463e-06
0.000270212
-0.000268107
1.84448e-07
1.67409e-07
-5.08711e-07
-8.158e-08
0.00113116
-1.87164e-07
1.23631e-06
2.47506e-07
9.28134e-07
-1.25257e-07
2.74871e-07
-7.68949e-07
-3.56658e-07
-0.00113089
-2.53637e-07
-1.17272e-06
2.28065e-07
-2.09083e-07
-8.75612e-07
1.641e-07
8.28712e-07
-2.4348e-07
1.19405e-06
0.00113237
-3.83571e-07
-0.00113184
1.78937e-08
-1.20517e-06
2.02071e-07
-2.3794e-07
-8.72526e-07
1.6323e-07
-2.4243e-07
8.30106e-07
-0.000268183
1.7116e-07
1.58786e-07
1.2822e-06
1.22514e-06
-2.70839e-07
-2.97783e-07
0.000268283
-1.16557e-06
-1.18832e-06
0.000270695
-0.000268657
1.73067e-07
1.4275e-07
5.22763e-08
0.00113163
-2.84548e-07
1.1935e-06
1.63692e-07
8.02551e-07
-2.67954e-07
-9.01977e-07
1.33958e-07
-1.26967e-06
-3.37063e-07
-7.77556e-08
0.00113188
-2.67112e-07
1.21986e-06
1.88814e-07
8.15258e-07
-2.65321e-07
-9.01681e-07
1.43449e-07
0.00113354
-2.64044e-08
-0.00113303
1.77181e-07
-1.32563e-06
1.56261e-07
-3.0989e-07
-9.46346e-07
1.18503e-07
-3.0277e-07
7.75827e-07
1.19543e-06
0.00113413
-1.03509e-07
-0.00113352
4.93206e-08
-1.30377e-06
1.75949e-07
-2.92778e-07
-9.45129e-07
1.28451e-07
-2.98295e-07
7.87731e-07
-2.57887e-07
-2.80142e-07
0.000268259
-1.17498e-06
0.000270772
-0.000268718
1.60485e-07
1.56252e-07
8.30289e-09
0.00113283
-2.57761e-07
1.18115e-06
1.89407e-07
7.93819e-07
-2.83781e-07
-9.1486e-07
1.22887e-07
-1.2622e-06
-4.45012e-07
-8.40372e-08
0.00113193
-2.68428e-07
1.21608e-06
1.86659e-07
8.25282e-07
-2.539e-07
-8.86176e-07
1.54982e-07
0.00113472
1.62389e-07
-0.00113423
-1.19895e-07
-1.22921e-06
2.0629e-07
-2.52804e-07
-9.74368e-07
1.01942e-07
-3.27072e-07
7.5456e-07
1.17324e-06
0.00113394
-4.25807e-08
-0.00113349
2.26414e-07
-1.3159e-06
1.61742e-07
-3.08142e-07
-9.44698e-07
1.24155e-07
-3.01333e-07
7.81374e-07
-2.82207e-07
9.36188e-08
0.00113176
-2.84624e-07
1.186e-06
1.5785e-07
8.09834e-07
-2.6108e-07
1.41475e-07
-8.95439e-07
2.50857e-08
-0.00113388
-1.0325e-07
-1.24312e-06
1.81985e-07
-2.68354e-07
-9.458e-07
1.23766e-07
7.76798e-07
-2.98558e-07
1.14786e-06
0.00113331
6.15296e-08
-0.00113296
3.05804e-07
-1.33261e-06
1.45225e-07
-3.1567e-07
-9.47215e-07
1.16896e-07
-3.03427e-07
7.73778e-07
-2.51483e-07
-2.81895e-07
0.000268292
-1.15342e-06
0.000270722
-0.000268697
1.49777e-07
1.51944e-07
-2.97738e-07
2.95822e-08
0.001133
-2.52051e-07
1.18272e-06
1.89565e-07
7.96327e-07
-2.78596e-07
1.28877e-07
-9.0761e-07
1.08071e-07
-0.00113383
6.0274e-08
-1.25397e-06
1.67296e-07
-2.83789e-07
-9.48686e-07
1.23281e-07
7.73035e-07
-3.0363e-07
1.17552e-06
0.00113447
2.76631e-07
-0.00113417
-3.45995e-10
-1.23594e-06
1.95517e-07
-2.57666e-07
-9.74692e-07
9.98226e-08
-3.2857e-07
7.4821e-07
-0.000268627
1.72868e-07
1.40121e-07
1.31154e-06
1.2213e-06
-2.41721e-07
-2.81484e-07
0.000268686
-1.28276e-06
-1.20993e-06
0.000270327
-0.000268408
2.63894e-07
3.09698e-07
1.50867e-07
0.0011338
-2.87152e-07
1.18791e-06
1.84315e-07
7.89557e-07
-2.89414e-07
-9.38205e-07
1.36786e-07
-1.30107e-06
7.53658e-08
9.72554e-08
0.00113442
-2.81415e-07
1.20563e-06
1.92249e-07
7.98639e-07
-2.87709e-07
-9.39852e-07
1.43523e-07
0.00113266
4.76983e-07
-0.00113337
6.22005e-09
-1.2165e-06
2.7962e-07
-1.87049e-07
-8.50901e-07
2.36664e-07
-1.88609e-07
8.7566e-07
1.27351e-06
0.00113317
5.45353e-07
-0.00113393
7.75101e-08
-1.23645e-06
2.67149e-07
-2.0592e-07
-8.64498e-07
2.30146e-07
-1.99017e-07
8.72266e-07
-2.6295e-07
-2.67872e-07
0.000268754
-1.19078e-06
0.000270353
-0.000268434
2.53256e-07
2.92241e-07
-1.47156e-07
0.00113493
-2.39673e-07
1.20034e-06
2.21103e-07
7.73818e-07
-3.07853e-07
-9.62149e-07
1.26975e-07
-1.31505e-06
2.07251e-07
2.87362e-07
0.00113403
-2.97189e-07
1.18161e-06
1.77824e-07
7.83138e-07
-2.98946e-07
-9.48016e-07
1.30862e-07
0.00113365
5.35877e-07
-0.00113439
4.24808e-08
-1.20691e-06
2.35176e-07
-2.19946e-07
-8.36793e-07
2.61415e-07
-1.70717e-07
8.97573e-07
1.2641e-06
0.00113228
6.95295e-07
-0.00113315
1.0956e-07
-1.23528e-06
2.68291e-07
-2.05516e-07
-8.78668e-07
2.13377e-07
-2.15038e-07
8.51809e-07
2.445e-07
2.88812e-07
0.00113338
-2.93762e-07
1.16789e-06
1.71671e-07
7.81166e-07
-2.95175e-07
1.29017e-07
-9.44492e-07
5.47144e-07
-0.00113418
1.78881e-07
-1.23316e-06
2.13846e-07
-2.37908e-07
-8.434e-07
2.44851e-07
8.83006e-07
-1.78982e-07
1.26649e-06
0.00113186
6.21025e-07
-0.00113263
3.09891e-08
-1.21963e-06
2.71435e-07
-1.88583e-07
-8.69844e-07
2.14231e-07
-2.06327e-07
8.52967e-07
-2.70453e-07
-2.78286e-07
0.000268694
-1.17688e-06
0.00027018
-0.000268279
2.46461e-07
2.94038e-07
4.91523e-07
-7.69634e-09
0.00113448
-2.48277e-07
1.18217e-06
2.05941e-07
7.62189e-07
-3.13186e-07
1.19584e-07
-9.66494e-07
6.93056e-07
-0.00113335
2.20726e-07
-1.2365e-06
2.10642e-07
-2.42092e-07
-8.57417e-07
2.32509e-07
8.67574e-07
-1.95865e-07
1.19237e-06
0.00113279
6.82823e-07
-0.0011336
8.02921e-08
-1.21685e-06
2.22208e-07
-2.26416e-07
-8.51999e-07
2.39691e-07
-1.87429e-07
8.72836e-07
-0.000268256
2.54704e-07
3.01158e-07
1.18612e-06
1.20195e-06
-1.52104e-07
-1.15043e-07
0.000268206
-1.32664e-06
-1.24803e-06
0.000269567
-0.000267611
2.92277e-07
3.2649e-07
-1.69983e-08
0.00113168
-1.60067e-07
1.30698e-06
3.00038e-07
9.09312e-07
-1.47334e-07
-8.09981e-07
2.69387e-07
-1.20372e-06
5.96276e-07
9.61952e-09
0.00113217
-1.74255e-07
1.30278e-06
2.93807e-07
9.0298e-07
-1.61859e-07
-8.26959e-07
2.60164e-07
0.00112854
2.83099e-08
-0.00112943
-1.40782e-08
-1.14678e-06
3.04057e-07
-1.39096e-07
-7.15387e-07
3.324e-07
-6.4899e-08
9.85752e-07
1.35645e-06
0.00112924
5.20174e-08
-0.00113003
-2.14651e-07
-1.13171e-06
3.25678e-07
-1.24663e-07
-7.2537e-07
3.35819e-07
-7.02799e-08
9.89745e-07
-1.65947e-07
-1.26312e-07
0.00026822
-1.25696e-06
0.000269641
-0.000267661
3.00871e-07
3.33105e-07
1.51024e-07
0.00113265
-2.14604e-07
1.2116e-06
2.37592e-07
9.40291e-07
-1.20733e-07
-7.85339e-07
3.0098e-07
-1.19385e-06
6.91257e-07
-3.62066e-08
0.00113125
-1.66396e-07
1.30193e-06
3.01996e-07
8.89152e-07
-1.73339e-07
-8.35987e-07
2.50307e-07
0.00112959
-1.39385e-07
-0.00113045
2.10586e-07
-1.15786e-06
2.65494e-07
-1.79349e-07
-6.9576e-07
3.52194e-07
-4.72309e-08
1.00773e-06
1.36318e-06
0.00112854
-5.71067e-09
-0.00112924
-3.32402e-07
-1.11137e-06
3.37161e-07
-1.11151e-07
-7.15105e-07
3.42735e-07
-6.3199e-08
9.93888e-07
6.15886e-07
-7.95263e-08
0.00113092
-1.54955e-07
1.29955e-06
2.99297e-07
8.87161e-07
-1.68413e-07
2.48297e-07
-8.30987e-07
-2.90791e-07
-0.00113039
1.92583e-07
-1.15754e-06
2.70092e-07
-1.71867e-07
-6.9319e-07
3.50431e-07
1.00915e-06
-4.66965e-08
1.34771e-06
0.00112853
-1.30948e-07
-0.0011291
-2.86138e-07
-1.11507e-06
3.2202e-07
-1.15209e-07
-7.12523e-07
3.38713e-07
-6.18683e-08
9.92218e-07
-1.64036e-07
-1.26514e-07
0.00026806
-1.262e-06
0.000269539
-0.00026756
3.04297e-07
3.41987e-07
5.71748e-07
1.01014e-07
0.00113185
-2.14561e-07
1.2027e-06
2.3205e-07
9.1618e-07
-1.4133e-07
2.80434e-07
-8.02878e-07
-3.59118e-07
-0.00112957
8.41179e-08
-1.13909e-06
2.80579e-07
-1.59787e-07
-6.84811e-07
3.60253e-07
1.01673e-06
-4.19774e-08
1.26895e-06
0.00112956
-3.09807e-07
-0.0011301
-5.61542e-08
-1.13183e-06
2.81316e-07
-1.58154e-07
-6.88728e-07
3.59834e-07
-4.26934e-08
1.01316e-06
-0.000267603
3.03714e-07
3.37166e-07
1.14792e-06
1.13558e-06
-1.26773e-07
-1.1833e-07
0.000267528
-1.3284e-06
-1.30672e-06
0.000269781
-0.000267699
2.78399e-07
2.74437e-07
-3.5592e-08
0.00112798
-1.48094e-07
1.31867e-06
2.9217e-07
9.97574e-07
-5.30831e-08
-6.98618e-07
3.39915e-07
-1.12959e-06
-3.21511e-07
-2.51843e-07
0.0011288
-1.32467e-07
1.35012e-06
3.13435e-07
1.01055e-06
-4.96419e-08
-7.00339e-07
3.52258e-07
0.00112846
-1.04263e-06
-0.00112799
-3.18438e-07
-1.13854e-06
2.98648e-07
-1.45272e-07
-7.00407e-07
3.22636e-07
-6.76055e-08
9.91367e-07
1.30808e-06
0.00112944
-1.15402e-06
-0.00112897
-2.16211e-07
-1.16617e-06
2.72375e-07
-1.74478e-07
-6.80801e-07
3.53199e-07
-4.32568e-08
1.02477e-06
-1.20875e-07
-1.06881e-07
0.000267611
-1.34413e-06
0.000269943
-0.00026785
3.10972e-07
2.48776e-07
9.70343e-08
0.00112906
-1.6517e-07
1.26454e-06
2.76583e-07
1.00784e-06
-4.64627e-08
-6.90541e-07
3.49147e-07
-1.11388e-06
-3.74514e-07
-3.3011e-07
0.00112817
-1.23456e-07
1.35162e-06
3.19929e-07
1.01371e-06
-4.18285e-08
-6.89816e-07
3.58565e-07
0.00112953
-9.99321e-07
-0.00112907
-3.69852e-07
-1.08493e-06
3.09278e-07
-1.26986e-07
-7.14347e-07
3.17839e-07
-7.93433e-08
9.83673e-07
1.29345e-06
0.00112882
-1.09866e-06
-0.00112836
-1.85723e-07
-1.1673e-06
2.64002e-07
-1.81134e-07
-6.86641e-07
3.43733e-07
-5.05596e-08
1.01075e-06
-5.37834e-07
-3.01766e-07
0.00112829
-1.22212e-07
1.34342e-06
3.12209e-07
1.01843e-06
-3.62804e-08
3.59263e-07
-6.81866e-07
-1.11226e-06
-0.00112958
-4.2916e-07
-1.05847e-06
3.40412e-07
-9.39349e-08
-7.05869e-07
3.17373e-07
9.86935e-07
-7.51917e-08
1.33112e-06
0.00112927
-1.24381e-06
-0.00112873
-3.13715e-07
-1.12539e-06
2.9748e-07
-1.41039e-07
-6.73883e-07
3.48027e-07
-4.14697e-08
1.01907e-06
-1.12755e-07
-1.03798e-07
0.000267528
-1.33035e-06
0.00026985
-0.000267772
3.01934e-07
2.43192e-07
-6.71872e-07
-1.62574e-07
0.00112935
-1.40768e-07
1.28997e-06
2.9559e-07
1.02814e-06
-2.75855e-08
3.70196e-07
-6.69094e-07
-1.06421e-06
-0.00112896
-3.97591e-07
-1.05894e-06
3.33886e-07
-9.91074e-08
-7.14112e-07
3.09391e-07
9.75649e-07
-8.60019e-08
1.31374e-06
0.00113035
-1.21083e-06
-0.00112982
-3.69636e-07
-1.07325e-06
3.10558e-07
-1.20497e-07
-6.83827e-07
3.42657e-07
-5.35061e-08
1.00954e-06
-0.000267865
2.88058e-07
2.79677e-07
1.13315e-06
1.09049e-06
-1.4907e-07
-1.63075e-07
0.00026787
-1.30457e-06
-1.21896e-06
0.000270538
-0.000268447
1.99852e-07
2.33537e-07
-4.39894e-07
0.00112915
-1.39745e-07
1.33605e-06
3.05595e-07
9.68596e-07
-9.30442e-08
-7.23957e-07
2.99899e-07
-1.1873e-06
-1.18888e-06
-1.50349e-07
0.00113005
-1.9131e-07
1.28838e-06
2.57832e-07
1.00307e-06
-6.75504e-08
-7.0231e-07
3.30766e-07
0.00113151
-5.41129e-07
-0.00113077
-4.90538e-07
-1.16787e-06
2.74526e-07
-1.72379e-07
-8.35498e-07
2.14497e-07
-1.91063e-07
8.67765e-07
1.23486e-06
0.00113172
-5.5246e-07
-0.00113126
8.49987e-08
-1.25349e-06
2.2489e-07
-2.3459e-07
-8.40424e-07
2.07625e-07
-1.97665e-07
8.68982e-07
-1.21456e-07
-1.92647e-07
0.000268012
-1.24198e-06
0.000270496
-0.000268432
2.14633e-07
1.98381e-07
-4.43922e-07
0.0011302
-1.33098e-07
1.2996e-06
3.01937e-07
9.67894e-07
-9.93393e-08
-7.32276e-07
3.00476e-07
-1.18882e-06
-1.12552e-06
-1.42519e-07
0.00112944
-1.97969e-07
1.2749e-06
2.50302e-07
9.8612e-07
-7.90671e-08
-7.11521e-07
3.17171e-07
0.00113262
-7.5337e-07
-0.00113184
-2.09753e-07
-1.17877e-06
2.33367e-07
-2.10381e-07
-8.17995e-07
2.2742e-07
-1.81381e-07
8.9012e-07
1.24579e-06
0.00113156
-6.66082e-07
-0.00113088
-9.66289e-08
-1.23374e-06
2.36923e-07
-2.2393e-07
-8.34603e-07
2.11832e-07
-1.96149e-07
8.71987e-07
-1.17944e-06
-3.26345e-07
0.00112991
-1.46299e-07
1.32587e-06
2.94352e-07
9.86589e-07
-7.58691e-08
3.16908e-07
-7.06488e-07
-2.4336e-07
-0.00113174
-2.61517e-07
-1.15715e-06
2.50984e-07
-1.81676e-07
-8.57552e-07
1.94059e-07
8.45844e-07
-2.10736e-07
1.27633e-06
0.00113165
-3.5903e-07
-0.00113117
-2.65038e-07
-1.18848e-06
2.55851e-07
-1.88965e-07
-8.52225e-07
1.98937e-07
-2.06396e-07
8.5119e-07
-1.24839e-07
-2.03186e-07
0.000267931
-1.25639e-06
0.0002705
-0.000268425
2.20994e-07
2.06471e-07
-1.16159e-06
-3.35636e-07
0.00113099
-1.37145e-07
1.29406e-06
2.93268e-07
9.8265e-07
-8.37538e-08
3.16047e-07
-7.12498e-07
-3.57114e-07
-0.00113136
-4.5039e-07
-1.1339e-06
2.66219e-07
-1.67522e-07
-8.56122e-07
2.00508e-07
8.50538e-07
-2.13316e-07
1.19517e-06
0.0011328
-5.78511e-07
-0.00113227
1.32706e-08
-1.20042e-06
2.16636e-07
-2.24876e-07
-8.32282e-07
2.13097e-07
-1.96074e-07
8.71216e-07
-0.00026849
1.9442e-07
2.24316e-07
1.20253e-06
1.20537e-06
-2.29822e-07
-2.18771e-07
0.000268578
-1.17245e-06
-1.22647e-06
0.000270663
-0.000268664
2.33616e-07
1.66505e-07
-3.55566e-07
0.00113208
-2.02279e-07
1.27206e-06
2.46145e-07
8.42393e-07
-2.16041e-07
-8.66746e-07
1.93487e-07
-1.26208e-06
-2.1794e-07
9.16925e-08
0.00113203
-2.36439e-07
1.232e-06
2.26155e-07
8.24141e-07
-2.41511e-07
-8.90126e-07
1.67844e-07
0.00113254
1.63492e-07
-0.00113257
2.33494e-07
-1.31122e-06
1.61754e-07
-2.94014e-07
-8.85191e-07
1.84959e-07
-2.31336e-07
8.35836e-07
1.25977e-06
0.00113221
3.49595e-07
-0.00113223
-1.08025e-07
-1.23984e-06
2.48668e-07
-2.14494e-07
-9.36795e-07
1.45064e-07
-2.77313e-07
7.94747e-07
-2.30501e-07
-2.35252e-07
0.000268496
-1.16591e-06
0.000270513
-0.000268501
1.82852e-07
2.31699e-07
-8.79538e-08
0.00113325
-2.28711e-07
1.20058e-06
2.21398e-07
8.59101e-07
-2.12209e-07
-8.53146e-07
1.99766e-07
-1.23631e-06
-4.10527e-07
-1.06271e-07
0.00113212
-2.21106e-07
1.24884e-06
2.42635e-07
8.4055e-07
-2.27873e-07
-8.72219e-07
1.85367e-07
0.00113383
2.75499e-07
-0.00113386
-6.537e-08
-1.19526e-06
2.4964e-07
-2.09102e-07
-9.26154e-07
1.47268e-07
-2.7382e-07
7.96882e-07
1.24786e-06
0.00113257
2.32872e-07
-0.00113264
-1.36183e-09
-1.23872e-06
2.38301e-07
-2.23053e-07
-9.11667e-07
1.64939e-07
-2.56871e-07
8.13211e-07
-7.06912e-08
-1.81063e-07
0.00113197
-2.11937e-07
1.24991e-06
2.34167e-07
8.24465e-07
-2.34018e-07
1.76649e-07
-8.86102e-07
3.08324e-07
-0.00113248
3.05217e-08
-1.25443e-06
1.87939e-07
-2.61014e-07
-8.98925e-07
1.70724e-07
8.20038e-07
-2.4411e-07
1.16545e-06
0.00113194
2.50876e-07
-0.00113209
2.49149e-07
-1.30614e-06
1.62003e-07
-2.8712e-07
-8.82801e-07
1.88237e-07
-2.2857e-07
8.38393e-07
-2.16473e-07
-2.2934e-07
0.000268536
-1.15761e-06
0.000270593
-0.000268602
1.80729e-07
2.32894e-07
-3.13444e-07
7.8765e-08
0.00113317
-2.35851e-07
1.18409e-06
2.12226e-07
8.38179e-07
-2.29585e-07
1.83692e-07
-8.70112e-07
2.21776e-07
-0.00113286
1.18065e-07
-1.24939e-06
1.8028e-07
-2.66562e-07
-8.80953e-07
1.90761e-07
8.36489e-07
-2.28903e-07
1.22687e-06
0.00113321
3.95673e-07
-0.00113338
-6.46167e-08
-1.18784e-06
2.52798e-07
-1.98631e-07
-9.26516e-07
1.47114e-07
-2.74578e-07
7.91469e-07
-0.000268564
2.43499e-07
1.70777e-07
1.32797e-06
1.17984e-06
-1.85738e-07
-2.74699e-07
0.000268616
-1.23134e-06
-1.20072e-06
0.000270337
-0.000268368
2.18327e-07
2.44867e-07
3.65816e-07
0.00113239
-3.05255e-07
1.16024e-06
1.54805e-07
8.49984e-07
-2.19872e-07
-8.71053e-07
1.96328e-07
-1.23e-06
3.02948e-07
-1.70695e-07
0.00113216
-2.08266e-07
1.26862e-06
2.53809e-07
8.22605e-07
-2.5292e-07
-9.11852e-07
1.7199e-07
0.00113145
1.22611e-07
-0.00113183
2.6104e-07
-1.26534e-06
2.31991e-07
-2.34827e-07
-8.46842e-07
2.10974e-07
-1.98569e-07
8.63839e-07
1.28218e-06
0.00113191
-8.44648e-09
-0.00113203
-1.60059e-07
-1.21285e-06
2.62244e-07
-1.98454e-07
-8.24378e-07
2.50688e-07
-1.6843e-07
9.01616e-07
-2.35015e-07
-1.96961e-07
0.000268478
-1.2251e-06
0.000270405
-0.000268398
2.4381e-07
2.57186e-07
-1.25812e-07
0.00113363
-1.96144e-07
1.24022e-06
2.60085e-07
7.97993e-07
-2.7189e-07
-9.2785e-07
1.51906e-07