/*--------------------------------*- C++ -*----------------------------------*\
| =========                 |                                                 |
| \\      /  F ield         | OpenFOAM: The Open Source CFD Toolbox           |
|  \\    /   O peration     | Version:  v1906                                 |
|   \\  /    A nd           | Web:      www.OpenFOAM.com                      |
|    \\/     M anipulation  |                                                 |
\*---------------------------------------------------------------------------*/
FoamFile
{
    version     2.0;
    format      ascii;
    class       volVectorField;
    location    "750";
    object      U;
}
// * * * * * * * * * * * * * * * * * * * * * * * * * * * * * * * * * * * * * //

dimensions      [0 1 -1 0 0 0 0];


internalField   nonuniform List<vector> 
43024
(
(-5.24972e-06 -1.14583e-05 0.112429)
(3.49844e-05 -2.62231e-06 0.10746)
(7.21703e-08 3.13228e-05 0.10743)
(-7.44354e-06 -9.71087e-08 0.10413)
(-3.63892e-05 -2.16652e-05 0.112307)
(2.275e-05 -9.30225e-06 0.107324)
(-1.53641e-05 2.51228e-05 0.10732)
(-1.76422e-05 -1.15834e-05 0.104132)
(-4.58376e-05 -3.79451e-05 0.112262)
(4.8263e-06 -1.55152e-05 0.10746)
(-1.75251e-05 1.02876e-05 0.107498)
(-4.67569e-05 -5.57979e-05 0.104288)
(1.52608e-05 -1.04487e-05 0.112391)
(-3.42602e-05 6.26239e-06 0.107726)
(1.8341e-05 -4.32014e-05 0.107729)
(-4.87172e-05 -6.57652e-05 0.10441)
(7.50241e-05 7.14791e-05 0.112546)
(-1.56029e-05 2.60204e-05 0.107563)
(2.48832e-05 -1.90625e-05 0.107506)
(-2.67932e-05 -7.03951e-06 0.104211)
(-1.20185e-05 2.5794e-06 0.112267)
(7.45158e-05 -1.06078e-05 0.107224)
(-1.45888e-05 7.85356e-05 0.107194)
(4.03708e-06 1.34466e-05 0.104013)
(-0.000113985 -0.000116652 0.111944)
(7.06577e-05 -6.37253e-05 0.107314)
(-6.25708e-05 6.47536e-05 0.107288)
(-7.03394e-07 -4.40336e-06 0.104172)
(-7.85837e-05 -4.72716e-05 0.112001)
(-1.17614e-05 -9.38881e-06 0.107497)
(-2.34998e-05 -7.80565e-08 0.107528)
(-4.4615e-05 -3.32702e-05 0.104389)
(3.97998e-05 1.46506e-05 0.112196)
(-1.86679e-05 8.5215e-06 0.107514)
(2.45285e-05 -2.34552e-05 0.107572)
(-2.30196e-05 -6.07699e-05 0.104374)
(4.70216e-05 2.51692e-05 0.112211)
(1.00526e-05 7.97833e-06 0.107479)
(1.70306e-05 -7.74991e-06 0.107428)
(-4.33508e-05 -2.51025e-05 0.104226)
(-3.92979e-06 4.15931e-05 0.112072)
(9.70359e-06 2.50223e-05 0.107408)
(8.3292e-07 2.97148e-05 0.107432)
(-4.18545e-05 -1.89016e-05 0.104218)
(7.65192e-06 -4.07154e-05 0.112)
(-1.69256e-05 -3.46828e-05 0.10753)
(-1.13465e-05 -2.71988e-05 0.107538)
(-2.49914e-05 -6.68559e-05 0.104385)
(-2.06146e-05 -3.61487e-05 0.112168)
(-2.75347e-05 -8.69875e-06 0.107636)
(-7.38325e-06 -4.42409e-05 0.107479)
(-6.19247e-05 -2.65639e-05 0.104377)
(-3.25843e-05 4.40607e-05 0.112299)
(3.00566e-05 3.72046e-05 0.107384)
(7.53275e-06 4.64897e-05 0.107348)
(-2.45115e-05 1.07038e-05 0.104179)
(-4.19297e-05 -1.67573e-05 0.112034)
(7.34536e-05 -7.28623e-06 0.107153)
(-1.92885e-05 9.85021e-05 0.107314)
(2.80836e-05 -1.06233e-05 0.104132)
(-1.81358e-05 -6.69958e-05 0.111739)
(3.84481e-05 -5.3204e-05 0.10731)
(-3.47381e-05 3.38013e-05 0.107465)
(-4.89389e-06 -4.14193e-05 0.10433)
(3.20173e-07 -5.01468e-05 0.111766)
(-3.18971e-05 -3.04947e-05 0.107627)
(-1.07609e-05 -5.70927e-05 0.107602)
(-6.76582e-05 -5.70807e-05 0.104503)
(-2.69167e-06 1.49115e-05 0.112053)
(-4.21587e-05 4.38992e-05 0.107649)
(3.12338e-05 -3.98316e-05 0.107515)
(-6.99908e-05 -2.42782e-05 0.104405)
(-8.88651e-06 4.42573e-05 0.11217)
(1.59678e-05 5.05617e-05 0.107397)
(3.04568e-05 3.68801e-05 0.107369)
(-1.45855e-05 -4.88004e-06 0.104252)
(-3.33367e-05 -2.3204e-05 0.111964)
(4.23359e-05 -1.394e-05 0.107289)
(-1.67763e-05 5.75687e-05 0.107384)
(2.52498e-05 -1.16863e-05 0.104322)
(-4.06434e-05 -7.4711e-05 0.111902)
(0.00010147 -9.29196e-05 0.107669)
(-7.91117e-05 9.68597e-05 0.107762)
(5.72564e-05 2.86164e-05 0.104799)
(-6.55224e-05 -6.20453e-05 0.104276)
(-1.84944e-05 -2.46849e-05 0.10747)
(1.73209e-05 -2.65569e-05 0.107505)
(6.6693e-05 -5.53432e-05 0.104308)
(-2.43294e-05 -1.81029e-05 0.107467)
(-2.19648e-05 1.5382e-05 0.107481)
(3.22036e-05 -5.17345e-06 0.1075)
(2.10819e-05 2.02547e-05 0.10744)
(-5.239e-05 6.55361e-05 0.104285)
(-8.60621e-07 2.91653e-05 0.107475)
(1.72308e-05 2.16206e-05 0.107433)
(6.01623e-05 6.54589e-05 0.104249)
(9.02025e-07 6.57856e-06 0.104153)
(-6.14914e-05 -5.2685e-05 0.104216)
(-2.496e-05 -2.73447e-05 0.107436)
(1.94929e-05 -2.63044e-05 0.107464)
(-2.3877e-05 -3.29804e-05 0.107352)
(1.04389e-05 -2.24974e-05 0.107333)
(-1.97988e-06 1.47707e-05 0.104179)
(5.21179e-05 -5.12899e-05 0.104194)
(-2.9635e-05 -1.87964e-05 0.107432)
(-2.13427e-05 1.88282e-05 0.107434)
(-3.99173e-05 -9.96141e-06 0.10735)
(-2.23173e-05 1.43372e-05 0.107315)
(2.58083e-05 2.88086e-05 0.107409)
(2.68205e-05 -4.55268e-06 0.107338)
(3.74536e-05 2.89905e-05 0.107358)
(1.71088e-05 -2.83807e-06 0.104156)
(-5.20697e-05 5.19162e-05 0.104184)
(2.03578e-05 2.90098e-05 0.107403)
(-8.70384e-06 2.72453e-05 0.107323)
(1.55426e-05 4.54723e-05 0.107357)
(5.48971e-05 6.28729e-05 0.104225)
(1.27548e-05 1.98762e-05 0.10412)
(-1.9113e-05 -2.3572e-05 0.104342)
(-1.95489e-05 -3.20494e-05 0.107348)
(7.85404e-06 -2.24619e-05 0.107316)
(-3.29779e-06 -1.52092e-05 0.107423)
(7.10184e-06 -1.7131e-05 0.107389)
(-2.15998e-05 1.90886e-05 0.104094)
(2.13736e-05 -3.12329e-05 0.104317)
(-3.83818e-05 -7.48252e-06 0.107348)
(-2.47204e-05 1.31492e-05 0.107309)
(-1.56219e-05 -3.84164e-06 0.10743)
(-2.40604e-05 1.04647e-05 0.107415)
(3.64374e-05 2.34772e-05 0.107363)
(1.04825e-05 -1.88649e-05 0.107397)
(1.80368e-05 2.80683e-06 0.107449)
(1.72848e-05 -2.09581e-05 0.10409)
(-3.42746e-05 2.29922e-05 0.104343)
(1.24995e-05 4.34429e-05 0.107365)
(-2.38365e-05 1.6527e-05 0.107426)
(5.47579e-06 1.78771e-05 0.10746)
(2.61303e-05 1.99185e-05 0.104365)
(5.57456e-05 4.86413e-05 0.104268)
(-2.90752e-06 -2.22701e-05 0.104548)
(6.01094e-06 -7.26764e-06 0.107479)
(3.52074e-06 -1.17123e-05 0.107454)
(2.24813e-05 1.97089e-05 0.107677)
(-1.14833e-05 1.53501e-05 0.107686)
(-5.03409e-05 4.1037e-05 0.104248)
(1.05089e-05 -1.56337e-05 0.104566)
(-4.0266e-06 -1.92512e-06 0.107489)
(-1.84106e-05 3.54904e-06 0.107489)
(3.51055e-05 -5.13751e-06 0.107686)
(1.98381e-05 -2.24544e-05 0.107709)
(9.60689e-06 -8.52331e-06 0.107504)
(-2.19688e-05 -2.3598e-08 0.107685)
(-2.41258e-05 -3.10478e-05 0.107673)
(3.89488e-05 -4.97423e-05 0.104275)
(-1.16535e-05 6.59215e-06 0.10457)
(2.05317e-06 5.31911e-06 0.107517)
(1.00136e-05 -2.74615e-05 0.107706)
(-2.16034e-06 -4.12862e-05 0.107682)
(2.04803e-05 5.35391e-07 0.104535)
(6.31797e-05 4.60892e-05 0.104429)
(-6.02925e-05 -4.58165e-05 0.104427)
(2.07922e-05 3.05708e-05 0.107715)
(-1.51641e-05 2.88254e-05 0.10773)
(3.98679e-06 3.30495e-05 0.107653)
(-9.5073e-06 3.88372e-05 0.10766)
(-5.75945e-05 5.42089e-05 0.104448)
(5.48383e-05 -3.90822e-05 0.104428)
(4.55758e-05 -4.46046e-06 0.107721)
(3.7532e-05 -2.72093e-05 0.107735)
(2.8564e-05 1.42012e-05 0.107643)
(4.70613e-05 -1.14492e-05 0.107611)
(-3.75987e-05 -3.04133e-05 0.107693)
(-3.20428e-05 2.51204e-05 0.107648)
(-4.2144e-05 -7.03999e-06 0.107586)
(5.92275e-05 -6.2145e-05 0.104444)
(-3.68788e-05 5.42425e-05 0.10438)
(-5.09841e-06 -5.36807e-05 0.107697)
(2.8818e-05 -3.93126e-05 0.107597)
(-1.89595e-05 -3.73944e-05 0.107572)
(4.07118e-05 5.65808e-05 0.104368)
(5.23733e-06 2.35641e-05 0.104267)
(-7.64927e-05 -6.31967e-05 0.104112)
(-2.9445e-06 2.17158e-05 0.10757)
(4.73884e-07 2.81275e-05 0.107574)
(-1.33501e-05 -3.43084e-05 0.107254)
(2.74489e-05 -3.36191e-05 0.107272)
(-1.0487e-05 2.93355e-05 0.104264)
(8.27299e-05 -6.52849e-05 0.104127)
(1.02596e-05 1.8605e-05 0.107559)
(3.25472e-05 3.56049e-06 0.107519)
(-4.65276e-05 6.59605e-06 0.107249)
(-3.78327e-05 3.46926e-05 0.107234)
(-2.89739e-05 5.62428e-06 0.107503)
(5.25173e-05 4.68652e-06 0.107276)
(4.16037e-05 3.02185e-05 0.107247)
(2.98162e-05 -9.47496e-06 0.104218)
(-6.82335e-05 8.60507e-05 0.104104)
(-1.78141e-05 -1.72922e-05 0.107487)
(-1.38883e-06 5.73447e-05 0.107237)
(8.85198e-06 5.46884e-05 0.10724)
(6.84012e-05 8.26175e-05 0.104117)
(-6.58193e-06 2.03068e-06 0.103997)
(-6.27469e-05 -6.81569e-05 0.104169)
(-1.60996e-05 -5.71313e-05 0.107184)
(3.10715e-05 -6.02597e-05 0.107213)
(-4.13845e-05 -8.55847e-05 0.107184)
(3.06535e-05 -9.80842e-05 0.107236)
(1.2329e-05 -1.00616e-06 0.104016)
(5.32355e-05 -8.09217e-05 0.104222)
(-6.35286e-05 -5.74215e-06 0.107182)
(-6.36383e-05 3.58213e-05 0.107183)
(-8.08273e-05 -4.72441e-05 0.107183)
(-9.28832e-05 2.80224e-05 0.107209)
(6.98765e-05 3.39489e-05 0.107208)
(8.5257e-05 -5.85913e-05 0.107261)
(9.88443e-05 4.38168e-05 0.107269)
(-3.78655e-06 1.53274e-05 0.103999)
(-7.79683e-05 4.98292e-05 0.104205)
(2.27236e-05 7.75482e-05 0.107205)
(-5.59993e-05 8.03573e-05 0.107235)
(5.02267e-05 9.46156e-05 0.107269)
(7.10841e-05 6.50638e-05 0.104238)
(3.89297e-06 9.20891e-07 0.104107)
(-4.75245e-05 -3.25763e-05 0.104468)
(-5.01169e-05 -7.79184e-05 0.107241)
(2.50552e-05 -9.08835e-05 0.10729)
(-4.30823e-05 -2.40383e-05 0.107469)
(1.15109e-06 -2.39888e-05 0.10746)
(-1.83031e-05 -1.1955e-05 0.104154)
(2.72853e-05 -4.00174e-05 0.104447)
(-7.61254e-05 -5.0576e-05 0.107238)
(-8.51512e-05 2.36641e-05 0.107262)
(-3.82353e-05 -1.89337e-05 0.107469)
(-3.00915e-05 1.18178e-05 0.107465)
(8.52111e-05 4.51001e-05 0.107328)
(6.61515e-06 -2.83954e-05 0.107467)
(1.27081e-05 2.93289e-05 0.107505)
(-9.50043e-06 -2.13765e-05 0.104139)
(-4.49001e-05 3.07851e-05 0.104464)
(4.61446e-05 8.34901e-05 0.107326)
(-4.00544e-05 1.22765e-05 0.107474)
(5.96945e-06 2.74547e-05 0.107508)
(2.75993e-05 4.19485e-05 0.104482)
(2.82182e-05 4.02339e-05 0.104387)
(-1.0303e-05 -4.30511e-05 0.104536)
(-2.81018e-05 -5.09057e-06 0.107534)
(-1.85721e-06 3.26978e-06 0.107497)
(2.86365e-05 1.76144e-05 0.107605)
(4.90414e-06 3.81482e-05 0.107527)
(-4.25263e-05 3.71853e-05 0.104353)
(3.96462e-05 -1.96012e-05 0.104463)
(-1.88218e-05 -7.5621e-06 0.107539)
(-8.95027e-06 1.07345e-05 0.107527)
(3.55758e-05 -6.23927e-06 0.107624)
(3.03301e-05 -1.08909e-06 0.107599)
(-7.66782e-06 1.69513e-05 0.107544)
(-2.61181e-05 1.44952e-05 0.107516)
(-1.92133e-05 -3.10921e-05 0.107562)
(3.12802e-05 -3.79909e-05 0.104379)
(-1.93972e-05 3.83378e-05 0.104518)
(-2.18199e-06 5.94788e-06 0.107552)
(1.87104e-05 -2.05666e-05 0.107587)
(5.75365e-06 -3.99052e-05 0.107581)
(4.55551e-05 1.11706e-05 0.104497)
(6.2036e-05 2.53191e-05 0.104416)
(-3.86595e-05 -3.64006e-05 0.104413)
(3.92835e-05 1.27137e-05 0.107596)
(7.69053e-06 2.89439e-05 0.107524)
(1.89206e-05 6.32274e-06 0.107515)
(9.54219e-06 -5.19848e-06 0.107504)
(-2.8202e-05 4.59753e-05 0.104351)
(4.93072e-05 -4.40386e-05 0.104422)
(4.14347e-05 -1.05016e-05 0.107613)
(3.21035e-05 -8.85497e-06 0.107584)
(1.83178e-05 6.4266e-06 0.107508)
(2.16584e-05 -8.45646e-06 0.107473)
(-1.40195e-05 -4.19331e-05 0.107543)
(5.3816e-06 -1.06957e-06 0.107494)
(-1.74499e-05 -2.06733e-05 0.107434)
(5.06588e-05 -3.35121e-05 0.104397)
(-2.91898e-05 3.8701e-05 0.104375)
(8.14606e-06 -4.44204e-05 0.107558)
(2.09495e-05 -1.80036e-05 0.107461)
(-1.24703e-05 -2.62406e-05 0.107426)
(3.00767e-05 3.6536e-05 0.104344)
(2.4345e-05 3.96198e-05 0.104289)
(-4.90588e-05 -1.53972e-05 0.104304)
(2.35957e-06 1.15825e-05 0.107478)
(8.42683e-06 -6.20605e-06 0.10749)
(-1.43181e-05 1.91804e-05 0.107366)
(1.54783e-06 6.51099e-06 0.107415)
(-2.02851e-05 2.81371e-05 0.104309)
(3.79053e-05 -2.09782e-05 0.104348)
(5.16631e-06 2.07777e-05 0.107464)
(1.47498e-05 1.99679e-06 0.107438)
(-1.26168e-05 3.57885e-05 0.10736)
(-9.96079e-06 2.54607e-05 0.107406)
(-2.10705e-05 -1.03555e-06 0.107397)
(1.3169e-05 3.00651e-05 0.107415)
(-6.40063e-06 3.29223e-05 0.107351)
(3.90679e-05 -2.78133e-05 0.104256)
(-3.52636e-05 5.01193e-05 0.104353)
(-2.17636e-05 -1.1768e-05 0.107384)
(4.37082e-06 2.75642e-05 0.107408)
(-1.58368e-05 2.4371e-05 0.107348)
(2.22768e-05 5.50863e-05 0.104304)
(2.61612e-05 4.94347e-05 0.104201)
(-8.23668e-07 -4.43826e-05 0.104365)
(-6.29659e-06 1.41216e-05 0.107346)
(-3.84012e-07 7.65057e-06 0.107399)
(2.49354e-05 -7.40456e-06 0.107375)
(-1.9241e-05 -7.49463e-06 0.107441)
(-3.55652e-05 4.77945e-05 0.104243)
(2.22256e-06 -4.28474e-05 0.104428)
(-7.19731e-06 2.4388e-05 0.107349)
(-1.42081e-05 2.17347e-05 0.107421)
(2.1759e-05 -2.57258e-05 0.107386)
(-1.07076e-05 -3.33871e-05 0.107484)
(4.58371e-06 2.77814e-05 0.107369)
(-9.97477e-06 -1.93883e-05 0.107476)
(2.68853e-05 -2.09398e-05 0.1075)
(3.35775e-05 -2.30231e-05 0.104262)
(-3.97319e-05 -2.13695e-06 0.104459)
(-1.99846e-06 2.53257e-05 0.107374)
(-7.24582e-06 -6.67925e-06 0.107519)
(2.96781e-05 -8.958e-07 0.107512)
(4.75393e-05 5.27113e-06 0.104474)
(6.60281e-05 2.27327e-05 0.104284)
(-4.77357e-05 -2.5798e-05 0.104538)
(2.35892e-05 -1.14629e-05 0.107425)
(-2.89428e-05 -1.50929e-05 0.107494)
(-1.85754e-05 2.81676e-07 0.107605)
(-3.32148e-05 -4.45923e-06 0.107634)
(-7.07364e-05 2.23085e-05 0.104345)
(1.57298e-05 -4.52709e-05 0.104555)
(2.40589e-05 -3.48311e-05 0.107428)
(-5.7943e-06 -5.27656e-05 0.107504)
(-9.8799e-07 -1.07691e-05 0.107575)
(1.79073e-05 -4.78092e-05 0.107502)
(2.28029e-05 -3.15201e-05 0.107556)
(-3.26915e-05 -2.72739e-05 0.107639)
(-2.84563e-05 -1.55244e-05 0.107615)
(2.96451e-05 -7.87616e-05 0.104355)
(-3.96901e-05 8.76444e-06 0.10443)
(2.61236e-05 -1.16568e-05 0.107559)
(-1.2784e-05 -5.59749e-05 0.107505)
(-2.61703e-05 -2.64285e-05 0.107583)
(1.10563e-05 3.5159e-05 0.104509)
(1.4225e-05 4.76168e-05 0.104431)
(-8.10866e-05 -3.91739e-05 0.104472)
(-3.06265e-05 8.99127e-06 0.107647)
(-2.33453e-05 5.87047e-06 0.107647)
(-3.61701e-05 2.55785e-06 0.107598)
(1.87714e-05 1.33964e-05 0.107508)
(-4.52915e-05 2.99972e-05 0.104432)
(8.36393e-05 -2.94122e-05 0.104374)
(-1.09765e-05 8.33144e-06 0.10761)
(2.12272e-05 -2.54115e-05 0.107492)
(-3.49984e-05 3.22923e-05 0.107578)
(4.1139e-06 4.54596e-05 0.107418)
(-4.05225e-05 -3.65596e-07 0.107593)
(1.34706e-05 3.59602e-05 0.107467)
(-2.33738e-05 3.46074e-05 0.107413)
(3.10169e-05 -4.80527e-05 0.104307)
(-3.73709e-05 9.17881e-05 0.104324)
(-4.21551e-05 -1.97443e-05 0.107556)
(8.53018e-06 2.30322e-05 0.107376)
(-3.69189e-05 1.68846e-05 0.107396)
(3.37853e-05 7.87626e-05 0.104312)
(-9.75937e-06 2.25998e-05 0.104332)
(-5.5555e-05 -8.80924e-05 0.104273)
(-3.19399e-05 -1.38933e-05 0.107538)
(3.35341e-05 4.77062e-06 0.107424)
(-3.94656e-06 -6.01744e-05 0.107304)
(5.43089e-05 -3.22649e-05 0.107182)
(2.01799e-05 3.71212e-05 0.104228)
(9.00634e-05 -5.36671e-05 0.104171)
(-4.34014e-05 2.19606e-05 0.107531)
(-1.06754e-05 6.25134e-05 0.107388)
(-5.29153e-05 -2.35356e-05 0.10733)
(-6.00974e-05 7.30651e-05 0.107307)
(-2.22954e-06 3.89825e-05 0.107344)
(6.75032e-05 9.85982e-06 0.107168)
(6.63951e-05 2.74615e-05 0.107201)
(2.70615e-05 3.07948e-05 0.104205)
(-6.33039e-05 9.79006e-05 0.104288)
(-1.74154e-05 3.05536e-05 0.107341)
(-1.05311e-05 9.51877e-05 0.107295)
(4.63472e-05 6.037e-05 0.107233)
(9.28653e-05 6.05079e-05 0.104216)
(1.78489e-05 -2.07238e-05 0.104167)
(-2.40739e-05 -6.58803e-05 0.104304)
(4.21129e-06 -6.68675e-05 0.107257)
(5.41128e-05 -4.54829e-05 0.107156)
(8.83007e-06 -5.23541e-05 0.107226)
(3.5223e-05 -5.69384e-05 0.107206)
(1.86038e-05 8.01934e-06 0.104078)
(4.04614e-05 -6.57639e-05 0.104308)
(-4.90881e-05 -3.52394e-05 0.10729)
(-7.16057e-05 6.48258e-05 0.107313)
(-2.0577e-05 -4.99378e-05 0.107257)
(-6.08989e-05 2.11609e-05 0.107378)
(8.19177e-05 2.24783e-05 0.107208)
(5.32324e-05 -4.82533e-05 0.107234)
(7.68676e-05 7.96867e-06 0.10732)
(1.45234e-06 2.33293e-05 0.104202)
(-6.20672e-05 3.65302e-05 0.104436)
(6.12898e-05 6.43837e-05 0.107246)
(-3.53262e-05 5.70789e-05 0.10741)
(6.65097e-05 4.49445e-05 0.107356)
(7.19748e-05 3.03531e-05 0.104395)
(4.45641e-05 7.67146e-06 0.104231)
(-2.1081e-05 -1.98893e-05 0.104513)
(7.51341e-06 -4.07176e-05 0.107264)
(2.2794e-05 -5.26622e-05 0.107275)
(6.33365e-07 2.92446e-06 0.107428)
(-2.67157e-05 -2.32605e-05 0.107512)
(-3.41928e-05 3.41724e-06 0.104251)
(-7.90183e-06 -4.19214e-05 0.104607)
(-1.00216e-05 -4.673e-05 0.10729)
(-4.75825e-05 2.72742e-06 0.107426)
(1.61611e-05 -1.89431e-05 0.107426)
(1.13601e-07 -5.00361e-05 0.107539)
(6.1468e-05 5.22902e-07 0.107392)
(-1.51639e-05 -4.23818e-05 0.107547)
(-7.44587e-06 -2.17461e-05 0.107569)
(1.04122e-05 -4.12514e-05 0.104362)
(-3.48757e-05 -1.48589e-05 0.104595)
(5.49782e-05 3.096e-05 0.107422)
(-1.9456e-05 -3.8689e-05 0.107575)
(-2.39204e-06 -2.04493e-05 0.107568)
(9.19763e-06 1.13823e-05 0.104606)
(4.35388e-05 5.27621e-05 0.104438)
(-5.08792e-05 -3.98185e-06 0.104633)
(-6.4804e-06 1.43003e-05 0.107511)
(-3.74862e-05 -8.47953e-06 0.107602)
(-2.34016e-05 3.65089e-05 0.10765)
(-3.09634e-05 4.09177e-05 0.107685)
(-7.8812e-05 3.34815e-05 0.104523)
(2.45395e-05 -6.00247e-06 0.104643)
(1.79128e-05 -7.93931e-06 0.1075)
(1.70107e-05 -5.651e-05 0.107576)
(1.05901e-05 2.68968e-05 0.107616)
(4.79201e-05 -2.55767e-05 0.107555)
(-3.25648e-05 -2.25199e-05 0.107615)
(-4.96375e-05 2.52151e-05 0.107665)
(-7.1278e-05 -5.3155e-06 0.107571)
(3.98171e-05 -8.4447e-05 0.10449)
(-1.20565e-05 3.01836e-05 0.104534)
(-2.24248e-05 -3.58178e-05 0.107603)
(2.05099e-05 -5.55905e-05 0.107537)
(-5.58205e-05 -4.49302e-05 0.107538)
(-6.06166e-06 4.01113e-05 0.104534)
(1.58871e-05 6.26647e-05 0.104521)
(-5.20174e-05 -3.37299e-05 0.104502)
(-2.08723e-05 3.73646e-05 0.107678)
(-2.05461e-05 5.01214e-05 0.107682)
(-1.0272e-05 7.68211e-06 0.107566)
(2.27905e-05 3.53283e-05 0.107486)
(-3.66691e-05 6.65379e-05 0.104511)
(7.17691e-05 -7.80077e-06 0.104408)
(6.32759e-06 3.67288e-05 0.107644)
(4.85332e-05 -7.75072e-06 0.107547)
(-1.52444e-05 2.88207e-05 0.107553)
(1.89131e-05 4.46831e-05 0.107416)
(-6.79532e-05 9.7079e-07 0.107544)
(5.35042e-06 5.51009e-05 0.107441)
(-1.45552e-05 2.29493e-05 0.107366)
(5.74645e-05 -2.81465e-05 0.10441)
(-1.67586e-05 8.19244e-05 0.104375)
(-5.58752e-05 -3.69472e-05 0.107512)
(3.37328e-05 2.30485e-05 0.107374)
(-1.53434e-05 7.95266e-06 0.107355)
(3.94011e-05 5.73974e-05 0.104347)
(1.32725e-05 2.35968e-05 0.10439)
(-2.82088e-05 -5.96133e-05 0.104344)
(-2.29897e-06 -4.10492e-06 0.107532)
(2.83576e-05 2.56278e-05 0.107435)
(1.57425e-06 -4.47196e-05 0.107355)
(3.81609e-05 -2.90869e-05 0.107265)
(1.07211e-05 5.0096e-05 0.104292)
(5.25219e-05 -4.40577e-05 0.104268)
(-1.848e-05 2.19529e-05 0.107529)
(7.20192e-06 4.82957e-05 0.107403)
(-3.39968e-05 -2.27969e-05 0.107377)
(-4.81317e-05 4.71255e-05 0.107336)
(4.23444e-06 2.08609e-05 0.107348)
(4.98126e-05 -6.07896e-06 0.10726)
(6.57347e-05 2.12706e-05 0.107293)
(4.02796e-05 2.13836e-05 0.104281)
(-4.675e-05 5.5243e-05 0.104338)
(-1.71422e-06 1.90379e-05 0.107348)
(-1.46704e-05 6.94009e-05 0.107333)
(4.87016e-05 5.36767e-05 0.107316)
(7.01706e-05 3.61096e-05 0.10432)
(1.9415e-05 -1.48637e-05 0.104329)
(-4.01661e-05 -7.06258e-05 0.104347)
(1.2462e-05 -4.1196e-05 0.107361)
(2.43863e-05 -3.29518e-05 0.107284)
(-3.13876e-05 -9.05879e-05 0.107392)
(4.72656e-05 -9.89779e-05 0.107364)
(3.08264e-06 -4.41452e-06 0.104261)
(4.29458e-05 -7.72769e-05 0.104335)
(-2.45378e-05 -2.33581e-05 0.107388)
(-4.81977e-05 2.79595e-05 0.107378)
(-6.5264e-05 -7.62114e-05 0.107419)
(-9.72416e-05 3.58653e-05 0.10747)
(6.43453e-05 7.48912e-06 0.107342)
(8.01173e-05 -8.37005e-05 0.107389)
(0.000104134 3.17319e-05 0.107463)
(-5.06806e-06 4.06885e-06 0.104338)
(-7.01176e-05 3.65613e-05 0.104413)
(4.57285e-05 4.50702e-05 0.10737)
(-7.106e-05 7.96886e-05 0.107495)
(7.84298e-05 7.79251e-05 0.10749)
(6.93795e-05 3.73434e-05 0.104411)
(-3.28405e-05 -5.96821e-05 0.104733)
(-4.5265e-05 -0.000112291 0.107664)
(5.52118e-05 -0.000122413 0.107648)
(3.35522e-05 -6.72299e-05 0.104729)
(-8.88881e-05 -8.38174e-05 0.107685)
(-0.000116331 4.23079e-05 0.107741)
(7.88106e-05 -8.42771e-05 0.111841)
(-7.41776e-05 7.05675e-05 0.111979)
(9.7537e-05 6.19551e-05 0.111962)
(0.000120868 4.11196e-05 0.107739)
(-5.96275e-05 2.65768e-05 0.1048)
(8.19902e-05 9.68658e-05 0.107759)
(-3.30794e-06 -3.6111e-05 0.0913965)
(-1.38589e-06 -1.96873e-05 0.0822555)
(4.95026e-06 -7.73366e-06 0.07158)
(-3.7304e-05 -7.89568e-07 0.091395)
(-2.02837e-05 3.08433e-07 0.0822582)
(-3.47773e-06 -1.38636e-05 0.112452)
(1.52992e-05 -1.54048e-05 0.112479)
(-4.15692e-06 5.62598e-06 0.112471)
(7.09533e-06 -2.01739e-06 0.112427)
(4.28075e-05 8.03821e-06 0.0985684)
(2.25976e-05 -1.48124e-05 0.107541)
(3.97501e-05 -7.11519e-06 0.0930437)
(2.11691e-05 -1.54998e-05 0.109947)
(-8.56596e-06 4.9478e-06 0.0716019)
(7.48011e-06 4.39671e-05 0.0985607)
(-8.64754e-06 2.05062e-05 0.107534)
(-6.09138e-06 1.6877e-05 0.109943)
(-9.72969e-06 4.08336e-05 0.0930418)
(5.16401e-05 4.91255e-05 0.104295)
(2.30472e-05 1.56199e-05 0.0875867)
(1.41417e-05 2.40022e-05 0.0875842)
(7.24187e-06 -3.34888e-05 0.0915009)
(4.12003e-06 -1.38687e-05 0.0823691)
(2.95549e-06 -3.26726e-05 0.0914187)
(2.61791e-06 -2.07442e-05 0.082493)
(2.93726e-06 -4.61163e-06 0.0717351)
(6.98775e-06 -6.82871e-06 0.0718673)
(-3.15696e-05 7.31002e-06 0.0915024)
(-1.25678e-05 3.73191e-06 0.082373)
(-3.17568e-05 5.90357e-06 0.0914214)
(-1.85996e-05 2.7082e-07 0.0824977)
(1.2828e-05 -5.0327e-06 0.112458)
(4.53307e-06 5.18997e-06 0.112437)
(1.02559e-05 5.87351e-06 0.112399)
(-2.93035e-05 -1.80807e-05 0.112334)
(1.50836e-05 3.12578e-07 0.112339)
(-1.81377e-06 1.96779e-05 0.112304)
(2.82735e-05 4.21939e-05 0.112321)
(5.59277e-05 -2.01561e-06 0.0985378)
(3.54894e-05 -1.55745e-05 0.093036)
(2.64089e-05 1.35327e-05 0.109874)
(3.42884e-05 -1.57036e-06 0.107413)
(3.94759e-05 6.95343e-06 0.0984944)
(4.32261e-05 -2.54563e-05 0.0931235)
(2.63117e-05 1.90136e-05 0.109832)
(-4.94731e-06 1.49393e-06 0.0717533)
(-7.34089e-06 4.19868e-06 0.0718785)
(-6.86211e-06 5.23269e-05 0.0985338)
(1.54407e-05 2.22359e-05 0.109847)
(-1.76382e-05 3.25775e-05 0.0930365)
(-6.12354e-07 3.05995e-05 0.107383)
(1.82158e-06 3.80696e-05 0.0984864)
(1.61784e-05 2.34967e-05 0.109803)
(-2.5582e-05 3.8542e-05 0.0931236)
(1.87093e-05 5.96812e-06 0.0876495)
(5.8228e-06 1.79811e-05 0.0876465)
(6.31095e-05 7.38989e-05 0.104217)
(1.66218e-05 6.99488e-06 0.0877387)
(8.964e-06 1.42933e-05 0.0877338)
(4.45583e-06 2.07969e-05 0.0916089)
(1.50338e-06 9.05281e-06 0.0825128)
(8.249e-06 1.22706e-05 0.0915487)
(-3.37739e-06 8.45845e-06 0.0825169)
(2.32016e-06 6.40681e-06 0.0718605)
(5.28125e-06 5.98305e-06 0.0718239)
(2.27548e-05 -2.75414e-06 0.0916087)
(1.10721e-05 -2.83715e-06 0.0825142)
(1.41505e-05 2.56794e-06 0.0915495)
(9.45278e-06 -6.91429e-06 0.082517)
(1.76153e-05 -6.34097e-06 0.112297)
(-1.29682e-05 2.6245e-05 0.11227)
(3.19323e-05 4.89598e-05 0.112309)
(-4.62215e-05 -3.36384e-05 0.112263)
(3.45121e-05 -3.89617e-05 0.112231)
(-5.29195e-05 4.83643e-05 0.112246)
(3.8881e-05 5.16927e-05 0.112295)
(1.76934e-06 -1.28475e-05 0.0986421)
(-1.18717e-05 -1.07646e-05 0.0931538)
(3.40359e-05 6.00649e-06 0.109727)
(1.84237e-05 -1.45499e-05 0.107329)
(-1.80241e-07 -1.45144e-05 0.0985399)
(-1.32721e-05 -2.82246e-06 0.0932314)
(3.67107e-05 -2.85168e-06 0.109722)
(6.28801e-06 -5.77658e-07 0.0718447)
(6.98227e-06 3.41718e-06 0.0717987)
(-7.8503e-06 1.04636e-06 0.0986492)
(-5.46249e-06 3.89583e-05 0.109719)
(-6.82257e-06 -1.31162e-05 0.0931522)
(-2.15009e-05 2.26454e-05 0.107336)
(-1.31455e-05 -1.35078e-06 0.0985417)
(-1.42753e-05 4.28783e-05 0.109726)
(2.9696e-06 -1.39914e-05 0.0932288)
(-1.3425e-05 -1.02663e-05 0.0877544)
(-5.49401e-06 -1.77845e-05 0.0877485)
(3.96996e-05 4.12386e-05 0.10427)
(-2.07661e-05 -7.87378e-06 0.0877819)
(-3.28551e-06 -2.491e-05 0.0877755)
(-8.1819e-06 2.8188e-05 0.0915634)
(-4.55498e-06 3.34564e-05 0.0823139)
(-4.06605e-06 5.20809e-05 0.0915791)
(-4.62705e-06 1.34708e-05 0.0822363)
(-2.41631e-06 1.55161e-05 0.0715472)
(-2.19644e-06 3.27419e-06 0.0714559)
(2.62432e-05 -9.53668e-06 0.0915579)
(3.17424e-05 -3.94822e-06 0.0823063)
(5.21306e-05 -1.0189e-05 0.0915775)
(9.98605e-06 -3.56251e-07 0.0822285)
(4.08304e-05 -4.85249e-05 0.11223)
(-6.12183e-05 5.25433e-05 0.112258)
(4.04016e-05 4.74937e-05 0.112296)
(-6.09775e-06 -2.45012e-05 0.112339)
(1.75973e-05 -3.43039e-05 0.112318)
(-2.76944e-05 8.48182e-06 0.112365)
(1.33182e-05 -8.2763e-06 0.112358)
(-3.64771e-05 2.96085e-06 0.0988233)
(-6.14696e-05 2.61026e-05 0.0932079)
(3.22888e-05 -2.06235e-05 0.109804)
(-1.99205e-06 -1.01574e-05 0.107537)
(-5.45211e-05 -4.11892e-06 0.0987168)
(-3.43071e-05 2.181e-05 0.0932261)
(2.6151e-05 -2.23233e-05 0.10986)
(1.58966e-05 -8.65571e-07 0.071509)
(4.22808e-06 1.4517e-06 0.0714342)
(1.4221e-05 -3.42739e-05 0.0988295)
(-2.22264e-05 3.96394e-05 0.109839)
(3.04716e-05 -5.96354e-05 0.0932036)
(-8.57771e-06 1.80369e-06 0.107577)
(6.64439e-06 -5.416e-05 0.0987292)
(-1.63952e-05 3.11382e-05 0.1099)
(2.29286e-05 -2.95457e-05 0.0932136)
(-3.62493e-05 -1.56546e-05 0.0876729)
(-1.31032e-05 -3.66201e-05 0.0876702)
(1.77746e-05 5.22836e-07 0.104481)
(-1.53583e-05 -1.41103e-06 0.087635)
(-2.48529e-06 -1.21121e-05 0.0876358)
(-4.71291e-06 -3.73474e-05 0.0914408)
(2.09951e-07 4.02226e-06 0.0821237)
(-7.75449e-06 -1.85557e-06 0.091442)
(-3.15772e-07 -2.00251e-05 0.0821975)
(-9.13276e-06 -2.66355e-06 0.0713837)
(-5.75865e-06 -1.32446e-05 0.0714941)
(-3.82352e-05 9.50112e-06 0.0914315)
(-5.92386e-07 9.88451e-06 0.0821161)
(-3.40481e-06 2.24394e-06 0.0914342)
(-2.33284e-05 1.03058e-05 0.0821932)
(-2.97199e-06 -1.60667e-05 0.112376)
(-1.01738e-06 -2.04758e-05 0.112415)
(-5.99271e-06 -3.46154e-05 0.112394)
(6.84249e-05 5.30743e-05 0.112532)
(-6.68447e-05 5.95007e-05 0.112528)
(7.88852e-05 -8.64926e-05 0.11251)
(-7.04897e-05 -8.66361e-05 0.112471)
(2.13163e-05 1.37168e-05 0.098715)
(-6.68566e-06 1.5929e-05 0.0930822)
(-2.54689e-05 -1.46898e-05 0.110061)
(-4.11288e-05 1.32015e-05 0.107734)
(-2.46777e-05 1.25964e-05 0.0987439)
(3.57321e-05 1.89197e-07 0.0930816)
(-4.91281e-05 -8.6849e-06 0.110095)
(-1.49464e-06 -4.55762e-06 0.0713836)
(-1.22473e-05 -2.13951e-06 0.0715076)
(3.98182e-06 2.00487e-05 0.0986938)
(7.79803e-06 -3.80171e-05 0.110078)
(1.07437e-05 -7.09412e-06 0.0930655)
(2.45412e-05 -5.14842e-05 0.107716)
(1.24127e-05 -2.45955e-05 0.0987309)
(1.12191e-05 -6.37385e-05 0.110092)
(-7.09571e-06 3.28243e-05 0.0930652)
(9.08269e-06 4.6466e-06 0.08754)
(-5.2535e-06 1.67124e-05 0.0875463)
(3.17912e-05 2.66431e-05 0.104495)
(2.93185e-05 1.66579e-05 0.087582)
(3.59897e-06 3.76915e-05 0.0875873)
(-1.39533e-06 -4.63252e-05 0.0915048)
(7.96663e-07 -1.93515e-05 0.0823376)
(-1.4374e-06 -4.30113e-05 0.091423)
(-2.9165e-06 -2.60994e-05 0.0824984)
(-5.98391e-06 -8.84718e-06 0.0716714)
(2.28831e-06 -9.10638e-06 0.0718162)
(-4.73152e-05 5.554e-06 0.0915051)
(-2.00776e-05 6.69645e-06 0.0823344)
(-4.33721e-05 1.11047e-05 0.0914201)
(-2.57919e-05 -1.81704e-06 0.0824979)
(-7.40975e-05 7.91295e-05 0.112547)
(9.20324e-05 -8.66028e-05 0.11251)
(-8.19131e-05 -8.56525e-05 0.112472)
(2.17333e-05 3.95713e-05 0.112379)
(-2.11555e-07 4.31165e-05 0.112416)
(3.7226e-05 6.90199e-06 0.112351)
(-1.85645e-05 6.25457e-07 0.112332)
(6.2919e-05 7.38402e-06 0.0985159)
(4.18467e-05 -6.47128e-06 0.0930212)
(-6.33338e-05 1.96804e-05 0.109999)
(5.68035e-06 2.24239e-05 0.107461)
(3.38654e-05 1.14539e-05 0.0985212)
(5.63006e-05 -1.44375e-05 0.0931019)
(-4.77576e-05 2.83679e-05 0.109911)
(-8.04057e-06 -4.19539e-06 0.0716857)
(-9.1462e-06 3.11972e-06 0.0718368)
(-6.89108e-06 6.39005e-05 0.0985065)
(1.47746e-05 -6.95676e-05 0.109948)
(-1.19611e-05 3.86293e-05 0.0930164)
(1.77867e-05 5.79078e-06 0.107405)
(-6.18297e-06 3.36119e-05 0.0985021)
(1.63989e-05 -4.8824e-05 0.109855)
(-1.85538e-05 5.46962e-05 0.0931049)
(2.88697e-05 1.10177e-05 0.0876365)
(7.77776e-07 3.40685e-05 0.0876386)
(5.37211e-05 7.85088e-05 0.104207)
(2.59989e-05 1.31501e-05 0.0877437)
(8.94309e-06 2.7835e-05 0.0877436)
(-1.67066e-06 -1.196e-05 0.0916699)
(-3.12272e-06 -3.67659e-07 0.0825907)
(-2.6177e-06 -8.90474e-06 0.0915806)
(-4.50888e-06 -6.58707e-06 0.0826517)
(7.15656e-06 6.05208e-06 0.0718601)
(1.59403e-05 4.28579e-06 0.0719012)
(-1.22008e-05 -5.63534e-06 0.0916735)
(1.39346e-06 -7.76849e-06 0.0825942)
(-1.05472e-05 -4.37957e-06 0.091586)
(-4.30934e-06 -1.03724e-05 0.0826603)
(4.10022e-05 3.83105e-06 0.112322)
(-2.26031e-06 4.84715e-05 0.112258)
(2.58019e-05 4.24391e-05 0.112254)
(-0.000100473 -0.00010369 0.111988)
(0.000116787 -0.000111304 0.112078)
(-0.000106545 0.000113066 0.112026)
(0.000127747 0.000125853 0.112076)
(5.02187e-05 -1.4621e-05 0.0986339)
(1.0567e-05 -1.40095e-05 0.093164)
(5.24292e-05 2.13434e-05 0.109621)
(8.85365e-05 -2.82924e-05 0.107207)
(2.95722e-05 -6.66383e-06 0.0985108)
(2.00833e-05 -2.39775e-05 0.0932741)
(9.70804e-05 7.82236e-06 0.109567)
(4.53251e-06 6.56646e-06 0.0718873)
(2.44458e-06 1.39846e-05 0.0719369)
(-1.21937e-05 5.12864e-05 0.0986346)
(1.22789e-05 5.96149e-05 0.109583)
(-1.6345e-05 1.27828e-05 0.093176)
(-2.91717e-05 8.97508e-05 0.107182)
(-8.69618e-06 3.24113e-05 0.0985122)
(4.95997e-06 0.000101476 0.109537)
(-2.53118e-05 2.1374e-05 0.0932851)
(-4.27231e-07 -1.22184e-06 0.0878055)
(4.54836e-06 -2.52541e-06 0.0878077)
(7.52735e-05 7.2879e-05 0.104136)
(2.79263e-07 5.01243e-06 0.0878755)
(1.28563e-05 -3.33548e-06 0.0878781)
(9.43145e-06 -4.88395e-06 0.0917812)
(7.6324e-07 1.08918e-05 0.0826058)
(3.6248e-06 6.94851e-06 0.0917264)
(2.31395e-06 -3.53874e-06 0.0826229)
(1.54421e-05 1.04085e-05 0.0718657)
(1.59103e-05 1.79586e-06 0.0719129)
(1.90805e-07 3.96104e-06 0.0917812)
(1.466e-05 -5.27835e-06 0.0826152)
(1.08148e-05 1.10341e-07 0.0917268)
(1.88623e-06 -4.99901e-06 0.0826279)
(0.00011306 -0.000125968 0.112034)
(-0.00012025 0.000108211 0.111985)
(0.0001304 0.000128655 0.11205)
(-0.000100012 -7.55655e-05 0.111955)
(3.79128e-05 -7.75117e-05 0.111996)
(-9.21551e-05 5.29097e-05 0.111973)
(5.34055e-05 7.88643e-05 0.112046)
(2.56857e-05 -1.09486e-05 0.0988588)
(-9.17688e-06 -1.71542e-05 0.0933262)
(0.000136699 -3.02688e-05 0.109604)
(5.05009e-05 -5.91503e-05 0.107371)
(1.63617e-05 -1.58219e-05 0.0987439)
(7.93402e-06 -1.81124e-05 0.0934036)
(0.000114593 -3.22578e-05 0.109649)
(9.28578e-06 1.10432e-05 0.0718805)
(1.29957e-06 1.05357e-05 0.0719043)
(-1.42172e-05 2.02567e-05 0.098856)
(-2.99314e-05 0.00013059 0.109579)
(-1.53826e-05 -1.39063e-05 0.0933321)
(-6.16073e-05 4.59314e-05 0.107348)
(-1.62358e-05 1.20844e-05 0.0987378)
(-3.92168e-05 0.000109998 0.109626)
(-1.30774e-05 1.52523e-06 0.0934074)
(-9.96709e-06 -1.01155e-06 0.0878883)