/*--------------------------------*- C++ -*----------------------------------*\
| =========                 |                                                 |
| \\      /  F ield         | OpenFOAM: The Open Source CFD Toolbox           |
|  \\    /   O peration     | Version:  v1906                                 |
|   \\  /    A nd           | Web:      www.OpenFOAM.com                      |
|    \\/     M anipulation  |                                                 |
\*---------------------------------------------------------------------------*/
FoamFile
{
    version     2.0;
    format      ascii;
    class       volVectorField;
    location    "750";
    object      U;
}
// * * * * * * * * * * * * * * * * * * * * * * * * * * * * * * * * * * * * * //

dimensions      [0 1 -1 0 0 0 0];


internalField   nonuniform List<vector> 
43248
(
(6.08093e-05 6.08449e-05 0.108928)
(-9.73484e-05 5.98153e-05 0.107975)
(5.98082e-05 -9.73455e-05 0.107974)
(-0.000158441 -0.000158489 0.106621)
(5.93586e-05 5.93797e-05 0.109226)
(-9.49567e-05 5.88175e-05 0.108152)
(5.87619e-05 -9.49511e-05 0.108152)
(-0.000154073 -0.000154137 0.106644)
(5.78859e-05 5.78978e-05 0.109515)
(-9.25375e-05 5.78109e-05 0.108311)
(5.77747e-05 -9.25215e-05 0.108311)
(-0.000149384 -0.000149418 0.106643)
(5.63703e-05 5.63849e-05 0.109794)
(-8.99047e-05 5.67299e-05 0.108451)
(5.66988e-05 -8.98947e-05 0.108451)
(-0.000144264 -0.000144284 0.106619)
(5.49009e-05 5.49176e-05 0.110064)
(-8.70762e-05 5.55214e-05 0.108572)
(5.54936e-05 -8.7069e-05 0.108572)
(-0.000138806 -0.000138825 0.106575)
(5.35073e-05 5.35239e-05 0.110324)
(-8.40888e-05 5.41397e-05 0.108675)
(5.41087e-05 -8.40811e-05 0.108675)
(-0.000133083 -0.000133103 0.106515)
(5.21964e-05 5.22146e-05 0.110574)
(-8.09651e-05 5.25839e-05 0.10876)
(5.25563e-05 -8.096e-05 0.108759)
(-0.000127235 -0.000127254 0.10644)
(5.09709e-05 5.09878e-05 0.110813)
(-7.77091e-05 5.08337e-05 0.108827)
(5.08074e-05 -7.77048e-05 0.108826)
(-0.000121345 -0.000121365 0.106355)
(4.97842e-05 4.98034e-05 0.111042)
(-7.43211e-05 4.88819e-05 0.108877)
(4.88563e-05 -7.43172e-05 0.108877)
(-0.000115488 -0.000115507 0.106261)
(4.86319e-05 4.86475e-05 0.11126)
(-7.08296e-05 4.6777e-05 0.108912)
(4.67497e-05 -7.08269e-05 0.108911)
(-0.000109796 -0.000109816 0.106162)
(4.74196e-05 4.74354e-05 0.111466)
(-6.71973e-05 4.4513e-05 0.108932)
(4.44889e-05 -6.71954e-05 0.108931)
(-0.000104291 -0.000104307 0.10606)
(4.62457e-05 4.62629e-05 0.111661)
(-6.35454e-05 4.21852e-05 0.108939)
(4.21551e-05 -6.35467e-05 0.108938)
(-9.89745e-05 -9.89994e-05 0.105956)
(4.51811e-05 4.51994e-05 0.111843)
(-5.99723e-05 3.9767e-05 0.108933)
(3.97336e-05 -5.99628e-05 0.108933)
(-9.39024e-05 -9.39373e-05 0.105852)
(4.41498e-05 4.4168e-05 0.112014)
(-5.64481e-05 3.7253e-05 0.108917)
(3.72292e-05 -5.64417e-05 0.108917)
(-8.90968e-05 -8.91252e-05 0.10575)
(4.30875e-05 4.31081e-05 0.112172)
(-5.29723e-05 3.47496e-05 0.108892)
(3.47229e-05 -5.29695e-05 0.108891)
(-8.45846e-05 -8.4614e-05 0.10565)
(4.20054e-05 4.20232e-05 0.112318)
(-4.95334e-05 3.2248e-05 0.108859)
(3.22237e-05 -4.95338e-05 0.108858)
(-8.02906e-05 -8.03208e-05 0.105553)
(4.082e-05 4.0839e-05 0.112452)
(-4.61523e-05 2.9761e-05 0.108819)
(2.97418e-05 -4.61354e-05 0.108818)
(-7.62546e-05 -7.62775e-05 0.105458)
(3.95759e-05 3.9599e-05 0.112573)
(-4.28319e-05 2.73545e-05 0.108773)
(2.73334e-05 -4.28139e-05 0.108772)
(-7.24728e-05 -7.24927e-05 0.105368)
(3.82387e-05 3.82626e-05 0.112682)
(-3.95658e-05 2.501e-05 0.108723)
(2.49928e-05 -3.95541e-05 0.108722)
(-6.89203e-05 -6.8939e-05 0.105281)
(3.67863e-05 3.68058e-05 0.112779)
(-3.63757e-05 2.27462e-05 0.10867)
(2.2727e-05 -3.63649e-05 0.108669)
(-6.56024e-05 -6.562e-05 0.105197)
(3.52129e-05 3.52326e-05 0.112864)
(-3.32706e-05 2.06061e-05 0.108614)
(2.05837e-05 -3.32624e-05 0.108613)
(-6.25171e-05 -6.25339e-05 0.105118)
(3.35523e-05 3.35609e-05 0.112937)
(-3.0249e-05 1.85511e-05 0.108557)
(1.85351e-05 -3.02417e-05 0.108556)
(-5.96214e-05 -5.96383e-05 0.105042)
(3.17712e-05 3.17902e-05 0.113)
(-2.73225e-05 1.66292e-05 0.108498)
(1.6619e-05 -2.73151e-05 0.108497)
(-5.69307e-05 -5.69462e-05 0.10497)
(2.99225e-05 2.99415e-05 0.113052)
(-2.4497e-05 1.48268e-05 0.10844)
(1.48102e-05 -2.44931e-05 0.108439)
(-5.4416e-05 -5.44343e-05 0.104902)
(2.79751e-05 2.7998e-05 0.113094)
(-2.17863e-05 1.31451e-05 0.108382)
(1.31326e-05 -2.17844e-05 0.108381)
(-5.20821e-05 -5.20968e-05 0.104838)
(2.6007e-05 2.6032e-05 0.113127)
(-1.92227e-05 1.15858e-05 0.108325)
(1.15702e-05 -1.92144e-05 0.108324)
(-4.99324e-05 -4.99424e-05 0.104777)
(2.40192e-05 2.40403e-05 0.113152)
(-1.67697e-05 1.01288e-05 0.108269)
(1.01056e-05 -1.67695e-05 0.108268)
(-4.78813e-05 -4.78956e-05 0.10472)
(-5.86479e-06 -5.85853e-06 0.106779)
(6.01415e-05 9.79767e-05 0.107927)
(-6.01898e-05 9.80288e-05 0.107927)
(5.92919e-06 -5.85665e-06 0.106779)
(9.79473e-05 6.01241e-05 0.107927)
(9.80223e-05 -6.01868e-05 0.107926)
(-9.79151e-05 6.00861e-05 0.107927)
(-9.80043e-05 -6.01633e-05 0.107927)
(-5.82047e-06 5.86947e-06 0.106778)
(6.00738e-05 -9.79138e-05 0.107927)
(-6.00643e-05 -9.78879e-05 0.107927)
(5.86375e-06 5.89783e-06 0.106778)
(0.000158509 0.000158396 0.106621)
(-8.49971e-06 -8.34888e-06 0.106817)
(5.98839e-05 9.74088e-05 0.107974)
(-5.9921e-05 9.74614e-05 0.107974)
(5.91466e-05 9.56363e-05 0.108109)
(-5.91756e-05 9.56908e-05 0.108109)
(-0.000158436 0.000158401 0.106621)
(8.47314e-06 -8.41224e-06 0.106817)
(9.73811e-05 5.98592e-05 0.107975)
(9.74534e-05 -5.99146e-05 0.107974)
(9.55977e-05 5.90735e-05 0.108109)
(9.56762e-05 -5.91699e-05 0.108108)
(-9.74356e-05 -5.9889e-05 0.107974)
(-9.55594e-05 5.90729e-05 0.10811)
(-9.56614e-05 -5.91406e-05 0.108109)
(0.000158455 -0.000158554 0.106621)
(-8.38437e-06 8.50293e-06 0.106816)
(-5.97886e-05 -9.73157e-05 0.107974)
(5.90219e-05 -9.55646e-05 0.108109)
(-5.90304e-05 -9.55272e-05 0.108109)
(8.43891e-06 8.45573e-06 0.106817)
(0.000154081 0.000154105 0.106644)
(-1.07345e-05 -1.06073e-05 0.106829)
(5.88955e-05 9.50217e-05 0.108151)
(-5.89197e-05 9.5076e-05 0.108151)
(5.81505e-05 9.32054e-05 0.108272)
(-5.81757e-05 9.32653e-05 0.108272)
(-0.000154101 0.000154057 0.106644)
(1.07071e-05 -1.06411e-05 0.10683)
(9.49831e-05 5.88173e-05 0.108152)
(9.50536e-05 -5.89114e-05 0.108151)
(9.31595e-05 5.80564e-05 0.108273)
(9.32398e-05 -5.81657e-05 0.108272)
(-9.50445e-05 -5.88882e-05 0.108151)
(-9.31614e-05 5.8063e-05 0.108273)
(-9.32226e-05 -5.81273e-05 0.108272)
(0.000154103 -0.000154127 0.106644)
(-1.0624e-05 1.07392e-05 0.106829)
(-5.878e-05 -9.49325e-05 0.108152)
(5.80293e-05 -9.3145e-05 0.108273)
(-5.80408e-05 -9.31445e-05 0.108273)
(1.06424e-05 1.06831e-05 0.106829)
(0.000149366 0.000149372 0.106643)
(-1.28518e-05 -1.27393e-05 0.106818)
(5.79005e-05 9.25842e-05 0.10831)
(-5.79254e-05 9.26412e-05 0.10831)
(5.70983e-05 9.06325e-05 0.108417)
(-5.71187e-05 9.06859e-05 0.108417)
(-0.000149393 0.000149358 0.106643)
(1.28286e-05 -1.27656e-05 0.106818)
(9.25407e-05 5.78033e-05 0.108311)
(9.26131e-05 -5.79085e-05 0.10831)
(9.05803e-05 5.69994e-05 0.108418)
(9.06577e-05 -5.71011e-05 0.108416)
(-9.25969e-05 -5.78661e-05 0.10831)
(-9.05796e-05 5.70033e-05 0.108418)
(-9.06445e-05 -5.70716e-05 0.108417)
(0.000149394 -0.000149416 0.106643)
(-1.27528e-05 1.28618e-05 0.106817)
(-5.77846e-05 -9.2524e-05 0.108311)
(5.6974e-05 -9.05656e-05 0.108418)
(-5.69944e-05 -9.0577e-05 0.108417)
(1.27477e-05 1.28018e-05 0.106817)
(0.000144232 0.000144228 0.106619)
(-1.48937e-05 -1.4792e-05 0.106784)
(5.6826e-05 8.99593e-05 0.10845)
(-5.68459e-05 9.00108e-05 0.10845)
(5.59374e-05 8.78585e-05 0.108543)
(-5.59555e-05 8.79074e-05 0.108543)
(-0.000144253 0.000144217 0.106619)
(1.48714e-05 -1.4811e-05 0.106784)
(8.99093e-05 5.67249e-05 0.108451)
(8.99823e-05 -5.68258e-05 0.10845)
(8.78021e-05 5.58353e-05 0.108543)
(8.78778e-05 -5.59367e-05 0.108542)
(-8.99662e-05 -5.67916e-05 0.10845)
(-8.77992e-05 5.58393e-05 0.108544)
(-8.78659e-05 -5.59063e-05 0.108543)
(0.000144245 -0.000144271 0.106619)
(-1.47977e-05 1.49015e-05 0.106783)
(-5.67135e-05 -8.99001e-05 0.108451)
(5.58129e-05 -8.7788e-05 0.108543)
(-5.58296e-05 -8.78008e-05 0.108543)
(1.48024e-05 1.48553e-05 0.106783)
(0.000138782 0.000138772 0.106575)
(-1.69351e-05 -1.68407e-05 0.106731)
(5.56201e-05 8.71357e-05 0.108571)
(-5.56395e-05 8.71841e-05 0.108571)
(5.46008e-05 8.49134e-05 0.10865)
(-5.46191e-05 8.49585e-05 0.10865)
(-0.000138798 0.000138762 0.106575)
(1.69172e-05 -1.68568e-05 0.106732)
(8.70819e-05 5.55168e-05 0.108572)
(8.71547e-05 -5.56195e-05 0.108571)
(8.48539e-05 5.44976e-05 0.108651)
(8.49278e-05 -5.45989e-05 0.108649)
(-8.71432e-05 -5.55885e-05 0.108571)
(-8.48499e-05 5.45015e-05 0.108651)
(-8.4916e-05 -5.45645e-05 0.10865)
(0.000138789 -0.000138815 0.106575)
(-1.68434e-05 1.69451e-05 0.106731)
(-5.55124e-05 -8.70776e-05 0.108572)
(5.44742e-05 -8.48388e-05 0.108651)
(-5.44895e-05 -8.48512e-05 0.108651)
(1.6855e-05 1.69043e-05 0.106731)
(0.000133072 0.000133059 0.106514)
(-1.89631e-05 -1.88756e-05 0.106663)
(5.42424e-05 8.41532e-05 0.108674)
(-5.42586e-05 8.41964e-05 0.108674)
(5.30893e-05 8.18231e-05 0.108739)
(-5.31073e-05 8.18685e-05 0.108739)
(-0.000133082 0.00013305 0.106515)
(1.89505e-05 -1.88911e-05 0.106664)
(8.40968e-05 5.41378e-05 0.108675)
(8.41663e-05 -5.4235e-05 0.108673)
(8.17623e-05 5.29846e-05 0.10874)
(8.18383e-05 -5.30903e-05 0.108738)
(-8.4156e-05 -5.42035e-05 0.108674)
(-8.17602e-05 5.29894e-05 0.10874)
(-8.18258e-05 -5.30565e-05 0.108739)
(0.000133073 -0.000133098 0.106514)
(-1.88747e-05 1.8973e-05 0.106662)
(-5.41287e-05 -8.40914e-05 0.108675)
(5.29668e-05 -8.17506e-05 0.10874)
(-5.2982e-05 -8.17623e-05 0.10874)
(1.88827e-05 1.89286e-05 0.106662)
(0.000127218 0.000127202 0.10644)
(-2.09693e-05 -2.08875e-05 0.106582)
(5.26804e-05 8.10274e-05 0.108759)
(-5.27037e-05 8.10737e-05 0.108758)
(5.13913e-05 7.86005e-05 0.10881)
(-5.14015e-05 7.86417e-05 0.10881)
(-0.000127227 0.000127196 0.10644)
(2.09675e-05 -2.09086e-05 0.106583)
(8.09691e-05 5.25749e-05 0.108759)
(8.10423e-05 -5.26811e-05 0.108758)
(7.85376e-05 5.12871e-05 0.108811)
(7.86099e-05 -5.13818e-05 0.10881)
(-8.10293e-05 -5.26438e-05 0.108758)
(-7.85323e-05 5.12853e-05 0.108812)
(-7.86e-05 -5.13544e-05 0.10881)
(0.000127224 -0.000127249 0.10644)
(-2.09005e-05 2.0995e-05 0.106581)
(-5.25691e-05 -8.09656e-05 0.108759)
(5.12615e-05 -7.85243e-05 0.108811)
(-5.12805e-05 -7.85376e-05 0.108811)
(2.09009e-05 2.09443e-05 0.106581)
(0.000121333 0.000121314 0.106354)
(-2.29552e-05 -2.28802e-05 0.106491)
(5.09378e-05 7.77748e-05 0.108826)
(-5.0953e-05 7.78174e-05 0.108825)
(4.94798e-05 7.52419e-05 0.108865)
(-4.94981e-05 7.52864e-05 0.108864)
(-0.000121328 0.000121299 0.106355)
(2.29421e-05 -2.28854e-05 0.106492)
(7.77158e-05 5.08324e-05 0.108826)
(7.77846e-05 -5.09296e-05 0.108825)
(7.518e-05 4.93757e-05 0.108866)
(7.52534e-05 -4.94781e-05 0.108864)
(-7.77765e-05 -5.09026e-05 0.108825)
(-7.51779e-05 4.93826e-05 0.108866)
(-7.52395e-05 -4.94423e-05 0.108865)
(0.000121323 -0.000121347 0.106354)
(-2.28827e-05 2.29719e-05 0.10649)
(-5.08294e-05 -7.77139e-05 0.108826)
(4.93601e-05 -7.51692e-05 0.108866)
(-4.93692e-05 -7.51791e-05 0.108865)
(2.28933e-05 2.29348e-05 0.10649)
(0.000115482 0.000115461 0.106261)
(-2.48515e-05 -2.47816e-05 0.106394)
(4.89831e-05 7.43875e-05 0.108876)
(-4.90004e-05 7.44295e-05 0.108876)
(4.74133e-05 7.17709e-05 0.108903)
(-4.74301e-05 7.18161e-05 0.108903)
(-0.000115486 0.000115456 0.106261)
(2.48416e-05 -2.47841e-05 0.106394)
(7.43274e-05 4.8878e-05 0.108877)
(7.4395e-05 -4.8976e-05 0.108875)
(7.17094e-05 4.73091e-05 0.108904)
(7.17805e-05 -4.74093e-05 0.108902)
(-7.43855e-05 -4.89442e-05 0.108876)
(-7.17138e-05 4.73175e-05 0.108905)
(-7.17752e-05 -4.73814e-05 0.108903)
(0.000115475 -0.0001155 0.106261)
(-2.47861e-05 2.48715e-05 0.106393)
(-4.88719e-05 -7.43244e-05 0.108876)
(4.72941e-05 -7.17051e-05 0.108904)
(-4.73069e-05 -7.17116e-05 0.108904)
(2.4788e-05 2.48252e-05 0.106393)
(0.000109786 0.000109763 0.106162)
(-2.66733e-05 -2.66047e-05 0.106292)
(4.68643e-05 7.08819e-05 0.10891)
(-4.68953e-05 7.09318e-05 0.10891)
(4.51867e-05 6.81724e-05 0.108927)
(-4.51964e-05 6.82132e-05 0.108926)
(-0.000109793 0.000109765 0.106162)
(2.66751e-05 -2.66161e-05 0.106292)
(7.08237e-05 4.67592e-05 0.108911)
(7.08945e-05 -4.68667e-05 0.10891)
(6.8112e-05 4.5081e-05 0.108928)
(6.81761e-05 -4.51725e-05 0.108926)
(-7.08872e-05 -4.68313e-05 0.10891)
(-6.81113e-05 4.50817e-05 0.108928)
(-6.81752e-05 -4.5155e-05 0.108926)
(0.000109779 -0.000109804 0.106162)
(-2.6619e-05 2.66994e-05 0.106291)
(-4.67566e-05 -7.08232e-05 0.108911)
(4.50611e-05 -6.81046e-05 0.108928)
(-4.50774e-05 -6.81135e-05 0.108927)
(2.6614e-05 2.66503e-05 0.106291)
(0.00010428 0.000104261 0.10606)
(-2.84168e-05 -2.83621e-05 0.106187)
(4.46143e-05 6.72546e-05 0.10893)
(-4.46291e-05 6.72987e-05 0.10893)
(4.28706e-05 6.45162e-05 0.108937)
(-4.28956e-05 6.45623e-05 0.108936)
(-0.00010427 0.000104247 0.10606)
(2.83963e-05 -2.8355e-05 0.106188)
(6.71974e-05 4.45093e-05 0.108932)
(6.72592e-05 -4.46018e-05 0.108929)
(6.44543e-05 4.27734e-05 0.108938)
(6.45209e-05 -4.28713e-05 0.108936)
(-6.72603e-05 -4.45836e-05 0.10893)
(-6.44585e-05 4.27858e-05 0.108938)
(-6.45185e-05 -4.28417e-05 0.108936)
(0.000104259 -0.000104286 0.10606)
(-2.83455e-05 2.84389e-05 0.106186)
(-4.45073e-05 -6.71966e-05 0.108931)
(4.27591e-05 -6.44525e-05 0.108938)
(-4.27682e-05 -6.44549e-05 0.108937)
(2.8369e-05 2.83932e-05 0.106186)
(9.89725e-05 9.89426e-05 0.105956)
(-3.00517e-05 -3.00039e-05 0.106082)
(4.22698e-05 6.36026e-05 0.108937)
(-4.22922e-05 6.36463e-05 0.108937)
(4.04583e-05 6.09093e-05 0.108934)
(-4.04739e-05 6.09449e-05 0.108934)
(-9.89824e-05 9.89431e-05 0.105956)
(3.00425e-05 -3.0002e-05 0.106082)
(6.35438e-05 4.21728e-05 0.108938)
(6.36059e-05 -4.22706e-05 0.108936)
(6.08478e-05 4.03633e-05 0.108935)
(6.09086e-05 -4.04498e-05 0.108933)
(-6.36111e-05 -4.22406e-05 0.108937)
(-6.08557e-05 4.03741e-05 0.108936)
(-6.0907e-05 -4.04148e-05 0.108934)
(9.89689e-05 -9.89787e-05 0.105956)
(-2.99955e-05 3.0083e-05 0.106081)
(-4.21734e-05 -6.35445e-05 0.108938)
(4.03401e-05 -6.08416e-05 0.108935)
(-4.03545e-05 -6.08415e-05 0.108935)
(3.00325e-05 3.00398e-05 0.106081)
(9.39277e-05 9.3897e-05 0.105852)
(-3.15824e-05 -3.15369e-05 0.105977)
(3.98545e-05 6.0027e-05 0.108932)
(-3.98659e-05 6.00587e-05 0.108931)
(3.79785e-05 5.73793e-05 0.108921)
(-3.79887e-05 5.74077e-05 0.10892)
(-9.39265e-05 9.38938e-05 0.105853)
(3.15922e-05 -3.15393e-05 0.105977)
(5.99677e-05 3.97594e-05 0.108933)
(6.00228e-05 -3.98415e-05 0.108931)
(5.73244e-05 3.78847e-05 0.108922)
(5.73803e-05 -3.79659e-05 0.108919)
(-6.00234e-05 -3.98083e-05 0.108931)
(-5.7328e-05 3.78865e-05 0.108922)
(-5.73806e-05 -3.79419e-05 0.10892)
(9.39119e-05 -9.39272e-05 0.105852)
(-3.15425e-05 3.16118e-05 0.105976)
(-3.97489e-05 -5.99578e-05 0.108932)
(3.78678e-05 -5.73139e-05 0.108922)
(-3.78822e-05 -5.732e-05 0.108921)
(3.15622e-05 3.15744e-05 0.105976)
(8.91188e-05 8.90894e-05 0.10575)
(-3.29946e-05 -3.29444e-05 0.105874)
(3.734e-05 5.6495e-05 0.108916)
(-3.73559e-05 5.65279e-05 0.108915)
(3.54563e-05 5.38819e-05 0.108897)
(-3.54703e-05 5.39184e-05 0.108897)
(-8.91021e-05 8.90833e-05 0.10575)
(3.29978e-05 -3.29538e-05 0.105874)
(5.64435e-05 3.72465e-05 0.108917)
(5.6496e-05 -3.7329e-05 0.108914)
(5.38331e-05 3.53685e-05 0.108899)
(5.38796e-05 -3.54386e-05 0.108896)
(-5.64986e-05 -3.7302e-05 0.108915)
(-5.38377e-05 3.53741e-05 0.108899)
(-5.38855e-05 -3.54128e-05 0.108897)
(8.90905e-05 -8.91191e-05 0.10575)
(-3.29561e-05 3.30267e-05 0.105873)
(-3.72426e-05 -5.64383e-05 0.108916)
(3.53456e-05 -5.38237e-05 0.108898)
(-3.53592e-05 -5.3826e-05 0.108898)
(3.29748e-05 3.29865e-05 0.105873)
(8.46021e-05 8.45801e-05 0.10565)
(-3.43217e-05 -3.42882e-05 0.105773)
(3.48313e-05 5.30187e-05 0.10889)
(-3.48455e-05 5.30523e-05 0.10889)
(3.2957e-05 5.04481e-05 0.108866)
(-3.29721e-05 5.04691e-05 0.108865)
(-8.45908e-05 8.45638e-05 0.10565)
(3.43251e-05 -3.42843e-05 0.105773)
(5.29702e-05 3.47437e-05 0.108892)
(5.30194e-05 -3.48154e-05 0.108889)
(5.03874e-05 3.28736e-05 0.108867)
(5.04514e-05 -3.29413e-05 0.108865)
(-5.30242e-05 -3.47941e-05 0.10889)
(-5.03894e-05 3.2879e-05 0.108868)
(-5.04365e-05 -3.29236e-05 0.108865)
(8.45764e-05 -8.46001e-05 0.10565)
(-3.42874e-05 3.43458e-05 0.105772)
(-3.47409e-05 -5.2963e-05 0.108891)
(3.28551e-05 -5.03862e-05 0.108867)
(-3.287e-05 -5.03813e-05 0.108867)
(3.43041e-05 3.43112e-05 0.105772)
(8.03128e-05 8.0277e-05 0.105553)
(-3.55553e-05 -3.55343e-05 0.105675)
(3.23277e-05 4.95926e-05 0.108857)
(-3.23424e-05 4.96101e-05 0.108856)
(3.04495e-05 4.70482e-05 0.108827)
(-3.04675e-05 4.70671e-05 0.108827)
(-8.02997e-05 8.0274e-05 0.105553)
(3.55697e-05 -3.5526e-05 0.105675)
(4.95339e-05 3.22441e-05 0.108858)
(4.9593e-05 -3.23091e-05 0.108856)
(4.69925e-05 3.0371e-05 0.108829)
(4.70482e-05 -3.04379e-05 0.108826)
(-4.95807e-05 -3.22952e-05 0.108856)
(-4.69887e-05 3.0374e-05 0.108829)
(-4.70363e-05 -3.04211e-05 0.108827)
(8.02821e-05 -8.03146e-05 0.105553)
(-3.55293e-05 3.55757e-05 0.105674)
(-3.22421e-05 -4.95247e-05 0.108858)
(3.03555e-05 -4.69717e-05 0.108828)
(-3.03687e-05 -4.69861e-05 0.108828)
(3.55427e-05 3.55549e-05 0.105674)
(7.62791e-05 7.62351e-05 0.105458)
(-3.66796e-05 -3.66624e-05 0.10558)
(2.98323e-05 4.62072e-05 0.108817)
(-2.98553e-05 4.62256e-05 0.108816)
(2.80181e-05 4.37046e-05 0.108783)
(-2.80447e-05 4.37298e-05 0.108782)
(-7.62587e-05 7.62371e-05 0.105459)
(3.66941e-05 -3.66571e-05 0.10558)
(4.61537e-05 2.97527e-05 0.108818)
(4.62071e-05 -2.98242e-05 0.108815)
(4.36587e-05 2.79423e-05 0.108784)
(4.37108e-05 -2.80141e-05 0.108782)
(-4.61984e-05 -2.98054e-05 0.108816)
(-4.3657e-05 2.7953e-05 0.108785)
(-4.36955e-05 -2.79915e-05 0.108782)
(7.6245e-05 -7.62867e-05 0.105458)
(-3.66668e-05 3.67044e-05 0.105579)
(-2.97537e-05 -4.61447e-05 0.108818)
(2.79321e-05 -4.36301e-05 0.108784)
(-2.79418e-05 -4.36472e-05 0.108784)
(3.66716e-05 3.66859e-05 0.105579)
(7.24995e-05 7.24564e-05 0.105368)
(-3.77225e-05 -3.7708e-05 0.105488)
(2.74234e-05 4.28829e-05 0.108771)
(-2.74444e-05 4.29011e-05 0.10877)
(2.5658e-05 4.0422e-05 0.108734)
(-2.56769e-05 4.04448e-05 0.108733)
(-7.24768e-05 7.24508e-05 0.105368)
(3.77368e-05 -3.77005e-05 0.105489)
(4.28341e-05 2.73462e-05 0.108772)
(4.28831e-05 -2.74162e-05 0.10877)
(4.03753e-05 2.55815e-05 0.108735)
(4.0428e-05 -2.56528e-05 0.108732)
(-4.28741e-05 -2.73994e-05 0.108771)
(-4.03731e-05 2.55901e-05 0.108736)
(-4.04142e-05 -2.56351e-05 0.108733)
(7.24526e-05 -7.24996e-05 0.105368)
(-3.77103e-05 3.77414e-05 0.105488)
(-2.73486e-05 -4.28225e-05 0.108772)
(2.55741e-05 -4.03515e-05 0.108735)
(-2.55846e-05 -4.03692e-05 0.108735)
(3.77132e-05 3.7727e-05 0.105488)
(6.89448e-05 6.89028e-05 0.105281)
(-3.86613e-05 -3.8659e-05 0.105401)
(2.5079e-05 3.96175e-05 0.108721)
(-2.50942e-05 3.96356e-05 0.10872)
(2.33696e-05 3.72101e-05 0.108681)
(-2.33799e-05 3.72357e-05 0.10868)
(-6.89269e-05 6.8901e-05 0.105281)
(3.86835e-05 -3.86496e-05 0.105401)
(3.95649e-05 2.50001e-05 0.108722)
(3.96179e-05 -2.50725e-05 0.10872)
(3.71681e-05 2.32951e-05 0.108683)
(3.72182e-05 -2.33596e-05 0.10868)
(-3.96087e-05 -2.50583e-05 0.10872)
(-3.71629e-05 2.33007e-05 0.108683)
(-3.72006e-05 -2.3343e-05 0.108681)
(6.89007e-05 -6.89507e-05 0.105281)
(-3.86597e-05 3.86862e-05 0.1054)
(-2.50064e-05 -3.95619e-05 0.108722)
(2.32841e-05 -3.71461e-05 0.108682)
(-2.32908e-05 -3.71601e-05 0.108682)
(3.86592e-05 3.86714e-05 0.1054)
(6.56322e-05 6.55932e-05 0.105198)
(-3.95226e-05 -3.95025e-05 0.105317)
(2.2815e-05 3.64313e-05 0.108668)
(-2.28225e-05 3.6446e-05 0.108667)
(2.11825e-05 3.40709e-05 0.108626)
(-2.11955e-05 3.41151e-05 0.108625)
(-6.56113e-05 6.55764e-05 0.105198)
(3.95108e-05 -3.94951e-05 0.105317)
(3.63759e-05 2.27426e-05 0.108669)
(3.64268e-05 -2.28026e-05 0.108666)
(3.40404e-05 2.1107e-05 0.108627)
(3.40899e-05 -2.11765e-05 0.108624)
(-3.6413e-05 -2.2787e-05 0.108667)
(-3.40373e-05 2.11252e-05 0.108628)
(-3.40769e-05 -2.1166e-05 0.108625)
(6.55796e-05 -6.56316e-05 0.105197)
(-3.95044e-05 3.9526e-05 0.105316)
(-2.2738e-05 -3.63719e-05 0.108668)
(2.11062e-05 -3.40264e-05 0.108627)
(-2.1113e-05 -3.40422e-05 0.108627)
(3.94993e-05 3.95109e-05 0.105316)
(6.25244e-05 6.25045e-05 0.105118)
(-4.02956e-05 -4.02718e-05 0.105237)
(2.06556e-05 3.33156e-05 0.108612)
(-2.06755e-05 3.33556e-05 0.108611)
(1.91108e-05 3.10318e-05 0.108569)
(-1.91144e-05 3.10608e-05 0.108568)
(-6.25377e-05 6.24986e-05 0.105118)
(4.02847e-05 -4.02797e-05 0.105237)
(3.32704e-05 2.05846e-05 0.108613)
(3.33239e-05 -2.06535e-05 0.10861)
(3.09995e-05 1.90389e-05 0.10857)
(3.10486e-05 -1.91028e-05 0.108567)
(-3.3304e-05 -2.06338e-05 0.108611)
(-3.10005e-05 1.90507e-05 0.108571)
(-3.10377e-05 -1.90918e-05 0.108568)
(6.24929e-05 -6.25461e-05 0.105118)
(-4.02842e-05 4.02949e-05 0.105236)
(-2.05863e-05 -3.32692e-05 0.108613)
(1.90324e-05 -3.09936e-05 0.10857)
(-1.90393e-05 -3.10074e-05 0.10857)
(4.02725e-05 4.0283e-05 0.105236)
(5.96257e-05 5.96102e-05 0.105042)
(-4.09839e-05 -4.09586e-05 0.10516)
(1.8607e-05 3.02886e-05 0.108554)
(-1.86143e-05 3.0317e-05 0.108554)
(1.71542e-05 2.80823e-05 0.108511)
(-1.71581e-05 2.81117e-05 0.10851)
(-5.96352e-05 5.95858e-05 0.105042)
(4.09719e-05 -4.09677e-05 0.105161)
(3.02507e-05 1.85389e-05 0.108556)
(3.03009e-05 -1.86037e-05 0.108553)
(2.8038e-05 1.70895e-05 0.108512)
(2.809e-05 -1.71442e-05 0.108509)
(-3.02825e-05 -1.85848e-05 0.108554)
(-2.80463e-05 1.70956e-05 0.108513)
(-2.80801e-05 -1.71357e-05 0.10851)
(5.95898e-05 -5.96518e-05 0.105042)
(-4.09689e-05 4.09836e-05 0.10516)
(-1.85358e-05 -3.0256e-05 0.108555)
(1.70797e-05 -2.80443e-05 0.108512)
(-1.70837e-05 -2.80454e-05 0.108512)
(4.09602e-05 4.09703e-05 0.10516)
(5.69327e-05 5.6919e-05 0.10497)
(-4.15939e-05 -4.15722e-05 0.105088)
(1.66893e-05 2.73629e-05 0.108496)
(-1.66923e-05 2.73886e-05 0.108495)
(1.53263e-05 2.52418e-05 0.108452)
(-1.5327e-05 2.52594e-05 0.108452)
(-5.69438e-05 5.68939e-05 0.10497)
(4.15841e-05 -4.15823e-05 0.105089)
(2.73199e-05 1.66237e-05 0.108498)
(2.73745e-05 -1.66807e-05 0.108495)
(2.51919e-05 1.52629e-05 0.108454)
(2.5246e-05 -1.53163e-05 0.108451)
(-2.7353e-05 -1.66714e-05 0.108496)
(-2.51963e-05 1.52629e-05 0.108455)
(-2.52463e-05 -1.53138e-05 0.108452)
(5.69009e-05 -5.69562e-05 0.10497)
(-4.15823e-05 4.15913e-05 0.105088)
(-1.66217e-05 -2.73235e-05 0.108497)
(1.52476e-05 -2.51926e-05 0.108454)
(-1.52646e-05 -2.52026e-05 0.108453)
(4.15714e-05 4.1579e-05 0.105087)
(5.44205e-05 5.4405e-05 0.104902)
(-4.21391e-05 -4.21149e-05 0.105019)
(1.48868e-05 2.45453e-05 0.108438)
(-1.48924e-05 2.45614e-05 0.108437)
(1.35962e-05 2.24953e-05 0.108394)
(-1.36102e-05 2.2524e-05 0.108393)
(-5.4432e-05 5.4382e-05 0.104902)
(4.21267e-05 -4.21215e-05 0.10502)
(2.44985e-05 1.48195e-05 0.108439)
(2.45496e-05 -1.4881e-05 0.108436)
(2.24417e-05 1.35435e-05 0.108396)
(2.2498e-05 -1.36019e-05 0.108393)
(-2.45414e-05 -1.48727e-05 0.108437)
(-2.24539e-05 1.35543e-05 0.108396)
(-2.24915e-05 -1.35803e-05 0.108394)
(5.43854e-05 -5.44478e-05 0.104902)
(-4.21195e-05 4.21303e-05 0.105019)
(-1.48198e-05 -2.45086e-05 0.108439)
(1.35378e-05 -2.24539e-05 0.108395)
(-1.35304e-05 -2.24496e-05 0.108395)
(4.21188e-05 4.21257e-05 0.105019)
(5.20852e-05 5.20749e-05 0.104838)
(-4.2601e-05 -4.25761e-05 0.104955)
(1.31924e-05 2.18342e-05 0.10838)
(-1.32045e-05 2.18561e-05 0.108379)
(1.20119e-05 1.98991e-05 0.108337)
(-1.20172e-05 1.99271e-05 0.108336)
(-5.20985e-05 5.20529e-05 0.104838)
(4.25909e-05 -4.2587e-05 0.104955)
(2.17768e-05 1.31332e-05 0.108381)
(2.18357e-05 -1.31956e-05 0.108378)
(1.9843e-05 1.19649e-05 0.108338)
(1.99147e-05 -1.20121e-05 0.108335)
(-2.18201e-05 -1.31749e-05 0.108379)
(-1.98583e-05 1.1963e-05 0.108339)
(-1.99029e-05 -1.20049e-05 0.108336)
(5.20604e-05 -5.21158e-05 0.104838)
(-4.25771e-05 4.25935e-05 0.104954)
(-1.31232e-05 -2.17809e-05 0.108381)
(1.19531e-05 -1.98546e-05 0.108338)
(-1.1964e-05 -1.98513e-05 0.108338)
(4.25729e-05 4.25831e-05 0.104954)
(4.99259e-05 4.99203e-05 0.104777)
(-4.30431e-05 -4.30217e-05 0.104894)
(1.16394e-05 1.9281e-05 0.108323)
(-1.16407e-05 1.92948e-05 0.108322)
(1.05177e-05 1.74323e-05 0.10828)
(-1.05264e-05 1.74484e-05 0.10828)
(-4.99371e-05 4.98939e-05 0.104777)
(4.30372e-05 -4.30278e-05 0.104894)
(1.92096e-05 1.15923e-05 0.108324)
(1.92768e-05 -1.163e-05 0.108321)
(1.73754e-05 1.0474e-05 0.108282)
(1.74338e-05 -1.05215e-05 0.108279)
(-1.92723e-05 -1.1631e-05 0.108322)
(-1.73763e-05 1.04786e-05 0.108283)
(-1.74307e-05 -1.05061e-05 0.10828)
(4.99055e-05 -4.99563e-05 0.104777)
(-4.3026e-05 4.30349e-05 0.104893)
(-1.15917e-05 -1.92219e-05 0.108323)
(1.04603e-05 -1.7374e-05 0.108282)
(-1.04643e-05 -1.73825e-05 0.108281)
(4.30223e-05 4.30279e-05 0.104893)
(4.78825e-05 4.78733e-05 0.10472)
(1.01609e-05 1.68345e-05 0.108266)
(-1.01776e-05 1.68446e-05 0.108266)
(-4.78922e-05 4.78549e-05 0.10472)
(1.67667e-05 1.01166e-05 0.108268)
(1.68235e-05 -1.01717e-05 0.108265)
(-1.68196e-05 -1.01495e-05 0.108266)
(4.78599e-05 -4.79177e-05 0.10472)
(-1.01046e-05 -1.67763e-05 0.108267)
(6.11778e-05 6.12127e-05 0.108853)
(-6.11976e-05 6.11879e-05 0.108853)
(6.11895e-05 -6.11868e-05 0.108853)
(-6.12066e-05 -6.12064e-05 0.108853)
(1.79677e-06 2.13623e-05 0.0940162)
(-1.37872e-06 1.96187e-05 0.0835893)
(1.93314e-06 4.41996e-05 0.0940748)
(-3.62586e-06 -3.3453e-08 0.0835676)
(-1.96071e-06 6.71238e-06 0.0721748)
(3.41341e-06 -1.80896e-06 0.0721782)
(2.13683e-05 1.79504e-06 0.0940153)
(1.96728e-05 -1.37423e-06 0.0835898)
(4.42814e-05 1.9435e-06 0.0940753)
(-7.15115e-08 -3.62265e-06 0.0835672)
(-6.08335e-05 6.08214e-05 0.108928)
(6.08247e-05 -6.08218e-05 0.108928)
(-6.08413e-05 -6.08425e-05 0.108928)
(5.97201e-05 5.97501e-05 0.109153)
(-5.9745e-05 5.97301e-05 0.109153)
(5.97383e-05 -5.97371e-05 0.109153)
(-5.97508e-05 -5.97534e-05 0.109153)
(-6.15073e-05 4.3302e-06 0.102462)
(-6.07205e-05 1.64003e-05 0.0957203)
(-0.000101125 1.8661e-05 0.10862)
(-9.67667e-05 5.9562e-05 0.108021)
(-0.000105376 4.71136e-06 0.102453)
(-2.87811e-05 4.83705e-06 0.0957153)
(-0.000100822 1.85146e-05 0.108686)
(6.63527e-06 -1.90332e-06 0.0721722)
(-1.71953e-06 3.35133e-06 0.0721803)
(4.287e-06 -6.15744e-05 0.102462)
(1.86434e-05 -0.000101073 0.10862)
(1.6443e-05 -6.07158e-05 0.0957212)
(5.95398e-05 -9.67633e-05 0.108021)
(4.69279e-06 -0.000105449 0.102452)
(1.84934e-05 -0.000100751 0.108686)
(4.80312e-06 -2.86709e-05 0.0957136)
(-2.89074e-05 -1.26871e-05 0.0894006)
(-1.26542e-05 -2.89174e-05 0.0893987)
(7.2417e-06 7.27047e-06 0.106801)
(-1.81985e-05 -8.75719e-07 0.0893673)
(-8.36432e-07 -1.82057e-05 0.0893647)
(1.49794e-06 1.74962e-05 0.0937163)
(-1.08962e-06 1.8041e-05 0.0833667)
(1.61877e-06 3.95896e-05 0.0937644)
(-3.40482e-06 -1.18438e-06 0.0833525)
(-2.00643e-06 6.46015e-06 0.0720242)
(3.28116e-06 -1.93231e-06 0.0720314)
(1.74347e-05 1.50183e-06 0.0937154)
(1.80857e-05 -1.09842e-06 0.0833671)
(3.96194e-05 1.62664e-06 0.0937648)
(-1.22774e-06 -3.40544e-06 0.0833521)
(-5.93812e-05 5.93649e-05 0.109226)
(5.93748e-05 -5.93755e-05 0.109226)
(-5.93865e-05 -5.93861e-05 0.109226)
(5.82611e-05 5.82756e-05 0.109444)
(-5.82697e-05 5.82594e-05 0.109444)
(5.82717e-05 -5.82702e-05 0.109443)
(-5.82898e-05 -5.8272e-05 0.109444)
(-5.50057e-05 3.48062e-06 0.10219)
(-5.62509e-05 1.48791e-05 0.0954292)
(-9.98837e-05 1.80956e-05 0.108878)
(-9.43635e-05 5.85606e-05 0.108194)
(-9.79019e-05 3.80553e-06 0.102184)
(-2.50519e-05 3.67445e-06 0.0954286)
(-9.96044e-05 1.79565e-05 0.10894)
(6.37982e-06 -1.94038e-06 0.0720215)
(-1.84757e-06 3.21947e-06 0.0720333)
(3.53507e-06 -5.49499e-05 0.10219)
(1.80747e-05 -9.98793e-05 0.108878)
(1.4908e-05 -5.62309e-05 0.09543)
(5.85096e-05 -9.43428e-05 0.108193)
(3.8332e-06 -9.78673e-05 0.102183)
(1.79399e-05 -9.96007e-05 0.10894)
(3.63768e-06 -2.50104e-05 0.095427)
(-2.65405e-05 -1.18604e-05 0.0891483)
(-1.18161e-05 -2.65385e-05 0.0891465)
(9.58676e-06 9.60533e-06 0.106826)
(-1.59947e-05 -2.81421e-07 0.0891223)
(-2.87705e-07 -1.59788e-05 0.0891198)
(1.18617e-06 1.44817e-05 0.0934454)
(-9.98937e-07 1.68652e-05 0.0831659)
(1.30805e-06 3.59803e-05 0.0934839)
(-3.36389e-06 -1.85624e-06 0.0831582)
(-2.10837e-06 6.27183e-06 0.0718873)
(3.15565e-06 -1.95347e-06 0.0718979)
(1.44246e-05 1.19578e-06 0.0934445)
(1.69102e-05 -1.00014e-06 0.0831663)
(3.60129e-05 1.32767e-06 0.0934843)
(-1.89543e-06 -3.35785e-06 0.0831579)
(-5.78945e-05 5.78861e-05 0.109515)
(5.78977e-05 -5.78951e-05 0.109515)
(-5.79114e-05 -5.78892e-05 0.109515)
(5.6745e-05 5.67628e-05 0.109725)
(-5.67494e-05 5.67449e-05 0.109725)
(5.6753e-05 -5.67508e-05 0.109725)
(-5.67738e-05 -5.67497e-05 0.109725)
(-4.86144e-05 2.9129e-06 0.101918)
(-5.2045e-05 1.36244e-05 0.0951591)
(-9.87436e-05 1.75963e-05 0.109122)
(-9.18953e-05 5.7546e-05 0.108348)
(-9.03251e-05 3.20012e-06 0.101912)
(-2.16506e-05 2.72243e-06 0.0951627)
(-9.84295e-05 1.74885e-05 0.109181)
(6.18659e-06 -2.043e-06 0.0718846)
(-1.87468e-06 3.09125e-06 0.0718998)
(2.95296e-06 -4.8582e-05 0.101918)
(1.76043e-05 -9.87441e-05 0.109122)
(1.36473e-05 -5.20846e-05 0.0951599)
(5.75107e-05 -9.18776e-05 0.108348)
(3.24329e-06 -9.0311e-05 0.101912)
(1.74959e-05 -9.84231e-05 0.10918)
(2.69014e-06 -2.16033e-05 0.0951612)
(-2.43718e-05 -1.11534e-05 0.088919)
(-1.11507e-05 -2.43693e-05 0.0889172)
(1.17251e-05 1.17758e-05 0.106826)
(-1.40167e-05 1.25043e-07 0.0888994)
(1.20944e-07 -1.40092e-05 0.0888969)
(8.92141e-07 1.20328e-05 0.0932007)
(-1.03213e-06 1.61189e-05 0.0829845)
(1.00936e-06 3.30087e-05 0.0932306)
(-3.40322e-06 -2.22915e-06 0.0829826)
(-2.10976e-06 6.16297e-06 0.0717629)
(3.0885e-06 -1.93505e-06 0.0717766)
(1.19809e-05 9.03617e-07 0.0931998)
(1.61658e-05 -1.027e-06 0.082985)
(3.30455e-05 1.03189e-06 0.093231)
(-2.26376e-06 -3.39155e-06 0.0829823)
(-5.63743e-05 5.63701e-05 0.109794)
(5.63786e-05 -5.63781e-05 0.109794)
(-5.63954e-05 -5.63737e-05 0.109794)
(5.52611e-05 5.52791e-05 0.109997)
(-5.52665e-05 5.52635e-05 0.109998)
(5.52705e-05 -5.52706e-05 0.109997)
(-5.5287e-05 -5.52652e-05 0.109997)
(-4.26378e-05 2.44094e-06 0.101651)
(-4.84097e-05 1.25132e-05 0.0949091)
(-9.742e-05 1.71983e-05 0.109352)
(-8.92136e-05 5.64447e-05 0.108483)
(-8.31832e-05 2.71186e-06 0.101645)
(-1.87365e-05 1.88628e-06 0.0949167)