/*--------------------------------*- C++ -*----------------------------------*\
| =========                 |                                                 |
| \\      /  F ield         | OpenFOAM: The Open Source CFD Toolbox           |
|  \\    /   O peration     | Version:  v1912                                 |
|   \\  /    A nd           | Website:  www.openfoam.com                      |
|    \\/     M anipulation  |                                                 |
\*---------------------------------------------------------------------------*/
FoamFile
{
    version     2.0;
    format      ascii;
    class       volScalarField;
    location    "0.15";
    object      nut;
}
// * * * * * * * * * * * * * * * * * * * * * * * * * * * * * * * * * * * * * //

dimensions      [0 2 -1 0 0 0 0];


internalField   nonuniform List<scalar> 
171728
(
3.13994e-07
3.69621e-07
3.69523e-07
1.56384e-07
1.9898e-08
2.48265e-08
2.49542e-08
3.06591e-08
1.17813e-09
2.0242e-09
2.01849e-09
2.99312e-08
1.9337e-10
1.17919e-09
1.18132e-09
2.99621e-08
1.33833e-10
1.12696e-09
1.13942e-09
2.99648e-08
1.3602e-10
1.14106e-09
1.13593e-09
2.99648e-08
1.28728e-10
1.14362e-09
1.13506e-09
2.99659e-08
1.37671e-10
1.1377e-09
1.13662e-09
2.99662e-08
1.27884e-10
1.13673e-09
1.13146e-09
2.99666e-08
1.23376e-10
1.1363e-09
1.13618e-09
2.99666e-08
1.61622e-10
1.13412e-09
1.13542e-09
2.99668e-08
1.30336e-10
1.13432e-09
1.13625e-09
2.99672e-08
1.29589e-10
1.14103e-09
1.13681e-09
2.99672e-08
1.28361e-10
1.14023e-09
1.13776e-09
2.99674e-08
1.25446e-10
1.1195e-09
1.13662e-09
2.99672e-08
1.30956e-10
1.14741e-09
1.1365e-09
2.9967e-08
1.3162e-10
1.13705e-09
1.13671e-09
2.99676e-08
1.283e-10
1.1266e-09
1.13639e-09
2.99681e-08
1.60264e-10
1.12563e-09
1.13532e-09
2.99673e-08
1.46973e-10
1.15195e-09
1.13295e-09
2.99685e-08
1.61793e-10
1.14043e-09
1.13635e-09
2.99693e-08
1.2878e-10
1.13889e-09
1.13724e-09
2.99695e-08
1.26765e-10
1.13723e-09
1.13671e-09
2.99698e-08
1.27069e-10
1.13783e-09
1.13748e-09
2.99694e-08
1.27489e-10
1.13783e-09
1.13777e-09
2.99694e-08
1.26946e-10
1.13748e-09
1.13705e-09
2.99696e-08
1.27294e-10
1.13787e-09
1.13744e-09
2.99693e-08
1.2745e-10
1.13762e-09
1.1372e-09
2.99693e-08
1.27225e-10
1.138e-09
1.13759e-09
2.99694e-08
1.2719e-10
1.13759e-09
1.1373e-09
2.99694e-08
1.27048e-10
1.13899e-09
1.13713e-09
2.99692e-08
1.27353e-10
1.13598e-09
1.1374e-09
2.99694e-08
1.27266e-10
1.13819e-09
1.13737e-09
2.99695e-08
1.27421e-10
1.13789e-09
1.13867e-09
2.99695e-08
1.27343e-10
1.1381e-09
1.13908e-09
2.99695e-08
1.27189e-10
1.13828e-09
1.13958e-09
2.99697e-08
1.27232e-10
1.13788e-09
1.1392e-09
2.99698e-08
1.27637e-10
1.13824e-09
1.13959e-09
2.99695e-08
1.2879e-10
1.13809e-09
1.14206e-09
2.99695e-08
1.34044e-10
1.14024e-09
1.13885e-09
2.99667e-08
1.66648e-10
1.12224e-09
1.13901e-09
2.99696e-08
1.29189e-10
1.14625e-09
1.13765e-09
2.99691e-08
1.2824e-10
1.14149e-09
1.13837e-09
2.99695e-08
1.27991e-10
1.13728e-09
1.1379e-09
2.997e-08
1.28229e-10
1.13728e-09
1.13976e-09
2.99701e-08
1.28095e-10
1.13705e-09
1.13888e-09
2.99699e-08
1.28374e-10
1.13725e-09
1.13881e-09
2.99702e-08
1.28173e-10
1.13694e-09
1.14013e-09
2.99702e-08
1.28113e-10
1.13705e-09
1.14019e-09
2.99702e-08
1.28418e-10
1.137e-09
1.14014e-09
2.99703e-08
1.28491e-10
1.13706e-09
1.1417e-09
2.99704e-08
1.28718e-10
1.1375e-09
1.13859e-09
2.997e-08
1.2919e-10
1.13796e-09
1.13826e-09
2.99698e-08
1.31308e-10
1.14559e-09
1.13776e-09
2.99698e-08
1.37111e-10
1.12585e-09
1.13884e-09
2.99698e-08
1.29595e-10
1.13575e-09
1.13521e-09
2.99692e-08
1.28112e-10
1.13707e-09
1.13652e-09
2.99683e-08
1.28097e-10
1.13726e-09
1.13643e-09
2.9968e-08
1.28109e-10
1.13753e-09
1.13674e-09
2.99682e-08
1.27582e-10
1.13723e-09
1.13612e-09
2.99684e-08
1.27808e-10
1.13734e-09
1.13696e-09
2.99681e-08
1.28033e-10
1.13705e-09
1.13617e-09
2.99684e-08
1.28009e-10
1.13756e-09
1.13666e-09
2.99684e-08
1.27679e-10
1.13695e-09
1.13615e-09
2.99683e-08
1.28123e-10
1.13719e-09
1.13632e-09
2.99683e-08
1.28138e-10
1.13756e-09
1.13669e-09
2.99683e-08
1.27229e-10
1.13723e-09
1.13648e-09
2.99686e-08
1.26024e-10
1.13661e-09
1.13617e-09
2.99681e-08
1.24475e-10
1.13511e-09
1.139e-09
2.99682e-08
1.28505e-10
1.13589e-09
1.12356e-09
2.99702e-08
1.28146e-10
1.13812e-09
1.13147e-09
2.99672e-08
1.27443e-10
1.13755e-09
1.13744e-09
2.99675e-08
1.28066e-10
1.13758e-09
1.13773e-09
2.99675e-08
1.28134e-10
1.13722e-09
1.13618e-09
2.99675e-08
1.2787e-10
1.13714e-09
1.13561e-09
2.99674e-08
1.27978e-10
1.13676e-09
1.1353e-09
2.99673e-08
1.28154e-10
1.13742e-09
1.13586e-09
2.99673e-08
1.28009e-10
1.13715e-09
1.13571e-09
2.99673e-08
1.28008e-10
1.13731e-09
1.13635e-09
2.99673e-08
1.27941e-10
1.13718e-09
1.13625e-09
2.99671e-08
1.28282e-10
1.13738e-09
1.13641e-09
2.99674e-08
1.27699e-10
1.13693e-09
1.13603e-09
2.99672e-08
1.28095e-10
1.13762e-09
1.13664e-09
2.99672e-08
1.28572e-10
1.13685e-09
1.13592e-09
2.99673e-08
1.29081e-10
1.13727e-09
1.1363e-09
2.99673e-08
1.28869e-10
1.13732e-09
1.13684e-09
2.99675e-08
1.29004e-10
1.13683e-09
1.13541e-09
2.99671e-08
1.28762e-10
1.13759e-09
1.13619e-09
2.99675e-08
1.28478e-10
1.13713e-09
1.1354e-09
2.99675e-08
1.29035e-10
1.13722e-09
1.13667e-09
2.99673e-08
1.33694e-10
1.13816e-09
1.13714e-09
2.99677e-08
2.27287e-10
1.18918e-09
1.19062e-09
2.99695e-08
2.06595e-09
2.36997e-09
2.40684e-09
3.00639e-08
3.60571e-08
3.51395e-08
3.5182e-08
3.1221e-08
2.17928e-07
1.06551e-07
1.06607e-07
1.2195e-07
1.66344e-07
2.08995e-07
2.09013e-07
1.66292e-07
2.09013e-07
2.09076e-07
4.16059e-07
4.16049e-07
4.1605e-07
4.16051e-07
2.08935e-07
2.09003e-07
1.6625e-07
2.08977e-07
2.08986e-07
1.66238e-07
1.56434e-07
8.27784e-08
3.69399e-07
3.69519e-07
5.52466e-08
5.51318e-08
1.56394e-07
8.24778e-08
3.69667e-07
3.69506e-07
5.53409e-08
5.53149e-08
3.69478e-07
5.52812e-08
5.52664e-08
1.56421e-07
8.28219e-08
3.69607e-07
5.541e-08
5.53917e-08
8.27128e-08
3.06805e-08
7.79067e-08
2.48138e-08
2.48671e-08
3.08493e-09
3.13081e-09
3.05679e-08
7.79761e-08
2.48994e-08
2.49058e-08
3.0983e-09
3.13133e-09
2.49444e-08
3.0587e-09
3.11218e-09
3.0727e-08
7.79672e-08
2.505e-08
3.10759e-09
3.11252e-09
7.79538e-08
2.99005e-08
7.78455e-08
2.00414e-09
2.02793e-09
1.23969e-09
1.23544e-09
2.99107e-08
7.78504e-08
2.04647e-09
2.03475e-09
1.2204e-09
1.24136e-09
2.05714e-09
1.22508e-09
1.23883e-09
2.9919e-08
7.78513e-08
2.06261e-09
1.21221e-09
1.22081e-09
7.78329e-08
2.99515e-08
7.78359e-08
1.19592e-09
1.19663e-09
1.15598e-09
1.13324e-09
2.99522e-08
7.78424e-08
1.17868e-09
1.19722e-09
1.14126e-09
1.15904e-09
1.19236e-09
1.12948e-09
1.15307e-09
2.99594e-08
7.78426e-08
1.17875e-09
1.13716e-09
1.13636e-09
7.78238e-08
2.9951e-08
7.78363e-08
1.15077e-09
1.1221e-09
1.15078e-09
1.12513e-09
2.9957e-08
7.78389e-08
1.13874e-09
1.15434e-09
1.13385e-09
1.15427e-09
1.15014e-09
1.12498e-09
1.14797e-09
2.99624e-08
7.78437e-08
1.13406e-09
1.13068e-09
1.12955e-09
7.78255e-08
2.99505e-08
7.78348e-08
1.14988e-09
1.14659e-09
1.13608e-09
1.17612e-09
2.99624e-08
7.78442e-08
1.13286e-09
1.15213e-09
1.12921e-09
1.1537e-09
1.14759e-09
1.14766e-09
1.14638e-09
2.99624e-08
7.78438e-08
1.13117e-09
1.12947e-09
1.12968e-09
7.78252e-08
2.99538e-08
7.78351e-08
1.10493e-09
1.16811e-09
1.17179e-09
1.15769e-09
2.99567e-08
7.78459e-08
1.12679e-09
1.15193e-09
1.14438e-09
1.15292e-09
1.14624e-09
1.13815e-09
1.14652e-09
2.99628e-08
7.78449e-08
1.13154e-09
1.13001e-09
1.13077e-09
7.78257e-08
2.99536e-08
7.78375e-08
1.15404e-09
1.15752e-09
1.15291e-09
1.15664e-09
2.99563e-08
7.7846e-08
1.14317e-09
1.15091e-09
1.13979e-09
1.15343e-09
1.14641e-09
1.13707e-09
1.14664e-09
2.99631e-08
7.78453e-08
1.13314e-09
1.12694e-09
1.13103e-09
7.78267e-08
2.99521e-08
7.78386e-08
1.15254e-09
1.15666e-09
1.14459e-09
1.1514e-09
2.99568e-08
7.7848e-08
1.13813e-09
1.15238e-09
1.13273e-09
1.15429e-09
1.14663e-09
1.13632e-09
1.1472e-09
2.99635e-08
7.78448e-08
1.13149e-09
1.13027e-09
1.13155e-09
7.78259e-08
2.99516e-08
7.7834e-08
1.13402e-09
1.1464e-09
1.1733e-09
1.14884e-09
2.99537e-08
7.78527e-08
1.1234e-09
1.15293e-09
1.14895e-09
1.15448e-09
1.1473e-09
1.13215e-09
1.14702e-09
2.99634e-08
7.78465e-08
1.13338e-09
1.12969e-09
1.13109e-09
7.78269e-08
2.9958e-08
7.78402e-08
1.18984e-09
1.15201e-09
1.15552e-09
1.15257e-09
2.99558e-08
7.78492e-08
1.14976e-09
1.15159e-09
1.14251e-09
1.15284e-09
1.14655e-09
1.13513e-09
1.14595e-09
2.99636e-08
7.78466e-08
1.13251e-09
1.13005e-09
1.13049e-09
7.78274e-08
2.99535e-08
7.784e-08
1.15243e-09
1.14475e-09
1.14993e-09
1.15549e-09
2.99561e-08
7.78457e-08
1.138e-09
1.15125e-09
1.13821e-09
1.15325e-09
1.14588e-09
1.14035e-09
1.14635e-09
2.99643e-08
7.78462e-08
1.13234e-09
1.13075e-09
1.13089e-09
7.78275e-08
2.99532e-08
7.78429e-08
1.14978e-09
1.14375e-09
1.14794e-09
1.15759e-09
2.9952e-08
7.7847e-08
1.13596e-09
1.15155e-09
1.13551e-09
1.15428e-09
1.14649e-09
1.1394e-09
1.14752e-09
2.99643e-08
7.78452e-08
1.13276e-09
1.13188e-09
1.13175e-09
7.78265e-08
2.99467e-08
7.78324e-08
1.14719e-09
1.15787e-09
1.16428e-09
1.14157e-09
2.99541e-08
7.78444e-08
1.12785e-09
1.15261e-09
1.1229e-09
1.15329e-09
1.14776e-09
1.12624e-09
1.14737e-09
2.99645e-08
7.78466e-08
1.13353e-09
1.13094e-09
1.13013e-09
7.78277e-08
2.99518e-08
7.78354e-08
1.1479e-09
1.12387e-09
1.15297e-09
1.19425e-09
2.99542e-08
7.78434e-08
1.13354e-09
1.15179e-09
1.139e-09
1.15379e-09
1.14763e-09
1.1509e-09
1.1472e-09
2.99646e-08
7.7847e-08
1.13164e-09
1.13071e-09
1.12973e-09
7.7829e-08
2.99506e-08
7.78341e-08
1.15055e-09
1.18364e-09
1.15673e-09
1.15683e-09
2.99615e-08
7.78306e-08
1.13695e-09
1.15172e-09
1.13747e-09
1.15329e-09
1.14664e-09
1.13722e-09
1.14659e-09
2.99645e-08
7.78476e-08
1.13166e-09
1.13042e-09
1.13037e-09
7.7829e-08
2.99524e-08
7.78316e-08
1.14641e-09
1.15541e-09
1.15456e-09
1.14867e-09
2.99624e-08
7.78444e-08
1.13628e-09
1.15191e-09
1.13664e-09
1.15487e-09
1.14708e-09
1.13314e-09
1.14867e-09
2.99647e-08
7.78473e-08
1.13261e-09
1.13098e-09
1.13144e-09
7.78284e-08
2.99519e-08
7.78307e-08
1.14139e-09
1.14356e-09
1.09998e-09
1.12136e-09
2.99592e-08
7.7842e-08
1.13045e-09
1.15318e-09
1.12175e-09
1.15498e-09
1.14855e-09
1.11942e-09
1.14844e-09
2.99651e-08
7.78495e-08
1.13251e-09
1.12965e-09
1.13028e-09
7.78306e-08
2.99502e-08
7.78226e-08
1.10103e-09
1.1306e-09
1.17687e-09
1.25781e-09
2.99708e-08
7.78655e-08
1.12543e-09
1.15277e-09
1.15225e-09
1.15249e-09
1.14744e-09
1.18674e-09
1.146e-09
2.99646e-08
7.78522e-08
1.13173e-09
1.12713e-09
1.13017e-09
7.7835e-08
2.99651e-08
7.78509e-08
1.13496e-09
1.19741e-09
1.13606e-09
1.20107e-09
2.99357e-08
7.78112e-08
1.15123e-09
1.15069e-09
1.11998e-09
1.1545e-09
1.14701e-09
1.12229e-09
1.14708e-09
2.99655e-08
7.78509e-08
1.13344e-09
1.12994e-09
1.13209e-09
7.78312e-08
2.99412e-08
7.78303e-08
1.16289e-09
1.16473e-09
1.15811e-09
1.15428e-09
2.99693e-08
7.78425e-08
1.13234e-09
1.15212e-09
1.14252e-09
1.15298e-09
1.14674e-09
1.14045e-09
1.14631e-09
2.99662e-08
7.78511e-08
1.13345e-09
1.13094e-09
1.13117e-09
7.78318e-08
2.99525e-08
7.78294e-08
1.15745e-09
1.15949e-09
1.14983e-09
1.15548e-09
2.9954e-08
7.78423e-08
1.13852e-09
1.15137e-09
1.13916e-09
1.15325e-09
1.14649e-09
1.1377e-09
1.14606e-09
2.99666e-08
7.78512e-08
1.13324e-09
1.13095e-09
1.13089e-09
7.78325e-08
2.99525e-08
7.78305e-08
1.15366e-09
1.15888e-09
1.15067e-09
1.15597e-09
2.99543e-08
7.78421e-08
1.1349e-09
1.15051e-09
1.13956e-09
1.1537e-09
1.14583e-09
1.13816e-09
1.1465e-09
2.9967e-08
7.7851e-08
1.13199e-09
1.13142e-09
1.13966e-09
7.78326e-08
2.99521e-08
7.78316e-08
1.15381e-09
1.15973e-09
1.1498e-09
1.15554e-09
2.99541e-08
7.78425e-08
1.13615e-09
1.15125e-09
1.13871e-09
1.15323e-09
1.14625e-09
1.13794e-09
1.14659e-09
2.99668e-08
7.78514e-08
1.13828e-09
1.13132e-09
1.13384e-09
7.78325e-08
2.99521e-08
7.78307e-08
1.15309e-09
1.15961e-09
1.15043e-09
1.15579e-09
2.99541e-08
7.78423e-08
1.13542e-09
1.1511e-09
1.1393e-09
1.15355e-09
1.14665e-09
1.1381e-09
1.14651e-09
2.99668e-08
7.78513e-08
1.13631e-09
1.13126e-09
1.13295e-09
7.78329e-08
2.99521e-08
7.78311e-08
1.15306e-09
1.15923e-09
1.15054e-09
1.15583e-09
2.99542e-08
7.78425e-08
1.13537e-09
1.1508e-09
1.13942e-09
1.15358e-09
1.14616e-09
1.13811e-09
1.14675e-09
2.99669e-08
7.78514e-08
1.13448e-09
1.13132e-09
1.13337e-09
7.78331e-08
2.9952e-08
7.78315e-08
1.15358e-09
1.15971e-09
1.14989e-09
1.15537e-09
2.99541e-08
7.78432e-08
1.1359e-09
1.15126e-09
1.13876e-09
1.15311e-09
1.14675e-09
1.13779e-09
1.14614e-09
2.99667e-08
7.78521e-08
1.13511e-09
1.13101e-09
1.13277e-09
7.7834e-08
2.9952e-08
7.78306e-08
1.15305e-09
1.15925e-09
1.15066e-09
1.15582e-09
2.9954e-08
7.78422e-08
1.13536e-09
1.1508e-09
1.13951e-09
1.15357e-09
1.14632e-09
1.13807e-09
1.1465e-09
2.99667e-08
7.78512e-08
1.1347e-09
1.1313e-09
1.13312e-09
7.78329e-08
2.99519e-08
7.7831e-08
1.15367e-09
1.15976e-09
1.15037e-09
1.1559e-09
2.9954e-08
7.78424e-08
1.13598e-09
1.15133e-09
1.13925e-09
1.15363e-09
1.14653e-09
1.13803e-09
1.14669e-09
2.99667e-08
7.78514e-08
1.13489e-09
1.1313e-09
1.1333e-09
7.78331e-08
2.99522e-08
7.78314e-08
1.15319e-09
1.15971e-09
1.15023e-09
1.15301e-09
2.99542e-08
7.78431e-08
1.1355e-09
1.15112e-09
1.13895e-09
1.1532e-09
1.14671e-09
1.13728e-09
1.14621e-09
2.99669e-08
7.78517e-08
1.13505e-09
1.13088e-09
1.13284e-09
7.78333e-08
2.9952e-08
7.7831e-08
1.15299e-09
1.14113e-09
1.15056e-09
1.1642e-09
2.99546e-08
7.78459e-08
1.13543e-09
1.15094e-09
1.1393e-09
1.15362e-09
1.1465e-09
1.13934e-09
1.14644e-09
2.99666e-08
7.78515e-08
1.13492e-09
1.1313e-09
1.13299e-09
7.78332e-08
2.9952e-08
7.78306e-08
1.1534e-09
1.15266e-09
1.15072e-09
1.15777e-09
2.99543e-08
7.78442e-08
1.13567e-09
1.15125e-09
1.1396e-09
1.15376e-09
1.1464e-09
1.13855e-09
1.14707e-09
2.99667e-08
7.78512e-08
1.13482e-09
1.13148e-09
1.13363e-09
7.78327e-08
2.99521e-08
7.78308e-08
1.15366e-09
1.16154e-09
1.15025e-09
1.15738e-09
2.99515e-08
7.78442e-08
1.13599e-09
1.15127e-09
1.13911e-09
1.15318e-09
1.14665e-09
1.13809e-09
1.1461e-09
2.99669e-08
7.78512e-08
1.13509e-09
1.13152e-09
1.13331e-09
7.7833e-08
2.99522e-08
7.7831e-08
1.1531e-09
1.1611e-09
1.15019e-09
1.15723e-09
2.99515e-08
7.78444e-08
1.13541e-09
1.15055e-09
1.13904e-09
1.15359e-09
1.14581e-09
1.13824e-09
1.14709e-09
2.99669e-08
7.78516e-08
1.13612e-09
1.12744e-09
1.12947e-09
7.7833e-08
2.99521e-08
7.78308e-08
1.15328e-09
1.16114e-09
1.15047e-09
1.15763e-09
2.99514e-08
7.78439e-08
1.1356e-09
1.15099e-09
1.13935e-09
1.15373e-09
1.14658e-09
1.13867e-09
1.14729e-09
2.99668e-08
7.7851e-08
1.13673e-09
1.12963e-09
1.13164e-09
7.78323e-08
2.99521e-08
7.78309e-08
1.15342e-09
1.16139e-09
1.15035e-09
1.15759e-09
2.99515e-08
7.78441e-08
1.13575e-09
1.15112e-09
1.1392e-09
1.1537e-09
1.14646e-09
1.13834e-09
1.14702e-09
2.99669e-08
7.78511e-08
1.13711e-09
1.12929e-09
1.13138e-09
7.78324e-08
2.99523e-08
7.78307e-08
1.15321e-09
1.1612e-09
1.15024e-09
1.1574e-09
2.99517e-08
7.78441e-08
1.13553e-09
1.15093e-09
1.13909e-09
1.15349e-09
1.14614e-09
1.13833e-09
1.14663e-09
2.99671e-08
7.78512e-08
1.13679e-09
1.12929e-09
1.13099e-09
7.7833e-08
2.9952e-08
7.7831e-08
1.15365e-09
1.16138e-09
1.15076e-09
1.15707e-09
2.99515e-08
7.78442e-08
1.13595e-09
1.1511e-09
1.13945e-09
1.15314e-09
1.1464e-09
1.13817e-09
1.14651e-09
2.99669e-08
7.78513e-08
1.13706e-09
1.12956e-09
1.13096e-09
7.78331e-08
2.99521e-08
7.78314e-08
1.15415e-09
1.16053e-09
1.16235e-09
1.14788e-09
2.99516e-08
7.78435e-08
1.1361e-09
1.15052e-09
1.1408e-09
1.15317e-09
1.14615e-09
1.13929e-09
1.14077e-09
2.99669e-08
7.78527e-08
1.1371e-09
1.12698e-09
1.12487e-09
7.78334e-08
2.99515e-08
7.78436e-08
1.17582e-09
1.15518e-09
1.0962e-09
1.16441e-09
2.99497e-08
7.78584e-08
1.13593e-09
1.15006e-09
1.1195e-09
1.15536e-09
1.14065e-09
1.12509e-09
1.15385e-09
2.99663e-08
7.78535e-08
1.11788e-09
1.12983e-09
1.13462e-09
7.78338e-08
2.9954e-08
7.78379e-08
1.14929e-09
1.14099e-09
1.14771e-09
1.1149e-09
2.99532e-08
7.78642e-08
1.12817e-09
1.15328e-09
1.13744e-09
1.15416e-09
1.14934e-09
1.12175e-09
1.14806e-09
2.99659e-08
7.78542e-08
1.14067e-09
1.12973e-09
1.1302e-09
7.78347e-08
2.99509e-08
7.78409e-08
1.15321e-09
1.17586e-09
1.14587e-09
1.1693e-09
2.99679e-08
7.78518e-08
1.13483e-09
1.15152e-09
1.13749e-09
1.15391e-09
1.14706e-09
1.14472e-09
1.14669e-09
2.99661e-08
7.7854e-08
1.13522e-09
1.13009e-09
1.13026e-09
7.7834e-08
2.99553e-08
7.78402e-08
1.15361e-09
1.16324e-09
1.1453e-09
1.15689e-09
2.99533e-08
7.78519e-08
1.13568e-09
1.15127e-09
1.13755e-09
1.15328e-09
1.14676e-09
1.13759e-09
1.14672e-09
2.99663e-08
7.7854e-08
1.13657e-09
1.12982e-09
1.13095e-09
7.78333e-08
2.99555e-08
7.78399e-08
1.15303e-09
1.15693e-09
1.14563e-09
1.15656e-09
2.99529e-08
7.78517e-08
1.13544e-09
1.15081e-09
1.13587e-09
1.15356e-09
1.14636e-09
1.13727e-09
1.14692e-09
2.99665e-08
7.78537e-08
1.13663e-09
1.12863e-09
1.13105e-09
7.78333e-08
2.99556e-08
7.78397e-08
1.15289e-09
1.15708e-09
1.14536e-09
1.15645e-09
2.99529e-08
7.78521e-08
1.13722e-09
1.15116e-09
1.13765e-09
1.1534e-09
1.14664e-09
1.13701e-09
1.14595e-09
2.99666e-08
7.78543e-08
1.13681e-09
1.1305e-09
1.13214e-09
7.78345e-08
2.99555e-08
7.78398e-08
1.15281e-09
1.15694e-09
1.14556e-09
1.15659e-09
2.99527e-08
7.78522e-08
1.13598e-09
1.1509e-09
1.13892e-09
1.15389e-09
1.14568e-09
1.13705e-09
1.14696e-09
2.99664e-08
7.78544e-08
1.13872e-09
1.12925e-09
1.12869e-09
7.78342e-08
2.99554e-08
7.78399e-08
1.15311e-09
1.15704e-09
1.14539e-09
1.15622e-09
2.99528e-08
7.78522e-08
1.13689e-09
1.15158e-09
1.13775e-09
1.1535e-09
1.14662e-09
1.13692e-09
1.14672e-09
2.99666e-08
7.78544e-08
1.13953e-09
1.12819e-09
1.13045e-09
7.7834e-08
2.99556e-08
7.78397e-08
1.15282e-09
1.15654e-09
1.14562e-09
1.15642e-09
2.99528e-08
7.78519e-08
1.13605e-09
1.15087e-09
1.13789e-09
1.15362e-09
1.14612e-09
1.13719e-09
1.14673e-09
2.99667e-08
7.78542e-08
1.1376e-09
1.12848e-09
1.13067e-09
7.78341e-08
2.99558e-08
7.78399e-08
1.15292e-09
1.15669e-09
1.14542e-09
1.15623e-09
2.99529e-08
7.78522e-08
1.13612e-09
1.15098e-09
1.13767e-09
1.1534e-09
1.14609e-09
1.13703e-09
1.14652e-09
2.99668e-08
7.78545e-08
1.13758e-09
1.12829e-09
1.13049e-09
7.78341e-08
2.99557e-08
7.784e-08
1.15267e-09
1.15648e-09
1.14541e-09
1.15638e-09
2.99529e-08
7.78521e-08
1.13591e-09
1.15071e-09
1.13772e-09
1.15328e-09
1.1461e-09
1.13706e-09
1.14646e-09
2.99668e-08
7.78544e-08
1.13764e-09
1.12916e-09
1.13315e-09
7.78334e-08
2.99556e-08
7.78399e-08
1.15271e-09
1.15672e-09
1.14543e-09
1.15653e-09
2.99528e-08
7.78521e-08
1.13603e-09
1.15065e-09
1.13787e-09
1.15361e-09
1.14583e-09
1.13716e-09
1.14662e-09
2.99667e-08
7.78543e-08
1.14342e-09
1.12957e-09
1.13102e-09
7.78343e-08
2.99555e-08
7.78398e-08
1.1532e-09
1.15717e-09
1.14548e-09
1.15715e-09
2.99527e-08
7.78525e-08
1.13667e-09
1.15127e-09
1.13828e-09
1.15346e-09
1.14628e-09
1.1377e-09
1.1461e-09
2.99667e-08
7.78543e-08
1.13616e-09
1.1297e-09
1.13093e-09
7.78347e-08
2.99554e-08
7.78391e-08
1.15274e-09
1.15757e-09
1.1436e-09
1.16228e-09
2.99526e-08
7.7854e-08
1.13661e-09
1.15074e-09
1.14085e-09
1.15251e-09
1.1456e-09
1.14179e-09
1.14476e-09
2.99666e-08
7.78539e-08
1.13632e-09
1.1291e-09
1.13116e-09
7.78337e-08
2.99557e-08
7.78384e-08
1.15e-09
1.17198e-09
1.14253e-09
1.1314e-09
2.99518e-08
7.78639e-08
1.13539e-09
1.15009e-09
1.13898e-09
1.15314e-09
1.14438e-09
1.12455e-09
1.14514e-09
2.99665e-08
7.78535e-08
1.13594e-09
1.12968e-09
1.13175e-09
7.78329e-08
2.99556e-08
7.78378e-08
1.15106e-09
1.11561e-09
1.14577e-09
1.15126e-09
2.99429e-08
7.78517e-08
1.13591e-09
1.15068e-09
1.13987e-09
1.15427e-09
1.14618e-09
1.13518e-09
1.14651e-09
2.99665e-08
7.78532e-08
1.13728e-09
1.12934e-09
1.13056e-09
7.78334e-08
2.99553e-08
7.7838e-08
1.15243e-09
1.15409e-09
1.14576e-09
1.15613e-09
2.99516e-08
7.7851e-08
1.13566e-09
1.15179e-09
1.13939e-09
1.1541e-09
1.14497e-09
1.13741e-09
1.14893e-09
2.99664e-08
7.78526e-08
1.13049e-09
1.13198e-09
1.13445e-09
7.78347e-08
2.99552e-08
7.78386e-08
1.15285e-09
1.15626e-09
1.14524e-09
1.15596e-09
2.99521e-08
7.78514e-08
1.13551e-09
1.1514e-09
1.13871e-09
1.15352e-09
1.14885e-09
1.13722e-09
1.14844e-09
2.99662e-08
7.78531e-08
1.13449e-09
1.13136e-09
1.13386e-09
7.78346e-08
2.99551e-08
7.78379e-08
1.1527e-09
1.15651e-09
1.14568e-09
1.15651e-09
2.9952e-08
7.78508e-08
1.13522e-09
1.15139e-09
1.13915e-09
1.15398e-09
1.14915e-09
1.1377e-09
1.14896e-09
2.9966e-08
7.78525e-08
1.13472e-09
1.13175e-09
1.13441e-09
7.78342e-08
2.99551e-08
7.78379e-08
1.15305e-09
1.15678e-09
1.14566e-09
1.15641e-09
2.9952e-08
7.78509e-08
1.13554e-09
1.1516e-09
1.13912e-09
1.15387e-09
1.1491e-09
1.13766e-09
1.14892e-09
2.9966e-08
7.78526e-08
1.13475e-09
1.13185e-09
1.13458e-09
7.78345e-08
2.99553e-08
7.78384e-08
1.15283e-09
1.1566e-09
1.14537e-09
1.15615e-09
2.99522e-08
7.78511e-08
1.13529e-09
1.15144e-09
1.13882e-09
1.15361e-09
1.14875e-09
1.13751e-09
1.14895e-09
2.99662e-08
7.78528e-08
1.13458e-09
1.13121e-09
1.13383e-09
7.78344e-08
2.99551e-08
7.78384e-08
1.15272e-09
1.15653e-09
1.14531e-09
1.15613e-09
2.9952e-08
7.78512e-08
1.13519e-09
1.15133e-09
1.13878e-09
1.15361e-09
1.14904e-09
1.1374e-09
1.14861e-09
2.9966e-08
7.78529e-08
1.13615e-09
1.13138e-09
1.13395e-09
7.78347e-08
2.99552e-08
7.78377e-08
1.15268e-09
1.15637e-09
1.14568e-09
1.15648e-09
2.99521e-08
7.78505e-08
1.13517e-09
1.1512e-09
1.13913e-09
1.15395e-09
1.14845e-09
1.13774e-09
1.14906e-09
2.99661e-08
7.78522e-08
1.13402e-09
1.13173e-09
1.13446e-09
7.78342e-08
2.99551e-08
7.78382e-08
1.15313e-09
1.15694e-09
1.14543e-09
1.15625e-09
2.99521e-08
7.78512e-08
1.13562e-09
1.15177e-09
1.13889e-09
1.15371e-09
1.14885e-09
1.13742e-09
1.14884e-09
2.9966e-08
7.78529e-08
1.13441e-09
1.13136e-09
1.13388e-09
7.78348e-08
2.99554e-08
7.78374e-08
1.15253e-09
1.15623e-09
1.14508e-09
1.15591e-09
2.99523e-08
7.78509e-08
1.13499e-09
1.15104e-09
1.1388e-09
1.15341e-09
1.14854e-09
1.13731e-09
1.14857e-09
2.99663e-08
7.78526e-08
1.13467e-09
1.13132e-09
1.13424e-09
7.78343e-08
2.99552e-08
7.78383e-08
1.1526e-09
1.15639e-09
1.14562e-09
1.15643e-09
2.99521e-08
7.78505e-08
1.13482e-09
1.15124e-09
1.13979e-09
1.15388e-09
1.14871e-09
1.13761e-09
1.14905e-09
2.99661e-08
7.78522e-08
1.13453e-09
1.13162e-09
1.13468e-09
7.7834e-08
2.99551e-08
7.78384e-08
1.15318e-09
1.15686e-09
1.14564e-09
1.15641e-09
2.99521e-08
7.78504e-08
1.13463e-09
1.15178e-09
1.13974e-09
1.154e-09
1.1493e-09
1.13763e-09
1.14951e-09
2.99661e-08
7.78521e-08
1.1351e-09
1.13177e-09
1.1351e-09
7.78337e-08
2.99554e-08
7.78388e-08
1.15294e-09
1.15657e-09
1.14487e-09
1.15544e-09
2.99524e-08
7.78507e-08
1.13422e-09
1.15165e-09
1.13868e-09
1.15343e-09
1.14928e-09
1.13658e-09
1.14887e-09
2.99663e-08
7.78528e-08
1.13505e-09
1.13083e-09
1.13438e-09
7.78341e-08
2.99553e-08
7.78379e-08
1.15251e-09
1.15604e-09
1.14441e-09
1.15498e-09
2.99521e-08
7.78504e-08
1.13339e-09
1.15173e-09
1.13754e-09
1.15534e-09
1.14991e-09
1.1353e-09
1.14957e-09
2.99659e-08
7.78534e-08
1.1356e-09
1.13249e-09
1.13437e-09
7.7835e-08
2.9955e-08
7.78374e-08
1.15184e-09
1.15524e-09
1.14484e-09
1.15549e-09
2.99518e-08
7.78497e-08
1.13193e-09
1.15392e-09
1.13758e-09
1.15126e-09
1.15097e-09
1.13488e-09
1.14802e-09
2.99659e-08
7.78472e-08
1.13502e-09
1.11341e-09
1.12929e-09
7.78301e-08
2.99547e-08
7.78364e-08
1.15326e-09
1.15672e-09
1.14707e-09
1.15819e-09
2.99514e-08
7.78485e-08
1.13354e-09
1.14901e-09
1.14082e-09
1.15399e-09
1.14748e-09
1.13892e-09
1.1481e-09
2.99677e-08
7.78488e-08
1.13138e-09
1.12489e-09
1.12603e-09
7.783e-08
2.99546e-08
7.78356e-08
1.15421e-09
1.15787e-09
1.14596e-09
1.15678e-09
2.99515e-08
7.78477e-08
1.13524e-09
1.15111e-09
1.14004e-09
1.15373e-09
1.14742e-09
1.1379e-09
1.14919e-09
2.99649e-08
7.78495e-08
1.13029e-09
1.12901e-09
1.12686e-09
7.7832e-08
2.99542e-08
7.78357e-08
1.15333e-09
1.1569e-09
1.14578e-09
1.15667e-09
2.99511e-08
7.78478e-08
1.13457e-09
1.15135e-09
1.13987e-09
1.15385e-09
1.14873e-09
1.13791e-09
1.14824e-09
2.99647e-08
7.78495e-08
1.13829e-09
1.1317e-09
1.13393e-09
7.78319e-08
2.99541e-08
7.78358e-08
1.15336e-09
1.15695e-09
1.14509e-09
1.15577e-09
2.99511e-08
7.78482e-08
1.13477e-09
1.15151e-09
1.1393e-09
1.15317e-09
1.14873e-09
1.13713e-09
1.14852e-09
2.9965e-08
7.78499e-08
1.14438e-09
1.13186e-09
1.13427e-09
7.78308e-08
2.99541e-08
7.78356e-08
1.15279e-09
1.15637e-09
1.14552e-09
1.15624e-09
2.9951e-08
7.78478e-08
1.13424e-09
1.15121e-09
1.13971e-09
1.15366e-09
1.14846e-09
1.13739e-09
1.14877e-09
2.9965e-08
7.78495e-08
1.13446e-09
1.13191e-09
1.13457e-09
7.78306e-08
2.99541e-08
7.78365e-08
1.15276e-09
1.15643e-09
1.14504e-09
1.15576e-09
2.9951e-08
7.78485e-08
1.13424e-09
1.15131e-09
1.13927e-09
1.15317e-09
1.14888e-09
1.13697e-09
1.14824e-09
2.9965e-08
7.78503e-08
1.13429e-09
1.13159e-09
1.13417e-09
7.78312e-08
2.99539e-08
7.78357e-08
1.15269e-09
1.15615e-09
1.14534e-09
1.15618e-09
2.99509e-08
7.7848e-08
1.13417e-09
1.15101e-09
1.13952e-09
1.15358e-09
1.1481e-09
1.13748e-09
1.14908e-09
2.99649e-08
7.78497e-08
1.1336e-09
1.13216e-09
1.1351e-09
7.78303e-08
2.99539e-08
7.78358e-08
1.15275e-09
1.15674e-09
1.14552e-09
1.15606e-09
2.99508e-08
7.78479e-08
1.13425e-09
1.15163e-09
1.13973e-09
1.15341e-09
1.14919e-09
1.13732e-09
1.14854e-09
2.99647e-08
7.78496e-08
1.13439e-09
1.1329e-09
1.13476e-09
7.78307e-08
2.9954e-08
7.78362e-08
1.15289e-09
1.15639e-09
1.14529e-09
1.15608e-09
2.99509e-08
7.78483e-08
1.13436e-09
1.15127e-09
1.1395e-09
1.15351e-09
1.14881e-09
1.13741e-09
1.14873e-09
2.99649e-08
7.785e-08
1.13445e-09
1.13142e-09
1.13432e-09
7.78311e-08
2.99538e-08
7.78367e-08
1.15287e-09
1.15639e-09
1.1452e-09
1.15609e-09
2.99508e-08
7.78487e-08
1.13437e-09
1.15125e-09
1.13943e-09
1.15352e-09
1.14881e-09
1.13745e-09
1.14869e-09
2.99648e-08
7.78504e-08
1.13454e-09
1.13149e-09
1.13429e-09
7.78314e-08
2.99538e-08
7.78362e-08
1.15256e-09
1.15638e-09
1.14554e-09
1.15625e-09
2.99507e-08
7.78483e-08
1.13405e-09
1.15125e-09
1.13973e-09
1.15367e-09
1.14877e-09
1.13754e-09
1.14889e-09
2.99647e-08
7.785e-08
1.13451e-09
1.13157e-09
1.1345e-09
7.78309e-08
2.9954e-08
7.78362e-08
1.15285e-09
1.15662e-09
1.1455e-09
1.15631e-09
2.99509e-08
7.78482e-08
1.13436e-09
1.15149e-09
1.13972e-09
1.15376e-09
1.14895e-09
1.13736e-09
1.14897e-09
2.99649e-08
7.78499e-08
1.13469e-09
1.13141e-09
1.13457e-09
7.78306e-08
2.99539e-08
7.78361e-08
1.15267e-09
1.15633e-09
1.14527e-09
1.15625e-09
2.99508e-08
7.78484e-08
1.13415e-09
1.15119e-09
1.14005e-09
1.15369e-09
1.14885e-09
1.13753e-09
1.14887e-09
2.99648e-08
7.78501e-08
1.1346e-09
1.13153e-09
1.13448e-09
7.7831e-08
2.99538e-08
7.78365e-08
1.15308e-09
1.1568e-09
1.14548e-09
1.15605e-09
2.99509e-08
7.78484e-08
1.13517e-09
1.15173e-09
1.13845e-09
1.15352e-09
1.1494e-09
1.13733e-09
1.14868e-09
2.99648e-08
7.785e-08
1.13515e-09
1.13138e-09
1.13429e-09
7.7831e-08
2.99537e-08
7.78364e-08
1.15258e-09
1.15611e-09
1.14525e-09
1.15598e-09
2.99509e-08
7.78478e-08
1.13493e-09
1.15097e-09
1.13835e-09
1.15344e-09
1.14853e-09
1.13726e-09
1.14851e-09
2.99648e-08
7.78495e-08
1.13428e-09
1.13128e-09
1.13412e-09
7.78304e-08
2.99538e-08
7.78358e-08
1.15265e-09
1.15654e-09
1.14553e-09
1.15652e-09
2.99509e-08
7.78475e-08
1.13503e-09
1.15141e-09
1.13861e-09
1.15448e-09
1.14913e-09
1.1376e-09
1.14894e-09
2.99649e-08
7.78487e-08
1.13488e-09
1.13166e-09
1.13454e-09
7.78301e-08
2.99538e-08
7.7837e-08
1.15307e-09
1.15684e-09
1.14517e-09
1.15592e-09
2.9951e-08
7.78488e-08
1.13542e-09
1.15311e-09
1.13825e-09
1.15639e-09
1.14887e-09
1.137e-09
1.14833e-09
2.99644e-08
7.78706e-08
1.13461e-09
1.13142e-09
1.13395e-09
7.78317e-08
2.99536e-08
7.78355e-08
1.15266e-09
1.15631e-09
1.14577e-09
1.15645e-09
2.99508e-08
7.78472e-08
1.13509e-09
1.14821e-09
1.13881e-09
1.15688e-09
1.14887e-09
1.13764e-09
1.14906e-09
2.99596e-08
7.78689e-08
1.13463e-09
1.13208e-09
1.13465e-09
7.78298e-08
2.99539e-08
7.78363e-08
1.15331e-09
1.15675e-09
1.14541e-09
1.15608e-09
2.99511e-08
7.78479e-08
1.13567e-09
1.14862e-09
1.13847e-09
1.15653e-09
1.14917e-09
1.1375e-09
1.14867e-09
2.99599e-08
7.78698e-08
1.13492e-09
1.1321e-09
1.1344e-09
7.78303e-08
2.99541e-08
7.78365e-08
1.1524e-09
1.15634e-09
1.14576e-09
1.15615e-09
2.99511e-08
7.7848e-08
1.13476e-09
1.14826e-09
1.13872e-09
1.1581e-09
1.14897e-09
1.1374e-09
1.14885e-09
2.99599e-08
7.78685e-08
1.1346e-09
1.13218e-09
1.13437e-09
7.78305e-08
2.99538e-08
7.78363e-08
1.15298e-09
1.1566e-09
1.1458e-09
1.15686e-09
2.99509e-08
7.78478e-08
1.13526e-09
1.14899e-09
1.13862e-09
1.15422e-09
1.14886e-09
1.13775e-09
1.14982e-09
2.99637e-08
7.78559e-08
1.13455e-09
1.13189e-09
1.13545e-09
7.78304e-08
2.99537e-08
7.78353e-08
1.15434e-09
1.15795e-09
1.16691e-09
1.17732e-09
2.99511e-08
7.78459e-08
1.13664e-09
1.15204e-09
1.1636e-09
1.17916e-09
1.15223e-09
1.15909e-09
1.17054e-09
2.99653e-08
7.78477e-08
1.13801e-09
1.1555e-09
1.15522e-09
7.78273e-08
2.99583e-08
7.77777e-08
1.20338e-09
1.20085e-09
1.71959e-09
1.70924e-09
2.99543e-08
7.77768e-08
1.16258e-09
1.20142e-09
1.73706e-09
1.74729e-09
1.19849e-09
1.6843e-09
1.6653e-09
2.9967e-08
7.77781e-08
1.18116e-09
1.71249e-09
1.68648e-09
7.77282e-08
3.0075e-08
7.58983e-08
2.36909e-09
2.41006e-09
1.55646e-08
1.54714e-08
3.00724e-08
7.59113e-08
2.41361e-09
2.37402e-09
1.55699e-08
1.55892e-08
2.35381e-09
1.54524e-08
1.55453e-08
3.00782e-08
7.59205e-08
2.38647e-09
1.55596e-08
1.54886e-08
7.58771e-08
3.11983e-08
1.37682e-07
3.49978e-08
3.49524e-08
2.31356e-07
2.31464e-07
3.12654e-08
1.37669e-07
3.51147e-08
3.51425e-08
2.31807e-07
2.31654e-07
3.5077e-08
2.3171e-07
2.31585e-07
3.11918e-08
1.37712e-07
3.51825e-08
2.31775e-07
2.31877e-07
1.37685e-07
1.21932e-07
1.0653e-07
1.06504e-07
1.21888e-07
1.06557e-07
1.06559e-07
2.17921e-07
2.18029e-07
2.18042e-07
1.06564e-07
1.2196e-07
1.06594e-07
7.77621e-08
1.73561e-07
1.26029e-07
1.26105e-07
2.22916e-07
2.02957e-07
7.58578e-08
1.49949e-07
2.22806e-07
2.02997e-07
1.49939e-07
7.5823e-08
2.2622e-07
1.03904e-07
1.0382e-07
2.99307e-07
0.00011761
2.46943e-07
0.000121974
0.000249844
0.000256986
2.9956e-07
0.000117629
2.46236e-07
0.000121994
3.14028e-07
3.13943e-07
3.1402e-07
4.28674e-08
4.28068e-08
4.28538e-08
4.29028e-08
8.56291e-08
1.71498e-07
3.19193e-07
2.00182e-07
1.16438e-07
4.36094e-07
1.79456e-07
0.000249836
0.000256971
8.57218e-08
3.19175e-07
1.71401e-07
1.99971e-07
1.16268e-07
1.79395e-07
4.3605e-07
7.1274e-07
7.12832e-07
8.36095e-08
9.31462e-07
9.31997e-07
3.13225e-07
0.000121956
3.11131e-07
0.000121957
0.000256912
0.000256908
3.13289e-07
0.000121974
3.11157e-07
0.000121976
1.98741e-08
1.98766e-08
1.98999e-08
2.2782e-09
2.28098e-09
2.28127e-09