/*--------------------------------*- C++ -*----------------------------------*\
| =========                 |                                                 |
| \\      /  F ield         | OpenFOAM: The Open Source CFD Toolbox           |
|  \\    /   O peration     | Version:  v1912                                 |
|   \\  /    A nd           | Website:  www.openfoam.com                      |
|    \\/     M anipulation  |                                                 |
\*---------------------------------------------------------------------------*/
FoamFile
{
    version     2.0;
    format      ascii;
    class       volScalarField;
    location    "0.15";
    object      p;
}
// * * * * * * * * * * * * * * * * * * * * * * * * * * * * * * * * * * * * * //

dimensions      [0 2 -2 0 0 0 0];


internalField   nonuniform List<scalar> 
171728
(
0.0221196
0.0221231
0.0221231
0.0221413
0.0218826
0.0218826
0.0218826
0.021897
0.0216485
0.0216485
0.0216485
0.0216629
0.0214143
0.0214143
0.0214143
0.0214287
0.0211802
0.0211801
0.0211801
0.0211946
0.020946
0.020946
0.020946
0.0209604
0.0207118
0.0207118
0.0207118
0.0207263
0.0204777
0.0204777
0.0204777
0.0204921
0.0202435
0.0202435
0.0202435
0.0202579
0.0200094
0.0200093
0.0200093
0.0200238
0.0197752
0.0197752
0.0197752
0.0197896
0.019541
0.019541
0.019541
0.0195555
0.0193069
0.0193069
0.0193069
0.0193213
0.0190727
0.0190727
0.0190727
0.0190871
0.0188386
0.0188385
0.0188385
0.018853
0.0186044
0.0186044
0.0186044
0.0186188
0.0183702
0.0183702
0.0183702
0.0183846
0.0181361
0.0181361
0.0181361
0.0181505
0.0179019
0.0179019
0.0179019
0.0179163
0.0176678
0.0176677
0.0176677
0.0176822
0.0174336
0.0174336
0.0174336
0.017448
0.0171994
0.0171994
0.0171994
0.0172138
0.0169653
0.0169652
0.0169652
0.0169797
0.0167311
0.0167311
0.0167311
0.0167455
0.0164969
0.0164969
0.0164969
0.0165114
0.0162628
0.0162628
0.0162628
0.0162772
0.0160286
0.0160286
0.0160286
0.016043
0.0157945
0.0157944
0.0157944
0.0158089
0.0155603
0.0155603
0.0155603
0.0155747
0.0153261
0.0153261
0.0153261
0.0153406
0.015092
0.015092
0.015092
0.0151064
0.0148578
0.0148578
0.0148578
0.0148722
0.0146237
0.0146236
0.0146236
0.0146381
0.0143895
0.0143895
0.0143895
0.0144039
0.0141553
0.0141553
0.0141553
0.0141698
0.0139212
0.0139212
0.0139212
0.0139356
0.013687
0.013687
0.013687
0.0137014
0.0134529
0.0134528
0.0134528
0.0134673
0.0132187
0.0132187
0.0132187
0.0132331
0.0129845
0.0129845
0.0129845
0.0129989
0.0127504
0.0127504
0.0127504
0.0127648
0.0125162
0.0125162
0.0125162
0.0125306
0.0122821
0.012282
0.012282
0.0122965
0.0120479
0.0120479
0.0120479
0.0120623
0.0118137
0.0118137
0.0118137
0.0118281
0.0115796
0.0115795
0.0115795
0.011594
0.0113454
0.0113454
0.0113454
0.0113598
0.0111112
0.0111112
0.0111112
0.0111257
0.0108771
0.0108771
0.0108771
0.0108915
0.0106429
0.0106429
0.0106429
0.0106573
0.0104088
0.0104087
0.0104087
0.0104232
0.0101746
0.0101746
0.0101746
0.010189
0.00994044
0.00994042
0.00994042
0.00995486
0.00970628
0.00970626
0.00970626
0.00972069
0.00947212
0.0094721
0.0094721
0.00948653
0.00923796
0.00923794
0.00923794
0.00925237
0.0090038
0.00900378
0.00900378
0.00901821
0.00876964
0.00876962
0.00876962
0.00878405
0.00853548
0.00853546
0.00853546
0.00854989
0.00830132
0.00830129
0.0083013
0.00831573
0.00806716
0.00806713
0.00806714
0.00808157
0.007833
0.00783297
0.00783297
0.00784741
0.00759884
0.00759881
0.00759881
0.00761325
0.00736468
0.00736465
0.00736465
0.00737909
0.00713051
0.00713049
0.00713049
0.00714493
0.00689635
0.00689633
0.00689633
0.00691076
0.00666219
0.00666217
0.00666217
0.0066766
0.00642803
0.00642801
0.00642801
0.00644244
0.00619387
0.00619385
0.00619385
0.00620828
0.00595971
0.00595969
0.00595969
0.00597412
0.00572555
0.00572553
0.00572553
0.00573996
0.00549139
0.00549137
0.00549137
0.0055058
0.00525723
0.0052572
0.00525721
0.00527164
0.00502307
0.00502304
0.00502304
0.00503748
0.00478891
0.00478888
0.00478888
0.00480332
0.00455475
0.00455472
0.00455472
0.00456916
0.00432059
0.00432056
0.00432056
0.004335
0.00408643
0.0040864
0.0040864
0.00410084
0.00385226
0.00385224
0.00385224
0.00386668
0.0036181
0.00361808
0.00361808
0.00363251
0.00338394
0.00338392
0.00338392
0.00339835
0.00314978
0.00314976
0.00314976
0.00316419
0.00291562
0.0029156
0.0029156
0.00293003
0.00268146
0.00268144
0.00268144
0.00269587
0.0024473
0.00244728
0.00244728
0.00246171
0.00221314
0.00221312
0.00221312
0.00222755
0.00197898
0.00197896
0.00197896
0.00199339
0.00174482
0.0017448
0.0017448
0.00175923
0.00151066
0.00151064
0.00151064
0.00152507
0.0012765
0.00127648
0.00127648
0.00129091
0.00104234
0.00104231
0.00104232
0.00105675
0.000808174
0.000808154
0.000808154
0.000822589
0.00057403
0.000574002
0.000574003
0.000588436
0.000340286
0.000340098
0.000340093
0.000354296
0.000109532
0.000122398
0.0001224
0.000123222
0.0221764
0.022172
0.022172
0.0221764
0.022172
0.022172
0.0221773
0.0221773
0.0221773
0.0221773
0.022172
0.022172
0.0221764
0.022172
0.022172
0.0221764
0.0221413
0.0219268
0.0221231
0.0221231
0.0219411
0.0219411
0.0221413
0.0219268
0.0221231
0.0221231
0.0219411
0.0219411
0.0221231
0.0219411
0.0219411
0.0221413
0.0219268
0.0221231
0.0219411
0.0219411
0.0219268
0.0218971
0.0216926
0.0218826
0.0218826
0.021707
0.021707
0.021897
0.0216926
0.0218826
0.0218826
0.021707
0.021707
0.0218826
0.021707
0.021707
0.0218971
0.0216926
0.0218826
0.021707
0.021707
0.0216926
0.0216629
0.0214584
0.0216485
0.0216485
0.0214728
0.0214728
0.0216629
0.0214584
0.0216485
0.0216485
0.0214728
0.0214728
0.0216485
0.0214728
0.0214728
0.0216629
0.0214584
0.0216485
0.0214728
0.0214728
0.0214584
0.0214287
0.0212243
0.0214143
0.0214143
0.0212387
0.0212387
0.0214287
0.0212243
0.0214143
0.0214143
0.0212387
0.0212387
0.0214143
0.0212387
0.0212387
0.0214287
0.0212243
0.0214143
0.0212387
0.0212387
0.0212243
0.0211946
0.0209901
0.0211801
0.0211801
0.0210045
0.0210045
0.0211946
0.0209901
0.0211801
0.0211801
0.0210045
0.0210045
0.0211801
0.0210045
0.0210045
0.0211946
0.0209901
0.0211801
0.0210045
0.0210045
0.0209901
0.0209604
0.0207559
0.020946
0.020946
0.0207704
0.0207704
0.0209604
0.0207559
0.020946
0.020946
0.0207704
0.0207704
0.020946
0.0207704
0.0207704
0.0209604
0.0207559
0.020946
0.0207704
0.0207704
0.0207559
0.0207263
0.0205218
0.0207118
0.0207118
0.0205362
0.0205362
0.0207263
0.0205218
0.0207118
0.0207118
0.0205362
0.0205362
0.0207118
0.0205362
0.0205362
0.0207263
0.0205218
0.0207118
0.0205362
0.0205362
0.0205218
0.0204921
0.0202876
0.0204777
0.0204777
0.020302
0.020302
0.0204921
0.0202876
0.0204777
0.0204777
0.020302
0.020302
0.0204777
0.020302
0.020302
0.0204921
0.0202876
0.0204777
0.020302
0.020302
0.0202876
0.0202579
0.0200535
0.0202435
0.0202435
0.0200679
0.0200679
0.0202579
0.0200535
0.0202435
0.0202435
0.0200679
0.0200679
0.0202435
0.0200679
0.0200679
0.0202579
0.0200535
0.0202435
0.0200679
0.0200679
0.0200535
0.0200238
0.0198193
0.0200093
0.0200093
0.0198337
0.0198337
0.0200238
0.0198193
0.0200093
0.0200093
0.0198337
0.0198337
0.0200093
0.0198337
0.0198337
0.0200238
0.0198193
0.0200093
0.0198337
0.0198337
0.0198193
0.0197896
0.0195851
0.0197752
0.0197752
0.0195996
0.0195996
0.0197896
0.0195851
0.0197752
0.0197752
0.0195996
0.0195996
0.0197752
0.0195996
0.0195996
0.0197896
0.0195851
0.0197752
0.0195996
0.0195996
0.0195851
0.0195555
0.019351
0.019541
0.019541
0.0193654
0.0193654
0.0195555
0.019351
0.019541
0.019541
0.0193654
0.0193654
0.019541
0.0193654
0.0193654
0.0195555
0.019351
0.019541
0.0193654
0.0193654
0.019351
0.0193213
0.0191168
0.0193069
0.0193069
0.0191312
0.0191312
0.0193213
0.0191168
0.0193069
0.0193069
0.0191312
0.0191312
0.0193069
0.0191312
0.0191312
0.0193213
0.0191168
0.0193069
0.0191312
0.0191312
0.0191168
0.0190871
0.0188827
0.0190727
0.0190727
0.0188971
0.0188971
0.0190871
0.0188827
0.0190727
0.0190727
0.0188971
0.0188971
0.0190727
0.0188971
0.0188971
0.0190871
0.0188827
0.0190727
0.0188971
0.0188971
0.0188827
0.018853
0.0186485
0.0188385
0.0188385
0.0186629
0.0186629
0.018853
0.0186485
0.0188385
0.0188385
0.0186629
0.0186629
0.0188385
0.0186629
0.0186629
0.018853
0.0186485
0.0188385
0.0186629
0.0186629
0.0186485
0.0186188
0.0184143
0.0186044
0.0186044
0.0184288
0.0184288
0.0186188
0.0184143
0.0186044
0.0186044
0.0184288
0.0184288
0.0186044
0.0184288
0.0184288
0.0186188
0.0184143
0.0186044
0.0184288
0.0184288
0.0184143
0.0183847
0.0181802
0.0183702
0.0183702
0.0181946
0.0181946
0.0183847
0.0181802
0.0183702
0.0183702
0.0181946
0.0181946
0.0183702
0.0181946
0.0181946
0.0183847
0.0181802
0.0183702
0.0181946
0.0181946
0.0181802
0.0181505
0.017946
0.0181361
0.0181361
0.0179604
0.0179604
0.0181505
0.017946
0.0181361
0.0181361
0.0179604
0.0179604
0.0181361
0.0179604
0.0179604
0.0181505
0.017946
0.0181361
0.0179604
0.0179604
0.017946
0.0179163
0.0177118
0.0179019
0.0179019
0.0177263
0.0177263
0.0179163
0.0177118
0.0179019
0.0179019
0.0177263
0.0177263
0.0179019
0.0177263
0.0177263
0.0179163
0.0177118
0.0179019
0.0177263
0.0177263
0.0177119
0.0176822
0.0174777
0.0176677
0.0176677
0.0174921
0.0174921
0.0176822
0.0174777
0.0176677
0.0176677
0.0174921
0.0174921
0.0176677
0.0174921
0.0174921
0.0176822
0.0174777
0.0176677
0.0174921
0.0174921
0.0174777
0.017448
0.0172435
0.0174336
0.0174336
0.0172579
0.0172579
0.017448
0.0172435
0.0174336
0.0174336
0.0172579
0.0172579
0.0174336
0.0172579
0.0172579
0.017448
0.0172435
0.0174336
0.0172579
0.0172579
0.0172435
0.0172138
0.0170094
0.0171994
0.0171994
0.0170238
0.0170238
0.0172138
0.0170094
0.0171994
0.0171994
0.0170238
0.0170238
0.0171994
0.0170238
0.0170238
0.0172138
0.0170094
0.0171994
0.0170238
0.0170238
0.0170094
0.0169797
0.0167752
0.0169652
0.0169652
0.0167896
0.0167896
0.0169797
0.0167752
0.0169652
0.0169652
0.0167896
0.0167896
0.0169652
0.0167896
0.0167896
0.0169797
0.0167752
0.0169652
0.0167896
0.0167896
0.0167752
0.0167455
0.016541
0.0167311
0.0167311
0.0165555
0.0165555
0.0167455
0.016541
0.0167311
0.0167311
0.0165555
0.0165555
0.0167311
0.0165555
0.0165555
0.0167455
0.016541
0.0167311
0.0165555
0.0165555
0.016541
0.0165114
0.0163069
0.0164969
0.0164969
0.0163213
0.0163213
0.0165114
0.0163069
0.0164969
0.0164969
0.0163213
0.0163213
0.0164969
0.0163213
0.0163213
0.0165114
0.0163069
0.0164969
0.0163213
0.0163213
0.0163069
0.0162772
0.0160727
0.0162628
0.0162628
0.0160871
0.0160871
0.0162772
0.0160727
0.0162628
0.0162628
0.0160871
0.0160871
0.0162628
0.0160871
0.0160871
0.0162772
0.0160727
0.0162628
0.0160871
0.0160871
0.0160727
0.016043
0.0158386
0.0160286
0.0160286
0.015853
0.015853
0.016043
0.0158386
0.0160286
0.0160286
0.015853
0.015853
0.0160286
0.015853
0.015853
0.016043
0.0158386
0.0160286
0.015853
0.015853
0.0158386
0.0158089
0.0156044
0.0157944
0.0157944
0.0156188
0.0156188
0.0158089
0.0156044
0.0157944
0.0157944
0.0156188
0.0156188
0.0157944
0.0156188
0.0156188
0.0158089
0.0156044
0.0157944
0.0156188
0.0156188
0.0156044
0.0155747
0.0153702
0.0155603
0.0155603
0.0153847
0.0153847
0.0155747
0.0153702
0.0155603
0.0155603
0.0153847
0.0153847
0.0155603
0.0153847
0.0153847
0.0155747
0.0153702
0.0155603
0.0153847
0.0153847
0.0153702
0.0153406
0.0151361
0.0153261
0.0153261
0.0151505
0.0151505
0.0153406
0.0151361
0.0153261
0.0153261
0.0151505
0.0151505
0.0153261
0.0151505
0.0151505
0.0153406
0.0151361
0.0153261
0.0151505
0.0151505
0.0151361
0.0151064
0.0149019
0.015092
0.015092
0.0149163
0.0149163
0.0151064
0.0149019
0.015092
0.015092
0.0149163
0.0149163
0.015092
0.0149163
0.0149163
0.0151064
0.0149019
0.015092
0.0149163
0.0149163
0.0149019
0.0148722
0.0146678
0.0148578
0.0148578
0.0146822
0.0146822
0.0148722
0.0146678
0.0148578
0.0148578
0.0146822
0.0146822
0.0148578
0.0146822
0.0146822
0.0148722
0.0146678
0.0148578
0.0146822
0.0146822
0.0146678
0.0146381
0.0144336
0.0146236
0.0146236
0.014448
0.014448
0.0146381
0.0144336
0.0146236
0.0146236
0.014448
0.014448
0.0146236
0.014448
0.014448
0.0146381
0.0144336
0.0146236
0.014448
0.014448
0.0144336
0.0144039
0.0141994
0.0143895
0.0143895
0.0142139
0.0142139
0.0144039
0.0141994
0.0143895
0.0143895
0.0142139
0.0142139
0.0143895
0.0142139
0.0142139
0.0144039
0.0141994
0.0143895
0.0142139
0.0142139
0.0141994
0.0141698
0.0139653
0.0141553
0.0141553
0.0139797
0.0139797
0.0141698
0.0139653
0.0141553
0.0141553
0.0139797
0.0139797
0.0141553
0.0139797
0.0139797
0.0141698
0.0139653
0.0141553
0.0139797
0.0139797
0.0139653
0.0139356
0.0137311
0.0139212
0.0139212
0.0137455
0.0137455
0.0139356
0.0137311
0.0139212
0.0139212
0.0137455
0.0137455
0.0139212
0.0137455
0.0137455
0.0139356
0.0137311
0.0139212
0.0137455
0.0137455
0.0137311
0.0137014
0.013497
0.013687
0.013687
0.0135114
0.0135114
0.0137014
0.013497
0.013687
0.013687
0.0135114
0.0135114
0.013687
0.0135114
0.0135114
0.0137014
0.013497
0.013687
0.0135114
0.0135114
0.013497
0.0134673
0.0132628
0.0134528
0.0134528
0.0132772
0.0132772
0.0134673
0.0132628
0.0134528
0.0134528
0.0132772
0.0132772
0.0134528
0.0132772
0.0132772
0.0134673
0.0132628
0.0134528
0.0132772
0.0132772
0.0132628
0.0132331
0.0130286
0.0132187
0.0132187
0.0130431
0.0130431
0.0132331
0.0130286
0.0132187
0.0132187
0.0130431
0.0130431
0.0132187
0.0130431
0.0130431
0.0132331
0.0130286
0.0132187
0.0130431
0.0130431
0.0130286
0.012999
0.0127945
0.0129845
0.0129845
0.0128089
0.0128089
0.012999
0.0127945
0.0129845
0.0129845
0.0128089
0.0128089
0.0129845
0.0128089
0.0128089
0.012999
0.0127945
0.0129845
0.0128089
0.0128089
0.0127945
0.0127648
0.0125603
0.0127504
0.0127504
0.0125747
0.0125747
0.0127648
0.0125603
0.0127504
0.0127504
0.0125747
0.0125747
0.0127504
0.0125747
0.0125747
0.0127648
0.0125603
0.0127504
0.0125747
0.0125747
0.0125603
0.0125306
0.0123262
0.0125162
0.0125162
0.0123406
0.0123406
0.0125306
0.0123262
0.0125162
0.0125162
0.0123406
0.0123406
0.0125162
0.0123406
0.0123406
0.0125306
0.0123262
0.0125162
0.0123406
0.0123406
0.0123262
0.0122965
0.012092
0.012282
0.012282
0.0121064
0.0121064
0.0122965
0.012092
0.012282
0.012282
0.0121064
0.0121064
0.012282
0.0121064
0.0121064
0.0122965
0.012092
0.012282
0.0121064
0.0121064
0.012092
0.0120623
0.0118578
0.0120479
0.0120479
0.0118722
0.0118722
0.0120623
0.0118578
0.0120479
0.0120479
0.0118722
0.0118722
0.0120479
0.0118722
0.0118722
0.0120623
0.0118578
0.0120479
0.0118722
0.0118722
0.0118578
0.0118281
0.0116237
0.0118137
0.0118137
0.0116381
0.0116381
0.0118281
0.0116237
0.0118137
0.0118137
0.0116381
0.0116381
0.0118137
0.0116381
0.0116381
0.0118281
0.0116237
0.0118137
0.0116381
0.0116381
0.0116237
0.011594
0.0113895
0.0115795
0.0115795
0.0114039
0.0114039
0.011594
0.0113895
0.0115795
0.0115795
0.0114039
0.0114039
0.0115795
0.0114039
0.0114039
0.011594
0.0113895
0.0115795
0.0114039
0.0114039
0.0113895
0.0113598
0.0111553
0.0113454
0.0113454
0.0111698
0.0111698
0.0113598
0.0111553
0.0113454
0.0113454
0.0111698
0.0111698
0.0113454
0.0111698
0.0111698
0.0113598
0.0111553
0.0113454
0.0111698
0.0111698
0.0111553
0.0111257
0.0109212
0.0111112
0.0111112
0.0109356
0.0109356
0.0111257
0.0109212
0.0111112
0.0111112
0.0109356
0.0109356
0.0111112
0.0109356
0.0109356
0.0111257
0.0109212
0.0111112
0.0109356
0.0109356
0.0109212
0.0108915
0.010687
0.0108771
0.0108771
0.0107014
0.0107014
0.0108915
0.010687
0.0108771
0.0108771
0.0107014
0.0107014
0.0108771
0.0107014
0.0107014
0.0108915
0.010687
0.0108771
0.0107014
0.0107014
0.010687
0.0106573
0.0104529
0.0106429
0.0106429
0.0104673
0.0104673
0.0106573
0.0104529
0.0106429
0.0106429
0.0104673
0.0104673
0.0106429
0.0104673
0.0104673
0.0106573
0.0104529
0.0106429
0.0104673
0.0104673
0.0104529
0.0104232
0.0102187
0.0104087
0.0104087
0.0102331
0.0102331
0.0104232
0.0102187
0.0104087
0.0104087
0.0102331
0.0102331
0.0104087
0.0102331
0.0102331
0.0104232
0.0102187
0.0104087
0.0102331
0.0102331
0.0102187
0.010189
0.00998454
0.0101746
0.0101746
0.00999896
0.00999896
0.010189
0.00998454
0.0101746
0.0101746
0.00999896
0.00999896
0.0101746
0.00999896
0.00999896
0.010189
0.00998454
0.0101746
0.00999896
0.00999896
0.00998454
0.00995486
0.00975038
0.00994042
0.00994042
0.0097648
0.0097648
0.00995486
0.00975038
0.00994042
0.00994042
0.0097648
0.0097648
0.00994042
0.0097648
0.0097648
0.00995486
0.00975038
0.00994042
0.0097648
0.0097648
0.00975038
0.0097207
0.00951622
0.00970626
0.00970626
0.00953064
0.00953064
0.0097207
0.00951622
0.00970626
0.00970626
0.00953064
0.00953064
0.00970626
0.00953064
0.00953064
0.0097207
0.00951622
0.00970626
0.00953064
0.00953064
0.00951622
0.00948654
0.00928206
0.0094721
0.0094721
0.00929648
0.00929648
0.00948654
0.00928206
0.0094721
0.0094721
0.00929648
0.00929648
0.0094721
0.00929648
0.00929648
0.00948654
0.00928206
0.0094721
0.00929648
0.00929648
0.00928206
0.00925238
0.0090479
0.00923794
0.00923794
0.00906232
0.00906232
0.00925237
0.0090479
0.00923794
0.00923794
0.00906232
0.00906232
0.00923794
0.00906232
0.00906232
0.00925238
0.0090479
0.00923794
0.00906232
0.00906232
0.0090479
0.00901821
0.00881374
0.00900378
0.00900378
0.00882816
0.00882816
0.00901821
0.00881374
0.00900378
0.00900378
0.00882816
0.00882816
0.00900378
0.00882816
0.00882816
0.00901821
0.00881374
0.00900378
0.00882816
0.00882816
0.00881374
0.00878405
0.00857958
0.00876962
0.00876962
0.008594
0.008594
0.00878405
0.00857958
0.00876962
0.00876962
0.008594
0.008594
0.00876962
0.008594
0.008594
0.00878405
0.00857958
0.00876962
0.008594
0.008594
0.00857958
0.00854989
0.00834542
0.00853546
0.00853546
0.00835984
0.00835984
0.00854989
0.00834542
0.00853546
0.00853546
0.00835984
0.00835984
0.00853546
0.00835984
0.00835983
0.00854989
0.00834542
0.00853545
0.00835984
0.00835983
0.00834542
0.00831573
0.00811126
0.0083013
0.00830129
0.00812567
0.00812567
0.00831573
0.00811125
0.0083013
0.0083013
0.00812568
0.00812568
0.00830129
0.00812567
0.00812567
0.00831573
0.00811126
0.00830129
0.00812568
0.00812567
0.00811126
0.00808157
0.00787709
0.00806714
0.00806713
0.00789151
0.00789151
0.00808157
0.00787709
0.00806713
0.00806714
0.00789151
0.00789151
0.00806713
0.00789151
0.00789151
0.00808157
0.00787709
0.00806713
0.00789151
0.00789151
0.0078771
0.00784741
0.00764293
0.00783297
0.00783297
0.00765735
0.00765735
0.00784741
0.00764293
0.00783297
0.00783297
0.00765735
0.00765735
0.00783297
0.00765735
0.00765735
0.00784741
0.00764293
0.00783297
0.00765735
0.00765735
0.00764293
0.00761325
0.00740877
0.00759881
0.00759881
0.00742319
0.00742319
0.00761325
0.00740877
0.00759881
0.00759881
0.00742319
0.00742319
0.00759881
0.00742319
0.00742319
0.00761325
0.00740877
0.00759881
0.00742319
0.00742319
0.00740877
0.00737909
0.00717461
0.00736465
0.00736465
0.00718903
0.00718903
0.00737909
0.00717461
0.00736465
0.00736465
0.00718903
0.00718903
0.00736465
0.00718903
0.00718903
0.00737909
0.00717461
0.00736465
0.00718903
0.00718903
0.00717461
0.00714493
0.00694045
0.00713049
0.00713049
0.00695487
0.00695487
0.00714493
0.00694045
0.00713049
0.00713049
0.00695487
0.00695487
0.00713049
0.00695487
0.00695487
0.00714493
0.00694045
0.00713049
0.00695487
0.00695487
0.00694045
0.00691077
0.00670629
0.00689633
0.00689633
0.00672071
0.00672071
0.00691077
0.00670629
0.00689633
0.00689633
0.00672071
0.00672071
0.00689633
0.00672071
0.00672071
0.00691077
0.00670629
0.00689633
0.00672071
0.00672071
0.00670629
0.00667661
0.00647213
0.00666217
0.00666217
0.00648655
0.00648655
0.00667661
0.00647213
0.00666217
0.00666217
0.00648655
0.00648655
0.00666217
0.00648655
0.00648655
0.00667661
0.00647213
0.00666217
0.00648655
0.00648655
0.00647213
0.00644245
0.00623797
0.00642801
0.00642801
0.00625239
0.00625239
0.00644245
0.00623797
0.00642801
0.00642801
0.00625239
0.00625239
0.00642801
0.00625239
0.00625239
0.00644245
0.00623797
0.00642801
0.00625239
0.00625239
0.00623797
0.00620829
0.00600381
0.00619385
0.00619385
0.00601823
0.00601823
0.00620828
0.00600381
0.00619385
0.00619385
0.00601823
0.00601823
0.00619385
0.00601823
0.00601822
0.00620828
0.00600381
0.00619385
0.00601823
0.00601823
0.00600381
0.00597412
0.00576965
0.00595969
0.00595969
0.00578407
0.00578407
0.00597412
0.00576965
0.00595969
0.00595969
0.00578407
0.00578407
0.00595968
0.00578407
0.00578406
0.00597412
0.00576965
0.00595969
0.00578407
0.00578407
0.00576965
0.00573996
0.00553549
0.00572553
0.00572553
0.00554991
0.00554991
0.00573996
0.00553549
0.00572553
0.00572553
0.00554991
0.00554991
0.00572553
0.00554991
0.00554991
0.00573996
0.00553549
0.00572553
0.00554991
0.00554991
0.00553549
0.0055058
0.00530133
0.00549137
0.00549137
0.00531575
0.00531574
0.0055058
0.00530132
0.00549137
0.00549137
0.00531575
0.00531575
0.00549136
0.00531574
0.00531574
0.0055058
0.00530133
0.00549136
0.00531575
0.00531574
0.00530133
0.00527164
0.00506716
0.00525721
0.0052572
0.00508158
0.00508158
0.00527164
0.00506716
0.00525721
0.00525721
0.00508158
0.00508158
0.0052572
0.00508158
0.00508158
0.00527164
0.00506716
0.0052572
0.00508158
0.00508158
0.00506717
0.00503748
0.004833
0.00502304
0.00502304
0.00484742
0.00484742
0.00503748
0.004833
0.00502304
0.00502304
0.00484742
0.00484742
0.00502304
0.00484742
0.00484742
0.00503748
0.004833
0.00502304
0.00484742
0.00484742
0.004833
0.00480332
0.00459884
0.00478888
0.00478888
0.00461326
0.00461326
0.00480332
0.00459884
0.00478888
0.00478888
0.00461326
0.00461326
0.00478888
0.00461326
0.00461326
0.00480332
0.00459884
0.00478888
0.00461326
0.00461326
0.00459884
0.00456916
0.00436468
0.00455472
0.00455472
0.0043791
0.0043791
0.00456916
0.00436468
0.00455472
0.00455472
0.0043791
0.0043791
0.00455472
0.0043791
0.0043791
0.00456916
0.00436468
0.00455472
0.0043791
0.0043791
0.00436468
0.004335
0.00413052
0.00432056
0.00432056
0.00414494
0.00414494
0.004335
0.00413052
0.00432056
0.00432056
0.00414494
0.00414494
0.00432056
0.00414494
0.00414494
0.004335
0.00413052
0.00432056
0.00414494
0.00414494
0.00413052
0.00410084
0.00389636
0.0040864
0.0040864
0.00391078
0.00391078
0.00410084
0.00389636
0.0040864
0.0040864
0.00391078
0.00391078
0.0040864
0.00391078
0.00391078
0.00410084
0.00389636
0.0040864
0.00391078
0.00391078
0.00389636
0.00386668
0.0036622
0.00385224
0.00385224
0.00367662
0.00367662
0.00386668
0.0036622
0.00385224
0.00385224
0.00367662
0.00367662
0.00385224
0.00367662
0.00367662
0.00386668
0.0036622
0.00385224
0.00367662
0.00367662
0.0036622
0.00363252
0.00342804
0.00361808
0.00361808
0.00344246
0.00344246
0.00363252
0.00342804
0.00361808
0.00361808
0.00344246
0.00344246
0.00361808
0.00344246
0.00344246
0.00363252
0.00342804
0.00361808
0.00344246
0.00344246
0.00342804
0.00339836
0.00319388
0.00338392
0.00338392
0.0032083
0.0032083
0.00339836
0.00319388
0.00338392
0.00338392
0.0032083
0.0032083
0.00338392
0.0032083
0.0032083
0.00339836
0.00319388
0.00338392
0.0032083
0.0032083
0.00319388
0.0031642
0.00295972
0.00314976
0.00314976
0.00297414
0.00297414
0.0031642
0.00295972
0.00314976
0.00314976
0.00297414
0.00297414
0.00314976
0.00297414
0.00297414
0.0031642
0.00295972
0.00314976
0.00297414
0.00297414
0.00295972
0.00293004
0.00272556
0.0029156
0.0029156
0.00273998
0.00273998
0.00293004
0.00272556
0.0029156
0.0029156
0.00273998
0.00273998
0.0029156
0.00273998
0.00273998
0.00293004
0.00272556
0.0029156
0.00273998
0.00273998
0.00272556
0.00269588
0.0024914
0.00268144
0.00268144
0.00250582
0.00250582
0.00269588
0.0024914
0.00268144
0.00268144
0.00250582
0.00250582
0.00268144
0.00250582
0.00250582
0.00269588
0.0024914
0.00268144
0.00250582
0.00250582
0.0024914
0.00246172
0.00225724
0.00244728
0.00244728
0.00227166
0.00227166
0.00246172
0.00225724
0.00244728
0.00244728
0.00227166
0.00227166
0.00244728
0.00227166
0.00227166
0.00246172
0.00225724
0.00244728
0.00227166
0.00227166
0.00225724
0.00222756
0.00202308
0.00221312
0.00221312
0.0020375
0.0020375
0.00222756
0.00202308
0.00221312
0.00221312
0.0020375
0.0020375
0.00221312
0.0020375
0.0020375
0.00222756
0.00202308
0.00221312
0.0020375
0.0020375
0.00202308
0.0019934
0.00178892
0.00197896
0.00197896
0.00180334
0.00180334
0.00199339
0.00178892
0.00197896
0.00197896
0.00180334
0.00180334
0.00197896
0.00180334
0.00180334
0.0019934
0.00178892
0.00197896
0.00180334
0.00180334
0.00178892
0.00175923
0.00155476
0.0017448
0.0017448
0.00156918
0.00156918
0.00175923
0.00155476
0.0017448
0.0017448
0.00156918
0.00156918
0.0017448
0.00156918
0.00156918
0.00175924
0.00155476
0.0017448
0.00156918
0.00156918
0.00155476
0.00152507
0.0013206
0.00151064
0.00151064
0.00133502
0.00133502
0.00152507
0.0013206
0.00151064
0.00151064
0.00133502
0.00133502
0.00151064
0.00133502
0.00133502
0.00152507
0.0013206
0.00151064
0.00133502
0.00133501
0.0013206
0.00129091
0.00108644
0.00127648
0.00127648
0.00110086
0.00110085
0.00129091
0.00108643
0.00127648
0.00127648
0.00110086
0.00110086
0.00127647
0.00110085
0.00110085
0.00129091
0.00108644
0.00127647
0.00110086
0.00110085
0.00108644
0.00105675
0.000852274
0.00104232
0.00104231
0.000866694
0.000866694
0.00105675
0.000852274
0.00104232
0.00104232
0.000866694
0.000866694
0.00104231
0.000866694
0.000866694
0.00105675
0.000852275
0.00104231
0.000866694
0.000866694
0.000852276
0.000822591
0.000618116
0.000808153
0.000808154
0.000632537
0.000632538
0.000822591
0.000618119
0.000808155
0.000808153
0.000632537
0.000632537
0.000808154
0.000632538
0.000632539
0.000822591
0.000618118
0.000808154
0.000632538
0.000632538
0.000618121
0.000588435
0.000384048
0.000574001
0.000574003
0.00039849
0.000398488
0.000588435
0.000384047
0.000574002
0.000574003
0.000398489
0.000398488
0.000574003
0.000398491
0.000398487
0.000588436
0.000384044
0.000574003
0.000398492
0.000398492
0.000384047
0.000354303
0.000151597
0.000340097
0.000340093
0.000166089
0.000166084
0.000354304
0.000151594
0.000340091
0.000340087
0.000166084
0.000166081
0.000340088
0.000166085
0.000166083
0.000354288
0.000151597
0.000340094
0.000166086
0.00016608
0.000151592
0.000123228
0.0001224
0.000122395
0.000123224
0.000122397
0.000122396
0.000109531
0.00010953
0.000109529
0.000122396
0.000123228
0.000122393
0.0222069
0.0222487
0.0222256
0.0222256
0.02231
0.0222652
0.0223807
0.0222387
0.02231
0.0222652
0.0222388
0.0223806
0.0222842
0.0224006
0.0224007
0.0220433
0.0221429
0.0221413
0.0220425
0.0220686
0.0220411
0.0220433
0.0221429
0.0221413
0.0220425
0.0221196
0.0221196
0.0221196
0.0219412
0.0219412
0.0219412
0.0219412
0.0220444
0.022144
0.0221211
0.0220598
0.022141
0.0220438
0.0220595
0.0220687
0.0220412
0.0220444
0.0221211
0.0221441
0.0220598
0.022141
0.0220595
0.0220438
0.022144
0.0221439
0.0220453
0.0220433
0.0220433
0.0218095
0.0218973
0.0218973
0.0218095
0.0218973
0.0218095
0.0218095
0.0218973
0.0218973
0.0218095
0.0218826
0.0218826
0.0218826
0.021707
0.021707
0.021707
0.021707
0.0218097
0.0218971
0.0218826
0.0218241
0.021897
0.0218099
0.0218241
0.0218973
0.0218095
0.0218097
0.0218826
0.0218971
0.0218241
0.021897
0.0218241
0.0218099
0.0218973
0.0218973
0.0218096
0.0218096
0.0218096
0.0215754
0.0216631
0.0216631
0.0215754
0.0216631
0.0215753
0.0215754
0.0216631
0.0216631
0.0215754
0.0216485
0.0216485
0.0216485
0.0214729
0.0214729
0.0214729
0.0214729
0.0215756
0.0216628
0.0216485
0.0215899
0.0216628
0.0215756
0.0215899
0.0216631
0.0215753
0.0215756
0.0216485
0.0216628
0.0215899
0.0216628
0.0215899
0.0215757
0.0216631
0.0216631
0.0215755
0.0215754
0.0215754
0.0213412
0.0214289
0.0214289
0.0213412
0.0214289
0.0213412
0.0213412
0.0214289
0.0214289
0.0213412
0.0214143
0.0214143
0.0214143
0.0212387
0.0212387
0.0212387
0.0212387
0.0213414
0.0214286
0.0214143
0.0213558
0.0214287
0.0213415
0.0213558
0.0214289
0.0213412
0.0213414
0.0214143
0.0214286
0.0213558
0.0214287
0.0213558
0.0213415
0.0214289
0.0214289
0.0213413
0.0213412
0.0213412
0.021107
0.0211947
0.0211947
0.021107
0.0211948
0.021107
0.021107
0.0211947
0.0211947
0.021107
0.0211802
0.0211802
0.0211802
0.0210045
0.0210045
0.0210045
0.0210045
0.0211073
0.0211944
0.0211801
0.0211216
0.0211945
0.0211073
0.0211216
0.0211947
0.021107
0.0211073
0.0211801
0.0211944
0.0211216
0.0211945
0.0211216
0.0211073
0.0211947
0.0211947
0.0211072
0.021107
0.021107
0.0208729
0.0209606
0.0209606
0.0208729
0.0209606
0.0208728
0.0208729
0.0209606
0.0209606
0.0208729
0.020946
0.020946
0.020946
0.0207704
0.0207704
0.0207704
0.0207704
0.0208731
0.0209603
0.020946
0.0208874
0.0209604
0.0208732
0.0208874
0.0209606
0.0208729
0.0208731
0.020946
0.0209603
0.0208874
0.0209604
0.0208874
0.0208732
0.0209606
0.0209606
0.020873
0.0208729
0.0208729
0.0206387
0.0207264
0.0207264
0.0206387
0.0207264
0.0206387
0.0206387
0.0207264
0.0207264
0.0206387
0.0207118
0.0207118
0.0207118
0.0205362
0.0205362
0.0205362
0.0205362
0.0206389
0.0207261
0.0207118
0.0206533
0.0207262
0.020639
0.0206533
0.0207264
0.0206387
0.0206389
0.0207118
0.0207261
0.0206533
0.0207262
0.0206533
0.020639
0.0207264
0.0207264
0.0206389
0.0206387
0.0206387
0.0204045
0.0204923
0.0204923
0.0204045
0.0204923
0.0204045
0.0204046
0.0204923
0.0204923
0.0204045
0.0204777
0.0204777
0.0204777
0.0203021
0.0203021
0.0203021
0.0203021
0.0204048
0.020492
0.0204777
0.0204191
0.020492
0.0204048
0.0204191
0.0204923
0.0204045
0.0204048
0.0204777
0.020492
0.0204191
0.020492
0.0204191
0.0204048
0.0204923
0.0204923
0.0204047
0.0204046
0.0204046
0.0201704
0.0202581
0.0202581
0.0201704
0.0202581
0.0201704
0.0201704
0.0202581
0.0202581
0.0201704
0.0202435
0.0202435
0.0202435
0.0200679
0.0200679
0.0200679
0.0200679
0.0201706
0.0202578
0.0202435
0.020185
0.0202579
0.0201707
0.020185
0.0202581
0.0201704
0.0201706
0.0202435
0.0202578
0.020185
0.0202579
0.020185
0.0201707
0.0202581
0.0202581
0.0201705
0.0201704
0.0201704
0.0199362
0.0200239
0.0200239
0.0199362
0.0200239
0.0199362
0.0199362
0.0200239
0.0200239
0.0199362
0.0200094
0.0200094
0.0200094
0.0198337
0.0198337
0.0198337
0.0198337
0.0199365
0.0200236
0.0200093
0.0199508
0.0200237
0.0199365
0.0199508
0.0200239
0.0199362
0.0199365
0.0200093
0.0200236
0.0199508
0.0200237
0.0199508
0.0199365
0.0200239
0.0200239
0.0199364
0.0199362
0.0199362
0.0197021
0.0197898
0.0197898
0.0197021
0.0197898
0.0197021
0.0197021
0.0197898
0.0197898
0.0197021
0.0197752
0.0197752
0.0197752
0.0195996
0.0195996
0.0195996
0.0195996
0.0197023
0.0197895
0.0197752
0.0197166
0.0197896
0.0197024
0.0197166
0.0197898
0.0197021
0.0197023
0.0197752
0.0197895
0.0197166
0.0197896
0.0197166
0.0197024
0.0197898
0.0197898
0.0197022
0.0197021
0.0197021
0.0194679
0.0195556
0.0195556
0.0194679
0.0195556
0.0194679
0.0194679
0.0195556
0.0195556
0.0194679
0.019541
0.019541
0.019541