/*--------------------------------*- C++ -*----------------------------------*\
| =========                 |                                                 |
| \\      /  F ield         | OpenFOAM: The Open Source CFD Toolbox           |
|  \\    /   O peration     | Version:  v1906                                 |
|   \\  /    A nd           | Web:      www.OpenFOAM.com                      |
|    \\/     M anipulation  |                                                 |
\*---------------------------------------------------------------------------*/
FoamFile
{
    version     2.0;
    format      ascii;
    class       volScalarField;
    location    "400";
    object      epsilon;
}
// * * * * * * * * * * * * * * * * * * * * * * * * * * * * * * * * * * * * * //

dimensions      [0 2 -3 0 0 0 0];


internalField   nonuniform List<scalar> 
43024
(
6.63877e-07
1.18881e-06
1.18886e-06
1.42099e-06
6.68978e-07
1.19095e-06
1.19101e-06
1.42313e-06
6.73547e-07
1.19263e-06
1.19271e-06
1.42492e-06
6.77615e-07
1.19389e-06
1.194e-06
1.4264e-06
6.81212e-07
1.19478e-06
1.19489e-06
1.42755e-06
6.8437e-07
1.19532e-06
1.19545e-06
1.42842e-06
6.87125e-07
1.19559e-06
1.19572e-06
1.42911e-06
6.89509e-07
1.1956e-06
1.19572e-06
1.42963e-06
6.91552e-07
1.19544e-06
1.19556e-06
1.42993e-06
6.93284e-07
1.19512e-06
1.19521e-06
1.43005e-06
6.94734e-07
1.19461e-06
1.19469e-06
1.43002e-06
6.95919e-07
1.19395e-06
1.19401e-06
1.42985e-06
6.96852e-07
1.19313e-06
1.19319e-06
1.42951e-06
6.97536e-07
1.19215e-06
1.19222e-06
1.42927e-06
6.97966e-07
1.19101e-06
1.19109e-06
1.42862e-06
6.98141e-07
1.1897e-06
1.18982e-06
1.42777e-06
6.98092e-07
1.18826e-06
1.18839e-06
1.42678e-06
6.97881e-07
1.18669e-06
1.18681e-06
1.42564e-06
6.97469e-07
1.18503e-06
1.18515e-06
1.42442e-06
6.96631e-07
1.18303e-06
1.18314e-06
1.42238e-06
6.78621e-07
1.12662e-06
1.12665e-06
1.38054e-06
1.41886e-06
1.18827e-06
1.18829e-06
1.41878e-06
1.18818e-06
1.1883e-06
1.18817e-06
1.18828e-06
1.41886e-06
1.18821e-06
1.18819e-06
1.41885e-06
1.421e-06
1.42112e-06
1.18891e-06
1.18892e-06
1.19053e-06
1.19054e-06
1.42092e-06
1.42103e-06
1.18882e-06
1.18894e-06
1.19044e-06
1.19056e-06
1.18891e-06
1.19041e-06
1.19052e-06
1.42099e-06
1.42112e-06
1.18882e-06
1.19047e-06
1.19043e-06
1.42108e-06
1.42319e-06
1.42299e-06
1.19105e-06
1.19106e-06
1.19232e-06
1.19233e-06
1.42311e-06
1.4229e-06
1.19096e-06
1.19108e-06
1.19223e-06
1.19236e-06
1.19104e-06
1.19219e-06
1.1923e-06
1.4232e-06
1.423e-06
1.19095e-06
1.19227e-06
1.19222e-06
1.42297e-06
1.42498e-06
1.4245e-06
1.19274e-06
1.19275e-06
1.19369e-06
1.1937e-06
1.42491e-06
1.42442e-06
1.19265e-06
1.19278e-06
1.1936e-06
1.19374e-06
1.19272e-06
1.19355e-06
1.19365e-06
1.425e-06
1.42453e-06
1.19264e-06
1.19364e-06
1.19358e-06
1.42449e-06
1.42644e-06
1.42571e-06
1.19402e-06
1.19403e-06
1.19468e-06
1.19468e-06
1.42636e-06
1.42557e-06
1.19393e-06
1.19407e-06
1.19458e-06
1.19473e-06
1.19398e-06
1.19453e-06
1.19463e-06
1.42647e-06
1.4257e-06
1.19391e-06
1.19464e-06
1.19458e-06
1.42573e-06
1.42759e-06
1.42673e-06
1.19491e-06
1.19492e-06
1.19532e-06
1.19533e-06
1.42758e-06
1.4264e-06
1.19481e-06
1.19497e-06
1.19522e-06
1.19539e-06
1.19487e-06
1.19517e-06
1.19528e-06
1.42769e-06
1.42653e-06
1.19482e-06
1.1953e-06
1.19524e-06
1.4267e-06
1.4284e-06
1.42712e-06
1.19546e-06
1.19547e-06
1.19566e-06
1.19569e-06
1.4286e-06
1.42709e-06
1.19536e-06
1.19552e-06
1.19556e-06
1.19574e-06
1.19542e-06
1.19552e-06
1.19565e-06
1.42869e-06
1.42747e-06
1.19538e-06
1.19565e-06
1.19561e-06
1.42742e-06
1.42935e-06
1.42761e-06
1.19571e-06
1.19574e-06
1.19574e-06
1.19578e-06
1.42928e-06
1.42759e-06
1.19561e-06
1.19579e-06
1.19564e-06
1.19582e-06
1.1957e-06
1.19561e-06
1.19576e-06
1.42911e-06
1.42797e-06
1.19567e-06
1.19573e-06
1.19573e-06
1.42798e-06
1.42977e-06
1.42788e-06
1.19572e-06
1.19576e-06
1.19559e-06
1.19564e-06
1.42976e-06
1.4279e-06
1.19562e-06
1.19581e-06
1.19549e-06
1.19568e-06
1.19575e-06
1.19549e-06
1.19565e-06
1.4296e-06
1.42827e-06
1.19572e-06
1.1956e-06
1.19562e-06
1.42833e-06
1.43002e-06
1.42798e-06
1.19553e-06
1.19558e-06
1.19525e-06
1.19532e-06
1.43004e-06
1.42801e-06
1.19544e-06
1.19563e-06
1.19516e-06
1.19536e-06
1.19561e-06
1.19519e-06
1.19536e-06
1.42988e-06
1.42837e-06
1.19557e-06
1.19528e-06
1.19531e-06
1.42847e-06
1.4301e-06
1.42793e-06
1.19515e-06
1.19523e-06
1.19474e-06
1.19482e-06
1.4301e-06
1.42825e-06
1.19508e-06
1.19527e-06
1.19466e-06
1.19487e-06
1.19528e-06
1.1947e-06
1.19492e-06
1.42997e-06
1.42804e-06
1.19525e-06
1.19478e-06
1.19484e-06
1.42845e-06
1.43003e-06
1.42774e-06
1.19463e-06
1.19471e-06
1.19409e-06
1.19418e-06
1.42984e-06
1.42807e-06
1.19456e-06
1.19476e-06
1.19403e-06
1.19423e-06
1.1948e-06
1.19407e-06
1.19432e-06
1.43016e-06
1.42787e-06
1.19474e-06
1.19414e-06
1.19421e-06
1.42829e-06
1.42982e-06
1.42741e-06
1.19393e-06
1.19403e-06
1.19329e-06
1.19339e-06
1.42964e-06
1.42745e-06
1.19389e-06
1.19408e-06
1.19323e-06
1.19344e-06
1.19417e-06
1.19329e-06
1.19357e-06
1.42995e-06
1.42754e-06
1.19409e-06
1.19335e-06
1.19343e-06
1.42798e-06
1.4295e-06
1.42724e-06
1.19314e-06
1.19321e-06
1.19233e-06
1.19244e-06
1.42956e-06
1.42693e-06
1.1931e-06
1.19329e-06
1.1923e-06
1.19249e-06
1.19339e-06
1.19234e-06
1.19265e-06
1.42959e-06
1.42706e-06
1.19329e-06
1.19241e-06
1.1925e-06
1.42719e-06
1.42884e-06
1.42632e-06
1.19217e-06
1.19223e-06
1.19124e-06
1.19132e-06
1.42896e-06
1.42624e-06
1.19215e-06
1.19233e-06
1.19122e-06
1.19138e-06
1.19244e-06
1.19122e-06
1.19155e-06
1.42907e-06
1.42662e-06
1.1923e-06
1.19129e-06
1.1914e-06
1.42655e-06
1.42832e-06
1.42551e-06
1.19104e-06
1.19109e-06
1.19001e-06
1.19004e-06
1.42825e-06
1.42541e-06
1.19102e-06
1.19122e-06
1.18999e-06
1.19011e-06
1.19131e-06
1.18994e-06
1.19027e-06
1.42813e-06
1.42583e-06
1.19116e-06
1.19e-06
1.19012e-06
1.42571e-06
1.42751e-06
1.42459e-06
1.18976e-06
1.18978e-06
1.1886e-06
1.18861e-06
1.4274e-06
1.42446e-06
1.18975e-06
1.18995e-06
1.18855e-06
1.18868e-06
1.19001e-06
1.1885e-06
1.18882e-06
1.42734e-06
1.42489e-06
1.18986e-06
1.18855e-06
1.18867e-06
1.42474e-06
1.42658e-06
1.42352e-06
1.18834e-06
1.18835e-06
1.18704e-06
1.18704e-06
1.42643e-06
1.42338e-06
1.18836e-06
1.18853e-06
1.18698e-06
1.18712e-06
1.18855e-06
1.18692e-06
1.1872e-06
1.42639e-06
1.42381e-06
1.1884e-06
1.18698e-06
1.18706e-06
1.42362e-06
1.42549e-06
1.42232e-06
1.18681e-06
1.1868e-06
1.18536e-06
1.18535e-06
1.42533e-06
1.42217e-06
1.1868e-06
1.18695e-06
1.18531e-06
1.18545e-06
1.18696e-06
1.18521e-06
1.18545e-06
1.4253e-06
1.42261e-06
1.18682e-06
1.1853e-06
1.18532e-06
1.42235e-06
1.4243e-06
1.42078e-06
1.18518e-06
1.18516e-06
1.18319e-06
1.18317e-06
1.42414e-06
1.42085e-06
1.18515e-06
1.18529e-06
1.18314e-06
1.18326e-06
1.18525e-06
1.183e-06
1.1832e-06
1.42406e-06
1.42107e-06
1.18512e-06
1.1831e-06
1.18308e-06
1.42106e-06
1.42262e-06
1.40243e-06
1.18321e-06
1.1832e-06
1.1622e-06
1.16217e-06
1.42216e-06
1.40226e-06
1.18316e-06
1.18329e-06
1.1622e-06
1.16218e-06
1.18322e-06
1.1621e-06
1.16213e-06
1.4225e-06
1.40233e-06
1.1831e-06
1.16215e-06
1.16209e-06
1.40241e-06
1.38063e-06
1.12664e-06
1.12663e-06
1.38051e-06
1.12665e-06
1.12662e-06
6.78645e-07
6.78601e-07
6.78569e-07
1.12654e-06
1.38053e-06
1.12653e-06
4.23932e-06
9.56801e-06
1.90978e-05
4.23946e-06
9.57009e-06
6.62474e-07
6.62472e-07
6.62554e-07
6.62539e-07
2.29598e-06
1.18687e-06
3.64777e-06
9.35354e-07
1.90989e-05
2.29597e-06
1.1869e-06
9.35385e-07
3.64783e-06
1.41757e-06
5.65113e-06
5.65307e-06
4.24166e-06
9.57484e-06
4.24122e-06
9.57952e-06
1.91098e-05
1.91203e-05
4.24179e-06
9.57661e-06
4.2413e-06
9.58165e-06
6.63859e-07
6.63943e-07
6.63918e-07
6.67697e-07
6.67692e-07
6.67779e-07
6.67758e-07
2.2972e-06
3.64972e-06
9.3811e-07
1.18934e-06
2.29711e-06
3.65e-06
9.38891e-07
1.91108e-05
1.91214e-05
2.29721e-06
9.38148e-07
3.64974e-06
1.18939e-06
2.29709e-06
9.38931e-07
3.65007e-06
5.65432e-06
5.65626e-06
1.42001e-06
5.65529e-06
5.65724e-06
4.24371e-06
9.58615e-06
4.24337e-06
9.59065e-06
1.91321e-05
1.91423e-05
4.24387e-06
9.58814e-06
4.24346e-06
9.59267e-06
6.68946e-07
6.69034e-07
6.68998e-07
6.72382e-07
6.7237e-07
6.72462e-07
6.72429e-07
2.29808e-06
3.65176e-06
9.41235e-07
1.19135e-06
2.29809e-06
3.65194e-06
9.41862e-07
1.9133e-05
1.91434e-05
2.29811e-06
9.41286e-07
3.65181e-06
1.19141e-06
2.29811e-06
9.41916e-07
3.65204e-06
5.65833e-06
5.66026e-06
1.42207e-06
5.65923e-06
5.66117e-06
4.24554e-06
9.59676e-06
4.24527e-06
9.60152e-06
1.91538e-05
1.91638e-05
4.24573e-06
9.5991e-06
4.24539e-06
9.60348e-06
6.73503e-07
6.73597e-07
6.73549e-07
6.76556e-07
6.76538e-07
6.76637e-07
6.76593e-07
2.29864e-06
3.65356e-06
9.43818e-07
1.19291e-06
2.29883e-06
3.65364e-06
9.44301e-07
1.91547e-05
1.91648e-05
2.29875e-06
9.43885e-07
3.65363e-06
1.19299e-06
2.29884e-06
9.4437e-07
3.65377e-06
5.66211e-06
5.66404e-06
1.42376e-06
5.66291e-06
5.66487e-06
4.24717e-06
9.60729e-06
4.24696e-06
9.61182e-06
1.91749e-05
1.91847e-05
4.24731e-06
9.60939e-06
4.24705e-06
9.61399e-06
6.77557e-07
6.77658e-07
6.776e-07
6.80252e-07
6.80226e-07
6.80335e-07
6.8028e-07
2.29898e-06
3.65513e-06
9.45898e-07
1.19407e-06
2.29931e-06
3.65513e-06
9.46246e-07
1.91759e-05
1.91858e-05
2.29911e-06
9.45984e-07
3.65521e-06
1.19417e-06
2.29923e-06
9.46335e-07
3.65525e-06
5.66567e-06
5.66766e-06
1.42514e-06
5.66642e-06
5.66845e-06
4.2486e-06
9.61757e-06
4.24846e-06
9.62157e-06
1.91954e-05
1.92049e-05
4.24874e-06
9.61968e-06
4.24853e-06
9.62372e-06
6.8114e-07
6.8125e-07
6.81182e-07
6.83501e-07
6.8347e-07
6.83586e-07
6.83525e-07
2.29907e-06
3.65652e-06
9.47515e-07
1.19487e-06
2.2995e-06
3.65646e-06
9.47748e-07
1.91965e-05
1.92062e-05
2.29922e-06
9.47623e-07
3.65656e-06
1.195e-06
2.2994e-06
9.47859e-07
3.65652e-06
5.66913e-06
5.67115e-06
1.42625e-06
5.66983e-06
5.67187e-06
4.24989e-06
9.62692e-06
4.2498e-06
9.6312e-06
1.92153e-05
1.92246e-05
4.25001e-06
9.62912e-06
4.24986e-06
9.63343e-06
6.84287e-07
6.84405e-07
6.84332e-07
6.86339e-07
6.86304e-07
6.86427e-07
6.86365e-07
2.29898e-06
3.65776e-06
9.48712e-07
1.19537e-06
2.29947e-06
3.65766e-06
9.48856e-07
1.92165e-05
1.92258e-05
2.29915e-06
9.4884e-07
3.65772e-06
1.1955e-06
2.2994e-06
9.48993e-07
3.65763e-06
5.67245e-06
5.67445e-06
1.42706e-06
5.67309e-06
5.67508e-06
4.25105e-06
9.63622e-06
4.251e-06
9.64031e-06
1.92345e-05
1.92434e-05
4.25117e-06
9.63864e-06
4.25106e-06
9.64236e-06
6.87034e-07
6.87158e-07
6.87088e-07
6.88802e-07
6.88768e-07
6.88893e-07
6.8884e-07
2.29878e-06
3.65892e-06
9.4954e-07
1.19559e-06
2.29932e-06
3.65876e-06
9.49619e-07
1.92356e-05
1.92447e-05
2.29894e-06
9.49684e-07
3.65876e-06
1.19572e-06
2.29924e-06
9.49782e-07
3.65862e-06
5.67562e-06
5.67755e-06
1.42764e-06
5.67618e-06
5.6781e-06
4.2521e-06
9.64522e-06
4.2521e-06
9.64877e-06
1.92528e-05
1.92613e-05
4.25229e-06
9.6473e-06
4.25219e-06
9.65125e-06
6.89417e-07
6.89543e-07
6.89484e-07
6.90927e-07
6.90893e-07
6.91017e-07
6.90979e-07
2.29851e-06
3.65997e-06
9.50058e-07
1.19557e-06
2.29909e-06
3.65976e-06
9.50083e-07
1.9254e-05
1.92626e-05
2.29863e-06
9.50209e-07
3.65973e-06
1.19569e-06
2.29898e-06
9.50256e-07
3.65955e-06
5.67859e-06
5.68046e-06
1.42815e-06
5.67904e-06
5.68093e-06
4.25307e-06
9.65361e-06
4.2531e-06
9.65706e-06
1.927e-05
1.92782e-05
4.25335e-06
9.65588e-06
4.25329e-06
9.65934e-06
6.91469e-07
6.91593e-07
6.91552e-07
6.92749e-07
6.92717e-07
6.92838e-07
6.92814e-07
2.29818e-06
3.66088e-06
9.50305e-07
1.19533e-06
2.29879e-06
3.66061e-06
9.50297e-07
1.92713e-05
1.92795e-05
2.29805e-06
9.50454e-07
3.66059e-06
1.19542e-06
2.29863e-06
9.5045e-07
3.66035e-06
5.68129e-06
5.68318e-06
1.42839e-06
5.68165e-06
5.68355e-06
4.25402e-06
9.66125e-06
4.25406e-06
9.66476e-06
1.92862e-05
1.9294e-05
4.25434e-06
9.66393e-06
4.25431e-06
9.66704e-06
6.93211e-07
6.93331e-07
6.93311e-07
6.9428e-07
6.94259e-07
6.94375e-07
6.94373e-07
2.29777e-06
3.66164e-06
9.503e-07
1.19492e-06
2.29814e-06
3.66126e-06
9.50262e-07
1.92874e-05
1.92952e-05
2.29768e-06
9.50443e-07
3.66142e-06
1.195e-06
2.29838e-06
9.50405e-07
3.66118e-06
5.68387e-06
5.68571e-06
1.42844e-06
5.68418e-06
5.686e-06
4.25491e-06
9.66857e-06
4.25499e-06
9.6716e-06
1.93013e-05
1.93088e-05
4.25521e-06
9.67125e-06
4.25525e-06
9.67407e-06
6.94664e-07
6.94779e-07
6.94781e-07
6.95543e-07
6.9553e-07
6.95641e-07
6.95661e-07
2.29718e-06
3.6622e-06
9.50142e-07
1.19435e-06
2.29782e-06
3.66175e-06
9.50004e-07
1.93023e-05
1.93097e-05
2.29718e-06
9.50267e-07
3.6622e-06
1.19442e-06
2.29784e-06
9.50119e-07
3.66189e-06
5.68633e-06
5.6881e-06
1.42835e-06
5.68647e-06
5.68825e-06
4.25546e-06
9.67534e-06
4.25571e-06
9.6779e-06
1.93152e-05
1.93223e-05
4.25571e-06
9.67739e-06
4.25591e-06
9.68035e-06
6.9585e-07
6.95961e-07
6.95985e-07
6.96549e-07
6.96542e-07
6.96649e-07
6.96691e-07
2.29632e-06
3.66264e-06
9.49807e-07
1.19364e-06
2.29701e-06
3.66209e-06
9.49589e-07
1.93157e-05
1.93228e-05
2.29628e-06
9.49901e-07
3.66279e-06
1.19371e-06
2.29693e-06
9.49672e-07
3.66229e-06
5.68841e-06
5.69017e-06
1.42812e-06
5.68832e-06
5.69009e-06
4.25571e-06
9.68104e-06
4.25605e-06
9.68334e-06
1.93275e-05
1.93344e-05
4.25598e-06
9.68315e-06
4.25626e-06
9.6856e-06
6.96784e-07
6.96891e-07
6.96936e-07
6.97312e-07
6.97302e-07
6.97407e-07
6.97465e-07
2.2954e-06
3.66285e-06
9.49275e-07
1.19278e-06
2.29602e-06
3.66214e-06
9.48977e-07
1.93277e-05
1.93347e-05
2.29538e-06
9.49342e-07
3.66296e-06
1.19284e-06
2.29598e-06
9.49034e-07
3.66228e-06
5.69018e-06
5.69196e-06
1.42773e-06
5.68985e-06
5.69166e-06
4.25587e-06
9.68596e-06
4.25624e-06
9.68815e-06
1.93383e-05
1.93454e-05
4.25614e-06
9.68809e-06
4.25645e-06
9.69026e-06
6.97469e-07
6.97574e-07
6.97633e-07
6.9783e-07
6.9781e-07
6.97912e-07
6.97983e-07
2.29425e-06
3.66289e-06
9.48543e-07
1.19174e-06
2.29512e-06
3.66203e-06
9.48186e-07
1.93384e-05
1.93456e-05
2.29424e-06
9.48578e-07
3.66298e-06
1.19181e-06
2.2951e-06
9.48228e-07
3.66217e-06
5.69175e-06
5.69358e-06
1.42684e-06
5.6911e-06
5.69296e-06
4.25601e-06
9.69028e-06
4.2564e-06
9.69232e-06
1.93477e-05
1.93556e-05
4.25629e-06
9.69235e-06
4.25661e-06
9.69439e-06
6.97908e-07
6.98013e-07
6.9808e-07
6.98092e-07
6.98077e-07
6.98169e-07
6.98242e-07
2.29308e-06
3.66288e-06
9.47607e-07
1.19054e-06
2.29398e-06
3.66179e-06
9.47217e-07
1.93479e-05
1.93559e-05
2.29313e-06
9.47633e-07
3.66299e-06
1.19061e-06
2.29385e-06
9.47234e-07
3.66194e-06
5.69318e-06
5.69506e-06
1.42608e-06
5.69207e-06
5.69397e-06
4.25612e-06
9.69397e-06
4.25654e-06
9.69622e-06
1.93561e-05
1.93653e-05
4.25642e-06
9.69602e-06
4.25678e-06
9.69827e-06
6.98097e-07
6.98199e-07
6.9827e-07
6.98096e-07
6.98062e-07
6.9816e-07
6.98228e-07
2.29187e-06
3.66283e-06
9.46496e-07
1.18918e-06
2.29282e-06
3.66131e-06
9.46043e-07
1.93564e-05
1.93657e-05
2.29186e-06
9.46513e-07
3.66295e-06
1.18923e-06
2.29281e-06
9.46052e-07
3.66147e-06
5.69455e-06
5.69646e-06
1.42518e-06
5.69275e-06
5.69467e-06
4.2562e-06
9.69724e-06
4.25664e-06
9.69998e-06
1.93632e-05
1.93748e-05
4.2565e-06
9.6993e-06
4.25689e-06
9.70204e-06
6.98057e-07
6.98153e-07
6.98221e-07
6.97917e-07
6.97878e-07
6.97973e-07
6.98027e-07
2.29073e-06
3.66275e-06
9.45212e-07
1.18768e-06
2.29148e-06
3.66046e-06
9.44694e-07
1.93636e-05
1.93754e-05
2.29063e-06
9.45221e-07
3.66288e-06
1.18773e-06
2.29151e-06
9.44702e-07
3.66063e-06
5.69592e-06
5.69784e-06
1.42414e-06
5.69306e-06
5.695e-06
4.25639e-06
9.70004e-06
4.25677e-06
9.70392e-06
1.9369e-05
1.93843e-05
4.25667e-06
9.70206e-06
4.25701e-06
9.70594e-06
6.97832e-07
6.97926e-07
6.97977e-07
6.9753e-07
6.97481e-07
6.97575e-07
6.97605e-07
2.28922e-06
3.6627e-06
9.43773e-07
1.18603e-06
2.29018e-06
3.65894e-06
9.43192e-07
1.93697e-05
1.93851e-05
2.28925e-06
9.43784e-07
3.66286e-06
1.18611e-06
2.29023e-06
9.43212e-07
3.65913e-06
5.69727e-06
5.6992e-06
1.42292e-06
5.69293e-06
5.69487e-06
4.25699e-06
9.70228e-06
4.25713e-06
9.70859e-06
1.9374e-05
1.93939e-05
4.25727e-06
9.70427e-06
4.25736e-06
9.71058e-06
6.97414e-07
6.97499e-07
6.97528e-07
6.96602e-07
6.96556e-07
6.9663e-07
6.96631e-07
2.28757e-06
3.66333e-06
9.42221e-07
1.18421e-06
2.28884e-06
3.65748e-06
9.41485e-07
1.93749e-05
1.93949e-05
2.28764e-06
9.42244e-07
3.66358e-06
1.18431e-06
2.28888e-06
9.41516e-07
3.65778e-06
5.69846e-06
5.70039e-06
1.42181e-06
5.69316e-06
5.6951e-06
4.25396e-06
9.70265e-06
4.25749e-06
9.71047e-06
1.93772e-05
1.93963e-05
4.2542e-06
9.7047e-06
4.25785e-06
9.7124e-06
6.96571e-07
6.96642e-07
6.9664e-07
6.86852e-07
6.86796e-07
6.86791e-07
6.86798e-07
2.28176e-06
3.66738e-06
9.40283e-07
1.17942e-06
2.28721e-06
3.6537e-06
9.38676e-07
1.93785e-05
1.93975e-05
2.28191e-06
9.4034e-07
3.66768e-06
1.17951e-06
2.28734e-06
9.38716e-07
3.65396e-06
5.70217e-06
5.70412e-06
1.41737e-06
5.69886e-06
5.70072e-06
3.47842e-06
8.92046e-06
4.2116e-06
5.92084e-06
1.71824e-05
8.58608e-06
3.47862e-06
8.92198e-06
4.21189e-06
5.92184e-06
3.25532e-07
4.95652e-07
4.95609e-07
7.27272e-07
3.32196e-07
5.18274e-07
5.18234e-07
2.20128e-06
3.56691e-06
9.14392e-07
1.07569e-06
2.25131e-06
3.67448e-06
8.53408e-07
1.71823e-05
8.58579e-06
2.20157e-06
9.14411e-07
3.56715e-06
1.0757e-06
2.25158e-06
8.53388e-07
3.67446e-06
5.64046e-06
5.64284e-06
1.33318e-06
5.27801e-06
5.27896e-06
1.90963e-05
1.90986e-05
1.41761e-06
5.65111e-06
5.65298e-06
1.91075e-05
1.9097e-05
1.91099e-05
1.90994e-05
1.41975e-06
5.65323e-06
5.65509e-06
5.65221e-06
5.65409e-06
4.23941e-06
9.56922e-06
2.29595e-06
1.18697e-06
3.64769e-06
9.35322e-07
2.29601e-06
1.18698e-06
3.64817e-06
9.35361e-07
4.24005e-06
9.57379e-06
9.56909e-06
4.24053e-06
4.24014e-06
9.57498e-06
9.57024e-06
4.24062e-06
2.29644e-06
1.18766e-06
3.64884e-06
9.37171e-07
3.64847e-06
9.36295e-07
2.29662e-06
2.2965e-06
1.18767e-06
3.64933e-06
9.3721e-07
3.64897e-06
9.36331e-07
2.29668e-06
1.41753e-06
5.65284e-06
5.65105e-06
1.90955e-05
1.91091e-05
1.90985e-05
1.41967e-06
5.65497e-06
5.65317e-06
5.65397e-06
5.65228e-06
1.91068e-05
1.90961e-05
2.29608e-06
1.18688e-06
3.64839e-06
9.35403e-07
4.23936e-06
9.56962e-06
2.29599e-06
1.18699e-06
9.35404e-07
3.64823e-06
4.24014e-06
9.57594e-06
9.57082e-06
4.24067e-06
2.29659e-06
1.18757e-06
3.64954e-06
9.37252e-07
3.64922e-06
9.36357e-07
2.29675e-06
4.24004e-06
9.57541e-06
9.57031e-06
4.24057e-06
2.29652e-06
1.18768e-06
9.37253e-07
3.6494e-06
9.36375e-07
3.64908e-06
2.29666e-06
4.23942e-06
9.56903e-06
2.29593e-06
1.18698e-06
9.35371e-07
3.64772e-06
4.23933e-06
9.56901e-06
2.29648e-06
1.18756e-06
3.64893e-06
9.37198e-07
3.64861e-06
9.36329e-07
2.29664e-06
4.24016e-06
9.57481e-06
9.57011e-06
4.24061e-06
2.29641e-06
1.18767e-06
9.37215e-07
3.64888e-06
9.36342e-07
3.64851e-06
2.29659e-06
4.24005e-06
9.57482e-06
9.57008e-06
4.24053e-06
1.4176e-06
5.6529e-06
5.6512e-06
1.90974e-05
1.91102e-05
1.90995e-05
1.41974e-06
5.65502e-06
5.65332e-06
5.65413e-06
5.65231e-06
1.91087e-05
1.90981e-05
2.29601e-06
1.18688e-06
9.35409e-07
3.64836e-06
4.23937e-06
9.56935e-06
4.2394e-06
9.57013e-06
2.29645e-06
1.1876e-06
9.37234e-07
3.64899e-06
9.36363e-07
3.64862e-06
2.29664e-06
2.29649e-06
1.18758e-06
9.37253e-07
3.64952e-06
9.36379e-07
3.64916e-06
2.29668e-06
4.24019e-06
9.57506e-06
9.57032e-06
4.24062e-06
4.24015e-06
9.57593e-06
9.5712e-06
4.24065e-06
1.90973e-05
1.90992e-05
1.41977e-06
5.65324e-06
5.65519e-06
5.65223e-06
5.65418e-06
1.91086e-05
1.9098e-05
1.91105e-05
1.90999e-05
1.91083e-05
1.91187e-05
1.91106e-05
1.91211e-05
5.65429e-06
5.65616e-06
1.42004e-06
5.65527e-06
5.65713e-06
1.91297e-05
1.91194e-05
1.91321e-05
1.91217e-05
1.42215e-06
5.65725e-06
5.65911e-06
5.6563e-06
5.65818e-06
4.24176e-06
9.57604e-06
4.24132e-06
9.58073e-06
2.2972e-06
3.64959e-06
9.3808e-07
1.18945e-06
2.29708e-06
3.64991e-06
9.38877e-07
2.29726e-06
3.6501e-06
9.38115e-07
1.18947e-06
2.29714e-06
3.65041e-06
9.38915e-07
4.24233e-06
9.58513e-06
9.58055e-06
4.24271e-06
4.24242e-06
9.58638e-06
9.58176e-06
4.24282e-06
2.29763e-06
1.19004e-06
3.65091e-06
9.40449e-07
3.65064e-06
9.39721e-07
2.29769e-06
2.29769e-06
1.19005e-06
3.65143e-06
9.40486e-07
3.65116e-06
9.39755e-07
2.29776e-06
5.65607e-06
5.65437e-06
1.41996e-06
5.65701e-06
5.65522e-06
1.91074e-05
1.9118e-05
1.91314e-05
1.9121e-05
1.42207e-06
5.65901e-06
5.65721e-06
5.6581e-06
5.6564e-06
1.91291e-05
1.91186e-05
2.29732e-06
3.65034e-06
9.38139e-07
1.18936e-06
2.29722e-06
3.65062e-06
9.38954e-07
4.2417e-06
9.5761e-06
4.24121e-06
9.58114e-06
2.29724e-06
9.38157e-07
3.65021e-06
1.18948e-06
2.29714e-06
9.38957e-07
3.65048e-06
4.24241e-06
9.58712e-06
9.58248e-06
4.24286e-06
2.29777e-06
1.18995e-06
3.65163e-06
9.40525e-07
3.6514e-06
9.39778e-07
2.29783e-06
4.24232e-06
9.58679e-06
9.58183e-06
4.24277e-06
2.29769e-06
1.19007e-06
9.40528e-07
3.6515e-06
9.39797e-07
3.65128e-06
2.29775e-06
4.24172e-06
9.5759e-06
4.24131e-06
9.58055e-06
2.29716e-06
9.38118e-07
3.64964e-06
1.18945e-06
2.29703e-06
9.38912e-07
3.64995e-06
4.24164e-06
9.57589e-06
4.24121e-06
9.58058e-06
2.29764e-06
1.18993e-06
3.651e-06
9.40452e-07
3.65078e-06
9.39736e-07
2.29769e-06
4.24239e-06
9.58623e-06
9.5816e-06
4.24277e-06
2.29758e-06
1.19004e-06
9.40476e-07
3.65096e-06
9.3975e-07
3.6507e-06
2.29765e-06
4.2423e-06
9.58623e-06
9.58161e-06
4.2427e-06
5.65622e-06
5.65439e-06
1.42004e-06
5.65708e-06
5.65538e-06
1.91094e-05
1.91199e-05
1.91325e-05
1.9122e-05
1.42215e-06
5.65908e-06
5.65738e-06
5.65826e-06
5.65642e-06
1.91309e-05
1.91206e-05
2.29726e-06
9.38159e-07
3.65029e-06
1.18936e-06
2.29712e-06
9.38953e-07
3.6506e-06
4.24177e-06
9.57611e-06
4.24138e-06
9.5808e-06
4.24179e-06
9.57701e-06
4.24135e-06
9.5817e-06
2.29764e-06
1.18999e-06
9.40498e-07
3.65108e-06
9.3978e-07
3.65081e-06
2.2977e-06
2.29768e-06
1.18995e-06
9.4052e-07
3.65161e-06
9.39794e-07
3.65135e-06
2.29775e-06
4.2425e-06
9.58645e-06
9.58183e-06
4.24282e-06
4.24247e-06
9.58736e-06
9.58273e-06
4.24286e-06
1.91093e-05
1.91198e-05
1.91112e-05
1.91217e-05
1.42212e-06
5.65729e-06
5.65924e-06
5.65635e-06
5.65829e-06
1.91309e-05
1.91205e-05
1.91328e-05
1.91224e-05
1.91304e-05
1.91406e-05
1.91328e-05
1.9143e-05
5.65826e-06
5.66013e-06
1.4221e-06
5.65915e-06
5.66104e-06
1.91513e-05
1.91413e-05
1.91538e-05
1.91437e-05
1.42414e-06
5.66101e-06
5.66291e-06
5.66015e-06
5.66204e-06
4.24383e-06
9.58741e-06
4.24346e-06
9.59192e-06
2.2981e-06
3.65163e-06
9.4122e-07
1.19147e-06
2.29811e-06
3.65185e-06
9.41867e-07
2.29818e-06
3.65216e-06
9.41253e-07
1.19148e-06
2.29817e-06
3.65238e-06
9.41903e-07
4.24435e-06
9.59613e-06
9.59162e-06
4.24465e-06
4.24444e-06
9.59737e-06
9.59291e-06
4.24477e-06
2.29851e-06
1.19196e-06
3.65272e-06
9.4317e-07
3.65256e-06
9.42586e-07
2.29843e-06
2.29856e-06
1.19196e-06
3.65327e-06
9.43205e-07
3.6531e-06
9.42618e-07
2.29851e-06
5.66008e-06
5.65837e-06
1.42201e-06
5.66095e-06
5.65914e-06
1.91296e-05
1.914e-05
1.91532e-05
1.9143e-05
1.42405e-06
5.66285e-06
5.66102e-06
5.66201e-06
5.66028e-06
1.91508e-05
1.91405e-05
2.29825e-06
3.65239e-06
9.41274e-07
1.19138e-06
2.29824e-06
3.65257e-06
9.41939e-07
4.24379e-06
9.58743e-06
4.24337e-06
9.59231e-06
2.29817e-06
9.41294e-07
3.65228e-06
1.19151e-06
2.29816e-06
9.41944e-07
3.65246e-06
4.24446e-06
9.59811e-06
9.59368e-06
4.24483e-06
2.29863e-06
1.19186e-06
3.65346e-06
9.43239e-07
3.65332e-06
9.42638e-07
2.29861e-06
4.24437e-06
9.59778e-06
9.59297e-06
4.24475e-06
2.29856e-06
1.19199e-06
9.43246e-07
3.65336e-06
9.42659e-07
3.65323e-06
2.29853e-06
4.24376e-06
9.58694e-06
4.2434e-06
9.59185e-06
2.29806e-06
9.4124e-07
3.6517e-06
1.19146e-06
2.29804e-06
9.41885e-07
3.65191e-06
4.2437e-06
9.58727e-06
4.24334e-06
9.59178e-06
2.29847e-06
1.19184e-06
3.65282e-06
9.43154e-07
3.65269e-06
9.42584e-07
2.29841e-06
4.24437e-06
9.59711e-06
9.59254e-06
4.24469e-06
2.29842e-06
1.19193e-06
9.43178e-07
3.65278e-06
9.42597e-07
3.65262e-06
2.29841e-06
4.24432e-06
9.59722e-06
9.59277e-06
4.24464e-06
5.66024e-06
5.6584e-06
1.42211e-06
5.66102e-06
5.65932e-06
1.91316e-05
1.91418e-05
1.91541e-05
1.9144e-05
1.42415e-06
5.66286e-06
5.66119e-06
5.66216e-06
5.66033e-06
1.91526e-05
1.91425e-05
2.29816e-06
9.41288e-07
3.65235e-06
1.19137e-06
2.29815e-06
9.41933e-07
3.65256e-06
4.24381e-06
9.58748e-06
4.24353e-06
9.59199e-06
4.24386e-06
9.58839e-06
4.24351e-06
9.59291e-06
2.2985e-06
1.19191e-06
9.43215e-07
3.65293e-06
9.42642e-07
3.65275e-06
2.29845e-06
2.29854e-06
1.19185e-06
9.43232e-07
3.65345e-06
9.4265e-07
3.65328e-06
2.29851e-06
4.2445e-06
9.59743e-06
9.59298e-06
4.24475e-06
4.2445e-06
9.59837e-06
9.5939e-06
4.24481e-06
1.91316e-05
1.91419e-05
1.91335e-05
1.91438e-05
1.42407e-06
5.66111e-06
5.66305e-06
5.66025e-06
5.66219e-06
1.91527e-05
1.91425e-05
1.91546e-05
1.91444e-05
1.9152e-05
1.9162e-05
1.91545e-05
1.91645e-05
5.66199e-06
5.66391e-06
1.42379e-06
5.66281e-06
5.66474e-06
1.91724e-05
1.91625e-05
1.9175e-05
1.91651e-05
1.42575e-06
5.66458e-06
5.66651e-06
5.66379e-06
5.66572e-06
4.24565e-06
9.59836e-06
4.24537e-06
9.6027e-06
2.29869e-06
3.65342e-06
9.43819e-07
1.19304e-06
2.29888e-06
3.65355e-06
9.44324e-07
2.29876e-06
3.65398e-06
9.4385e-07
1.19305e-06
2.29892e-06
3.6541e-06
9.44359e-07
4.24615e-06
9.60673e-06
9.60213e-06
4.24638e-06
4.24623e-06
9.60793e-06
9.60365e-06
4.24647e-06
2.29918e-06
1.19343e-06
3.65432e-06
9.45378e-07
3.65423e-06
9.44928e-07
2.2989e-06
2.29926e-06
1.19344e-06
3.65488e-06
9.45413e-07
3.6548e-06
9.4496e-07
2.29896e-06
5.66387e-06
5.66214e-06
1.4237e-06
5.66467e-06
5.66284e-06
1.91513e-05
1.91614e-05
1.91743e-05
1.91644e-05
1.42567e-06
5.66644e-06
5.66461e-06
5.66566e-06
5.66395e-06
1.91719e-05
1.91619e-05
2.29893e-06
3.6542e-06
9.43869e-07
1.19295e-06
2.29895e-06
3.6543e-06
9.44391e-07
4.24565e-06
9.59838e-06
4.24531e-06
9.6031e-06
2.29884e-06
9.4389e-07
3.65411e-06
1.19309e-06
2.29888e-06
9.44398e-07
3.65419e-06
4.24626e-06
9.60882e-06
9.6043e-06
4.24655e-06
2.29919e-06
1.19334e-06
3.65507e-06
9.45444e-07
3.65502e-06
9.44976e-07
2.29914e-06
4.24618e-06
9.60837e-06
9.60372e-06
4.24647e-06
2.29913e-06
1.19348e-06
9.45453e-07
3.65499e-06
9.45e-07
3.65494e-06
2.29907e-06
4.24558e-06
9.59807e-06
4.24529e-06
9.60242e-06
2.29871e-06
9.4382e-07
3.65349e-06
1.19301e-06
2.29873e-06
9.44323e-07
3.6536e-06
4.24554e-06
9.59822e-06
4.24524e-06
9.60256e-06
2.29914e-06
1.1933e-06
3.65441e-06
9.45344e-07
3.65437e-06
9.44908e-07
2.29882e-06
4.24616e-06
9.60765e-06
9.60338e-06
4.24642e-06
2.29898e-06
1.1934e-06
9.45367e-07
3.65437e-06
9.4492e-07
3.65429e-06
2.29893e-06
4.24612e-06
9.60791e-06
9.60346e-06
4.24639e-06
5.664e-06
5.66219e-06
1.42381e-06
5.66468e-06
5.663e-06
1.91532e-05
1.91632e-05
1.91754e-05
1.91653e-05
1.42577e-06
5.66647e-06
5.66477e-06
5.66581e-06
5.66399e-06
1.91737e-05
1.91638e-05
2.29877e-06
9.43879e-07
3.65416e-06
1.19294e-06
2.29888e-06
9.44383e-07
3.65429e-06
4.24564e-06
9.59843e-06
4.24543e-06
9.60278e-06
4.24573e-06
9.59936e-06
4.2455e-06
9.60372e-06
2.29906e-06
1.19339e-06
9.45422e-07
3.65454e-06
9.44983e-07
3.65446e-06
2.29898e-06
2.29917e-06
1.19333e-06
9.45437e-07
3.65507e-06
9.44987e-07
3.65499e-06
2.29901e-06
4.2463e-06
9.60814e-06
9.6036e-06
4.24647e-06
4.24639e-06
9.60909e-06
9.60451e-06
4.24657e-06
1.91534e-05
1.91634e-05
1.91552e-05
1.91652e-05
1.4257e-06
5.66468e-06
5.66668e-06
5.66391e-06
5.66587e-06
1.91739e-05
1.9164e-05
1.91758e-05
1.91658e-05
1.9173e-05
1.91828e-05
1.91756e-05
1.91854e-05
5.66555e-06
5.66749e-06
1.42514e-06
5.66631e-06
5.66823e-06
1.91929e-05
1.91833e-05
1.91956e-05
1.91859e-05
1.42706e-06
5.668e-06
5.66991e-06
5.66727e-06
5.6692e-06
4.24725e-06
9.60888e-06
4.24704e-06
9.61303e-06
2.29905e-06
3.65499e-06
9.45914e-07
1.19421e-06
2.29936e-06
3.65504e-06
9.46287e-07
2.2991e-06
3.65556e-06
9.45944e-07
1.19422e-06
2.29942e-06
3.65559e-06
9.46321e-07
4.24774e-06
9.61668e-06
9.61258e-06
4.24791e-06
4.2478e-06
9.61803e-06
9.61394e-06
4.24798e-06
2.29951e-06
1.19451e-06
3.65571e-06
9.47115e-07
3.65571e-06
9.46788e-07
2.29912e-06
2.29956e-06
1.19452e-06
3.65626e-06
9.47146e-07
3.65627e-06
9.46817e-07
2.29917e-06
5.66743e-06
5.6657e-06
1.42504e-06
5.66818e-06
5.66633e-06
1.91724e-05
1.91823e-05
1.91949e-05
1.91852e-05
1.427e-06
5.66987e-06
5.66802e-06
5.66915e-06
5.66741e-06
1.91925e-05
1.91827e-05
2.29928e-06
3.65578e-06
9.45962e-07
1.19412e-06
2.29936e-06
3.65579e-06
9.46351e-07
4.24723e-06
9.60894e-06
4.24698e-06
9.6135e-06
2.29922e-06
9.45985e-07
3.65572e-06
1.19426e-06
2.2993e-06
9.46361e-07
3.65573e-06
4.24781e-06
9.61886e-06
9.61456e-06
4.24805e-06
2.2995e-06
1.19442e-06
3.65646e-06
9.47177e-07
3.65649e-06
9.46833e-07
2.29936e-06
4.24774e-06
9.61858e-06
9.61409e-06
4.24796e-06
2.29944e-06
1.19456e-06
9.4719e-07
3.65643e-06
9.46859e-07
3.65646e-06
2.29929e-06
4.2472e-06
9.60862e-06
4.24699e-06
9.61278e-06
2.29907e-06
9.45896e-07
3.65505e-06
1.19417e-06
2.29916e-06
9.46267e-07
3.6551e-06
4.24718e-06
9.6085e-06
4.24696e-06
9.61311e-06
2.29944e-06
1.19437e-06
3.65582e-06
9.47065e-07
3.65585e-06
9.46748e-07
2.29903e-06
4.24776e-06
9.61783e-06
9.61371e-06
4.24792e-06
2.2993e-06
1.19447e-06
9.47086e-07
3.6558e-06
9.46761e-07
3.65578e-06
2.29914e-06
4.24775e-06
9.61802e-06
9.6137e-06
4.24792e-06
5.6676e-06
5.66576e-06
1.42516e-06
5.66823e-06
5.66649e-06
1.91742e-05
1.9184e-05
1.91961e-05
1.91863e-05
1.42711e-06
5.66994e-06
5.66816e-06
5.66934e-06
5.66747e-06
1.91941e-05
1.91845e-05
2.29919e-06
9.45973e-07
3.65576e-06
1.19411e-06
2.29931e-06
9.46345e-07
3.65582e-06
4.24724e-06
9.60871e-06
4.2471e-06
9.61325e-06
4.24735e-06
9.60966e-06
4.24721e-06
9.61424e-06
2.29934e-06
1.19448e-06
9.47165e-07
3.65591e-06
9.46843e-07
3.65592e-06
2.29918e-06
2.29942e-06
1.19441e-06
9.47175e-07
3.65652e-06
9.46846e-07
3.6565e-06
2.29926e-06
4.24785e-06
9.61826e-06
9.61382e-06
4.24797e-06
4.24797e-06
9.61912e-06
9.61481e-06
4.24809e-06
1.91744e-05
1.91843e-05
1.91764e-05
1.91862e-05
1.42701e-06
5.66815e-06
5.67019e-06
5.66742e-06
5.66943e-06
1.91945e-05
1.91848e-05
1.91965e-05
1.91868e-05
1.91935e-05
1.92029e-05
1.91961e-05
1.92056e-05
5.66895e-06
5.67087e-06
1.42627e-06
5.66963e-06
5.67155e-06
1.92128e-05
1.92034e-05
1.92155e-05
1.92061e-05
1.42802e-06
5.67123e-06
5.67315e-06
5.67058e-06
5.6725e-06
4.24868e-06
9.61895e-06
4.24853e-06
9.62292e-06
2.29916e-06
3.65637e-06
9.47546e-07
1.19502e-06
2.29955e-06
3.65633e-06
9.47801e-07
2.29919e-06
3.65693e-06
9.47574e-07
1.19503e-06
2.2996e-06
3.65688e-06
9.4783e-07
4.24915e-06
9.62641e-06
9.6224e-06
4.24927e-06
4.24922e-06
9.62786e-06
9.62362e-06
4.24934e-06
2.29959e-06
1.19523e-06
3.65691e-06
9.48426e-07
3.65698e-06
9.48203e-07
2.29912e-06
2.29964e-06
1.19524e-06
3.65746e-06
9.48454e-07
3.65754e-06
9.48229e-07
2.29916e-06
5.67084e-06
5.66908e-06