/*--------------------------------*- C++ -*----------------------------------*\
| =========                 |                                                 |
| \\      /  F ield         | OpenFOAM: The Open Source CFD Toolbox           |
|  \\    /   O peration     | Version:  v1906                                 |
|   \\  /    A nd           | Web:      www.OpenFOAM.com                      |
|    \\/     M anipulation  |                                                 |
\*---------------------------------------------------------------------------*/
FoamFile
{
    version     2.0;
    format      ascii;
    class       volScalarField;
    location    "400";
    object      k;
}
// * * * * * * * * * * * * * * * * * * * * * * * * * * * * * * * * * * * * * //

dimensions      [0 2 -2 0 0 0 0];


internalField   nonuniform List<scalar> 
43024
(
3.92065e-05
5.15964e-05
5.15963e-05
5.36831e-05
3.95751e-05
5.18049e-05
5.18054e-05
5.38519e-05
3.99184e-05
5.19943e-05
5.19953e-05
5.40098e-05
4.02372e-05
5.21654e-05
5.2167e-05
5.41459e-05
4.05323e-05
5.23191e-05
5.23212e-05
5.42694e-05
4.0805e-05
5.2457e-05
5.24593e-05
5.43816e-05
4.10564e-05
5.25803e-05
5.25827e-05
5.44835e-05
4.12875e-05
5.26903e-05
5.26925e-05
5.4575e-05
4.14996e-05
5.27877e-05
5.27896e-05
5.46545e-05
4.16937e-05
5.2873e-05
5.28745e-05
5.47235e-05
4.18707e-05
5.2947e-05
5.29481e-05
5.47836e-05
4.20312e-05
5.30104e-05
5.30111e-05
5.48353e-05
4.21757e-05
5.30632e-05
5.30637e-05
5.48778e-05
4.23042e-05
5.31055e-05
5.31059e-05
5.49107e-05
4.24165e-05
5.3137e-05
5.31373e-05
5.49343e-05
4.25127e-05
5.3158e-05
5.31584e-05
5.4951e-05
4.2593e-05
5.31685e-05
5.3169e-05
5.49612e-05
4.26579e-05
5.31694e-05
5.317e-05
5.49599e-05
4.27074e-05
5.31622e-05
5.31628e-05
5.49516e-05
4.27308e-05
5.31313e-05
5.31317e-05
5.49345e-05
4.23765e-05
5.20391e-05
5.20304e-05
5.46163e-05
5.36439e-05
5.15411e-05
5.1541e-05
5.3643e-05
5.15411e-05
5.154e-05
5.15421e-05
5.15415e-05
5.36399e-05
5.1542e-05
5.15415e-05
5.36418e-05
5.36875e-05
5.38156e-05
5.15959e-05
5.15959e-05
5.17551e-05
5.17548e-05
5.36866e-05
5.38146e-05
5.15959e-05
5.15949e-05
5.17548e-05
5.17539e-05
5.15962e-05
5.17555e-05
5.17547e-05
5.36877e-05
5.38147e-05
5.15962e-05
5.17558e-05
5.17548e-05
5.38086e-05
5.38541e-05
5.39676e-05
5.18051e-05
5.1805e-05
5.19493e-05
5.1949e-05
5.38531e-05
5.39697e-05
5.1805e-05
5.18041e-05
5.1949e-05
5.19483e-05
5.18047e-05
5.19492e-05
5.19484e-05
5.38533e-05
5.397e-05
5.18048e-05
5.19501e-05
5.19487e-05
5.39616e-05
5.40066e-05
5.41081e-05
5.19949e-05
5.19948e-05
5.21247e-05
5.21244e-05
5.40055e-05
5.41076e-05
5.19948e-05
5.19942e-05
5.21245e-05
5.2124e-05
5.19942e-05
5.21241e-05
5.21235e-05
5.40051e-05
5.41081e-05
5.19946e-05
5.21256e-05
5.21242e-05
5.41056e-05
5.41457e-05
5.4234e-05
5.21665e-05
5.21663e-05
5.22824e-05
5.22821e-05
5.41448e-05
5.42342e-05
5.21665e-05
5.21659e-05
5.22822e-05
5.22819e-05
5.21653e-05
5.22812e-05
5.22809e-05
5.41455e-05
5.42346e-05
5.21662e-05
5.22832e-05
5.22821e-05
5.42326e-05
5.42701e-05
5.4348e-05
5.23208e-05
5.23206e-05
5.24234e-05
5.24232e-05
5.42694e-05
5.43486e-05
5.23207e-05
5.23205e-05
5.24232e-05
5.24233e-05
5.23194e-05
5.24219e-05
5.24221e-05
5.42698e-05
5.43487e-05
5.23208e-05
5.24243e-05
5.24237e-05
5.43475e-05
5.43817e-05
5.44513e-05
5.24589e-05
5.24589e-05
5.25491e-05
5.25493e-05
5.43815e-05
5.4452e-05
5.24588e-05
5.2459e-05
5.25489e-05
5.25494e-05
5.24578e-05
5.25476e-05
5.25485e-05
5.43818e-05
5.44508e-05
5.24595e-05
5.255e-05
5.25503e-05
5.44516e-05
5.44821e-05
5.45436e-05
5.25821e-05
5.25826e-05
5.26609e-05
5.26616e-05
5.44829e-05
5.45448e-05
5.25821e-05
5.25826e-05
5.26608e-05
5.26616e-05
5.25818e-05
5.26597e-05
5.26613e-05
5.44834e-05
5.45441e-05
5.25837e-05
5.2662e-05
5.26633e-05
5.45452e-05
5.45724e-05
5.46243e-05
5.26916e-05
5.26926e-05
5.27598e-05
5.27611e-05
5.45738e-05
5.46259e-05
5.26917e-05
5.26926e-05
5.27599e-05
5.2761e-05
5.26926e-05
5.27593e-05
5.27616e-05
5.45742e-05
5.46258e-05
5.26945e-05
5.27613e-05
5.27635e-05
5.46271e-05
5.4651e-05
5.46942e-05
5.27883e-05
5.27897e-05
5.28468e-05
5.28484e-05
5.46527e-05
5.4696e-05
5.27885e-05
5.27897e-05
5.28471e-05
5.28484e-05
5.27905e-05
5.2847e-05
5.28499e-05
5.46531e-05
5.46961e-05
5.27924e-05
5.28487e-05
5.28515e-05
5.4698e-05
5.47192e-05
5.47551e-05
5.28729e-05
5.28747e-05
5.29228e-05
5.29248e-05
5.4721e-05
5.47571e-05
5.28734e-05
5.28748e-05
5.29235e-05
5.29249e-05
5.28766e-05
5.29238e-05
5.29275e-05
5.47214e-05
5.47574e-05
5.2878e-05
5.2925e-05
5.29286e-05
5.47598e-05
5.47784e-05
5.48076e-05
5.29461e-05
5.29484e-05
5.29886e-05
5.29911e-05
5.47807e-05
5.48099e-05
5.29471e-05
5.29485e-05
5.29899e-05
5.29912e-05
5.29515e-05
5.29903e-05
5.2995e-05
5.47807e-05
5.481e-05
5.29523e-05
5.29911e-05
5.29953e-05
5.48132e-05
5.48293e-05
5.48517e-05
5.3009e-05
5.30116e-05
5.30444e-05
5.30468e-05
5.48318e-05
5.48535e-05
5.30104e-05
5.30117e-05
5.30459e-05
5.3047e-05
5.3016e-05
5.30462e-05
5.3052e-05
5.48316e-05
5.48535e-05
5.3016e-05
5.30468e-05
5.30516e-05
5.48576e-05
5.48717e-05
5.48868e-05
5.30616e-05
5.30641e-05
5.30901e-05
5.3092e-05
5.48734e-05
5.48873e-05
5.30633e-05
5.30643e-05
5.30918e-05
5.30924e-05
5.30697e-05
5.30915e-05
5.30982e-05
5.48734e-05
5.48877e-05
5.3069e-05
5.30918e-05
5.30972e-05
5.48924e-05
5.49053e-05
5.4913e-05
5.31041e-05
5.31061e-05
5.31254e-05
5.31266e-05
5.49055e-05
5.49121e-05
5.31061e-05
5.31066e-05
5.31272e-05
5.31273e-05
5.31126e-05
5.31262e-05
5.31333e-05
5.49059e-05
5.49127e-05
5.31115e-05
5.31265e-05
5.3132e-05
5.49177e-05
5.49296e-05
5.49323e-05
5.31361e-05
5.31373e-05
5.31501e-05
5.31506e-05
5.49286e-05
5.49284e-05
5.31384e-05
5.31382e-05
5.31521e-05
5.31516e-05
5.31444e-05
5.31505e-05
5.31576e-05
5.49294e-05
5.49297e-05
5.3143e-05
5.31509e-05
5.31561e-05
5.49367e-05
5.49467e-05
5.49457e-05
5.31579e-05
5.31582e-05
5.31646e-05
5.31642e-05
5.49475e-05
5.49405e-05
5.31601e-05
5.31593e-05
5.31666e-05
5.31654e-05
5.31652e-05
5.31642e-05
5.31706e-05
5.49488e-05
5.49414e-05
5.31636e-05
5.31646e-05
5.3169e-05
5.49453e-05
5.49596e-05
5.49475e-05
5.31691e-05
5.31686e-05
5.31672e-05
5.31663e-05
5.49618e-05
5.49417e-05
5.31711e-05
5.31699e-05
5.3169e-05
5.31675e-05
5.31748e-05
5.31661e-05
5.31714e-05
5.49632e-05
5.49425e-05
5.31732e-05
5.31666e-05
5.31699e-05
5.49484e-05
5.4959e-05
5.49431e-05
5.31707e-05
5.31697e-05
5.31612e-05
5.31598e-05
5.49594e-05
5.49353e-05
5.31725e-05
5.31709e-05
5.31628e-05
5.31608e-05
5.31744e-05
5.31593e-05
5.31631e-05
5.49605e-05
5.49379e-05
5.3173e-05
5.31599e-05
5.31619e-05
5.49413e-05
5.49539e-05
5.49249e-05
5.31644e-05
5.31629e-05
5.31483e-05
5.31467e-05
5.49556e-05
5.49238e-05
5.31659e-05
5.31637e-05
5.31496e-05
5.31471e-05
5.31657e-05
5.31455e-05
5.31481e-05
5.49507e-05
5.49232e-05
5.31645e-05
5.31461e-05
5.31471e-05
5.49245e-05
5.49384e-05
5.47596e-05
5.31343e-05
5.31325e-05
5.29836e-05
5.29823e-05
5.49336e-05
5.47571e-05
5.31355e-05
5.31327e-05
5.29858e-05
5.29816e-05
5.31332e-05
5.2983e-05
5.29813e-05
5.49331e-05
5.47726e-05
5.31324e-05
5.29824e-05
5.2982e-05
5.4771e-05
5.46438e-05
5.20416e-05
5.20394e-05
5.46387e-05
5.20438e-05
5.20289e-05
4.23745e-05
4.23717e-05
4.23725e-05
5.20294e-05
5.46205e-05
5.20305e-05
6.85865e-05
7.34511e-05
7.1206e-05
6.85913e-05
7.3456e-05
3.91119e-05
3.9112e-05
3.91145e-05
3.91147e-05
6.06497e-05
5.14278e-05
6.48087e-05
4.67264e-05
7.12049e-05
6.06486e-05
5.14276e-05
4.6727e-05
6.48094e-05
5.35513e-05
6.99445e-05
6.9956e-05
6.86437e-05
7.3484e-05
6.86209e-05
7.35098e-05
7.12358e-05
7.12618e-05
6.86481e-05
7.34904e-05
6.86229e-05
7.35143e-05
3.9207e-05
3.92095e-05
3.92096e-05
3.94869e-05
3.94867e-05
3.94892e-05
3.94892e-05
6.07494e-05
6.48478e-05
4.69394e-05
5.16514e-05
6.07078e-05
6.48736e-05
4.70088e-05
7.12345e-05
7.12606e-05
6.07479e-05
4.69402e-05
6.48487e-05
5.16515e-05
6.071e-05
4.70097e-05
6.48747e-05
6.99803e-05
6.99916e-05
5.37291e-05
6.9996e-05
7.00074e-05
6.86951e-05
7.35417e-05
6.86729e-05
7.35666e-05
7.12909e-05
7.13164e-05
6.86994e-05
7.35469e-05
6.86766e-05
7.35721e-05
3.95755e-05
3.95781e-05
3.95777e-05
3.98363e-05
3.98359e-05
3.98386e-05
3.98382e-05
6.08373e-05
6.49092e-05
4.72037e-05
5.18548e-05
6.08003e-05
6.49324e-05
4.72669e-05
7.12896e-05
7.13152e-05
6.08374e-05
4.72047e-05
6.49107e-05
5.18554e-05
6.08003e-05
4.72681e-05
6.49341e-05
7.00295e-05
7.00407e-05
5.38827e-05
7.00438e-05
7.00551e-05
6.87404e-05
7.35979e-05
6.87204e-05
7.36201e-05
7.13447e-05
7.13696e-05
6.87444e-05
7.36028e-05
6.87244e-05
7.36269e-05
3.99187e-05
3.99215e-05
3.99207e-05
4.01609e-05
4.01602e-05
4.01632e-05
4.01623e-05
6.09149e-05
6.49645e-05
4.74445e-05
5.2039e-05
6.08816e-05
6.49852e-05
4.75016e-05
7.13431e-05
7.13682e-05
6.09152e-05
4.7446e-05
6.49664e-05
5.20402e-05
6.0882e-05
4.75033e-05
6.49873e-05
7.00746e-05
7.00852e-05
5.40369e-05
7.00877e-05
7.00985e-05
6.87803e-05
7.36514e-05
6.87624e-05
7.36729e-05
7.1397e-05
7.14212e-05
6.87821e-05
7.36574e-05
6.87663e-05
7.36787e-05
4.02373e-05
4.02404e-05
4.02392e-05
4.04615e-05
4.04607e-05
4.04639e-05
4.04627e-05
6.09821e-05
6.50139e-05
4.7663e-05
5.22049e-05
6.09534e-05
6.50323e-05
4.77141e-05
7.13955e-05
7.14201e-05
6.09797e-05
4.76651e-05
6.50156e-05
5.22066e-05
6.09539e-05
4.77164e-05
6.50339e-05
7.01149e-05
7.01277e-05
5.41709e-05
7.01283e-05
7.014e-05
6.88147e-05
7.37016e-05
6.87992e-05
7.3724e-05
7.14477e-05
7.14713e-05
6.88168e-05
7.37074e-05
6.88027e-05
7.37301e-05
4.05324e-05
4.05358e-05
4.05342e-05
4.07392e-05
4.07383e-05
4.07419e-05
4.07404e-05
6.10389e-05
6.50582e-05
4.78604e-05
5.23536e-05
6.10143e-05
6.50745e-05
4.79056e-05
7.14466e-05
7.14706e-05
6.10387e-05
4.78634e-05
6.50585e-05
5.23558e-05
6.10162e-05
4.79087e-05
6.50744e-05
7.01542e-05
7.01673e-05
5.42915e-05
7.01665e-05
7.01785e-05
6.88445e-05
7.37514e-05
6.88307e-05
7.37711e-05
7.14969e-05
7.15198e-05
6.88466e-05
7.37578e-05
6.88342e-05
7.37775e-05
4.08051e-05
4.08088e-05
4.0807e-05
4.09951e-05
4.09944e-05
4.09982e-05
4.09967e-05
6.10877e-05
6.50981e-05
4.80382e-05
5.24867e-05
6.10663e-05
6.51126e-05
4.80777e-05
7.14959e-05
7.15192e-05
6.10883e-05
4.8042e-05
6.50961e-05
5.24891e-05
6.1069e-05
4.80816e-05
6.51104e-05
7.01906e-05
7.02036e-05
5.44009e-05
7.02019e-05
7.02136e-05
6.88703e-05
7.37985e-05
6.8858e-05
7.38173e-05
7.15445e-05
7.15666e-05
6.8873e-05
7.38039e-05
6.88615e-05
7.38248e-05
4.10567e-05
4.10606e-05
4.10589e-05
4.12304e-05
4.123e-05
4.1234e-05
4.12329e-05
6.11305e-05
6.51348e-05
4.81979e-05
5.26055e-05
6.11122e-05
6.51472e-05
4.82319e-05
7.15434e-05
7.15658e-05
6.11312e-05
4.82023e-05
6.51296e-05
5.26078e-05
6.1114e-05
4.82364e-05
6.51423e-05
7.02244e-05
7.02355e-05
5.44999e-05
7.02346e-05
7.02447e-05
6.8893e-05
7.38422e-05
6.88823e-05
7.38622e-05
7.15899e-05
7.1611e-05
6.88973e-05
7.38501e-05
6.88865e-05
7.38681e-05
4.12883e-05
4.12922e-05
4.12909e-05
4.14463e-05
4.14465e-05
4.14505e-05
4.145e-05
6.1168e-05
6.51676e-05
4.83411e-05
5.27113e-05
6.11521e-05
6.51773e-05
4.83701e-05
7.15889e-05
7.16104e-05
6.11684e-05
4.83458e-05
6.51606e-05
5.27134e-05
6.1153e-05
4.83748e-05
6.5172e-05
7.02545e-05
7.02655e-05
5.45878e-05
7.02625e-05
7.02734e-05
6.89134e-05
7.38853e-05
6.89038e-05
7.39029e-05
7.16327e-05
7.16528e-05
6.89192e-05
7.38931e-05
6.89093e-05
7.39107e-05
4.1501e-05
4.15049e-05
4.15042e-05
4.16439e-05
4.16448e-05
4.16486e-05
4.16488e-05
6.12007e-05
6.51951e-05
4.84693e-05
5.28049e-05
6.11865e-05
6.52033e-05
4.84935e-05
7.16319e-05
7.16524e-05
6.12011e-05
4.8474e-05
6.5187e-05
5.28067e-05
6.1187e-05
4.84982e-05
6.51969e-05
7.02806e-05
7.0292e-05
5.46639e-05
7.02874e-05
7.0299e-05
6.89316e-05
7.3926e-05
6.89231e-05
7.39417e-05
7.16729e-05
7.16921e-05
6.89382e-05
7.39323e-05
6.89294e-05
7.39503e-05
4.16957e-05
4.16995e-05
4.16995e-05
4.18242e-05
4.18255e-05
4.18292e-05
4.18301e-05
6.12281e-05
6.52162e-05
4.85836e-05
5.28869e-05
6.12163e-05
6.52202e-05
4.86036e-05
7.1672e-05
7.16914e-05
6.12266e-05
4.8588e-05
6.52137e-05
5.28884e-05
6.12157e-05
4.86079e-05
6.52221e-05
7.03053e-05
7.03156e-05
5.473e-05
7.0312e-05
7.03218e-05
6.89457e-05
7.39632e-05
6.894e-05
7.39781e-05
7.17104e-05
7.1729e-05
6.89501e-05
7.39696e-05
6.89455e-05
7.39858e-05
4.18733e-05
4.18769e-05
4.18776e-05
4.19876e-05
4.19895e-05
4.1993e-05
4.19947e-05
6.12455e-05
6.52317e-05
4.86846e-05
5.29586e-05
6.12393e-05
6.5235e-05
4.87012e-05
7.1709e-05
7.17275e-05
6.12438e-05
4.86883e-05
6.52366e-05
5.29596e-05
6.12369e-05
4.87048e-05
6.52423e-05
7.03271e-05
7.03364e-05
5.47876e-05
7.03317e-05
7.03408e-05
6.89491e-05
7.39954e-05
6.89477e-05
7.40106e-05
7.17449e-05
7.17626e-05
6.89536e-05
7.40034e-05
6.89518e-05
7.40163e-05
4.20342e-05
4.20377e-05
4.20392e-05
4.21349e-05
4.2137e-05
4.21403e-05
4.21428e-05
6.12538e-05
6.52444e-05
4.87728e-05
5.30196e-05
6.12495e-05
6.52451e-05
4.87866e-05
7.17424e-05
7.17601e-05
6.12526e-05
4.87755e-05
6.52505e-05
5.30203e-05
6.12483e-05
4.87892e-05
6.52503e-05
7.03424e-05
7.03513e-05
5.48367e-05
7.03444e-05
7.03535e-05
6.89487e-05
7.40253e-05
6.89483e-05
7.40382e-05
7.17755e-05
7.17928e-05
6.8954e-05
7.40324e-05
6.89531e-05
7.40439e-05
4.21788e-05
4.21821e-05
4.21844e-05
4.22662e-05
4.22684e-05
4.22714e-05
4.22746e-05
6.12567e-05
6.52479e-05
4.88486e-05
5.30703e-05
6.12544e-05
6.5247e-05
4.88597e-05
7.17722e-05
7.17897e-05
6.12556e-05
4.88503e-05
6.52509e-05
5.30708e-05
6.12535e-05
4.88612e-05
6.52495e-05
7.03538e-05
7.03631e-05
5.48762e-05
7.03534e-05
7.03631e-05
6.89475e-05
7.40512e-05
6.89472e-05
7.40625e-05
7.18025e-05
7.18201e-05
6.8953e-05
7.40571e-05
6.89524e-05
7.40681e-05
4.23072e-05
4.23102e-05
4.23132e-05
4.23819e-05
4.23839e-05
4.23866e-05
4.23903e-05
6.12552e-05
6.52503e-05
4.89116e-05
5.31102e-05
6.12544e-05
6.52476e-05
4.89201e-05
7.17989e-05
7.18169e-05
6.12537e-05
4.89123e-05
6.52522e-05
5.31106e-05
6.12532e-05
4.89206e-05
6.52498e-05
7.03625e-05
7.03726e-05
5.49063e-05
7.03591e-05
7.03695e-05
6.8946e-05
7.40734e-05
6.89461e-05
7.40839e-05
7.18261e-05
7.18455e-05
6.8952e-05
7.40789e-05
6.89514e-05
7.40893e-05
4.24191e-05
4.24217e-05
4.24254e-05
4.24822e-05
4.24839e-05
4.24862e-05
4.24902e-05
6.12506e-05
6.52517e-05
4.89619e-05
5.31397e-05
6.1251e-05
6.52453e-05
4.89676e-05
7.18227e-05
7.18425e-05
6.12486e-05
4.89617e-05
6.52537e-05
5.314e-05
6.12492e-05
4.89672e-05
6.52475e-05
7.03698e-05
7.03804e-05
5.49279e-05
7.03624e-05
7.03731e-05
6.89429e-05
7.40923e-05
6.89436e-05
7.41038e-05
7.18469e-05
7.18698e-05
6.89494e-05
7.40977e-05
6.89498e-05
7.41092e-05
4.25147e-05
4.25171e-05
4.25209e-05
4.2567e-05
4.25685e-05
4.25701e-05
4.25744e-05
6.1242e-05
6.52514e-05
4.89995e-05
5.31587e-05
6.12441e-05
6.52392e-05
4.90027e-05
7.18437e-05
7.1867e-05
6.124e-05
4.89987e-05
6.52533e-05
5.31591e-05
6.12422e-05
4.90018e-05
6.52414e-05
7.0377e-05
7.03877e-05
5.49446e-05
7.03635e-05
7.03743e-05
6.89383e-05
7.41091e-05
6.89391e-05
7.41231e-05
7.18647e-05
7.18935e-05
6.89452e-05
7.41145e-05
6.89457e-05
7.41285e-05
4.25939e-05
4.25963e-05
4.25996e-05
4.26363e-05
4.26375e-05
4.26381e-05
4.26425e-05
6.12421e-05
6.5251e-05
4.90247e-05
5.31663e-05
6.12394e-05
6.52286e-05
4.90256e-05
7.18619e-05
7.18912e-05
6.12376e-05
4.90235e-05
6.52532e-05
5.31668e-05
6.12345e-05
4.90244e-05
6.52311e-05
7.03847e-05
7.03955e-05
5.49466e-05
7.03619e-05
7.03727e-05
6.89327e-05
7.41235e-05
6.89335e-05
7.41434e-05
7.18794e-05
7.19171e-05
6.89388e-05
7.4129e-05
6.89398e-05
7.41488e-05
4.26575e-05
4.266e-05
4.26622e-05
4.26904e-05
4.2691e-05
4.26913e-05
4.26948e-05
6.12222e-05
6.52536e-05
4.90374e-05
5.31638e-05
6.12326e-05
6.52118e-05
4.90349e-05
7.18771e-05
7.19153e-05
6.12206e-05
4.90362e-05
6.52561e-05
5.31643e-05
6.12302e-05
4.90337e-05
6.52145e-05
7.0394e-05
7.04048e-05
5.4946e-05
7.03582e-05
7.03691e-05
6.892e-05
7.41351e-05
6.89209e-05
7.41674e-05
7.18918e-05
7.19411e-05
6.89259e-05
7.41406e-05
6.89268e-05
7.41729e-05
4.27059e-05
4.27082e-05
4.27092e-05
4.27256e-05
4.27241e-05
4.2725e-05
4.27259e-05
6.11926e-05
6.52671e-05
4.90394e-05
5.31527e-05
6.12117e-05
6.51844e-05
4.90325e-05
7.18901e-05
7.19396e-05
6.1192e-05
4.90384e-05
6.52697e-05
5.31532e-05
6.12104e-05
4.90316e-05
6.51868e-05
7.04073e-05
7.04184e-05
5.49348e-05
7.03551e-05
7.03662e-05
6.8881e-05
7.41409e-05
6.88927e-05
7.42007e-05
7.19035e-05
7.19679e-05
6.88857e-05
7.41463e-05
6.88981e-05
7.42062e-05
4.27293e-05
4.27299e-05
4.27308e-05
4.23926e-05
4.23908e-05
4.23892e-05
4.23894e-05
6.11176e-05
6.53006e-05
4.90246e-05
5.31286e-05
6.11881e-05
6.51127e-05
4.89726e-05
7.19024e-05
7.19671e-05
6.11188e-05
4.90246e-05
6.53027e-05
5.31285e-05
6.11889e-05
4.89719e-05
6.51146e-05
7.0417e-05
7.04282e-05
5.49055e-05
7.03057e-05
7.0317e-05
6.49982e-05
7.39262e-05
6.86749e-05
7.47867e-05
7.18719e-05
6.62983e-05
6.50007e-05
7.39302e-05
6.86781e-05
7.47931e-05
3.01854e-05
3.6746e-05
3.67441e-05
4.38021e-05
3.04918e-05
3.76377e-05
3.76359e-05
6.08557e-05
6.49765e-05
4.8813e-05
5.07897e-05
6.09247e-05
6.67736e-05
4.69954e-05
7.18694e-05
6.63019e-05
6.08575e-05
4.88121e-05
6.49781e-05
5.0825e-05
6.09269e-05
4.69851e-05
6.67808e-05
6.969e-05
6.97012e-05
5.42577e-05
7.11072e-05
7.11179e-05
7.12042e-05
7.12066e-05
5.35436e-05
6.99471e-05
6.99564e-05
7.12322e-05
7.1206e-05
7.12345e-05
7.12083e-05
5.36003e-05
6.99732e-05
6.99824e-05
6.99559e-05
6.99652e-05
6.85884e-05
7.34555e-05
6.06491e-05
5.14266e-05
6.48088e-05
4.67245e-05
6.06505e-05
5.14266e-05
6.48121e-05
4.67257e-05
6.85921e-05
7.34806e-05
7.34546e-05
6.86156e-05
6.85939e-05
7.34854e-05
7.34591e-05
6.86175e-05
6.06602e-05
5.14838e-05
6.48424e-05
4.68693e-05
6.48148e-05
4.67969e-05
6.06999e-05
6.06616e-05
5.14839e-05
6.48454e-05
4.68704e-05
6.48181e-05
4.67981e-05
6.07013e-05
5.35425e-05
6.99552e-05
6.99424e-05
7.12025e-05
7.1234e-05
7.12077e-05
5.35995e-05
6.99814e-05
6.99685e-05
6.99649e-05
6.99529e-05
7.12304e-05
7.1204e-05
6.06533e-05
5.14266e-05
6.48125e-05
4.67267e-05
6.85891e-05
7.34504e-05
6.06514e-05
5.14254e-05
4.67265e-05
6.48072e-05
6.85941e-05
7.3485e-05
7.34609e-05
6.86201e-05
6.06601e-05
5.14839e-05
6.4846e-05
4.68714e-05
6.48186e-05
4.67991e-05
6.07037e-05
6.85921e-05
7.348e-05
7.34559e-05
6.8618e-05
6.06582e-05
5.14828e-05
4.68711e-05
6.48408e-05
4.67989e-05
6.48139e-05
6.07019e-05
6.8589e-05
7.34546e-05
6.06485e-05
5.14271e-05
4.67265e-05
6.48075e-05
6.85863e-05
7.3452e-05
6.06605e-05
5.14846e-05
6.48419e-05
4.68707e-05
6.48149e-05
4.67983e-05
6.07005e-05
6.85924e-05
7.34841e-05
7.3458e-05
6.86175e-05
6.06595e-05
5.14845e-05
4.68709e-05
6.48409e-05
4.67988e-05
6.48137e-05
6.0699e-05
6.85918e-05
7.34816e-05
7.34555e-05
6.86151e-05
5.35412e-05
6.99489e-05
6.99463e-05
7.12049e-05
7.12329e-05
7.12065e-05
5.36029e-05
6.99751e-05
6.99725e-05
6.99594e-05
6.99561e-05
7.12329e-05
7.12067e-05
6.065e-05
5.1427e-05
4.67276e-05
6.48131e-05
6.85862e-05
7.34525e-05
6.85884e-05
7.34566e-05
6.06598e-05
5.14844e-05
4.68714e-05
6.48427e-05
4.67989e-05
6.48153e-05
6.06994e-05
6.0661e-05
5.14844e-05
4.68721e-05
6.48465e-05
4.67999e-05
6.48195e-05
6.07006e-05
6.85917e-05
7.34824e-05
7.34561e-05
6.86149e-05
6.85939e-05
7.34862e-05
7.34601e-05
6.86171e-05
7.12041e-05
7.12072e-05
5.35937e-05
6.99707e-05
6.99822e-05
6.99545e-05
6.99659e-05
7.12322e-05
7.12059e-05
7.12352e-05
7.12089e-05
7.12339e-05
7.12598e-05
7.12362e-05
7.12622e-05
6.99818e-05
6.9991e-05
5.37327e-05
6.99981e-05
7.00075e-05
7.12871e-05
7.12615e-05
7.12895e-05
7.12638e-05
5.37726e-05
7.0022e-05
7.00313e-05
7.00069e-05
7.00161e-05
6.86454e-05
7.34889e-05
6.86228e-05
7.35148e-05
6.07485e-05
6.48479e-05
4.69386e-05
5.16507e-05
6.07107e-05
6.48743e-05
4.70078e-05
6.07498e-05
6.48516e-05
4.69397e-05
5.16505e-05
6.07121e-05
6.48776e-05
4.70089e-05
6.86484e-05
7.35384e-05
7.35132e-05
6.86701e-05
6.86505e-05
7.35436e-05
7.35182e-05
6.86716e-05
6.07586e-05
5.1703e-05
6.49048e-05
4.71401e-05
6.48798e-05
4.70741e-05
6.07943e-05
6.07602e-05
5.1703e-05
6.49082e-05
4.71411e-05
6.48833e-05
4.70752e-05
6.07956e-05
6.9991e-05
6.99789e-05
5.37318e-05
7.00071e-05
6.99938e-05
7.1232e-05
7.12582e-05
7.12893e-05
7.12635e-05
5.37717e-05
7.00316e-05
7.00182e-05
7.00156e-05
7.00039e-05
7.12856e-05
7.12597e-05
6.07522e-05
6.48516e-05
4.69405e-05
5.16505e-05
6.07105e-05
6.4878e-05
4.70097e-05
6.8646e-05
7.34855e-05
6.86211e-05
7.35092e-05
6.07503e-05
4.69404e-05
6.48472e-05
5.16495e-05
6.07086e-05
4.70095e-05
6.48728e-05
6.86506e-05
7.35437e-05
7.35187e-05
6.86743e-05
6.07581e-05
5.1703e-05
6.49085e-05
4.71418e-05
6.48834e-05
4.70759e-05
6.07974e-05
6.86486e-05
7.3538e-05
7.35145e-05
6.86723e-05
6.07563e-05
5.1702e-05
4.71417e-05
6.49037e-05
4.70759e-05
6.48793e-05
6.07956e-05
6.86438e-05
7.34875e-05
6.86212e-05
7.35133e-05
6.0747e-05
4.69401e-05
6.48471e-05
5.16507e-05
6.07095e-05
4.7009e-05
6.4873e-05
6.86427e-05
7.34851e-05
6.86204e-05
7.3511e-05
6.07556e-05
5.17033e-05
6.4904e-05
4.71408e-05
6.48796e-05
4.70746e-05
6.07946e-05
6.86485e-05
7.35418e-05
7.35167e-05
6.86695e-05
6.07571e-05
5.1703e-05
4.7141e-05
6.49035e-05
4.70753e-05
6.48786e-05
6.07924e-05
6.86478e-05
7.35399e-05
7.35144e-05
6.86687e-05
6.99855e-05
6.99821e-05
5.37314e-05
7.00006e-05
6.99977e-05
7.12346e-05
7.12606e-05
7.12881e-05
7.12622e-05
5.37715e-05
7.00252e-05
7.00223e-05
7.00109e-05
7.00072e-05
7.1288e-05
7.12623e-05
6.07492e-05
4.69413e-05
6.48528e-05
5.16507e-05
6.07114e-05
4.70103e-05
6.48785e-05
6.86425e-05
7.34859e-05
6.86203e-05
7.35117e-05
6.86446e-05
7.34897e-05
6.86224e-05
7.35155e-05
6.07559e-05
5.17034e-05
4.71418e-05
6.49053e-05
4.70755e-05
6.48805e-05
6.07942e-05
6.07576e-05
5.17031e-05
4.71423e-05
6.4909e-05
4.70766e-05
6.48844e-05
6.07955e-05
6.86474e-05
7.35406e-05
7.35152e-05
6.86683e-05
6.86497e-05
7.35445e-05
7.3519e-05
6.86705e-05
7.12339e-05
7.126e-05
7.1237e-05
7.1263e-05
5.37681e-05
7.00205e-05
7.00318e-05
7.00055e-05
7.00168e-05
7.12876e-05
7.12617e-05
7.12905e-05
7.12647e-05
7.12887e-05
7.13141e-05
7.12911e-05
7.13166e-05
7.00308e-05
7.00401e-05
5.38953e-05
7.00452e-05
7.00544e-05
7.13407e-05
7.13156e-05
7.13433e-05
7.13181e-05
5.39323e-05
7.0067e-05
7.0077e-05
7.00532e-05
7.00633e-05
6.86963e-05
7.35468e-05
6.86761e-05
7.35718e-05
6.0838e-05
6.49098e-05
4.72036e-05
5.18547e-05
6.08006e-05
6.49334e-05
4.72667e-05
6.08396e-05
6.49137e-05
4.72046e-05
5.18544e-05
6.08031e-05
6.49369e-05
4.72676e-05
6.86975e-05
7.35934e-05
7.35698e-05
6.87182e-05
6.87007e-05
7.35996e-05
7.3575e-05
6.87195e-05
6.08432e-05
5.19024e-05
6.49605e-05
4.73872e-05
6.49381e-05
4.73273e-05
6.08784e-05
6.08449e-05
5.19023e-05
6.49645e-05
4.73881e-05
6.49422e-05
4.73284e-05
6.088e-05
7.00397e-05
7.00279e-05
5.38943e-05
7.00551e-05
7.00413e-05
7.12871e-05
7.13127e-05
7.13432e-05
7.1318e-05
5.39314e-05
7.00775e-05
7.00637e-05
7.00629e-05
7.0051e-05
7.13394e-05
7.13141e-05
6.08383e-05
6.49135e-05
4.72052e-05
5.18544e-05
6.08041e-05
6.49371e-05
4.72683e-05
6.86974e-05
7.35433e-05
6.86749e-05
7.35662e-05
6.08366e-05
4.72052e-05
6.49094e-05
5.18536e-05
6.08022e-05
4.72681e-05
6.49324e-05
6.87014e-05
7.35997e-05
7.35753e-05
6.87227e-05
6.0847e-05
5.19022e-05
6.49647e-05
4.73887e-05
6.49422e-05
4.73289e-05
6.08787e-05
6.86995e-05
7.3594e-05
7.35713e-05
6.87208e-05
6.08452e-05
5.19015e-05
4.73886e-05
6.49604e-05
4.73289e-05
6.49385e-05
6.0877e-05
6.86941e-05
7.35462e-05
6.86742e-05
7.35691e-05
6.0835e-05
4.72044e-05
6.49088e-05
5.1854e-05
6.08017e-05
4.72672e-05
6.49319e-05
6.86933e-05
7.35431e-05
6.86734e-05
7.35681e-05
6.08424e-05
5.19021e-05
6.49599e-05
4.7387e-05
6.4938e-05
4.73271e-05
6.08771e-05
6.86985e-05
7.35973e-05
7.35739e-05
6.87172e-05
6.08441e-05
5.19018e-05
4.73874e-05
6.4959e-05
4.73278e-05
6.49372e-05
6.08751e-05
6.86979e-05
7.35959e-05
7.35713e-05
6.87166e-05
7.00351e-05
7.00313e-05
5.38947e-05
7.00488e-05
7.00456e-05
7.12896e-05
7.1315e-05
7.13418e-05
7.13166e-05
5.39319e-05
7.00714e-05
7.00681e-05
7.00578e-05
7.00545e-05
7.13417e-05
7.13166e-05
6.08387e-05
4.72059e-05
6.49146e-05
5.18542e-05
6.08016e-05
4.72687e-05
6.49378e-05
6.8693e-05
7.35438e-05
6.86719e-05
7.35688e-05
6.8695e-05
7.35477e-05
6.86751e-05
7.35727e-05
6.08427e-05
5.19029e-05
4.73885e-05
6.49617e-05
4.73284e-05
6.49393e-05
6.08772e-05
6.08441e-05
5.1902e-05
4.73891e-05
6.49654e-05
4.73294e-05
6.4943e-05
6.0879e-05
6.8696e-05
7.35966e-05
7.3572e-05
6.87161e-05
6.86994e-05
7.36006e-05
7.3576e-05
6.87181e-05
7.12892e-05
7.13148e-05
7.12922e-05
7.13177e-05
5.39409e-05
7.00662e-05
7.00775e-05
7.00527e-05
7.0064e-05
7.13416e-05
7.13164e-05
7.13445e-05
7.13193e-05
7.13422e-05
7.13669e-05
7.13449e-05
7.13697e-05
7.0075e-05
7.00855e-05
5.40399e-05
7.0088e-05
7.00984e-05
7.13928e-05
7.13684e-05
7.13958e-05
7.13712e-05
5.40784e-05
7.01088e-05
7.01191e-05
7.00963e-05
7.01068e-05
6.87413e-05
7.36026e-05
6.87233e-05
7.36267e-05
6.09163e-05
6.49648e-05
4.74453e-05
5.20394e-05
6.08832e-05
6.4986e-05
4.75024e-05
6.09178e-05
6.49694e-05
4.74464e-05
5.20391e-05
6.08849e-05
6.499e-05
4.75033e-05
6.87423e-05
7.36467e-05
7.3625e-05
6.87607e-05
6.87437e-05
7.36534e-05
7.36298e-05
6.87618e-05
6.09204e-05
5.2083e-05
6.50105e-05
4.76117e-05
6.49903e-05
4.75579e-05
6.09516e-05
6.0922e-05
5.20828e-05
6.50145e-05
4.76126e-05
6.49947e-05
4.75588e-05
6.09529e-05
7.0085e-05
7.00729e-05
5.40389e-05
7.00981e-05
7.00849e-05
7.13408e-05
7.13658e-05
7.13956e-05
7.1371e-05
5.40767e-05
7.01189e-05
7.01054e-05
7.01063e-05
7.00941e-05
7.13918e-05
7.13671e-05
6.09165e-05
6.49696e-05
4.74468e-05
5.20392e-05
6.0887e-05
6.49903e-05
4.75038e-05
6.87419e-05
7.35991e-05
6.8723e-05
7.36211e-05
6.0915e-05
4.74469e-05
6.49656e-05
5.20386e-05
6.08853e-05
4.75037e-05
6.4986e-05
6.87469e-05
7.36526e-05
7.36305e-05
6.87631e-05
6.09245e-05
5.20829e-05
6.50149e-05
4.76131e-05
6.49951e-05
4.75592e-05
6.09518e-05
6.87448e-05
7.36479e-05
7.3626e-05
6.87616e-05
6.0923e-05
5.20823e-05
4.7613e-05
6.50113e-05
4.75593e-05
6.49917e-05
6.09504e-05
6.87391e-05
7.36005e-05
6.87212e-05
7.36247e-05
6.09128e-05
4.74454e-05
6.49639e-05
5.20384e-05
6.08834e-05
4.75022e-05
6.49842e-05
6.87386e-05
7.35989e-05
6.87207e-05
7.3623e-05
6.09188e-05
5.20823e-05
6.50098e-05
4.76105e-05
6.49903e-05
4.75566e-05
6.09497e-05
6.8743e-05
7.36515e-05
7.36278e-05
6.87596e-05
6.09208e-05
5.2082e-05
4.76111e-05
6.50087e-05
4.75575e-05
6.49889e-05
6.09481e-05
6.87427e-05
7.36488e-05
7.3626e-05
6.87593e-05
7.00788e-05
7.00761e-05
5.40397e-05
7.0093e-05
7.00894e-05
7.13432e-05
7.1368e-05
7.13943e-05
7.13694e-05
5.40778e-05
7.01141e-05
7.01101e-05
7.01002e-05
7.00966e-05
7.13939e-05
7.13694e-05
6.0917e-05
4.74472e-05
6.49703e-05
5.20389e-05
6.08842e-05
4.75041e-05
6.49909e-05
6.8738e-05
7.35996e-05
6.8719e-05
7.36236e-05
6.87393e-05
7.36036e-05
6.87219e-05
7.36275e-05
6.09197e-05
5.20836e-05
4.76125e-05
6.50116e-05
4.75585e-05
6.49919e-05
6.09479e-05
6.09213e-05
5.20826e-05
4.76132e-05
6.50157e-05
4.75596e-05
6.49957e-05
6.09518e-05
6.87406e-05
7.36493e-05
7.3627e-05
6.87571e-05
6.87429e-05
7.36533e-05
7.36312e-05
6.87591e-05
7.13431e-05
7.1368e-05
7.1346e-05
7.13708e-05
5.40792e-05
7.01082e-05
7.01196e-05
7.00949e-05
7.01068e-05
7.1394e-05
7.13694e-05
7.13969e-05
7.13723e-05
7.13943e-05
7.14184e-05
7.13972e-05
7.14214e-05
7.01168e-05
7.01271e-05
5.41726e-05
7.01285e-05
7.01387e-05
7.14436e-05
7.14198e-05
7.14467e-05
7.14228e-05
5.42096e-05
7.01476e-05
7.01577e-05
7.01365e-05
7.01466e-05
6.87811e-05
7.36562e-05
6.87638e-05
7.36793e-05
6.09844e-05
6.50144e-05
4.76648e-05
5.22059e-05
6.09556e-05
6.50331e-05
4.77159e-05
6.09852e-05
6.50187e-05
4.76658e-05
5.22056e-05
6.09569e-05
6.50368e-05
4.77168e-05
6.87817e-05
7.3699e-05
7.36764e-05
6.8798e-05
6.87826e-05
7.37049e-05
7.36822e-05
6.8799e-05
6.09876e-05
5.22458e-05
6.50549e-05
4.78144e-05
6.50371e-05
4.77667e-05
6.1014e-05
6.09886e-05
5.22456e-05
6.50586e-05
4.78153e-05
6.50409e-05
4.77675e-05
6.10148e-05
7.01269e-05
7.01141e-05
5.41725e-05
7.01386e-05
7.01249e-05
7.1393e-05
7.14174e-05
7.14465e-05
7.14226e-05
5.42088e-05
7.01579e-05
7.01439e-05
7.01466e-05
7.01336e-05
7.14427e-05
7.14186e-05
6.09845e-05
6.50192e-05
4.76661e-05
5.22057e-05
6.09587e-05
6.50372e-05
4.77173e-05
6.87806e-05
7.36528e-05
6.87638e-05
7.3674e-05
6.09832e-05
4.76663e-05
6.5016e-05
5.22053e-05
6.09573e-05
4.77173e-05
6.50341e-05
6.87852e-05
7.37044e-05
7.36834e-05
6.87999e-05
6.0991e-05
5.22458e-05
6.50592e-05
4.78158e-05
6.50416e-05
4.77679e-05
6.10151e-05
6.87823e-05
7.36998e-05
7.36788e-05
6.87986e-05
6.09895e-05
5.22454e-05
4.78159e-05
6.50568e-05
4.77681e-05
6.50396e-05
6.10135e-05
6.87788e-05
7.36543e-05
6.8763e-05
7.36775e-05
6.09808e-05
4.76641e-05
6.5013e-05
5.22045e-05
6.0955e-05
4.77149e-05
6.50315e-05
6.87788e-05
7.36533e-05
6.87629e-05
7.36748e-05
6.09856e-05
5.22446e-05
6.50545e-05
4.78123e-05
6.50371e-05
4.77645e-05
6.10113e-05
6.87808e-05
7.37032e-05
7.36804e-05
6.87966e-05
6.09871e-05
5.22445e-05
4.78131e-05
6.5054e-05
4.77656e-05
6.50358e-05
6.10103e-05
6.8782e-05
7.37011e-05
7.36794e-05
6.87964e-05
7.01211e-05
7.01169e-05
5.4173e-05
7.01343e-05
7.01297e-05
7.13953e-05
7.14194e-05
7.14456e-05
7.14213e-05
5.42095e-05
7.01536e-05
7.01484e-05
7.01411e-05
7.01362e-05
7.14445e-05
7.14207e-05
6.09834e-05
4.76665e-05
6.50201e-05
5.22055e-05
6.09561e-05
4.77174e-05
6.50386e-05
6.87756e-05
7.3654e-05
6.87603e-05
7.36752e-05
6.87777e-05
7.36581e-05
6.87624e-05
7.36794e-05
6.0986e-05
5.22465e-05
4.7815e-05
6.50551e-05
4.7767e-05
6.50379e-05
6.10102e-05
6.09877e-05
5.22456e-05
4.78159e-05
6.50612e-05
4.77682e-05
6.50431e-05
6.10115e-05
6.8779e-05
7.37006e-05
7.36798e-05
6.87934e-05
6.8781e-05
7.37056e-05
7.36841e-05
6.87953e-05
7.13953e-05
7.14197e-05
7.13984e-05
7.14227e-05
5.42091e-05
7.01479e-05
7.01598e-05
7.01351e-05
7.01482e-05
7.14451e-05
7.1421e-05
7.14481e-05
7.14241e-05
7.14449e-05
7.14684e-05
7.1448e-05
7.14715e-05
7.01551e-05
7.01652e-05
5.42922e-05
7.01654e-05
7.01756e-05
7.14928e-05
7.14697e-05
7.1496e-05
7.14727e-05
5.43276e-05
7.0183e-05
7.01932e-05
7.01729e-05
7.0183e-05
6.88156e-05
7.37074e-05
6.88006e-05
7.37294e-05
6.10413e-05
6.50584e-05
4.78632e-05
5.23552e-05
6.10174e-05
6.50743e-05
4.79084e-05
6.1042e-05
6.5062e-05
4.7864e-05
5.23549e-05
6.10182e-05
6.50778e-05
4.79091e-05
6.88158e-05
7.37475e-05
7.37267e-05
6.88299e-05
6.88167e-05
7.3753e-05
7.37328e-05
6.88308e-05
6.10439e-05
5.23919e-05
6.50932e-05
4.79968e-05
6.50778e-05
4.79549e-05
6.10656e-05
6.10447e-05
5.23917e-05
6.50968e-05
4.79975e-05
6.50813e-05
4.79557e-05
6.10663e-05
7.01654e-05
7.01521e-05
5.42928e-05