/*--------------------------------*- C++ -*----------------------------------*\
| =========                 |                                                 |
| \\      /  F ield         | OpenFOAM: The Open Source CFD Toolbox           |
|  \\    /   O peration     | Version:  v1906                                 |
|   \\  /    A nd           | Web:      www.OpenFOAM.com                      |
|    \\/     M anipulation  |                                                 |
\*---------------------------------------------------------------------------*/
FoamFile
{
    version     2.0;
    format      ascii;
    class       volVectorField;
    location    "400";
    object      U;
}
// * * * * * * * * * * * * * * * * * * * * * * * * * * * * * * * * * * * * * //

dimensions      [0 1 -1 0 0 0 0];


internalField   nonuniform List<vector> 
43024
(
(-1.03731e-05 -1.03594e-05 0.112441)
(1.16329e-05 -6.29353e-06 0.107481)
(-6.2925e-06 1.16492e-05 0.10748)
(-2.35156e-05 -2.35276e-05 0.104203)
(-1.06377e-05 -1.0628e-05 0.112404)
(1.17443e-05 -6.38172e-06 0.107473)
(-6.38076e-06 1.17551e-05 0.107472)
(-2.34035e-05 -2.34298e-05 0.104207)
(-1.08343e-05 -1.08337e-05 0.112368)
(1.18026e-05 -6.43955e-06 0.107465)
(-6.44066e-06 1.18019e-05 0.107464)
(-2.33247e-05 -2.33752e-05 0.104212)
(-1.09659e-05 -1.09719e-05 0.112333)
(1.17981e-05 -6.46437e-06 0.107459)
(-6.4701e-06 1.17841e-05 0.107458)
(-2.3305e-05 -2.33794e-05 0.104218)
(-1.10333e-05 -1.10426e-05 0.112298)
(1.17264e-05 -6.45472e-06 0.107453)
(-6.47031e-06 1.16975e-05 0.107452)
(-2.33386e-05 -2.34287e-05 0.104224)
(-1.10354e-05 -1.10477e-05 0.112264)
(1.15821e-05 -6.41826e-06 0.107448)
(-6.4379e-06 1.15397e-05 0.107447)
(-2.34364e-05 -2.35247e-05 0.10423)
(-1.09716e-05 -1.09848e-05 0.112231)
(1.13576e-05 -6.35434e-06 0.107443)
(-6.37437e-06 1.13119e-05 0.107442)
(-2.36005e-05 -2.36694e-05 0.104237)
(-1.08465e-05 -1.08561e-05 0.112199)
(1.10506e-05 -6.25683e-06 0.10744)
(-6.27577e-06 1.10102e-05 0.107438)
(-2.38293e-05 -2.38632e-05 0.104244)
(-1.0662e-05 -1.06668e-05 0.112168)
(1.06772e-05 -6.12614e-06 0.107437)
(-6.13691e-06 1.06519e-05 0.107435)
(-2.4118e-05 -2.41068e-05 0.104252)
(-1.04162e-05 -1.04242e-05 0.112139)
(1.02677e-05 -5.96256e-06 0.107435)
(-5.95431e-06 1.02597e-05 0.107433)
(-2.44359e-05 -2.43749e-05 0.10426)
(-1.01223e-05 -1.01415e-05 0.112111)
(9.83423e-06 -5.76249e-06 0.107433)
(-5.72844e-06 9.84527e-06 0.107432)
(-2.47698e-05 -2.46789e-05 0.104268)
(-9.79679e-06 -9.82813e-06 0.112085)
(9.39765e-06 -5.5461e-06 0.107433)
(-5.48344e-06 9.42579e-06 0.107431)
(-2.50991e-05 -2.49996e-05 0.104276)
(-9.4634e-06 -9.50102e-06 0.112061)
(8.97816e-06 -5.31144e-06 0.107433)
(-5.22986e-06 9.01878e-06 0.107432)
(-2.54183e-05 -2.53229e-05 0.104285)
(-9.14529e-06 -9.17964e-06 0.112039)
(8.59256e-06 -5.06982e-06 0.107433)
(-4.99061e-06 8.63913e-06 0.107433)
(-2.57142e-05 -2.56298e-05 0.104293)
(-8.87214e-06 -8.89023e-06 0.112019)
(8.25789e-06 -4.82584e-06 0.107435)
(-4.7693e-06 8.30622e-06 0.107434)
(-2.59691e-05 -2.58958e-05 0.104302)
(-8.68399e-06 -8.67742e-06 0.112)
(7.97546e-06 -4.57398e-06 0.107437)
(-4.55306e-06 8.0264e-06 0.107437)
(-2.61425e-05 -2.60774e-05 0.10431)
(-8.69629e-06 -8.6635e-06 0.111985)
(7.74833e-06 -4.27198e-06 0.10744)
(-4.29494e-06 7.79995e-06 0.10744)
(-2.60693e-05 -2.60163e-05 0.104319)
(-9.19264e-06 -9.13307e-06 0.111972)
(7.50432e-06 -3.75107e-06 0.107444)
(-3.81502e-06 7.54439e-06 0.107444)
(-2.51261e-05 -2.50927e-05 0.104329)
(-1.08367e-05 -1.0754e-05 0.111964)
(6.86768e-06 -2.41319e-06 0.10745)
(-2.51951e-06 6.90318e-06 0.10745)
(-2.10905e-05 -2.10852e-05 0.104348)
(-1.98805e-05 -1.97368e-05 0.111957)
(8.58298e-06 -7.31678e-07 0.107461)
(-9.15885e-07 8.65192e-06 0.107461)
(-6.15923e-06 -6.14039e-06 0.1044)
(-2.26698e-05 -2.24322e-05 0.112068)
(0.000119866 -5.84254e-05 0.107722)
(-5.86754e-05 0.000119896 0.107723)
(3.94881e-05 3.94859e-05 0.104758)
(-4.17114e-05 -4.17156e-05 0.104317)
(-6.26944e-06 -1.15467e-05 0.107481)
(6.31952e-06 -1.15204e-05 0.10748)
(4.17604e-05 -4.16746e-05 0.104317)
(-1.15695e-05 -6.28845e-06 0.107482)
(-1.1517e-05 6.32505e-06 0.107479)
(1.15971e-05 -6.2661e-06 0.107483)
(1.15539e-05 6.29393e-06 0.10748)
(-4.16626e-05 4.17682e-05 0.104316)
(-6.26511e-06 1.1616e-05 0.107482)
(6.32816e-06 1.15844e-05 0.107482)
(4.1748e-05 4.17271e-05 0.104316)
(2.35337e-05 2.35212e-05 0.104203)
(-4.16115e-05 -4.16207e-05 0.10432)
(-6.29699e-06 -1.15805e-05 0.107479)
(6.34992e-06 -1.15534e-05 0.107478)
(-6.36058e-06 -1.16571e-05 0.107472)
(6.42578e-06 -1.16262e-05 0.107472)
(-2.3486e-05 2.35348e-05 0.104203)
(4.1673e-05 -4.15709e-05 0.10432)
(-1.16018e-05 -6.31722e-06 0.10748)
(-1.15507e-05 6.35421e-06 0.107477)
(-1.16772e-05 -6.38841e-06 0.107474)
(-1.16285e-05 6.42243e-06 0.107471)
(1.15907e-05 6.32512e-06 0.107478)
(1.17164e-05 -6.35871e-06 0.107474)
(1.16761e-05 6.39716e-06 0.107472)
(2.35368e-05 -2.34984e-05 0.104203)
(-4.15688e-05 4.16724e-05 0.104319)
(6.36148e-06 1.1619e-05 0.10748)
(-6.35736e-06 1.17313e-05 0.107474)
(6.44197e-06 1.1698e-05 0.107474)
(4.16558e-05 4.16213e-05 0.10432)
(2.34407e-05 2.34226e-05 0.104207)
(-4.14907e-05 -4.15096e-05 0.104323)
(-6.38239e-06 -1.16806e-05 0.10747)
(6.45043e-06 -1.16493e-05 0.10747)
(-6.42539e-06 -1.17201e-05 0.107465)
(6.50242e-06 -1.16829e-05 0.107464)
(-2.33791e-05 2.34433e-05 0.104207)
(4.15634e-05 -4.14559e-05 0.104324)
(-1.16987e-05 -6.41131e-06 0.107472)
(-1.16527e-05 6.44341e-06 0.107469)
(-1.17356e-05 -6.45987e-06 0.107466)
(-1.16907e-05 6.48475e-06 0.107463)
(1.17034e-05 6.42201e-06 0.10747)
(1.17851e-05 -6.41895e-06 0.107467)
(1.17496e-05 6.46129e-06 0.107465)
(2.34402e-05 -2.34057e-05 0.104207)
(-4.14625e-05 4.15527e-05 0.104323)
(6.47074e-06 1.17227e-05 0.107472)
(-6.42166e-06 1.17887e-05 0.107466)
(6.52255e-06 1.17568e-05 0.107466)
(4.15543e-05 4.14969e-05 0.104323)
(2.33856e-05 2.3358e-05 0.104212)
(-4.13465e-05 -4.13657e-05 0.104328)
(-6.44146e-06 -1.17328e-05 0.107463)
(6.51993e-06 -1.16957e-05 0.107462)
(-6.45017e-06 -1.17178e-05 0.107458)
(6.53534e-06 -1.16802e-05 0.107457)
(-2.3322e-05 2.33902e-05 0.104212)
(4.14194e-05 -4.13091e-05 0.104328)
(-1.17468e-05 -6.47828e-06 0.107464)
(-1.1706e-05 6.49968e-06 0.107462)
(-1.17323e-05 -6.49271e-06 0.107459)
(-1.16968e-05 6.50327e-06 0.107457)
(1.17676e-05 6.4771e-06 0.107463)
(1.17901e-05 -6.45099e-06 0.10746)
(1.17643e-05 6.48182e-06 0.107458)
(2.33739e-05 -2.33548e-05 0.104212)
(-4.13268e-05 4.13909e-05 0.104327)
(6.54191e-06 1.17701e-05 0.107464)
(-6.45439e-06 1.17801e-05 0.107459)
(6.56208e-06 1.17505e-05 0.107459)
(4.14265e-05 4.13447e-05 0.104328)
(2.33758e-05 2.33495e-05 0.104217)
(-4.1178e-05 -4.11925e-05 0.104333)
(-6.46132e-06 -1.17208e-05 0.107456)
(6.54627e-06 -1.16849e-05 0.107456)
(-6.43827e-06 -1.16497e-05 0.107452)
(6.51898e-06 -1.16181e-05 0.107451)
(-2.33065e-05 2.33758e-05 0.104217)
(4.12426e-05 -4.11434e-05 0.104333)
(-1.17358e-05 -6.50485e-06 0.107458)
(-1.17044e-05 6.51039e-06 0.107455)
(-1.16687e-05 -6.48752e-06 0.107453)
(-1.16428e-05 6.47601e-06 0.10745)
(1.17724e-05 6.49178e-06 0.107457)
(1.17286e-05 -6.44354e-06 0.107454)
(1.17116e-05 6.45999e-06 0.107452)
(2.33523e-05 -2.3362e-05 0.104217)
(-4.11722e-05 4.11991e-05 0.104332)
(6.57811e-06 1.17536e-05 0.107458)
(-6.45808e-06 1.17042e-05 0.107453)
(6.56006e-06 1.16785e-05 0.107453)
(4.12652e-05 4.11657e-05 0.104333)
(2.34172e-05 2.33953e-05 0.104223)
(-4.09747e-05 -4.09842e-05 0.104338)
(-6.44527e-06 -1.16437e-05 0.10745)
(6.5219e-06 -1.16155e-05 0.10745)
(-6.38973e-06 -1.15185e-05 0.107446)
(6.45372e-06 -1.14995e-05 0.107446)
(-2.33547e-05 2.34095e-05 0.104223)
(4.10233e-05 -4.09606e-05 0.104339)
(-1.16622e-05 -6.49452e-06 0.107452)
(-1.16421e-05 6.47681e-06 0.107449)
(-1.15381e-05 -6.43675e-06 0.107447)
(-1.15257e-05 6.3981e-06 0.107445)
(1.17101e-05 6.46468e-06 0.107451)
(1.1594e-05 -6.40701e-06 0.107449)
(1.15889e-05 6.39502e-06 0.107447)
(2.33763e-05 -2.34251e-05 0.104223)
(-4.09896e-05 4.0966e-05 0.104338)
(6.5681e-06 1.16738e-05 0.107452)
(-6.42411e-06 1.15554e-05 0.107448)
(6.50318e-06 1.15452e-05 0.107448)
(4.10583e-05 4.09576e-05 0.104339)
(2.35076e-05 2.34909e-05 0.104229)
(-4.07432e-05 -4.0752e-05 0.104344)
(-6.39437e-06 -1.15059e-05 0.107445)
(6.45078e-06 -1.14912e-05 0.107445)
(-6.30612e-06 -1.13224e-05 0.107441)
(6.33322e-06 -1.13201e-05 0.107441)
(-2.34667e-05 2.34807e-05 0.10423)
(4.07544e-05 -4.07568e-05 0.104345)
(-1.15244e-05 -6.44122e-06 0.107446)
(-1.15174e-05 6.39705e-06 0.107444)
(-1.13418e-05 -6.34825e-06 0.107443)
(-1.13455e-05 6.27887e-06 0.10744)
(1.15771e-05 6.39558e-06 0.107446)
(1.13777e-05 -6.34176e-06 0.107444)
(1.13866e-05 6.28798e-06 0.107442)
(2.34499e-05 -2.35505e-05 0.104229)
(-4.07824e-05 4.07008e-05 0.104344)
(6.50343e-06 1.15328e-05 0.107447)
(-6.36163e-06 1.13334e-05 0.107443)
(6.39063e-06 1.13453e-05 0.107443)
(4.08056e-05 4.07211e-05 0.104345)
(2.36485e-05 2.36323e-05 0.104236)
(-4.04839e-05 -4.04851e-05 0.104351)
(-6.31119e-06 -1.13036e-05 0.107441)
(6.32414e-06 -1.13071e-05 0.10744)
(-6.18643e-06 -1.10545e-05 0.107437)
(6.15562e-06 -1.10752e-05 0.107437)
(-2.36464e-05 2.35913e-05 0.104237)
(4.04407e-05 -4.05277e-05 0.104352)
(-1.13231e-05 -6.35209e-06 0.107442)
(-1.13328e-05 6.27324e-06 0.10744)
(-1.10791e-05 -6.22047e-06 0.107439)
(-1.10977e-05 6.11585e-06 0.107436)
(1.13657e-05 6.28753e-06 0.107441)
(1.10772e-05 -6.24212e-06 0.10744)
(1.11005e-05 6.14421e-06 0.107438)
(2.35639e-05 -2.37232e-05 0.104236)
(-4.05455e-05 4.04017e-05 0.104351)
(6.38566e-06 1.1327e-05 0.107442)
(-6.26224e-06 1.10351e-05 0.107439)
(6.22276e-06 1.10745e-05 0.107439)
(4.05099e-05 4.04586e-05 0.104352)
(2.38369e-05 2.38281e-05 0.104244)
(-4.01897e-05 -4.019e-05 0.104358)
(-6.19375e-06 -1.10317e-05 0.107437)
(6.14579e-06 -1.10602e-05 0.107437)
(-6.03072e-06 -1.07184e-05 0.107434)
(5.94077e-06 -1.07651e-05 0.107434)
(-2.38908e-05 2.37484e-05 0.104244)
(4.00942e-05 -4.02666e-05 0.104359)
(-1.10563e-05 -6.22549e-06 0.107438)
(-1.10824e-05 6.1112e-06 0.107436)
(-1.07475e-05 -6.0568e-06 0.107435)
(-1.07788e-05 5.92104e-06 0.107433)
(1.10739e-05 6.14641e-06 0.107438)
(1.07044e-05 -6.10934e-06 0.107437)
(1.07387e-05 5.96999e-06 0.107435)
(2.37301e-05 -2.39499e-05 0.104243)
(-4.0264e-05 4.00793e-05 0.104358)
(6.21562e-06 1.10529e-05 0.107439)
(-6.12222e-06 1.06741e-05 0.107435)
(6.00876e-06 1.07389e-05 0.107435)
(4.01647e-05 4.01575e-05 0.104358)
(2.40779e-05 2.40677e-05 0.104252)
(-3.98629e-05 -3.9869e-05 0.104366)
(-6.04186e-06 -1.06993e-05 0.107434)
(5.93754e-06 -1.07518e-05 0.107434)
(-5.83042e-06 -1.03276e-05 0.107431)
(5.69722e-06 -1.03935e-05 0.107431)
(-2.41815e-05 2.39565e-05 0.104252)
(3.97333e-05 -3.997e-05 0.104366)
(-1.07262e-05 -6.06745e-06 0.107436)
(-1.07626e-05 5.92396e-06 0.107433)
(-1.03498e-05 -5.85977e-06 0.107433)
(-1.03886e-05 5.70343e-06 0.10743)
(1.07121e-05 5.97823e-06 0.107435)
(1.02785e-05 -5.93607e-06 0.107434)
(1.03118e-05 5.76726e-06 0.107432)
(2.39603e-05 -2.42135e-05 0.104251)
(-3.99366e-05 3.97477e-05 0.104365)
(6.00765e-06 1.07207e-05 0.107436)
(-5.93342e-06 1.02668e-05 0.107433)
(5.76612e-06 1.0347e-05 0.107433)
(3.98e-05 3.98446e-05 0.104366)
(2.4363e-05 2.43448e-05 0.10426)
(-3.94964e-05 -3.95332e-05 0.104374)
(-5.84835e-06 -1.0321e-05 0.107432)
(5.70819e-06 -1.03903e-05 0.107432)
(-5.58584e-06 -9.89123e-06 0.107429)
(5.43691e-06 -9.9677e-06 0.107429)
(-2.45052e-05 2.42211e-05 0.10426)
(3.93663e-05 -3.96321e-05 0.104374)
(-1.03361e-05 -5.88097e-06 0.107433)
(-1.03812e-05 5.72009e-06 0.107431)
(-9.89328e-06 -5.62864e-06 0.107431)
(-9.93641e-06 5.46568e-06 0.107428)
(1.02968e-05 5.78764e-06 0.107432)
(9.81234e-06 -5.71747e-06 0.107432)
(9.84016e-06 5.53113e-06 0.107429)
(2.42441e-05 -2.4497e-05 0.104259)
(-3.95728e-05 3.94104e-05 0.104373)
(5.77685e-06 1.03411e-05 0.107433)
(-5.69235e-06 9.82051e-06 0.10743)
(5.4968e-06 9.91024e-06 0.10743)
(3.9427e-05 3.95044e-05 0.104373)
(2.46934e-05 2.46429e-05 0.104268)
(-3.91176e-05 -3.91806e-05 0.104382)
(-5.62135e-06 -9.91569e-06 0.107431)
(5.47181e-06 -9.99015e-06 0.10743)
(-5.30487e-06 -9.41489e-06 0.107428)
(5.16735e-06 -9.49029e-06 0.107428)
(-2.48209e-05 2.45143e-05 0.104268)
(3.90173e-05 -3.92762e-05 0.104383)
(-9.90762e-06 -5.66883e-06 0.107432)
(-9.95443e-06 5.50533e-06 0.10743)
(-9.39342e-06 -5.36752e-06 0.107429)
(-9.43408e-06 5.21131e-06 0.107427)
(9.85739e-06 5.57076e-06 0.107431)
(9.32006e-06 -5.46713e-06 0.10743)
(9.33644e-06 5.26663e-06 0.107428)
(2.45744e-05 -2.47986e-05 0.104268)
(-3.91919e-05 3.90715e-05 0.104381)
(5.52908e-06 9.933e-06 0.107432)
(-5.41074e-06 9.34363e-06 0.107429)
(5.21171e-06 9.42726e-06 0.107429)
(3.90545e-05 3.91437e-05 0.104381)
(2.50309e-05 2.49545e-05 0.104277)
(-3.87366e-05 -3.8817e-05 0.104391)
(-5.3779e-06 -9.49399e-06 0.107431)
(5.2445e-06 -9.56917e-06 0.10743)
(-5.00704e-06 -8.90971e-06 0.107427)
(4.8941e-06 -8.97976e-06 0.107427)
(-2.51271e-05 2.48314e-05 0.104277)
(3.86688e-05 -3.88982e-05 0.104391)
(-9.46447e-06 -5.44671e-06 0.107432)
(-9.50946e-06 5.29174e-06 0.107429)
(-8.86886e-06 -5.08504e-06 0.107428)
(-8.90403e-06 4.94087e-06 0.107426)
(9.40958e-06 5.34262e-06 0.10743)
(8.80622e-06 -5.1794e-06 0.107429)
(8.80974e-06 4.97948e-06 0.107426)
(2.49164e-05 -2.50969e-05 0.104277)
(-3.87933e-05 3.87245e-05 0.10439)
(5.28497e-06 9.50436e-06 0.107431)
(-5.10093e-06 8.84458e-06 0.107428)
(4.91835e-06 8.90972e-06 0.107427)
(3.8684e-05 3.87696e-05 0.104389)
(2.53601e-05 2.52687e-05 0.104286)
(-3.835e-05 -3.84309e-05 0.104399)
(-5.13582e-06 -9.07753e-06 0.107431)
(5.02703e-06 -9.14663e-06 0.10743)
(-4.69891e-06 -8.37725e-06 0.107427)
(4.60886e-06 -8.43705e-06 0.107426)
(-2.54243e-05 2.51615e-05 0.104286)
(3.83095e-05 -3.8494e-05 0.104399)
(-9.03232e-06 -5.21542e-06 0.107432)
(-9.06672e-06 5.0747e-06 0.107429)
(-8.33145e-06 -4.77856e-06 0.107428)
(-8.35231e-06 4.65526e-06 0.107425)
(8.97412e-06 5.11059e-06 0.10743)
(8.27869e-06 -4.85946e-06 0.107428)
(8.26713e-06 4.67706e-06 0.107425)
(2.52668e-05 -2.53951e-05 0.104285)
(-3.83921e-05 3.83667e-05 0.104398)
(5.04837e-06 9.07559e-06 0.107431)
(-4.77734e-06 8.32596e-06 0.107427)
(4.61656e-06 8.36907e-06 0.107426)
(3.83068e-05 3.83832e-05 0.104398)
(2.5656e-05 2.55676e-05 0.104295)
(-3.79626e-05 -3.80166e-05 0.104408)
(-4.91551e-06 -8.68436e-06 0.107432)
(4.82938e-06 -8.7408e-06 0.107431)
(-4.3911e-06 -7.81862e-06 0.107426)
(4.32134e-06 -7.86278e-06 0.107425)
(-2.57039e-05 2.549e-05 0.104295)
(3.79336e-05 -3.80531e-05 0.104408)
(-8.63755e-06 -4.99161e-06 0.107433)
(-8.65791e-06 4.87391e-06 0.10743)
(-7.78472e-06 -4.45335e-06 0.107427)
(-7.7878e-06 4.36311e-06 0.107424)
(8.57344e-06 4.89401e-06 0.10743)
(7.73449e-06 -4.50837e-06 0.107428)
(7.70439e-06 4.36928e-06 0.107424)
(2.55863e-05 -2.56719e-05 0.104294)
(-3.79698e-05 3.79811e-05 0.104407)
(4.83067e-06 8.67454e-06 0.107432)
(-4.44501e-06 7.78241e-06 0.107427)
(4.31025e-06 7.80735e-06 0.107426)
(3.79069e-05 3.79744e-05 0.104406)
(2.59063e-05 2.5847e-05 0.104304)
(-3.75001e-05 -3.75136e-05 0.104416)
(-4.71729e-06 -8.33072e-06 0.107434)
(4.64971e-06 -8.3728e-06 0.107433)
(-4.08029e-06 -7.20406e-06 0.107425)
(4.02171e-06 -7.23426e-06 0.107424)
(-2.59357e-05 2.57902e-05 0.104304)
(3.74805e-05 -3.75262e-05 0.104416)
(-8.30087e-06 -4.77379e-06 0.107435)
(-8.30413e-06 4.6898e-06 0.107432)
(-7.1973e-06 -4.11323e-06 0.107426)
(-7.18203e-06 4.06142e-06 0.107424)
(8.21895e-06 4.69612e-06 0.107432)
(7.14926e-06 -4.13934e-06 0.107427)
(7.10079e-06 4.0579e-06 0.107423)
(2.58648e-05 -2.59149e-05 0.104303)
(-3.74786e-05 3.75156e-05 0.104415)
(4.63919e-06 8.32156e-06 0.107433)
(-4.10663e-06 7.19855e-06 0.107426)
(4.00281e-06 7.20056e-06 0.107425)
(3.74312e-05 3.74917e-05 0.104414)
(2.60667e-05 2.60482e-05 0.104313)
(-3.68222e-05 -3.67959e-05 0.104424)
(-4.5311e-06 -8.01895e-06 0.107436)
(4.47107e-06 -8.0449e-06 0.107435)
(-3.7944e-06 -6.53335e-06 0.107424)
(3.74518e-06 -6.54577e-06 0.107423)
(-2.60887e-05 2.60184e-05 0.104312)
(3.68184e-05 -3.67865e-05 0.104423)
(-8.01832e-06 -4.55537e-06 0.107437)
(-8.00233e-06 4.51187e-06 0.107434)
(-6.55915e-06 -3.79652e-06 0.107425)
(-6.5231e-06 3.78584e-06 0.107422)
(7.9222e-06 4.50947e-06 0.107434)
(6.51369e-06 -3.7857e-06 0.107425)
(6.44971e-06 3.7817e-06 0.107422)
(2.60567e-05 -2.60775e-05 0.104312)
(-3.67831e-05 3.68456e-05 0.104423)
(4.45475e-06 8.0196e-06 0.107435)
(-3.79487e-06 6.56336e-06 0.107425)
(3.73056e-06 6.54598e-06 0.107423)
(3.6745e-05 3.6799e-05 0.104421)
(2.59864e-05 2.60085e-05 0.104321)
(-3.54242e-05 -3.53586e-05 0.104429)
(-4.30173e-06 -7.76093e-06 0.107439)
(4.25113e-06 -7.76514e-06 0.107438)
(-3.66589e-06 -5.84757e-06 0.107422)
(3.62833e-06 -5.83069e-06 0.107421)
(-2.5996e-05 2.60075e-05 0.104321)
(3.5426e-05 -3.53112e-05 0.104429)
(-7.78972e-06 -4.29182e-06 0.10744)
(-7.75256e-06 4.28972e-06 0.107437)
(-5.90358e-06 -3.63009e-06 0.107423)
(-5.8449e-06 3.66816e-06 0.10742)
(7.68334e-06 4.28783e-06 0.107437)
(5.87415e-06 -3.57909e-06 0.107423)
(5.79283e-06 3.66189e-06 0.10742)
(2.60039e-05 -2.59887e-05 0.10432)
(-3.53512e-05 3.54389e-05 0.104428)
(4.23922e-06 7.77743e-06 0.107438)
(-3.62858e-06 5.91557e-06 0.107423)
(3.61463e-06 5.88056e-06 0.107421)
(3.53533e-05 3.54021e-05 0.104427)
(2.50585e-05 2.5121e-05 0.104332)
(-3.15127e-05 -3.14079e-05 0.104428)
(-3.85567e-06 -7.46654e-06 0.107444)
(3.81418e-06 -7.4439e-06 0.107442)
(-4.07557e-06 -5.30157e-06 0.107419)
(4.07235e-06 -5.2669e-06 0.107418)
(-2.50579e-05 2.51618e-05 0.104331)
(3.15197e-05 -3.13366e-05 0.104428)
(-7.53076e-06 -3.81439e-06 0.107445)
(-7.46805e-06 3.85687e-06 0.107442)
(-5.39679e-06 -4.00339e-06 0.10742)
(-5.32508e-06 4.10597e-06 0.107417)
(7.42535e-06 3.85774e-06 0.107441)
(5.37819e-06 -3.92841e-06 0.10742)
(5.29789e-06 4.09252e-06 0.107417)
(2.51239e-05 -2.50606e-05 0.104331)
(-3.14144e-05 3.15148e-05 0.104427)
(3.81547e-06 7.51071e-06 0.107443)
(-4.0088e-06 5.41313e-06 0.10742)
(4.05361e-06 5.36658e-06 0.107418)
(3.14447e-05 3.14816e-05 0.104426)
(2.1041e-05 2.11402e-05 0.10435)
(-2.1067e-05 -2.09655e-05 0.104402)
(-2.57772e-06 -6.78827e-06 0.10745)
(2.56232e-06 -6.73392e-06 0.107448)
(-7.01233e-06 -7.19526e-06 0.107415)
(7.03262e-06 -7.12367e-06 0.107413)
(-2.10057e-05 2.12209e-05 0.104349)
(2.10752e-05 -2.08566e-05 0.104401)
(-6.87441e-06 -2.51622e-06 0.107451)
(-6.80308e-06 2.60172e-06 0.107448)
(-7.28077e-06 -6.87403e-06 0.107416)
(-7.23362e-06 7.05977e-06 0.107413)
(6.79161e-06 2.60435e-06 0.107447)
(7.30164e-06 -6.74327e-06 0.107416)
(7.24542e-06 7.02083e-06 0.107413)
(2.11444e-05 -2.10158e-05 0.104349)
(-2.09831e-05 2.1063e-05 0.104401)
(2.58051e-06 6.84864e-06 0.107449)
(-6.88095e-06 7.32851e-06 0.107416)
(6.97633e-06 7.25083e-06 0.107414)
(2.10475e-05 2.10071e-05 0.1044)
(6.0855e-06 6.27155e-06 0.104402)
(-3.98817e-05 -3.96211e-05 0.104359)
(-1.01177e-06 -8.44921e-06 0.10746)
(1.0048e-06 -8.35158e-06 0.107459)
(-3.63444e-05 -5.32945e-05 0.10747)
(3.64188e-05 -5.32269e-05 0.107469)
(-6.04748e-06 6.3932e-06 0.104401)
(3.99251e-05 -3.95185e-05 0.104357)
(-8.60794e-06 -8.82674e-07 0.107461)
(-8.52517e-06 1.04706e-06 0.107458)
(-5.35416e-05 -3.60843e-05 0.107472)
(-5.34038e-05 3.64071e-05 0.107469)
(8.55244e-06 1.05205e-06 0.107458)
(5.35518e-05 -3.59412e-05 0.107471)
(5.34998e-05 3.63939e-05 0.107469)
(6.2383e-06 -6.06964e-06 0.104401)
(-3.97056e-05 3.98445e-05 0.104358)
(1.0188e-06 8.57619e-06 0.10746)
(-3.61614e-05 5.35315e-05 0.107471)
(3.63428e-05 5.3509e-05 0.10747)
(3.98134e-05 3.9801e-05 0.104357)
(-3.94573e-05 -3.91738e-05 0.104759)
(-5.8845e-05 -0.000119527 0.107722)
(5.89286e-05 -0.00011948 0.107721)
(3.95283e-05 -3.90829e-05 0.104758)
(-0.000119856 -5.8571e-05 0.107724)
(-0.000119754 5.89273e-05 0.107721)
(2.27394e-05 -2.23323e-05 0.112067)
(-2.25744e-05 2.28072e-05 0.112068)
(2.27037e-05 2.2771e-05 0.112067)
(0.000119824 5.89193e-05 0.107721)
(-3.93702e-05 3.95106e-05 0.104759)
(5.88697e-05 0.000119889 0.107722)
(-2.54374e-07 -1.67486e-05 0.091429)
(-1.23194e-06 -1.21089e-05 0.0822903)
(3.40941e-06 -5.88868e-06 0.0716082)
(-1.67698e-05 -2.88073e-07 0.0914285)
(-1.2118e-05 -1.22963e-06 0.0822907)
(-1.02974e-05 -1.0283e-05 0.11245)
(1.03285e-05 -1.02644e-05 0.11245)
(-1.02648e-05 1.03422e-05 0.112449)
(1.03135e-05 1.03207e-05 0.112449)
(2.74986e-05 -6.68695e-07 0.0985803)
(1.15154e-05 -6.20748e-06 0.107487)
(2.05684e-05 -7.80516e-06 0.09307)
(1.45876e-05 -2.61983e-06 0.109906)
(-5.8402e-06 3.35729e-06 0.0716097)
(-6.67488e-07 2.74758e-05 0.0985806)
(-6.20441e-06 1.1536e-05 0.107487)
(-2.61319e-06 1.46091e-05 0.109905)
(-7.82967e-06 2.0629e-05 0.0930698)
(4.17875e-05 4.17715e-05 0.104315)
(1.0006e-05 6.99796e-06 0.0876112)
(7.08049e-06 9.97279e-06 0.0876095)
(-2.49594e-07 -1.67174e-05 0.0914608)
(6.5005e-07 7.03487e-06 0.0822651)
(-2.0434e-07 4.74482e-06 0.0914081)
(-1.26516e-06 -1.20612e-05 0.0823247)
(-2.44474e-06 4.35844e-06 0.071578)
(3.45893e-06 -5.83797e-06 0.0716396)
(-1.67416e-05 -3.01576e-07 0.0914602)
(7.07211e-06 5.54193e-07 0.0822643)
(4.78612e-06 -2.3546e-07 0.0914086)
(-1.20487e-05 -1.26366e-06 0.0823252)
(1.04097e-05 -1.03426e-05 0.112441)
(-1.03426e-05 1.04233e-05 0.11244)
(1.03959e-05 1.04035e-05 0.11244)
(-1.05741e-05 -1.05623e-05 0.112413)
(1.06225e-05 -1.05403e-05 0.112413)
(-1.05422e-05 1.06275e-05 0.112412)
(1.06095e-05 1.06089e-05 0.112413)
(2.75143e-05 -6.67829e-07 0.0986017)
(-8.51923e-06 2.99918e-06 0.093035)
(1.48506e-05 -2.67323e-06 0.109891)
(1.16624e-05 -6.31633e-06 0.107479)
(-7.68661e-06 -4.20725e-07 0.0985404)
(2.05395e-05 -7.81005e-06 0.0930995)
(1.49241e-05 -2.68622e-06 0.109886)
(4.27796e-06 -2.44119e-06 0.0715756)
(-5.80105e-06 3.38737e-06 0.0716411)
(-6.59028e-07 2.7485e-05 0.098602)
(-2.66544e-06 1.48656e-05 0.10989)
(3.03526e-06 -8.54819e-06 0.0930359)
(-6.31094e-06 1.16781e-05 0.107478)
(-3.82848e-07 -7.63805e-06 0.0985405)
(-2.67536e-06 1.49402e-05 0.109885)
(-7.83807e-06 2.05962e-05 0.0930993)
(-3.46353e-06 -3.3629e-06 0.0875863)
(-3.30813e-06 -3.48811e-06 0.0875851)
(4.17045e-05 4.16783e-05 0.104318)
(9.96e-06 7.00984e-06 0.0876441)
(7.12243e-06 9.90841e-06 0.0876423)
(-2.5034e-07 -1.66679e-05 0.0914926)
(6.05416e-07 7.0626e-06 0.0822996)
(-2.02609e-07 4.7331e-06 0.0914401)
(-1.30476e-06 -1.20018e-05 0.082359)
(-2.39637e-06 4.37555e-06 0.0716094)
(3.49398e-06 -5.79553e-06 0.0716708)
(-1.66975e-05 -3.1839e-07 0.0914921)
(7.09148e-06 5.10321e-07 0.0822988)
(4.76658e-06 -2.53742e-07 0.0914405)
(-1.20038e-05 -1.30269e-06 0.0823595)
(1.069e-05 -1.06034e-05 0.112405)
(-1.06061e-05 1.06932e-05 0.112403)
(1.06753e-05 1.06752e-05 0.112404)
(-1.07864e-05 -1.07823e-05 0.112377)
(1.08487e-05 -1.0752e-05 0.112377)
(-1.07549e-05 1.0846e-05 0.112376)
(1.08377e-05 1.08267e-05 0.112377)
(2.74973e-05 -6.61984e-07 0.0986237)
(-8.52662e-06 2.96609e-06 0.0930648)
(1.51285e-05 -2.73262e-06 0.109872)
(1.17568e-05 -6.39166e-06 0.107471)
(-7.61435e-06 -4.20584e-07 0.0985625)
(2.0493e-05 -7.81309e-06 0.0931291)
(1.51771e-05 -2.74165e-06 0.109868)
(4.28359e-06 -2.41212e-06 0.0716069)
(-5.76792e-06 3.4011e-06 0.0716722)
(-6.5122e-07 2.74653e-05 0.0986239)
(-2.71887e-06 1.51423e-05 0.109871)
(2.99773e-06 -8.56151e-06 0.0930657)
(-6.3917e-06 1.17661e-05 0.10747)
(-3.70208e-07 -7.5672e-06 0.0985626)
(-2.7272e-06 1.51903e-05 0.109867)
(-7.84642e-06 2.05422e-05 0.0931289)
(-3.48531e-06 -3.34019e-06 0.0876193)
(-3.25705e-06 -3.52805e-06 0.0876181)
(4.16055e-05 4.15608e-05 0.104321)
(9.90828e-06 7.01461e-06 0.0876769)
(7.15247e-06 9.83857e-06 0.0876752)
(-2.62985e-07 -1.66027e-05 0.0915244)
(5.63692e-07 7.10221e-06 0.0823338)
(-2.142e-07 4.74744e-06 0.091472)
(-1.3422e-06 -1.19299e-05 0.0823931)
(-2.36359e-06 4.39151e-06 0.0716404)
(3.51566e-06 -5.75664e-06 0.0717017)
(-1.66358e-05 -3.31615e-07 0.0915239)
(7.13008e-06 4.70682e-07 0.082333)
(4.7806e-06 -2.70241e-07 0.0914725)
(-1.19471e-05 -1.3363e-06 0.0823936)
(1.08998e-05 -1.08021e-05 0.112369)
(-1.08046e-05 1.08954e-05 0.112368)
(1.08893e-05 1.08769e-05 0.112368)
(-1.09309e-05 -1.09335e-05 0.112341)
(1.10081e-05 -1.09002e-05 0.112342)
(-1.09049e-05 1.0993e-05 0.112341)
(1.10012e-05 1.0973e-05 0.112341)
(2.74462e-05 -6.74565e-07 0.0986459)
(-8.56551e-06 2.94967e-06 0.0930947)
(1.53267e-05 -2.77541e-06 0.109854)
(1.17931e-05 -6.43879e-06 0.107463)
(-7.5831e-06 -4.3323e-07 0.0985849)
(2.04203e-05 -7.80719e-06 0.0931588)
(1.53459e-05 -2.78037e-06 0.10985)
(4.29142e-06 -2.40176e-06 0.0716378)
(-5.74066e-06 3.40454e-06 0.071703)
(-6.52492e-07 2.74089e-05 0.098646)
(-2.75835e-06 1.53299e-05 0.109853)
(2.96093e-06 -8.60825e-06 0.0930954)
(-6.44098e-06 1.179e-05 0.107463)
(-3.68692e-07 -7.54161e-06 0.0985849)
(-2.76343e-06 1.53469e-05 0.109849)
(-7.85771e-06 2.04587e-05 0.0931585)
(-3.518e-06 -3.32574e-06 0.0876522)
(-3.21942e-06 -3.57849e-06 0.0876509)
(4.1493e-05 4.14233e-05 0.104326)
(9.84998e-06 7.00785e-06 0.0877097)
(7.16846e-06 9.76112e-06 0.0877079)
(-2.87943e-07 -1.65081e-05 0.0915561)
(5.06531e-07 7.15941e-06 0.0823676)
(-2.35836e-07 4.78562e-06 0.0915039)
(-1.38989e-06 -1.18345e-05 0.0824267)
(-2.33942e-06 4.40691e-06 0.071671)
(3.53034e-06 -5.71905e-06 0.071732)
(-1.65428e-05 -3.44759e-07 0.0915556)
(7.1781e-06 4.37027e-07 0.082367)
(4.81512e-06 -2.86911e-07 0.0915044)
(-1.18673e-05 -1.3576e-06 0.0824273)
(1.10462e-05 -1.09368e-05 0.112333)
(-1.09427e-05 1.10269e-05 0.112332)
(1.10392e-05 1.10084e-05 0.112333)
(-1.10088e-05 -1.10164e-05 0.112306)
(1.10944e-05 -1.09818e-05 0.112307)
(-1.0989e-05 1.10653e-05 0.112305)
(1.10944e-05 1.10488e-05 0.112306)
(2.7347e-05 -6.84646e-07 0.0986684)
(-8.63054e-06 2.92289e-06 0.0931244)
(1.54339e-05 -2.81074e-06 0.109837)
(1.17653e-05 -6.44839e-06 0.107457)
(-7.60428e-06 -4.46355e-07 0.0986075)
(2.03222e-05 -7.81597e-06 0.0931883)
(1.54211e-05 -2.81132e-06 0.109832)
(4.29615e-06 -2.39124e-06 0.0716685)
(-5.71018e-06 3.40704e-06 0.0717335)
(-6.68242e-07 2.72947e-05 0.0986683)
(-2.78938e-06 1.54275e-05 0.109836)
(2.92127e-06 -8.69252e-06 0.093125)
(-6.45765e-06 1.17482e-05 0.107456)
(-3.77988e-07 -7.57383e-06 0.0986074)
(-2.78893e-06 1.54109e-05 0.109831)
(-7.8761e-06 2.03413e-05 0.0931878)
(-3.56402e-06 -3.33053e-06 0.0876849)
(-3.20785e-06 -3.63921e-06 0.0876835)
(4.13511e-05 4.12593e-05 0.10433)
(9.77826e-06 6.99017e-06 0.0877421)
(7.15654e-06 9.6819e-06 0.0877402)
(-3.22914e-07 -1.63858e-05 0.0915873)
(4.43404e-07 7.23484e-06 0.082401)
(-2.72246e-07 4.86297e-06 0.0915354)
(-1.44839e-06 -1.17533e-05 0.0824598)
(-2.33017e-06 4.42393e-06 0.071701)
(3.52434e-06 -5.6895e-06 0.0717619)
(-1.64309e-05 -3.5894e-07 0.0915871)
(7.23138e-06 3.98427e-07 0.0824004)
(4.8854e-06 -3.01381e-07 0.0915361)
(-1.17916e-05 -1.39017e-06 0.0824605)
(1.1117e-05 -1.10066e-05 0.112298)
(-1.10138e-05 1.10849e-05 0.112297)
(1.1118e-05 1.10705e-05 0.112298)
(-1.10217e-05 -1.10309e-05 0.112272)
(1.11033e-05 -1.10003e-05 0.112272)
(-1.10099e-05 1.10632e-05 0.112271)
(1.11102e-05 1.10526e-05 0.112272)
(2.72011e-05 -7.06923e-07 0.098691)
(-8.73754e-06 2.89314e-06 0.0931539)
(1.54503e-05 -2.83202e-06 0.10982)
(1.16677e-05 -6.42642e-06 0.107451)
(-7.68014e-06 -4.67552e-07 0.0986303)
(2.01861e-05 -7.82736e-06 0.0932176)
(1.5401e-05 -2.828e-06 0.109816)
(4.31464e-06 -2.38261e-06 0.0716986)
(-5.66995e-06 3.41314e-06 0.0717634)
(-6.98665e-07 2.71347e-05 0.0986906)
(-2.80964e-06 1.54263e-05 0.109819)
(2.88646e-06 -8.81575e-06 0.0931543)
(-6.44371e-06 1.16359e-05 0.10745)
(-4.07815e-07 -7.66901e-06 0.09863)
(-2.80568e-06 1.53727e-05 0.109814)
(-7.89385e-06 2.01936e-05 0.0932169)
(-3.63185e-06 -3.33553e-06 0.0877171)
(-3.2307e-06 -3.7022e-06 0.0877157)
(4.11676e-05 4.10643e-05 0.104336)
(9.68233e-06 6.97859e-06 0.0877741)
(7.114e-06 9.59794e-06 0.0877721)
(-3.57626e-07 -1.62455e-05 0.091618)
(3.91189e-07 7.32358e-06 0.0824336)
(-3.08318e-07 4.96603e-06 0.0915665)
(-1.48548e-06 -1.16472e-05 0.0824922)
(-2.34694e-06 4.42894e-06 0.0717303)
(3.49389e-06 -5.67051e-06 0.071791)
(-1.62887e-05 -3.70802e-07 0.091618)
(7.31932e-06 3.57093e-07 0.0824332)
(4.98544e-06 -3.15925e-07 0.0915674)
(-1.16877e-05 -1.42165e-06 0.0824929)
(1.1112e-05 -1.10152e-05 0.112264)
(-1.10259e-05 1.10706e-05 0.112263)
(1.11189e-05 1.10611e-05 0.112264)
(-1.09642e-05 -1.09759e-05 0.112238)
(1.103e-05 -1.09572e-05 0.112239)
(-1.09672e-05 1.0983e-05 0.112237)
(1.1044e-05 1.09811e-05 0.112238)
(2.70033e-05 -7.35221e-07 0.0987134)
(-8.88454e-06 2.85831e-06 0.0931831)
(1.53676e-05 -2.84493e-06 0.109804)
(1.14936e-05 -6.37638e-06 0.107446)
(-7.81692e-06 -4.98219e-07 0.098653)
(2.00151e-05 -7.84612e-06 0.0932465)
(1.52792e-05 -2.83636e-06 0.1098)
(4.34246e-06 -2.36601e-06 0.071728)
(-5.62299e-06 3.4255e-06 0.0717927)
(-7.40676e-07 2.69271e-05 0.0987128)
(-2.82425e-06 1.53286e-05 0.109803)
(2.85164e-06 -8.97129e-06 0.0931832)
(-6.39674e-06 1.14507e-05 0.107445)
(-4.49286e-07 -7.81461e-06 0.0986525)
(-2.81563e-06 1.52377e-05 0.109798)
(-7.90956e-06 2.00183e-05 0.0932455)
(-3.72858e-06 -3.33715e-06 0.0877487)
(-3.27864e-06 -3.77223e-06 0.0877471)
(4.09378e-05 4.08432e-05 0.104342)
(9.56141e-06 6.96871e-06 0.0878055)
(7.04803e-06 9.50795e-06 0.0878033)
(-3.97836e-07 -1.60823e-05 0.0916481)
(3.45199e-07 7.41501e-06 0.0824654)
(-3.51577e-07 5.09314e-06 0.0915969)
(-1.5148e-06 -1.15472e-05 0.0825238)
(-2.37992e-06 4.435e-06 0.0717588)
(3.45283e-06 -5.64835e-06 0.0718195)
(-1.6124e-05 -3.81759e-07 0.0916482)
(7.40519e-06 3.13567e-07 0.082465)
(5.11326e-06 -3.3249e-07 0.0915979)
(-1.15897e-05 -1.44444e-06 0.0825245)
(1.10255e-05 -1.09637e-05 0.112231)
(-1.09744e-05 1.09784e-05 0.11223)
(1.10401e-05 1.09794e-05 0.112231)
(-1.0842e-05 -1.08513e-05 0.112205)
(1.08716e-05 -1.08483e-05 0.112206)
(-1.08591e-05 1.08253e-05 0.112205)
(1.08946e-05 1.08379e-05 0.112206)
(2.67491e-05 -7.61812e-07 0.0987356)
(-9.06973e-06 2.82997e-06 0.0932116)
(1.51783e-05 -2.84754e-06 0.109789)
(1.12353e-05 -6.29503e-06 0.107442)
(-8.01254e-06 -5.30551e-07 0.0986755)
(1.98076e-05 -7.84974e-06 0.0932748)
(1.50466e-05 -2.83402e-06 0.109784)
(4.37348e-06 -2.35215e-06 0.0717565)
(-5.57783e-06 3.43115e-06 0.0718212)
(-7.89275e-07 2.66666e-05 0.0987347)
(-2.83102e-06 1.51307e-05 0.109787)
(2.83068e-06 -9.15698e-06 0.0932115)
(-6.3159e-06 1.11915e-05 0.107441)
(-5.00162e-07 -8.02026e-06 0.0986747)
(-2.81912e-06 1.4999e-05 0.109783)
(-7.90285e-06 1.98131e-05 0.0932736)
(-3.849e-06 -3.34255e-06 0.0877795)