/*--------------------------------*- C++ -*----------------------------------*\
| =========                 |                                                 |
| \\      /  F ield         | OpenFOAM: The Open Source CFD Toolbox           |
|  \\    /   O peration     | Version:  v1912                                 |
|   \\  /    A nd           | Website:  www.openfoam.com                      |
|    \\/     M anipulation  |                                                 |
\*---------------------------------------------------------------------------*/
FoamFile
{
    version     2.0;
    format      ascii;
    class       volScalarField;
    location    "1.5";
    object      nut;
}
// * * * * * * * * * * * * * * * * * * * * * * * * * * * * * * * * * * * * * //

dimensions      [0 2 -1 0 0 0 0];


internalField   nonuniform List<scalar> 
171728
(
1.15868e-06
1.17677e-06
1.17735e-06
4.87309e-07
7.7545e-08
8.89455e-08
8.91268e-08
1.03392e-07
6.12563e-09
7.35267e-09
7.35263e-09
1.00959e-07
1.83977e-09
4.13075e-09
4.103e-09
1.01115e-07
1.93776e-09
3.88937e-09
3.89349e-09
1.01119e-07
1.93921e-09
3.88095e-09
3.88667e-09
1.0112e-07
1.92977e-09
3.88702e-09
3.8795e-09
1.0112e-07
1.94381e-09
3.89308e-09
3.88924e-09
1.01119e-07
1.94499e-09
3.88906e-09
3.88113e-09
1.01122e-07
1.94277e-09
3.88893e-09
3.88311e-09
1.0112e-07
1.93978e-09
3.88819e-09
3.88639e-09
1.01121e-07
1.94779e-09
3.88555e-09
3.88563e-09
1.01121e-07
1.95064e-09
3.91735e-09
3.88784e-09
1.0112e-07
1.95558e-09
3.91423e-09
3.88328e-09
1.0112e-07
1.93593e-09
3.87712e-09
3.88772e-09
1.0112e-07
1.93805e-09
3.87623e-09
3.88338e-09
1.01121e-07
1.94745e-09
3.89064e-09
3.8858e-09
1.01123e-07
1.94074e-09
3.87965e-09
3.88473e-09
1.01121e-07
1.94622e-09
3.86872e-09
3.88639e-09
1.0112e-07
1.93209e-09
3.90509e-09
3.88144e-09
1.01112e-07
2.0467e-09
3.88435e-09
3.88572e-09
1.01123e-07
1.93951e-09
3.89027e-09
3.8847e-09
1.01123e-07
1.94432e-09
3.88914e-09
3.88587e-09
1.01124e-07
1.94312e-09
3.88968e-09
3.8869e-09
1.01123e-07
1.94508e-09
3.88726e-09
3.88477e-09
1.01124e-07
1.94288e-09
3.88837e-09
3.88509e-09
1.01123e-07
1.94495e-09
3.89029e-09
3.88723e-09
1.01124e-07
1.94394e-09
3.88896e-09
3.88589e-09
1.01124e-07
1.94346e-09
3.88739e-09
3.88433e-09
1.01123e-07
1.94462e-09
3.88983e-09
3.88693e-09
1.01123e-07
1.94395e-09
3.88928e-09
3.88582e-09
1.01124e-07
1.94457e-09
3.88704e-09
3.88535e-09
1.01124e-07
1.94419e-09
3.89077e-09
3.88615e-09
1.01124e-07
1.94317e-09
3.89026e-09
3.88603e-09
1.01124e-07
1.94474e-09
3.89118e-09
3.88684e-09
1.01124e-07
1.94394e-09
3.88799e-09
3.88443e-09
1.01124e-07
1.94505e-09
3.89051e-09
3.88698e-09
1.01124e-07
1.94467e-09
3.88996e-09
3.88642e-09
1.01124e-07
1.94447e-09
3.89133e-09
3.89323e-09
1.01125e-07
1.96177e-09
3.89723e-09
3.89167e-09
1.0111e-07
2.10783e-09
3.87431e-09
3.88719e-09
1.01123e-07
1.94329e-09
3.8781e-09
3.88148e-09
1.01124e-07
1.94541e-09
3.88843e-09
3.88016e-09
1.01125e-07
1.94632e-09
3.88591e-09
3.88002e-09
1.01125e-07
1.94879e-09
3.88715e-09
3.88491e-09
1.01125e-07
1.94728e-09
3.88538e-09
3.8805e-09
1.01125e-07
1.94596e-09
3.88462e-09
3.88378e-09
1.01127e-07
1.94715e-09
3.88691e-09
3.88898e-09
1.01125e-07
1.94705e-09
3.88743e-09
3.88972e-09
1.01125e-07
1.94714e-09
3.88596e-09
3.88827e-09
1.01125e-07
1.94614e-09
3.88486e-09
3.88751e-09
1.01125e-07
1.94774e-09
3.88586e-09
3.88711e-09
1.01124e-07
1.94806e-09
3.88729e-09
3.8886e-09
1.01125e-07
1.94922e-09
3.8949e-09
3.88771e-09
1.01125e-07
1.95025e-09
3.88979e-09
3.88866e-09
1.01124e-07
1.94543e-09
3.88539e-09
3.8884e-09
1.0112e-07
1.94296e-09
3.89099e-09
3.88903e-09
1.0111e-07
1.94293e-09
3.89004e-09
3.88745e-09
1.0111e-07
1.94337e-09
3.89187e-09
3.88944e-09
1.01109e-07
1.94435e-09
3.89064e-09
3.88724e-09
1.01109e-07
1.94427e-09
3.89194e-09
3.88978e-09
1.01109e-07
1.94275e-09
3.89009e-09
3.88735e-09
1.0111e-07
1.94261e-09
3.89219e-09
3.88953e-09
1.01108e-07
1.94411e-09
3.892e-09
3.88967e-09
1.01109e-07
1.94337e-09
3.89179e-09
3.88927e-09
1.01109e-07
1.94292e-09
3.89082e-09
3.88825e-09
1.01109e-07
1.94303e-09
3.89006e-09
3.8875e-09
1.01109e-07
1.94271e-09
3.89081e-09
3.88874e-09
1.01109e-07
1.93854e-09
3.88934e-09
3.88795e-09
1.0111e-07
1.93555e-09
3.89056e-09
3.87021e-09
1.01111e-07
1.93996e-09
3.89412e-09
3.88677e-09
1.01107e-07
1.94408e-09
3.89117e-09
3.88878e-09
1.01109e-07
1.94257e-09
3.8901e-09
3.88708e-09
1.01109e-07
1.94233e-09
3.8911e-09
3.88798e-09
1.01108e-07
1.94448e-09
3.89149e-09
3.88831e-09
1.01107e-07
1.942e-09
3.89045e-09
3.88738e-09
1.01108e-07
1.94292e-09
3.89104e-09
3.88778e-09
1.01108e-07
1.9439e-09
3.89069e-09
3.88763e-09
1.01108e-07
1.94369e-09
3.89015e-09
3.8875e-09
1.01108e-07
1.94303e-09
3.89191e-09
3.88933e-09
1.01109e-07
1.94226e-09
3.89047e-09
3.88796e-09
1.01108e-07
1.94336e-09
3.89088e-09
3.88824e-09
1.01108e-07
1.9437e-09
3.89208e-09
3.88946e-09
1.01108e-07
1.94554e-09
3.89092e-09
3.8884e-09
1.01108e-07
1.94572e-09
3.8909e-09
3.8883e-09
1.01109e-07
1.94626e-09
3.89112e-09
3.88901e-09
1.01107e-07
1.94579e-09
3.89292e-09
3.89066e-09
1.01108e-07
1.94374e-09
3.88967e-09
3.88762e-09
1.01108e-07
1.94508e-09
3.88978e-09
3.88687e-09
1.01108e-07
1.94658e-09
3.89158e-09
3.88866e-09
1.01108e-07
1.94852e-09
3.8887e-09
3.88389e-09
1.01111e-07
2.01458e-09
3.91025e-09
3.91553e-09
1.01109e-07
4.40431e-09
4.86736e-09
4.92226e-09
1.01016e-07
5.14239e-08
4.56881e-08
4.56366e-08
9.98929e-08
4.75679e-07
2.35118e-07
2.35148e-07
5.1064e-07
4.12635e-07
7.1465e-07
7.14975e-07
4.12741e-07
7.14729e-07
7.14759e-07
2.02512e-06
2.02517e-06
2.02511e-06
2.02516e-06
7.14566e-07
7.14507e-07
4.12455e-07
7.14397e-07
7.14743e-07
4.12389e-07
4.87369e-07
2.64402e-07
1.17741e-06
1.17745e-06
1.95841e-07
1.95846e-07
4.87333e-07
2.64328e-07
1.17728e-06
1.17797e-06
1.96003e-07
1.95905e-07
1.17765e-06
1.95875e-07
1.95753e-07
4.87283e-07
2.64412e-07
1.17753e-06
1.95892e-07
1.95887e-07
2.64418e-07
1.03445e-07
2.57147e-07
8.90291e-08
8.90558e-08
1.14565e-08
1.15448e-08
1.0343e-07
2.57214e-07
8.90477e-08
8.90194e-08
1.14091e-08
1.1462e-08
8.90019e-08
1.13488e-08
1.14447e-08
1.03467e-07
2.57164e-07
8.91635e-08
1.14274e-08
1.13728e-08
2.57159e-07
1.00874e-07
2.56611e-07
7.3999e-09
7.38803e-09
4.3673e-09
4.35998e-09
1.00882e-07
2.56622e-07
7.41342e-09
7.39701e-09
4.3344e-09
4.37046e-09
7.40847e-09
4.3402e-09
4.38491e-09
1.00935e-07
2.56639e-07
7.41578e-09
4.30506e-09
4.29242e-09
2.56598e-07
1.01098e-07
2.56583e-07
4.14709e-09
4.18476e-09
3.94627e-09
3.95223e-09
1.01073e-07
2.56583e-07
4.09003e-09
4.14824e-09
3.89879e-09
3.95354e-09
4.165e-09
3.89683e-09
3.9404e-09
1.01119e-07
2.5661e-07
4.10799e-09
3.88234e-09
3.88805e-09
2.56557e-07
1.01099e-07
2.56579e-07
3.94413e-09
3.94768e-09
3.93572e-09
3.94874e-09
1.0108e-07
2.56575e-07
3.88208e-09
3.94625e-09
3.90225e-09
3.93957e-09
3.93073e-09
3.88028e-09
3.92515e-09
1.01116e-07
2.56603e-07
3.88036e-09
3.86867e-09
3.8732e-09
2.56551e-07
1.01099e-07
2.56585e-07
3.94112e-09
3.95712e-09
3.91796e-09
3.97386e-09
1.01083e-07
2.56586e-07
3.86858e-09
3.93893e-09
3.89283e-09
3.93286e-09
3.92427e-09
3.89148e-09
3.91778e-09
1.01117e-07
2.56614e-07
3.87389e-09
3.86146e-09
3.86629e-09
2.56561e-07
1.01102e-07
2.56587e-07
3.89301e-09
3.96471e-09
3.95474e-09
3.95448e-09
1.01076e-07
2.56585e-07
3.85744e-09
3.93305e-09
3.898e-09
3.93609e-09
3.91671e-09
3.89124e-09
3.92202e-09
1.01116e-07
2.56611e-07
3.867e-09
3.86582e-09
3.87083e-09
2.56556e-07
1.01103e-07
2.56584e-07
3.94286e-09
3.95911e-09
3.93904e-09
3.95701e-09
1.01072e-07
2.5658e-07
3.87486e-09
3.94036e-09
3.90484e-09
3.93855e-09
3.92498e-09
3.89228e-09
3.92433e-09
1.01115e-07
2.56606e-07
3.87611e-09
3.86871e-09
3.8734e-09
2.56551e-07
1.01082e-07
2.56589e-07
3.93737e-09
3.95512e-09
3.9101e-09
3.93789e-09
1.01075e-07
2.56601e-07
3.87029e-09
3.93808e-09
3.8846e-09
3.93403e-09
3.92177e-09
3.88511e-09
3.91828e-09
1.01118e-07
2.56616e-07
3.87035e-09
3.86158e-09
3.86716e-09
2.56563e-07
1.01091e-07
2.56574e-07
3.92227e-09
3.90776e-09
3.94571e-09
3.889e-09
1.01068e-07
2.56583e-07
3.87537e-09
3.93676e-09
3.87905e-09
3.93831e-09
3.91915e-09
3.88937e-09
3.92284e-09
1.01117e-07
2.56609e-07
3.87024e-09
3.86704e-09
3.87228e-09
2.56554e-07
1.01104e-07
2.56585e-07
3.98774e-09
3.91474e-09
3.93781e-09
3.89442e-09
1.01074e-07
2.56584e-07
3.88188e-09
3.93817e-09
3.88933e-09
3.93638e-09
3.92107e-09
3.88805e-09
3.92038e-09
1.01117e-07
2.56612e-07
3.87247e-09
3.86523e-09
3.86884e-09
2.56559e-07
1.01091e-07
2.56577e-07
3.93815e-09
3.88571e-09
3.93658e-09
3.88271e-09
1.01075e-07
2.56611e-07
3.88443e-09
3.93725e-09
3.88344e-09
3.93624e-09
3.92118e-09
3.90406e-09
3.92747e-09
1.01117e-07
2.56609e-07
3.87023e-09
3.86775e-09
3.86911e-09
2.56557e-07
1.01093e-07
2.56578e-07
3.93998e-09
3.89962e-09
3.92455e-09
3.95597e-09
1.01069e-07
2.5661e-07
3.88008e-09
3.93765e-09
3.87203e-09
3.93252e-09
3.92813e-09
3.90692e-09
3.92391e-09
1.01118e-07
2.56614e-07
3.87193e-09
3.86364e-09
3.86764e-09
2.56564e-07
1.01094e-07
2.56572e-07
3.92767e-09
3.96444e-09
3.9481e-09
3.9487e-09
1.01075e-07
2.5659e-07
3.87004e-09
3.93375e-09
3.86702e-09
3.93772e-09
3.9226e-09
3.88423e-09
3.92486e-09
1.01118e-07
2.5661e-07
3.86986e-09
3.86689e-09
3.8732e-09
2.56555e-07
1.01095e-07
2.56581e-07
3.95423e-09
3.93854e-09
3.93887e-09
4.00099e-09
1.01085e-07
2.56575e-07
3.88847e-09
3.93971e-09
3.88903e-09
3.93403e-09
3.92541e-09
3.88248e-09
3.9195e-09
1.01117e-07
2.56616e-07
3.87543e-09
3.86337e-09
3.86816e-09
2.56563e-07
1.01092e-07
2.56572e-07
3.93929e-09
3.96941e-09
3.94666e-09
3.95658e-09
1.01102e-07
2.5656e-07
3.88654e-09
3.93541e-09
3.89e-09
3.93798e-09
3.91831e-09
3.88681e-09
3.92485e-09
1.01118e-07
2.5661e-07
3.86912e-09
3.86662e-09
3.87307e-09
2.56555e-07
1.01094e-07
2.56578e-07
3.92928e-09
3.95451e-09
3.94414e-09
3.93936e-09
1.01096e-07
2.56607e-07
3.88876e-09
3.9383e-09
3.8873e-09
3.93418e-09
3.92285e-09
3.88686e-09
3.92091e-09
1.01119e-07
2.56617e-07
3.87301e-09
3.86291e-09
3.86885e-09
2.56562e-07
1.0109e-07
2.56592e-07
3.9231e-09
3.92961e-09
3.91797e-09
3.92279e-09
1.01107e-07
2.56607e-07
3.88592e-09
3.93798e-09
3.88169e-09
3.93846e-09
3.92317e-09
3.8631e-09
3.92111e-09
1.01117e-07
2.56615e-07
3.87259e-09
3.86602e-09
3.86662e-09
2.56563e-07
1.01093e-07
2.56568e-07
3.91768e-09
3.9527e-09
3.97588e-09
4.03737e-09
1.01139e-07
2.56644e-07
3.87805e-09
3.93922e-09
3.8963e-09
3.9328e-09
3.91984e-09
3.90997e-09
3.93392e-09
1.01118e-07
2.56614e-07
3.86405e-09
3.86373e-09
3.86075e-09
2.56575e-07
1.01131e-07
2.56637e-07
3.94858e-09
3.97458e-09
3.9177e-09
4.00672e-09
1.01078e-07
2.56608e-07
3.90103e-09
3.93307e-09
3.73061e-09
3.93812e-09
3.94742e-09
3.87558e-09
3.92428e-09
1.0112e-07
2.56619e-07
3.87933e-09
3.8619e-09
3.87022e-09
2.56565e-07
1.01086e-07
2.566e-07
3.98613e-09
3.9962e-09
3.95687e-09
3.9506e-09
1.01085e-07
2.56595e-07
3.80945e-09
3.9357e-09
3.90123e-09
3.93479e-09
3.92236e-09
3.8953e-09
3.92049e-09
1.01119e-07
2.56618e-07
3.87041e-09
3.86488e-09
3.87034e-09
2.56565e-07
1.01114e-07
2.56599e-07
3.94931e-09
3.95516e-09
3.93786e-09
3.95689e-09
1.01092e-07
2.56596e-07
3.88588e-09
3.93588e-09
3.89097e-09
3.93658e-09
3.92057e-09
3.89064e-09
3.92231e-09
1.0112e-07
2.56618e-07
3.87154e-09
3.86582e-09
3.8712e-09
2.56563e-07
1.01113e-07
2.56596e-07
3.94334e-09
3.95917e-09
3.93614e-09
3.95748e-09
1.01091e-07
2.56593e-07
3.88573e-09
3.93743e-09
3.88995e-09
3.93706e-09
3.92265e-09
3.89152e-09
3.92184e-09
1.0112e-07
2.56616e-07
3.8735e-09
3.86697e-09
3.87911e-09
2.56562e-07
1.01114e-07
2.56599e-07
3.94195e-09
3.95899e-09
3.93361e-09
3.95544e-09
1.01092e-07
2.56596e-07
3.88401e-09
3.93718e-09
3.88746e-09
3.93497e-09
3.92242e-09
3.88902e-09
3.92049e-09
1.0112e-07
2.56618e-07
3.88108e-09
3.86474e-09
3.87469e-09
2.56564e-07
1.01113e-07
2.56602e-07
3.9429e-09
3.95822e-09
3.93291e-09
3.95539e-09
1.01092e-07
2.56596e-07
3.885e-09
3.93638e-09
3.88675e-09
3.93515e-09
3.9193e-09
3.89037e-09
3.92232e-09
1.0112e-07
2.56618e-07
3.87629e-09
3.86505e-09
3.874e-09
2.56563e-07
1.01113e-07
2.56595e-07
3.93988e-09
3.95692e-09
3.93733e-09
3.95884e-09
1.01092e-07
2.56593e-07
3.88201e-09
3.93525e-09
3.89114e-09
3.93845e-09
3.92233e-09
3.89203e-09
3.92251e-09
1.0112e-07
2.56615e-07
3.87672e-09
3.86729e-09
3.87554e-09
2.56562e-07
1.01113e-07
2.566e-07
3.94475e-09
3.96048e-09
3.93311e-09
3.95553e-09
1.01092e-07
2.56595e-07
3.88683e-09
3.93875e-09
3.88695e-09
3.93515e-09
3.92138e-09
3.89019e-09
3.92256e-09
1.0112e-07
2.56618e-07
3.87631e-09
3.8655e-09
3.87563e-09
2.56562e-07
1.01113e-07
2.566e-07
3.94174e-09
3.95855e-09
3.9341e-09
3.95576e-09
1.01092e-07
2.56596e-07
3.88385e-09
3.9368e-09
3.88793e-09
3.93538e-09
3.92255e-09
3.88927e-09
3.92025e-09
1.0112e-07
2.56619e-07
3.87748e-09
3.86458e-09
3.87334e-09
2.56565e-07
1.01113e-07
2.56599e-07
3.94077e-09
3.9569e-09
3.93483e-09
3.95686e-09
1.01092e-07
2.56595e-07
3.8829e-09
3.93516e-09
3.88863e-09
3.93645e-09
3.92116e-09
3.89061e-09
3.92156e-09
1.0112e-07
2.56618e-07
3.87611e-09
3.86596e-09
3.87462e-09
2.56564e-07
1.01113e-07
2.56599e-07
3.94302e-09
3.95974e-09
3.93513e-09
3.95611e-09
1.01091e-07
2.56596e-07
3.88512e-09
3.93766e-09
3.88854e-09
3.93626e-09
3.9232e-09
3.89049e-09
3.92172e-09
1.01119e-07
2.56618e-07
3.87808e-09
3.86579e-09
3.87485e-09
2.56563e-07
1.01113e-07
2.56597e-07
3.94237e-09
3.94238e-09
3.93446e-09
3.95671e-09
1.01092e-07
2.56586e-07
3.88429e-09
3.93677e-09
3.88833e-09
3.93588e-09
3.92156e-09
3.89336e-09
3.92108e-09
1.0112e-07
2.56616e-07
3.87645e-09
3.86544e-09
3.87416e-09
2.56563e-07
1.01113e-07
2.56601e-07
3.94354e-09
3.96359e-09
3.93283e-09
3.96329e-09
1.01094e-07
2.56603e-07
3.88535e-09
3.93641e-09
3.88672e-09
3.9358e-09
3.92035e-09
3.89223e-09
3.92282e-09
1.0112e-07
2.56617e-07
3.87527e-09
3.86618e-09
3.87592e-09
2.56562e-07
1.01113e-07
2.566e-07
3.94185e-09
3.96472e-09
3.9346e-09
3.96212e-09
1.01088e-07
2.56604e-07
3.88399e-09
3.93708e-09
3.88842e-09
3.93551e-09
3.92097e-09
3.89112e-09
3.92059e-09
1.0112e-07
2.56618e-07
3.87587e-09
3.86562e-09
3.87415e-09
2.56565e-07
1.01114e-07
2.56598e-07
3.9407e-09
3.96395e-09
3.93581e-09
3.96322e-09
1.01088e-07
2.56604e-07
3.88284e-09
3.93595e-09
3.88965e-09
3.93751e-09
3.92098e-09
3.89162e-09
3.92173e-09
1.0112e-07
2.56618e-07
3.87619e-09
3.8627e-09
3.87095e-09
2.56565e-07
1.01113e-07
2.56599e-07
3.94417e-09
3.96631e-09
3.93387e-09
3.9613e-09
1.01088e-07
2.56605e-07
3.88628e-09
3.93836e-09
3.88771e-09
3.93521e-09
3.92109e-09
3.88918e-09
3.91867e-09
1.01121e-07
2.5662e-07
3.87632e-09
3.86254e-09
3.87053e-09
2.56568e-07
1.01113e-07
2.566e-07
3.94142e-09
3.96298e-09
3.93386e-09
3.96241e-09
1.01088e-07
2.56604e-07
3.88353e-09
3.9348e-09
3.88772e-09
3.93627e-09
3.91945e-09
3.89103e-09
3.92078e-09
1.01121e-07
2.56618e-07
3.87561e-09
3.86445e-09
3.87272e-09
2.56565e-07
1.01112e-07
2.56599e-07
3.94307e-09
3.96551e-09
3.93486e-09
3.96303e-09
1.01087e-07
2.56604e-07
3.88519e-09
3.93728e-09
3.88866e-09
3.93688e-09
3.92046e-09
3.8918e-09
3.92371e-09
1.0112e-07
2.56618e-07
3.87667e-09
3.86527e-09
3.87567e-09
2.56563e-07
1.01113e-07
2.566e-07
3.94251e-09
3.96417e-09
3.93409e-09
3.96242e-09
1.01088e-07
2.56602e-07
3.88463e-09
3.93589e-09
3.88784e-09
3.93598e-09
3.92153e-09
3.89227e-09
3.92276e-09
1.01121e-07
2.56617e-07
3.8778e-09
3.86598e-09
3.87557e-09
2.56562e-07
1.01113e-07
2.56599e-07
3.94347e-09
3.96457e-09
3.94449e-09
3.95534e-09
1.01088e-07
2.56602e-07
3.88514e-09
3.93592e-09
3.88376e-09
3.93406e-09
3.91909e-09
3.89265e-09
3.89463e-09
1.0112e-07
2.56619e-07
3.87786e-09
3.86107e-09
3.85713e-09
2.56566e-07
1.01108e-07
2.56597e-07
3.93619e-09
3.96258e-09
3.88382e-09
3.95792e-09
1.01092e-07
2.56623e-07
3.86737e-09
3.9333e-09
3.85698e-09
3.94246e-09
3.89374e-09
3.88399e-09
3.96588e-09
1.0112e-07
2.5662e-07
3.78219e-09
3.86374e-09
3.86051e-09
2.56571e-07
1.0111e-07
2.5659e-07
3.91362e-09
3.91958e-09
3.94096e-09
3.96049e-09
1.01096e-07
2.56625e-07
3.76755e-09
3.94514e-09
3.90574e-09
3.93828e-09
3.93846e-09
3.88437e-09
3.92358e-09
1.01119e-07
2.56618e-07
3.89658e-09
3.87262e-09
3.8758e-09
2.56564e-07
1.01103e-07
2.56587e-07
3.93411e-09
3.9566e-09
3.92687e-09
3.96896e-09
1.01139e-07
2.56621e-07
3.8673e-09
3.9379e-09
3.90071e-09
3.93655e-09
3.92329e-09
3.89095e-09
3.9227e-09
1.0112e-07
2.56618e-07
3.87865e-09
3.87184e-09
3.87411e-09
2.56563e-07
1.01101e-07
2.56584e-07
3.9314e-09
3.96161e-09
3.92762e-09
3.95641e-09
1.01109e-07
2.56622e-07
3.86742e-09
3.93682e-09
3.90294e-09
3.93741e-09
3.92086e-09
3.88701e-09
3.9223e-09
1.0112e-07
2.56618e-07
3.87623e-09
3.87219e-09
3.87386e-09
2.56565e-07
1.01101e-07
2.56585e-07
3.93077e-09
3.95579e-09
3.92717e-09
3.95564e-09
1.01108e-07
2.56622e-07
3.86782e-09
3.9371e-09
3.90002e-09
3.93737e-09
3.92079e-09
3.88826e-09
3.92287e-09
1.0112e-07
2.56618e-07
3.87621e-09
3.8711e-09
3.87472e-09
2.56564e-07
1.01101e-07
2.56584e-07
3.93184e-09
3.9563e-09
3.92701e-09
3.95586e-09
1.01107e-07
2.56621e-07
3.86781e-09
3.93811e-09
3.90382e-09
3.93758e-09
3.92251e-09
3.88744e-09
3.92282e-09
1.0112e-07
2.56618e-07
3.87827e-09
3.87339e-09
3.87712e-09
2.56563e-07
1.01101e-07
2.56585e-07
3.93151e-09
3.95481e-09
3.92651e-09
3.95482e-09
1.01108e-07
2.56622e-07
3.86885e-09
3.93698e-09
3.90356e-09
3.93728e-09
3.92169e-09
3.88718e-09
3.92218e-09
1.0112e-07
2.56618e-07
3.87557e-09
3.87322e-09
3.87569e-09
2.56565e-07
1.01101e-07
2.56584e-07
3.93039e-09
3.95394e-09
3.92747e-09
3.95598e-09
1.01108e-07
2.56622e-07
3.8675e-09
3.93656e-09
3.90404e-09
3.93832e-09
3.91831e-09
3.88724e-09
3.92255e-09
1.01121e-07
2.56619e-07
3.87923e-09
3.86493e-09
3.87405e-09
2.56566e-07
1.01101e-07
2.56584e-07
3.9326e-09
3.95611e-09
3.92688e-09
3.95585e-09
1.01108e-07
2.56621e-07
3.86985e-09
3.93831e-09
3.90335e-09
3.93789e-09
3.92083e-09
3.88727e-09
3.92326e-09
1.01121e-07
2.56618e-07
3.87602e-09
3.8655e-09
3.87564e-09
2.56564e-07
1.01101e-07
2.56586e-07
3.93184e-09
3.9565e-09
3.92602e-09
3.95488e-09
1.01107e-07
2.56623e-07
3.869e-09
3.93852e-09
3.90248e-09
3.93686e-09
3.92264e-09
3.88642e-09
3.92204e-09
1.0112e-07
2.5662e-07
3.87806e-09
3.86462e-09
3.87448e-09
2.56566e-07
1.01101e-07
2.56588e-07
3.93136e-09
3.95537e-09
3.92542e-09
3.95476e-09
1.01107e-07
2.56623e-07
3.86849e-09
3.93734e-09
3.90193e-09
3.9367e-09
3.91983e-09
3.8864e-09
3.92155e-09
1.0112e-07
2.5662e-07
3.87537e-09
3.86502e-09
3.87426e-09
2.56567e-07
1.01101e-07
2.56585e-07
3.92946e-09
3.95446e-09
3.92763e-09
3.95612e-09
1.01108e-07
2.56622e-07
3.86665e-09
3.93637e-09
3.90421e-09
3.93816e-09
3.92115e-09
3.88777e-09
3.92215e-09
1.01121e-07
2.56619e-07
3.87978e-09
3.86606e-09
3.87456e-09
2.56565e-07
1.01101e-07
2.56584e-07
3.93164e-09
3.95561e-09
3.9267e-09
3.95659e-09
1.01108e-07
2.56621e-07
3.86892e-09
3.93776e-09
3.90347e-09
3.93816e-09
3.92216e-09
3.88811e-09
3.92306e-09
1.0112e-07
2.56617e-07
3.8764e-09
3.86673e-09
3.87686e-09
2.56562e-07
1.01101e-07
2.56584e-07
3.93139e-09
3.95681e-09
3.92505e-09
3.9605e-09
1.01107e-07
2.56625e-07
3.86897e-09
3.93842e-09
3.89329e-09
3.93636e-09
3.92191e-09
3.89055e-09
3.91992e-09
1.0112e-07
2.56618e-07
3.87735e-09
3.86519e-09
3.87503e-09
2.56566e-07
1.01101e-07
2.56585e-07
3.93067e-09
3.96981e-09
3.92154e-09
3.94383e-09
1.01106e-07
2.56636e-07
3.88706e-09
3.93799e-09
3.88747e-09
3.9362e-09
3.9194e-09
3.89508e-09
3.92003e-09
1.0112e-07
2.5662e-07
3.87552e-09
3.86504e-09
3.87473e-09
2.56567e-07
1.01102e-07
2.56586e-07
3.92833e-09
3.91176e-09
3.92509e-09
3.94647e-09
1.01093e-07
2.56624e-07
3.88415e-09
3.93746e-09
3.88752e-09
3.93809e-09
3.92232e-09
3.88453e-09
3.91866e-09
1.0112e-07
2.56618e-07
3.87729e-09
3.86779e-09
3.86687e-09
2.56568e-07
1.01101e-07
2.56585e-07
3.93034e-09
3.9487e-09
3.92711e-09
3.95207e-09
1.01105e-07
2.56624e-07
3.88259e-09
3.93966e-09
3.88572e-09
3.93296e-09
3.91233e-09
3.89274e-09
3.94262e-09
1.0112e-07
2.56613e-07
3.85292e-09
3.87007e-09
3.87104e-09
2.56574e-07
1.01102e-07
2.56584e-07
3.93061e-09
3.95192e-09
3.92794e-09
3.95332e-09
1.01105e-07
2.56625e-07
3.87994e-09
3.93259e-09
3.88591e-09
3.93166e-09
3.94356e-09
3.89302e-09
3.94389e-09
1.01122e-07
2.56613e-07
3.86829e-09
3.86903e-09
3.87194e-09
2.56577e-07
1.01102e-07
2.56583e-07
3.9318e-09
3.952e-09
3.92767e-09
3.95326e-09
1.01106e-07
2.56624e-07
3.88076e-09
3.93138e-09
3.88557e-09
3.93143e-09
3.94237e-09
3.89267e-09
3.94243e-09
1.01123e-07
2.56612e-07
3.86702e-09
3.86865e-09
3.87052e-09
2.56581e-07
1.01101e-07
2.56583e-07
3.9325e-09
3.95356e-09
3.92786e-09
3.95292e-09
1.01105e-07
2.56626e-07
3.88142e-09
3.93283e-09
3.88577e-09
3.93113e-09
3.94333e-09
3.89133e-09
3.94035e-09
1.01122e-07
2.56613e-07
3.86811e-09
3.86667e-09
3.86889e-09
2.56583e-07
1.01101e-07
2.5658e-07
3.93298e-09
3.95319e-09
3.92785e-09
3.95315e-09
1.01105e-07
2.56624e-07
3.88193e-09
3.93255e-09
3.88575e-09
3.93145e-09
3.94097e-09
3.89193e-09
3.94152e-09
1.01122e-07
2.56612e-07
3.86571e-09
3.8671e-09
3.86755e-09
2.56581e-07
1.01101e-07
2.56583e-07
3.93397e-09
3.95386e-09
3.92749e-09
3.95362e-09
1.01105e-07
2.56623e-07
3.88285e-09
3.9332e-09
3.88538e-09
3.93189e-09
3.94325e-09
3.89262e-09
3.94353e-09
1.01122e-07
2.56611e-07
3.86994e-09
3.86831e-09
3.87094e-09
2.56578e-07
1.01102e-07
2.56584e-07
3.93183e-09
3.95243e-09
3.92675e-09
3.95234e-09
1.01106e-07
2.56625e-07
3.88069e-09
3.93181e-09
3.88466e-09
3.93053e-09
3.94248e-09
3.89201e-09
3.9426e-09
1.01123e-07
2.56613e-07
3.86692e-09
3.8679e-09
3.87048e-09
2.56579e-07
1.01101e-07
2.56584e-07
3.93219e-09
3.95334e-09
3.92726e-09
3.95193e-09
1.01105e-07
2.56626e-07
3.88107e-09
3.93267e-09
3.88517e-09
3.93018e-09
3.94522e-09
3.89197e-09
3.94241e-09
1.01122e-07
2.56614e-07
3.86971e-09
3.86781e-09
3.86956e-09
2.5658e-07
1.01101e-07
2.56583e-07
3.93337e-09
3.9535e-09
3.92711e-09
3.95324e-09
1.01105e-07
2.56623e-07
3.88226e-09
3.93279e-09
3.88482e-09
3.93143e-09
3.94401e-09
3.89285e-09
3.944e-09
1.01122e-07
2.5661e-07
3.86994e-09
3.86892e-09
3.87316e-09
2.56574e-07
1.01101e-07
2.56586e-07
3.93253e-09
3.95345e-09
3.9251e-09
3.95161e-09
1.01105e-07
2.56626e-07
3.88198e-09
3.93282e-09
3.8806e-09
3.92971e-09
3.94469e-09
3.89147e-09
3.9407e-09
1.01122e-07
2.56614e-07
3.87045e-09
3.86744e-09
3.86984e-09
2.56581e-07
1.01101e-07
2.56583e-07
3.93065e-09
3.95167e-09
3.92773e-09
3.95344e-09
1.01105e-07
2.56625e-07
3.88015e-09
3.93097e-09
3.88312e-09
3.93154e-09
3.94286e-09
3.89269e-09
3.9414e-09
1.01122e-07
2.56613e-07
3.86858e-09
3.86865e-09
3.87049e-09
2.56582e-07
1.01101e-07
2.56581e-07
3.93169e-09
3.95201e-09
3.9282e-09
3.95364e-09
1.01105e-07
2.56624e-07
3.88108e-09
3.93132e-09
3.88337e-09
3.932e-09
3.94325e-09
3.89233e-09
3.94272e-09
1.01122e-07
2.56612e-07
3.86887e-09
3.86822e-09
3.87149e-09
2.5658e-07
1.01101e-07
2.56582e-07
3.93282e-09
3.95375e-09
3.92764e-09
3.95261e-09
1.01105e-07
2.56624e-07
3.88187e-09
3.93356e-09
3.88204e-09
3.93312e-09
3.94323e-09
3.89186e-09
3.94263e-09
1.01122e-07
2.56614e-07
3.86851e-09
3.8697e-09
3.86912e-09
2.56583e-07
1.01102e-07
2.56585e-07
3.93201e-09
3.95146e-09
3.92597e-09
3.95265e-09
1.01106e-07
2.56624e-07
3.88028e-09
3.93427e-09
3.88006e-09
3.9345e-09
3.94262e-09
3.89176e-09
3.94782e-09
1.01123e-07
2.56607e-07
3.8636e-09
3.82948e-09
3.85318e-09
2.56573e-07
1.01101e-07
2.56577e-07
3.93213e-09
3.9535e-09
3.93158e-09
3.95578e-09
1.01105e-07
2.56622e-07
3.88054e-09
3.93417e-09
3.88614e-09
3.93136e-09
3.94658e-09
3.89479e-09
3.94289e-09
1.01125e-07
2.56608e-07
3.85065e-09
3.86642e-09
3.87113e-09
2.56575e-07
1.011e-07
2.5658e-07
3.93586e-09
3.95536e-09
3.92739e-09
3.95342e-09
1.01104e-07
2.56623e-07
3.88466e-09
3.93193e-09
3.88249e-09
3.93041e-09
3.94499e-09
3.89133e-09
3.94029e-09
1.01121e-07
2.56611e-07
3.86638e-09
3.86422e-09
3.85319e-09
2.56583e-07
1.01099e-07
2.56582e-07
3.93432e-09
3.95421e-09
3.92584e-09
3.9522e-09
1.01104e-07
2.56622e-07
3.88355e-09
3.93253e-09
3.88118e-09
3.92997e-09
3.93974e-09
3.89174e-09
3.94283e-09
1.01121e-07
2.5661e-07
3.87554e-09
3.86741e-09
3.86052e-09
2.56579e-07
1.011e-07
2.5658e-07
3.9301e-09
3.95121e-09
3.92785e-09
3.95349e-09
1.01104e-07
2.56622e-07
3.8795e-09
3.93027e-09
3.88327e-09
3.93146e-09
3.94082e-09
3.89194e-09
3.94084e-09
1.01121e-07
2.5661e-07
3.88233e-09
3.86853e-09
3.86962e-09
2.56578e-07
1.011e-07
2.5658e-07
3.93094e-09
3.953e-09
3.92805e-09
3.95383e-09
1.01104e-07
2.56621e-07
3.88036e-09
3.93238e-09
3.88352e-09
3.93183e-09
3.9432e-09
3.89206e-09
3.94272e-09
1.01121e-07
2.56609e-07
3.86793e-09
3.86869e-09
3.8716e-09
2.56576e-07
1.01099e-07
2.56581e-07
3.9341e-09
3.95424e-09
3.92641e-09
3.95209e-09
1.01104e-07
2.56622e-07
3.88353e-09
3.93365e-09
3.88186e-09
3.93e-09
3.94491e-09
3.89182e-09
3.94146e-09
1.01121e-07
2.5661e-07
3.8697e-09
3.8686e-09
3.87077e-09
2.56577e-07
1.011e-07
2.56581e-07
3.92971e-09
3.9514e-09
3.92754e-09
3.95405e-09
1.01104e-07
2.56622e-07
3.87917e-09
3.93073e-09
3.88301e-09
3.93197e-09
3.94298e-09
3.89211e-09
3.94226e-09
1.01121e-07
2.5661e-07
3.86814e-09
3.86904e-09
3.87073e-09
2.56576e-07
1.011e-07
2.56583e-07
3.93259e-09
3.95261e-09
3.92592e-09
3.95201e-09
1.01104e-07
2.56623e-07
3.88206e-09
3.93198e-09
3.8814e-09
3.92989e-09
3.94298e-09
3.89143e-09
3.94223e-09
1.01121e-07
2.56611e-07
3.86735e-09
3.87e-09
3.87179e-09
2.56577e-07
1.011e-07
2.56579e-07
3.93171e-09
3.95324e-09
3.92795e-09
3.95188e-09
1.01104e-07
2.56624e-07
3.8812e-09
3.93251e-09
3.88339e-09
3.93002e-09
3.94418e-09
3.89053e-09
3.94059e-09
1.01121e-07
2.56612e-07
3.8694e-09
3.8664e-09
3.86928e-09
2.5658e-07
1.011e-07
2.5658e-07
3.93163e-09
3.95226e-09
3.92725e-09
3.95441e-09
1.01104e-07
2.5662e-07
3.8811e-09
3.9315e-09
3.88269e-09
3.93247e-09
3.94333e-09
3.89392e-09
3.94349e-09
1.01121e-07
2.56607e-07
3.86865e-09
3.86993e-09
3.87225e-09
2.56574e-07
1.011e-07
2.56582e-07
3.93212e-09
3.9532e-09
3.92666e-09
3.95188e-09
1.01105e-07
2.56623e-07
3.88156e-09
3.93244e-09
3.88207e-09
3.92992e-09
3.9435e-09
3.89137e-09
3.94126e-09
1.01122e-07
2.56611e-07
3.86887e-09
3.86743e-09
3.87008e-09
2.56578e-07
1.011e-07
2.56583e-07
3.93081e-09
3.95234e-09
3.9264e-09
3.95181e-09
1.01104e-07
2.56624e-07
3.88021e-09
3.93156e-09
3.88187e-09
3.92984e-09
3.9433e-09
3.89214e-09
3.94137e-09
1.01121e-07
2.56612e-07
3.86865e-09
3.86818e-09
3.87017e-09
2.56578e-07
1.011e-07
2.5658e-07
3.93153e-09
3.95171e-09
3.92758e-09
3.95305e-09
1.01104e-07
2.56622e-07
3.88102e-09
3.93087e-09
3.88334e-09
3.9311e-09
3.94156e-09
3.89332e-09
3.94283e-09
1.01121e-07
2.56609e-07
3.86694e-09
3.86928e-09
3.87159e-09
2.56576e-07
1.011e-07
2.56581e-07
3.93267e-09
3.95359e-09
3.92621e-09
3.95206e-09
1.01105e-07
2.56623e-07
3.8855e-09
3.93295e-09
3.89681e-09
3.93005e-09
3.94403e-09
3.89126e-09
3.94193e-09
1.01122e-07
2.5661e-07
3.8694e-09
3.86735e-09
3.87073e-09
2.56577e-07
1.01099e-07
2.5658e-07
3.93231e-09
3.95365e-09
3.92665e-09
3.9524e-09
1.01104e-07
2.56622e-07
3.86655e-09
3.93275e-09
3.89749e-09
3.93051e-09
3.94253e-09
3.89186e-09
3.94101e-09
1.01121e-07
2.5661e-07
3.86795e-09
3.8679e-09
3.86984e-09
2.56578e-07
1.01099e-07
2.56579e-07
3.93325e-09
3.95254e-09
3.92753e-09
3.95259e-09
1.01104e-07
2.56624e-07
3.86764e-09
3.93173e-09
3.89832e-09
3.93064e-09
3.94071e-09
3.89151e-09
3.94122e-09
1.01121e-07
2.56611e-07
3.86609e-09
3.86756e-09
3.87004e-09
2.5658e-07
1.01099e-07
2.56577e-07
3.93354e-09
3.95224e-09
3.92876e-09
3.95405e-09
1.01104e-07
2.56621e-07
3.86798e-09
3.93407e-09
3.89955e-09
3.93827e-09
3.94429e-09
3.89347e-09
3.94335e-09
1.01121e-07
2.56641e-07
3.86965e-09
3.86863e-09
3.87209e-09
2.56574e-07
1.01099e-07
2.56581e-07
3.93443e-09
3.95448e-09
3.9258e-09
3.95244e-09
1.01104e-07
2.56623e-07
3.86892e-09
3.92734e-09
3.89656e-09
3.937e-09
3.94486e-09
3.89157e-09
3.94075e-09
1.01125e-07
2.56643e-07
3.87019e-09
3.86703e-09
3.86961e-09
2.56578e-07
1.011e-07
2.56584e-07
3.93046e-09
3.9518e-09
3.92494e-09
3.95161e-09
1.01104e-07
2.56625e-07
3.86499e-09
3.92485e-09
3.89568e-09
3.93615e-09
3.94283e-09
3.89113e-09
3.94041e-09
1.01125e-07
2.56645e-07
3.86823e-09
3.86658e-09
3.8694e-09
2.56579e-07
1.01099e-07
2.5658e-07
3.93147e-09
3.9517e-09
3.92711e-09
3.95408e-09
1.01104e-07
2.56621e-07
3.86592e-09
3.92495e-09
3.89796e-09
3.94126e-09
3.94253e-09
3.89331e-09
3.94343e-09
1.01125e-07
2.56645e-07
3.86784e-09
3.86879e-09
3.87211e-09
2.56576e-07
1.01099e-07
2.56579e-07
3.9332e-09
3.95368e-09
3.92626e-09
3.95451e-09
1.01105e-07
2.56622e-07
3.86784e-09
3.92661e-09
3.89804e-09
3.93076e-09
3.94428e-09
3.89092e-09
3.94297e-09
1.01125e-07
2.56621e-07
3.86986e-09
3.86546e-09
3.87719e-09
2.56577e-07
1.01099e-07
2.56585e-07
3.93288e-09
3.95528e-09
3.93039e-09
3.96021e-09
1.01104e-07
2.56621e-07
3.86927e-09
3.93191e-09
3.90008e-09
3.95406e-09
3.95181e-09
3.89817e-09
3.93496e-09
1.01122e-07
2.56616e-07
3.88636e-09
3.88049e-09
3.8845e-09
2.56565e-07
1.01092e-07
2.56592e-07
3.94301e-09
3.9446e-09
4.35885e-09
4.33444e-09
1.01099e-07
2.56602e-07
3.86698e-09
3.96182e-09
4.35408e-09
4.37649e-09
3.91985e-09
4.21387e-09
4.27105e-09
1.01114e-07
2.56618e-07
3.85953e-09
4.24879e-09
4.24233e-09
2.56562e-07
1.01067e-07
2.56321e-07
4.96276e-09
5.00677e-09
2.29744e-08
2.30538e-08
1.01026e-07
2.56353e-07
4.94433e-09
4.91927e-09
2.30357e-08
2.30768e-08
4.91152e-09
2.28942e-08
2.29936e-08
1.01071e-07
2.56307e-07
4.86609e-09
2.29092e-08
2.28747e-08
2.56346e-07
9.98878e-08
1.29767e-07
4.58029e-08
4.58219e-08
1.97329e-07
1.96918e-07
9.99256e-08
1.29797e-07
4.56755e-08
4.58869e-08
1.9697e-07
1.96842e-07
4.58498e-08
1.97441e-07
1.97229e-07
9.99336e-08
1.29698e-07
4.5685e-08
1.97159e-07
1.9691e-07
1.29702e-07
5.10664e-07
2.34822e-07
2.34616e-07
5.10605e-07
2.34973e-07
2.34684e-07
4.75663e-07
4.75757e-07
4.75716e-07
2.34839e-07
5.10577e-07
2.34971e-07
5.70077e-08
2.56009e-07
1.68257e-07
1.68277e-07
5.15484e-07
3.44847e-07
4.86533e-07
2.25896e-07
5.15427e-07
3.44843e-07
2.25888e-07
4.8638e-07
4.57966e-07
4.68139e-07
4.68031e-07
3.22808e-06
0.000120065
3.2141e-06
0.000121451
0.000241047
0.000247982
3.22856e-06
0.000120082
3.21429e-06
0.000121469
1.15885e-06
1.15826e-06
1.15855e-06
1.60299e-07
1.60221e-07
1.60258e-07
1.60323e-07
2.55328e-07
5.13556e-06
8.78782e-07
7.01434e-07
1.73473e-07
3.83688e-06
5.80085e-07
0.000241039
0.000247967
2.54845e-07
8.78047e-07
5.13454e-06
7.01337e-07
1.73338e-07
5.79804e-07
3.83609e-06
7.77901e-06
7.77988e-06
2.54884e-07
8.27937e-06
8.28105e-06
3.09186e-06
0.000120877
3.08428e-06
0.00012087
0.000248643
0.000248635
3.0923e-06
0.000120893
3.08472e-06
0.000120886
7.75318e-08
7.75188e-08
7.75609e-08
1.08784e-08
1.0876e-08
1.08713e-08
1.09004e-08
3.25525e-07