/*--------------------------------*- C++ -*----------------------------------*\
| =========                 |                                                 |
| \\      /  F ield         | OpenFOAM: The Open Source CFD Toolbox           |
|  \\    /   O peration     | Version:  v1912                                 |
|   \\  /    A nd           | Website:  www.openfoam.com                      |
|    \\/     M anipulation  |                                                 |
\*---------------------------------------------------------------------------*/
FoamFile
{
    version     2.0;
    format      ascii;
    class       volScalarField;
    location    "1.5";
    object      p;
}
// * * * * * * * * * * * * * * * * * * * * * * * * * * * * * * * * * * * * * //

dimensions      [0 2 -2 0 0 0 0];


internalField   nonuniform List<scalar> 
171728
(
0.0208391
0.0208413
0.0208414
0.0208578
0.0206212
0.0206213
0.0206213
0.0206348
0.0204003
0.0204002
0.0204002
0.0204137
0.0201793
0.0201792
0.0201792
0.0201927
0.0199583
0.0199581
0.0199581
0.0199717
0.0197372
0.0197371
0.0197371
0.0197506
0.0195162
0.0195161
0.0195161
0.0195296
0.0192952
0.0192951
0.0192951
0.0193086
0.0190741
0.019074
0.019074
0.0190875
0.0188531
0.018853
0.018853
0.0188665
0.0186321
0.018632
0.018632
0.0186455
0.0184111
0.0184109
0.0184109
0.0184245
0.01819
0.0181899
0.0181899
0.0182034
0.017969
0.0179689
0.0179689
0.0179824
0.017748
0.0177479
0.0177479
0.0177614
0.0175269
0.0175268
0.0175268
0.0175404
0.0173059
0.0173058
0.0173058
0.0173193
0.0170849
0.0170848
0.0170848
0.0170983
0.0168639
0.0168638
0.0168638
0.0168773
0.0166428
0.0166427
0.0166427
0.0166563
0.0164218
0.0164217
0.0164217
0.0164352
0.0162008
0.0162007
0.0162007
0.0162142
0.0159798
0.0159797
0.0159797
0.0159932
0.0157587
0.0157586
0.0157586
0.0157721
0.0155377
0.0155376
0.0155376
0.0155511
0.0153167
0.0153166
0.0153166
0.0153301
0.0150956
0.0150955
0.0150955
0.0151091
0.0148746
0.0148745
0.0148745
0.014888
0.0146536
0.0146535
0.0146535
0.014667
0.0144326
0.0144324
0.0144324
0.014446
0.0142115
0.0142114
0.0142114
0.0142249
0.0139905
0.0139904
0.0139904
0.0140039
0.0137695
0.0137693
0.0137693
0.0137829
0.0135484
0.0135483
0.0135483
0.0135618
0.0133274
0.0133273
0.0133273
0.0133408
0.0131064
0.0131062
0.0131062
0.0131198
0.0128853
0.0128852
0.0128852
0.0128987
0.0126643
0.0126642
0.0126642
0.0126777
0.0124433
0.0124431
0.0124431
0.0124567
0.0122222
0.0122221
0.0122221
0.0122356
0.0120012
0.0120011
0.0120011
0.0120146
0.0117802
0.01178
0.01178
0.0117936
0.0115591
0.011559
0.011559
0.0115725
0.0113381
0.011338
0.011338
0.0113515
0.011117
0.0111169
0.0111169
0.0111305
0.010896
0.0108959
0.0108959
0.0109094
0.010675
0.0106749
0.0106749
0.0106884
0.0104539
0.0104538
0.0104538
0.0104673
0.0102329
0.0102328
0.0102328
0.0102463
0.0100119
0.0100118
0.0100118
0.0100253
0.00979084
0.00979073
0.00979073
0.00980425
0.00956981
0.00956969
0.00956969
0.00958321
0.00934878
0.00934866
0.00934866
0.00936218
0.00912775
0.00912763
0.00912763
0.00914116
0.00890672
0.0089066
0.0089066
0.00892013
0.00868569
0.00868558
0.00868558
0.0086991
0.00846466
0.00846455
0.00846455
0.00847807
0.00824363
0.00824352
0.00824352
0.00825704
0.0080226
0.00802249
0.00802249
0.00803601
0.00780157
0.00780146
0.00780146
0.00781498
0.00758055
0.00758044
0.00758044
0.00759396
0.00735952
0.00735941
0.00735941
0.00737293
0.00713849
0.00713838
0.00713838
0.0071519
0.00691747
0.00691735
0.00691735
0.00693087
0.00669644
0.00669633
0.00669633
0.00670985
0.00647541
0.0064753
0.0064753
0.00648882
0.00625439
0.00625427
0.00625427
0.0062678
0.00603336
0.00603325
0.00603325
0.00604677
0.00581234
0.00581222
0.00581222
0.00582574
0.00559131
0.0055912
0.0055912
0.00560472
0.00537028
0.00537017
0.00537017
0.00538369
0.00514926
0.00514915
0.00514915
0.00516267
0.00492823
0.00492812
0.00492812
0.00494164
0.0047072
0.00470709
0.00470709
0.00472061
0.00448617
0.00448606
0.00448606
0.00449958
0.00426514
0.00426503
0.00426503
0.00427855
0.00404411
0.004044
0.004044
0.00405752
0.00382308
0.00382297
0.00382297
0.00383649
0.00360205
0.00360194
0.00360194
0.00361546
0.00338102
0.00338091
0.00338091
0.00339443
0.00315998
0.00315987
0.00315987
0.00317339
0.00293895
0.00293884
0.00293884
0.00295236
0.00271791
0.0027178
0.0027178
0.00273132
0.00249688
0.00249677
0.00249677
0.00251029
0.00227585
0.00227574
0.00227574
0.00228926
0.00205481
0.0020547
0.0020547
0.00206822
0.00183377
0.00183366
0.00183366
0.00184718
0.00161274
0.00161263
0.00161263
0.00162615
0.00139172
0.00139161
0.00139161
0.00140513
0.00117068
0.00117057
0.00117057
0.00118409
0.000949638
0.000949526
0.000949526
0.000963048
0.000728594
0.000728484
0.000728483
0.000742004
0.00050757
0.000507454
0.000507452
0.000520966
0.000287364
0.000286709
0.000286701
0.000300021
8.36119e-05
8.8664e-05
8.86535e-05
8.81659e-05
0.0208871
0.0208815
0.0208814
0.020887
0.0208815
0.0208815
0.0208913
0.0208913
0.0208914
0.0208913
0.0208814
0.0208815
0.0208871
0.0208815
0.0208815
0.0208871
0.0208578
0.0206631
0.0208414
0.0208413
0.0206765
0.0206765
0.0208577
0.0206631
0.0208414
0.0208414
0.0206765
0.0206765
0.0208414
0.0206765
0.0206765
0.0208578
0.0206631
0.0208414
0.0206765
0.0206765
0.0206631
0.0206348
0.020442
0.0206213
0.0206213
0.0204555
0.0204555
0.0206348
0.020442
0.0206213
0.0206213
0.0204555
0.0204555
0.0206213
0.0204555
0.0204555
0.0206348
0.020442
0.0206213
0.0204555
0.0204555
0.020442
0.0204137
0.020221
0.0204002
0.0204002
0.0202344
0.0202344
0.0204137
0.020221
0.0204002
0.0204002
0.0202344
0.0202344
0.0204002
0.0202344
0.0202344
0.0204137
0.020221
0.0204002
0.0202344
0.0202344
0.020221
0.0201927
0.0199999
0.0201792
0.0201792
0.0200134
0.0200134
0.0201927
0.0199999
0.0201792
0.0201792
0.0200134
0.0200134
0.0201792
0.0200134
0.0200134
0.0201927
0.0199999
0.0201792
0.0200134
0.0200134
0.0199999
0.0199717
0.0197789
0.0199581
0.0199581
0.0197924
0.0197924
0.0199717
0.0197789
0.0199581
0.0199581
0.0197924
0.0197924
0.0199581
0.0197924
0.0197924
0.0199717
0.0197789
0.0199581
0.0197924
0.0197924
0.0197789
0.0197506
0.0195579
0.0197371
0.0197371
0.0195713
0.0195713
0.0197506
0.0195579
0.0197371
0.0197371
0.0195713
0.0195713
0.0197371
0.0195713
0.0195713
0.0197506
0.0195579
0.0197371
0.0195713
0.0195713
0.0195579
0.0195296
0.0193369
0.0195161
0.0195161
0.0193503
0.0193503
0.0195296
0.0193369
0.0195161
0.0195161
0.0193503
0.0193503
0.0195161
0.0193503
0.0193503
0.0195296
0.0193369
0.0195161
0.0193503
0.0193503
0.0193369
0.0193086
0.0191158
0.0192951
0.0192951
0.0191293
0.0191293
0.0193086
0.0191158
0.0192951
0.0192951
0.0191293
0.0191293
0.0192951
0.0191293
0.0191293
0.0193086
0.0191158
0.0192951
0.0191293
0.0191293
0.0191158
0.0190875
0.0188948
0.019074
0.019074
0.0189083
0.0189083
0.0190875
0.0188948
0.019074
0.019074
0.0189083
0.0189083
0.019074
0.0189083
0.0189083
0.0190875
0.0188948
0.019074
0.0189083
0.0189083
0.0188948
0.0188665
0.0186738
0.018853
0.018853
0.0186872
0.0186872
0.0188665
0.0186738
0.018853
0.018853
0.0186872
0.0186872
0.018853
0.0186872
0.0186872
0.0188665
0.0186738
0.018853
0.0186872
0.0186872
0.0186738
0.0186455
0.0184528
0.018632
0.018632
0.0184662
0.0184662
0.0186455
0.0184528
0.018632
0.018632
0.0184662
0.0184662
0.018632
0.0184662
0.0184662
0.0186455
0.0184528
0.018632
0.0184662
0.0184662
0.0184528
0.0184245
0.0182317
0.0184109
0.0184109
0.0182452
0.0182452
0.0184245
0.0182317
0.0184109
0.0184109
0.0182452
0.0182452
0.0184109
0.0182452
0.0182452
0.0184245
0.0182317
0.0184109
0.0182452
0.0182452
0.0182317
0.0182034
0.0180107
0.0181899
0.0181899
0.0180241
0.0180241
0.0182034
0.0180107
0.0181899
0.0181899
0.0180241
0.0180241
0.0181899
0.0180241
0.0180241
0.0182034
0.0180107
0.0181899
0.0180241
0.0180241
0.0180107
0.0179824
0.0177897
0.0179689
0.0179689
0.0178031
0.0178031
0.0179824
0.0177897
0.0179689
0.0179689
0.0178031
0.0178031
0.0179689
0.0178031
0.0178031
0.0179824
0.0177897
0.0179689
0.0178031
0.0178031
0.0177897
0.0177614
0.0175686
0.0177479
0.0177479
0.0175821
0.0175821
0.0177614
0.0175686
0.0177479
0.0177479
0.0175821
0.0175821
0.0177479
0.0175821
0.0175821
0.0177614
0.0175686
0.0177479
0.0175821
0.0175821
0.0175686
0.0175404
0.0173476
0.0175268
0.0175268
0.0173611
0.0173611
0.0175404
0.0173476
0.0175268
0.0175268
0.0173611
0.0173611
0.0175268
0.0173611
0.0173611
0.0175404
0.0173476
0.0175268
0.0173611
0.0173611
0.0173476
0.0173193
0.0171266
0.0173058
0.0173058
0.01714
0.01714
0.0173193
0.0171266
0.0173058
0.0173058
0.01714
0.01714
0.0173058
0.01714
0.01714
0.0173193
0.0171266
0.0173058
0.01714
0.01714
0.0171266
0.0170983
0.0169056
0.0170848
0.0170848
0.016919
0.016919
0.0170983
0.0169056
0.0170848
0.0170848
0.016919
0.016919
0.0170848
0.016919
0.016919
0.0170983
0.0169056
0.0170848
0.016919
0.016919
0.0169056
0.0168773
0.0166845
0.0168638
0.0168638
0.016698
0.016698
0.0168773
0.0166845
0.0168638
0.0168638
0.016698
0.016698
0.0168638
0.016698
0.016698
0.0168773
0.0166845
0.0168638
0.016698
0.016698
0.0166845
0.0166563
0.0164635
0.0166427
0.0166427
0.016477
0.016477
0.0166563
0.0164635
0.0166427
0.0166427
0.016477
0.016477
0.0166427
0.016477
0.016477
0.0166563
0.0164635
0.0166427
0.016477
0.016477
0.0164635
0.0164352
0.0162425
0.0164217
0.0164217
0.0162559
0.0162559
0.0164352
0.0162425
0.0164217
0.0164217
0.0162559
0.0162559
0.0164217
0.0162559
0.0162559
0.0164352
0.0162425
0.0164217
0.0162559
0.0162559
0.0162425
0.0162142
0.0160215
0.0162007
0.0162007
0.0160349
0.0160349
0.0162142
0.0160215
0.0162007
0.0162007
0.0160349
0.0160349
0.0162007
0.0160349
0.0160349
0.0162142
0.0160215
0.0162007
0.0160349
0.0160349
0.0160215
0.0159932
0.0158004
0.0159797
0.0159797
0.0158139
0.0158139
0.0159932
0.0158004
0.0159797
0.0159797
0.0158139
0.0158139
0.0159797
0.0158139
0.0158139
0.0159932
0.0158004
0.0159797
0.0158139
0.0158139
0.0158004
0.0157721
0.0155794
0.0157586
0.0157586
0.0155929
0.0155929
0.0157721
0.0155794
0.0157586
0.0157586
0.0155929
0.0155929
0.0157586
0.0155929
0.0155929
0.0157721
0.0155794
0.0157586
0.0155929
0.0155929
0.0155794
0.0155511
0.0153584
0.0155376
0.0155376
0.0153718
0.0153718
0.0155511
0.0153584
0.0155376
0.0155376
0.0153718
0.0153718
0.0155376
0.0153718
0.0153718
0.0155511
0.0153584
0.0155376
0.0153718
0.0153718
0.0153584
0.0153301
0.0151373
0.0153166
0.0153166
0.0151508
0.0151508
0.0153301
0.0151373
0.0153166
0.0153166
0.0151508
0.0151508
0.0153166
0.0151508
0.0151508
0.0153301
0.0151373
0.0153166
0.0151508
0.0151508
0.0151373
0.0151091
0.0149163
0.0150955
0.0150955
0.0149298
0.0149298
0.0151091
0.0149163
0.0150955
0.0150955
0.0149298
0.0149298
0.0150955
0.0149298
0.0149298
0.0151091
0.0149163
0.0150955
0.0149298
0.0149298
0.0149163
0.014888
0.0146953
0.0148745
0.0148745
0.0147087
0.0147087
0.014888
0.0146953
0.0148745
0.0148745
0.0147087
0.0147087
0.0148745
0.0147087
0.0147087
0.014888
0.0146953
0.0148745
0.0147087
0.0147087
0.0146953
0.014667
0.0144743
0.0146535
0.0146535
0.0144877
0.0144877
0.014667
0.0144743
0.0146535
0.0146535
0.0144877
0.0144877
0.0146535
0.0144877
0.0144877
0.014667
0.0144743
0.0146535
0.0144877
0.0144877
0.0144743
0.014446
0.0142532
0.0144324
0.0144324
0.0142667
0.0142667
0.014446
0.0142532
0.0144324
0.0144324
0.0142667
0.0142667
0.0144324
0.0142667
0.0142667
0.014446
0.0142532
0.0144324
0.0142667
0.0142667
0.0142532
0.0142249
0.0140322
0.0142114
0.0142114
0.0140456
0.0140456
0.0142249
0.0140322
0.0142114
0.0142114
0.0140456
0.0140456
0.0142114
0.0140456
0.0140456
0.0142249
0.0140322
0.0142114
0.0140456
0.0140456
0.0140322
0.0140039
0.0138112
0.0139904
0.0139904
0.0138246
0.0138246
0.0140039
0.0138112
0.0139904
0.0139904
0.0138246
0.0138246
0.0139904
0.0138246
0.0138246
0.0140039
0.0138112
0.0139904
0.0138246
0.0138246
0.0138112
0.0137829
0.0135901
0.0137693
0.0137693
0.0136036
0.0136036
0.0137829
0.0135901
0.0137693
0.0137693
0.0136036
0.0136036
0.0137693
0.0136036
0.0136036
0.0137829
0.0135901
0.0137693
0.0136036
0.0136036
0.0135901
0.0135618
0.0133691
0.0135483
0.0135483
0.0133825
0.0133825
0.0135618
0.0133691
0.0135483
0.0135483
0.0133825
0.0133825
0.0135483
0.0133825
0.0133825
0.0135618
0.0133691
0.0135483
0.0133825
0.0133825
0.0133691
0.0133408
0.0131481
0.0133273
0.0133273
0.0131615
0.0131615
0.0133408
0.0131481
0.0133273
0.0133273
0.0131615
0.0131615
0.0133273
0.0131615
0.0131615
0.0133408
0.0131481
0.0133273
0.0131615
0.0131615
0.0131481
0.0131198
0.012927
0.0131062
0.0131062
0.0129405
0.0129405
0.0131198
0.012927
0.0131062
0.0131062
0.0129405
0.0129405
0.0131062
0.0129405
0.0129405
0.0131198
0.012927
0.0131062
0.0129405
0.0129405
0.012927
0.0128987
0.012706
0.0128852
0.0128852
0.0127194
0.0127194
0.0128987
0.012706
0.0128852
0.0128852
0.0127194
0.0127194
0.0128852
0.0127194
0.0127194
0.0128987
0.012706
0.0128852
0.0127194
0.0127194
0.012706
0.0126777
0.012485
0.0126642
0.0126642
0.0124984
0.0124984
0.0126777
0.012485
0.0126642
0.0126642
0.0124984
0.0124984
0.0126642
0.0124984
0.0124984
0.0126777
0.012485
0.0126642
0.0124984
0.0124984
0.012485
0.0124567
0.0122639
0.0124431
0.0124431
0.0122774
0.0122774
0.0124567
0.0122639
0.0124431
0.0124431
0.0122774
0.0122774
0.0124431
0.0122774
0.0122774
0.0124567
0.0122639
0.0124431
0.0122774
0.0122774
0.0122639
0.0122356
0.0120429
0.0122221
0.0122221
0.0120563
0.0120563
0.0122356
0.0120429
0.0122221
0.0122221
0.0120563
0.0120563
0.0122221
0.0120563
0.0120563
0.0122356
0.0120429
0.0122221
0.0120563
0.0120563
0.0120429
0.0120146
0.0118219
0.0120011
0.0120011
0.0118353
0.0118353
0.0120146
0.0118219
0.0120011
0.0120011
0.0118353
0.0118353
0.0120011
0.0118353
0.0118353
0.0120146
0.0118219
0.0120011
0.0118353
0.0118353
0.0118219
0.0117936
0.0116008
0.01178
0.01178
0.0116143
0.0116143
0.0117936
0.0116008
0.01178
0.01178
0.0116143
0.0116143
0.01178
0.0116143
0.0116143
0.0117936
0.0116008
0.01178
0.0116143
0.0116143
0.0116008
0.0115725
0.0113798
0.011559
0.011559
0.0113932
0.0113932
0.0115725
0.0113798
0.011559
0.011559
0.0113932
0.0113932
0.011559
0.0113932
0.0113932
0.0115725
0.0113798
0.011559
0.0113932
0.0113932
0.0113798
0.0113515
0.0111587
0.011338
0.011338
0.0111722
0.0111722
0.0113515
0.0111587
0.011338
0.011338
0.0111722
0.0111722
0.011338
0.0111722
0.0111722
0.0113515
0.0111587
0.011338
0.0111722
0.0111722
0.0111587
0.0111305
0.0109377
0.0111169
0.0111169
0.0109512
0.0109512
0.0111305
0.0109377
0.0111169
0.0111169
0.0109512
0.0109512
0.0111169
0.0109512
0.0109512
0.0111305
0.0109377
0.0111169
0.0109512
0.0109512
0.0109377
0.0109094
0.0107167
0.0108959
0.0108959
0.0107301
0.0107301
0.0109094
0.0107167
0.0108959
0.0108959
0.0107301
0.0107301
0.0108959
0.0107301
0.0107301
0.0109094
0.0107167
0.0108959
0.0107301
0.0107301
0.0107167
0.0106884
0.0104956
0.0106749
0.0106749
0.0105091
0.0105091
0.0106884
0.0104956
0.0106749
0.0106749
0.0105091
0.0105091
0.0106749
0.0105091
0.0105091
0.0106884
0.0104956
0.0106749
0.0105091
0.0105091
0.0104956
0.0104673
0.0102746
0.0104538
0.0104538
0.010288
0.010288
0.0104673
0.0102746
0.0104538
0.0104538
0.010288
0.010288
0.0104538
0.010288
0.010288
0.0104673
0.0102746
0.0104538
0.010288
0.010288
0.0102746
0.0102463
0.0100536
0.0102328
0.0102328
0.010067
0.010067
0.0102463
0.0100536
0.0102328
0.0102328
0.010067
0.010067
0.0102328
0.010067
0.010067
0.0102463
0.0100536
0.0102328
0.010067
0.010067
0.0100536
0.0100253
0.00983254
0.0100118
0.0100118
0.00984598
0.00984598
0.0100253
0.00983254
0.0100118
0.0100118
0.00984598
0.00984598
0.0100118
0.00984598
0.00984598
0.0100253
0.00983254
0.0100118
0.00984598
0.00984598
0.00983254
0.00980425
0.0096115
0.00979073
0.00979073
0.00962495
0.00962495
0.00980425
0.0096115
0.00979073
0.00979073
0.00962495
0.00962495
0.00979073
0.00962495
0.00962495
0.00980425
0.0096115
0.00979073
0.00962495
0.00962495
0.0096115
0.00958321
0.00939048
0.00956969
0.00956969
0.00940392
0.00940392
0.00958322
0.00939047
0.00956969
0.00956969
0.00940392
0.00940392
0.00956969
0.00940392
0.00940392
0.00958322
0.00939048
0.00956969
0.00940392
0.00940392
0.00939047
0.00936218
0.00916945
0.00934866
0.00934866
0.00918289
0.00918289
0.00936219
0.00916945
0.00934866
0.00934866
0.00918289
0.00918289
0.00934866
0.00918289
0.00918289
0.00936219
0.00916945
0.00934866
0.00918289
0.00918289
0.00916945
0.00914116
0.00894841
0.00912763
0.00912763
0.00896186
0.00896186
0.00914116
0.00894841
0.00912763
0.00912763
0.00896186
0.00896186
0.00912763
0.00896186
0.00896186
0.00914116
0.00894841
0.00912763
0.00896186
0.00896186
0.00894841
0.00892012
0.00872739
0.0089066
0.0089066
0.00874083
0.00874083
0.00892013
0.00872739
0.0089066
0.0089066
0.00874083
0.00874083
0.0089066
0.00874083
0.00874083
0.00892012
0.00872739
0.0089066
0.00874083
0.00874083
0.00872739
0.0086991
0.00850636
0.00868558
0.00868558
0.00851981
0.0085198
0.0086991
0.00850636
0.00868558
0.00868558
0.0085198
0.00851981
0.00868558
0.0085198
0.00851981
0.0086991
0.00850636
0.00868558
0.00851981
0.0085198
0.00850636
0.00847807
0.00828533
0.00846455
0.00846455
0.00829878
0.00829878
0.00847807
0.00828533
0.00846455
0.00846455
0.00829878
0.00829878
0.00846455
0.00829878
0.00829878
0.00847807
0.00828533
0.00846455
0.00829878
0.00829878
0.00828533
0.00825704
0.0080643
0.00824352
0.00824352
0.00807775
0.00807775
0.00825704
0.0080643
0.00824352
0.00824352
0.00807775
0.00807775
0.00824352
0.00807775
0.00807775
0.00825704
0.0080643
0.00824352
0.00807775
0.00807775
0.0080643
0.00803601
0.00784327
0.00802249
0.00802249
0.00785672
0.00785672
0.00803601
0.00784327
0.00802249
0.00802249
0.00785672
0.00785672
0.00802249
0.00785672
0.00785672
0.00803601
0.00784327
0.00802249
0.00785672
0.00785672
0.00784327
0.00781498
0.00762225
0.00780146
0.00780146
0.00763569
0.00763569
0.00781498
0.00762225
0.00780146
0.00780146
0.00763569
0.00763569
0.00780146
0.00763569
0.00763569
0.00781498
0.00762225
0.00780146
0.00763569
0.00763569
0.00762225
0.00759396
0.00740122
0.00758044
0.00758044
0.00741466
0.00741466
0.00759396
0.00740122
0.00758044
0.00758044
0.00741466
0.00741466
0.00758044
0.00741466
0.00741467
0.00759396
0.00740122
0.00758044
0.00741466
0.00741466
0.00740122
0.00737293
0.00718019
0.00735941
0.00735941
0.00719364
0.00719364
0.00737293
0.00718019
0.00735941
0.00735941
0.00719364
0.00719364
0.00735941
0.00719364
0.00719364
0.00737293
0.00718019
0.00735941
0.00719364
0.00719364
0.00718019
0.0071519
0.00695916
0.00713838
0.00713838
0.00697261
0.00697261
0.0071519
0.00695916
0.00713838
0.00713838
0.00697261
0.00697261
0.00713838
0.00697261
0.00697261
0.0071519
0.00695916
0.00713838
0.00697261
0.00697261
0.00695916
0.00693087
0.00673814
0.00691735
0.00691735
0.00675158
0.00675158
0.00693087
0.00673814
0.00691735
0.00691735
0.00675158
0.00675158
0.00691735
0.00675158
0.00675159
0.00693087
0.00673814
0.00691735
0.00675158
0.00675158
0.00673814
0.00670985
0.00651711
0.00669633
0.00669633
0.00653056
0.00653056
0.00670985
0.00651711
0.00669633
0.00669633
0.00653056
0.00653056
0.00669633
0.00653056
0.00653056
0.00670985
0.00651711
0.00669633
0.00653056
0.00653056
0.00651711
0.00648882
0.00629608
0.0064753
0.0064753
0.00630953
0.00630953
0.00648882
0.00629608
0.0064753
0.0064753
0.00630953
0.00630953
0.0064753
0.00630953
0.00630953
0.00648882
0.00629608
0.0064753
0.00630953
0.00630953
0.00629608
0.0062678
0.00607506
0.00625428
0.00625427
0.0060885
0.0060885
0.0062678
0.00607506
0.00625427
0.00625427
0.0060885
0.0060885
0.00625427
0.0060885
0.0060885
0.0062678
0.00607506
0.00625427
0.0060885
0.0060885
0.00607506
0.00604677
0.00585403
0.00603325
0.00603325
0.00586748
0.00586748
0.00604677
0.00585403
0.00603325
0.00603325
0.00586748
0.00586748
0.00603325
0.00586748
0.00586748
0.00604677
0.00585403
0.00603325
0.00586748
0.00586748
0.00585403
0.00582574
0.00563301
0.00581222
0.00581222
0.00564645
0.00564645
0.00582575
0.00563301
0.00581222
0.00581222
0.00564645
0.00564645
0.00581222
0.00564645
0.00564645
0.00582574
0.00563301
0.00581222
0.00564645
0.00564645
0.00563301
0.00560472
0.00541198
0.0055912
0.0055912
0.00542543
0.00542543
0.00560472
0.00541198
0.0055912
0.0055912
0.00542543
0.00542543
0.0055912
0.00542543
0.00542543
0.00560472
0.00541198
0.0055912
0.00542543
0.00542543
0.00541198
0.00538369
0.00519096
0.00537017
0.00537017
0.0052044
0.0052044
0.00538369
0.00519096
0.00537017
0.00537017
0.0052044
0.0052044
0.00537017
0.0052044
0.0052044
0.00538369
0.00519096
0.00537017
0.0052044
0.0052044
0.00519096
0.00516267
0.00496993
0.00514915
0.00514915
0.00498338
0.00498338
0.00516267
0.00496993
0.00514915
0.00514915
0.00498337
0.00498338
0.00514915
0.00498338
0.00498338
0.00516267
0.00496993
0.00514915
0.00498338
0.00498338
0.00496993
0.00494164
0.0047489
0.00492812
0.00492812
0.00476235
0.00476235
0.00494164
0.0047489
0.00492812
0.00492812
0.00476235
0.00476235
0.00492812
0.00476235
0.00476235
0.00494164
0.0047489
0.00492812
0.00476235
0.00476235
0.0047489
0.00472061
0.00452787
0.00470709
0.00470709
0.00454132
0.00454132
0.00472061
0.00452787
0.00470709
0.00470709
0.00454132
0.00454132
0.00470709
0.00454132
0.00454132
0.00472061
0.00452787
0.00470709
0.00454132
0.00454132
0.00452787
0.00449958
0.00430684
0.00448606
0.00448606
0.00432029
0.00432029
0.00449958
0.00430684
0.00448606
0.00448606
0.00432029
0.00432029
0.00448606
0.00432029
0.00432029
0.00449958
0.00430684
0.00448606
0.00432029
0.00432029
0.00430684
0.00427855
0.00408581
0.00426503
0.00426503
0.00409926
0.00409926
0.00427855
0.00408581
0.00426503
0.00426503
0.00409926
0.00409926
0.00426503
0.00409926
0.00409926
0.00427855
0.00408581
0.00426503
0.00409926
0.00409926
0.00408581
0.00405752
0.00386478
0.004044
0.004044
0.00387823
0.00387823
0.00405752
0.00386478
0.004044
0.004044
0.00387823
0.00387823
0.004044
0.00387823
0.00387823
0.00405752
0.00386478
0.004044
0.00387823
0.00387823
0.00386478
0.00383649
0.00364375
0.00382297
0.00382297
0.0036572
0.0036572
0.00383649
0.00364375
0.00382297
0.00382297
0.0036572
0.0036572
0.00382297
0.0036572
0.0036572
0.00383649
0.00364375
0.00382297
0.0036572
0.0036572
0.00364375
0.00361546
0.00342272
0.00360194
0.00360194
0.00343616
0.00343616
0.00361546
0.00342272
0.00360194
0.00360194
0.00343616
0.00343616
0.00360194
0.00343616
0.00343616
0.00361546
0.00342272
0.00360194
0.00343616
0.00343616
0.00342272
0.00339443
0.00320168
0.00338091
0.0033809
0.00321513
0.00321513
0.00339443
0.00320168
0.0033809
0.00338091
0.00321513
0.00321513
0.00338091
0.00321513
0.00321513
0.00339443
0.00320168
0.00338091
0.00321513
0.00321513
0.00320168
0.00317339
0.00298065
0.00315987
0.00315987
0.0029941
0.0029941
0.00317339
0.00298065
0.00315987
0.00315987
0.0029941
0.0029941
0.00315987
0.0029941
0.0029941
0.00317339
0.00298065
0.00315987
0.0029941
0.0029941
0.00298065
0.00295236
0.00275961
0.00293884
0.00293884
0.00277306
0.00277306
0.00295236
0.00275961
0.00293884
0.00293884
0.00277306
0.00277306
0.00293884
0.00277306
0.00277306
0.00295236
0.00275961
0.00293884
0.00277306
0.00277306
0.00275961
0.00273132
0.00253858
0.0027178
0.0027178
0.00255203
0.00255203
0.00273132
0.00253858
0.0027178
0.0027178
0.00255203
0.00255203
0.0027178
0.00255203
0.00255203
0.00273132
0.00253858
0.0027178
0.00255203
0.00255203
0.00253858
0.00251029
0.00231755
0.00249677
0.00249677
0.002331
0.002331
0.00251029
0.00231755
0.00249677
0.00249677
0.002331
0.002331
0.00249677
0.002331
0.002331
0.00251029
0.00231755
0.00249677
0.002331
0.002331
0.00231755
0.00228926
0.00209652
0.00227574
0.00227574
0.00210996
0.00210996
0.00228926
0.00209652
0.00227574
0.00227574
0.00210996
0.00210996
0.00227574
0.00210996
0.00210996
0.00228926
0.00209652
0.00227574
0.00210996
0.00210996
0.00209652
0.00206822
0.00187547
0.0020547
0.0020547
0.00188892
0.00188892
0.00206822
0.00187547
0.0020547
0.0020547
0.00188892
0.00188892
0.0020547
0.00188892
0.00188892
0.00206822
0.00187547
0.0020547
0.00188892
0.00188892
0.00187547
0.00184718
0.00165444
0.00183366
0.00183366
0.00166789
0.00166789
0.00184718
0.00165444
0.00183366
0.00183366
0.00166789
0.00166789
0.00183366
0.00166789
0.00166789
0.00184718
0.00165444
0.00183366
0.00166789
0.00166789
0.00165444
0.00162615
0.00143342
0.00161263
0.00161263
0.00144686
0.00144686
0.00162615
0.00143342
0.00161263
0.00161263
0.00144686
0.00144686
0.00161263
0.00144686
0.00144686
0.00162615
0.00143342
0.00161263
0.00144686
0.00144686
0.00143342
0.00140513
0.00121238
0.00139161
0.00139161
0.00122583
0.00122583
0.00140513
0.00121238
0.00139161
0.00139161
0.00122583
0.00122583
0.00139161
0.00122583
0.00122583
0.00140513
0.00121238
0.00139161
0.00122583
0.00122583
0.00121238
0.00118409
0.000991341
0.00117057
0.00117057
0.00100479
0.00100479
0.00118409
0.000991341
0.00117057
0.00117057
0.00100479
0.00100479
0.00117057
0.00100479
0.00100479
0.00118409
0.000991341
0.00117057
0.00100479
0.00100479
0.000991341
0.000963048
0.000770297
0.000949527
0.000949526
0.000783744
0.000783743
0.000963048
0.000770297
0.000949526
0.000949526
0.000783744
0.000783743
0.000949527
0.000783744
0.000783744
0.000963048
0.000770296
0.000949527
0.000783743
0.000783744
0.000770296
0.000742005
0.000549257
0.000728483
0.000728483
0.000562706
0.000562709
0.000742005
0.000549257
0.000728484
0.000728483
0.000562707
0.000562706
0.000728484
0.000562708
0.000562708
0.000742004
0.000549256
0.000728484
0.000562706
0.000562707
0.000549258
0.000520967
0.000328281
0.000507453
0.000507453
0.000341794
0.000341797
0.000520966
0.00032829
0.000507453
0.000507452
0.000341793
0.00034179
0.000507453
0.000341797
0.000341794
0.000520965
0.000328282
0.000507453
0.000341791
0.000341793
0.000328286
0.000300011
0.000110167
0.000286706
0.000286711
0.000123778
0.000123776
0.000300028
0.000110173
0.000286703
0.000286703
0.00012376
0.000123762
0.000286707
0.00012377
0.00012377
0.000300014
0.00011016
0.000286704
0.000123758
0.000123757
0.000110163
8.81677e-05
8.86623e-05
8.86566e-05
8.81727e-05
8.86517e-05
8.86467e-05
8.36136e-05
8.36062e-05
8.36092e-05
8.86591e-05
8.8161e-05
8.865e-05
0.0209156
0.0209504
0.0209316
0.0209316
0.0210072
0.0209641
0.0210687
0.0209428
0.0210073
0.0209642
0.0209429
0.0210688
0.0209797
0.0210886
0.0210886
0.0207779
0.0208984
0.0208836
0.020779
0.0207817
0.0207753
0.0207779
0.0208983
0.0208837
0.020779
0.0208391
0.0208391
0.0208391
0.0206764
0.0206763
0.0206764
0.0206764
0.0207724
0.0208792
0.0208424
0.0207863
0.0208487
0.0207766
0.0207861
0.020782
0.0207754
0.0207725
0.0208425
0.0208793
0.0207864
0.0208488
0.0207861
0.0207767
0.0208804
0.0208803
0.0207731
0.0207749
0.0207749
0.0205524
0.0206356
0.0206356
0.0205524
0.0206353
0.0205524
0.0205524
0.0206356
0.0206356
0.0205524
0.0206212
0.0206212
0.0206212
0.0204555
0.0204555
0.0204555
0.0204555
0.0205529
0.0206349
0.0206212
0.020566
0.0206348
0.0205529
0.020566
0.0206354
0.0205524
0.0205529
0.0206212
0.0206349
0.020566
0.0206348
0.020566
0.0205529
0.0206353
0.0206353
0.0205526
0.0205524
0.0205524
0.0203312
0.0204141
0.0204141
0.0203312
0.020414
0.0203313
0.0203312
0.0204141
0.0204141
0.0203312
0.0204003
0.0204003
0.0204003
0.0202345
0.0202345
0.0202345
0.0202345
0.0203318
0.0204135
0.0204002
0.0203449
0.0204135
0.0203317
0.020345
0.020414
0.0203313
0.0203318
0.0204002
0.0204136
0.0203449
0.0204135
0.020345
0.0203317
0.020414
0.020414
0.0203315
0.0203313
0.0203313
0.0201102
0.020193
0.020193
0.0201102
0.020193
0.0201102
0.0201102
0.020193
0.020193
0.0201102
0.0201793
0.0201793
0.0201793
0.0200135
0.0200135
0.0200135
0.0200135
0.0201107
0.0201925
0.0201792
0.0201239
0.0201925
0.0201107
0.0201239
0.020193
0.0201102
0.0201107
0.0201792
0.0201925
0.0201239
0.0201925
0.0201239
0.0201107
0.020193
0.020193
0.0201105
0.0201102
0.0201102
0.0198892
0.019972
0.019972
0.0198892
0.019972
0.0198892
0.0198892
0.019972
0.019972
0.0198892
0.0199583
0.0199583
0.0199583
0.0197925
0.0197925
0.0197925
0.0197925
0.0198897
0.0199715
0.0199582
0.0199029
0.0199715
0.0198897
0.0199029
0.019972
0.0198892
0.0198897
0.0199582
0.0199715
0.0199029
0.0199715
0.0199029
0.0198897
0.019972
0.019972
0.0198894
0.0198892
0.0198892
0.0196681
0.019751
0.019751
0.0196681
0.0197509
0.0196682
0.0196681
0.019751
0.019751
0.0196681
0.0197372
0.0197372
0.0197372
0.0195715
0.0195715
0.0195715
0.0195715
0.0196687
0.0197505
0.0197371
0.0196819
0.0197504
0.0196686
0.0196819
0.0197509
0.0196682
0.0196687
0.0197371
0.0197505
0.0196819
0.0197504
0.0196819
0.0196686
0.0197509
0.0197509
0.0196684
0.0196682
0.0196682
0.0194471
0.0195299
0.0195299
0.0194471
0.0195299
0.0194471
0.0194471
0.0195299
0.01953
0.0194471
0.0195162
0.0195162
0.0195162
0.0193504
0.0193504
0.0193504
0.0193504
0.0194477
0.0195294
0.0195161
0.0194608
0.0195294
0.0194476
0.0194609
0.0195299
0.0194471
0.0194477
0.0195161
0.0195294
0.0194608
0.0195294
0.0194609
0.0194476
0.0195299
0.0195299
0.0194474
0.0194471
0.0194471
0.0192261
0.0193089
0.0193089
0.0192261
0.0193089
0.0192261
0.0192261
0.0193089
0.0193089
0.0192261
0.0192952
0.0192952
0.0192952
0.0191294
0.0191294
0.0191294
0.0191294
0.0192266
0.0193084
0.0192951
0.0192398
0.0193084
0.0192266
0.0192398
0.0193089
0.0192261
0.0192266
0.0192951
0.0193084
0.0192398
0.0193084
0.0192398
0.0192266
0.0193089
0.0193089
0.0192263
0.0192261
0.0192261
0.019005
0.0190879
0.0190879
0.019005
0.0190878
0.0190051
0.019005
0.0190879
0.0190879
0.019005
0.0190741
0.0190741
0.0190741
0.0189084
0.0189084
0.0189084
0.0189084
0.0190056
0.0190874
0.0190741
0.0190188
0.0190874
0.0190055
0.0190188
0.0190878
0.0190051
0.0190056
0.0190741
0.0190874
0.0190188
0.0190874
0.0190188
0.0190055
0.0190878
0.0190878
0.0190053
0.0190051
0.0190051
0.018784
0.0188668
0.0188669
0.018784
0.0188668
0.0187841
0.018784
0.0188668
0.0188669
0.018784
0.0188531
0.0188531
0.0188531
0.0186873
0.0186873
0.0186873
0.0186873
0.0187846
0.0188663
0.018853
0.0187977
0.0188663
0.0187845
0.0187978
0.0188668
0.0187841
0.0187846
0.018853
0.0188663
0.0187977
0.0188663
0.0187978
0.0187845
0.0188668
0.0188668
0.0187843
0.0187841
0.0187841
0.018563
0.0186458
0.0186458
0.018563
0.0186458
0.018563
0.018563
0.0186458
0.0186458
0.018563
0.0186321
0.0186321
0.0186321
0.0184663
0.0184663
0.0184663
0.0184663
0.0185635
0.0186453
0.018632
0.0185767
0.0186453
0.0185635
0.0185767
0.0186458
0.018563
0.0185635
0.018632
0.0186453
0.0185767
0.0186453
0.0185767
0.0185635
0.0186458
0.0186458
0.0185633
0.018563
0.018563
0.018342
0.0184248
0.0184248
0.018342
0.0184248
0.018342
0.018342
0.0184248
0.0184248
0.018342