/*--------------------------------*- C++ -*----------------------------------*\
| =========                 |                                                 |
| \\      /  F ield         | OpenFOAM: The Open Source CFD Toolbox           |
|  \\    /   O peration     | Version:  v1906                                 |
|   \\  /    A nd           | Web:      www.OpenFOAM.com                      |
|    \\/     M anipulation  |                                                 |
\*---------------------------------------------------------------------------*/
FoamFile
{
    version     2.0;
    format      ascii;
    class       volScalarField;
    location    "50";
    object      nut;
}
// * * * * * * * * * * * * * * * * * * * * * * * * * * * * * * * * * * * * * //

dimensions      [0 2 -1 0 0 0 0];


internalField   nonuniform List<scalar> 
43248
(
0.000131302
0.000157953
0.000157962
0.000131336
0.000158008
0.000157905
0.000158051
0.000157949
0.000131699
0.000157966
0.000157984
0.000131788
0.000198455
0.000198455
0.00019842
0.000198446
2.40333e-05
2.40322e-05
4.14621e-05
4.15707e-05
4.04049e-05
4.90603e-05
4.04099e-05
4.03781e-05
4.90506e-05
4.90547e-05
4.03793e-05
6.99029e-05
4.65798e-05
0.000180679
0.000180701
6.99365e-05
6.98518e-05
0.000158012
4.65825e-05
0.00018068
4.65648e-05
0.000180704
6.98848e-05
2.4034e-05
2.40318e-05
0.000131107
4.16067e-05
4.13794e-05
4.14799e-05
4.13317e-05
2.40322e-05
2.40318e-05
4.90551e-05
4.03287e-05
4.657e-05
0.000180697
6.98335e-05
4.91193e-05
4.03888e-05
0.000180655
4.66813e-05
6.98821e-05
6.98253e-05
0.000158054
4.65616e-05
0.00018063
4.65532e-05
0.000180666
6.9926e-05
4.01338e-05
4.90602e-05
4.90577e-05
4.02542e-05
7.0046e-05
0.00015798
0.000180607
4.65409e-05
0.000180649
4.65391e-05
6.98287e-05
4.03439e-05
4.90493e-05
4.90478e-05
4.03533e-05
2.40475e-05
4.1969e-05
4.15824e-05
2.40313e-05
6.96382e-05
0.000180598
4.65715e-05
0.000180608
6.97125e-05
6.97555e-05
0.000158016
0.000180674
4.65708e-05
0.000180699
4.65753e-05
6.97057e-05
4.00803e-05
4.90473e-05
4.00936e-05
4.03328e-05
4.90527e-05
4.90604e-05
4.03323e-05
0.000131159
4.11265e-05
4.12098e-05
4.12817e-05
4.13683e-05
2.4029e-05
2.40299e-05
2.40313e-05
2.40318e-05
2.40329e-05
2.40314e-05
4.70136e-05
5.72466e-05
4.13192e-05
4.65628e-05
4.65596e-05
5.72009e-05
4.70719e-05
4.70221e-05
5.72758e-05
4.15573e-05
4.65606e-05
4.65579e-05
5.72625e-05
4.70274e-05
4.58609e-05
2.15372e-05
2.15354e-05
2.15363e-05
2.15339e-05
4.58747e-05
3.71159e-05
4.19346e-05
4.11314e-05
4.04106e-05
3.71159e-05
4.19343e-05
4.11364e-05
2.02513e-05
4.90609e-05
4.69515e-05
4.69237e-05
2.02529e-05
3.7116e-05
4.04051e-05
4.19342e-05
4.11361e-05
4.19346e-05
4.11332e-05
3.7116e-05
3.71163e-05
4.19343e-05
4.11004e-05
4.0383e-05
3.71162e-05
4.19339e-05
4.11061e-05
2.0243e-05
4.90508e-05
4.66388e-05
4.63969e-05
2.0245e-05
2.02447e-05
4.65899e-05
4.90519e-05
2.02438e-05
4.65258e-05
3.71164e-05
4.03762e-05
4.19339e-05
4.11065e-05
4.19342e-05
4.11023e-05
3.71164e-05
2.4033e-05
2.40327e-05
4.55413e-05
2.15298e-05
2.1532e-05
4.56556e-05
2.15306e-05
2.15328e-05
4.69764e-05
5.72669e-05
4.1568e-05
4.65581e-05
5.7257e-05
4.6558e-05
4.69844e-05
4.69818e-05
5.7299e-05
4.13609e-05
4.65639e-05
4.65638e-05
5.72856e-05
4.69898e-05
4.69829e-05
4.65562e-05
5.72424e-05
4.15409e-05
5.72645e-05
4.69822e-05
4.65567e-05
4.69881e-05
4.65654e-05
5.72757e-05
4.12196e-05
4.69876e-05
4.65634e-05
5.72933e-05
4.55035e-05
2.15295e-05
2.15317e-05
2.15289e-05
2.15311e-05
4.54818e-05
2.40311e-05
2.40314e-05
2.02454e-05
4.90558e-05
4.67339e-05
4.66424e-05
2.02478e-05
3.71404e-05
4.03271e-05
4.05219e-05
4.19344e-05
4.04655e-05
4.19349e-05
3.71247e-05
2.02882e-05
4.91234e-05
4.77071e-05
4.76723e-05
2.02884e-05
3.71237e-05
4.03861e-05
4.19343e-05
4.13282e-05
4.19346e-05
4.13303e-05
3.71235e-05
3.71181e-05
4.04986e-05
4.19327e-05
4.01455e-05
3.71294e-05
4.04017e-05
4.19322e-05
2.02525e-05
4.90595e-05
4.69646e-05
4.69765e-05
2.02529e-05
2.02529e-05
4.69441e-05
4.90585e-05
2.02511e-05
4.70575e-05
3.71147e-05
4.01482e-05
4.02039e-05
4.19324e-05
4.02136e-05
4.19324e-05
3.71082e-05
3.71254e-05
4.19334e-05
4.05681e-05
4.03516e-05
3.71278e-05
4.19331e-05
4.05376e-05
2.0239e-05
4.90523e-05
4.63474e-05
4.6423e-05
2.02387e-05
2.02399e-05
4.65686e-05
4.90531e-05
2.02392e-05
4.64e-05
3.71123e-05
4.03474e-05
4.19333e-05
4.04657e-05
4.19335e-05
4.05459e-05
3.71299e-05
2.40476e-05
4.69979e-05
5.73181e-05
4.21061e-05
4.65786e-05
5.73126e-05
4.65793e-05
4.70118e-05
4.69822e-05
5.72789e-05
4.1338e-05
4.65646e-05
4.65649e-05
5.72601e-05
4.69962e-05
4.58928e-05
2.15345e-05
2.15361e-05
2.15322e-05
2.15338e-05
4.59184e-05
2.40301e-05
3.71411e-05
4.05795e-05
4.19331e-05
4.01135e-05
3.71183e-05
4.06081e-05
4.19332e-05
2.02457e-05
4.90475e-05
4.66545e-05
4.65677e-05
2.02472e-05
2.0247e-05
4.67849e-05
3.71488e-05
4.01292e-05
4.06674e-05
4.1933e-05
4.04951e-05
4.19338e-05
3.71379e-05
3.71169e-05
4.10968e-05
4.19331e-05
4.03373e-05
3.71171e-05
4.10952e-05
4.19329e-05
2.02445e-05
4.90537e-05
4.64815e-05
4.63317e-05
2.02448e-05
2.02473e-05
4.64858e-05
4.90558e-05
2.02475e-05
4.64955e-05
3.71168e-05
4.03303e-05
4.10811e-05
4.19329e-05
4.10842e-05
4.19331e-05
3.71165e-05
4.55012e-05
2.15305e-05
2.15279e-05
4.54258e-05
2.15311e-05
2.15285e-05
4.69576e-05
5.72507e-05
4.121e-05
4.65627e-05
5.72423e-05
4.65659e-05
4.69637e-05
4.69664e-05
5.72059e-05
4.12588e-05
4.65551e-05
5.72e-05
4.65567e-05
4.69719e-05
4.69653e-05
4.65787e-05
5.72469e-05
4.12492e-05
4.69654e-05
5.72575e-05
4.65693e-05
4.69749e-05
4.6558e-05
5.72066e-05
4.12475e-05
4.6976e-05
5.72157e-05
4.65566e-05
4.55266e-05
2.15302e-05
2.15278e-05
2.15295e-05
2.1527e-05
4.55318e-05
2.40293e-05
2.40304e-05
2.40315e-05
2.40318e-05
6.5651e-05
0.000130744
9.72427e-05
9.75712e-05
9.71346e-05
9.75459e-05
6.56723e-05
6.57465e-05
0.000131064
9.77509e-05
9.79223e-05
9.80134e-05
9.77673e-05
6.57786e-05
6.56568e-05
0.000131218
9.74839e-05
9.77238e-05
9.75449e-05
9.74612e-05
6.56865e-05
6.56143e-05
0.000131236
9.72863e-05
9.74647e-05
9.72248e-05
9.76999e-05
6.56382e-05
0.000211864
0.000211946
0.000211944
0.000221083
0.000221074
0.000198469
0.0002119
0.00021189
0.000211936
0.000211931
0.000221091
0.000221069
0.000211883
0.000211833
0.000211912
0.000221079
0.000221066
0.000198453
0.00021191
0.000211911
0.000211912
0.000211932
0.000221082
0.000221067
0.000111985
6.37741e-05
0.000119888
6.98518e-05
0.000111827
6.37581e-05
0.000119498
9.46164e-05
7.65849e-05
4.65695e-05
5.25605e-05
7.65246e-05
5.25474e-05
9.47438e-05
0.000111832
6.98671e-05
6.3792e-05
0.000119723
6.37744e-05
0.000119741
0.000112349
0.000112153
6.38512e-05
0.000119872
6.98818e-05
0.000112128
6.39003e-05
0.000119482
9.4795e-05
7.66529e-05
4.65738e-05
5.2506e-05
5.24895e-05
7.68041e-05
9.49077e-05
9.49041e-05
5.24834e-05
7.67273e-05
4.65776e-05
9.48089e-05
5.25039e-05
7.67706e-05
0.000112327
6.99776e-05
6.38889e-05
0.000119398
6.38901e-05
0.000119418
0.000112113
6.57634e-05
0.000131278
9.77979e-05
9.77865e-05
9.78939e-05
6.57363e-05
9.79076e-05
9.4947e-05
7.6721e-05
4.65642e-05
5.25222e-05
7.68565e-05
5.25086e-05
9.47871e-05
0.000111975
6.9819e-05
6.38044e-05
0.000119637
6.38282e-05
0.000119376
0.000112096
9.42301e-05
7.67791e-05
4.66765e-05
5.25843e-05
5.25729e-05
7.69285e-05
9.45551e-05
0.000111932
6.98332e-05
0.000120465
6.37393e-05
0.000119717
6.37318e-05
0.000112133
0.000112414
6.3726e-05
0.000119457
6.99021e-05
0.000111891
6.37757e-05
0.00011956
9.47133e-05
7.66807e-05
4.65541e-05
5.25381e-05
7.66243e-05
5.253e-05
9.49834e-05
9.47445e-05
5.25285e-05
7.66474e-05
4.65608e-05
9.4688e-05
7.66506e-05
5.25456e-05
0.000112007
7.00151e-05
6.37598e-05
0.000119882
6.38071e-05
0.000119384
0.000112084
0.000112198
0.000119646
6.36737e-05
6.99096e-05
0.000111659
0.000119709
6.37189e-05
9.45885e-05
7.66164e-05
4.65358e-05
5.24339e-05
5.2424e-05
7.65751e-05
9.45906e-05
9.46979e-05
5.2425e-05
7.66626e-05
4.65449e-05
9.46651e-05
5.24398e-05
7.6625e-05
0.000112637
6.98768e-05
0.000119651
6.37274e-05
0.000119979
6.37116e-05
0.000112443
0.000112088
0.000118723
6.37247e-05
6.96434e-05
0.000111671
0.000119478
6.38279e-05
9.46767e-05
7.68825e-05
4.65604e-05
5.25137e-05
7.66672e-05
5.2501e-05
9.44667e-05
9.45736e-05
5.25154e-05
0.000111906
6.96892e-05
0.000119732
6.38107e-05
0.000119386
6.37975e-05
0.000112225
0.000112544
0.000119844
6.3804e-05
6.97946e-05
0.000112232
0.00011947
6.3848e-05
9.4773e-05
7.64229e-05
4.65678e-05
5.25127e-05
5.25124e-05
7.64161e-05
9.45346e-05
9.47366e-05
5.25266e-05
7.6658e-05
4.65792e-05
9.46183e-05
5.25331e-05
7.65166e-05
0.000111923
6.98594e-05
0.000119222
6.37962e-05
0.000119258
6.38594e-05
0.000112143
6.56424e-05
0.000131683
9.75515e-05
9.73879e-05
6.56345e-05
9.72637e-05
9.75484e-05
0.000198517
0.00015807
0.000158027
0.000130675
0.000131681
0.000158018
0.000157999
0.000131819
0.000158001
0.000157956
0.000158069
0.000157999
0.000131558
0.000158024
0.000157974
0.000131939
0.000131301
0.000132115
0.000158097
0.000158011
0.000158079
0.000158065
0.000131181
0.000131147
0.00015804
0.000157963
0.000158042
0.000157956
0.000158008
0.000158062
0.000157998
0.000131761
0.000131309
0.000157993
0.000158012
0.000158021
0.000130766
0.000198514
0.000198478
0.000198457
0.000198486
4.04309e-05
4.90574e-05
4.04196e-05
4.90555e-05
2.40298e-05
2.40311e-05
4.0363e-05
4.90513e-05
4.0364e-05
4.90497e-05
0.000198495
0.00019846
0.000198485
0.000198488
0.000198506
0.000198501
0.000198498
6.97823e-05
4.65805e-05
0.000180692
0.000158077
6.98004e-05
4.65913e-05
0.000180675
2.40472e-05
2.40474e-05
6.98867e-05
0.00018067
4.65476e-05
0.000158019
6.99109e-05
0.000180664
4.65575e-05
4.14361e-05
4.14518e-05
0.00013107
4.14813e-05
4.12645e-05
2.40321e-05
2.4032e-05
2.40296e-05
2.40299e-05
0.000131137
4.14083e-05
4.1241e-05
4.13276e-05
4.13528e-05
4.04147e-05
4.9056e-05
4.90548e-05
4.04227e-05
4.03965e-05
4.90513e-05
4.90558e-05
4.04012e-05
6.97565e-05
0.00015801
4.65675e-05
0.000180747
4.65649e-05
0.000180744
7.00594e-05
6.97035e-05
0.000157999
4.65757e-05
0.000180726
4.65718e-05
0.000180688
6.98442e-05
2.40306e-05
2.40306e-05
0.000131115
4.12837e-05
4.1321e-05
4.13968e-05
4.121e-05
2.40314e-05
2.40313e-05
4.03783e-05
4.90507e-05
4.90518e-05
4.03727e-05
7.00405e-05
0.000157996
4.65466e-05
0.000180698
4.65494e-05
0.000180705
7.00445e-05
4.02471e-05
4.90781e-05
4.9079e-05
4.01911e-05
6.98926e-05
0.000157951
0.000180673
4.6673e-05
0.000180684
4.66732e-05
6.99256e-05
6.99746e-05
0.000158062
4.65869e-05
0.000180716
4.65804e-05
0.000180711
6.9808e-05
4.03429e-05
4.9046e-05
4.90446e-05
4.03491e-05
6.99074e-05
0.000158002
0.000180659
4.65962e-05
0.000180697
4.65962e-05
6.99127e-05
4.02692e-05
4.90702e-05
4.90801e-05
4.03482e-05
2.40478e-05
2.4047e-05
0.00013122
4.21537e-05
4.11433e-05
4.22062e-05
4.11517e-05
2.40316e-05
2.40328e-05
6.96021e-05
0.000158013
0.000180669
4.65551e-05
0.000180683
4.65544e-05
6.99586e-05
6.98505e-05
0.000157991
0.000180688
4.66045e-05
0.000180697
4.66047e-05
6.99522e-05
4.02676e-05
4.90557e-05
4.90696e-05
4.02648e-05
4.02792e-05
4.90709e-05
4.90793e-05
4.02872e-05
0.000132094
4.15116e-05
4.14469e-05
4.15241e-05
4.14585e-05
2.40368e-05
2.40369e-05
2.40369e-05
2.40354e-05
2.40315e-05
2.40323e-05
2.40293e-05
2.40284e-05
4.14392e-05
4.12422e-05
0.000131659
4.12736e-05
4.12849e-05
2.4033e-05
2.4032e-05
2.40306e-05
2.40284e-05
0.000131543
4.13687e-05
4.13834e-05
4.13068e-05
4.13697e-05
4.04021e-05
4.90594e-05
4.03991e-05
4.90541e-05
7.00083e-05
4.65649e-05
0.000180723
0.000158076
7.01748e-05
4.65668e-05
0.000180738
6.98344e-05
4.65742e-05
0.000180751
0.000158029
6.98837e-05
4.65914e-05
0.00018075
4.04303e-05
4.90546e-05
4.90557e-05
4.04382e-05
4.03999e-05
4.90538e-05
4.90545e-05
4.04022e-05
6.99741e-05
0.000158079
4.65715e-05
0.000180747
4.65643e-05
0.000180741
7.0034e-05
6.99016e-05
0.000158048
4.66156e-05
0.000180784
4.65963e-05
0.000180762
7.00265e-05
4.12552e-05
4.13645e-05
0.000131179
4.13005e-05
4.14224e-05
2.40311e-05
2.40323e-05
2.40339e-05
2.40314e-05
0.000130929
4.14718e-05
4.1459e-05
4.14969e-05
4.14519e-05
2.40323e-05
2.40319e-05
6.98904e-05
4.65418e-05
0.000180722
0.000158023
7.00233e-05
4.65478e-05
0.000180734
4.00705e-05
4.90757e-05
4.01907e-05
4.90821e-05
6.97243e-05
0.000180672
4.66695e-05
0.000157953
6.98625e-05
0.000180671
4.66704e-05
4.03605e-05
4.90514e-05
4.905e-05
4.03618e-05
6.98756e-05
0.000158022
4.65564e-05
0.000180724
4.65475e-05
0.000180728
6.98199e-05
4.01084e-05
4.90851e-05
4.90846e-05
4.00332e-05
6.97412e-05
0.000157973
0.000180712
4.66528e-05
0.000180707
4.66634e-05
6.97499e-05
4.03557e-05
4.90474e-05
4.03481e-05
4.90489e-05
6.99974e-05
0.000180783
4.65913e-05
0.000158001
6.99647e-05
0.000180744
4.65933e-05
4.03704e-05
4.90654e-05
4.03536e-05
4.9066e-05
6.98708e-05
0.00015807
4.65941e-05
0.000180678
4.65897e-05
0.000180675
6.97207e-05
4.03557e-05
4.9054e-05
4.90519e-05
4.03597e-05
6.98604e-05
0.000158
0.000180711
4.65939e-05
0.000180726
4.65913e-05
6.99639e-05
4.03712e-05
4.9056e-05
4.90646e-05
4.03753e-05
4.21492e-05
4.117e-05
0.000131317
4.19946e-05
4.13085e-05
2.40307e-05
2.40314e-05
2.40448e-05
2.40462e-05
0.000131025
4.17495e-05
4.12929e-05
4.17481e-05
4.12164e-05
2.40301e-05
2.40303e-05
7.00607e-05
0.000180694
4.66e-05
0.000157998
6.99375e-05
0.000180709
4.65957e-05
4.02606e-05
4.90517e-05
4.02619e-05
4.90554e-05
4.02888e-05
4.9075e-05
4.02855e-05
4.90707e-05
6.98558e-05
0.000158016
0.000180656
4.65559e-05
0.000180666
4.65546e-05
6.98675e-05
6.99598e-05
0.000158016
0.000180758
4.65959e-05
0.000180733
4.65918e-05
6.99799e-05
4.02587e-05
4.90546e-05
4.90612e-05
4.01439e-05
4.02868e-05
4.90536e-05
4.90622e-05
4.02859e-05
2.40363e-05
2.40355e-05
2.40357e-05
2.40343e-05
0.000130498
4.16129e-05
4.14451e-05
4.14983e-05
4.13071e-05
2.4035e-05
2.40351e-05
2.40328e-05
2.40336e-05
3.71161e-05
4.04253e-05
4.19502e-05
4.11239e-05
4.19715e-05
4.11237e-05
3.71163e-05
2.02501e-05
4.68982e-05
4.90574e-05
2.02483e-05
4.69246e-05
3.71158e-05
4.04292e-05
4.19651e-05
4.11192e-05
3.71158e-05
4.19516e-05
4.11279e-05
2.02491e-05
4.64699e-05
4.9058e-05
4.67246e-05
2.0249e-05
2.40306e-05
2.40313e-05
3.7143e-05
4.03605e-05
4.03299e-05
4.19353e-05
4.02689e-05
4.19356e-05
3.71479e-05
2.02486e-05
4.65489e-05
4.90504e-05
2.02478e-05
4.6647e-05
3.71373e-05
4.0368e-05
4.01878e-05
4.19354e-05
3.71166e-05
4.01036e-05
4.19353e-05
2.02479e-05
4.65715e-05
4.90514e-05
4.66413e-05
2.02481e-05
2.40479e-05
2.40472e-05
4.56922e-05
2.15369e-05
2.15343e-05
2.15343e-05
2.15318e-05
4.59386e-05
4.70431e-05
5.73042e-05
4.65711e-05
4.14579e-05
4.70375e-05
5.73233e-05
4.65698e-05
4.70588e-05
5.72657e-05
4.65613e-05
4.1314e-05
4.70531e-05
5.72874e-05
4.65599e-05
4.59192e-05
2.15337e-05
2.15312e-05
4.58368e-05
2.15357e-05
2.15331e-05
4.70613e-05
4.6569e-05
4.14392e-05
5.73285e-05
5.73135e-05
4.65696e-05
4.70673e-05
4.70771e-05
4.6559e-05
4.13899e-05
5.72882e-05
5.7279e-05
4.65602e-05
4.70831e-05
2.40314e-05
2.40323e-05
2.40296e-05
2.40302e-05
4.54778e-05
2.15301e-05
2.15266e-05
4.53779e-05
2.1531e-05
2.15275e-05
4.70014e-05
5.72758e-05
4.13523e-05
4.65661e-05
4.65667e-05
5.72714e-05
4.70307e-05
4.70127e-05
5.72467e-05
4.13358e-05
4.65568e-05
4.65606e-05
5.72445e-05
4.70418e-05
4.70105e-05
4.65685e-05
5.72846e-05
4.12996e-05
4.70124e-05
4.65675e-05
5.72884e-05
4.70218e-05
4.65827e-05
5.72619e-05
4.13452e-05
4.70238e-05
4.6565e-05
5.72642e-05
4.52651e-05
2.15313e-05
2.15276e-05
2.1529e-05
2.15254e-05
4.55947e-05
3.7115e-05
4.19347e-05
4.11175e-05
4.04202e-05
3.71151e-05
4.19345e-05
4.11196e-05
2.02469e-05
4.90554e-05
4.68644e-05
2.02488e-05
4.68138e-05
2.02469e-05
4.6584e-05
4.90537e-05
2.02456e-05
4.6634e-05
3.71153e-05
4.04165e-05
4.19327e-05
4.11209e-05
3.71152e-05
4.19452e-05
4.11171e-05
3.71221e-05
4.19351e-05
4.10961e-05
4.04014e-05
3.71305e-05
4.19348e-05
4.10954e-05
2.0241e-05
4.90515e-05
4.66635e-05
4.64798e-05
2.0242e-05
2.02433e-05
4.66441e-05
4.90543e-05
2.02427e-05
4.66424e-05
3.71453e-05
4.03961e-05
4.19351e-05
4.10916e-05
4.19353e-05
4.10894e-05
3.7148e-05
2.403e-05
2.40308e-05
4.56086e-05
2.15278e-05
2.15295e-05
4.55888e-05
2.15298e-05
2.15315e-05
4.7033e-05
5.73375e-05
4.124e-05
4.65676e-05
5.73297e-05
4.65824e-05
4.70644e-05
4.70273e-05
5.73283e-05
4.13153e-05
4.65632e-05
4.65628e-05
5.7317e-05
4.70584e-05
4.70361e-05
4.65599e-05
5.73265e-05
4.13539e-05
5.73408e-05
4.70314e-05
4.65585e-05
4.70304e-05
4.65643e-05
5.73179e-05
4.11532e-05
4.7026e-05
4.65623e-05
5.73266e-05
4.55942e-05
2.1531e-05
2.15327e-05
2.15297e-05
2.15313e-05
4.56854e-05
2.40304e-05
2.40308e-05
3.71173e-05
4.05986e-05
4.19354e-05
4.03805e-05
3.71279e-05
4.044e-05
4.19351e-05
2.02481e-05
4.90521e-05
4.65105e-05
2.02486e-05
4.66108e-05
2.02487e-05
4.65972e-05
4.90514e-05
2.02472e-05
4.67794e-05
3.71424e-05
4.03721e-05
4.01964e-05
4.19352e-05
3.71248e-05
4.03257e-05
4.19355e-05
3.71184e-05
4.19353e-05
4.09319e-05
4.01406e-05
3.71182e-05
4.19348e-05
4.08892e-05
2.02632e-05
4.90756e-05
4.68366e-05
4.68998e-05
2.02633e-05
2.02651e-05
4.69315e-05
4.9079e-05
2.02636e-05
4.69541e-05
3.71184e-05
4.01801e-05
4.1935e-05
4.09324e-05
4.19352e-05
4.08578e-05
3.7116e-05
3.71265e-05
4.01815e-05
4.19345e-05
4.03471e-05
3.71198e-05
4.01234e-05
4.19342e-05
2.02425e-05
4.90453e-05
4.65932e-05
4.64915e-05
2.02442e-05
2.02436e-05
4.66128e-05
4.90447e-05
2.0242e-05
4.65662e-05
3.71151e-05
4.03429e-05
4.039e-05
4.19341e-05
4.03355e-05
4.19344e-05
3.71196e-05
3.71476e-05
4.19341e-05
4.04154e-05
4.03102e-05
3.71224e-05
4.19343e-05
4.03185e-05
2.02532e-05
4.90821e-05
4.67939e-05
4.67641e-05
2.02529e-05
2.02556e-05
4.68904e-05
4.90686e-05
2.02566e-05
4.66839e-05
3.71313e-05
4.03286e-05
4.19449e-05
4.04278e-05
4.19345e-05
4.04731e-05
3.71504e-05
2.40471e-05
2.40475e-05
4.56915e-05
2.15371e-05
2.15387e-05
4.58752e-05
2.15381e-05
2.15397e-05
4.70557e-05
5.7306e-05
4.2205e-05
4.65858e-05
5.73033e-05
4.65857e-05
4.70765e-05
4.70381e-05
5.72564e-05
4.11791e-05
4.65661e-05
4.6568e-05
5.72496e-05
4.70592e-05
4.70645e-05
4.65854e-05
5.73142e-05
4.22087e-05
5.73196e-05
4.70689e-05
4.65853e-05
4.70467e-05
4.65688e-05
5.72595e-05
4.12211e-05
4.70507e-05
4.65682e-05
5.72653e-05
4.57479e-05
2.15371e-05
2.15387e-05
2.15371e-05
2.15387e-05
4.5557e-05
2.40321e-05
2.40329e-05
3.71189e-05
4.04216e-05
4.19335e-05
4.02702e-05
3.71275e-05
4.0423e-05
4.19333e-05
2.02477e-05
4.90702e-05
4.63345e-05
4.6401e-05
2.02463e-05
2.02506e-05
4.65235e-05
4.90567e-05
2.02506e-05
4.63429e-05
3.71468e-05
4.02623e-05
4.0177e-05
4.19335e-05
4.03316e-05
4.19338e-05
3.71289e-05
3.71412e-05
4.03271e-05
4.19337e-05
4.02847e-05
3.71218e-05
4.02433e-05
4.19337e-05
2.02497e-05
4.9061e-05
4.66671e-05
4.66296e-05
2.02486e-05
2.02513e-05
4.662e-05
4.90638e-05
2.0253e-05
4.65321e-05
3.7128e-05
4.02813e-05
4.04746e-05
4.19337e-05
4.0433e-05
4.19339e-05
3.71226e-05
4.54674e-05
2.15348e-05
2.15322e-05
4.56405e-05
2.15342e-05
2.15316e-05
4.70109e-05
5.73161e-05
4.15043e-05
4.65709e-05
4.70402e-05
5.73074e-05
4.65718e-05
4.70267e-05
5.72762e-05
4.14825e-05
4.65614e-05
4.70558e-05
5.72673e-05
4.65616e-05
4.70159e-05
4.65723e-05
5.73173e-05
4.15038e-05
4.70189e-05
5.73231e-05
4.65719e-05
4.7032e-05
4.65609e-05
5.72744e-05
4.14701e-05
4.70356e-05
5.72807e-05
4.65611e-05
4.57035e-05
2.15344e-05
2.15319e-05
4.5717e-05
2.15331e-05
2.15306e-05
2.40366e-05
2.40373e-05
2.40359e-05
2.40362e-05
2.40324e-05
2.40321e-05
2.40288e-05
2.40283e-05
4.55845e-05
2.15348e-05
2.15311e-05
2.15331e-05
2.15293e-05
4.57937e-05
4.70304e-05
5.72714e-05
4.65661e-05
4.14783e-05
4.7027e-05
4.65662e-05
5.72746e-05
4.70411e-05
5.72397e-05
4.65548e-05
4.12252e-05
4.7038e-05
4.6552e-05
5.72096e-05
4.56927e-05
2.15313e-05
2.15276e-05
4.55974e-05
2.15334e-05
2.15297e-05
4.70453e-05
4.65658e-05
4.14215e-05
5.72548e-05
4.65668e-05
4.70495e-05
5.72546e-05
4.70556e-05
4.65508e-05
4.13238e-05
5.71821e-05
4.65519e-05
4.70597e-05
5.71494e-05
2.4032e-05
2.40322e-05
2.40294e-05
2.40296e-05
4.56371e-05
2.15351e-05
2.15313e-05
4.57571e-05
2.15371e-05
2.15339e-05
4.70331e-05
5.73774e-05
4.14247e-05
4.65698e-05
4.65773e-05
5.72431e-05
4.68761e-05
4.70466e-05
5.7238e-05
4.14099e-05
4.6558e-05
4.65552e-05
5.7212e-05
4.70532e-05
4.70435e-05
4.65611e-05
5.72492e-05
4.13924e-05
4.70446e-05
4.65665e-05
5.72566e-05
4.70546e-05
4.6552e-05
5.71926e-05
4.13727e-05
4.70555e-05
4.65533e-05
5.71619e-05
4.5663e-05
2.15372e-05
2.15347e-05
2.15362e-05
2.15335e-05
4.57173e-05
3.71341e-05
4.03987e-05
4.1931e-05
4.10931e-05
4.19355e-05
4.10903e-05
3.71205e-05
2.0242e-05
4.65931e-05
4.9053e-05
2.02409e-05
4.65712e-05
3.71307e-05
4.04041e-05
4.19355e-05
4.1092e-05
4.19352e-05
3.71545e-05
4.10936e-05
2.02401e-05
4.6473e-05
4.90633e-05
4.65362e-05
2.02404e-05
3.71371e-05
4.19434e-05
4.1125e-05
4.04364e-05
3.7123e-05
4.19737e-05
4.11278e-05
2.0248e-05
4.90554e-05
4.65875e-05
4.67284e-05
2.02489e-05
2.02484e-05
4.65339e-05
4.90542e-05
2.02479e-05
4.66503e-05
3.71344e-05
4.04327e-05
4.19636e-05
4.11259e-05
4.19955e-05
4.11254e-05
3.71233e-05
3.71202e-05
4.19605e-05
4.10984e-05
4.04035e-05
3.71218e-05
4.19507e-05
4.11031e-05
2.02425e-05
4.90535e-05
4.68592e-05
4.68276e-05
2.0245e-05
2.0242e-05
4.67086e-05
4.90523e-05
2.02407e-05
4.66293e-05
3.71179e-05
4.03976e-05
4.19591e-05
4.11083e-05
4.19797e-05
4.11032e-05
3.71293e-05
4.57769e-05
2.1533e-05
2.1535e-05
2.15314e-05
2.15334e-05
4.5655e-05
4.70668e-05
5.73355e-05
4.65606e-05
4.13569e-05
4.6559e-05
4.70625e-05
5.73477e-05
4.70614e-05
5.73321e-05
4.65638e-05
4.13944e-05
5.73459e-05
4.70572e-05
4.65639e-05
4.57157e-05
2.15305e-05
2.15324e-05
2.15321e-05
4.57222e-05
2.1534e-05
4.70855e-05
4.65568e-05
4.13687e-05
5.73483e-05
4.65589e-05
5.73386e-05
4.70879e-05
4.70806e-05
4.6565e-05
4.14101e-05
5.73522e-05
5.73378e-05
4.65649e-05
4.70829e-05
2.40318e-05
2.40316e-05
2.40328e-05
2.40327e-05
4.56374e-05
2.15324e-05
2.15344e-05
4.56018e-05
2.15338e-05
2.15359e-05
4.70755e-05
5.73886e-05
4.14737e-05
4.65588e-05
5.7375e-05
4.65584e-05
4.70775e-05
4.70702e-05
5.73603e-05
4.14278e-05
4.6566e-05
4.6566e-05
5.73526e-05
4.70714e-05
4.7083e-05
4.65574e-05
5.73577e-05
4.16258e-05
5.7377e-05
4.70818e-05
4.65579e-05
4.70778e-05
4.65658e-05
5.73534e-05
4.15446e-05
4.70771e-05
4.65658e-05
5.73653e-05
4.56253e-05
2.15333e-05
2.15353e-05
2.15325e-05
2.15345e-05
4.563e-05
2.40316e-05
2.40323e-05
3.71394e-05
4.01805e-05
4.1935e-05
4.0548e-05
4.19354e-05
4.05502e-05
3.71245e-05
2.02657e-05
4.7123e-05
4.90812e-05
2.02632e-05
4.71465e-05
3.71214e-05
4.01912e-05
4.19353e-05
4.06975e-05
4.19351e-05
3.71186e-05
4.05769e-05
2.02654e-05
4.72757e-05
4.9082e-05
4.72187e-05
2.02673e-05
3.71392e-05
4.03525e-05
4.19354e-05
4.03643e-05
3.71449e-05
4.04415e-05
4.19351e-05
2.02474e-05
4.90511e-05
4.67452e-05
4.68149e-05
2.02488e-05
2.02473e-05
4.65961e-05
4.90488e-05
2.02468e-05
4.65417e-05
3.71526e-05
4.03583e-05
4.03623e-05
4.19349e-05
4.04582e-05
4.19354e-05
3.71268e-05
3.71329e-05
4.19354e-05
4.05003e-05
4.00759e-05
3.71518e-05
4.19355e-05
4.03629e-05
2.02668e-05
4.90801e-05
4.73466e-05
4.71417e-05
2.02694e-05
2.02681e-05
4.72591e-05
4.90839e-05
2.02672e-05
4.71778e-05
3.71269e-05
4.00588e-05
4.19355e-05
4.05016e-05
4.19356e-05
4.04826e-05
3.71207e-05
3.71142e-05
4.03493e-05
4.05274e-05
4.19342e-05
4.04479e-05
4.19344e-05
3.71245e-05
2.02455e-05
4.66482e-05
4.90479e-05
4.66889e-05
2.02438e-05
3.71192e-05
4.03535e-05
4.03552e-05
4.19346e-05
4.02753e-05
3.71334e-05
4.19342e-05
2.02443e-05
4.67618e-05
4.90563e-05
4.67362e-05
2.02452e-05
3.71212e-05
4.03622e-05
4.19435e-05
4.05855e-05
4.19355e-05
4.05407e-05
3.71285e-05
2.02502e-05
4.67232e-05
4.90762e-05
2.02511e-05
4.6749e-05
3.7132e-05
4.03644e-05
4.1976e-05
4.0322e-05
3.71309e-05
4.19497e-05
4.04987e-05
2.0248e-05
4.66928e-05
4.90705e-05
4.67572e-05
2.02482e-05
3.71211e-05
4.04704e-05
4.19346e-05
4.03596e-05
3.71153e-05
4.0329e-05
4.19356e-05
2.0248e-05
4.90529e-05
4.70575e-05
4.69866e-05
2.02496e-05
2.02484e-05
4.69375e-05
4.90527e-05
2.02458e-05
4.7004e-05
3.71228e-05
4.03549e-05
4.04758e-05
4.19513e-05
4.04839e-05
4.19712e-05
3.71356e-05
3.71252e-05
4.1966e-05
4.05639e-05
4.03758e-05
3.71199e-05
4.19484e-05
4.0419e-05
2.02458e-05
4.90614e-05
4.67313e-05
4.67708e-05
2.02452e-05
2.02469e-05
4.67442e-05
4.90621e-05
2.02461e-05
4.68084e-05
3.71226e-05
4.03704e-05
4.19443e-05
4.05034e-05
4.19357e-05
4.05083e-05
3.71373e-05
4.56494e-05
2.15365e-05
2.15378e-05
2.15356e-05
2.15371e-05
4.58034e-05
4.70685e-05
5.73008e-05
4.65861e-05
4.21368e-05
4.65828e-05
4.70705e-05
5.73068e-05
4.70522e-05
5.72555e-05
4.65659e-05
4.11666e-05
5.72646e-05
4.70535e-05
4.6565e-05
4.56001e-05
2.15361e-05
2.15377e-05
2.15367e-05
4.5751e-05
2.15383e-05
4.70814e-05
4.65999e-05
4.20684e-05
5.72906e-05
4.65795e-05
5.72873e-05
4.70839e-05
4.70658e-05
4.65662e-05
4.1312e-05
5.72692e-05
5.72555e-05
4.6566e-05
4.70688e-05
2.40308e-05
2.40306e-05
2.40454e-05
2.40456e-05
4.59659e-05
2.15357e-05
2.1537e-05
4.59347e-05
2.15371e-05
2.15385e-05
4.70728e-05
5.72562e-05
4.17463e-05
4.65795e-05
5.72582e-05
4.65817e-05
4.70788e-05
4.67074e-05
5.7267e-05
4.13803e-05
4.6565e-05
4.6566e-05
5.72645e-05
4.66372e-05
4.70819e-05
4.65914e-05
5.72828e-05
4.17514e-05
5.7278e-05
4.70796e-05
4.65845e-05
4.70768e-05
4.65657e-05
5.72683e-05
4.13563e-05
4.70651e-05
4.65651e-05
5.72814e-05
4.57167e-05
2.15376e-05
2.1539e-05
2.15358e-05
2.15372e-05
4.59372e-05
2.40301e-05
2.40305e-05
3.71163e-05
4.02581e-05
4.01557e-05
4.19322e-05
4.02727e-05
4.19299e-05
3.71189e-05
2.02455e-05
4.66079e-05
4.90624e-05
4.65039e-05
2.02451e-05
3.71175e-05
4.02651e-05
4.03511e-05
4.19337e-05
4.02292e-05
3.71143e-05
4.19333e-05
2.02449e-05
4.66911e-05
4.90604e-05
4.66664e-05
2.02462e-05
3.71192e-05
4.02847e-05
4.04439e-05
4.19411e-05
4.04646e-05
4.19545e-05
3.71203e-05
2.02455e-05
4.64789e-05
4.90606e-05
2.02453e-05
4.656e-05
3.71281e-05
4.02903e-05
4.05035e-05
4.19339e-05
3.71167e-05
4.04651e-05
4.19338e-05
2.02433e-05
4.66542e-05
4.90678e-05
4.64492e-05
2.02445e-05
3.71279e-05
4.03455e-05
4.19219e-05
4.02613e-05
3.7116e-05
4.03487e-05
4.19324e-05
2.02447e-05
4.90487e-05
4.65881e-05
4.6476e-05
2.02452e-05
2.02464e-05
4.67705e-05
4.90524e-05
2.02451e-05
4.67647e-05
3.71224e-05
4.02517e-05
4.0143e-05
4.19376e-05
4.02825e-05
4.1932e-05
3.7121e-05
3.71411e-05
4.04461e-05
4.19456e-05
4.02902e-05
3.71159e-05
4.04449e-05
4.19736e-05
2.02428e-05
4.90608e-05
4.65479e-05
4.65682e-05
2.02426e-05
2.02436e-05
4.65877e-05
4.90641e-05
2.02433e-05
4.64628e-05
3.71493e-05
4.02838e-05
4.03082e-05
4.19419e-05
4.03718e-05
4.1954e-05
3.71491e-05
2.40362e-05
2.40353e-05
2.40351e-05
2.40346e-05
4.60018e-05
2.15372e-05
2.15346e-05
4.60005e-05
2.1539e-05
2.15364e-05
4.7064e-05
5.73558e-05
4.15458e-05
4.65696e-05
5.73436e-05
4.65698e-05
4.70643e-05
4.70799e-05
5.72973e-05
4.1261e-05
4.65582e-05
5.72873e-05
4.6558e-05
4.708e-05
4.70706e-05
4.65696e-05
5.73347e-05
4.15245e-05
4.7066e-05
5.73504e-05
4.65697e-05
4.70864e-05
4.65594e-05
5.72892e-05
4.13496e-05
4.70819e-05
5.72992e-05
4.65589e-05
4.58262e-05
2.15386e-05
2.1536e-05
2.15386e-05
2.15359e-05
4.55525e-05
2.40348e-05
2.40357e-05
2.40323e-05
2.40337e-05
0.000211972
0.000211981
0.000198486
0.000211947
0.000211967
0.000221105
0.000221107
6.57543e-05
9.75133e-05
9.72723e-05
0.000130569
6.57199e-05
9.7353e-05
9.75239e-05
6.5629e-05
0.00013106
9.76079e-05
9.7747e-05
9.75335e-05
9.74758e-05
6.56741e-05
6.58031e-05
0.00013124
9.77221e-05
9.74541e-05
9.80288e-05
9.74485e-05
6.58465e-05
6.57162e-05
0.000131312
9.77429e-05
9.74572e-05
9.79205e-05
9.76031e-05
6.5762e-05
6.56695e-05
0.000131243
9.73832e-05
9.7378e-05
6.57159e-05
9.72959e-05
9.73849e-05
6.56597e-05
9.76815e-05
9.74215e-05
0.00013187
6.56458e-05
9.74213e-05
9.74103e-05
6.56547e-05
0.000131587
9.78395e-05
9.76854e-05
9.75315e-05
9.75979e-05
6.56816e-05
6.58422e-05
9.75686e-05
9.76198e-05
0.000131246
9.77149e-05
6.58216e-05
9.7648e-05
6.58495e-05
0.000130835
9.76833e-05
9.78046e-05
9.79683e-05
9.78598e-05
6.58621e-05
6.57642e-05
9.7686e-05
9.7366e-05
0.000131537
9.73677e-05
6.5744e-05
9.78925e-05
6.57761e-05
0.000131495
9.73305e-05
9.75912e-05
9.75725e-05
9.74193e-05
6.57888e-05
6.58103e-05
0.00013091
9.75242e-05
9.74702e-05
9.77905e-05
9.74949e-05
6.58329e-05
0.000198495
0.000211973
0.000211969
0.000211961
0.000211953
0.000221083
0.000221102
0.000198472
0.000211937
0.000211947
0.000211931
0.000211992
0.000221201
0.000221099
0.000198459
0.000211938
0.000211903
0.000211924
0.000211889
0.000221062
0.00022105
0.000198507
0.000211909
0.000211923
0.000211952
0.000211928
0.000221062
0.000221051
0.00021194
0.000212039
0.000198507
0.000211946
0.000212003
0.000221108
0.000221098
0.000211972
0.000211977
0.000198478
0.000211968
0.000211948
0.000221107
0.000221125
0.000211999
0.000211968
0.000198482
0.000211994
0.000211956
0.00022111
0.000221111
0.000198487
0.000211955
0.000211976
0.000211952
0.000211977
0.000221103
0.000221094
0.000198508
0.000211991
0.000211979
0.000212001
0.000211993
0.0002211
0.000221091
0.000198501
0.000212006
0.000212001
0.000211994
0.000211986
0.000221079
0.000221088
0.000198492
0.000212013
0.000212009
0.000212001
0.000211996
0.000221089
0.000221095
0.000112083
6.97138e-05
6.37745e-05
0.000119811
6.37421e-05
0.000119553
0.000112528
9.47546e-05
7.69176e-05
5.24767e-05
4.65918e-05
9.46058e-05
7.70116e-05
5.24977e-05
0.000112103
6.97683e-05
6.36949e-05
0.000119653
0.000111942
6.37467e-05
0.000119384
9.46577e-05
5.25021e-05
4.65848e-05
7.70452e-05
7.6981e-05
5.24856e-05
9.49294e-05
0.000112227
7.00094e-05
0.000119722
6.37296e-05
0.000120119
6.37101e-05
0.000112556
9.47548e-05
7.67544e-05
5.2486e-05
4.65575e-05
9.46283e-05
7.67024e-05
5.25069e-05
0.000112273
6.99482e-05
0.000119432
6.37019e-05
0.000111874
0.000119805
6.37299e-05
9.48634e-05
5.25084e-05
4.65511e-05
7.69287e-05
7.67422e-05
5.24953e-05
9.46905e-05
6.57829e-05
0.00013044
9.74483e-05
9.74801e-05
9.73578e-05
9.74903e-05
6.58111e-05
6.56566e-05
0.000131675
9.73681e-05
9.74172e-05
6.564e-05
9.74547e-05
9.74158e-05
0.000112453
6.38013e-05
0.000119605
6.97947e-05
0.00011226
6.38791e-05
0.000120036
9.46715e-05
7.67271e-05
4.65612e-05
5.25257e-05
7.67671e-05
5.2513e-05
9.47703e-05
9.48001e-05
5.25222e-05
7.66481e-05
4.65689e-05
7.66694e-05
9.499e-05
5.25281e-05
0.000112336
7.00017e-05
6.38712e-05
0.000120257
6.38617e-05
0.000120254
0.000111918
0.000112242
6.39002e-05
0.000120115
6.97828e-05
0.000112415