/*--------------------------------*- C++ -*----------------------------------*\
| =========                 |                                                 |
| \\      /  F ield         | OpenFOAM: The Open Source CFD Toolbox           |
|  \\    /   O peration     | Version:  v1906                                 |
|   \\  /    A nd           | Web:      www.OpenFOAM.com                      |
|    \\/     M anipulation  |                                                 |
\*---------------------------------------------------------------------------*/
FoamFile
{
    version     2.0;
    format      ascii;
    class       volScalarField;
    location    "450";
    object      nut;
}
// * * * * * * * * * * * * * * * * * * * * * * * * * * * * * * * * * * * * * //

dimensions      [0 2 -1 0 0 0 0];


internalField   nonuniform List<scalar> 
42840
(
0.000203424
0.000198748
0.000198739
0.000180627
0.000181558
0.000180674
0.000181464
0.000198717
0.000198717
0.000199775
0.000199775
0.00018061
0.000181549
0.000198732
0.000198706
0.00019979
0.000199763
0.000198724
0.000199806
0.000199782
0.000180667
0.000181465
0.000198739
0.000199796
0.000199796
0.000181539
0.000200126
0.000200141
9.97161e-05
5.0713e-05
5.07241e-05
9.96476e-05
2.38792e-05
2.38836e-05
9.97247e-05
5.07099e-05
5.07211e-05
9.9656e-05
0.000203431
0.000203431
0.00020344
0.000205317
0.000205323
0.000205322
0.000205331
0.000143704
0.000103351
0.000207733
0.000199105
0.000103437
0.0002082
0.00014351
2.3877e-05
2.38815e-05
0.000143703
0.000207729
0.000103351
0.000199096
0.000208197
0.000103437
0.000143488
7.78114e-05
7.78113e-05
0.000181064
7.7839e-05
7.78362e-05
7.78746e-05
7.7874e-05
2.38798e-05
2.38843e-05
2.38785e-05
2.3883e-05
7.78135e-05
7.78094e-05
0.000180989
7.78409e-05
7.78364e-05
2.38889e-05
2.38845e-05
2.38876e-05
2.38832e-05
0.000181147
7.78706e-05
7.78675e-05
7.78463e-05
7.78418e-05
9.97168e-05
5.07133e-05
5.07245e-05
9.96533e-05
0.000143706
0.000103352
0.000207718
0.000199074
0.000103437
0.000208186
0.000143491
0.000143707
0.00010335
0.000207721
0.000199075
0.000103435
0.000208189
0.000143494
9.97101e-05
5.07337e-05
5.07235e-05
9.97759e-05
9.97159e-05
5.07347e-05
5.07238e-05
9.97775e-05
0.000143708
0.000199428
0.000103516
0.000209105
0.000103434
0.00020865
0.000143913
0.000143712
0.000199428
0.000103514
0.000209107
0.000103432
0.000208652
0.000143914
7.78097e-05
7.78071e-05
0.000181072
7.78378e-05
7.7833e-05
2.38797e-05
2.38841e-05
2.38882e-05
2.38838e-05
0.000181081
7.78679e-05
7.78642e-05
7.78422e-05
7.78395e-05
2.38887e-05
2.38844e-05
0.000143708
0.000103343
0.000207723
0.000199088
0.00010343
0.000208186
0.000143493
9.97205e-05
5.07083e-05
5.07148e-05
9.96543e-05
0.000143704
0.000207718
0.000103331
0.000199063
0.000208185
0.000103416
0.000143487
9.97186e-05
5.07305e-05
5.07204e-05
9.97847e-05
0.000143711
0.000199443
0.000103508
0.000209105
0.000103425
0.000208654
0.000143917
9.97149e-05
5.07251e-05
5.07186e-05
9.97805e-05
0.000143706
0.000199416
0.000209104
0.000103494
0.000208649
0.000103413
0.000143913
9.97181e-05
5.0715e-05
5.07214e-05
9.96557e-05
0.00014371
0.000207729
0.00010335
0.000199082
0.000208197
0.000103436
0.000143496
9.97183e-05
5.07091e-05
5.07203e-05
9.96495e-05
0.000143727
0.000199459
0.000103516
0.000209119
0.000103433
0.000208664
0.000143911
9.9718e-05
5.07326e-05
5.07253e-05
9.9778e-05
0.000143712
0.000199435
0.000209116
0.000103515
0.00020866
0.000103432
0.000143918
9.9712e-05
5.07305e-05
5.07196e-05
9.97783e-05
7.77936e-05
7.78135e-05
0.000180984
7.78233e-05
7.78387e-05
2.3879e-05
2.38833e-05
2.3886e-05
2.38817e-05
0.00018114
7.78541e-05
7.78697e-05
7.78259e-05
7.78459e-05
2.38879e-05
2.38836e-05
0.000143707
0.000207731
0.000103348
0.000199096
0.000208199
0.000103434
0.000143492
9.97146e-05
5.07087e-05
5.07201e-05
9.96465e-05
9.97213e-05
5.07094e-05
5.07205e-05
9.96539e-05
0.000143706
0.000199449
0.000209115
0.000103516
0.00020866
0.000103433
0.00014391
0.00014371
0.000199449
0.000209117
0.000103512
0.000208662
0.00010343
0.000143915
9.97091e-05
5.07303e-05
5.07194e-05
9.97741e-05
9.97165e-05
5.07289e-05
5.07198e-05
9.97809e-05
2.38787e-05
2.38831e-05
2.38783e-05
2.38827e-05
0.00018108
7.78698e-05
7.78672e-05
7.78439e-05
7.78436e-05
2.38877e-05
2.38833e-05
2.38872e-05
2.38829e-05
0.000209569
0.000103511
0.00014392
5.07296e-05
9.97715e-05
0.000103509
5.07326e-05
2.3888e-05
2.38876e-05
3.66941e-05
4.10372e-05
9.43532e-05
9.96789e-05
4.10372e-05
9.43199e-05
3.6699e-05
2.03078e-05
5.07189e-05
7.89824e-05
7.89953e-05
2.03057e-05
2.03076e-05
7.90074e-05
5.07183e-05
7.89946e-05
2.03097e-05
3.66958e-05
9.96851e-05
4.10327e-05
9.42955e-05
4.10331e-05
9.43289e-05
3.66895e-05
2.38813e-05
2.38815e-05
3.66989e-05
9.43665e-05
4.10398e-05
9.96871e-05
9.43324e-05
4.10336e-05
3.66983e-05
2.0309e-05
5.07159e-05
7.90003e-05
7.90195e-05
2.03069e-05
2.03088e-05
7.90316e-05
5.07152e-05
7.90127e-05
2.03109e-05
3.6695e-05
9.96937e-05
9.43076e-05
4.10294e-05
9.43419e-05
4.10352e-05
3.66946e-05
2.38791e-05
2.38793e-05
8.14451e-05
2.17029e-05
2.16999e-05
2.17009e-05
2.16979e-05
8.14521e-05
0.000105058
0.000128362
7.78229e-05
4.86257e-05
0.000128424
4.86331e-05
0.000105034
0.000105066
0.000128345
7.78198e-05
4.86203e-05
0.000128409
4.86203e-05
0.000105042
0.000105067
4.8638e-05
7.78279e-05
0.000128498
0.000128437
4.86307e-05
0.00010509
0.000105075
4.86251e-05
7.78277e-05
0.000128482
0.000128418
4.8625e-05
0.000105098
8.14417e-05
2.1699e-05
2.1696e-05
2.1701e-05
2.1698e-05
8.14348e-05
0.000105181
0.00012865
4.86467e-05
7.78836e-05
0.000105161
0.000128707
4.86502e-05
0.000105189
0.000128632
4.86396e-05
7.78818e-05
0.000105169
0.000128691
4.86384e-05
8.14815e-05
2.17065e-05
2.17035e-05
8.14746e-05
2.17085e-05
2.17055e-05
2.38819e-05
2.38822e-05
2.38806e-05
2.38809e-05
8.14448e-05
2.17029e-05
2.16996e-05
2.17009e-05
2.16976e-05
8.14509e-05
0.000105058
0.000128362
7.78248e-05
4.86265e-05
4.86331e-05
0.000128427
0.000105039
0.000105062
0.000128343
7.78201e-05
4.8615e-05
4.86218e-05
0.000128407
0.000105042
0.000105072
4.86361e-05
7.78302e-05
0.000128501
4.86344e-05
0.000105091
0.000128436
0.000105074
4.86271e-05
7.78258e-05
0.000128481
4.86198e-05
0.000105094
0.000128417
8.14404e-05
2.1699e-05
2.16957e-05
2.1701e-05
2.16977e-05
8.14344e-05
2.38868e-05
2.38866e-05
2.38855e-05
2.38853e-05
8.14611e-05
2.17028e-05
2.16995e-05
8.14549e-05
2.17048e-05
2.17015e-05
0.000105136
0.000128642
7.78618e-05
4.86445e-05
4.86447e-05
0.00012858
0.000105155
0.000105137
0.000128622
7.78571e-05
4.86367e-05
4.86293e-05
0.000128561
0.000105157
0.000105123
4.86398e-05
0.000128509
7.78562e-05
0.000105105
4.86401e-05
0.000128572
0.000105126
4.86248e-05
0.00012849
7.78522e-05
0.000105106
4.86315e-05
0.000128552
8.14649e-05
2.17066e-05
2.17034e-05
2.17046e-05
2.17014e-05
8.14709e-05
3.6695e-05
4.1039e-05
9.43638e-05
9.96853e-05
4.10353e-05
9.43382e-05
3.67017e-05
2.03087e-05
5.07189e-05
7.90031e-05
7.90218e-05
2.03066e-05
2.03085e-05
7.90337e-05
5.07185e-05
7.90154e-05
2.03106e-05
3.66978e-05
9.96863e-05
4.10301e-05
9.43117e-05
4.10355e-05
9.43413e-05
3.66915e-05
3.67016e-05
4.10413e-05
9.43447e-05
9.97464e-05
3.66995e-05
4.10416e-05
9.43772e-05
2.03114e-05
5.07287e-05
7.90308e-05
2.03135e-05
7.90179e-05
2.03116e-05
7.90065e-05
5.07288e-05
2.03095e-05
7.90189e-05
3.6704e-05
9.97404e-05
4.10457e-05
9.44008e-05
3.67045e-05
4.10457e-05
9.43688e-05
3.67055e-05
4.10411e-05
9.43624e-05
9.97475e-05
3.66989e-05
4.10421e-05
9.43879e-05
2.03124e-05
5.07288e-05
7.90569e-05
7.90389e-05
2.03144e-05
2.03125e-05
7.90273e-05
5.07294e-05
2.03105e-05
7.90455e-05
3.67024e-05
9.9745e-05
4.10458e-05
9.44116e-05
4.10455e-05
9.4386e-05
3.67089e-05
8.14441e-05
2.17003e-05
2.17029e-05
2.16983e-05
2.17009e-05
8.14526e-05
0.000105066
0.000128345
7.78216e-05
4.86169e-05
4.86243e-05
0.000128406
0.000105044
0.000105062
0.000128371
7.78166e-05
4.86254e-05
0.000128426
4.86327e-05
0.000105039
0.000105077
4.86291e-05
7.78263e-05
0.000128479
4.86219e-05
0.000128419
0.000105099
0.000105073
4.86376e-05
7.78236e-05
0.0001285
0.000128445
4.86304e-05
0.000105095
8.14422e-05
2.16964e-05
2.1699e-05
2.16984e-05
2.1701e-05
8.14337e-05
2.38817e-05
2.38821e-05
2.38861e-05
2.38859e-05
8.14626e-05
2.17002e-05
2.17027e-05
8.14544e-05
2.17022e-05
2.17048e-05
0.000105139
0.00012862
7.78578e-05
4.86386e-05
0.000128563
4.86312e-05
0.000105162
0.000105136
0.000128641
7.78551e-05
4.86472e-05
4.86397e-05
0.000128588
0.000105158
0.00010513
4.86266e-05
0.000128492
7.78531e-05
0.00012855
0.000105108
4.86335e-05
0.000105126
4.86352e-05
0.000128517
7.78488e-05
0.000105104
4.8642e-05
0.000128571
8.14642e-05
2.17041e-05
2.17066e-05
2.1702e-05
2.17046e-05
8.14724e-05
2.38867e-05
2.38864e-05
3.66965e-05
4.10368e-05
9.4347e-05
9.96831e-05
4.10367e-05
9.43208e-05
3.66954e-05
2.03073e-05
5.071e-05
7.89781e-05
7.8989e-05
2.03052e-05
2.03071e-05
7.90016e-05
5.07135e-05
7.899e-05
2.03092e-05
3.66917e-05
9.96881e-05
4.10322e-05
9.42959e-05
4.10326e-05
9.43227e-05
3.66928e-05
3.67018e-05
9.43578e-05
4.10382e-05
9.97555e-05
3.67024e-05
9.43912e-05
4.10441e-05
2.03127e-05
5.07257e-05
7.9055e-05
2.03147e-05
7.90364e-05
2.03128e-05
7.90247e-05
5.07257e-05
2.03108e-05
7.90434e-05
3.67063e-05
9.97487e-05
9.44151e-05
4.10483e-05
3.67058e-05
9.4382e-05
4.10424e-05
3.6699e-05
4.10407e-05
9.43452e-05
9.97511e-05
3.67e-05
4.10412e-05
9.43713e-05
2.03109e-05
5.07239e-05
7.90241e-05
7.90134e-05
2.0313e-05
2.03111e-05
7.90017e-05
5.07201e-05
2.0309e-05
7.90133e-05
3.67038e-05
9.97451e-05
4.10453e-05
9.43946e-05
4.1045e-05
9.4369e-05
3.6703e-05
3.66997e-05
9.4366e-05
4.1037e-05
9.96873e-05
9.43415e-05
4.1037e-05
3.66987e-05
2.03094e-05
5.07162e-05
7.90044e-05
7.90227e-05
2.03074e-05
2.03093e-05
7.90348e-05
5.07201e-05
7.90165e-05
2.03114e-05
3.66951e-05
9.96873e-05
9.43168e-05
4.10325e-05
9.43419e-05
4.10328e-05
3.66961e-05
3.66961e-05
4.10398e-05
9.43596e-05
9.96808e-05
4.10335e-05
9.43258e-05
3.66979e-05
2.03083e-05
5.07151e-05
7.89839e-05
7.90029e-05
2.03062e-05
2.03081e-05
7.90149e-05
5.07145e-05
7.89962e-05
2.03102e-05
3.66935e-05
9.96873e-05
4.10295e-05
9.43017e-05
4.10354e-05
9.43352e-05
3.66933e-05
3.67024e-05
9.43657e-05
4.1041e-05
9.97488e-05
3.67033e-05
9.43904e-05
4.10414e-05
2.03131e-05
5.07301e-05
7.90579e-05
7.90405e-05
2.03152e-05
2.03133e-05
7.90286e-05
5.07271e-05
2.03112e-05
7.90466e-05
3.67072e-05
9.9748e-05
9.44137e-05
4.10454e-05
9.43895e-05
4.10453e-05
3.67062e-05
3.67028e-05
4.10381e-05
9.43506e-05
9.97487e-05
3.66983e-05
4.10439e-05
9.43839e-05
2.03119e-05
5.07246e-05
7.90381e-05
7.90199e-05
2.0314e-05
2.03121e-05
7.90082e-05
5.07252e-05
2.031e-05
7.90266e-05
3.67012e-05
9.97424e-05
4.10477e-05
9.44078e-05
4.10428e-05
9.43746e-05
3.67073e-05
8.14449e-05
2.16993e-05
2.17027e-05
2.16972e-05
2.17007e-05
8.14516e-05
0.000105058
0.000128337
7.78071e-05
4.86142e-05
4.86217e-05
0.00012839
0.000105034
0.000105057
0.000128363
7.78222e-05
4.86303e-05
0.000128427
4.86301e-05
0.000105037
0.000105067
4.86266e-05
7.78102e-05
0.000128463
4.86192e-05
0.00012841
0.000105091
0.00010507
4.86349e-05
7.78299e-05
0.0001285
0.000128437
4.86349e-05
0.000105089
8.14413e-05
2.16953e-05
2.16988e-05
2.16974e-05
2.17008e-05
8.14345e-05
2.3881e-05
2.38813e-05
2.3884e-05
2.38838e-05
8.14617e-05
2.16991e-05
2.17026e-05
8.14549e-05
2.17011e-05
2.17046e-05
0.00010513
0.000128604
7.78411e-05
4.86361e-05
0.000128553
4.86285e-05
0.000105151
0.000105133
0.000128641
7.78614e-05
4.86448e-05
4.86447e-05
0.00012858
0.000105152
0.000105122
4.8624e-05
0.000128482
7.78385e-05
0.000128534
0.000105099
4.86309e-05
0.000105121
4.86398e-05
0.000128509
7.78545e-05
0.000105102
4.86402e-05
0.000128571
8.14648e-05
2.1703e-05
2.17064e-05
2.1701e-05
2.17044e-05
8.14714e-05
2.38859e-05
2.38856e-05
3.66934e-05
9.43532e-05
4.10399e-05
9.96778e-05
9.4319e-05
4.10333e-05
3.67006e-05
2.03084e-05
5.07147e-05
7.89829e-05
7.9002e-05
2.03063e-05
2.03083e-05
7.9014e-05
5.07141e-05
7.8995e-05
2.03103e-05
3.66968e-05
9.96839e-05
9.42947e-05
4.10294e-05
9.43291e-05
4.10355e-05
3.66895e-05
3.66984e-05
9.43598e-05
4.10403e-05
9.96853e-05
9.43268e-05
4.10339e-05
3.66994e-05
2.03089e-05
5.07153e-05
7.89975e-05
7.90098e-05
2.03068e-05
2.03087e-05
7.90219e-05
5.07147e-05
7.90096e-05
2.03109e-05
3.66952e-05
9.96904e-05
9.43021e-05
4.10299e-05
9.43351e-05
4.10358e-05
3.66954e-05
3.67043e-05
9.43439e-05
4.10379e-05
9.9745e-05
3.66973e-05
9.43776e-05
4.10441e-05
2.03121e-05
5.07243e-05
7.9037e-05
7.90187e-05
2.03141e-05
2.03122e-05
7.90069e-05
5.07249e-05
2.03102e-05
7.90257e-05
3.67009e-05
9.97394e-05
9.4401e-05
4.10486e-05
9.43678e-05
4.10422e-05
3.67076e-05
3.67042e-05
9.43516e-05
4.10384e-05
9.97515e-05
3.67007e-05
9.43839e-05
4.10445e-05
2.03125e-05
5.07268e-05
7.9045e-05
7.9033e-05
2.03147e-05
2.03128e-05
7.90215e-05
5.07251e-05
2.03106e-05
7.90336e-05
3.67038e-05
9.9747e-05
9.44076e-05
4.1049e-05
9.43756e-05
4.10426e-05
3.67088e-05
2.38808e-05
2.3881e-05
2.38803e-05
2.38806e-05
8.14623e-05
2.17028e-05
2.16998e-05
8.14552e-05
2.17048e-05
2.17018e-05
0.00010513
0.000128638
7.78591e-05
4.86472e-05
0.000105153
0.00012858
4.86402e-05
0.000105139
0.000128623
7.78592e-05
4.86348e-05
0.00010516
0.000128562
4.86347e-05
0.000105123
4.86357e-05
0.000128509
7.78545e-05
0.000105099
0.000128568
4.86423e-05
0.00010513
4.86299e-05
0.000128491
7.78521e-05
0.000105107
0.000128553
4.86304e-05
8.1465e-05
2.17066e-05
2.17037e-05
8.14721e-05
2.17046e-05
2.17017e-05
2.38857e-05
2.38854e-05
2.38853e-05
2.3885e-05
2.03159e-05
7.90313e-05
5.0736e-05
2.03138e-05
7.90493e-05
3.67117e-05
9.98071e-05
4.10487e-05
9.43973e-05
3.67044e-05
4.10501e-05
9.44309e-05
5.07332e-05
2.389e-05
2.38895e-05
0.000199188
0.000199189
0.000204062
0.0002
0.000199999
0.000189294
0.000188269
0.000137902
0.000160887
0.000160877
0.000180811
0.000160985
0.000160973
0.000137854
0.000138243
0.000161528
0.00016152
0.000181779
0.000138197
0.000161618
0.000161606
0.000137898
0.000160913
0.000160895
0.00018075
0.000160963
0.000160949
0.000137861
0.000138119
0.000181394
0.000161445
0.00016143
0.00016139
0.000161373
0.000138155
0.000137907
0.000160883
0.00016091
0.000180835
0.000160994
0.00016097
0.000137862
0.000138121
0.000181327
0.000161442
0.000161462
0.000161361
0.00016138
0.000138162
0.000137896
0.000160871
0.000160916
0.000180745
0.000160972
0.000160957
0.000137851
0.00013811
0.000181383
0.000161433
0.000161438
0.000161345
0.00016138
0.000138151
0.000138115
0.00018132
0.000161456
0.000161447
0.000138157
0.000161371
0.000161354
0.00019919
0.000199195
0.000204068
0.000200001
0.000200006
0.000189296
0.000188271
0.000199196
0.000199202
0.000204068
0.000200007
0.000200013
0.000189305
0.000188279
0.000199204
0.000199204
0.000204077
0.000200015
0.000200015
0.000189307
0.000188282
0.000204693
0.000201603
0.000201602
0.000200804
0.000200804
0.000190313
0.000191333
0.000204699
0.000201604
0.000201609
0.000200805
0.00020081
0.000190315
0.000191335
0.000204699
0.00020161
0.000201615
0.000200811
0.000200817
0.000190323
0.000191343
0.000204708
0.000201618
0.000201618
0.00020082
0.000200819
0.000190325
0.000191346
0.00017045
0.000137222
0.000175595
0.00014362
0.000137148
0.000175578
0.000170502
0.000159947
0.000146902
0.000103396
0.000122361
0.000146939
0.000122421
0.000159912
0.000160069
0.000122488
0.000103393
0.000147064
0.000147027
0.000122428
0.000160102
0.000170306
0.000143597
0.000137056
0.000175344
0.000137131
0.00017537
0.00017025
0.000170422
0.00017565
0.000137217
0.000143597
0.000175526
0.00013712
0.00017053
0.000159983
0.000146877
0.000103396
0.000122345
0.00014695
0.000122415
0.000159874
0.00016003
0.000122482
0.000103392
0.000147076
0.000147002
0.000122412
0.000160148
0.000170321
0.000143595
0.000175304
0.000137029
0.000175416
0.000137125
0.000170224
0.000137943
0.000180855
0.000161145
0.00016113
0.000161061
0.000161048
0.000137989
0.000137949
0.000180911
0.000161131
0.000161108
0.000137986
0.000161077
0.000161056
0.000138071
0.000181233
0.000161227
0.000161217
0.000138035
0.000161282
0.000161273
0.000170358
0.000137216
0.00017565
0.000143601
0.000137119
0.000175509
0.000170544
0.000159979
0.000146874
0.000103396
0.000122343
0.00012241
0.00014695
0.000159846
0.000160003
0.000122476
0.000103393
0.000147074
0.000122409
0.000147
0.000160142
0.000170332
0.000143598
0.000137027
0.00017528
0.000137124
0.000175422
0.000170162
0.000170417
0.000137214
0.00017565
0.000143604
0.000137139
0.000175512
0.000170522
0.000159938
0.000146878
0.000103394
0.00012235
0.000122412
0.000146916
0.000159864
0.000160037
0.000122479
0.000103391
0.000147042
0.000122418
0.000160095
0.000147004
0.000170316
0.0001436
0.000137044
0.000175283
0.000137123
0.000175423
0.000170209
0.000170747
0.000137212
0.000175721
0.000143811
0.000170562
0.000137307
0.000175861
0.0001603
0.000147316
0.000103473
0.000122606
0.000147241
0.00012254
0.000160467
0.000160308
0.000122476
0.000147121
0.000103477
0.000147192
0.000160157
0.000122542
0.000170752
0.000143813
0.000137397
0.000176077
0.000137302
0.000175939
0.000170936
0.000170714
0.000137231
0.000175725
0.000143812
0.000170618
0.000137306
0.000175862
0.000160371
0.000147291
0.000103472
0.000122609
0.00012255
0.000147251
0.0001604
0.000160245
0.000122484
0.000147126
0.000103474
0.000160207
0.000122545
0.000147164
0.000170818
0.000143817
0.000137395
0.000176077
0.000137321
0.000175943
0.000170902
0.000137951
0.000180851
0.000161132
0.00016115
0.000161066
0.000161046
0.000137994
0.000138078
0.000181304
0.000161201
0.00016122
0.000161285
0.000138036
0.000161305
0.000170417
0.000137223
0.000175649
0.000143601
0.000137125
0.000175525
0.000170524
0.000159973
0.000146861
0.000103389
0.000122344
0.000122414
0.000146937
0.000159864
0.000160021
0.000122481
0.000103384
0.000147061
0.000122412
0.000146988
0.000160138
0.000170316
0.0001436
0.000137033
0.000175306
0.000137131
0.000175418
0.000170215
0.000170415
0.000175647
0.000137209
0.000143598
0.000175526
0.000137112
0.00017051
0.000159929
0.000146852
0.000103375
0.000122328
0.000122397
0.000146917
0.000159866
0.000160016
0.000122464
0.000103372
0.000147043
0.000122396
0.000160115
0.00014697
0.000170305
0.000143595
0.000175303
0.000137017
0.00017541
0.000137116
0.000170215
0.000170736
0.000137219
0.000175734
0.000143815
0.000170611
0.000137315
0.000175866
0.00016032
0.000147303
0.000103464
0.000122611
0.000147231
0.000122543
0.000160466
0.000160303
0.000122478
0.000147109
0.000103469
0.00014718
0.000160175
0.000122546
0.000170791
0.000143816
0.000137405
0.000176081
0.00013731
0.000175947
0.000170942
0.000170721
0.000175734
0.000137206
0.00014381
0.000170611
0.000175863
0.000137301
0.000160315
0.000147286
0.000103452
0.000122594
0.000122527
0.000147215
0.000160446
0.000160282
0.000122462
0.000147092
0.000103455
0.000160168
0.000122529
0.000147163
0.000170793
0.000143812
0.000176078
0.000137391
0.000175945
0.000137297
0.000170931
0.000170364
0.00017565
0.000137222
0.000143605
0.000175515
0.000137124
0.000170551
0.000159984
0.000146875
0.000103395
0.000122346
0.000146951
0.000122415
0.000159851
0.000160007
0.000122481
0.000103391
0.000147075
0.000147001
0.000122412
0.000160147
0.000170335
0.000143602
0.000175287
0.000137033
0.000175422
0.00013713
0.000170164
0.000170706
0.00013724
0.000175793
0.00014381
0.000170649
0.000137314
0.000175811
0.000160384
0.000147315
0.000103473
0.000122616
0.000160412
0.000147272
0.000122558
0.000160252
0.000122494
0.000147148
0.000103477
0.000160228
0.000147187
0.000122553
0.000170845
0.000143831
0.000137402
0.000176019
0.000170901
0.00013733
0.000176007
0.000170753
0.000175728
0.000137217
0.000143815
0.000170566
0.000175863
0.000137313
0.000160303
0.000147317
0.000103471
0.000122611
0.000122544
0.000147243
0.000160473
0.000160313
0.000122479
0.000147122
0.000103476
0.00016016
0.000122546
0.000147194
0.000170757
0.000143818
0.000176079
0.000137402
0.000175945
0.000137308
0.000170944
0.000137939
0.000180904
0.000161122
0.000161126
0.000161066
0.000161029
0.000137983
0.000138068
0.000181227
0.000161188
0.000161224
0.000161276
0.000138025
0.000161285
0.000170427
0.000175652
0.00013722
0.000143602
0.000175532
0.000137123
0.00017052
0.000159936
0.000146881
0.000103393
0.000122345
0.000146932
0.000122412
0.000159889
0.000160037
0.000122478
0.000103389
0.000147061
0.000146991
0.00012241
0.000160124
0.000170315
0.000143599
0.00017531
0.000137029
0.000175416
0.000137127
0.000170227
0.000170744
0.000175735
0.000137214
0.000143809
0.000170609
0.000175865
0.000137309
0.000160322
0.000147319
0.000103472
0.000122611
0.000160475
0.000147244
0.000122543
0.000160314
0.000122479
0.000147123
0.000103477
0.000160181
0.000147195
0.000122547
0.000170781
0.000143811
0.000176081
0.000137398
0.000170943
0.000175946
0.000137304
0.00017073
0.00017574
0.000137217
0.000143813
0.000170623
0.000175868
0.000137311
0.000160335
0.000147304
0.00010347
0.000122607
0.000122543
0.000147233
0.000160461
0.000160298
0.000122477
0.000147112
0.000103473
0.000160189
0.000122543
0.000147182
0.000170808
0.000143816
0.000176083
0.000137401
0.000175951
0.000137308
0.000170939
0.000138074
0.000181295
0.000161214
0.000161193
0.000138029
0.000161298
0.000161287
0.000160635
0.000147362
0.000122607
0.000103552
0.000147434
0.000160454
0.000122673
0.000171145
0.00014402
0.000176163
0.000137396
0.000176298
0.000170955
0.000137491
0.000147352
0.00010355
0.000147422
0.00012305
0.000139425
0.00013943
0.000137178
0.000125847
0.00014255
0.000142555
0.000139607
0.000128804
0.000145637
0.000145642
0.000141974
0.000131899
0.00014868
0.000148686
0.000144294
0.000135112
0.000151675
0.000151681
0.000146541
0.000138422
0.000154614
0.000154619
0.000148755
0.00014181
0.000157493
0.000157498
0.000150903
0.000145258
0.000160309
0.000160314
0.000153027
0.000148748
0.000163062
0.000163065
0.000155072
0.000152266
0.000165749
0.000165751
0.0001571
0.000155798
0.000168368
0.000168368
0.000159016
0.00015933
0.000170917
0.000170917
0.000160885
0.00016285
0.000173396
0.000173396
0.000162713
0.000166344
0.000175803
0.000175803
0.000164401
0.000169804
0.000178137
0.000178136
0.000166079
0.000173221
0.000180397
0.000180396
0.000167716
0.000176586
0.000182581
0.000182579
0.000169311
0.00017989
0.000184689
0.000184686
0.000170809
0.000183128
0.000186721
0.000186716
0.000172242
0.000186292
0.000188674
0.000188668
0.000173615
0.000189375
0.000190549
0.000190543
0.000174927
0.000192373
0.000192346
0.000192339
0.000176176
0.000195281
0.000194064
0.000194057
0.000177414
0.000198095
0.000195705
0.000195697
0.000178578
0.00020081
0.000197266
0.000197257
0.000179655
0.00013724
0.000139083
0.000139415
0.000139412
0.000141761
0.000141759
0.00013713
0.000139252
0.000139425
0.000139416
0.00014177
0.000141763
0.000139441
0.000141772
0.000141787
0.000137149
0.000139246
0.000139448
0.000141777
0.000141793
0.000139287
0.0001397
0.000141543
0.00014254
0.000142537
0.000144858
0.000144855
0.000139583
0.000141635
0.00014255
0.000142542
0.000144868
0.00014486
0.000142566
0.000144869
0.000144884
0.000139535
0.000141642
0.000142572
0.000144875
0.000144889
0.00014168
0.000142056
0.000143862
0.000145626
0.000145623
0.000147912
0.000147909
0.000141898
0.000143991
0.000145638
0.000145628
0.000147923
0.000147914
0.000145652
0.000147924
0.000147936
0.00014194
0.000143978
0.000145658
0.000147929
0.000147942
0.000143979
0.00014438
0.000146258
0.000148669
0.000148666
0.000150918
0.000150917
0.000144261
0.000146264
0.000148681
0.000148671
0.00015093
0.000150921
0.000148693
0.000150932
0.000150942
0.000144277
0.000146257
0.000148699
0.000150937
0.000150948
0.000146271
0.000146546
0.000148482
0.000151662
0.00015166
0.000153871
0.00015387
0.000146537
0.000148476
0.000151674
0.000151665
0.000153883
0.000153874
0.000151686
0.000153885
0.000153893
0.000146555
0.000148373
0.000151692
0.00015389
0.000153899
0.000148497
0.000148767
0.000150674
0.000154601
0.000154599
0.000156766
0.000156763
0.000148752
0.000150654
0.000154613
0.000154603
0.000156777
0.000156766
0.000154622
0.000156778
0.000156784
0.000148842
0.000150546
0.000154628
0.000156783
0.000156791
0.000150667
0.000150913
0.000152727
0.00015748
0.000157477
0.000159597
0.000159594
0.000150918
0.000152757
0.000157492
0.000157479
0.000159608
0.000159596
0.000157498
0.000159611
0.000159614
0.000150985
0.000152786
0.000157505
0.000159616
0.000159621
0.000152774
0.000153029
0.000154709
0.000160295
0.000160292
0.000162364
0.000162362
0.000153004
0.000154801
0.000160307
0.000160294
0.000162375
0.000162362
0.000160312
0.00016238
0.000162379
0.000153027
0.000154812
0.000160319
0.000162384
0.000162387
0.000154747
0.000155138
0.000156692
0.000163046
0.000163044
0.000165065
0.000165065
0.000155057
0.000156797
0.000163057
0.000163044
0.000165076
0.000165064
0.000163061
0.000165084
0.000165081
0.000155065
0.000156823
0.000163069
0.000165086
0.00016509
0.00015675
0.000157122
0.000158636
0.000165731
0.00016573
0.0001677
0.0001677
0.000157052
0.000158731
0.000165742
0.000165729
0.000167711
0.000167697
0.000165746
0.00016772
0.000167716
0.000157067
0.000158733
0.000165755
0.000167721
0.000167725
0.000158708
0.000159031
0.000160535
0.000168348
0.000168348
0.000170266
0.000170265
0.00015897
0.000160618
0.00016836
0.000168345
0.000170277
0.000170262
0.000168364
0.000170286
0.00017028
0.000158956
0.000160615
0.000168373
0.000170287
0.000170291
0.000160579
0.000160885
0.000162361
0.000170896
0.000170896
0.000172761
0.000172761
0.000160833
0.000162423
0.000170909
0.000170893
0.000172773
0.000172757
0.000170911
0.000172783
0.000172775
0.000160824
0.0001624
0.000170921
0.000172783
0.000172786
0.000162333
0.000162678
0.000164118
0.000173374
0.000173374
0.000175184
0.000175185
0.000162651
0.000164193
0.000173387
0.000173369
0.000175197
0.00017518
0.000173389
0.000175208
0.0001752
0.000162651
0.00016418
0.000173399
0.000175208
0.000175211
0.000164154
0.000164428
0.000165851
0.000175779
0.00017578
0.000177536
0.000177536
0.000164409
0.000165885
0.000175793
0.000175774
0.000177549
0.000177531
0.000175794
0.000177561
0.00017755
0.000164397
0.000165875
0.000175805
0.00017756
0.000177561
0.000165883
0.000166085
0.000167507
0.000178111
0.000178112
0.000179813
0.000179814
0.000166079
0.000167517
0.000178125
0.000178108
0.000179826
0.000179809
0.000178127
0.00017984
0.000179827
0.000166058
0.000167515
0.000178138
0.000179838
0.000179838
0.000167479
0.000167694
0.000169071
0.00018037
0.000180372
0.000182016
0.000182017
0.000167689
0.000169092
0.000180384
0.000180366
0.000182029
0.00018201
0.000180385
0.000182042
0.00018203
0.000167703
0.000169072
0.000180396
0.000182041
0.000182041
0.000169052
0.000169289
0.00017061
0.000182554
0.000182555
0.000184142
0.000184143
0.000169271
0.000170579
0.000182568
0.000182549
0.000184155
0.000184136
0.000182569
0.00018417
0.000184156
0.000169288
0.000170581
0.00018258
0.000184167
0.000184167
0.000170563
0.000170778
0.000172063
0.000184661
0.000184662
0.000186192
0.000186193
0.000170801
0.000172044
0.000184675
0.000184655
0.000186205
0.000186185
0.000184675
0.00018622
0.000186205
0.000170795
0.000172043
0.000184686
0.000186216
0.000186216
0.000172032
0.000172217
0.000173431
0.000186692
0.000186693
0.000188164
0.000188165
0.000172241
0.000173441
0.000186706
0.000186685
0.000188177
0.000188157
0.000186704
0.000188193
0.000188176
0.000172229
0.000173436
0.000186716
0.000188188
0.000188188
0.000173436
0.000173604
0.000174768
0.000188645
0.000188646
0.000190059
0.00019006
0.000173617
0.000174791
0.000188659
0.000188637
0.000190072
0.00019005
0.000188656
0.000190087
0.000190069
0.000173607
0.000174768
0.000188669
0.000190082
0.000190082
0.000174787
0.000174925
0.000176047
0.00019052
0.000190521
0.000191875
0.000191876
0.000174933
0.000176083
0.000190534
0.000190511
0.000191888
0.000191866
0.00019053
0.000191904
0.000191885
0.00017492
0.000176068
0.000190543
0.000191897
0.000191898
0.000176057
0.000176188
0.000177226
0.000192316
0.000192318
0.000193612
0.000193614
0.000176176
0.000177306
0.00019233
0.000192307
0.000193625
0.000193603
0.000192326
0.000193642
0.000193622
0.000176168
0.000177293
0.00019234
0.000193635
0.000193636
0.000177233
0.000177415
0.000178374
0.000194034
0.000194036
0.000195271
0.000195273
0.000177371
0.000178466
0.000194049
0.000194025
0.000195285
0.000195262
0.000194044
0.000195302
0.00019528
0.000177359
0.000178452
0.000194058
0.000195294
0.000195294
0.000178372
0.000178571
0.000179474
0.000195674
0.000195675
0.000196852
0.000196854
0.000178513
0.000179559
0.000195688
0.000195665
0.000196866
0.000196842
0.000195683
0.000196883
0.00019686
0.0001785
0.000179473
0.000195697
0.000196874
0.000196874
0.000179467
0.000179653
0.000180503
0.000197235
0.000197236
0.000198353
0.000198354
0.000179594
0.000180589
0.00019725
0.000197225
0.000198367
0.000198342
0.000197243
0.000198384
0.000198361
0.000179619
0.000180496
0.000197258
0.000198375
0.000198375
0.000180544
9.22951e-05
5.00167e-05
5.0033e-05
9.20742e-05
2.36122e-05
2.36167e-05
9.23074e-05
5.00157e-05
5.00313e-05
9.20855e-05
0.000123046
0.000123058
0.000123075
0.000125132
0.000125129
0.000125141
0.000125158
0.000122009
9.38457e-05
0.000134873
0.00014021
9.41296e-05
0.00013574
0.000121382
2.36104e-05
2.36149e-05
0.000122011
0.00013489
9.38356e-05
0.000140214
0.000135757
9.41408e-05
0.000121366
7.3769e-05
7.3765e-05
0.000138094
7.38651e-05
7.38731e-05
9.27699e-05
5.00477e-05
9.25583e-05
5.0063e-05
2.36217e-05
2.36263e-05
9.2787e-05
5.00451e-05
9.25598e-05
5.00604e-05
0.000125844
0.000125857
0.000125873
0.000128051
0.000128048
0.000128061
0.000128077
0.000123317
9.44498e-05
0.00013837
0.000143326
0.000122714
9.47305e-05
0.000139247
2.36199e-05
2.36245e-05
0.000123323
0.000138389
9.44368e-05
0.000143331
0.000122708
0.000139266
9.47339e-05
7.40344e-05
7.40298e-05
0.000140514
7.41253e-05
7.41287e-05
9.32296e-05
5.00774e-05
9.30174e-05
5.00929e-05
2.36316e-05
2.36363e-05
9.32438e-05
5.00747e-05
9.30207e-05
5.00902e-05
0.000128801
0.000128814
0.00012883
0.000131114
0.00013111
0.000131124
0.00013114
0.000124583
9.50298e-05
0.000141898
0.000146402
0.000124
9.52946e-05
0.00014278
2.36297e-05
2.36345e-05
0.000124588
0.000141916
9.50269e-05
0.000146408
0.000123993
0.000142798
9.52983e-05
7.42903e-05
7.42872e-05
0.000142826
7.43755e-05
7.43772e-05
9.36672e-05
5.01106e-05
9.34657e-05
5.01202e-05
2.36418e-05
2.36466e-05
9.36832e-05