/*--------------------------------*- C++ -*----------------------------------*\
| =========                 |                                                 |
| \\      /  F ield         | OpenFOAM: The Open Source CFD Toolbox           |
|  \\    /   O peration     | Version:  v1906                                 |
|   \\  /    A nd           | Web:      www.OpenFOAM.com                      |
|    \\/     M anipulation  |                                                 |
\*---------------------------------------------------------------------------*/
FoamFile
{
    version     2.0;
    format      ascii;
    class       surfaceScalarField;
    location    "450";
    object      phi;
}
// * * * * * * * * * * * * * * * * * * * * * * * * * * * * * * * * * * * * * //

dimensions      [0 3 -1 0 0 0 0];
oriented        oriented;


internalField   nonuniform List<scalar> 
123680
(
1.19344e-07
1.19606e-07
-7.10593e-08
-7.11041e-08
0.00118432
-0.00118442
-1.19691e-06
-1.19518e-07
-4.87933e-08
0.0011323
-2.34249e-07
1.24132e-06
2.72206e-07
9.11186e-07
-2.127e-07
2.66407e-07
-8.53022e-07
-0.00113233
-1.19151e-06
-1.19633e-07
-4.85833e-08
0.00113194
-2.34315e-07
1.2358e-06
2.72182e-07
9.11037e-07
-2.15373e-07
2.69156e-07
-8.52875e-07
-0.00113196
1.22561e-06
1.19162e-06
-1.98249e-07
-2.03591e-07
0.000268069
-0.000270085
-0.00027009
1.2252e-06
1.1912e-06
-1.9806e-07
-2.03395e-07
0.000268075
1.23098e-06
1.1943e-06
-1.95681e-07
-2.03539e-07
0.000268076
-0.000270102
-1.27511e-06
-1.23854e-06
-0.00026808
2.39214e-07
2.47073e-07
0.000270107
-4.85218e-08
0.00113147
-2.39841e-07
1.2752e-06
2.77521e-07
9.11153e-07
-2.12689e-07
2.66386e-07
-8.53015e-07
-0.00113149
-1.2365e-06
-1.19355e-07
-4.83719e-08
0.00113191
-2.42718e-07
1.28066e-06
2.80323e-07
9.16685e-07
-2.15494e-07
2.69166e-07
-8.58528e-07
-0.00113194
-1.2143e-07
-0.00113142
-4.93839e-08
-1.23066e-06
2.77443e-07
-2.39643e-07
-8.52685e-07
2.66343e-07
-2.12454e-07
9.11167e-07
0.00113139
1.28057e-06
-1.21446e-07
-0.00113186
-4.92257e-08
-1.23617e-06
2.80236e-07
-2.42527e-07
-8.58205e-07
2.69129e-07
-2.15271e-07
9.16711e-07
0.00113184
-1.98356e-07
-2.00883e-07
0.000268097
-0.000270131
-1.24123e-06
-0.000268101
2.42025e-07
2.44285e-07
0.000270136
-4.87064e-08
0.00113258
-2.37171e-07
1.23863e-06
2.75067e-07
9.13958e-07
-2.15465e-07
2.69219e-07
-8.557e-07
-0.0011326
-1.23104e-06
-1.19296e-07
-4.8449e-08
0.00113157
-2.42698e-07
1.27523e-06
2.8035e-07
9.13796e-07
-2.15426e-07
2.69099e-07
-8.55668e-07
-0.00113159
-1.21698e-07
-0.00113253
-4.95372e-08
-1.19398e-06
2.74984e-07
-2.36958e-07
-8.55386e-07
2.69178e-07
-2.15242e-07
9.13987e-07
0.0011325
1.27514e-06
-1.21341e-07
-0.00113152
-4.92759e-08
-1.23071e-06
2.80261e-07
-2.42506e-07
-8.55372e-07
2.69052e-07
-2.15215e-07
9.13816e-07
0.00113149
-1.19363e-07
-4.83608e-08
0.00113136
-2.37073e-07
1.26975e-06
2.74713e-07
9.11169e-07
-2.12664e-07
2.66387e-07
-8.53027e-07
-0.00113139
-1.21596e-07
-0.00113225
-4.96436e-08
-1.19659e-06
2.72117e-07
-2.34053e-07
-8.52695e-07
2.6636e-07
9.11198e-07
-2.12475e-07
0.00113223
1.26965e-06
0.00113129
-1.21446e-07
-0.00113131
-4.92082e-08
-1.22529e-06
2.7463e-07
-2.36864e-07
-8.52686e-07
2.66341e-07
-2.1243e-07
9.13837e-07
-1.95776e-07
-2.03427e-07
0.000268056
-0.000270079
-1.23571e-06
-0.00026806
2.39327e-07
2.46883e-07
0.000270085
-1.19653e-07
-4.86454e-08
0.00113247
-2.34403e-07
1.23592e-06
2.72304e-07
9.11327e-07
-2.15436e-07
2.69186e-07
-8.53071e-07
-0.0011325
-1.21713e-07
-0.00113189
-4.94218e-08
-1.19119e-06
2.72086e-07
-2.3412e-07
-8.52499e-07
2.69086e-07
9.11128e-07
-2.1516e-07
0.00113186
1.23584e-06
0.0011324
-1.21682e-07
-0.00113242
-4.95161e-08
-1.19129e-06
2.72222e-07
-2.34191e-07
-8.52765e-07
2.69143e-07
-2.15223e-07
9.11337e-07
-0.000268073
2.41788e-07
2.47041e-07
-4.94869e-08
-2.36821e-07
1.26964e-06
2.74597e-07
9.13836e-07
-2.12378e-07
2.66325e-07
-8.55257e-07
-1.22117e-07
-2.34126e-07
1.23583e-06
2.72194e-07
-2.15144e-07
2.69127e-07
-1.22378e-07
-4.98109e-08
9.11338e-07
-8.52669e-07
-1.51031e-10
-7.01876e-08
0.000229293
3.21344e-08
2.19668e-09
-0.000229257
-5.18184e-09
2.24442e-08
0.000193525
-3.60892e-09
-0.000193539
6.84384e-09
-4.36682e-08
0.000193578
3.28166e-09
-0.000193545
9.21655e-11
2.87223e-08
0.000229238
-1.32056e-08
9.31734e-10
-0.000229254
5.17966e-09
1.11546e-08
9.79803e-05
-9.79967e-05
-6.73525e-09
-2.0098e-08
9.80177e-05
-9.79908e-05
-7.02604e-08
-2.52331e-10
0.000229322
2.20473e-09
3.00753e-08
-0.000229284
-5.13095e-09
2.47117e-08
0.000193546
-4.20569e-09
-0.000193561
6.83927e-09
-4.59552e-08
0.000193601
3.86898e-09
-0.000193566
2.88167e-08
1.88956e-10
0.000229264
9.25845e-10
-1.11551e-08
-0.000229283
-7.09634e-08
-7.11115e-08
0.00118432
-0.00118441
-7.11055e-08
-7.10868e-08
0.0011839
-0.001184
-7.1102e-08
-7.11423e-08
0.00118413
-0.00118423
-0.00118413
-7.35493e-08
-7.36167e-08
0.00118403
-0.00118412
-7.34613e-08
-7.36092e-08
0.00118403
-0.00118371
-7.35601e-08
-7.35575e-08
0.00118361
-0.00118394
-7.35641e-08
-7.36577e-08
0.00118384
7.01798e-08
-1.72069e-09
0.000250197
4.1118e-09
-1.93109e-07
-0.000250076
-9.64922e-09
-2.46966e-08
6.64575e-08
0.0002454
3.98316e-09
-0.000245436
0.00115244
3.47138e-09
-1.40034e-07
1.00836e-06
-7.57695e-07
8.30694e-07
-9.36876e-07
-0.00115249
-4.90865e-08
1.2413e-06
0.00113228
-1.20239e-07
-8.52896e-07
2.66394e-07
-2.12614e-07
9.11199e-07
-1.19679e-06
2.72177e-07
-2.34173e-07
2.08013e-08
4.5879e-08
0.000245474
-1.67562e-08
-0.000245419
-1.05008e-07
-3.87387e-09
0.00115239
-1.41552e-07
-9.36624e-07
8.30784e-07
-7.57448e-07
1.00844e-06
-2.8747e-08
1.54903e-09
0.000250063
2.00003e-09
1.32642e-07
-0.000250171
5.19715e-09
1.34256e-08
9.79617e-05
-9.79803e-05
-6.79925e-09
-2.23058e-08
9.80013e-05
-9.79722e-05
-1.2935e-09
7.00931e-08
0.000250159
-1.93029e-07
4.05772e-09
-0.000250039
0.00115213
3.63825e-09
-1.4018e-07
1.00277e-06
-7.52155e-07
8.25162e-07
-9.31257e-07
-0.00115219
-9.8498e-09
-2.2497e-08
6.65159e-08
0.000245343
4.14635e-09
-0.000245382
-4.88752e-08
1.23578e-06
0.00113191
-1.20359e-07
-8.52705e-07
2.69117e-07
-2.15312e-07
9.11114e-07
-1.19139e-06
2.72153e-07
-2.34235e-07
-3.58631e-09
0.00115209
-1.41694e-07
-9.31011e-07
8.25263e-07
-7.51907e-07
1.00285e-06
2.08437e-08
4.37514e-08
0.00024542
-1.67391e-08
-0.000245362
-1.05142e-07
1.31817e-09
-2.86871e-08
0.000250026
1.3257e-07
1.86724e-09
-0.000250133
1.23476e-08
-1.11122e-08
2.47773e-08
0.000278126
-7.10135e-09
-0.000278145
1.22493e-08
-1.1147e-08
2.25436e-08
0.000278074
-7.47756e-09
-0.00027809
-1.26973e-06
-1.2359e-06
0.000270087
-0.00026807
2.41911e-07
2.47171e-07
-2.30939e-08
2.00582e-08
0.000278196
9.84912e-09
-0.000278152
-5.10287e-08
-2.33053e-08
1.98973e-08
0.00027814
1.06029e-08
-0.000278099
-4.86666e-08
-0.000278246
1.22321e-08
-1.12402e-08
2.48516e-08
-6.95725e-09
0.000278228
-0.000278191
1.21595e-08
-1.12525e-08
2.25972e-08
-7.36021e-09
0.000278175
1.11107e-08
9.79784e-05
-9.79947e-05
-1.99531e-08
9.80157e-05
-9.79889e-05
1.11766e-08
9.79776e-05
-9.79939e-05
-1.9966e-08
9.80149e-05
-9.79881e-05
9.89112e-09
2.25135e-08
0.000278124
-7.51356e-09
-0.000278138
1.22592e-08
2.25474e-08
0.000278081
-7.48612e-09
-0.000278097
0.000270104
-1.27517e-06
-1.23861e-06
-0.000268077
2.39342e-07
2.4719e-07
0.000278189
-2.08127e-08
1.0424e-08
-0.000278149
-4.87003e-08
0.000278147
-2.32677e-08
1.0557e-08
-0.000278106
-4.87321e-08
-1.98408e-08
-6.8963e-09
-9.80099e-05
9.80366e-05
1.11703e-08
5.11913e-09
9.79994e-05
-1.98651e-08
-6.88168e-09
-9.80091e-05
9.80358e-05
1.12241e-08
5.07856e-09
9.79986e-05
1.23074e-06
1.19407e-06
0.000268078
-1.95565e-07
-2.03412e-07
-2.0828e-08
-4.85879e-08
-0.0002782
1.04774e-08
0.000278239
-2.32709e-08
-4.86276e-08
-0.000278157
1.05919e-08
0.000278198
9.82711e-09
-7.43365e-09
2.25356e-08
0.000278175
1.22142e-08
-7.43139e-09
2.25578e-08
0.000278131
-7.02137e-08
0.000229329
3.21594e-08
2.18213e-09
-0.000229294
2.25339e-08
0.00019356
-3.66734e-09
-0.000193573
-4.38093e-08
0.000193613
3.50495e-09
-0.00019358
2.87499e-08
0.000229274
-1.32311e-08
8.26401e-10
-0.00022929
-1.45784e-09
0.000250171
3.62766e-09
-1.95715e-07
-0.000250048
6.40916e-08
0.000245344
4.17936e-09
-0.00024538
0.00115251
3.54771e-09
-1.4e-07
1.00837e-06
-7.57661e-07
8.30683e-07
-9.36836e-07
-0.00115257
-4.88223e-08
0.00113144
-1.20068e-07
-1.23086e-06
2.77501e-07
-2.39772e-07
-8.52886e-07
2.66372e-07
-2.12605e-07
9.11169e-07
0.000245418
-1.67694e-08
-0.000245363
-1.02654e-07
-3.69884e-09
0.00115247
-1.41525e-07
-9.36583e-07
8.3078e-07
-7.5741e-07
1.00845e-06
1.41958e-09
0.000250035
2.33941e-09
1.35209e-07
-0.000250145
0.000250199
4.5323e-09
-1.95747e-07
-0.000250079
-1.23081e-08
6.65579e-08
0.000245357
4.19441e-09
-0.000245393
0.00115267
-1.39991e-07
1.01128e-06
-7.57776e-07
8.30789e-07
-9.39727e-07
-0.00115272
-4.86732e-08
0.00113189
1.28063e-06
-1.2007e-07
-8.58402e-07
2.69154e-07
9.16701e-07
-2.15407e-07
-1.23638e-06
2.80295e-07
-2.42654e-07
0.000245431
2.3056e-08
-1.6624e-08
-0.000245376
-1.05149e-07
0.00115261
-1.4151e-07
-9.39488e-07
8.30886e-07
-7.5752e-07
1.01137e-06
0.000250066
1.34216e-09
1.35253e-07
-0.000250173
9.14865e-11
2.86264e-08
-1.31833e-08
9.48224e-10
0.000229277
-4.36009e-08
-0.000193585
3.21202e-09
0.000193618
2.24551e-08
-3.6814e-09
0.000193565
-1.53148e-10
-7.01658e-08
-0.000229296
3.20944e-08
2.21038e-09
0.000229332
2.86518e-08
-1.32038e-08
8.40975e-10
0.000229313
-4.37347e-08
6.77679e-09
-0.000193619
3.44219e-09
0.000193653
2.2544e-08
-5.12098e-09
-3.73224e-09
0.000193599
-7.01903e-08
-0.000229333
3.21163e-08
2.19182e-09
0.000229368
1.41717e-09
2.36727e-09
1.34942e-07
0.000250061
-4.91451e-08
-1.2082e-07
1.27514e-06
-2.397e-07
2.77467e-07
9.11172e-07
-2.12522e-07
2.6636e-07
-8.52779e-07
-1.02572e-07
-0.000245401
-1.67865e-08
0.000245456
-0.00115241
-3.68927e-09
-1.44472e-07
-9.36172e-07
8.30945e-07
-7.56929e-07
1.00858e-06
0.00115236
4.11783e-09
6.40285e-08
0.000245382
3.56638e-09
-1.43079e-07
1.0085e-06
-7.57165e-07
-9.36394e-07
8.30859e-07
-1.46167e-09
-0.000250075
3.64266e-09
-1.95748e-07
0.000250198
1.36702e-09
1.34984e-07
0.000250093
-4.89694e-08
-1.23627e-06
-1.20835e-07
9.16714e-07
-2.1532e-07
-8.58298e-07
2.6914e-07
1.2806e-06
-2.4259e-07
2.80272e-07
2.30689e-08
-1.05071e-07
-0.000245414
-1.66343e-08
0.000245469
-0.00115257
-1.4446e-07
-9.39083e-07
8.31048e-07
-7.57043e-07
1.01151e-06
0.00115251
-1.22562e-08
4.14254e-09
6.64912e-08
0.000245395
-1.43078e-07
1.01144e-06
-7.57281e-07
-9.39288e-07
8.30964e-07
-0.000250106
4.53605e-09
-1.95776e-07
0.000250226
2.25596e-08
0.00027807
-1.01936e-08
-0.000278084
-1.35257e-08
2.24913e-08
0.000278174
-9.99045e-09
-0.000278182
0.000270133
-0.000268098
2.42151e-07
2.44413e-07
0.000278134
1.29066e-08
-0.000278095
-4.88015e-08
2.21945e-08
0.000278233
1.32085e-08
-0.000278199
-4.85597e-08
5.06392e-09
9.79829e-05
-9.80015e-05
9.80225e-05
-6.89039e-09
-9.79934e-05
-1.9996e-08
-9.80118e-05
9.80386e-05
1.12114e-08
9.80013e-05
1.19669e-06
0.000268099
-1.98243e-07
-2.00762e-07
-4.86982e-08
-0.000278146
1.29524e-08
0.000278185
2.20974e-08
-2.08164e-08
-4.8451e-08
-0.00027825
1.32533e-08
0.000278284
-1.01306e-08
2.25837e-08
0.000278121
-1.35832e-08
9.59151e-09
-9.92144e-09
2.25135e-08
0.000278224
-6.92446e-09
-9.80144e-05
9.80434e-05
5.00225e-09
9.80039e-05
-1.81895e-09
0.000250184
4.08018e-09
-1.90558e-07
-0.000250066
6.41014e-08
0.000245359
4.08461e-09
-0.00024539
0.00115239
3.57238e-09
-1.4002e-07
1.00834e-06
-7.5498e-07
8.30723e-07
-9.34125e-07
-0.00115245
-4.89783e-08
0.00113255
-1.20342e-07
-1.19418e-06
2.75039e-07
-2.37084e-07
-8.55582e-07
2.69208e-07
-2.15374e-07
9.13972e-07
0.000245428
-1.67254e-08
-0.000245378
-1.02703e-07
-3.79403e-09
0.00115235
-1.4161e-07
-9.36587e-07
8.28102e-07
-7.5745e-07
1.00572e-06
1.73956e-09
0.000250053
1.92763e-09
1.30071e-07
-0.000250158
-7.02436e-08
0.000229286
3.00499e-08
2.03569e-09
-0.000229248
2.46599e-08
0.000193493
-3.70219e-09
-0.000193508
-4.59065e-08
0.000193548
3.49616e-09
-0.000193512
2.88045e-08
0.000229228
-1.11358e-08
9.74482e-10
-0.000229247
0.000250153
-1.93149e-07
4.22031e-09
-0.000250036
0.00115236
-1.40004e-07
1.00837e-06
-7.57743e-07
8.30732e-07
-9.36847e-07
-0.00115241
-1.22298e-08
6.40611e-08
0.000245291
6.55762e-09
-0.000245324
-4.87505e-08
0.00113154
1.27521e-06
-1.19991e-07
-8.55561e-07
2.69082e-07
9.13804e-07
-2.15349e-07
-1.23092e-06
2.80325e-07
-2.4263e-07
0.00115231
-1.41522e-07
-9.36617e-07
8.30839e-07
-7.57492e-07
1.00845e-06
0.000245362
2.30521e-08
-1.90328e-08
-0.00024531
-1.02616e-07
0.000250023
1.32677e-07
1.63762e-09
-0.000250127
2.87215e-08
1.91431e-10
9.36714e-10
-1.11337e-08
0.000229303
-4.5894e-08
-0.000193605
3.81284e-09
0.000193641
2.47182e-08
-4.26499e-09
0.000193586
-7.02406e-08
-2.47688e-10
-0.000229323
2.20713e-09
3.00413e-08
0.000229361
1.73825e-09
1.94661e-09
1.29811e-07
0.00025008
-4.93318e-08
-1.21084e-07
1.23858e-06
-2.37016e-07
2.75013e-07
9.13985e-07
-2.15297e-07
2.69194e-07
-8.55473e-07
-1.02622e-07
-0.000245416
-1.67368e-08
0.000245467
-0.00115229
-3.82305e-09
-1.44539e-07
-9.36171e-07
8.28265e-07
-7.56983e-07
1.00586e-06
0.00115224
4.03335e-09
6.40348e-08
0.000245397
3.56411e-09
-1.43093e-07
1.00849e-06
-7.54498e-07
-9.33681e-07
8.30901e-07
-1.81559e-09
-0.000250093
4.08393e-09
-1.9059e-07
0.000250211
2.87121e-08
-1.11163e-08
9.9077e-10
0.000229267
-4.58263e-08
6.84344e-09
-0.000193552
3.42593e-09
0.000193588
2.46715e-08
-5.13935e-09
-3.76826e-09
0.000193532
-7.02231e-08
-0.000229287
3.00153e-08
2.04588e-09
0.000229325
1.32417e-07
1.65696e-09
0.00025005
-4.90303e-08
-1.2308e-06
-1.20737e-07
9.1382e-07
-2.15268e-07
-8.55461e-07
2.69074e-07
1.27518e-06
-2.4255e-07
2.80297e-07
-0.00115226
-1.44448e-07
-9.362e-07
8.31e-07
-7.57026e-07
1.00858e-06
0.0011522
2.30631e-08
-1.02531e-07
-0.000245348
-1.90461e-08
0.0002454
-1.43064e-07
1.00852e-06
-7.5726e-07
-9.36405e-07
8.30917e-07
-1.21865e-08
6.50777e-09
6.4002e-08
0.000245329
-0.000250063
-1.93181e-07
4.23296e-09
0.00025018
-2.38144e-10
0.000229328
2.26876e-09
3.21322e-08
-0.000229292
0.000193557
-3.89317e-09
-0.000193572
0.000193612
3.37775e-09
-0.000193577
5.90398e-11
0.000229272
9.87199e-10
-1.3222e-08
-0.000229289
7.01592e-08
0.000250166
-1.90518e-07
4.22672e-09
-0.000250052
0.00115237
-1.40048e-07
1.00568e-06
-7.57723e-07
8.30729e-07
-9.34122e-07
-0.00115242
-2.24562e-08
6.40651e-08
0.000245337
4.26336e-09
-0.000245371
-4.86583e-08
0.00113134
-1.20082e-07
-1.22549e-06
2.7469e-07
-2.37001e-07
-8.52892e-07
2.66374e-07
-2.12579e-07
9.11182e-07
0.00115231
-1.41557e-07
-9.33881e-07
8.3082e-07
-7.57471e-07
1.00575e-06
4.37491e-08
0.000245409
-1.66738e-08
-0.000245356
-1.02665e-07
-2.87251e-08
0.000250039
1.30056e-07
1.54975e-09
-0.00025014
0.000229292
3.21241e-08
2.1299e-09
-0.000229256
-5.19853e-09
0.000193506
-3.59895e-09
-0.00019352
0.000193559
6.73656e-09
3.49844e-09
-0.000193526
0.000229237
-1.32102e-08
7.7176e-10
-0.000229253
-2.86566e-08
1.54406e-09
2.01596e-09
1.32386e-07
0.000250089
-4.9411e-08
-1.20984e-07
1.24126e-06
-2.34109e-07
2.72154e-07
9.11204e-07
-2.12529e-07
-8.52794e-07
2.66377e-07
4.57929e-08
-1.04921e-07
-0.000245458
-1.67635e-08
0.000245513
-0.00115233
-5.05956e-09
-1.4449e-07
-9.36201e-07
8.30942e-07
1.00856e-06
-7.56983e-07
0.00115229
-2.47011e-08
3.92646e-09
6.63924e-08
0.000245438
3.30554e-09
-1.43103e-07
1.00849e-06
-7.5721e-07
-9.36421e-07
8.3086e-07
7.01555e-08
-2.02486e-09
-0.000250103
4.35633e-09
-1.93137e-07
0.000250224
6.03272e-11
9.96388e-10
-1.32025e-08
0.000229311
-0.000193616
3.32051e-09
0.000193652
-3.95981e-09
0.000193596
-2.95202e-10
-0.000229331
2.27225e-09
3.20956e-08
0.000229367
-2.8636e-08
1.29794e-07
1.57402e-09
0.000250065
-4.89563e-08
-1.22538e-06
-1.20846e-07
9.11187e-07
-2.12493e-07
-8.52782e-07
2.66362e-07
1.26969e-06
-2.36929e-07
2.74667e-07
-0.00115226
0.0011522
-1.44493e-07
-9.33474e-07
8.30971e-07
-7.57e-07
1.00858e-06
4.36684e-08
2.31104e-08
0.000245447
-1.02579e-07
-0.000245394
-1.66847e-08
-1.43111e-07
1.0058e-06
-7.57235e-07
-9.3368e-07
8.30897e-07
-2.24643e-08
-1.22833e-08
4.20124e-09
6.39986e-08
0.000245375
7.01323e-08
0.000250192
-0.000250078
-1.90542e-07
4.48241e-09
-1.31918e-08
7.88709e-10
0.000229276
6.78213e-09
0.000193599
-0.000193565
3.43203e-09
-5.13185e-09
-3.67458e-09
0.000193546
0.000229331
-0.000229295
3.20878e-08
2.14674e-09
2.47645e-08
0.000278034
-7.16988e-09
-0.00027805
-1.11878e-08
2.48084e-08
0.000278132
-6.90169e-09
-0.000278148
0.000270082
-0.000268057
2.39454e-07
2.47008e-07
0.000278101
1.00105e-08
-0.000278059
-5.09597e-08
1.99761e-08
0.000278199
9.97015e-09
-0.000278157
-5.09749e-08
5.13224e-09
9.79717e-05
-9.7988e-05
9.8009e-05
-6.82632e-09
-9.79822e-05
-2.21995e-08
-9.79931e-05
9.80222e-05
1.34796e-08
9.79827e-05
1.19127e-06
0.000268059
-1.95653e-07
-2.03311e-07
-5.08503e-08
-0.00027811
1.00561e-08
0.000278151
1.98736e-08
-2.08557e-08
-5.08658e-08
-0.000278207
1.00125e-08
0.000278249
-7.1072e-09
2.47816e-08
0.000278085
-1.12396e-08
9.79994e-09
-6.83901e-09
2.4825e-08
0.000278182
-6.86771e-09
-9.80032e-05
9.80299e-05
5.07667e-09
9.79927e-05
7.01314e-08
0.000250185
-1.90478e-07
4.78924e-09
-0.00025007
0.00115226
-1.40159e-07
1.00566e-06
-7.55005e-07
8.27996e-07
-9.3413e-07
-0.00115231
-2.24799e-08
6.65051e-08
0.000245352
4.13714e-09
-0.000245388
-4.89623e-08
0.00113244
-1.20352e-07
-1.1915e-06
2.7228e-07
-2.34316e-07
-8.52941e-07
2.69178e-07
-2.1535e-07
9.11317e-07
0.00115221
-1.4166e-07
-9.33898e-07
8.28099e-07
-7.54759e-07
1.00573e-06
4.37305e-08
0.000245426
-1.67858e-08
-0.000245371
-1.05119e-07
-2.87321e-08
0.000250057
1.30035e-07
1.19143e-09
-0.000250158
-8.75284e-11
0.000229284
2.22009e-09
3.2081e-08
-0.000229248
0.000193509
-3.68251e-09
-0.000193523
0.000193563
3.39322e-09
-0.000193529
1.28601e-10
0.000229229
8.31766e-10
-1.31844e-08
-0.000229245
0.00022932
2.16123e-09
2.99759e-08
-0.000229282
-5.18164e-09
0.000193546
-3.5984e-09
-0.00019356
0.0001936
6.92405e-09
3.24502e-09
-0.000193566
0.000229263
9.68256e-10
-1.10799e-08
-0.000229282
1.32197e-09
-2.85799e-08
1.32304e-07
1.87762e-09
0.000250052
-4.91982e-08
-1.21104e-07
1.23575e-06
-2.34169e-07
2.72125e-07
9.11069e-07
-2.15208e-07
-8.52643e-07
2.6913e-07
-0.00115203
-3.55701e-09
-1.44619e-07
-9.30588e-07
8.25419e-07
1.00298e-06
-7.51439e-07
0.00115198
4.36764e-08
-1.05061e-07
-0.0002454
-1.67531e-08
0.000245458
3.66463e-09
-1.43239e-07
1.00292e-06
-7.51671e-07
-9.30807e-07
8.25336e-07
-2.25061e-08
4.09208e-09
6.64521e-08
0.000245381
-1.28947e-09
7.00483e-08
-0.000250066
-1.93049e-07
4.06451e-09
0.000250186
-2.86231e-08
1.29768e-07
1.20879e-09
0.000250084
-4.92488e-08
-1.19138e-06
-1.21087e-07
9.11336e-07
-2.15274e-07
-8.52858e-07
2.69166e-07
1.23588e-06
-2.34241e-07
2.72259e-07
-0.00115216
-1.44577e-07
-9.33479e-07
8.28258e-07
-7.54289e-07
1.00587e-06
0.0011521
4.36559e-08
2.33063e-08
0.000245464
-1.05034e-07
-0.000245409
-1.67984e-08
-1.43213e-07
1.00581e-06
-7.54519e-07
-9.33692e-07
8.28176e-07
-2.24955e-08
-1.22022e-08
4.09052e-09
6.64427e-08
0.00024539
7.00875e-08
-0.000250097
-1.905e-07
4.80537e-09
0.000250211
1.34056e-10
8.25872e-10
-1.31526e-08
0.000229268
-0.000193569
3.33163e-09
0.000193602
-3.74461e-09
0.000193549
-9.05651e-11
-0.000229288
2.24599e-09
3.20188e-08
0.000229323
9.6976e-10
-1.10449e-08
0.000229302
6.96581e-09
0.000193639
-0.000193606
3.17905e-09
-5.13356e-09
-3.6505e-09
0.000193586
-0.000229322
2.18484e-09
2.99146e-08
0.000229359
9.79713e-05
-9.79877e-05
9.80086e-05
-9.79819e-05
9.79755e-05
-9.79919e-05
9.80129e-05
-9.79861e-05
0.000268072
-1.9814e-07
-2.03476e-07
1.9948e-08
-5.09159e-08
-0.000278202
9.90822e-09
1.97943e-08
-4.85592e-08
-0.000278149
1.06392e-08
-1.1175e-08
-7.02289e-09
2.48019e-08
0.000278177
-1.11965e-08
-7.41416e-09
2.25608e-08
0.000278124
9.80295e-05
-9.80028e-05
9.79923e-05
9.80338e-05
-9.8007e-05
9.79966e-05
1.00865e-06
-7.56795e-07
8.31005e-07
-9.36017e-07
4.48038e-10
-1.45927e-07
-2.24903e-08
6.39711e-08
4.14185e-09
0.000245414
-2.85656e-08
0.000250088
1.29571e-07
2.8007e-09
-9.81566e-11
-5.06993e-09
-3.7471e-09
0.000193585
0.000229315
-1.31885e-08
8.10299e-10
1.03767e-10
-2.25081e-08
6.64036e-08
0.000245428
4.04474e-09
-5.08207e-09
0.000193626
-3.70611e-09
9.80132e-05
9.80174e-05
-7.84526e-10
1.44011e-08
0.000143282
-3.04242e-10
-0.000143295
-0.000171014
-3.14009e-10
-2.72875e-11
0.000171047
-0.000223249
3.09426e-08
4.37266e-09
0.000223285
-6.92111e-08
-1.31911e-08
9.36058e-10
-0.000229274
-5.46682e-11
2.86745e-08
-0.000171028
-4.184e-11
8.41681e-10
-0.000223265
3.05383e-08
1.64811e-09
0.000143311
-2.65728e-08
-7.92066e-05
7.92348e-05
-1.63125e-09
3.31845e-09
0.000193558
6.8167e-09
-4.37002e-08
0.000263068
-1.90799e-08
-8.20875e-10
3.06348e-08
-0.000263082
0.000263108
-4.35929e-09
-5.92418e-08
3.2878e-10
-7.9226e-05
1.90986e-08
7.92154e-05
-0.000263094
2.65303e-08
0.000263134
-5.9202e-08
-3.64589e-09
-5.14861e-09
2.24464e-08
3.06339e-08
7.92436e-05
3.21017e-10
-3.09551e-08
-0.000143266
3.21556e-08
2.1904e-09
-2.75712e-12
-7.02014e-08
0.000170996
7.74183e-10
-3.21628e-11
-0.00017101
0.000223229
-1.44118e-08
3.05868e-08
-0.000223245
-1.73436e-11
-6.92272e-08
-0.000143279
9.80072e-05
-6.7108e-09
-2.0149e-08
5.14958e-09
1.11838e-08
1.24169e-08
-7.48436e-10
0.000143351
-1.26777e-10
-0.000143363
-0.000223332
2.89461e-08
4.32311e-09
0.00022337
-6.93585e-08
-0.000171047
-3.14986e-10
-6.13657e-11
0.000171077
6.88403e-10
-1.1136e-08
-0.000229304
4.67894e-11
3.11921e-08
8.85115e-10
-0.000223353
3.31187e-08
-0.000171059
2.56747e-11
1.42198e-09
0.000143379
-2.4473e-08
-7.92524e-05
7.92783e-05
-1.40848e-09
3.8993e-09
0.000193581
6.81687e-09
-4.59838e-08
0.000263177
-1.6939e-08
-8.67576e-10
3.31699e-08
-0.000263197
0.000263223
-4.31083e-09
-6.1827e-08
1.53512e-10
-7.92695e-05
1.69562e-08
7.92612e-05
-0.000263203
2.44339e-08
0.000263249
-6.17852e-08
-4.23531e-09
-5.10276e-09
2.47107e-08
3.31643e-08
7.9287e-05
-2.89621e-08
3.21697e-10
-0.000143336
2.44576e-09
3.0088e-08
-1.05131e-10
-7.26992e-08
0.000223312
-1.24484e-08
3.07641e-08
-0.00022333
0.000171028
7.39954e-10
3.25884e-11
-0.00017104
-7.17826e-08
-5.72039e-11
-0.000143347
9.79908e-05
-6.77663e-09
-2.23554e-08
5.16925e-09
1.3451e-08
-6.94218e-09
-7.04413e-09
0.000213709
1.01757e-08
1.21655e-08
-0.000213717
-8.05259e-05
-1.23941e-08
-1.19774e-08
8.05503e-05
-8.05147e-05
-1.22711e-08
-1.21226e-08
8.05391e-05
9.49847e-09
-8.05424e-05
9.41977e-09
-8.05312e-05
-2.49826e-08
-2.7267e-08
0.000213736
-3.60172e-08
3.34054e-08
-0.000221862
0.0002219
2.50069e-08
-5.9923e-08
0.000250637
-1.58483e-08
5.86154e-08
2.95706e-08
-0.000250684
-5.1078e-08
9.81703e-09
0.000278171
2.01119e-08
-2.30839e-08
0.000182991
1.61164e-08
-9.51544e-09
-0.000183004
0.0002507
-9.75162e-08
-5.22969e-08
0.000183022
1.19721e-08
-1.01735e-08
3.10432e-08
-0.000221883
-3.62236e-08
3.13688e-08
-0.000221801
0.000221839
2.72939e-08
-6.00641e-08
0.000250541
-1.57711e-08
6.35728e-08
2.95077e-08
-0.000250596
-4.8714e-08
1.05788e-08
0.000278115
1.99452e-08
-2.32987e-08
0.000182946
1.42437e-08
-9.43435e-09
-0.000182958
0.000250611
-1.02354e-07
-5.24936e-08
0.000182976
1.21227e-08
-1.21642e-08
3.13357e-08
-0.000221822
1.58347e-08
-1.6137e-08
0.000221879
3.10481e-08
-0.000183008
-3.33565e-08
0.00018304
2.47878e-08
-7.05958e-09
-1.11454e-08
1.23153e-08
-0.000250652
3.60096e-08
0.000250715
-9.74662e-08
-5.23006e-08
5.85992e-08
2.95358e-08
0.000221917
-5.98617e-08
1.57548e-08
-1.42602e-08
0.000221818
3.13393e-08
-0.000182963
-3.13215e-08
0.000182993
2.25492e-08
-7.44091e-09
-1.1172e-08
1.2221e-08
-0.000250557
3.62126e-08
0.000250627
-1.02304e-07
-5.24969e-08
6.35491e-08
2.94779e-08
0.000221856
-6.00057e-08
1.24196e-08
1.22924e-08
-0.000213689
8.0518e-05
6.93493e-09
-8.05344e-05
8.05067e-05
7.03951e-09
-8.05232e-05
-0.000213698
-0.00022193
-3.59692e-08
3.32167e-08
2.49025e-08
-5.96607e-08
-1.58146e-08
0.000250698
-0.000250745
5.85926e-08
2.94574e-08
1.62145e-08
0.000183061
-9.46063e-09
-0.000183074
-5.08586e-08
9.93334e-09
1.98929e-08
-2.3119e-08
-1.01833e-08
-0.00022195
3.10945e-08
-9.72819e-08
-5.23055e-08
1.19886e-08
-0.000221869
-3.61597e-08
3.11856e-08
2.71735e-08
-5.98117e-08
-1.57473e-08
0.000250603
-0.000250657
6.35328e-08
2.94087e-08
1.43164e-08
0.000183016
-9.39207e-09
-0.000183028
-4.85054e-08
1.06572e-08
1.97469e-08
-2.33119e-08
-1.21942e-08
-0.00022189
3.13761e-08
-1.02124e-07
-5.25077e-08
1.21113e-08
-0.000213766
1.23209e-08
1.22178e-08
6.9663e-09
8.05497e-05
-8.05661e-05
7.05318e-09
8.05385e-05
-8.05549e-05
-0.000213775
9.80052e-05
-2.00043e-08
1.11395e-08
9.80044e-05
-2.00122e-08
1.11993e-08
-6.98079e-09
-7.01663e-09
0.000213709
1.22105e-08
1.01259e-08
-0.000213717
-8.05262e-05
-1.23853e-08
-1.20063e-08
8.05505e-05
-8.05127e-05
-1.23008e-08
-1.21041e-08
8.05371e-05
9.46062e-09
-8.05426e-05
9.44015e-09
-8.05291e-05
-2.71019e-08
-2.51888e-08
0.000213736
3.14538e-08
-3.60945e-08
-0.000221863
0.0002219
2.71194e-08
-6.0098e-08
0.000250635
-1.58203e-08
6.36449e-08
2.69704e-08
-0.000250687
1.03994e-08
-4.87488e-08
0.000278163
-2.08037e-08
0.000182991
1.42249e-08
-9.47656e-09
-0.000183003
0.000183021
1.20097e-08
0.000250702
-1.02508e-07
-4.98013e-08
-1.22127e-08
3.12743e-08
-0.000221883
3.14058e-08
-3.62243e-08
-0.000221797
0.000221839
2.5213e-08
-6.2294e-08
0.000250544
-1.5791e-08
6.36133e-08
3.2046e-08
-0.000250602
1.05362e-08
-4.87777e-08
0.000278122
-2.32614e-08
0.000182941
1.42391e-08
-9.45116e-09
-0.000182954
0.000182971
1.21044e-08
0.000250617
-1.0248e-07
-5.50164e-08
-1.01232e-08
3.35163e-08
-0.000221822
-1.42425e-08
0.00022188
1.5805e-08
3.12757e-08
-0.000183009
-3.13994e-08
0.000183038
-7.4741e-09
2.2522e-08
9.86038e-09
3.60882e-08
-0.00025065
0.000250718
-1.02458e-07
-4.98057e-08
0.000221917
-6.00401e-08
6.36262e-08
2.69367e-08
-1.42514e-08
0.000221814
1.57762e-08
3.35129e-08
-0.000182959
-3.13648e-08
0.000182989
-7.45836e-09
2.25484e-08
1.22391e-08
3.62131e-08
-0.000250559
0.000250632
-1.02428e-07
-5.50227e-08
0.000221856
-6.22421e-08
6.35832e-08
3.20196e-08
1.2404e-08
1.23205e-08
-0.000213689
8.05182e-05
6.97394e-09
-8.05346e-05
8.05047e-05
7.01315e-09
-8.05212e-05
-0.000213698
-9.80262e-05
1.12015e-08
5.08948e-09
-1.98992e-08
-6.8652e-09
-9.80254e-05
1.12493e-08
5.05444e-09
-1.99178e-08
-6.85455e-09
-0.000213728
1.23646e-08
1.22843e-08
-2.70773e-08
-2.51608e-08
0.000213756
6.99061e-09
8.05341e-05
9.43944e-09
7.01768e-09
8.05206e-05
9.43052e-09
1.22106e-08
1.01313e-08
-1.20048e-08
8.05585e-05
-1.20988e-08
8.0545e-05
-1.42785e-08
1.57828e-08
0.000221914
-0.000221934
-1.22171e-08
3.13023e-08
-0.000250681
3.60611e-08
-1.02329e-07
-4.98212e-08
0.000250748
-7.39513e-09
2.25574e-08
-0.000278214
9.79855e-09
-0.000183044
-3.12986e-08
1.2007e-08
0.000183074
-0.000183056
-9.42269e-09
-0.000250733
6.36179e-08
2.68741e-08
2.70517e-08
-5.99062e-08
0.000221951
-1.4284e-08
1.57646e-08
0.000221848
-0.000221873
-1.01406e-08
3.35323e-08
-0.00025059
3.61808e-08
-1.0231e-07
-5.50315e-08
0.000250663
-7.40076e-09
2.25773e-08
-0.000278173
1.21934e-08
-0.000182994
-3.12721e-08
1.20958e-08
0.000183024
-0.000183006
-9.4149e-09
-0.000250647
6.35665e-08
3.19676e-08
2.51299e-08
-6.21163e-08
0.00022189
-0.000221897
3.13494e-08
-3.60714e-08
-5.99724e-08
1.4253e-08
0.000183026
-1.57923e-08
0.000250665
6.36155e-08
2.69066e-08
1.04488e-08
-4.8644e-08
-2.08216e-08
3.12812e-08
-1.0239e-07
-4.98169e-08
-0.000221831
3.13197e-08
-3.61958e-08
-6.21786e-08
1.42659e-08
0.000182977
-1.57712e-08
0.000250575
6.35706e-08
3.19913e-08
1.05736e-08
-4.86832e-08
-2.32654e-08
3.35178e-08
-1.0237e-07
-5.50275e-08
-6.99895e-09
-7.02471e-09
0.000213747
-8.05421e-05
-1.23391e-08
8.05664e-05
-8.05286e-05
-1.22622e-08
8.05529e-05
0.000213775
-6.90724e-10
1.2408e-08
0.000143352
-1.63651e-10
-0.000143364
-0.000171049
-3.39812e-10
0.000171081
-0.000223333
2.89629e-08
4.32367e-09
0.000223374
-7.17787e-08
-1.32181e-08
6.09506e-10
-0.00022931
2.87014e-08
-0.000171063
7.69721e-10
-0.000223354
3.30707e-08
1.40624e-09
0.000143379
-2.44955e-08
-7.92511e-05
7.9277e-05
-1.3922e-09
3.53761e-09
0.000193593
-4.38411e-08
0.000263174
-1.69056e-08
-7.52833e-10
3.31565e-08
-0.000263193
0.000263219
-4.31197e-09
-6.18106e-08
1.87278e-10
-7.92682e-05
1.69248e-08
7.92599e-05
-0.0002632
2.4454e-08
0.000263245
-6.17726e-08
-3.70025e-09
2.25375e-08
3.31546e-08
7.92857e-05
3.4852e-10
-2.89789e-08
-0.000143336
3.21776e-08
2.39985e-09
-7.02219e-08
0.00017103
6.82427e-10
-0.000171044
0.000223313
-1.24192e-08
3.31258e-08
-0.000223334
-7.17836e-08
-0.000143348
-0.000143298
3.04776e-10
-3.09127e-08
1.65988e-09
0.000143326
7.96096e-10
0.000171033
-3.32714e-11
-1.43985e-08
0.000223269
8.61312e-10
3.05104e-08
3.21172e-08
2.20341e-09
0.000229313
-5.86853e-12
-7.01826e-08
-2.83465e-10
0.000171065
-1.78345e-11
4.38843e-09
0.000223306
-6.91937e-08
7.92329e-05
1.91362e-08
-7.92523e-05
2.57441e-10
-3.71527e-09
-0.000193598
2.24668e-08
2.64428e-08
-0.000263145
-4.40456e-09
-5.91091e-08
0.000263186
-1.67213e-09
7.9261e-05
-0.00026316
-8.81196e-10
3.0642e-08
-7.92242e-05
-2.64851e-08
-1.91167e-08
0.00026312
3.06341e-08
3.24859e-09
-4.3628e-08
-5.91571e-08
0.000143313
-8.10467e-10
1.43816e-08
-1.31704e-08
9.60131e-10
-5.73081e-11
2.8581e-08
-2.95658e-10
-0.000171051
-3.03227e-11
0.000171084
3.08908e-08
-0.00022329
-6.91719e-08
0.000223326
0.000143342
-4.50275e-11
3.04694e-08
-0.000143368
3.35267e-10
-2.89414e-08
1.41932e-09
0.000143395
7.02603e-10
0.000171067
-1.23976e-08
0.000223353
7.87693e-10
3.30422e-08
3.21363e-08
2.40877e-09
0.000229349
-7.02027e-08
-1.41666e-10
0.0001711
4.33749e-09
0.000223394
-7.17584e-08
1.69564e-08
7.92774e-05
-7.92945e-05
1.22667e-10
-3.76474e-09
-0.000193633
-5.09221e-09
2.25529e-08
-0.000263252
2.43644e-08
-4.34995e-09
-6.16839e-08
0.000263297
-0.000263271
-8.07748e-10
3.31599e-08
-1.43414e-09
7.93032e-05
-7.92686e-05
-2.44078e-08
-1.69431e-08
0.000263226
3.31567e-08
3.47444e-09
6.75351e-09
-4.377e-08
-6.17318e-08
-7.14693e-10
1.23906e-08
0.000143383
-1.31918e-08
6.24466e-10
2.86074e-08
-0.000171086
-3.25632e-10
0.000171118
-0.000223374
2.89269e-08
-7.1744e-08
0.000223414
3.29985e-08
0.000143411
-6.95033e-09
-7.08725e-09
0.000213715
1.23382e-08
1.00617e-08
-0.000213723
-8.0515e-05
-1.24446e-08
-1.19533e-08
8.05394e-05
-8.05287e-05
-1.22803e-08
-1.21146e-08
8.05531e-05
9.50658e-09
-8.05315e-05
9.36743e-09
-8.05451e-05
-2.7148e-08
-2.51935e-08
0.000213742
3.17144e-08
-3.85007e-08