/*--------------------------------*- C++ -*----------------------------------*\
| =========                 |                                                 |
| \\      /  F ield         | OpenFOAM: The Open Source CFD Toolbox           |
|  \\    /   O peration     | Version:  v1912                                 |
|   \\  /    A nd           | Website:  www.openfoam.com                      |
|    \\/     M anipulation  |                                                 |
\*---------------------------------------------------------------------------*/
FoamFile
{
    version     2.0;
    format      ascii;
    class       volScalarField;
    location    "1.15";
    object      nut;
}
// * * * * * * * * * * * * * * * * * * * * * * * * * * * * * * * * * * * * * //

dimensions      [0 2 -1 0 0 0 0];


internalField   nonuniform List<scalar> 
171728
(
8.33071e-07
8.59672e-07
8.60132e-07
3.43245e-07
5.5585e-08
6.50886e-08
6.52659e-08
8.49922e-08
4.37607e-09
5.59179e-09
5.58704e-09
8.29603e-08
1.21767e-09
3.31708e-09
3.29152e-09
8.30648e-08
1.26386e-09
3.13193e-09
3.13642e-09
8.30689e-08
1.26419e-09
3.1257e-09
3.13068e-09
8.3069e-08
1.25495e-09
3.13371e-09
3.12746e-09
8.30694e-08
1.26626e-09
3.13512e-09
3.13243e-09
8.30689e-08
1.26995e-09
3.13319e-09
3.12617e-09
8.30709e-08
1.26674e-09
3.13229e-09
3.12847e-09
8.30697e-08
1.2667e-09
3.13191e-09
3.13196e-09
8.30702e-08
1.27454e-09
3.12869e-09
3.13061e-09
8.30707e-08
1.279e-09
3.15585e-09
3.13167e-09
8.30703e-08
1.28368e-09
3.15727e-09
3.12915e-09
8.307e-08
1.26096e-09
3.12299e-09
3.13261e-09
8.30705e-08
1.26375e-09
3.12337e-09
3.12822e-09
8.30709e-08
1.27272e-09
3.13377e-09
3.13088e-09
8.30716e-08
1.26581e-09
3.12535e-09
3.13061e-09
8.30709e-08
1.26196e-09
3.1167e-09
3.13078e-09
8.30698e-08
1.25319e-09
3.1467e-09
3.12528e-09
8.30638e-08
1.35799e-09
3.13241e-09
3.13105e-09
8.30728e-08
1.2663e-09
3.13506e-09
3.13067e-09
8.30729e-08
1.26994e-09
3.13366e-09
3.13149e-09
8.30732e-08
1.26926e-09
3.13329e-09
3.1315e-09
8.30731e-08
1.27107e-09
3.13281e-09
3.13135e-09
8.30735e-08
1.26979e-09
3.13321e-09
3.13101e-09
8.30733e-08
1.27022e-09
3.13381e-09
3.13178e-09
8.30735e-08
1.27031e-09
3.13309e-09
3.13105e-09
8.30735e-08
1.26981e-09
3.1324e-09
3.13037e-09
8.3073e-08
1.2706e-09
3.13383e-09
3.13194e-09
8.30729e-08
1.26953e-09
3.13328e-09
3.13108e-09
8.30733e-08
1.2705e-09
3.13105e-09
3.13106e-09
8.30735e-08
1.27065e-09
3.13503e-09
3.13186e-09
8.30733e-08
1.26942e-09
3.13435e-09
3.13181e-09
8.30732e-08
1.27004e-09
3.13451e-09
3.13203e-09
8.30736e-08
1.27012e-09
3.13324e-09
3.13154e-09
8.3073e-08
1.27088e-09
3.1349e-09
3.13322e-09
8.30733e-08
1.27069e-09
3.13404e-09
3.13236e-09
8.30739e-08
1.27039e-09
3.13491e-09
3.13881e-09
8.30739e-08
1.28769e-09
3.1414e-09
3.13771e-09
8.30588e-08
1.4287e-09
3.11612e-09
3.13317e-09
8.30724e-08
1.26938e-09
3.12658e-09
3.12609e-09
8.30735e-08
1.2718e-09
3.13293e-09
3.1254e-09
8.3074e-08
1.273e-09
3.1314e-09
3.1261e-09
8.30739e-08
1.2751e-09
3.13163e-09
3.12996e-09
8.30738e-08
1.27353e-09
3.13085e-09
3.12668e-09
8.30742e-08
1.27287e-09
3.1303e-09
3.12998e-09
8.3075e-08
1.27306e-09
3.13095e-09
3.13332e-09
8.30746e-08
1.27338e-09
3.13184e-09
3.13434e-09
8.30741e-08
1.27337e-09
3.13094e-09
3.13347e-09
8.30742e-08
1.27331e-09
3.13058e-09
3.13362e-09
8.30741e-08
1.27401e-09
3.13113e-09
3.13257e-09
8.3074e-08
1.2746e-09
3.13223e-09
3.13371e-09
8.30741e-08
1.27506e-09
3.13924e-09
3.13276e-09
8.30741e-08
1.27681e-09
3.13232e-09
3.13415e-09
8.30735e-08
1.27254e-09
3.12991e-09
3.13223e-09
8.30698e-08
1.27141e-09
3.13455e-09
3.13209e-09
8.30613e-08
1.27132e-09
3.13413e-09
3.1311e-09
8.30611e-08
1.27164e-09
3.13515e-09
3.13227e-09
8.3061e-08
1.27183e-09
3.13456e-09
3.13086e-09
8.30609e-08
1.27183e-09
3.1349e-09
3.1324e-09
8.30607e-08
1.27102e-09
3.13417e-09
3.13104e-09
8.30611e-08
1.27088e-09
3.13508e-09
3.132e-09
8.30603e-08
1.27208e-09
3.13499e-09
3.13219e-09
8.30605e-08
1.27157e-09
3.1354e-09
3.13239e-09
8.30607e-08
1.27098e-09
3.13507e-09
3.13205e-09
8.30603e-08
1.27103e-09
3.13363e-09
3.13062e-09
8.30604e-08
1.2703e-09
3.13393e-09
3.13133e-09
8.30606e-08
1.26651e-09
3.13321e-09
3.13161e-09
8.30608e-08
1.26301e-09
3.13488e-09
3.11381e-09
8.30623e-08
1.2674e-09
3.13609e-09
3.12776e-09
8.30583e-08
1.27169e-09
3.13502e-09
3.13221e-09
8.30601e-08
1.27081e-09
3.13446e-09
3.131e-09
8.30603e-08
1.27069e-09
3.13433e-09
3.13058e-09
8.30593e-08
1.27201e-09
3.13476e-09
3.13079e-09
8.3059e-08
1.27097e-09
3.13438e-09
3.13055e-09
8.30589e-08
1.2714e-09
3.1348e-09
3.1308e-09
8.30592e-08
1.2716e-09
3.13477e-09
3.13104e-09
8.30591e-08
1.27177e-09
3.13409e-09
3.13099e-09
8.30589e-08
1.27145e-09
3.13559e-09
3.13255e-09
8.30593e-08
1.27091e-09
3.13472e-09
3.1317e-09
8.30591e-08
1.27121e-09
3.13446e-09
3.13137e-09
8.30592e-08
1.27143e-09
3.13481e-09
3.13176e-09
8.3059e-08
1.27338e-09
3.13489e-09
3.13187e-09
8.30592e-08
1.27325e-09
3.13463e-09
3.13158e-09
8.3059e-08
1.27344e-09
3.13476e-09
3.1322e-09
8.30585e-08
1.27345e-09
3.13549e-09
3.13269e-09
8.30593e-08
1.27243e-09
3.13383e-09
3.13119e-09
8.30588e-08
1.27299e-09
3.13402e-09
3.13082e-09
8.30586e-08
1.27396e-09
3.13504e-09
3.13175e-09
8.30589e-08
1.27629e-09
3.13386e-09
3.12889e-09
8.30612e-08
1.34661e-09
3.1568e-09
3.16264e-09
8.30601e-08
3.56351e-09
4.1438e-09
4.20137e-09
8.29956e-08
4.52528e-08
4.10786e-08
4.10411e-08
8.22037e-08
3.6835e-07
2.04762e-07
2.04797e-07
3.96937e-07
2.76568e-07
5.5708e-07
5.57355e-07
2.76619e-07
5.57138e-07
5.57262e-07
1.5661e-06
1.56613e-06
1.56612e-06
1.56614e-06
5.56956e-07
5.57027e-07
2.76405e-07
5.56887e-07
5.57154e-07
2.7636e-07
3.43305e-07
2.17982e-07
8.60203e-07
8.60153e-07
1.42787e-07
1.42765e-07
3.43231e-07
2.17867e-07
8.60104e-07
8.6072e-07
1.42956e-07
1.42861e-07
8.60425e-07
1.42835e-07
1.42731e-07
3.43257e-07
2.17968e-07
8.60185e-07
1.4287e-07
1.42855e-07
2.17979e-07
8.50466e-08
2.12594e-07
6.51607e-08
6.51819e-08
8.51888e-09
8.59933e-09
8.50147e-08
2.12669e-07
6.51878e-08
6.51743e-08
8.47838e-09
8.53534e-09
6.51674e-08
8.42106e-09
8.50885e-09
8.50587e-08
2.12624e-07
6.53074e-08
8.50113e-09
8.45552e-09
2.12623e-07
8.28793e-08
2.12273e-07
5.62727e-09
5.6142e-09
3.48666e-09
3.48138e-09
8.28824e-08
2.12278e-07
5.6443e-09
5.62328e-09
3.46243e-09
3.4903e-09
5.63843e-09
3.4647e-09
3.50238e-09
8.29325e-08
2.12295e-07
5.65129e-09
3.43506e-09
3.42779e-09
2.12257e-07
8.30441e-08
2.12254e-07
3.32601e-09
3.36192e-09
3.18032e-09
3.17933e-09
8.3023e-08
2.12248e-07
3.27906e-09
3.33151e-09
3.14036e-09
3.18572e-09
3.34549e-09
3.13728e-09
3.17446e-09
8.30624e-08
2.12272e-07
3.29971e-09
3.12669e-09
3.13079e-09
2.12224e-07
8.30481e-08
2.12253e-07
3.17749e-09
3.1768e-09
3.17231e-09
3.18072e-09
8.30308e-08
2.12241e-07
3.12396e-09
3.18081e-09
3.14497e-09
3.1746e-09
3.16738e-09
3.12456e-09
3.16264e-09
8.30609e-08
2.1227e-07
3.12553e-09
3.1157e-09
3.11879e-09
2.12223e-07
8.30479e-08
2.12255e-07
3.175e-09
3.18978e-09
3.15761e-09
3.20765e-09
8.30348e-08
2.1225e-07
3.11273e-09
3.17488e-09
3.13936e-09
3.17193e-09
3.16206e-09
3.13725e-09
3.15881e-09
8.30612e-08
2.12275e-07
3.11998e-09
3.11233e-09
3.11589e-09
2.12227e-07
8.30518e-08
2.12258e-07
3.13008e-09
3.19922e-09
3.19261e-09
3.18696e-09
8.3027e-08
2.12251e-07
3.106e-09
3.17286e-09
3.14394e-09
3.17311e-09
3.15826e-09
3.13495e-09
3.1603e-09
8.30612e-08
2.12274e-07
3.11736e-09
3.11426e-09
3.11826e-09
2.12225e-07
8.30525e-08
2.12259e-07
3.17559e-09
3.18992e-09
3.17369e-09
3.1887e-09
8.30239e-08
2.12248e-07
3.11869e-09
3.17589e-09
3.14825e-09
3.17493e-09
3.1616e-09
3.13559e-09
3.16177e-09
8.30607e-08
2.12271e-07
3.12202e-09
3.11597e-09
3.1199e-09
2.12221e-07
8.30312e-08
2.12258e-07
3.17369e-09
3.18788e-09
3.14874e-09
3.16966e-09
8.30257e-08
2.12264e-07
3.11592e-09
3.17568e-09
3.13126e-09
3.17186e-09
3.16059e-09
3.12972e-09
3.15738e-09
8.30626e-08
2.12278e-07
3.11848e-09
3.11155e-09
3.11543e-09
2.1223e-07
8.30397e-08
2.12241e-07
3.15715e-09
3.13453e-09
3.18965e-09
3.12353e-09
8.30188e-08
2.1225e-07
3.1211e-09
3.17403e-09
3.12967e-09
3.17546e-09
3.15786e-09
3.1323e-09
3.1613e-09
8.30615e-08
2.12273e-07
3.11817e-09
3.11568e-09
3.11973e-09
2.12223e-07
8.30517e-08
2.12252e-07
3.2209e-09
3.14569e-09
3.17314e-09
3.12868e-09
8.30243e-08
2.12248e-07
3.12957e-09
3.17639e-09
3.13566e-09
3.17363e-09
3.16097e-09
3.13201e-09
3.15916e-09
8.30615e-08
2.12274e-07
3.12144e-09
3.11437e-09
3.11706e-09
2.12227e-07
8.30397e-08
2.12249e-07
3.17271e-09
3.11769e-09
3.17032e-09
3.12126e-09
8.30252e-08
2.12276e-07
3.12985e-09
3.17473e-09
3.13002e-09
3.17281e-09
3.1594e-09
3.14363e-09
3.1638e-09
8.30627e-08
2.12274e-07
3.1185e-09
3.1156e-09
3.1173e-09
2.12227e-07
8.30414e-08
2.12253e-07
3.17267e-09
3.13338e-09
3.16117e-09
3.19341e-09
8.30213e-08
2.12276e-07
3.12481e-09
3.17424e-09
3.11938e-09
3.17064e-09
3.16453e-09
3.14969e-09
3.16204e-09
8.3063e-08
2.12277e-07
3.12015e-09
3.11304e-09
3.11663e-09
2.12231e-07
8.30365e-08
2.12242e-07
3.16368e-09
3.20181e-09
3.19119e-09
3.18188e-09
8.30272e-08
2.12257e-07
3.1161e-09
3.1722e-09
3.11459e-09
3.17501e-09
3.16163e-09
3.13039e-09
3.16367e-09
8.30627e-08
2.12273e-07
3.11921e-09
3.11636e-09
3.1208e-09
2.12224e-07
8.30449e-08
2.1225e-07
3.18326e-09
3.17118e-09
3.17594e-09
3.23605e-09
8.30371e-08
2.12246e-07
3.13189e-09
3.17658e-09
3.1343e-09
3.17108e-09
3.16395e-09
3.13126e-09
3.15818e-09
8.30627e-08
2.12278e-07
3.12271e-09
3.11245e-09
3.11528e-09
2.12231e-07
8.30423e-08
2.12244e-07
3.17499e-09
3.20478e-09
3.18162e-09
3.18783e-09
8.30536e-08
2.12228e-07
3.1306e-09
3.17233e-09
3.13446e-09
3.17404e-09
3.1574e-09
3.13057e-09
3.16174e-09
8.30629e-08
2.12275e-07
3.11686e-09
3.11502e-09
3.11905e-09
2.12226e-07
8.3044e-08
2.12245e-07
3.16628e-09
3.18658e-09
3.18346e-09
3.17576e-09
8.30469e-08
2.12272e-07
3.13218e-09
3.17518e-09
3.13434e-09
3.17313e-09
3.16146e-09
3.13309e-09
3.16103e-09
8.30633e-08
2.12278e-07
3.12084e-09
3.11367e-09
3.11793e-09
2.12229e-07
8.30411e-08
2.12264e-07
3.15988e-09
3.16641e-09
3.15262e-09
3.1623e-09
8.30571e-08
2.12273e-07
3.13072e-09
3.17591e-09
3.12747e-09
3.17562e-09
3.16238e-09
3.11104e-09
3.16053e-09
8.30627e-08
2.12277e-07
3.12075e-09
3.11465e-09
3.11487e-09
2.12231e-07
8.30453e-08
2.12233e-07
3.15338e-09
3.18771e-09
3.21686e-09
3.26779e-09
8.30886e-08
2.12313e-07
3.12184e-09
3.17665e-09
3.14773e-09
3.17071e-09
3.15864e-09
3.15645e-09
3.16985e-09
8.30633e-08
2.12278e-07
3.11278e-09
3.1113e-09
3.11339e-09
2.12244e-07
8.30838e-08
2.12303e-07
3.17775e-09
3.20456e-09
3.16461e-09
3.23459e-09
8.30293e-08
2.1227e-07
3.14734e-09
3.17069e-09
2.98723e-09
3.1758e-09
3.18325e-09
3.1192e-09
3.16229e-09
8.30653e-08
2.12282e-07
3.13131e-09
3.11138e-09
3.11847e-09
2.12234e-07
8.30373e-08
2.12269e-07
3.21655e-09
3.22304e-09
3.19197e-09
3.18291e-09
8.30418e-08
2.12263e-07
3.06794e-09
3.17383e-09
3.14587e-09
3.17257e-09
3.16125e-09
3.13987e-09
3.15971e-09
8.30642e-08
2.1228e-07
3.11955e-09
3.11448e-09
3.11864e-09
2.12232e-07
8.30653e-08
2.12267e-07
3.18445e-09
3.18867e-09
3.1731e-09
3.18878e-09
8.3043e-08
2.12264e-07
3.13201e-09
3.17374e-09
3.13675e-09
3.17413e-09
3.1597e-09
3.13528e-09
3.16071e-09
8.3065e-08
2.1228e-07
3.12013e-09
3.11533e-09
3.11904e-09
2.12231e-07
8.30649e-08
2.12267e-07
3.17874e-09
3.19171e-09
3.1712e-09
3.1879e-09
8.3043e-08
2.12264e-07
3.12999e-09
3.17485e-09
3.1348e-09
3.17317e-09
3.16094e-09
3.13482e-09
3.15938e-09
8.3065e-08
2.1228e-07
3.12113e-09
3.1151e-09
3.12737e-09
2.12232e-07
8.3065e-08
2.12267e-07
3.17664e-09
3.19062e-09
3.17036e-09
3.1878e-09
8.3043e-08
2.12264e-07
3.1283e-09
3.17369e-09
3.13397e-09
3.17301e-09
3.16008e-09
3.13443e-09
3.1599e-09
8.30651e-08
2.1228e-07
3.12823e-09
3.11497e-09
3.12312e-09
2.12231e-07
8.30643e-08
2.12268e-07
3.17801e-09
3.19113e-09
3.16994e-09
3.18755e-09
8.30429e-08
2.12264e-07
3.12967e-09
3.17417e-09
3.13354e-09
3.17295e-09
3.15919e-09
3.13484e-09
3.16086e-09
8.3065e-08
2.1228e-07
3.1253e-09
3.11449e-09
3.12184e-09
2.12231e-07
8.30648e-08
2.12265e-07
3.17611e-09
3.19043e-09
3.17247e-09
3.18926e-09
8.30431e-08
2.12262e-07
3.1278e-09
3.17361e-09
3.13605e-09
3.17454e-09
3.16089e-09
3.13571e-09
3.16008e-09
8.30651e-08
2.12278e-07
3.12456e-09
3.11582e-09
3.12218e-09
2.12231e-07
8.3065e-08
2.12268e-07
3.17825e-09
3.1916e-09
3.16986e-09
3.18729e-09
8.30433e-08
2.12264e-07
3.12989e-09
3.17473e-09
3.13347e-09
3.17257e-09
3.15996e-09
3.13435e-09
3.15994e-09
8.30653e-08
2.12281e-07
3.12404e-09
3.11449e-09
3.12206e-09
2.12232e-07
8.30645e-08
2.12268e-07
3.17717e-09
3.19094e-09
3.17048e-09
3.1876e-09
8.30431e-08
2.12265e-07
3.12884e-09
3.17406e-09
3.13408e-09
3.17289e-09
3.15997e-09
3.13441e-09
3.15973e-09
8.30651e-08
2.12281e-07
3.12405e-09
3.11455e-09
3.12185e-09
2.12233e-07
8.30646e-08
2.12268e-07
3.17645e-09
3.18997e-09
3.17135e-09
3.18857e-09
8.3043e-08
2.12264e-07
3.12811e-09
3.17309e-09
3.13492e-09
3.17382e-09
3.15997e-09
3.13527e-09
3.16051e-09
8.3065e-08
2.1228e-07
3.12405e-09
3.11545e-09
3.12263e-09
2.12231e-07
8.30644e-08
2.12268e-07
3.17784e-09
3.19183e-09
3.17088e-09
3.18684e-09
8.30427e-08
2.12264e-07
3.12949e-09
3.17465e-09
3.13409e-09
3.17327e-09
3.16087e-09
3.13514e-09
3.16058e-09
8.30647e-08
2.1228e-07
3.12494e-09
3.11514e-09
3.12275e-09
2.12231e-07
8.30648e-08
2.12266e-07
3.17668e-09
3.17246e-09
3.17115e-09
3.19173e-09
8.30441e-08
2.12257e-07
3.12821e-09
3.1738e-09
3.13472e-09
3.17325e-09
3.16023e-09
3.13812e-09
3.15977e-09
8.30651e-08
2.1228e-07
3.12424e-09
3.11492e-09
3.12189e-09
2.12232e-07
8.30647e-08
2.12267e-07
3.17836e-09
3.19164e-09
3.17023e-09
3.19357e-09
8.30455e-08
2.1227e-07
3.12974e-09
3.17389e-09
3.13387e-09
3.17345e-09
3.15971e-09
3.13634e-09
3.16071e-09
8.30652e-08
2.12279e-07
3.12378e-09
3.11541e-09
3.12284e-09
2.1223e-07
8.30643e-08
2.12268e-07
3.17774e-09
3.19621e-09
3.17093e-09
3.19268e-09
8.30391e-08
2.12271e-07
3.12942e-09
3.17466e-09
3.13451e-09
3.17304e-09
3.16031e-09
3.13573e-09
3.15945e-09
8.30649e-08
2.1228e-07
3.12434e-09
3.11538e-09
3.12209e-09
2.12232e-07
8.30652e-08
2.12267e-07
3.17623e-09
3.19524e-09
3.17141e-09
3.193e-09
8.30394e-08
2.12271e-07
3.12791e-09
3.17339e-09
3.13501e-09
3.17424e-09
3.15999e-09
3.13552e-09
3.16021e-09
8.30652e-08
2.12281e-07
3.12466e-09
3.11133e-09
3.11806e-09
2.12233e-07
8.30648e-08
2.12268e-07
3.17771e-09
3.19627e-09
3.17059e-09
3.19219e-09
8.30392e-08
2.12272e-07
3.12938e-09
3.17456e-09
3.13418e-09
3.17302e-09
3.16001e-09
3.13433e-09
3.15878e-09
8.30655e-08
2.12282e-07
3.12473e-09
3.11234e-09
3.11924e-09
2.12234e-07
8.30645e-08
2.12268e-07
3.17695e-09
3.19505e-09
3.17054e-09
3.19285e-09
8.3039e-08
2.12271e-07
3.12861e-09
3.17306e-09
3.13415e-09
3.17362e-09
3.1595e-09
3.1355e-09
3.15966e-09
8.30652e-08
2.12281e-07
3.12522e-09
3.11355e-09
3.12019e-09
2.12233e-07
8.30641e-08
2.12267e-07
3.17794e-09
3.19645e-09
3.17098e-09
3.19302e-09
8.30387e-08
2.12271e-07
3.12961e-09
3.17443e-09
3.13456e-09
3.17378e-09
3.15999e-09
3.1357e-09
3.16153e-09
8.30649e-08
2.12281e-07
3.12575e-09
3.11376e-09
3.12209e-09
2.12231e-07
8.30646e-08
2.12268e-07
3.17753e-09
3.19554e-09
3.17066e-09
3.19243e-09
8.30392e-08
2.12271e-07
3.12919e-09
3.17348e-09
3.13419e-09
3.17288e-09
3.15958e-09
3.13611e-09
3.16039e-09
8.30655e-08
2.1228e-07
3.12541e-09
3.11464e-09
3.12168e-09
2.12232e-07
8.30646e-08
2.12267e-07
3.17794e-09
3.19519e-09
3.18234e-09
3.18567e-09
8.30393e-08
2.1227e-07
3.12919e-09
3.1728e-09
3.1302e-09
3.17212e-09
3.15798e-09
3.1373e-09
3.13304e-09
8.30651e-08
2.12281e-07
3.12592e-09
3.1107e-09
3.10339e-09
2.12233e-07
8.30602e-08
2.12269e-07
3.17423e-09
3.19529e-09
3.12191e-09
3.18889e-09
8.30411e-08
2.12291e-07
3.11257e-09
3.17188e-09
3.10275e-09
3.17996e-09
3.13683e-09
3.12389e-09
3.20229e-09
8.30645e-08
2.12283e-07
3.02926e-09
3.11311e-09
3.11404e-09
2.12238e-07
8.30558e-08
2.12262e-07
3.1598e-09
3.15317e-09
3.17542e-09
3.18976e-09
8.30484e-08
2.12298e-07
3.01444e-09
3.18141e-09
3.15095e-09
3.1749e-09
3.17566e-09
3.12902e-09
3.16251e-09
8.30644e-08
2.12282e-07
3.14422e-09
3.1207e-09
3.12263e-09
2.12233e-07
8.30537e-08
2.12257e-07
3.17037e-09
3.19745e-09
3.16529e-09
3.19991e-09
8.30897e-08
2.12291e-07
3.11258e-09
3.17433e-09
3.14594e-09
3.17351e-09
3.16127e-09
3.13564e-09
3.16074e-09
8.30649e-08
2.12282e-07
3.12543e-09
3.11977e-09
3.12041e-09
2.12233e-07
8.30498e-08
2.12255e-07
3.16831e-09
3.19297e-09
3.16522e-09
3.18825e-09
8.30586e-08
2.12291e-07
3.11284e-09
3.17346e-09
3.14756e-09
3.17419e-09
3.15936e-09
3.13264e-09
3.16118e-09
8.30648e-08
2.12282e-07
3.12404e-09
3.1206e-09
3.12129e-09
2.12233e-07
8.30504e-08
2.12254e-07
3.16788e-09
3.18809e-09
3.16543e-09
3.18759e-09
8.30573e-08
2.1229e-07
3.11361e-09
3.17424e-09
3.1451e-09
3.17425e-09
3.16038e-09
3.13275e-09
3.16042e-09
8.3065e-08
2.12281e-07
3.12534e-09
3.11835e-09
3.12079e-09
2.12233e-07
8.30501e-08
2.12254e-07
3.16852e-09
3.18802e-09
3.16486e-09
3.18765e-09
8.30572e-08
2.12291e-07
3.11348e-09
3.17458e-09
3.1487e-09
3.17434e-09
3.1603e-09
3.13253e-09
3.16116e-09
8.30649e-08
2.12281e-07
3.1256e-09
3.12158e-09
3.12408e-09
2.12232e-07
8.30504e-08
2.12255e-07
3.16821e-09
3.18734e-09
3.16444e-09
3.18668e-09
8.30576e-08
2.12291e-07
3.11418e-09
3.17425e-09
3.14875e-09
3.1741e-09
3.16022e-09
3.13183e-09
3.16051e-09
8.30651e-08
2.12282e-07
3.12431e-09
3.12049e-09
3.12151e-09
2.12234e-07
8.30503e-08
2.12255e-07
3.16782e-09
3.18671e-09
3.16514e-09
3.18766e-09
8.30575e-08
2.12292e-07
3.11391e-09
3.17416e-09
3.14875e-09
3.17489e-09
3.15834e-09
3.13216e-09
3.16128e-09
8.30653e-08
2.12282e-07
3.12768e-09
3.11324e-09
3.12082e-09
2.12234e-07
8.30507e-08
2.12255e-07
3.16783e-09
3.18719e-09
3.16499e-09
3.18784e-09
8.30575e-08
2.12291e-07
3.11376e-09
3.17416e-09
3.1485e-09
3.17483e-09
3.15938e-09
3.13264e-09
3.16155e-09
8.30655e-08
2.12282e-07
3.12484e-09
3.11396e-09
3.12202e-09
2.12233e-07
8.30501e-08
2.12256e-07
3.16822e-09
3.18806e-09
3.1639e-09
3.18673e-09
8.3057e-08
2.12292e-07
3.11407e-09
3.1749e-09
3.14742e-09
3.17367e-09
3.16022e-09
3.13166e-09
3.1605e-09
8.3065e-08
2.12283e-07
3.12597e-09
3.11295e-09
3.12102e-09
2.12235e-07
8.30499e-08
2.12256e-07
3.16786e-09
3.18735e-09
3.16412e-09
3.18708e-09
8.3057e-08
2.12292e-07
3.11369e-09
3.17415e-09
3.14769e-09
3.17395e-09
3.159e-09
3.13202e-09
3.16027e-09
8.30651e-08
2.12283e-07
3.12484e-09
3.11384e-09
3.12149e-09
2.12235e-07
8.30501e-08
2.12255e-07
3.16741e-09
3.18725e-09
3.16505e-09
3.18766e-09
8.30573e-08
2.12292e-07
3.11332e-09
3.17399e-09
3.14868e-09
3.17465e-09
3.15972e-09
3.13279e-09
3.16083e-09
8.30653e-08
2.12282e-07
3.12877e-09
3.11425e-09
3.12171e-09
2.12233e-07
8.305e-08
2.12254e-07
3.16824e-09
3.1877e-09
3.16481e-09
3.18814e-09
8.30572e-08
2.12291e-07
3.11424e-09
3.17468e-09
3.14874e-09
3.17468e-09
3.16043e-09
3.13303e-09
3.16087e-09
8.30651e-08
2.12281e-07
3.12437e-09
3.11485e-09
3.12332e-09
2.12232e-07
8.30502e-08
2.12255e-07
3.1682e-09
3.1886e-09
3.16255e-09
3.19219e-09
8.30571e-08
2.12294e-07
3.1146e-09
3.17505e-09
3.1388e-09
3.17335e-09
3.1602e-09
3.13577e-09
3.15845e-09
8.30651e-08
2.12282e-07
3.12555e-09
3.11381e-09
3.12237e-09
2.12234e-07
8.30508e-08
2.12254e-07
3.16626e-09
3.20154e-09
3.15989e-09
3.17153e-09
8.30555e-08
2.12307e-07
3.13072e-09
3.17452e-09
3.13476e-09
3.17411e-09
3.15783e-09
3.13678e-09
3.15902e-09
8.30652e-08
2.12282e-07
3.12417e-09
3.11452e-09
3.12324e-09
2.12234e-07
8.30513e-08
2.12256e-07
3.16493e-09
3.14564e-09
3.16295e-09
3.17916e-09
8.30432e-08
2.12293e-07
3.12943e-09
3.17511e-09
3.13418e-09
3.17503e-09
3.16003e-09
3.12956e-09
3.15679e-09
8.30649e-08
2.12281e-07
3.12585e-09
3.11582e-09
3.11568e-09
2.12236e-07
8.30503e-08
2.12255e-07
3.1667e-09
3.18183e-09
3.16443e-09
3.18553e-09
8.30553e-08
2.12293e-07
3.12756e-09
3.17651e-09
3.13263e-09
3.17082e-09
3.14963e-09
3.13618e-09
3.17669e-09
8.30645e-08
2.12278e-07
3.10313e-09
3.11701e-09
3.12347e-09
2.12245e-07
8.30503e-08
2.12254e-07
3.16726e-09
3.18567e-09
3.16495e-09
3.18632e-09
8.30556e-08
2.12294e-07
3.12588e-09
3.17062e-09
3.13262e-09
3.16951e-09
3.17782e-09
3.13612e-09
3.17751e-09
8.30661e-08
2.12277e-07
3.122e-09
3.11574e-09
3.12374e-09
2.12247e-07
8.30504e-08
2.12253e-07
3.16797e-09
3.18593e-09
3.16523e-09
3.18673e-09
8.30558e-08
2.12293e-07
3.12627e-09
3.16986e-09
3.13283e-09
3.16979e-09
3.17754e-09
3.13635e-09
3.17748e-09
8.30664e-08
2.12277e-07
3.12143e-09
3.11597e-09
3.12374e-09
2.12248e-07
8.30501e-08
2.12254e-07
3.16873e-09
3.18701e-09
3.16491e-09
3.18631e-09
8.30555e-08
2.12294e-07
3.12698e-09
3.17085e-09
3.13252e-09
3.16942e-09
3.1777e-09
3.13538e-09
3.17654e-09
8.30661e-08
2.12278e-07
3.12176e-09
3.11458e-09
3.12314e-09
2.12249e-07
8.30501e-08
2.12252e-07
3.16903e-09
3.18693e-09
3.16467e-09
3.18626e-09
8.30556e-08
2.12293e-07
3.12729e-09
3.1709e-09
3.13229e-09
3.16944e-09
3.17727e-09
3.13546e-09
3.17691e-09
8.30661e-08
2.12276e-07
3.12127e-09
3.11438e-09
3.12121e-09
2.12247e-07
8.30501e-08
2.12254e-07
3.16892e-09
3.18692e-09
3.16472e-09
3.18646e-09
8.30554e-08
2.12293e-07
3.12716e-09
3.17083e-09
3.1323e-09
3.16962e-09
3.17803e-09
3.1361e-09
3.17817e-09
8.30661e-08
2.12276e-07
3.12415e-09
3.11549e-09
3.12389e-09
2.12246e-07
8.30505e-08
2.12254e-07
3.16788e-09
3.18615e-09
3.16458e-09
3.18574e-09
8.30558e-08
2.12294e-07
3.1261e-09
3.1701e-09
3.13219e-09
3.16881e-09
3.17771e-09
3.13563e-09
3.17713e-09
8.30664e-08
2.12278e-07
3.12146e-09
3.11518e-09
3.12328e-09
2.12248e-07
8.305e-08
2.12254e-07
3.16818e-09
3.18637e-09
3.16456e-09
3.18556e-09
8.30552e-08
2.12295e-07
3.12642e-09
3.17026e-09
3.13219e-09
3.16867e-09
3.17863e-09
3.13549e-09
3.17696e-09
8.30658e-08
2.12279e-07
3.12247e-09
3.11496e-09
3.12244e-09
2.12249e-07
8.30497e-08
2.12254e-07
3.16917e-09
3.18688e-09
3.16493e-09
3.18669e-09
8.30551e-08
2.12293e-07
3.12743e-09
3.17072e-09
3.13217e-09
3.16977e-09
3.17773e-09
3.13669e-09
3.17881e-09
8.30657e-08
2.12276e-07
3.12311e-09
3.11634e-09
3.12591e-09
2.12244e-07
8.30498e-08
2.12255e-07
3.1688e-09
3.18698e-09
3.16402e-09
3.18603e-09
8.30554e-08
2.12294e-07
3.1278e-09
3.17092e-09
3.1304e-09
3.16907e-09
3.1791e-09
3.13595e-09
3.1765e-09
8.3066e-08
2.12278e-07
3.12387e-09
3.11551e-09
3.12352e-09
2.12248e-07
8.305e-08
2.12254e-07
3.16797e-09
3.18631e-09
3.16458e-09
3.18634e-09
8.30555e-08
2.12294e-07
3.12658e-09
3.1702e-09
3.13088e-09
3.16937e-09
3.17862e-09
3.13573e-09
3.17629e-09
8.30661e-08
2.12278e-07
3.12331e-09
3.11531e-09
3.12327e-09
2.12249e-07
8.305e-08
2.12253e-07
3.16823e-09
3.18586e-09
3.16456e-09
3.18638e-09
8.30556e-08
2.12294e-07
3.12675e-09
3.16976e-09
3.13056e-09
3.16963e-09
3.17724e-09
3.13537e-09
3.17705e-09
8.30662e-08
2.12278e-07
3.12186e-09
3.11485e-09
3.12366e-09
2.12249e-07
8.305e-08
2.12253e-07
3.16815e-09
3.18667e-09
3.16532e-09
3.18659e-09
8.30555e-08
2.12294e-07
3.12626e-09
3.171e-09
3.1304e-09
3.1719e-09
3.17779e-09
3.13536e-09
3.17847e-09
8.30659e-08
2.12279e-07
3.12191e-09
3.11666e-09
3.12211e-09
2.1225e-07
8.30501e-08
2.12254e-07
3.16927e-09
3.18627e-09
3.16517e-09
3.18764e-09
8.30557e-08
2.12292e-07
3.12637e-09
3.1735e-09
3.12968e-09
3.17446e-09
3.17865e-09
3.1359e-09
3.18359e-09
8.30663e-08
2.12271e-07
3.11757e-09
3.07964e-09
3.1055e-09
2.12241e-07
8.30499e-08
2.1225e-07
3.1696e-09
3.18837e-09
3.16768e-09
3.18858e-09
8.30553e-08
2.12292e-07
3.1266e-09
3.17362e-09
3.13285e-09
3.16948e-09
3.18304e-09
3.13723e-09
3.1773e-09
8.30685e-08
2.12274e-07
3.10365e-09
3.11087e-09
3.11846e-09
2.12245e-07
8.30494e-08
2.12252e-07
3.17065e-09
3.18833e-09
3.16508e-09
3.18714e-09
8.30547e-08
2.12292e-07
3.12834e-09
3.16987e-09
3.13095e-09
3.16922e-09
3.17816e-09
3.13575e-09
3.17708e-09
8.30646e-08
2.12276e-07
3.11703e-09
3.11215e-09
3.10763e-09
2.12249e-07
8.30482e-08
2.12252e-07
3.17014e-09
3.18778e-09
3.16375e-09
3.18619e-09
8.3054e-08
2.12291e-07
3.1284e-09
3.17077e-09
3.12997e-09
3.16893e-09
3.17643e-09
3.13593e-09
3.17757e-09
8.30643e-08
2.12275e-07
3.13053e-09
3.11548e-09
3.1141e-09
2.12246e-07
8.30486e-08
2.12252e-07
3.16735e-09
3.1858e-09
3.1649e-09
3.18659e-09
8.30542e-08
2.12292e-07
3.12587e-09
3.16943e-09
3.13122e-09
3.16954e-09
3.17659e-09
3.13562e-09
3.17653e-09
8.30646e-08
2.12275e-07
3.13665e-09
3.11609e-09
3.12312e-09
2.12246e-07
8.30489e-08
2.12252e-07
3.16746e-09
3.18632e-09
3.16449e-09
3.18654e-09
8.30541e-08
2.12292e-07
3.12603e-09
3.17026e-09
3.13088e-09
3.16952e-09
3.17782e-09
3.13556e-09
3.17712e-09
8.30645e-08
2.12275e-07
3.1218e-09
3.11594e-09
3.12402e-09
2.12246e-07
8.3048e-08
2.12252e-07
3.169e-09
3.18702e-09
3.16436e-09
3.18603e-09
8.30538e-08
2.12292e-07
3.12761e-09
3.17099e-09
3.1307e-09
3.16891e-09
3.17889e-09
3.13552e-09
3.1763e-09
8.30643e-08
2.12276e-07
3.12282e-09
3.11612e-09
3.12362e-09
2.12246e-07
8.30485e-08
2.12252e-07
3.16739e-09
3.18582e-09
3.16486e-09
3.18683e-09
8.3054e-08
2.12291e-07
3.126e-09
3.16972e-09
3.13124e-09
3.16973e-09
3.1782e-09
3.13582e-09
3.17743e-09
8.30645e-08
2.12275e-07
3.12245e-09
3.11657e-09
3.12415e-09
2.12244e-07
8.30481e-08
2.12254e-07
3.16896e-09
3.1867e-09
3.16361e-09
3.18551e-09
8.30538e-08
2.12293e-07
3.12757e-09
3.17065e-09
3.13001e-09
3.16836e-09
3.17807e-09
3.13558e-09
3.17728e-09
8.30642e-08
2.12276e-07
3.12164e-09
3.11785e-09
3.12486e-09
2.12246e-07
8.3048e-08
2.12252e-07
3.16798e-09
3.18675e-09
3.16453e-09
3.18551e-09
8.30536e-08
2.12293e-07
3.12662e-09
3.17066e-09
3.13091e-09
3.16857e-09
3.1785e-09
3.13497e-09
3.17632e-09
8.30642e-08
2.12277e-07
3.12282e-09
3.11447e-09
3.12303e-09
2.12247e-07
8.30484e-08
2.12251e-07
3.16814e-09
3.18592e-09
3.1651e-09
3.18747e-09
8.30538e-08
2.1229e-07
3.12676e-09
3.16976e-09
3.13146e-09
3.17046e-09
3.17815e-09
3.13724e-09
3.17803e-09
8.30645e-08
2.12274e-07
3.12263e-09
3.11685e-09
3.12479e-09
2.12244e-07
8.30483e-08
2.12252e-07
3.16884e-09
3.18713e-09
3.16423e-09
3.18571e-09
8.3054e-08
2.12292e-07
3.12743e-09
3.17096e-09
3.13056e-09
3.1687e-09
3.17833e-09
3.13568e-09
3.17667e-09
8.30646e-08
2.12275e-07
3.12284e-09
3.11533e-09
3.12349e-09
2.12246e-07
8.30484e-08
2.12254e-07
3.16781e-09
3.18624e-09
3.16403e-09
3.18539e-09
8.3054e-08
2.12293e-07
3.12639e-09
3.17006e-09
3.13043e-09
3.16836e-09
3.17805e-09
3.13574e-09
3.17624e-09
8.30646e-08
2.12277e-07
3.12256e-09
3.11536e-09
3.12305e-09
2.12247e-07
8.30481e-08
2.12252e-07
3.16788e-09
3.1856e-09
3.16442e-09
3.18603e-09
8.30537e-08
2.12292e-07
3.12653e-09
3.1694e-09
3.13138e-09
3.16905e-09
3.17672e-09
3.13604e-09
3.17696e-09
8.30644e-08
2.12275e-07
3.12125e-09
3.11564e-09
3.12375e-09
2.12245e-07
8.30481e-08
2.12252e-07
3.1683e-09
3.18661e-09
3.16421e-09
3.18623e-09
8.30538e-08
2.12292e-07
3.12967e-09
3.17058e-09
3.14463e-09
3.1692e-09
3.17806e-09
3.13592e-09
3.17778e-09
8.30645e-08
2.12276e-07
3.12257e-09
3.11558e-09
3.12458e-09
2.12245e-07
8.30472e-08
2.12252e-07
3.16854e-09
3.18714e-09
3.16435e-09
3.18621e-09
8.30535e-08
2.12293e-07
3.11294e-09
3.17087e-09
3.14502e-09
3.16925e-09
3.17766e-09
3.13577e-09
3.17639e-09
8.30641e-08
2.12276e-07
3.12218e-09
3.11539e-09
3.1232e-09
2.12247e-07
8.30473e-08
2.12251e-07
3.16881e-09
3.18637e-09
3.16507e-09
3.18636e-09
8.30537e-08
2.12293e-07
3.11332e-09
3.17017e-09
3.14572e-09
3.16959e-09
3.17669e-09
3.13569e-09
3.17703e-09
8.30643e-08
2.12275e-07
3.12122e-09
3.11534e-09
3.12382e-09
2.12247e-07
8.30475e-08
2.1225e-07
3.16907e-09
3.18635e-09
3.16547e-09
3.18687e-09
8.30536e-08
2.12291e-07
3.11364e-09
3.17279e-09
3.14607e-09
3.17585e-09
3.17883e-09
3.13662e-09
3.17756e-09
8.30641e-08
2.1231e-07
3.12333e-09
3.1156e-09
3.12433e-09
2.12244e-07
8.30476e-08
2.12252e-07
3.16943e-09
3.18708e-09
3.16396e-09
3.1862e-09
8.30539e-08
2.12292e-07
3.11402e-09
3.16461e-09
3.14456e-09
3.17542e-09
3.17841e-09
3.1356e-09
3.17628e-09
8.30647e-08
2.12311e-07
3.12291e-09
3.11482e-09
3.12314e-09
2.12246e-07
8.30475e-08
2.12255e-07
3.16769e-09
3.18581e-09
3.16345e-09
3.18591e-09
8.30537e-08
2.12295e-07
3.11232e-09
3.16345e-09
3.14406e-09
3.17511e-09
3.17759e-09
3.13535e-09
3.17627e-09
8.30646e-08
2.12314e-07
3.12216e-09
3.11446e-09
3.12325e-09
2.12248e-07
8.3047e-08
2.12253e-07
3.16835e-09
3.18603e-09
3.16469e-09
3.18686e-09
8.30535e-08
2.12292e-07
3.11293e-09
3.16381e-09
3.1453e-09
3.17877e-09
3.17761e-09
3.13684e-09
3.17808e-09
8.30643e-08
2.12312e-07
3.12206e-09
3.11612e-09
3.12464e-09
2.12245e-07
8.30473e-08
2.12252e-07
3.16891e-09
3.18673e-09
3.16415e-09
3.18714e-09
8.30539e-08
2.12291e-07
3.11348e-09
3.16485e-09
3.14522e-09
3.16865e-09
3.17899e-09
3.13521e-09
3.17885e-09
8.30663e-08
2.12287e-07
3.12348e-09
3.11365e-09
3.12899e-09
2.12245e-07
8.30469e-08
2.12255e-07
3.16881e-09
3.18829e-09
3.1689e-09
3.19343e-09
8.30536e-08
2.12291e-07
3.11445e-09
3.16973e-09
3.14814e-09
3.19189e-09
3.18857e-09
3.14344e-09
3.17422e-09
8.30644e-08
2.12281e-07
3.13873e-09
3.12926e-09
3.13288e-09
2.12235e-07
8.30415e-08
2.12267e-07
3.18134e-09
3.17807e-09
3.59853e-09
3.5892e-09
8.30489e-08
2.12271e-07
3.11263e-09
3.20102e-09
3.62051e-09
3.6206e-09
3.16157e-09
3.49386e-09
3.52775e-09
8.3059e-08
2.12278e-07
3.11274e-09
3.51876e-09
3.48749e-09
2.12222e-07
8.30483e-08
2.12173e-07
4.22328e-09
4.2678e-09
2.01392e-08
2.01852e-08
8.30152e-08
2.12166e-07
4.22371e-09
4.19026e-09
2.0209e-08
2.02427e-08
4.1835e-09
2.00689e-08
2.01576e-08
8.30445e-08
2.12171e-07
4.16207e-09
2.01088e-08
2.00504e-08
2.12159e-07
8.22357e-08
1.46616e-07
4.11609e-08
4.11954e-08
1.3368e-07
1.33493e-07
8.22389e-08
1.4663e-07
4.10772e-08
4.12518e-08
1.33663e-07
1.33455e-07
4.12279e-08
1.33939e-07
1.3371e-07
8.23122e-08
1.46566e-07
4.10705e-08
1.33722e-07
1.33615e-07
1.46555e-07
3.96961e-07
2.04531e-07
2.04369e-07
3.96899e-07
2.04655e-07
2.04423e-07
3.68341e-07
3.68431e-07
3.68422e-07
2.04549e-07
3.96878e-07
2.04662e-07
6.94763e-08
2.85815e-07
1.85396e-07
1.85423e-07
4.96983e-07
3.75833e-07
4.05232e-07
2.45306e-07
4.96936e-07
3.75837e-07
2.45298e-07
4.05137e-07
4.98775e-07
4.03628e-07
4.03587e-07
2.48699e-06
0.000119813
2.58779e-06
0.000121504
0.000242552
0.000250195
2.48734e-06
0.000119829
2.58752e-06
0.000121522
8.33191e-07
8.32805e-07
8.3301e-07
1.15106e-07
1.15032e-07
1.15073e-07
1.15135e-07
1.85027e-07
3.8268e-06
7.26509e-07
4.91193e-07
1.38181e-07
3.05875e-06
4.4833e-07
0.000242545
0.00025018
1.85054e-07
7.25832e-07
3.82603e-06
4.91078e-07
1.37718e-07
4.4797e-07
3.05819e-06
6.63352e-06
6.63366e-06
2.09365e-07
6.54999e-06
6.55165e-06
2.37969e-06
0.000121181
2.37418e-06
0.000121178
0.000250589
0.000250583
2.38004e-06
0.000121198
2.37451e-06
0.000121195
5.55745e-08
5.55585e-08
5.55963e-08
7.71304e-09
7.71012e-09