/*--------------------------------*- C++ -*----------------------------------*\
| =========                 |                                                 |
| \\      /  F ield         | OpenFOAM: The Open Source CFD Toolbox           |
|  \\    /   O peration     | Version:  v1906                                 |
|   \\  /    A nd           | Web:      www.OpenFOAM.com                      |
|    \\/     M anipulation  |                                                 |
\*---------------------------------------------------------------------------*/
FoamFile
{
    version     2.0;
    format      ascii;
    class       volScalarField;
    location    "250";
    object      nut;
}
// * * * * * * * * * * * * * * * * * * * * * * * * * * * * * * * * * * * * * //

dimensions      [0 2 -1 0 0 0 0];


internalField   nonuniform List<scalar> 
171728
(
0.00013615
0.000138112
0.000138111
0.000136315
0.000138127
0.000138109
0.000138101
0.000138121
0.000136273
0.000138108
0.000138132
0.000136146
0.000121817
0.000121866
0.000121873
0.000121894
2.36032e-05
2.36027e-05
7.37532e-05
7.37565e-05
9.17861e-05
5.00052e-05
9.20242e-05
9.17868e-05
5.00057e-05
4.9993e-05
9.20237e-05
0.000120205
9.3743e-05
0.00013329
0.000132575
0.00012083
0.000120215
0.000137397
9.37468e-05
0.000133289
9.34485e-05
0.000132562
0.00012083
2.36031e-05
2.35997e-05
0.000135482
7.37512e-05
7.37401e-05
7.36363e-05
7.36405e-05
2.36036e-05
2.36002e-05
5.00031e-05
9.20141e-05
9.37473e-05
0.000133294
0.000120821
4.99973e-05
9.2012e-05
0.000133295
9.37283e-05
0.000120819
0.000120209
0.000137461
9.3735e-05
0.000133253
9.34632e-05
0.000132648
0.000120839
9.17897e-05
5.00032e-05
4.9996e-05
9.20313e-05
0.000120208
0.000137407
0.000133292
9.37369e-05
0.000132583
9.34576e-05
0.000120834
9.17859e-05
5.00032e-05
4.99893e-05
9.20343e-05
2.3601e-05
7.37331e-05
7.37571e-05
2.36029e-05
0.000120222
0.000133285
9.37458e-05
0.000132682
0.000120851
0.000120218
0.000137418
0.000133323
9.37564e-05
0.000132615
9.34447e-05
0.000120842
9.17994e-05
5.00029e-05
9.20297e-05
9.17891e-05
5.00038e-05
4.999e-05
9.2027e-05
0.00013553
7.37459e-05
7.37455e-05
7.36424e-05
7.36381e-05
2.36031e-05
2.35997e-05
2.36026e-05
2.35992e-05
2.36017e-05
2.36007e-05
9.72385e-05
0.000112514
7.37126e-05
4.79283e-05
4.79225e-05
0.000112336
9.73093e-05
9.72726e-05
0.000112503
7.37039e-05
4.79268e-05
4.79146e-05
0.000112342
9.73497e-05
7.88592e-05
2.14856e-05
2.14837e-05
2.14841e-05
2.14815e-05
7.88784e-05
3.62529e-05
4.05172e-05
8.80164e-05
9.18974e-05
3.62508e-05
4.05192e-05
8.81122e-05
2.00945e-05
4.99983e-05
7.6071e-05
7.6025e-05
2.00963e-05
3.62529e-05
9.19084e-05
4.05217e-05
8.82142e-05
4.05197e-05
8.81151e-05
3.6255e-05
3.62547e-05
4.05173e-05
8.80255e-05
9.19005e-05
3.62526e-05
4.05195e-05
8.81288e-05
2.00956e-05
5.00021e-05
7.60952e-05
7.60468e-05
2.00973e-05
2.00965e-05
7.60004e-05
5.00004e-05
2.00948e-05
7.60448e-05
3.62548e-05
9.19121e-05
4.0522e-05
8.82269e-05
4.05198e-05
8.81248e-05
3.62569e-05
2.36013e-05
2.36015e-05
7.88338e-05
2.14808e-05
2.14833e-05
7.88087e-05
2.14826e-05
2.14852e-05
9.72594e-05
0.000112493
7.37062e-05
4.79236e-05
0.000112326
4.79154e-05
9.73131e-05
9.72481e-05
0.000112519
7.3711e-05
4.79287e-05
4.79275e-05
0.000112342
9.73001e-05
9.71896e-05
4.79124e-05
0.00011208
7.36818e-05
0.000112262
9.7133e-05
4.79145e-05
9.71762e-05
4.79204e-05
0.000112101
7.36706e-05
9.71217e-05
4.79214e-05
0.000112279
7.88547e-05
2.14838e-05
2.14863e-05
2.14819e-05
2.14845e-05
7.88796e-05
2.36019e-05
2.3602e-05
2.00957e-05
4.9996e-05
7.60892e-05
7.60467e-05
2.00974e-05
3.62546e-05
9.19114e-05
8.82109e-05
4.05211e-05
8.81291e-05
4.05193e-05
3.62564e-05
2.00941e-05
4.9995e-05
7.6064e-05
7.60198e-05
2.00959e-05
3.6252e-05
9.1904e-05
4.05211e-05
8.82036e-05
4.05189e-05
8.81083e-05
3.6254e-05
3.62552e-05
8.80281e-05
4.05165e-05
9.19113e-05
3.6253e-05
8.81342e-05
4.05192e-05
2.00963e-05
5.00022e-05
7.60978e-05
7.60553e-05
2.0098e-05
2.00972e-05
7.60062e-05
4.99969e-05
2.00955e-05
7.60486e-05
3.62552e-05
9.19163e-05
8.82376e-05
4.05216e-05
8.81292e-05
4.05191e-05
3.62574e-05
3.62533e-05
4.05167e-05
8.80197e-05
9.19072e-05
3.62511e-05
4.0519e-05
8.81137e-05
2.00954e-05
4.99958e-05
7.60772e-05
7.60287e-05
2.00972e-05
2.00963e-05
7.59791e-05
4.99971e-05
2.00945e-05
7.60275e-05
3.62534e-05
9.19092e-05
4.05215e-05
8.82153e-05
4.05193e-05
8.81216e-05
3.62555e-05
2.35993e-05
9.72534e-05
0.000112481
7.37005e-05
4.79181e-05
0.000112332
4.79171e-05
9.73214e-05
9.7245e-05
0.000112517
7.3713e-05
4.79335e-05
4.79245e-05
0.000112347
9.73099e-05
7.88579e-05
2.14827e-05
2.14861e-05
2.14808e-05
2.14842e-05
7.88828e-05
2.36012e-05
3.62537e-05
8.80384e-05
4.05175e-05
9.19067e-05
3.6252e-05
8.81175e-05
4.05196e-05
2.00955e-05
4.99957e-05
7.60829e-05
7.6035e-05
2.00973e-05
2.00965e-05
7.60346e-05
3.62542e-05
9.19245e-05
8.82174e-05
4.0522e-05
8.81405e-05
4.05203e-05
3.62559e-05
3.62556e-05
8.80259e-05
4.05176e-05
9.19149e-05
3.62534e-05
8.81278e-05
4.05198e-05
2.00962e-05
4.99965e-05
7.60894e-05
7.60427e-05
2.0098e-05
2.00973e-05
7.59944e-05
4.99978e-05
2.00954e-05
7.60412e-05
3.62557e-05
9.19155e-05
8.82274e-05
4.05222e-05
8.81257e-05
4.05203e-05
3.62577e-05
7.88288e-05
2.14835e-05
2.14805e-05
7.88093e-05
2.14854e-05
2.14824e-05
9.72336e-05
0.000112513
7.37124e-05
4.79326e-05
0.000112336
4.79237e-05
9.72997e-05
9.7249e-05
0.000112505
7.37082e-05
4.79203e-05
0.000112324
4.79191e-05
9.73132e-05
9.71709e-05
4.79163e-05
0.000112098
7.36758e-05
9.71093e-05
0.000112267
4.79256e-05
9.71876e-05
4.7912e-05
0.000112087
7.36762e-05
9.71243e-05
0.000112261
4.79131e-05
7.88551e-05
2.14865e-05
2.14835e-05
2.14847e-05
2.14817e-05
7.88751e-05
2.36014e-05
2.36015e-05
2.36008e-05
2.3601e-05
0.000119312
0.000136094
0.00012946
0.000129571
0.000129296
0.000129251
0.000119448
0.000119321
0.000136059
0.00012942
0.000129475
0.000129314
0.000129281
0.000119415
0.000119306
0.000136028
0.000129414
0.000129448
0.000129299
0.000129271
0.000119441
0.000119297
0.000136121
0.000129455
0.000129424
0.000129288
0.000129301
0.000119425
0.000119765
0.000119775
0.000119922
0.000132016
0.000131748
0.0001214
0.000119824
0.00011983
0.000119827
0.000119848
0.000132093
0.000131641
0.000119831
0.000119844
0.000119863
0.000132093
0.000131639
0.000121397
0.000119849
0.000119862
0.000119825
0.000119838
0.000132098
0.000131636
0.000131695
0.000116674
0.000133264
0.000120513
0.000131491
0.000116948
0.000133596
0.000127996
0.000121764
9.35961e-05
0.00010753
0.000121685
0.000107339
0.000128204
0.00013196
0.000120527
0.000117226
0.00013414
0.000116958
0.000133769
0.000132173
0.000131603
0.000116687
0.00013337
0.00012051
0.000131552
0.000116946
0.00013346
0.000128013
0.000121797
9.35924e-05
0.000107533
0.00010734
0.000121646
0.000128089
0.000127679
0.000107112
0.000121295
9.35988e-05
0.000127594
0.000107319
0.000121449
0.000132029
0.000120529
0.000117226
0.000134106
0.000116977
0.00013386
0.000132086
0.000119148
0.000135724
0.000128877
0.000128851
0.000128999
0.000119066
0.000129052
0.000128023
0.00012183
9.35979e-05
0.000107544
0.000121629
0.000107335
0.000128113
0.000131954
0.000120531
0.000117228
0.000133954
0.000116965
0.000133876
0.000132163
0.000127934
0.00012178
9.35899e-05
0.000107514
0.000107327
0.000121643
0.00012816
0.000131909
0.000120525
0.000133948
0.000117218
0.000133868
0.000116951
0.000132169
0.000131714
0.000116677
0.000133284
0.000120522
0.000131484
0.000116959
0.0001336
0.000127986
0.000121789
9.36186e-05
0.00010754
0.000121671
0.000107354
0.000128118
0.000127788
0.000107128
0.000121333
9.3584e-05
0.000127542
0.000121463
0.000107321
0.000131975
0.000120531
0.00011724
0.000134138
0.000116972
0.00013378
0.000132216
0.000131586
0.000133364
0.000116677
0.000120515
0.000131461
0.000133435
0.000116951
0.000127964
0.000121781
9.36102e-05
0.000107549
0.000107341
0.000121672
0.000128181
0.000127766
0.000107118
0.000121312
9.35843e-05
0.00012755
0.000107316
0.000121462
0.000132019
0.00012053
0.000133926
0.000117227
0.000133881
0.000116971
0.000132067
0.000131622
0.000133299
0.000116705
0.000120532
0.000131572
0.000133627
0.000116959
0.000127993
0.000121833
9.36173e-05
0.000107561
0.000121677
0.000107354
0.000128118
0.000127788
0.000107331
0.000132052
0.000120549
0.000134167
0.000117237
0.000133802
0.000116997
0.000132075
0.000131666
0.000133333
0.000116691
0.000120529
0.000131565
0.000133478
0.000116956
0.000128027
0.000121811
9.35962e-05
0.000107533
0.000107346
0.00012168
0.000128108
0.000127696
0.00010712
0.000121343
9.35967e-05
0.000127607
0.000107322
0.000121436
0.000132048
0.000120547
0.000133982
0.000117238
0.000133892
0.00011698
0.000132091
0.000119151
0.000135612
0.000128862
0.000128861
0.000119033
0.000129033
0.000129024
0.000157398
0.000169058
0.000169167
0.000159337
0.000159378
0.000159195
0.00015926
0.000169047
0.000169049
0.00016908
0.000169043
0.000159104
0.00015919
0.000169108
0.000169094
0.000169118
0.000169097
0.00016926
0.000169074
0.000169248
0.000159222
0.000159369
0.000169296
0.000169158
0.000169288
0.000159381
0.000169247
0.000169282
9.64557e-05
5.0291e-05
5.02918e-05
9.64438e-05
2.3688e-05
2.36889e-05
9.64559e-05
5.02904e-05
5.0291e-05
9.64622e-05
0.000157263
0.000157307
0.000157432
0.000157446
0.000157314
0.000157332
0.000157454
0.00013336
9.91225e-05
0.000170539
0.000169059
9.91568e-05
0.000170528
0.000133363
2.36858e-05
2.36869e-05
0.000133418
0.000170611
9.91603e-05
0.000169158
0.000170599
9.92095e-05
0.000133387
7.6121e-05
7.61147e-05
0.000159371
7.61228e-05
7.61298e-05
7.61288e-05
7.61259e-05
2.36888e-05
2.36898e-05
2.36878e-05
2.36888e-05
7.6087e-05
7.60932e-05
0.000159219
7.61044e-05
7.60941e-05
2.36898e-05
2.3689e-05
2.36889e-05
2.36879e-05
0.000159246
7.60895e-05
7.60985e-05
7.61002e-05
7.60929e-05
9.64447e-05
5.02929e-05
5.02935e-05
9.646e-05
0.000133186
9.91214e-05
0.000170422
0.00016906
9.91468e-05
0.000170415
0.000133228
0.00013333
9.91051e-05
0.00017043
0.000169027
9.91184e-05
0.00017039
0.000133336
9.64436e-05
5.02922e-05
5.02915e-05
9.64602e-05
9.64343e-05
5.02939e-05
5.0293e-05
9.644e-05
0.000133247
0.000169062
9.91615e-05
0.000170434
9.91373e-05
0.000170423
0.000133355
0.000133299
0.000169032
9.91459e-05
0.000170413
9.90895e-05
0.000170401
0.000133353
7.60747e-05
7.60711e-05
0.00015913
7.60878e-05
7.60816e-05
2.36885e-05
2.36894e-05
2.36889e-05
2.3688e-05
0.000159151
7.60854e-05
7.60729e-05
7.60834e-05
7.60761e-05
2.36894e-05
2.36885e-05
0.000133245
9.91671e-05
0.000170478
0.000169101
9.9186e-05
0.000170444
0.000133216
9.64948e-05
5.02851e-05
5.02859e-05
9.64856e-05
0.000133269
0.000170447
9.91245e-05
0.000169085
0.000170425
9.91326e-05
0.00013327
9.64424e-05
5.0291e-05
5.02904e-05
9.64943e-05
0.000133174
0.000169107
9.91699e-05
0.000170457
9.91577e-05
0.000170446
0.000133216
9.6483e-05
5.02861e-05
5.02856e-05
9.64964e-05
0.000133228
0.000169087
0.000170451
9.91452e-05
0.000170436
9.9124e-05
0.000133222
9.65132e-05
5.02914e-05
5.0292e-05
9.65064e-05
0.000133455
0.000170605
9.92173e-05
0.000169245
0.000170583
9.92208e-05
0.00013344
9.65722e-05
5.02933e-05
5.02933e-05
9.65635e-05
0.000133358
0.00016906
9.91384e-05
0.000170542
9.91472e-05
0.00017053
0.000133398
9.64962e-05
5.02925e-05
5.02916e-05
9.64959e-05
0.000133401
0.000169242
0.0001706
9.9209e-05
0.00017059
9.92059e-05
0.000133452
9.65578e-05
5.02925e-05
5.02927e-05
9.65656e-05
7.60718e-05
7.61133e-05
0.000159323
7.60962e-05
7.611e-05
2.36879e-05
2.36889e-05
2.36871e-05
2.3686e-05
0.000159215
7.60953e-05
7.61281e-05
7.6091e-05
7.6117e-05
2.36892e-05
2.36881e-05
0.000133412
0.000170614
9.92122e-05
0.000169285
0.000170608
9.92069e-05
0.00013329
9.65074e-05
5.02896e-05
5.02906e-05
9.65099e-05
9.65254e-05
5.02912e-05
5.02916e-05
9.64973e-05
0.000133388
0.000169153
0.000170573
9.92082e-05
0.000170567
9.91945e-05
0.000133364
0.000133422
0.000169282
0.00017063
9.92036e-05
0.000170606
9.91801e-05
0.000133474
9.64948e-05
5.02912e-05
5.02903e-05
9.64929e-05
9.6516e-05
5.0292e-05
5.0291e-05
9.65287e-05
2.36891e-05
2.369e-05
2.36886e-05
2.36894e-05
0.000159362
7.61339e-05
7.61212e-05
7.6116e-05
7.61254e-05
2.369e-05
2.36891e-05
2.36894e-05
2.36885e-05
0.00017057
9.91956e-05
0.000133364
5.02918e-05
9.6551e-05
9.91591e-05
5.02914e-05
2.36892e-05
2.36886e-05
3.63982e-05
4.06928e-05
9.1777e-05
9.64435e-05
4.06923e-05
9.17606e-05
3.6399e-05
2.01561e-05
5.02916e-05
7.7749e-05
7.7763e-05
2.01548e-05
2.01548e-05
7.77671e-05
5.02912e-05
7.77481e-05
2.01562e-05
3.63989e-05
9.64662e-05
4.06923e-05
9.17575e-05
4.06929e-05
9.17735e-05
3.63981e-05
2.36888e-05
2.3688e-05
3.64011e-05
9.17811e-05
4.06932e-05
9.64556e-05
9.17585e-05
4.06927e-05
3.64018e-05
2.01579e-05
5.0291e-05
7.77786e-05
7.77892e-05
2.01566e-05
2.01566e-05
7.778e-05
5.02905e-05
7.77755e-05
2.01578e-05
3.64018e-05
9.64745e-05
9.17726e-05
4.06928e-05
9.17795e-05
4.06933e-05
3.64012e-05
2.36867e-05
2.36859e-05
8.03886e-05
2.15488e-05
2.15459e-05
2.15476e-05
2.15446e-05
8.03967e-05
0.000101671
0.000121146
7.61279e-05
4.82257e-05
0.000121175
4.82264e-05
0.000101655
0.000101686
0.000121096
7.61286e-05
4.82168e-05
0.00012115
4.82174e-05
0.000101679
0.000101656
4.82263e-05
7.61184e-05
0.00012114
0.000121151
4.82256e-05
0.000101677
0.000101674
4.82173e-05
7.61148e-05
0.000121157
0.00012111
4.82166e-05
0.000101677
8.03962e-05
2.15476e-05
2.15446e-05
2.15488e-05
2.15458e-05
8.03889e-05
0.000101683
0.000121164
4.82261e-05
7.61313e-05
0.000101667
0.000121185
4.8227e-05
0.000101706
0.000121188
4.8217e-05
7.61374e-05
0.000101691
0.000121209
4.82179e-05
8.03987e-05
2.15477e-05
2.15447e-05
8.03912e-05
2.1549e-05
2.1546e-05
2.36897e-05
2.36889e-05
2.36888e-05
2.36879e-05
8.0376e-05
2.15478e-05
2.15445e-05
2.15466e-05
2.15432e-05
8.03833e-05
0.000101654
0.0001211
7.60892e-05
4.82216e-05
4.82225e-05
0.000121089
0.000101635
0.000101626
0.000121077
7.60997e-05
4.82107e-05
4.82116e-05
0.000121119
0.000101616
0.000101646
4.8223e-05
7.60939e-05
0.000121137
4.82221e-05
0.00010165
0.000121113
0.00010162
4.82117e-05
7.60932e-05
0.000121111
4.8211e-05
0.000101636
0.000121095
8.03838e-05
2.15465e-05
2.15432e-05
2.15478e-05
2.15444e-05
8.03769e-05
2.3689e-05
2.36899e-05
2.36879e-05
2.36888e-05
8.03823e-05
2.15466e-05
2.15433e-05
8.03754e-05
2.15478e-05
2.15445e-05
0.000101639
0.000121143
7.60769e-05
4.82231e-05
4.82224e-05
0.000121133
0.000101655
0.000101619
0.000121061
7.609e-05
4.82115e-05
4.8211e-05
0.00012108
0.000101616
0.000101652
4.82224e-05
0.000121134
7.61021e-05
0.000101637
4.82231e-05
0.000121153
0.000101638
4.82111e-05
0.000121117
7.60954e-05
0.000101623
4.82117e-05
0.000121121
8.03758e-05
2.15478e-05
2.15445e-05
2.15466e-05
2.15433e-05
8.03827e-05
3.64016e-05
4.06935e-05
9.182e-05
9.64282e-05
4.06931e-05
9.18059e-05
3.64023e-05
2.01581e-05
5.02935e-05
7.78077e-05
7.78197e-05
2.01568e-05
2.01569e-05
7.78195e-05
5.0293e-05
7.78078e-05
2.01581e-05
3.64023e-05
9.64476e-05
4.06934e-05
9.1805e-05
4.06938e-05
9.182e-05
3.64016e-05
3.63991e-05
4.06922e-05
9.17669e-05
9.64577e-05
3.63983e-05
4.06927e-05
9.17836e-05
2.01549e-05
5.02917e-05
7.77605e-05
2.01562e-05
7.77514e-05
2.01562e-05
7.77554e-05
5.0292e-05
2.01549e-05
7.77608e-05
3.63984e-05
9.64442e-05
4.06926e-05
9.17876e-05
3.63991e-05
4.06921e-05
9.17708e-05
3.64023e-05
4.06928e-05
9.18077e-05
9.64485e-05
3.64016e-05
4.06932e-05
9.18212e-05
2.01569e-05
5.02933e-05
7.78212e-05
7.78094e-05
2.01582e-05
2.01581e-05
7.7809e-05
5.02936e-05
2.01569e-05
7.78211e-05
3.64016e-05
9.64271e-05
4.0693e-05
9.18184e-05
4.06926e-05
9.18056e-05
3.64023e-05
8.03551e-05
2.15444e-05
2.15469e-05
2.15431e-05
2.15457e-05
8.03625e-05
0.000101609
0.00012099
7.60769e-05
4.82113e-05
4.82118e-05
0.000121009
0.000101613
0.000101589
0.000120994
7.60807e-05
4.82185e-05
0.000121035
4.82192e-05
0.000101569
0.000101584
4.82117e-05
7.60811e-05
0.000121022
4.82111e-05
0.000120971
0.000101582
0.000101581
4.82191e-05
7.60732e-05
0.000121003
0.000121025
4.82185e-05
0.00010159
8.03631e-05
2.15431e-05
2.15456e-05
2.15444e-05
2.15469e-05
8.0356e-05
2.36894e-05
2.36885e-05
2.3688e-05
2.36889e-05
8.03621e-05
2.15431e-05
2.15457e-05
8.03548e-05
2.15444e-05
2.1547e-05
0.000101569
0.000121079
7.60843e-05
4.82113e-05
0.000121056
4.82108e-05
0.000101572
0.00010157
0.000121053
7.60684e-05
4.82189e-05
4.82183e-05
0.000121017
0.000101564
0.000101589
4.82109e-05
0.000121031
7.60917e-05
0.000121063
0.000101588
4.82116e-05
0.000101594
4.82183e-05
0.000121043
7.60734e-05
0.000101563
4.8219e-05
0.000121075
8.03558e-05
2.15444e-05
2.1547e-05
2.15432e-05
2.15458e-05
8.03629e-05
2.36885e-05
2.36894e-05
3.63971e-05
4.06929e-05
9.17673e-05
9.64826e-05
4.06923e-05
9.17511e-05
3.63979e-05
2.01558e-05
5.02857e-05
7.77623e-05
7.77761e-05
2.01544e-05
2.01545e-05
7.77768e-05
5.02854e-05
7.77642e-05
2.01559e-05
3.63979e-05
9.64985e-05
4.06923e-05
9.17464e-05
4.06929e-05
9.17638e-05
3.63971e-05
3.64022e-05
9.17833e-05
4.06926e-05
9.64625e-05
3.64013e-05
9.1804e-05
4.06933e-05
2.01567e-05
5.02905e-05
7.77825e-05
2.0158e-05
7.77732e-05
2.01579e-05
7.7773e-05
5.02909e-05
2.01566e-05
7.77795e-05
3.64017e-05
9.64715e-05
9.18101e-05
4.06937e-05
3.64026e-05
9.17935e-05
4.06929e-05
3.63979e-05
4.06923e-05
9.17574e-05
9.64961e-05
3.63971e-05
4.06929e-05
9.17742e-05
2.01546e-05
5.02856e-05
7.77658e-05
7.77621e-05
2.01559e-05
2.01559e-05
7.77663e-05
5.0286e-05
2.01546e-05
7.77785e-05
3.63971e-05
9.64822e-05
4.06929e-05
9.17794e-05
4.06924e-05
9.17619e-05
3.63979e-05
3.64031e-05
9.18155e-05
4.06956e-05
9.65016e-05
9.18051e-05
4.06951e-05
3.64037e-05
2.01582e-05
5.02919e-05
7.77811e-05
7.77864e-05
2.0157e-05
2.0157e-05
7.77857e-05
5.02915e-05
7.77773e-05
2.01582e-05
3.64039e-05
9.65194e-05
9.18134e-05
4.06954e-05
9.18238e-05
4.06958e-05
3.64033e-05
3.64017e-05
4.06969e-05
9.18586e-05
9.65603e-05
4.06964e-05
9.18469e-05
3.64023e-05
2.01577e-05
5.02937e-05
7.78007e-05
7.78116e-05
2.01566e-05
2.01564e-05
7.78064e-05
5.02931e-05
7.77961e-05
2.01576e-05
3.64025e-05
9.65774e-05
4.06965e-05
9.18509e-05
4.0697e-05
9.18641e-05
3.64019e-05
3.64036e-05
9.17998e-05
4.0695e-05
9.6506e-05
3.6403e-05
9.18104e-05
4.06955e-05
2.01572e-05
5.02919e-05
7.77976e-05
7.77854e-05
2.01586e-05
2.01584e-05
7.77773e-05
5.02921e-05
2.0157e-05
7.77898e-05
3.64029e-05
9.64815e-05
9.18042e-05
4.06954e-05
9.17934e-05
4.06948e-05
3.64036e-05
3.64021e-05
4.06963e-05
9.18443e-05
9.65695e-05
3.64015e-05
4.06968e-05
9.18564e-05
2.01561e-05
5.02922e-05
7.7797e-05
7.77871e-05
2.01573e-05
2.01575e-05
7.77946e-05
5.02929e-05
2.01563e-05
7.78054e-05
3.64013e-05
9.65528e-05
4.06967e-05
9.1853e-05
4.06962e-05
9.18401e-05
3.64019e-05
8.03741e-05
2.15432e-05
2.15466e-05
2.15419e-05
2.15454e-05
8.03819e-05
0.000101627
0.000121148
7.60901e-05
4.82089e-05
4.82096e-05
0.000121141
0.000101623
0.000101654
0.000121172
7.61216e-05
4.82216e-05
0.000121176
4.82225e-05
0.000101637
0.000101644
4.821e-05
7.60865e-05
0.000121134
4.82091e-05
0.00012109
0.000101644
0.000101646
4.82225e-05
7.61104e-05
0.000121172
0.00012112
4.82218e-05
0.000101662
8.03812e-05
2.15419e-05
2.15453e-05
2.15432e-05
2.15466e-05
8.03739e-05
2.36888e-05
2.3688e-05
2.36861e-05
2.3687e-05
8.03815e-05
2.1542e-05
2.15454e-05
8.03744e-05
2.15433e-05
2.15467e-05
0.000101631
0.000121166
7.60896e-05
4.82103e-05
0.000121144
4.82096e-05
0.000101646
0.000101646
0.000121183
7.61204e-05
4.82229e-05
4.82221e-05
0.000121152
0.000101654
0.000101643
4.82094e-05
0.000121146
7.60982e-05
0.000121128
0.000101635
4.82103e-05
0.000101659
4.82218e-05
0.000121177
7.61268e-05
0.000101631
4.82227e-05
0.000121164
8.03754e-05
2.15433e-05
2.15468e-05
2.15421e-05
2.15455e-05
8.03825e-05
2.36883e-05
2.36891e-05
3.64003e-05
9.1795e-05
4.06945e-05
9.64965e-05
9.17801e-05
4.06941e-05
3.64009e-05
2.01574e-05
5.02902e-05
7.77868e-05
7.78027e-05
2.0156e-05
2.01562e-05
7.78023e-05
5.029e-05
7.77901e-05
2.01575e-05
3.64013e-05
9.65221e-05
9.18128e-05
4.06945e-05
9.18028e-05
4.06949e-05
3.64007e-05
3.6402e-05
9.18417e-05
4.06948e-05
9.65104e-05
9.18256e-05
4.06943e-05
3.64028e-05
2.01576e-05
5.02917e-05
7.77863e-05
7.77977e-05
2.01563e-05
2.01563e-05
7.7795e-05
5.02912e-05
7.7787e-05
2.01576e-05
3.64028e-05
9.65221e-05
9.18217e-05
4.06946e-05
9.18386e-05
4.0695e-05
3.6402e-05
3.64006e-05
9.17835e-05
4.06938e-05
9.6508e-05
3.64e-05
9.17991e-05
4.06942e-05
2.01561e-05
5.02906e-05
7.77976e-05
7.77836e-05
2.01574e-05
2.01574e-05
7.77899e-05
5.02909e-05
2.01562e-05
7.78016e-05
3.63997e-05
9.64725e-05
9.18012e-05
4.06938e-05
9.17853e-05
4.06934e-05
3.64003e-05
3.64027e-05
9.18313e-05
4.06941e-05
9.65301e-05
3.6402e-05
9.18472e-05
4.06945e-05
2.01565e-05
5.02914e-05
7.7805e-05
7.77983e-05
2.01579e-05
2.01578e-05
7.77914e-05
5.02917e-05
2.01563e-05
7.78079e-05
3.6402e-05
9.65158e-05
9.18432e-05
4.06943e-05
9.18307e-05
4.06938e-05
3.64027e-05
2.369e-05
2.36891e-05
2.36895e-05
2.36885e-05
8.03971e-05
2.15476e-05
2.15446e-05
8.03896e-05
2.15489e-05
2.15459e-05
0.000101659
0.000121191
7.61235e-05
4.82267e-05
0.000101676
0.000121184
4.82258e-05
0.000101687
0.000121199
7.61195e-05
4.82176e-05
0.0001017
0.000121133
4.82168e-05
0.000101673
4.82257e-05
0.000121183
7.6118e-05
0.000101664
0.000121209
4.82264e-05
0.000101698
4.82167e-05
0.00012113
7.61295e-05
0.000101682
0.000121169
4.82175e-05
8.03911e-05
2.15489e-05
2.1546e-05
8.03985e-05
2.15477e-05
2.15447e-05
2.36891e-05
2.36899e-05
2.36885e-05
2.36894e-05
2.01572e-05
7.77828e-05
5.0292e-05
2.0156e-05
7.77893e-05
3.64018e-05
9.65637e-05
4.06961e-05
9.18383e-05
3.64011e-05
4.06966e-05
9.18517e-05
5.02919e-05
2.36901e-05
2.36895e-05
0.000146624
0.000146679
0.00015741
0.000146607
0.000146689
0.000136204
0.0001362
0.000129313
0.000145779
0.000145894
0.000159421
0.000145814
0.000145939
0.000129315
0.000129281
0.000145827
0.000145887
0.000159373
0.000129254
0.00014588
0.000145929
0.000129131
0.000145838
0.000145828
0.000159206
0.000145869
0.000145867
0.000129191
0.000129182
0.000159251
0.000145991
0.000145733
0.000145945
0.000145704
0.000129195
0.000129147
0.00014572
0.000145776
0.000159113
0.000145748
0.000145756
0.000129168
0.000129149
0.000159172
0.000145817
0.000145831
0.000145825
0.000145754
0.000129165
0.00012929
0.000145765
0.000145918
0.000159304
0.00014585
0.000145797
0.000129273
0.000129231
0.00015927
0.000145931
0.00014606
0.000145899
0.000146016
0.000129278
0.000129189
0.000159382
0.000145816
0.000146025
0.000129239
0.000145878
0.000145983
0.000146525
0.0001465
0.000157261
0.00014647
0.000146544
0.000135919
0.000135889
0.000146482
0.000146563
0.000157287
0.000146483
0.000146566
0.000135925
0.000135906
0.000146563
0.000146581
0.000157442
0.000146518
0.000146549
0.000135844
0.000135807
0.00015742
0.000146649
0.00014668
0.000146634
0.000146651
0.000136159
0.000136204
0.000157302
0.000146518
0.000146571
0.000146484
0.000146531
0.000135938
0.000135929
0.000157355
0.000146498
0.000146589
0.000146479
0.000146575
0.000135891
0.000135912
0.00015744
0.000146601
0.000146653
0.000146555
0.000146619
0.00013588
0.000135917
0.000152085
0.000128102
0.0001555
0.000133357
0.000128088
0.000155492
0.000152079
0.000144994
0.000135273
9.91487e-05
0.000115702
0.000135296
0.000115691
0.000144963
0.000144879
0.000115738
9.91373e-05
0.000135288
0.000135276
0.000115699
0.000144886
0.000151971
0.00013336
0.000128118
0.000155433
0.000128119
0.000155475
0.000152135
0.0001519
0.000155303
0.000128124
0.000133391
0.000155449
0.000128111
0.000151931
0.000144734
0.000135378
9.92026e-05
0.000115733
0.000135398
0.000115738
0.000144676
0.000144614
0.000115797
9.91906e-05
0.000135387
0.000135375
0.000115758
0.000144704
0.000151943
0.000133414
0.000155406
0.000128196
0.000155455
0.000128223
0.000151996
0.000129269
0.000159326
0.000145873
0.000145874
0.000145828
0.000145936
0.000129319
0.000129136
0.000159209
0.000145906
0.000145911
0.000129133
0.000145875
0.000145868
0.000129179
0.000159249
0.000145907
0.000145765
0.000129101
0.000145949
0.000145828
0.000152012
0.00012799
0.000155571
0.000133194
0.000127972
0.000155595
0.000152044
0.000144927
0.000135285
9.9146e-05
0.0001156
0.00011567
0.000135312
0.000144882
0.000144938
0.000115665
9.91249e-05
0.000135319
0.000115613
0.000135299
0.000144972
0.000152024
0.00013324
0.000127934
0.000155599
0.000127927
0.000155633
0.000152012
0.000151941
0.000128127
0.000155586
0.000133329
0.000128098
0.000155549
0.000152011
0.000144871
0.000135255
9.91292e-05
0.000115694
0.00011571
0.00013528
0.000144846
0.000144883
0.000115688
9.90937e-05
0.000135278
0.000115654
0.000144811
0.000135262
0.000151986
0.000133339
0.000127993
0.000155576
0.000128036
0.000155627
0.000151954
0.000152023
0.000127979
0.000155643
0.000133253
0.000152011
0.000128062
0.000155723
0.000144958
0.000135343
9.91332e-05
0.0001157
0.000135324
0.000115635
0.000145041
0.000145027
0.000115631
0.000135321
9.91548e-05
0.00013534
0.00014498
0.000115673
0.000152015
0.00013332
0.000128171
0.000155625
0.000128029
0.000155686
0.000152117
0.000151984
0.000128127
0.000155591
0.000133302
0.000151947
0.000128152
0.000155711
0.00014469
0.000135283
9.91226e-05
0.000115744
0.000115709
0.000135267
0.000144726
0.000144718
0.000115638
0.000135271
9.91401e-05
0.000144637
0.00011571
0.000135287
0.000151978
0.000133295
0.000128176
0.000155645
0.000128157
0.000155625
0.00015201
0.000129172
0.000159119
0.000145801
0.000145823
0.000145792
0.000145764
0.000129199
0.000129148
0.000159155
0.000145805
0.000145823
0.000145798
0.000129123
0.000145881
0.000151601
0.000128158
0.000155435
0.000133232
0.000128118
0.0001553
0.000151629
0.000144742
0.000135289
9.91883e-05
0.000115719
0.000115755
0.000135311
0.000144713
0.00014476
0.000115762
9.91724e-05
0.000135308
0.000115737
0.000135293
0.000144803
0.00015179
0.000133278
0.00012812
0.000155301
0.000128142
0.00015533
0.00015171
0.000151983
0.000155527
0.00012798
0.000133266
0.000155479
0.000128007
0.000152
0.000144969
0.000135341
9.91681e-05
0.000115694
0.000115689
0.000135364
0.000144808
0.00014487
0.000115705
9.91402e-05
0.000135359
0.000115636
0.000144927
0.000135344
0.000152021
0.000133286
0.000155518
0.000128011
0.000155517
0.000128035
0.000151954
0.000151595
0.000128046
0.00015536
0.000133227
0.000151649
0.000128069
0.000155435
0.000144826
0.000135318
9.91562e-05
0.00011572
0.000135302
0.000115699
0.000144892
0.000144847
0.000115698
0.000135304
9.91802e-05
0.00013532
0.000144761
0.000115733
0.000151701
0.000133216
0.000128002
0.000155528
0.000127975
0.000155458
0.000151735
0.000152014
0.000155515
0.00012798
0.000133231
0.000151998
0.000155516
0.000127979
0.000144838
0.000135364
9.91352e-05
0.000115697
0.00011568
0.00013535
0.000144914
0.000144973
0.000115657
0.000135355
9.91291e-05
0.000144932
0.000115709
0.00013537
0.000152029
0.000133203
0.000155599
0.000128106
0.000155546
0.000127969
0.000152061
0.000152192
0.000155746
0.000128242
0.000133455
0.00015576
0.000128223
0.000152056
0.000145127
0.000135421
9.92348e-05
0.0001158
0.000135445
0.000115828
0.000144986
0.000144934
0.000115793
9.92063e-05
0.000135436
0.000135424
0.000115763
0.000145011
0.000152187
0.000133483
0.000155813
0.000128236
0.000155843
0.000128256
0.000152166
0.000152108
0.000128043
0.000155544
0.000133386
0.000152055
0.000128046
0.000155553
0.000144919
0.000135283
9.91198e-05
0.00011576
0.000144971
0.000135273
0.000115736
0.00014498
0.000115725
0.000135281
9.91358e-05
0.000144867
0.000135295
0.000115753
0.000152037
0.000133364
0.000127989
0.000155645
0.000152133
0.000128
0.00015557
0.000152158
0.000155768
0.000128226
0.000133406
0.000152143
0.000155786
0.000128236
0.000144991
0.000135438
9.92044e-05
0.000115784
0.000115739
0.000135424
0.00014507
0.000144979
0.000115727
0.000135431
9.92216e-05
0.00014495
0.000115759
0.000135444
0.000152107
0.000133398
0.000155809
0.000128251
0.000155786
0.000128213
0.000152223
0.000129288
0.000159235
0.000145848
0.000145944
0.000145918
0.000145805
0.000129309
0.000129286
0.000159336
0.000145854
0.000145968
0.000145897
0.000129246
0.000146021
0.000152189
0.000155699
0.000128163
0.000133369
0.000155712
0.000128136
0.000152227
0.000145229
0.000135447
9.92299e-05
0.000115793
0.000135471
0.000115824
0.000145119
0.000145125
0.000115791
9.91862e-05
0.000135465
0.000135451
0.000115755
0.000145107
0.000152179
0.000133286
0.000155728
0.000128081
0.000155789
0.000128103
0.000152203
0.000151918
0.000155119
0.000128091
0.000133383
0.000151925
0.000155155
0.000128087
0.000144632
0.000135378
9.92118e-05
0.000115813
0.000144763
0.000135366
0.000115789
0.000144631
0.000115784
0.000135379
9.92234e-05
0.000144599
0.000135389
0.000115806
0.000151919
0.000133318
0.000155255
0.000128168
0.000151932
0.000155195
0.000128129
0.000152234
0.000155763
0.000128223
0.000133446
0.000152227
0.000155813
0.000128265
0.000144923
0.000135456
9.91874e-05
0.000115782
0.000115779
0.000135443
0.000144959
0.000144921
0.000115787
0.000135454
9.92275e-05
0.000144906
0.000115814
0.000135466
0.000152221
0.000133431
0.000155725
0.000128309
0.000155716
0.000128284
0.000152175
0.000129242
0.00015937
0.000145864
0.000145952
0.000129271
0.000145821
0.000145987
0.000145041
0.000135428
0.000115757
9.9206e-05
0.000135443
0.000144982
0.000115773
0.000152199
0.000133319
0.000155751
0.000128174
0.000155568
0.000152151
0.000128194
0.000135443
9.91843e-05
0.000135457
0.000122735
0.000138965
0.000138974
0.000136673
0.000125346
0.000141912
0.000141924
0.000138867
0.000128052
0.000144776
0.000144789
0.000140992
0.000130816
0.000147539
0.000147546
0.000143004
0.000133592
0.00015017
0.000150167
0.000144791
0.000136337
0.000152649
0.000152635
0.000146471
0.000139018
0.000154966
0.000154928
0.000148085
0.000141591
0.000157103
0.000157047
0.000149539
0.000144034
0.000159081
0.000159014
0.000151149
0.000146294
0.000160853
0.000160786
0.000152589
0.000148368
0.000162439
0.000162381
0.000153809
0.000150247
0.000163858
0.000163816
0.000154863
0.000151925
0.000165098
0.000165069
0.000155759
0.000153404
0.000166147
0.000166131
0.00015656
0.000154661
0.000167036
0.000167027
0.000157239
0.000155647
0.000167733
0.000167741
0.000157814
0.000156333
0.000168246
0.000168268
0.000158296
0.000156717
0.00016859
0.000168609
0.000158704
0.000156921
0.000168776
0.000168804
0.000158994
0.000157044
0.000168896
0.000168938
0.000159214
0.000157145
0.000168948
0.000168987
0.000159317
0.000157147
0.000168979
0.000169008
0.000159282
0.000157162
0.000168995
0.000169039
0.000159247