/*--------------------------------*- C++ -*----------------------------------*\
| =========                 |                                                 |
| \\      /  F ield         | OpenFOAM: The Open Source CFD Toolbox           |
|  \\    /   O peration     | Version:  v1906                                 |
|   \\  /    A nd           | Web:      www.OpenFOAM.com                      |
|    \\/     M anipulation  |                                                 |
\*---------------------------------------------------------------------------*/
FoamFile
{
    version     2.0;
    format      ascii;
    class       volScalarField;
    location    "250";
    object      p;
}
// * * * * * * * * * * * * * * * * * * * * * * * * * * * * * * * * * * * * * //

dimensions      [0 2 -2 0 0 0 0];


internalField   nonuniform List<scalar> 
171728
(
0.00167291
0.00167457
0.00167457
0.00167291
0.00167457
0.00167457
0.00167457
0.00167457
0.00167291
0.00167457
0.00167457
0.00167291
0.00167464
0.00167464
0.00167464
0.00167464
0.0016722
0.0016722
0.00167222
0.00167222
0.00168564
0.00167221
0.00167224
0.00168564
0.00167221
0.00168563
0.00167224
0.00168558
0.00167229
0.00167461
0.00168364
0.00167238
0.00168558
0.0016836
0.00167229
0.00167461
0.0016856
0.00168364
0.00167238
0.0016722
0.00168563
0.00168519
0.00167222
0.00167222
0.00168564
0.00168564
0.0016722
0.00168563
0.00167221
0.00167224
0.00167229
0.00167461
0.00167238
0.00167221
0.00167224
0.00167461
0.00167229
0.00167238
0.00168558
0.0016836
0.00167229
0.00167461
0.0016856
0.00168364
0.00167238
0.00168564
0.00167221
0.00168563
0.00167224
0.00168558
0.0016836
0.00167461
0.00167229
0.00168364
0.0016856
0.00167238
0.00168564
0.00167221
0.00168563
0.00167224
0.0016722
0.00167222
0.00167222
0.0016722
0.00168558
0.00167461
0.00167229
0.00168364
0.00167238
0.00168558
0.0016836
0.00167461
0.00167229
0.00168364
0.0016856
0.00167238
0.00168564
0.00167221
0.00167224
0.00168564
0.00167221
0.00168563
0.00167224
0.00168519
0.00167222
0.00167222
0.00168564
0.00168564
0.0016722
0.00168563
0.0016722
0.00168563
0.0016766
0.0016766
0.00167659
0.0016723
0.00167661
0.00167222
0.0016766
0.00167657
0.00167225
0.00167659
0.00167232
0.00167661
0.00167221
0.0016766
0.00167658
0.00167226
0.00167662
0.0016722
0.0016722
0.00167661
0.00167661
0.0016722
0.00168124
0.00168564
0.00168564
0.00168127
0.00168564
0.00168124
0.00168126
0.00167661
0.0016766
0.00167221
0.00167661
0.0016722
0.00167661
0.00167661
0.00167221
0.00167223
0.00167661
0.0016766
0.0016722
0.00168124
0.00168564
0.00168564
0.00168127
0.00168564
0.00168124
0.00168126
0.00167661
0.0016766
0.00167221
0.00167661
0.0016722
0.00168124
0.00168565
0.00168124
0.00168564
0.00168124
0.00167661
0.00167661
0.00167221
0.00167223
0.00167661
0.0016766
0.0016722
0.0016766
0.00168124
0.00168123
0.00168564
0.00168564
0.00168565
0.00168123
0.00168123
0.00167659
0.00167231
0.00167661
0.00167221
0.00167657
0.0016766
0.00167226
0.00167659
0.00167231
0.00167661
0.00167221
0.0016766
0.00167657
0.00167226
0.00168129
0.00168563
0.00168561
0.00168125
0.00168134
0.00168562
0.00168125
0.00168129
0.00168563
0.00168561
0.00168125
0.00168562
0.00168125
0.00168134
0.00167662
0.0016722
0.0016722
0.00167661
0.00167661
0.0016722
0.0016766
0.00168124
0.00167661
0.0016766
0.00167221
0.00167661
0.0016722
0.00167661
0.00167661
0.00167223
0.00167221
0.0016766
0.00167661
0.0016722
0.00167661
0.0016766
0.00167221
0.00167661
0.0016722
0.00167661
0.00167661
0.00167221
0.00167223
0.00167661
0.0016766
0.0016722
0.00168123
0.00168564
0.00168564
0.00168127
0.00168564
0.00168126
0.00168124
0.00167661
0.0016766
0.00167221
0.00167661
0.0016722
0.00168123
0.00168565
0.00168124
0.00168564
0.00168124
0.00167661
0.00167661
0.00167223
0.0016722
0.0016766
0.00167661
0.0016722
0.00168123
0.00168564
0.00168564
0.00168127
0.00168564
0.00168124
0.00168126
0.00167661
0.0016766
0.00167221
0.00167661
0.0016722
0.00168123
0.00168565
0.00168124
0.00168564
0.00168124
0.00167661
0.00167661
0.0016722
0.00167223
0.00167661
0.0016766
0.0016722
0.0016766
0.00167659
0.00167231
0.00167661
0.00167222
0.00167657
0.0016766
0.00167226
0.00167659
0.00167231
0.00167661
0.00167222
0.0016766
0.00167657
0.00167226
0.00167662
0.0016722
0.0016722
0.00167661
0.00167661
0.0016722
0.0016766
0.00168124
0.00168564
0.00168564
0.00168127
0.00168564
0.00168126
0.00168124
0.00167661
0.0016766
0.00167221
0.00167661
0.0016722
0.00168124
0.00168124
0.00167661
0.00167661
0.00167223
0.00167221
0.0016766
0.00167661
0.0016722
0.00168124
0.00168564
0.00168564
0.00168127
0.00168564
0.00168126
0.00168124
0.00167661
0.0016766
0.00167221
0.00167661
0.0016722
0.00168124
0.00168565
0.00168125
0.00168564
0.00168124
0.00167661
0.00167661
0.00167223
0.00167221
0.0016766
0.00167661
0.0016722
0.00168123
0.00168564
0.00168564
0.00168565
0.00168123
0.00168123
0.00167659
0.00167231
0.00167661
0.00167221
0.00167657
0.0016766
0.00167226
0.00167659
0.00167231
0.00167661
0.00167222
0.00167658
0.0016766
0.00167226
0.00168129
0.00168563
0.00168561
0.00168125
0.00168562
0.00168134
0.00168125
0.00168129
0.00168563
0.00168561
0.00168125
0.00168562
0.00168134
0.00168125
0.00167662
0.0016722
0.0016722
0.00167661
0.00167661
0.0016722
0.0016766
0.00168124
0.0016766
0.00168124
0.0016765
0.00167615
0.00167258
0.00167261
0.00167636
0.00167637
0.00167242
0.0016765
0.00167615
0.0016726
0.0016726
0.00167636
0.00167636
0.00167241
0.0016765
0.00167616
0.0016726
0.0016726
0.00167636
0.00167636
0.00167241
0.0016765
0.00167616
0.0016726
0.0016726
0.00167636
0.00167636
0.00167241
0.00167465
0.00167465
0.00168368
0.00168368
0.00167464
0.00168367
0.00167465
0.00167465
0.00168368
0.00168368
0.00168368
0.00167464
0.00167465
0.00167465
0.00168368
0.00168368
0.00167464
0.00168367
0.00167465
0.00167465
0.00168368
0.00168368
0.00168368
0.00167465
0.00168166
0.00168558
0.00168539
0.00168142
0.00168538
0.0016814
0.00168167
0.00167638
0.00167244
0.00167657
0.00167234
0.00167643
0.00167655
0.00167259
0.00167634
0.00167655
0.00167237
0.00167263
0.00167654
0.00167636
0.00167262
0.00168166
0.00168558
0.00168539
0.00168142
0.00168538
0.0016814
0.00168167
0.00167638
0.00167245
0.00167657
0.00167234
0.00167655
0.00167643
0.00167259
0.00168162
0.00168559
0.00168546
0.00168132
0.00168541
0.00168137
0.00168148
0.00167634
0.00167655
0.00167237
0.00167263
0.00167654
0.00167636
0.00167262
0.00168145
0.00168194
0.0016854
0.0016854
0.00168164
0.00168553
0.00168164
0.00167638
0.00167246
0.00167657
0.00167234
0.00167644
0.00167655
0.00167259
0.00167634
0.00167655
0.00167237
0.00167263
0.00167654
0.00167636
0.00167262
0.00167638
0.00167245
0.00167657
0.00167234
0.00167655
0.00167643
0.00167259
0.00167634
0.00167655
0.00167263
0.00167237
0.00167636
0.00167654
0.00167262
0.00168166
0.00168558
0.00168539
0.00168141
0.00168538
0.0016814
0.00168167
0.00167638
0.00167245
0.00167657
0.00167234
0.00167643
0.00167655
0.00167259
0.00168162
0.00168559
0.00168546
0.00168132
0.00168541
0.00168148
0.00168137
0.00167634
0.00167655
0.00167237
0.00167263
0.00167654
0.00167636
0.00167262
0.00168166
0.00168539
0.00168558
0.00168141
0.00168538
0.00168167
0.0016814
0.00167638
0.00167245
0.00167657
0.00167234
0.00167655
0.00167643
0.00167259
0.00168162
0.00168559
0.00168546
0.00168132
0.00168541
0.00168137
0.00168148
0.00167634
0.00167655
0.00167263
0.00167237
0.00167636
0.00167654
0.00167262
0.00168166
0.00168539
0.00168558
0.00168142
0.00168538
0.00168167
0.0016814
0.00167638
0.00167245
0.00167657
0.00167234
0.00167643
0.00167655
0.00167259
0.00168162
0.00168137
0.00167634
0.00167655
0.00167263
0.00167237
0.00167636
0.00167654
0.00167262
0.00168166
0.00168539
0.00168558
0.00168142
0.00168538
0.00168167
0.0016814
0.00167638
0.00167245
0.00167657
0.00167234
0.00167655
0.00167643
0.00167259
0.00168162
0.00168559
0.00168546
0.00168132
0.00168541
0.00168137
0.00168148
0.00167634
0.00167655
0.00167263
0.00167237
0.00167636
0.00167654
0.00167262
0.00168145
0.00168194
0.0016854
0.0016854
0.00168553
0.00168164
0.00168164
0.000777192
0.000777171
0.000777173
0.000778764
0.000743326
0.000778769
0.000749002
0.000777177
0.000777173
0.000750596
0.000750593
0.000778765
0.000749001
0.000777175
0.000777173
0.000750593
0.000750593
0.000777171
0.000750591
0.000750592
0.000778764
0.000749003
0.000777172
0.000750593
0.000750591
0.000749002
0.000741732
0.00074173
0.00076617
0.000779332
0.000766165
0.000779327
0.000779335
0.00076616
0.000766175
0.000779336
0.000766168
0.000779331
0.000777188
0.000777191
0.000777189
0.000750613
0.000750609
0.000750611
0.00075061
0.000766261
0.000779285
0.000777175
0.000768311
0.000766209
0.000768316
0.000779234
0.00077934
0.000766162
0.00076627
0.000777173
0.000779291
0.000768314
0.000768315
0.000766213
0.000779239
0.000779338
0.000779338
0.000766722
0.000766162
0.000766163
0.000743896
0.000743898
0.000779337
0.000766161
0.000779341
0.000766163
0.000779336
0.000779339
0.000766725
0.000766164
0.000766165
0.000748442
0.000761619
0.000748442
0.000761621
0.000761048
0.000748444
0.000748444
0.000761618
0.000761619
0.000766172
0.000779331
0.000766164
0.000779326
0.000766265
0.000779287
0.000777179
0.000768317
0.000766211
0.00076832
0.000779235
0.000766264
0.000779285
0.000777179
0.000768313
0.000766211
0.000768319
0.000779235
0.000761606
0.000748445
0.000761613
0.000748453
0.000761608
0.000748445
0.000761612
0.000748454
0.000761517
0.000759457
0.000748493
0.0007506
0.000761568
0.00075946
0.000748545
0.000761516
0.000759453
0.000748491
0.000750599
0.000761567
0.000759459
0.000748544
0.000779334
0.000779333
0.000766721
0.000766162
0.000766161
0.000779336
0.000766158
0.000748441
0.000761617
0.000761046
0.000748442
0.000748443
0.000761615
0.000761613
0.000748439
0.000761616
0.000766265
0.000779289
0.00077718
0.000768316
0.000766213
0.00076832
0.000779238
0.000766175
0.000779334
0.000766167
0.000779331
0.000766266
0.00077718
0.000779289
0.000768315
0.000768321
0.000766212
0.000779238
0.000761609
0.000748448
0.000761616
0.000748451
0.000761516
0.000759455
0.000748493
0.000750601
0.000761569
0.000759461
0.000748544
0.000761609
0.000748445
0.000761614
0.000748451
0.000761517
0.000759455
0.000750601
0.000748493
0.000759462
0.000761568
0.000748546
0.000766172
0.000779332
0.000766164
0.000779328
0.000766262
0.000777176
0.000779288
0.000768312
0.000768317
0.000766211
0.000779236
0.000766173
0.000779336
0.000766166
0.000779328
0.000761513
0.000759452
0.00074849
0.000750599
0.000761565
0.000759458
0.000748542
0.000761606
0.000748444
0.000761612
0.000748452
0.000761514
0.000759453
0.000750597
0.00074849
0.000759458
0.000761567
0.000748543
0.000761607
0.000748445
0.000761614
0.000748453
0.000779338
0.000779339
0.000766724
0.000766164
0.000766164
0.00077934
0.000766162
0.000748441
0.000761619
0.000761048
0.000748444
0.000748445
0.000761617
0.000761618
0.000748443
0.00076162
0.000766267
0.000777177
0.000779288
0.000768312
0.000768317
0.000766213
0.000779238
0.000766175
0.000779336
0.000766167
0.000779331
0.000766173
0.000779335
0.000766166
0.000779327
0.000761522
0.000759454
0.000750596
0.000748492
0.000759455
0.00076157
0.000748545
0.000761519
0.000759452
0.000750596
0.000748491
0.000759456
0.00076157
0.000748546
0.00076161
0.000748448
0.000761615
0.000748456
0.000761609
0.000748447
0.000761614
0.000748456
0.00077934
0.00076616
0.000779339
0.000766161
0.000761047
0.000748443
0.000748444
0.000761616
0.000761617
0.000748441
0.000761617
0.000748442
0.000761619
0.000741735
0.000743846
0.000743796
0.000743893
0.000743889
0.000743848
0.000743896
0.000743898
0.000743899
0.000770482
0.000766158
0.000766166
0.000770465
0.000770483
0.000770467
0.000766155
0.000775017
0.000775025
0.000779341
0.000775016
0.000779343
0.000770482
0.000766156
0.000770474
0.000770482
0.000766156
0.000775016
0.000775032
0.000779343
0.000779329
0.000775019
0.000775028
0.000779343
0.000775018
0.000770477
0.000770486
0.000766173
0.00076616
0.000770471
0.000770474
0.000770486
0.000766159
0.000775021
0.000775028
0.000779346
0.000775019
0.000779347
0.000770486
0.000766159
0.000770476
0.000770485
0.00076616
0.00077502
0.000775036
0.000779332
0.000779347
0.000775032
0.000775022
0.000779347
0.000775022
0.000770479
0.000770488
0.000766152
0.000766152
0.000770485
0.000770486
0.000766148
0.000775048
0.000779278
0.000775024
0.000779334
0.00077508
0.000775025
0.000779312
0.000775048
0.000779276
0.000775023
0.000779335
0.000775079
0.000775026
0.000779312
0.000770449
0.000766164
0.000770477
0.00076622
0.000770417
0.000770473
0.000766187
0.00077045
0.000766165
0.000770477
0.000766221
0.000770417
0.000770474
0.000766188
0.00077501
0.000779346
0.000779347
0.000775013
0.000775013
0.000779349
0.000739606
0.000743837
0.000743893
0.00073958
0.00074387
0.000739639
0.000739584
0.000739608
0.000743839
0.000743894
0.000739583
0.000743871
0.000739641
0.000739586
0.00073957
0.000743905
0.000743906
0.000743909
0.000739572
0.000739573
0.000775021
0.000770479
0.000775023
0.000770481
0.000770491
0.000766155
0.000766155
0.000770488
0.000770488
0.000766152
0.00077505
0.000779277
0.000775023
0.000779334
0.000775026
0.00077508
0.000779312
0.000775051
0.000779277
0.000775025
0.000779337
0.000775028
0.000775081
0.000779313
0.000770452
0.000766166
0.000770478
0.000766221
0.000770475
0.000766189
0.000770417
0.000770454
0.000766168
0.000770479
0.000766222
0.000770476
0.00076619
0.000770419
0.000775012
0.000779347
0.000779348
0.000775015
0.000775016
0.000779351
0.000752761
0.000757303
0.00075276
0.000757303
0.000757292
0.000761628
0.000761628
0.000761631
0.000757295
0.000757295
0.000752734
0.000748502
0.000752759
0.000748447
0.000752756
0.000752698
0.00074847
0.000752733
0.000748504
0.000752759
0.000748447
0.000752757
0.000752701
0.00074847
0.000757329
0.000761615
0.000761558
0.000757304
0.000761592
0.000757307
0.000757361
0.00075733
0.000761617
0.00076156
0.000757305
0.000761593
0.000757308
0.000757363
0.000752772
0.000748435
0.000748435
0.000752768
0.000752768
0.000748431
0.000770484
0.000766158
0.000766169
0.000770467
0.000770484
0.00077047
0.000766157
0.000775017
0.000775023
0.000779341
0.000775016
0.000779342
0.000770483
0.000766157
0.000770473
0.000770484
0.000766158
0.000775016
0.000775032
0.000779343
0.000779327
0.00077502
0.000775028
0.000779343
0.000757297
0.000761622
0.000761608
0.000757312
0.000761623
0.000757299
0.000757308
0.000752764
0.000752754
0.000748438
0.000748438
0.000752763
0.000757298
0.000761622
0.000757306
0.000761623
0.000757297
0.000752764
0.000752747
0.00074844
0.00074845
0.000748438
0.000752764
0.000752748
0.000757298
0.000761623
0.000761609
0.000757313
0.000761624
0.0007573
0.000757309
0.000752765
0.000752754
0.000748438
0.000752764
0.000748439
0.000757298
0.000761622
0.000757304
0.000761623
0.000757296
0.000752765
0.000752748
0.000748441
0.000748451
0.000752765
0.000752751
0.000748439
0.000770487
0.000766151
0.000766151
0.000770484
0.000770484
0.000766148
0.000775045
0.000779274
0.000775021
0.000779331
0.000775023
0.000775077
0.000779307
0.000775045
0.000779273
0.000775021
0.000779332
0.000775077
0.000775023
0.000779308
0.000770447
0.000766164
0.000770475
0.000766218
0.000770472
0.000770414
0.000766186
0.000770448
0.000766163
0.000770474
0.000766218
0.000770414
0.000770472
0.000766186
0.000775008
0.000779343
0.000779343
0.000775011
0.000775011
0.000779346
0.000775018
0.000770476
0.000752759
0.0007573
0.000757289
0.000761625
0.000761624
0.000761627
0.000757292
0.000757292
0.000752729
0.0007485
0.000752756
0.000748444
0.000752695
0.000752754
0.000748467
0.00075273
0.000748499
0.000752756
0.000748445
0.000752754
0.000752695
0.000748467
0.000757326
0.000761613
0.000761555
0.000757301
0.000757359
0.000761589
0.000757304
0.000757327
0.000761612
0.000761555
0.000757302
0.000761589
0.000757304
0.000757358
0.000752768
0.000748432
0.000748432
0.000752766
0.000752765
0.000748429
0.000752758
0.0007573
0.000770486
0.00076616
0.000766171
0.000770471
0.000770485
0.000770472
0.000766158
0.00077502
0.000775026
0.000779345
0.000775019
0.000779346
0.000770485
0.000766158
0.000770475
0.000770484
0.000766159
0.00077502
0.000775036
0.000779346
0.000779333
0.000775022
0.000775033
0.000779347
0.000757298
0.000761614
0.000761622
0.000757312
0.000761626
0.000757312
0.000757297
0.000752765
0.000752757
0.000748439
0.000748439
0.000752766
0.0007573
0.000761625
0.000757308
0.000761625
0.000757299
0.000752766
0.000752746
0.000748452
0.000748438
0.000748438
0.000752754
0.000752762
0.000757296
0.000761623
0.000761609
0.000757311
0.000761624
0.000757298
0.000757307
0.000752764
0.000752754
0.000748437
0.000752763
0.000748439
0.000757298
0.000761623
0.000757305
0.000761624
0.000757297
0.000752763
0.000752745
0.000748438
0.000748447
0.000752762
0.000752746
0.000748437
0.000770485
0.000766169
0.000766159
0.000770467
0.00077047
0.000770484
0.000766157
0.000775017
0.000775024
0.000779342
0.000775015
0.000779344
0.000770482
0.000766155
0.000770472
0.000770482
0.000766156
0.000775018
0.000775033
0.00077933
0.000779345
0.00077503
0.00077502
0.000779345
0.000770486
0.000766159
0.000766169
0.000770469
0.000770484
0.000770472
0.000766157
0.00077502
0.000775027
0.000779345
0.000775019
0.000779346
0.000770486
0.000766158
0.000770475
0.000770485
0.000766159
0.000775019
0.000775034
0.000779344
0.000779332
0.00077502
0.000775031
0.000779346
0.000757296
0.00076161
0.000761622
0.000757311
0.000761624
0.000757308
0.000757297
0.000752761
0.000752753
0.000748434
0.000752761
0.000748435
0.000757296
0.000761621
0.000757304
0.000761622
0.000757295
0.000752762
0.000752746
0.000748447
0.000748436
0.000752748
0.000752761
0.000748435
0.000757297
0.000761623
0.00076161
0.000757312
0.000761624
0.000757298
0.000757308
0.000752764
0.000752755
0.000748437
0.000752763
0.000748438
0.000757298
0.000761624
0.000757305
0.000761624
0.000757296
0.000752764
0.000752747
0.000748438
0.00074845
0.000752762
0.00075275
0.000748437
0.000770489
0.000766154
0.000766154
0.000770487
0.000770487
0.000766151
0.000775049
0.00077928
0.000775024
0.000779334
0.000775025
0.000775082
0.000779313
0.000775049
0.000779278
0.000775025
0.000779336
0.00077508
0.000775027
0.000779312
0.00077045
0.000766166
0.000770477
0.000766221
0.000770474
0.000770417
0.000766188
0.000770451
0.000766166
0.000770478
0.000766221
0.000770418
0.000770475
0.000766188
0.00077501
0.000779347
0.000779347
0.000775014
0.000775014
0.00077935
0.000775022
0.000770479
0.000752759
0.000757301
0.000757292
0.000761628
0.000761628
0.000761631
0.000757294
0.000757295
0.000752732
0.000748502
0.000752757
0.000748446
0.000752698
0.000752755
0.00074847
0.000752733
0.000748503
0.000752759
0.000748446
0.000752757
0.000752698
0.00074847
0.000757329
0.000761615
0.000761556
0.000757303
0.000757361
0.000761591
0.000757306
0.00075733
0.000761615
0.000761558
0.000757305
0.000761592
0.000757307
0.000757361
0.000752771
0.000748434
0.000748434
0.000752767
0.000752768
0.000748431
0.000752761
0.000757303
0.000770489
0.000766172
0.000766161
0.000770469
0.000770473
0.000770486
0.00076616
0.000775022
0.000775027
0.000779347
0.00077502
0.000779347
0.000770487
0.000766159
0.000770476
0.000770486
0.000766161
0.000775023
0.000775035
0.000779336
0.000779347
0.000775034
0.000775023
0.00077935
0.000770484
0.00076617
0.00076616
0.000770468
0.000770469
0.000770484
0.000766158
0.000775018
0.000775026
0.000779344
0.000775018
0.000779344
0.000770484
0.000766159
0.000770475
0.000770484
0.000766159
0.000775017
0.000775032
0.000779328
0.000779345
0.000775028
0.00077502
0.000779344
0.000757299
0.00076161
0.000761625
0.000757315
0.000761626
0.00075731
0.000757301
0.000752766
0.000752756
0.000748439
0.000752765
0.000748441
0.0007573
0.000761625
0.000757306
0.000761626
0.000757298
0.000752766
0.000752749
0.000748451
0.000748443
0.000752751
0.000752766
0.00074844
0.0007573
0.000761611
0.000761625
0.000757315
0.000761625
0.000757311
0.000757301
0.000752767
0.000752755
0.000748439
0.000752765
0.000748441
0.000757299
0.000761624
0.000757306
0.000761625
0.000757299
0.000752767
0.00075275
0.000748452
0.000748442
0.000752751
0.000752766
0.000748441
0.000775022
0.000770479
0.000775021
0.000770479
0.000757291
0.000761626
0.000761626
0.000761629
0.000757293
0.000757294
0.000752733
0.000748501
0.000752758
0.000748445
0.000748469
0.000752697
0.000752754
0.000752732
0.000748501
0.000752757
0.000748446
0.000748468
0.000752698
0.000752755
0.000757329
0.000761614
0.000761557
0.000757303
0.000761591
0.000757359
0.000757305
0.000757329
0.000761615
0.000761558
0.000757303
0.000761592
0.000757361
0.000757306
0.00075277
0.000748433
0.000748433
0.00074843
0.000752767
0.000752767
0.000752759
0.0007573
0.000752759
0.000757301
0.000739577
0.000743903
0.000739584
0.000743903
0.000739576
0.000739576
0.000739592
0.000743902
0.000743891
0.000743904
0.000739577
0.000739589
0.000739586
0.000739579
0.000739581
0.000777186
0.000777187
0.000768332
0.000768326
0.000768328
0.000768323
0.000777183
0.000775159
0.000779035
0.000779034
0.00077558
0.000775323
0.000775322
0.000779202
0.000739719
0.000743597
0.000743598
0.00074014
0.000743763
0.000739884
0.000739884
0.000775159
0.000779035
0.000779035
0.000775584
0.000775325
0.000775323
0.000779199
0.000752623
0.000752187
0.000748746
0.000748746
0.000752455
0.000752457
0.000748583
0.000775156
0.000779032
0.000779032
0.000775581
0.000775321
0.000775323
0.000779196
0.000752618
0.000752185
0.000748744
0.000748742
0.000752454
0.000752453
0.000748579
0.00077516
0.000779035
0.000779036
0.000775582
0.000775323
0.000775324
0.000779203
0.00075262
0.000752188
0.000748745
0.000748745
0.000752456
0.000752456
0.000748581
0.00075262
0.000752186
0.000748744
0.000748745
0.000748581
0.000752454
0.000752456
0.000777186
0.000777185
0.000768328
0.000768326
0.000768325
0.000768324
0.000777184
0.000777187
0.000777185
0.000768332
0.000768328
0.000768325
0.000768323
0.000777183
0.000777185
0.000777186
0.000768329
0.000768325
0.000768326
0.000768324
0.000777184
0.000759472
0.000750607
0.00075061
0.000759467
0.000759469
0.000759464
0.000750604
0.000759469
0.000750607
0.000750608
0.000759466
0.000759467
0.000759464
0.000750605
0.000759471
0.00075061
0.000750607
0.000759469
0.000759466
0.000759464
0.000750604
0.00075947
0.000750607
0.000750607
0.000759465
0.000759466
0.000759464
0.000750604
0.000770139
0.000766257
0.000766484
0.000770376
0.000770381
0.000770142
0.000766488
0.000775314
0.000779129
0.000775069
0.000779256
0.000775217
0.000775102
0.000779034
0.000770176
0.000766242
0.000770426
0.000766358
0.00077027
0.000770399
0.000766454
0.000775347
0.000775123
0.000779239
0.000779
0.000775118
0.000775343
0.000778997
0.000770142
0.000766489
0.000766263
0.000770379
0.000770146
0.000770384
0.000766492
0.000775319
0.000779133
0.000775073
0.000779264
0.000775221
0.000775107
0.00077904
0.000770179
0.000766246
0.00077043
0.000766362
0.000770273
0.000770402
0.000766458
0.00077535
0.000775127
0.000779003
0.000779246
0.000775346
0.000775123
0.000779001
0.00077034
0.000769907
0.000766465
0.000766464
0.000770176
0.000770176
0.000766299
0.00077034
0.00076991
0.000766466
0.000766466
0.000766301
0.000770176
0.000770176
0.000757442
0.000757863
0.000761317
0.000761318
0.000761483
0.000757606
0.000757605
0.000770146
0.000766261
0.00076649
0.000770377
0.000770382
0.000770148
0.000766496
0.000775316
0.000779132
0.00077507
0.000779257
0.000775101
0.000775219
0.000779038
0.000770178
0.000766242
0.000770428
0.000766361
0.000770398
0.000770273
0.000766458
0.000775352
0.000775123
0.000779241
0.000779004
0.000775119
0.000775348
0.000779003
0.000770143
0.000766261
0.000766488
0.000770376
0.000770382
0.000770145
0.000766492
0.000775315
0.000779129
0.000775069
0.000779256
0.000775101
0.000775218
0.000779035
0.000770176
0.000766245
0.000770427
0.000766361
0.000770398
0.000766458
0.00077027
0.000775352
0.000775122
0.00077924
0.000779004
0.000775118
0.000775346
0.000779003
0.000757633
0.000761523
0.000761287
0.000757405
0.000761286
0.0007574
0.000757629
0.000752459
0.000748642
0.000752709
0.000748524
0.000752554
0.000752679
0.000748738
0.000757598
0.000761539
0.000761414
0.000757351
0.0007575
0.00076132
0.000757382
0.000752425
0.000752657
0.00074854
0.000748768
0.000752662
0.000752427
0.000748773
0.00075763
0.000761522
0.000761285
0.000757404
0.000761282
0.000757399
0.000757627
0.000752455
0.00074864
0.000752707
0.000748523
0.000752678
0.00075255
0.000748735
0.000757597
0.000761541
0.000761413
0.00075735
0.000761318
0.000757385
0.000757501
0.000752421
0.000752657
0.000748539
0.000748767
0.000752661
0.000752425
0.00074877
0.000770337
0.000769905
0.000766462
0.000766462
0.000770173
0.000770174
0.000766296
0.000757437
0.000757861
0.000761313
0.000761313
0.000757603
0.000761477
0.000757601
0.000770144
0.000766263
0.000766487
0.000770378
0.000770386
0.000770145
0.000766492
0.000775318
0.000779132
0.000775073
0.000779259
0.000775105
0.000775221
0.000779037
0.000770179
0.000766244
0.00077043
0.000766361
0.0007704
0.000770273
0.000766457
0.000775354
0.000775126
0.000779243
0.000779005
0.000775124
0.000775347
0.000779003
0.000770143
0.000766488
0.000766261
0.000770378
0.000770146
0.000770383
0.000766493
0.000775317
0.000779132
0.000775072
0.00077926
0.000775105
0.000775221
0.000779036
0.000770178
0.000766244
0.000770427
0.00076636
0.000770399
0.000766457
0.000770272
0.000775351
0.000775125
0.000779005
0.000779242
0.000775346
0.000775121
0.000779001
0.00075763
0.000761522
0.000761285
0.000757403
0.000761281
0.000757399
0.000757629
0.000752456
0.000748641
0.000752709
0.000748524
0.000752552
0.000752678
0.000748737
0.000757595
0.000761538
0.000761412
0.000757353
0.0007575
0.000761316
0.000757382
0.000752421
0.000752657
0.000748539
0.00074877
0.00075266
0.000752429
0.000748771
0.000757635
0.000761286
0.000761522
0.000757404
0.000761285
0.00075763
0.000757401
0.00075246
0.000748643
0.000752709
0.000748525
0.00075268
0.000752554
0.000748739
0.000757599
0.000761538
0.000761412
0.000757352
0.000761318
0.000757384
0.000757502
0.000752427
0.000752658
0.000748771
0.000748541
0.00075243
0.000752663
0.000748775
0.00077014
0.000766483
0.000766258
0.000770376
0.000770141
0.000770381
0.000766489
0.000775314
0.00077913
0.000775071
0.000779257
0.000775218
0.000775103
0.000779034
0.000770176
0.000766243
0.000770428
0.00076636
0.000770272
0.000770399
0.000766455
0.000775348
0.000775123
0.000779002
0.00077924
0.000775342
0.000775119
0.000778999
0.000757628
0.000761518
0.000761282
0.000757401
0.000761278
0.000757397
0.000757624
0.000752453
0.000748637
0.000752705
0.00074852
0.000748733
0.000752548
0.000752675
0.000757593
0.000761536
0.000761409
0.000757349
0.000761314
0.000757496
0.000757381
0.00075242
0.000752654
0.000748537
0.000748764
0.000748769
0.000752659
0.000752423
0.000757629
0.000761282
0.000761521
0.000757401
0.000761281
0.000757624
0.000757398
0.000752455
0.000748638
0.000752707
0.000748521
0.000752677
0.00075255
0.000748734
0.000757594
0.000761537
0.000761412
0.00075735
0.000761316
0.000757381
0.000757498
0.00075242
0.000752655
0.000748764
0.000748538
0.000752423
0.000752659
0.000748768
0.00077034
0.000769908
0.000766465
0.000766464
0.000770177
0.000770176
0.000766299
0.000757439
0.000757864
0.000761315
0.000761316
0.000757605
0.000761479
0.000757603
0.000770145
0.000766489
0.000766262
0.000770379
0.000770148
0.000770383
0.000766492
0.000775316
0.00077913
0.000775071
0.000779258
0.00077522
0.000775103
0.000779036
0.000770178
0.000766248
0.000770429
0.000766363
0.000770272
0.000770399
0.000766459
0.000775354
0.000775126
0.000779007
0.000779242
0.000775349
0.000775121
0.000779004
0.000757631
0.000761287
0.000761524
0.000757407
0.000761284
0.000757626
0.000757401
0.000752456
0.000748641
0.000752709
0.000748524
0.000748737
0.000752551
0.000752679
0.000757597
0.000761542
0.000761414
0.000757353
0.000761318
0.000757502
0.000757385
0.000752422
0.000752657
0.000748764
0.000748541
0.000748771
0.000752424
0.000752662
0.00075763
0.000761286
0.000761524
0.000757406
0.000761283
0.000757625
0.000757402
0.000752456
0.000748639
0.000752709
0.000748523
0.00075268
0.000752552
0.000748735
0.000757597
0.000761543
0.000761414
0.000757352
0.000761319
0.000757386
0.000757502
0.000752421
0.000752657
0.000748766
0.00074854
0.000752424
0.000752663
0.000748769
0.000757438
0.000757861
0.000761315
0.000761314
0.000761479
0.000757602
0.000757602
0.000739874
0.000743691
0.000743816
0.000739629
0.000739778
0.000743594
0.000739662
0.000739909
0.000739686
0.000743562
0.0007438
0.000739905
0.000743559
0.00073968
0.00074369
0.000739631
0.000739779
0.00166561
0.00166553
0.00166553
0.00166712
0.00162949
0.00162941
0.00162941
0.001631
0.0015934
0.00159332
0.00159332
0.00159491
0.00155734
0.00155727
0.00155727
0.00155886
0.00152135
0.00152127
0.00152127
0.00152286
0.00148544
0.00148536
0.00148536
0.00148695
0.00144963
0.00144956
0.00144955
0.00145114
0.00141394
0.00141387
0.00141387
0.00141544
0.00137836
0.00137829
0.00137829
0.00137986
0.0013429
0.00134283
0.00134283
0.0013444
0.00130752
0.00130746
0.00130746
0.00130903
0.00127222
0.00127217
0.00127217
0.00127373
0.00123697
0.00123691
0.00123691
0.00123848
0.00120174
0.00120169
0.00120169
0.00120326
0.0011665
0.00116646
0.00116646
0.00116804
0.00113124
0.00113121
0.00113121
0.00113279
0.00109593
0.00109591
0.00109591
0.00109749
0.00106057
0.00106055
0.00106055
0.00106214
0.00102518
0.00102516
0.00102516
0.00102675
0.000989765
0.000989745
0.000989741
0.000991339
0.000954338
0.00095432
0.000954319
0.00095591
0.000918909
0.000918893
0.000918893
0.000920485
0.000883485
0.000883465
0.000883469
0.000885062
0.000848057
0.000848041
0.000848042
0.000849637
0.000812626
0.000812609
0.000812609
0.0008142
0.00166712
0.00163679
0.00166553
0.00166553
0.00163844
0.00163844
0.00166712
0.00163679
0.00166553
0.00166553
0.00163844
0.00163844
0.00166553
0.00163844
0.00163844
0.00166712
0.00163679
0.00166553
0.00163844
0.00163844
0.00163679
0.001631
0.00160069
0.00162941
0.00162941
0.00160234
0.00160234
0.001631
0.00160069
0.00162941
0.00162941
0.00160234
0.00160234
0.00162941
0.00160234
0.00160234
0.001631
0.00160069
0.00162941
0.00160234
0.00160234
0.00160069
0.00159491
0.00156463
0.00159332
0.00159332
0.00156628
0.00156628
0.00159491
0.00156463
0.00159332
0.00159332
0.00156628
0.00156628
0.00159332
0.00156628
0.00156628
0.00159491