/*--------------------------------*- C++ -*----------------------------------*\
| =========                 |                                                 |
| \\      /  F ield         | OpenFOAM: The Open Source CFD Toolbox           |
|  \\    /   O peration     | Version:  v1912                                 |
|   \\  /    A nd           | Website:  www.openfoam.com                      |
|    \\/     M anipulation  |                                                 |
\*---------------------------------------------------------------------------*/
FoamFile
{
    version     2.0;
    format      ascii;
    class       volScalarField;
    location    "0.1";
    object      nut;
}
// * * * * * * * * * * * * * * * * * * * * * * * * * * * * * * * * * * * * * //

dimensions      [0 2 -1 0 0 0 0];


internalField   nonuniform List<scalar> 
171728
(
2.97934e-07
3.49243e-07
3.49132e-07
1.47624e-07
1.91234e-08
2.35723e-08
2.37044e-08
2.76221e-08
1.09524e-09
1.89299e-09
1.88932e-09
2.7078e-08
1.65153e-10
1.0786e-09
1.08074e-09
2.71167e-08
1.12664e-10
1.03175e-09
1.04319e-09
2.71188e-08
1.1355e-10
1.04675e-09
1.03984e-09
2.71188e-08
1.04484e-10
1.04725e-09
1.03888e-09
2.712e-08
1.16149e-10
1.04197e-09
1.04054e-09
2.71203e-08
1.04951e-10
1.0406e-09
1.03528e-09
2.71205e-08
1.01008e-10
1.04048e-09
1.04e-09
2.71206e-08
1.36574e-10
1.03878e-09
1.03927e-09
2.71208e-08
1.06959e-10
1.03831e-09
1.04002e-09
2.71211e-08
1.04823e-10
1.04398e-09
1.04023e-09
2.71211e-08
1.03262e-10
1.04242e-09
1.04162e-09
2.71213e-08
1.04162e-10
1.02388e-09
1.04021e-09
2.71212e-08
1.09646e-10
1.05108e-09
1.04036e-09
2.71209e-08
1.08115e-10
1.04047e-09
1.04021e-09
2.71214e-08
1.06435e-10
1.03128e-09
1.04042e-09
2.71221e-08
1.30043e-10
1.03056e-09
1.03903e-09
2.71212e-08
1.17758e-10
1.05428e-09
1.03701e-09
2.71228e-08
1.32156e-10
1.04429e-09
1.04027e-09
2.71232e-08
1.05165e-10
1.04249e-09
1.04078e-09
2.71234e-08
1.02732e-10
1.04094e-09
1.04019e-09
2.71237e-08
1.02963e-10
1.04153e-09
1.04097e-09
2.71231e-08
1.03253e-10
1.04159e-09
1.04129e-09
2.71233e-08
1.02899e-10
1.04129e-09
1.04065e-09
2.71234e-08
1.03047e-10
1.04158e-09
1.04095e-09
2.71232e-08
1.03275e-10
1.04129e-09
1.04067e-09
2.71231e-08
1.03075e-10
1.04174e-09
1.04112e-09
2.71233e-08
1.0311e-10
1.04129e-09
1.04079e-09
2.71233e-08
1.02885e-10
1.04258e-09
1.04059e-09
2.71232e-08
1.03263e-10
1.03949e-09
1.04089e-09
2.71233e-08
1.02993e-10
1.04188e-09
1.04087e-09
2.71235e-08
1.03202e-10
1.04144e-09
1.04209e-09
2.71234e-08
1.03208e-10
1.04182e-09
1.04289e-09
2.71234e-08
1.03005e-10
1.04202e-09
1.04343e-09
2.71236e-08
1.0298e-10
1.04154e-09
1.04294e-09
2.71237e-08
1.03379e-10
1.04204e-09
1.04349e-09
2.71234e-08
1.04872e-10
1.04177e-09
1.04543e-09
2.71233e-08
1.0955e-10
1.0442e-09
1.0424e-09
2.71217e-08
1.32605e-10
1.0261e-09
1.0426e-09
2.71234e-08
1.07115e-10
1.05133e-09
1.0412e-09
2.71228e-08
1.05083e-10
1.04577e-09
1.04178e-09
2.71232e-08
1.04297e-10
1.04126e-09
1.04142e-09
2.71238e-08
1.04368e-10
1.04099e-09
1.04278e-09
2.71239e-08
1.04131e-10
1.04093e-09
1.04212e-09
2.71236e-08
1.0456e-10
1.0411e-09
1.04273e-09
2.71239e-08
1.0434e-10
1.04075e-09
1.04402e-09
2.71241e-08
1.04275e-10
1.04088e-09
1.0441e-09
2.7124e-08
1.0446e-10
1.04082e-09
1.04402e-09
2.7124e-08
1.04657e-10
1.0411e-09
1.046e-09
2.71242e-08
1.04823e-10
1.04131e-09
1.04224e-09
2.71239e-08
1.05276e-10
1.04188e-09
1.04194e-09
2.71237e-08
1.07709e-10
1.04866e-09
1.04131e-09
2.71236e-08
1.136e-10
1.02741e-09
1.04258e-09
2.71236e-08
1.05379e-10
1.03958e-09
1.03889e-09
2.71232e-08
1.03682e-10
1.04069e-09
1.03997e-09
2.71227e-08
1.03844e-10
1.04092e-09
1.03994e-09
2.71224e-08
1.03713e-10
1.04115e-09
1.04022e-09
2.71226e-08
1.03316e-10
1.04102e-09
1.0398e-09
2.71228e-08
1.03653e-10
1.04104e-09
1.04052e-09
2.71224e-08
1.03691e-10
1.04076e-09
1.03973e-09
2.71228e-08
1.03539e-10
1.04115e-09
1.0401e-09
2.71227e-08
1.03505e-10
1.04071e-09
1.03974e-09
2.71226e-08
1.03808e-10
1.04082e-09
1.0398e-09
2.71225e-08
1.03768e-10
1.0412e-09
1.04023e-09
2.71226e-08
1.03049e-10
1.04099e-09
1.04019e-09
2.71229e-08
1.02209e-10
1.04029e-09
1.03986e-09
2.71223e-08
1.02215e-10
1.03872e-09
1.04313e-09
2.71225e-08
1.06401e-10
1.03972e-09
1.0292e-09
2.71247e-08
1.0612e-10
1.042e-09
1.03569e-09
2.71215e-08
1.03853e-10
1.04129e-09
1.04117e-09
2.71216e-08
1.03711e-10
1.04122e-09
1.0413e-09
2.71216e-08
1.04005e-10
1.04102e-09
1.03975e-09
2.71218e-08
1.03511e-10
1.04097e-09
1.03926e-09
2.71216e-08
1.0378e-10
1.04048e-09
1.03881e-09
2.71216e-08
1.03856e-10
1.04115e-09
1.03942e-09
2.71217e-08
1.03741e-10
1.04084e-09
1.03921e-09
2.71217e-08
1.03738e-10
1.04104e-09
1.03993e-09
2.71217e-08
1.03751e-10
1.041e-09
1.03991e-09
2.71215e-08
1.0397e-10
1.04103e-09
1.03993e-09
2.71218e-08
1.03413e-10
1.04072e-09
1.03963e-09
2.71216e-08
1.03651e-10
1.04125e-09
1.04013e-09
2.71217e-08
1.04533e-10
1.04049e-09
1.03938e-09
2.71216e-08
1.0514e-10
1.04118e-09
1.04008e-09
2.71217e-08
1.04528e-10
1.04082e-09
1.04023e-09
2.71219e-08
1.04934e-10
1.04063e-09
1.03883e-09
2.71215e-08
1.04747e-10
1.04125e-09
1.03947e-09
2.71219e-08
1.04518e-10
1.04073e-09
1.03859e-09
2.71218e-08
1.04912e-10
1.04103e-09
1.0406e-09
2.71217e-08
1.09744e-10
1.04205e-09
1.0411e-09
2.71221e-08
2.03038e-10
1.09599e-09
1.09655e-09
2.71242e-08
2.0586e-09
2.3145e-09
2.34896e-09
2.72333e-08
3.69799e-08
3.5957e-08
3.59705e-08
2.85998e-08
2.17773e-07
1.03844e-07
1.03901e-07
1.1822e-07
1.66081e-07
1.93916e-07
1.93932e-07
1.66036e-07
1.93936e-07
1.93994e-07
3.77548e-07
3.77538e-07
3.77538e-07
3.77539e-07
1.93861e-07
1.93924e-07
1.65991e-07
1.939e-07
1.93908e-07
1.65981e-07
1.47671e-07
7.61475e-08
3.49018e-07
3.49151e-07
5.24592e-08
5.23507e-08
1.47637e-07
7.57854e-08
3.49285e-07
3.49109e-07
5.25483e-08
5.25459e-08
3.49089e-07
5.24684e-08
5.24669e-08
1.47658e-07
7.61759e-08
3.49226e-07
5.2625e-08
5.2584e-08
7.60647e-08
2.76503e-08
7.07191e-08
2.35442e-08
2.36201e-08
2.90565e-09
2.94727e-09
2.75299e-08
7.07832e-08
2.36503e-08
2.3673e-08
2.92411e-09
2.94976e-09
2.37005e-08
2.8887e-09
2.93262e-09
2.76916e-08
7.07758e-08
2.37845e-08
2.92941e-09
2.92917e-09
7.07653e-08
2.70629e-08
7.06626e-08
1.86988e-09
1.89821e-09
1.137e-09
1.13207e-09
2.70682e-08
7.06665e-08
1.91835e-09
1.90176e-09
1.11873e-09
1.13834e-09
1.92075e-09
1.12294e-09
1.13546e-09
2.70752e-08
7.06686e-08
1.92747e-09
1.11061e-09
1.11908e-09
7.06498e-08
2.71108e-08
7.0655e-08
1.09533e-09
1.09451e-09
1.05768e-09
1.03534e-09
2.71075e-08
7.06604e-08
1.07805e-09
1.09499e-09
1.04498e-09
1.06142e-09
1.09046e-09
1.03296e-09
1.05576e-09
2.71178e-08
7.06616e-08
1.07824e-09
1.0417e-09
1.04047e-09
7.06425e-08
2.71094e-08
7.06552e-08
1.05142e-09
1.02496e-09
1.05155e-09
1.02791e-09
2.71118e-08
7.06563e-08
1.04288e-09
1.05649e-09
1.03856e-09
1.05689e-09
1.05241e-09
1.0295e-09
1.04911e-09
2.71203e-08
7.06631e-08
1.0384e-09
1.03557e-09
1.03413e-09
7.06443e-08
2.71089e-08
7.06543e-08
1.05094e-09
1.05129e-09
1.03885e-09
1.07731e-09
2.71182e-08
7.06626e-08
1.03701e-09
1.05427e-09
1.03342e-09
1.05622e-09
1.04877e-09
1.0513e-09
1.04932e-09
2.71204e-08
7.06634e-08
1.03577e-09
1.03423e-09
1.03426e-09
7.06443e-08
2.71125e-08
7.06537e-08
1.00769e-09
1.06931e-09
1.07525e-09
1.06014e-09
2.71114e-08
7.06641e-08
1.03097e-09
1.05411e-09
1.04914e-09
1.05556e-09
1.04933e-09
1.04248e-09
1.04939e-09
2.71208e-08
7.06642e-08
1.03608e-09
1.03484e-09
1.03514e-09
7.06446e-08
2.71121e-08
7.06562e-08
1.05905e-09
1.05985e-09
1.05506e-09
1.05867e-09
2.71111e-08
7.06643e-08
1.04712e-09
1.05318e-09
1.04373e-09
1.05594e-09
1.04924e-09
1.04097e-09
1.04945e-09
2.7121e-08
7.06649e-08
1.03746e-09
1.03139e-09
1.03533e-09
7.06459e-08
2.71094e-08
7.06583e-08
1.05514e-09
1.05867e-09
1.04643e-09
1.05412e-09
2.71115e-08
7.06667e-08
1.04195e-09
1.05459e-09
1.03719e-09
1.05686e-09
1.04946e-09
1.04014e-09
1.05013e-09
2.71213e-08
7.06645e-08
1.0359e-09
1.03505e-09
1.03589e-09
7.06451e-08
2.71094e-08
7.0654e-08
1.03772e-09
1.0507e-09
1.07858e-09
1.05611e-09
2.71086e-08
7.06714e-08
1.02757e-09
1.05499e-09
1.05401e-09
1.05588e-09
1.05026e-09
1.03658e-09
1.04977e-09
2.71212e-08
7.06658e-08
1.03778e-09
1.03458e-09
1.0354e-09
7.06459e-08
2.71155e-08
7.06604e-08
1.09215e-09
1.05622e-09
1.05854e-09
1.05698e-09
2.71109e-08
7.06686e-08
1.05311e-09
1.05372e-09
1.0472e-09
1.05541e-09
1.04925e-09
1.03936e-09
1.04878e-09
2.71214e-08
7.06665e-08
1.03677e-09
1.03481e-09
1.03479e-09
7.06468e-08
2.71112e-08
7.06599e-08
1.0555e-09
1.05021e-09
1.05249e-09
1.061e-09
2.71111e-08
7.06636e-08
1.04197e-09
1.05352e-09
1.04246e-09
1.05579e-09
1.04881e-09
1.04403e-09
1.04915e-09
2.7122e-08
7.06658e-08
1.03671e-09
1.03535e-09
1.03516e-09
7.06465e-08
2.7111e-08
7.06622e-08
1.05225e-09
1.049e-09
1.05053e-09
1.05926e-09
2.71068e-08
7.06646e-08
1.0394e-09
1.05364e-09
1.04118e-09
1.05687e-09
1.04913e-09
1.04212e-09
1.0502e-09
2.71221e-08
7.06651e-08
1.03689e-09
1.0366e-09
1.03594e-09
7.06459e-08
2.71063e-08
7.06498e-08
1.04946e-09
1.05899e-09
1.06408e-09
1.04293e-09
2.71088e-08
7.06628e-08
1.03477e-09
1.05491e-09
1.02659e-09
1.05592e-09
1.05053e-09
1.03e-09
1.05017e-09
2.71223e-08
7.06664e-08
1.03781e-09
1.03566e-09
1.03441e-09
7.06471e-08
2.71055e-08
7.06534e-08
1.05145e-09
1.02612e-09
1.05332e-09
1.09668e-09
2.71082e-08
7.06619e-08
1.03695e-09
1.05395e-09
1.04372e-09
1.05645e-09
1.05024e-09
1.05473e-09
1.0497e-09
2.71223e-08
7.06669e-08
1.03584e-09
1.03556e-09
1.03446e-09
7.06484e-08
2.71037e-08
7.0652e-08
1.05226e-09
1.08516e-09
1.06179e-09
1.05862e-09
2.71151e-08
7.06494e-08
1.04124e-09
1.05409e-09
1.04173e-09
1.05592e-09
1.04979e-09
1.04167e-09
1.0494e-09
2.71223e-08
7.06674e-08
1.03648e-09
1.03506e-09
1.03464e-09
7.06483e-08
2.71058e-08
7.065e-08
1.04795e-09
1.05742e-09
1.05696e-09
1.05049e-09
2.71161e-08
7.06618e-08
1.03972e-09
1.05407e-09
1.04068e-09
1.05775e-09
1.04976e-09
1.03717e-09
1.05175e-09
2.71224e-08
7.06671e-08
1.03678e-09
1.03603e-09
1.03611e-09
7.06478e-08
2.71056e-08
7.06459e-08
1.04523e-09
1.04665e-09
1.00614e-09
1.02638e-09
2.71134e-08
7.06556e-08
1.03439e-09
1.05527e-09
1.02734e-09
1.05567e-09
1.05129e-09
1.02502e-09
1.04964e-09
2.7123e-08
7.0669e-08
1.03713e-09
1.0344e-09
1.03483e-09
7.06496e-08
2.71059e-08
7.06405e-08
1.00434e-09
1.03747e-09
1.07664e-09
1.16039e-09
2.71202e-08
7.06821e-08
1.03085e-09
1.05319e-09
1.05544e-09
1.05346e-09
1.04906e-09
1.09216e-09
1.04833e-09
2.71222e-08
7.06717e-08
1.03654e-09
1.03215e-09
1.0342e-09
7.06535e-08
2.71169e-08
7.06687e-08
1.03918e-09
1.10115e-09
1.03837e-09
1.10467e-09
2.70897e-08
7.06253e-08
1.0525e-09
1.05172e-09
1.03035e-09
1.05719e-09
1.04839e-09
1.02685e-09
1.05001e-09
2.7123e-08
7.06707e-08
1.03665e-09
1.03511e-09
1.03637e-09
7.06506e-08
2.7101e-08
7.06478e-08
1.07067e-09
1.06461e-09
1.05919e-09
1.05614e-09
2.71254e-08
7.06604e-08
1.03768e-09
1.05451e-09
1.04628e-09
1.05548e-09
1.0497e-09
1.04395e-09
1.04903e-09
2.7124e-08
7.06709e-08
1.03778e-09
1.03552e-09
1.03524e-09
7.06511e-08
2.71063e-08
7.06467e-08
1.05966e-09
1.06154e-09
1.05193e-09
1.05735e-09
2.71082e-08
7.06601e-08
1.04204e-09
1.05354e-09
1.04336e-09
1.0559e-09
1.04926e-09
1.04146e-09
1.04892e-09
2.71243e-08
7.06709e-08
1.03733e-09
1.03558e-09
1.03501e-09
7.06518e-08
2.71064e-08
7.0648e-08
1.05627e-09
1.061e-09
1.05286e-09
1.05776e-09
2.71086e-08
7.066e-08
1.03832e-09
1.05269e-09
1.04386e-09
1.05632e-09
1.04877e-09
1.04188e-09
1.04924e-09
2.71247e-08
7.06708e-08
1.03616e-09
1.036e-09
1.04356e-09
7.06523e-08
2.7106e-08
7.06488e-08
1.0564e-09
1.0619e-09
1.05194e-09
1.05742e-09
2.71083e-08
7.06602e-08
1.03967e-09
1.05351e-09
1.04296e-09
1.05595e-09
1.04916e-09
1.04177e-09
1.04955e-09
2.71245e-08
7.0671e-08
1.04239e-09
1.03602e-09
1.03793e-09
7.0652e-08
2.71061e-08
7.0648e-08
1.05555e-09
1.06172e-09
1.05267e-09
1.05767e-09
2.71084e-08
7.066e-08
1.03881e-09
1.05332e-09
1.04366e-09
1.05625e-09
1.04957e-09
1.04191e-09
1.04949e-09
2.71246e-08
7.06708e-08
1.04036e-09
1.03596e-09
1.03715e-09
7.06523e-08
2.71061e-08
7.06483e-08
1.05575e-09
1.0615e-09
1.05253e-09
1.05758e-09
2.71085e-08
7.06602e-08
1.03901e-09
1.05316e-09
1.04352e-09
1.05617e-09
1.04912e-09
1.04178e-09
1.04965e-09
2.71247e-08
7.06709e-08
1.03863e-09
1.03588e-09
1.03745e-09
7.06524e-08
2.7106e-08
7.06485e-08
1.05598e-09
1.06183e-09
1.05205e-09
1.05723e-09
2.71084e-08
7.06608e-08
1.03925e-09
1.05347e-09
1.04303e-09
1.05581e-09
1.04974e-09
1.04148e-09
1.04893e-09
2.71245e-08
7.06715e-08
1.03929e-09
1.03557e-09
1.03675e-09
7.06533e-08
2.7106e-08
7.06479e-08
1.05564e-09
1.0614e-09
1.05278e-09
1.05768e-09
2.71083e-08
7.066e-08
1.03889e-09
1.05305e-09
1.04375e-09
1.05626e-09
1.04917e-09
1.04183e-09
1.04943e-09
2.71244e-08
7.06707e-08
1.03873e-09
1.03593e-09
1.03723e-09
7.06523e-08
2.71059e-08
7.06482e-08
1.05624e-09
1.06201e-09
1.05233e-09
1.05765e-09
2.71083e-08
7.066e-08
1.03949e-09
1.05367e-09
1.04333e-09
1.05621e-09
1.04941e-09
1.04173e-09
1.04962e-09
2.71245e-08
7.06708e-08
1.03896e-09
1.03587e-09
1.03742e-09
7.06523e-08
2.71062e-08
7.06485e-08
1.05565e-09
1.06177e-09
1.0524e-09
1.05489e-09
2.71085e-08
7.06607e-08
1.03891e-09
1.05329e-09
1.04325e-09
1.05596e-09
1.04963e-09
1.04086e-09
1.04925e-09
2.71247e-08
7.0671e-08
1.03918e-09
1.03554e-09
1.03706e-09
7.06524e-08
2.7106e-08
7.0648e-08
1.0555e-09
1.04282e-09
1.05251e-09
1.06601e-09
2.71091e-08
7.06639e-08
1.03888e-09
1.05323e-09
1.04336e-09
1.05618e-09
1.04938e-09
1.04304e-09
1.04926e-09
2.71245e-08
7.06709e-08
1.03899e-09
1.03583e-09
1.03701e-09
7.06525e-08
2.71061e-08
7.06477e-08
1.05588e-09
1.05483e-09
1.0529e-09
1.05951e-09
2.71085e-08
7.06611e-08
1.03911e-09
1.05346e-09
1.04389e-09
1.05642e-09
1.04923e-09
1.04229e-09
1.05001e-09
2.71245e-08
7.06706e-08
1.03884e-09
1.03612e-09
1.03775e-09
7.06519e-08
2.71062e-08
7.0648e-08
1.05621e-09
1.06355e-09
1.05219e-09
1.05901e-09
2.71058e-08
7.06612e-08
1.03946e-09
1.05347e-09
1.04318e-09
1.05575e-09
1.04953e-09
1.0417e-09
1.04903e-09
2.71247e-08
7.06707e-08
1.03917e-09
1.03604e-09
1.03746e-09
7.06523e-08
2.71062e-08
7.0648e-08
1.05549e-09
1.06302e-09
1.05233e-09
1.05896e-09
2.71058e-08
7.06614e-08
1.03875e-09
1.05267e-09
1.04329e-09
1.05621e-09
1.04859e-09
1.04195e-09
1.04987e-09
2.71247e-08
7.0671e-08
1.04019e-09
1.03196e-09
1.03334e-09
7.06523e-08
2.71061e-08
7.0648e-08
1.05582e-09
1.06314e-09
1.05262e-09
1.05934e-09
2.71057e-08
7.0661e-08
1.03906e-09
1.05314e-09
1.0436e-09
1.05635e-09
1.04936e-09
1.04243e-09
1.05014e-09
2.71246e-08
7.06705e-08
1.04103e-09
1.03412e-09
1.03552e-09
7.06516e-08
2.71061e-08
7.0648e-08
1.05594e-09
1.06339e-09
1.05243e-09
1.05927e-09
2.71058e-08
7.06611e-08
1.0392e-09
1.05325e-09
1.04343e-09
1.05627e-09
1.04924e-09
1.04208e-09
1.04989e-09
2.71247e-08
7.06705e-08
1.04137e-09
1.03377e-09
1.03528e-09
7.06517e-08
2.71063e-08
7.0648e-08
1.05565e-09
1.0631e-09
1.05247e-09
1.05919e-09
2.7106e-08
7.06613e-08
1.03892e-09
1.05297e-09
1.04344e-09
1.05621e-09
1.04892e-09
1.0421e-09
1.04953e-09
2.71249e-08
7.06707e-08
1.04105e-09
1.03381e-09
1.03492e-09
7.06525e-08
2.7106e-08
7.06484e-08
1.05621e-09
1.0635e-09
1.0528e-09
1.05861e-09
2.71057e-08
7.06616e-08
1.03944e-09
1.05339e-09
1.0436e-09
1.05565e-09
1.04943e-09
1.04163e-09
1.04907e-09
2.71246e-08
7.06711e-08
1.04154e-09
1.03381e-09
1.03454e-09
7.06527e-08
2.7106e-08
7.06487e-08
1.05677e-09
1.06257e-09
1.06438e-09
1.0494e-09
2.71057e-08
7.06609e-08
1.03966e-09
1.05281e-09
1.04555e-09
1.05587e-09
1.04907e-09
1.04309e-09
1.04589e-09
2.71245e-08
7.06724e-08
1.04144e-09
1.0316e-09
1.0309e-09
7.06528e-08
2.71056e-08
7.06621e-08
1.08042e-09
1.05792e-09
9.98269e-10
1.06403e-09
2.71035e-08
7.06738e-08
1.04098e-09
1.05257e-09
1.0263e-09
1.05773e-09
1.0457e-09
1.0296e-09
1.05375e-09
2.71241e-08
7.0673e-08
1.02974e-09
1.03428e-09
1.03737e-09
7.06529e-08
2.7113e-08
7.06576e-08
1.05213e-09
1.04458e-09
1.04847e-09
1.01448e-09
2.71037e-08
7.06797e-08
1.03927e-09
1.05509e-09
1.04039e-09
1.05685e-09
1.05101e-09
1.02749e-09
1.05085e-09
2.71237e-08
7.06738e-08
1.04343e-09
1.03469e-09
1.03431e-09
7.06542e-08
2.71085e-08
7.06612e-08
1.05248e-09
1.08167e-09
1.04905e-09
1.07107e-09
2.71211e-08
7.06696e-08
1.03809e-09
1.05368e-09
1.04169e-09
1.05644e-09
1.04964e-09
1.04886e-09
1.0496e-09
2.71238e-08
7.06738e-08
1.03983e-09
1.03495e-09
1.03431e-09
7.06538e-08
2.7113e-08
7.06604e-08
1.05566e-09
1.06561e-09
1.04851e-09
1.05908e-09
2.71069e-08
7.06694e-08
1.03943e-09
1.0534e-09
1.04181e-09
1.05594e-09
1.0496e-09
1.0416e-09
1.04956e-09
2.7124e-08
7.06738e-08
1.04105e-09
1.03488e-09
1.03489e-09
7.0653e-08
2.71134e-08
7.06602e-08
1.05507e-09
1.05919e-09
1.04874e-09
1.05848e-09
2.71067e-08
7.06691e-08
1.03923e-09
1.05309e-09
1.03938e-09
1.05606e-09
1.04917e-09
1.04104e-09
1.04974e-09
2.71243e-08
7.06734e-08
1.04098e-09
1.03352e-09
1.0349e-09
7.06529e-08
2.71135e-08
7.06599e-08
1.0548e-09
1.05902e-09
1.04848e-09
1.05846e-09
2.71066e-08
7.06695e-08
1.04073e-09
1.05323e-09
1.04174e-09
1.05601e-09
1.04932e-09
1.04083e-09
1.04888e-09
2.71243e-08
7.06741e-08
1.04096e-09
1.03539e-09
1.03605e-09
7.06541e-08
2.71134e-08
7.06598e-08
1.05478e-09
1.05903e-09
1.0487e-09
1.05871e-09
2.71065e-08
7.06695e-08
1.03959e-09
1.05308e-09
1.04304e-09
1.05661e-09
1.04862e-09
1.04089e-09
1.04985e-09
2.71241e-08
7.06741e-08
1.04324e-09
1.03439e-09
1.03247e-09
7.06538e-08
2.71133e-08
7.06599e-08
1.0551e-09
1.05921e-09
1.04856e-09
1.05834e-09
2.71066e-08
7.06693e-08
1.04057e-09
1.05385e-09
1.04191e-09
1.0562e-09
1.04925e-09
1.04083e-09
1.0497e-09
2.71243e-08
7.06739e-08
1.04463e-09
1.03274e-09
1.03423e-09
7.06534e-08
2.71136e-08
7.06596e-08
1.05476e-09
1.0586e-09
1.04877e-09
1.05852e-09
2.71067e-08
7.06691e-08
1.03966e-09
1.053e-09
1.04203e-09
1.05631e-09
1.04877e-09
1.04103e-09
1.04963e-09
2.71245e-08
7.06737e-08
1.04228e-09
1.03295e-09
1.03431e-09
7.06537e-08
2.71137e-08
7.06599e-08
1.05481e-09
1.05882e-09
1.04855e-09
1.05821e-09
2.71067e-08
7.06695e-08
1.03969e-09
1.05317e-09
1.0418e-09
1.05596e-09
1.04876e-09
1.04077e-09
1.04926e-09
2.71245e-08
7.06741e-08
1.04226e-09
1.03268e-09
1.03399e-09
7.06537e-08
2.71136e-08
7.06598e-08
1.05471e-09
1.05854e-09
1.04858e-09
1.05845e-09
2.71067e-08
7.06692e-08
1.03959e-09
1.05284e-09
1.04187e-09
1.05594e-09
1.04864e-09
1.041e-09
1.0495e-09
2.71245e-08
7.06739e-08
1.04222e-09
1.03374e-09
1.03704e-09
7.06529e-08
2.71136e-08
7.06596e-08
1.05481e-09
1.05897e-09
1.04857e-09
1.05851e-09
2.71067e-08
7.06691e-08
1.03979e-09
1.053e-09
1.04196e-09
1.05621e-09
1.04878e-09
1.04093e-09
1.04943e-09
2.71245e-08
7.06737e-08
1.04869e-09
1.03407e-09
1.03487e-09
7.06535e-08
2.71135e-08
7.06595e-08
1.05512e-09
1.05921e-09
1.04871e-09
1.05928e-09
2.71067e-08
7.06695e-08
1.04022e-09
1.05342e-09
1.04245e-09
1.05615e-09
1.0491e-09
1.04157e-09
1.04902e-09
2.71245e-08
7.06737e-08
1.04048e-09
1.03425e-09
1.03475e-09
7.06539e-08
2.71134e-08
7.06591e-08
1.05481e-09
1.05982e-09
1.04691e-09
1.06472e-09
2.71065e-08
7.0671e-08
1.04023e-09
1.05301e-09
1.04529e-09
1.055e-09
1.04849e-09
1.0457e-09
1.04751e-09
2.71244e-08
7.06733e-08
1.04064e-09
1.03355e-09
1.03475e-09
7.06531e-08
2.71137e-08
7.06583e-08
1.0521e-09
1.07428e-09
1.04626e-09
1.03313e-09
2.71058e-08
7.06797e-08
1.03881e-09
1.05219e-09
1.04312e-09
1.05576e-09
1.04715e-09
1.02694e-09
1.04826e-09
2.71243e-08
7.06729e-08
1.04008e-09
1.0342e-09
1.03568e-09
7.06525e-08
2.71136e-08
7.06575e-08
1.05359e-09
1.01725e-09
1.04929e-09
1.05321e-09
2.70975e-08
7.06685e-08
1.03928e-09
1.05297e-09
1.04423e-09
1.05694e-09
1.04931e-09
1.03898e-09
1.04976e-09
2.71242e-08
7.06726e-08
1.04186e-09
1.03375e-09
1.03474e-09
7.06525e-08
2.71133e-08
7.06577e-08
1.05473e-09
1.05625e-09
1.04892e-09
1.05818e-09
2.71056e-08
7.06677e-08
1.03939e-09
1.05415e-09
1.04356e-09
1.05664e-09
1.04881e-09
1.04109e-09
1.05092e-09
2.71242e-08
7.0672e-08
1.03582e-09
1.03672e-09
1.03836e-09
7.0653e-08
2.71133e-08
7.06583e-08
1.0547e-09
1.05826e-09
1.04829e-09
1.05801e-09
2.71061e-08
7.06682e-08
1.03889e-09
1.05342e-09
1.04284e-09
1.05606e-09
1.05075e-09
1.04077e-09
1.05031e-09
2.71241e-08
7.06724e-08
1.03841e-09
1.036e-09
1.03767e-09
7.06529e-08
2.71132e-08
7.06577e-08
1.05466e-09
1.05867e-09
1.04868e-09
1.05855e-09
2.71059e-08
7.06676e-08
1.03869e-09
1.05356e-09
1.04318e-09
1.05652e-09
1.05103e-09
1.0413e-09
1.05093e-09
2.71239e-08
7.06719e-08
1.03864e-09
1.03645e-09
1.03832e-09
7.06526e-08
2.71132e-08
7.06577e-08
1.05496e-09
1.05889e-09
1.04892e-09
1.05862e-09
2.7106e-08
7.06678e-08
1.03894e-09
1.05371e-09
1.04342e-09
1.05654e-09
1.05095e-09
1.0414e-09
1.05099e-09
2.71239e-08
7.06721e-08
1.03863e-09
1.03668e-09
1.03857e-09
7.0653e-08
2.71133e-08
7.06582e-08
1.05496e-09
1.05891e-09
1.04852e-09
1.05825e-09
2.71061e-08
7.06681e-08
1.03892e-09
1.05372e-09
1.04302e-09
1.05618e-09
1.05079e-09
1.04116e-09
1.05091e-09
2.7124e-08
7.06723e-08
1.03865e-09
1.03595e-09
1.03775e-09
7.06529e-08
2.71131e-08
7.06583e-08
1.05474e-09
1.05871e-09
1.04849e-09
1.05829e-09
2.71059e-08
7.06682e-08
1.03872e-09
1.05349e-09
1.043e-09
1.05624e-09
1.05092e-09
1.04113e-09
1.05069e-09
2.71238e-08
7.06725e-08
1.04008e-09
1.0362e-09
1.03798e-09
7.06533e-08
2.71132e-08
7.06576e-08
1.05472e-09
1.0586e-09
1.0487e-09
1.05845e-09
2.71061e-08
7.06675e-08
1.0387e-09
1.05342e-09
1.0432e-09
1.05639e-09
1.05038e-09
1.04125e-09
1.05086e-09
2.71239e-08
7.06718e-08
1.038e-09
1.03633e-09
1.03819e-09
7.06528e-08
2.71131e-08
7.06584e-08
1.055e-09
1.05899e-09
1.04848e-09
1.05834e-09
2.7106e-08
7.06684e-08
1.03897e-09
1.0538e-09
1.04299e-09
1.05628e-09
1.05073e-09
1.04106e-09
1.05088e-09
2.71238e-08
7.06727e-08
1.03833e-09
1.03609e-09
1.03789e-09
7.06535e-08
2.71134e-08
7.06576e-08
1.05451e-09
1.05847e-09
1.04814e-09
1.05795e-09
2.71061e-08
7.06682e-08
1.03848e-09
1.05327e-09
1.04301e-09
1.05593e-09
1.0506e-09
1.04086e-09
1.05044e-09
2.7124e-08
7.06724e-08
1.03876e-09
1.03597e-09
1.03802e-09
7.06532e-08
2.71131e-08
7.06584e-08
1.05445e-09
1.05853e-09
1.04885e-09
1.0586e-09
2.71059e-08
7.06676e-08
1.03815e-09
1.05337e-09
1.04408e-09
1.05654e-09
1.05056e-09
1.04128e-09
1.05112e-09
2.71238e-08
7.06719e-08
1.03839e-09
1.0364e-09
1.03866e-09
7.06527e-08
2.71131e-08
7.06585e-08
1.05523e-09
1.05907e-09
1.04876e-09
1.05852e-09
2.7106e-08
7.06676e-08
1.03817e-09
1.05398e-09
1.04395e-09
1.05658e-09
1.05122e-09
1.04133e-09
1.0516e-09
2.71239e-08
7.06719e-08
1.03903e-09
1.03658e-09
1.03911e-09
7.06525e-08
2.71134e-08
7.06589e-08
1.05485e-09
1.05878e-09
1.04793e-09
1.05755e-09
2.71062e-08
7.0668e-08
1.03764e-09
1.05385e-09
1.04288e-09
1.05602e-09
1.05131e-09
1.04023e-09
1.05085e-09
2.71241e-08
7.06726e-08
1.03909e-09
1.03562e-09
1.03829e-09
7.0653e-08
2.71132e-08
7.06584e-08
1.05434e-09
1.05819e-09
1.04747e-09
1.05691e-09
2.71059e-08
7.06679e-08
1.03679e-09
1.05394e-09
1.04161e-09
1.05802e-09
1.05183e-09
1.03882e-09
1.05181e-09
2.71236e-08
7.06732e-08
1.03955e-09
1.0377e-09
1.03819e-09
7.06538e-08
2.71127e-08
7.06579e-08
1.05373e-09
1.0574e-09
1.04754e-09
1.05706e-09
2.71055e-08
7.06672e-08
1.03537e-09
1.05574e-09
1.04191e-09
1.05286e-09
1.05248e-09
1.0387e-09
1.04934e-09
2.71238e-08
7.06664e-08
1.03925e-09
1.02132e-09
1.0354e-09
7.06482e-08
2.71124e-08
7.06567e-08
1.05473e-09
1.05823e-09
1.05035e-09
1.06024e-09
2.71051e-08
7.06658e-08
1.03708e-09
1.05005e-09
1.04531e-09
1.05487e-09
1.04899e-09
1.0426e-09
1.04785e-09
2.71257e-08
7.06682e-08
1.03785e-09
1.03036e-09
1.02996e-09
7.06483e-08
2.71124e-08
7.06559e-08
1.05649e-09
1.06035e-09
1.04935e-09
1.05908e-09
2.71053e-08
7.0665e-08
1.03919e-09
1.05351e-09
1.04442e-09
1.05631e-09
1.04854e-09
1.04175e-09
1.05121e-09
2.71228e-08
7.06694e-08
1.03445e-09
1.03407e-09
1.03122e-09
7.0651e-08
2.7112e-08
7.06557e-08
1.05546e-09
1.05925e-09
1.0489e-09
1.05874e-09
2.71049e-08
7.06649e-08
1.03823e-09
1.05352e-09
1.04408e-09
1.05633e-09
1.05067e-09
1.04147e-09
1.05013e-09
2.71224e-08
7.06693e-08
1.04217e-09
1.03636e-09
1.03809e-09
7.0651e-08
2.71121e-08
7.0656e-08
1.05525e-09
1.05905e-09
1.04822e-09
1.05802e-09
2.71049e-08
7.06654e-08
1.03813e-09
1.05354e-09
1.04352e-09
1.05587e-09
1.05059e-09
1.04085e-09
1.05066e-09
2.71227e-08
7.06697e-08
1.04845e-09
1.03666e-09
1.03844e-09
7.06495e-08
2.7112e-08
7.06556e-08
1.05479e-09
1.05864e-09
1.04863e-09
1.05833e-09
2.71049e-08
7.06648e-08
1.03777e-09
1.05346e-09
1.04392e-09
1.05622e-09
1.05048e-09
1.04107e-09
1.05077e-09
2.71227e-08
7.06691e-08
1.03848e-09
1.03672e-09
1.03853e-09
7.0649e-08
2.71121e-08
7.06564e-08
1.05473e-09
1.0587e-09
1.04817e-09
1.05788e-09
2.71049e-08
7.06656e-08
1.03769e-09
1.05356e-09
1.04347e-09
1.05576e-09
1.051e-09
1.04061e-09
1.05024e-09
2.71227e-08
7.06699e-08
1.03841e-09
1.03633e-09
1.03811e-09
7.06497e-08
2.71119e-08
7.06557e-08
1.05463e-09
1.05833e-09
1.04857e-09
1.05837e-09
2.71048e-08
7.0665e-08
1.03761e-09
1.05319e-09
1.04381e-09
1.05626e-09
1.05017e-09
1.04123e-09
1.05117e-09
2.71226e-08
7.06693e-08
1.03766e-09
1.03701e-09
1.03913e-09
7.06487e-08
2.71119e-08
7.06556e-08
1.05483e-09
1.059e-09
1.04863e-09
1.0582e-09
2.71047e-08
7.06649e-08
1.03782e-09
1.05387e-09
1.04391e-09
1.05602e-09
1.05111e-09
1.04095e-09
1.0506e-09
2.71226e-08
7.06692e-08
1.03835e-09
1.03761e-09
1.03873e-09
7.06491e-08
2.7112e-08
7.0656e-08
1.05478e-09
1.05857e-09
1.04845e-09
1.05822e-09
2.71049e-08
7.06652e-08
1.03775e-09
1.05345e-09
1.04371e-09
1.05613e-09
1.05087e-09
1.04109e-09
1.05073e-09
2.71227e-08
7.06695e-08
1.03853e-09
1.0362e-09
1.03824e-09
7.06494e-08
2.71119e-08
7.06564e-08
1.05486e-09
1.05862e-09
1.04844e-09
1.05822e-09
2.71048e-08
7.06656e-08
1.03784e-09
1.05348e-09
1.04373e-09
1.05613e-09
1.05076e-09
1.04119e-09
1.05075e-09
2.71226e-08
7.06698e-08
1.03851e-09
1.03633e-09
1.03827e-09
7.06497e-08
2.71119e-08
7.06561e-08
1.05464e-09
1.05867e-09
1.0486e-09
1.05838e-09
2.71046e-08
7.06652e-08
1.03763e-09
1.05353e-09
1.04386e-09
1.05629e-09
1.05081e-09
1.04126e-09
1.05093e-09
2.71225e-08
7.06694e-08
1.03858e-09
1.0364e-09
1.03845e-09
7.06493e-08
2.7112e-08
7.06558e-08
1.05484e-09
1.05876e-09
1.04861e-09
1.05842e-09
2.71049e-08
7.06649e-08
1.03782e-09
1.05361e-09
1.04391e-09
1.05633e-09
1.05088e-09
1.04108e-09
1.05096e-09
2.71228e-08
7.06691e-08
1.03863e-09
1.03622e-09
1.03846e-09
7.06488e-08
2.7112e-08
7.06559e-08
1.05459e-09
1.05853e-09
1.04851e-09
1.05847e-09
2.71048e-08
7.06653e-08
1.03758e-09
1.05339e-09
1.04448e-09
1.05641e-09
1.05085e-09
1.04118e-09
1.05099e-09
2.71227e-08
7.06696e-08
1.03862e-09
1.03629e-09
1.03853e-09
7.06493e-08
2.7112e-08
7.06561e-08
1.05504e-09
1.05903e-09
1.04846e-09
1.05796e-09
2.71049e-08
7.06651e-08
1.03899e-09
1.05395e-09
1.04242e-09
1.05588e-09
1.05139e-09
1.04078e-09
1.0504e-09
2.71228e-08
7.06693e-08
1.03916e-09
1.03591e-09
1.03793e-09
7.06492e-08
2.71116e-08
7.06562e-08
1.05454e-09
1.05823e-09
1.04847e-09
1.05831e-09
2.71048e-08
7.06648e-08
1.03846e-09
1.05308e-09
1.04255e-09
1.05624e-09
1.05034e-09
1.04113e-09
1.05072e-09
2.71226e-08
7.06691e-08
1.03811e-09
1.03625e-09
1.03827e-09
7.0649e-08
2.71118e-08
7.06555e-08
1.05475e-09
1.0589e-09
1.04861e-09
1.05847e-09
2.71049e-08
7.06643e-08
1.03876e-09
1.05376e-09
1.04263e-09
1.05693e-09
1.0514e-09
1.04118e-09
1.05083e-09
2.71228e-08
7.06681e-08
1.03917e-09
1.03632e-09
1.03833e-09
7.06484e-08
2.71118e-08
7.06569e-08
1.05482e-09
1.05882e-09
1.04831e-09
1.05802e-09
2.7105e-08
7.06658e-08
1.03874e-09
1.05495e-09
1.04235e-09
1.0587e-09
1.05063e-09
1.04067e-09
1.05045e-09
2.71222e-08
7.06887e-08
1.03837e-09
1.03638e-09
1.038e-09
7.065e-08
2.71115e-08
7.06555e-08
1.05476e-09
1.05859e-09
1.04893e-09
1.05864e-09
2.71047e-08
7.06643e-08
1.03877e-09
1.05078e-09
1.04294e-09
1.05927e-09
1.05101e-09
1.04139e-09
1.05116e-09
2.71175e-08
7.06872e-08
1.03879e-09
1.03712e-09
1.03867e-09
7.06482e-08
2.71119e-08
7.06562e-08
1.05525e-09
1.05888e-09
1.04839e-09
1.05809e-09
2.7105e-08
7.06649e-08
1.03923e-09
1.05105e-09
1.04239e-09
1.05873e-09
1.05124e-09
1.04094e-09
1.05051e-09
2.71179e-08
7.0688e-08
1.03901e-09
1.03686e-09
1.03817e-09
7.06488e-08
2.7112e-08
7.06564e-08
1.05426e-09
1.0584e-09
1.04895e-09
1.05834e-09
2.71049e-08
7.06651e-08
1.03821e-09
1.05063e-09
1.04288e-09
1.06035e-09
1.05071e-09
1.04112e-09
1.05095e-09
2.71178e-08
7.0687e-08
1.03835e-09
1.0373e-09
1.0384e-09
7.0649e-08
2.71117e-08
7.06565e-08
1.05516e-09
1.05896e-09
1.04912e-09
1.05916e-09
2.71047e-08
7.0665e-08
1.03901e-09
1.05139e-09
1.04285e-09
1.05716e-09
1.05097e-09
1.04168e-09
1.05194e-09
2.71216e-08
7.06752e-08
1.03867e-09
1.03701e-09
1.03949e-09
7.06491e-08
2.71117e-08
7.06551e-08
1.05653e-09
1.06022e-09
1.07165e-09
1.08111e-09
2.7105e-08
7.06628e-08
1.04032e-09
1.05462e-09
1.0704e-09
1.08301e-09
1.05373e-09
1.06478e-09
1.07492e-09
2.71233e-08
7.06669e-08
1.04145e-09
1.06246e-09
1.06137e-09
7.06463e-08
2.71173e-08
7.05906e-08
1.10868e-09
1.10836e-09
1.64557e-09
1.63253e-09
2.7109e-08
7.05919e-08
1.07101e-09
1.10613e-09
1.65762e-09
1.66589e-09
1.10573e-09
1.60773e-09
1.59146e-09
2.71256e-08
7.05928e-08
1.08947e-09
1.63124e-09
1.61708e-09
7.0544e-08
2.7241e-08
6.85558e-08
2.30582e-09
2.35273e-09
1.57663e-08
1.5668e-08
2.72402e-08
6.85589e-08
2.35721e-09
2.32366e-09
1.57618e-08
1.5787e-08
2.29465e-09
1.56358e-08
1.57474e-08
2.72463e-08
6.85642e-08
2.32651e-09
1.57636e-08
1.56952e-08
6.85276e-08
2.85841e-08
1.35538e-07
3.5834e-08
3.57975e-08
2.44698e-07
2.44798e-07
2.86293e-08
1.35525e-07
3.58957e-08
3.5956e-08
2.45142e-07
2.44991e-07
3.58908e-08
2.45058e-07
2.44927e-07
2.85686e-08
1.3557e-07
3.59792e-08
2.45124e-07
2.4522e-07
1.35546e-07
1.18196e-07
1.03823e-07
1.03797e-07
1.18154e-07
1.03849e-07
1.03854e-07
2.17765e-07
2.17876e-07
2.17888e-07
1.0386e-07
1.1823e-07
1.03887e-07
7.21385e-08
1.51305e-07
1.1279e-07
1.12869e-07
1.80353e-07
1.73246e-07
4.75731e-08
1.32221e-07
1.80248e-07
1.73288e-07
1.32213e-07
4.7542e-08
1.8778e-07
6.89285e-08
6.88937e-08
1.92532e-07
0.000117528
1.5866e-07
0.000122003
0.000250487
0.000257348
1.92741e-07
0.000117547
1.58408e-07
0.000122023
2.97965e-07
2.97886e-07
2.97958e-07
4.13073e-08
4.12451e-08
4.13067e-08
4.13465e-08
7.86846e-08
1.18986e-07
3.03076e-07
1.93154e-07
1.16297e-07
2.90025e-07
1.72414e-07
0.000250479
0.000257333
7.87758e-08
3.03061e-07
1.18945e-07
1.92959e-07
1.16096e-07
1.72362e-07
2.89988e-07
3.6134e-07
3.61767e-07
7.64557e-08
6.21263e-07
6.21732e-07
2.091e-07
0.000121989
2.06977e-07
0.000121991
0.000257264
0.000257261
2.09152e-07
0.000122008
2.06977e-07
0.000122009
1.91002e-08
1.91036e-08
1.91261e-08
2.14629e-09
2.15102e-09
2.14967e-09