/*--------------------------------*- C++ -*----------------------------------*\
| =========                 |                                                 |
| \\      /  F ield         | OpenFOAM: The Open Source CFD Toolbox           |
|  \\    /   O peration     | Version:  v1912                                 |
|   \\  /    A nd           | Website:  www.openfoam.com                      |
|    \\/     M anipulation  |                                                 |
\*---------------------------------------------------------------------------*/
FoamFile
{
    version     2.0;
    format      ascii;
    class       volScalarField;
    location    "0.65";
    object      nut;
}
// * * * * * * * * * * * * * * * * * * * * * * * * * * * * * * * * * * * * * //

dimensions      [0 2 -1 0 0 0 0];


internalField   nonuniform List<scalar> 
171728
(
5.09336e-07
5.76748e-07
5.76955e-07
2.2443e-07
3.32652e-08
4.15044e-08
4.1686e-08
5.83236e-08
2.4494e-09
3.57455e-09
3.56778e-09
5.67098e-08
5.64048e-10
2.22088e-09
2.20475e-09
5.67553e-08
5.44883e-10
2.10472e-09
2.11036e-09
5.67594e-08
5.42202e-10
2.10645e-09
2.1065e-09
5.67593e-08
5.33067e-10
2.11038e-09
2.10481e-09
5.67595e-08
5.43559e-10
2.10968e-09
2.1082e-09
5.67598e-08
5.49098e-10
2.10771e-09
2.10125e-09
5.67609e-08
5.42335e-10
2.10686e-09
2.10577e-09
5.67599e-08
5.49979e-10
2.10453e-09
2.10708e-09
5.67605e-08
5.55561e-10
2.10236e-09
2.10647e-09
5.67607e-08
5.62892e-10
2.12334e-09
2.10759e-09
5.67606e-08
5.65353e-10
2.12789e-09
2.10639e-09
5.67605e-08
5.4131e-10
2.09875e-09
2.1084e-09
5.67607e-08
5.45355e-10
2.10742e-09
2.10549e-09
5.6761e-08
5.52773e-10
2.10744e-09
2.10682e-09
5.67613e-08
5.43673e-10
2.1016e-09
2.10702e-09
5.67608e-08
5.51864e-10
2.09577e-09
2.10554e-09
5.67605e-08
5.29543e-10
2.11826e-09
2.10119e-09
5.67572e-08
6.27773e-10
2.11298e-09
2.10596e-09
5.67628e-08
5.48693e-10
2.11085e-09
2.10771e-09
5.67629e-08
5.51352e-10
2.10911e-09
2.10772e-09
5.67635e-08
5.51133e-10
2.10924e-09
2.1081e-09
5.67633e-08
5.52827e-10
2.109e-09
2.10815e-09
5.67634e-08
5.52267e-10
2.10905e-09
2.10765e-09
5.67635e-08
5.51754e-10
2.10954e-09
2.10823e-09
5.67635e-08
5.52727e-10
2.10856e-09
2.10726e-09
5.67632e-08
5.52188e-10
2.10922e-09
2.10792e-09
5.6763e-08
5.52411e-10
2.10965e-09
2.10845e-09
5.67632e-08
5.51311e-10
2.10912e-09
2.10775e-09
5.67633e-08
5.52332e-10
2.10624e-09
2.10745e-09
5.67629e-08
5.52914e-10
2.11066e-09
2.10871e-09
5.6763e-08
5.5198e-10
2.10937e-09
2.10841e-09
5.67631e-08
5.51872e-10
2.10957e-09
2.10849e-09
5.67632e-08
5.52577e-10
2.10986e-09
2.10946e-09
5.67629e-08
5.52676e-10
2.1101e-09
2.1097e-09
5.67634e-08
5.5246e-10
2.10942e-09
2.10903e-09
5.67637e-08
5.52637e-10
2.10958e-09
2.11406e-09
5.67635e-08
5.68136e-10
2.11605e-09
2.11415e-09
5.67501e-08
6.88209e-10
2.0898e-09
2.10978e-09
5.67631e-08
5.49759e-10
2.11227e-09
2.10317e-09
5.67634e-08
5.52935e-10
2.10966e-09
2.10278e-09
5.67636e-08
5.54157e-10
2.10814e-09
2.10338e-09
5.67641e-08
5.55432e-10
2.10797e-09
2.10649e-09
5.67644e-08
5.54615e-10
2.1072e-09
2.10377e-09
5.67643e-08
5.54326e-10
2.10754e-09
2.10796e-09
5.67644e-08
5.54169e-10
2.10762e-09
2.10969e-09
5.67647e-08
5.54197e-10
2.10832e-09
2.11044e-09
5.67645e-08
5.54502e-10
2.10744e-09
2.10958e-09
5.67642e-08
5.54904e-10
2.10755e-09
2.11056e-09
5.67643e-08
5.54931e-10
2.1076e-09
2.10879e-09
5.67643e-08
5.55589e-10
2.10818e-09
2.10943e-09
5.6764e-08
5.56227e-10
2.11566e-09
2.10982e-09
5.6764e-08
5.58021e-10
2.10483e-09
2.11084e-09
5.67639e-08
5.55483e-10
2.10641e-09
2.10697e-09
5.67613e-08
5.55125e-10
2.10865e-09
2.10642e-09
5.67558e-08
5.54916e-10
2.10853e-09
2.106e-09
5.67559e-08
5.54551e-10
2.10885e-09
2.10647e-09
5.67561e-08
5.54668e-10
2.10903e-09
2.10588e-09
5.67562e-08
5.54793e-10
2.10944e-09
2.10731e-09
5.67562e-08
5.54679e-10
2.10933e-09
2.10669e-09
5.67566e-08
5.54503e-10
2.10933e-09
2.10673e-09
5.67562e-08
5.55559e-10
2.1091e-09
2.10668e-09
5.67561e-08
5.54908e-10
2.1097e-09
2.1071e-09
5.67561e-08
5.54581e-10
2.10888e-09
2.10627e-09
5.67558e-08
5.54422e-10
2.10866e-09
2.10606e-09
5.67558e-08
5.53407e-10
2.10842e-09
2.10605e-09
5.67558e-08
5.49005e-10
2.10743e-09
2.10643e-09
5.67569e-08
5.43357e-10
2.1085e-09
2.08756e-09
5.67592e-08
5.49602e-10
2.11028e-09
2.10129e-09
5.67542e-08
5.54438e-10
2.10941e-09
2.10673e-09
5.67553e-08
5.54664e-10
2.10901e-09
2.10624e-09
5.67559e-08
5.55157e-10
2.10892e-09
2.10571e-09
5.6755e-08
5.55765e-10
2.1094e-09
2.1058e-09
5.67548e-08
5.55431e-10
2.10884e-09
2.10537e-09
5.67545e-08
5.55042e-10
2.10872e-09
2.10511e-09
5.67553e-08
5.54672e-10
2.10929e-09
2.10612e-09
5.67548e-08
5.5531e-10
2.10861e-09
2.10602e-09
5.67546e-08
5.55311e-10
2.10965e-09
2.10709e-09
5.67552e-08
5.55196e-10
2.10853e-09
2.10596e-09
5.67551e-08
5.54942e-10
2.10868e-09
2.10613e-09
5.67551e-08
5.54668e-10
2.10917e-09
2.10661e-09
5.6755e-08
5.56317e-10
2.1091e-09
2.10653e-09
5.67552e-08
5.56073e-10
2.10915e-09
2.10659e-09
5.6755e-08
5.5621e-10
2.10877e-09
2.10662e-09
5.67548e-08
5.56813e-10
2.10932e-09
2.10682e-09
5.67553e-08
5.55669e-10
2.10849e-09
2.106e-09
5.67551e-08
5.55886e-10
2.10867e-09
2.10595e-09
5.67549e-08
5.57342e-10
2.1094e-09
2.10695e-09
5.67548e-08
5.60512e-10
2.10911e-09
2.10583e-09
5.67563e-08
6.40675e-10
2.13921e-09
2.14554e-09
5.67555e-08
2.57859e-09
3.16678e-09
3.22079e-09
5.6749e-08
3.63804e-08
3.47942e-08
3.47199e-08
5.68125e-08
2.55995e-07
1.45387e-07
1.45433e-07
2.18161e-07
1.63862e-07
3.62085e-07
3.62193e-07
1.6381e-07
3.62098e-07
3.62224e-07
9.21026e-07
9.21029e-07
9.21042e-07
9.21053e-07
3.61981e-07
3.62093e-07
1.63725e-07
3.62007e-07
3.62091e-07
1.63684e-07
2.24494e-07
1.51133e-07
5.76812e-07
5.76713e-07
9.14587e-08
9.14177e-08
2.24414e-07
1.50964e-07
5.76891e-07
5.77125e-07
9.16146e-08
9.15401e-08
5.77042e-07
9.15087e-08
9.14397e-08
2.24472e-07
1.51075e-07
5.76903e-07
9.15948e-08
9.15704e-08
1.51102e-07
5.83635e-08
1.47135e-07
4.15707e-08
4.15969e-08
5.38761e-09
5.45496e-09
5.82988e-08
1.47208e-07
4.15897e-08
4.1601e-08
5.35813e-09
5.42212e-09
4.16095e-08
5.31219e-09
5.38191e-09
5.8389e-08
1.47184e-07
4.17429e-08
5.3835e-09
5.36276e-09
1.47183e-07
5.66367e-08
1.47012e-07
3.58813e-09
3.58346e-09
2.31733e-09
2.31653e-09
5.66337e-08
1.47004e-07
3.60662e-09
3.58951e-09
2.30558e-09
2.32201e-09
3.6176e-09
2.30151e-09
2.32851e-09
5.6677e-08
1.47025e-07
3.62654e-09
2.28132e-09
2.28249e-09
1.46995e-07
5.67313e-08
1.47003e-07
2.22658e-09
2.24969e-09
2.14401e-09
2.13208e-09
5.67167e-08
1.46983e-07
2.19657e-09
2.23445e-09
2.11314e-09
2.14517e-09
2.23853e-09
2.10926e-09
2.13756e-09
5.67446e-08
1.47008e-07
2.20933e-09
2.10389e-09
2.10592e-09
1.46973e-07
5.67398e-08
1.47e-07
2.13898e-09
2.12436e-09
2.13883e-09
2.12871e-09
5.67258e-08
1.46975e-07
2.09846e-09
2.14179e-09
2.11646e-09
2.13742e-09
2.13261e-09
2.09927e-09
2.12966e-09
5.67462e-08
1.47006e-07
2.10255e-09
2.09567e-09
2.09676e-09
1.46971e-07
5.67404e-08
1.47001e-07
2.13865e-09
2.1394e-09
2.12482e-09
2.16673e-09
5.67301e-08
1.46986e-07
2.09108e-09
2.1384e-09
2.11196e-09
2.13629e-09
2.12895e-09
2.11332e-09
2.12649e-09
5.67461e-08
1.4701e-07
2.09811e-09
2.09369e-09
2.09567e-09
1.46975e-07
5.67435e-08
1.47002e-07
2.091e-09
2.15837e-09
2.15774e-09
2.14671e-09
5.67218e-08
1.46988e-07
2.08536e-09
2.13809e-09
2.12065e-09
2.13718e-09
2.12612e-09
2.10913e-09
2.1275e-09
5.67461e-08
1.4701e-07
2.09775e-09
2.09516e-09
2.09837e-09
1.46973e-07
5.67441e-08
1.47007e-07
2.13474e-09
2.14801e-09
2.13733e-09
2.14686e-09
5.67199e-08
1.46986e-07
2.09784e-09
2.13907e-09
2.12102e-09
2.13848e-09
2.12778e-09
2.10907e-09
2.1277e-09
5.67465e-08
1.47008e-07
2.10138e-09
2.09452e-09
2.09883e-09
1.46972e-07
5.67261e-08
1.47e-07
2.13581e-09
2.14594e-09
2.1175e-09
2.13229e-09
5.67208e-08
1.46996e-07
2.09434e-09
2.13927e-09
2.10708e-09
2.13677e-09
2.12689e-09
2.10541e-09
2.12528e-09
5.67477e-08
1.47013e-07
2.09816e-09
2.09368e-09
2.09646e-09
1.46978e-07
5.67307e-08
1.46983e-07
2.11864e-09
2.10428e-09
2.15588e-09
2.09819e-09
5.67153e-08
1.4699e-07
2.09953e-09
2.13934e-09
2.11424e-09
2.13942e-09
2.126e-09
2.10392e-09
2.12781e-09
5.67466e-08
1.4701e-07
2.09938e-09
2.09591e-09
2.09901e-09
1.46973e-07
5.6742e-08
1.46996e-07
2.17835e-09
2.11552e-09
2.13611e-09
2.10398e-09
5.67196e-08
1.46988e-07
2.1122e-09
2.14004e-09
2.1108e-09
2.13651e-09
2.12728e-09
2.10445e-09
2.12545e-09
5.67471e-08
1.47012e-07
2.10062e-09
2.0945e-09
2.09672e-09
1.46976e-07
5.67312e-08
1.46995e-07
2.13368e-09
2.09372e-09
2.13238e-09
2.09606e-09
5.67196e-08
1.4701e-07
2.1065e-09
2.13795e-09
2.10732e-09
2.1369e-09
2.1257e-09
2.11237e-09
2.12881e-09
5.67477e-08
1.47011e-07
2.09888e-09
2.0966e-09
2.09897e-09
1.46976e-07
5.67311e-08
1.47004e-07
2.13299e-09
2.10171e-09
2.12736e-09
2.15075e-09
5.67192e-08
1.47012e-07
2.10384e-09
2.13818e-09
2.09833e-09
2.13553e-09
2.12892e-09
2.12045e-09
2.12797e-09
5.67477e-08
1.47013e-07
2.10122e-09
2.09492e-09
2.09808e-09
1.46978e-07
5.67201e-08
1.46988e-07
2.127e-09
2.15832e-09
2.16059e-09
2.14002e-09
5.67246e-08
1.46997e-07
2.09325e-09
2.13743e-09
2.09193e-09
2.13814e-09
2.12783e-09
2.10544e-09
2.13016e-09
5.67473e-08
1.47011e-07
2.1e-09
2.09709e-09
2.09953e-09
1.46975e-07
5.67374e-08
1.46992e-07
2.13672e-09
2.12658e-09
2.14076e-09
2.19127e-09
5.67321e-08
1.4699e-07
2.10632e-09
2.13943e-09
2.10891e-09
2.13513e-09
2.13031e-09
2.11497e-09
2.12676e-09
5.67476e-08
1.47013e-07
2.10115e-09
2.0941e-09
2.09555e-09
1.46978e-07
5.67361e-08
1.46991e-07
2.13807e-09
2.16836e-09
2.14209e-09
2.14564e-09
5.67464e-08
1.46971e-07
2.10626e-09
2.13666e-09
2.10827e-09
2.137e-09
2.12582e-09
2.10425e-09
2.12751e-09
5.67477e-08
1.47012e-07
2.09732e-09
2.09573e-09
2.09751e-09
1.46977e-07
5.67378e-08
1.4699e-07
2.13121e-09
2.14533e-09
2.14719e-09
2.13777e-09
5.67416e-08
1.47013e-07
2.1072e-09
2.1384e-09
2.10936e-09
2.13714e-09
2.12746e-09
2.1075e-09
2.12825e-09
5.6748e-08
1.47015e-07
2.09968e-09
2.09506e-09
2.09756e-09
1.46979e-07
5.67355e-08
1.47009e-07
2.1259e-09
2.12994e-09
2.10012e-09
2.11405e-09
5.67496e-08
1.47015e-07
2.10578e-09
2.1399e-09
2.09734e-09
2.1401e-09
2.12943e-09
2.08843e-09
2.12964e-09
5.67475e-08
1.47013e-07
2.10012e-09
2.09509e-09
2.09579e-09
1.46979e-07
5.67384e-08
1.46978e-07
2.09678e-09
2.12786e-09
2.18135e-09
2.22953e-09
5.67779e-08
1.47054e-07
2.09702e-09
2.14128e-09
2.1306e-09
2.13629e-09
2.12705e-09
2.13941e-09
2.13228e-09
5.67481e-08
1.47016e-07
2.09457e-09
2.09046e-09
2.0987e-09
1.46991e-07
5.67755e-08
1.47041e-07
2.13385e-09
2.16714e-09
2.12493e-09
2.1885e-09
5.67272e-08
1.46997e-07
2.12862e-09
2.13693e-09
2.00199e-09
2.14056e-09
2.14202e-09
2.09367e-09
2.12771e-09
5.67493e-08
1.47018e-07
2.11137e-09
2.09283e-09
2.09847e-09
1.46982e-07
5.67309e-08
1.47011e-07
2.16013e-09
2.16897e-09
2.15407e-09
2.14255e-09
5.6744e-08
1.47005e-07
2.06965e-09
2.1387e-09
2.11866e-09
2.1371e-09
2.12617e-09
2.11423e-09
2.12697e-09
5.67493e-08
1.47016e-07
2.09941e-09
2.09612e-09
2.09886e-09
1.46981e-07
5.67594e-08
1.4701e-07
2.14516e-09
2.14825e-09
2.13511e-09
2.14623e-09
5.67379e-08
1.47006e-07
2.10987e-09
2.13847e-09
2.11179e-09
2.13749e-09
2.1272e-09
2.10967e-09
2.12653e-09
5.67499e-08
1.47017e-07
2.10107e-09
2.09633e-09
2.09832e-09
1.46981e-07
5.67593e-08
1.4701e-07
2.13906e-09
2.14871e-09
2.13572e-09
2.14541e-09
5.67382e-08
1.47005e-07
2.10587e-09
2.138e-09
2.11047e-09
2.13655e-09
2.12664e-09
2.10985e-09
2.1264e-09
5.67503e-08
1.47016e-07
2.10022e-09
2.09671e-09
2.10883e-09
1.4698e-07
5.67591e-08
1.47012e-07
2.13769e-09
2.14808e-09
2.13479e-09
2.1453e-09
5.67381e-08
1.47006e-07
2.10557e-09
2.13727e-09
2.10957e-09
2.13646e-09
2.12628e-09
2.10954e-09
2.12657e-09
5.67502e-08
1.47017e-07
2.10741e-09
2.09659e-09
2.10208e-09
1.46981e-07
5.67586e-08
1.47012e-07
2.1381e-09
2.1485e-09
2.13506e-09
2.14551e-09
5.67379e-08
1.47006e-07
2.10599e-09
2.13773e-09
2.10982e-09
2.13679e-09
2.12644e-09
2.11002e-09
2.1274e-09
5.675e-08
1.47017e-07
2.1047e-09
2.09648e-09
2.10132e-09
1.46981e-07
5.67589e-08
1.47009e-07
2.13719e-09
2.14797e-09
2.13636e-09
2.14655e-09
5.67382e-08
1.47004e-07
2.10511e-09
2.13729e-09
2.11113e-09
2.13775e-09
2.12736e-09
2.11026e-09
2.12711e-09
5.67503e-08
1.47015e-07
2.10382e-09
2.09698e-09
2.10172e-09
1.4698e-07
5.6759e-08
1.47012e-07
2.13822e-09
2.14888e-09
2.13461e-09
2.14505e-09
5.67382e-08
1.47007e-07
2.1061e-09
2.13816e-09
2.1094e-09
2.13626e-09
2.12734e-09
2.10898e-09
2.12578e-09
5.67503e-08
1.47018e-07
2.10402e-09
2.09571e-09
2.10042e-09
1.46983e-07
5.67585e-08
1.47012e-07
2.13771e-09
2.14819e-09
2.13568e-09
2.14582e-09
5.67378e-08
1.47006e-07
2.10561e-09
2.13746e-09
2.11043e-09
2.13704e-09
2.12627e-09
2.10994e-09
2.1272e-09
5.67499e-08
1.47017e-07
2.10297e-09
2.09669e-09
2.10182e-09
1.46982e-07
5.67586e-08
1.47012e-07
2.13788e-09
2.14842e-09
2.1356e-09
2.14599e-09
5.67378e-08
1.47006e-07
2.10577e-09
2.13769e-09
2.11034e-09
2.13714e-09
2.12728e-09
2.11027e-09
2.12738e-09
5.67499e-08
1.47017e-07
2.10396e-09
2.09702e-09
2.102e-09
1.4698e-07
5.67587e-08
1.47012e-07
2.13818e-09
2.149e-09
2.13539e-09
2.14362e-09
5.67379e-08
1.47006e-07
2.10606e-09
2.13803e-09
2.10982e-09
2.13665e-09
2.12753e-09
2.10986e-09
2.12714e-09
5.675e-08
1.47017e-07
2.1042e-09
2.09657e-09
2.10181e-09
1.4698e-07
5.67587e-08
1.47012e-07
2.13737e-09
2.12771e-09
2.13513e-09
2.15382e-09
5.67388e-08
1.47004e-07
2.10521e-09
2.13739e-09
2.10979e-09
2.13651e-09
2.12665e-09
2.11221e-09
2.12603e-09
5.675e-08
1.47017e-07
2.10333e-09
2.09604e-09
2.10059e-09
1.46982e-07
5.67582e-08
1.47012e-07
2.13833e-09
2.14264e-09
2.13568e-09
2.14949e-09
5.67396e-08
1.47011e-07
2.10601e-09
2.13739e-09
2.11045e-09
2.13733e-09
2.12608e-09
2.1108e-09
2.12731e-09
5.67497e-08
1.47017e-07
2.10281e-09
2.0969e-09
2.10189e-09
1.46981e-07
5.67582e-08
1.47012e-07
2.13892e-09
2.15245e-09
2.13528e-09
2.14889e-09
5.67338e-08
1.47011e-07
2.10681e-09
2.13858e-09
2.11003e-09
2.13679e-09
2.12761e-09
2.11013e-09
2.12648e-09
5.67496e-08
1.47017e-07
2.10434e-09
2.09677e-09
2.10161e-09
1.46981e-07
5.67587e-08
1.47012e-07
2.13724e-09
2.15119e-09
2.1352e-09
2.14864e-09
5.67341e-08
1.47012e-07
2.10514e-09
2.13713e-09
2.10996e-09
2.13735e-09
2.12631e-09
2.1099e-09
2.12707e-09
5.675e-08
1.47018e-07
2.10415e-09
2.09253e-09
2.09729e-09
1.46982e-07
5.67585e-08
1.47012e-07
2.13758e-09
2.1514e-09
2.1355e-09
2.14879e-09
5.6734e-08
1.47012e-07
2.10547e-09
2.13756e-09
2.11027e-09
2.13703e-09
2.12677e-09
2.11005e-09
2.1271e-09
5.67501e-08
1.47018e-07
2.10424e-09
2.09479e-09
2.09996e-09
1.46982e-07
5.67582e-08
1.47012e-07
2.1383e-09
2.15184e-09
2.13503e-09
2.14883e-09
5.67336e-08
1.47012e-07
2.10619e-09
2.13773e-09
2.10981e-09
2.13705e-09
2.12706e-09
2.11032e-09
2.12714e-09
5.67497e-08
1.47017e-07
2.10548e-09
2.09508e-09
2.10004e-09
1.46982e-07
5.67583e-08
1.47011e-07
2.13811e-09
2.1519e-09
2.13554e-09
2.149e-09
5.67338e-08
1.47011e-07
2.10602e-09
2.13779e-09
2.1103e-09
2.1372e-09
2.12654e-09
2.11033e-09
2.12758e-09
5.675e-08
1.47017e-07
2.10498e-09
2.09508e-09
2.10049e-09
1.46981e-07
5.67585e-08
1.47012e-07
2.13791e-09
2.15147e-09
2.13519e-09
2.14824e-09
5.67341e-08
1.47012e-07
2.1058e-09
2.13733e-09
2.10989e-09
2.13618e-09
2.12586e-09
2.11017e-09
2.12644e-09
5.67503e-08
1.47017e-07
2.10433e-09
2.09558e-09
2.09982e-09
1.46982e-07
5.67585e-08
1.47012e-07
2.13795e-09
2.15058e-09
2.14703e-09
2.14197e-09
5.67342e-08
1.47012e-07
2.10552e-09
2.13624e-09
2.10673e-09
2.13699e-09
2.1249e-09
2.11237e-09
2.10356e-09
5.675e-08
1.47018e-07
2.10466e-09
2.09288e-09
2.08235e-09
1.46983e-07
5.67556e-08
1.47021e-07
2.13948e-09
2.15339e-09
2.08585e-09
2.14745e-09
5.6734e-08
1.47031e-07
2.09227e-09
2.13742e-09
2.07949e-09
2.14226e-09
2.10443e-09
2.09383e-09
2.16205e-09
5.67495e-08
1.47019e-07
2.02076e-09
2.09516e-09
2.1069e-09
1.46986e-07
5.67453e-08
1.47012e-07
2.13528e-09
2.11357e-09
2.13684e-09
2.13285e-09
5.67447e-08
1.47043e-07
2.02104e-09
2.14334e-09
2.1257e-09
2.13783e-09
2.13905e-09
2.10135e-09
2.12974e-09
5.67495e-08
1.47019e-07
2.12126e-09
2.10127e-09
2.10053e-09
1.46982e-07
5.6747e-08
1.47005e-07
2.1373e-09
2.16007e-09
2.13069e-09
2.15716e-09
5.67785e-08
1.47032e-07
2.09331e-09
2.13804e-09
2.1185e-09
2.13631e-09
2.12826e-09
2.11118e-09
2.1269e-09
5.67497e-08
1.47019e-07
2.10359e-09
2.0996e-09
2.09814e-09
1.46982e-07
5.67415e-08
1.47004e-07
2.13497e-09
2.15066e-09
2.13063e-09
2.14656e-09
5.67516e-08
1.47033e-07
2.09263e-09
2.13721e-09
2.12057e-09
2.13747e-09
2.12623e-09
2.10893e-09
2.128e-09
5.67496e-08
1.47019e-07
2.10308e-09
2.10109e-09
2.10024e-09
1.46982e-07
5.67423e-08
1.47002e-07
2.13403e-09
2.1461e-09
2.13074e-09
2.14608e-09
5.67508e-08
1.47032e-07
2.09326e-09
2.1379e-09
2.11898e-09
2.13766e-09
2.12711e-09
2.10845e-09
2.12764e-09
5.67502e-08
1.47018e-07
2.10468e-09
2.09857e-09
2.10012e-09
1.46981e-07
5.67423e-08
1.47003e-07
2.13433e-09
2.14588e-09
2.12988e-09
2.14549e-09
5.67508e-08
1.47033e-07
2.09301e-09
2.138e-09
2.12159e-09
2.13716e-09
2.12681e-09
2.10759e-09
2.12688e-09
5.67503e-08
1.47019e-07
2.10457e-09
2.10115e-09
2.10209e-09
1.46982e-07
5.67422e-08
1.47004e-07
2.13398e-09
2.14529e-09
2.12965e-09
2.14515e-09
5.67506e-08
1.47034e-07
2.09355e-09
2.13768e-09
2.12234e-09
2.13757e-09
2.12561e-09
2.1075e-09
2.12747e-09
5.67501e-08
1.4702e-07
2.10419e-09
2.0998e-09
2.09803e-09
1.46983e-07
5.67421e-08
1.47003e-07
2.13357e-09
2.14509e-09
2.13039e-09
2.14588e-09
5.67504e-08
1.47033e-07
2.09361e-09
2.138e-09
2.12195e-09
2.13789e-09
2.12626e-09
2.10819e-09
2.12773e-09
5.67501e-08
1.47019e-07
2.10598e-09
2.09493e-09
2.09984e-09
1.46983e-07
5.67427e-08
1.47003e-07
2.13348e-09
2.14499e-09
2.13038e-09
2.14584e-09
5.67508e-08
1.47033e-07
2.09304e-09
2.13746e-09
2.12188e-09
2.13769e-09
2.12619e-09
2.10866e-09
2.12835e-09
5.67506e-08
1.47019e-07
2.10458e-09
2.09557e-09
2.10109e-09
1.46982e-07
5.67422e-08
1.47004e-07
2.13403e-09
2.14561e-09
2.12978e-09
2.14522e-09
5.67505e-08
1.47034e-07
2.09352e-09
2.138e-09
2.12132e-09
2.13703e-09
2.12647e-09
2.10749e-09
2.12703e-09
5.67502e-08
1.4702e-07
2.10504e-09
2.09441e-09
2.0998e-09
1.46983e-07
5.67419e-08
1.47004e-07
2.13388e-09
2.14532e-09
2.13019e-09
2.1457e-09
5.67503e-08
1.47034e-07
2.09343e-09
2.13767e-09
2.12175e-09
2.13744e-09
2.12583e-09
2.10828e-09
2.12735e-09
5.67501e-08
1.4702e-07
2.10449e-09
2.0959e-09
2.10153e-09
1.46983e-07
5.6742e-08
1.47003e-07
2.13373e-09
2.14558e-09
2.13044e-09
2.14595e-09
5.67504e-08
1.47033e-07
2.09335e-09
2.13788e-09
2.12211e-09
2.13786e-09
2.12643e-09
2.10831e-09
2.12763e-09
5.67502e-08
1.47019e-07
2.10877e-09
2.09549e-09
2.10068e-09
1.46982e-07
5.67421e-08
1.47003e-07
2.13383e-09
2.14535e-09
2.13009e-09
2.14619e-09
5.67505e-08
1.47034e-07
2.0936e-09
2.13784e-09
2.12227e-09
2.13772e-09
2.12628e-09
2.10836e-09
2.12672e-09
5.67502e-08
1.47019e-07
2.10327e-09
2.09591e-09
2.10161e-09
1.46983e-07
5.67421e-08
1.47003e-07
2.13347e-09
2.14573e-09
2.12822e-09
2.15023e-09
5.67502e-08
1.47035e-07
2.09395e-09
2.13783e-09
2.11395e-09
2.13707e-09
2.12579e-09
2.11205e-09
2.12515e-09
5.67501e-08
1.47019e-07
2.1045e-09
2.09618e-09
2.10192e-09
1.46983e-07
5.67425e-08
1.47001e-07
2.13131e-09
2.15881e-09
2.12485e-09
2.12282e-09
5.67487e-08
1.4705e-07
2.10805e-09
2.13806e-09
2.11213e-09
2.13777e-09
2.12489e-09
2.1063e-09
2.12545e-09
5.67502e-08
1.47018e-07
2.10523e-09
2.09684e-09
2.10347e-09
1.46981e-07
5.67429e-08
1.47003e-07
2.12954e-09
2.10343e-09
2.1275e-09
2.13819e-09
5.67374e-08
1.47034e-07
2.10745e-09
2.13866e-09
2.1101e-09
2.1376e-09
2.12615e-09
2.10523e-09
2.1235e-09
5.67501e-08
1.47018e-07
2.10673e-09
2.09601e-09
2.09755e-09
1.46983e-07
5.67416e-08
1.47003e-07
2.13218e-09
2.14162e-09
2.12873e-09
2.14492e-09
5.67486e-08
1.47034e-07
2.10558e-09
2.13961e-09
2.10902e-09
2.13519e-09
2.11761e-09
2.1089e-09
2.13676e-09
5.67494e-08
1.47016e-07
2.08993e-09
2.09599e-09
2.10429e-09
1.46991e-07
5.67413e-08
1.47002e-07
2.13275e-09
2.14522e-09
2.12971e-09
2.14612e-09
5.67493e-08
1.47033e-07
2.10449e-09
2.13597e-09
2.10954e-09
2.13531e-09
2.1378e-09
2.10908e-09
2.13727e-09
5.67497e-08
1.47016e-07
2.10389e-09
2.09552e-09
2.10424e-09
1.46992e-07
5.6742e-08
1.47001e-07
2.13312e-09
2.14555e-09
2.12998e-09
2.14654e-09
5.67499e-08
1.47032e-07
2.10456e-09
2.13581e-09
2.10973e-09
2.13564e-09
2.13785e-09
2.10941e-09
2.13731e-09
5.67501e-08
1.47015e-07
2.10377e-09
2.09584e-09
2.1043e-09
1.46992e-07
5.67419e-08
1.47002e-07
2.13325e-09
2.14573e-09
2.13014e-09
2.14636e-09
5.67499e-08
1.47033e-07
2.10462e-09
2.13591e-09
2.10989e-09
2.13554e-09
2.13709e-09
2.10953e-09
2.1379e-09
5.67501e-08
1.47016e-07
2.10308e-09
2.0957e-09
2.1051e-09
1.46992e-07
5.67419e-08
1.47001e-07
2.13381e-09
2.14608e-09
2.13004e-09
2.14654e-09
5.67499e-08
1.47032e-07
2.10515e-09
2.13642e-09
2.10981e-09
2.13571e-09
2.13773e-09
2.10986e-09
2.13868e-09
5.67501e-08
1.47015e-07
2.10365e-09
2.09574e-09
2.10421e-09
1.4699e-07
5.6742e-08
1.47002e-07
2.13392e-09
2.14629e-09
2.12967e-09
2.1463e-09
5.67499e-08
1.47032e-07
2.10533e-09
2.13652e-09
2.10939e-09
2.13547e-09
2.13818e-09
2.10995e-09
2.13928e-09
5.67501e-08
1.47015e-07
2.10591e-09
2.09617e-09
2.10599e-09
1.4699e-07
5.67421e-08
1.47001e-07
2.13341e-09
2.14612e-09
2.12976e-09
2.14602e-09
5.67501e-08
1.47032e-07
2.10474e-09
2.13637e-09
2.10951e-09
2.13513e-09
2.13819e-09
2.10906e-09
2.13799e-09
5.67503e-08
1.47015e-07
2.10403e-09
2.09538e-09
2.10494e-09
1.4699e-07
5.67421e-08
1.47002e-07
2.1332e-09
2.14604e-09
2.12942e-09
2.14583e-09
5.67498e-08
1.47034e-07
2.10454e-09
2.13627e-09
2.1092e-09
2.13495e-09
2.13841e-09
2.10879e-09
2.1375e-09
5.67501e-08
1.47016e-07
2.10431e-09
2.09506e-09
2.10369e-09
1.46992e-07
5.67418e-08
1.47e-07
2.13387e-09
2.14624e-09
2.13006e-09
2.14611e-09
5.67498e-08
1.47032e-07
2.10528e-09
2.13643e-09
2.10902e-09
2.13524e-09
2.13793e-09
2.10959e-09
2.13847e-09
5.675e-08
1.47015e-07
2.10487e-09
2.09595e-09
2.10605e-09
1.4699e-07
5.67419e-08
1.47002e-07
2.13379e-09
2.14619e-09
2.12922e-09
2.14555e-09
5.67499e-08
1.47033e-07
2.10546e-09
2.13642e-09
2.10909e-09
2.13468e-09
2.13899e-09
2.10904e-09
2.13712e-09
5.67502e-08
1.47016e-07
2.10547e-09
2.09536e-09
2.10465e-09
1.46991e-07
5.67422e-08
1.47003e-07
2.13276e-09
2.1454e-09
2.12929e-09
2.14543e-09
5.675e-08
1.47033e-07
2.10377e-09
2.1356e-09
2.10908e-09
2.13456e-09
2.13857e-09
2.10921e-09
2.13703e-09
5.67502e-08
1.47016e-07
2.10505e-09
2.09555e-09
2.10448e-09
1.46992e-07
5.67419e-08
1.47002e-07
2.13341e-09
2.14549e-09
2.12952e-09
2.14635e-09
5.67499e-08
1.47033e-07
2.10431e-09
2.1357e-09
2.10888e-09
2.1356e-09
2.13831e-09
2.10869e-09
2.13729e-09
5.67501e-08
1.47016e-07
2.10469e-09
2.09485e-09
2.10457e-09
1.46993e-07
5.67419e-08
1.47001e-07
2.13369e-09
2.14642e-09
2.13073e-09
2.14707e-09
5.67499e-08
1.47032e-07
2.10403e-09
2.13692e-09
2.10883e-09
2.13826e-09
2.13848e-09
2.10841e-09
2.13952e-09
5.67498e-08
1.47016e-07
2.1047e-09
2.09598e-09
2.10595e-09
1.46992e-07
5.67419e-08
1.47e-07
2.13569e-09
2.14702e-09
2.1315e-09
2.14877e-09
5.67504e-08
1.4703e-07
2.10451e-09
2.14056e-09
2.10861e-09
2.1434e-09
2.13948e-09
2.10946e-09
2.14708e-09
5.67502e-08
1.47008e-07
2.1026e-09
2.06585e-09
2.09307e-09
1.46985e-07
5.67425e-08
1.46999e-07
2.13544e-09
2.14784e-09
2.13244e-09
2.14851e-09
5.67508e-08
1.4703e-07
2.10391e-09
2.14165e-09
2.11065e-09
2.13717e-09
2.14519e-09
2.10982e-09
2.13912e-09
5.67529e-08
1.47012e-07
2.08951e-09
2.08749e-09
2.09602e-09
1.46987e-07
5.67415e-08
1.47e-07
2.13599e-09
2.14837e-09
2.12984e-09
2.14635e-09
5.67494e-08
1.47031e-07
2.10569e-09
2.13772e-09
2.10901e-09
2.13502e-09
2.14001e-09
2.1091e-09
2.13693e-09
5.67485e-08
1.47014e-07
2.10093e-09
2.09232e-09
2.09041e-09
1.4699e-07
5.67402e-08
1.47e-07
2.13517e-09
2.14696e-09
2.129e-09
2.14608e-09
5.67485e-08
1.4703e-07
2.10569e-09
2.13663e-09
2.10865e-09
2.13499e-09
2.13729e-09
2.10993e-09
2.1382e-09
5.67482e-08
1.47012e-07
2.1118e-09
2.09651e-09
2.09817e-09
1.46988e-07
5.67405e-08
1.47e-07
2.13317e-09
2.14551e-09
2.12915e-09
2.14592e-09
5.67489e-08
1.4703e-07
2.10407e-09
2.13549e-09
2.10899e-09
2.13503e-09
2.13829e-09
2.10882e-09
2.13776e-09
5.6749e-08
1.47013e-07
2.11912e-09
2.09621e-09
2.10468e-09
1.46988e-07
5.67403e-08
1.47e-07
2.13345e-09
2.14547e-09
2.1292e-09
2.14651e-09
5.67486e-08
1.4703e-07
2.10449e-09
2.13569e-09
2.10912e-09
2.13566e-09
2.13808e-09
2.10931e-09
2.13789e-09
5.67487e-08
1.47013e-07
2.10408e-09
2.09645e-09
2.10526e-09
1.46989e-07
5.67399e-08
1.46999e-07
2.13428e-09
2.14671e-09
2.1295e-09
2.14625e-09
5.67484e-08
1.4703e-07
2.10537e-09
2.13697e-09
2.1094e-09
2.1353e-09
2.13833e-09
2.10875e-09
2.13711e-09
5.67486e-08
1.47013e-07
2.10417e-09
2.09611e-09
2.10484e-09
1.46988e-07
5.67405e-08
1.46999e-07
2.13362e-09
2.14584e-09
2.12972e-09
2.14665e-09
5.67486e-08
1.47029e-07
2.10467e-09
2.13603e-09
2.10962e-09
2.13572e-09
2.13863e-09
2.10965e-09
2.13859e-09
5.67487e-08
1.47012e-07
2.10468e-09
2.09713e-09
2.10603e-09
1.46987e-07
5.67405e-08
1.47001e-07
2.13413e-09
2.14595e-09
2.1288e-09
2.14572e-09
5.67488e-08
1.47031e-07
2.10516e-09
2.13619e-09
2.10871e-09
2.13472e-09
2.13749e-09
2.10932e-09
2.13775e-09
5.6749e-08
1.47013e-07
2.10287e-09
2.09781e-09
2.10575e-09
1.46988e-07
5.67403e-08
1.47001e-07
2.13332e-09
2.14587e-09
2.12912e-09
2.1453e-09
5.67484e-08
1.47031e-07
2.1044e-09
2.1361e-09
2.10903e-09
2.13442e-09
2.13838e-09
2.1089e-09
2.13718e-09
5.67486e-08
1.47014e-07
2.1045e-09
2.09519e-09
2.10451e-09
1.46989e-07
5.67402e-08
1.46999e-07
2.13342e-09
2.14536e-09
2.12972e-09
2.14656e-09
5.67484e-08
1.47029e-07
2.10452e-09
2.13555e-09
2.10965e-09
2.13567e-09
2.13764e-09
2.11027e-09
2.1385e-09
5.67486e-08
1.47012e-07
2.10391e-09
2.09663e-09
2.10588e-09
1.46987e-07
5.67404e-08
1.46999e-07
2.13425e-09
2.14636e-09
2.12938e-09
2.14595e-09
5.67487e-08
1.47029e-07
2.10535e-09
2.13654e-09
2.10927e-09
2.13505e-09
2.13834e-09
2.10904e-09
2.13767e-09
5.6749e-08
1.47012e-07
2.10461e-09
2.0954e-09
2.10501e-09
1.46988e-07
5.67406e-08
1.47e-07
2.13341e-09
2.14552e-09
2.12917e-09
2.14592e-09
5.67489e-08
1.47031e-07
2.10445e-09
2.13568e-09
2.10906e-09
2.13502e-09
2.13787e-09
2.10906e-09
2.13698e-09
5.67491e-08
1.47013e-07
2.10414e-09
2.09543e-09
2.10431e-09
1.46989e-07
5.67404e-08
1.46998e-07
2.13329e-09
2.14551e-09
2.12993e-09
2.14651e-09
5.67486e-08
1.4703e-07
2.10437e-09
2.13571e-09
2.11033e-09
2.13563e-09
2.13724e-09
2.10931e-09
2.13814e-09
5.67488e-08
1.47012e-07
2.10345e-09
2.09567e-09
2.10553e-09
1.46987e-07
5.67408e-08
1.46999e-07
2.1337e-09
2.14612e-09
2.12926e-09
2.14596e-09
5.67489e-08
1.4703e-07
2.10614e-09
2.13638e-09
2.12094e-09
2.13502e-09
2.13873e-09
2.10959e-09
2.13777e-09
5.67491e-08
1.47013e-07
2.10504e-09
2.09595e-09
2.10517e-09
1.46988e-07
5.67403e-08
1.47e-07
2.13395e-09
2.14594e-09
2.12889e-09
2.14608e-09
5.67489e-08
1.4703e-07
2.09329e-09
2.13605e-09
2.12072e-09
2.13521e-09
2.1378e-09
2.10922e-09
2.13759e-09
5.67491e-08
1.47013e-07
2.10412e-09
2.09558e-09
2.10491e-09
1.46988e-07
5.67401e-08
1.46999e-07
2.13371e-09
2.14603e-09
2.12968e-09
2.14618e-09
5.67487e-08
1.4703e-07
2.09312e-09
2.13616e-09
2.12152e-09
2.13568e-09
2.13805e-09
2.10928e-09
2.1379e-09
5.67489e-08
1.47012e-07
2.10426e-09
2.09563e-09
2.10522e-09
1.46989e-07
5.67401e-08
1.46999e-07
2.13376e-09
2.14596e-09
2.13003e-09
2.14648e-09
5.67485e-08
1.4703e-07
2.09323e-09
2.13875e-09
2.12178e-09
2.14124e-09
2.1384e-09
2.11005e-09
2.13847e-09
5.67484e-08
1.47047e-07
2.10467e-09
2.09627e-09
2.1059e-09
1.46988e-07
5.67402e-08
1.46998e-07
2.13458e-09
2.14616e-09
2.12963e-09
2.14598e-09
5.67488e-08
1.4703e-07
2.094e-09
2.13042e-09
2.1214e-09
2.14083e-09
2.13844e-09
2.10935e-09
2.13755e-09
5.67446e-08
1.47047e-07
2.10478e-09
2.09566e-09
2.10494e-09
1.46987e-07
5.67405e-08
1.47001e-07
2.13383e-09
2.14565e-09
2.12859e-09
2.14591e-09
5.67487e-08
1.47031e-07
2.09329e-09
2.12992e-09
2.12035e-09
2.14075e-09
2.13807e-09
2.10879e-09
2.13753e-09
5.67446e-08
1.47048e-07
2.10436e-09
2.09495e-09
2.10493e-09
1.46988e-07
5.674e-08
1.47001e-07
2.13345e-09
2.14518e-09
2.12891e-09
2.14576e-09
5.67485e-08
1.47031e-07
2.0929e-09
2.12957e-09
2.12058e-09
2.14335e-09
2.13752e-09
2.10973e-09
2.13845e-09
5.67442e-08
1.47046e-07
2.10366e-09
2.09611e-09
2.10564e-09
1.46987e-07
5.67397e-08
1.47e-07
2.13445e-09
2.14588e-09
2.12977e-09
2.14631e-09
5.67484e-08
1.4703e-07
2.0937e-09
2.13202e-09
2.12133e-09
2.13481e-09
2.13911e-09
2.10956e-09
2.14018e-09
5.67481e-08
1.47024e-07
2.10534e-09
2.09556e-09
2.10905e-09
1.46988e-07
5.674e-08
1.47e-07
2.13423e-09
2.14609e-09
2.13801e-09
2.15468e-09
5.67485e-08
1.47029e-07
2.09352e-09
2.13508e-09
2.12536e-09
2.15586e-09
2.14736e-09
2.12025e-09
2.14125e-09
5.6749e-08
1.47012e-07
2.11648e-09
2.11067e-09
2.11275e-09
1.46979e-07
5.67371e-08
1.46992e-07
2.15609e-09
2.14794e-09
2.59517e-09
2.60269e-09
5.67455e-08
1.46993e-07
2.09538e-09
2.17121e-09
2.63373e-09
2.62212e-09
2.13853e-09
2.54457e-09
2.5381e-09
5.67463e-08
1.4698e-07
2.10541e-09
2.56534e-09
2.50666e-09
1.46933e-07
5.67932e-08
1.46445e-07
3.21038e-09
3.25546e-09
1.67734e-08
1.67461e-08
5.6777e-08
1.4644e-07
3.23873e-09
3.19472e-09
1.68181e-08
1.6861e-08
3.19145e-09
1.67136e-08
1.6765e-08
5.67831e-08
1.46448e-07
3.20016e-09
1.67748e-08
1.67205e-08
1.46411e-07
5.68136e-08
1.44226e-07
3.47162e-08
3.47483e-08
1.29089e-07
1.29195e-07
5.68296e-08
1.44224e-07
3.47565e-08
3.49239e-08
1.2949e-07
1.29238e-07
3.48235e-08
1.29527e-07
1.29285e-07
5.68863e-08
1.44217e-07
3.47969e-08
1.29454e-07
1.29547e-07
1.44184e-07
2.18201e-07
1.45291e-07
1.45225e-07
2.18134e-07
1.45366e-07
1.45271e-07
2.55992e-07
2.56088e-07
2.56102e-07
1.45313e-07
2.18144e-07
1.45387e-07
9.06676e-08
2.90085e-07
1.91792e-07
1.91843e-07
4.68599e-07
3.70502e-07
2.97211e-07
2.4532e-07
4.68546e-07
3.70523e-07
2.45316e-07
2.9708e-07
4.69348e-07
3.07223e-07
3.07263e-07
1.39341e-06
0.000118836
1.50365e-06
0.000121706
0.000245221
0.00025351
1.39418e-06
0.000118853
1.50232e-06
0.000121725
5.09366e-07
5.09256e-07
5.09353e-07
7.01084e-08
7.00457e-08
7.00793e-08
7.01396e-08
1.32075e-07
1.81337e-06
5.11892e-07
3.05371e-07
9.45162e-08
1.82426e-06
2.90713e-07
0.000245214
0.000253495
1.32657e-07
5.1154e-07
1.81288e-06
3.05227e-07
9.45575e-08
2.90488e-07
1.82418e-06
4.24877e-06
4.24852e-06
1.47815e-07
3.87069e-06
3.87189e-06
1.351e-06
0.000121591
1.3479e-06
0.000121591
0.000253591
0.000253587
1.3512e-06
0.000121609
1.34808e-06
0.000121609
3.32478e-08
3.32321e-08
3.32616e-08
4.35541e-09
4.35147e-09
4.34594e-09
4.38462e-09
1.76229e-07
1.75872e-06