/*--------------------------------*- C++ -*----------------------------------*\
| =========                 |                                                 |
| \\      /  F ield         | OpenFOAM: The Open Source CFD Toolbox           |
|  \\    /   O peration     | Version:  v1912                                 |
|   \\  /    A nd           | Website:  www.openfoam.com                      |
|    \\/     M anipulation  |                                                 |
\*---------------------------------------------------------------------------*/
FoamFile
{
    version     2.0;
    format      ascii;
    class       volScalarField;
    location    "0.65";
    object      p;
}
// * * * * * * * * * * * * * * * * * * * * * * * * * * * * * * * * * * * * * //

dimensions      [0 2 -2 0 0 0 0];


internalField   nonuniform List<scalar> 
171728
(
0.021575
0.0215786
0.0215786
0.0215944
0.0213481
0.0213482
0.0213482
0.0213623
0.0211195
0.0211194
0.0211194
0.0211335
0.0208908
0.0208907
0.0208907
0.0209048
0.0206621
0.020662
0.020662
0.0206761
0.0204334
0.0204333
0.0204333
0.0204474
0.0202047
0.0202046
0.0202046
0.0202187
0.0199759
0.0199759
0.0199759
0.01999
0.0197472
0.0197472
0.0197472
0.0197613
0.0195185
0.0195185
0.0195185
0.0195326
0.0192898
0.0192898
0.0192898
0.0193039
0.0190611
0.0190611
0.0190611
0.0190752
0.0188324
0.0188324
0.0188324
0.0188464
0.0186037
0.0186037
0.0186037
0.0186177
0.018375
0.018375
0.018375
0.018389
0.0181463
0.0181463
0.0181463
0.0181604
0.0179176
0.0179176
0.0179176
0.0179317
0.0176889
0.0176889
0.0176889
0.017703
0.0174602
0.0174602
0.0174602
0.0174743
0.0172315
0.0172315
0.0172315
0.0172456
0.0170028
0.0170028
0.0170028
0.0170169
0.0167741
0.0167741
0.0167741
0.0167882
0.0165454
0.0165454
0.0165454
0.0165594
0.0163167
0.0163167
0.0163167
0.0163307
0.016088
0.016088
0.016088
0.016102
0.0158593
0.0158593
0.0158593
0.0158733
0.0156306
0.0156306
0.0156306
0.0156446
0.0154019
0.0154019
0.0154019
0.0154159
0.0151732
0.0151731
0.0151731
0.0151872
0.0149445
0.0149444
0.0149444
0.0149585
0.0147158
0.0147157
0.0147157
0.0147298
0.0144871
0.0144871
0.0144871
0.0145011
0.0142584
0.0142584
0.0142584
0.0142724
0.0140297
0.0140297
0.0140297
0.0140437
0.013801
0.013801
0.013801
0.013815
0.0135723
0.0135723
0.0135723
0.0135864
0.0133436
0.0133436
0.0133436
0.0133577
0.0131149
0.0131149
0.0131149
0.013129
0.0128862
0.0128862
0.0128862
0.0129003
0.0126575
0.0126575
0.0126575
0.0126716
0.0124288
0.0124288
0.0124288
0.0124429
0.0122001
0.0122001
0.0122001
0.0122142
0.0119714
0.0119714
0.0119714
0.0119855
0.0117427
0.0117427
0.0117427
0.0117568
0.011514
0.011514
0.011514
0.0115281
0.0112853
0.0112853
0.0112853
0.0112994
0.0110566
0.0110566
0.0110566
0.0110707
0.0108279
0.0108279
0.0108279
0.010842
0.0105992
0.0105992
0.0105992
0.0106133
0.0103705
0.0103705
0.0103705
0.0103846
0.0101418
0.0101418
0.0101418
0.0101559
0.00991313
0.00991308
0.00991308
0.00992716
0.00968443
0.00968438
0.00968438
0.00969846
0.00945573
0.00945568
0.00945568
0.00946976
0.00922704
0.00922698
0.00922698
0.00924107
0.00899834
0.00899829
0.00899829
0.00901237
0.00876964
0.00876959
0.00876959
0.00878367
0.00854094
0.00854089
0.00854089
0.00855497
0.00831224
0.00831219
0.00831219
0.00832627
0.00808354
0.00808348
0.00808348
0.00809757
0.00785483
0.00785478
0.00785478
0.00786886
0.00762613
0.00762608
0.00762608
0.00764016
0.00739742
0.00739737
0.00739737
0.00741145
0.00716872
0.00716866
0.00716866
0.00718274
0.00694001
0.00693996
0.00693996
0.00695404
0.0067113
0.00671125
0.00671125
0.00672533
0.0064826
0.00648254
0.00648254
0.00649663
0.00625389
0.00625384
0.00625384
0.00626792
0.00602519
0.00602514
0.00602514
0.00603922
0.00579649
0.00579643
0.00579643
0.00581051
0.00556779
0.00556773
0.00556773
0.00558181
0.00533909
0.00533903
0.00533903
0.00535311
0.00511039
0.00511033
0.00511033
0.00512441
0.00488169
0.00488163
0.00488163
0.00489571
0.00465299
0.00465293
0.00465293
0.00466701
0.00442428
0.00442423
0.00442423
0.00443831
0.00419558
0.00419553
0.00419553
0.00420961
0.00396688
0.00396683
0.00396683
0.00398091
0.00373818
0.00373812
0.00373812
0.0037522
0.00350947
0.00350942
0.00350942
0.0035235
0.00328077
0.00328071
0.00328071
0.00329479
0.00305206
0.003052
0.00305201
0.00306609
0.00282335
0.0028233
0.0028233
0.00283738
0.00259465
0.00259459
0.00259459
0.00260867
0.00236594
0.00236589
0.00236589
0.00237997
0.00213724
0.00213718
0.00213718
0.00215126
0.00190853
0.00190848
0.00190848
0.00192256
0.00167983
0.00167978
0.00167978
0.00169386
0.00145113
0.00145108
0.00145108
0.00146516
0.00122243
0.00122238
0.00122238
0.00123646
0.000993733
0.000993679
0.000993679
0.00100776
0.000765035
0.000764983
0.000764982
0.000779063
0.000536354
0.000536299
0.000536298
0.000550372
0.000308309
0.000307769
0.000307774
0.000321739
9.30041e-05
0.000101106
0.000101113
0.000101776
0.0216261
0.0216221
0.0216221
0.0216261
0.0216221
0.0216221
0.0216291
0.0216291
0.0216291
0.0216291
0.0216221
0.0216221
0.0216261
0.0216221
0.0216221
0.0216261
0.0215944
0.0213913
0.0215786
0.0215786
0.0214053
0.0214053
0.0215944
0.0213913
0.0215786
0.0215786
0.0214054
0.0214054
0.0215786
0.0214053
0.0214053
0.0215944
0.0213913
0.0215786
0.0214053
0.0214053
0.0213913
0.0213623
0.0211626
0.0213482
0.0213482
0.0211766
0.0211766
0.0213623
0.0211626
0.0213482
0.0213482
0.0211766
0.0211766
0.0213482
0.0211766
0.0211766
0.0213623
0.0211626
0.0213482
0.0211766
0.0211766
0.0211626
0.0211335
0.0209339
0.0211194
0.0211194
0.0209479
0.0209479
0.0211335
0.0209339
0.0211194
0.0211194
0.0209479
0.0209479
0.0211194
0.0209479
0.0209479
0.0211335
0.0209339
0.0211194
0.0209479
0.0209479
0.0209339
0.0209048
0.0207051
0.0208907
0.0208907
0.0207192
0.0207192
0.0209048
0.0207051
0.0208907
0.0208907
0.0207192
0.0207192
0.0208907
0.0207192
0.0207192
0.0209048
0.0207051
0.0208907
0.0207192
0.0207192
0.0207051
0.0206761
0.0204764
0.020662
0.020662
0.0204905
0.0204905
0.0206761
0.0204764
0.020662
0.020662
0.0204905
0.0204905
0.020662
0.0204905
0.0204905
0.0206761
0.0204764
0.020662
0.0204905
0.0204905
0.0204764
0.0204474
0.0202477
0.0204333
0.0204333
0.0202618
0.0202618
0.0204474
0.0202477
0.0204333
0.0204333
0.0202618
0.0202618
0.0204333
0.0202618
0.0202618
0.0204474
0.0202477
0.0204333
0.0202618
0.0202618
0.0202477
0.0202187
0.020019
0.0202046
0.0202046
0.0200331
0.0200331
0.0202187
0.020019
0.0202046
0.0202046
0.0200331
0.0200331
0.0202046
0.0200331
0.0200331
0.0202187
0.020019
0.0202046
0.0200331
0.0200331
0.020019
0.01999
0.0197903
0.0199759
0.0199759
0.0198044
0.0198044
0.01999
0.0197903
0.0199759
0.0199759
0.0198044
0.0198044
0.0199759
0.0198044
0.0198044
0.01999
0.0197903
0.0199759
0.0198044
0.0198044
0.0197903
0.0197613
0.0195616
0.0197472
0.0197472
0.0195757
0.0195757
0.0197613
0.0195616
0.0197472
0.0197472
0.0195757
0.0195757
0.0197472
0.0195757
0.0195757
0.0197613
0.0195616
0.0197472
0.0195757
0.0195757
0.0195616
0.0195326
0.0193329
0.0195185
0.0195185
0.0193469
0.019347
0.0195326
0.0193329
0.0195185
0.0195185
0.0193469
0.0193469
0.0195185
0.0193469
0.0193469
0.0195326
0.0193329
0.0195185
0.0193469
0.0193469
0.0193329
0.0193039
0.0191042
0.0192898
0.0192898
0.0191182
0.0191182
0.0193039
0.0191042
0.0192898
0.0192898
0.0191182
0.0191182
0.0192898
0.0191182
0.0191182
0.0193039
0.0191042
0.0192898
0.0191182
0.0191182
0.0191042
0.0190752
0.0188755
0.0190611
0.0190611
0.0188895
0.0188895
0.0190752
0.0188755
0.0190611
0.0190611
0.0188895
0.0188895
0.0190611
0.0188895
0.0188895
0.0190752
0.0188755
0.0190611
0.0188895
0.0188895
0.0188755
0.0188465
0.0186468
0.0188324
0.0188324
0.0186608
0.0186608
0.0188465
0.0186468
0.0188324
0.0188324
0.0186608
0.0186608
0.0188324
0.0186608
0.0186608
0.0188465
0.0186468
0.0188324
0.0186608
0.0186608
0.0186468
0.0186178
0.0184181
0.0186037
0.0186037
0.0184321
0.0184321
0.0186178
0.0184181
0.0186037
0.0186037
0.0184321
0.0184321
0.0186037
0.0184321
0.0184321
0.0186178
0.0184181
0.0186037
0.0184321
0.0184321
0.0184181
0.0183891
0.0181894
0.018375
0.018375
0.0182034
0.0182034
0.0183891
0.0181894
0.018375
0.018375
0.0182034
0.0182034
0.018375
0.0182034
0.0182034
0.0183891
0.0181894
0.018375
0.0182034
0.0182034
0.0181894
0.0181604
0.0179607
0.0181463
0.0181463
0.0179747
0.0179747
0.0181604
0.0179607
0.0181463
0.0181463
0.0179747
0.0179747
0.0181463
0.0179747
0.0179747
0.0181604
0.0179607
0.0181463
0.0179747
0.0179747
0.0179607
0.0179317
0.017732
0.0179176
0.0179176
0.017746
0.017746
0.0179317
0.017732
0.0179176
0.0179176
0.017746
0.017746
0.0179176
0.017746
0.017746
0.0179317
0.017732
0.0179176
0.017746
0.017746
0.017732
0.017703
0.0175033
0.0176889
0.0176889
0.0175173
0.0175173
0.017703
0.0175033
0.0176889
0.0176889
0.0175173
0.0175173
0.0176889
0.0175173
0.0175173
0.017703
0.0175033
0.0176889
0.0175173
0.0175173
0.0175033
0.0174743
0.0172746
0.0174602
0.0174602
0.0172886
0.0172886
0.0174743
0.0172746
0.0174602
0.0174602
0.0172886
0.0172886
0.0174602
0.0172886
0.0172886
0.0174743
0.0172746
0.0174602
0.0172886
0.0172886
0.0172746
0.0172456
0.0170459
0.0172315
0.0172315
0.0170599
0.0170599
0.0172456
0.0170459
0.0172315
0.0172315
0.0170599
0.0170599
0.0172315
0.0170599
0.0170599
0.0172456
0.0170459
0.0172315
0.0170599
0.0170599
0.0170459
0.0170169
0.0168172
0.0170028
0.0170028
0.0168312
0.0168312
0.0170169
0.0168172
0.0170028
0.0170028
0.0168312
0.0168312
0.0170028
0.0168312
0.0168312
0.0170169
0.0168172
0.0170028
0.0168312
0.0168312
0.0168172
0.0167882
0.0165885
0.0167741
0.0167741
0.0166025
0.0166025
0.0167882
0.0165885
0.0167741
0.0167741
0.0166025
0.0166025
0.0167741
0.0166025
0.0166025
0.0167882
0.0165885
0.0167741
0.0166025
0.0166025
0.0165885
0.0165595
0.0163598
0.0165454
0.0165454
0.0163738
0.0163738
0.0165595
0.0163598
0.0165454
0.0165454
0.0163738
0.0163738
0.0165454
0.0163738
0.0163738
0.0165594
0.0163598
0.0165454
0.0163738
0.0163738
0.0163598
0.0163307
0.0161311
0.0163167
0.0163167
0.0161451
0.0161451
0.0163307
0.0161311
0.0163167
0.0163167
0.0161451
0.0161451
0.0163167
0.0161451
0.0161451
0.0163307
0.0161311
0.0163167
0.0161451
0.0161451
0.0161311
0.016102
0.0159024
0.016088
0.016088
0.0159164
0.0159164
0.016102
0.0159024
0.016088
0.016088
0.0159164
0.0159164
0.016088
0.0159164
0.0159164
0.016102
0.0159024
0.016088
0.0159164
0.0159164
0.0159024
0.0158733
0.0156737
0.0158593
0.0158593
0.0156877
0.0156877
0.0158733
0.0156737
0.0158593
0.0158593
0.0156877
0.0156877
0.0158593
0.0156877
0.0156877
0.0158733
0.0156737
0.0158593
0.0156877
0.0156877
0.0156737
0.0156446
0.015445
0.0156306
0.0156306
0.015459
0.015459
0.0156446
0.015445
0.0156306
0.0156306
0.015459
0.015459
0.0156306
0.015459
0.015459
0.0156446
0.015445
0.0156306
0.015459
0.015459
0.015445
0.0154159
0.0152163
0.0154019
0.0154019
0.0152303
0.0152303
0.0154159
0.0152163
0.0154019
0.0154019
0.0152303
0.0152303
0.0154019
0.0152303
0.0152303
0.0154159
0.0152163
0.0154019
0.0152303
0.0152303
0.0152163
0.0151872
0.0149876
0.0151731
0.0151731
0.0150016
0.0150016
0.0151872
0.0149876
0.0151731
0.0151731
0.0150016
0.0150016
0.0151731
0.0150016
0.0150016
0.0151872
0.0149876
0.0151731
0.0150016
0.0150016
0.0149876
0.0149585
0.0147589
0.0149444
0.0149444
0.0147729
0.0147729
0.0149585
0.0147589
0.0149444
0.0149444
0.0147729
0.0147729
0.0149444
0.0147729
0.0147729
0.0149585
0.0147589
0.0149444
0.0147729
0.0147729
0.0147589
0.0147298
0.0145302
0.0147157
0.0147157
0.0145442
0.0145442
0.0147298
0.0145302
0.0147157
0.0147157
0.0145442
0.0145442
0.0147157
0.0145442
0.0145442
0.0147298
0.0145302
0.0147157
0.0145442
0.0145442
0.0145302
0.0145011
0.0143015
0.0144871
0.0144871
0.0143155
0.0143155
0.0145011
0.0143015
0.0144871
0.0144871
0.0143155
0.0143155
0.0144871
0.0143155
0.0143155
0.0145011
0.0143015
0.0144871
0.0143155
0.0143155
0.0143015
0.0142724
0.0140728
0.0142584
0.0142584
0.0140868
0.0140868
0.0142724
0.0140728
0.0142584
0.0142584
0.0140868
0.0140868
0.0142584
0.0140868
0.0140868
0.0142724
0.0140728
0.0142584
0.0140868
0.0140868
0.0140728
0.0140437
0.0138441
0.0140297
0.0140297
0.0138581
0.0138581
0.0140437
0.0138441
0.0140297
0.0140297
0.0138581
0.0138581
0.0140297
0.0138581
0.0138581
0.0140437
0.0138441
0.0140297
0.0138581
0.0138581
0.0138441
0.013815
0.0136154
0.013801
0.013801
0.0136294
0.0136294
0.013815
0.0136154
0.013801
0.013801
0.0136294
0.0136294
0.013801
0.0136294
0.0136294
0.013815
0.0136154
0.013801
0.0136294
0.0136294
0.0136154
0.0135864
0.0133867
0.0135723
0.0135723
0.0134007
0.0134007
0.0135864
0.0133867
0.0135723
0.0135723
0.0134007
0.0134007
0.0135723
0.0134007
0.0134007
0.0135864
0.0133867
0.0135723
0.0134007
0.0134007
0.0133867
0.0133577
0.013158
0.0133436
0.0133436
0.0131721
0.0131721
0.0133577
0.013158
0.0133436
0.0133436
0.0131721
0.0131721
0.0133436
0.0131721
0.0131721
0.0133577
0.013158
0.0133436
0.0131721
0.0131721
0.013158
0.013129
0.0129293
0.0131149
0.0131149
0.0129434
0.0129434
0.013129
0.0129293
0.0131149
0.0131149
0.0129434
0.0129434
0.0131149
0.0129434
0.0129434
0.013129
0.0129293
0.0131149
0.0129434
0.0129434
0.0129293
0.0129003
0.0127006
0.0128862
0.0128862
0.0127147
0.0127147
0.0129003
0.0127006
0.0128862
0.0128862
0.0127147
0.0127147
0.0128862
0.0127147
0.0127147
0.0129003
0.0127006
0.0128862
0.0127147
0.0127147
0.0127006
0.0126716
0.0124719
0.0126575
0.0126575
0.012486
0.012486
0.0126716
0.0124719
0.0126575
0.0126575
0.012486
0.012486
0.0126575
0.012486
0.012486
0.0126716
0.0124719
0.0126575
0.012486
0.012486
0.0124719
0.0124429
0.0122432
0.0124288
0.0124288
0.0122573
0.0122573
0.0124429
0.0122432
0.0124288
0.0124288
0.0122573
0.0122573
0.0124288
0.0122573
0.0122573
0.0124429
0.0122432
0.0124288
0.0122573
0.0122573
0.0122432
0.0122142
0.0120145
0.0122001
0.0122001
0.0120286
0.0120286
0.0122142
0.0120145
0.0122001
0.0122001
0.0120286
0.0120286
0.0122001
0.0120286
0.0120286
0.0122142
0.0120145
0.0122001
0.0120286
0.0120286
0.0120145
0.0119855
0.0117858
0.0119714
0.0119714
0.0117999
0.0117999
0.0119855
0.0117858
0.0119714
0.0119714
0.0117999
0.0117999
0.0119714
0.0117999
0.0117999
0.0119855
0.0117858
0.0119714
0.0117999
0.0117999
0.0117858
0.0117568
0.0115571
0.0117427
0.0117427
0.0115712
0.0115712
0.0117568
0.0115571
0.0117427
0.0117427
0.0115712
0.0115712
0.0117427
0.0115712
0.0115712
0.0117568
0.0115571
0.0117427
0.0115712
0.0115712
0.0115571
0.0115281
0.0113284
0.011514
0.011514
0.0113425
0.0113425
0.0115281
0.0113284
0.011514
0.011514
0.0113425
0.0113425
0.011514
0.0113425
0.0113425
0.0115281
0.0113284
0.011514
0.0113425
0.0113425
0.0113284
0.0112994
0.0110997
0.0112853
0.0112853
0.0111138
0.0111138
0.0112994
0.0110997
0.0112853
0.0112853
0.0111138
0.0111138
0.0112853
0.0111138
0.0111138
0.0112994
0.0110997
0.0112853
0.0111138
0.0111138
0.0110997
0.0110707
0.010871
0.0110566
0.0110566
0.010885
0.010885
0.0110707
0.010871
0.0110566
0.0110566
0.010885
0.010885
0.0110566
0.010885
0.010885
0.0110707
0.010871
0.0110566
0.010885
0.010885
0.010871
0.010842
0.0106423
0.0108279
0.0108279
0.0106563
0.0106563
0.010842
0.0106423
0.0108279
0.0108279
0.0106563
0.0106563
0.0108279
0.0106563
0.0106563
0.010842
0.0106423
0.0108279
0.0106563
0.0106563
0.0106423
0.0106133
0.0104136
0.0105992
0.0105992
0.0104276
0.0104276
0.0106133
0.0104136
0.0105992
0.0105992
0.0104276
0.0104276
0.0105992
0.0104276
0.0104276
0.0106133
0.0104136
0.0105992
0.0104276
0.0104276
0.0104136
0.0103846
0.0101849
0.0103705
0.0103705
0.0101989
0.0101989
0.0103846
0.0101849
0.0103705
0.0103705
0.0101989
0.0101989
0.0103705
0.0101989
0.0101989
0.0103846
0.0101849
0.0103705
0.0101989
0.0101989
0.0101849
0.0101559
0.00995621
0.0101418
0.0101418
0.00997025
0.00997025
0.0101559
0.00995621
0.0101418
0.0101418
0.00997025
0.00997025
0.0101418
0.00997025
0.00997025
0.0101559
0.00995621
0.0101418
0.00997025
0.00997025
0.00995621
0.00992716
0.00972751
0.00991308
0.00991308
0.00974155
0.00974155
0.00992716
0.00972751
0.00991308
0.00991308
0.00974155
0.00974155
0.00991308
0.00974155
0.00974155
0.00992716
0.00972751
0.00991308
0.00974155
0.00974155
0.00972751
0.00969846
0.00949881
0.00968438
0.00968438
0.00951285
0.00951285
0.00969846
0.00949881
0.00968438
0.00968438
0.00951285
0.00951286
0.00968438
0.00951286
0.00951286
0.00969846
0.00949881
0.00968438
0.00951286
0.00951286
0.00949881
0.00946976
0.00927012
0.00945568
0.00945568
0.00928416
0.00928416
0.00946976
0.00927012
0.00945568
0.00945568
0.00928416
0.00928416
0.00945568
0.00928416
0.00928416
0.00946976
0.00927012
0.00945568
0.00928416
0.00928416
0.00927012
0.00924107
0.00904142
0.00922698
0.00922698
0.00905546
0.00905546
0.00924107
0.00904142
0.00922698
0.00922698
0.00905546
0.00905546
0.00922698
0.00905546
0.00905546
0.00924107
0.00904142
0.00922698
0.00905546
0.00905546
0.00904142
0.00901237
0.00881272
0.00899829
0.00899829
0.00882676
0.00882676
0.00901237
0.00881272
0.00899829
0.00899829
0.00882676
0.00882676
0.00899829
0.00882676
0.00882676
0.00901237
0.00881272
0.00899829
0.00882676
0.00882676
0.00881272
0.00878367
0.00858402
0.00876959
0.00876959
0.00859806
0.00859806
0.00878367
0.00858402
0.00876959
0.00876959
0.00859806
0.00859806
0.00876959
0.00859806
0.00859806
0.00878367
0.00858402
0.00876959
0.00859806
0.00859806
0.00858402
0.00855497
0.00835532
0.00854089
0.00854089
0.00836936
0.00836936
0.00855497
0.00835532
0.00854089
0.00854089
0.00836936
0.00836936
0.00854089
0.00836936
0.00836936
0.00855497
0.00835532
0.00854089
0.00836936
0.00836936
0.00835532
0.00832627
0.00812662
0.00831219
0.00831219
0.00814066
0.00814066
0.00832627
0.00812662
0.00831219
0.00831219
0.00814066
0.00814066
0.00831219
0.00814066
0.00814066
0.00832627
0.00812662
0.00831218
0.00814066
0.00814066
0.00812662
0.00809757
0.00789791
0.00808348
0.00808348
0.00791196
0.00791196
0.00809757
0.00789791
0.00808348
0.00808348
0.00791196
0.00791196
0.00808348
0.00791196
0.00791196
0.00809757
0.00789792
0.00808348
0.00791196
0.00791195
0.00789791
0.00786886
0.00766921
0.00785478
0.00785478
0.00768325
0.00768325
0.00786886
0.00766921
0.00785478
0.00785478
0.00768325
0.00768325
0.00785478
0.00768325
0.00768325
0.00786886
0.00766921
0.00785478
0.00768325
0.00768325
0.00766921
0.00764016
0.0074405
0.00762608
0.00762607
0.00745455
0.00745454
0.00764016
0.0074405
0.00762608
0.00762608
0.00745455
0.00745455
0.00762608
0.00745455
0.00745455
0.00764016
0.0074405
0.00762607
0.00745455
0.00745454
0.0074405
0.00741145
0.0072118
0.00739737
0.00739737
0.00722584
0.00722584
0.00741145
0.0072118
0.00739737
0.00739737
0.00722584
0.00722584
0.00739737
0.00722584
0.00722584
0.00741145
0.0072118
0.00739737
0.00722584
0.00722584
0.0072118
0.00718274
0.00698309
0.00716866
0.00716866
0.00699713
0.00699713
0.00718274
0.00698309
0.00716866
0.00716866
0.00699713
0.00699713
0.00716866
0.00699713
0.00699713
0.00718274
0.00698309
0.00716866
0.00699713
0.00699713
0.00698309
0.00695404
0.00675439
0.00693996
0.00693996
0.00676843
0.00676843
0.00695404
0.00675438
0.00693996
0.00693996
0.00676843
0.00676843
0.00693996
0.00676843
0.00676843
0.00695404
0.00675439
0.00693995
0.00676843
0.00676842
0.00675439
0.00672533
0.00652568
0.00671125
0.00671125
0.00653972
0.00653972
0.00672533
0.00652568
0.00671125
0.00671125
0.00653972
0.00653972
0.00671125
0.00653972
0.00653972
0.00672533
0.00652568
0.00671125
0.00653972
0.00653972
0.00652568
0.00649663
0.00629697
0.00648254
0.00648254
0.00631102
0.00631101
0.00649663
0.00629697
0.00648254
0.00648254
0.00631102
0.00631102
0.00648254
0.00631102
0.00631102
0.00649663
0.00629697
0.00648254
0.00631102
0.00631101
0.00629697
0.00626792
0.00606827
0.00625384
0.00625384
0.00608231
0.00608231
0.00626792
0.00606827
0.00625384
0.00625384
0.00608231
0.00608231
0.00625384
0.00608231
0.00608231
0.00626792
0.00606827
0.00625384
0.00608231
0.00608231
0.00606827
0.00603922
0.00583957
0.00602514
0.00602514
0.00585361
0.00585361
0.00603922
0.00583957
0.00602514
0.00602514
0.00585361
0.00585361
0.00602514
0.00585361
0.00585361
0.00603922
0.00583957
0.00602513
0.00585361
0.00585361
0.00583957
0.00581052
0.00561087
0.00579643
0.00579643
0.00562491
0.00562491
0.00581052
0.00561087
0.00579643
0.00579643
0.00562491
0.00562491
0.00579643
0.00562491
0.00562491
0.00581052
0.00561087
0.00579643
0.00562491
0.00562491
0.00561087
0.00558181
0.00538217
0.00556773
0.00556773
0.00539621
0.00539621
0.00558181
0.00538216
0.00556773
0.00556773
0.00539621
0.00539621
0.00556773
0.00539621
0.00539621
0.00558181
0.00538217
0.00556773
0.00539621
0.00539621
0.00538217
0.00535311
0.00515347
0.00533903
0.00533903
0.00516751
0.00516751
0.00535311
0.00515347
0.00533903
0.00533903
0.00516751
0.00516751
0.00533903
0.00516751
0.00516751
0.00535311
0.00515347
0.00533903
0.00516751
0.00516751
0.00515347
0.00512441
0.00492477
0.00511033
0.00511033
0.00493881
0.00493881
0.00512441
0.00492476
0.00511033
0.00511033
0.00493881
0.00493881
0.00511033
0.00493881
0.00493881
0.00512441
0.00492477
0.00511033
0.00493881
0.0049388
0.00492476
0.00489571
0.00469607
0.00488163
0.00488163
0.00471011
0.00471011
0.00489571
0.00469606
0.00488163
0.00488163
0.00471011
0.00471011
0.00488163
0.00471011
0.00471011
0.00489571
0.00469607
0.00488163
0.00471011
0.00471011
0.00469607
0.00466701
0.00446736
0.00465293
0.00465293
0.00448141
0.0044814
0.00466701
0.00446736
0.00465293
0.00465293
0.00448141
0.00448141
0.00465293
0.00448141
0.00448141
0.00466701
0.00446736
0.00465293
0.00448141
0.0044814
0.00446736
0.00443831
0.00423866
0.00442423
0.00442423
0.0042527
0.0042527
0.00443831
0.00423866
0.00442423
0.00442423
0.0042527
0.0042527
0.00442423
0.0042527
0.0042527
0.00443831
0.00423866
0.00442423
0.00425271
0.0042527
0.00423866
0.00420961
0.00400996
0.00419553
0.00419553
0.004024
0.004024
0.00420961
0.00400996
0.00419553
0.00419553
0.004024
0.004024
0.00419553
0.004024
0.004024
0.00420961
0.00400996
0.00419553
0.004024
0.004024
0.00400996
0.00398091
0.00378126
0.00396683
0.00396683
0.0037953
0.0037953
0.00398091
0.00378126
0.00396683
0.00396683
0.0037953
0.0037953
0.00396683
0.0037953
0.0037953
0.00398091
0.00378126
0.00396682
0.0037953
0.0037953
0.00378126
0.0037522
0.00355255
0.00373812
0.00373812
0.00356659
0.00356659
0.00375221
0.00355255
0.00373812
0.00373812
0.00356659
0.00356659
0.00373812
0.00356659
0.00356659
0.0037522
0.00355255
0.00373812
0.00356659
0.00356659
0.00355255
0.0035235
0.00332385
0.00350942
0.00350942
0.00333789
0.00333789
0.0035235
0.00332385
0.00350942
0.00350942
0.00333789
0.00333789
0.00350942
0.00333789
0.00333789
0.0035235
0.00332385
0.00350942
0.00333789
0.00333789
0.00332385
0.00329479
0.00309514
0.00328071
0.00328071
0.00310918
0.00310918
0.00329479
0.00309514
0.00328071
0.00328071
0.00310918
0.00310918
0.00328071
0.00310918
0.00310918
0.00329479
0.00309514
0.00328071
0.00310918
0.00310918
0.00309514
0.00306609
0.00286643
0.00305201
0.003052
0.00288048
0.00288048
0.00306609
0.00286643
0.003052
0.00305201
0.00288048
0.00288048
0.00305201
0.00288048
0.00288048
0.00306609
0.00286644
0.003052
0.00288048
0.00288047
0.00286643
0.00283738
0.00263773
0.0028233
0.0028233
0.00265177
0.00265177
0.00283738
0.00263773
0.0028233
0.0028233
0.00265177
0.00265177
0.0028233
0.00265177
0.00265177
0.00283738
0.00263773
0.0028233
0.00265177
0.00265177
0.00263773
0.00260868
0.00240902
0.00259459
0.00259459
0.00242306
0.00242306
0.00260868
0.00240902
0.00259459
0.00259459
0.00242306
0.00242306
0.00259459
0.00242306
0.00242306
0.00260868
0.00240902
0.00259459
0.00242306
0.00242306
0.00240902
0.00237997
0.00218032
0.00236589
0.00236589
0.00219436
0.00219436
0.00237997
0.00218032
0.00236589
0.00236589
0.00219436
0.00219436
0.00236589
0.00219436
0.00219436
0.00237997
0.00218032
0.00236589
0.00219436
0.00219436
0.00218032
0.00215127
0.00195162
0.00213718
0.00213718
0.00196566
0.00196566
0.00215127
0.00195161
0.00213718
0.00213718
0.00196566
0.00196566
0.00213718
0.00196566
0.00196566
0.00215127
0.00195162
0.00213718
0.00196566
0.00196565
0.00195162
0.00192256
0.00172291
0.00190848
0.00190848
0.00173695
0.00173695
0.00192256
0.00172291
0.00190848
0.00190848
0.00173695
0.00173695
0.00190848
0.00173695
0.00173695
0.00192256
0.00172291
0.00190848
0.00173695
0.00173695
0.00172291
0.00169386
0.00149421
0.00167978
0.00167978
0.00150825
0.00150825
0.00169386
0.00149421
0.00167978
0.00167978
0.00150825
0.00150825
0.00167978
0.00150825
0.00150825
0.00169386
0.00149421
0.00167978
0.00150825
0.00150825
0.00149421
0.00146516
0.00126552
0.00145108
0.00145108
0.00127956
0.00127956
0.00146516
0.00126551
0.00145108
0.00145108
0.00127956
0.00127956
0.00145108
0.00127956
0.00127956
0.00146516
0.00126552
0.00145108
0.00127956
0.00127955
0.00126552
0.00123646
0.00103681
0.00122238
0.00122238
0.00105085
0.00105085
0.00123646
0.00103681
0.00122238
0.00122238
0.00105085
0.00105085
0.00122238
0.00105085
0.00105085
0.00123646
0.00103681
0.00122238
0.00105085
0.00105085
0.00103681
0.00100776
0.000808115
0.000993679
0.000993678
0.000822156
0.000822155
0.00100776
0.000808114
0.000993679
0.000993679
0.000822156
0.000822156
0.000993679
0.000822156
0.000822156
0.00100776
0.000808115
0.000993678
0.000822156
0.000822156
0.000808115
0.000779064
0.000579423
0.000764983
0.000764982
0.000593466
0.000593468
0.000779064
0.000579423
0.000764983
0.000764982
0.000593465
0.000593466
0.000764983
0.000593467
0.000593466
0.000779063
0.000579424
0.000764983
0.000593466
0.000593467
0.000579423
0.000550374
0.000350776
0.000536297
0.000536299
0.00036485
0.000364848
0.000550374
0.000350775
0.000536298
0.000536298
0.000364847
0.000364847
0.000536297
0.000364847
0.000364846
0.000550373
0.000350776
0.000536297
0.000364846
0.000364844
0.000350773
0.000321745
0.000126807
0.000307776
0.00030777
0.000140416
0.000140413
0.000321741
0.000126803
0.00030777
0.000307773
0.00014041
0.000140414
0.000307772
0.000140403
0.000140409
0.000321743
0.000126808
0.000307772
0.000140409
0.000140406
0.000126803
0.00010178
0.000101114
0.00010111
0.000101775
0.000101111
0.000101113
9.30015e-05
9.30035e-05
9.3001e-05
0.00010111
0.000101781
0.000101109
0.0216557
0.021693
0.0216728
0.0216728
0.0217506
0.0217073
0.0218163
0.0216849
0.0217506
0.0217073
0.0216849
0.0218162
0.0217233
0.0218337
0.0218336
0.0215083
0.0216249
0.021616
0.0215089
0.021499
0.021504
0.0215083
0.0216249
0.021616
0.0215089
0.021575
0.021575
0.021575
0.0214051
0.0214051
0.0214051
0.0214051
0.0215072
0.0216077
0.0215777
0.0215195
0.0215962
0.0215081
0.0215195
0.0214991
0.0215041
0.0215072
0.0215776
0.0216077
0.0215195
0.0215962
0.0215194
0.0215081
0.0216096
0.0216095
0.0215059
0.0215072
0.0215072
0.0212768
0.0213627
0.0213627
0.0212768
0.0213626
0.0212768
0.0212768
0.0213627
0.0213627
0.0212768
0.0213481
0.0213481
0.0213481
0.0211766
0.0211766
0.0211766
0.0211766
0.0212773
0.0213622
0.0213481
0.021291
0.0213621
0.0212773
0.0212909
0.0213626
0.0212768
0.0212773
0.0213481
0.0213622
0.021291
0.0213621
0.0212909
0.0212773
0.0213626
0.0213626
0.0212769
0.0212768
0.0212768
0.021048
0.0211337
0.0211337
0.021048
0.0211337
0.021048
0.021048
0.0211337
0.0211337
0.021048
0.0211195
0.0211195
0.0211195
0.0209479
0.0209479
0.0209479
0.0209479
0.0210486
0.0211332
0.0211194
0.0210623
0.0211332
0.0210485
0.0210623
0.0211337
0.021048
0.0210486
0.0211194
0.0211333
0.0210623
0.0211332
0.0210623
0.0210485
0.0211337
0.0211337
0.0210482
0.021048
0.021048
0.0208193
0.020905
0.020905
0.0208193
0.020905
0.0208193
0.0208193
0.020905
0.020905
0.0208193
0.0208908
0.0208908
0.0208908
0.0207192
0.0207192
0.0207192
0.0207192
0.0208198
0.0209045
0.0208907
0.0208335
0.0209045
0.0208198
0.0208336
0.020905
0.0208193
0.0208198
0.0208907
0.0209045
0.0208335
0.0209045
0.0208336
0.0208198
0.020905
0.020905
0.0208195
0.0208193
0.0208193
0.0205906
0.0206763
0.0206763
0.0205906
0.0206763
0.0205906
0.0205906
0.0206763
0.0206763
0.0205906
0.0206621
0.0206621
0.0206621
0.0204905
0.0204905
0.0204905
0.0204905
0.0205911
0.0206758
0.020662
0.0206048
0.0206758
0.0205911
0.0206049
0.0206763
0.0205906
0.0205911
0.020662
0.0206758
0.0206048
0.0206758
0.0206049
0.0205911
0.0206763
0.0206763
0.0205908
0.0205906
0.0205906
0.0203619
0.0204476
0.0204476
0.0203619
0.0204476
0.0203619
0.0203619
0.0204476
0.0204476
0.0203619
0.0204334
0.0204334
0.0204334
0.0202618
0.0202618
0.0202618
0.0202618
0.0203624
0.0204471
0.0204333
0.0203761
0.0204471
0.0203624
0.0203761
0.0204476
0.0203619
0.0203624
0.0204333
0.0204471
0.0203761
0.0204471
0.0203761
0.0203624
0.0204476
0.0204476
0.0203621
0.0203619
0.0203619
0.0201332
0.0202189
0.0202189
0.0201332
0.0202189
0.0201332
0.0201332
0.0202189
0.0202189
0.0201332
0.0202047
0.0202047
0.0202047
0.0200331
0.0200331
0.0200331
0.0200331
0.0201337
0.0202184
0.0202046
0.0201474
0.0202184
0.0201337
0.0201474
0.0202189
0.0201332
0.0201337
0.0202046
0.0202184
0.0201474
0.0202184
0.0201474
0.0201337
0.0202189
0.0202189
0.0201334
0.0201332
0.0201332
0.0199045
0.0199902
0.0199902
0.0199045
0.0199902
0.0199045
0.0199045
0.0199902
0.0199902
0.0199045
0.0199759
0.0199759
0.0199759
0.0198044
0.0198044
0.0198044
0.0198044
0.019905
0.0199897
0.0199759
0.0199187
0.0199897
0.019905
0.0199187
0.0199902
0.0199045
0.019905
0.0199759
0.0199897
0.0199187
0.0199897
0.0199187
0.019905
0.0199902
0.0199902
0.0199047
0.0199045
0.0199045
0.0196758
0.0197615
0.0197615
0.0196758
0.0197615
0.0196758
0.0196758
0.0197615
0.0197615
0.0196758
0.0197472
0.0197472
0.0197472
0.0195757
0.0195757
0.0195757
0.0195757
0.0196763
0.019761
0.0197472
0.01969
0.019761
0.0196763
0.01969
0.0197615
0.0196758
0.0196763
0.0197472
0.019761
0.01969
0.019761
0.01969
0.0196763
0.0197615
0.0197615
0.019676
0.0196758
0.0196758
0.0194471
0.0195328
0.0195328
0.0194471
0.0195328
0.0194471
0.0194471
0.0195328
0.0195328
0.0194471
0.0195185
0.0195185
0.0195185
0.019347
0.019347
0.019347
0.019347
0.0194476
0.0195323
0.0195185
0.0194613
0.0195323
0.0194476
0.0194613
0.0195328
0.0194471
0.0194476
0.0195185
0.0195323
0.0194613
0.0195323
0.0194613
0.0194476
0.0195327
0.0195327
0.0194473
0.0194471
0.0194471
0.0192184
0.0193041
0.0193041
0.0192184
0.0193041
0.0192184
0.0192184
0.0193041
0.0193041
0.0192184
0.0192898
0.0192898
0.0192898
0.0191183
0.0191183
0.0191183
0.0191183
0.0192189
0.0193036
0.0192898
0.0192326
0.0193035
0.0192188
0.0192326
0.0193041
0.0192184
0.0192189
0.0192898
0.0193036
0.0192326
0.0193035
0.0192326
0.0192188
0.019304
0.019304
0.0192186
0.0192184
0.0192184
0.0189897
0.0190754