/*--------------------------------*- C++ -*----------------------------------*\
| =========                 |                                                 |
| \\      /  F ield         | OpenFOAM: The Open Source CFD Toolbox           |
|  \\    /   O peration     | Version:  v1906                                 |
|   \\  /    A nd           | Web:      www.OpenFOAM.com                      |
|    \\/     M anipulation  |                                                 |
\*---------------------------------------------------------------------------*/
FoamFile
{
    version     2.0;
    format      ascii;
    class       volScalarField;
    location    "375";
    object      epsilon;
}
// * * * * * * * * * * * * * * * * * * * * * * * * * * * * * * * * * * * * * //

dimensions      [0 2 -3 0 0 0 0];


internalField   nonuniform List<scalar> 
171728
(
1.15388e-06
8.68653e-07
8.68614e-07
1.15382e-06
8.68371e-07
8.68608e-07
8.68428e-07
8.68649e-07
1.15386e-06
8.68479e-07
8.68513e-07
1.15394e-06
3.22875e-07
3.22871e-07
3.22919e-07
3.22952e-07
1.84316e-05
1.84334e-05
5.46279e-06
5.46393e-06
4.09067e-06
9.16329e-06
4.09327e-06
4.09074e-06
9.16428e-06
9.15753e-06
4.09339e-06
2.10409e-06
3.47653e-06
5.62348e-07
5.56412e-07
2.10996e-06
2.10416e-06
8.62532e-07
3.4769e-06
5.62377e-07
3.47342e-06
5.56453e-07
2.11002e-06
1.84329e-05
1.8423e-05
1.14946e-06
5.46423e-06
5.4623e-06
5.46131e-06
5.45953e-06
1.84304e-05
1.84205e-05
9.16504e-06
4.09363e-06
3.47692e-06
5.62406e-07
2.1101e-06
9.16443e-06
4.09353e-06
5.62414e-07
3.47683e-06
2.11003e-06
2.10421e-06
8.62346e-07
3.4765e-06
5.62365e-07
3.47306e-06
5.56447e-07
2.11006e-06
4.09083e-06
9.16419e-06
9.15746e-06
4.09344e-06
2.10415e-06
8.6258e-07
5.62422e-07
3.47644e-06
5.56508e-07
3.47301e-06
2.11e-06
4.09075e-06
9.16406e-06
9.15735e-06
4.09332e-06
1.84336e-05
5.46398e-06
5.46239e-06
1.84324e-05
2.10423e-06
5.62429e-07
3.4765e-06
5.56491e-07
2.11005e-06
2.1043e-06
8.62449e-07
5.62458e-07
3.47703e-06
5.56547e-07
3.4736e-06
2.1101e-06
4.09049e-06
9.16437e-06
4.09354e-06
4.09062e-06
9.16518e-06
9.15848e-06
4.09359e-06
1.14961e-06
5.46234e-06
5.46427e-06
5.45948e-06
5.46139e-06
1.84321e-05
1.84222e-05
1.84339e-05
1.8424e-05
1.84268e-05
1.8429e-05
4.53935e-06
2.81616e-06
5.46184e-06
9.50453e-06
9.50049e-06
2.81315e-06
4.54324e-06
4.54599e-06
2.81505e-06
5.46366e-06
9.5074e-06
9.50484e-06
2.81499e-06
4.54472e-06
9.7345e-06
2.17351e-05
2.17327e-05
2.17297e-05
2.17285e-05
9.73483e-06
1.22035e-05
1.08247e-05
4.74275e-06
4.09134e-06
1.22009e-05
1.0827e-05
4.74335e-06
2.20552e-05
9.16047e-06
7.08634e-06
7.08644e-06
2.20607e-05
1.22043e-05
4.09259e-06
1.08302e-05
4.74498e-06
1.08279e-05
4.7444e-06
1.22069e-05
1.22036e-05
1.08249e-05
4.74279e-06
4.09146e-06
1.22011e-05
1.08271e-05
4.7438e-06
2.20556e-05
9.16152e-06
7.08802e-06
7.08792e-06
2.20608e-05
2.20561e-05
7.08692e-06
9.16029e-06
2.2051e-05
7.08701e-06
1.22044e-05
4.09266e-06
1.08303e-05
4.74542e-06
1.0828e-05
4.74442e-06
1.2207e-05
1.84283e-05
1.84275e-05
9.73255e-06
2.17231e-05
2.17238e-05
9.73214e-06
2.17279e-05
2.17286e-05
4.54599e-06
2.81614e-06
5.4636e-06
9.50793e-06
2.81439e-06
9.50467e-06
4.54664e-06
4.53997e-06
2.81492e-06
5.46182e-06
9.50331e-06
9.50005e-06
2.8132e-06
4.54064e-06
4.54409e-06
9.49996e-06
2.81119e-06
5.46195e-06
2.81298e-06
4.54342e-06
9.50325e-06
4.5381e-06
9.49534e-06
2.80999e-06
5.46002e-06
4.5374e-06
9.49863e-06
2.81177e-06
9.73403e-06
2.17329e-05
2.17336e-05
2.17281e-05
2.17288e-05
9.73443e-06
1.84258e-05
1.8425e-05
2.20555e-05
9.16232e-06
7.08799e-06
7.08784e-06
2.20607e-05
1.22046e-05
4.09245e-06
4.74542e-06
1.08308e-05
4.74439e-06
1.08285e-05
1.22072e-05
2.20554e-05
9.16164e-06
7.08646e-06
7.08652e-06
2.20609e-05
1.22047e-05
4.09238e-06
1.08306e-05
4.7451e-06
1.08283e-05
4.74439e-06
1.22073e-05
1.22034e-05
4.74269e-06
1.08251e-05
4.09153e-06
1.22009e-05
4.74369e-06
1.08274e-05
2.20547e-05
9.16145e-06
7.08756e-06
7.08746e-06
2.20598e-05
2.20552e-05
7.08646e-06
9.16021e-06
2.205e-05
7.08656e-06
1.22042e-05
4.09274e-06
4.7453e-06
1.08306e-05
4.74431e-06
1.08283e-05
1.22068e-05
1.22037e-05
1.0825e-05
4.7425e-06
4.09142e-06
1.22012e-05
1.08273e-05
4.74349e-06
2.20551e-05
9.16131e-06
7.08605e-06
7.08595e-06
2.20602e-05
2.20556e-05
7.08498e-06
9.16009e-06
2.20505e-05
7.08506e-06
1.22045e-05
4.09266e-06
1.08305e-05
4.74509e-06
1.08281e-05
4.74411e-06
1.22071e-05
1.84289e-05
4.54616e-06
2.81605e-06
5.46346e-06
9.50794e-06
2.8144e-06
9.50458e-06
4.54684e-06
4.5402e-06
2.81504e-06
5.46175e-06
9.50339e-06
9.50004e-06
2.81328e-06
4.54085e-06
9.73466e-06
2.17341e-05
2.17345e-05
2.17291e-05
2.17295e-05
9.73515e-06
1.84277e-05
1.22038e-05
4.74247e-06
1.08253e-05
4.09162e-06
1.22012e-05
4.74345e-06
1.08276e-05
2.20555e-05
9.16157e-06
7.08619e-06
7.08603e-06
2.20606e-05
2.20559e-05
7.08512e-06
1.22046e-05
4.09241e-06
4.7451e-06
1.08308e-05
4.74408e-06
1.08285e-05
1.22072e-05
1.22036e-05
4.74301e-06
1.08254e-05
4.09168e-06
1.22011e-05
4.74361e-06
1.08277e-05
2.2055e-05
9.16243e-06
7.08779e-06
7.08789e-06
2.20605e-05
2.20559e-05
7.08691e-06
9.16122e-06
2.20505e-05
7.08682e-06
1.22044e-05
4.09253e-06
4.74519e-06
1.08309e-05
4.74464e-06
1.08286e-05
1.2207e-05
9.73275e-06
2.17241e-05
2.17234e-05
9.73242e-06
2.17288e-05
2.1728e-05
4.54003e-06
2.81498e-06
5.46171e-06
9.50324e-06
2.81323e-06
9.49999e-06
4.54068e-06
4.54602e-06
2.81624e-06
5.46362e-06
9.50801e-06
2.8144e-06
9.50477e-06
4.54667e-06
4.53821e-06
9.49537e-06
2.81008e-06
5.4601e-06
4.53756e-06
2.81186e-06
9.4986e-06
4.54421e-06
9.50015e-06
2.81125e-06
5.46203e-06
4.54354e-06
2.81313e-06
9.50338e-06
9.73416e-06
2.17338e-05
2.17331e-05
2.1729e-05
2.17283e-05
9.73455e-06
1.84275e-05
1.84267e-05
1.84293e-05
1.84285e-05
2.67145e-06
1.15459e-06
1.77359e-06
1.77273e-06
1.77255e-06
1.77303e-06
2.67221e-06
2.67139e-06
1.15452e-06
1.7732e-06
1.77305e-06
1.7729e-06
1.77274e-06
2.6721e-06
2.6714e-06
1.15456e-06
1.77319e-06
1.77309e-06
1.77287e-06
1.77276e-06
2.67215e-06
2.6714e-06
1.15464e-06
1.77306e-06
1.77331e-06
1.77273e-06
1.773e-06
2.67213e-06
1.68217e-07
1.68196e-07
1.66078e-07
8.00033e-08
8.05579e-08
3.18898e-07
1.68217e-07
1.6818e-07
1.66077e-07
1.66043e-07
8.00012e-08
8.05553e-08
1.68252e-07
1.68224e-07
1.66083e-07
8.0019e-08
8.0574e-08
3.18987e-07
1.6826e-07
1.68232e-07
1.66122e-07
1.66096e-07
8.00211e-08
8.05759e-08
1.41458e-06
2.36313e-06
1.27754e-06
2.1063e-06
1.41513e-06
2.36511e-06
1.27766e-06
1.62128e-06
2.03675e-06
3.4758e-06
2.86184e-06
2.03595e-06
2.86129e-06
1.62098e-06
1.42032e-06
2.10779e-06
2.36851e-06
1.28303e-06
2.36656e-06
1.28292e-06
1.41977e-06
1.41475e-06
2.36341e-06
1.27759e-06
2.10636e-06
1.4153e-06
2.36538e-06
1.27772e-06
1.62151e-06
2.03691e-06
3.47626e-06
2.86238e-06
2.86185e-06
2.03633e-06
1.62119e-06
1.61656e-06
2.8589e-06
2.03229e-06
3.47408e-06
1.61687e-06
2.85945e-06
2.0329e-06
1.42048e-06
2.10785e-06
2.36876e-06
1.28307e-06
2.36683e-06
1.28297e-06
1.41991e-06
2.66889e-06
1.14877e-06
1.76876e-06
1.76859e-06
1.76908e-06
2.66815e-06
1.76893e-06
1.62148e-06
2.03678e-06
3.47639e-06
2.86238e-06
2.03639e-06
2.86178e-06
1.62113e-06
1.4205e-06
2.10794e-06
2.36876e-06
1.28314e-06
2.36681e-06
1.28305e-06
1.41992e-06
1.62131e-06
2.03681e-06
3.47623e-06
2.86188e-06
2.86132e-06
2.03621e-06
1.621e-06
1.42037e-06
2.10786e-06
1.2831e-06
2.36858e-06
1.28299e-06
2.36662e-06
1.41982e-06
1.41469e-06
2.36335e-06
1.27761e-06
2.10641e-06
1.41525e-06
2.36531e-06
1.27774e-06
1.62138e-06
2.03654e-06
3.4759e-06
2.86217e-06
2.03595e-06
2.86166e-06
1.62104e-06
1.61642e-06
2.8587e-06
2.03191e-06
3.47368e-06
1.61674e-06
2.03253e-06
2.85924e-06
1.42044e-06
2.1079e-06
2.36869e-06
1.2831e-06
2.36677e-06
1.28299e-06
1.41986e-06
1.41464e-06
1.27758e-06
2.36321e-06
2.10635e-06
1.41519e-06
1.27772e-06
2.36517e-06
1.6213e-06
2.03656e-06
3.4758e-06
2.8618e-06
2.86127e-06
2.03596e-06
1.62097e-06
1.61637e-06
2.85834e-06
2.03195e-06
3.47366e-06
1.61667e-06
2.85888e-06
2.03257e-06
1.42037e-06
2.10783e-06
1.28307e-06
2.36854e-06
1.28296e-06
2.36662e-06
1.4198e-06
1.41465e-06
1.27764e-06
2.36321e-06
2.10639e-06
1.4152e-06
1.27778e-06
2.36515e-06
1.62129e-06
2.03656e-06
3.47585e-06
2.86184e-06
2.03597e-06
2.8612e-06
1.62096e-06
1.61632e-06
2.85886e-06
1.42039e-06
2.10793e-06
1.28314e-06
2.36857e-06
1.28303e-06
2.36663e-06
1.41983e-06
1.41481e-06
1.27768e-06
2.36345e-06
2.10644e-06
1.41536e-06
1.27782e-06
2.36539e-06
1.62152e-06
2.03696e-06
3.4764e-06
2.86233e-06
2.8618e-06
2.03638e-06
1.62119e-06
1.61658e-06
2.85886e-06
2.03237e-06
3.47425e-06
1.6169e-06
2.85942e-06
2.03298e-06
1.42054e-06
2.10799e-06
1.28318e-06
2.36876e-06
1.28307e-06
2.36686e-06
1.41997e-06
2.66897e-06
1.14892e-06
1.76862e-06
1.76889e-06
2.66823e-06
1.76896e-06
1.76921e-06
6.55077e-07
1.18669e-06
1.18676e-06
1.41885e-06
1.42408e-06
1.41878e-06
1.42138e-06
1.18679e-06
1.18681e-06
1.19072e-06
1.19072e-06
1.41873e-06
1.42127e-06
1.1867e-06
1.18684e-06
1.19062e-06
1.19076e-06
1.18685e-06
1.19059e-06
1.19073e-06
1.4188e-06
1.42138e-06
1.18676e-06
1.19067e-06
1.19064e-06
1.42135e-06
1.19198e-06
1.19188e-06
4.23624e-06
9.55256e-06
9.56159e-06
4.23452e-06
1.90686e-05
1.90852e-05
4.23652e-06
9.55455e-06
9.56326e-06
4.23463e-06
6.55072e-07
6.55176e-07
6.55171e-07
6.6041e-07
6.60379e-07
6.60491e-07
6.60458e-07
2.29585e-06
3.6445e-06
9.33576e-07
1.18767e-06
3.6466e-06
9.34716e-07
2.2952e-06
1.90699e-05
1.90864e-05
2.29581e-06
9.33639e-07
3.6445e-06
1.18776e-06
9.34787e-07
3.64669e-06
2.29517e-06
5.64327e-06
5.6452e-06
1.41829e-06
5.64899e-06
5.65098e-06
5.65501e-06
5.65694e-06
1.90674e-05
1.90838e-05
1.90697e-05
1.90862e-05
5.64345e-06
5.64535e-06
1.41831e-06
5.64938e-06
5.65123e-06
1.90943e-05
1.90855e-05
1.90967e-05
1.90878e-05
1.42099e-06
5.65438e-06
5.65625e-06
5.65203e-06
5.6539e-06
4.2363e-06
9.55358e-06
9.56227e-06
4.23462e-06
2.29587e-06
3.64434e-06
9.3354e-07
1.18781e-06
3.64672e-06
9.34722e-07
2.29511e-06
2.2959e-06
3.64482e-06
9.33574e-07
1.1878e-06
3.64701e-06
9.34744e-07
2.29517e-06
4.23784e-06
9.5694e-06
9.56339e-06
4.2408e-06
4.23788e-06
9.5707e-06
9.56418e-06
4.2409e-06
2.29679e-06
1.18924e-06
3.65123e-06
9.37967e-07
3.64901e-06
9.36306e-07
2.29887e-06
2.29682e-06
1.18921e-06
3.65177e-06
9.37994e-07
3.64934e-06
9.36323e-07
2.29893e-06
5.64505e-06
5.64346e-06
1.4182e-06
5.65086e-06
5.64896e-06
1.90663e-05
1.90829e-05
1.90962e-05
1.90869e-05
1.42087e-06
5.65625e-06
5.65442e-06
5.65368e-06
5.6521e-06
1.90938e-05
1.90846e-05
2.29602e-06
3.64512e-06
9.33597e-07
1.18772e-06
3.64737e-06
9.34802e-07
2.29525e-06
4.23646e-06
9.55393e-06
9.56298e-06
4.23452e-06
2.29597e-06
9.3363e-07
3.64497e-06
1.18786e-06
9.34816e-07
3.64729e-06
2.29518e-06
4.23784e-06
9.57141e-06
9.56513e-06
4.241e-06
2.29692e-06
1.18915e-06
3.65191e-06
9.38045e-07
3.64973e-06
9.36374e-07
2.29902e-06
4.23778e-06
9.57078e-06
9.56477e-06
4.24091e-06
2.29685e-06
1.18928e-06
9.38059e-07
3.65174e-06
9.36402e-07
3.64966e-06
2.29895e-06
4.23617e-06
9.55354e-06
9.56214e-06
4.23467e-06
2.29578e-06
9.33609e-07
3.64439e-06
1.18781e-06
9.3474e-07
3.64647e-06
2.29513e-06
4.23605e-06
9.55337e-06
9.56198e-06
4.23457e-06
2.29675e-06
1.18908e-06
3.65137e-06
9.37967e-07
3.64899e-06
9.36281e-07
2.29894e-06
4.23777e-06
9.57069e-06
9.56407e-06
4.24097e-06
2.29667e-06
1.18921e-06
9.37989e-07
3.65134e-06
9.36304e-07
3.6488e-06
2.29887e-06
4.23767e-06
9.57064e-06
9.56394e-06
4.24087e-06
5.64547e-06
5.64343e-06
1.41832e-06
5.65106e-06
5.64927e-06
1.90682e-05
1.90848e-05
1.90966e-05
1.90879e-05
1.42099e-06
5.65607e-06
5.65456e-06
5.65405e-06
5.65204e-06
1.90957e-05
1.90865e-05
2.2959e-06
9.33665e-07
3.64502e-06
1.18773e-06
9.34803e-07
3.64714e-06
2.29522e-06
4.23606e-06
9.55369e-06
9.56234e-06
4.23461e-06
4.23624e-06
9.55441e-06
9.56334e-06
4.23459e-06
2.29677e-06
1.18917e-06
9.38034e-07
3.65143e-06
9.36355e-07
3.649e-06
2.2989e-06
2.29679e-06
1.18912e-06
9.38047e-07
3.65196e-06
9.36365e-07
3.64948e-06
2.29896e-06
4.23779e-06
9.57081e-06
9.56426e-06
4.24086e-06
4.23772e-06
9.57168e-06
9.56523e-06
4.24096e-06
1.90679e-05
1.90845e-05
1.90698e-05
1.90864e-05
1.42095e-06
5.65456e-06
5.65651e-06
5.65189e-06
5.65382e-06
1.90957e-05
1.90863e-05
1.90976e-05
1.90882e-05
9.39556e-07
3.65209e-06
2.29958e-06
9.57112e-06
4.24166e-06
3.65271e-06
9.57212e-06
1.90957e-05
1.90975e-05
1.26456e-05
1.12383e-05
4.88177e-06
4.2355e-06
1.1235e-05
4.88087e-06
1.26495e-05
2.27472e-05
9.55573e-06
7.23524e-06
7.23585e-06
2.27388e-05
2.27489e-05
7.23998e-06
9.5576e-06
7.23898e-06
2.27576e-05
1.26441e-05
4.23461e-06
1.12309e-05
4.87936e-06
1.12336e-05
4.8796e-06
1.26408e-05
1.90754e-05
1.90779e-05
1.26458e-05
4.8821e-06
1.12389e-05
4.23555e-06
4.88096e-06
1.12356e-05
1.26496e-05
2.27465e-05
9.55753e-06
7.23674e-06
7.23738e-06
2.27388e-05
2.27482e-05
7.24114e-06
9.55932e-06
7.23993e-06
2.27567e-05
1.26443e-05
4.23477e-06
4.87955e-06
1.12315e-05
4.8799e-06
1.12342e-05
1.26411e-05
1.90769e-05
1.90793e-05
9.95986e-06
2.23905e-05
2.23897e-05
2.23822e-05
2.23814e-05
9.96211e-06
4.70004e-06
2.97386e-06
5.64431e-06
9.91657e-06
2.97397e-06
9.92043e-06
4.69943e-06
4.70577e-06
2.97504e-06
5.64628e-06
9.92133e-06
2.97517e-06
9.92519e-06
4.70513e-06
4.70245e-06
9.92769e-06
5.64735e-06
2.97609e-06
2.9752e-06
9.92275e-06
4.70372e-06
4.70817e-06
9.93245e-06
5.6493e-06
2.97731e-06
2.9764e-06
9.92755e-06
4.70949e-06
9.95395e-06
2.23699e-05
2.23691e-05
2.23794e-05
2.23786e-05
9.95137e-06
4.70897e-06
2.9807e-06
9.93594e-06
5.65467e-06
4.70949e-06
2.98054e-06
9.93626e-06
4.71472e-06
2.98189e-06
9.9407e-06
5.65662e-06
4.71522e-06
2.98174e-06
9.94101e-06
9.9681e-06
2.23984e-05
2.23976e-05
9.96959e-06
2.24004e-05
2.23996e-05
1.90743e-05
1.90768e-05
1.90766e-05
1.90791e-05
9.96054e-06
2.23909e-05
2.23902e-05
2.2383e-05
2.23822e-05
9.96262e-06
4.70034e-06
2.97389e-06
5.64467e-06
9.917e-06
9.92103e-06
2.97413e-06
4.69962e-06
4.70606e-06
2.97506e-06
5.64653e-06
9.92187e-06
9.92589e-06
2.97528e-06
4.70531e-06
4.70289e-06
9.92819e-06
5.64779e-06
2.97642e-06
9.92344e-06
4.7042e-06
2.97547e-06
4.70858e-06
9.93305e-06
5.64966e-06
2.97754e-06
9.92828e-06
4.70993e-06
2.97663e-06
9.95474e-06
2.23709e-05
2.23701e-05
2.23803e-05
2.23796e-05
9.95207e-06
1.90911e-05
1.90905e-05
1.90935e-05
1.90929e-05
9.9676e-06
2.2392e-05
2.23912e-05
9.96672e-06
2.23968e-05
2.2396e-05
4.70902e-06
2.98025e-06
5.65429e-06
9.93565e-06
9.9342e-06
2.97996e-06
4.70901e-06
4.71471e-06
2.98139e-06
5.65617e-06
9.94052e-06
9.93906e-06
2.98111e-06
4.71472e-06
4.70759e-06
9.93012e-06
2.97802e-06
5.65285e-06
4.70691e-06
9.93332e-06
2.9789e-06
4.71331e-06
9.93497e-06
2.97918e-06
5.65471e-06
4.71259e-06
9.93818e-06
2.98003e-06
9.96938e-06
2.23994e-05
2.23986e-05
2.23965e-05
2.23957e-05
9.96914e-06
1.26455e-05
1.12384e-05
4.88199e-06
4.23555e-06
1.12351e-05
4.88092e-06
1.26494e-05
2.27465e-05
9.55653e-06
7.2367e-06
7.23732e-06
2.27388e-05
2.27482e-05
7.24109e-06
9.55831e-06
7.23987e-06
2.27568e-05
1.2644e-05
4.23469e-06
1.1231e-05
4.87952e-06
1.12337e-05
4.87983e-06
1.26408e-05
1.2655e-05
1.12398e-05
4.8836e-06
4.23886e-06
1.26511e-05
1.12434e-05
4.88457e-06
2.27654e-05
9.56756e-06
7.24526e-06
2.27706e-05
7.24537e-06
2.27655e-05
7.24308e-06
9.5665e-06
2.27586e-05
7.24349e-06
1.26562e-05
4.24026e-06
1.12476e-05
4.88635e-06
1.26592e-05
1.12448e-05
4.88597e-06
1.2655e-05
1.12399e-05
4.88354e-06
4.23892e-06
1.2651e-05
1.12435e-05
4.88479e-06
2.27657e-05
9.56868e-06
7.24702e-06
7.24692e-06
2.27708e-05
2.27654e-05
7.24418e-06
9.56751e-06
2.27582e-05
7.24497e-06
1.26563e-05
4.24033e-06
1.12478e-05
4.88669e-06
1.12449e-05
4.88606e-06
1.26593e-05
9.95964e-06
2.23893e-05
2.23902e-05
2.23811e-05
2.23819e-05
9.96189e-06
4.70564e-06
2.97491e-06
5.64614e-06
9.92113e-06
9.92506e-06
2.97504e-06
4.70499e-06
4.69992e-06
2.97379e-06
5.64436e-06
9.91661e-06
2.97392e-06
9.92056e-06
4.69925e-06
4.70813e-06
9.93234e-06
5.64924e-06
2.97723e-06
9.92744e-06
2.97635e-06
4.70941e-06
4.70238e-06
9.92781e-06
5.64761e-06
2.97609e-06
2.97521e-06
9.92293e-06
4.7037e-06
9.95373e-06
2.23688e-05
2.23696e-05
2.23783e-05
2.23791e-05
9.95107e-06
1.90733e-05
1.90757e-05
1.90929e-05
1.90922e-05
9.96723e-06
2.23905e-05
2.23914e-05
9.9662e-06
2.23956e-05
2.23965e-05
4.71462e-06
2.98132e-06
5.65614e-06
9.94029e-06
2.98101e-06
9.9387e-06
4.71464e-06
4.70891e-06
2.98018e-06
5.65445e-06
9.93573e-06
9.93415e-06
2.97988e-06
4.70894e-06
4.71302e-06
9.93436e-06
2.97896e-06
5.65454e-06
2.97982e-06
4.71231e-06
9.93774e-06
4.70732e-06
9.92983e-06
2.97782e-06
5.6527e-06
4.70658e-06
9.93319e-06
2.97868e-06
9.96923e-06
2.23984e-05
2.23993e-05
2.23953e-05
2.23962e-05
9.96908e-06
1.90905e-05
1.90899e-05
1.2646e-05
1.12388e-05
4.88191e-06
4.23549e-06
1.12354e-05
4.88099e-06
1.26499e-05
2.27474e-05
9.55711e-06
7.23543e-06
7.23605e-06
2.2739e-05
2.2749e-05
7.24016e-06
9.55898e-06
7.23915e-06
2.27577e-05
1.26445e-05
4.2347e-06
1.12314e-05
4.87945e-06
1.12341e-05
4.87971e-06
1.26412e-05
1.26552e-05
4.88359e-06
1.12405e-05
4.23906e-06
1.26513e-05
4.88484e-06
1.1244e-05
2.27654e-05
9.56947e-06
7.24685e-06
2.27705e-05
7.24676e-06
2.27652e-05
7.24415e-06
9.56836e-06
2.27581e-05
7.24491e-06
1.26565e-05
4.24027e-06
4.88668e-06
1.12482e-05
1.26595e-05
4.88604e-06
1.12454e-05
1.26554e-05
1.12403e-05
4.8837e-06
4.23901e-06
1.26515e-05
1.12439e-05
4.88469e-06
2.27655e-05
9.56894e-06
7.24546e-06
7.24556e-06
2.27707e-05
2.27656e-05
7.24327e-06
9.56789e-06
2.27587e-05
7.24369e-06
1.26566e-05
4.2402e-06
1.12481e-05
4.88644e-06
1.12452e-05
4.88606e-06
1.26596e-05
1.26452e-05
4.88173e-06
1.12386e-05
4.23546e-06
4.88066e-06
1.12353e-05
1.26491e-05
2.27454e-05
9.55645e-06
7.23618e-06
7.23675e-06
2.27377e-05
2.27471e-05
7.24043e-06
9.5582e-06
7.23921e-06
2.27557e-05
1.26438e-05
4.23469e-06
4.87939e-06
1.12313e-05
4.87964e-06
1.12339e-05
1.26406e-05
1.26456e-05
1.12384e-05
4.8815e-06
4.23535e-06
1.12351e-05
4.88044e-06
1.26494e-05
2.27459e-05
9.55627e-06
7.23468e-06
7.23526e-06
2.27382e-05
2.27476e-05
7.23898e-06
9.55803e-06
7.23775e-06
2.27562e-05
1.26441e-05
4.23458e-06
1.12311e-05
4.87918e-06
1.12338e-05
4.87942e-06
1.2641e-05
1.26548e-05
4.88327e-06
1.12401e-05
4.23884e-06
1.26507e-05
4.88458e-06
1.12438e-05
2.27648e-05
9.56864e-06
7.24658e-06
7.24643e-06
2.27701e-05
2.27645e-05
7.24354e-06
9.56745e-06
2.27571e-05
7.2444e-06
1.26561e-05
4.24034e-06
4.88661e-06
1.12482e-05
4.8859e-06
1.12452e-05
1.26592e-05
1.26551e-05
1.124e-05
4.88306e-06
4.23873e-06
1.26511e-05
1.12436e-05
4.88436e-06
2.27654e-05
9.56856e-06
7.24517e-06
7.24503e-06
2.27706e-05
2.27651e-05
7.24213e-06
9.56734e-06
2.27577e-05
7.24298e-06
1.26565e-05
4.24024e-06
1.1248e-05
4.8864e-06
1.12451e-05
4.8857e-06
1.26596e-05
9.9609e-06
2.23906e-05
2.2391e-05
2.23825e-05
2.23829e-05
9.96304e-06
4.70616e-06
2.97506e-06
5.64645e-06
9.92147e-06
9.92554e-06
2.97524e-06
4.70548e-06
4.7004e-06
2.97396e-06
5.64456e-06
9.91681e-06
2.97413e-06
9.92079e-06
4.69975e-06
4.70873e-06
9.93271e-06
5.64979e-06
2.97746e-06
9.9279e-06
2.97663e-06
4.70998e-06
4.70295e-06
9.92804e-06
5.64765e-06
2.97636e-06
2.97545e-06
9.92316e-06
4.70419e-06
9.95505e-06
2.23704e-05
2.23707e-05
2.23799e-05
2.23803e-05
9.95237e-06
1.90751e-05
1.90776e-05
1.90934e-05
1.90929e-05
9.96813e-06
2.23916e-05
2.23921e-05
9.96721e-06
2.23965e-05
2.2397e-05
4.71494e-06
2.98134e-06
5.65615e-06
9.94009e-06
2.98113e-06
9.93864e-06
4.71491e-06
4.70925e-06
2.98035e-06
5.65444e-06
9.93575e-06
9.93421e-06
2.98004e-06
4.70923e-06
4.71344e-06
9.93459e-06
2.97922e-06
5.65457e-06
2.97998e-06
4.71281e-06
9.93781e-06
4.70771e-06
9.92999e-06
2.97803e-06
5.6529e-06
4.70707e-06
9.93331e-06
2.97891e-06
9.96998e-06
2.23991e-05
2.23997e-05
2.23961e-05
2.23967e-05
9.96975e-06
1.90924e-05
1.90917e-05
1.26454e-05
4.88149e-06
1.12385e-05
4.23542e-06
4.8806e-06
1.12351e-05
1.26493e-05
2.27463e-05
9.55662e-06
7.23485e-06
7.23548e-06
2.27385e-05
2.2748e-05
7.23924e-06
9.55839e-06
7.23797e-06
2.27566e-05
1.2644e-05
4.23461e-06
4.8793e-06
1.12311e-05
4.87946e-06
1.12338e-05
1.26408e-05
1.26452e-05
4.8817e-06
1.12386e-05
4.23539e-06
4.88091e-06
1.12353e-05
1.26491e-05
2.2746e-05
9.55748e-06
7.23658e-06
7.23706e-06
2.27377e-05
2.27476e-05
7.24112e-06
9.55931e-06
7.2401e-06
2.27566e-05
1.26437e-05
4.23467e-06
4.87955e-06
1.12312e-05
4.8797e-06
1.12339e-05
1.26405e-05
1.2655e-05
4.88332e-06
1.124e-05
4.23876e-06
1.2651e-05
4.88438e-06
1.12437e-05
2.27657e-05
9.56878e-06
7.2453e-06
7.24515e-06
2.27709e-05
2.27654e-05
7.24233e-06
9.5676e-06
2.27581e-05
7.24318e-06
1.26563e-05
4.24033e-06
4.8864e-06
1.1248e-05
4.88588e-06
1.12451e-05
1.26594e-05
1.26548e-05
4.88367e-06
1.12401e-05
4.23889e-06
1.26507e-05
4.88463e-06
1.12438e-05
2.27648e-05
9.56968e-06
7.24689e-06
7.24696e-06
2.27702e-05
2.27648e-05
7.24442e-06
9.56852e-06
2.27576e-05
7.24489e-06
1.2656e-05
4.24027e-06
4.88659e-06
1.12481e-05
4.8862e-06
1.12452e-05
1.26591e-05
1.90747e-05
1.90772e-05
1.90766e-05
1.90791e-05
9.96753e-06
2.23917e-05
2.23909e-05
9.9665e-06
2.23969e-05
2.23961e-05
4.70904e-06
2.98026e-06
5.65443e-06
9.93586e-06
4.70908e-06
2.97991e-06
9.93419e-06
4.71476e-06
2.98146e-06
5.65636e-06
9.94061e-06
4.71481e-06
2.9811e-06
9.93896e-06
4.7074e-06
9.92974e-06
2.9778e-06
5.65277e-06
4.70666e-06
2.9787e-06
9.9332e-06
4.71315e-06
9.93452e-06
2.97898e-06
5.65473e-06
4.71237e-06
2.97992e-06
9.93795e-06
9.96959e-06
2.23998e-05
2.23989e-05
9.96945e-06
2.23967e-05
2.23959e-05
1.90924e-05
1.90916e-05
1.90942e-05
1.90935e-05
2.27745e-05
7.24599e-06
9.572e-06
2.27702e-05
7.24568e-06
1.26625e-05
4.24174e-06
1.12489e-05
4.887e-06
1.26604e-05
1.1251e-05
4.88705e-06
9.57292e-06
1.9098e-05
1.90998e-05
4.44689e-07
4.4465e-07
6.5658e-07
4.46332e-07
4.463e-07
2.3788e-07
2.36199e-07
2.82822e-06
1.96995e-06
1.97019e-06
1.41732e-06
1.96931e-06
1.96952e-06
2.82834e-06
2.8342e-06
1.97489e-06
1.97514e-06
1.42272e-06
2.83458e-06
1.9743e-06
1.97453e-06
2.82834e-06
1.96994e-06
1.97017e-06
1.4173e-06
1.96934e-06
1.96957e-06
2.82841e-06
2.83393e-06
1.42262e-06
1.97348e-06
1.9737e-06
1.97387e-06
1.9741e-06
2.83387e-06
2.82814e-06
1.97004e-06
1.96993e-06
1.41721e-06
1.96928e-06
1.96939e-06
2.82825e-06
2.83383e-06
1.42251e-06
1.97356e-06
1.97344e-06
1.97394e-06
1.97382e-06
2.83379e-06
2.82835e-06
1.9701e-06
1.97001e-06
1.41731e-06
1.9694e-06
1.96949e-06
2.82843e-06
2.83397e-06
1.42262e-06
1.97363e-06
1.97354e-06
1.97402e-06
1.97392e-06
2.83393e-06
2.83387e-06
1.42258e-06
1.97344e-06
1.97367e-06
2.83386e-06
1.97379e-06
1.97403e-06
4.44697e-07
4.44639e-07
6.56545e-07
4.46329e-07
4.46255e-07
2.37875e-07
2.36201e-07
4.44783e-07
4.44731e-07
6.56663e-07
4.46426e-07
4.46354e-07
2.37946e-07
2.36269e-07
4.44772e-07
4.44736e-07
6.56627e-07
4.46382e-07
4.46348e-07
2.37943e-07
2.36272e-07
6.58435e-07
4.50379e-07
4.50349e-07
4.48261e-07
4.48229e-07
2.39613e-07
2.41496e-07
6.58389e-07
4.5037e-07
4.50292e-07
4.48251e-07
4.48169e-07
2.396e-07
2.41478e-07
6.58511e-07
4.50469e-07
4.50394e-07
4.48354e-07
4.48273e-07
2.39675e-07
2.41555e-07
6.58463e-07
4.50415e-07
4.5038e-07
4.4829e-07
4.48259e-07
2.39662e-07
2.41537e-07
1.66743e-06
2.54128e-06
1.54501e-06
2.29557e-06
2.54096e-06
1.54581e-06
1.66623e-06
1.84414e-06
2.22497e-06
3.6445e-06
3.02144e-06
2.22452e-06
3.02117e-06
1.84554e-06
1.84601e-06
3.02253e-06
3.64598e-06
2.22534e-06
2.22555e-06
3.02246e-06
1.84509e-06
1.66557e-06
2.29505e-06
2.5405e-06
1.54545e-06
2.54036e-06
1.54439e-06
1.66725e-06
1.66736e-06
1.54502e-06
2.54116e-06
2.29556e-06
1.54581e-06
2.54081e-06
1.66618e-06
1.84405e-06
2.22503e-06
3.64457e-06
3.02108e-06
2.22457e-06
3.02085e-06
1.84545e-06
1.84595e-06
3.02222e-06
3.64601e-06
2.22542e-06
2.22562e-06
3.02209e-06
1.84503e-06
1.6655e-06
2.295e-06
1.54543e-06
2.54034e-06
1.54439e-06
2.54019e-06
1.66716e-06
2.82946e-06
1.41965e-06
1.97028e-06
1.97051e-06
1.97068e-06
1.97092e-06
2.82981e-06
2.82969e-06
1.41967e-06
1.97039e-06
1.97062e-06
2.83007e-06
1.97079e-06
1.97102e-06
2.83244e-06
1.41975e-06
1.97226e-06
1.97249e-06
2.8321e-06
1.97198e-06
1.9722e-06
1.6674e-06
2.54127e-06
1.54501e-06
2.29558e-06
2.54086e-06
1.54581e-06
1.66623e-06
1.84407e-06
2.22497e-06
3.64447e-06
3.02109e-06
3.02094e-06
2.22455e-06
1.84538e-06
1.84601e-06
3.02242e-06
3.64601e-06
2.22544e-06
3.02225e-06
2.22562e-06
1.84512e-06
1.66548e-06
2.29499e-06
2.54033e-06
1.54536e-06
2.54025e-06
1.54434e-06
1.66709e-06
1.6675e-06
2.54142e-06
1.54504e-06
2.29562e-06
2.54107e-06
1.54584e-06
1.66632e-06
1.84425e-06
2.2253e-06
3.64488e-06
3.02165e-06
3.0214e-06
2.22483e-06
1.84563e-06
1.84615e-06
3.02279e-06
3.64634e-06
2.22568e-06
3.02269e-06
1.84524e-06
2.22589e-06
1.66562e-06
2.29504e-06
2.54058e-06
1.54541e-06
2.54046e-06
1.54438e-06
1.66726e-06
1.66742e-06
2.54224e-06
1.54676e-06
2.29738e-06
1.66859e-06
2.54296e-06
1.54601e-06
1.84886e-06
2.2285e-06
3.65118e-06
3.02616e-06
2.22868e-06
3.02616e-06
1.84794e-06
1.84654e-06
3.02429e-06
2.22709e-06
3.64959e-06
2.22704e-06
1.84743e-06
3.02461e-06
1.66975e-06
2.29837e-06
2.54437e-06
1.54717e-06
2.54388e-06
1.54789e-06
1.66857e-06
1.66753e-06
2.54241e-06
1.54679e-06
2.29742e-06
1.6687e-06
2.54314e-06
1.54604e-06
1.84905e-06
2.2288e-06
3.65169e-06
3.02673e-06
3.02671e-06
2.22898e-06
1.84813e-06
1.84669e-06
3.02469e-06
2.22733e-06
3.64995e-06
1.84759e-06
3.02502e-06
2.22726e-06
1.66989e-06
2.29841e-06
2.54462e-06
1.54721e-06
2.54411e-06
1.54792e-06
1.6687e-06
2.82944e-06
1.41956e-06
1.97041e-06
1.97029e-06
1.9707e-06
1.97082e-06
2.82979e-06
2.83222e-06
1.41962e-06
1.97228e-06
1.97216e-06
1.97199e-06
2.83184e-06
1.97187e-06
1.66756e-06
2.54149e-06
1.54512e-06
2.2957e-06
2.5411e-06
1.54591e-06
1.66638e-06
1.84427e-06
2.22538e-06
3.64517e-06
3.02168e-06
3.02147e-06
2.22494e-06
1.84562e-06
1.84622e-06
3.02289e-06
3.64674e-06
2.22583e-06
3.02279e-06
2.22603e-06
1.8453e-06
1.66564e-06
2.29513e-06
2.54059e-06
1.54545e-06
2.54049e-06
1.54444e-06
1.66726e-06
1.66747e-06
1.54508e-06
2.54136e-06
2.29563e-06
1.54587e-06
2.54095e-06
1.66629e-06
1.84414e-06
2.22528e-06
3.64502e-06
3.02122e-06
3.02106e-06
2.22484e-06
1.84546e-06
1.8461e-06
3.02255e-06
3.64665e-06
2.22574e-06
3.0224e-06
1.84519e-06
2.22594e-06
1.66553e-06
2.29508e-06
1.54541e-06
2.5404e-06
1.5444e-06
2.54033e-06
1.66714e-06
1.66757e-06
2.54246e-06
1.54686e-06
2.29752e-06
1.66876e-06
2.54317e-06
1.54611e-06
1.84909e-06
2.22888e-06
3.6519e-06
3.02671e-06
2.22908e-06
3.02672e-06
1.84815e-06
1.84674e-06
3.02479e-06
2.22749e-06
3.65024e-06
2.22742e-06
1.84765e-06
3.02508e-06
1.66993e-06
2.29849e-06
2.54463e-06
1.54728e-06
2.54412e-06
1.54799e-06
1.66874e-06
1.66748e-06
1.54682e-06
2.54234e-06
2.29748e-06
1.66867e-06
1.54607e-06
2.54305e-06
1.84895e-06
2.22878e-06
3.65175e-06
3.02629e-06
3.0263e-06
2.22898e-06
1.84801e-06
1.84662e-06
3.02443e-06
2.22741e-06
3.65012e-06
1.84752e-06
3.02473e-06
2.22733e-06
1.66982e-06
2.29843e-06
1.54724e-06
2.54445e-06
1.54795e-06
2.54397e-06
1.66863e-06
1.66733e-06
1.54497e-06
2.54111e-06
2.29549e-06
1.54576e-06
2.54079e-06
1.66615e-06
1.84405e-06
2.22498e-06
3.64442e-06
3.02107e-06
2.22452e-06
3.02079e-06
1.84546e-06
1.84589e-06
3.02213e-06
3.6458e-06
2.22531e-06
2.22552e-06
3.02205e-06
1.84498e-06
1.6655e-06
2.29498e-06
1.54541e-06
2.54034e-06
1.54436e-06
2.5402e-06
1.66716e-06
1.66745e-06
2.54228e-06
1.54676e-06
2.29736e-06
1.66863e-06
2.54299e-06
1.54602e-06
1.84893e-06
2.22846e-06
3.65132e-06
3.0265e-06
1.848e-06
2.22863e-06
3.02648e-06
1.84655e-06
3.02443e-06
2.22698e-06
3.64955e-06
1.84746e-06
2.22692e-06
3.02474e-06
1.66983e-06
2.29838e-06
2.54453e-06
1.5472e-06
1.66864e-06
2.544e-06
1.5479e-06
1.66736e-06
1.54672e-06
2.5421e-06
2.2973e-06
1.66853e-06
1.54598e-06
2.54282e-06
1.84881e-06
2.22846e-06
3.65123e-06
3.02615e-06
3.02611e-06
2.22861e-06
1.8479e-06
1.84644e-06
3.02402e-06
2.22693e-06
3.64944e-06
1.84733e-06
3.02436e-06
2.22689e-06
1.66973e-06
2.2983e-06
1.54716e-06
2.54437e-06
1.54786e-06
2.54383e-06
1.66856e-06
2.82967e-06
1.41967e-06
1.97053e-06
1.97043e-06
1.97082e-06
1.97094e-06
2.83006e-06
2.83246e-06
1.41974e-06
1.97241e-06
1.97229e-06
1.97211e-06
2.83209e-06
1.97201e-06
1.66748e-06
1.54505e-06
2.54139e-06
2.2956e-06
1.54584e-06
2.54104e-06
1.66631e-06
1.84426e-06
2.22539e-06
3.64506e-06
3.0216e-06
2.22492e-06
3.02136e-06
1.84565e-06
1.84613e-06
3.02276e-06
3.64648e-06
2.22573e-06
2.22595e-06
3.02269e-06
1.84522e-06
1.66563e-06
2.29508e-06
1.54547e-06
2.54054e-06
1.54443e-06
2.54041e-06
1.66728e-06
1.66739e-06
1.54676e-06
2.54216e-06
2.29733e-06
1.66857e-06
1.54602e-06
2.54284e-06
1.84885e-06
2.22853e-06
3.65134e-06
3.02616e-06
1.84793e-06
2.2287e-06
3.02611e-06
1.84648e-06
3.02409e-06
2.22706e-06
3.64962e-06
1.84739e-06
2.227e-06
3.02445e-06
1.66976e-06
2.29838e-06
1.5472e-06
2.54438e-06
1.66858e-06
1.5479e-06
2.54385e-06
1.66752e-06
1.54679e-06
2.5424e-06
2.29741e-06
1.66869e-06
1.54606e-06
2.54308e-06
1.84903e-06
2.22886e-06
3.65187e-06
3.02669e-06
3.02669e-06
2.22903e-06
1.84811e-06
1.84667e-06
3.02466e-06
2.22737e-06
3.6501e-06
1.84757e-06
3.02495e-06
2.2273e-06
1.66988e-06
2.29841e-06
1.54723e-06
2.54458e-06
1.54793e-06
2.54408e-06
1.6687e-06
2.83224e-06
1.4197e-06
1.97212e-06
1.97236e-06
2.83184e-06
1.97184e-06
1.97207e-06
1.849e-06
2.22961e-06
3.02712e-06
3.65182e-06
2.22916e-06
1.85005e-06
3.02686e-06
1.66956e-06
2.29974e-06
1.54903e-06
2.54504e-06
1.54826e-06
1.67082e-06
2.54509e-06
2.23003e-06
3.65242e-06
2.22955e-06
3.26873e-07
8.74438e-07
8.7453e-07
1.1596e-06
3.43034e-07
8.97958e-07
8.98121e-07
1.17901e-06
3.59434e-07
9.20465e-07
9.20557e-07
1.19757e-06
3.76008e-07
9.4193e-07
9.42038e-07
1.215e-06
3.92643e-07
9.62399e-07
9.6251e-07
1.2317e-06
4.09274e-07
9.81856e-07
9.81958e-07
1.24753e-06
4.25804e-07
1.00031e-06
1.0004e-06
1.26251e-06
4.42185e-07
1.01775e-06
1.01785e-06
1.27669e-06
4.58328e-07
1.03425e-06
1.03434e-06
1.29013e-06
4.74155e-07
1.04974e-06
1.04984e-06
1.30276e-06
4.89653e-07
1.06437e-06
1.06444e-06
1.31476e-06
5.04708e-07
1.07799e-06
1.0781e-06
1.32592e-06
5.19311e-07
1.09081e-06
1.09088e-06
1.33655e-06
5.33457e-07
1.10272e-06
1.10282e-06
1.34638e-06
5.4697e-07
1.11376e-06
1.11384e-06
1.35564e-06
5.60062e-07
1.12413e-06
1.12421e-06
1.36428e-06
5.72379e-07
1.13351e-06
1.13358e-06
1.37227e-06
5.84288e-07
1.14235e-06
1.14243e-06
1.37977e-06
5.95359e-07
1.1503e-06
1.15036e-06
1.38651e-06
6.05974e-07
1.15754e-06
1.15765e-06
1.39302e-06
6.15871e-07
1.16432e-06
1.16435e-06
1.39855e-06
6.24982e-07
1.1699e-06
1.17e-06
1.40395e-06
6.33968e-07
1.17585e-06
1.1759e-06
1.40883e-06