/*--------------------------------*- C++ -*----------------------------------*\
| =========                 |                                                 |
| \\      /  F ield         | OpenFOAM: The Open Source CFD Toolbox           |
|  \\    /   O peration     | Version:  v1906                                 |
|   \\  /    A nd           | Web:      www.OpenFOAM.com                      |
|    \\/     M anipulation  |                                                 |
\*---------------------------------------------------------------------------*/
FoamFile
{
    version     2.0;
    format      ascii;
    class       volScalarField;
    location    "375";
    object      epsilon;
}
// * * * * * * * * * * * * * * * * * * * * * * * * * * * * * * * * * * * * * //

dimensions      [0 2 -3 0 0 0 0];


internalField   nonuniform List<scalar> 
171728
(
4.95567e-07
4.9733e-07
4.9733e-07
4.99575e-07
4.45573e-07
4.53735e-07
4.53737e-07
4.6371e-07
4.03752e-07
4.18513e-07
4.18517e-07
4.39411e-07
3.68363e-07
3.88552e-07
3.88558e-07
4.17667e-07
3.38015e-07
3.62102e-07
3.6211e-07
3.96081e-07
3.11646e-07
3.38273e-07
3.38281e-07
3.7458e-07
2.88473e-07
3.16638e-07
3.16646e-07
3.53709e-07
2.67923e-07
2.97021e-07
2.97031e-07
3.34147e-07
2.4958e-07
2.7937e-07
2.79379e-07
3.16483e-07
2.33137e-07
2.63679e-07
2.63688e-07
3.01162e-07
2.18366e-07
2.49955e-07
2.49964e-07
2.88492e-07
2.0509e-07
2.38199e-07
2.38208e-07
2.78696e-07
1.93172e-07
2.28411e-07
2.28422e-07
2.71879e-07
1.82498e-07
2.206e-07
2.20612e-07
2.68164e-07
1.72979e-07
2.14773e-07
2.14786e-07
2.67643e-07
1.64541e-07
2.10937e-07
2.10953e-07
2.70494e-07
1.57122e-07
2.09106e-07
2.09125e-07
2.76698e-07
1.50668e-07
2.09295e-07
2.09318e-07
2.86284e-07
1.45137e-07
2.1155e-07
2.11577e-07
2.9923e-07
1.40492e-07
2.15886e-07
2.15917e-07
3.15608e-07
1.36703e-07
2.22326e-07
2.2236e-07
3.35366e-07
1.33748e-07
2.30887e-07
2.30923e-07
3.58398e-07
1.31605e-07
2.41554e-07
2.41594e-07
3.84536e-07
1.30259e-07
2.54306e-07
2.54351e-07
4.13532e-07
1.29696e-07
2.69101e-07
2.6915e-07
4.45045e-07
1.29921e-07
2.85871e-07
2.85923e-07
4.78693e-07
1.3091e-07
3.0453e-07
3.04587e-07
5.14027e-07
1.32667e-07
3.2498e-07
3.25049e-07
5.50614e-07
1.35187e-07
3.47082e-07
3.47159e-07
5.88018e-07
1.38478e-07
3.70731e-07
3.70796e-07
6.25807e-07
1.42544e-07
3.95754e-07
3.95827e-07
6.6357e-07
1.47378e-07
4.22e-07
4.22095e-07
7.01017e-07
1.52992e-07
4.49324e-07
4.49384e-07
7.37895e-07
1.59413e-07
4.7753e-07
4.77661e-07
7.73952e-07
1.66589e-07
5.06383e-07
5.06431e-07
8.08952e-07
1.74586e-07
5.3599e-07
5.36117e-07
8.42958e-07
1.8341e-07
5.65571e-07
5.6565e-07
8.7578e-07
1.92888e-07
5.95857e-07
5.95919e-07
9.07371e-07
2.03392e-07
6.25561e-07
6.25888e-07
9.37691e-07
2.14359e-07
6.55799e-07
6.55439e-07
9.67225e-07
2.26299e-07
6.84913e-07
6.85683e-07
9.94999e-07
2.38888e-07
7.14582e-07
7.14082e-07
1.02157e-06
2.52137e-07
7.4296e-07
7.43247e-07
1.04765e-06
2.66036e-07
7.70762e-07
7.71188e-07
1.0723e-06
2.80497e-07
7.98178e-07
7.97972e-07
1.09523e-06
2.95508e-07
8.24439e-07
8.24698e-07
1.11791e-06
3.1102e-07
8.49956e-07
8.50008e-07
1.13932e-06
3.26876e-07
8.74439e-07
8.74539e-07
1.1596e-06
3.43034e-07
8.97959e-07
8.98117e-07
1.17902e-06
3.59432e-07
9.20464e-07
9.20559e-07
1.19756e-06
3.7601e-07
9.41933e-07
9.4204e-07
1.21501e-06
3.92641e-07
9.62396e-07
9.62509e-07
1.2317e-06
4.09274e-07
9.81857e-07
9.81961e-07
1.24754e-06
4.25803e-07
1.00031e-06
1.0004e-06
1.26251e-06
4.42186e-07
1.01775e-06
1.01786e-06
1.27669e-06
4.58326e-07
1.03425e-06
1.03433e-06
1.29013e-06
4.74157e-07
1.04974e-06
1.04985e-06
1.30276e-06
4.8965e-07
1.06437e-06
1.06444e-06
1.31476e-06
5.0471e-07
1.07799e-06
1.0781e-06
1.32592e-06
5.1931e-07
1.09081e-06
1.09088e-06
1.33655e-06
5.33456e-07
1.10272e-06
1.10282e-06
1.34638e-06
5.46971e-07
1.11377e-06
1.11384e-06
1.35565e-06
5.60064e-07
1.12413e-06
1.12422e-06
1.36429e-06
5.72375e-07
1.13351e-06
1.13358e-06
1.37227e-06
5.84292e-07
1.14235e-06
1.14244e-06
1.37978e-06
5.95357e-07
1.1503e-06
1.15035e-06
1.38651e-06
6.05973e-07
1.15754e-06
1.15765e-06
1.39302e-06
6.15876e-07
1.16433e-06
1.16436e-06
1.39855e-06
6.24977e-07
1.16989e-06
1.16999e-06
1.40395e-06
6.33972e-07
1.17585e-06
1.17591e-06
1.40883e-06
6.41266e-07
1.17949e-06
1.17955e-06
1.41242e-06
6.49525e-07
1.18499e-06
1.18506e-06
1.41742e-06
6.55078e-07
1.18669e-06
1.18676e-06
1.41885e-06
6.62354e-07
1.19181e-06
1.19187e-06
1.42408e-06
6.67135e-07
1.19249e-06
1.19254e-06
1.42435e-06
6.718e-07
1.19521e-06
1.19531e-06
1.4275e-06
6.77084e-07
1.19654e-06
1.19659e-06
1.42898e-06
6.806e-07
1.19793e-06
1.198e-06
1.43084e-06
6.81927e-07
1.1944e-06
1.19443e-06
1.42687e-06
6.87613e-07
1.20118e-06
1.20125e-06
1.43421e-06
6.91899e-07
1.20321e-06
1.20331e-06
1.44373e-06
6.73999e-07
1.16058e-06
1.16056e-06
1.37595e-06
6.95655e-07
1.21476e-06
1.21479e-06
1.45233e-06
7.30584e-07
1.26046e-06
1.26059e-06
1.53356e-06
6.70743e-07
1.1342e-06
1.13427e-06
1.37199e-06
6.06271e-07
1.05095e-06
1.05099e-06
1.23888e-06
6.42984e-07
1.13568e-06
1.13574e-06
1.35407e-06
7.56765e-07
1.28266e-06
1.28272e-06
1.5519e-06
7.77473e-07
1.29659e-06
1.29664e-06
1.59084e-06
7.00527e-07
1.18356e-06
1.18363e-06
1.45918e-06
6.18589e-07
1.07825e-06
1.07831e-06
1.31284e-06
5.86112e-07
1.03712e-06
1.03718e-06
1.25737e-06
5.8434e-07
1.03554e-06
1.03561e-06
1.26526e-06
5.98129e-07
1.0477e-06
1.04775e-06
1.28769e-06
5.86571e-07
1.00127e-06
1.00126e-06
1.256e-06
5.06417e-07
5.05584e-07
5.05582e-07
5.06417e-07
5.05583e-07
5.05582e-07
5.09649e-07
5.09649e-07
5.09649e-07
5.09649e-07
5.05584e-07
5.05584e-07
5.06418e-07
5.05584e-07
5.05583e-07
5.06418e-07
4.99575e-07
4.67237e-07
4.97331e-07
4.97335e-07
4.63713e-07
4.63721e-07
4.99575e-07
4.67235e-07
4.97335e-07
4.97336e-07
4.63718e-07
4.63724e-07
4.97332e-07
4.63709e-07
4.63714e-07
4.99575e-07
4.67241e-07
4.97334e-07
4.6371e-07
4.63719e-07
4.6724e-07
4.63709e-07
4.41426e-07
4.5374e-07
4.53748e-07
4.26738e-07
4.26747e-07
4.63708e-07
4.4142e-07
4.53744e-07
4.53751e-07
4.26739e-07
4.26751e-07
4.53741e-07
4.26729e-07
4.26741e-07
4.63711e-07
4.41431e-07
4.53744e-07
4.26734e-07
4.26741e-07
4.41429e-07
4.39407e-07
4.19283e-07
4.18522e-07
4.1853e-07
3.95676e-07
3.95682e-07
4.39405e-07
4.19275e-07
4.18522e-07
4.18535e-07
3.95672e-07
3.95689e-07
4.18525e-07
3.95663e-07
3.95679e-07
4.39413e-07
4.19289e-07
4.18523e-07
3.95669e-07
3.95673e-07
4.19287e-07
4.17662e-07
3.97645e-07
3.88566e-07
3.88571e-07
3.68461e-07
3.68466e-07
4.17656e-07
3.97636e-07
3.8856e-07
3.88578e-07
3.68452e-07
3.68473e-07
3.88569e-07
3.68444e-07
3.68464e-07
4.17669e-07
3.97651e-07
3.88562e-07
3.68452e-07
3.68454e-07
3.9765e-07
3.96076e-07
3.76085e-07
3.6212e-07
3.62124e-07
3.44033e-07
3.44036e-07
3.96069e-07
3.76076e-07
3.62109e-07
3.62131e-07
3.4402e-07
3.44043e-07
3.62123e-07
3.44013e-07
3.44036e-07
3.96082e-07
3.76091e-07
3.62111e-07
3.44022e-07
3.44021e-07
3.7609e-07
3.74575e-07
3.55111e-07
3.38293e-07
3.38295e-07
3.21875e-07
3.21876e-07
3.74568e-07
3.55102e-07
3.38279e-07
3.38303e-07
3.21858e-07
3.21884e-07
3.38296e-07
3.21853e-07
3.21877e-07
3.74582e-07
3.55117e-07
3.3828e-07
3.21862e-07
3.2186e-07
3.55116e-07
3.53704e-07
3.35394e-07
3.16659e-07
3.16661e-07
3.01763e-07
3.01764e-07
3.53697e-07
3.35386e-07
3.16643e-07
3.16668e-07
3.01745e-07
3.01771e-07
3.16662e-07
3.0174e-07
3.01765e-07
3.5371e-07
3.35401e-07
3.16644e-07
3.01749e-07
3.01746e-07
3.354e-07
3.34141e-07
3.17532e-07
2.97044e-07
2.97045e-07
2.83623e-07
2.83624e-07
3.34134e-07
3.17524e-07
2.97026e-07
2.97053e-07
2.83603e-07
2.83631e-07
2.97047e-07
2.83599e-07
2.83625e-07
3.34148e-07
3.1754e-07
2.97027e-07
2.83608e-07
2.83604e-07
3.17538e-07
3.16477e-07
3.01975e-07
2.79394e-07
2.79394e-07
2.67442e-07
2.67442e-07
3.16471e-07
3.01964e-07
2.79374e-07
2.79402e-07
2.6742e-07
2.67449e-07
2.79396e-07
2.67417e-07
2.67443e-07
3.16485e-07
3.01982e-07
2.79375e-07
2.67426e-07
2.67421e-07
3.01982e-07
3.01154e-07
2.8904e-07
2.63704e-07
2.63704e-07
2.53227e-07
2.53227e-07
3.01146e-07
2.89031e-07
2.63682e-07
2.63711e-07
2.53204e-07
2.53234e-07
2.63705e-07
2.532e-07
2.53228e-07
3.01162e-07
2.89048e-07
2.63683e-07
2.5321e-07
2.53205e-07
2.89045e-07
2.88486e-07
2.78953e-07
2.49981e-07
2.49981e-07
2.40981e-07
2.40981e-07
2.88479e-07
2.78938e-07
2.49959e-07
2.49989e-07
2.40957e-07
2.40988e-07
2.49982e-07
2.40952e-07
2.4098e-07
2.88494e-07
2.78958e-07
2.49959e-07
2.40962e-07
2.40957e-07
2.78957e-07
2.7869e-07
2.7183e-07
2.38227e-07
2.38228e-07
2.30702e-07
2.30702e-07
2.78679e-07
2.71818e-07
2.38203e-07
2.38235e-07
2.30677e-07
2.3071e-07
2.38228e-07
2.3067e-07
2.30701e-07
2.78697e-07
2.7184e-07
2.38204e-07
2.30681e-07
2.30677e-07
2.71839e-07
2.7187e-07
2.67865e-07
2.28441e-07
2.28444e-07
2.22399e-07
2.224e-07
2.7186e-07
2.6785e-07
2.28417e-07
2.28452e-07
2.22372e-07
2.22409e-07
2.28442e-07
2.22364e-07
2.22397e-07
2.71879e-07
2.67873e-07
2.28418e-07
2.22375e-07
2.22372e-07
2.67871e-07
2.68156e-07
2.66981e-07
2.20633e-07
2.20637e-07
2.16077e-07
2.1608e-07
2.68144e-07
2.66965e-07
2.20608e-07
2.20646e-07
2.16049e-07
2.16089e-07
2.20634e-07
2.16038e-07
2.16075e-07
2.68166e-07
2.66992e-07
2.20608e-07
2.1605e-07
2.16048e-07
2.66991e-07
2.67635e-07
2.69155e-07
2.1481e-07
2.14816e-07
2.11745e-07
2.11752e-07
2.67619e-07
2.69136e-07
2.14784e-07
2.14825e-07
2.11718e-07
2.11762e-07
2.1481e-07
2.11701e-07
2.11742e-07
2.67644e-07
2.69167e-07
2.14783e-07
2.11716e-07
2.11714e-07
2.69165e-07
2.70483e-07
2.74661e-07
2.10982e-07
2.10989e-07
2.09414e-07
2.09423e-07
2.70466e-07
2.74639e-07
2.10955e-07
2.10999e-07
2.09387e-07
2.09435e-07
2.10979e-07
2.09363e-07
2.09409e-07
2.70495e-07
2.74676e-07
2.10951e-07
2.09382e-07
2.0938e-07
2.74675e-07
2.76686e-07
2.83545e-07
2.09158e-07
2.09166e-07
2.09128e-07
2.09136e-07
2.76663e-07
2.8352e-07
2.0913e-07
2.09179e-07
2.091e-07
2.09153e-07
2.09152e-07
2.09071e-07
2.09121e-07
2.76697e-07
2.83561e-07
2.09124e-07
2.09092e-07
2.09092e-07
2.83561e-07
2.86272e-07
2.95812e-07
2.09354e-07
2.09363e-07
2.10851e-07
2.10857e-07
2.86244e-07
2.95783e-07
2.09327e-07
2.09381e-07
2.10821e-07
2.1088e-07
2.09348e-07
2.10784e-07
2.10841e-07
2.86284e-07
2.95833e-07
2.09318e-07
2.1081e-07
2.10811e-07
2.95829e-07
2.99215e-07
3.11496e-07
2.11616e-07
2.11626e-07
2.14675e-07
2.14684e-07
2.99185e-07
3.11464e-07
2.11588e-07
2.11649e-07
2.14644e-07
2.14709e-07
2.11608e-07
2.14599e-07
2.14663e-07
2.99236e-07
3.11522e-07
2.11578e-07
2.14629e-07
2.14632e-07
3.11514e-07
3.15591e-07
3.3056e-07
2.15961e-07
2.15974e-07
2.20594e-07
2.20616e-07
3.15556e-07
3.30523e-07
2.15932e-07
2.16e-07
2.20565e-07
2.20641e-07
2.1595e-07
2.20516e-07
2.20586e-07
3.15612e-07
3.30588e-07
2.15919e-07
2.20549e-07
2.20554e-07
3.3058e-07
3.35348e-07
3.52913e-07
2.22404e-07
2.22429e-07
2.28628e-07
2.28662e-07
3.35309e-07
3.52876e-07
2.22377e-07
2.22454e-07
2.28601e-07
2.28687e-07
2.22397e-07
2.28549e-07
2.28625e-07
3.3537e-07
3.52945e-07
2.22364e-07
2.28584e-07
2.28591e-07
3.52941e-07
3.58376e-07
3.78401e-07
2.30967e-07
2.31003e-07
2.38774e-07
2.38818e-07
3.58338e-07
3.78361e-07
2.30941e-07
2.31029e-07
2.38747e-07
2.38844e-07
2.30964e-07
2.38691e-07
2.38775e-07
3.58403e-07
3.78439e-07
2.3093e-07
2.38728e-07
2.38739e-07
3.78435e-07
3.8451e-07
4.06792e-07
2.41639e-07
2.41684e-07
2.51016e-07
2.51065e-07
3.84468e-07
4.0674e-07
2.41613e-07
2.41712e-07
2.50986e-07
2.51095e-07
2.4164e-07
2.50924e-07
2.51019e-07
3.84543e-07
4.0683e-07
2.41602e-07
2.50967e-07
2.50981e-07
4.06829e-07
4.13503e-07
4.3775e-07
2.54399e-07
2.5445e-07
2.6531e-07
2.65371e-07
4.13449e-07
4.37711e-07
2.54371e-07
2.54481e-07
2.65277e-07
2.65401e-07
2.54403e-07
2.65216e-07
2.65318e-07
4.13535e-07
4.37805e-07
2.54365e-07
2.65261e-07
2.65281e-07
4.37797e-07
4.44999e-07
4.70917e-07
2.69198e-07
2.69259e-07
2.81604e-07
2.81668e-07
4.44962e-07
4.70866e-07
2.69167e-07
2.69292e-07
2.81566e-07
2.81699e-07
2.69207e-07
2.81499e-07
2.81613e-07
4.45049e-07
4.7097e-07
2.6917e-07
2.81546e-07
2.81574e-07
4.70969e-07
4.78646e-07
5.05848e-07
2.85979e-07
2.86043e-07
2.99807e-07
2.99875e-07
4.78594e-07
5.05791e-07
2.85943e-07
2.86076e-07
2.99764e-07
2.99913e-07
2.8599e-07
2.99692e-07
2.99818e-07
4.78684e-07
5.05925e-07
2.85951e-07
2.99749e-07
2.99776e-07
5.05908e-07
5.13973e-07
5.42134e-07
3.04649e-07
3.04715e-07
3.19828e-07
3.199e-07
5.13915e-07
5.42064e-07
3.04607e-07
3.04752e-07
3.19777e-07
3.19942e-07
3.04659e-07
3.19704e-07
3.19839e-07
5.14038e-07
5.42197e-07
3.04616e-07
3.19767e-07
3.19792e-07
5.42182e-07
5.50562e-07
5.79299e-07
3.25105e-07
3.25177e-07
3.41543e-07
3.41614e-07
5.50501e-07
5.79216e-07
3.25056e-07
3.25224e-07
3.41484e-07
3.41657e-07
3.2512e-07
3.41406e-07
3.41564e-07
5.50642e-07
5.7935e-07
3.25072e-07
3.41472e-07
3.4151e-07
5.79375e-07
5.87951e-07
6.16932e-07
3.47217e-07
3.47289e-07
3.64836e-07
3.64905e-07
5.87869e-07
6.1685e-07
3.4716e-07
3.47343e-07
3.64769e-07
3.64945e-07
3.47239e-07
3.64684e-07
3.64851e-07
5.87997e-07
6.17001e-07
3.47184e-07
3.64751e-07
3.64789e-07
6.16998e-07
6.25754e-07
6.54577e-07
3.70879e-07
3.70947e-07
3.89521e-07
3.89604e-07
6.25653e-07
6.5456e-07
3.70813e-07
3.7099e-07
3.89443e-07
3.89648e-07
3.709e-07
3.89372e-07
3.89551e-07
6.25779e-07
6.54693e-07
3.70837e-07
3.89446e-07
3.8948e-07
6.54686e-07
6.63483e-07
6.92101e-07
3.95922e-07
3.95977e-07
4.15499e-07
4.15577e-07
6.63428e-07
6.92028e-07
3.95847e-07
3.96028e-07
4.15411e-07
4.15625e-07
3.95935e-07
4.15339e-07
4.15523e-07
6.6356e-07
6.92158e-07
3.95863e-07
4.15416e-07
4.15444e-07
6.92144e-07
7.00958e-07
7.28957e-07
4.22162e-07
4.22236e-07
4.42574e-07
4.42657e-07
7.00921e-07
7.28868e-07
4.22076e-07
4.22302e-07
4.42475e-07
4.42689e-07
4.22201e-07
4.42415e-07
4.42604e-07
7.01049e-07
7.29028e-07
4.22121e-07
4.42476e-07
4.42514e-07
7.29081e-07
7.37813e-07
7.65071e-07
4.49484e-07
4.49568e-07
4.70581e-07
4.7062e-07
7.37736e-07
7.64967e-07
4.49388e-07
4.49595e-07
4.70475e-07
4.7072e-07
4.49512e-07
4.70371e-07
4.70605e-07
7.37861e-07
7.65179e-07
4.4942e-07
4.70501e-07
4.70508e-07
7.65185e-07
7.73817e-07
8.00315e-07
4.77725e-07
4.7778e-07
4.9929e-07
4.99396e-07
7.73712e-07
8.00273e-07
4.77621e-07
4.77876e-07
4.99171e-07
4.99389e-07
4.77747e-07
4.99145e-07
4.99367e-07
7.73931e-07
8.00348e-07
4.77649e-07
4.99172e-07
4.99259e-07
8.00343e-07
8.08888e-07
8.34467e-07
5.06582e-07
5.06638e-07
5.28733e-07
5.28794e-07
8.08867e-07
8.34321e-07
5.06466e-07
5.06649e-07
5.28613e-07
5.28914e-07
5.06621e-07
5.28538e-07
5.28727e-07
8.08916e-07
8.3456e-07
5.06512e-07
5.28691e-07
5.28615e-07
8.34517e-07
8.42912e-07
8.67351e-07
5.36072e-07
5.36242e-07
5.58351e-07
5.5838e-07
8.42817e-07
8.67328e-07
5.35955e-07
5.3633e-07
5.58213e-07
5.58358e-07
5.36217e-07
5.58129e-07
5.58446e-07
8.4303e-07
8.67423e-07
5.36104e-07
5.58145e-07
5.5832e-07
8.67645e-07
8.75626e-07
8.9945e-07
5.65973e-07
5.65829e-07
5.8846e-07
5.88566e-07
8.75472e-07
8.99305e-07
5.65845e-07
5.65871e-07
5.88331e-07
5.8869e-07
5.6582e-07
5.88309e-07
5.88487e-07
8.7556e-07
8.9953e-07
5.65697e-07
5.88474e-07
5.88361e-07
8.99273e-07
9.07344e-07
9.29715e-07
5.95753e-07
5.96102e-07
6.18321e-07
6.1837e-07
9.07389e-07
9.29797e-07
5.95621e-07
5.96116e-07
6.18177e-07
6.18451e-07
5.96064e-07
6.18129e-07
6.18366e-07
9.07606e-07
9.29918e-07
5.95933e-07
6.18247e-07
6.18231e-07
9.3003e-07
9.37648e-07
9.59782e-07
6.26112e-07
6.25818e-07
6.48502e-07
6.48511e-07
9.37507e-07
9.59329e-07
6.25988e-07
6.26105e-07
6.48363e-07
6.48445e-07
6.25848e-07
6.48253e-07
6.48525e-07
9.37652e-07
9.59554e-07
6.25728e-07
6.48234e-07
6.48383e-07
9.59597e-07
9.67082e-07
9.87127e-07
6.55626e-07
6.56043e-07
6.77788e-07
6.77916e-07
9.66943e-07
9.87507e-07
6.55468e-07
6.55633e-07
6.77642e-07
6.78135e-07
6.55973e-07
6.77696e-07
6.78152e-07
9.66966e-07
9.87522e-07
6.55814e-07
6.7796e-07
6.78011e-07
9.87754e-07
9.94649e-07
1.0151e-06
6.85413e-07
6.85136e-07
7.07441e-07
7.07391e-07
9.94658e-07
1.01457e-06
6.85315e-07
6.85861e-07
7.07331e-07
7.07475e-07
6.85541e-07
7.07143e-07
7.07159e-07
9.95061e-07
1.01507e-06
6.85433e-07
7.07279e-07
7.07041e-07
1.01465e-06
1.02198e-06
1.04044e-06
7.14537e-07
7.14832e-07
7.36003e-07
7.36262e-07
1.02183e-06
1.04085e-06
7.14393e-07
7.1428e-07
7.35833e-07
7.35878e-07
7.14281e-07
7.36036e-07
7.36155e-07
1.02176e-06
1.04012e-06
7.14125e-07
7.357e-07
7.35977e-07
1.04061e-06
1.04735e-06
1.06549e-06
7.43167e-07
7.43174e-07
7.64182e-07
7.63981e-07
1.04748e-06
1.06496e-06
7.43039e-07
7.43412e-07
7.64103e-07
7.64729e-07
7.43466e-07
7.63779e-07
7.64496e-07
1.04728e-06
1.06618e-06
7.43321e-07
7.64582e-07
7.64405e-07
1.06589e-06
1.072e-06
1.08901e-06
7.71067e-07
7.70971e-07
7.91528e-07
7.91667e-07
1.07159e-06
1.08908e-06
7.70976e-07
7.71342e-07
7.91374e-07
7.91306e-07
7.71253e-07
7.91445e-07
7.91458e-07
1.07252e-06
1.08858e-06
7.71145e-07
7.91137e-07
7.91293e-07
1.08887e-06
1.09537e-06
1.11166e-06
7.98253e-07
7.98398e-07
8.18083e-07
8.18147e-07
1.09545e-06
1.1116e-06
7.98108e-07
7.98138e-07
8.17967e-07
8.18332e-07
7.98205e-07
8.17945e-07
8.18196e-07
1.09499e-06
1.11191e-06
7.98043e-07
8.18186e-07
8.1807e-07
1.11176e-06
1.11779e-06
1.13332e-06
8.24601e-07
8.24637e-07
8.43844e-07
8.43857e-07
1.1177e-06
1.1332e-06
8.24496e-07
8.24842e-07
8.43725e-07
8.43895e-07
8.24736e-07
8.43664e-07
8.43961e-07
1.11806e-06
1.13328e-06
8.24615e-07
8.43759e-07
8.43833e-07
1.13342e-06
1.13924e-06
1.15389e-06
8.50126e-07
8.50147e-07
8.68577e-07
8.68605e-07
1.13913e-06
1.1538e-06
8.50008e-07
8.50144e-07
8.6845e-07
8.68607e-07
8.50238e-07
8.68418e-07
8.68641e-07
1.13916e-06
1.15385e-06
8.50106e-07
8.68477e-07
8.68509e-07
1.15393e-06
1.15958e-06
1.17348e-06
8.7461e-07
8.74626e-07
8.92325e-07
8.92347e-07
1.15949e-06
1.17337e-06
8.74492e-07
8.74671e-07
8.9221e-07
8.92466e-07
8.7465e-07
8.92164e-07
8.92387e-07
1.15956e-06
1.17359e-06
8.74521e-07
8.9234e-07
8.92268e-07
1.17351e-06
1.17896e-06
1.19209e-06
8.98098e-07
8.98138e-07
9.15054e-07
9.15107e-07
1.17887e-06
1.19205e-06
8.97988e-07
8.9824e-07
9.14933e-07
9.15149e-07
8.98201e-07
9.1494e-07
9.15226e-07
1.17908e-06
1.19215e-06
8.98082e-07
9.15039e-07
9.15104e-07
1.19228e-06
1.19738e-06
1.20987e-06
9.20589e-07
9.2063e-07
9.36815e-07
9.36828e-07
1.19734e-06
1.20977e-06
9.20473e-07
9.20668e-07
9.36694e-07
9.36873e-07
9.20746e-07
9.3666e-07
9.36885e-07
1.19743e-06
1.20988e-06
9.20625e-07
9.36762e-07
9.36767e-07
1.20993e-06
1.21497e-06
1.22671e-06
9.4209e-07
9.42102e-07
9.57514e-07
9.57534e-07
1.21487e-06
1.22663e-06
9.41977e-07
9.42152e-07
9.57397e-07
9.57591e-07
9.4215e-07
9.57371e-07
9.57593e-07
1.21498e-06
1.22675e-06
9.42033e-07
9.57486e-07
9.5748e-07
1.22678e-06
1.23162e-06
1.24271e-06
9.62531e-07
9.62556e-07
9.77222e-07
9.77247e-07
1.23155e-06
1.24264e-06
9.6242e-07
9.62611e-07
9.77104e-07
9.77292e-07
9.62627e-07
9.77092e-07
9.77319e-07
1.23166e-06
1.24275e-06
9.62513e-07
9.77195e-07
9.77206e-07
1.2428e-06
1.24745e-06
1.25787e-06
9.81989e-07
9.82012e-07
9.95908e-07
9.95932e-07
1.24738e-06
1.25779e-06
9.81877e-07
9.82058e-07
9.95791e-07
9.95972e-07
9.82085e-07
9.95783e-07
9.96004e-07
1.24748e-06
1.2579e-06
9.81973e-07
9.95882e-07
9.95893e-07
1.25795e-06
1.26243e-06
1.27223e-06
1.00043e-06
1.00045e-06
1.01362e-06
1.01363e-06
1.26236e-06
1.27215e-06
1.00032e-06
1.00049e-06
1.0135e-06
1.01368e-06
1.00053e-06
1.01348e-06
1.01368e-06
1.26246e-06
1.27226e-06
1.00042e-06
1.01359e-06
1.01358e-06
1.2723e-06
1.27663e-06
1.2858e-06
1.01788e-06
1.0179e-06
1.03033e-06
1.03036e-06
1.27655e-06
1.28574e-06
1.01777e-06
1.01795e-06
1.03021e-06
1.03039e-06
1.01796e-06
1.03022e-06
1.03043e-06
1.27665e-06
1.28583e-06
1.01785e-06
1.03031e-06
1.03032e-06
1.28589e-06
1.29004e-06
1.29863e-06
1.03436e-06
1.03439e-06
1.04608e-06
1.04608e-06
1.28998e-06
1.29853e-06
1.03425e-06
1.03442e-06
1.04597e-06
1.04614e-06
1.03446e-06
1.04594e-06
1.04614e-06
1.29007e-06
1.29865e-06
1.03436e-06
1.04606e-06
1.04603e-06
1.29868e-06
1.30271e-06
1.31071e-06
1.04987e-06
1.04988e-06
1.0609e-06
1.06095e-06
1.30262e-06
1.31067e-06
1.04976e-06
1.04993e-06
1.06078e-06
1.06095e-06
1.04994e-06
1.06081e-06
1.06101e-06
1.30273e-06
1.31074e-06
1.04984e-06
1.06088e-06
1.06091e-06
1.31082e-06
1.31465e-06
1.3221e-06
1.06447e-06
1.0645e-06
1.07479e-06
1.07479e-06
1.31462e-06
1.32199e-06
1.06436e-06
1.06451e-06
1.07469e-06
1.07485e-06
1.06457e-06
1.07465e-06
1.07484e-06
1.31468e-06
1.32212e-06
1.06446e-06
1.07477e-06
1.07474e-06
1.32214e-06
1.32589e-06
1.33275e-06
1.07811e-06
1.07813e-06
1.08777e-06
1.08783e-06
1.32578e-06
1.33274e-06
1.07801e-06
1.07818e-06
1.08766e-06
1.08782e-06
1.07818e-06
1.0877e-06
1.0879e-06
1.32591e-06
1.3328e-06
1.07808e-06
1.08776e-06
1.08779e-06
1.33288e-06
1.33642e-06
1.34285e-06
1.0909e-06
1.09094e-06
1.09995e-06
1.09994e-06
1.3364e-06
1.34273e-06
1.09079e-06
1.09095e-06
1.09985e-06
1.1e-06
1.09101e-06
1.09981e-06
1.09999e-06
1.33645e-06
1.34286e-06
1.0909e-06
1.09992e-06
1.09989e-06
1.34286e-06
1.34636e-06
1.35213e-06
1.10284e-06
1.10285e-06
1.11116e-06
1.11122e-06
1.34625e-06
1.35212e-06
1.10274e-06
1.10289e-06
1.11105e-06
1.11121e-06
1.1029e-06
1.1111e-06
1.11128e-06
1.34638e-06
1.35216e-06
1.1028e-06
1.11115e-06
1.11118e-06
1.35226e-06
1.35551e-06
1.36097e-06
1.11384e-06
1.11389e-06
1.12173e-06
1.12172e-06
1.3555e-06
1.36086e-06
1.11374e-06
1.11391e-06
1.12163e-06
1.12179e-06
1.11396e-06
1.1216e-06
1.12178e-06
1.35555e-06
1.36101e-06
1.11386e-06
1.12172e-06
1.12168e-06
1.361e-06
1.36426e-06
1.36904e-06
1.12425e-06
1.12426e-06
1.13131e-06
1.13136e-06
1.36416e-06
1.36902e-06
1.12415e-06
1.12429e-06
1.13119e-06
1.13133e-06
1.1243e-06
1.13124e-06
1.1314e-06
1.36429e-06
1.36905e-06
1.1242e-06
1.13127e-06
1.1313e-06
1.36914e-06
1.37216e-06
1.37666e-06
1.13359e-06
1.13363e-06
1.14036e-06
1.14037e-06
1.37214e-06
1.37657e-06
1.13349e-06
1.13364e-06
1.14026e-06
1.14044e-06
1.13369e-06
1.14025e-06
1.14044e-06
1.37217e-06
1.37672e-06
1.1336e-06
1.14037e-06
1.14035e-06
1.37673e-06
1.37971e-06
1.38351e-06
1.14244e-06
1.14247e-06
1.14835e-06
1.1484e-06
1.37963e-06
1.38349e-06
1.14235e-06
1.14251e-06
1.14824e-06
1.14837e-06
1.14253e-06
1.14828e-06
1.14842e-06
1.37977e-06
1.38351e-06
1.14243e-06
1.1483e-06
1.14831e-06
1.38357e-06
1.38645e-06
1.39019e-06
1.15039e-06
1.15042e-06
1.15607e-06
1.15608e-06
1.38642e-06
1.39009e-06
1.15029e-06
1.15042e-06
1.15598e-06
1.15613e-06
1.15046e-06
1.15596e-06
1.15615e-06
1.38645e-06
1.39023e-06
1.15036e-06
1.15608e-06
1.15608e-06
1.39027e-06
1.39293e-06
1.39565e-06
1.15762e-06
1.15765e-06
1.16255e-06
1.1626e-06
1.39285e-06
1.39564e-06
1.15754e-06
1.1577e-06
1.16245e-06
1.1626e-06
1.15773e-06
1.16249e-06
1.16264e-06
1.39298e-06
1.39569e-06
1.15765e-06
1.16253e-06
1.16253e-06
1.39574e-06
1.39848e-06
1.40146e-06
1.1644e-06
1.16444e-06
1.16884e-06
1.16885e-06
1.39847e-06
1.40137e-06
1.16429e-06
1.16443e-06
1.16875e-06
1.16888e-06
1.16448e-06
1.16873e-06
1.16889e-06
1.3985e-06
1.40146e-06
1.16436e-06
1.16882e-06
1.16881e-06
1.4015e-06
1.4039e-06
1.40602e-06
1.17e-06
1.17001e-06
1.17443e-06
1.17447e-06
1.40382e-06
1.40598e-06
1.16992e-06
1.17006e-06
1.17433e-06
1.1745e-06
1.17005e-06
1.17437e-06
1.17454e-06
1.40391e-06
1.40608e-06
1.16998e-06
1.17445e-06
1.17445e-06
1.40612e-06
1.40872e-06
1.41017e-06
1.1759e-06
1.17595e-06
1.17862e-06
1.17864e-06
1.4087e-06
1.41012e-06
1.1758e-06
1.17595e-06
1.17852e-06
1.17865e-06
1.17604e-06
1.17853e-06
1.17868e-06
1.40878e-06
1.41017e-06
1.17594e-06
1.17857e-06
1.17858e-06
1.41024e-06
1.41239e-06
1.41477e-06
1.17961e-06
1.17961e-06
1.18397e-06
1.184e-06
1.41233e-06
1.4147e-06
1.17951e-06
1.17965e-06
1.18388e-06
1.18403e-06
1.17962e-06
1.18388e-06
1.18404e-06
1.41238e-06
1.41481e-06
1.17953e-06
1.18396e-06
1.18396e-06
1.41482e-06
1.41732e-06
1.41688e-06
1.18502e-06
1.18509e-06
1.1862e-06
1.18626e-06
1.41729e-06
1.41687e-06
1.18494e-06
1.18509e-06
1.18611e-06
1.18627e-06
1.18517e-06
1.18616e-06
1.18634e-06
1.41737e-06
1.41693e-06
1.18508e-06
1.18623e-06
1.18626e-06
1.41703e-06
1.41877e-06
1.4214e-06
1.18679e-06
1.1868e-06
1.19075e-06
1.19074e-06
1.41871e-06
1.42128e-06
1.1867e-06
1.18684e-06
1.19065e-06
1.19078e-06
1.18684e-06
1.19061e-06
1.19073e-06
1.41879e-06
1.42138e-06
1.18676e-06
1.19068e-06
1.19064e-06
1.42135e-06
1.42406e-06
1.4226e-06
1.19187e-06
1.19192e-06
1.19256e-06
1.19266e-06
1.424e-06
1.42269e-06
1.19178e-06
1.19193e-06
1.19247e-06
1.19264e-06
1.19196e-06
1.19258e-06
1.19277e-06
1.42407e-06
1.42272e-06
1.19187e-06
1.19262e-06
1.19267e-06
1.42289e-06
1.42408e-06
1.42482e-06
1.1925e-06
1.19258e-06
1.19421e-06
1.19413e-06
1.42416e-06
1.42461e-06
1.19241e-06
1.19258e-06
1.19411e-06
1.1942e-06
1.19267e-06
1.19398e-06
1.19411e-06
1.42419e-06
1.42475e-06
1.19258e-06
1.19408e-06
1.19403e-06
1.42468e-06
1.42767e-06
1.4273e-06
1.19541e-06
1.19536e-06
1.19667e-06
1.19674e-06
1.42745e-06
1.42743e-06
1.19532e-06
1.19541e-06
1.19658e-06
1.19674e-06
1.19534e-06
1.19664e-06
1.1968e-06
1.42758e-06
1.42744e-06
1.19526e-06
1.19669e-06
1.19671e-06
1.42759e-06
1.42869e-06
1.42815e-06
1.19654e-06
1.19664e-06
1.19741e-06
1.19743e-06
1.42882e-06
1.42808e-06
1.19646e-06
1.19663e-06
1.19732e-06
1.19746e-06
1.19671e-06
1.19732e-06
1.19747e-06
1.42882e-06
1.42817e-06
1.19662e-06
1.19739e-06
1.19739e-06
1.42819e-06
1.43085e-06
1.42591e-06
1.19804e-06
1.19804e-06
1.19624e-06
1.19628e-06
1.43074e-06
1.42586e-06
1.19795e-06
1.19808e-06
1.19615e-06
1.19627e-06
1.19808e-06
1.19616e-06
1.19632e-06
1.43085e-06
1.42591e-06
1.19799e-06
1.1962e-06
1.19622e-06
1.426e-06
1.42677e-06
1.42741e-06
1.19446e-06
1.19451e-06
1.19586e-06
1.19589e-06
1.42673e-06
1.42738e-06
1.19437e-06
1.19449e-06
1.19577e-06
1.19591e-06
1.19455e-06
1.19578e-06
1.1959e-06
1.42676e-06
1.42742e-06
1.19445e-06
1.19583e-06
1.19581e-06
1.42742e-06
1.43425e-06
1.44516e-06
1.20127e-06
1.20128e-06
1.20758e-06
1.2076e-06
1.4342e-06
1.44508e-06
1.20119e-06
1.20135e-06
1.2075e-06
1.20768e-06
1.20128e-06
1.2075e-06
1.20766e-06
1.43428e-06
1.44528e-06
1.2012e-06
1.20761e-06
1.20758e-06
1.4453e-06
1.44356e-06
1.37663e-06
1.20327e-06
1.20331e-06
1.16522e-06
1.1653e-06
1.4435e-06
1.37667e-06
1.20319e-06
1.20337e-06
1.16512e-06
1.16526e-06
1.2034e-06
1.16522e-06
1.16535e-06
1.44367e-06
1.37665e-06
1.20332e-06
1.16521e-06
1.16526e-06
1.37677e-06
1.37582e-06
1.42415e-06
1.16058e-06
1.16065e-06
1.18744e-06
1.1875e-06
1.37588e-06
1.42419e-06
1.16048e-06
1.16062e-06
1.18734e-06
1.18751e-06
1.16069e-06
1.18741e-06
1.18749e-06
1.37583e-06
1.42417e-06
1.16059e-06
1.18739e-06
1.18738e-06
1.42414e-06
1.45235e-06
1.53204e-06
1.21484e-06
1.21488e-06
1.26185e-06
1.26183e-06
1.45236e-06
1.53185e-06
1.21474e-06
1.21493e-06
1.26176e-06
1.26195e-06
1.21488e-06
1.26169e-06
1.26188e-06
1.45237e-06
1.53206e-06
1.21478e-06
1.26181e-06
1.26178e-06
1.53204e-06
1.53357e-06
1.39419e-06
1.26063e-06
1.26061e-06
1.17483e-06
1.17484e-06
1.53337e-06
1.39409e-06
1.26055e-06
1.26073e-06
1.17477e-06
1.17492e-06
1.26066e-06
1.17477e-06
1.17491e-06
1.53359e-06
1.39427e-06
1.26057e-06
1.17486e-06
1.17485e-06
1.39425e-06
1.37186e-06
1.23982e-06
1.1342e-06
1.13423e-06
1.05547e-06
1.05554e-06
1.37183e-06
1.23992e-06
1.13415e-06
1.13429e-06
1.05541e-06
1.05556e-06
1.1343e-06
1.05551e-06
1.05561e-06
1.37195e-06
1.23993e-06
1.13426e-06
1.05555e-06
1.05558e-06
1.24001e-06
1.23869e-06
1.31679e-06
1.05091e-06
1.05099e-06
1.09617e-06
1.09621e-06
1.2388e-06
1.31675e-06
1.05085e-06
1.051e-06
1.09605e-06
1.09624e-06
1.05105e-06
1.09607e-06
1.09627e-06
1.2388e-06
1.31683e-06
1.05101e-06
1.09614e-06
1.09617e-06
1.3169e-06
1.35399e-06
1.52575e-06
1.13582e-06
1.13586e-06
1.25798e-06
1.258e-06
1.35393e-06
1.52565e-06
1.1357e-06
1.1359e-06
1.25785e-06
1.25806e-06
1.1359e-06
1.25782e-06
1.25802e-06
1.35402e-06
1.52576e-06
1.13579e-06
1.25788e-06
1.25789e-06
1.52577e-06
1.55191e-06
1.59185e-06
1.28283e-06
1.28285e-06
1.30304e-06
1.30308e-06
1.55182e-06
1.59177e-06
1.2827e-06
1.2829e-06
1.30293e-06
1.30313e-06
1.28287e-06
1.30293e-06
1.3031e-06
1.55192e-06
1.59188e-06
1.28274e-06
1.30298e-06
1.30298e-06
1.59187e-06
1.59082e-06
1.4724e-06
1.29668e-06
1.29672e-06
1.2165e-06
1.21654e-06
1.59076e-06
1.47239e-06
1.29658e-06
1.29677e-06
1.21643e-06
1.2166e-06
1.29674e-06
1.21646e-06
1.21659e-06
1.59084e-06
1.47247e-06
1.29664e-06
1.21652e-06
1.21652e-06
1.47252e-06
1.45904e-06
1.31958e-06
1.18358e-06
1.18362e-06
1.09777e-06
1.09779e-06
1.45905e-06
1.31955e-06
1.18352e-06
1.18367e-06
1.0977e-06
1.09785e-06
1.18367e-06
1.09773e-06
1.09784e-06
1.4591e-06
1.31966e-06
1.18361e-06
1.09779e-06
1.0978e-06
1.3197e-06
1.31273e-06
1.25701e-06
1.07828e-06
1.07831e-06
1.04215e-06
1.04218e-06
1.3127e-06
1.25697e-06
1.07821e-06
1.07837e-06
1.04208e-06
1.04223e-06
1.07836e-06
1.04209e-06
1.04222e-06
1.3128e-06
1.25706e-06
1.07831e-06
1.04215e-06
1.04216e-06
1.25708e-06
1.2573e-06
1.25918e-06
1.03718e-06
1.03721e-06
1.03336e-06
1.03341e-06
1.25726e-06
1.25914e-06
1.0371e-06
1.03726e-06
1.03328e-06
1.03345e-06
1.03725e-06
1.03329e-06
1.03344e-06
1.25735e-06
1.25923e-06
1.03718e-06
1.03335e-06
1.03336e-06
1.25925e-06
1.2652e-06
1.28313e-06
1.03563e-06
1.03568e-06
1.0457e-06
1.04576e-06
1.26517e-06
1.2831e-06
1.03554e-06
1.03571e-06
1.04562e-06
1.04579e-06
1.0357e-06
1.04563e-06
1.04578e-06
1.26525e-06
1.28319e-06
1.03561e-06
1.04568e-06
1.04569e-06
1.28321e-06
1.28762e-06
1.27633e-06
1.04779e-06
1.04783e-06
1.03132e-06
1.03135e-06
1.2876e-06
1.27632e-06
1.0477e-06
1.04786e-06
1.03128e-06
1.03132e-06
1.04786e-06
1.03132e-06
1.03136e-06
1.28767e-06
1.27635e-06
1.04776e-06
1.03131e-06
1.03133e-06
1.27637e-06
1.25596e-06
1.00124e-06
1.00127e-06
1.25596e-06
1.00123e-06
1.00123e-06
5.86594e-07
5.86566e-07
5.86603e-07
1.00128e-06
1.25597e-06
1.00127e-06
5.35663e-07
5.35601e-07
5.35655e-07
5.35655e-07
5.34573e-07
5.35516e-07
5.33634e-07
5.35654e-07
5.34573e-07
5.35517e-07
5.35654e-07
5.33634e-07
5.35256e-07
5.35986e-07
5.35987e-07
1.10713e-06
3.88082e-06
9.33891e-07
4.60617e-06
1.26081e-05
1.66011e-05
1.10725e-06
3.88106e-06
9.33924e-07
4.60653e-06
4.95567e-07
4.95567e-07
4.95567e-07
4.57231e-07
4.57231e-07
4.57232e-07
4.57232e-07
5.43144e-07
1.22026e-06
4.95565e-07
4.85522e-07
5.25341e-07
1.20946e-06
4.82301e-07
1.26097e-05
1.66037e-05
5.43162e-07
4.95565e-07
1.22025e-06
4.85523e-07
5.2532e-07
4.82302e-07
1.20945e-06
2.52172e-06
2.52242e-06
4.8419e-07
2.37248e-06
2.37287e-06
1.4308e-06
5.59329e-06
1.32967e-06
6.13637e-06
2.12844e-05
2.31105e-05
1.4312e-06
5.59395e-06
1.32973e-06
6.13703e-06
4.45572e-07
4.45573e-07
4.45573e-07
4.13542e-07
4.13542e-07
4.13543e-07