/*--------------------------------*- C++ -*----------------------------------*\
| =========                 |                                                 |
| \\      /  F ield         | OpenFOAM: The Open Source CFD Toolbox           |
|  \\    /   O peration     | Version:  v1906                                 |
|   \\  /    A nd           | Web:      www.OpenFOAM.com                      |
|    \\/     M anipulation  |                                                 |
\*---------------------------------------------------------------------------*/
FoamFile
{
    version     2.0;
    format      ascii;
    class       volScalarField;
    location    "375";
    object      k;
}
// * * * * * * * * * * * * * * * * * * * * * * * * * * * * * * * * * * * * * //

dimensions      [0 2 -2 0 0 0 0];


internalField   nonuniform List<scalar> 
171728
(
3.58932e-05
3.58912e-05
3.58912e-05
3.59957e-05
3.39296e-05
3.3889e-05
3.3889e-05
3.39622e-05
3.21578e-05
3.20081e-05
3.20081e-05
3.19522e-05
3.05346e-05
3.02293e-05
3.02292e-05
2.99884e-05
2.90329e-05
2.8554e-05
2.85539e-05
2.81226e-05
2.76353e-05
2.69872e-05
2.69871e-05
2.63907e-05
2.63308e-05
2.5531e-05
2.55309e-05
2.48073e-05
2.51112e-05
2.4185e-05
2.41848e-05
2.33782e-05
2.39709e-05
2.29506e-05
2.29504e-05
2.21047e-05
2.29058e-05
2.18269e-05
2.18267e-05
2.0986e-05
2.1912e-05
2.08114e-05
2.08112e-05
2.00134e-05
2.09865e-05
1.99013e-05
1.99011e-05
1.91814e-05
2.01241e-05
1.90947e-05
1.90946e-05
1.84895e-05
1.93239e-05
1.83885e-05
1.83884e-05
1.79331e-05
1.85847e-05
1.77793e-05
1.77793e-05
1.75062e-05
1.79042e-05
1.72656e-05
1.72656e-05
1.72002e-05
1.72798e-05
1.68465e-05
1.68466e-05
1.70226e-05
1.67097e-05
1.65211e-05
1.65213e-05
1.69817e-05
1.61923e-05
1.62895e-05
1.62898e-05
1.70789e-05
1.57254e-05
1.61516e-05
1.6152e-05
1.7304e-05
1.53073e-05
1.61072e-05
1.61077e-05
1.76568e-05
1.49374e-05
1.61534e-05
1.61539e-05
1.81338e-05
1.46145e-05
1.62919e-05
1.62926e-05
1.87284e-05
1.43383e-05
1.65199e-05
1.65209e-05
1.9428e-05
1.41079e-05
1.68355e-05
1.68365e-05
2.02205e-05
1.39235e-05
1.72353e-05
1.72361e-05
2.10943e-05
1.37846e-05
1.77155e-05
1.77171e-05
2.20352e-05
1.36906e-05
1.82725e-05
1.82744e-05
2.30292e-05
1.36418e-05
1.89011e-05
1.89027e-05
2.40657e-05
1.36393e-05
1.9598e-05
1.95993e-05
2.51249e-05
1.36813e-05
2.03545e-05
2.03571e-05
2.61998e-05
1.37694e-05
2.11684e-05
2.11705e-05
2.7282e-05
1.39051e-05
2.20353e-05
2.20348e-05
2.83631e-05
1.40868e-05
2.29355e-05
2.29425e-05
2.94282e-05
1.43099e-05
2.38822e-05
2.38784e-05
3.04825e-05
1.4594e-05
2.48615e-05
2.48715e-05
3.1516e-05
1.48994e-05
2.58472e-05
2.58389e-05
3.25505e-05
1.52887e-05
2.68781e-05
2.68914e-05
3.35222e-05
1.56733e-05
2.78934e-05
2.78902e-05
3.45041e-05
1.61634e-05
2.89378e-05
2.89413e-05
3.54556e-05
1.66306e-05
2.99633e-05
2.99602e-05
3.63737e-05
1.7199e-05
3.09932e-05
3.10231e-05
3.72692e-05
1.77707e-05
3.20436e-05
3.19909e-05
3.81241e-05
1.83965e-05
3.30209e-05
3.30812e-05
3.90198e-05
1.90499e-05
3.40358e-05
3.40106e-05
3.97947e-05
1.97362e-05
3.5011e-05
3.50184e-05
4.06056e-05
2.04577e-05
3.59677e-05
3.5972e-05
4.13839e-05
2.12002e-05
3.69019e-05
3.68989e-05
4.21293e-05
2.19651e-05
3.78075e-05
3.78145e-05
4.28475e-05
2.27446e-05
3.86902e-05
3.86927e-05
4.35531e-05
2.35409e-05
3.95428e-05
3.95444e-05
4.42222e-05
2.43483e-05
4.03678e-05
4.03707e-05
4.48706e-05
2.51609e-05
4.11668e-05
4.11688e-05
4.54989e-05
2.59751e-05
4.19344e-05
4.19363e-05
4.61e-05
2.67908e-05
4.26731e-05
4.26757e-05
4.66782e-05
2.7599e-05
4.3386e-05
4.33863e-05
4.72354e-05
2.84024e-05
4.40632e-05
4.40672e-05
4.77661e-05
2.91934e-05
4.47218e-05
4.47206e-05
4.82806e-05
2.99744e-05
4.53408e-05
4.53454e-05
4.87647e-05
3.07347e-05
4.59414e-05
4.59398e-05
4.9236e-05
3.14853e-05
4.65075e-05
4.65121e-05
4.96781e-05
3.22095e-05
4.70499e-05
4.70476e-05
5.0105e-05
3.2916e-05
4.75643e-05
4.75696e-05
5.05069e-05
3.35986e-05
4.8049e-05
4.80456e-05
5.08904e-05
3.42664e-05
4.85197e-05
4.85255e-05
5.12585e-05
3.48772e-05
4.89358e-05
4.89321e-05
5.15864e-05
3.55286e-05
4.9375e-05
4.93796e-05
5.19381e-05
3.60579e-05
4.97271e-05
4.9726e-05
5.22028e-05
3.66613e-05
5.01085e-05
5.01088e-05
5.25241e-05
3.71645e-05
5.04554e-05
5.04583e-05
5.27701e-05
3.76606e-05
5.07129e-05
5.07111e-05
5.30089e-05
3.81481e-05
5.10878e-05
5.10893e-05
5.32836e-05
3.85924e-05
5.12809e-05
5.12805e-05
5.34422e-05
3.89529e-05
5.15598e-05
5.15622e-05
5.36755e-05
3.95041e-05
5.18306e-05
5.18287e-05
5.38765e-05
3.96065e-05
5.18496e-05
5.185e-05
5.39e-05
4.01711e-05
5.22364e-05
5.22367e-05
5.42158e-05
4.03992e-05
5.22989e-05
5.22981e-05
5.42312e-05
4.0684e-05
5.24448e-05
5.24457e-05
5.44401e-05
4.07349e-05
5.23191e-05
5.23175e-05
5.40305e-05
4.16494e-05
5.34534e-05
5.34569e-05
5.57166e-05
4.11042e-05
5.15944e-05
5.1594e-05
5.30732e-05
4.01185e-05
5.08616e-05
5.0856e-05
5.23232e-05
4.43768e-05
5.72634e-05
5.72668e-05
5.98156e-05
4.58936e-05
5.69164e-05
5.69221e-05
5.7987e-05
3.80998e-05
4.62068e-05
4.62052e-05
4.72036e-05
3.44052e-05
4.46323e-05
4.46312e-05
4.67934e-05
4.14588e-05
5.53756e-05
5.53766e-05
5.76667e-05
5.07071e-05
6.16686e-05
6.1668e-05
6.37321e-05
5.14619e-05
6.04756e-05
6.04744e-05
6.13049e-05
4.31014e-05
5.15042e-05
5.1505e-05
5.30114e-05
3.70301e-05
4.70947e-05
4.70955e-05
4.90136e-05
3.55531e-05
4.65115e-05
4.65119e-05
4.88353e-05
3.70703e-05
4.79846e-05
4.79842e-05
5.03227e-05
3.83635e-05
4.76815e-05
4.76804e-05
5.06147e-05
3.63068e-05
3.6291e-05
3.6291e-05
3.63068e-05
3.6291e-05
3.6291e-05
3.6423e-05
3.6423e-05
3.6423e-05
3.6423e-05
3.6291e-05
3.6291e-05
3.63068e-05
3.6291e-05
3.6291e-05
3.63068e-05
3.59957e-05
3.42687e-05
3.58912e-05
3.58912e-05
3.43767e-05
3.43766e-05
3.59957e-05
3.42687e-05
3.58911e-05
3.58912e-05
3.43767e-05
3.43766e-05
3.58912e-05
3.43767e-05
3.43767e-05
3.59957e-05
3.42687e-05
3.58912e-05
3.43767e-05
3.43767e-05
3.42687e-05
3.39623e-05
3.22635e-05
3.38889e-05
3.38889e-05
3.24684e-05
3.24683e-05
3.39623e-05
3.22635e-05
3.38889e-05
3.38889e-05
3.24684e-05
3.24683e-05
3.38889e-05
3.24685e-05
3.24684e-05
3.39623e-05
3.22634e-05
3.38889e-05
3.24685e-05
3.24684e-05
3.22634e-05
3.19522e-05
3.02993e-05
3.20079e-05
3.20078e-05
3.06643e-05
3.06642e-05
3.19522e-05
3.02994e-05
3.2008e-05
3.20078e-05
3.06644e-05
3.06641e-05
3.20079e-05
3.06646e-05
3.06643e-05
3.19522e-05
3.02992e-05
3.2008e-05
3.06645e-05
3.06644e-05
3.02992e-05
2.99885e-05
2.84253e-05
3.0229e-05
3.02288e-05
2.89624e-05
2.89622e-05
2.99886e-05
2.84255e-05
3.02291e-05
3.02287e-05
2.89626e-05
2.89621e-05
3.02289e-05
2.89628e-05
2.89623e-05
2.99884e-05
2.84252e-05
3.02291e-05
2.89627e-05
2.89626e-05
2.84252e-05
2.81227e-05
2.6674e-05
2.85536e-05
2.85534e-05
2.7368e-05
2.73678e-05
2.81228e-05
2.66742e-05
2.85538e-05
2.85533e-05
2.73683e-05
2.73676e-05
2.85535e-05
2.73685e-05
2.73679e-05
2.81226e-05
2.66739e-05
2.85538e-05
2.73684e-05
2.73683e-05
2.66738e-05
2.63908e-05
2.50663e-05
2.69866e-05
2.69864e-05
2.58841e-05
2.58838e-05
2.63909e-05
2.50665e-05
2.6987e-05
2.69862e-05
2.58845e-05
2.58836e-05
2.69865e-05
2.58848e-05
2.5884e-05
2.63907e-05
2.50661e-05
2.69869e-05
2.58846e-05
2.58844e-05
2.50661e-05
2.48075e-05
2.36125e-05
2.55303e-05
2.553e-05
2.45102e-05
2.45099e-05
2.48076e-05
2.36127e-05
2.55308e-05
2.55299e-05
2.45107e-05
2.45097e-05
2.55302e-05
2.4511e-05
2.45102e-05
2.48073e-05
2.36123e-05
2.55307e-05
2.45108e-05
2.45107e-05
2.36123e-05
2.33784e-05
2.23125e-05
2.41842e-05
2.41838e-05
2.32478e-05
2.32475e-05
2.33785e-05
2.23126e-05
2.41847e-05
2.41836e-05
2.32484e-05
2.32473e-05
2.41841e-05
2.32488e-05
2.32478e-05
2.33782e-05
2.23122e-05
2.41846e-05
2.32485e-05
2.32484e-05
2.23122e-05
2.21049e-05
2.11681e-05
2.29497e-05
2.29494e-05
2.20965e-05
2.20962e-05
2.21051e-05
2.11683e-05
2.29503e-05
2.29491e-05
2.20972e-05
2.2096e-05
2.29496e-05
2.20976e-05
2.20965e-05
2.21047e-05
2.11679e-05
2.29503e-05
2.20973e-05
2.20972e-05
2.11678e-05
2.09863e-05
2.01708e-05
2.18259e-05
2.18255e-05
2.10542e-05
2.10538e-05
2.09865e-05
2.0171e-05
2.18266e-05
2.18253e-05
2.10549e-05
2.10536e-05
2.18258e-05
2.10552e-05
2.10541e-05
2.09861e-05
2.01705e-05
2.18265e-05
2.1055e-05
2.10549e-05
2.01704e-05
2.00137e-05
1.93147e-05
2.08103e-05
2.081e-05
2.0118e-05
2.01176e-05
2.00139e-05
1.93148e-05
2.08111e-05
2.08097e-05
2.01188e-05
2.01174e-05
2.08102e-05
2.01191e-05
2.01179e-05
2.00134e-05
1.93144e-05
2.08111e-05
2.01189e-05
2.01188e-05
1.93143e-05
1.91817e-05
1.85904e-05
1.99002e-05
1.98999e-05
1.92855e-05
1.92852e-05
1.91819e-05
1.85906e-05
1.9901e-05
1.98997e-05
1.92863e-05
1.9285e-05
1.99002e-05
1.92866e-05
1.92855e-05
1.91815e-05
1.85902e-05
1.9901e-05
1.92865e-05
1.92864e-05
1.85901e-05
1.84898e-05
1.79978e-05
1.90936e-05
1.90933e-05
1.85545e-05
1.85542e-05
1.84899e-05
1.7998e-05
1.90945e-05
1.90931e-05
1.85553e-05
1.8554e-05
1.90936e-05
1.85555e-05
1.85545e-05
1.84896e-05
1.79978e-05
1.90945e-05
1.85554e-05
1.85553e-05
1.79974e-05
1.79333e-05
1.75393e-05
1.83874e-05
1.83872e-05
1.79214e-05
1.79211e-05
1.79334e-05
1.75392e-05
1.83883e-05
1.8387e-05
1.79222e-05
1.79209e-05
1.83874e-05
1.79223e-05
1.79213e-05
1.79332e-05
1.75391e-05
1.83883e-05
1.79222e-05
1.79222e-05
1.75389e-05
1.75067e-05
1.72177e-05
1.77784e-05
1.77781e-05
1.73838e-05
1.73836e-05
1.75066e-05
1.72177e-05
1.77792e-05
1.7778e-05
1.73846e-05
1.73835e-05
1.77783e-05
1.73847e-05
1.73838e-05
1.75064e-05
1.72176e-05
1.77792e-05
1.73846e-05
1.73846e-05
1.72175e-05
1.72005e-05
1.70263e-05
1.72648e-05
1.72646e-05
1.69411e-05
1.69409e-05
1.72004e-05
1.70259e-05
1.72655e-05
1.72645e-05
1.69418e-05
1.69409e-05
1.72647e-05
1.69418e-05
1.6941e-05
1.72003e-05
1.7026e-05
1.72656e-05
1.69418e-05
1.69418e-05
1.70259e-05
1.70229e-05
1.69726e-05
1.68458e-05
1.68457e-05
1.65921e-05
1.6592e-05
1.70226e-05
1.69723e-05
1.68465e-05
1.68456e-05
1.65928e-05
1.6592e-05
1.68458e-05
1.65926e-05
1.65921e-05
1.70227e-05
1.69726e-05
1.68466e-05
1.65928e-05
1.65928e-05
1.69724e-05
1.69819e-05
1.70432e-05
1.65206e-05
1.65205e-05
1.63368e-05
1.63367e-05
1.69816e-05
1.7043e-05
1.65213e-05
1.65205e-05
1.63374e-05
1.63368e-05
1.65206e-05
1.63372e-05
1.63368e-05
1.69819e-05
1.70434e-05
1.65213e-05
1.63374e-05
1.63375e-05
1.70433e-05
1.70788e-05
1.72436e-05
1.62892e-05
1.62891e-05
1.61753e-05
1.61753e-05
1.70786e-05
1.72431e-05
1.62898e-05
1.62892e-05
1.61759e-05
1.61755e-05
1.62891e-05
1.61755e-05
1.61753e-05
1.70788e-05
1.72436e-05
1.62898e-05
1.61758e-05
1.61759e-05
1.72437e-05
1.7304e-05
1.75721e-05
1.61515e-05
1.61515e-05
1.61071e-05
1.61073e-05
1.73036e-05
1.75717e-05
1.6152e-05
1.61517e-05
1.61076e-05
1.61075e-05
1.61515e-05
1.61071e-05
1.61071e-05
1.73041e-05
1.75726e-05
1.61521e-05
1.61076e-05
1.61077e-05
1.75723e-05
1.76567e-05
1.80253e-05
1.61071e-05
1.61074e-05
1.61328e-05
1.61331e-05
1.76564e-05
1.80247e-05
1.61077e-05
1.61077e-05
1.61332e-05
1.61335e-05
1.61073e-05
1.61328e-05
1.6133e-05
1.76573e-05
1.8026e-05
1.61078e-05
1.61333e-05
1.61335e-05
1.80254e-05
1.81336e-05
1.85975e-05
1.61534e-05
1.61538e-05
1.62488e-05
1.62492e-05
1.81332e-05
1.85964e-05
1.61539e-05
1.61541e-05
1.62492e-05
1.62496e-05
1.61537e-05
1.62486e-05
1.62491e-05
1.81342e-05
1.85979e-05
1.61542e-05
1.62492e-05
1.62495e-05
1.85971e-05
1.87284e-05
1.9276e-05
1.6292e-05
1.62927e-05
1.64549e-05
1.64554e-05
1.87275e-05
1.92752e-05
1.62925e-05
1.6293e-05
1.64552e-05
1.6456e-05
1.62924e-05
1.64545e-05
1.64553e-05
1.87288e-05
1.92766e-05
1.62928e-05
1.64553e-05
1.64557e-05
1.9276e-05
1.94276e-05
2.00498e-05
1.65205e-05
1.65209e-05
1.67492e-05
1.675e-05
1.94268e-05
2.0049e-05
1.65209e-05
1.65216e-05
1.67494e-05
1.67504e-05
1.65209e-05
1.67487e-05
1.67495e-05
1.94281e-05
2.00505e-05
1.65214e-05
1.67494e-05
1.67499e-05
2.005e-05
2.02201e-05
2.09059e-05
1.68361e-05
1.68368e-05
1.71284e-05
1.71291e-05
2.02198e-05
2.09053e-05
1.68363e-05
1.68375e-05
1.71284e-05
1.71297e-05
1.68366e-05
1.71276e-05
1.71288e-05
2.0221e-05
2.09075e-05
1.6837e-05
1.71285e-05
1.71291e-05
2.09074e-05
2.10932e-05
2.18327e-05
1.72364e-05
1.7237e-05
1.75888e-05
1.75897e-05
2.10927e-05
2.18319e-05
1.72365e-05
1.72373e-05
1.75886e-05
1.75909e-05
1.72368e-05
1.75878e-05
1.75896e-05
2.10946e-05
2.18339e-05
1.7237e-05
1.75894e-05
1.75897e-05
2.18345e-05
2.20336e-05
2.28167e-05
1.77168e-05
1.77174e-05
1.81273e-05
1.8128e-05
2.20329e-05
2.28152e-05
1.77167e-05
1.77186e-05
1.81269e-05
1.81288e-05
1.77174e-05
1.81259e-05
1.81277e-05
2.20357e-05
2.28158e-05
1.77175e-05
1.81271e-05
1.81275e-05
2.28173e-05
2.30292e-05
2.38419e-05
1.82737e-05
1.82747e-05
1.874e-05
1.87403e-05
2.30274e-05
2.38414e-05
1.82733e-05
1.82761e-05
1.87393e-05
1.87407e-05
1.82741e-05
1.87379e-05
1.87408e-05
2.30286e-05
2.38438e-05
1.8274e-05
1.87387e-05
1.87404e-05
2.38443e-05
2.40638e-05
2.48943e-05
1.89029e-05
1.89035e-05
1.94205e-05
1.94202e-05
2.4062e-05
2.48949e-05
1.89023e-05
1.89046e-05
1.94194e-05
1.94218e-05
1.89042e-05
1.94176e-05
1.94206e-05
2.40638e-05
2.48991e-05
1.89037e-05
1.94196e-05
1.94199e-05
2.48965e-05
2.51235e-05
2.59647e-05
1.96013e-05
1.96006e-05
2.01603e-05
2.01626e-05
2.51227e-05
2.59672e-05
1.96004e-05
1.96014e-05
2.01589e-05
2.01643e-05
1.96011e-05
2.01597e-05
2.01635e-05
2.51269e-05
2.59685e-05
1.96004e-05
2.0162e-05
2.01625e-05
2.59685e-05
2.61951e-05
2.70508e-05
2.03568e-05
2.03572e-05
2.0964e-05
2.09647e-05
2.61992e-05
2.70455e-05
2.03555e-05
2.03593e-05
2.09624e-05
2.09644e-05
2.03589e-05
2.09616e-05
2.09636e-05
2.62012e-05
2.70467e-05
2.03579e-05
2.09618e-05
2.09623e-05
2.7049e-05
2.7284e-05
2.81225e-05
2.11708e-05
2.11715e-05
2.18162e-05
2.18168e-05
2.72815e-05
2.81203e-05
2.11693e-05
2.1173e-05
2.18142e-05
2.18183e-05
2.11721e-05
2.18137e-05
2.18172e-05
2.72821e-05
2.81255e-05
2.11708e-05
2.18157e-05
2.18157e-05
2.8128e-05
2.83582e-05
2.91927e-05
2.20359e-05
2.20384e-05
2.27097e-05
2.2707e-05
2.83561e-05
2.91905e-05
2.2034e-05
2.20372e-05
2.27074e-05
2.27101e-05
2.20367e-05
2.27037e-05
2.27112e-05
2.83597e-05
2.91932e-05
2.20351e-05
2.27073e-05
2.27093e-05
2.91929e-05
2.94256e-05
3.02533e-05
2.29434e-05
2.29389e-05
2.36447e-05
2.36515e-05
2.94221e-05
3.02531e-05
2.29413e-05
2.29452e-05
2.36422e-05
2.36502e-05
2.2942e-05
2.36485e-05
2.36522e-05
2.94276e-05
3.02549e-05
2.29402e-05
2.36478e-05
2.36501e-05
3.02523e-05
3.04839e-05
3.12904e-05
2.38793e-05
2.38852e-05
2.46222e-05
2.46106e-05
3.04861e-05
3.12811e-05
2.38767e-05
2.38807e-05
2.46197e-05
2.46169e-05
2.38896e-05
2.4607e-05
2.46059e-05
3.04836e-05
3.12875e-05
2.38873e-05
2.46135e-05
2.46037e-05
3.12882e-05
3.15243e-05
3.2298e-05
2.48695e-05
2.4865e-05
2.55894e-05
2.56073e-05
3.15129e-05
3.23158e-05
2.48674e-05
2.48745e-05
2.55859e-05
2.56001e-05
2.48592e-05
2.56051e-05
2.56199e-05
3.1522e-05
3.23143e-05
2.48571e-05
2.55987e-05
2.5617e-05
3.23263e-05
3.25209e-05
3.33309e-05
2.58461e-05
2.58497e-05
2.66452e-05
2.66177e-05
3.25342e-05
3.33026e-05
2.58427e-05
2.58407e-05
2.66431e-05
2.66338e-05
2.58595e-05
2.66133e-05
2.66143e-05
3.253e-05
3.33109e-05
2.58565e-05
2.66299e-05
2.66123e-05
3.32956e-05
3.35511e-05
3.42529e-05
2.68892e-05
2.68819e-05
2.76087e-05
2.7648e-05
3.3533e-05
3.42883e-05
2.68872e-05
2.68944e-05
2.76043e-05
2.76279e-05
2.68818e-05
2.76468e-05
2.76451e-05
3.35433e-05
3.4281e-05
2.68797e-05
2.76273e-05
2.76411e-05
3.42956e-05
3.44715e-05
3.52819e-05
2.78834e-05
2.78953e-05
2.87176e-05
2.86692e-05
3.44982e-05
3.5227e-05
2.78797e-05
2.78916e-05
2.8717e-05
2.87046e-05
2.78936e-05
2.86646e-05
2.86825e-05
3.449e-05
3.52573e-05
2.78903e-05
2.8701e-05
2.86816e-05
3.52348e-05
3.54912e-05
3.61167e-05
2.89577e-05
2.89419e-05
2.96761e-05
2.97231e-05
3.5445e-05
3.61775e-05
2.89561e-05
2.89442e-05
2.96696e-05
2.9674e-05
2.89451e-05
2.9722e-05
2.97155e-05
3.54678e-05
3.61278e-05
2.8943e-05
2.96735e-05
2.97095e-05
3.61709e-05
3.63262e-05
3.7099e-05
2.99487e-05
2.99642e-05
3.07642e-05
3.07229e-05
3.63748e-05
3.70389e-05
2.99446e-05
2.99606e-05
3.07663e-05
3.07963e-05
2.99806e-05
3.07202e-05
3.07537e-05
3.63433e-05
3.71202e-05
2.99765e-05
3.07947e-05
3.07553e-05
3.70761e-05
3.72974e-05
3.79285e-05
3.10141e-05
3.09966e-05
3.17647e-05
3.17986e-05
3.72503e-05
3.79762e-05
3.10146e-05
3.10252e-05
3.17575e-05
3.17172e-05
3.09946e-05
3.1795e-05
3.17508e-05
3.73092e-05
3.78822e-05
3.09945e-05
3.17145e-05
3.17434e-05
3.79179e-05
3.81266e-05
3.88063e-05
3.20245e-05
3.20465e-05
3.2791e-05
3.27726e-05
3.81669e-05
3.87755e-05
3.20183e-05
3.19929e-05
3.27919e-05
3.28351e-05
3.20225e-05
3.27718e-05
3.28172e-05
3.80858e-05
3.88546e-05
3.20159e-05
3.28356e-05
3.28177e-05
3.88337e-05
3.89936e-05
3.96211e-05
3.30398e-05
3.30217e-05
3.37862e-05
3.3786e-05
3.89627e-05
3.96238e-05
3.30413e-05
3.30807e-05
3.37832e-05
3.37693e-05
3.30635e-05
3.37836e-05
3.37836e-05
3.90449e-05
3.95965e-05
3.30645e-05
3.37681e-05
3.37803e-05
3.96138e-05
3.9806e-05
4.04264e-05
3.40347e-05
3.40386e-05
3.4768e-05
3.4773e-05
3.98123e-05
4.04295e-05
3.4031e-05
3.40122e-05
3.47652e-05
3.47709e-05
3.40276e-05
3.47707e-05
3.47672e-05
3.97738e-05
4.04324e-05
3.40233e-05
3.477e-05
3.47642e-05
4.04247e-05
4.06041e-05
4.1206e-05
3.50097e-05
3.50129e-05
3.57327e-05
3.57312e-05
4.06055e-05
4.12029e-05
3.50079e-05
3.5019e-05
3.57313e-05
3.57375e-05
3.50123e-05
3.57295e-05
3.57374e-05
4.06169e-05
4.12089e-05
3.501e-05
3.57373e-05
3.57357e-05
4.12108e-05
4.13802e-05
4.19606e-05
3.59711e-05
3.59694e-05
3.66725e-05
3.6673e-05
4.1377e-05
4.19594e-05
3.59696e-05
3.59722e-05
3.66701e-05
3.66678e-05
3.5976e-05
3.66716e-05
3.66777e-05
4.13787e-05
4.19549e-05
3.59741e-05
3.6668e-05
3.66752e-05
4.19635e-05
4.21272e-05
4.26888e-05
3.69033e-05
3.69033e-05
3.75868e-05
3.75846e-05
4.21264e-05
4.26848e-05
3.6901e-05
3.68988e-05
3.75852e-05
3.75891e-05
3.69066e-05
3.75827e-05
3.75848e-05
4.21221e-05
4.2691e-05
3.69041e-05
3.75889e-05
3.75831e-05
4.26854e-05
4.28502e-05
4.33889e-05
3.78107e-05
3.78093e-05
3.84715e-05
3.84737e-05
4.28466e-05
4.33904e-05
3.78094e-05
3.78148e-05
3.84698e-05
3.84755e-05
3.78098e-05
3.84726e-05
3.84792e-05
4.2854e-05
4.33924e-05
3.78082e-05
3.84761e-05
3.84775e-05
4.33961e-05
4.35447e-05
4.40694e-05
3.8689e-05
3.86911e-05
3.93329e-05
3.9333e-05
4.35465e-05
4.40679e-05
3.86874e-05
3.8692e-05
3.9331e-05
3.93329e-05
3.8698e-05
3.9332e-05
3.9338e-05
4.35473e-05
4.40686e-05
3.86963e-05
3.93336e-05
3.93362e-05
4.40729e-05
4.42205e-05
4.47249e-05
3.95443e-05
3.95439e-05
4.01663e-05
4.01654e-05
4.42185e-05
4.4723e-05
3.95426e-05
3.95439e-05
4.01646e-05
4.01663e-05
3.95475e-05
4.01641e-05
4.01672e-05
4.42193e-05
4.47248e-05
3.95457e-05
4.01668e-05
4.01658e-05
4.4725e-05
4.487e-05
4.53556e-05
4.03696e-05
4.0369e-05
4.09705e-05
4.09709e-05
4.48684e-05
4.53549e-05
4.03682e-05
4.03702e-05
4.09688e-05
4.09712e-05
4.03713e-05
4.09701e-05
4.09742e-05
4.48701e-05
4.53564e-05
4.037e-05
4.09721e-05
4.09727e-05
4.53587e-05
4.54958e-05
4.59628e-05
4.11674e-05
4.11676e-05
4.17454e-05
4.17455e-05
4.54953e-05
4.59616e-05
4.11659e-05
4.11679e-05
4.17439e-05
4.1746e-05
4.11708e-05
4.17447e-05
4.17488e-05
4.54965e-05
4.59629e-05
4.11694e-05
4.17471e-05
4.17476e-05
4.59651e-05
4.60975e-05
4.65472e-05
4.19345e-05
4.1935e-05
4.24928e-05
4.24925e-05
4.60965e-05
4.65461e-05
4.19332e-05
4.19351e-05
4.24914e-05
4.24927e-05
4.19386e-05
4.24918e-05
4.2495e-05
4.60977e-05
4.65469e-05
4.19374e-05
4.24936e-05
4.24938e-05
4.65488e-05
4.66772e-05
4.71074e-05
4.26749e-05
4.26741e-05
4.32094e-05
4.32105e-05
4.66759e-05
4.7107e-05
4.26738e-05
4.26749e-05
4.32079e-05
4.32098e-05
4.26762e-05
4.321e-05
4.32133e-05
4.66768e-05
4.71078e-05
4.26751e-05
4.32113e-05
4.3212e-05
4.71099e-05
4.72321e-05
4.7646e-05
4.33845e-05
4.33862e-05
4.38986e-05
4.38973e-05
4.72324e-05
4.76441e-05
4.33831e-05
4.33847e-05
4.38977e-05
4.38986e-05
4.33896e-05
4.38967e-05
4.38999e-05
4.72325e-05
4.76457e-05
4.33883e-05
4.38997e-05
4.38991e-05
4.76472e-05
4.7766e-05
4.81603e-05
4.40659e-05
4.4064e-05
4.45576e-05
4.45601e-05
4.77634e-05
4.81615e-05
4.40652e-05
4.40663e-05
4.45561e-05
4.45583e-05
4.40661e-05
4.456e-05
4.45629e-05
4.77656e-05
4.81613e-05
4.40655e-05
4.45602e-05
4.45618e-05
4.8164e-05
4.82757e-05
4.86562e-05
4.47187e-05
4.47217e-05
4.51912e-05
4.51888e-05
4.82779e-05
4.8653e-05
4.47173e-05
4.47186e-05
4.51904e-05
4.51905e-05
4.47251e-05
4.51884e-05
4.5191e-05
4.82765e-05
4.86548e-05
4.47238e-05
4.51917e-05
4.51903e-05
4.86557e-05
4.87666e-05
4.91235e-05
4.53442e-05
4.53414e-05
4.57907e-05
4.57941e-05
4.87623e-05
4.91261e-05
4.53438e-05
4.53445e-05
4.57893e-05
4.57916e-05
4.53432e-05
4.57942e-05
4.57969e-05
4.87655e-05
4.91254e-05
4.53427e-05
4.57938e-05
4.57961e-05
4.91288e-05
4.92292e-05
4.95788e-05
4.59372e-05
4.5941e-05
4.63704e-05
4.63678e-05
4.92331e-05
4.9575e-05
4.59359e-05
4.59374e-05
4.63697e-05
4.63702e-05
4.59444e-05
4.63677e-05
4.63702e-05
4.92307e-05
4.95776e-05
4.59434e-05
4.63716e-05
4.63696e-05
4.95776e-05
4.9681e-05
5.00035e-05
4.6511e-05
4.65078e-05
4.69158e-05
4.69188e-05
4.9676e-05
5.0006e-05
4.65106e-05
4.6511e-05
4.69143e-05
4.69148e-05
4.65096e-05
4.69189e-05
4.69207e-05
4.96799e-05
5.00035e-05
4.65091e-05
4.6917e-05
4.692e-05
5.00081e-05
5.00988e-05
5.04126e-05
4.70456e-05
4.70494e-05
4.74358e-05
4.74341e-05
5.01027e-05
5.04099e-05
4.70443e-05
4.7045e-05
4.74357e-05
4.74379e-05
4.70521e-05
4.74344e-05
4.74376e-05
5.00989e-05
5.04141e-05
4.70513e-05
4.74396e-05
4.74374e-05
5.04132e-05
5.05079e-05
5.08021e-05
4.75666e-05
4.75642e-05
4.79324e-05
4.79347e-05
5.0504e-05
5.08038e-05
4.75667e-05
4.75681e-05
4.79305e-05
4.79296e-05
4.75671e-05
4.79349e-05
4.79351e-05
5.05091e-05
5.07999e-05
4.75668e-05
4.79318e-05
4.79338e-05
5.08042e-05
5.08872e-05
5.11686e-05
4.80457e-05
4.80486e-05
4.84025e-05
4.84009e-05
5.089e-05
5.11663e-05
4.80441e-05
4.80432e-05
4.84028e-05
4.84045e-05
4.80495e-05
4.84014e-05
4.84055e-05
5.0885e-05
5.11706e-05
4.80484e-05
4.8407e-05
4.84063e-05
5.11711e-05
5.12566e-05
5.1508e-05
4.85208e-05
4.85191e-05
4.8828e-05
4.88309e-05
5.12534e-05
5.15105e-05
4.85213e-05
4.85231e-05
4.88264e-05
4.8827e-05
4.85236e-05
4.88316e-05
4.88312e-05
5.12588e-05
5.15071e-05
4.85244e-05
4.88286e-05
4.88292e-05
5.15098e-05
5.15847e-05
5.18591e-05
4.89326e-05
4.89351e-05
4.92802e-05
4.92783e-05
5.1588e-05
5.18558e-05
4.8931e-05
4.89308e-05
4.928e-05
4.92791e-05
4.89351e-05
4.92787e-05
4.92815e-05
5.15832e-05
5.18585e-05
4.89328e-05
4.92821e-05
4.92822e-05
5.18599e-05
5.19365e-05
5.21276e-05
4.93758e-05
4.93745e-05
4.96178e-05
4.96201e-05
5.19331e-05
5.21299e-05
4.93762e-05
4.93759e-05
4.96173e-05
4.96197e-05
4.93783e-05
4.9621e-05
4.96221e-05
5.19367e-05
5.21295e-05
4.93801e-05
4.96217e-05
4.96218e-05
5.21317e-05
5.21991e-05
5.24633e-05
4.97238e-05
4.9726e-05
5.00429e-05
5.00431e-05
5.22024e-05
5.24618e-05
4.9723e-05
4.97247e-05
5.00419e-05
5.00399e-05
4.97276e-05
5.00442e-05
5.00455e-05
5.22007e-05
5.24609e-05
4.9726e-05
5.00426e-05
5.00441e-05
5.24635e-05
5.25241e-05
5.26902e-05
5.01085e-05
5.01078e-05
5.03381e-05
5.03375e-05
5.25221e-05
5.26893e-05
5.01081e-05
5.01059e-05
5.03386e-05
5.03402e-05
5.01099e-05
5.03377e-05
5.03382e-05
5.25217e-05
5.26919e-05
5.01095e-05
5.03418e-05
5.03397e-05
5.2691e-05
5.27679e-05
5.29657e-05
5.04539e-05
5.04547e-05
5.06775e-05
5.06808e-05
5.27681e-05
5.2968e-05
5.04541e-05
5.0456e-05
5.06764e-05
5.06763e-05
5.04567e-05
5.06831e-05
5.0686e-05
5.27705e-05
5.29653e-05
5.04577e-05
5.0681e-05
5.06847e-05
5.29709e-05
5.30053e-05
5.31957e-05
5.07097e-05
5.07112e-05
5.09693e-05
5.0966e-05
5.30067e-05
5.31918e-05
5.07088e-05
5.0708e-05
5.0969e-05
5.09678e-05
5.07144e-05
5.09654e-05
5.09636e-05
5.30041e-05
5.31941e-05
5.07131e-05
5.09671e-05
5.09636e-05
5.31903e-05
5.32864e-05
5.34125e-05
5.10891e-05
5.10878e-05
5.1262e-05
5.12685e-05
5.3284e-05
5.34177e-05
5.1089e-05
5.10885e-05
5.12623e-05
5.12644e-05
5.10873e-05
5.1272e-05
5.12762e-05
5.32858e-05
5.34158e-05
5.10874e-05
5.12716e-05
5.12762e-05
5.34229e-05
5.34318e-05
5.35832e-05
5.12711e-05
5.12773e-05
5.14284e-05
5.14167e-05
5.34368e-05
5.35726e-05
5.12714e-05
5.12734e-05
5.14274e-05
5.14224e-05
5.12851e-05
5.14139e-05
5.14099e-05
5.34349e-05
5.35763e-05
5.12851e-05
5.14173e-05
5.14104e-05
5.35689e-05
5.36884e-05
5.38502e-05
5.15696e-05
5.1562e-05
5.18112e-05
5.18168e-05
5.36794e-05
5.38575e-05
5.15688e-05
5.15651e-05
5.18113e-05
5.18131e-05
5.15566e-05
5.18196e-05
5.18216e-05
5.36823e-05
5.38542e-05
5.15567e-05
5.18183e-05
5.18212e-05
5.3861e-05
5.38637e-05
5.38354e-05
5.18199e-05
5.1827e-05
5.18191e-05
5.18243e-05
5.38722e-05
5.38333e-05
5.18202e-05
5.18227e-05
5.18192e-05
5.1821e-05
5.18332e-05
5.18278e-05
5.18302e-05
5.38686e-05
5.38338e-05
5.18329e-05
5.18264e-05
5.183e-05
5.38353e-05
5.39091e-05
5.41915e-05
5.1848e-05
5.18477e-05
5.21914e-05
5.2188e-05
5.39005e-05
5.41895e-05
5.18478e-05
5.18468e-05
5.21914e-05
5.21887e-05
5.18507e-05
5.21875e-05
5.21867e-05
5.39034e-05
5.41899e-05
5.18508e-05
5.21895e-05
5.21869e-05
5.41899e-05
5.42129e-05
5.41635e-05
5.22339e-05
5.22353e-05
5.22596e-05
5.22649e-05
5.42145e-05
5.41712e-05
5.22342e-05
5.22338e-05
5.22601e-05
5.22619e-05
5.22367e-05
5.22677e-05
5.22688e-05
5.42134e-05
5.41682e-05
5.22369e-05
5.22666e-05
5.22691e-05
5.41737e-05
5.42256e-05
5.4452e-05
5.22908e-05
5.22954e-05
5.24571e-05
5.24555e-05
5.42297e-05
5.44461e-05
5.22912e-05
5.22934e-05
5.24569e-05
5.24554e-05
5.22998e-05
5.24564e-05
5.24576e-05
5.42285e-05
5.44488e-05
5.23001e-05
5.24575e-05
5.24574e-05
5.44483e-05
5.44419e-05
5.39983e-05
5.24454e-05
5.2444e-05
5.22921e-05
5.22932e-05
5.44371e-05
5.40017e-05
5.24452e-05
5.24434e-05
5.22919e-05
5.22895e-05
5.24461e-05
5.22941e-05
5.2294e-05
5.4439e-05
5.39966e-05
5.24459e-05
5.22925e-05
5.22941e-05
5.40021e-05
5.4028e-05
5.55935e-05
5.2317e-05
5.2318e-05
5.33133e-05
5.33128e-05
5.40312e-05
5.55912e-05
5.23169e-05
5.23146e-05
5.33143e-05
5.33156e-05
5.23184e-05
5.3315e-05
5.33139e-05
5.40261e-05
5.55964e-05
5.23185e-05
5.33175e-05
5.33144e-05
5.55918e-05
5.57168e-05
5.36319e-05
5.34519e-05
5.34514e-05
5.26088e-05
5.26098e-05
5.57145e-05
5.36333e-05
5.3453e-05
5.34546e-05
5.26093e-05
5.26093e-05
5.34541e-05
5.26121e-05
5.26173e-05
5.57202e-05
5.36334e-05
5.34547e-05
5.26152e-05
5.26186e-05
5.3642e-05
5.30637e-05
5.18091e-05
5.15895e-05
5.15913e-05
5.06383e-05
5.06413e-05
5.30661e-05
5.18154e-05
5.15893e-05
5.15883e-05
5.06373e-05
5.0636e-05
5.15967e-05
5.06447e-05
5.06424e-05
5.30642e-05
5.18075e-05
5.15974e-05
5.06396e-05
5.06419e-05
5.18099e-05
5.23254e-05
5.91181e-05
5.08551e-05
5.08584e-05
5.60262e-05
5.60257e-05
5.2333e-05
5.91151e-05
5.0854e-05
5.08532e-05
5.60258e-05
5.60272e-05
5.08586e-05
5.60258e-05
5.6026e-05
5.2324e-05
5.91177e-05
5.08577e-05
5.60264e-05
5.60251e-05
5.91169e-05
5.98183e-05
5.93292e-05
5.72666e-05
5.72642e-05
5.78214e-05
5.7817e-05
5.98136e-05
5.932e-05
5.72669e-05
5.72677e-05
5.78226e-05
5.78224e-05
5.72658e-05
5.78171e-05
5.78197e-05
5.98177e-05
5.9329e-05
5.72655e-05
5.78229e-05
5.78203e-05
5.93252e-05
5.79885e-05
4.81053e-05
5.69189e-05
5.69141e-05
4.81371e-05
4.81387e-05
5.79811e-05
4.81115e-05
5.6921e-05
5.69196e-05
4.81394e-05
4.81378e-05
5.69173e-05
4.81454e-05
4.81418e-05
5.79887e-05
4.81091e-05
5.69189e-05
4.81449e-05
4.81449e-05
4.81115e-05
4.71951e-05
4.59253e-05
4.61965e-05
4.61997e-05
4.44127e-05
4.44166e-05
4.72023e-05
4.59304e-05
4.61983e-05
4.61975e-05
4.44132e-05
4.44139e-05
4.62028e-05
4.44206e-05
4.44199e-05
4.7199e-05
4.59278e-05
4.62056e-05
4.4419e-05
4.44215e-05
4.59315e-05
4.67882e-05
5.61352e-05
4.4626e-05
4.46295e-05
5.24258e-05
5.24252e-05
4.67911e-05
5.61323e-05
4.46259e-05
4.46272e-05
5.2423e-05
5.24261e-05
4.46327e-05
5.24211e-05
5.24264e-05
4.67898e-05
5.6134e-05
4.46338e-05
5.24227e-05
5.24237e-05
5.6135e-05
5.76699e-05
6.3349e-05
5.53807e-05
5.53797e-05
6.09184e-05
6.09175e-05
5.76672e-05
6.33472e-05
5.53785e-05
5.53806e-05
6.09175e-05
6.09174e-05
5.53803e-05
6.09173e-05
6.09174e-05
5.76684e-05
6.33473e-05
5.5378e-05
6.0917e-05
6.09161e-05
6.33466e-05
6.3735e-05
6.23848e-05
6.16691e-05
6.16683e-05
6.16741e-05
6.16741e-05
6.37336e-05
6.23865e-05
6.16685e-05
6.1668e-05
6.16746e-05
6.16733e-05
6.16684e-05
6.16768e-05
6.16749e-05
6.37333e-05
6.23853e-05
6.16674e-05
6.16758e-05
6.16751e-05
6.23863e-05
6.1301e-05
5.39026e-05
6.04683e-05
6.04694e-05
5.33907e-05
5.33912e-05
6.13032e-05
5.39043e-05
6.04705e-05
6.0468e-05
5.3393e-05
5.33914e-05
6.04718e-05
5.33973e-05
5.33954e-05
6.13018e-05
5.3905e-05
6.04737e-05
5.33978e-05
5.33983e-05
5.3907e-05
5.30059e-05
4.92222e-05
5.14975e-05
5.14977e-05
4.77152e-05
4.77151e-05
5.30075e-05
4.92225e-05
5.14995e-05
5.14984e-05
4.77161e-05
4.7716e-05
5.15018e-05
4.77187e-05
4.7718e-05
5.30081e-05
4.92236e-05
5.15047e-05
4.77195e-05
4.77197e-05
4.92244e-05
4.90114e-05
4.86623e-05
4.70916e-05
4.70916e-05
4.64774e-05
4.64779e-05
4.90116e-05
4.86623e-05
4.70921e-05
4.70922e-05
4.64772e-05
4.64777e-05
4.7094e-05
4.64791e-05
4.64793e-05
4.90125e-05
4.86627e-05
4.70952e-05
4.64796e-05
4.64794e-05
4.86633e-05
4.88344e-05
5.01016e-05
4.65099e-05
4.65105e-05
4.76174e-05
4.76192e-05
4.88346e-05
5.01029e-05
4.65096e-05
4.65102e-05
4.76174e-05
4.76181e-05
4.65118e-05
4.76199e-05
4.762e-05
4.88347e-05
5.01026e-05
4.65117e-05
4.76194e-05
4.76195e-05
5.01035e-05
5.03209e-05
5.07275e-05
4.79825e-05
4.79841e-05
4.84373e-05
4.84383e-05
5.03224e-05
5.07285e-05
4.79822e-05
4.79833e-05
4.84382e-05
4.84367e-05
4.79852e-05
4.84408e-05
4.84395e-05
5.03218e-05
5.07279e-05
4.79846e-05
4.84399e-05
4.84405e-05
5.07293e-05
5.06129e-05
4.76776e-05
4.76784e-05
5.06139e-05
4.76789e-05
4.76766e-05
3.83651e-05
3.83634e-05
3.83655e-05
4.76795e-05
5.06131e-05
4.76811e-05
3.73773e-05
3.73765e-05
3.7377e-05
3.7377e-05
3.73701e-05
3.73777e-05
3.73043e-05
3.73768e-05
3.73702e-05
3.73777e-05
3.73768e-05
3.73043e-05
3.73741e-05
3.72959e-05
3.72959e-05
3.58798e-05
4.0872e-05
3.66033e-05
4.51467e-05
5.51147e-05
6.48951e-05
3.58803e-05
4.08712e-05
3.66034e-05
4.51465e-05
3.58932e-05
3.58933e-05
3.58932e-05
3.44005e-05
3.44005e-05
3.44005e-05
3.44005e-05
3.52758e-05
3.56384e-05
3.58929e-05
3.53771e-05
3.60475e-05
3.42365e-05
3.53822e-05
5.51168e-05
6.48994e-05
3.52758e-05
3.58929e-05
3.5638e-05
3.53771e-05
3.60475e-05
3.53822e-05
3.42375e-05
3.65972e-05
3.65977e-05
3.5279e-05
3.40641e-05
3.40633e-05
3.39657e-05
5.13534e-05
3.46793e-05
5.46248e-05
7.65447e-05
8.08614e-05
3.39682e-05
5.13543e-05
3.46789e-05
5.46254e-05
3.39296e-05
3.39297e-05
3.39297e-05
3.25854e-05
3.25854e-05
3.25855e-05