/*--------------------------------*- C++ -*----------------------------------*\
| =========                 |                                                 |
| \\      /  F ield         | OpenFOAM: The Open Source CFD Toolbox           |
|  \\    /   O peration     | Version:  v1906                                 |
|   \\  /    A nd           | Web:      www.OpenFOAM.com                      |
|    \\/     M anipulation  |                                                 |
\*---------------------------------------------------------------------------*/
FoamFile
{
    version     2.0;
    format      ascii;
    class       volScalarField;
    location    "375";
    object      nut;
}
// * * * * * * * * * * * * * * * * * * * * * * * * * * * * * * * * * * * * * //

dimensions      [0 2 -1 0 0 0 0];


internalField   nonuniform List<scalar> 
171728
(
0.000233973
0.000233116
0.000233116
0.000233423
0.000232532
0.000227802
0.000227801
0.000223867
0.000230516
0.00022032
0.000220318
0.000209109
0.000227799
0.000211665
0.000211661
0.000193785
0.000224433
0.00020265
0.000202644
0.000179709
0.000220552
0.000193772
0.000193765
0.000167339
0.000216304
0.000185275
0.000185267
0.000156587
0.00021182
0.000177234
0.000177226
0.000147206
0.000207207
0.000169688
0.00016968
0.00013895
0.000202545
0.000162611
0.000162603
0.000131614
0.000197889
0.000155949
0.000155941
0.000124954
0.000193275
0.000149646
0.000149638
0.000118816
0.000188683
0.000143665
0.000143657
0.000113166
0.000184151
0.000137952
0.000137943
0.000107933
0.000179706
0.000132462
0.000132454
0.000103055
0.000175338
0.00012719
0.000127181
9.84356e-05
0.000171035
0.00012215
0.000122141
9.42512e-05
0.000166785
0.000117371
0.00011736
9.06583e-05
0.000162587
0.000112887
0.000112877
8.77319e-05
0.000158414
0.000108755
0.000108745
8.53867e-05
0.000154263
0.000105025
0.000105015
8.36662e-05
0.000150142
0.000101712
0.000101702
8.25761e-05
0.000146062
9.88945e-05
9.88861e-05
8.20934e-05
0.000142046
9.65824e-05
9.65777e-05
8.21469e-05
0.000138115
9.47938e-05
9.47878e-05
8.26839e-05
0.000134294
9.35216e-05
9.35134e-05
8.36599e-05
0.000130634
9.27514e-05
9.27509e-05
8.5014e-05
0.000127154
9.24656e-05
9.24658e-05
8.66869e-05
0.000123893
9.26373e-05
9.26326e-05
8.86437e-05
0.000120906
9.32407e-05
9.32367e-05
9.07846e-05
0.000118181
9.42187e-05
9.42254e-05
9.31003e-05
0.000115783
9.5567e-05
9.55642e-05
9.55582e-05
0.000113742
9.72572e-05
9.72397e-05
9.81193e-05
0.000112032
9.91424e-05
9.91751e-05
0.000100706
0.000110629
0.00010137
0.000101329
0.000103377
0.000109794
0.000103787
0.000103845
0.000106047
0.000108933
0.000106312
0.000106229
0.000108884
0.000109063
0.000109118
0.000109215
0.000111461
0.0001087
0.000111937
0.000111853
0.000114268
0.00010969
0.000114922
0.000115013
0.000116973
0.000109996
0.000117974
0.000117817
0.000119672
0.000111443
0.000120983
0.000121301
0.00012237
0.000112723
0.000124383
0.000123926
0.000124861
0.000114491
0.000127321
0.000127716
0.000127789
0.00011644
0.000130622
0.000130462
0.000130133
0.000118631
0.000133811
0.000133826
0.000132741
0.000121107
0.000136985
0.000137009
0.000135288
0.000123749
0.000140156
0.000140117
0.000137753
0.000126582
0.000143266
0.000143294
0.000140143
0.000129533
0.000146365
0.000146369
0.000142555
0.000132645
0.000149402
0.000149398
0.000144858
0.000135889
0.000152391
0.000152395
0.000147116
0.000139213
0.000155342
0.00015534
0.000149345
0.000142609
0.000158216
0.000158215
0.000151499
0.000146086
0.000161031
0.000161034
0.000153598
0.000149574
0.000163801
0.00016379
0.000155648
0.000153119
0.000166461
0.000166475
0.000157622
0.000156649
0.000169118
0.000169098
0.000159566
0.000160215
0.000171635
0.000171652
0.000161412
0.00016371
0.000174141
0.000174118
0.000163239
0.000167247
0.000176532
0.000176551
0.00016497
0.000170705
0.000178882
0.000178852
0.00016667
0.000174108
0.000181129
0.000181156
0.000168282
0.000177502
0.00018331
0.000183273
0.000169854
0.000180863
0.000185472
0.000185502
0.000171382
0.000183886
0.000187363
0.000187327
0.000172739
0.000187475
0.000189549
0.000189566
0.000174284
0.000189998
0.000191141
0.000191128
0.000175368
0.000193551
0.000193162
0.000193146
0.000176852
0.000196078
0.000194852
0.000194865
0.000177893
0.000199058
0.000196239
0.000196215
0.00017905
0.000201648
0.000198227
0.000198227
0.000180273
0.000204622
0.000199442
0.000199427
0.000181165
0.000206174
0.000200751
0.00020076
0.000182079
0.00021053
0.000202749
0.000202726
0.00018341
0.000210153
0.000202436
0.000202423
0.000183165
0.0002145
0.000205239
0.000205234
0.000185126
0.000215822
0.000205492
0.000205474
0.000184991
0.00021845
0.000207252
0.000207253
0.000186938
0.000217185
0.000205095
0.00020507
0.000183193
0.000225641
0.000213723
0.000213734
0.000193521
0.000225609
0.000206429
0.000206431
0.000184243
0.000208228
0.000191659
0.000191614
0.000169655
0.000242596
0.000234135
0.000234139
0.000209976
0.000282611
0.000257055
0.000257091
0.000220574
0.000215487
0.000182841
0.000182822
0.000161868
0.000165687
0.000157865
0.000157848
0.000145537
0.000204416
0.000215163
0.000215161
0.000192854
0.000297643
0.000263979
0.000263963
0.000229791
0.000340243
0.000278107
0.000278081
0.000231805
0.000270286
0.000221415
0.000221409
0.00019265
0.000210558
0.000192469
0.000192463
0.000171954
0.000194685
0.000188016
0.000188008
0.000169641
0.000206776
0.000197792
0.000197779
0.000176994
0.000225818
0.000204357
0.00020435
0.000183571
0.000234266
0.000234448
0.000234449
0.000234267
0.000234448
0.000234449
0.000234274
0.000234274
0.000234274
0.000234274
0.000234448
0.000234448
0.000234266
0.000234448
0.000234448
0.000234266
0.000233423
0.000226204
0.000233116
0.000233114
0.000229361
0.000229357
0.000233423
0.000226205
0.000233114
0.000233114
0.000229359
0.000229356
0.000233116
0.000229364
0.000229361
0.000233423
0.000226202
0.000233114
0.000229363
0.000229359
0.000226202
0.000223867
0.00021223
0.000227799
0.000227794
0.000222332
0.000222326
0.000223868
0.000212234
0.000227797
0.000227792
0.000222332
0.000222323
0.000227798
0.000222339
0.000222331
0.000223866
0.000212227
0.000227797
0.000222336
0.000222331
0.000212228
0.000209111
0.00019706
0.000220313
0.000220307
0.000213879
0.000213874
0.000209112
0.000197066
0.000220314
0.000220304
0.000213883
0.000213869
0.000220311
0.00021389
0.000213877
0.000209108
0.000197057
0.000220313
0.000213886
0.000213882
0.000197058
0.000193788
0.000182876
0.000211654
0.000211648
0.00020489
0.000204884
0.000193792
0.000182883
0.000211658
0.000211643
0.000204897
0.000204879
0.000211651
0.000204905
0.000204887
0.000193784
0.000182872
0.000211657
0.000204899
0.000204896
0.000182872
0.000179713
0.000170268
0.000202634
0.000202628
0.000195943
0.000195937
0.000179717
0.000170274
0.000202643
0.000202622
0.000195954
0.000195931
0.000202631
0.000195962
0.00019594
0.000179708
0.000170263
0.000202641
0.000195955
0.000195953
0.000170264
0.000167344
0.000159242
0.000193753
0.000193747
0.000187336
0.000187331
0.000167349
0.000159249
0.000193765
0.000193741
0.000187351
0.000187324
0.00019375
0.000187359
0.000187333
0.000167339
0.000159238
0.000193764
0.000187351
0.00018735
0.000159238
0.000156592
0.000149613
0.000185253
0.000185247
0.000179173
0.000179167
0.000156597
0.00014962
0.000185268
0.00018524
0.000179191
0.00017916
0.000185249
0.000179198
0.00017917
0.000156587
0.000149608
0.000185267
0.000179189
0.00017919
0.000149608
0.000147212
0.000141107
0.000177208
0.000177203
0.000171501
0.000171496
0.000147216
0.000141113
0.000177227
0.000177195
0.000171521
0.000171488
0.000177205
0.000171529
0.000171498
0.000147206
0.000141101
0.000177225
0.00017152
0.000171521
0.000141101
0.000138956
0.000133547
0.00016966
0.000169655
0.000164309
0.000164304
0.000138961
0.000133554
0.000169681
0.000169647
0.000164332
0.000164296
0.000169658
0.000164339
0.000164307
0.00013895
0.000133541
0.00016968
0.000164331
0.000164332
0.000133541
0.000131621
0.000126686
0.000162581
0.000162576
0.000157546
0.000157541
0.000131627
0.000126693
0.000162605
0.000162567
0.000157572
0.000157533
0.000162578
0.000157579
0.000157545
0.000131615
0.000126679
0.000162604
0.00015757
0.000157571
0.000126679
0.000124961
0.000120362
0.000155916
0.000155912
0.000151157
0.000151152
0.000124966
0.000120369
0.000155942
0.000155903
0.000151184
0.000151144
0.000155915
0.000151192
0.000151156
0.000124954
0.000120355
0.000155942
0.000151183
0.000151184
0.000120355
0.000118821
0.000114425
0.000149612
0.000149607
0.000145095
0.00014509
0.000118828
0.000114433
0.000149639
0.000149599
0.000145124
0.000145083
0.000149611
0.000145132
0.000145095
0.000118816
0.000114418
0.000149639
0.000145123
0.000145124
0.000114418
0.000113174
0.000108834
0.00014363
0.000143624
0.000139318
0.000139313
0.000113179
0.000108843
0.000143658
0.000143616
0.000139347
0.000139305
0.000143629
0.000139356
0.000139319
0.000113167
0.00010883
0.000143658
0.000139347
0.000139348
0.000108828
0.000107938
0.000103703
0.000137916
0.000137909
0.000133776
0.00013377
0.000107945
0.000103707
0.000137944
0.000137901
0.000133805
0.000133762
0.000137915
0.000133814
0.000133776
0.000107934
0.000103695
0.000137944
0.000133805
0.000133805
0.000103693
0.000103064
9.91274e-05
0.000132425
0.000132418
0.000128446
0.000128438
0.000103069
9.91335e-05
0.000132453
0.000132411
0.000128473
0.000128431
0.000132425
0.000128485
0.000128447
0.000103058
9.91216e-05
0.000132454
0.000128475
0.000128476
9.91202e-05
9.84422e-05
9.49911e-05
0.000127151
0.000127144
0.000123345
0.000123337
9.84477e-05
9.4995e-05
0.000127178
0.000127136
0.000123371
0.000123329
0.000127152
0.000123385
0.000123347
9.84362e-05
9.49831e-05
0.000127181
0.000123374
0.000123375
9.49825e-05
9.42593e-05
9.14359e-05
0.000122111
0.000122103
0.000118477
0.00011847
9.42634e-05
9.14409e-05
0.000122137
0.000122095
0.000118502
0.000118461
0.000122113
0.000118517
0.00011848
9.42527e-05
9.14308e-05
0.000122141
0.000118506
0.000118507
9.14289e-05
9.0664e-05
8.83753e-05
0.000117331
0.000117324
0.000113921
0.000113916
9.06697e-05
8.83814e-05
0.000117356
0.000117314
0.000113945
0.000113905
0.000117334
0.000113962
0.000113926
9.066e-05
8.83707e-05
0.000117361
0.000113951
0.000113951
8.83715e-05
8.77356e-05
8.59101e-05
0.000112847
0.00011284
0.00010969
0.000109685
8.77415e-05
8.59142e-05
0.00011287
0.00011283
0.000109714
0.000109675
0.000112851
0.000109731
0.000109696
8.77295e-05
8.59031e-05
0.000112877
0.00010972
0.00010972
8.5906e-05
8.5391e-05
8.40698e-05
0.000108716
0.000108709
0.000105847
0.00010584
8.53961e-05
8.40754e-05
0.000108737
0.000108699
0.000105869
0.000105831
0.000108721
0.000105886
0.000105853
8.53857e-05
8.4067e-05
0.000108745
0.000105876
0.000105876
8.40663e-05
8.36691e-05
8.28593e-05
0.000104988
0.000104979
0.000102454
0.000102444
8.36758e-05
8.28625e-05
0.000105007
0.00010497
0.000102473
0.000102437
0.000104992
0.00010249
0.000102458
8.36691e-05
8.28579e-05
0.000105015
0.000102481
0.00010248
8.28533e-05
8.25791e-05
8.22617e-05
0.000101676
0.000101666
9.95166e-05
9.95044e-05
8.25843e-05
8.22605e-05
0.000101694
0.000101658
9.95332e-05
9.94982e-05
0.000101681
9.95492e-05
9.95202e-05
8.25791e-05
8.22576e-05
0.000101703
9.95412e-05
9.9541e-05
8.22514e-05
8.20985e-05
8.22057e-05
9.88613e-05
9.88502e-05
9.70807e-05
9.70678e-05
8.20999e-05
8.22095e-05
9.88783e-05
9.88428e-05
9.70958e-05
9.70626e-05
9.88652e-05
9.71111e-05
9.70842e-05
8.20955e-05
8.22036e-05
9.88861e-05
9.7104e-05
9.7104e-05
8.21988e-05
8.21493e-05
8.26492e-05
9.65548e-05
9.65398e-05
9.51652e-05
9.51519e-05
8.21531e-05
8.26499e-05
9.65703e-05
9.65361e-05
9.5179e-05
9.51453e-05
9.65584e-05
9.51933e-05
9.51654e-05
8.21468e-05
8.26444e-05
9.65778e-05
9.51848e-05
9.51829e-05
8.26413e-05
8.26896e-05
8.35288e-05
9.47656e-05
9.47532e-05
9.37643e-05
9.37509e-05
8.26941e-05
8.3533e-05
9.47798e-05
9.47482e-05
9.37768e-05
9.37469e-05
9.4769e-05
9.37903e-05
9.37659e-05
8.26872e-05
8.35323e-05
9.47862e-05
9.37843e-05
9.37816e-05
8.35311e-05
8.36595e-05
8.48083e-05
9.34976e-05
9.34832e-05
9.28697e-05
9.28575e-05
8.3664e-05
8.48118e-05
9.35105e-05
9.3476e-05
9.28808e-05
9.28589e-05
9.34985e-05
9.28947e-05
9.28743e-05
8.36633e-05
8.48045e-05
9.35138e-05
9.28941e-05
9.28883e-05
8.48121e-05
8.50104e-05
8.64254e-05
9.27283e-05
9.27151e-05
9.24687e-05
9.24545e-05
8.50146e-05
8.6425e-05
9.27399e-05
9.27157e-05
9.24785e-05
9.24508e-05
9.2732e-05
9.24895e-05
9.24686e-05
8.50163e-05
8.64083e-05
9.27457e-05
9.24839e-05
9.2481e-05
8.6422e-05
8.66951e-05
8.83121e-05
9.24426e-05
9.24318e-05
9.25418e-05
9.25251e-05
8.66914e-05
8.83215e-05
9.24526e-05
9.24329e-05
9.25504e-05
9.2517e-05
9.24427e-05
9.25578e-05
9.25436e-05
8.66778e-05
8.83188e-05
9.24547e-05
9.25477e-05
9.25543e-05
8.83189e-05
8.864e-05
9.04076e-05
9.26187e-05
9.26056e-05
9.30386e-05
9.30191e-05
8.86388e-05
9.04243e-05
9.26277e-05
9.26018e-05
9.30461e-05
9.30237e-05
9.26251e-05
9.30497e-05
9.3036e-05
8.86329e-05
9.04326e-05
9.26357e-05
9.30526e-05
9.30455e-05
9.04141e-05
9.0782e-05
9.26933e-05
9.32356e-05
9.32111e-05
9.3909e-05
9.39098e-05
9.07907e-05
9.27139e-05
9.32436e-05
9.32081e-05
9.39145e-05
9.39157e-05
9.3228e-05
9.39385e-05
9.39311e-05
9.08026e-05
9.27041e-05
9.32372e-05
9.39429e-05
9.39392e-05
9.27053e-05
9.30791e-05
9.51553e-05
9.42005e-05
9.4191e-05
9.51966e-05
9.51847e-05
9.31159e-05
9.51284e-05
9.42064e-05
9.41981e-05
9.52019e-05
9.51708e-05
9.42163e-05
9.52117e-05
9.51869e-05
9.31119e-05
9.51189e-05
9.42241e-05
9.51959e-05
9.51934e-05
9.51367e-05
9.558e-05
9.76444e-05
9.55517e-05
9.55408e-05
9.67866e-05
9.67733e-05
9.55677e-05
9.76415e-05
9.55571e-05
9.55393e-05
9.67903e-05
9.67798e-05
9.55549e-05
9.67992e-05
9.67891e-05
9.55542e-05
9.76561e-05
9.55613e-05
9.68036e-05
9.6795e-05
9.76665e-05
9.80967e-05
0.000100251
9.72279e-05
9.72311e-05
9.86348e-05
9.86031e-05
9.80924e-05
0.00010025
9.72318e-05
9.72153e-05
9.86373e-05
9.86092e-05
9.72291e-05
9.86268e-05
9.86428e-05
9.81007e-05
0.00010024
9.72344e-05
9.86309e-05
9.86468e-05
0.000100238
0.000100706
0.000102926
9.91699e-05
9.91193e-05
0.000100776
0.000100812
0.000100696
0.000102931
9.91732e-05
9.9154e-05
0.000100779
0.000100803
9.91536e-05
0.000100838
0.000100825
0.000100705
0.000102933
9.9158e-05
0.000100827
0.000100829
0.000102916
0.000103394
0.000105598
0.000101306
0.000101345
0.000103196
0.000103086
0.000103411
0.000105553
0.000101307
0.000101304
0.000103198
0.000103115
0.000101386
0.000103106
0.00010306
0.000103388
0.000105567
0.000101388
0.000103131
0.000103064
0.000105577
0.000106109
0.000108243
0.000103837
0.000103767
0.000105549
0.000105692
0.000106044
0.000108365
0.000103842
0.000103829
0.000105547
0.000105636
0.000103723
0.00010572
0.000105783
0.000106078
0.000108343
0.000103728
0.000105665
0.000105783
0.000108396
0.000108705
0.000111163
0.000106228
0.000106284
0.000108583
0.00010834
0.000108813
0.000110992
0.000106224
0.000106202
0.00010859
0.000108448
0.000106367
0.000108352
0.000108327
0.000108774
0.00011102
0.000106365
0.000108456
0.000108334
0.00011095
0.000111657
0.000113576
0.000109227
0.000109105
0.000110948
0.000111255
0.000111531
0.000113801
0.000109236
0.000109203
0.000110939
0.000111079
0.00010911
0.000111289
0.000111233
0.000111572
0.000113738
0.000109117
0.000111111
0.000111225
0.000113821
0.000114057
0.000116728
0.000111759
0.000111907
0.000114453
0.000114066
0.000114251
0.000116419
0.000111751
0.000111826
0.000114473
0.00011436
0.000111887
0.000114075
0.00011417
0.000114179
0.000116593
0.000111883
0.000114368
0.000114187
0.000116438
0.000117225
0.000118928
0.000115111
0.000114911
0.00011694
0.000117288
0.000116937
0.000119283
0.000115125
0.000115002
0.000116914
0.000116863
0.000114949
0.000117317
0.000117188
0.000117084
0.000118954
0.00011496
0.00011689
0.000117165
0.00011921
0.000119402
0.000122028
0.000117773
0.000117943
0.000120405
0.00012009
0.000119721
0.000121696
0.000117758
0.000117789
0.00012044
0.00012065
0.000118002
0.000120111
0.00012037
0.000119465
0.000122171
0.000117988
0.000120671
0.000120403
0.000121932
0.000122506
0.000124439
0.000121154
0.000120967
0.000123382
0.000123602
0.000122215
0.000124703
0.000121182
0.000121284
0.000123355
0.000123035
0.000121045
0.000123612
0.000123249
0.000122609
0.000124174
0.00012107
0.000123043
0.000123221
0.000124349
0.000124913
0.000127203
0.0001242
0.000124369
0.000126635
0.000126527
0.000125161
0.000127065
0.000124173
0.000123914
0.000126656
0.000126885
0.000124134
0.000126554
0.000126786
0.000124653
0.000127436
0.000124107
0.000126914
0.000126805
0.000127335
0.000127653
0.000129737
0.000127416
0.000127292
0.000129794
0.00012977
0.0001275
0.000129746
0.000127443
0.000127686
0.000129797
0.000129701
0.000127568
0.000129788
0.000129785
0.000127928
0.000129627
0.000127594
0.000129719
0.000129787
0.000129707
0.000130191
0.000132312
0.000130601
0.000130607
0.000132986
0.000133014
0.000130221
0.00013234
0.000130596
0.000130447
0.000132983
0.000132967
0.000130554
0.000133029
0.000132961
0.000130025
0.000132321
0.000130548
0.000132984
0.000132959
0.00013229
0.000132747
0.000134838
0.000133775
0.000133794
0.00013618
0.000136166
0.000132766
0.000134831
0.000133778
0.000133807
0.000136188
0.000136208
0.000133773
0.000136184
0.000136197
0.000132798
0.000134861
0.000133775
0.000136228
0.000136204
0.000134858
0.000135273
0.000137329
0.000136983
0.000136966
0.000139353
0.000139352
0.000135266
0.000137332
0.00013699
0.000136989
0.000139355
0.000139312
0.000137002
0.000139371
0.000139382
0.000135274
0.000137296
0.000137009
0.000139334
0.000139384
0.000137343
0.000137742
0.000139764
0.000140139
0.000140137
0.000142492
0.000142471
0.000137748
0.00013975
0.000140141
0.000140095
0.000142498
0.000142487
0.000140158
0.000142487
0.000142467
0.000137711
0.000139765
0.000140159
0.000142505
0.000142473
0.000139738
0.000140168
0.000142132
0.000143268
0.000143251
0.000145571
0.000145579
0.000140155
0.000142146
0.000143276
0.000143276
0.000145577
0.000145586
0.000143244
0.000145597
0.000145601
0.00014018
0.000142147
0.000143251
0.000145608
0.000145608
0.000142157
0.000142521
0.000144471
0.000146336
0.000146345
0.000148628
0.000148626
0.000142538
0.000144473
0.000146343
0.000146346
0.000148633
0.000148619
0.00014638
0.000148646
0.000148655
0.000142533
0.000144464
0.000146386
0.000148642
0.000148661
0.000144486
0.000144852
0.000146757
0.000149388
0.000149384
0.000151642
0.000151633
0.000144851
0.000146755
0.000149394
0.000149376
0.000151649
0.000151631
0.000149403
0.000151648
0.000151637
0.000144843
0.000146752
0.000149408
0.00015165
0.000151644
0.00014675
0.000147122
0.000148982
0.000152383
0.000152375
0.000154593
0.000154593
0.00014712
0.000148986
0.00015239
0.000152375
0.0001546
0.000154588
0.000152381
0.000154611
0.000154606
0.000147118
0.000148983
0.000152389
0.00015461
0.000154613
0.000148991
0.000149336
0.000151154
0.000155325
0.000155324
0.000157485
0.000157483
0.000149341
0.000151156
0.000155332
0.000155319
0.000157493
0.00015748
0.000155336
0.0001575
0.000157496
0.000149336
0.000151152
0.000155343
0.000157503
0.000157505
0.00015116
0.000151492
0.000153272
0.000158197
0.000158197
0.000160324
0.00016032
0.000151495
0.000153275
0.000158205
0.000158192
0.000160332
0.000160314
0.000158213
0.000160338
0.00016033
0.00015149
0.000153267
0.000158221
0.000160336
0.000160338
0.000153275
0.000153598
0.000155327
0.000161023
0.000161015
0.000163088
0.000163092
0.000153599
0.000155332
0.000161032
0.000161014
0.000163095
0.000163083
0.000161021
0.00016311
0.000163101
0.000153593
0.000155326
0.00016103
0.000163106
0.000163109
0.000155333
0.000155638
0.00015733
0.000163772
0.000163781
0.000165798
0.000165788
0.000155647
0.000157329
0.000163779
0.000163765
0.000165808
0.000165788
0.000163795
0.000165806
0.000165798
0.000155637
0.000157324
0.000163802
0.00016581
0.000165809
0.000157331
0.000157628
0.000159263
0.000166461
0.000166445
0.000168427
0.000168438
0.000157621
0.000159275
0.000166473
0.000166454
0.000168434
0.000168424
0.000166451
0.000168458
0.000168449
0.000157622
0.000159266
0.000166463
0.00016845
0.000168457
0.000159275
0.000159547
0.000161159
0.000169078
0.000169096
0.000171012
0.000170995
0.000159566
0.000161151
0.000169085
0.00016907
0.000171022
0.000170997
0.000169111
0.000171013
0.000171003
0.000159549
0.000161147
0.000169118
0.000171019
0.000171013
0.000161152
0.000161429
0.000162957
0.000171642
0.000171618
0.000173484
0.000173501
0.000161413
0.000162976
0.000171654
0.000171632
0.000173492
0.000173483
0.000171623
0.000173521
0.000173511
0.000161418
0.000162963
0.000171635
0.000173509
0.000173522
0.000162976
0.00016321
0.000164743
0.000174095
0.000174118
0.000175934
0.000175917
0.000163238
0.000164733
0.000174102
0.000174089
0.000175945
0.000175924
0.000174133
0.000175937
0.000175928
0.000163216
0.000164734
0.000174142
0.000175948
0.000175938
0.000164734
0.000164991
0.000166428
0.000176538
0.000176513
0.000178281
0.000178294
0.000164972
0.000166446
0.000176552
0.00017653
0.000178288
0.000178265
0.000176519
0.000178314
0.000178298
0.000164982
0.000166423
0.000176531
0.000178292
0.000178309
0.000166442
0.000166645
0.000168063
0.000178837
0.000178859
0.000180537
0.000180525
0.000166673
0.000168058
0.000178843
0.000178822
0.000180553
0.000180543
0.000178867
0.000180548
0.000180543
0.000166641
0.000168069
0.000178877
0.000180568
0.000180557
0.000168064
0.000168292
0.000169664
0.000181128
0.000181108
0.000182777
0.000182786
0.000168278
0.000169678
0.000181145
0.000181132
0.000182781
0.000182751
0.000181123
0.000182808
0.000182782
0.000168297
0.000169649
0.000181137
0.000182777
0.000182788
0.000169666
0.000169846
0.000171168
0.000183272
0.000183288
0.0001849
0.000184887
0.000169867
0.000171164
0.000183276
0.000183245
0.000184918
0.000184902
0.000183284
0.00018491
0.00018491
0.000169829
0.000171174
0.000183291
0.000184932
0.00018493
0.000171176
0.000171377
0.000172588
0.000185465
0.000185449
0.000186855
0.00018687
0.000171366
0.000172607
0.000185486
0.000185472
0.000186862
0.000186844
0.000185474
0.000186895
0.000186868
0.000171386
0.000172582
0.000185496
0.000186868
0.000186872
0.000172592
0.000172735
0.000174108
0.000187324
0.000187339
0.000189062
0.000189046
0.000172761
0.000174098
0.000187329
0.000187305
0.000189076
0.000189043
0.000187332
0.000189068
0.000189058
0.000172726
0.000174099
0.000187332
0.000189074
0.000189075
0.000174103
0.000174284
0.000175227
0.000189541
0.000189526
0.000190592
0.000190602
0.000174272
0.000175244
0.000189558
0.000189529
0.000190606
0.000190598
0.000189544
0.000190626
0.00019061
0.00017428
0.000175235
0.000189569
0.000190627
0.000190627
0.000175243
0.000175353
0.000176756
0.000191104
0.000191115
0.000192829
0.000192829
0.000175377
0.000176758
0.000191115
0.000191105
0.000192837
0.0001928
0.000191119
0.000192857
0.000192841
0.00017536
0.000176739
0.000191127
0.000192831
0.000192843
0.000176752
0.000176857
0.00017771
0.000193143
0.000193136
0.000194182
0.00019417
0.000176855
0.000177708
0.000193154
0.000193113
0.000194202
0.000194186
0.000193146
0.000194189
0.000194165
0.00017684
0.000177713
0.000193155
0.000194208
0.00019419
0.000177703
0.000177893
0.000179045
0.000194833
0.000194829
0.00019611
0.000196131
0.000177897
0.000179066
0.000194851
0.000194839
0.000196119
0.000196096
0.000194832
0.000196168
0.000196165
0.000177903
0.000179041
0.000194856
0.000196145
0.000196173
0.000179071
0.000179031
0.000180015
0.000196194
0.000196205
0.000197479
0.000197448
0.000179048
0.000179998
0.000196203
0.000196175
0.000197492
0.000197457
0.000196228
0.000197462
0.000197421
0.000179023
0.00018
0.000196234
0.000197462
0.000197436
0.000179973
0.000180305
0.000181216
0.000198231
0.00019821
0.000199376
0.000199418
0.000180293
0.000181252
0.000198245
0.000198215
0.000199394
0.000199385
0.000198192
0.000199462
0.000199464
0.000180294
0.000181231
0.000198208
0.000199448
0.000199479
0.000181267
0.000181104
0.000181796
0.000199348
0.000199395
0.000199907
0.000199818
0.000181146
0.000181739
0.000199366
0.000199358
0.000199916
0.000199856
0.000199449
0.000199819
0.000199766
0.000181123
0.000181752
0.000199464
0.000199833
0.000199785
0.000181706
0.00018217
0.000183457
0.000200817
0.000200749
0.000202587
0.000202612
0.000182116
0.000183494
0.000200826
0.000200772
0.000202602
0.000202587
0.0002007
0.000202649
0.000202632
0.000182127
0.000183469
0.000200717
0.000202631
0.000202645
0.000183493
0.000183359
0.00018307
0.000202665
0.000202706
0.000202368
0.000202423
0.000183405
0.000183083
0.000202682
0.000202674
0.000202385
0.000202384
0.000202739
0.000202474
0.000202472
0.000183378
0.000183069
0.000202752
0.000202446
0.000202484
0.000183088
0.000183206
0.000185177
0.00020239
0.000202397
0.000204865
0.000204825
0.000183176
0.000185148
0.000202405
0.000202381
0.000204879
0.000204831
0.000202423
0.000204839
0.000204804
0.000183178
0.000185149
0.000202437
0.000204846
0.000204822
0.000185129
0.000185145
0.000184877
0.00020522
0.000205215
0.000205273
0.000205311
0.000185138
0.000184938
0.000205237
0.000205204
0.000205292
0.000205283
0.000205213
0.000205353
0.000205335
0.000185131
0.000184906
0.00020523
0.000205332
0.000205352
0.000184941
0.000184952
0.000187144
0.00020541
0.000205445
0.000207029
0.00020701
0.000184994
0.000187111
0.000205429
0.000205424
0.000207043
0.000207011
0.000205473
0.000207038
0.00020702
0.000184971
0.000187124
0.000205491
0.00020704
0.000207035
0.000187108
0.000186963
0.000183846
0.000207246
0.000207226
0.000205795
0.000205798
0.000186935
0.000183873
0.00020726
0.000207225
0.000205808
0.000205766
0.000207236
0.000205823
0.000205803
0.000186944
0.000183833
0.000207251
0.000205803
0.000205819
0.000183871
0.00018317
0.000192475
0.000205063
0.000205069
0.000211836
0.000211827
0.000183199
0.000192469
0.000205076
0.000205032
0.000211857
0.000211836
0.000205072
0.000211862
0.000211826
0.000183154
0.00019248
0.000205087
0.000211864
0.000211844
0.000192445
0.000193544
0.000188049
0.0002137
0.000213689
0.000213771
0.000213766
0.000193536
0.000188053
0.000213723
0.000213705
0.000213794
0.000213769
0.000213695
0.000213799
0.000213818
0.000193553
0.000188057
0.000213714
0.000213826
0.000213844
0.000188101
0.000184194
0.000169629
0.00020639
0.000206392
0.000194351
0.000194365
0.000184203
0.000169665
0.000206407
0.000206374
0.000194361
0.000194322
0.00020643
0.000194406
0.000194376
0.000184197
0.000169616
0.000206451
0.000194369
0.000194389
0.000169635
0.000169666
0.000205311
0.000191599
0.000191617
0.00022388
0.00022388
0.000169715
0.000205316
0.000191606
0.000191571
0.000223893
0.000223872
0.000191618
0.000223907
0.000223874
0.000169655
0.000205305
0.000191629
0.00022389
0.000223885
0.000205303
0.000209994
0.000227227
0.00023413
0.000234114
0.000256121
0.00025608
0.000209989
0.000227171
0.000234148
0.000234122
0.000256145
0.00025611
0.000234118
0.000256097
0.000256089
0.000209987
0.000227211
0.000234133
0.000256128
0.000256106
0.000227185
0.000220606
0.000167985
0.00025708
0.000257029
0.000197587
0.000197585
0.000220555
0.000168014
0.00025711
0.000257065
0.000197616
0.000197575
0.000257042
0.000197646
0.000197599
0.000220593
0.000167996
0.000257065
0.000197635
0.00019763
0.000168002
0.000161836
0.000144156
0.000182766
0.000182778
0.00016195
0.000161972
0.000161871
0.000144192
0.000182791
0.000182758
0.00016197
0.000161947
0.000182791
0.000162021
0.000161987
0.000161848
0.000144166
0.000182819
0.000162
0.000162014
0.000144182
0.000145512
0.000185879
0.0001578
0.00015782
0.000196634
0.000196626
0.000145536
0.000185872
0.000157817
0.000157798
0.000196634
0.000196624
0.000157837
0.000196624
0.000196631
0.000145519
0.000185869
0.00015786
0.000196627
0.000196632
0.000185875
0.000192874
0.000226893
0.000215175
0.000215163
0.000256319
0.000256304
0.000192868
0.000226891
0.00021518
0.000215161
0.000256333
0.000256293
0.000215165
0.000256332
0.0002563
0.000192862
0.000226877
0.000215169
0.000256319
0.000256312
0.000226872
0.000229815
0.000237888
0.000263964
0.000263949
0.000281407
0.000281398
0.000229814
0.000237903
0.000263979
0.000263936
0.000281428
0.000281378
0.000263946
0.000281442
0.000281395
0.000229799
0.000237881
0.000263958
0.000281419
0.000281411
0.000237882
0.000231798
0.000198164
0.000278036
0.000278038
0.000233702
0.000233702
0.000231814
0.000198181
0.000278071
0.000278011
0.000233737
0.000233691
0.000278047
0.000233768
0.000233727
0.000231795
0.00019817
0.000278077
0.000233759
0.000233762
0.000198179
0.000192627
0.000173471
0.000221352
0.000221348
0.000196619
0.000196612
0.000192643
0.000173479
0.000221383
0.000221342
0.000196641
0.00019661
0.000221373
0.000196659
0.000196628
0.000192632
0.000173473
0.000221407
0.000196654
0.000196655
0.000173476
0.000171949
0.000169255
0.000192432
0.000192425
0.000188136
0.000188131
0.000171956
0.00016926
0.000192451
0.000192422
0.00018815
0.000188124
0.000192437
0.000188164
0.000188138
0.000171949
0.000169251
0.000192461
0.000188156
0.000188154
0.000169252
0.000169643
0.000176066
0.000187988
0.000187983
0.000195149
0.000195153
0.000169648
0.000176079
0.000188001
0.000187975
0.000195164
0.000195139
0.00018799
0.000195184
0.000195155
0.000169639
0.000176064
0.000188005
0.000195169
0.000195168
0.000176068
0.000176992
0.000181454
0.000197759
0.000197762
0.000204744
0.000204745
0.000177005
0.000181463
0.000197773
0.000197751
0.000204758
0.000204738
0.000197767
0.000204773
0.000204753
0.00017699
0.000181454
0.00019778
0.000204766
0.000204769
0.000181461
0.000183565
0.000204331
0.000204332
0.000183572
0.000204344
0.000204325
0.000225828
0.000225818
0.000225829
0.00020434
0.000183564
0.000204354
0.00023473
0.000234746
0.000234729
0.000234729
0.000235117
0.000234798
0.000234701
0.000234727
0.000235118
0.000234798
0.000234727
0.000234701
0.000234867
0.000233566
0.000233566
0.000104651
3.87411e-05
0.000129118
3.98249e-05
2.16834e-05
2.28313e-05
0.000104643
3.87371e-05
0.000129114
3.98214e-05
0.000233973
0.000233973
0.000233973
0.000232935
0.000232935
0.000232935
0.000232935
0.000206196
9.36752e-05
0.000233969
0.000231994
0.000222614
8.72226e-05
0.000233611
2.16823e-05
2.28307e-05
0.00020619
0.000233969
9.36747e-05
0.000231994
0.000222622
0.000233611
8.72282e-05
4.78013e-05
4.77895e-05
0.000231345
4.40184e-05
4.40089e-05
7.25677e-05
4.2434e-05
8.14027e-05
4.37634e-05
2.47749e-05
2.54634e-05
7.25581e-05
4.24305e-05
8.13974e-05
4.37596e-05
0.000232532