/*--------------------------------*- C++ -*----------------------------------*\
| =========                 |                                                 |
| \\      /  F ield         | OpenFOAM: The Open Source CFD Toolbox           |
|  \\    /   O peration     | Version:  v1906                                 |
|   \\  /    A nd           | Web:      www.OpenFOAM.com                      |
|    \\/     M anipulation  |                                                 |
\*---------------------------------------------------------------------------*/
FoamFile
{
    version     2.0;
    format      ascii;
    class       surfaceScalarField;
    location    "100";
    object      phi;
}
// * * * * * * * * * * * * * * * * * * * * * * * * * * * * * * * * * * * * * //

dimensions      [0 3 -1 0 0 0 0];
oriented        oriented;


internalField   nonuniform List<scalar> 
123680
(
-2.04356e-10
3.08587e-09
-3.2496e-09
-1.59117e-09
0.00114645
-0.00114645
-1.29216e-06
-2.15536e-10
8.6999e-09
0.00113608
-3.12494e-07
1.29621e-06
3.08111e-07
9.72996e-07
-3.13042e-07
3.0582e-07
-9.72783e-07
-0.00113608
-1.28559e-06
-8.25922e-10
6.99311e-09
0.00113577
-3.12113e-07
1.29151e-06
3.09236e-07
9.72956e-07
-3.16116e-07
3.09577e-07
-9.72952e-07
-0.00113577
1.32042e-06
1.28616e-06
-2.69535e-07
-2.75061e-07
0.000273953
-0.000276015
-0.000276013
1.3202e-06
1.28577e-06
-2.69169e-07
-2.7486e-07
0.000273951
1.32659e-06
1.28966e-06
-2.67524e-07
-2.75276e-07
0.000273987
-0.000276061
-1.33057e-06
-1.29344e-06
-0.000273983
2.72592e-07
2.80176e-07
0.000276054
6.85772e-09
0.0011353
-3.18506e-07
1.33091e-06
3.14262e-07
9.73661e-07
-3.13418e-07
3.06997e-07
-9.72678e-07
-0.0011353
-1.3323e-06
8.11426e-11
1.02717e-08
0.00113573
-3.21521e-07
1.33606e-06
3.16374e-07
9.79069e-07
-3.16235e-07
3.09173e-07
-9.78108e-07
-0.00113573
-3.03092e-09
-0.0011353
8.31245e-09
-1.32628e-06
3.13963e-07
-3.18826e-07
-9.71944e-07
3.07096e-07
-3.13111e-07
9.74124e-07
0.0011353
1.33549e-06
-3.55025e-09
-0.00113572
1.1518e-08
-1.3322e-06
3.15699e-07
-3.221e-07
-9.7736e-07
3.09686e-07
-3.15587e-07
9.79563e-07
0.00113572
-2.7019e-07
-2.7259e-07
0.000273995
-0.000276077
-1.2962e-06
-0.000273991
2.75295e-07
2.76821e-07
0.00027607
9.34812e-09
0.00113637
-3.16024e-07
1.2935e-06
3.10646e-07
9.77156e-07
-3.14997e-07
3.09893e-07
-9.74278e-07
-0.00113638
-1.32641e-06
-3.23985e-09
7.81435e-09
0.00113536
-3.20526e-07
1.33108e-06
3.16621e-07
9.76753e-07
-3.14985e-07
3.09314e-07
-9.74876e-07
-0.00113536
-5.35858e-09
-0.00113637
9.07708e-09
-1.28905e-06
3.10562e-07
-3.16021e-07
-9.73835e-07
3.09845e-07
-3.14883e-07
9.77258e-07
0.00113637
1.33052e-06
-5.31954e-09
-0.00113535
9.68209e-09
-1.32629e-06
3.15929e-07
-3.21241e-07
-9.74555e-07
3.09233e-07
-3.15052e-07
9.76813e-07
0.00113535
2.02975e-10
7.32828e-09
0.00113515
-3.14578e-07
1.32568e-06
3.1136e-07
9.72384e-07
-3.1316e-07
3.05685e-07
-9.73308e-07
-0.00113515
-6.60773e-10
-0.00113608
8.70345e-09
-1.29142e-06
3.0817e-07
-3.12326e-07
-9.72923e-07
3.05448e-07
9.72769e-07
-3.1351e-07
0.00113608
1.32547e-06
0.00113514
-1.85944e-09
-0.00113514
7.8834e-09
-1.31997e-06
3.10904e-07
-3.14621e-07
-9.72937e-07
3.05475e-07
-3.13447e-07
9.75202e-07
-2.66429e-07
-2.75193e-07
0.000273955
-0.000276025
-1.29114e-06
-0.000273952
2.73021e-07
2.79951e-07
0.000276021
-1.39766e-09
9.49947e-09
0.00113625
-3.12255e-07
1.29108e-06
3.08502e-07
9.73256e-07
-3.15971e-07
3.08734e-07
-9.73016e-07
-0.00113625
-1.43001e-09
-0.00113576
7.36811e-09
-1.28534e-06
3.08681e-07
-3.12569e-07
-9.72536e-07
3.0933e-07
9.73144e-07
-3.16144e-07
0.00113576
1.29101e-06
0.00113624
-2.46896e-09
-0.00113624
9.01667e-09
-1.28558e-06
3.08242e-07
-3.12205e-07
-9.73045e-07
3.08496e-07
-3.16213e-07
9.72915e-07
-0.000273951
2.74959e-07
2.80208e-07
7.89341e-09
-3.14422e-07
1.32558e-06
3.10671e-07
9.7532e-07
-3.12996e-07
3.05302e-07
-9.75336e-07
-4.99729e-10
-3.11921e-07
1.29118e-06
3.08137e-07
-3.15896e-07
3.08284e-07
-6.53423e-10
8.64625e-09
9.72908e-07
-9.72842e-07
-1.24164e-10
-8.09484e-08
0.000236644
3.84746e-08
1.60728e-09
-0.000236603
-8.37593e-09
5.61521e-08
0.000196816
-9.37258e-09
-0.000196854
1.0639e-08
-5.31576e-08
0.000196854
4.41842e-09
-0.000196816
2.02619e-12
7.92357e-08
0.0002366
-3.93524e-08
-1.00993e-09
-0.000236639
8.9632e-09
2.76593e-08
9.8772e-05
-9.88086e-05
-9.48861e-09
-2.57805e-08
9.88064e-05
-9.87711e-05
-8.24448e-08
-6.45555e-10
0.000236684
1.9208e-09
3.78999e-08
-0.00023664
-8.26945e-09
5.71277e-08
0.000196842
-9.30964e-09
-0.000196882
1.07182e-08
-5.66688e-08
0.000196884
5.64372e-09
-0.000196843
7.76654e-08
1.94874e-10
0.000236638
-1.22906e-09
-3.60331e-08
-0.000236679
-2.2289e-10
-7.62852e-10
0.00114644
-0.00114644
-2.15569e-09
-3.02671e-09
0.00114605
-0.00114605
-1.87989e-09
-5.55621e-10
0.00114626
-0.00114626
-0.00114645
-3.59818e-09
-2.58299e-09
0.00114645
-0.00114644
-5.95151e-10
-1.93295e-09
0.00114644
-0.00114605
-1.7222e-09
-3.13889e-09
0.00114605
-0.00114626
-1.74033e-09
-1.25543e-09
0.00114626
8.07428e-08
-2.12361e-09
0.000260271
1.43915e-09
-2.19634e-07
-0.000260131
-3.00585e-08
-5.84935e-08
1.39727e-07
0.000252803
1.91168e-08
-0.000252873
0.00113784
3.88611e-09
3.70911e-09
1.05584e-06
-8.68937e-07
8.70081e-07
-1.05208e-06
-0.00113784
8.68421e-09
1.29659e-06
0.00113608
-1.9294e-09
-9.72327e-07
3.05785e-07
-3.1283e-07
9.73165e-07
-1.29135e-06
3.08424e-07
-3.12134e-07
3.42192e-08
5.46634e-08
0.000252873
-2.43679e-08
-0.000252803
-1.34091e-07
-3.44033e-09
0.00113784
2.72927e-09
-1.05197e-06
8.70526e-07
-8.68302e-07
1.05615e-06
-7.87993e-08
1.35072e-09
0.000260131
-8.18123e-10
2.16967e-07
-0.00026027
8.3713e-09
2.98762e-08
9.87754e-05
-9.88136e-05
-1.06062e-08
-2.82602e-08
9.88152e-05
-9.87763e-05
-2.35213e-09
8.15509e-08
0.000260299
-2.20586e-07
1.84062e-09
-0.000260159
0.00113756
1.73006e-09
1.62172e-09
1.05092e-06
-8.62655e-07
8.65405e-07
-1.04605e-06
-0.00113756
-2.97987e-08
-5.59888e-08
1.3962e-07
0.000252726
1.83989e-08
-0.000252799
7.12385e-09
1.29161e-06
0.00113576
-2.82781e-09
-9.72392e-07
3.09751e-07
-3.15673e-07
9.73427e-07
-1.28508e-06
3.09161e-07
-3.12032e-07
-5.11592e-09
0.00113756
9.46782e-10
-1.04588e-06
8.65769e-07
-8.62065e-07
1.051e-06
3.47832e-08
5.34854e-08
0.000252801
-2.52587e-08
-0.000252728
-1.3577e-07
5.0969e-10
-7.79912e-08
0.000260157
2.15996e-07
-7.24219e-10
-0.000260295
3.35253e-08
-2.71431e-08
5.98133e-08
0.00028435
-1.63954e-08
-0.0002844
3.43522e-08
-2.72163e-08
5.70683e-08
0.000284293
-1.68056e-08
-0.000284341
-1.32589e-06
-1.29131e-06
0.000276013
-0.000273952
2.75259e-07
2.80449e-07
-3.57274e-08
2.56168e-08
0.000284402
1.7574e-08
-0.000284351
-5.81188e-08
-3.5773e-08
2.53394e-08
0.000284342
1.86147e-08
-0.000284294
-5.58659e-08
-0.000284405
3.33924e-08
-2.77436e-08
5.92757e-08
-1.51968e-08
0.000284355
-0.000284344
3.36346e-08
-2.7662e-08
5.73792e-08
-1.59929e-08
0.000284296
2.80811e-08
9.87589e-05
-9.87954e-05
-2.51633e-08
9.87942e-05
-9.87584e-05
2.70265e-08
9.87768e-05
-9.88121e-05
-2.64144e-08
9.88158e-05
-9.87787e-05
3.05136e-08
5.71548e-08
0.000284266
-1.51366e-08
-0.000284311
3.36963e-08
5.65769e-08
0.000284284
-1.72302e-08
-0.00028433
0.000276057
-1.33107e-06
-1.29369e-06
-0.000273985
2.72291e-07
2.80551e-07
0.000284314
-3.43551e-08
1.97889e-08
-0.000284268
-5.66621e-08
0.000284336
-3.58181e-08
1.79526e-08
-0.000284287
-5.71289e-08
-2.51488e-08
-1.04833e-08
-9.87575e-05
9.87931e-05
2.84141e-08
8.35523e-09
9.87575e-05
-2.61307e-08
-1.08152e-08
-9.87836e-05
9.88206e-05
2.69536e-08
8.34009e-09
9.87805e-05
1.3265e-06
1.28948e-06
0.000273983
-2.67103e-07
-2.7477e-07
-3.38262e-08
-5.62442e-08
-0.000284273
1.88103e-08
0.000284319
-3.5911e-08
-5.69049e-08
-0.000284293
1.79885e-08
0.000284341
3.03902e-08
-1.56659e-08
5.71169e-08
0.000284271
3.37303e-08
-1.72988e-08
5.58961e-08
0.00028429
-8.11966e-08
0.00023666
3.84443e-08
1.30704e-09
-0.000236618
5.58919e-08
0.000196862
-8.76681e-09
-0.0001969
-5.34521e-08
0.000196901
5.79383e-09
-0.000196863
7.87352e-08
0.000236615
-3.97491e-08
-1.51936e-09
-0.000236653
-1.83511e-09
0.00026028
1.07052e-09
-2.23083e-07
-0.000260137
1.3737e-07
0.000252727
1.89582e-08
-0.000252796
0.00113792
1.78179e-09
3.09668e-09
1.05644e-06
-8.68919e-07
8.70422e-07
-1.05187e-06
-0.00113792
7.46936e-09
0.0011353
-2.89416e-09
-1.32611e-06
3.14202e-07
-3.18369e-07
-9.72029e-07
3.07277e-07
-3.12835e-07
9.7403e-07
0.000252799
-2.47261e-08
-0.000252728
-1.33278e-07
-5.36057e-09
0.00113792
1.76283e-09
-1.05136e-06
8.71169e-07
-8.67965e-07
1.05677e-06
1.33934e-09
0.000260136
-4.41206e-11
2.19698e-07
-0.000260278
0.00026032
1.37858e-09
-2.2334e-07
-0.000260181
-3.39036e-08
1.39758e-07
0.00025275
1.96525e-08
-0.00025282
0.00113808
3.32636e-09
1.05939e-06
-8.68928e-07
8.70983e-07
-1.05489e-06
-0.00113807
1.06471e-08
0.00113572
1.33614e-06
-3.1207e-09
-9.77338e-07
3.09569e-07
9.79595e-07
-3.15528e-07
-1.33182e-06
3.1635e-07
-3.21412e-07
0.000252822
3.52643e-08
-2.35521e-08
-0.000252752
-1.35521e-07
0.00113807
2.04551e-09
-1.05433e-06
8.71403e-07
-8.68232e-07
1.05981e-06
0.00026018
-1.8711e-09
2.19492e-07
-0.000260318
2.42863e-11
7.81895e-08
-3.94355e-08
-1.17645e-09
0.000236606
-5.29821e-08
-0.000196816
4.35966e-09
0.000196854
5.615e-08
-9.51553e-09
0.000196816
3.55572e-10
-8.08058e-08
-0.000236608
3.91973e-08
1.50544e-09
0.000236648
7.82049e-08
-3.95432e-08
-1.67952e-09
0.000236623
-5.36583e-08
9.9124e-09
-0.000196863
5.58104e-09
0.000196901
5.57395e-08
-9.33473e-09
-8.28157e-09
0.000196863
-8.16112e-08
-0.000236627
3.91561e-08
1.31902e-09
0.000236669
1.21636e-09
-2.8824e-10
2.18293e-07
0.000260139
7.36257e-09
-1.22108e-09
1.33118e-06
-3.18511e-07
3.1388e-07
9.74161e-07
-3.12749e-07
3.0711e-07
-9.72032e-07
-1.32792e-07
-0.00025273
-2.44973e-08
0.0002528
-0.00113792
-5.10112e-09
7.18597e-10
-1.05121e-06
8.70694e-07
-8.67546e-07
1.05651e-06
0.00113792
1.91098e-08
1.36479e-07
0.00025273
1.8175e-09
1.18872e-09
1.05712e-06
-8.67677e-07
-1.05099e-06
8.71435e-07
-1.38896e-09
-0.00026014
1.12905e-09
-2.22448e-07
0.000260282
-2.18339e-09
2.18368e-07
0.000260183
1.07319e-08
-1.33233e-06
-1.48515e-09
9.79604e-07
-3.1529e-07
-9.77191e-07
3.09443e-07
1.33615e-06
-3.21627e-07
3.15887e-07
3.54269e-08
-1.35846e-07
-0.000252754
-2.36961e-08
0.000252824
-0.00113807
9.30191e-10
-1.05417e-06
8.7098e-07
-8.67653e-07
1.05952e-06
0.00113807
-3.40224e-08
1.9913e-08
1.38661e-07
0.000252753
1.37616e-09
1.06004e-06
-8.68007e-07
-1.05388e-06
8.71678e-07
-0.000260185
1.43129e-09
-2.22828e-07
0.000260323
5.68627e-08
0.000284252
-1.97819e-08
-0.000284295
-3.09208e-08
5.75707e-08
0.000284404
-1.691e-08
-0.000284443
0.000276073
-0.000273993
2.75409e-07
2.7712e-07
0.000284301
1.97551e-08
-0.000284255
-5.69297e-08
2.65642e-08
0.000284444
2.32811e-08
-0.000284404
-5.52146e-08
7.28728e-09
9.87928e-05
-9.8831e-05
9.883e-05
-1.11883e-08
-9.87923e-05
-2.59252e-08
-9.87695e-05
9.88053e-05
2.77323e-08
9.87693e-05
1.29168e-06
0.000273991
-2.69535e-07
-2.72269e-07
-5.70616e-08
-0.000284263
2.01623e-08
0.000284309
2.63147e-08
-3.44454e-08
-5.48942e-08
-0.000284403
2.34381e-08
0.000284443
-2.06878e-08
5.66048e-08
0.000284259
-3.1329e-08
3.01039e-08
-1.70463e-08
5.75852e-08
0.000284404
-1.10244e-08
-9.87907e-05
9.8828e-05
7.80037e-09
9.87909e-05
-3.10815e-09
0.000260333
2.29024e-09
-2.18434e-07
-0.000260196
1.35923e-07
0.000252754
1.9642e-08
-0.000252819
0.00113781
3.52093e-09
7.09852e-10
1.0573e-06
-8.65586e-07
8.71294e-07
-1.04828e-06
-0.00113782
9.28308e-09
0.00113637
-5.98027e-09
-1.28908e-06
3.1075e-07
-3.15711e-07
-9.73669e-07
3.10153e-07
-3.14435e-07
9.7753e-07
0.000252821
-2.38872e-08
-0.000252756
-1.33754e-07
-3.91684e-09
0.00113782
-3.09816e-10
-1.05065e-06
8.68963e-07
-8.67483e-07
1.05473e-06
1.42434e-09
0.000260196
-5.58974e-10
2.13427e-07
-0.000260333
-8.15343e-08
0.000236617
3.76271e-08
3.52148e-10
-0.000236574
5.76878e-08
0.000196793
-8.87048e-09
-0.000196833
-5.60279e-08
0.000196833
5.41991e-09
-0.000196793
7.84592e-08
0.000236571
-3.64483e-08
-1.75398e-09
-0.000236611
0.000260312
-2.20179e-07
1.84201e-09
-0.000260179
0.00113779
1.35465e-09
1.05746e-06
-8.68965e-07
8.71237e-07
-1.05199e-06
-0.00113779
-3.32089e-08
1.36406e-07
0.000252672
2.21343e-08
-0.000252739
8.4181e-09
0.00113536
1.33117e-06
-6.09389e-09
-9.74253e-07
3.0953e-07
9.77172e-07
-3.14537e-07
-1.32588e-06
3.16526e-07
-3.2049e-07
0.00113779
8.07512e-10
-1.05156e-06
8.71178e-07
-8.6834e-07
1.05767e-06
0.000252739
3.57443e-08
-2.63027e-08
-0.000252672
-1.32733e-07
0.000260181
2.1708e-07
-8.4477e-10
-0.000260318
7.75408e-08
4.41434e-11
-1.10063e-09
-3.61182e-08
0.000236643
-5.69651e-08
-0.000196846
5.59493e-09
0.000196887
5.68116e-08
-9.19485e-09
0.000196844
-8.17315e-08
-7.04731e-10
-0.000236645
2.14431e-09
3.82532e-08
0.000236687
1.05889e-09
8.78946e-11
2.12608e-07
0.000260197
8.70634e-09
-3.97758e-09
1.29384e-06
-3.15731e-07
3.10426e-07
9.77502e-07
-3.14315e-07
3.09869e-07
-9.73585e-07
-1.33836e-07
-0.000252756
-2.43691e-08
0.000252822
-0.00113781
-4.16299e-09
-6.91492e-10
-1.05095e-06
8.68186e-07
-8.67297e-07
1.05402e-06
0.00113782
1.95714e-08
1.35146e-07
0.000252757
3.20916e-09
-3.86015e-10
1.05755e-06
-8.64699e-07
-1.04769e-06
8.7176e-07
-2.42176e-09
-0.000260196
2.44349e-09
-2.17545e-07
0.000260332
7.80066e-08
-3.60369e-08
-2.1454e-09
0.000236577
-5.57288e-08
1.05665e-08
-0.000196793
5.00294e-09
0.000196833
5.74771e-08
-8.59294e-09
-8.51003e-09
0.000196793
-8.1818e-08
-0.000236579
3.78155e-08
6.06864e-10
0.000236622
2.16587e-07
-7.48099e-10
0.000260176
8.4804e-09
-1.32629e-06
-3.99629e-09
9.77062e-07
-3.14489e-07
-9.74212e-07
3.09222e-07
1.33127e-06
-3.20625e-07
3.16105e-07
-0.00113779
1.69492e-10
-1.05169e-06
8.70613e-07
-8.6829e-07
1.0573e-06
0.00113779
3.54437e-08
-1.32489e-07
-0.000252671
-2.60973e-08
0.000252739
7.33707e-10
1.0579e-06
-8.68596e-07
-1.05119e-06
8.71239e-07
-3.38442e-08
2.25498e-08
1.35935e-07
0.000252672
-0.000260173
-2.19811e-07
1.93279e-09
0.000260307
1.41543e-10
0.000236674
1.86956e-09
3.87865e-08
-0.000236634
0.000196868
-1.06855e-08
-0.000196908
0.000196907
3.75966e-09
-0.000196868
5.78402e-10
0.000236633
-1.11257e-09
-3.91211e-08
-0.000236673
8.04401e-08
0.00026024
-2.16809e-07
1.59037e-09
-0.000260107
0.00113777
3.5283e-09
1.05281e-06
-8.68992e-07
8.70189e-07
-1.04966e-06
-0.00113776
-5.57395e-08
1.37269e-07
0.000252731
1.90258e-08
-0.000252798
7.30843e-09
0.00113515
-2.26491e-09
-1.31989e-06
3.11676e-07
-3.14207e-07
-9.72646e-07
3.05757e-07
-3.12869e-07
9.7277e-07
0.00113776
2.67353e-09
-1.04944e-06
8.70499e-07
-8.68359e-07
1.053e-06
5.30171e-08
0.0002528
-2.45912e-08
-0.000252732
-1.31747e-07
-7.89366e-08
0.000260107
2.14283e-07
-1.37698e-09
-0.00026024
0.000236638
3.892e-08
2.67152e-09
-0.000236599
-8.69808e-09
0.000196811
-9.42553e-09
-0.000196848
0.000196851
1.02431e-08
4.197e-09
-0.000196812
0.0002366
-3.87898e-08
-1.55918e-10
-0.000236639
-7.89506e-08
1.29681e-09
-5.67428e-10
2.1663e-07
0.000260133
8.09128e-09
-4.88361e-10
1.29674e-06
-3.11963e-07
3.08258e-07
9.72996e-07
-3.12857e-07
-9.72465e-07
3.0547e-07
5.41489e-08
-1.3373e-07
-0.000252802
-2.4537e-08
0.000252871
-0.00113784
-4.83506e-09
2.47955e-09
-1.05222e-06
8.69504e-07
1.05558e-06
-8.68361e-07
0.00113784
-5.88523e-08
1.90415e-08
1.39694e-07
0.000252803
3.50289e-09
2.955e-09
1.05616e-06
-8.68557e-07
-1.05182e-06
8.70267e-07
7.94872e-08
-1.82881e-09
-0.000260133
1.96018e-09
-2.18439e-07
0.000260272
3.5081e-10
-9.65723e-10
-3.91065e-08
0.000236634
-0.000196865
3.81802e-09
0.000196905
-1.02218e-08
0.000196867
1.11467e-10
-0.000236634
2.11602e-09
3.84432e-08
0.000236673
-7.92482e-08
2.14019e-07
-8.8265e-10
0.000260107
7.32806e-09
-1.32026e-06
-8.37339e-10
9.72683e-07
-3.12892e-07
-9.72633e-07
3.05438e-07
1.32594e-06
-3.14142e-07
3.11163e-07
-0.00113777
0.00113776
2.24801e-09
-1.04951e-06
8.6952e-07
-8.68634e-07
1.05529e-06
5.26133e-08
3.61567e-08
0.000252801
-1.31613e-07
-0.000252733
-2.46881e-08
2.60023e-09
1.0532e-06
-8.68439e-07
-1.04922e-06
8.70144e-07
-5.62103e-08
-3.37299e-08
1.91961e-08
1.37219e-07
0.000252734
8.01654e-08
0.000260239
-0.000260107
-2.15947e-07
1.74673e-09
-3.92031e-08
-3.10716e-10
0.000236598
1.08375e-08
0.000196852
-0.000196814
3.51965e-09
-8.59172e-09
-9.95621e-09
0.000196813
0.000236636
-0.000236597
3.87868e-08
2.62871e-09
5.88631e-08
0.00028426
-1.50123e-08
-0.000284307
-2.77344e-08
5.94634e-08
0.000284273
-1.50338e-08
-0.00028432
0.000276023
-0.000273953
2.73169e-07
2.80228e-07
0.000284309
1.86506e-08
-0.000284261
-5.8788e-08
2.57274e-08
0.000284325
1.88602e-08
-0.000284276
-5.90985e-08
7.70166e-09
9.87507e-05
-9.87861e-05
9.87888e-05
-1.10173e-08
-9.87521e-05
-2.8095e-08
-9.87785e-05
9.88171e-05
2.94873e-08
9.87771e-05
1.28549e-06
0.000273952
-2.65953e-07
-2.74846e-07
-5.86682e-08
-0.000284263
1.84872e-08
0.00028431
2.57052e-08
-3.44107e-08
-5.89515e-08
-0.000284282
1.84234e-08
0.000284331
-1.59724e-08
5.84855e-08
0.000284262
-2.76751e-08
3.01315e-08
-1.55335e-08
5.90604e-08
0.000284279
-1.0982e-08
-9.87553e-05
9.8792e-05
8.0973e-09
9.87531e-05
8.11321e-08
0.00026031
-2.17558e-07
1.40877e-09
-0.000260177
0.00113768
1.70539e-09
1.0537e-06
-8.65621e-07
8.68204e-07
-1.04926e-06
-0.00113767
-5.56356e-08
1.39687e-07
0.000252743
2.03716e-08
-0.000252813
9.29764e-09
0.00113625
-3.98451e-09
-1.28557e-06
3.08859e-07
-3.11861e-07
-9.72474e-07
3.08908e-07
-3.15608e-07
9.73512e-07
0.00113767
1.21029e-09
-1.04909e-06
8.68393e-07
-8.65203e-07
1.05384e-06
5.31063e-08
0.000252813
-2.38022e-08
-0.000252743
-1.34712e-07
-7.8392e-08
0.000260177
2.13618e-07
-2.46031e-09
-0.00026031
-1.34075e-09
0.000236653
3.27746e-09
3.95848e-08
-0.000236613
0.000196793
-1.05851e-08
-0.000196831
0.000196833
3.79802e-09
-0.000196795
-8.68096e-10
0.000236612
-3.9859e-11
-3.85937e-08
-0.00023665
0.000236681
9.71469e-10
3.74729e-08
-0.00023664
-9.09641e-09
0.00019685
-8.53445e-09
-0.000196888
0.000196888
9.89645e-09
5.12721e-09
-0.00019685
0.000236641
-1.57721e-09
-3.63909e-08
-0.000236682
3.93605e-10
-7.80576e-08
2.15798e-07
-3.63523e-10
0.000260161
6.59103e-09
-1.03469e-09
1.29181e-06
-3.12148e-07
3.08738e-07
9.733e-07
-3.15582e-07
-9.72357e-07
3.09421e-07
-0.00113756
-4.64447e-09
1.4015e-09
-1.04655e-06
8.64602e-07
1.05e-06
-8.62464e-07
0.00113756
5.3513e-08
-1.35398e-07
-0.000252729
-2.55887e-08
0.000252803
2.26487e-09
1.37274e-09
1.05083e-06
-8.62396e-07
-1.04591e-06
8.65393e-07
-5.57566e-08
1.82966e-08
1.38988e-07
0.000252729
-1.9286e-09
8.04628e-08
-0.000260162
-2.19215e-07
2.00169e-09
0.0002603
-7.85235e-08
2.13606e-07
-2.16926e-09
0.000260177
8.85134e-09
-1.2859e-06
-1.78584e-09
9.73251e-07
-3.15578e-07
-9.72592e-07
3.08562e-07
1.29142e-06
-3.11749e-07
3.08414e-07
-0.00113767
1.61525e-09
-1.04951e-06
8.67286e-07
-8.65599e-07
1.05292e-06
0.00113767
5.27144e-08
3.62457e-08
0.000252812
-1.34357e-07
-0.000252742
-2.43392e-08
1.53193e-09
1.05383e-06
-8.65528e-07
-1.04898e-06
8.68099e-07
-5.6146e-08
-3.39211e-08
1.99525e-08
1.39432e-07
0.000252743
8.08991e-08
-0.000260177
-2.16476e-07
1.26796e-09
0.00026031
-1.14598e-09
1.98642e-10
-3.82424e-08
0.000236614
-0.000196797
3.72749e-09
0.000196836
-9.94476e-09
0.000196796
-1.27007e-09
-0.000236614
3.45109e-09
3.95107e-08
0.000236653
-1.79101e-09
-3.61548e-08
0.000236639
1.07499e-08
0.000196887
-0.00019685
4.19053e-09
-9.12967e-09
-8.71118e-09
0.00019685
-0.000236638
1.12899e-09
3.75793e-08
0.000236679
9.87761e-05
-9.8812e-05
9.88121e-05
-9.87762e-05
9.87811e-05
-9.88174e-05
9.88152e-05
-9.878e-05
0.000273951
-2.68828e-07
-2.74673e-07
2.53004e-08
-5.81139e-08
-0.000284354
1.84058e-08
2.51761e-08
-5.54921e-08
-0.000284296
1.91795e-08
-2.78831e-08
-1.62531e-08
5.94095e-08
0.000284353
-2.79382e-08
-1.66961e-08
5.70796e-08
0.000284296
9.88122e-05
-9.87761e-05
9.87756e-05
9.88137e-05
-9.87778e-05
9.87781e-05
1.05579e-06
-8.68267e-07
8.7027e-07
-1.05187e-06
1.98997e-10
2.80551e-09
-5.61724e-08
1.37185e-07
1.92373e-08
0.000252734
-7.90198e-08
0.000260105
2.13739e-07
-7.64043e-11
-9.86154e-11
-7.90589e-09
-1.04581e-08
0.000196814
0.000236597
-3.96723e-08
-5.47385e-10
-1.52188e-10
-5.61976e-08
1.3976e-07
0.000252742
1.9708e-08
-8.34864e-09
0.000196849
-9.35591e-09
9.87766e-05
9.87777e-05
-2.16275e-09
3.76607e-08
0.000144822
-3.82047e-10
-0.000144857
-0.000172969
7.41324e-10
-3.97553e-10
0.000173008
-0.000229387
3.76144e-08
4.12869e-09
0.000229427
-7.9782e-08
-3.88703e-08
-1.10393e-09
-0.000236641
-1.06023e-10
7.81808e-08
-0.00017301
-2.1727e-10
-1.49064e-09
-0.000229426
7.73638e-08
2.73103e-09
0.000144858
-3.57751e-08
-7.98162e-05
7.98545e-05
-2.4985e-09
4.33439e-09
0.000196854
1.04538e-08
-5.29682e-08
0.000268462
-3.75564e-08
1.65335e-09
6.90604e-08
-0.000268505
0.000268505
-4.6402e-09
-6.94542e-08
7.14848e-10
-7.98545e-05
3.7406e-08
7.98167e-05
-0.000268463
3.61384e-08
0.000268505
-6.95537e-08
-9.58016e-09
-8.13409e-09
5.57199e-08
6.8918e-08
7.98556e-05
-8.10903e-10
-3.73854e-08
-0.000144821
3.88628e-08
1.80273e-09
-1.14173e-10
-8.08842e-08
0.000172972
1.68911e-09
-1.01713e-09
-0.000173012
0.000229387
-3.77992e-08
7.74862e-08
-0.000229426
-6.10503e-10
-7.93424e-08
-0.000144857
9.88075e-05
-9.72322e-09
-2.57676e-08
9.16277e-09
2.72246e-08
3.42846e-08
-9.69755e-10
0.00014484
-1.0638e-09
-0.000144872
-0.000229475
3.70311e-08
3.8735e-09
0.000229517
-8.1794e-08
-0.000172967
-2.86076e-10
2.33486e-10
0.000173005
-1.24059e-09
-3.56424e-08
-0.000236683
-1.77745e-10
7.98884e-08
-1.88478e-09
-0.000229518
7.81966e-08
-0.000173004
4.29501e-11
1.52975e-09
0.000144875
-3.43104e-08
-7.98541e-05
7.98903e-05
-1.8995e-09
5.48361e-09
0.000196883
1.04542e-08
-5.63512e-08
0.000268568
-3.47498e-08
2.19895e-09
7.02522e-08
-0.000268615
0.000268617
-4.22172e-09
-7.32881e-08
1.24011e-09
-7.98901e-05
3.45121e-08
7.98547e-05
-0.00026857
3.46619e-08
0.000268619
-7.37412e-08
-9.41152e-09
-8.10992e-09
5.66695e-08
6.98454e-08
7.98909e-05
-3.66724e-08
2.17272e-10
-0.000144837
2.18397e-09
3.77534e-08
-4.15055e-10
-8.46144e-08
0.000229473
-3.49989e-08
7.62406e-08
-0.000229513
0.000172965
6.46046e-10
3.71534e-10
-0.000173002
-8.38972e-08
-1.61566e-10
-0.00014487
9.88138e-05
-1.04419e-08
-2.79362e-08
8.15478e-09
2.92784e-08
-1.47176e-08
-1.40363e-08
0.00021824
2.77877e-08
3.10858e-08
-0.000218271
-8.16313e-05
-1.39908e-08
-2.00061e-08
8.16653e-05
-8.16195e-05
-1.43869e-08
-1.97156e-08
8.16536e-05
1.82482e-08
-8.16643e-05
1.89815e-08
-8.16525e-05
-2.87974e-08
-3.04792e-08
0.000218271
-3.39019e-08
4.21395e-08
-0.000228066
0.00022811
2.8685e-08
-8.14072e-08
0.000258959
-3.52609e-08
1.12902e-07
5.09144e-08
-0.000259028
-5.80075e-08
1.65691e-08
0.000284401
2.58365e-08
-3.55345e-08
0.000186208
4.16958e-08
-1.85093e-08
-0.000186247
0.000259029
-1.13932e-07
-4.81678e-08
0.000186247
1.96115e-08
-2.80228e-08
7.80399e-08
-0.000228109
-3.30853e-08
4.0014e-08
-0.000228003
0.000228047
3.01356e-08
-8.06437e-08
0.000258861
-3.5929e-08
1.18044e-07
5.20514e-08
-0.000258938
-5.61151e-08
1.7717e-08
0.000284341
2.55316e-08
-3.5205e-08
0.000186159
3.95196e-08
-1.90609e-08
-0.000186196
0.000258938
-1.18692e-07
-4.71118e-08
0.000186198
1.90634e-08
-3.07768e-08
7.87729e-08
-0.000228047
3.46646e-08
-4.1856e-08
0.000228068
7.75225e-08
-0.000186207
-4.16206e-08
0.000186246
5.94843e-08
-1.63077e-08
-2.71527e-08
3.35758e-08
-0.00025896
3.44829e-08
0.00025903
-1.13638e-07
-4.82391e-08
1.12449e-07
5.06289e-08
0.000228113
-8.13067e-08
3.59881e-08
-4.01684e-08
0.000228003
7.90004e-08
-0.00018616
-3.94714e-08
0.000186199
5.6871e-08
-1.6271e-08
-2.7391e-08
3.39066e-08
-0.000258861
3.38394e-08
0.000258936
-1.18255e-07
-4.72809e-08
1.18058e-07
5.20893e-08
0.000228048
-8.08889e-08
1.43331e-08
1.49418e-08
-0.000218241
8.16303e-05
1.4401e-08
-8.16633e-05
8.16185e-05
1.38365e-08
-8.16514e-05
-0.000218272
-0.000228069
-3.38466e-08
4.26949e-08
2.8775e-08
-8.09459e-08
-3.55142e-08
0.000258961
-0.00025903
1.12585e-07
5.13759e-08
4.11346e-08
0.000186211
-1.8465e-08
-0.000186249
-5.84055e-08
1.82284e-08
2.56766e-08
-3.62499e-08
-2.81478e-08
-0.000228114
7.79788e-08
-1.13235e-07
-4.75372e-08
1.98816e-08
-0.000228003
-3.41627e-08
4.04851e-08
3.144e-08
-8.15386e-08
-3.56253e-08
0.000258858
-0.000258935
1.17843e-07
5.17668e-08
3.93169e-08
0.000186165
-1.83458e-08
-0.000186202
-5.56436e-08
1.85763e-08
2.55849e-08
-3.63702e-08
-3.01765e-08
-0.000228047
7.80232e-08
-1.18231e-07
-4.75949e-08
2.02717e-08
-0.000218246
1.47334e-08
1.43553e-08
1.43291e-08
8.16349e-05
-8.16677e-05
1.44935e-08
8.16233e-05
-8.16561e-05
-0.000218276
9.87944e-05
-2.5028e-08
2.7836e-08
9.88134e-05
-2.60926e-08
2.6597e-08
-1.48597e-08
-1.41327e-08
0.000218207
2.9699e-08
2.81277e-08
-0.000218236
-8.16172e-05
-1.37901e-08
-2.06445e-08
8.16516e-05
-8.16077e-05
-1.4566e-08
-1.98129e-08
8.1642e-05
1.79547e-08
-8.165e-05
1.87394e-08
-8.16405e-05
-3.14496e-08
-2.89153e-08
0.000218239
4.04407e-08
-3.37074e-08
-0.000228047
0.00022809
3.1237e-08
-8.11851e-08
0.000259018
-3.57401e-08
1.18629e-07
4.91804e-08
-0.000259092
1.9133e-08
-5.66427e-08
0.000284313
-3.39391e-08
0.00018616
3.97006e-08
-1.8236e-08
-0.000186197
0.000186199
2.01026e-08
0.000259092
-1.19494e-07
-4.48482e-08
-2.99593e-08
7.90169e-08
-0.000228092
4.12929e-08
-3.38056e-08
-0.000227993
0.000228041
2.8803e-08
-8.48982e-08
0.000258889
-3.53844e-08
1.17529e-07
5.48321e-08
-0.000258969
1.7063e-08
-5.70304e-08
0.000284333
-3.55812e-08
0.00018614
3.87315e-08
-1.88194e-08
-0.000186177
0.000186179
1.93472e-08
0.000258967
-1.19749e-07
-4.96361e-08
-2.80809e-08
7.95384e-08
-0.000228041
-3.97568e-08
0.000228046
3.50857e-08
7.84348e-08
-0.000186163
-4.01973e-08
0.000186202
-1.50554e-08
5.69687e-08
3.033e-08
3.44942e-08
-0.000259016
0.000259089
-1.19069e-07
-4.48154e-08
0.000228091
-8.14424e-08
1.18353e-07
4.91277e-08
-3.89266e-08
0.000227994
3.50331e-08
7.96502e-08
-0.000186142
-4.10499e-08
0.000186181
-1.67721e-08
5.59633e-08
3.35018e-08
3.447e-08
-0.000258886
0.000258964
-1.19391e-07
-4.96574e-08
0.000228043
-8.47886e-08
1.17218e-07
5.46732e-08
1.42847e-08
1.49591e-08
-0.000218205
8.16156e-05
1.46023e-08
-8.16484e-05
8.16062e-05
1.40472e-08
-8.16391e-05
-0.000218234
-9.87935e-05
2.76852e-08
8.30714e-09
-2.54478e-08
-1.05984e-08
-9.88181e-05
2.64611e-08
7.9672e-09
-2.6779e-08
-1.07685e-08
-0.00021821
1.41296e-08
1.53556e-08
-3.16534e-08
-2.9078e-08
0.000218241
1.47621e-08
8.16186e-05
1.81754e-08
1.3868e-08
8.16092e-05
1.89699e-08
2.95788e-08
2.77211e-08
-2.04617e-08
8.16532e-05
-1.92851e-08
8.16438e-05
-3.96934e-08
3.46609e-08
0.000228044
-0.000228088
-2.92915e-08
7.79529e-08
-0.000259012
3.4615e-08
-1.19378e-07
-4.5022e-08
0.000259086
-1.56015e-08
5.74809e-08
-0.000284318
3.03223e-08
-0.000186166
-3.98518e-08
2.05705e-08
0.000186204
-0.000186204
-1.74272e-08
-0.000259088
1.18651e-07
4.91709e-08
3.1378e-08
-8.17246e-08
0.00022809
-3.89431e-08
3.50829e-08
0.000227993
-0.000228041
-2.82851e-08
8.03089e-08
-0.000258879
3.41964e-08
-1.18814e-07
-4.93024e-08
0.000258956
-1.6537e-08
5.60666e-08
-0.000284339
3.34158e-08
-0.000186148
-4.06731e-08
1.91169e-08
0.000186188
-0.000186185
-1.89811e-08
-0.000258961
1.18041e-07
5.5135e-08
2.82448e-08
-8.41464e-08
0.000228043
-0.000228045
4.09459e-08
-3.39116e-08
-8.17633e-08
3.92921e-08
0.000186165
-3.62025e-08
0.000259014
1.18296e-07
4.9453e-08
1.86686e-08
-5.66633e-08
-3.42736e-08
7.81931e-08
-1.19211e-07
-4.46194e-08
-0.000227994
4.18689e-08
-3.38908e-08
-8.4742e-08
3.81454e-08
0.000186145
-3.58711e-08
0.000258884
1.16936e-07
5.47683e-08
1.7089e-08
-5.73043e-08
-3.56981e-08
7.93566e-08
-1.19296e-07
-4.93416e-08
-1.52991e-08
-1.37165e-08
0.000218213
-8.16205e-05
-1.33802e-08
8.16545e-05
-8.16111e-05
-1.49442e-08
8.16452e-05
0.000218244
-8.3495e-10
3.53124e-08
0.000144888
-8.0689e-10
-0.000144921
-0.000172999
-4.89315e-11
0.000173037
-0.000229471
3.5735e-08
3.42583e-09
0.000229515
-8.25354e-08
-3.97009e-08
-1.89902e-09
-0.000236656
7.9025e-08
-0.00017304
-2.39616e-09
-0.000229514
7.95267e-08
1.81354e-09
0.000144921
-3.36542e-08
-7.98671e-05
7.99028e-05
-2.12848e-09
5.22124e-09
0.0001969
-5.32674e-08
0.000268582
-3.54262e-08
2.37989e-09
7.14661e-08
-0.000268629
0.000268629
-4.02448e-09
-7.22419e-08
6.24259e-10
-7.99031e-05
3.49888e-08
7.9867e-05
-0.000268583
3.43234e-08
0.00026863
-7.26661e-08
-8.53381e-09
5.55784e-08
7.08641e-08
7.99032e-05
4.54154e-10
-3.5681e-08
-0.000144888
3.81403e-08
1.74184e-09
-8.07841e-08
0.000173002
7.90419e-10
-0.000173043
0.00022947
-3.56209e-08
7.9747e-08
-0.000229513
-8.25054e-08
-0.000144922
-0.000144822
-4.09499e-10
-3.74063e-08
2.38693e-09
0.000144857
1.39792e-09
0.000172967
-3.58565e-10
-3.78298e-08
0.000229388
-1.67578e-09
7.67472e-08
3.85631e-08
1.48822e-09
0.000236647
3.96994e-11
-8.11736e-08
-4.48671e-10
0.000173006
-5.70809e-10
3.87919e-09
0.000229428
-7.97139e-08
7.98176e-05
3.66729e-08
-7.98553e-05
1.0746e-09
-9.45719e-09
-0.000196854
5.57609e-08
3.64626e-08
-0.000268461
-3.98815e-09
-6.97273e-08
0.000268503
-1.95804e-09
7.9856e-05
-0.000268504
2.05516e-09
6.83495e-08
-7.98169e-05
-3.60445e-08
-3.82263e-08
0.000268462
6.91519e-08
4.3631e-09
-5.32407e-08
-6.96277e-08
0.000144822
-1.30422e-09
3.68831e-08
-3.84973e-08
-1.24172e-09
1.94384e-10
7.84967e-08
3.68143e-10
-0.000172967
-6.64122e-10
0.000173006
3.80656e-08
-0.000229389
-7.956e-08
0.000229428
0.000144859
-8.60537e-10
7.68435e-08
-0.000144888
-4.82948e-10
-3.55867e-08
2.02583e-09
0.000144922
1.2167e-09
0.000172996
-3.57531e-08
0.000229472
-2.51185e-09
7.95237e-08
3.87305e-08
1.47201e-09
0.000236665
-8.19002e-08
-7.56073e-10
0.000173034
3.38413e-09
0.000229517
-8.25407e-08
3.46673e-08
7.98679e-05
-7.99034e-05
7.94386e-10
-8.3758e-09
-0.000196901
-8.88952e-09
5.52252e-08
-0.000268585
3.41499e-08
-3.76617e-09
-7.26882e-08
0.000268632
-0.000268631
2.52157e-09
7.05531e-08
-2.04859e-09
7.99041e-05
-7.9867e-05
-3.43467e-08
-3.54472e-08
0.000268584
7.10206e-08
5.64823e-09
9.80568e-09
-5.3854e-08
-7.28989e-08
-1.34047e-09
3.48293e-08
0.000144889
-3.84231e-08
-1.89687e-09
7.76185e-08
-0.000172993
3.72662e-10
0.000173031
-0.000229474
3.62304e-08
-8.28269e-08
0.000229518
7.91342e-08
0.000144924
-1.35706e-08
-1.56738e-08
0.000218238
3.09228e-08
2.68398e-08
-0.000218267
-8.16141e-05
-1.51309e-08
-1.90036e-08
8.16482e-05
-8.16332e-05
-1.29606e-08
-2.10267e-08
8.16671e-05
1.94091e-08
-8.16471e-05
1.73743e-08
-8.16662e-05
-3.0341e-08
-2.99018e-08
0.00021827
4.09359e-08
-3.57385e-08
-0.000227998
0.000228045
3.03429e-08