/*--------------------------------*- C++ -*----------------------------------*\
| =========                 |                                                 |
| \\      /  F ield         | OpenFOAM: The Open Source CFD Toolbox           |
|  \\    /   O peration     | Version:  v1906                                 |
|   \\  /    A nd           | Web:      www.OpenFOAM.com                      |
|    \\/     M anipulation  |                                                 |
\*---------------------------------------------------------------------------*/
FoamFile
{
    version     2.0;
    format      ascii;
    class       volScalarField;
    location    "100";
    object      epsilon;
}
// * * * * * * * * * * * * * * * * * * * * * * * * * * * * * * * * * * * * * //

dimensions      [0 2 -3 0 0 0 0];


internalField   nonuniform List<scalar> 
43248
(
3.37351e-07
2.21599e-07
2.21329e-07
3.37285e-07
2.21037e-07
2.21043e-07
2.21332e-07
2.20887e-07
3.35374e-07
2.20746e-07
2.20241e-07
3.34422e-07
1.23191e-07
1.23198e-07
1.23164e-07
1.23097e-07
1.8297e-05
1.82958e-05
4.98634e-06
4.98885e-06
3.40733e-06
8.76353e-06
3.40728e-06
3.40031e-06
8.76186e-06
8.76146e-06
3.39958e-06
1.04086e-06
2.67138e-06
1.50882e-07
1.50867e-07
1.04079e-06
1.03836e-06
2.2131e-07
2.67187e-06
1.50823e-07
2.67295e-06
1.50814e-07
1.03809e-06
1.82951e-05
1.82903e-05
3.38094e-07
4.98711e-06
4.99061e-06
4.98674e-06
4.99124e-06
1.82967e-05
1.82924e-05
8.76269e-06
3.37981e-06
2.67259e-06
1.50762e-07
1.03213e-06
8.76596e-06
3.38502e-06
1.50825e-07
2.67342e-06
1.03284e-06
1.03227e-06
2.21308e-07
2.67156e-06
1.50572e-07
2.67262e-06
1.50576e-07
1.03126e-06
3.39184e-06
8.75756e-06
8.7572e-06
3.38983e-06
1.02898e-06
2.20887e-07
1.50546e-07
2.67211e-06
1.50548e-07
2.67315e-06
1.02752e-06
3.39991e-06
8.76212e-06
8.76213e-06
3.39601e-06
1.83058e-05
4.9885e-06
4.98712e-06
1.82918e-05
1.03442e-06
1.50458e-07
2.66985e-06
1.5045e-07
1.03341e-06
1.03657e-06
2.20315e-07
1.50553e-07
2.67012e-06
1.50544e-07
2.67186e-06
1.03589e-06
3.39322e-06
8.75986e-06
3.3911e-06
3.40066e-06
8.76145e-06
8.76158e-06
3.39809e-06
3.35365e-07
4.98631e-06
4.98537e-06
4.98698e-06
4.9857e-06
1.82912e-05
1.82878e-05
1.82934e-05
1.82895e-05
1.82937e-05
1.82927e-05
3.76889e-06
1.79569e-06
4.98714e-06
8.86346e-06
8.86173e-06
1.79719e-06
3.76665e-06
3.7712e-06
1.77972e-06
4.98977e-06
8.86153e-06
8.86158e-06
1.7809e-06
3.76824e-06
9.59416e-06
2.17852e-05
2.17819e-05
2.17787e-05
2.17762e-05
9.59306e-06
1.19808e-05
1.05895e-05
4.24321e-06
3.40672e-06
1.19792e-05
1.05907e-05
4.24281e-06
2.21822e-05
8.76339e-06
7.05765e-06
7.059e-06
2.21887e-05
1.19806e-05
3.40794e-06
1.05917e-05
4.24342e-06
1.05906e-05
4.24429e-06
1.1982e-05
1.19662e-05
1.05811e-05
4.23663e-06
3.39925e-06
1.19646e-05
1.05822e-05
4.23582e-06
2.21678e-05
8.76165e-06
7.05805e-06
7.05924e-06
2.21745e-05
2.21725e-05
7.05863e-06
8.76172e-06
2.21657e-05
7.0577e-06
1.19659e-05
3.4004e-06
1.05838e-05
4.23527e-06
1.05822e-05
4.23656e-06
1.19676e-05
1.82914e-05
1.82939e-05
9.58986e-06
2.17655e-05
2.17667e-05
9.59137e-06
2.17709e-05
2.17721e-05
3.76937e-06
1.78264e-06
4.98746e-06
8.85979e-06
1.7832e-06
8.85975e-06
3.76811e-06
3.76619e-06
1.79619e-06
4.99141e-06
8.86038e-06
8.85966e-06
1.79671e-06
3.76525e-06
3.76828e-06
8.85956e-06
1.78309e-06
4.98606e-06
1.78245e-06
3.7695e-06
8.86006e-06
3.76443e-06
8.85861e-06
1.79643e-06
4.99042e-06
3.7654e-06
8.8596e-06
1.7958e-06
9.59098e-06
2.17711e-05
2.17724e-05
2.17656e-05
2.17669e-05
9.58985e-06
1.82931e-05
1.8296e-05
2.21665e-05
8.76233e-06
7.05564e-06
7.05674e-06
2.21722e-05
1.19647e-05
3.38118e-06
4.23102e-06
1.05626e-05
4.23256e-06
1.05626e-05
1.1965e-05
2.21768e-05
8.76574e-06
7.05168e-06
7.05296e-06
2.21836e-05
1.19723e-05
3.38572e-06
1.05647e-05
4.2374e-06
1.05643e-05
4.23847e-06
1.19733e-05
1.19449e-05
4.23085e-06
1.05673e-05
3.39038e-06
1.19442e-05
4.23005e-06
1.05674e-05
2.21402e-05
8.75728e-06
7.05555e-06
7.05653e-06
2.21468e-05
2.21457e-05
7.05622e-06
8.75742e-06
2.21396e-05
7.05519e-06
1.1944e-05
3.39097e-06
4.23085e-06
1.05666e-05
4.23146e-06
1.05666e-05
1.19449e-05
1.19619e-05
1.05736e-05
4.23444e-06
3.39798e-06
1.19616e-05
1.05741e-05
4.2332e-06
2.21624e-05
8.76205e-06
7.05364e-06
7.0552e-06
2.21673e-05
2.21694e-05
7.05602e-06
8.76236e-06
2.21647e-05
7.05432e-06
1.19601e-05
3.39803e-06
1.05729e-05
4.23353e-06
1.05729e-05
4.23403e-06
1.19604e-05
1.83018e-05
3.76559e-06
1.77943e-06
4.98905e-06
8.85972e-06
1.77971e-06
8.85902e-06
3.76415e-06
3.76191e-06
1.78138e-06
4.98796e-06
8.85504e-06
8.85443e-06
1.78166e-06
3.76051e-06
9.58142e-06
2.17661e-05
2.17654e-05
2.17598e-05
2.17591e-05
9.58031e-06
1.82887e-05
1.19493e-05
4.23179e-06
1.05692e-05
3.39195e-06
1.19489e-05
4.23068e-06
1.05693e-05
2.21534e-05
8.75979e-06
7.05967e-06
7.06092e-06
2.21587e-05
2.21599e-05
7.05985e-06
1.1948e-05
3.39218e-06
4.23009e-06
1.05681e-05
4.23126e-06
1.05681e-05
1.19485e-05
1.19658e-05
4.23733e-06
1.05767e-05
3.39934e-06
1.19653e-05
4.23561e-06
1.05772e-05
2.21602e-05
8.76142e-06
7.05516e-06
7.05682e-06
2.21656e-05
2.21674e-05
7.05752e-06
8.76179e-06
2.21621e-05
7.05599e-06
1.19645e-05
3.39979e-06
4.23465e-06
1.05767e-05
4.23596e-06
1.05765e-05
1.19652e-05
9.57907e-06
2.17524e-05
2.17517e-05
9.57998e-06
2.17584e-05
2.17579e-05
3.76446e-06
1.77897e-06
4.98704e-06
8.85477e-06
1.77934e-06
8.85406e-06
3.76383e-06
3.76368e-06
1.77731e-06
4.98592e-06
8.85371e-06
1.77758e-06
8.85303e-06
3.76299e-06
3.76268e-06
8.85357e-06
1.77903e-06
4.98597e-06
3.76337e-06
1.77828e-06
8.85418e-06
3.76229e-06
8.85208e-06
1.77695e-06
4.98471e-06
3.76289e-06
1.77645e-06
8.85303e-06
9.58076e-06
2.17598e-05
2.17595e-05
2.17538e-05
2.17534e-05
9.5797e-06
1.82879e-05
1.82909e-05
1.829e-05
1.82927e-05
1.59188e-06
3.3825e-07
7.0629e-07
7.01157e-07
7.06901e-07
7.02351e-07
1.59084e-06
1.58989e-06
3.3816e-07
7.02216e-07
7.05072e-07
7.03058e-07
7.05946e-07
1.58873e-06
1.57894e-06
3.36303e-07
6.97657e-07
6.98757e-07
6.98449e-07
6.99536e-07
1.57773e-06
1.57623e-06
3.35451e-07
6.9694e-07
6.95736e-07
6.97803e-07
6.96466e-07
1.57531e-06
1.05532e-07
1.05552e-07
1.05524e-07
9.7283e-08
9.72974e-08
1.23174e-07
1.05553e-07
1.05518e-07
1.05517e-07
1.05499e-07
9.72899e-08
9.72956e-08
1.05544e-07
1.05495e-07
1.05479e-07
9.7294e-08
9.7298e-08
1.23076e-07
1.05505e-07
1.05505e-07
1.055e-07
1.05482e-07
9.72893e-08
9.72955e-08
4.44183e-07
1.33523e-06
3.65972e-07
1.04034e-06
4.45154e-07
1.33453e-06
3.65412e-07
6.20805e-07
9.41807e-07
2.67247e-06
1.94929e-06
9.42668e-07
1.95024e-06
6.19675e-07
4.45221e-07
1.04117e-06
1.33495e-06
3.65539e-07
1.33556e-06
3.66065e-07
4.44262e-07
4.43469e-07
1.33246e-06
3.65443e-07
1.03777e-06
4.44451e-07
1.33166e-06
3.64876e-07
6.2022e-07
9.38359e-07
2.67298e-06
1.94895e-06
1.94992e-06
9.39274e-07
6.19057e-07
6.19036e-07
1.94967e-06
9.39148e-07
2.67176e-06
6.20126e-07
1.94871e-06
9.38151e-07
4.44447e-07
1.03855e-06
1.33185e-06
3.64961e-07
1.33254e-06
3.65499e-07
4.43454e-07
1.58861e-06
3.37191e-07
7.02869e-07
7.05819e-07
7.01937e-07
1.58957e-06
7.04852e-07
6.19929e-07
9.36914e-07
2.6738e-06
1.94932e-06
9.37904e-07
1.95034e-06
6.18794e-07
4.446e-07
1.03291e-06
1.3321e-06
3.63667e-07
1.33296e-06
3.64282e-07
4.43523e-07
6.20592e-07
9.37337e-07
2.67457e-06
1.9499e-06
1.95089e-06
9.382e-07
6.19485e-07
4.4513e-07
1.03344e-06
3.63863e-07
1.33372e-06
3.64463e-07
1.33446e-06
4.44068e-07
4.41942e-07
1.32858e-06
3.63338e-07
1.03147e-06
4.42951e-07
1.32765e-06
3.6274e-07
6.20005e-07
9.4103e-07
2.67268e-06
1.94778e-06
9.41964e-07
1.94882e-06
6.18767e-07
6.18757e-07
1.94891e-06
9.41904e-07
2.6714e-06
6.20027e-07
9.40869e-07
1.94773e-06
4.42902e-07
1.03199e-06
1.3277e-06
3.62724e-07
1.32849e-06
3.63316e-07
4.41848e-07
4.40723e-07
3.62734e-07
1.32304e-06
1.02806e-06
4.41738e-07
3.62106e-07
1.32201e-06
6.19569e-07
9.37058e-07
2.67321e-06
1.94756e-06
1.94861e-06
9.381e-07
6.18333e-07
6.18451e-07
1.94868e-06
9.38307e-07
2.67196e-06
6.19589e-07
1.94752e-06
9.37132e-07
4.41661e-07
1.02853e-06
3.62001e-07
1.32185e-06
3.62655e-07
1.32271e-06
4.40617e-07
4.4092e-07
3.63633e-07
1.32706e-06
1.03361e-06
4.41941e-07
3.63057e-07
1.32599e-06
6.16614e-07
9.37084e-07
2.67109e-06
1.9392e-06
9.37985e-07
1.94024e-06
6.15348e-07
6.15501e-07
1.9392e-06
4.41862e-07
1.03413e-06
3.63075e-07
1.32576e-06
3.63647e-07
1.32668e-06
4.40801e-07
4.42102e-07
3.64326e-07
1.33008e-06
1.03587e-06
4.43132e-07
3.63757e-07
1.32894e-06
6.15924e-07
9.35066e-07
2.67143e-06
1.93383e-06
1.93557e-06
9.35992e-07
6.14488e-07
6.14836e-07
1.93696e-06
9.35915e-07
2.67042e-06
6.16215e-07
1.93496e-06
9.34885e-07
4.43052e-07
1.03654e-06
3.63816e-07
1.32857e-06
3.64362e-07
1.32956e-06
4.41981e-07
1.5747e-06
3.34312e-07
6.97744e-07
6.96094e-07
1.57536e-06
6.9674e-07
6.95252e-07
1.32177e-07
2.15421e-07
2.15209e-07
3.17562e-07
3.14247e-07
2.14503e-07
2.14878e-07
3.15181e-07
2.14658e-07
2.14816e-07
2.14938e-07
2.15053e-07
3.1501e-07
2.14776e-07
2.14973e-07
3.1545e-07
3.163e-07
3.20155e-07
2.15061e-07
2.15503e-07
2.16372e-07
2.16811e-07
3.17359e-07
3.21589e-07
2.15253e-07
2.15411e-07
2.1638e-07
2.16728e-07
2.15722e-07
2.16842e-07
2.17162e-07
3.17138e-07
3.21125e-07
2.15601e-07
2.16485e-07
2.16973e-07
3.2197e-07
1.33074e-07
1.33122e-07
1.33107e-07
1.33141e-07
3.33068e-06
8.75202e-06
3.316e-06
8.7521e-06
1.83057e-05
1.83061e-05
3.34008e-06
8.75649e-06
3.32401e-06
8.75647e-06
1.32249e-07
1.3223e-07
1.32272e-07
1.29839e-07
1.29927e-07
1.29898e-07
1.29959e-07
9.61434e-07
2.59731e-06
1.55354e-07
2.15862e-07
9.50896e-07
2.60476e-06
1.54918e-07
1.83033e-05
1.83036e-05
9.64508e-07
1.55373e-07
2.59144e-06
2.15622e-07
9.55417e-07
1.54948e-07
2.59885e-06
4.97095e-06
4.97165e-06
3.18723e-07
4.97361e-06
4.97787e-06
1.82994e-05
1.83026e-05
1.83012e-05
1.83048e-05
3.13025e-07
4.96314e-06
4.96301e-06
4.96159e-06
4.96219e-06
3.29798e-06
8.75258e-06
8.7532e-06
3.31253e-06
3.30006e-06
8.76136e-06
8.7618e-06
3.31445e-06
9.40999e-07
2.14186e-07
2.58756e-06
1.55746e-07
2.58144e-06
1.56268e-07
9.48785e-07
9.38274e-07
2.14589e-07
2.59144e-06
1.55822e-07
2.584e-06
1.56346e-07
9.46143e-07
1.83098e-05
1.83116e-05
3.13965e-07
4.96661e-06
4.97192e-06
4.9644e-06
4.96748e-06
1.83142e-05
1.83163e-05
3.30679e-06
8.75699e-06
8.7577e-06
3.31807e-06
9.40342e-07
2.14353e-07
2.5911e-06
1.55865e-07
2.58426e-06
1.56377e-07
9.51757e-07
3.30513e-06
8.75782e-06
8.75784e-06
3.31957e-06
9.39857e-07
2.14508e-07
1.55831e-07
2.59113e-06
1.5635e-07
2.58246e-06
9.48523e-07
9.37996e-07
2.14537e-07
2.58778e-06
1.55833e-07
2.58306e-06
1.56325e-07
9.4566e-07
3.30723e-06
8.75912e-06
8.75964e-06
3.32095e-06
9.38783e-07
2.14702e-07
1.55845e-07
2.59638e-06
1.56355e-07
2.58887e-06
9.47789e-07
3.30535e-06
8.76528e-06
8.76573e-06
3.31858e-06
1.8308e-05
1.83103e-05
3.13813e-07
4.96675e-06
4.96209e-06
4.96337e-06
4.96189e-06
1.82988e-05
1.8303e-05
9.40371e-07
2.14402e-07
1.55853e-07
2.58801e-06
1.56334e-07
2.57852e-06
9.49749e-07
9.40776e-07
2.14617e-07
1.5591e-07
2.59302e-06
1.56425e-07
2.5825e-06
9.50237e-07
3.30973e-06
8.75668e-06
8.75821e-06
3.32365e-06
3.3084e-06
8.76431e-06
8.76521e-06
3.32204e-06
3.14179e-07
4.96628e-06
4.96729e-06
4.96304e-06
4.96405e-06
1.83151e-05
1.8318e-05
1.83125e-05
1.83151e-05
1.82945e-05
1.82951e-05
1.8296e-05
1.82952e-05
4.96546e-06
4.96762e-06
3.17284e-07
4.96805e-06
4.96897e-06
1.82941e-05
1.82918e-05
1.82931e-05
1.82915e-05
3.19189e-07
4.97639e-06
4.97351e-06
4.97133e-06
4.97012e-06
3.32883e-06
8.76085e-06
3.31652e-06
8.7607e-06
9.6206e-07
2.59095e-06
1.55311e-07
2.1545e-07
9.51864e-07
2.59819e-06
1.54863e-07
9.60191e-07
2.59639e-06
1.55392e-07
2.15864e-07
9.49804e-07
2.60611e-06
1.54937e-07
3.33323e-06
8.75289e-06
8.75211e-06
3.34689e-06
3.33465e-06
8.75985e-06
8.76023e-06
3.35067e-06
9.64887e-07
2.15904e-07
2.60969e-06
1.5409e-07
2.60287e-06
1.54464e-07
9.74042e-07
9.648e-07
2.16389e-07
2.62305e-06
1.54156e-07
2.61112e-06
1.5454e-07
9.75838e-07
4.97216e-06
4.97647e-06
3.18492e-07
4.97678e-06
4.9813e-06
1.83091e-05
1.83066e-05
1.8302e-05
1.83022e-05
3.20614e-07
4.98388e-06
4.98371e-06
4.97849e-06
4.98313e-06
1.82982e-05
1.83012e-05
9.63922e-07
2.59605e-06
1.55436e-07
2.15543e-07
9.53415e-07
2.60009e-06
1.54993e-07
3.33766e-06
8.75747e-06
3.32286e-06
8.7591e-06
9.62277e-07
1.55404e-07
2.59559e-06
2.15762e-07
9.51683e-07
1.54955e-07
2.60344e-06
3.34505e-06
8.75621e-06
8.75614e-06
3.35961e-06
9.68125e-07
2.16063e-07
2.61208e-06
1.54214e-07
2.60508e-06
1.54592e-07
9.77853e-07
3.34659e-06
8.75972e-06
8.75922e-06
3.36141e-06
9.67851e-07
2.16282e-07
1.54181e-07
2.61416e-06
1.54563e-07
2.60646e-06
9.76969e-07
3.33815e-06
8.7586e-06
3.32297e-06
8.75845e-06
9.59829e-07
1.55424e-07
2.60738e-06
2.16124e-07
9.51052e-07
1.54984e-07
2.61458e-06
3.33699e-06
8.76448e-06
3.32205e-06
8.76358e-06
9.65975e-07
2.16414e-07
2.61589e-06
1.54133e-07
2.60809e-06
1.54508e-07
9.74647e-07
3.3417e-06
8.75756e-06
8.75792e-06
3.35922e-06
9.63962e-07
2.16699e-07
1.5422e-07
2.62218e-06
1.54596e-07
2.61778e-06
9.77221e-07
3.34129e-06
8.75931e-06
8.76205e-06
3.35635e-06
4.96821e-06
4.96444e-06
3.18173e-07
4.97217e-06
4.96792e-06
1.82942e-05
1.82949e-05
1.83012e-05
1.82997e-05
3.20168e-07
4.97717e-06
4.97452e-06
4.97481e-06
4.97016e-06
1.82944e-05
1.82917e-05
9.62572e-07
1.55485e-07
2.59769e-06
2.15987e-07
9.53459e-07
1.55044e-07
2.6064e-06
3.34309e-06
8.75587e-06
3.32669e-06
8.75491e-06
3.33726e-06
8.76316e-06
3.32483e-06
8.76135e-06
9.68671e-07
2.16096e-07
1.5416e-07
2.61102e-06
1.54532e-07
2.60147e-06
9.79109e-07
9.68593e-07
2.16527e-07
1.54277e-07
2.62347e-06
1.54653e-07
2.61427e-06
9.79047e-07
3.34651e-06
8.75358e-06
8.75418e-06
3.36499e-06
3.34281e-06
8.75813e-06
8.75976e-06
3.35959e-06
1.83105e-05
1.83094e-05
1.83081e-05
1.8308e-05
3.20872e-07
4.98133e-06
4.98444e-06
4.97718e-06
4.98016e-06
1.83047e-05
1.83052e-05
1.83037e-05
1.8304e-05
1.19524e-05
3.32422e-06
1.05502e-05
4.20562e-06
1.05476e-05
4.2053e-06
1.19552e-05
2.2207e-05
7.08618e-06
8.75219e-06
2.22024e-05
7.0847e-06
1.1952e-05
3.31819e-06
1.05448e-05
4.19583e-06
1.19489e-05
1.05471e-05
4.20049e-06
2.21994e-05
7.08482e-06
8.75179e-06
7.08592e-06
2.22044e-05
1.8308e-05
1.83038e-05
1.19581e-05
3.33389e-06
4.21484e-06
1.05596e-05
4.20962e-06
1.05571e-05
1.19606e-05
2.22148e-05
7.09164e-06
8.75671e-06
2.221e-05
7.0908e-06
1.19577e-05
3.32748e-06
4.20107e-06
1.05547e-05
1.19549e-05
4.2041e-06
1.05568e-05
2.22074e-05
7.09085e-06
8.75626e-06
7.09219e-06
2.22114e-05
1.83055e-05
1.83011e-05
9.61262e-06
2.17665e-05
2.17652e-05
2.17609e-05
2.17593e-05
9.61156e-06
3.71773e-06
1.70103e-06
8.82696e-06
4.96924e-06
3.7174e-06
1.7066e-06
8.83069e-06
3.72067e-06
1.70182e-06
8.82731e-06
4.97172e-06
3.71955e-06
1.70414e-06
8.83123e-06
9.61116e-06
2.17601e-05
2.17581e-05
9.61303e-06
2.17657e-05
2.17639e-05
3.72658e-06
8.83483e-06
4.97497e-06
1.7145e-06
1.71133e-06
8.83204e-06
3.72588e-06
3.72578e-06
8.83546e-06
4.97646e-06
1.71371e-06
1.70867e-06
8.83263e-06
3.72627e-06
1.82981e-05
1.83034e-05
1.83e-05
1.83055e-05
9.61162e-06
2.17464e-05
2.17462e-05
9.61441e-06
2.17515e-05
2.17511e-05
3.70452e-06
1.69537e-06
4.9636e-06
8.81469e-06
8.81156e-06
1.69068e-06
3.70879e-06
3.7179e-06
1.69184e-06
4.96411e-06
8.81884e-06
8.81791e-06
1.68961e-06
3.71854e-06
3.70276e-06
8.80861e-06
1.6832e-06
4.96162e-06
3.70171e-06
8.81099e-06
1.68434e-06
3.71327e-06
8.8146e-06
1.68251e-06
4.96026e-06
3.7119e-06
8.81774e-06
1.68634e-06
9.61172e-06
2.17515e-05
2.17507e-05
2.17463e-05
2.17457e-05
9.60913e-06
1.1945e-05
1.05411e-05
4.18136e-06
3.30357e-06
1.19426e-05
1.05426e-05
4.18194e-06
2.22057e-05
8.75256e-06
7.08531e-06
2.22101e-05
7.08705e-06
2.22137e-05
7.08809e-06
8.7532e-06
2.22097e-05
7.08629e-06
1.19453e-05
3.30641e-06
1.05445e-05
4.19052e-06
1.19483e-05
1.05425e-05
4.18958e-06
1.19479e-05
1.0542e-05
4.19046e-06
3.30546e-06
1.19465e-05
1.05435e-05
4.19187e-06
2.22236e-05
8.76133e-06
7.09629e-06
7.09803e-06
2.22271e-05
2.22324e-05
7.09941e-06
8.76197e-06
2.22297e-05
7.09763e-06
1.19475e-05
3.30816e-06
1.05451e-05
4.19508e-06
1.05431e-05
4.19501e-06
1.19496e-05
1.8308e-05
1.83128e-05
9.61399e-06
2.17564e-05
2.17601e-05
9.61649e-06
2.17617e-05
2.17654e-05
3.70989e-06
1.69623e-06
4.96783e-06
8.82399e-06
1.69619e-06
8.82163e-06
3.71447e-06
3.71096e-06
1.70081e-06
4.97169e-06
8.82823e-06
8.82543e-06
1.69551e-06
3.71219e-06
3.70501e-06
8.81842e-06
1.68704e-06
4.96432e-06
1.68763e-06
3.70471e-06
8.82015e-06
3.70743e-06
8.82059e-06
1.68852e-06
4.96878e-06
3.70362e-06
8.82378e-06
1.69376e-06
9.61455e-06
2.17626e-05
2.17659e-05
2.17569e-05
2.17605e-05
9.61228e-06
1.83127e-05
1.83176e-05
1.19517e-05
4.18554e-06
1.05509e-05
3.30854e-06
1.19495e-05
4.19032e-06
1.05525e-05
2.22117e-05
8.75692e-06
7.09015e-06
2.22166e-05
7.09114e-06
2.22189e-05
7.09152e-06
8.75762e-06
2.22147e-05
7.09019e-06
1.19519e-05
3.3161e-06
4.1954e-06
1.05544e-05
1.19546e-05
4.19417e-06
1.05525e-05
1.19575e-05
1.05494e-05
4.19264e-06
3.31117e-06
1.1955e-05
1.05511e-05
4.19766e-06
2.22154e-05
8.75752e-06
7.09086e-06
7.09194e-06
2.22209e-05
2.22229e-05
7.09242e-06
8.75798e-06
2.22182e-05
7.09083e-06
1.19577e-05
3.31571e-06
1.05531e-05
4.20634e-06
1.0551e-05
4.2012e-06
1.19605e-05
1.19473e-05
4.18481e-06
1.05478e-05
3.30784e-06
1.19454e-05
4.18501e-06
1.05489e-05
2.22151e-05
8.75909e-06
7.09179e-06
7.09335e-06
2.22193e-05
2.22229e-05
7.09408e-06
8.75967e-06
2.22189e-05
7.09267e-06
1.1947e-05
3.31885e-06
4.1919e-06
1.05506e-05
4.19146e-06
1.05488e-05
1.19493e-05
1.19546e-05
1.0547e-05
4.19001e-06
3.30676e-06
1.19524e-05
1.05484e-05
4.19203e-06
2.22282e-05
8.76525e-06
7.09541e-06
7.09697e-06
2.2232e-05
2.22366e-05
7.09794e-06
8.76596e-06
2.22335e-05
7.09627e-06
1.19547e-05
3.31306e-06
1.05502e-05
4.20127e-06
1.05483e-05
4.1969e-06
1.19575e-05
1.83063e-05
1.83115e-05
9.60965e-06
2.17478e-05
2.17452e-05
9.61202e-06
2.1753e-05
2.17502e-05
3.71525e-06
1.69954e-06
4.96665e-06
8.82241e-06
1.69713e-06
8.82042e-06
3.71696e-06
3.70644e-06
1.69597e-06
4.9626e-06
8.81325e-06
8.81132e-06
1.6908e-06
3.70965e-06
3.70573e-06
8.81765e-06
1.68935e-06
4.96387e-06
1.69167e-06
3.70679e-06
8.81907e-06
3.70362e-06
8.81011e-06
1.68641e-06
4.9619e-06
3.70184e-06
8.81123e-06
1.68907e-06
9.61058e-06
2.17533e-05
2.17502e-05
2.17479e-05
2.1745e-05
9.60845e-06
1.82978e-05
1.83034e-05
1.19523e-05
4.1897e-06
1.05509e-05
3.31129e-06
1.19507e-05
4.19357e-06
1.0552e-05
2.22207e-05
8.75653e-06
7.09778e-06
7.09952e-06
2.22232e-05
2.22303e-05
7.10066e-06
8.75818e-06
2.22281e-05
7.09903e-06
1.1952e-05
3.31815e-06
4.20053e-06
1.05537e-05
4.19613e-06
1.05519e-05
1.19539e-05
1.19546e-05
4.19167e-06
1.05501e-05
3.31016e-06
1.19532e-05
4.19239e-06
1.05513e-05
2.22324e-05
8.76442e-06
7.10321e-06
7.1049e-06
2.22346e-05
2.2242e-05
7.10522e-06
8.76532e-06
2.22395e-05
7.10417e-06
1.19541e-05
3.31635e-06
4.20145e-06
1.05526e-05
4.19762e-06
1.05508e-05
1.19559e-05
9.61361e-06
2.17604e-05
2.17578e-05
9.61625e-06
2.17652e-05
2.17628e-05
3.70831e-06
1.69685e-06
4.96663e-06
8.82606e-06
3.70987e-06
1.69363e-06
8.82373e-06
3.70995e-06
1.69747e-06
4.96742e-06
8.82649e-06
3.71505e-06
1.69233e-06
8.82342e-06
3.70474e-06
8.81927e-06
1.68568e-06
4.9643e-06
3.70102e-06
1.68844e-06
8.82221e-06
3.70618e-06
8.81975e-06
1.68803e-06
4.96274e-06
3.70773e-06
1.69099e-06
8.82269e-06
9.61415e-06
2.17651e-05
2.17629e-05
9.61195e-06
2.176e-05
2.17576e-05
1.83138e-05
1.83189e-05
1.83111e-05
1.8316e-05
1.82967e-05
1.82925e-05
1.82978e-05
1.82932e-05
9.60825e-06
2.17521e-05
2.17511e-05
2.17469e-05
2.17457e-05
9.60602e-06
3.7161e-06
1.70094e-06
8.81637e-06
4.96473e-06
3.71215e-06
8.81891e-06
1.70745e-06
3.72383e-06
1.69689e-06
8.8199e-06
4.96769e-06
3.72144e-06
8.82134e-06
1.69882e-06
9.60739e-06
2.17466e-05
2.17456e-05
9.60993e-06
2.17519e-05
2.17509e-05
3.71969e-06
8.82304e-06
4.96806e-06
1.71328e-06
8.81953e-06
3.72399e-06
1.71259e-06
3.72746e-06
8.82335e-06
4.96953e-06
1.70896e-06
8.8212e-06
3.72743e-06
1.70405e-06
1.8291e-05
1.82946e-05
1.82905e-05
1.82941e-05
9.60471e-06
2.17467e-05
2.17457e-05
9.607e-06
2.17521e-05
2.17507e-05
3.73384e-06
1.73183e-06
4.97542e-06
8.83312e-06
8.82914e-06
1.72951e-06
3.73861e-06
3.732e-06
1.71697e-06
4.97318e-06
8.8289e-06
8.82742e-06
1.718e-06
3.7301e-06
3.73218e-06
8.82439e-06
1.72259e-06
4.97177e-06
3.72823e-06
8.82826e-06
1.72461e-06
3.72827e-06
8.82452e-06
1.70904e-06
4.97112e-06
3.72896e-06
8.82621e-06
1.71385e-06
9.60565e-06
2.17527e-05
2.17504e-05
2.17471e-05
2.17452e-05
9.60368e-06
1.19517e-05
3.32722e-06
1.05514e-05
4.2067e-06
1.05482e-05
4.20633e-06
1.19544e-05
2.22226e-05
7.09701e-06
8.76097e-06
2.2219e-05
7.09536e-06
1.19516e-05
3.32239e-06
1.05453e-05
4.2007e-06
1.05478e-05
1.19494e-05
4.20188e-06
2.22144e-05
7.09429e-06
8.76052e-06
7.09594e-06
2.22183e-05
1.1958e-05
1.05506e-05
4.2147e-06
3.33871e-06
1.19555e-05
1.05534e-05
4.21707e-06
2.21943e-05
8.75245e-06
7.08499e-06
7.0866e-06
2.21984e-05
2.2202e-05
7.08643e-06
8.75248e-06
2.21972e-05
7.08527e-06
1.1958e-05
3.34502e-06
1.05562e-05
4.22063e-06
1.05538e-05
4.22119e-06
1.19599e-05
1.19577e-05
1.05517e-05
4.21285e-06
3.33761e-06
1.19548e-05
1.05551e-05
4.21226e-06
2.2205e-05
8.75975e-06
7.09021e-06
7.09256e-06
2.22084e-05
2.22135e-05
7.0947e-06
8.76033e-06
2.221e-05
7.09248e-06
1.19581e-05
3.34719e-06
1.05582e-05
4.22156e-06
1.05556e-05
4.22012e-06
1.19605e-05
9.61191e-06
2.17654e-05
2.17674e-05
2.17594e-05
2.17618e-05
9.61026e-06
3.72009e-06
1.6995e-06
8.8259e-06
4.97255e-06
8.82882e-06
3.719e-06
1.70472e-06
3.72091e-06
1.7045e-06
8.83003e-06
4.97568e-06
1.71053e-06
3.72084e-06
8.83235e-06
9.61106e-06
2.1758e-05
2.17611e-05
2.1764e-05
9.61326e-06
2.17667e-05
3.72483e-06
8.83369e-06
4.97482e-06
1.71134e-06
8.8307e-06
1.70842e-06
3.72932e-06
3.72656e-06
8.83564e-06
4.98108e-06
1.71612e-06
1.71418e-06
8.83332e-06
3.72546e-06
1.83105e-05
1.83052e-05
1.83001e-05
1.83042e-05
9.61001e-06
2.17606e-05
2.17622e-05
9.61168e-06
2.17663e-05
2.17675e-05
3.7437e-06
1.72919e-06
4.98285e-06
8.84279e-06
1.72335e-06
8.83974e-06
3.74592e-06
3.73994e-06
1.73328e-06
4.98423e-06
8.84052e-06
8.83883e-06
1.73195e-06
3.73674e-06
3.73779e-06
8.83507e-06
1.71561e-06
4.97965e-06
1.7184e-06
3.7357e-06
8.83873e-06
3.73638e-06
8.83683e-06
1.72179e-06
4.98253e-06
3.7325e-06
8.83849e-06
1.72375e-06
9.61141e-06
2.17667e-05
2.17671e-05
2.17613e-05
2.17621e-05
9.61008e-06
1.82969e-05
1.83023e-05
1.19632e-05
3.33572e-06
1.05584e-05
4.22381e-06
1.0556e-05
4.22029e-06
1.19649e-05
2.22194e-05
7.09234e-06
8.75832e-06
2.2214e-05
7.09133e-06
1.19632e-05
3.33007e-06
1.05533e-05
4.21024e-06
1.05557e-05
1.1961e-05
4.21513e-06
2.2212e-05
7.09153e-06
8.75849e-06
7.09291e-06
2.22168e-05
1.19627e-05
4.21665e-06
1.056e-05
3.34622e-06
1.19608e-05
4.22137e-06
1.05624e-05
2.21979e-05
8.75598e-06
7.08799e-06
7.09027e-06
2.2201e-05
2.22065e-05
7.0914e-06
8.75631e-06
2.22031e-05
7.08981e-06
1.19624e-05
3.3577e-06
4.22726e-06
1.05644e-05
4.22527e-06
1.05626e-05
1.19639e-05
1.19653e-05
1.05587e-05
4.229e-06
3.34965e-06
1.19642e-05
1.05607e-05
4.22815e-06
2.22038e-05
8.75945e-06
7.08952e-06
7.09184e-06
2.22069e-05
2.22127e-05
7.09279e-06
8.75964e-06
2.22086e-05
7.09088e-06
1.19639e-05
3.35889e-06
1.05626e-05
4.23583e-06
1.05608e-05
4.23556e-06
1.19642e-05
1.19526e-05
3.33241e-06
4.20635e-06
1.0556e-05
4.20355e-06
1.05533e-05
1.19557e-05
2.22159e-05
7.09242e-06
8.75871e-06
7.09094e-06
2.22116e-05
1.19522e-05
3.32841e-06
4.19539e-06
1.05508e-05
4.19768e-06
1.19494e-05
1.0553e-05
2.22084e-05
7.09054e-06
8.7582e-06
7.09187e-06
2.22128e-05
1.19615e-05
3.33245e-06
1.0556e-05
4.21531e-06
1.05534e-05
4.21394e-06
1.19643e-05
2.2228e-05
7.09624e-06
8.76462e-06
2.2224e-05
7.0949e-06
1.1961e-05
3.3287e-06
1.05505e-05
4.20422e-06
1.1958e-05
1.05529e-05
4.20564e-06
2.22198e-05
7.0931e-06
8.76372e-06
7.09558e-06
2.22234e-05
1.19594e-05
4.21052e-06
1.05563e-05
3.3475e-06
1.19563e-05
4.21494e-06
1.0559e-05
2.22002e-05
8.75756e-06
7.0877e-06
7.08987e-06
2.22034e-05
2.22088e-05
7.09149e-06
8.75808e-06
2.22051e-05
7.08961e-06
1.19597e-05
3.35365e-06
4.22225e-06
1.05617e-05
4.2208e-06
1.05592e-05
1.19621e-05
1.19664e-05
1.05568e-05
4.22516e-06
3.34666e-06
1.19645e-05
1.05594e-05
4.22705e-06
2.22049e-05
8.75986e-06
7.08549e-06
7.09003e-06
2.22061e-05
2.22156e-05
7.09424e-06
8.76176e-06
2.22139e-05
7.08987e-06
1.19659e-05
3.3543e-06
1.05625e-05
4.23323e-06
1.05599e-05
4.23221e-06
1.19671e-05
9.6073e-06
2.17535e-05
2.17502e-05
2.17485e-05
2.17451e-05
9.60448e-06
3.72197e-06
1.7052e-06
8.82402e-06
4.96847e-06
8.82631e-06
3.72136e-06
1.70749e-06
3.70928e-06
1.69822e-06
8.81317e-06
4.96358e-06
1.69742e-06
3.71292e-06
8.81568e-06
9.60692e-06
2.17484e-05
2.17452e-05
2.17537e-05
9.60946e-06
2.17505e-05
3.72538e-06
8.83027e-06
4.97127e-06
1.70989e-06
8.8281e-06
1.70993e-06
3.72447e-06
3.71655e-06
8.81833e-06
4.96811e-06
1.70556e-06
1.7039e-06
8.81562e-06
3.71382e-06
1.82962e-05
1.82922e-05
1.82984e-05
1.83023e-05
9.60223e-06
2.1748e-05
2.17447e-05
9.60479e-06
2.17533e-05
2.17501e-05
3.7372e-06
1.72659e-06
4.97674e-06
8.83892e-06
1.72441e-06
8.83649e-06
3.73864e-06
3.72477e-06
1.72089e-06
4.97522e-06
8.82654e-06
8.82336e-06
1.71976e-06
3.72431e-06
3.73356e-06
8.8314e-06
1.71696e-06
4.97455e-06
1.71896e-06
3.73266e-06
8.83478e-06
3.71656e-06
8.81992e-06
1.71325e-06
4.97205e-06
3.71893e-06
8.82247e-06
1.71435e-06
9.60271e-06
2.17534e-05
2.17505e-05
2.1748e-05
2.17449e-05
9.60052e-06
1.82914e-05
1.82947e-05
1.19559e-05
3.33616e-06
4.2147e-06
1.05584e-05
4.21086e-06
1.05564e-05
1.19579e-05
2.22165e-05
7.09799e-06
8.7558e-06
7.09604e-06
2.22137e-05
1.19559e-05
3.3286e-06
4.20189e-06
1.05539e-05
4.2058e-06
1.19539e-05
1.0556e-05
2.22073e-05
7.09341e-06
8.75499e-06
7.09634e-06
2.22097e-05
1.19574e-05
3.33512e-06
4.21523e-06
1.05574e-05
4.21347e-06
1.0555e-05
1.19592e-05
2.22266e-05
7.10386e-06
8.76316e-06
2.22249e-05
7.10138e-06
1.19575e-05
3.33105e-06
4.20439e-06
1.05526e-05
1.19557e-05
4.20405e-06
1.05548e-05
2.2215e-05
7.09618e-06
8.76163e-06
7.10083e-06
2.22154e-05
1.19599e-05
4.22031e-06
1.05588e-05
3.35325e-06
1.1958e-05
4.22256e-06
1.0561e-05
2.21924e-05
8.75355e-06
7.08626e-06
7.08951e-06
2.21947e-05
2.22022e-05
7.09316e-06
8.75409e-06
2.22001e-05
7.08982e-06
1.19595e-05
3.36179e-06
4.2293e-06
1.0563e-05
4.22735e-06
1.05613e-05
1.19611e-05
1.19606e-05
4.21844e-06
1.05574e-05
3.34579e-06
1.1959e-05
4.21756e-06
1.05595e-05
2.21937e-05
8.75817e-06
7.08696e-06
7.09041e-06
2.21951e-05
2.22045e-05
7.09513e-06
8.75944e-06
2.22039e-05
7.09112e-06
1.19601e-05
3.354e-06
4.22692e-06
1.05612e-05
4.22563e-06
1.05595e-05
1.19615e-05
1.83121e-05
1.83076e-05
1.831e-05
1.83058e-05
9.61284e-06
2.17615e-05
2.17605e-05
9.61364e-06
2.17669e-05
2.17662e-05
3.74224e-06
1.73561e-06
4.98169e-06
8.84228e-06
1.73031e-06
8.83918e-06
3.7433e-06
3.7401e-06
1.72674e-06
4.98394e-06
8.84344e-06
1.72304e-06
8.84056e-06
3.73899e-06
3.73748e-06
8.83562e-06
1.72349e-06
4.97701e-06
3.7363e-06
1.72528e-06
8.83903e-06
3.7348e-06
8.83707e-06
1.71622e-06
4.98168e-06
3.73302e-06
1.71745e-06
8.83981e-06
9.61481e-06
2.17663e-05
2.17662e-05
2.17616e-05
2.17612e-05
9.6137e-06
1.83028e-05
1.83073e-05
1.83018e-05
1.8306e-05
1.17806e-07
1.17817e-07
1.31368e-07
1.16771e-07
1.16783e-07
1.10259e-07
1.11462e-07
1.4984e-06
6.45393e-07
6.43294e-07
3.17123e-07
1.49648e-06
6.46524e-07
6.42979e-07
1.48093e-06
3.14717e-07
6.38979e-07
6.36824e-07
6.38213e-07
6.38215e-07
1.48356e-06
1.48254e-06
3.15636e-07
6.39451e-07
6.38295e-07
6.37565e-07
6.39162e-07
1.48946e-06
1.48403e-06
3.15492e-07
6.36881e-07
6.39524e-07
6.37935e-07
6.3744e-07
1.48756e-06
1.48346e-06
3.15865e-07
6.41311e-07
6.39298e-07
1.49039e-06
6.40343e-07
6.38868e-07
1.49511e-06
6.41658e-07
6.429e-07
3.15827e-07
1.49056e-06
6.43581e-07
6.43134e-07
1.51676e-06
3.20649e-07
6.57243e-07
6.54514e-07
6.56319e-07
6.53778e-07
1.51548e-06
1.49999e-06
6.443e-07
6.45742e-07
3.16928e-07
6.46689e-07
1.49462e-06
6.45228e-07
1.52107e-06
3.22141e-07
6.58115e-07
6.56965e-07
6.57602e-07
6.58611e-07
1.519e-06
1.49895e-06
6.44002e-07
6.43465e-07
3.16665e-07
6.44788e-07
1.49584e-06
6.44756e-07
1.52086e-06
3.21641e-07
6.58792e-07
6.57136e-07
6.58122e-07
6.56741e-07
1.51778e-06
1.52294e-06
3.22491e-07
6.5909e-07
6.56458e-07
6.59138e-07
6.57022e-07
1.52826e-06
1.33965e-07
1.18965e-07
1.18976e-07
1.20095e-07
1.20103e-07
1.14015e-07
1.12724e-07
1.34012e-07
1.18994e-07
1.18997e-07
1.20108e-07
1.20106e-07
1.14005e-07
1.12752e-07
1.33999e-07
1.18999e-07
1.18998e-07
1.2011e-07
1.20107e-07
1.14006e-07
1.12753e-07
1.34029e-07
1.19003e-07
1.19009e-07
1.20113e-07
1.2012e-07
1.14006e-07
1.12758e-07
1.17825e-07
1.17826e-07
1.31442e-07
1.16796e-07
1.168e-07
1.10296e-07
1.11454e-07
1.17829e-07
1.17827e-07
1.31421e-07
1.16801e-07
1.16801e-07
1.10297e-07
1.11455e-07
1.17835e-07
1.17841e-07
1.31469e-07
1.16808e-07
1.16815e-07
1.10303e-07
1.11456e-07
1.30552e-07
1.14769e-07
1.14782e-07
1.15699e-07
1.15711e-07
1.09105e-07
1.07993e-07
1.30645e-07
1.14792e-07
1.14796e-07
1.15725e-07
1.15728e-07
1.09091e-07
1.08043e-07
1.30618e-07
1.14796e-07
1.14796e-07
1.15729e-07
1.15728e-07
1.09093e-07
1.08045e-07
1.30674e-07
1.14805e-07
1.14812e-07
1.15738e-07
1.15744e-07
1.09094e-07
1.08052e-07
4.17565e-07
9.56947e-07
1.24919e-06
3.44156e-07
1.24657e-06
3.44148e-07
4.1725e-07
5.75463e-07
8.66748e-07
1.86302e-06
2.59817e-06
5.74653e-07
8.67525e-07
1.8643e-06
4.14751e-07
9.52082e-07
1.24063e-06
3.42298e-07
4.14979e-07
1.24169e-06
3.42162e-07
5.79507e-07
1.87641e-06
2.60103e-06
8.7436e-07
8.73118e-07
1.87163e-06
5.79733e-07
4.18121e-07
9.61726e-07
3.45257e-07
1.25686e-06
3.45338e-07
1.25478e-06
4.17941e-07
5.7532e-07
8.64718e-07
1.86606e-06
2.59312e-06
5.75217e-07
8.64311e-07
1.86787e-06
4.15243e-07
9.57611e-07
3.43413e-07
1.24447e-06
4.15396e-07
3.4342e-07
1.24607e-06
5.7962e-07
1.87238e-06
2.59666e-06
8.71282e-07
8.70855e-07
1.87193e-06
5.79481e-07
1.50315e-06
3.19223e-07
6.48566e-07
6.48638e-07
6.49135e-07
6.48153e-07
1.50864e-06
1.47505e-06
3.12597e-07
6.32421e-07
6.32926e-07
1.47321e-06
6.31596e-07
6.34588e-07
4.09755e-07
1.22521e-06
3.38627e-07
9.4086e-07
4.0985e-07
1.23026e-06
3.38708e-07
5.69218e-07
8.60285e-07
2.58686e-06
1.8546e-06
8.59649e-07
1.85512e-06
5.69629e-07
5.66046e-07
1.84492e-06
8.54292e-07
2.5823e-06
8.55845e-07
5.65562e-07
1.84833e-06
4.12383e-07
9.48534e-07
1.23524e-06
3.40764e-07
1.23378e-06
3.40761e-07
4.12255e-07
4.10323e-07
1.22676e-06
3.38851e-07
9.39799e-07
4.10469e-07
1.23031e-06