/*--------------------------------*- C++ -*----------------------------------*\
| =========                 |                                                 |
| \\      /  F ield         | OpenFOAM: The Open Source CFD Toolbox           |
|  \\    /   O peration     | Version:  v1906                                 |
|   \\  /    A nd           | Web:      www.OpenFOAM.com                      |
|    \\/     M anipulation  |                                                 |
\*---------------------------------------------------------------------------*/
FoamFile
{
    version     2.0;
    format      ascii;
    class       volVectorField;
    location    "100";
    object      U;
}
// * * * * * * * * * * * * * * * * * * * * * * * * * * * * * * * * * * * * * //

dimensions      [0 1 -1 0 0 0 0];


internalField   nonuniform List<vector> 
43248
(
(-6.15012e-05 -6.1938e-05 0.106611)
(2.36556e-06 1.54382e-06 0.107856)
(-2.24226e-06 1.26351e-06 0.107858)
(6.17854e-05 -6.21068e-05 0.106611)
(1.80892e-06 2.52863e-06 0.10786)
(1.75506e-06 -2.34401e-06 0.107859)
(-1.52678e-06 2.00374e-06 0.107859)
(-1.57746e-06 -2.2331e-06 0.10786)
(-6.17968e-05 6.19586e-05 0.106619)
(2.27709e-06 -1.53238e-06 0.107862)
(-2.51319e-06 -1.4719e-06 0.107864)
(6.19536e-05 6.1677e-05 0.106623)
(-1.04914e-06 -9.35213e-07 0.108913)
(1.10145e-06 -1.161e-06 0.108913)
(-1.10237e-06 1.0335e-06 0.108914)
(9.38456e-07 9.47607e-07 0.108914)
(-4.71316e-06 -9.50429e-06 0.072185)
(-9.13495e-06 -5.32573e-06 0.0721779)
(-9.84598e-06 -8.58765e-06 0.0895623)
(-8.69588e-06 -1.02127e-05 0.089544)
(3.8825e-07 2.03748e-05 0.0942473)
(-1.30675e-06 -1.76888e-05 0.0836784)
(3.45783e-07 -2.1619e-05 0.0943458)
(2.94932e-07 2.04716e-05 0.0942506)
(1.7346e-06 -1.78666e-05 0.0836751)
(-6.84307e-07 1.75571e-05 0.0835804)
(7.22251e-07 -2.20605e-05 0.0943496)
(3.42161e-07 2.72086e-05 0.102425)
(-1.27521e-05 -2.00142e-05 0.0958794)
(6.05432e-08 1.47475e-06 0.108536)
(5.53234e-08 1.46888e-06 0.108536)
(1.92578e-07 -2.73943e-05 0.10253)
(4.38683e-07 2.71048e-05 0.102431)
(-2.20803e-06 1.51615e-06 0.107858)
(1.28688e-05 -2.03947e-05 0.0958775)
(2.95152e-07 1.34558e-06 0.108537)
(-1.16163e-05 2.11548e-05 0.0957429)
(2.72378e-07 1.38037e-06 0.108536)
(7.18302e-07 -2.75646e-05 0.102537)
(4.87324e-06 -9.72107e-06 0.0721798)
(-4.62775e-06 9.3521e-06 0.0720767)
(-5.805e-05 5.76614e-05 0.106484)
(9.51473e-06 -8.75537e-06 0.089549)
(8.16066e-06 -1.03535e-05 0.0895626)
(-1.01482e-05 9.1432e-06 0.0894396)
(-9.80275e-06 9.16635e-06 0.0894524)
(9.14352e-06 -5.47489e-06 0.0721878)
(-9.83407e-06 3.74861e-06 0.0720814)
(-1.7077e-05 -2.27759e-06 0.0836749)
(-2.16893e-05 8.29991e-09 0.0943549)
(-2.00792e-05 -1.29704e-05 0.0958768)
(1.59369e-06 -2.857e-09 0.108537)
(-2.74369e-05 -3.69624e-08 0.102554)
(-1.72523e-05 2.68193e-06 0.0836794)
(-2.16179e-05 5.12328e-07 0.0943532)
(1.60734e-06 1.8989e-09 0.108536)
(-1.98878e-05 1.31846e-05 0.0958701)
(-2.73645e-05 -1.82559e-07 0.10255)
(-2.83271e-05 -5.23294e-07 0.102446)
(-1.69178e-06 1.89436e-06 0.107858)
(1.9469e-05 -1.31838e-05 0.0958802)
(-1.5879e-06 -2.49741e-07 0.108538)
(-2.1799e-05 1.12114e-05 0.0957456)
(-1.64054e-06 -2.61286e-07 0.108538)
(2.6641e-05 -8.34303e-08 0.102555)
(-2.08647e-05 -5.84307e-07 0.0942458)
(1.69645e-05 -2.52073e-06 0.083673)
(-1.81805e-05 -3.69368e-07 0.0835771)
(2.08564e-05 -9.78712e-07 0.094347)
(-2.8552e-05 -3.28109e-07 0.102446)
(-1.73383e-06 -2.10312e-06 0.10786)
(-1.57823e-06 -1.29044e-07 0.108538)
(1.91775e-05 1.30567e-05 0.0958734)
(-1.58613e-06 -5.173e-08 0.108538)
(-2.22722e-05 -1.14754e-05 0.0957406)
(2.69881e-05 -1.25216e-07 0.102555)
(-2.14473e-05 -1.97002e-07 0.0942344)
(1.68976e-05 2.61238e-06 0.0836705)
(-1.8263e-05 -2.65064e-08 0.0835774)
(2.09466e-05 2.14393e-07 0.0943335)
(-9.19645e-06 5.62173e-06 0.0721867)
(-8.37567e-06 1.01428e-05 0.0895377)
(-1.02015e-05 8.43186e-06 0.0895454)
(-5.48721e-06 9.05037e-06 0.0721752)
(-2.57836e-07 -2.80222e-05 0.102446)
(-2.52773e-07 -1.30642e-06 0.108539)
(-1.32591e-05 1.98354e-05 0.0958759)
(-1.85114e-07 -1.35616e-06 0.108538)
(-3.68032e-07 2.70703e-05 0.102556)
(5.44082e-08 -2.80752e-05 0.102438)
(-2.42155e-06 -1.64135e-06 0.107864)
(5.27032e-09 -1.3393e-06 0.108538)
(1.31484e-05 1.98871e-05 0.095869)
(1.16289e-07 -1.38642e-06 0.108538)
(-1.15504e-05 -2.16852e-05 0.0957347)
(-2.70642e-08 2.69169e-05 0.102547)
(-1.93204e-07 -2.11129e-05 0.0942519)
(-2.50615e-06 1.69778e-05 0.0836631)
(-4.3806e-07 2.12035e-05 0.0943532)
(-7.89091e-08 -2.10462e-05 0.0942493)
(2.81664e-06 1.68885e-05 0.0836642)
(4.52066e-07 -1.85428e-05 0.0835705)
(8.24638e-08 2.13674e-05 0.0943497)
(-5.80539e-05 -5.85106e-05 0.106497)
(8.06514e-06 1.04705e-05 0.0895413)
(1.05228e-05 8.27098e-06 0.0895312)
(-1.0015e-05 -9.12896e-06 0.0894339)
(-8.93927e-06 -9.63862e-06 0.0894227)
(9.23889e-06 5.40866e-06 0.0721732)
(-9.79245e-06 -4.20927e-06 0.0720728)
(5.58533e-06 9.06118e-06 0.0721701)
(-3.77047e-06 -1.01226e-05 0.0720688)
(4.75352e-06 9.35282e-06 0.0720847)
(9.59108e-06 3.99935e-06 0.0720763)
(1.08161e-05 2.41004e-05 0.0941823)
(-1.2046e-05 -3.05553e-05 0.099519)
(9.56385e-06 9.28391e-06 0.0894577)
(-6.29898e-06 -8.05591e-06 0.0830452)
(5.30426e-06 8.21725e-06 0.0829471)
(1.38662e-05 3.05421e-05 0.09942)
(-1.06279e-05 -2.45561e-05 0.0942808)
(2.36778e-05 1.03732e-05 0.094159)
(-3.06812e-05 -1.24134e-05 0.09954)
(9.38547e-06 9.36666e-06 0.0894337)
(-7.99057e-06 -6.2094e-06 0.0830339)
(8.01085e-06 5.22697e-06 0.0829295)
(3.1009e-05 1.38577e-05 0.0994238)
(-2.45548e-05 -1.07961e-05 0.0942767)
(8.19894e-06 8.53773e-06 0.0853473)
(-8.96337e-06 -3.90496e-06 0.0693307)
(-4.10646e-06 -8.60675e-06 0.0693236)
(8.01168e-06 4.42807e-06 0.0692293)
(4.24507e-06 8.26887e-06 0.0692205)
(-9.02975e-06 -8.56057e-06 0.0854351)
(1.29997e-06 -9.11295e-06 0.0777849)
(1.28116e-07 7.63987e-06 0.079578)
(7.42611e-07 1.91188e-05 0.0923196)
(3.05234e-07 -2.18664e-05 0.0943473)
(-2.99028e-07 8.12788e-06 0.0776961)
(6.24083e-07 -8.6627e-06 0.0796573)
(-4.26707e-07 -2.06256e-05 0.0924252)
(-4.90373e-07 8.40533e-06 0.0689065)
(1.12332e-06 1.74932e-05 0.0835847)
(-5.69596e-07 -1.65053e-05 0.087645)
(2.78883e-07 1.50901e-05 0.0875373)
(1.5138e-06 -9.02599e-06 0.0690208)
(5.66481e-08 8.00703e-06 0.0776975)
(5.22167e-07 2.02533e-05 0.094248)
(6.31513e-07 -9.1105e-06 0.0796591)
(-5.79519e-07 -2.11346e-05 0.092424)
(3.85211e-07 7.4386e-06 0.0795796)
(1.03232e-06 1.90147e-05 0.0923201)
(1.42887e-06 -9.53742e-06 0.0777869)
(-6.79299e-07 -9.15963e-06 0.0777633)
(3.43066e-07 7.64997e-06 0.0795638)
(-1.30776e-07 1.91174e-05 0.0923195)
(5.36129e-07 -2.16359e-05 0.094351)
(7.29263e-07 8.28573e-06 0.0776768)
(1.62416e-07 -8.68392e-06 0.0796432)
(1.26069e-06 -2.08503e-05 0.0924247)
(1.10335e-06 8.52398e-06 0.0688942)
(-6.79716e-07 1.74257e-05 0.0835809)
(1.06949e-06 -1.65931e-05 0.0876385)
(2.3055e-07 1.52408e-05 0.0875317)
(-8.66529e-07 -9.17447e-06 0.0690045)
(-7.52601e-07 -8.96918e-06 0.0690026)
(3.3021e-07 1.53685e-05 0.087531)
(1.6733e-06 -1.77409e-05 0.0836747)
(1.21843e-06 8.70978e-06 0.068893)
(9.76706e-07 -1.62329e-05 0.0876381)
(7.25389e-07 8.15628e-06 0.0776784)
(3.83772e-07 2.04916e-05 0.0942514)
(3.7652e-07 -9.09558e-06 0.0796456)
(1.43692e-06 -2.10422e-05 0.0924243)
(5.09299e-07 7.4573e-06 0.0795661)
(-1.33739e-07 1.89743e-05 0.0923209)
(-5.89556e-07 -9.56851e-06 0.0777657)
(-4.61464e-06 9.36768e-06 0.0720778)
(4.81052e-06 -9.69293e-06 0.0721784)
(8.47599e-06 -9.26232e-06 0.0854339)
(-8.77453e-06 3.98761e-06 0.0692151)
(-4.46658e-06 8.19038e-06 0.0692221)
(-8.74616e-06 7.94115e-06 0.085346)
(8.20783e-06 -4.38982e-06 0.0693173)
(3.91916e-06 -8.73168e-06 0.0693244)
(-1.08059e-05 2.33051e-05 0.0941684)
(1.23577e-05 -3.1162e-05 0.0995359)
(-1.00271e-05 9.21144e-06 0.0894403)
(5.8528e-06 -8.3309e-06 0.0830316)
(-1.38808e-05 3.04288e-05 0.099427)
(-5.8989e-06 7.96795e-06 0.0829288)
(1.06278e-05 -2.50293e-05 0.0942777)
(-2.44294e-05 1.03956e-05 0.0941821)
(3.01415e-05 -1.26375e-05 0.0995273)
(-9.71205e-06 8.98482e-06 0.0894526)
(7.71297e-06 -6.45118e-06 0.0830461)
(-8.48348e-06 5.14046e-06 0.0829431)
(-3.10263e-05 1.34372e-05 0.0994201)
(2.40968e-05 -1.10192e-05 0.0942906)
(1.0458e-05 -2.51248e-05 0.0942771)
(-6.09038e-06 7.91679e-06 0.082928)
(-1.3986e-05 3.04145e-05 0.0994269)
(9.31038e-06 -8.80186e-06 0.0895488)
(1.2172e-05 -3.11352e-05 0.0995365)
(-1.09423e-05 2.33176e-05 0.094168)
(5.48219e-06 -8.2526e-06 0.0830309)
(2.40483e-05 -1.08332e-05 0.0942907)
(-8.51145e-06 5.23958e-06 0.0829421)
(-3.09856e-05 1.35245e-05 0.0994205)
(8.08599e-06 -1.02914e-05 0.0895628)
(-2.42024e-05 1.0309e-05 0.0941824)
(7.65949e-06 -6.31897e-06 0.0830453)
(3.02086e-05 -1.25699e-05 0.0995285)
(-8.77675e-06 8.00166e-06 0.085347)
(8.3963e-06 -4.21647e-06 0.0693176)
(3.85318e-06 -8.82223e-06 0.0693247)
(-8.5966e-06 4.14988e-06 0.0692155)
(-4.53412e-06 8.17074e-06 0.0692225)
(8.47235e-06 -9.16601e-06 0.0854352)
(-9.85983e-06 3.83525e-06 0.0720817)
(8.95906e-06 -5.4766e-06 0.0721873)
(9.01395e-06 -1.96915e-06 0.0688951)
(1.79678e-05 -8.8419e-09 0.0835801)
(-1.55928e-05 -1.37054e-06 0.0876378)
(1.60002e-05 -6.12732e-07 0.087532)
(-8.56423e-06 -7.05882e-08 0.069005)
(9.15553e-06 -1.62242e-06 0.0776752)
(2.08171e-05 1.8763e-07 0.0942551)
(-2.0543e-05 -1.02669e-06 0.0924206)
(-7.35947e-06 6.35097e-07 0.0796003)
(1.96243e-05 4.12582e-07 0.0923167)
(9.10124e-06 2.85538e-07 0.0795261)
(-8.31812e-06 -2.237e-07 0.0777609)
(8.88866e-06 2.28581e-06 0.068902)
(1.78734e-05 2.7754e-07 0.0835826)
(-1.57285e-05 1.74942e-06 0.0876419)
(1.58274e-05 1.06178e-06 0.0875338)
(-8.57586e-06 3.19097e-07 0.0690171)
(8.90256e-06 1.82391e-06 0.0776827)
(2.12142e-05 3.36895e-07 0.0942544)
(-8.03137e-06 1.35474e-06 0.0796065)
(-2.02411e-05 1.5453e-06 0.0924201)
(8.42357e-06 1.59738e-06 0.0795304)
(1.96502e-05 1.50396e-07 0.092315)
(-8.46455e-06 4.3442e-07 0.0777712)
(8.26645e-06 -4.68514e-07 0.0777322)
(-2.02297e-05 -1.90328e-07 0.0923157)
(-9.18592e-06 -1.54653e-07 0.0795374)
(2.11806e-05 -8.79979e-07 0.094348)
(-9.26829e-06 -1.56535e-06 0.0776464)
(1.9615e-05 -1.58732e-06 0.0924217)
(6.97585e-06 -3.71081e-07 0.0796153)
(-9.11472e-06 -1.9698e-06 0.0688708)
(-1.81816e-05 -2.18371e-07 0.0835769)
(1.53887e-05 -1.87039e-06 0.0876309)
(-1.62487e-05 -1.09318e-06 0.087524)
(8.70566e-06 -2.74003e-07 0.0689811)
(8.59329e-06 -3.37229e-07 0.0689813)
(-1.62692e-05 -1.17746e-06 0.0875243)
(1.69072e-05 -2.58133e-06 0.0836734)
(-9.07395e-06 -2.27805e-06 0.0688716)
(1.53405e-05 -1.84264e-06 0.0876315)
(-9.0454e-06 -2.09072e-06 0.0776455)
(-2.13769e-05 -6.2966e-07 0.0942468)
(1.9908e-05 -1.86215e-06 0.0924202)
(7.09418e-06 -1.16469e-06 0.0796117)
(-2.05822e-05 -9.74313e-08 0.0923161)
(-9.51696e-06 -1.21694e-06 0.0795345)
(8.6014e-06 -8.69565e-07 0.077732)
(7.92654e-06 -1.91868e-07 0.0777528)
(-8.70052e-06 4.17389e-07 0.0795469)
(-2.03714e-05 -2.39247e-07 0.0922986)
(2.12841e-05 3.78612e-08 0.0943353)
(-9.33002e-06 8.91394e-07 0.0776669)
(7.32259e-06 2.43127e-08 0.0796252)
(1.97643e-05 1.35002e-06 0.0924037)
(-9.2766e-06 2.33533e-06 0.0688907)
(-1.83943e-05 2.45454e-07 0.0835769)
(1.53687e-05 1.93993e-06 0.087631)
(-1.62952e-05 1.09074e-06 0.0875246)
(8.37446e-06 3.86729e-07 0.0689999)
(8.41017e-06 3.57828e-07 0.0690018)
(-1.60508e-05 9.73934e-07 0.0875254)
(1.68903e-05 2.36903e-06 0.0836712)
(-9.17872e-06 2.04892e-06 0.0688933)
(1.54917e-05 1.77867e-06 0.087632)
(-9.71638e-06 1.48673e-06 0.0776644)
(-2.11698e-05 -1.05108e-07 0.0942343)
(7.19215e-06 4.71399e-08 0.079621)
(1.96966e-05 1.61514e-06 0.0924021)
(-9.35717e-06 2.61376e-07 0.0795437)
(-2.05142e-05 -1.46615e-07 0.0922985)
(8.00134e-06 4.17909e-07 0.0777506)
(9.67223e-06 -3.81437e-06 0.0720795)
(2.37331e-05 -1.02885e-05 0.0941525)
(-3.02837e-05 1.25818e-05 0.0995332)
(9.57822e-06 -9.41661e-06 0.0894262)
(-7.85682e-06 6.30593e-06 0.0830222)
(3.10605e-05 -1.35347e-05 0.0994237)
(8.32908e-06 -5.41492e-06 0.0829184)
(-2.45505e-05 1.10886e-05 0.0942625)
(1.02277e-05 -2.39355e-05 0.094163)
(-1.25131e-05 3.03042e-05 0.0995362)
(9.32582e-06 -9.80409e-06 0.089437)
(-6.09212e-06 7.628e-06 0.0830333)
(5.40726e-06 -8.57209e-06 0.0829307)
(1.36859e-05 -3.13379e-05 0.0994275)
(-1.10641e-05 2.463e-05 0.0942725)
(8.37076e-06 -8.52537e-06 0.0853352)
(-4.11309e-06 8.68792e-06 0.0693111)
(-8.79696e-06 4.07296e-06 0.0693177)
(4.2403e-06 -8.29189e-06 0.0692082)
(8.19797e-06 -4.34353e-06 0.0692152)
(-8.77062e-06 8.71017e-06 0.0854232)
(3.89554e-06 -9.93583e-06 0.0720742)
(-2.23809e-07 8.0715e-06 0.0777348)
(2.72559e-07 -2.0034e-05 0.0923141)
(-2.31554e-08 -9.14325e-06 0.0795429)
(-4.12216e-07 2.16384e-05 0.0943533)
(-1.4763e-06 -9.33658e-06 0.07765)
(-1.12411e-06 2.00941e-05 0.0924204)
(1.87011e-07 7.13021e-06 0.0796183)
(-1.98821e-06 -9.1672e-06 0.0688772)
(-2.54511e-07 -1.82672e-05 0.0835695)
(-1.64898e-06 1.55115e-05 0.0876158)
(-7.94775e-07 -1.62257e-05 0.0875106)
(-4.06308e-08 8.54814e-06 0.0689862)
(-1.36803e-07 8.5177e-06 0.068987)
(-1.56183e-06 1.53961e-05 0.0876165)
(-1.79758e-06 -9.35449e-06 0.0776483)
(-2.25792e-07 -2.09971e-05 0.0942539)
(-1.40493e-06 2.02982e-05 0.0924196)
(-1.09919e-08 7.34893e-06 0.0796148)
(2.65073e-07 -1.99534e-05 0.0923152)
(-1.06246e-07 -9.47706e-06 0.0795395)
(-4.84223e-07 8.49209e-06 0.0777338)
(-8.89611e-07 7.99473e-06 0.0777632)
(-7.77813e-07 -2.00523e-05 0.0923121)
(4.16882e-07 -8.6502e-06 0.0795564)
(-3.47827e-08 2.10756e-05 0.0943505)
(4.1229e-07 -9.28169e-06 0.0776751)
(5.02283e-07 1.98545e-05 0.0924204)
(1.33657e-07 7.59783e-06 0.0796324)
(1.71575e-06 -8.86601e-06 0.0688821)
(4.5431e-07 -1.84177e-05 0.0835698)
(1.4996e-06 1.54591e-05 0.0876179)
(6.87982e-07 -1.61889e-05 0.0875092)
(-2.21767e-07 8.77883e-06 0.0689963)
(-1.77894e-07 8.70388e-06 0.0689984)
(6.67423e-07 -1.6333e-05 0.087511)
(2.90226e-06 1.66947e-05 0.083665)
(1.65291e-06 -8.85808e-06 0.0688844)
(1.39055e-06 1.52026e-05 0.0876196)
(6.66583e-07 -9.31101e-06 0.077673)
(-9.60371e-08 -2.11926e-05 0.0942505)
(7.4307e-07 1.99719e-05 0.0924195)
(4.67362e-07 7.82855e-06 0.0796316)
(-7.5266e-07 -2.01392e-05 0.0923129)
(7.53565e-07 -8.83065e-06 0.0795558)
(-6.00467e-07 8.34543e-06 0.0777623)
(8.2636e-06 9.28676e-06 0.0854155)
(-4.97223e-06 -7.55586e-06 0.0692095)
(-8.57286e-06 -4.29342e-06 0.0692019)
(-8.99622e-06 -7.87126e-06 0.0853272)
(3.43416e-06 9.42003e-06 0.069312)
(8.42382e-06 4.09858e-06 0.0693042)
(-2.42189e-05 -1.027e-05 0.094159)
(3.05388e-05 1.24761e-05 0.0995382)
(-1.00895e-05 -9.11085e-06 0.0894335)
(7.53489e-06 7.00715e-06 0.0830297)
(-3.11987e-05 -1.37325e-05 0.0994298)
(-8.73759e-06 -4.60996e-06 0.082927)
(2.43752e-05 1.1147e-05 0.0942671)
(-1.06037e-05 -2.36813e-05 0.0941507)
(1.24378e-05 3.08145e-05 0.0995391)
(-9.039e-06 -9.75782e-06 0.0894237)
(6.36622e-06 7.86535e-06 0.0830154)
(-1.38445e-05 -3.08897e-05 0.099431)
(-5.28761e-06 -8.37554e-06 0.0829138)
(1.07028e-05 2.47323e-05 0.0942588)
(2.44721e-05 1.09221e-05 0.0942669)
(-8.71341e-06 -4.59657e-06 0.0829264)
(-3.09194e-05 -1.37564e-05 0.0994297)
(7.98902e-06 1.03284e-05 0.0895421)
(-2.39874e-05 -1.03427e-05 0.0941589)
(3.07277e-05 1.23998e-05 0.0995392)
(7.44018e-06 6.88702e-06 0.0830291)
(1.05219e-05 2.48363e-05 0.0942582)
(-5.26678e-06 -8.3002e-06 0.0829118)
(-1.38794e-05 -3.06919e-05 0.0994318)
(1.05065e-05 8.19942e-06 0.0895308)
(-1.09027e-05 -2.37637e-05 0.0941503)
(1.23015e-05 3.08954e-05 0.0995408)
(6.30429e-06 7.91317e-06 0.0830138)
(-8.94114e-06 -7.91114e-06 0.0853293)
(3.43303e-06 9.37559e-06 0.069313)
(8.56315e-06 4.04169e-06 0.0693056)
(-4.95557e-06 -7.58891e-06 0.0692107)
(-8.50201e-06 -4.32196e-06 0.0692035)
(8.41266e-06 9.36658e-06 0.085418)
(-9.81904e-06 -4.03318e-06 0.072072)
(9.11467e-06 5.21016e-06 0.072173)
(-3.78339e-06 -9.9705e-06 0.0720694)
(5.65772e-06 8.9518e-06 0.0721691)
(2.73913e-05 2.72108e-05 0.10069)
(5.82536e-05 5.79206e-05 0.106483)
(-6.07026e-05 -2.98597e-05 0.104512)
(-2.93538e-05 -6.08836e-05 0.104531)
(6.16466e-05 2.99924e-05 0.104397)
(3.04228e-05 6.15564e-05 0.104404)
(-2.79849e-05 -2.84233e-05 0.100821)
(-2.73517e-05 2.66232e-05 0.100696)
(-5.79739e-05 5.75877e-05 0.106483)
(6.09843e-05 -3.00752e-05 0.104527)
(2.94177e-05 -6.1286e-05 0.104519)
(-6.13614e-05 2.95835e-05 0.104405)
(-3.02417e-05 6.08216e-05 0.104398)
(2.81233e-05 -2.8727e-05 0.100828)
(2.68843e-05 -2.70137e-05 0.100702)
(5.80639e-05 -5.80854e-05 0.106491)
(-2.96687e-05 6.16762e-05 0.104539)
(-6.15428e-05 2.98489e-05 0.104537)
(3.00645e-05 -6.11813e-05 0.104417)
(6.11754e-05 -3.01102e-05 0.104417)
(-2.89386e-05 2.90644e-05 0.100834)
(-2.71405e-05 -2.72951e-05 0.100706)
(-5.81006e-05 -5.8443e-05 0.106496)
(2.99267e-05 6.10816e-05 0.104544)
(6.09325e-05 2.95251e-05 0.104548)
(-2.99326e-05 -6.1884e-05 0.104423)
(-6.18814e-05 -3.03616e-05 0.104426)
(2.84311e-05 2.8235e-05 0.100839)
(4.79305e-07 -5.9517e-07 0.109198)
(-6.38171e-07 6.11297e-07 0.109198)
(6.56688e-07 -6.41478e-07 0.109197)
(4.98053e-07 4.53028e-07 0.109385)
(3.73748e-07 4.25976e-07 0.109386)
(1.04588e-06 -1.17799e-06 0.108913)
(-5.25926e-07 -6.83251e-07 0.109198)
(5.76771e-07 6.01654e-07 0.109198)
(-5.32435e-07 -6.98518e-07 0.109197)
(5.1261e-07 6.20424e-07 0.109198)
(-3.65016e-07 3.97066e-07 0.109385)
(-3.48361e-07 3.93999e-07 0.109386)
(-6.58763e-07 -4.8101e-07 0.109198)
(2.78258e-07 6.65394e-07 0.109198)
(4.14757e-07 5.83213e-07 0.109198)
(3.61205e-07 -5.06536e-07 0.109385)
(2.68913e-07 -4.99625e-07 0.109386)
(9.25954e-07 9.68256e-07 0.108914)
(5.61565e-07 -6.18752e-07 0.109198)
(-4.66552e-07 6.26973e-07 0.109198)
(5.15862e-07 -6.31428e-07 0.109198)
(-4.90168e-07 5.80246e-07 0.109198)
(-3.6216e-07 -5.71534e-07 0.109385)
(-3.47594e-07 -5.65907e-07 0.109386)
(-7.4655e-07 -7.5439e-05 0.105848)
(7.29672e-07 2.67634e-05 0.101209)
(1.91545e-07 7.04794e-05 0.106243)
(1.85446e-07 -2.77498e-05 0.102531)
(1.26726e-06 7.2509e-05 0.105711)
(-1.23023e-06 -2.78861e-05 0.101334)
(2.945e-07 -7.21815e-05 0.106345)
(5.03495e-06 7.77544e-05 0.104524)
(-9.44739e-06 -7.37099e-05 0.102878)
(1.17317e-05 2.12808e-05 0.0957479)
(-5.64985e-06 -2.61217e-05 0.0989867)
(1.16488e-05 7.61178e-05 0.102756)
(3.77907e-06 2.5418e-05 0.098845)
(-4.23781e-06 -7.90333e-05 0.104684)
(1.33298e-06 7.2546e-05 0.105711)
(3.69172e-07 2.7076e-05 0.102424)
(-1.31025e-06 -2.76805e-05 0.101333)
(3.67823e-07 -7.19076e-05 0.106345)
(9.8641e-07 2.66813e-05 0.101209)
(2.37959e-07 7.04617e-05 0.106241)
(-6.84933e-07 -7.51962e-05 0.105847)
(1.07025e-06 -7.57222e-05 0.10585)
(-3.31129e-07 2.65709e-05 0.101214)
(2.76862e-07 7.03935e-05 0.106244)
(6.45472e-07 -2.7885e-05 0.102538)
(-1.01539e-06 7.22525e-05 0.105713)
(1.82256e-06 -2.82339e-05 0.101341)
(2.28443e-07 -7.2238e-05 0.106346)
(-4.79668e-06 7.7368e-05 0.104525)
(9.53819e-06 -7.3915e-05 0.102888)
(-1.15609e-05 2.10512e-05 0.0957435)
(5.94656e-06 -2.65446e-05 0.0989867)
(-3.45607e-06 2.51554e-05 0.098843)
(-1.1401e-05 7.59425e-05 0.102763)
(4.34105e-06 -7.92528e-05 0.104686)
(4.32895e-06 -7.93634e-05 0.104686)
(-3.52368e-06 2.5345e-05 0.0988427)
(-1.14552e-05 7.60082e-05 0.102763)
(1.27713e-05 -2.03114e-05 0.0958775)
(-4.88149e-06 7.74577e-05 0.104525)
(5.74246e-06 -2.64794e-05 0.0989869)
(9.61657e-06 -7.39416e-05 0.102888)
(-8.77395e-07 7.21892e-05 0.105713)
(4.89994e-07 2.69909e-05 0.102431)
(2.02171e-06 -2.81042e-05 0.10134)
(1.78979e-07 -7.19886e-05 0.106346)
(-2.16498e-07 2.63963e-05 0.101215)
(3.3901e-07 7.04193e-05 0.106243)
(1.09474e-06 -7.55423e-05 0.10585)
(2.81008e-05 -2.87371e-05 0.100828)
(6.17067e-05 -6.21109e-05 0.106611)
(-6.14671e-05 2.96999e-05 0.104406)
(-3.02622e-05 6.09253e-05 0.104399)
(6.09552e-05 -3.01988e-05 0.104528)
(-2.73966e-05 2.67287e-05 0.100696)
(2.95261e-05 -6.13171e-05 0.10452)
(7.7753e-05 5.24344e-06 0.104526)
(-7.36647e-05 -9.31792e-06 0.102893)
(2.13214e-05 1.14286e-05 0.0957421)
(-2.58728e-05 -5.40401e-06 0.0989863)
(7.63941e-05 1.17287e-05 0.102767)
(2.58077e-05 3.80143e-06 0.0988429)
(-7.90142e-05 -3.84397e-06 0.104689)
(7.26752e-05 1.55398e-06 0.105713)
(2.76092e-05 1.62078e-07 0.102445)
(-2.74766e-05 -7.76719e-07 0.10134)
(-7.24765e-05 3.92196e-07 0.106351)
(2.73223e-05 1.25264e-06 0.101213)
(7.03029e-05 2.07961e-07 0.106249)
(-7.53775e-05 -3.4376e-07 0.105851)
(7.79054e-05 -4.98088e-06 0.104521)
(-7.34823e-05 9.6458e-06 0.102887)
(2.14212e-05 -1.11871e-05 0.0957353)
(-2.58275e-05 5.64995e-06 0.0989798)
(2.57665e-05 -3.529e-06 0.0988369)
(7.64787e-05 -1.12958e-05 0.102762)
(-7.88761e-05 4.12994e-06 0.104683)
(7.26268e-05 -1.29457e-06 0.10571)
(2.75997e-05 -2.64709e-07 0.102443)
(-7.21618e-05 -2.34016e-07 0.10635)
(-2.75108e-05 1.32608e-06 0.101333)
(7.05624e-05 -4.72489e-08 0.106247)
(2.71122e-05 -7.2084e-07 0.101207)
(-7.53679e-05 6.19436e-07 0.105847)
(7.5271e-05 -8.01459e-07 0.105859)
(-2.76286e-05 5.84795e-07 0.101226)
(-7.08023e-05 -1.49318e-07 0.106255)
(2.68763e-05 -4.52413e-07 0.102555)
(-7.28546e-05 1.11923e-06 0.105721)
(2.72189e-05 -1.35538e-06 0.101354)
(7.22362e-05 1.31557e-07 0.106356)
(-7.79625e-05 4.81739e-06 0.104528)
(7.3226e-05 -9.63943e-06 0.102883)
(-2.17965e-05 1.11993e-05 0.0957456)
(2.55994e-05 -5.92016e-06 0.0989917)
(-7.62596e-05 1.1348e-05 0.102759)
(-2.60781e-05 3.36146e-06 0.0988468)
(7.88019e-05 -4.28647e-06 0.10469)
(7.89244e-05 -4.36361e-06 0.10469)
(-2.61257e-05 3.42521e-06 0.0988466)
(-7.62515e-05 1.13832e-05 0.102759)
(1.94527e-05 -1.31775e-05 0.0958807)
(-7.79938e-05 4.84728e-06 0.104528)
(7.33254e-05 -9.71629e-06 0.102884)
(2.56318e-05 -5.84074e-06 0.098992)
(-7.29252e-05 1.09949e-06 0.105721)
(-2.81742e-05 1.09641e-08 0.102447)
(2.70015e-05 -1.38573e-06 0.101354)
(7.21104e-05 2.92485e-07 0.106357)
(-2.7595e-05 7.55298e-07 0.101227)
(-7.06277e-05 -1.89993e-08 0.106254)
(7.505e-05 -7.39895e-07 0.105859)
(7.52814e-05 7.51311e-07 0.105862)
(-7.13363e-05 8.44945e-08 0.106257)
(-2.79304e-05 -6.45794e-07 0.10122)
(2.70081e-05 -1.46638e-07 0.102555)
(-7.3243e-05 -1.09809e-06 0.105724)
(7.20895e-05 -7.6638e-09 0.106359)
(2.70086e-05 1.24769e-06 0.101349)
(-7.82353e-05 -4.74841e-06 0.104528)
(7.36769e-05 9.79019e-06 0.102891)
(-2.22136e-05 -1.13726e-05 0.0957405)
(2.5004e-05 5.63729e-06 0.0989831)
(-2.66829e-05 -3.76555e-06 0.0988395)
(-7.65774e-05 -1.11843e-05 0.102766)
(7.86862e-05 4.39543e-06 0.104689)
(7.87357e-05 4.40684e-06 0.104689)
(-2.66077e-05 -3.63071e-06 0.0988395)
(-7.6607e-05 -1.12248e-05 0.102766)
(1.91274e-05 1.29849e-05 0.0958742)
(-7.83209e-05 -4.73733e-06 0.104527)
(2.50718e-05 5.56705e-06 0.0989836)
(7.37292e-05 9.88543e-06 0.102891)
(-7.30742e-05 -1.28185e-06 0.105724)
(-2.82505e-05 -2.80799e-07 0.102447)
(7.22315e-05 -1.92101e-07 0.10636)
(2.67484e-05 1.00966e-06 0.101348)
(-7.09163e-05 2.13887e-08 0.106257)
(-2.7969e-05 -1.09365e-06 0.101221)
(7.51389e-05 5.10062e-07 0.105862)
(-9.6659e-07 7.57344e-05 0.105865)
(-1.24452e-07 -7.04718e-05 0.106255)
(6.56473e-07 -2.73786e-05 0.101233)
(-3.93383e-07 2.71694e-05 0.102555)
(9.64687e-07 -7.2533e-05 0.105727)
(-5.25004e-08 7.24263e-05 0.106357)
(-1.21228e-06 2.75783e-05 0.101363)
(4.90336e-06 -7.79095e-05 0.104541)
(-9.69123e-06 7.36561e-05 0.102894)
(1.13381e-05 -2.1645e-05 0.0957422)
(-5.7703e-06 2.57383e-05 0.0989997)
(1.14277e-05 -7.65009e-05 0.102769)
(3.7536e-06 -2.61824e-05 0.098855)
(-4.3042e-06 7.92473e-05 0.104704)
(-4.32511e-06 7.93558e-05 0.104704)
(-5.60851e-06 2.57068e-05 0.0989998)
(1.02982e-06 -7.25088e-05 0.105727)
(-2.1077e-07 -2.77446e-05 0.102448)
(-1.68188e-08 7.22907e-05 0.106357)
(-1.32027e-06 2.75167e-05 0.101362)
(-1.58433e-07 -7.02716e-05 0.106254)
(9.40121e-07 -2.72268e-05 0.101235)
(-9.19388e-07 7.55129e-05 0.105865)
(1.11416e-06 7.57749e-05 0.105858)
(9.26253e-08 -7.06595e-05 0.106252)
(-4.61298e-07 -2.73932e-05 0.101219)
(8.22797e-08 2.7023e-05 0.102548)
(-7.83423e-07 -7.24304e-05 0.10572)
(-1.04296e-07 7.21962e-05 0.106353)
(1.39011e-06 2.73966e-05 0.101349)
(-5.04657e-06 -7.77681e-05 0.104541)
(9.14663e-06 7.37926e-05 0.102898)
(-1.14576e-05 -2.15501e-05 0.0957348)
(5.73322e-06 2.60832e-05 0.0989972)
(-3.7255e-06 -2.58091e-05 0.0988506)
(-1.19962e-05 -7.64776e-05 0.102773)
(4.11406e-06 7.9476e-05 0.104705)
(4.1419e-06 7.95397e-05 0.104704)
(-3.57724e-06 -2.56912e-05 0.0988496)
(-1.21648e-05 -7.65673e-05 0.102773)
(1.30592e-05 1.97699e-05 0.0958696)
(-5.07502e-06 -7.7855e-05 0.10454)
(5.62917e-06 2.59915e-05 0.0989969)
(9.07358e-06 7.37903e-05 0.102899)
(-8.73839e-07 -7.23249e-05 0.10572)
(-1.18918e-07 -2.78272e-05 0.102439)
(-2.41968e-07 7.20774e-05 0.106353)
(1.4165e-06 2.73964e-05 0.101349)
(1.80818e-08 -7.05185e-05 0.10625)
(-6.1829e-07 -2.71542e-05 0.101221)
(9.57978e-07 7.56188e-05 0.105858)
(2.84007e-05 2.81531e-05 0.10084)
(6.19795e-05 6.16599e-05 0.106624)
(-2.98895e-05 -6.20972e-05 0.104423)
(-6.20789e-05 -3.04e-05 0.104428)
(-2.74537e-05 -2.76899e-05 0.100708)
(3.01128e-05 6.10045e-05 0.104545)
(6.08542e-05 2.96188e-05 0.104549)
(3.14077e-05 3.11661e-05 0.108602)
(-5.0365e-05 3.08653e-05 0.107733)
(3.04631e-05 -5.00664e-05 0.107735)
(-9.93053e-05 -9.90812e-05 0.106544)
(-2.25663e-05 -2.24384e-05 0.10667)
(3.27766e-05 5.28179e-05 0.107713)
(-3.35075e-05 5.28374e-05 0.107711)
(2.1516e-05 -2.26172e-05 0.106664)
(5.28782e-05 3.24121e-05 0.107713)
(5.29539e-05 -3.31876e-05 0.107712)
(-5.34424e-05 3.29442e-05 0.107712)
(-5.3503e-05 -3.35004e-05 0.10771)
(-2.23273e-05 2.20653e-05 0.106665)
(3.25335e-05 -5.33147e-05 0.107713)
(-3.32924e-05 -5.33981e-05 0.107711)
(2.17167e-05 2.18764e-05 0.106662)
(9.84214e-05 9.86265e-05 0.106553)
(-3.33028e-05 -3.39024e-05 0.106674)
(3.08256e-05 4.97455e-05 0.107736)
(-3.14257e-05 4.97226e-05 0.107733)
(2.5065e-05 3.97798e-05 0.107788)
(-2.56549e-05 4.00034e-05 0.107786)
(-9.93765e-05 9.82606e-05 0.106546)
(3.32271e-05 -3.3586e-05 0.106667)
(4.96515e-05 3.02505e-05 0.107735)
(4.99471e-05 -3.09769e-05 0.107733)
(3.9943e-05 2.51526e-05 0.107789)
(4.03674e-05 -2.52226e-05 0.107786)
(-5.04073e-05 -3.14196e-05 0.107732)
(-4.04159e-05 2.51053e-05 0.107785)
(-4.03953e-05 -2.56663e-05 0.107784)
(9.85373e-05 -9.88758e-05 0.106547)
(-3.35258e-05 3.39691e-05 0.106669)
(-3.12522e-05 -5.02561e-05 0.107732)
(2.49594e-05 -4.0089e-05 0.107787)
(-2.57456e-05 -4.01399e-05 0.107785)
(3.27091e-05 3.32138e-05 0.106664)
(3.36136e-05 3.34312e-05 0.108563)
(-3.41932e-05 3.36228e-05 0.108563)
(3.36221e-05 -3.40984e-05 0.108563)
(-3.42055e-05 -3.42615e-05 0.108562)
(1.05667e-06 -9.97094e-06 0.0946062)
(-1.22047e-06 2.32001e-05 0.0837398)
(1.37987e-06 3.62676e-05 0.0945578)
(-3.59071e-06 -1.39039e-05 0.0837962)
(-2.90718e-06 1.16622e-05 0.0721789)
(6.46132e-06 -7.62228e-06 0.0722576)
(-9.51646e-06 7.05429e-07 0.0945984)
(2.32898e-05 -1.16384e-06 0.0837437)
(3.61704e-05 1.42274e-06 0.0945537)
(-1.37043e-05 -3.97094e-06 0.083798)
(-3.19781e-05 3.13768e-05 0.108602)
(3.13985e-05 -3.18044e-05 0.108602)
(-3.19843e-05 -3.20235e-05 0.108601)
(2.50084e-05 2.49307e-05 0.108701)
(-2.53866e-05 2.49557e-05 0.108701)
(2.50391e-05 -2.51519e-05 0.108701)
(-2.5455e-05 -2.52872e-05 0.108701)
(-4.63956e-06 1.69716e-06 0.102848)
(-4.27923e-05 1.60567e-05 0.0960539)
(-5.384e-05 1.01378e-05 0.108306)
(-4.69101e-05 2.90399e-05 0.107753)
(-6.53537e-05 2.1279e-06 0.102788)
(2.07643e-06 -1.03434e-05 0.0961348)
(-5.04279e-05 9.40395e-06 0.108335)
(1.19263e-05 -2.63183e-06 0.072173)
(-7.32483e-06 6.92918e-06 0.0722566)
(1.51695e-06 -4.87725e-06 0.102839)
(9.98712e-06 -5.39079e-05 0.108306)
(1.63671e-05 -4.3303e-05 0.0960565)
(2.86753e-05 -4.64182e-05 0.107754)
(2.07505e-06 -6.61307e-05 0.10278)
(9.27812e-06 -5.03168e-05 0.108335)
(-9.87682e-06 1.75319e-06 0.0961354)
(-2.00075e-05 -1.13112e-05 0.0896456)
(-1.16741e-05 -2.017e-05 0.0896355)
(2.7269e-05 2.77228e-05 0.106665)
(-6.10018e-07 9.40297e-06 0.0897098)
(8.93474e-06 -2.98536e-07 0.0896992)
(-6.74177e-06 -6.9295e-06 0.0722833)
(2.50422e-06 1.26299e-05 0.0722094)
(-7.31073e-06 -6.73919e-06 0.0722797)
(1.25875e-05 2.57554e-06 0.0722097)
(0.000105122 0.000105338 0.106547)
(-8.65373e-06 2.0186e-06 0.0897655)
(3.01507e-06 -8.14672e-06 0.0897573)
(1.26072e-05 2.23805e-05 0.0897076)
(2.32625e-05 1.25761e-05 0.0897037)
(1.47301e-06 4.18076e-05 0.0946396)
(-3.55761e-06 -1.21813e-05 0.083852)
(-1.27976e-06 2.53936e-05 0.0838074)
(1.16609e-06 -5.65692e-06 0.0946786)
(-2.48263e-06 4.16451e-05 0.0946379)
(3.70695e-06 -1.26311e-05 0.0838554)
(1.21529e-06 2.51396e-05 0.0838134)
(-1.70949e-06 -5.49133e-06 0.0946766)
(2.97187e-06 7.38191e-05 0.102859)
(3.47615e-05 5.66595e-05 0.10769)
(-8.51724e-06 1.73904e-06 0.0962164)
(1.07735e-05 5.69575e-05 0.108274)
(1.85892e-05 4.76357e-05 0.0961449)
(1.16036e-05 6.08272e-05 0.10824)
(2.70497e-06 1.1945e-05 0.102916)
(-3.71174e-06 7.3835e-05 0.102857)
(-3.53391e-05 5.6707e-05 0.107688)
(7.75142e-06 1.97018e-06 0.0962083)
(-1.15772e-05 5.686e-05 0.108274)
(-1.93757e-05 4.81891e-05 0.0961405)
(-1.23378e-05 6.07923e-05 0.108239)
(-2.92374e-06 1.16103e-05 0.102914)
(6.56572e-06 -7.50174e-06 0.0722882)
(-3.01833e-06 1.2401e-05 0.0722178)
(-0.000105969 0.000105151 0.106541)
(8.06034e-06 2.32557e-06 0.0897594)
(-2.88678e-06 -8.9359e-06 0.0897654)
(-1.29086e-05 2.28099e-05 0.0897062)
(-2.30077e-05 1.22201e-05 0.0897087)
(6.85282e-06 -7.16588e-06 0.072297)
(-1.26002e-05 2.14005e-06 0.0722215)
(4.15579e-05 1.78561e-06 0.0946379)
(-1.22162e-05 -3.3614e-06 0.0838543)
(2.53103e-05 -1.00704e-06 0.0838131)
(-5.76973e-06 1.20484e-06 0.0946738)
(7.41076e-05 3.07557e-06 0.102849)
(5.67136e-05 3.43592e-05 0.107689)
(2.26498e-06 -8.36407e-06 0.0962146)
(5.71091e-05 1.06394e-05 0.108273)
(4.82301e-05 1.8684e-05 0.0961442)
(6.09672e-05 1.14321e-05 0.108239)
(1.21366e-05 2.46459e-06 0.102906)
(4.15483e-05 -1.98058e-06 0.0946373)
(-1.24579e-05 3.78461e-06 0.0838586)
(2.49046e-05 1.05021e-06 0.0838127)
(-5.86181e-06 -1.37524e-06 0.0946728)
(7.40543e-05 -3.47942e-06 0.102852)
(5.67273e-05 -3.51865e-05 0.107688)
(5.71146e-05 -1.14006e-05 0.108273)
(2.012e-06 8.19119e-06 0.0962151)
(6.09209e-05 -1.21728e-05 0.108239)
(4.77347e-05 -1.91431e-05 0.0961434)
(1.20623e-05 -3.23581e-06 0.102908)
(-7.38432e-05 2.91759e-06 0.102854)
(-5.72246e-05 3.4789e-05 0.107688)
(-2.03038e-06 -8.68611e-06 0.0962134)
(-5.73619e-05 1.0885e-05 0.108274)
(-4.78637e-05 1.84286e-05 0.0961427)
(-6.12809e-05 1.16649e-05 0.108239)
(-1.17074e-05 2.31402e-06 0.102912)
(-4.13383e-05 1.77724e-06 0.0946337)
(1.19189e-05 -4.23221e-06 0.0838574)