/*--------------------------------*- C++ -*----------------------------------*\
| =========                 |                                                 |
| \\      /  F ield         | OpenFOAM: The Open Source CFD Toolbox           |
|  \\    /   O peration     | Version:  v1912                                 |
|   \\  /    A nd           | Website:  www.openfoam.com                      |
|    \\/     M anipulation  |                                                 |
\*---------------------------------------------------------------------------*/
FoamFile
{
    version     2.0;
    format      ascii;
    class       volScalarField;
    location    "0.9";
    object      nut;
}
// * * * * * * * * * * * * * * * * * * * * * * * * * * * * * * * * * * * * * //

dimensions      [0 2 -1 0 0 0 0];


internalField   nonuniform List<scalar> 
171728
(
6.50099e-07
6.93522e-07
6.93964e-07
2.72163e-07
4.31843e-08
5.20581e-08
5.22299e-08
7.17207e-08
3.32727e-09
4.51466e-09
4.50736e-09
6.98953e-08
8.54306e-10
2.76172e-09
2.73935e-09
6.99686e-08
8.68901e-10
2.61149e-09
2.61609e-09
6.99723e-08
8.67653e-10
2.60771e-09
2.61136e-09
6.99721e-08
8.57607e-10
2.61518e-09
2.6095e-09
6.99723e-08
8.6884e-10
2.61513e-09
2.61306e-09
6.99723e-08
8.73483e-10
2.61295e-09
2.60628e-09
6.99736e-08
8.69819e-10
2.61233e-09
2.60991e-09
6.99724e-08
8.71123e-10
2.61129e-09
2.61285e-09
6.99729e-08
8.79742e-10
2.60811e-09
2.61136e-09
6.99734e-08
8.85407e-10
2.633e-09
2.6124e-09
6.99729e-08
8.89725e-10
2.636e-09
2.61079e-09
6.99726e-08
8.65057e-10
2.60467e-09
2.61345e-09
6.99731e-08
8.68764e-10
2.60698e-09
2.60975e-09
6.99732e-08
8.76693e-10
2.61339e-09
2.61176e-09
6.99736e-08
8.69732e-10
2.60688e-09
2.6119e-09
6.99729e-08
8.70255e-10
2.59947e-09
2.6114e-09
6.99721e-08
8.52776e-10
2.6251e-09
2.60579e-09
6.99673e-08
9.5572e-10
2.6156e-09
2.61162e-09
6.99748e-08
8.71424e-10
2.61574e-09
2.61198e-09
6.99747e-08
8.74636e-10
2.61445e-09
2.61276e-09
6.99752e-08
8.74292e-10
2.61392e-09
2.61251e-09
6.99748e-08
8.76163e-10
2.61414e-09
2.61306e-09
6.99751e-08
8.75325e-10
2.61398e-09
2.61225e-09
6.99751e-08
8.74769e-10
2.61433e-09
2.61273e-09
6.99751e-08
8.75523e-10
2.61382e-09
2.61222e-09
6.9975e-08
8.75138e-10
2.61356e-09
2.61197e-09
6.99746e-08
8.75566e-10
2.61458e-09
2.61311e-09
6.99748e-08
8.7443e-10
2.61415e-09
2.61245e-09
6.9975e-08
8.75454e-10
2.61158e-09
2.61232e-09
6.99748e-08
8.75977e-10
2.6158e-09
2.61332e-09
6.99749e-08
8.74715e-10
2.61487e-09
2.61321e-09
6.9975e-08
8.74656e-10
2.61484e-09
2.61322e-09
6.99751e-08
8.75554e-10
2.6148e-09
2.61393e-09
6.99747e-08
8.75982e-10
2.61563e-09
2.61478e-09
6.99751e-08
8.75701e-10
2.61479e-09
2.61394e-09
6.99757e-08
8.75552e-10
2.61528e-09
2.6198e-09
6.99755e-08
8.92205e-10
2.62223e-09
2.61926e-09
6.9961e-08
1.02548e-09
2.59577e-09
2.61474e-09
6.99747e-08
8.74569e-10
2.61145e-09
2.60757e-09
6.99754e-08
8.77461e-10
2.61427e-09
2.60695e-09
6.99757e-08
8.78689e-10
2.61313e-09
2.60798e-09
6.9976e-08
8.80285e-10
2.61278e-09
2.61118e-09
6.99762e-08
8.78867e-10
2.61225e-09
2.60831e-09
6.99766e-08
8.78545e-10
2.61216e-09
2.61213e-09
6.99769e-08
8.7836e-10
2.61212e-09
2.61438e-09
6.9977e-08
8.78725e-10
2.61301e-09
2.61536e-09
6.99768e-08
8.78885e-10
2.61252e-09
2.61489e-09
6.99767e-08
8.79057e-10
2.6123e-09
2.61534e-09
6.99768e-08
8.79411e-10
2.6122e-09
2.61354e-09
6.9977e-08
8.80031e-10
2.61301e-09
2.61438e-09
6.99769e-08
8.80526e-10
2.62052e-09
2.61441e-09
6.9977e-08
8.82318e-10
2.6122e-09
2.61607e-09
6.99768e-08
8.78913e-10
2.6111e-09
2.61256e-09
6.99735e-08
8.78317e-10
2.61473e-09
2.61209e-09
6.99667e-08
8.78146e-10
2.61431e-09
2.61122e-09
6.99666e-08
8.78242e-10
2.61498e-09
2.61203e-09
6.99671e-08
8.78226e-10
2.61497e-09
2.61125e-09
6.99671e-08
8.78366e-10
2.61542e-09
2.61284e-09
6.9967e-08
8.77961e-10
2.61524e-09
2.61206e-09
6.99675e-08
8.77643e-10
2.61521e-09
2.61208e-09
6.99669e-08
8.78704e-10
2.61483e-09
2.61194e-09
6.99671e-08
8.78381e-10
2.61582e-09
2.61272e-09
6.99673e-08
8.77687e-10
2.61509e-09
2.61198e-09
6.9967e-08
8.77773e-10
2.61399e-09
2.61089e-09
6.99673e-08
8.76969e-10
2.61425e-09
2.61148e-09
6.99674e-08
8.73036e-10
2.61335e-09
2.61174e-09
6.99679e-08
8.68569e-10
2.61501e-09
2.59341e-09
6.99697e-08
8.73516e-10
2.61622e-09
2.60741e-09
6.99653e-08
8.78087e-10
2.61528e-09
2.61232e-09
6.99673e-08
8.77722e-10
2.61508e-09
2.61162e-09
6.99677e-08
8.77964e-10
2.61468e-09
2.61086e-09
6.99671e-08
8.78678e-10
2.61511e-09
2.61096e-09
6.99667e-08
8.78192e-10
2.61475e-09
2.61076e-09
6.99667e-08
8.78333e-10
2.61505e-09
2.61089e-09
6.99675e-08
8.78058e-10
2.61512e-09
2.61132e-09
6.99671e-08
8.78552e-10
2.61443e-09
2.61129e-09
6.9967e-08
8.78658e-10
2.61615e-09
2.61305e-09
6.99675e-08
8.78051e-10
2.61464e-09
2.61155e-09
6.99676e-08
8.77806e-10
2.61457e-09
2.61147e-09
6.99675e-08
8.78022e-10
2.61504e-09
2.61193e-09
6.99673e-08
8.79947e-10
2.61529e-09
2.6122e-09
6.99677e-08
8.79571e-10
2.61475e-09
2.61164e-09
6.99676e-08
8.79817e-10
2.61494e-09
2.6123e-09
6.99673e-08
8.80072e-10
2.61537e-09
2.61244e-09
6.9968e-08
8.79115e-10
2.61421e-09
2.61134e-09
6.99677e-08
8.79285e-10
2.61461e-09
2.61134e-09
6.99675e-08
8.80425e-10
2.61549e-09
2.61232e-09
6.99675e-08
8.83027e-10
2.61474e-09
2.61024e-09
6.99695e-08
9.58061e-10
2.63958e-09
2.64565e-09
6.99684e-08
3.02707e-09
3.63757e-09
3.69512e-09
6.99295e-08
4.05778e-08
3.77392e-08
3.7676e-08
6.93698e-08
3.04306e-07
1.74675e-07
1.74715e-07
3.04746e-07
2.03758e-07
4.53679e-07
4.53871e-07
2.03751e-07
4.53708e-07
4.53856e-07
1.23522e-06
1.23523e-06
1.23525e-06
1.23526e-06
4.53545e-07
4.53663e-07
2.03611e-07
4.53538e-07
4.5371e-07
2.03565e-07
2.7223e-07
1.84742e-07
6.93912e-07
6.93731e-07
1.14244e-07
1.14206e-07
2.72143e-07
1.84599e-07
6.93783e-07
6.94338e-07
1.14398e-07
1.14307e-07
6.94177e-07
1.1428e-07
1.14184e-07
2.72196e-07
1.84711e-07
6.93837e-07
1.14344e-07
1.14327e-07
1.84727e-07
7.17698e-08
1.80195e-07
5.21229e-08
5.21485e-08
6.81529e-09
6.88999e-09
7.17242e-08
1.80271e-07
5.21506e-08
5.21436e-08
6.77947e-09
6.84053e-09
5.21408e-08
6.72809e-09
6.80485e-09
7.17837e-08
1.80234e-07
5.22817e-08
6.80491e-09
6.7687e-09
1.80234e-07
6.98179e-08
1.79992e-07
4.53942e-09
4.52959e-09
2.89083e-09
2.88728e-09
6.98177e-08
1.79991e-07
4.55751e-09
4.53663e-09
2.87324e-09
2.89446e-09
4.55619e-09
2.872e-09
2.90473e-09
6.98648e-08
1.80009e-07
4.56989e-09
2.84647e-09
2.84357e-09
1.79975e-07
6.99458e-08
1.79978e-07
2.76722e-09
2.79856e-09
2.6541e-09
2.64938e-09
6.99275e-08
1.79965e-07
2.72842e-09
2.77461e-09
2.61879e-09
2.65755e-09
2.78508e-09
2.61596e-09
2.64826e-09
6.99614e-08
1.7999e-07
2.74737e-09
2.60755e-09
2.61062e-09
1.79947e-07
6.9952e-08
1.79977e-07
2.6502e-09
2.64627e-09
2.64848e-09
2.65027e-09
6.99362e-08
1.79959e-07
2.60332e-09
2.65393e-09
2.62402e-09
2.64856e-09
2.64262e-09
2.60382e-09
2.63867e-09
6.99613e-08
1.79989e-07
2.60675e-09
2.59846e-09
2.6004e-09
1.79946e-07
6.99517e-08
1.79979e-07
2.64944e-09
2.6583e-09
2.63443e-09
2.67973e-09
6.99399e-08
1.7997e-07
2.59425e-09
2.64939e-09
2.61963e-09
2.64713e-09
2.63809e-09
2.61774e-09
2.63559e-09
6.99611e-08
1.79993e-07
2.60177e-09
2.59615e-09
2.59874e-09
1.7995e-07
6.99554e-08
1.7998e-07
2.60452e-09
2.67174e-09
2.66876e-09
2.65976e-09
6.99312e-08
1.7997e-07
2.58921e-09
2.64879e-09
2.62499e-09
2.64831e-09
2.63544e-09
2.6151e-09
2.637e-09
6.99611e-08
1.79992e-07
2.60084e-09
2.59778e-09
2.60139e-09
1.79948e-07
6.9956e-08
1.79985e-07
2.64767e-09
2.66178e-09
2.64801e-09
2.66033e-09
6.99289e-08
1.79969e-07
2.60031e-09
2.6505e-09
2.62745e-09
2.64937e-09
2.63761e-09
2.61483e-09
2.63722e-09
6.99611e-08
1.79991e-07
2.60464e-09
2.59782e-09
2.60182e-09
1.79947e-07
6.99351e-08
1.79981e-07
2.64724e-09
2.65949e-09
2.62557e-09
2.64248e-09
6.99301e-08
1.79982e-07
2.59721e-09
2.65026e-09
2.61254e-09
2.647e-09
2.6364e-09
2.61012e-09
2.63404e-09
6.99625e-08
1.79997e-07
2.60098e-09
2.59541e-09
2.5986e-09
1.79954e-07
6.99419e-08
1.79963e-07
2.63059e-09
2.60843e-09
2.6686e-09
2.60147e-09
6.99235e-08
1.79971e-07
2.60342e-09
2.64951e-09
2.6141e-09
2.65034e-09
2.63467e-09
2.61113e-09
2.63755e-09
6.99612e-08
1.79993e-07
2.60154e-09
2.59881e-09
2.6023e-09
1.79948e-07
6.99539e-08
1.79976e-07
2.69255e-09
2.62079e-09
2.64738e-09
2.60602e-09
6.99284e-08
1.7997e-07
2.61257e-09
2.65148e-09
2.61646e-09
2.64801e-09
2.6375e-09
2.61129e-09
2.6352e-09
6.99613e-08
1.79995e-07
2.6044e-09
2.59752e-09
2.59975e-09
1.79953e-07
6.99423e-08
1.79974e-07
2.6456e-09
2.5946e-09
2.64388e-09
2.5981e-09
6.99289e-08
1.79995e-07
2.61089e-09
2.64922e-09
2.61159e-09
2.64762e-09
2.63518e-09
2.62029e-09
2.63901e-09
6.99624e-08
1.79994e-07
2.60137e-09
2.59894e-09
2.60086e-09
1.79952e-07
6.99429e-08
1.79982e-07
2.64516e-09
2.60717e-09
2.63682e-09
2.66763e-09
6.99262e-08
1.79998e-07
2.60671e-09
2.64905e-09
2.60164e-09
2.646e-09
2.63957e-09
2.62852e-09
2.63796e-09
6.99624e-08
1.79997e-07
2.60361e-09
2.59684e-09
2.6003e-09
1.79956e-07
6.99345e-08
1.79967e-07
2.6378e-09
2.67557e-09
2.66956e-09
2.65392e-09
6.99325e-08
1.79979e-07
2.59762e-09
2.64788e-09
2.59635e-09
2.64964e-09
2.63782e-09
2.61137e-09
2.63991e-09
6.99618e-08
1.79994e-07
2.60274e-09
2.59978e-09
2.60315e-09
1.7995e-07
6.99478e-08
1.79974e-07
2.65227e-09
2.64323e-09
2.651e-09
2.70905e-09
6.99415e-08
1.79971e-07
2.6117e-09
2.65105e-09
2.61459e-09
2.64583e-09
2.63989e-09
2.61492e-09
2.63517e-09
6.99621e-08
1.79999e-07
2.60476e-09
2.59605e-09
2.59813e-09
1.79956e-07
6.99455e-08
1.79971e-07
2.64918e-09
2.67926e-09
2.65482e-09
2.6594e-09
6.99569e-08
1.79953e-07
2.61119e-09
2.64742e-09
2.61444e-09
2.64851e-09
2.63445e-09
2.61044e-09
2.63748e-09
6.9962e-08
1.79997e-07
2.60001e-09
2.59845e-09
2.60114e-09
1.79954e-07
6.99472e-08
1.79971e-07
2.64144e-09
2.65838e-09
2.65831e-09
2.64943e-09
6.99508e-08
1.79996e-07
2.61222e-09
2.64967e-09
2.61491e-09
2.64809e-09
2.63726e-09
2.61336e-09
2.63757e-09
6.99624e-08
1.79999e-07
2.60314e-09
2.59731e-09
2.60069e-09
1.79955e-07
6.99444e-08
1.7999e-07
2.63523e-09
2.64125e-09
2.62351e-09
2.63285e-09
6.99599e-08
1.79997e-07
2.61137e-09
2.65099e-09
2.60558e-09
2.65092e-09
2.63889e-09
2.59218e-09
2.63809e-09
6.99617e-08
1.79998e-07
2.60352e-09
2.59817e-09
2.5984e-09
1.79956e-07
6.99484e-08
1.79958e-07
2.61843e-09
2.65146e-09
2.69425e-09
2.74149e-09
6.99899e-08
1.80038e-07
2.60175e-09
2.65211e-09
2.6327e-09
2.6463e-09
2.63567e-09
2.64069e-09
2.64413e-09
6.99623e-08
1.8e-07
2.59666e-09
2.59367e-09
2.59937e-09
1.7997e-07
6.99873e-08
1.80026e-07
2.64924e-09
2.67785e-09
2.64011e-09
2.7045e-09
6.99343e-08
1.79988e-07
2.63057e-09
2.64651e-09
2.482e-09
2.65137e-09
2.6565e-09
2.5993e-09
2.63815e-09
6.99639e-08
1.80004e-07
2.6156e-09
2.59515e-09
2.60156e-09
1.79961e-07
6.99408e-08
1.79994e-07
2.68305e-09
2.68971e-09
2.6661e-09
2.65523e-09
6.99493e-08
1.79988e-07
2.56183e-09
2.64944e-09
2.62517e-09
2.64773e-09
2.6368e-09
2.62007e-09
2.63614e-09
6.99632e-08
1.80001e-07
2.60256e-09
2.59824e-09
2.60149e-09
1.79958e-07
6.99693e-08
1.79992e-07
2.65747e-09
2.6612e-09
2.64734e-09
2.66055e-09
6.99466e-08
1.79989e-07
2.61348e-09
2.64897e-09
2.61764e-09
2.64912e-09
2.63616e-09
2.61569e-09
2.63675e-09
6.99638e-08
1.80002e-07
2.60333e-09
2.59909e-09
2.60178e-09
1.79959e-07
6.99692e-08
1.79993e-07
2.65225e-09
2.66334e-09
2.64591e-09
2.65897e-09
6.99468e-08
1.79989e-07
2.61077e-09
2.64965e-09
2.61542e-09
2.64744e-09
2.63675e-09
2.6149e-09
2.63553e-09
6.99641e-08
1.80002e-07
2.60365e-09
2.59851e-09
2.61088e-09
1.79959e-07
6.99688e-08
1.79993e-07
2.64983e-09
2.66209e-09
2.64595e-09
2.65971e-09
6.99466e-08
1.79989e-07
2.60936e-09
2.6483e-09
2.61547e-09
2.64815e-09
2.63605e-09
2.61534e-09
2.63637e-09
6.99638e-08
1.80002e-07
2.61081e-09
2.59918e-09
2.60577e-09
1.79959e-07
6.99683e-08
1.79994e-07
2.65129e-09
2.66297e-09
2.64511e-09
2.65913e-09
6.99465e-08
1.79989e-07
2.61081e-09
2.64918e-09
2.61462e-09
2.64773e-09
2.63593e-09
2.61505e-09
2.63697e-09
6.99637e-08
1.80002e-07
2.60831e-09
2.59816e-09
2.60442e-09
1.79958e-07
6.99687e-08
1.79991e-07
2.64955e-09
2.66226e-09
2.64728e-09
2.66065e-09
6.99468e-08
1.79988e-07
2.60911e-09
2.64859e-09
2.61677e-09
2.64915e-09
2.63712e-09
2.61593e-09
2.63634e-09
6.9964e-08
1.80001e-07
2.60725e-09
2.5994e-09
2.6047e-09
1.79958e-07
6.99689e-08
1.79994e-07
2.65086e-09
2.66297e-09
2.64528e-09
2.65902e-09
6.99469e-08
1.79991e-07
2.61037e-09
2.64926e-09
2.61481e-09
2.64752e-09
2.63638e-09
2.61459e-09
2.63554e-09
6.99641e-08
1.80004e-07
2.60682e-09
2.59807e-09
2.60393e-09
1.79961e-07
6.99683e-08
1.79994e-07
2.65064e-09
2.66268e-09
2.64562e-09
2.65918e-09
6.99465e-08
1.7999e-07
2.61017e-09
2.64896e-09
2.61512e-09
2.64769e-09
2.63592e-09
2.61494e-09
2.6362e-09
6.99637e-08
1.80003e-07
2.60638e-09
2.59844e-09
2.60458e-09
1.7996e-07
6.99683e-08
1.79994e-07
2.6499e-09
2.662e-09
2.6465e-09
2.66019e-09
6.99464e-08
1.79989e-07
2.60943e-09
2.64827e-09
2.61599e-09
2.64864e-09
2.63648e-09
2.61585e-09
2.63694e-09
6.99636e-08
1.80002e-07
2.60693e-09
2.59937e-09
2.60531e-09
1.79958e-07
6.99684e-08
1.79995e-07
2.65096e-09
2.66336e-09
2.64577e-09
2.65796e-09
6.99464e-08
1.7999e-07
2.61048e-09
2.64937e-09
2.61491e-09
2.64795e-09
2.63694e-09
2.61562e-09
2.63711e-09
6.99637e-08
1.80003e-07
2.60739e-09
2.59898e-09
2.60554e-09
1.79958e-07
6.99685e-08
1.79994e-07
2.64988e-09
2.64269e-09
2.64587e-09
2.66566e-09
6.99476e-08
1.79985e-07
2.60932e-09
2.64862e-09
2.61531e-09
2.64781e-09
2.63637e-09
2.61804e-09
2.63574e-09
6.99637e-08
1.80003e-07
2.60677e-09
2.59833e-09
2.60408e-09
1.7996e-07
6.99682e-08
1.79993e-07
2.65117e-09
2.65989e-09
2.64599e-09
2.66451e-09
6.99489e-08
1.79995e-07
2.61044e-09
2.64869e-09
2.61553e-09
2.64867e-09
2.63609e-09
2.61666e-09
2.63705e-09
6.99637e-08
1.80002e-07
2.60654e-09
2.59927e-09
2.60542e-09
1.79958e-07
6.9968e-08
1.79994e-07
2.6515e-09
2.66745e-09
2.64595e-09
2.66365e-09
6.99425e-08
1.79996e-07
2.61103e-09
2.64984e-09
2.61543e-09
2.64807e-09
2.63697e-09
2.61604e-09
2.63616e-09
6.99635e-08
1.80002e-07
2.60741e-09
2.59925e-09
2.60505e-09
1.79959e-07
6.99689e-08
1.79994e-07
2.64967e-09
2.66633e-09
2.64625e-09
2.66366e-09
6.99429e-08
1.79997e-07
2.6092e-09
2.64848e-09
2.61576e-09
2.64893e-09
2.63645e-09
2.61577e-09
2.63657e-09
6.9964e-08
1.80003e-07
2.60775e-09
2.59497e-09
2.60051e-09
1.79961e-07
6.99685e-08
1.79994e-07
2.65031e-09
2.66662e-09
2.64598e-09
2.66325e-09
6.99427e-08
1.79997e-07
2.60985e-09
2.64896e-09
2.61549e-09
2.64807e-09
2.6363e-09
2.61534e-09
2.63617e-09
6.99641e-08
1.80004e-07
2.60753e-09
2.59669e-09
2.60274e-09
1.79961e-07
6.99681e-08
1.79994e-07
2.65079e-09
2.66655e-09
2.64571e-09
2.66364e-09
6.99423e-08
1.79996e-07
2.61031e-09
2.64861e-09
2.61523e-09
2.64843e-09
2.63666e-09
2.61597e-09
2.63634e-09
6.99637e-08
1.80003e-07
2.60888e-09
2.59736e-09
2.60298e-09
1.7996e-07
6.99681e-08
1.79993e-07
2.651e-09
2.66718e-09
2.64654e-09
2.664e-09
6.99424e-08
1.79996e-07
2.61054e-09
2.64922e-09
2.61603e-09
2.64877e-09
2.63645e-09
2.61623e-09
2.63759e-09
6.99638e-08
1.80003e-07
2.60871e-09
2.59762e-09
2.60425e-09
1.79959e-07
6.99685e-08
1.79994e-07
2.65101e-09
2.66672e-09
2.64576e-09
2.6631e-09
6.99428e-08
1.79996e-07
2.61052e-09
2.64873e-09
2.61519e-09
2.64757e-09
2.63567e-09
2.6161e-09
2.63629e-09
6.99642e-08
1.80003e-07
2.60797e-09
2.59808e-09
2.60356e-09
1.7996e-07
6.99685e-08
1.79993e-07
2.65073e-09
2.66591e-09
2.65818e-09
2.65683e-09
6.99429e-08
1.79995e-07
2.60989e-09
2.64762e-09
2.61175e-09
2.64783e-09
2.63457e-09
2.618e-09
2.61099e-09
6.99639e-08
1.80003e-07
2.60863e-09
2.59482e-09
2.58581e-09
1.7996e-07
6.99649e-08
1.79998e-07
2.64983e-09
2.66815e-09
2.59829e-09
2.66019e-09
6.99437e-08
1.80015e-07
2.59503e-09
2.64797e-09
2.58436e-09
2.65456e-09
2.61552e-09
2.60119e-09
2.67613e-09
6.99634e-08
1.80004e-07
2.51481e-09
2.59726e-09
2.60316e-09
1.79964e-07
6.99569e-08
1.7999e-07
2.64102e-09
2.62611e-09
2.64965e-09
2.65755e-09
6.99532e-08
1.80025e-07
2.50474e-09
2.65565e-09
2.63159e-09
2.6494e-09
2.65068e-09
2.60836e-09
2.63901e-09
6.99636e-08
1.80004e-07
2.62664e-09
2.60414e-09
2.6045e-09
1.7996e-07
6.99568e-08
1.79984e-07
2.64474e-09
2.67363e-09
2.6419e-09
2.67088e-09
6.99918e-08
1.80016e-07
2.5951e-09
2.6492e-09
2.62567e-09
2.6478e-09
2.63753e-09
2.6162e-09
2.63649e-09
6.99637e-08
1.80005e-07
2.6075e-09
2.60267e-09
2.6019e-09
1.79961e-07
6.99521e-08
1.79982e-07
2.64317e-09
2.66463e-09
2.64213e-09
2.66032e-09
6.99615e-08
1.80016e-07
2.59529e-09
2.64836e-09
2.62776e-09
2.649e-09
2.63569e-09
2.61411e-09
2.63776e-09
6.99637e-08
1.80003e-07
2.60663e-09
2.60422e-09
2.60386e-09
1.79959e-07
6.99529e-08
1.7998e-07
2.64265e-09
2.66026e-09
2.64231e-09
2.65987e-09
6.99606e-08
1.80015e-07
2.59608e-09
2.64941e-09
2.62538e-09
2.64925e-09
2.63725e-09
2.61368e-09
2.63711e-09
6.99642e-08
1.80002e-07
2.60865e-09
2.60149e-09
2.60345e-09
1.79958e-07
6.99528e-08
1.79981e-07
2.64302e-09
2.65986e-09
2.64147e-09
2.65963e-09
6.99607e-08
1.80015e-07
2.59574e-09
2.64935e-09
2.62865e-09
2.64906e-09
2.63663e-09
2.61327e-09
2.63716e-09
6.99643e-08
1.80003e-07
2.60831e-09
2.60465e-09
2.60617e-09
1.79959e-07
6.99529e-08
1.79981e-07
2.64285e-09
2.65949e-09
2.64108e-09
2.65881e-09
6.99608e-08
1.80016e-07
2.59654e-09
2.6493e-09
2.62898e-09
2.64897e-09
2.63583e-09
2.61268e-09
2.63694e-09
6.99643e-08
1.80003e-07
2.6072e-09
2.60329e-09
2.60268e-09
1.7996e-07
6.9953e-08
1.79981e-07
2.6424e-09
2.65901e-09
2.64163e-09
2.65953e-09
6.99608e-08
1.80015e-07
2.5964e-09
2.64937e-09
2.62862e-09
2.6494e-09
2.63547e-09
2.61325e-09
2.63754e-09
6.99645e-08
1.80003e-07
2.6103e-09
2.59703e-09
2.60318e-09
1.79959e-07
6.99536e-08
1.79981e-07
2.64172e-09
2.65877e-09
2.64179e-09
2.65967e-09
6.99611e-08
1.80015e-07
2.59542e-09
2.64867e-09
2.62869e-09
2.64935e-09
2.63567e-09
2.61382e-09
2.63817e-09
6.99651e-08
1.80002e-07
2.60783e-09
2.59779e-09
2.6046e-09
1.79958e-07
6.99531e-08
1.79981e-07
2.64255e-09
2.65962e-09
2.64091e-09
2.65894e-09
6.99607e-08
1.80016e-07
2.59615e-09
2.64941e-09
2.62784e-09
2.64858e-09
2.63616e-09
2.61274e-09
2.63703e-09
6.99646e-08
1.80003e-07
2.60855e-09
2.5967e-09
2.6035e-09
1.7996e-07
6.99528e-08
1.79982e-07
2.64279e-09
2.6596e-09
2.64105e-09
2.65917e-09
6.99606e-08
1.80016e-07
2.5964e-09
2.64936e-09
2.62802e-09
2.64873e-09
2.63568e-09
2.61311e-09
2.6368e-09
6.99646e-08
1.80003e-07
2.60816e-09
2.59769e-09
2.60431e-09
1.7996e-07
6.99531e-08
1.7998e-07
2.64237e-09
2.65967e-09
2.64155e-09
2.6595e-09
6.99609e-08
1.80015e-07
2.59605e-09
2.64936e-09
2.62859e-09
2.64922e-09
2.63625e-09
2.61342e-09
2.63719e-09
6.99648e-08
1.80002e-07
2.61212e-09
2.59758e-09
2.60403e-09
1.79958e-07
6.99534e-08
1.79979e-07
2.64221e-09
2.65922e-09
2.64157e-09
2.65996e-09
6.99612e-08
1.80015e-07
2.59602e-09
2.64913e-09
2.62899e-09
2.64924e-09
2.63606e-09
2.61362e-09
2.63672e-09
6.9965e-08
1.80001e-07
2.60662e-09
2.59815e-09
2.60527e-09
1.79958e-07
6.99535e-08
1.79979e-07
2.64219e-09
2.65989e-09
2.63966e-09
2.66421e-09
6.9961e-08
1.80016e-07
2.59649e-09
2.64933e-09
2.61992e-09
2.64841e-09
2.6357e-09
2.61727e-09
2.63511e-09
6.9965e-08
1.80001e-07
2.60784e-09
2.5982e-09
2.60534e-09
1.79958e-07
6.99541e-08
1.79978e-07
2.64054e-09
2.67325e-09
2.63703e-09
2.64025e-09
6.99596e-08
1.8003e-07
2.61202e-09
2.64939e-09
2.61713e-09
2.64959e-09
2.63428e-09
2.61518e-09
2.6358e-09
6.99652e-08
1.8e-07
2.60771e-09
2.59923e-09
2.60682e-09
1.79956e-07
6.99547e-08
1.7998e-07
2.63946e-09
2.61831e-09
2.639e-09
2.65132e-09
6.99478e-08
1.80015e-07
2.61155e-09
2.65061e-09
2.61515e-09
2.64927e-09
2.6364e-09
2.61022e-09
2.63286e-09
6.9965e-08
1.8e-07
2.60973e-09
2.59869e-09
2.59926e-09
1.79959e-07
6.99534e-08
1.79979e-07
2.64099e-09
2.65473e-09
2.6404e-09
2.65808e-09
6.99595e-08
1.80015e-07
2.60926e-09
2.65136e-09
2.61394e-09
2.64595e-09
2.62617e-09
2.61541e-09
2.64989e-09
6.99645e-08
1.79998e-07
2.58908e-09
2.59908e-09
2.60947e-09
1.79968e-07
6.99534e-08
1.79978e-07
2.64161e-09
2.65867e-09
2.64129e-09
2.65927e-09
6.99601e-08
1.80015e-07
2.60802e-09
2.64649e-09
2.61435e-09
2.6455e-09
2.65131e-09
2.61554e-09
2.6503e-09
6.99656e-08
1.79997e-07
2.60894e-09
2.59821e-09
2.60912e-09
1.7997e-07
6.99539e-08
1.79976e-07
2.64195e-09
2.65883e-09
2.64192e-09
2.65988e-09
6.99606e-08
1.80013e-07
2.60806e-09
2.64589e-09
2.61492e-09
2.64601e-09
2.65064e-09
2.61626e-09
2.65073e-09
6.9966e-08
1.79995e-07
2.60788e-09
2.59892e-09
2.60959e-09
1.79969e-07
6.9954e-08
1.79976e-07
2.64253e-09
2.65944e-09
2.64169e-09
2.65947e-09
6.99608e-08
1.80014e-07
2.60858e-09
2.64641e-09
2.61469e-09
2.64567e-09
2.65025e-09
2.6159e-09
2.65088e-09
6.99662e-08
1.79996e-07
2.60768e-09
2.59828e-09
2.61001e-09
1.79969e-07
6.99539e-08
1.79975e-07
2.64296e-09
2.65964e-09
2.64147e-09
2.65944e-09
6.99608e-08
1.80012e-07
2.60902e-09
2.64676e-09
2.6145e-09
2.64569e-09
2.65076e-09
2.61599e-09
2.65135e-09
6.99662e-08
1.79994e-07
2.60811e-09
2.59803e-09
2.60835e-09
1.79967e-07
6.9954e-08
1.79976e-07
2.64314e-09
2.65983e-09
2.64127e-09
2.6595e-09
6.99607e-08
1.80012e-07
2.60922e-09
2.64687e-09
2.61424e-09
2.64571e-09
2.65135e-09
2.61629e-09
2.65205e-09
6.99661e-08
1.79994e-07
2.61073e-09
2.59876e-09
2.61039e-09
1.79965e-07
6.99543e-08
1.79976e-07
2.64238e-09
2.65964e-09
2.64133e-09
2.65893e-09
6.99611e-08
1.80013e-07
2.6084e-09
2.64669e-09
2.61432e-09
2.64507e-09
2.65161e-09
2.61535e-09
2.65064e-09
6.99665e-08
1.79995e-07
2.60875e-09
2.59796e-09
2.60936e-09
1.79967e-07
6.99543e-08
1.79976e-07
2.64225e-09
2.65938e-09
2.64078e-09
2.65865e-09
6.99608e-08
1.80014e-07
2.60827e-09
2.6464e-09
2.6138e-09
2.6448e-09
2.65162e-09
2.61498e-09
2.65031e-09
6.99662e-08
1.79996e-07
2.60883e-09
2.59751e-09
2.60843e-09
1.79968e-07
6.99539e-08
1.79975e-07
2.64295e-09
2.6596e-09
2.64177e-09
2.65961e-09
6.99608e-08
1.80011e-07
2.60902e-09
2.64658e-09
2.61417e-09
2.64576e-09
2.65076e-09
2.61648e-09
2.65195e-09
6.99662e-08
1.79993e-07
2.60942e-09
2.59915e-09
2.61144e-09
1.79964e-07
6.99543e-08
1.79975e-07
2.64294e-09
2.65986e-09
2.64085e-09
2.65876e-09
6.99611e-08
1.80012e-07
2.60984e-09
2.64691e-09
2.61327e-09
2.6449e-09
2.65247e-09
2.6155e-09
2.64992e-09
6.99665e-08
1.79994e-07
2.6104e-09
2.5981e-09
2.60934e-09
1.79967e-07
6.99547e-08
1.79975e-07
2.6421e-09
2.65903e-09
2.64069e-09
2.65854e-09
6.99614e-08
1.80012e-07
2.60825e-09
2.64604e-09
2.61304e-09
2.64467e-09
2.65195e-09
2.6153e-09
2.64957e-09
6.99668e-08
1.79994e-07
2.6098e-09
2.59792e-09
2.60893e-09
1.79967e-07
6.99545e-08
1.79974e-07
2.64232e-09
2.6586e-09
2.6409e-09
2.65915e-09
6.99615e-08
1.80012e-07
2.60837e-09
2.64563e-09
2.61289e-09
2.64545e-09
2.65046e-09
2.61495e-09
2.64993e-09
6.99668e-08
1.79994e-07
2.60823e-09
2.59744e-09
2.60886e-09
1.79968e-07
6.99547e-08
1.79973e-07
2.64247e-09
2.65962e-09
2.64199e-09
2.65993e-09
6.99614e-08
1.80011e-07
2.60806e-09
2.64699e-09
2.61293e-09
2.64817e-09
2.65074e-09
2.61499e-09
2.6524e-09
6.99666e-08
1.79995e-07
2.60786e-09
2.59912e-09
2.60787e-09
1.79968e-07
6.99547e-08
1.79973e-07
2.6441e-09
2.6598e-09
2.64248e-09
2.66176e-09
6.99619e-08
1.80008e-07
2.60847e-09
2.65e-09
2.61268e-09
2.65191e-09
2.6523e-09
2.61607e-09
2.65902e-09
6.99671e-08
1.79986e-07
2.60359e-09
2.56479e-09
2.5928e-09
1.79958e-07
6.99551e-08
1.7997e-07
2.64415e-09
2.66168e-09
2.64413e-09
2.66158e-09
6.99621e-08
1.80008e-07
2.60832e-09
2.65056e-09
2.61519e-09
2.6463e-09
2.65788e-09
2.61646e-09
2.65076e-09
6.99696e-08
1.79989e-07
2.59041e-09
2.59191e-09
2.6003e-09
1.79962e-07
6.99544e-08
1.79972e-07
2.645e-09
2.6617e-09
2.64121e-09
2.65961e-09
6.9961e-08
1.80009e-07
2.61007e-09
2.64696e-09
2.61305e-09
2.64495e-09
2.65196e-09
2.61558e-09
2.65069e-09
6.99656e-08
1.79991e-07
2.60238e-09
2.59504e-09
2.59422e-09
1.79965e-07
6.99533e-08
1.79971e-07
2.64404e-09
2.66037e-09
2.64067e-09
2.65941e-09
6.99604e-08
1.80007e-07
2.6098e-09
2.6466e-09
2.61291e-09
2.64526e-09
2.65027e-09
2.61639e-09
2.65134e-09
6.99655e-08
1.79989e-07
2.6164e-09
2.59918e-09
2.60163e-09
1.79962e-07
6.99539e-08
1.79971e-07
2.64214e-09
2.65905e-09
2.64097e-09
2.65924e-09
6.99609e-08
1.80008e-07
2.60819e-09
2.64579e-09
2.61335e-09
2.64532e-09
2.65102e-09
2.6153e-09
2.65038e-09
6.99661e-08
1.7999e-07
2.62333e-09
2.59894e-09
2.60928e-09
1.79961e-07
6.99539e-08
1.79971e-07
2.64222e-09
2.65903e-09
2.64051e-09
2.65919e-09
6.99608e-08
1.80008e-07
2.60836e-09
2.64606e-09
2.61296e-09
2.6453e-09
2.65124e-09
2.61529e-09
2.65016e-09
6.9966e-08
1.7999e-07
2.60852e-09
2.59875e-09
2.60954e-09
1.79962e-07
6.99532e-08
1.7997e-07
2.64301e-09
2.65986e-09
2.64117e-09
2.65948e-09
6.99605e-08
1.80007e-07
2.60919e-09
2.64693e-09
2.61358e-09
2.6455e-09
2.65157e-09
2.61548e-09
2.65019e-09
6.99658e-08
1.79989e-07
2.60877e-09
2.59919e-09
2.60994e-09
1.79962e-07
6.9954e-08
1.79969e-07
2.64228e-09
2.65918e-09
2.64119e-09
2.65974e-09
6.99609e-08
1.80006e-07
2.60843e-09
2.6462e-09
2.61363e-09
2.64578e-09
2.65173e-09
2.61603e-09
2.65146e-09
6.99662e-08
1.79988e-07
2.60919e-09
2.59987e-09
2.61077e-09
1.79959e-07
6.99539e-08
1.79971e-07
2.64322e-09
2.65963e-09
2.64003e-09
2.65854e-09
6.9961e-08
1.80007e-07
2.60937e-09
2.64668e-09
2.61249e-09
2.64452e-09
2.65145e-09
2.61554e-09
2.65042e-09
6.99663e-08
1.79989e-07
2.60829e-09
2.6007e-09
2.61047e-09
1.79961e-07
6.99538e-08
1.79971e-07
2.64206e-09
2.65933e-09
2.64055e-09
2.65847e-09
6.99607e-08
1.80008e-07
2.60825e-09
2.64637e-09
2.613e-09
2.6446e-09
2.65155e-09
2.61523e-09
2.64993e-09
6.99661e-08
1.7999e-07
2.60912e-09
2.59778e-09
2.60917e-09
1.79962e-07
6.9954e-08
1.79968e-07
2.64234e-09
2.65874e-09
2.6417e-09
2.66027e-09
6.9961e-08
1.80005e-07
2.60855e-09
2.64573e-09
2.61414e-09
2.64637e-09
2.65084e-09
2.61715e-09
2.65185e-09
6.99664e-08
1.79987e-07
2.60856e-09
2.59979e-09
2.61107e-09
1.79959e-07
6.9954e-08
1.79969e-07
2.64359e-09
2.66023e-09
2.64072e-09
2.65893e-09
6.99611e-08
1.80005e-07
2.60977e-09
2.64719e-09
2.61313e-09
2.64501e-09
2.65196e-09
2.61555e-09
2.65046e-09
6.99666e-08
1.79987e-07
2.6097e-09
2.59821e-09
2.60977e-09
1.7996e-07
6.99543e-08
1.7997e-07
2.64237e-09
2.65902e-09
2.64037e-09
2.65861e-09
6.99614e-08
1.80007e-07
2.6085e-09
2.64597e-09
2.6128e-09
2.6447e-09
2.65109e-09
2.61539e-09
2.64963e-09
6.99669e-08
1.79989e-07
2.60884e-09
2.59804e-09
2.60893e-09
1.79961e-07
6.99541e-08
1.79968e-07
2.64197e-09
2.6587e-09
2.64108e-09
2.65936e-09
6.99611e-08
1.80005e-07
2.60814e-09
2.64568e-09
2.61415e-09
2.64549e-09
2.65e-09
2.61565e-09
2.65076e-09
6.99665e-08
1.79987e-07
2.60776e-09
2.59828e-09
2.61003e-09
1.79959e-07
6.99543e-08
1.79968e-07
2.64254e-09
2.65961e-09
2.64097e-09
2.65938e-09
6.99613e-08
1.80005e-07
2.61094e-09
2.64669e-09
2.62653e-09
2.64543e-09
2.65161e-09
2.61609e-09
2.65107e-09
6.99667e-08
1.79987e-07
2.60935e-09
2.59875e-09
2.61035e-09
1.7996e-07
6.99537e-08
1.79969e-07
2.64303e-09
2.65986e-09
2.6405e-09
2.65912e-09
6.99613e-08
1.80006e-07
2.59603e-09
2.64673e-09
2.62625e-09
2.64524e-09
2.65113e-09
2.61557e-09
2.65006e-09
6.99667e-08
1.79988e-07
2.60888e-09
2.5982e-09
2.60934e-09
1.7996e-07
6.99537e-08
1.79968e-07
2.64248e-09
2.65909e-09
2.64119e-09
2.65919e-09
6.99614e-08
1.80006e-07
2.59555e-09
2.646e-09
2.62694e-09
2.64563e-09
2.65043e-09
2.61553e-09
2.65051e-09
6.99668e-08
1.79987e-07
2.6082e-09
2.59818e-09
2.60982e-09
1.79961e-07
6.99538e-08
1.79967e-07
2.64283e-09
2.65946e-09
2.64157e-09
2.6596e-09
6.99612e-08
1.80005e-07
2.59595e-09
2.64905e-09
2.62722e-09
2.65153e-09
2.65156e-09
2.61638e-09
2.65113e-09
6.99664e-08
1.80023e-07
2.60931e-09
2.59864e-09
2.61037e-09
1.79959e-07
6.99539e-08
1.79967e-07
2.64347e-09
2.65967e-09
2.64071e-09
2.65908e-09
6.99616e-08
1.80005e-07
2.59656e-09
2.64046e-09
2.62638e-09
2.65118e-09
2.65149e-09
2.61547e-09
2.65011e-09
6.99648e-08
1.80023e-07
2.6092e-09
2.59788e-09
2.60942e-09
1.79959e-07
6.99541e-08
1.79971e-07
2.64234e-09
2.65894e-09
2.63985e-09
2.65896e-09
6.99615e-08
1.80007e-07
2.59549e-09
2.6398e-09
2.62555e-09
2.65103e-09
2.65101e-09
2.61506e-09
2.65001e-09
6.99647e-08
1.80025e-07
2.6088e-09
2.59734e-09
2.60947e-09
1.79961e-07
6.99536e-08
1.7997e-07
2.64238e-09
2.65892e-09
2.64069e-09
2.6592e-09
6.99613e-08
1.80006e-07
2.59552e-09
2.6399e-09
2.62634e-09
2.65404e-09
2.65067e-09
2.6164e-09
2.65142e-09
6.99644e-08
1.80023e-07
2.60835e-09
2.59887e-09
2.6104e-09
1.79959e-07
6.99536e-08
1.79968e-07
2.64317e-09
2.65942e-09
2.64072e-09
2.65947e-09
6.99614e-08
1.80004e-07
2.5962e-09
2.64138e-09
2.62649e-09
2.64446e-09
2.65227e-09
2.61561e-09
2.65275e-09
6.99673e-08
1.79998e-07
2.60985e-09
2.59743e-09
2.61397e-09
1.79958e-07
6.99539e-08
1.7997e-07
2.6426e-09
2.66006e-09
2.64649e-09
2.66618e-09
6.99616e-08
1.80004e-07
2.59619e-09
2.6451e-09
2.62991e-09
2.66674e-09
2.66148e-09
2.62447e-09
2.65062e-09
6.99672e-08
1.7999e-07
2.62216e-09
2.61295e-09
2.61562e-09
1.79949e-07
6.99494e-08
1.79977e-07
2.65774e-09
2.65318e-09
3.08157e-09
3.08298e-09
6.99574e-08
1.79979e-07
2.59507e-09
2.6779e-09
3.11886e-09
3.10741e-09
2.64076e-09
3.00673e-09
3.02251e-09
6.99629e-08
1.79977e-07
2.59985e-09
3.02658e-09
2.97964e-09
1.79924e-07
6.9979e-08
1.79788e-07
3.69496e-09
3.74613e-09
1.8264e-08
1.82648e-08
6.99547e-08
1.79786e-07
3.71654e-09
3.67722e-09
1.83108e-08
1.83507e-08
3.67117e-09
1.81988e-08
1.82681e-08
6.9972e-08
1.79789e-07
3.66597e-09
1.82284e-08
1.81804e-08
1.79769e-07
6.93878e-08
1.46177e-07
3.78161e-08
3.78096e-08
1.19243e-07
1.19231e-07
6.9392e-08
1.46182e-07
3.77155e-08
3.78971e-08
1.1949e-07
1.1924e-07
3.78656e-08
1.19632e-07
1.19381e-07
6.94541e-08
1.46148e-07
3.77222e-08
1.19484e-07
1.19485e-07
1.46123e-07
3.04778e-07
1.7451e-07
1.74394e-07
3.04714e-07
1.7461e-07
1.74442e-07
3.04302e-07
3.04391e-07
3.04398e-07
1.74528e-07
3.04703e-07
1.74624e-07
8.09856e-08
2.96961e-07
1.93439e-07
1.93476e-07
4.93395e-07
3.85776e-07
3.73815e-07
2.52247e-07
4.93359e-07
3.85784e-07
2.52238e-07
3.73687e-07
5.04002e-07
3.69005e-07
3.69002e-07
1.94472e-06
0.000119426
2.07063e-06
0.00012159
0.000243722
0.000251834
1.94527e-06
0.000119443
2.06897e-06
0.000121608
6.50162e-07
6.49971e-07
6.501e-07
9.00719e-08
9.00006e-08
9.00349e-08
9.00977e-08
1.4949e-07
2.81504e-06
6.18841e-07
3.83059e-07
1.10724e-07
2.46046e-06
3.64528e-07
0.000243715
0.000251818
1.4998e-07
6.18233e-07
2.81448e-06
3.82974e-07
1.10484e-07
3.64191e-07
2.46043e-06
5.56859e-06
5.5687e-06
1.78795e-07
5.24249e-06
5.24387e-06
1.86683e-06
0.000121391
1.86262e-06
0.00012139
0.000252055
0.00025205
1.8671e-06
0.000121408
1.86288e-06
0.000121407
4.31742e-08
4.3152e-08
4.3187e-08
5.86e-09
5.85705e-09
5.84713e-09
5.88777e-09
2.18497e-07