/*--------------------------------*- C++ -*----------------------------------*\
| =========                 |                                                 |
| \\      /  F ield         | OpenFOAM: The Open Source CFD Toolbox           |
|  \\    /   O peration     | Version:  v1912                                 |
|   \\  /    A nd           | Website:  www.openfoam.com                      |
|    \\/     M anipulation  |                                                 |
\*---------------------------------------------------------------------------*/
FoamFile
{
    version     2.0;
    format      ascii;
    class       volScalarField;
    location    "0.9";
    object      p;
}
// * * * * * * * * * * * * * * * * * * * * * * * * * * * * * * * * * * * * * //

dimensions      [0 2 -2 0 0 0 0];


internalField   nonuniform List<scalar> 
171728
(
0.0213453
0.0213489
0.021349
0.0213652
0.0211216
0.0211217
0.0211218
0.0211357
0.0208954
0.0208954
0.0208954
0.0209092
0.0206691
0.020669
0.020669
0.0206829
0.0204427
0.0204426
0.0204426
0.0204565
0.0202164
0.0202163
0.0202163
0.0202302
0.01999
0.0199899
0.0199899
0.0200038
0.0197636
0.0197636
0.0197636
0.0197775
0.0195373
0.0195372
0.0195372
0.0195511
0.0193109
0.0193109
0.0193109
0.0193247
0.0190846
0.0190845
0.0190845
0.0190984
0.0188582
0.0188581
0.0188581
0.018872
0.0186319
0.0186318
0.0186318
0.0186457
0.0184055
0.0184054
0.0184054
0.0184193
0.0181792
0.0181791
0.0181791
0.018193
0.0179528
0.0179527
0.0179527
0.0179666
0.0177264
0.0177264
0.0177264
0.0177402
0.0175001
0.0175
0.0175
0.0175139
0.0172737
0.0172737
0.0172737
0.0172875
0.0170474
0.0170473
0.0170473
0.0170612
0.016821
0.0168209
0.0168209
0.0168348
0.0165947
0.0165946
0.0165946
0.0166085
0.0163683
0.0163682
0.0163682
0.0163821
0.0161419
0.0161419
0.0161419
0.0161558
0.0159156
0.0159155
0.0159155
0.0159294
0.0156892
0.0156892
0.0156892
0.015703
0.0154629
0.0154628
0.0154628
0.0154767
0.0152365
0.0152365
0.0152365
0.0152503
0.0150102
0.0150101
0.0150101
0.015024
0.0147838
0.0147837
0.0147837
0.0147976
0.0145575
0.0145574
0.0145574
0.0145713
0.0143311
0.014331
0.014331
0.0143449
0.0141047
0.0141047
0.0141047
0.0141186
0.0138784
0.0138783
0.0138783
0.0138922
0.013652
0.013652
0.013652
0.0136658
0.0134257
0.0134256
0.0134256
0.0134395
0.0131993
0.0131992
0.0131992
0.0132131
0.012973
0.0129729
0.0129729
0.0129868
0.0127466
0.0127465
0.0127465
0.0127604
0.0125202
0.0125202
0.0125202
0.0125341
0.0122939
0.0122938
0.0122938
0.0123077
0.0120675
0.0120675
0.0120675
0.0120813
0.0118412
0.0118411
0.0118411
0.011855
0.0116148
0.0116148
0.0116148
0.0116286
0.0113885
0.0113884
0.0113884
0.0114023
0.0111621
0.011162
0.011162
0.0111759
0.0109358
0.0109357
0.0109357
0.0109496
0.0107094
0.0107093
0.0107093
0.0107232
0.010483
0.010483
0.010483
0.0104969
0.0102567
0.0102566
0.0102566
0.0102705
0.0100303
0.0100303
0.0100303
0.0100441
0.00980398
0.00980391
0.00980391
0.00981779
0.00957762
0.00957755
0.00957755
0.00959143
0.00935127
0.0093512
0.0093512
0.00936507
0.00912491
0.00912484
0.00912484
0.00913872
0.00889855
0.00889848
0.00889848
0.00891236
0.0086722
0.00867213
0.00867213
0.00868601
0.00844584
0.00844577
0.00844577
0.00845965
0.00821949
0.00821942
0.00821942
0.0082333
0.00799313
0.00799306
0.00799306
0.00800694
0.00776678
0.00776671
0.00776671
0.00778058
0.00754042
0.00754035
0.00754035
0.00755423
0.00731407
0.007314
0.007314
0.00732787
0.00708771
0.00708764
0.00708764
0.00710152
0.00686135
0.00686128
0.00686129
0.00687516
0.006635
0.00663493
0.00663493
0.00664881
0.00640864
0.00640857
0.00640857
0.00642245
0.00618229
0.00618222
0.00618222
0.0061961
0.00595593
0.00595586
0.00595586
0.00596974
0.00572958
0.00572951
0.00572951
0.00574339
0.00550322
0.00550315
0.00550315
0.00551703
0.00527687
0.0052768
0.0052768
0.00529068
0.00505051
0.00505044
0.00505044
0.00506432
0.00482416
0.00482409
0.00482409
0.00483797
0.0045978
0.00459773
0.00459774
0.00461161
0.00437145
0.00437138
0.00437138
0.00438526
0.00414509
0.00414502
0.00414503
0.0041589
0.00391874
0.00391867
0.00391867
0.00393255
0.00369239
0.00369231
0.00369232
0.00370619
0.00346603
0.00346596
0.00346596
0.00347984
0.00323968
0.00323961
0.00323961
0.00325348
0.00301332
0.00301325
0.00301325
0.00302713
0.00278697
0.0027869
0.0027869
0.00280077
0.00256061
0.00256054
0.00256054
0.00257442
0.00233426
0.00233419
0.00233419
0.00234806
0.0021079
0.00210783
0.00210783
0.00212171
0.00188155
0.00188148
0.00188148
0.00189535
0.00165519
0.00165512
0.00165512
0.001669
0.00142884
0.00142877
0.00142877
0.00144264
0.00120248
0.00120241
0.00120242
0.00121629
0.00097613
0.00097606
0.000976061
0.000989937
0.000749774
0.000749707
0.000749706
0.000763583
0.000523432
0.00052336
0.000523358
0.000537228
0.000297829
0.000297208
0.000297197
0.000310929
8.7558e-05
9.37252e-05
9.37101e-05
9.36101e-05
0.0213956
0.0213908
0.0213908
0.0213956
0.0213908
0.0213908
0.0213984
0.0213984
0.0213984
0.0213984
0.0213908
0.0213908
0.0213956
0.0213908
0.0213908
0.0213956
0.0213652
0.0211645
0.021349
0.0213489
0.0211783
0.0211783
0.0213651
0.0211645
0.021349
0.021349
0.0211783
0.0211784
0.021349
0.0211783
0.0211783
0.0213652
0.0211645
0.021349
0.0211784
0.0211783
0.0211645
0.0211357
0.0209381
0.0211217
0.0211217
0.020952
0.020952
0.0211356
0.0209381
0.0211218
0.0211218
0.020952
0.020952
0.0211217
0.020952
0.020952
0.0211357
0.0209381
0.0211218
0.020952
0.020952
0.0209381
0.0209092
0.0207118
0.0208954
0.0208954
0.0207256
0.0207256
0.0209092
0.0207118
0.0208954
0.0208954
0.0207256
0.0207256
0.0208954
0.0207256
0.0207256
0.0209092
0.0207118
0.0208954
0.0207256
0.0207256
0.0207118
0.0206829
0.0204854
0.020669
0.020669
0.0204992
0.0204992
0.0206829
0.0204854
0.020669
0.020669
0.0204992
0.0204992
0.020669
0.0204992
0.0204992
0.0206829
0.0204854
0.020669
0.0204992
0.0204992
0.0204854
0.0204565
0.020259
0.0204426
0.0204426
0.0202729
0.0202729
0.0204565
0.020259
0.0204426
0.0204426
0.0202729
0.0202729
0.0204426
0.0202729
0.0202729
0.0204565
0.020259
0.0204426
0.0202729
0.0202729
0.020259
0.0202302
0.0200327
0.0202163
0.0202163
0.0200465
0.0200465
0.0202302
0.0200327
0.0202163
0.0202163
0.0200465
0.0200465
0.0202163
0.0200465
0.0200465
0.0202302
0.0200327
0.0202163
0.0200465
0.0200465
0.0200327
0.0200038
0.0198063
0.0199899
0.0199899
0.0198202
0.0198202
0.0200038
0.0198063
0.0199899
0.0199899
0.0198202
0.0198202
0.0199899
0.0198202
0.0198202
0.0200038
0.0198063
0.0199899
0.0198202
0.0198202
0.0198063
0.0197775
0.01958
0.0197636
0.0197636
0.0195938
0.0195938
0.0197775
0.01958
0.0197636
0.0197636
0.0195938
0.0195938
0.0197636
0.0195938
0.0195938
0.0197775
0.01958
0.0197636
0.0195938
0.0195938
0.01958
0.0195511
0.0193536
0.0195372
0.0195372
0.0193675
0.0193675
0.0195511
0.0193536
0.0195372
0.0195372
0.0193675
0.0193675
0.0195372
0.0193675
0.0193675
0.0195511
0.0193536
0.0195372
0.0193675
0.0193675
0.0193536
0.0193247
0.0191273
0.0193109
0.0193109
0.0191411
0.0191411
0.0193247
0.0191273
0.0193109
0.0193109
0.0191411
0.0191411
0.0193109
0.0191411
0.0191411
0.0193247
0.0191273
0.0193109
0.0191411
0.0191411
0.0191273
0.0190984
0.0189009
0.0190845
0.0190845
0.0189147
0.0189147
0.0190984
0.0189009
0.0190845
0.0190845
0.0189147
0.0189147
0.0190845
0.0189147
0.0189147
0.0190984
0.0189009
0.0190845
0.0189147
0.0189147
0.0189009
0.018872
0.0186746
0.0188581
0.0188582
0.0186884
0.0186884
0.018872
0.0186746
0.0188581
0.0188581
0.0186884
0.0186884
0.0188581
0.0186884
0.0186884
0.018872
0.0186746
0.0188581
0.0186884
0.0186884
0.0186746
0.0186457
0.0184482
0.0186318
0.0186318
0.018462
0.018462
0.0186457
0.0184482
0.0186318
0.0186318
0.018462
0.018462
0.0186318
0.018462
0.018462
0.0186457
0.0184482
0.0186318
0.018462
0.018462
0.0184482
0.0184193
0.0182218
0.0184054
0.0184054
0.0182357
0.0182357
0.0184193
0.0182218
0.0184054
0.0184054
0.0182357
0.0182357
0.0184054
0.0182357
0.0182357
0.0184193
0.0182218
0.0184054
0.0182357
0.0182357
0.0182218
0.018193
0.0179955
0.0181791
0.0181791
0.0180093
0.0180093
0.018193
0.0179955
0.0181791
0.0181791
0.0180093
0.0180093
0.0181791
0.0180093
0.0180093
0.018193
0.0179955
0.0181791
0.0180093
0.0180093
0.0179955
0.0179666
0.0177691
0.0179527
0.0179527
0.017783
0.017783
0.0179666
0.0177691
0.0179527
0.0179527
0.017783
0.017783
0.0179527
0.017783
0.017783
0.0179666
0.0177691
0.0179527
0.017783
0.017783
0.0177691
0.0177402
0.0175428
0.0177264
0.0177264
0.0175566
0.0175566
0.0177402
0.0175428
0.0177264
0.0177264
0.0175566
0.0175566
0.0177264
0.0175566
0.0175566
0.0177402
0.0175428
0.0177264
0.0175566
0.0175566
0.0175428
0.0175139
0.0173164
0.0175
0.0175
0.0173302
0.0173302
0.0175139
0.0173164
0.0175
0.0175
0.0173302
0.0173302
0.0175
0.0173302
0.0173302
0.0175139
0.0173164
0.0175
0.0173302
0.0173302
0.0173164
0.0172875
0.0170901
0.0172737
0.0172737
0.0171039
0.0171039
0.0172875
0.0170901
0.0172737
0.0172737
0.0171039
0.0171039
0.0172737
0.0171039
0.0171039
0.0172875
0.0170901
0.0172737
0.0171039
0.0171039
0.0170901
0.0170612
0.0168637
0.0170473
0.0170473
0.0168775
0.0168775
0.0170612
0.0168637
0.0170473
0.0170473
0.0168775
0.0168775
0.0170473
0.0168775
0.0168775
0.0170612
0.0168637
0.0170473
0.0168775
0.0168775
0.0168637
0.0168348
0.0166374
0.0168209
0.0168209
0.0166512
0.0166512
0.0168348
0.0166374
0.0168209
0.0168209
0.0166512
0.0166512
0.0168209
0.0166512
0.0166512
0.0168348
0.0166374
0.0168209
0.0166512
0.0166512
0.0166374
0.0166085
0.016411
0.0165946
0.0165946
0.0164248
0.0164248
0.0166085
0.016411
0.0165946
0.0165946
0.0164248
0.0164248
0.0165946
0.0164248
0.0164248
0.0166085
0.016411
0.0165946
0.0164248
0.0164248
0.016411
0.0163821
0.0161846
0.0163682
0.0163682
0.0161985
0.0161985
0.0163821
0.0161846
0.0163682
0.0163682
0.0161985
0.0161985
0.0163682
0.0161985
0.0161985
0.0163821
0.0161846
0.0163682
0.0161985
0.0161985
0.0161846
0.0161558
0.0159583
0.0161419
0.0161419
0.0159721
0.0159721
0.0161558
0.0159583
0.0161419
0.0161419
0.0159721
0.0159721
0.0161419
0.0159721
0.0159721
0.0161558
0.0159583
0.0161419
0.0159721
0.0159721
0.0159583
0.0159294
0.0157319
0.0159155
0.0159155
0.0157458
0.0157458
0.0159294
0.0157319
0.0159155
0.0159155
0.0157458
0.0157458
0.0159155
0.0157458
0.0157458
0.0159294
0.0157319
0.0159155
0.0157458
0.0157458
0.0157319
0.015703
0.0155056
0.0156892
0.0156892
0.0155194
0.0155194
0.015703
0.0155056
0.0156892
0.0156892
0.0155194
0.0155194
0.0156892
0.0155194
0.0155194
0.015703
0.0155056
0.0156892
0.0155194
0.0155194
0.0155056
0.0154767
0.0152792
0.0154628
0.0154628
0.015293
0.015293
0.0154767
0.0152792
0.0154628
0.0154628
0.015293
0.015293
0.0154628
0.015293
0.015293
0.0154767
0.0152792
0.0154628
0.015293
0.015293
0.0152792
0.0152503
0.0150529
0.0152365
0.0152365
0.0150667
0.0150667
0.0152503
0.0150529
0.0152365
0.0152365
0.0150667
0.0150667
0.0152365
0.0150667
0.0150667
0.0152503
0.0150529
0.0152365
0.0150667
0.0150667
0.0150529
0.015024
0.0148265
0.0150101
0.0150101
0.0148403
0.0148403
0.015024
0.0148265
0.0150101
0.0150101
0.0148403
0.0148403
0.0150101
0.0148403
0.0148403
0.015024
0.0148265
0.0150101
0.0148403
0.0148403
0.0148265
0.0147976
0.0146001
0.0147837
0.0147837
0.014614
0.014614
0.0147976
0.0146001
0.0147837
0.0147837
0.014614
0.014614
0.0147837
0.014614
0.014614
0.0147976
0.0146001
0.0147837
0.014614
0.014614
0.0146001
0.0145713
0.0143738
0.0145574
0.0145574
0.0143876
0.0143876
0.0145713
0.0143738
0.0145574
0.0145574
0.0143876
0.0143876
0.0145574
0.0143876
0.0143876
0.0145713
0.0143738
0.0145574
0.0143876
0.0143876
0.0143738
0.0143449
0.0141474
0.014331
0.014331
0.0141613
0.0141613
0.0143449
0.0141474
0.014331
0.014331
0.0141613
0.0141613
0.014331
0.0141613
0.0141613
0.0143449
0.0141474
0.014331
0.0141613
0.0141613
0.0141474
0.0141186
0.0139211
0.0141047
0.0141047
0.0139349
0.0139349
0.0141186
0.0139211
0.0141047
0.0141047
0.0139349
0.0139349
0.0141047
0.0139349
0.0139349
0.0141186
0.0139211
0.0141047
0.0139349
0.0139349
0.0139211
0.0138922
0.0136947
0.0138783
0.0138783
0.0137085
0.0137085
0.0138922
0.0136947
0.0138783
0.0138783
0.0137085
0.0137085
0.0138783
0.0137085
0.0137085
0.0138922
0.0136947
0.0138783
0.0137085
0.0137085
0.0136947
0.0136658
0.0134684
0.013652
0.013652
0.0134822
0.0134822
0.0136658
0.0134684
0.013652
0.013652
0.0134822
0.0134822
0.013652
0.0134822
0.0134822
0.0136658
0.0134684
0.013652
0.0134822
0.0134822
0.0134684
0.0134395
0.013242
0.0134256
0.0134256
0.0132558
0.0132558
0.0134395
0.013242
0.0134256
0.0134256
0.0132558
0.0132558
0.0134256
0.0132558
0.0132558
0.0134395
0.013242
0.0134256
0.0132558
0.0132558
0.013242
0.0132131
0.0130157
0.0131992
0.0131992
0.0130295
0.0130295
0.0132131
0.0130157
0.0131992
0.0131992
0.0130295
0.0130295
0.0131992
0.0130295
0.0130295
0.0132131
0.0130157
0.0131992
0.0130295
0.0130295
0.0130157
0.0129868
0.0127893
0.0129729
0.0129729
0.0128031
0.0128031
0.0129868
0.0127893
0.0129729
0.0129729
0.0128031
0.0128031
0.0129729
0.0128031
0.0128031
0.0129868
0.0127893
0.0129729
0.0128031
0.0128031
0.0127893
0.0127604
0.0125629
0.0127465
0.0127465
0.0125768
0.0125768
0.0127604
0.0125629
0.0127465
0.0127465
0.0125768
0.0125768
0.0127465
0.0125768
0.0125768
0.0127604
0.0125629
0.0127465
0.0125768
0.0125768
0.0125629
0.0125341
0.0123366
0.0125202
0.0125202
0.0123504
0.0123504
0.0125341
0.0123366
0.0125202
0.0125202
0.0123504
0.0123504
0.0125202
0.0123504
0.0123504
0.0125341
0.0123366
0.0125202
0.0123504
0.0123504
0.0123366
0.0123077
0.0121102
0.0122938
0.0122938
0.0121241
0.0121241
0.0123077
0.0121102
0.0122938
0.0122938
0.0121241
0.0121241
0.0122938
0.0121241
0.0121241
0.0123077
0.0121102
0.0122938
0.0121241
0.0121241
0.0121102
0.0120813
0.0118839
0.0120675
0.0120675
0.0118977
0.0118977
0.0120813
0.0118839
0.0120675
0.0120675
0.0118977
0.0118977
0.0120675
0.0118977
0.0118977
0.0120813
0.0118839
0.0120675
0.0118977
0.0118977
0.0118839
0.011855
0.0116575
0.0118411
0.0118411
0.0116713
0.0116713
0.011855
0.0116575
0.0118411
0.0118411
0.0116713
0.0116713
0.0118411
0.0116713
0.0116713
0.011855
0.0116575
0.0118411
0.0116713
0.0116713
0.0116575
0.0116286
0.0114312
0.0116148
0.0116148
0.011445
0.011445
0.0116286
0.0114312
0.0116148
0.0116148
0.011445
0.011445
0.0116148
0.011445
0.011445
0.0116286
0.0114312
0.0116148
0.011445
0.011445
0.0114312
0.0114023
0.0112048
0.0113884
0.0113884
0.0112186
0.0112186
0.0114023
0.0112048
0.0113884
0.0113884
0.0112186
0.0112186
0.0113884
0.0112186
0.0112186
0.0114023
0.0112048
0.0113884
0.0112186
0.0112186
0.0112048
0.0111759
0.0109785
0.011162
0.011162
0.0109923
0.0109923
0.0111759
0.0109784
0.011162
0.011162
0.0109923
0.0109923
0.011162
0.0109923
0.0109923
0.0111759
0.0109785
0.011162
0.0109923
0.0109923
0.0109785
0.0109496
0.0107521
0.0109357
0.0109357
0.0107659
0.0107659
0.0109496
0.0107521
0.0109357
0.0109357
0.0107659
0.0107659
0.0109357
0.0107659
0.0107659
0.0109496
0.0107521
0.0109357
0.0107659
0.0107659
0.0107521
0.0107232
0.0105257
0.0107093
0.0107093
0.0105396
0.0105396
0.0107232
0.0105257
0.0107093
0.0107093
0.0105396
0.0105396
0.0107093
0.0105396
0.0105396
0.0107232
0.0105257
0.0107093
0.0105396
0.0105396
0.0105257
0.0104969
0.0102994
0.010483
0.010483
0.0103132
0.0103132
0.0104969
0.0102994
0.010483
0.010483
0.0103132
0.0103132
0.010483
0.0103132
0.0103132
0.0104969
0.0102994
0.010483
0.0103132
0.0103132
0.0102994
0.0102705
0.010073
0.0102566
0.0102566
0.0100869
0.0100869
0.0102705
0.010073
0.0102566
0.0102566
0.0100869
0.0100869
0.0102566
0.0100869
0.0100869
0.0102705
0.010073
0.0102566
0.0100869
0.0100869
0.010073
0.0100441
0.00984667
0.0100303
0.0100303
0.0098605
0.0098605
0.0100441
0.00984667
0.0100303
0.0100303
0.0098605
0.0098605
0.0100303
0.0098605
0.0098605
0.0100441
0.00984667
0.0100303
0.0098605
0.0098605
0.00984667
0.00981779
0.00962031
0.00980391
0.00980391
0.00963414
0.00963414
0.00981779
0.00962031
0.00980391
0.00980391
0.00963414
0.00963414
0.00980391
0.00963414
0.00963414
0.00981779
0.00962031
0.00980391
0.00963414
0.00963414
0.00962031
0.00959143
0.00939396
0.00957755
0.00957755
0.00940778
0.00940778
0.00959143
0.00939396
0.00957755
0.00957755
0.00940778
0.00940778
0.00957755
0.00940778
0.00940778
0.00959143
0.00939396
0.00957755
0.00940778
0.00940778
0.00939396
0.00936507
0.0091676
0.0093512
0.0093512
0.00918143
0.00918143
0.00936507
0.0091676
0.0093512
0.0093512
0.00918143
0.00918143
0.0093512
0.00918143
0.00918143
0.00936507
0.0091676
0.0093512
0.00918143
0.00918143
0.0091676
0.00913872
0.00894125
0.00912484
0.00912484
0.00895507
0.00895507
0.00913872
0.00894125
0.00912484
0.00912484
0.00895507
0.00895507
0.00912484
0.00895507
0.00895507
0.00913872
0.00894125
0.00912484
0.00895507
0.00895507
0.00894125
0.00891236
0.00871489
0.00889848
0.00889848
0.00872872
0.00872872
0.00891236
0.00871489
0.00889848
0.00889848
0.00872872
0.00872872
0.00889849
0.00872872
0.00872872
0.00891236
0.00871489
0.00889848
0.00872872
0.00872872
0.00871489
0.00868601
0.00848854
0.00867213
0.00867213
0.00850236
0.00850236
0.00868601
0.00848854
0.00867213
0.00867213
0.00850236
0.00850236
0.00867213
0.00850236
0.00850236
0.00868601
0.00848854
0.00867213
0.00850236
0.00850236
0.00848854
0.00845965
0.00826218
0.00844577
0.00844577
0.00827601
0.00827601
0.00845965
0.00826218
0.00844577
0.00844577
0.00827601
0.00827601
0.00844577
0.00827601
0.00827601
0.00845965
0.00826218
0.00844577
0.00827601
0.00827601
0.00826218
0.0082333
0.00803583
0.00821942
0.00821942
0.00804965
0.00804965
0.0082333
0.00803582
0.00821942
0.00821942
0.00804965
0.00804965
0.00821942
0.00804965
0.00804965
0.0082333
0.00803583
0.00821942
0.00804965
0.00804965
0.00803583
0.00800694
0.00780947
0.00799306
0.00799306
0.0078233
0.0078233
0.00800694
0.00780947
0.00799306
0.00799306
0.0078233
0.0078233
0.00799306
0.0078233
0.0078233
0.00800694
0.00780947
0.00799306
0.0078233
0.00782329
0.00780947
0.00778058
0.00758311
0.00776671
0.00776671
0.00759694
0.00759694
0.00778058
0.00758311
0.00776671
0.00776671
0.00759694
0.00759694
0.00776671
0.00759694
0.00759694
0.00778058
0.00758311
0.00776671
0.00759694
0.00759694
0.00758311
0.00755423
0.00735676
0.00754035
0.00754035
0.00737058
0.00737058
0.00755423
0.00735676
0.00754035
0.00754035
0.00737058
0.00737058
0.00754035
0.00737058
0.00737059
0.00755423
0.00735676
0.00754035
0.00737059
0.00737058
0.00735676
0.00732787
0.0071304
0.007314
0.007314
0.00714423
0.00714423
0.00732787
0.0071304
0.007314
0.007314
0.00714423
0.00714423
0.007314
0.00714423
0.00714423
0.00732787
0.0071304
0.00731399
0.00714423
0.00714423
0.0071304
0.00710152
0.00690405
0.00708764
0.00708764
0.00691787
0.00691787
0.00710152
0.00690405
0.00708764
0.00708764
0.00691787
0.00691787
0.00708764
0.00691787
0.00691787
0.00710152
0.00690405
0.00708764
0.00691787
0.00691787
0.00690405
0.00687516
0.00667769
0.00686128
0.00686128
0.00669152
0.00669152
0.00687516
0.00667769
0.00686128
0.00686128
0.00669152
0.00669152
0.00686129
0.00669152
0.00669152
0.00687516
0.00667769
0.00686128
0.00669152
0.00669152
0.00667769
0.00664881
0.00645134
0.00663493
0.00663493
0.00646516
0.00646516
0.00664881
0.00645134
0.00663493
0.00663493
0.00646516
0.00646516
0.00663493
0.00646516
0.00646516
0.00664881
0.00645134
0.00663493
0.00646516
0.00646516
0.00645134
0.00642245
0.00622498
0.00640857
0.00640857
0.00623881
0.00623881
0.00642245
0.00622498
0.00640857
0.00640857
0.00623881
0.00623881
0.00640857
0.00623881
0.00623881
0.00642245
0.00622498
0.00640857
0.00623881
0.00623881
0.00622498
0.0061961
0.00599863
0.00618222
0.00618222
0.00601245
0.00601245
0.0061961
0.00599863
0.00618222
0.00618222
0.00601245
0.00601245
0.00618222
0.00601245
0.00601245
0.0061961
0.00599863
0.00618222
0.00601245
0.00601245
0.00599863
0.00596974
0.00577227
0.00595586
0.00595586
0.0057861
0.0057861
0.00596974
0.00577227
0.00595586
0.00595586
0.0057861
0.0057861
0.00595586
0.0057861
0.0057861
0.00596974
0.00577227
0.00595586
0.0057861
0.0057861
0.00577227
0.00574339
0.00554592
0.00572951
0.00572951
0.00555974
0.00555974
0.00574339
0.00554592
0.00572951
0.00572951
0.00555974
0.00555974
0.00572951
0.00555974
0.00555974
0.00574339
0.00554592
0.00572951
0.00555974
0.00555974
0.00554592
0.00551703
0.00531956
0.00550315
0.00550315
0.00533339
0.00533339
0.00551703
0.00531956
0.00550315
0.00550315
0.00533339
0.00533339
0.00550315
0.00533339
0.00533339
0.00551703
0.00531956
0.00550315
0.00533339
0.00533339
0.00531956
0.00529068
0.00509321
0.0052768
0.0052768
0.00510703
0.00510703
0.00529068
0.00509321
0.0052768
0.0052768
0.00510703
0.00510703
0.0052768
0.00510703
0.00510703
0.00529068
0.00509321
0.0052768
0.00510703
0.00510703
0.00509321
0.00506432
0.00486685
0.00505044
0.00505044
0.00488068
0.00488068
0.00506432
0.00486685
0.00505044
0.00505044
0.00488068
0.00488068
0.00505044
0.00488068
0.00488068
0.00506432
0.00486685
0.00505044
0.00488068
0.00488068
0.00486685
0.00483797
0.0046405
0.00482409
0.00482409
0.00465432
0.00465432
0.00483797
0.0046405
0.00482409
0.00482409
0.00465432
0.00465432
0.00482409
0.00465432
0.00465432
0.00483797
0.0046405
0.00482409
0.00465432
0.00465432
0.0046405
0.00461161
0.00441414
0.00459773
0.00459773
0.00442797
0.00442797
0.00461161
0.00441414
0.00459773
0.00459773
0.00442797
0.00442797
0.00459774
0.00442797
0.00442797
0.00461161
0.00441414
0.00459773
0.00442797
0.00442797
0.00441414
0.00438526
0.00418779
0.00437138
0.00437138
0.00420161
0.00420161
0.00438526
0.00418779
0.00437138
0.00437138
0.00420161
0.00420161
0.00437138
0.00420161
0.00420161
0.00438526
0.00418779
0.00437138
0.00420161
0.00420161
0.00418779
0.0041589
0.00396143
0.00414502
0.00414502
0.00397526
0.00397526
0.0041589
0.00396143
0.00414502
0.00414502
0.00397526
0.00397526
0.00414503
0.00397526
0.00397526
0.0041589
0.00396143
0.00414502
0.00397526
0.00397526
0.00396143
0.00393255
0.00373508
0.00391867
0.00391867
0.0037489
0.0037489
0.00393255
0.00373508
0.00391867
0.00391867
0.0037489
0.0037489
0.00391867
0.0037489
0.0037489
0.00393255
0.00373508
0.00391867
0.0037489
0.0037489
0.00373508
0.00370619
0.00350872
0.00369232
0.00369231
0.00352255
0.00352255
0.00370619
0.00350872
0.00369232
0.00369232
0.00352255
0.00352255
0.00369232
0.00352255
0.00352255
0.00370619
0.00350872
0.00369231
0.00352255
0.00352255
0.00350872
0.00347984
0.00328237
0.00346596
0.00346596
0.00329619
0.00329619
0.00347984
0.00328237
0.00346596
0.00346596
0.00329619
0.00329619
0.00346596
0.00329619
0.0032962
0.00347984
0.00328237
0.00346596
0.0032962
0.00329619
0.00328237
0.00325348
0.00305601
0.00323961
0.00323961
0.00306984
0.00306984
0.00325348
0.00305601
0.00323961
0.00323961
0.00306984
0.00306984
0.00323961
0.00306984
0.00306984
0.00325348
0.00305602
0.00323961
0.00306984
0.00306984
0.00305601
0.00302713
0.00282966
0.00301325
0.00301325
0.00284349
0.00284348
0.00302713
0.00282966
0.00301325
0.00301325
0.00284348
0.00284349
0.00301325
0.00284348
0.00284349
0.00302713
0.00282966
0.00301325
0.00284349
0.00284348
0.00282966
0.00280077
0.00260331
0.0027869
0.0027869
0.00261713
0.00261713
0.00280077
0.0026033
0.0027869
0.0027869
0.00261713
0.00261713
0.0027869
0.00261713
0.00261713
0.00280077
0.00260331
0.0027869
0.00261713
0.00261713
0.00260331
0.00257442
0.00237695
0.00256054
0.00256054
0.00239078
0.00239077
0.00257442
0.00237695
0.00256054
0.00256054
0.00239078
0.00239078
0.00256054
0.00239078
0.00239078
0.00257442
0.00237695
0.00256054
0.00239078
0.00239077
0.00237695
0.00234806
0.0021506
0.00233419
0.00233419
0.00216442
0.00216442
0.00234806
0.0021506
0.00233419
0.00233419
0.00216442
0.00216442
0.00233419
0.00216442
0.00216442
0.00234806
0.0021506
0.00233419
0.00216442
0.00216442
0.0021506
0.00212171
0.00192424
0.00210783
0.00210783
0.00193807
0.00193807
0.00212171
0.00192424
0.00210783
0.00210783
0.00193807
0.00193807
0.00210783
0.00193807
0.00193807
0.00212171
0.00192424
0.00210783
0.00193807
0.00193807
0.00192424
0.00189535
0.00169789
0.00188148
0.00188148
0.00171171
0.00171171
0.00189535
0.00169789
0.00188148
0.00188148
0.00171171
0.00171171
0.00188148
0.00171171
0.00171171
0.00189535
0.00169789
0.00188148
0.00171171
0.00171171
0.00169789
0.001669
0.00147153
0.00165512
0.00165512
0.00148536
0.00148536
0.001669
0.00147153
0.00165512
0.00165512
0.00148536
0.00148536
0.00165512
0.00148536
0.00148536
0.001669
0.00147153
0.00165512
0.00148536
0.00148536
0.00147153
0.00144265
0.00124518
0.00142877
0.00142877
0.001259
0.001259
0.00144265
0.00124518
0.00142877
0.00142877
0.001259
0.001259
0.00142877
0.001259
0.001259
0.00144265
0.00124518
0.00142877
0.001259
0.001259
0.00124518
0.00121629
0.00101882
0.00120241
0.00120241
0.00103265
0.00103265
0.00121629
0.00101882
0.00120241
0.00120241
0.00103265
0.00103265
0.00120242
0.00103265
0.00103265
0.00121629
0.00101882
0.00120241
0.00103265
0.00103265
0.00101882
0.000989937
0.000792469
0.00097606
0.00097606
0.000806295
0.000806294
0.000989937
0.000792469
0.00097606
0.00097606
0.000806295
0.000806294
0.000976061
0.000806295
0.000806295
0.000989937
0.000792469
0.00097606
0.000806295
0.000806295
0.00079247
0.000763583
0.000566114
0.000749706
0.000749706
0.000579942
0.000579945
0.000763583
0.000566115
0.000749706
0.000749706
0.000579942
0.000579942
0.000749707
0.000579945
0.000579943
0.000763582
0.000566114
0.000749706
0.000579942
0.000579943
0.000566115
0.000537229
0.000339808
0.000523357
0.00052336
0.000353673
0.000353679
0.00053723
0.000339816
0.000523358
0.000523358
0.000353673
0.000353669
0.000523359
0.000353679
0.000353672
0.000537227
0.000339805
0.000523359
0.00035367
0.000353674
0.000339808
0.000310933
0.000117639
0.000297202
0.000297209
0.00013154
0.000131555
0.000310941
0.00011765
0.000297202
0.000297194
0.000131544
0.000131532
0.000297199
0.000131547
0.000131532
0.000310927
0.000117629
0.0002972
0.00013153
0.000131544
0.000117636
9.36138e-05
9.37174e-05
9.37255e-05
9.36231e-05
9.37186e-05
9.37076e-05
8.75621e-05
8.75516e-05
8.7555e-05
9.37122e-05
9.36036e-05
9.37178e-05
0.0214237
0.0214596
0.0214402
0.0214402
0.0215157
0.0214735
0.0215795
0.0214519
0.0215157
0.0214735
0.0214519
0.0215795
0.0214889
0.0215964
0.0215964
0.0212809
0.0214027
0.0213893
0.0212829
0.0212735
0.0212777
0.0212809
0.0214028
0.0213892
0.0212829
0.0213452
0.0213453
0.0213453
0.0211781
0.0211781
0.0211781
0.0211781
0.0212779
0.021382
0.0213482
0.0212911
0.0213603
0.021281
0.021291
0.0212738
0.0212779
0.0212779
0.0213482
0.021382
0.0212911
0.0213605
0.021291
0.0212811
0.0213834
0.0213833
0.0212775
0.0212799
0.0212799
0.0210511
0.0211362
0.0211362
0.0210511
0.0211361
0.0210512
0.0210511
0.0211362
0.0211362
0.0210511
0.0211216
0.0211216
0.0211216
0.020952
0.020952
0.020952
0.020952
0.0210516
0.0211357
0.0211217
0.0210651
0.0211355
0.0210516
0.0210651
0.0211361
0.0210512
0.0210516
0.0211217
0.0211357
0.0210652
0.0211356
0.0210651
0.0210516
0.0211361
0.0211361
0.0210513
0.0210512
0.0210512
0.0208247
0.0209095
0.0209095
0.0208247
0.0209095
0.0208247
0.0208247
0.0209095
0.0209095
0.0208247
0.0208954
0.0208954
0.0208954
0.0207257
0.0207257
0.0207257
0.0207257
0.0208252
0.020909
0.0208954
0.0208388
0.020909
0.0208252
0.0208388
0.0209095
0.0208247
0.0208252
0.0208954
0.020909
0.0208388
0.020909
0.0208388
0.0208252
0.0209095
0.0209095
0.0208249
0.0208247
0.0208247
0.0205983
0.0206832
0.0206832
0.0205983
0.0206831
0.0205984
0.0205983
0.0206832
0.0206832
0.0205983
0.0206691
0.0206691
0.0206691
0.0204993
0.0204993
0.0204993
0.0204993
0.0205989
0.0206827
0.020669
0.0206124
0.0206826
0.0205988
0.0206124
0.0206831
0.0205984
0.0205989
0.020669
0.0206827
0.0206124
0.0206826
0.0206124
0.0205988
0.0206831
0.0206831
0.0205986
0.0205984
0.0205984
0.020372
0.0204568
0.0204568
0.020372
0.0204568
0.020372
0.020372
0.0204568
0.0204568
0.020372
0.0204427
0.0204427
0.0204427
0.0202729
0.0202729
0.0202729
0.0202729
0.0203725
0.0204563
0.0204427
0.0203861
0.0204563
0.0203725
0.0203861
0.0204568
0.020372
0.0203725
0.0204427
0.0204563
0.0203861
0.0204563
0.0203861
0.0203725
0.0204568
0.0204568
0.0203722
0.020372
0.020372
0.0201456
0.0202304
0.0202305
0.0201456
0.0202304
0.0201456
0.0201456
0.0202304
0.0202305
0.0201456
0.0202164
0.0202164
0.0202164
0.0200466
0.0200466
0.0200466
0.0200466
0.0201462
0.0202299
0.0202163
0.0201597
0.0202299
0.0201461
0.0201597
0.0202304
0.0201456
0.0201462
0.0202163
0.0202299
0.0201597
0.0202299
0.0201597
0.0201461
0.0202304
0.0202304
0.0201459
0.0201456
0.0201457
0.0199193
0.0200041
0.0200041
0.0199193
0.0200041
0.0199193
0.0199193
0.0200041
0.0200041
0.0199193
0.01999
0.01999
0.01999
0.0198202
0.0198202
0.0198202
0.0198202
0.0199198
0.0200036
0.01999
0.0199333
0.0200036
0.0199198
0.0199334
0.0200041
0.0199193
0.0199198
0.01999
0.0200036
0.0199333
0.0200036
0.0199334
0.0199198
0.0200041
0.0200041
0.0199195
0.0199193
0.0199193
0.0196929
0.0197777
0.0197777
0.0196929
0.0197777
0.0196929
0.0196929
0.0197777
0.0197777
0.0196929
0.0197636
0.0197636
0.0197636
0.0195939
0.0195939
0.0195939
0.0195939
0.0196934
0.0197772
0.0197636
0.019707
0.0197772
0.0196934
0.019707
0.0197777
0.0196929
0.0196934
0.0197636
0.0197772
0.019707
0.0197772
0.019707
0.0196934
0.0197777
0.0197777
0.0196932
0.0196929
0.0196929
0.0194665
0.0195514
0.0195514
0.0194665
0.0195514
0.0194666
0.0194665
0.0195514
0.0195514
0.0194665
0.0195373
0.0195373
0.0195373
0.0193675
0.0193675
0.0193675
0.0193675
0.0194671
0.0195509
0.0195372
0.0194806
0.0195509
0.019467
0.0194806
0.0195514
0.0194666
0.0194671
0.0195372
0.0195509
0.0194806
0.0195509
0.0194806
0.019467
0.0195513
0.0195514
0.0194668
0.0194666
0.0194666
0.0192402
0.019325
0.019325
0.0192402
0.019325
0.0192402
0.0192402
0.019325
0.019325
0.0192402
0.0193109
0.0193109
0.0193109
0.0191412
0.0191412
0.0191412
0.0191412
0.0192407
0.0193245
0.0193109
0.0192543
0.0193245
0.0192407
0.0192543
0.019325
0.0192402
0.0192407
0.0193109
0.0193245
0.0192543
0.0193245
0.0192543
0.0192407
0.019325
0.019325
0.0192404
0.0192402
0.0192402
0.0190138
0.0190987
0.0190987
0.0190138
0.0190986
0.0190139
0.0190138
0.0190987
0.0190987
0.0190138
0.0190846
0.0190846
0.0190846
0.0189148
0.0189148
0.0189148
0.0189148
0.0190144
0.0190982
0.0190845
0.0190279
0.0190981
0.0190143
0.0190279
0.0190986
0.0190139
0.0190144
0.0190845
0.0190982
0.0190279
0.0190981
0.0190279
0.0190143
0.0190986
0.0190986
0.0190141
0.0190139
0.0190139
0.0187875
0.0188723
0.0188723
0.0187875
0.0188723
0.0187875
0.0187875
0.0188723
0.0188723
0.0187875
0.0188582
0.0188582
0.0188582