/*--------------------------------*- C++ -*----------------------------------*\
| =========                 |                                                 |
| \\      /  F ield         | OpenFOAM: The Open Source CFD Toolbox           |
|  \\    /   O peration     | Version:  v1906                                 |
|   \\  /    A nd           | Web:      www.OpenFOAM.com                      |
|    \\/     M anipulation  |                                                 |
\*---------------------------------------------------------------------------*/
FoamFile
{
    version     2.0;
    format      ascii;
    class       surfaceScalarField;
    location    "850";
    object      phi;
}
// * * * * * * * * * * * * * * * * * * * * * * * * * * * * * * * * * * * * * //

dimensions      [0 3 -1 0 0 0 0];
oriented        oriented;


internalField   nonuniform List<scalar> 
124860
(
-1.25617e-06
-1.24619e-06
-0.000269536
2.6502e-07
1.99802e-07
1.7996e-07
8.47015e-08
-1.29975e-06
2.49262e-07
-2.95149e-07
-9.36981e-07
2.05021e-07
-2.93497e-07
8.77813e-07
-0.00113979
1.26968e-06
2.19385e-07
-0.00114024
7.81499e-08
-1.29994e-06
2.65817e-07
-2.89863e-07
-9.34706e-07
2.3532e-07
-2.83002e-07
8.85866e-07
-1.22998e-06
-0.000269556
2.3115e-07
2.36144e-07
2.3006e-07
1.10327e-07
-1.24951e-06
2.77004e-07
-2.75914e-07
-9.24001e-07
2.65529e-07
-2.66796e-07
8.8849e-07
-0.00114088
1.26412e-06
2.24835e-07
7.3112e-08
-1.29456e-06
2.65789e-07
-2.89939e-07
-9.31875e-07
2.35349e-07
-2.82827e-07
8.83071e-07
-0.00113989
2.19209e-07
-0.00114063
7.77234e-08
-1.2602e-06
2.57592e-07
-2.81461e-07
-9.29074e-07
2.3264e-07
-2.80113e-07
8.80452e-07
1.25873e-06
2.2453e-07
-0.00113968
7.83439e-08
-1.28903e-06
2.60164e-07
-2.8426e-07
-9.31764e-07
2.32632e-07
-2.82741e-07
8.83068e-07
-1.22448e-06
-0.000269514
2.31073e-07
2.36075e-07
2.19354e-07
8.87623e-08
-1.25471e-06
2.57622e-07
-2.81459e-07
-9.28925e-07
2.35412e-07
-2.82822e-07
8.8027e-07
-0.00114027
1.22198e-06
2.19179e-07
-0.0011408
8.30659e-08
-1.25748e-06
2.57758e-07
-2.84262e-07
-9.29131e-07
2.35446e-07
-2.82837e-07
8.80496e-07
-0.00026953
2.31022e-07
2.36281e-07
1.8894e-07
2.18539e-07
-0.00119084
-0.00119085
1.88905e-07
1.89307e-07
1.83018e-07
2.12747e-07
-0.00119045
-0.00119065
1.88742e-07
2.00694e-07
-2.15182e-08
-5.78454e-09
-9.70804e-05
-2.37771e-08
-5.87173e-09
-9.70822e-05
-1.76213e-08
-9.37011e-09
-0.000276411
8.23404e-09
-2.21165e-08
-7.17235e-08
-0.000276391
1.12854e-08
1.65145e-10
6.17532e-08
-2.5971e-08
3.0412e-10
0.000228352
-0.000228389
-3.51229e-08
-0.000192043
3.93872e-09
-1.00413e-10
-5.42555e-08
-0.00022834
2.82264e-08
2.50803e-09
6.1785e-08
-2.59914e-08
4.9733e-10
0.000228389
-0.000228425
-3.51919e-08
5.73475e-09
-0.000192082
1.58033e-09
4.14824e-08
-7.87779e-09
-6.40598e-09
0.000192081
-0.000192108
-5.42782e-08
-0.000228377
2.82381e-08
2.5665e-09
1.54725e-09
-1.75457e-09
2.00264e-07
0.000250187
-0.000250325
-7.46104e-08
-0.000244407
-1.13523e-08
-0.00116202
-3.10946e-09
3.30056e-07
-1.04013e-06
7.83559e-07
-8.64549e-07
9.6205e-07
4.22726e-09
3.42766e-07
9.61128e-07
-8.63803e-07
-1.0393e-06
7.82554e-07
-0.00116212
-8.16097e-08
-1.36252e-09
-0.00025016
1.70964e-09
-1.59471e-07
-1.96149e-09
2.00321e-07
0.000250218
-0.000250354
8.10782e-08
-1.30139e-06
2.25418e-07
8.85287e-07
-2.84466e-07
-9.36366e-07
2.34537e-07
1.26929e-06
-2.90999e-07
2.6537e-07
-0.00114038
1.97761e-08
-8.68346e-08
-0.000244423
-1.37248e-08
-0.00116218
3.36019e-07
-1.03772e-06
7.83616e-07
-8.61968e-07
9.6488e-07
-2.21823e-08
1.27928e-08
1.08253e-07
0.000244435
-0.000244492
3.42856e-07
9.64068e-07
-8.63936e-07
-1.03952e-06
7.82634e-07
-0.00116228
-0.000250191
2.47956e-09
-1.6209e-07
-2.15548e-08
-9.7085e-05
1.63752e-08
9.70819e-05
-9.71061e-05
1.26163e-06
0.000269593
-2.43653e-07
-2.48638e-07
-0.000271664
-4.16019e-08
-0.000276367
1.09113e-08
2.37474e-08
-1.74066e-08
-4.14499e-08
-0.000276472
1.10657e-08
-1.51853e-08
4.20402e-08
0.00027637
-0.000276403
-1.86178e-08
1.96769e-08
-1.51305e-08
4.18761e-08
0.000276475
-0.000276503
-5.7736e-09
-9.70876e-05
7.87357e-09
9.70844e-05
-9.71109e-05
-3.74164e-08
-0.000192069
1.64157e-09
-5.4305e-08
-2.75239e-10
-0.000228368
2.55624e-09
2.61663e-08
-9.67209e-08
-0.000244432
-1.61687e-08
4.08579e-10
3.35622e-07
-1.03221e-06
7.80777e-07
-8.56374e-07
9.61965e-07
-0.00116191
-1.81445e-09
-0.000250174
2.04489e-09
-1.64641e-07
-3.73812e-08
5.7614e-09
-0.000192015
1.70389e-09
-5.42997e-08
-0.00022833
2.61519e-08
2.33211e-09
3.41692e-07
-1.03478e-06
7.80846e-07
-8.56348e-07
9.62043e-07
-0.00116188
1.9738e-08
-8.20222e-08
-0.000244359
-1.60284e-08
-0.00025015
-1.62058e-07
2.06374e-09
-6.18279e-08
1.55323e-09
-1.38597e-09
1.97753e-07
0.000250214
-0.00025035
8.05531e-08
2.30907e-07
1.2296e-06
-2.82583e-07
2.57127e-07
8.79814e-07
-2.81579e-07
-9.3074e-07
2.3185e-07
-0.00114078
3.73525e-08
-8.68e-08
-0.000244466
-1.37311e-08
-0.00116195
-3.89509e-09
3.35691e-07
-1.03475e-06
7.80754e-07
-8.59194e-07
9.61989e-07
-4.3533e-08
1.27332e-08
1.08042e-07
0.000244477
-0.000244535
3.57481e-09
3.48438e-07
9.61008e-07
-8.61173e-07
-1.03674e-06
7.79754e-07
-0.00116207
5.42287e-08
-1.68022e-09
-0.000250187
1.44722e-09
-1.62013e-07
9.05392e-11
5.46019e-10
-2.60087e-08
0.000228386
-0.000228422
-0.000192078
1.66962e-09
-6.426e-09
0.000192077
-0.000192107
-1.91774e-10
-0.000228373
2.30618e-09
2.82138e-08
-6.17897e-08
1.95141e-07
-2.31744e-09
0.00025019
-0.00025032
8.11908e-08
-1.29042e-06
2.30512e-07
8.82474e-07
-2.84219e-07
-9.33425e-07
2.34543e-07
1.25833e-06
-2.854e-07
2.5974e-07
-0.00113984
-0.00116188
3.35598e-07
-1.03471e-06
7.80791e-07
-8.59185e-07
9.62065e-07
3.52016e-08
1.97962e-08
-8.44645e-08
-0.000244403
-1.37444e-08
3.48301e-07
9.61207e-07
-8.61171e-07
-1.03656e-06
7.7977e-07
-0.00116199
-4.13232e-08
-2.22581e-08
1.29484e-08
1.05646e-07
0.000244414
-0.000244469
5.42036e-08
-0.000250162
-1.59407e-07
2.10832e-09
-2.59755e-08
1.45359e-10
0.00022835
-0.000228386
5.70637e-09
-0.000192027
1.6661e-09
-7.94194e-09
-6.24731e-09
0.000192027
-0.000192054
-0.000228338
2.82053e-08
2.47879e-09
-2.37868e-08
-9.70665e-05
-4.1498e-08
-0.000276335
8.00514e-09
2.15506e-08
-1.98108e-08
-4.38896e-08
-0.00027643
1.04486e-08
-5.69728e-09
-9.70765e-05
1.23201e-09
-6.43543e-08
2.00327e-07
-1.77607e-09
0.000250176
-0.000250311
-0.00116161
-9.52485e-09
3.35468e-07
-1.03192e-06
7.75149e-07
-8.56305e-07
9.5626e-07
3.52364e-08
-8.69166e-08
-0.000244409
-1.36987e-08
-1.1039e-08
3.42381e-07
9.58123e-07
-8.55587e-07
-1.03103e-06
7.76866e-07
-0.0011617
-9.16063e-08
-1.40384e-09
5.66812e-08
-0.000250148
-1.64532e-07
1.9613e-09
-6.43543e-08
2.00371e-07
-2.8856e-09
0.000250208
-0.00025034
8.03229e-08
-1.25616e-06
2.25232e-07
8.79865e-07
-2.84316e-07
-9.30789e-07
2.34642e-07
1.22431e-06
-2.82649e-07
2.57311e-07
-0.00114095
-0.00116177
3.35382e-07
-1.02928e-06
7.7525e-07
-8.53738e-07
9.56475e-07
3.51984e-08
1.99236e-08
-8.68976e-08
-0.000244417
-1.38116e-08
3.42262e-07
9.55489e-07
-8.55718e-07
-1.03119e-06
7.74267e-07
-0.00116188
-4.13798e-08
-2.22732e-08
1.29033e-08
1.08127e-07
0.000244429
-0.000244486
5.66617e-08
-0.00025018
-1.64544e-07
2.6174e-09
2.09441e-10
1.6042e-10
-2.39821e-08
0.00022834
-0.000228381
-0.000192031
1.72585e-09
-1.75024e-10
-0.000228328
2.49963e-09
2.61585e-08
3.88858e-10
-2.3992e-08
0.000228377
-0.000228417
5.81808e-09
-0.000192068
1.51384e-09
-7.98798e-09
-6.19736e-09
0.000192067
-0.000192094
-0.000228364
2.39894e-09
2.61431e-08
0.00026957
-2.43353e-07
-2.48781e-07
-0.000271625
2.15619e-08
-4.3868e-08
-0.000276424
7.86089e-09
2.14633e-08
-4.15522e-08
-0.000276372
8.50097e-09
-1.62795e-08
-1.21574e-08
4.41752e-08
0.000276428
-0.000276466
-1.62709e-08
-1.26407e-08
4.19142e-08
0.000276375
-0.000276411
-9.70759e-05
9.70727e-05
-9.7097e-05
-9.70803e-05
9.70771e-05
-9.71014e-05
1.84403e-08
7.96484e-09
-9.71068e-05
1.6122e-08
7.95282e-09
-9.71062e-05
-3.01272e-08
4.78476e-08
0.000220929
-3.06976e-08
6.18992e-08
-0.000220978
-0.000250162
-1.81869e-08
4.16479e-08
-2.47864e-08
-1.68214e-08
4.83679e-08
2.43223e-08
-0.000276449
-0.000181688
-1.05954e-08
9.36647e-09
-1.48163e-08
-0.00018172
1.21099e-07
6.14963e-08
-0.000250248
-3.64735e-08
-9.68698e-09
-2.11585e-08
2.09512e-08
0.000220896
-1.43485e-08
3.86646e-08
-0.00022092
-0.000250109
7.14146e-08
-2.23366e-07
-4.76911e-08
-1.08106e-08
3.22115e-08
1.97278e-08
-0.000276416
-0.000181656
-4.89565e-08
1.73547e-08
-1.30812e-08
-0.000181675
6.33449e-08
4.84815e-08
-0.000250167
8.14408e-08
-1.04265e-07
-1.07715e-08
-1.0693e-08
0.000212361
-0.000212385
-7.98913e-05
-1.41371e-08
-7.98814e-05
-1.09043e-08
-7.99168e-05
-7.99052e-05
-0.00014209
-8.34738e-10
-2.66948e-08
0.000142115
2.18727e-09
1.43816e-09
0.00016966
-7.24322e-12
-0.000169687
-2.68904e-08
0.000222144
6.15933e-08
-0.000222178
-3.57853e-10
2.81077e-08
2.52176e-09
0.000228376
7.08916e-11
-5.38973e-08
-0.000142114
-1.01234e-09
0.000169687
1.02138e-11
0.000222169
-5.38073e-08
4.59173e-09
2.60061e-08
7.8479e-05
1.02652e-09
-7.8506e-05
-6.14048e-09
4.31009e-08
-0.000192072
-0.000261306
2.70025e-08
-4.59671e-09
-5.30913e-08
4.16191e-10
5.41698e-08
-0.000261341
-2.15202e-09
-1.42276e-09
2.66493e-08
0.000142091
-2.56916e-08
4.6096e-11
2.06947e-11
6.11111e-08
-0.00016966
8.01304e-10
-6.35353e-12
-0.000222133
2.68056e-08
-5.65639e-08
-1.65837e-11
6.34075e-08
-0.00014216
-8.33047e-10
-2.47483e-08
1.98585e-09
0.000142184
1.38812e-09
0.000169694
-0.000169721
-2.48901e-08
0.000222228
-3.69891e-10
6.41473e-08
-0.000222267
2.81175e-08
2.57508e-09
0.000228412
-5.39101e-08
-8.17868e-10
-0.000142183
0.000169721
4.61134e-09
0.000222258
-5.63908e-08
2.38886e-08
7.85236e-05
-7.85483e-05
8.40619e-10
-6.25834e-09
-0.000192109
-7.91875e-09
4.10601e-08
-0.000261418
2.49185e-08
-4.58755e-09
-5.30902e-08
-0.000261455
3.89953e-10
5.43327e-08
-1.94492e-09
-7.85215e-05
-2.48557e-08
-2.40682e-08
0.000261421
5.47914e-08
-0.000261459
1.45714e-09
5.79231e-09
-3.4974e-08
-7.85464e-05
-5.28847e-08
-1.36478e-09
2.4647e-08
0.000142161
-2.572e-08
2.6007e-10
6.11443e-08
-0.000169694
8.08377e-10
-0.00022222
2.48321e-08
-5.66827e-08
6.3562e-08
-9.71091e-05
1.61728e-08
-2.14682e-08
-0.00021237
1.25237e-08
1.2438e-08
-2.33996e-08
-2.13694e-08
0.00021239
1.08193e-08
7.98812e-05
1.31941e-08
-7.99052e-05
1.08807e-08
7.98947e-05
1.3129e-08
-7.99187e-05
2.28848e-08
2.06835e-08
-0.000212392
-1.24751e-08
7.99062e-05
-1.25535e-08
7.99197e-05
3.56334e-08
-2.55474e-08
0.000220882
-0.000220921
-2.26029e-08
5.15886e-08
-0.000250078
2.78809e-08
-9.10373e-08
-3.74497e-08
4.15099e-08
-1.51873e-08
-0.000276399
2.20442e-08
-0.00018165
-2.96805e-08
1.24404e-08
-0.000250153
9.59564e-08
5.63041e-08
-0.000181678
-1.31455e-08
2.35357e-08
-5.68469e-08
-2.55393e-08
3.55044e-08
0.000220954
-0.000220997
-2.0398e-08
5.37476e-08
-0.000250231
2.79877e-08
-9.0946e-08
-3.24645e-08
-1.5125e-08
4.13548e-08
-0.000276499
-1.84088e-08
1.95291e-08
-0.000181702
-2.96237e-08
1.25342e-08
-0.00018173
-1.30731e-08
-0.000250301
9.58858e-08
5.10939e-08
2.15266e-08
-5.89037e-08
-2.76347e-08
-0.00022089
2.95112e-08
-5.6585e-08
2.58976e-08
0.00018165
-0.000181678
0.000250094
-3.60066e-08
5.67706e-08
9.68215e-08
-0.00025017
-4.13225e-08
1.09786e-08
-1.97801e-08
-3.71241e-08
-9.05871e-08
5.22164e-08
-0.000220929
-0.000220961
2.9449e-08
-2.77103e-08
-5.86366e-08
2.5899e-08
0.000181702
-0.00018173
-3.58919e-08
0.000250248
9.674e-08
5.15652e-08
-0.000250318
1.11206e-08
-4.11666e-08
2.36549e-08
-1.739e-08
5.43774e-08
-0.000221005
-9.04806e-08
-3.21201e-08
-1.07029e-08
-1.07714e-08
0.000212368
-7.98824e-05
-1.25783e-08
-7.98959e-05
-1.24789e-08
-9.71139e-05
7.89818e-09
-5.82869e-09
2.37968e-08
7.85245e-05
8.84236e-10
-7.85492e-05
-6.1865e-09
4.09701e-08
-0.000192096
-0.000261423
2.49273e-08
-4.52195e-09
-5.07404e-08
3.52167e-10
5.19528e-08
-0.000261457
-1.91549e-09
2.46728e-08
-1.37174e-09
0.00014216
-0.000142182
3.27541e-10
-2.36813e-08
7.78456e-12
6.12059e-08
-0.000228406
-0.00022222
2.48279e-08
-5.42539e-08
-0.000169692
7.98757e-10
-6.58847e-11
6.12128e-08
-0.000222255
2.48523e-11
-0.000169717
2.60163e-08
7.84771e-05
1.02308e-09
-7.85041e-05
-6.17551e-09
-7.97684e-09
4.31043e-08
-0.000192044
-0.000261301
2.71284e-08
-4.3816e-09
-5.06193e-08
3.32424e-10
5.1846e-08
-0.000261333
-2.04714e-09
-1.43786e-09
2.66463e-08
0.000142087
-0.000142111
-2.36503e-08
3.44707e-10
6.11692e-08
-0.000228368
-0.000169657
6.75226e-10
-0.000222125
2.68372e-08
-5.41759e-08
-0.000169682
6.10258e-08
-0.000222159
-0.000142161
-2.47342e-08
-8.079e-10
1.94323e-09
0.000142184
-2.49186e-08
0.000222232
-3.60568e-10
6.42205e-08
-0.000222271
1.41822e-09
0.00016969
-3.90916e-11
-0.000169718
2.54453e-09
2.80915e-08
0.000228409
-4.58196e-11
-5.3864e-08
-8.24961e-10
-0.000142183
4.54813e-09
0.000222262
-5.63497e-08
0.000169717
-1.12505e-11
2.3874e-08
7.85264e-05
-7.85511e-05
8.48463e-10
-6.28623e-09
-0.000192107
4.3096e-08
-0.000261434
2.49626e-08
-4.52535e-09
-5.31264e-08
-0.000261471
3.67524e-10
5.42942e-08
-1.90866e-09
-7.85243e-05
-2.48995e-08
-2.40601e-08
0.000261437
5.47788e-08
-0.000261475
1.54781e-09
-3.71213e-08
-7.85491e-05
-5.29063e-08
2.46634e-08
-1.39249e-09
0.000142162
3.02106e-10
-2.57258e-08
-5.32031e-11
6.11691e-08
-0.000222224
2.48658e-08
-5.67011e-08
-0.00016969
7.68891e-10
-1.49452e-11
6.35719e-08
-4.61241e-11
-0.00014209
-7.91283e-10
-2.47416e-08
1.93819e-09
0.000142114
1.33054e-09
0.000169656
-0.000169683
-2.48519e-08
0.00022214
-5.04132e-10
6.40602e-08
-0.000222179
2.80859e-08
2.7108e-09
0.000228373
-5.38336e-08
-8.79868e-10
-0.000142113
0.000169683
4.52271e-09
0.00022217
-5.63494e-08
2.37812e-08
7.84826e-05
-7.85073e-05
9.00963e-10
-6.10477e-09
-0.000192054
-7.95397e-09
4.08912e-08
-0.000261311
2.49298e-08
-4.49887e-09
-5.30816e-08
-0.000261348
5.16935e-10
5.42086e-08
-1.90086e-09
-7.84805e-05
-2.48718e-08
-2.3965e-08
0.000261314
5.46711e-08
-0.000261351
1.54786e-09
5.74635e-09
-3.49714e-08
-7.85053e-05
-5.28795e-08
-1.30242e-09
2.45991e-08
0.000142091
-2.57078e-08
-8.79478e-11
6.11488e-08
-0.000169656
7.62136e-10
-0.000222132
2.48361e-08
-5.66631e-08
6.34596e-08
1.8361e-08
-9.70928e-05
3.32292e-08
-2.72246e-08
0.000220864
-2.05682e-08
5.36648e-08
-0.000220904
-0.000250043
2.54482e-08
-9.09832e-08
-3.74037e-08
4.13595e-08
-1.22626e-08
2.20811e-08
-0.000276367
-0.00018164
-3.13665e-08
1.25676e-08
9.58799e-08
5.63348e-08
-0.00025012
-1.32212e-08
-0.000181666
2.15069e-08
-5.89324e-08
-2.75369e-08
3.55034e-08
0.000220941
-2.24356e-08
4.92795e-08
-0.000220975
-0.000250193
2.79016e-08
-8.84584e-08
-3.50074e-08
-1.45985e-08
4.37655e-08
-1.61341e-08
2.20483e-08
-0.000276465
-0.000181699
-3.16146e-08
1.24547e-08
-1.30536e-08
-0.000181728
9.34468e-08
5.36864e-08
-0.000250261
2.34872e-08
-5.43769e-08
-1.06679e-08
-1.07778e-08
0.000212354
-0.000212376
-7.98763e-05
-1.24758e-08
-7.98943e-05
-1.25316e-08
-7.99001e-05
-7.99181e-05
7.94722e-09
-9.71006e-05
-0.00014209
-2.47334e-08
-7.91024e-10
1.93361e-09
0.000142114
-2.49207e-08
0.000222136
6.41888e-08
-0.000222174
-4.62056e-10
1.32521e-09
0.000169657
8.25607e-11
-0.000169683
2.72739e-09
2.603e-08
0.000228368
-2.74144e-11
-5.62981e-08
-0.000142113
-9.11676e-10
4.51147e-09
0.000222168
-5.87314e-08
0.000169682
-2.46832e-11
2.37619e-08
7.84831e-05
-7.85077e-05
9.29658e-10
-6.12057e-09
4.09534e-08
-0.000192058
-0.00026131
2.49252e-08
-4.44666e-09
-5.07361e-08
-0.000261347
5.24358e-10
5.42919e-08
-1.89291e-09
-2.48636e-08
-7.84809e-05
-5.28837e-08
-0.000261313
-1.60664e-09
2.4662e-08
-1.30273e-09
0.000142091
-7.01402e-11
-2.37084e-08
6.06387e-11
6.36946e-08
-0.000222127
2.4823e-08
-5.66197e-08
-0.000169657
7.65694e-10
-4.11161e-11
6.60037e-08
6.9997e-11
-0.000142159
-2.67364e-08
-7.20663e-10
2.09854e-09
0.000142184
-2.69965e-08
0.000222226
-3.61957e-10
6.41363e-08
-0.000222262
1.48454e-09
0.000169691
-0.000169716
2.42506e-09
2.60206e-08
0.000228404
-5.62998e-08
-1.03906e-09
-0.000142183
4.50569e-09
0.000222253
-5.62055e-08
0.000169716
2.60353e-08
7.85231e-05
-7.85502e-05
1.06545e-09
-6.04898e-09
-0.000192095
-8.00525e-09
4.09471e-08
-0.000261421
2.7131e-08
-4.47702e-09
-5.06388e-08
-0.000261453
3.74914e-10
5.18314e-08
-2.05779e-09
-7.8521e-05
-2.70631e-08
-2.62202e-08
0.000261424
5.23025e-08
-0.000261457
1.39155e-09
5.87904e-09
-3.49765e-08
-7.85483e-05
-5.04121e-08
2.67477e-08
-1.4471e-09
0.00014216
3.82112e-10
-2.37232e-08
6.36953e-08
-0.000222217
2.68629e-08
-5.656e-08
-0.000169691
6.82887e-10
6.35156e-08
-0.000212363
1.24859e-08
1.24287e-08
-2.12387e-08
-2.34603e-08
0.000212383
1.07926e-08
7.98919e-05
1.31932e-08
-7.99159e-05
1.08336e-08
7.98807e-05
1.31806e-08
-7.99048e-05
2.07075e-08
2.27648e-08
-0.000212385
-1.24907e-08
7.99169e-05
-1.25733e-08
7.99057e-05
3.31269e-08
-2.72078e-08
0.000220942
-0.000220979
-2.04201e-08
5.13055e-08
-0.000250183
2.53756e-08
-8.60752e-08
-3.4856e-08
4.36715e-08
-1.21405e-08
-0.000276462
-1.60792e-08
2.21059e-08
-0.000181697
-3.13884e-08
1.24697e-08
-0.000250254
9.33629e-08
5.37451e-08
-0.000181723
-1.31405e-08
2.13869e-08
-5.66332e-08
3.30916e-08
-2.5304e-08
0.000220881
-0.000220918
-2.24858e-08
5.16021e-08
-0.000250087
2.55717e-08
-9.09325e-08
-3.50756e-08
4.14032e-08
-1.2637e-08
-0.000276407
-1.60622e-08
2.21292e-08
-0.000181652
-2.94174e-08
1.25469e-08
-0.000250163
9.58236e-08
5.37096e-08
-0.000181677
-1.31353e-08
2.36074e-08
-5.67894e-08
-0.00022095
-2.51175e-08
3.12304e-08
-5.63818e-08
2.75494e-08
0.000181696
-0.000181723
-3.35141e-08
0.0002502
5.42137e-08
9.41961e-08
-0.00025027
-4.3605e-08
7.90496e-09
2.14792e-08
-1.97732e-08
5.19191e-08
-0.000220987
-3.4531e-08
-8.80984e-08
-0.000220889
-2.53082e-08
2.92481e-08
-5.65245e-08
2.56546e-08
0.000181652
-0.000181677
-3.34688e-08
0.000250104
5.41746e-08
9.6645e-08
-0.000250179
-4.12811e-08
8.55122e-09
2.13804e-08
-1.99061e-08
5.22224e-08
-0.000220926
-3.47357e-08
-9.04781e-08
-1.06861e-08
-1.07168e-08
0.000212362
-7.98931e-05
-1.2529e-08
-7.98819e-05
-1.24784e-08
-9.71e-05
-9.71044e-05
1.20136e-07
9.187e-08
0.000242592
-0.000242703
-2.37171e-07
-2.47736e-07
-0.000271601
-0.000261325
2.59665e-08
-0.000261664
1.80702e-07
-0.000261616
-0.000262032
1.09924e-07
1.07173e-07
0.000242605
-0.000242717
-2.42563e-07
-2.47549e-07
-0.000271626
-0.000261694
1.06422e-07
-0.00026134
1.03841e-07
-0.000262021
-0.000261666
1.07484e-07
1.07031e-07
0.000242578
-0.000242689
-2.42492e-07
-2.47619e-07
-0.000271574
-0.000261657
1.03889e-07
-0.0002613
1.03684e-07
-0.000261986
-0.000261629
1.07144e-07
1.07262e-07
0.000242588
-0.000242699
-2.42314e-07
-2.47746e-07
-0.000271586
-0.00026128
1.03637e-07
-0.000261703
1.03989e-07
-0.000261606
-0.000262032
-0.00121473
2.53191e-07
-1.88477e-09
2.59289e-07
4.3926e-09
-0.00121521
2.6201e-07
-1.52978e-09
-0.00121445
-1.98252e-07
0.00123679
-1.8578e-08
-1.34804e-09
-0.00123623
-2.74312e-07
-7.72292e-09
1.12765e-09
1.92249e-07
1.92667e-07
-0.00119078
-0.00121478
2.53309e-07
-0.0012153
2.59201e-07
-5.96779e-10
2.562e-07
-0.0012145
2.62082e-07
6.93002e-10
-0.00121502
0.00123684
2.84365e-10
-0.00123634
2.35577e-10
2.77002e-07
-0.00121436
-0.00121478
2.53021e-07
-2.47432e-08
2.55804e-07
-1.2161e-07
-0.00121427
-3.0475e-07
0.00123611
-1.27537e-07
-0.00123536
-3.69924e-07
-2.57788e-08
1.92111e-07
2.09914e-07
-0.0011906
-0.00121444
2.64793e-07
-0.0012149
2.52975e-07
2.79631e-07
-0.00121418
2.55848e-07
-0.00121472
0.00123622
-0.00123582
-0.000266538
1.79408e-07
4.03073e-10
0.000267317
2.22883e-09
2.12404e-07
0.000249314
-0.000249459
-7.0227e-09
-5.33571e-09
0.000266981
4.99924e-09
-0.000267644
2.65907e-09
-1.61409e-07
0.000250292
3.14849e-11
-0.000267352
-1.86152e-08
0.000249436
6.2572e-09
0.000267604
-1.84112e-09
-3.07419e-08
-1.90719e-07
0.000264512
2.08838e-08
-0.000265249
-0.000260358
-1.07817e-08
1.1213e-07
1.50713e-08
-0.000244466
-0.000250098
-1.65086e-07
-6.31894e-09
-0.000260508
6.92058e-09
-0.000250227
-2.48141e-09
-2.1378e-07
8.51112e-09
0.000266503
-3.36502e-09
1.96372e-07
2.03331e-10
-0.000249289
-1.77472e-07
-0.000266942
-2.8184e-09
-4.73733e-09
2.2779e-09
-0.000266588
1.79537e-07
1.12281e-09
2.23128e-09
0.000267369
2.12472e-07
0.000249379
-6.96069e-09
-0.000249522
-6.02745e-09
0.000267009
-0.000267661
2.66298e-09
-1.61415e-07
0.000250323
-1.85772e-08
-0.000267402
6.2557e-09
0.000249498
0.000267629
-1.8583e-07
-2.83013e-08
0.000264558
-0.000265297
1.83006e-08
-0.000260372
-1.30027e-08
1.26601e-08
1.07354e-07
-0.00024448
-0.000250159
-1.67689e-07
-6.31907e-09
-0.000250285
6.87156e-09
-0.00026052
-2.44467e-09
-0.00026459
1.67292e-07
1.27788e-08
1.86836e-07
0.000250178
-0.000250304
2.86501e-08
0.000260396
-0.000260544
-1.37434e-08
-8.63968e-08
-0.000265329
-2.11307e-07
6.66412e-09
0.000266554
-2.60097e-09
1.96421e-07
-0.000249355
-1.80105e-07
-0.000266972
-1.52218e-09
-1.06091e-07
-0.000242622
-1.03489e-07
2.30716e-07
2.35688e-07
0.000261721
-1.10795e-07
-0.000262048
-1.08042e-07
0.000261367
-0.000261693
-0.000242735
-2.84729e-08
-1.83279e-07
0.000264581
2.84703e-08
-0.000265322
-0.000260401
-1.80408e-08
9.98749e-08
1.27154e-08
-0.000244484
-0.000250167
-1.72726e-07
-6.36658e-09
-0.000260547
6.85511e-09
-0.000250292
-1.01355e-08
-2.11418e-07
9.8919e-09
0.000266548
-0.000267351
-2.98996e-09
1.99023e-07
3.01916e-10
-0.000250309
-0.000249348
-1.82683e-07
-0.000266955
-7.24251e-10
-6.94374e-09
-0.000249494
4.29916e-09
-0.000267607
-1.85679e-07
-3.09273e-08
0.000264492
1.57385e-08
-0.000265223
-0.000260309
-1.55683e-08
1.51486e-08
1.02336e-07
-0.000244411
-0.000250073
-1.67557e-07
-6.16065e-09
6.89383e-09
-0.000250199
-0.000260464
1.85804e-10
6.18622e-09
-2.11233e-07
0.000266485
-0.000267299
1.96403e-07
-2.36587e-09
-0.000250282
-0.00026694
-2.18155e-09
-0.000249267
-1.80026e-07
-0.000267589
-0.000249413
-0.000266591
1.81937e-07
-1.93141e-09
1.24671e-08
0.00026736
2.15103e-07
0.000249386
-9.33755e-09
-0.000249529
-6.43796e-09
0.000266995
6.36851e-09
-0.000267658
3.13661e-09
-1.61339e-07
0.000250319
-3.3224e-10
-2.87817e-08
-0.00026739
8.6157e-09
0.000249506
0.000267615
-3.7e-09
-3.0824e-08
-1.88189e-07
0.000264593
-0.000265332
2.84714e-08
-0.000260435
-1.57243e-08
1.07135e-07
1.25888e-08
-0.000244523
-0.000250187
-1.7015e-07
-8.69375e-09
-0.000260587
-0.000250318
9.20691e-09
-1.27066e-08
-0.000264625
1.54723e-08
1.6971e-07
1.89206e-07
0.000250206
-0.000250337
3.11969e-08
0.000260458
-0.000260612
-8.63548e-08
-1.37044e-08
-0.000265364
-2.13828e-07
9.64233e-09
0.000266558
-3.02091e-09
1.96478e-07
1.80046e-10
-0.000249362
-1.82638e-07
-0.000266958
-1.30448e-09
-6.48257e-09
3.58877e-09
-0.000266529
1.70552e-09
1.7946e-07
-4.02336e-10
0.00026731
-5.86764e-09
0.000266979
-0.000267633
2.12377e-07
0.000249308
-7.06615e-09
-0.000249452
-1.58716e-07
2.53372e-09
0.000250292
-1.60405e-08
-0.000267343
0.000267598
6.18118e-09
0.000249428
-1.85676e-07
-2.83618e-08
0.000264507
-0.00026524
1.57584e-08
-0.000260353
-1.30631e-08
1.27886e-08
1.04745e-07
-0.000244457
-0.000250096
-1.67674e-07
-6.26155e-09
-0.000250221
6.94543e-09
-0.000260506
1.26573e-10
-0.000264538
1.67261e-07
1.27831e-08
1.86695e-07
0.000250114
-0.00025024
2.87256e-08
0.000260377
-0.00026053
-1.37295e-08
-8.40102e-08
-0.000265272
6.23189e-09
-2.1119e-07
0.000266496
1.93848e-07
-2.71216e-09
-0.000266943
-2.08892e-09
-0.000249284
-1.80038e-07
-0.000266528
-1.37716e-09
1.81913e-07
1.49734e-08
0.00026729
-6.24633e-09
0.000266964
2.80719e-09
-0.000267616
2.15022e-07
0.000249304
-0.000249447
-9.43982e-09
-1.61234e-07
3.09759e-09
0.000250278
-1.06987e-11
-0.000267318
-3.13535e-08
0.00026758
-1.12961e-09
8.6106e-09
0.000249422
-3.08442e-08
-1.8822e-07
0.000264521
-0.000265262
3.10585e-08
-0.000260373
-1.56552e-08
1.0722e-07
1.27414e-08
-0.000244466
-0.000250099
-1.70204e-07
-6.26438e-09
-0.000260525
-0.00025023
9.34008e-09
-1.00435e-08
1.69708e-07
-8.79613e-07
-0.000264552
1.5406e-08
-0.000250118
1.37025e-08
9.44065e-09
-2.13823e-07
0.000266494
1.96406e-07
-3.35355e-09
-5.5698e-11
-0.000266928
-1.33949e-09
-4.02619e-09
-0.00024928
-1.82543e-07
7.00121e-10
-0.000266575
-8.74133e-10
1.81837e-07
1.50357e-08
0.000267334
-8.79899e-09
0.000266994
-0.000267638
2.15003e-07
0.000249369
-9.42277e-09
-0.000249513
-1.61271e-07
2.8575e-09
0.00025031
-3.13602e-08
-0.000267368
0.000267605
8.61722e-09
0.000249489
-1.88168e-07
-2.82517e-08
0.000264567
-0.000265311
3.10614e-08
-0.000260389
-1.31172e-08
1.27693e-08
1.0721e-07
-0.000244474
-0.000250155
-1.70126e-07
-8.70674e-09
-0.000250288
9.29502e-09
-0.00026054
-1.52717e-08
-0.000264599
1.6969e-07
1.28641e-08
1.89181e-07
0.000250174
-0.000250307
2.86206e-08
0.000260413
-0.000260564
-1.37856e-08
-8.64466e-08
-0.000265343
8.91161e-09
-2.13797e-07
0.000266541
1.96477e-07
-2.81553e-09
-0.000266957
2.10505e-10
-0.000249345
-1.82513e-07
-0.000242605
-1.03302e-07
-1.03653e-07
2.30566e-07
2.3583e-07
-1.07997e-07
0.000261307
-0.000261634
-1.08107e-07
0.000261733
-0.00026206
-0.000242717
-8.38187e-07
-8.38445e-07
-0.00114599
4.41028e-07
4.46894e-07
0.00114678
-0.00113697
-1.51024e-06
8.38185e-07
4.14313e-07
0.00113746
-5.10011e-07
1.12349e-06
1.40864e-07
7.39657e-07
-5.57161e-07
-1.24461e-06
7.30507e-08
-0.0011366
-1.5048e-06
8.38374e-07
4.14412e-07
0.0011371
-5.07378e-07
1.11783e-06
1.37682e-07
7.39445e-07
-5.5988e-07
-1.24454e-06
7.63789e-08
-0.000276455
1.53933e-06
1.50468e-06
-4.88172e-07
-4.94151e-07
0.000274393
-1.159e-06
-1.11906e-06
0.000276471
-0.000274367
8.35611e-08
9.07961e-08
0.00113613
8.4199e-07
-0.00113563
4.1891e-07
-1.54924e-06
1.44894e-07
-5.18594e-07
-1.25095e-06
6.75584e-08
-5.58166e-07
7.40646e-07
1.16491e-06
0.0011366
8.4233e-07
-0.00113609
4.17773e-07
-1.55482e-06
1.47857e-07
-5.21402e-07
-1.25699e-06
7.41144e-08
-5.64028e-07
7.46161e-07
-1.12192e-06
0.0002765
-0.00027439
8.60737e-08
9.13087e-08
0.00113725
8.4416e-07
-0.00113675
4.17356e-07
-1.50946e-06
1.38995e-07
-5.13178e-07
-1.25404e-06
7.40196e-08
-5.64003e-07
7.40483e-07
1.15657e-06
0.00113625
8.48032e-07
-0.00113575
4.17914e-07
-1.54665e-06
1.44972e-07
-5.1862e-07
-1.25123e-06
7.40942e-08
-5.63727e-07
7.40373e-07
8.48564e-07
-0.00113646
4.16597e-07
-1.51194e-06
1.39215e-07
-5.12894e-07
-1.25105e-06
7.087e-08
7.37834e-07
-5.60912e-07
1.15107e-06
0.00113604
8.47809e-07
-0.00113554
4.18155e-07
-1.54108e-06
1.38884e-07
-5.12956e-07
-1.25105e-06
7.0982e-08
-5.63556e-07
7.40575e-07
-1.11625e-06
0.000276447
-0.000274351
8.59309e-08
9.13076e-08
8.43096e-07
-0.00113611
4.28104e-07
-1.50649e-06
1.36127e-07
-5.10142e-07
-1.24821e-06
7.42707e-08
7.37638e-07
-5.6372e-07
1.1139e-06
0.00113715
8.43126e-07
-0.00113665
4.21914e-07
-1.50911e-06
1.36399e-07
-5.12736e-07
-1.24574e-06
7.09185e-08
-5.61039e-07
7.3519e-07
-0.000274368
8.62114e-08
9.13498e-08
1.54764e-06
1.5077e-06
-4.85879e-07
-4.94127e-07
0.000274396
-1.15454e-06
-1.13861e-06
-0.000274463
1.29262e-07
6.40172e-08
0.000276563
4.15909e-07
0.00113662
-5.1587e-07
1.16053e-06
1.4653e-07
7.42381e-07
-5.54399e-07
-1.24731e-06
6.96511e-08
-1.55315e-06
8.37537e-07
4.15471e-07
0.00113709
-5.18518e-07
1.16646e-06
1.49516e-07
7.48007e-07
-5.60222e-07
-1.25324e-06
7.62054e-08
7.93277e-07
-0.00113758
4.13682e-07
-1.54473e-06
1.35997e-07
-5.16474e-07
-1.24088e-06
4.5493e-08
-5.61437e-07
7.40311e-07
0.00113816
1.17099e-06
8.23238e-07
-0.00113803
4.08157e-07
-1.54769e-06
1.54187e-07
-5.1019e-07
-1.23907e-06
8.25201e-08
-5.48789e-07
7.50847e-07
0.00113849
-4.88866e-07
-4.93605e-07
0.000274419
-1.12806e-06
-0.000274479
9.59726e-08
1.01107e-07
0.000276581
4.19407e-07
0.00113774
-5.10295e-07
1.12073e-06
1.40813e-07
7.4515e-07
-5.60179e-07
-1.24766e-06
7.62466e-08
-1.54497e-06
8.37673e-07
4.15594e-07
0.00113674
-5.15794e-07
1.15816e-06
1.46588e-07
7.42242e-07
-5.59939e-07
-1.2475e-06
7.61615e-08
8.34062e-07
-0.00113867
4.36586e-07
-1.49118e-06
1.59835e-07
-4.9144e-07
-1.22821e-06
1.16523e-07
-5.32891e-07
7.5326e-07
0.00113897
1.16274e-06
8.23397e-07
-0.00113769
4.02947e-07
-1.5395e-06
1.51234e-07
-5.07435e-07
-1.23615e-06
8.24099e-08
-5.48601e-07
7.47882e-07
0.00113815
8.37417e-07
4.15891e-07
0.00113654
-5.10052e-07
1.15263e-06
1.40529e-07
7.42407e-07
-5.5706e-07
7.30999e-08
-1.24735e-06
8.23948e-07
-0.00113841
4.0698e-07
-1.50471e-06
1.45624e-07
-5.01683e-07
-1.23316e-06
7.92886e-08
-5.45721e-07
7.45249e-07
0.00113886
1.15725e-06
8.23074e-07
-0.00113748
4.08506e-07
-1.5338e-06
1.45269e-07
-5.01708e-07
-1.23319e-06
7.93892e-08
-5.45672e-07
7.45213e-07
0.00113794
-4.88806e-07
-4.93794e-07
0.000274379
-1.12242e-06
-0.000274439
9.31686e-08
1.01128e-07
0.00027653
8.38267e-07
4.19584e-07
0.00113764
-5.07082e-07
1.11823e-06
1.3807e-07
7.37083e-07
-5.57227e-07
7.30868e-08
-1.24208e-06
8.23947e-07
-0.00113805
4.07561e-07
-1.49923e-06
1.42493e-07
-4.98891e-07
-1.23315e-06
8.25636e-08
-5.48593e-07
7.44976e-07
0.0011385
1.1228e-06
8.24072e-07
-0.00113859
4.06702e-07
-1.49916e-06
1.42763e-07
-4.98787e-07
-1.23062e-06
7.9433e-08
-5.45853e-07
7.42677e-07
0.00113904
-0.000274453
9.60832e-08
1.01262e-07
0.000276536
-0.00114519
4.4288e-07
4.43289e-07
0.001146
-0.00114519
4.4237e-07
4.42907e-07
0.0011456
-0.00114482
4.42616e-07
4.65622e-07
0.00114581
-0.00114502
4.42615e-07
4.59564e-07
-1.19393e-10
6.2614e-08
0.000235846
-0.000235903
-1.74302e-10
-5.11754e-09
-0.000196886
-5.5137e-09
1.32784e-07
-1.62223e-08
0.000196775
-0.000236248
7.13549e-11
2.39444e-07
0.000236104
-8.50147e-08
-9.79251e-09
1.33451e-08
1.37413e-08
0.000196616
-2.72853e-09
-0.00019664
-9.89437e-05
5.54261e-09
5.96072e-08
9.88786e-05
-1.32262e-08
1.77509e-09
9.88367e-05
-9.88252e-05
6.01348e-08
-2.91436e-10
0.000235878
-0.000235931
-5.02262e-09
-2.31902e-09
-0.000196916
-5.3473e-09
1.3087e-07
-1.63929e-08
0.000196807
-0.000236279
2.39662e-07
2.83085e-10
0.000236132
-1.01048e-08
-8.30546e-08
1.3387e-08
1.58249e-08
0.000196645
-2.71396e-09
-0.000196672
4.40519e-07
4.41029e-07
0.00114679
4.40732e-07
4.41435e-07
0.00114639
4.40743e-07
4.41002e-07
0.0011466
-0.00114835
4.36202e-07
4.6398e-07
0.00114907
-0.00114837
4.35111e-07
4.35502e-07
0.00114915
-0.00114797
4.29761e-07
4.35807e-07
0.00114875
-0.00114818
4.35309e-07
4.35419e-07
0.00114895
-6.27177e-08
-1.59817e-09
0.000260056
-0.000259994
-1.78478e-08
2.00142e-08
-0.000252843
-6.11632e-08
-1.32788e-07
3.06994e-07
6.29517e-08
0.000252667
0.00113889
-0.00113821
3.02917e-09
8.99405e-07
7.92308e-07
-1.19436e-06
-1.36354e-06
5.95623e-07
4.11849e-07
1.12501e-06
0.00113794
8.33475e-07
-1.2408e-06
7.51452e-08
-5.53301e-07
7.41554e-07
-1.50849e-06