/*--------------------------------*- C++ -*----------------------------------*\
| =========                 |                                                 |
| \\      /  F ield         | OpenFOAM: The Open Source CFD Toolbox           |
|  \\    /   O peration     | Version:  v1906                                 |
|   \\  /    A nd           | Web:      www.OpenFOAM.com                      |
|    \\/     M anipulation  |                                                 |
\*---------------------------------------------------------------------------*/
FoamFile
{
    version     2.0;
    format      ascii;
    class       volVectorField;
    location    "850";
    object      U;
}
// * * * * * * * * * * * * * * * * * * * * * * * * * * * * * * * * * * * * * //

dimensions      [0 1 -1 0 0 0 0];


internalField   nonuniform List<vector> 
43248
(
(-3.82732e-05 -3.85252e-05 0.104906)
(1.01388e-05 1.76533e-05 0.10828)
(-1.02366e-05 1.7788e-05 0.10828)
(3.84079e-05 -3.83772e-05 0.104907)
(1.78523e-05 1.02427e-05 0.108283)
(1.77631e-05 -1.02547e-05 0.108279)
(-1.7724e-05 1.0184e-05 0.108283)
(-1.77258e-05 -1.02255e-05 0.10828)
(-3.83715e-05 3.83826e-05 0.104906)
(1.01653e-05 -1.77263e-05 0.108282)
(-1.01487e-05 -1.7723e-05 0.108282)
(3.8441e-05 3.84011e-05 0.104906)
(2.27532e-05 2.27222e-05 0.113134)
(-2.2743e-05 2.27525e-05 0.113134)
(2.2735e-05 -2.2742e-05 0.113134)
(-2.27123e-05 -2.27281e-05 0.113134)
(-2.0548e-06 -6.8831e-06 0.0709176)
(-6.88051e-06 -2.05309e-06 0.0709176)
(-5.13659e-06 -8.26266e-06 0.087035)
(-8.33906e-06 -5.21151e-06 0.0870361)
(-3.99606e-07 1.26808e-05 0.0909882)
(-1.58192e-06 -1.13878e-05 0.08162)
(-5.9313e-07 -1.3973e-05 0.0910345)
(3.89315e-07 1.26863e-05 0.0909882)
(1.55261e-06 -1.14528e-05 0.0816199)
(-5.73256e-07 1.12193e-05 0.0815622)
(6.12002e-07 -1.39783e-05 0.0910345)
(1.32764e-07 2.49928e-05 0.0985539)
(-6.77137e-06 -1.35067e-05 0.0926821)
(4.73605e-06 2.77087e-05 0.110832)
(4.88958e-06 2.8457e-05 0.110842)
(-4.64121e-07 -1.71935e-05 0.0986111)
(-1.11543e-07 2.50033e-05 0.0985536)
(-1.06053e-05 1.8383e-05 0.108294)
(6.76102e-06 -1.36418e-05 0.0926825)
(-4.71346e-06 2.7734e-05 0.110832)
(-6.78876e-06 1.93796e-05 0.0926204)
(-4.86789e-06 2.84678e-05 0.110842)
(4.81041e-07 -1.72003e-05 0.098611)
(2.02698e-06 -6.91169e-06 0.0709175)
(-4.61437e-06 5.5944e-06 0.0708533)
(-4.50039e-05 4.49623e-05 0.104759)
(5.13021e-06 -8.32499e-06 0.0870354)
(8.27701e-06 -5.14873e-06 0.0870374)
(-7.08399e-06 7.45012e-06 0.086979)
(-7.40439e-06 7.03442e-06 0.0869799)
(6.84785e-06 -2.00264e-06 0.0709188)
(-5.54142e-06 4.54573e-06 0.0708513)
(-1.14567e-05 -1.54604e-06 0.0816204)
(-1.39983e-05 -6.17976e-07 0.0910338)
(-1.37435e-05 -6.79314e-06 0.0926834)
(2.775e-05 4.66545e-06 0.110831)
(-1.71856e-05 -5.02952e-07 0.0986105)
(-1.1443e-05 1.52744e-06 0.0816208)
(-1.39946e-05 5.39176e-07 0.0910338)
(2.77295e-05 -4.7775e-06 0.110831)
(-1.36204e-05 6.71274e-06 0.0926831)
(-1.71869e-05 4.20972e-07 0.0986104)
(-2.50211e-05 7.49289e-08 0.0985537)
(-1.83157e-05 1.05428e-05 0.108297)
(1.36115e-05 -6.76523e-06 0.092684)
(-2.77308e-05 4.70917e-06 0.110832)
(-1.92989e-05 6.75678e-06 0.0926213)
(-2.84724e-05 4.85258e-06 0.110842)
(1.71721e-05 -4.56673e-07 0.0986107)
(-1.26978e-05 -4.14399e-07 0.090988)
(1.14301e-05 -1.52773e-06 0.0816208)
(-1.11665e-05 5.57309e-07 0.0815615)
(1.39668e-05 -6.01055e-07 0.0910342)
(-2.50125e-05 -1.70581e-07 0.0985539)
(-1.83271e-05 -1.05836e-05 0.108294)
(-2.77149e-05 -4.74869e-06 0.110831)
(1.36432e-05 6.75976e-06 0.092683)
(-2.84555e-05 -4.89081e-06 0.110841)
(-1.93181e-05 -6.82561e-06 0.0926216)
(1.71639e-05 4.41141e-07 0.0986105)
(-1.2685e-05 3.52298e-07 0.0909881)
(1.14547e-05 1.5291e-06 0.0816201)
(-1.11757e-05 -6.13716e-07 0.0815627)
(1.39619e-05 5.85968e-07 0.0910341)
(-6.85348e-06 1.997e-06 0.0709187)
(-8.30819e-06 5.15115e-06 0.0870356)
(-5.15911e-06 8.34255e-06 0.0870369)
(-2.03183e-06 6.90752e-06 0.070918)
(1.41034e-07 -2.5034e-05 0.0985532)
(4.71212e-06 -2.77188e-05 0.110831)
(-6.75929e-06 1.36714e-05 0.0926837)
(4.85733e-06 -2.84569e-05 0.110841)
(-4.70965e-07 1.71626e-05 0.0986107)
(-8.75219e-08 -2.50286e-05 0.098553)
(-1.05102e-05 -1.83213e-05 0.108296)
(-4.70227e-06 -2.77204e-05 0.110831)
(6.80747e-06 1.36561e-05 0.092683)
(-4.85103e-06 -2.84513e-05 0.110841)
(-6.83027e-06 -1.93431e-05 0.0926209)
(4.37649e-07 1.71478e-05 0.0986107)
(-3.6382e-07 -1.27435e-05 0.0909884)
(-1.51154e-06 1.1467e-05 0.0816207)
(-5.91842e-07 1.39858e-05 0.0910341)
(4.49596e-07 -1.274e-05 0.0909882)
(1.59352e-06 1.1449e-05 0.0816207)
(-6.42945e-07 -1.11805e-05 0.0815624)
(5.55896e-07 1.39794e-05 0.0910342)
(-4.49518e-05 -4.49906e-05 0.104759)
(8.34526e-06 5.14495e-06 0.0870366)
(5.18905e-06 8.32782e-06 0.0870348)
(-7.42337e-06 -7.10415e-06 0.0869805)
(-7.10281e-06 -7.42846e-06 0.0869792)
(6.90938e-06 2.02648e-06 0.0709176)
(-5.57063e-06 -4.63362e-06 0.070854)
(2.06869e-06 6.88787e-06 0.0709175)
(-4.64981e-06 -5.56639e-06 0.0708536)
(4.58281e-06 5.52553e-06 0.0708564)
(5.51665e-06 4.63886e-06 0.0708554)
(8.45361e-06 1.38153e-05 0.0912641)
(-8.05483e-06 -2.04314e-05 0.0961248)
(7.01331e-06 7.33102e-06 0.0869807)
(-3.95891e-06 -7.659e-06 0.0810012)
(4.47214e-06 6.5024e-06 0.0809461)
(1.42109e-05 2.11937e-05 0.0960748)
(-8.17396e-06 -1.64305e-05 0.0913114)
(1.37575e-05 8.35528e-06 0.0912506)
(-2.06598e-05 -8.30981e-06 0.0961322)
(7.31819e-06 7.02676e-06 0.0869771)
(-7.47252e-06 -3.79964e-06 0.0809992)
(6.42681e-06 4.37214e-06 0.0809383)
(2.11942e-05 1.41447e-05 0.0960656)
(-1.63891e-05 -8.29251e-06 0.091315)
(5.7317e-06 5.74443e-06 0.0830579)
(-5.56824e-06 -4.07646e-06 0.0678217)
(-4.11754e-06 -5.48682e-06 0.0678166)
(5.5194e-06 3.49562e-06 0.0677589)
(3.46187e-06 5.47087e-06 0.0677522)
(-6.7456e-06 -6.59485e-06 0.0831103)
(4.05983e-08 -6.74862e-06 0.0762637)
(-6.44955e-07 6.33142e-06 0.0780013)
(2.21954e-08 1.26461e-05 0.089419)
(-5.9592e-07 -1.39006e-05 0.0910396)
(-9.0262e-07 7.04393e-06 0.0762071)
(-4.15723e-07 -7.01644e-06 0.0780498)
(-1.10332e-06 -1.33612e-05 0.0894769)
(-7.26847e-07 6.39255e-06 0.0677441)
(6.27005e-07 1.10736e-05 0.0815628)
(-1.54361e-06 -1.16869e-05 0.0852756)
(-4.73941e-07 9.66752e-06 0.0852109)
(8.05244e-08 -6.63965e-06 0.0678184)
(-8.93011e-07 6.99801e-06 0.0762078)
(-3.97223e-07 1.25139e-05 0.0909833)
(-4.04996e-07 -7.02996e-06 0.0780498)
(-1.10302e-06 -1.3429e-05 0.0894733)
(-6.35191e-07 6.28445e-06 0.0780014)
(1.786e-08 1.24938e-05 0.0894155)
(5.72225e-08 -6.76242e-06 0.0762642)
(-4.81295e-08 -6.79713e-06 0.0762631)
(6.26448e-07 6.3383e-06 0.0780015)
(-3.20112e-08 1.26822e-05 0.0894192)
(6.11745e-07 -1.39035e-05 0.0910395)
(8.96831e-07 7.08926e-06 0.0762092)
(4.14989e-07 -7.0198e-06 0.0780498)
(1.11732e-06 -1.34293e-05 0.0894764)
(7.04477e-07 6.47564e-06 0.0677448)
(-6.06413e-07 1.11117e-05 0.0815626)
(1.54557e-06 -1.17352e-05 0.0852743)
(4.88583e-07 9.71233e-06 0.0852107)
(-6.88108e-08 -6.71185e-06 0.0678149)
(-4.34686e-08 -6.71523e-06 0.0678132)
(5.03499e-07 9.81454e-06 0.0852117)
(1.58815e-06 -1.14171e-05 0.0816196)
(7.20055e-07 6.50788e-06 0.0677429)
(1.56626e-06 -1.1697e-05 0.0852753)
(8.78858e-07 7.04241e-06 0.0762098)
(3.87257e-07 1.25214e-05 0.0909833)
(4.06811e-07 -7.03104e-06 0.0780498)
(1.11249e-06 -1.34708e-05 0.0894728)
(6.15187e-07 6.29071e-06 0.0780016)
(-3.15409e-08 1.2532e-05 0.0894158)
(-6.65903e-08 -6.80956e-06 0.0762637)
(-4.62245e-06 5.55169e-06 0.0708556)
(2.04599e-06 -6.90829e-06 0.0709152)
(6.599e-06 -6.63461e-06 0.0831112)
(-5.5458e-06 3.50386e-06 0.0677522)
(-3.51971e-06 5.51515e-06 0.0677575)
(-5.84134e-06 5.80609e-06 0.0830588)
(5.50876e-06 -4.10672e-06 0.0678159)
(4.07527e-06 -5.5451e-06 0.0678212)
(-8.44273e-06 1.37242e-05 0.0912538)
(8.18791e-06 -2.05951e-05 0.0961275)
(-7.03774e-06 7.32816e-06 0.0869779)
(3.84233e-06 -7.56353e-06 0.0809984)
(-1.42095e-05 2.12248e-05 0.0960682)
(-4.44654e-06 6.44609e-06 0.0809396)
(8.25024e-06 -1.63387e-05 0.0913103)
(-1.37445e-05 8.38633e-06 0.0912609)
(2.05557e-05 -8.22467e-06 0.0961308)
(-7.29092e-06 6.98959e-06 0.0869788)
(7.52882e-06 -3.88831e-06 0.0810032)
(-6.43501e-06 4.42714e-06 0.0809442)
(-2.11839e-05 1.4155e-05 0.0960719)
(1.6324e-05 -8.27559e-06 0.0913172)
(8.1919e-06 -1.62555e-05 0.0913136)
(-4.45018e-06 6.53415e-06 0.0809394)
(-1.43838e-05 2.15022e-05 0.0960744)
(5.1276e-06 -8.25589e-06 0.0870365)
(8.0613e-06 -2.0445e-05 0.0961339)
(-8.55481e-06 1.39151e-05 0.091257)
(3.86312e-06 -7.50901e-06 0.0809983)
(1.62374e-05 -8.20403e-06 0.0913205)
(-6.52953e-06 4.43724e-06 0.080944)
(-2.14601e-05 1.4331e-05 0.0960781)
(8.20546e-06 -5.14275e-06 0.0870386)
(-1.39376e-05 8.50288e-06 0.0912641)
(7.47329e-06 -3.90269e-06 0.081003)
(2.0407e-05 -8.09178e-06 0.0961372)
(-5.76142e-06 5.72479e-06 0.0830581)
(5.50165e-06 -4.11531e-06 0.0678168)
(4.07925e-06 -5.54265e-06 0.0678221)
(-5.516e-06 3.47645e-06 0.0677532)
(-3.49365e-06 5.48594e-06 0.0677585)
(6.6399e-06 -6.67935e-06 0.0831105)
(-5.4926e-06 4.54901e-06 0.0708536)
(6.83962e-06 -2.01946e-06 0.0709165)
(6.46061e-06 -6.73015e-07 0.0677452)
(1.1062e-05 6.21825e-07 0.0815626)
(-1.17354e-05 -1.52617e-06 0.0852742)
(9.70033e-06 -4.68958e-07 0.0852113)
(-6.70856e-06 8.65561e-08 0.0678151)
(7.0548e-06 -8.723e-07 0.0762103)
(1.25472e-05 -4.12002e-07 0.0909837)
(-1.34697e-05 -1.10261e-06 0.0894726)
(-7.06593e-06 -4.11362e-07 0.078049)
(1.25468e-05 1.63424e-08 0.0894161)
(6.34273e-06 -6.1972e-07 0.078003)
(-6.8097e-06 8.00054e-08 0.0762637)
(6.40062e-06 7.26561e-07 0.0677438)
(1.10548e-05 -6.26516e-07 0.0815616)
(-1.1703e-05 1.47472e-06 0.0852756)
(9.67695e-06 4.85771e-07 0.0852106)
(-6.65816e-06 -1.38567e-07 0.0678183)
(6.99385e-06 9.0116e-07 0.0762081)
(1.25419e-05 4.00674e-07 0.0909838)
(-7.06419e-06 3.61167e-07 0.0780489)
(-1.34427e-05 1.02599e-06 0.0894731)
(6.32729e-06 6.3971e-07 0.0780028)
(1.25027e-05 -4.30134e-09 0.0894155)
(-6.77235e-06 -1.23367e-07 0.0762642)
(6.80173e-06 6.78433e-08 0.0762631)
(-1.27038e-05 2.35504e-08 0.089419)
(-6.3414e-06 -6.4748e-07 0.0780014)
(1.38874e-05 -6.05141e-07 0.0910392)
(-7.09451e-06 -9.01423e-07 0.0762091)
(1.34106e-05 -1.09834e-06 0.0894763)
(7.01439e-06 -4.11283e-07 0.0780495)
(-6.47343e-06 -6.94258e-07 0.067745)
(-1.10562e-05 5.85531e-07 0.0815619)
(1.17502e-05 -1.51496e-06 0.0852746)
(-9.70942e-06 -4.8839e-07 0.0852108)
(6.71736e-06 9.01938e-08 0.0678153)
(6.7223e-06 7.01398e-08 0.0678135)
(-9.81753e-06 -5.00813e-07 0.0852117)
(1.13864e-05 -1.56075e-06 0.0816205)
(-6.50753e-06 -7.10471e-07 0.0677431)
(1.17034e-05 -1.53454e-06 0.0852757)
(-7.04485e-06 -8.83863e-07 0.0762097)
(-1.25265e-05 -4.08755e-07 0.0909831)
(1.34844e-05 -1.09197e-06 0.0894727)
(7.02447e-06 -3.95086e-07 0.0780496)
(-1.25418e-05 2.21635e-08 0.0894156)
(-6.29286e-06 -6.33962e-07 0.0780015)
(6.82018e-06 8.74234e-08 0.0762637)
(6.80418e-06 -7.11034e-08 0.0762626)
(-6.33341e-06 6.03451e-07 0.0780013)
(-1.26648e-05 -7.2205e-08 0.0894192)
(1.38862e-05 5.89123e-07 0.0910391)
(-7.08099e-06 8.62454e-07 0.0762086)
(7.01299e-06 4.0412e-07 0.0780494)
(1.34231e-05 1.08173e-06 0.0894762)
(-6.46075e-06 6.65806e-07 0.0677469)
(-1.10691e-05 -6.40194e-07 0.0815631)
(1.17442e-05 1.5152e-06 0.0852751)
(-9.68535e-06 4.4379e-07 0.0852117)
(6.71011e-06 -9.05835e-08 0.067817)
(6.71376e-06 -6.88498e-08 0.0678152)
(-9.78808e-06 4.56129e-07 0.0852126)
(1.14204e-05 1.56078e-06 0.0816198)
(-6.4937e-06 6.78845e-07 0.0677451)
(1.17061e-05 1.53791e-06 0.0852761)
(-7.03816e-06 8.45384e-07 0.0762093)
(-1.25209e-05 3.50096e-07 0.0909832)
(7.02732e-06 3.9534e-07 0.0780495)
(1.34832e-05 1.07901e-06 0.0894727)
(-6.29116e-06 5.89793e-07 0.0780014)
(-1.25081e-05 -7.12097e-08 0.0894157)
(6.81079e-06 -9.05163e-08 0.0762632)
(5.48149e-06 -4.58855e-06 0.0708532)
(1.36855e-05 -8.45291e-06 0.0912534)
(-2.05727e-05 8.18059e-06 0.0961275)
(7.30877e-06 -7.06426e-06 0.0869764)
(-7.55133e-06 3.90182e-06 0.0809977)
(2.11768e-05 -1.42244e-05 0.0960679)
(6.43081e-06 -4.49629e-06 0.0809383)
(-1.63069e-05 8.25879e-06 0.0913099)
(8.37305e-06 -1.37465e-05 0.0912606)
(-8.21803e-06 2.05729e-05 0.0961304)
(7.02618e-06 -7.33041e-06 0.0869797)
(-3.83978e-06 7.55822e-06 0.0810031)
(4.40152e-06 -6.44362e-06 0.0809442)
(1.41703e-05 -2.12018e-05 0.0960717)
(-8.22845e-06 1.6307e-05 0.0913167)
(5.71578e-06 -5.76887e-06 0.0830577)
(-4.0793e-06 5.54766e-06 0.0678158)
(-5.51167e-06 4.09965e-06 0.0678218)
(3.46332e-06 -5.53277e-06 0.0677521)
(5.48269e-06 -3.49378e-06 0.0677584)
(-6.64435e-06 6.65727e-06 0.08311)
(4.62177e-06 -5.53046e-06 0.0708567)
(7.22837e-08 6.80866e-06 0.076263)
(6.35309e-08 -1.27072e-05 0.0894195)
(-6.01052e-07 -6.39303e-06 0.0780029)
(-5.95632e-07 1.39047e-05 0.0910392)
(-8.54748e-07 -7.10063e-06 0.0762093)
(-1.0822e-06 1.34091e-05 0.0894766)
(-4.06652e-07 7.0565e-06 0.0780491)
(-6.45106e-07 -6.45382e-06 0.0677479)
(6.37115e-07 -1.10831e-05 0.0815637)
(-1.4983e-06 1.1739e-05 0.0852753)
(-4.3472e-07 -9.7077e-06 0.0852127)
(1.00004e-07 6.70816e-06 0.0678176)
(7.60868e-08 6.71102e-06 0.0678158)
(-1.52013e-06 1.16984e-05 0.0852764)
(-8.3983e-07 -7.05307e-06 0.07621)
(-3.64399e-07 -1.25736e-05 0.0909835)
(-1.07911e-06 1.34627e-05 0.089473)
(-3.99413e-07 7.07207e-06 0.0780492)
(6.11504e-08 -1.25522e-05 0.0894161)
(-5.9096e-07 -6.34808e-06 0.078003)
(9.12084e-08 6.81869e-06 0.0762636)
(-1.05177e-07 6.76427e-06 0.0762648)
(6.01033e-09 -1.26852e-05 0.0894183)
(6.72927e-07 -6.3995e-06 0.0780027)
(5.63323e-07 1.38991e-05 0.0910392)
(9.17855e-07 -7.07992e-06 0.076208)
(1.05246e-06 1.33615e-05 0.0894773)
(3.81721e-07 7.05208e-06 0.0780493)
(7.00833e-07 -6.41334e-06 0.0677426)
(-6.71292e-07 -1.1078e-05 0.0815628)
(1.52692e-06 1.17082e-05 0.0852758)
(4.53247e-07 -9.67442e-06 0.0852099)
(-1.29385e-07 6.66017e-06 0.0678176)
(-1.0444e-07 6.66512e-06 0.0678159)
(4.67752e-07 -9.77747e-06 0.0852109)
(1.63051e-06 1.14086e-05 0.0816204)
(7.22197e-07 -6.44851e-06 0.0677408)
(1.54759e-06 1.166e-05 0.0852767)
(8.97464e-07 -7.03e-06 0.0762086)
(4.42304e-07 -1.25737e-05 0.0909833)
(1.04392e-06 1.34396e-05 0.0894738)
(3.6819e-07 7.06494e-06 0.0780493)
(6.78965e-09 -1.25323e-05 0.0894148)
(6.5791e-07 -6.35193e-06 0.0780028)
(-1.27077e-07 6.78012e-06 0.0762654)
(6.62272e-06 6.59156e-06 0.083111)
(-3.49193e-06 -5.53792e-06 0.0677579)
(-5.52379e-06 -3.50592e-06 0.0677521)
(-5.79577e-06 -5.81681e-06 0.0830589)
(4.09013e-06 5.51959e-06 0.0678213)
(5.54208e-06 4.07702e-06 0.0678153)
(-1.36972e-05 -8.39864e-06 0.091261)
(2.05921e-05 8.1608e-06 0.0961301)
(-7.31493e-06 -7.05697e-06 0.0869794)
(7.56328e-06 3.84389e-06 0.081003)
(-2.11747e-05 -1.41895e-05 0.0960718)
(-6.42456e-06 -4.44535e-06 0.0809444)
(1.6334e-05 8.20912e-06 0.0913168)
(-8.39741e-06 -1.37232e-05 0.0912541)
(8.24127e-06 2.05704e-05 0.0961272)
(-7.06008e-06 -7.3202e-06 0.0869781)
(3.89219e-06 7.57386e-06 0.0809976)
(-1.41748e-05 -2.11799e-05 0.0960687)
(-4.45374e-06 -6.46168e-06 0.08094)
(8.284e-06 1.63172e-05 0.0913099)
(1.62523e-05 8.14272e-06 0.0913201)
(-6.5097e-06 -4.4532e-06 0.0809441)
(-2.14446e-05 -1.43688e-05 0.096078)
(8.27893e-06 5.1348e-06 0.0870378)
(-1.38826e-05 -8.51329e-06 0.0912642)
(2.0449e-05 8.04035e-06 0.0961365)
(7.51288e-06 3.85711e-06 0.0810028)
(8.21737e-06 1.62316e-05 0.0913132)
(-4.45943e-06 -6.55022e-06 0.0809398)
(-1.43492e-05 -2.14488e-05 0.0960749)
(5.17769e-06 8.25568e-06 0.087036)
(-8.50957e-06 -1.39136e-05 0.0912573)
(8.11281e-06 2.04293e-05 0.0961336)
(3.90802e-06 7.51964e-06 0.0809975)
(-5.71689e-06 -5.73308e-06 0.0830582)
(4.09338e-06 5.51476e-06 0.0678222)
(5.53514e-06 4.08207e-06 0.0678162)
(-3.46818e-06 -5.50713e-06 0.0677589)
(-5.4983e-06 -3.47858e-06 0.0677531)
(6.66543e-06 6.63664e-06 0.0831103)
(-5.52317e-06 -4.63203e-06 0.0708563)
(6.90175e-06 2.03122e-06 0.0709154)
(-4.64906e-06 -5.5144e-06 0.070856)
(2.08209e-06 6.88049e-06 0.0709153)
(1.88004e-05 1.8795e-05 0.0974183)
(4.45284e-05 4.45159e-05 0.104745)
(-3.98429e-05 -2.12725e-05 0.101727)
(-2.11257e-05 -3.98962e-05 0.101732)
(4.322e-05 2.42944e-05 0.101644)
(2.42891e-05 4.31807e-05 0.101636)
(-1.97672e-05 -2.01048e-05 0.0974883)
(-1.88481e-05 1.87797e-05 0.0974183)
(-4.45204e-05 4.44806e-05 0.104745)
(3.99404e-05 -2.11898e-05 0.101728)
(2.1214e-05 -3.99813e-05 0.101732)
(-4.3237e-05 2.42673e-05 0.101638)
(-2.4292e-05 4.32052e-05 0.101642)
(2.00066e-05 -1.99908e-05 0.097489)
(1.87525e-05 -1.88575e-05 0.0974184)
(4.44958e-05 -4.45743e-05 0.104745)
(-2.11802e-05 3.99398e-05 0.101728)
(-3.99787e-05 2.12008e-05 0.101731)
(2.4249e-05 -4.32807e-05 0.101638)
(4.321e-05 -2.43106e-05 0.101642)
(-1.99629e-05 1.99899e-05 0.0974884)
(-1.87829e-05 -1.87999e-05 0.0974186)
(-4.45003e-05 -4.45361e-05 0.104745)
(2.12312e-05 3.99523e-05 0.101731)
(3.99922e-05 2.11996e-05 0.101728)
(-2.42641e-05 -4.3258e-05 0.101642)
(-4.31788e-05 -2.42667e-05 0.101638)
(2.00129e-05 1.9961e-05 0.0974886)
(1.04138e-05 3.15561e-05 0.115006)
(3.15331e-05 1.03875e-05 0.115006)
(1.05621e-05 3.19751e-05 0.11498)
(1.32124e-05 1.32136e-05 0.116309)
(1.30946e-05 1.30996e-05 0.116357)
(-2.31894e-05 2.31963e-05 0.113128)
(-1.04122e-05 3.15629e-05 0.115006)
(-3.15283e-05 1.04209e-05 0.115007)
(-1.05553e-05 3.19889e-05 0.11498)
(-3.19639e-05 1.05671e-05 0.11498)
(-1.31992e-05 1.32245e-05 0.116309)
(-1.30897e-05 1.31073e-05 0.116357)
(3.1545e-05 -1.04307e-05 0.115005)
(1.04214e-05 -3.15228e-05 0.115006)
(1.05766e-05 -3.19499e-05 0.11498)
(1.32216e-05 -1.31899e-05 0.116309)
(1.30963e-05 -1.30805e-05 0.116357)
(-2.31586e-05 -2.31741e-05 0.113128)
(-3.15223e-05 -1.04054e-05 0.115005)
(-1.04011e-05 -3.15168e-05 0.115006)
(-3.19614e-05 -1.0548e-05 0.114979)
(-1.05429e-05 -3.19502e-05 0.11498)
(-1.31955e-05 -1.31838e-05 0.116309)
(-1.30857e-05 -1.30739e-05 0.116357)
(9.06191e-07 -4.18585e-05 0.103364)
(1.61801e-06 2.49836e-05 0.0974888)
(8.75723e-07 5.81172e-05 0.103957)
(-4.55399e-07 -1.69813e-05 0.0986221)
(4.14789e-06 5.77345e-05 0.103208)
(-1.07289e-06 -1.74031e-05 0.0975674)
(6.87777e-07 -3.99727e-05 0.104085)
(8.16015e-06 5.56237e-05 0.10154)
(-5.71026e-06 -4.37666e-05 0.0996181)
(6.73177e-06 1.91239e-05 0.0926174)
(-3.51493e-06 -1.83717e-05 0.0954622)
(1.24229e-05 5.27608e-05 0.0995444)
(3.36222e-06 2.1716e-05 0.0953828)
(-1.98785e-06 -4.5456e-05 0.101675)
(4.05367e-06 5.71626e-05 0.103195)
(1.2339e-07 2.46737e-05 0.098543)
(-1.09131e-06 -1.76093e-05 0.0975578)
(6.548e-07 -4.02403e-05 0.104071)
(1.58325e-06 2.46904e-05 0.0974795)
(8.41849e-07 5.74745e-05 0.103943)
(8.34803e-07 -4.20996e-05 0.10335)
(-9.24368e-07 -4.18793e-05 0.103363)
(-1.59322e-06 2.50137e-05 0.0974878)
(-8.24529e-07 5.81222e-05 0.103957)
(4.50195e-07 -1.69806e-05 0.098622)
(-4.10184e-06 5.77365e-05 0.103207)
(1.06464e-06 -1.7439e-05 0.0975668)
(-6.81428e-07 -3.9963e-05 0.104085)
(-8.13637e-06 5.56439e-05 0.101538)
(5.66698e-06 -4.37583e-05 0.0996183)
(-6.73179e-06 1.91576e-05 0.0926161)
(3.49763e-06 -1.8424e-05 0.0954617)
(-3.33344e-06 2.17355e-05 0.0953812)
(-1.23862e-05 5.28002e-05 0.0995416)
(1.85798e-06 -4.54227e-05 0.101674)
(1.77798e-06 -4.52903e-05 0.101686)
(-3.38069e-06 2.19685e-05 0.0953883)
(-1.25425e-05 5.32634e-05 0.0995506)
(6.75742e-06 -1.34854e-05 0.092687)
(-8.26465e-06 5.61726e-05 0.10155)
(3.49628e-06 -1.82816e-05 0.095469)
(5.56493e-06 -4.35995e-05 0.0996276)
(-4.03127e-06 5.71923e-05 0.103194)
(-1.01387e-07 2.46826e-05 0.0985427)
(1.08737e-06 -1.76366e-05 0.0975573)
(-6.50941e-07 -4.02291e-05 0.10407)
(-1.55848e-06 2.47159e-05 0.0974785)
(-7.96791e-07 5.74862e-05 0.103943)
(-8.57753e-07 -4.20814e-05 0.10335)
(1.98843e-05 -1.98683e-05 0.0974962)
(3.8245e-05 -3.82186e-05 0.104922)
(-4.36272e-05 2.46116e-05 0.101648)
(-2.4634e-05 4.3594e-05 0.101652)
(3.98426e-05 -2.10137e-05 0.101739)
(-1.91121e-05 1.90439e-05 0.0974252)
(2.10243e-05 -3.98683e-05 0.101742)
(5.56452e-05 8.14491e-06 0.101538)
(-4.38233e-05 -5.7238e-06 0.0996202)
(1.9082e-05 6.72585e-06 0.0926165)
(-1.84429e-05 -3.50533e-06 0.0954621)
(5.27539e-05 1.23454e-05 0.099542)
(2.17167e-05 3.34332e-06 0.0953819)
(-4.54498e-05 -1.81898e-06 0.101675)
(5.72572e-05 4.01125e-06 0.103194)
(2.47102e-05 6.69008e-08 0.0985425)
(-1.76284e-05 -1.10987e-06 0.0975572)
(-4.02361e-05 6.23347e-07 0.10407)
(2.4744e-05 1.54076e-06 0.0974786)
(5.74658e-05 7.55563e-07 0.103943)
(-4.20806e-05 8.38191e-07 0.10335)
(5.56426e-05 -8.16415e-06 0.101538)
(-4.37731e-05 5.64495e-06 0.0996185)
(1.90965e-05 -6.73735e-06 0.092616)
(-1.84005e-05 3.43879e-06 0.0954623)
(2.17138e-05 -3.35477e-06 0.0953822)
(5.27335e-05 -1.23913e-05 0.0995419)
(-4.54265e-05 1.82124e-06 0.101674)
(5.71695e-05 -4.0463e-06 0.103194)
(2.47007e-05 -1.23981e-07 0.0985427)
(-4.02419e-05 -6.9802e-07 0.10407)
(-1.76077e-05 1.03504e-06 0.0975574)
(5.7451e-05 -8.38156e-07 0.103943)
(2.46994e-05 -1.56745e-06 0.0974791)
(-4.20951e-05 -9.0751e-07 0.10335)
(4.18124e-05 9.28592e-07 0.103364)
(-2.50321e-05 1.57272e-06 0.0974877)
(-5.81528e-05 7.92574e-07 0.103957)
(1.69545e-05 -4.55045e-07 0.0986217)
(-5.78007e-05 4.08513e-06 0.103207)
(1.74204e-05 -1.0536e-06 0.097567)
(3.99527e-05 6.95246e-07 0.104085)
(-5.55955e-05 8.12897e-06 0.101539)
(4.37645e-05 -5.71678e-06 0.0996205)
(-1.90742e-05 6.69455e-06 0.092617)
(1.84261e-05 -3.50217e-06 0.0954627)
(-5.27215e-05 1.23602e-05 0.0995443)
(-2.17149e-05 3.3213e-06 0.0953817)
(4.54405e-05 -1.90105e-06 0.101676)
(4.52772e-05 -1.80957e-06 0.101688)
(-2.19506e-05 3.37567e-06 0.0953888)
(-5.31908e-05 1.25226e-05 0.0995534)
(1.34529e-05 -6.75095e-06 0.0926885)
(-5.61346e-05 8.26431e-06 0.101551)
(4.36009e-05 -5.60528e-06 0.0996298)
(1.82786e-05 -3.47872e-06 0.09547)
(-5.71672e-05 3.99669e-06 0.103194)
(-2.46969e-05 6.91116e-08 0.0985428)
(1.76302e-05 -1.06989e-06 0.0975575)
(4.02211e-05 6.64729e-07 0.10407)
(-2.47275e-05 1.53481e-06 0.0974784)
(-5.75276e-05 7.69408e-07 0.103943)
(4.20882e-05 8.52848e-07 0.103351)
(4.18998e-05 -9.48734e-07 0.103363)
(-5.81468e-05 -8.91827e-07 0.103957)
(-2.50005e-05 -1.64301e-06 0.0974883)
(1.69437e-05 4.21911e-07 0.0986216)
(-5.7715e-05 -4.14506e-06 0.103208)
(3.99397e-05 -6.89741e-07 0.104084)
(1.74126e-05 1.02627e-06 0.0975669)
(-5.56277e-05 -8.18334e-06 0.101539)
(4.3797e-05 5.68099e-06 0.0996193)
(-1.90852e-05 -6.7589e-06 0.0926173)
(1.84239e-05 3.49282e-06 0.0954625)
(-2.16878e-05 -3.36962e-06 0.0953823)
(-5.27321e-05 -1.23933e-05 0.0995438)
(4.54425e-05 1.85714e-06 0.101675)
(4.53046e-05 1.76633e-06 0.101687)
(-2.19286e-05 -3.42959e-06 0.0953894)
(-5.3193e-05 -1.25533e-05 0.0995528)
(1.34826e-05 6.74555e-06 0.0926874)
(-5.61556e-05 -8.31092e-06 0.101551)
(1.82785e-05 3.47778e-06 0.0954698)
(4.36167e-05 5.56589e-06 0.0996286)
(-5.7154e-05 -4.06859e-06 0.103195)
(-2.46916e-05 -1.60893e-07 0.098543)
(4.02175e-05 -6.55887e-07 0.10407)
(1.76096e-05 1.05484e-06 0.0975574)
(-5.75125e-05 -8.56716e-07 0.103943)
(-2.46968e-05 -1.60221e-06 0.097479)
(4.21117e-05 -8.7772e-07 0.10335)
(9.33907e-07 4.18319e-05 0.103364)
(8.40509e-07 -5.81472e-05 0.103957)
(1.62701e-06 -2.5029e-05 0.0974879)
(-4.41988e-07 1.69395e-05 0.0986218)
(4.10355e-06 -5.77861e-05 0.103207)
(6.94472e-07 3.99009e-05 0.104084)
(-1.05068e-06 1.7416e-05 0.0975673)
(8.13961e-06 -5.56455e-05 0.101539)
(-5.70874e-06 4.38029e-05 0.0996204)
(6.751e-06 -1.91181e-05 0.0926177)
(-3.4823e-06 1.84301e-05 0.0954631)
(1.23769e-05 -5.27558e-05 0.0995441)
(3.37183e-06 -2.1727e-05 0.0953829)
(-1.87872e-06 4.54468e-05 0.101675)
(-1.78723e-06 4.5291e-05 0.101688)
(-3.48068e-06 1.82879e-05 0.0954704)
(4.02705e-06 -5.72294e-05 0.103195)
(1.23332e-07 -2.47128e-05 0.0985422)
(6.59436e-07 4.01953e-05 0.10407)
(-1.07797e-06 1.76089e-05 0.0975578)
(8.0809e-07 -5.74805e-05 0.103943)
(1.58432e-06 -2.47282e-05 0.0974787)
(8.64629e-07 4.20353e-05 0.10335)
(-9.42282e-07 4.17879e-05 0.103363)
(-8.19317e-07 -5.81672e-05 0.103957)
(-1.59203e-06 -2.5004e-05 0.0974874)
(4.40121e-07 1.69356e-05 0.0986217)
(-4.08135e-06 -5.77768e-05 0.103207)
(-6.94785e-07 3.99252e-05 0.104084)
(1.03748e-06 1.73732e-05 0.0975671)
(-8.1175e-06 -5.55984e-05 0.101538)
(5.72639e-06 4.37915e-05 0.0996189)
(-6.76681e-06 -1.91095e-05 0.0926166)
(3.51724e-06 1.84023e-05 0.0954624)
(-3.37532e-06 -2.1693e-05 0.0953814)
(-1.237e-05 -5.27375e-05 0.0995425)
(1.88466e-06 4.54351e-05 0.101675)
(1.79456e-06 4.52779e-05 0.101687)
(-3.42393e-06 -2.19286e-05 0.0953885)
(-1.25287e-05 -5.32068e-05 0.0995515)
(6.79642e-06 1.35001e-05 0.0926875)
(-8.25229e-06 -5.613e-05 0.10155)
(3.49108e-06 1.82528e-05 0.0954697)
(5.6152e-06 4.3622e-05 0.0996281)
(-3.99695e-06 -5.71769e-05 0.103194)
(-7.56525e-08 -2.4707e-05 0.0985421)
(-6.62818e-07 4.01975e-05 0.104069)
(1.05545e-06 1.75756e-05 0.0975576)
(-7.9304e-07 -5.75233e-05 0.103943)
(-1.54935e-06 -2.47008e-05 0.0974781)
(-8.61749e-07 4.2078e-05 0.10335)
(1.98992e-05 1.98415e-05 0.0974957)
(3.82701e-05 3.82233e-05 0.104921)
(-2.45984e-05 -4.36467e-05 0.101652)
(-4.3572e-05 -2.46079e-05 0.101648)
(-1.90376e-05 -1.90597e-05 0.0974255)
(2.1052e-05 3.98466e-05 0.101741)
(3.98872e-05 2.10187e-05 0.101739)
(6.10763e-05 6.10199e-05 0.108908)
(-9.16749e-05 5.69039e-05 0.107966)
(5.69351e-05 -9.17864e-05 0.107966)
(-0.000146054 -0.000146187 0.106635)
(9.90231e-06 9.74207e-06 0.106791)
(5.74306e-05 9.21411e-05 0.107918)
(-5.74289e-05 9.23242e-05 0.107918)
(-9.71672e-06 9.79329e-06 0.106792)
(9.23768e-05 5.73914e-05 0.107919)
(9.23545e-05 -5.74235e-05 0.107918)
(-9.21657e-05 5.72195e-05 0.107919)
(-9.22248e-05 -5.7323e-05 0.107918)
(9.83072e-06 -9.71548e-06 0.106791)
(5.72275e-05 -9.22736e-05 0.107919)
(-5.71341e-05 -9.21648e-05 0.107919)
(-9.68549e-06 -9.74625e-06 0.106791)
(0.000146165 0.000146121 0.106634)
(7.2239e-06 7.1479e-06 0.10683)
(5.71097e-05 9.17804e-05 0.107966)
(-5.71237e-05 9.18397e-05 0.107965)
(5.6237e-05 8.99518e-05 0.1081)
(-5.62344e-05 9.02973e-05 0.1081)
(-0.000146099 0.000146085 0.106635)
(-6.9846e-06 7.01731e-06 0.106831)
(9.17767e-05 5.69437e-05 0.107966)
(9.18667e-05 -5.71177e-05 0.107965)
(9.04022e-05 5.62981e-05 0.108101)
(9.03248e-05 -5.62406e-05 0.1081)
(-9.17286e-05 -5.70136e-05 0.107965)
(-9.01307e-05 5.60127e-05 0.108101)
(-9.01853e-05 -5.61087e-05 0.1081)
(0.000146132 -0.000146187 0.106634)
(7.043e-06 -6.93431e-06 0.10683)
(-5.6822e-05 -9.16661e-05 0.107966)
(5.60474e-05 -9.02526e-05 0.108101)
(-5.59349e-05 -9.01191e-05 0.108101)
(-6.90262e-06 -6.95986e-06 0.10683)
(6.13819e-05 6.13375e-05 0.108832)
(-6.13515e-05 6.13095e-05 0.108832)
(6.13263e-05 -6.13612e-05 0.108832)
(-6.13137e-05 -6.1358e-05 0.108832)
(1.20969e-06 1.08131e-05 0.0940539)
(-1.46539e-06 3.26317e-05 0.0835753)
(1.93289e-06 5.77513e-05 0.0940774)
(-4.1646e-06 -4.85873e-06 0.0835804)
(-3.62297e-06 1.48127e-05 0.0721605)
(5.45686e-06 -5.58639e-06 0.0721978)
(1.07864e-05 1.17811e-06 0.0940536)
(3.27534e-05 -1.52543e-06 0.0835764)
(5.78585e-05 1.96012e-06 0.0940782)
(-4.85447e-06 -4.17979e-06 0.0835796)
(-6.10409e-05 6.10004e-05 0.108908)
(6.10219e-05 -6.10585e-05 0.108908)
(-6.10028e-05 -6.10454e-05 0.108908)
(6.01537e-05 6.01336e-05 0.109132)
(-6.01175e-05 6.00682e-05 0.109132)
(6.00926e-05 -6.01382e-05 0.109132)
(-6.00751e-05 -6.01165e-05 0.109132)
(-4.89706e-05 3.97768e-06 0.102491)
(-6.49268e-05 2.62981e-05 0.0957159)
(-0.000101773 2.00733e-05 0.108605)
(-9.11758e-05 5.65979e-05 0.108012)
(-0.000111098 5.6546e-06 0.102466)
(-2.15307e-05 -3.57966e-07 0.0957348)
(-0.000101418 1.99236e-05 0.108671)
(1.47154e-05 -3.54504e-06 0.0721575)
(-5.59239e-06 5.44485e-06 0.0721999)
(3.96771e-06 -4.90222e-05 0.102491)
(2.01246e-05 -0.000101757 0.108605)
(2.63468e-05 -6.49518e-05 0.0957167)
(5.6648e-05 -9.12868e-05 0.108012)
(5.75154e-06 -0.000111148 0.102466)
(1.9981e-05 -0.000101387 0.10867)
(-4.06118e-07 -2.13977e-05 0.0957333)
(-3.18206e-05 -1.73732e-05 0.0893933)
(-1.72405e-05 -3.19127e-05 0.0893915)
(-8.29286e-06 -8.35142e-06 0.106814)
(-1.07492e-05 2.98975e-06 0.0893983)
(3.16194e-06 -1.08373e-05 0.0893957)
(-5.52491e-06 -5.44505e-06 0.0722795)
(3.53411e-06 1.51044e-05 0.0722397)
(-5.3885e-06 -5.58087e-06 0.0722769)
(1.52078e-05 3.52616e-06 0.0722401)
(0.000147899 0.000147895 0.106613)
(-2.74935e-06 1.19544e-05 0.0895315)
(1.18587e-05 -2.87997e-06 0.0895289)
(1.78207e-05 3.29372e-05 0.0895287)
(3.31302e-05 1.77261e-05 0.0895265)
(2.15445e-06 6.05919e-05 0.0942442)
(-4.33122e-06 -4.11764e-06 0.0836965)
(-1.66687e-06 3.38194e-05 0.0836949)
(1.41794e-06 1.29843e-05 0.0942163)
(-2.18659e-06 6.05867e-05 0.0942443)
(4.28119e-06 -4.16897e-06 0.0836951)
(1.66672e-06 3.38809e-05 0.0836962)
(-1.38055e-06 1.30089e-05 0.0942161)
(6.13898e-06 0.000114844 0.102598)
(5.77216e-05 9.27587e-05 0.10787)
(1.79688e-07 2.35736e-05 0.0958847)
(2.02943e-05 0.000102072 0.108539)
(2.7317e-05 6.73062e-05 0.0958686)
(2.04371e-05 0.000102442 0.108472)
(4.57233e-06 5.21742e-05 0.102625)
(-6.16177e-06 0.000114859 0.102598)
(-5.7717e-05 9.28022e-05 0.10787)
(-1.6973e-07 2.34001e-05 0.0958831)
(-2.0256e-05 0.000102124 0.108539)
(-2.73466e-05 6.73981e-05 0.0958686)
(-2.0396e-05 0.000102469 0.108472)
(-4.48636e-06 5.2147e-05 0.102625)
(5.53641e-06 -5.41939e-06 0.0722769)
(-3.60959e-06 1.51498e-05 0.0722414)
(-0.000147844 0.000147817 0.106613)
(2.79642e-06 1.18392e-05 0.0895288)
(-1.18752e-05 -2.7759e-06 0.0895321)
(-1.77961e-05 3.30547e-05 0.0895275)
(-3.2956e-05 1.77995e-05 0.0895284)
(5.47283e-06 -5.51312e-06 0.0722794)
(-1.50974e-05 3.54033e-06 0.0722392)
(6.06354e-05 2.17951e-06 0.0942452)
(-4.13251e-06 -4.31884e-06 0.0836958)
(3.39359e-05 -1.72843e-06 0.083696)
(1.29827e-05 1.41593e-06 0.094216)
(0.00011487 6.15926e-06 0.102598)
(9.27548e-05 5.75572e-05 0.10787)
(2.34278e-05 1.2426e-07 0.0958842)
(0.000102131 2.02539e-05 0.108539)
(6.7436e-05 2.7282e-05 0.0958686)
(0.000102499 2.04042e-05 0.108472)
(5.21594e-05 4.56282e-06 0.102625)
(6.0637e-05 -2.0927e-06 0.0942453)
(-4.13753e-06 4.31847e-06 0.0836966)
(3.38449e-05 1.66502e-06 0.0836947)
(1.29934e-05 -1.45402e-06 0.0942158)
(0.000114875 -6.11208e-06 0.102598)
(9.28427e-05 -5.77177e-05 0.107869)
(0.00010211 -2.02685e-05 0.108539)
(2.34497e-05 -1.99367e-07 0.0958846)
(0.000102469 -2.04043e-05 0.108472)
(6.7346e-05 -2.73082e-05 0.0958675)
(5.21198e-05 -4.53847e-06 0.102625)
(-0.000114892 6.12622e-06 0.102598)
(-9.26491e-05 5.7511e-05 0.10787)
(-2.34973e-05 2.36721e-07 0.0958862)
(-0.000102125 2.0228e-05 0.108539)
(-6.73021e-05 2.73591e-05 0.0958691)
(-0.000102483 2.03813e-05 0.108472)
(-5.2171e-05 4.55958e-06 0.102625)
(-6.06128e-05 2.17054e-06 0.0942441)