/*--------------------------------*- C++ -*----------------------------------*\
| =========                 |                                                 |
| \\      /  F ield         | OpenFOAM: The Open Source CFD Toolbox           |
|  \\    /   O peration     | Version:  v1906                                 |
|   \\  /    A nd           | Web:      www.OpenFOAM.com                      |
|    \\/     M anipulation  |                                                 |
\*---------------------------------------------------------------------------*/
FoamFile
{
    version     2.0;
    format      ascii;
    class       volScalarField;
    location    "450";
    object      epsilon;
}
// * * * * * * * * * * * * * * * * * * * * * * * * * * * * * * * * * * * * * //

dimensions      [0 2 -3 0 0 0 0];


internalField   nonuniform List<scalar> 
43248
(
1.14847e-06
8.63017e-07
8.62982e-07
1.14807e-06
8.62758e-07
8.63047e-07
8.62809e-07
8.63066e-07
1.14825e-06
8.6292e-07
8.62936e-07
1.14844e-06
3.19702e-07
3.19697e-07
3.19794e-07
3.19805e-07
1.84275e-05
1.84294e-05
5.46238e-06
5.46329e-06
4.09141e-06
9.16118e-06
4.09379e-06
4.09184e-06
9.16216e-06
9.15567e-06
4.09372e-06
2.10219e-06
3.47504e-06
5.58256e-07
5.52353e-07
2.10688e-06
2.10228e-06
8.56912e-07
3.47548e-06
5.58294e-07
3.4717e-06
5.52405e-07
2.10682e-06
1.84289e-05
1.84186e-05
1.14406e-06
5.46362e-06
5.46175e-06
5.46126e-06
5.45942e-06
1.84264e-05
1.8416e-05
9.16301e-06
4.09398e-06
3.4753e-06
5.58325e-07
2.10695e-06
9.16277e-06
4.09356e-06
5.58355e-07
3.47519e-06
2.1069e-06
2.10236e-06
8.56739e-07
3.47474e-06
5.58281e-07
3.47169e-06
5.52391e-07
2.10701e-06
4.09171e-06
9.16202e-06
9.15555e-06
4.09405e-06
2.10231e-06
8.56987e-07
5.58356e-07
3.47507e-06
5.52467e-07
3.47167e-06
2.10693e-06
4.0916e-06
9.16244e-06
9.15547e-06
4.09396e-06
1.843e-05
5.46363e-06
5.46187e-06
1.84282e-05
2.10239e-06
5.58382e-07
3.47489e-06
5.52478e-07
2.10697e-06
2.10245e-06
8.56862e-07
5.58411e-07
3.47566e-06
5.52525e-07
3.4721e-06
2.10705e-06
4.09157e-06
9.16217e-06
4.09401e-06
4.09165e-06
9.16352e-06
9.15655e-06
4.09408e-06
1.14439e-06
5.46197e-06
5.46388e-06
5.45958e-06
5.46148e-06
1.84286e-05
1.84183e-05
1.84304e-05
1.842e-05
1.84224e-05
1.84247e-05
4.53805e-06
2.81201e-06
5.46165e-06
9.50066e-06
9.49662e-06
2.81003e-06
4.54043e-06
4.5443e-06
2.81176e-06
5.46369e-06
9.5038e-06
9.50082e-06
2.81166e-06
4.54257e-06
9.73606e-06
2.17307e-05
2.17285e-05
2.17239e-05
2.17227e-05
9.73558e-06
1.22035e-05
1.08241e-05
4.74416e-06
4.09192e-06
1.22007e-05
1.0827e-05
4.74432e-06
2.20542e-05
9.15853e-06
7.08841e-06
7.08895e-06
2.20611e-05
1.22041e-05
4.0934e-06
1.08303e-05
4.74585e-06
1.08273e-05
4.74585e-06
1.22069e-05
1.22035e-05
1.08247e-05
4.74455e-06
4.09191e-06
1.2201e-05
1.08267e-05
4.74441e-06
2.20548e-05
9.15965e-06
7.09015e-06
7.09054e-06
2.20614e-05
2.20567e-05
7.08954e-06
9.15821e-06
2.20502e-05
7.08915e-06
1.22044e-05
4.09355e-06
1.08299e-05
4.74612e-06
1.08278e-05
4.7462e-06
1.2207e-05
1.84239e-05
1.84235e-05
9.73331e-06
2.17174e-05
2.17181e-05
9.73372e-06
2.17236e-05
2.17243e-05
4.54454e-06
2.81209e-06
5.4636e-06
9.50421e-06
2.8116e-06
9.50073e-06
4.54457e-06
4.5385e-06
2.81092e-06
5.46175e-06
9.4997e-06
9.49603e-06
2.81041e-06
4.53859e-06
4.54192e-06
9.49629e-06
2.80835e-06
5.46129e-06
2.80892e-06
4.54188e-06
9.49938e-06
4.53596e-06
9.49138e-06
2.80718e-06
5.45945e-06
4.53583e-06
9.49495e-06
2.80774e-06
9.73569e-06
2.17287e-05
2.17294e-05
2.17224e-05
2.17231e-05
9.73529e-06
1.84213e-05
1.8421e-05
2.20549e-05
9.1606e-06
7.09012e-06
7.09048e-06
2.20614e-05
1.22047e-05
4.09359e-06
4.74602e-06
1.0831e-05
4.74612e-06
1.0828e-05
1.22073e-05
2.2055e-05
9.15982e-06
7.08869e-06
7.0892e-06
2.20618e-05
1.22048e-05
4.09376e-06
1.08303e-05
4.74598e-06
1.08283e-05
4.74599e-06
1.22075e-05
1.22034e-05
4.74432e-06
1.08244e-05
4.09209e-06
1.22004e-05
4.74455e-06
1.08274e-05
2.20535e-05
9.15954e-06
7.08963e-06
7.08999e-06
2.20601e-05
2.20555e-05
7.08901e-06
9.15808e-06
2.20489e-05
7.08863e-06
1.22038e-05
4.09351e-06
4.74615e-06
1.08306e-05
4.74589e-06
1.08276e-05
1.22069e-05
1.22038e-05
1.08243e-05
4.74427e-06
4.09205e-06
1.22011e-05
1.08273e-05
4.74419e-06
2.20545e-05
9.15942e-06
7.08832e-06
7.08869e-06
2.20611e-05
2.20565e-05
7.0877e-06
9.15842e-06
2.20499e-05
7.08732e-06
1.22045e-05
4.09348e-06
1.08305e-05
4.7458e-06
1.08275e-05
4.74591e-06
1.22071e-05
1.8425e-05
4.54465e-06
2.81248e-06
5.46358e-06
9.50451e-06
2.81155e-06
9.50082e-06
4.54507e-06
4.53885e-06
2.81138e-06
5.46188e-06
9.49946e-06
9.49653e-06
2.81051e-06
4.53883e-06
9.73656e-06
2.173e-05
2.17303e-05
2.17236e-05
2.1724e-05
9.7362e-06
1.84233e-05
1.22038e-05
4.74401e-06
1.08247e-05
4.09211e-06
1.22009e-05
4.74435e-06
1.08276e-05
2.20543e-05
9.15966e-06
7.08825e-06
7.08861e-06
2.20609e-05
2.20563e-05
7.08724e-06
1.22042e-05
4.09346e-06
4.74574e-06
1.08308e-05
4.74572e-06
1.08278e-05
1.22073e-05
1.22038e-05
4.74449e-06
1.08248e-05
4.09219e-06
1.22008e-05
4.74468e-06
1.08277e-05
2.20543e-05
9.16049e-06
7.09004e-06
7.09054e-06
2.20612e-05
2.20566e-05
7.08955e-06
9.1595e-06
2.20498e-05
7.08903e-06
1.22041e-05
4.09353e-06
4.74626e-06
1.08309e-05
4.74614e-06
1.08279e-05
1.22073e-05
9.73405e-06
2.17192e-05
2.17185e-05
9.73445e-06
2.17255e-05
2.17248e-05
4.53874e-06
2.81101e-06
5.46194e-06
9.49973e-06
2.81043e-06
9.49679e-06
4.53902e-06
4.5448e-06
2.81224e-06
5.46388e-06
9.50451e-06
2.81164e-06
9.50156e-06
4.54485e-06
4.53646e-06
9.49207e-06
2.80716e-06
5.45968e-06
4.53601e-06
2.80806e-06
9.49508e-06
4.54226e-06
9.49684e-06
2.80836e-06
5.46154e-06
4.5422e-06
2.80928e-06
9.49986e-06
9.73643e-06
2.17305e-05
2.17298e-05
2.17242e-05
2.17235e-05
9.73603e-06
1.84236e-05
1.84232e-05
1.84254e-05
1.8425e-05
2.66813e-06
1.14913e-06
1.76786e-06
1.76757e-06
1.7677e-06
1.76772e-06
2.66797e-06
2.66815e-06
1.14908e-06
1.76745e-06
1.76734e-06
1.76801e-06
1.76786e-06
2.6679e-06
2.66775e-06
1.1492e-06
1.76784e-06
1.76764e-06
1.76778e-06
1.76775e-06
2.66788e-06
2.66792e-06
1.14929e-06
1.76788e-06
1.76819e-06
1.76757e-06
1.76784e-06
2.66861e-06
1.6662e-07
1.66605e-07
1.6451e-07
7.94053e-08
7.99476e-08
3.15757e-07
1.66623e-07
1.6658e-07
1.64511e-07
1.64471e-07
7.94024e-08
7.99441e-08
1.66674e-07
1.66646e-07
1.64531e-07
7.94243e-08
7.99675e-08
3.15862e-07
1.66667e-07
1.66647e-07
1.64554e-07
1.64535e-07
7.94231e-08
7.99662e-08
1.41084e-06
2.36151e-06
1.27362e-06
2.10319e-06
1.41072e-06
2.36237e-06
1.27397e-06
1.61689e-06
2.03266e-06
3.47445e-06
2.86034e-06
2.03143e-06
2.85954e-06
1.61722e-06
1.41576e-06
2.10585e-06
2.36576e-06
1.27955e-06
2.36487e-06
1.27893e-06
1.4159e-06
1.40965e-06
2.36178e-06
1.27433e-06
2.1032e-06
1.41234e-06
2.36261e-06
1.27305e-06
1.61786e-06
2.03261e-06
3.47468e-06
2.86083e-06
2.86011e-06
2.03185e-06
1.61693e-06
1.61198e-06
2.85719e-06
2.02776e-06
3.47264e-06
1.61365e-06
2.85785e-06
2.02846e-06
1.41731e-06
2.10595e-06
2.36596e-06
1.27822e-06
2.36515e-06
1.27978e-06
1.41469e-06
2.66472e-06
1.14329e-06
1.76378e-06
1.76365e-06
1.76368e-06
2.66467e-06
1.76357e-06
1.61835e-06
2.03246e-06
3.47526e-06
2.86043e-06
2.03205e-06
2.86018e-06
1.61594e-06
1.41661e-06
2.10605e-06
2.36597e-06
1.27831e-06
2.36512e-06
1.28001e-06
1.41498e-06
1.61823e-06
2.03224e-06
3.47511e-06
2.86037e-06
2.85971e-06
2.03236e-06
1.61585e-06
1.41652e-06
2.10595e-06
1.27828e-06
2.36579e-06
1.27996e-06
2.36493e-06
1.41491e-06
1.41113e-06
2.3618e-06
1.27342e-06
2.10333e-06
1.41101e-06
2.36261e-06
1.2742e-06
1.61721e-06
2.03222e-06
3.47459e-06
2.86068e-06
2.03149e-06
2.85995e-06
1.61747e-06
1.6129e-06
2.85703e-06
2.0274e-06
3.47193e-06
1.61248e-06
2.02814e-06
2.85767e-06
1.41602e-06
2.10603e-06
2.36597e-06
1.27951e-06
2.36515e-06
1.27872e-06
1.41614e-06
1.40957e-06
1.27366e-06
2.36165e-06
2.10325e-06
1.41225e-06
1.2741e-06
2.36244e-06
1.61848e-06
2.03216e-06
3.47459e-06
2.86003e-06
2.85988e-06
2.03211e-06
1.61592e-06
1.61176e-06
2.85691e-06
2.02768e-06
3.47213e-06
1.61357e-06
2.85712e-06
2.02768e-06
1.41726e-06
2.10597e-06
1.27956e-06
2.36579e-06
1.27892e-06
2.36502e-06
1.41463e-06
1.41106e-06
1.2736e-06
2.36168e-06
2.10332e-06
1.41094e-06
1.27417e-06
2.36245e-06
1.61695e-06
2.03163e-06
3.47482e-06
2.85991e-06
2.03216e-06
2.85963e-06
1.61723e-06
1.61261e-06
2.85724e-06
1.41594e-06
2.10607e-06
1.27963e-06
2.36583e-06
1.27892e-06
2.36502e-06
1.41606e-06
1.40991e-06
1.27374e-06
2.36189e-06
2.10337e-06
1.41233e-06
1.27424e-06
2.36261e-06
1.61864e-06
2.03289e-06
3.47512e-06
2.86087e-06
2.86013e-06
2.03251e-06
1.61615e-06
1.61197e-06
2.85719e-06
2.02806e-06
3.47283e-06
1.61375e-06
2.85786e-06
2.02808e-06
1.41687e-06
2.10609e-06
1.27971e-06
2.36596e-06
1.27903e-06
2.36525e-06
1.41556e-06
2.66535e-06
1.14355e-06
1.76327e-06
1.76367e-06
2.66438e-06
1.76377e-06
1.76407e-06
1.33494e-07
2.30097e-07
2.30135e-07
3.57117e-07
3.52076e-07
2.27887e-07
2.27887e-07
3.51824e-07
2.27836e-07
2.27921e-07
2.27785e-07
2.27854e-07
3.51505e-07
2.2782e-07
2.27811e-07
3.52109e-07
3.57062e-07
3.77548e-07
2.30159e-07
2.302e-07
2.37951e-07
2.37939e-07
3.56923e-07
3.77428e-07
2.30187e-07
2.30234e-07
2.37858e-07
2.37974e-07
2.30165e-07
2.37822e-07
2.37902e-07
3.57448e-07
3.76818e-07
2.30122e-07
2.37865e-07
2.37855e-07
3.77441e-07
1.34165e-07
1.34157e-07
1.34169e-07
1.34158e-07
3.68216e-06
8.909e-06
3.65173e-06
8.91442e-06
1.84694e-05
1.84614e-05
3.68227e-06
8.91131e-06
3.6518e-06
8.91598e-06
1.33485e-07
1.33496e-07
1.33485e-07
1.31792e-07
1.31784e-07
1.31797e-07
1.31786e-07
1.15717e-06
2.79936e-06
1.58236e-07
2.32542e-07
1.12996e-06
2.82129e-06
1.5844e-07
1.84709e-05
1.8463e-05
1.15722e-06
1.58227e-07
2.79823e-06
2.3258e-07
1.12985e-06
1.58444e-07
2.82301e-06
5.13569e-06
5.13758e-06
3.64341e-07
5.14807e-06
5.15001e-06
1.84755e-05
1.84838e-05
1.84774e-05
1.84858e-05
3.45316e-07
5.12949e-06
5.13141e-06
5.11557e-06
5.11735e-06
3.60253e-06
8.90862e-06
8.90291e-06
3.63666e-06
3.60261e-06
8.90936e-06
8.90457e-06
3.63689e-06
1.08645e-06
2.25663e-07
2.78631e-06
1.58123e-07
2.75954e-06
1.58082e-07
1.1154e-06
1.08741e-06
2.25693e-07
2.78665e-06
1.58129e-07
2.75998e-06
1.58086e-07
1.11475e-06
1.84764e-05
1.84848e-05
3.45022e-07
5.12997e-06
5.12785e-06
5.1188e-06
5.11689e-06
1.84749e-05
1.84832e-05
3.60269e-06
8.9102e-06
8.90541e-06
3.63683e-06
1.08664e-06
2.2568e-07
2.78676e-06
1.58145e-07
2.76016e-06
1.58101e-07
1.11539e-06
3.60269e-06
8.90956e-06
8.90482e-06
3.63665e-06
1.08698e-06
2.25727e-07
1.58145e-07
2.78534e-06
1.58098e-07
2.76193e-06
1.11507e-06
1.08738e-06
2.25597e-07
2.78451e-06
1.58125e-07
2.76098e-06
1.58084e-07
1.11466e-06
3.60365e-06
8.90976e-06
8.90412e-06
3.63572e-06
1.08738e-06
2.2566e-07
1.58125e-07
2.78491e-06
1.58082e-07
2.76136e-06
1.11483e-06
3.60249e-06
8.90941e-06
8.90373e-06
3.63682e-06
1.8478e-05
1.84864e-05
3.45741e-07
5.13138e-06
5.12961e-06
5.11749e-06
5.11547e-06
1.84762e-05
1.84847e-05
1.08679e-06
2.25633e-07
1.58127e-07
2.78634e-06
1.58081e-07
2.75994e-06
1.11476e-06
1.08725e-06
2.25619e-07
1.58118e-07
2.78678e-06
1.58075e-07
2.76022e-06
1.11491e-06
3.60292e-06
8.90924e-06
8.90444e-06
3.6357e-06
3.60275e-06
8.9103e-06
8.90554e-06
3.63689e-06
3.45027e-07
5.12965e-06
5.13159e-06
5.11542e-06
5.11733e-06
1.84762e-05
1.84845e-05
1.84777e-05
1.8486e-05
1.84683e-05
1.84604e-05
1.84703e-05
1.84623e-05
5.13552e-06
5.13731e-06
3.64619e-07
5.14772e-06
5.14981e-06
1.84461e-05
1.84534e-05
1.84476e-05
1.84554e-05
3.69736e-07
5.16519e-06
5.16606e-06
5.15373e-06
5.15532e-06
3.68231e-06
8.91046e-06
3.65172e-06
8.91517e-06
1.15787e-06
2.79805e-06
1.58234e-07
2.32653e-07
1.12927e-06
2.82277e-06
1.58439e-07
1.15743e-06
2.79854e-06
1.58237e-07
2.32651e-07
1.12996e-06
2.82324e-06
1.58441e-07
3.69554e-06
8.91995e-06
8.91479e-06
3.72273e-06
3.69567e-06
8.92066e-06
8.91623e-06
3.72293e-06
1.17173e-06
2.35184e-07
2.85754e-06
1.59105e-07
2.83417e-06
1.58733e-07
1.20007e-06
1.1723e-06
2.35231e-07
2.85782e-06
1.59107e-07
2.83459e-06
1.58738e-07
1.19957e-06
5.1385e-06
5.13674e-06
3.64102e-07
5.14829e-06
5.14621e-06
1.84678e-05
1.84598e-05
1.8447e-05
1.84546e-05
3.69516e-07
5.16536e-06
5.16334e-06
5.15644e-06
5.1547e-06
1.84454e-05
1.8453e-05
1.15775e-06
2.79859e-06
1.58253e-07
2.32591e-07
1.12958e-06
2.82333e-06
1.58464e-07
3.68207e-06
8.9107e-06
3.65177e-06
8.91539e-06
1.15782e-06
1.58251e-07
2.79992e-06
2.32684e-07
1.12969e-06
1.58454e-07
2.8219e-06
3.69575e-06
8.92143e-06
8.91705e-06
3.72264e-06
1.1721e-06
2.35218e-07
2.85778e-06
1.5913e-07
2.83464e-06
1.58753e-07
1.1998e-06
3.69595e-06
8.9209e-06
8.9165e-06
3.72183e-06
1.17197e-06
2.35264e-07
1.59119e-07
2.85657e-06
1.58751e-07
2.83594e-06
1.19998e-06
3.68125e-06
8.9102e-06
3.65267e-06
8.9156e-06
1.15717e-06
1.58231e-07
2.79937e-06
2.32616e-07
1.12995e-06
1.58435e-07
2.82144e-06
3.68219e-06
8.90984e-06
3.65168e-06
8.91527e-06
1.17248e-06
2.35118e-07
2.85584e-06
1.59103e-07
2.83527e-06
1.58733e-07
1.19952e-06
3.69661e-06
8.92101e-06
8.91598e-06
3.72208e-06
1.17244e-06
2.35193e-07
1.591e-07
2.85745e-06
1.58731e-07
2.83539e-06
1.19944e-06
3.69578e-06
8.92077e-06
8.91564e-06
3.72284e-06
5.13743e-06
5.13556e-06
3.63779e-07
5.14975e-06
5.148e-06
1.84692e-05
1.84612e-05
1.84485e-05
1.84561e-05
3.69998e-07
5.16641e-06
5.16499e-06
5.15548e-06
5.15356e-06
1.84467e-05
1.84543e-05
1.15751e-06
1.58226e-07
2.79869e-06
2.32571e-07
1.12997e-06
1.58431e-07
2.82341e-06
3.68139e-06
8.91034e-06
3.65245e-06
8.91507e-06
3.68234e-06
8.91141e-06
3.65195e-06
8.91613e-06
1.17251e-06
2.35158e-07
1.59107e-07
2.85747e-06
1.58726e-07
2.83422e-06
1.19955e-06
1.17237e-06
2.35146e-07
1.59096e-07
2.85797e-06
1.58726e-07
2.83473e-06
1.19967e-06
3.69641e-06
8.92057e-06
8.91614e-06
3.72299e-06
3.69592e-06
8.92163e-06
8.9172e-06
3.72309e-06
1.84691e-05
1.84612e-05
1.84706e-05
1.84626e-05
3.69551e-07
5.16502e-06
5.16695e-06
5.15356e-06
5.15545e-06
1.84467e-05
1.84543e-05
1.84482e-05
1.84558e-05
1.21312e-05
3.67419e-06
1.06762e-05
4.49121e-06
1.06713e-05
4.48715e-06
1.21342e-05
2.24359e-05
7.21545e-06
8.91155e-06
2.24343e-05
7.21503e-06
1.2131e-05
3.65967e-06
1.06663e-05
4.47158e-06
1.21279e-05
1.0671e-05
4.4758e-06
2.24247e-05
7.2164e-06
8.91194e-06
7.21704e-06
2.24262e-05
1.84688e-05
1.84619e-05
1.21315e-05
3.67441e-06
4.4914e-06
1.06767e-05
4.48742e-06
1.06718e-05
1.21345e-05
2.24363e-05
7.21737e-06
8.91314e-06
2.2435e-05
7.21698e-06
1.21312e-05
3.65981e-06
4.47179e-06
1.06668e-05
1.21281e-05
4.47609e-06
1.06715e-05
2.24253e-05
7.2183e-06
8.91418e-06
7.21887e-06
2.24266e-05
1.84704e-05
1.84634e-05
9.73118e-06
2.19131e-05
2.19125e-05
2.19128e-05
2.19122e-05
9.72947e-06
3.96335e-06
1.92711e-06
9.03769e-06
5.13905e-06
3.95734e-06
1.9332e-06
9.04249e-06
3.96903e-06
1.9287e-06
9.04199e-06
5.14098e-06
3.96549e-06
1.93506e-06
9.04755e-06
9.72898e-06
2.19228e-05
2.19222e-05
9.73058e-06
2.19231e-05
2.19225e-05
3.9738e-06
9.0497e-06
5.14491e-06
1.9545e-06
1.94839e-06
9.04504e-06
3.97938e-06
3.98172e-06
9.05482e-06
5.1468e-06
1.95663e-06
1.94962e-06
9.04942e-06
3.98513e-06
1.8476e-05
1.84832e-05
1.8478e-05
1.84852e-05
9.72696e-06
2.19424e-05
2.19425e-05
9.72832e-06
2.19427e-05
2.19428e-05
3.94143e-06
1.91203e-06
5.12603e-06
9.03479e-06
9.02951e-06
1.90463e-06
3.9451e-06
3.94819e-06
1.91311e-06
5.12779e-06
9.04004e-06
9.03507e-06
1.90688e-06
3.95346e-06
3.92741e-06
9.02146e-06
1.88241e-06
5.11933e-06
3.92363e-06
9.0272e-06
1.88992e-06
3.93454e-06
9.02725e-06
1.88467e-06
5.12128e-06
3.93048e-06
9.03233e-06
1.89115e-06
9.72945e-06
2.19325e-05
2.19327e-05
2.19323e-05
2.19323e-05
9.72794e-06
1.21241e-05
1.06561e-05
4.4366e-06
3.6113e-06
1.21209e-05
1.06607e-05
4.44274e-06
2.24438e-05
8.90594e-06
7.21317e-06
2.24455e-05
7.21339e-06
2.24551e-05
7.21082e-06
8.90554e-06
2.24534e-05
7.21072e-06
1.21244e-05
3.62802e-06
1.06659e-05
4.45955e-06
1.21276e-05
1.06611e-05
4.45475e-06
1.21243e-05
1.06563e-05
4.43745e-06
3.61186e-06
1.21211e-05
1.06609e-05
4.44283e-06
2.2445e-05
8.90752e-06
7.21544e-06
7.21567e-06
2.24464e-05
2.2456e-05
7.21331e-06
8.90642e-06
2.24545e-05
7.21306e-06
1.21246e-05
3.62796e-06
1.06659e-05
4.46021e-06
1.06612e-05
4.45541e-06
1.21278e-05
1.8477e-05
1.84841e-05
9.72685e-06
2.1942e-05
2.19428e-05
9.72809e-06
2.19423e-05
2.19431e-05
3.94759e-06
1.91342e-06
5.12914e-06
9.04009e-06
1.90635e-06
9.03432e-06
3.9516e-06
3.94122e-06
1.91156e-06
5.12735e-06
9.03532e-06
9.02959e-06
1.90501e-06
3.94501e-06
3.93553e-06
9.02641e-06
1.88429e-06
5.11991e-06
1.89139e-06
3.92937e-06
9.03231e-06
3.92731e-06
9.0217e-06
1.8828e-06
5.11769e-06
3.92339e-06
9.02755e-06
1.88939e-06
9.72925e-06
2.19322e-05
2.19329e-05
2.19319e-05
2.19326e-05
9.72783e-06
1.84754e-05
1.84826e-05
1.21243e-05
4.43693e-06
1.06566e-05
3.61168e-06
1.21211e-05
4.44307e-06
1.06612e-05
2.24446e-05
8.90829e-06
7.21514e-06
2.24459e-05
7.21536e-06
2.24556e-05
7.21301e-06
8.90721e-06
2.24542e-05
7.21274e-06
1.21246e-05
3.62806e-06
4.45998e-06
1.06664e-05
1.21278e-05
4.45498e-06
1.06615e-05
1.21244e-05
1.06563e-05
4.43666e-06
3.61172e-06
1.21212e-05
1.0661e-05
4.44311e-06
2.24441e-05
8.90775e-06
7.21342e-06
7.21379e-06
2.24458e-05
2.24554e-05
7.21127e-06
8.9066e-06
2.24537e-05
7.21104e-06
1.21247e-05
3.62794e-06
1.0666e-05
4.46059e-06
1.06613e-05
4.45465e-06
1.21279e-05
1.21239e-05
4.43745e-06
1.06574e-05
3.61082e-06
1.21208e-05
4.44273e-06
1.06604e-05
2.24437e-05
8.90715e-06
7.21482e-06
7.21492e-06
2.24452e-05
2.24548e-05
7.2125e-06
8.90676e-06
2.24533e-05
7.21257e-06
1.21243e-05
3.62872e-06
4.45986e-06
1.06653e-05
4.45509e-06
1.06621e-05
1.21274e-05
1.21241e-05
1.06562e-05
4.43736e-06
3.61143e-06
1.21209e-05
1.06609e-05
4.44259e-06
2.24437e-05
8.90676e-06
7.21311e-06
7.2132e-06
2.24452e-05
2.24547e-05
7.21071e-06
8.90638e-06
2.24532e-05
7.21079e-06
1.21245e-05
3.62806e-06
1.06659e-05
4.45979e-06
1.06612e-05
4.45502e-06
1.21276e-05
1.84786e-05
1.84857e-05
9.72776e-06
2.19434e-05
2.19435e-05
9.72902e-06
2.19436e-05
2.19437e-05
3.94752e-06
1.91331e-06
5.12795e-06
9.03996e-06
1.90698e-06
9.03497e-06
3.95346e-06
3.94048e-06
1.91162e-06
5.12605e-06
9.03496e-06
9.02995e-06
1.90535e-06
3.94644e-06
3.93626e-06
9.02715e-06
1.88473e-06
5.12121e-06
1.89116e-06
3.92966e-06
9.03225e-06
3.92935e-06
9.02215e-06
1.88294e-06
5.11945e-06
3.92258e-06
9.02725e-06
1.88949e-06
9.73013e-06
2.19335e-05
2.19335e-05
2.19332e-05
2.19333e-05
9.72872e-06
1.84769e-05
1.8484e-05
1.21242e-05
4.4373e-06
1.06574e-05
3.61144e-06
1.2121e-05
4.44256e-06
1.06605e-05
2.2444e-05
8.90738e-06
7.213e-06
7.21325e-06
2.24454e-05
2.24551e-05
7.21085e-06
8.90628e-06
2.24536e-05
7.21062e-06
1.21245e-05
3.62849e-06
4.45991e-06
1.06654e-05
4.45489e-06
1.06622e-05
1.21277e-05
1.21241e-05
4.43717e-06
1.06565e-05
3.6118e-06
1.21208e-05
4.44327e-06
1.06612e-05
2.24439e-05
8.90845e-06
7.21507e-06
7.2153e-06
2.24453e-05
2.24549e-05
7.21291e-06
8.90734e-06
2.24535e-05
7.21272e-06
1.21244e-05
3.62823e-06
4.46083e-06
1.06663e-05
4.45498e-06
1.06615e-05
1.21276e-05
9.72728e-06
2.19431e-05
2.19424e-05
9.72856e-06
2.19433e-05
2.19427e-05
3.9404e-06
1.91162e-06
5.12606e-06
9.035e-06
3.94627e-06
1.90528e-06
9.03005e-06
3.94834e-06
1.9133e-06
5.12796e-06
9.03995e-06
3.95222e-06
1.90688e-06
9.03463e-06
3.92917e-06
9.02222e-06
1.88308e-06
5.11942e-06
3.92247e-06
1.88955e-06
9.02732e-06
3.93445e-06
9.02703e-06
1.88459e-06
5.12135e-06
3.93051e-06
1.89115e-06
9.03208e-06
9.7297e-06
2.19332e-05
2.19325e-05
9.72827e-06
2.19329e-05
2.19323e-05
1.84767e-05
1.84839e-05
1.84783e-05
1.84854e-05
1.84679e-05
1.84608e-05
1.84697e-05
1.84628e-05
9.73088e-06
2.19124e-05
2.19126e-05
2.19121e-05
2.19122e-05
9.72912e-06
3.96187e-06
1.92659e-06
9.03733e-06
5.13872e-06
3.95846e-06
9.04213e-06
1.93365e-06
3.97022e-06
1.92854e-06
9.04268e-06
5.14069e-06
3.96422e-06
9.04756e-06
1.93543e-06
9.72865e-06
2.19221e-05
2.19222e-05
9.73028e-06
2.19224e-05
2.19226e-05
3.97485e-06
9.04934e-06
5.14478e-06
1.95438e-06
9.04471e-06
3.97811e-06
1.94799e-06
3.9807e-06
9.05476e-06
5.14652e-06
1.95669e-06
9.05009e-06
3.98635e-06
1.94939e-06
1.84462e-05
1.84531e-05
1.84483e-05
1.8455e-05
9.72931e-06
2.19022e-05
2.19022e-05
9.73125e-06
2.19027e-05
2.19022e-05
4.00441e-06
1.99664e-06
5.1619e-06
9.06421e-06
9.05914e-06
1.98887e-06
4.01098e-06
4.01276e-06
1.99693e-06
5.16447e-06
9.0675e-06
9.06392e-06
1.9907e-06
4.0145e-06
3.99388e-06
9.05192e-06
1.969e-06
5.15605e-06
3.99038e-06
9.05658e-06
1.97516e-06
4.00212e-06
9.05726e-06
1.97024e-06
5.15837e-06
3.99638e-06
9.06166e-06
1.97734e-06
9.73141e-06
2.18935e-05
2.18919e-05
2.18928e-05
2.18917e-05
9.72938e-06
1.21314e-05
3.67413e-06
1.06764e-05
4.49158e-06
1.06715e-05
4.48749e-06
1.21344e-05
2.24367e-05
7.21762e-06
8.91235e-06
2.24354e-05
7.21723e-06
1.21311e-05
3.65978e-06
1.06664e-05
4.47192e-06
1.06711e-05
1.2128e-05
4.47644e-06
2.24257e-05
7.21852e-06
8.9134e-06
7.21912e-06
2.2427e-05
1.21375e-05
1.06768e-05
4.50167e-06
3.70286e-06
1.21345e-05
1.06817e-05
4.50534e-06
2.24057e-05
8.91748e-06
7.21784e-06
7.21887e-06
2.24071e-05
2.24168e-05
7.21817e-06
8.91721e-06
2.2415e-05
7.21736e-06
1.21376e-05
3.71568e-06
1.0687e-05
4.51865e-06
1.06822e-05
4.51525e-06
1.21404e-05
1.21376e-05
1.0677e-05
4.502e-06
3.70315e-06
1.21347e-05
1.06819e-05
4.5057e-06
2.24064e-05
8.91899e-06
7.21992e-06
7.22089e-06
2.24076e-05
2.24173e-05
7.2202e-06
8.91801e-06
2.24161e-05
7.21942e-06
1.21378e-05
3.71577e-06
1.06872e-05
4.51894e-06
1.06823e-05
4.51566e-06
1.21406e-05
9.73069e-06
2.19121e-05
2.19128e-05
2.19118e-05
2.19125e-05
9.72902e-06
3.96865e-06
1.92837e-06
9.04203e-06
5.1392e-06
9.0476e-06
3.96518e-06
1.93468e-06
3.96178e-06
1.92682e-06
9.03728e-06
5.1371e-06
1.93294e-06
3.95824e-06
9.04282e-06
9.72854e-06
2.19218e-05
2.19225e-05
2.19221e-05
9.73009e-06
2.19228e-05
3.98165e-06
9.05483e-06
5.14777e-06
1.95604e-06
9.04942e-06
1.9498e-06
3.98496e-06
3.97461e-06
9.05005e-06
5.14602e-06
1.95425e-06
1.94816e-06
9.04465e-06
3.97802e-06
1.84673e-05
1.84603e-05
1.84474e-05
1.84541e-05
9.72927e-06
2.19019e-05
2.19026e-05
9.73109e-06
2.19022e-05
2.19029e-05
4.01151e-06
1.99701e-06
5.16517e-06
9.06863e-06
1.99099e-06
9.06349e-06
4.01679e-06
4.00546e-06
1.99507e-06
5.16351e-06
9.06384e-06
9.05871e-06
1.9895e-06
4.00843e-06
4.00178e-06
9.05661e-06
1.97068e-06
5.15702e-06
1.97673e-06
3.99717e-06
9.06182e-06
3.99337e-06
9.05183e-06
1.96906e-06
5.155e-06
3.99027e-06
9.05703e-06
1.97481e-06
9.73124e-06
2.18924e-05
2.18931e-05
2.1892e-05
2.18927e-05
9.72933e-06
1.84458e-05
1.84525e-05
1.21315e-05
3.67436e-06
1.06765e-05
4.49202e-06
1.06716e-05
4.48656e-06
1.21346e-05
2.24361e-05
7.21579e-06
8.91255e-06
2.24345e-05
7.21527e-06
1.21313e-05
3.65955e-06
1.06665e-05
4.47114e-06
1.06712e-05
1.21282e-05
4.4765e-06
2.24249e-05
7.21658e-06
8.91365e-06
7.21731e-06
2.24265e-05
1.21376e-05
4.50191e-06
1.06773e-05
3.70288e-06
1.21347e-05
4.50554e-06
1.06822e-05
2.2406e-05
8.91981e-06
7.21972e-06
7.22067e-06
2.24072e-05
2.24169e-05
7.21997e-06
8.91883e-06
2.24157e-05
7.21921e-06
1.21378e-05
3.71596e-06
4.51891e-06
1.06876e-05
4.51549e-06
1.06827e-05
1.21406e-05
1.21377e-05
1.06771e-05
4.50124e-06
3.70193e-06
1.21348e-05
1.0682e-05
4.50612e-06
2.24056e-05
8.91926e-06
7.21801e-06
7.21913e-06
2.2407e-05
2.24168e-05
7.21841e-06
8.91823e-06
2.24152e-05
7.2175e-06
1.21379e-05
3.7166e-06
1.06874e-05
4.51937e-06
1.06825e-05
4.51486e-06
1.21407e-05
1.21311e-05
3.67523e-06
4.49132e-06
1.06758e-05
4.48716e-06
1.06724e-05
1.2134e-05
2.24356e-05
7.21691e-06
8.91273e-06
7.21662e-06
2.24341e-05
1.21308e-05
3.65887e-06
4.47165e-06
1.06672e-05
4.47617e-06
1.21277e-05
1.06706e-05
2.24245e-05
7.21795e-06
8.91311e-06
7.21846e-06
2.24258e-05
1.21313e-05
3.67441e-06
1.06764e-05
4.49173e-06
1.06714e-05
4.48695e-06
1.21343e-05
2.24356e-05
7.21525e-06
8.9124e-06
2.24341e-05
7.21496e-06
1.2131e-05
3.65939e-06
1.06663e-05
4.47161e-06
1.21279e-05
1.0671e-05
4.4761e-06
2.24246e-05
7.21631e-06
8.91276e-06
7.21682e-06
2.24259e-05
1.21372e-05
4.50166e-06
1.06777e-05
3.70196e-06
1.21343e-05
4.50589e-06
1.06813e-05
2.24051e-05
8.91864e-06
7.21927e-06
7.22025e-06
2.24063e-05
2.24161e-05
7.21957e-06
8.91834e-06
2.24148e-05
7.21882e-06
1.21374e-05
3.71668e-06
4.51927e-06
1.06866e-05
4.51495e-06
1.06832e-05
1.21402e-05
1.21375e-05
1.06769e-05
4.50127e-06
3.70265e-06
1.21345e-05
1.06818e-05
4.50589e-06
2.24053e-05
8.91833e-06
7.21774e-06
7.21866e-06
2.24065e-05
2.24162e-05
7.21795e-06
8.91805e-06
2.24149e-05
7.21723e-06
1.21377e-05
3.71602e-06
1.06872e-05
4.51936e-06
1.06823e-05
4.51488e-06
1.21405e-05
9.73159e-06
2.19133e-05
2.19134e-05
2.1913e-05
2.19131e-05
9.7299e-06
3.97053e-06
1.92868e-06
9.04257e-06
5.14062e-06
9.04748e-06
3.96448e-06
1.93536e-06
3.96357e-06
1.92697e-06
9.03759e-06
5.13887e-06
1.93384e-06
3.9575e-06
9.04246e-06
9.72944e-06
2.19231e-05
2.19232e-05
2.19234e-05
9.73099e-06
2.19234e-05
3.98079e-06
9.05468e-06
5.14663e-06
1.95649e-06
9.05e-06
1.94961e-06
3.98653e-06
3.97377e-06
9.04971e-06
5.14475e-06
1.9549e-06
1.94791e-06
9.04498e-06
3.97948e-06
1.84686e-05
1.84617e-05
1.84489e-05
1.84557e-05
9.73013e-06
2.19031e-05
2.19032e-05
9.73195e-06
2.19034e-05
2.19035e-05
4.01168e-06
1.99754e-06
5.16463e-06
9.06849e-06
1.9907e-06
9.06414e-06
4.01707e-06
4.0047e-06
1.99585e-06
5.16203e-06
9.06349e-06
9.05916e-06
1.98906e-06
4.01001e-06
4.00218e-06
9.05717e-06
1.97057e-06
5.15827e-06
1.9773e-06
3.99656e-06
9.06175e-06
3.99518e-06
9.05221e-06
1.96885e-06
5.1565e-06
3.98959e-06
9.05675e-06
1.97561e-06
9.73209e-06
2.18936e-05
2.18937e-05
2.18932e-05
2.18933e-05
9.73017e-06
1.84471e-05
1.84538e-05
1.21314e-05
3.67512e-06
4.49121e-06
1.0676e-05
4.48698e-06
1.06726e-05
1.21344e-05
2.24358e-05
7.21523e-06
8.91223e-06
7.21484e-06
2.24344e-05
1.21311e-05
3.65929e-06
4.4715e-06
1.06673e-05
4.47598e-06
1.2128e-05
1.06707e-05
2.24248e-05
7.21617e-06
8.91328e-06
7.21675e-06
2.24261e-05
1.21312e-05
3.67445e-06
4.49145e-06
1.06768e-05
4.4872e-06
1.06718e-05
1.21343e-05
2.24356e-05
7.21726e-06
8.91328e-06
2.24343e-05
7.21688e-06
1.2131e-05
3.65986e-06
4.47148e-06
1.06667e-05
1.21279e-05
4.47655e-06
1.06715e-05
2.24247e-05
7.21819e-06
8.91434e-06
7.21876e-06
2.2426e-05
1.21375e-05
4.5015e-06
1.06779e-05
3.70293e-06
1.21346e-05
4.5058e-06
1.06814e-05
2.24054e-05
8.9189e-06
7.21761e-06
7.21857e-06
2.24066e-05
2.24164e-05
7.21786e-06
8.91792e-06
2.24151e-05
7.21709e-06
1.21377e-05
3.71602e-06
4.51928e-06
1.06868e-05
4.51476e-06
1.06833e-05
1.21405e-05
1.21374e-05
4.50191e-06
1.06773e-05
3.7032e-06
1.21345e-05
4.50575e-06
1.06823e-05
2.24054e-05
8.91996e-06
7.2196e-06
7.22055e-06
2.24065e-05
2.24163e-05
7.21985e-06
8.91898e-06
2.2415e-05
7.2191e-06
1.21376e-05
3.71601e-06
4.51909e-06
1.06877e-05
4.51556e-06
1.06827e-05
1.21404e-05
1.84686e-05
1.84616e-05
1.84701e-05
1.84631e-05
9.72972e-06
2.19029e-05
2.19023e-05
9.73156e-06
2.19032e-05
2.19026e-05
4.00464e-06
1.99579e-06
5.16207e-06
9.06353e-06
1.98946e-06
9.05919e-06
4.00996e-06
4.01261e-06
1.99748e-06
5.16396e-06
9.06864e-06
1.99057e-06
9.06351e-06
4.01557e-06
3.99506e-06
9.05223e-06
1.9693e-06
5.15652e-06
3.98953e-06
1.97523e-06
9.05677e-06
4.00055e-06
9.0566e-06
1.97039e-06
5.15845e-06
3.99738e-06
1.97729e-06
9.06183e-06
9.73171e-06
2.18934e-05
2.18928e-05
2.18931e-05
2.18925e-05
9.72977e-06
1.84471e-05
1.84539e-05
1.84486e-05
1.84553e-05
1.1759e-07
1.1759e-07
1.32877e-07
1.16486e-07
1.16487e-07
1.09885e-07
1.11178e-07
1.74062e-06
7.66105e-07
7.66516e-07
3.58114e-07
1.73349e-06
7.71248e-07
7.71446e-07
1.71112e-06
3.51166e-07
7.56192e-07
7.56461e-07
7.50987e-07
7.51381e-07
1.71715e-06
1.71132e-06
3.50973e-07
7.56447e-07
7.5491e-07
7.51353e-07
7.52188e-07
1.71819e-06
1.7115e-06
3.51543e-07
7.55155e-07
7.56018e-07
7.52628e-07
7.51239e-07
1.71824e-06
1.7106e-06
3.51225e-07
7.56387e-07
7.56447e-07
1.71826e-06
7.51148e-07
7.51546e-07
1.73999e-06
7.65994e-07
7.66431e-07
3.58117e-07
1.73384e-06
7.70925e-07
7.71475e-07
1.79885e-06
3.76616e-07
8.16786e-07
8.1666e-07
8.11325e-07
8.11871e-07
1.80442e-06
1.74032e-06
7.66344e-07
7.67027e-07
3.57805e-07
7.69768e-07
1.73314e-06
7.71204e-07
1.79827e-06
3.76183e-07
8.16843e-07
8.15279e-07
8.11615e-07
8.12614e-07
1.80513e-06
1.74053e-06
7.67403e-07
7.66253e-07
3.57518e-07
7.70886e-07
1.73339e-06
7.70163e-07
1.79844e-06
3.76767e-07
8.15783e-07
8.16558e-07
8.12982e-07
8.11606e-07
1.80536e-06
1.79842e-06
3.76263e-07
8.16697e-07
8.16942e-07
8.11472e-07
8.11766e-07
1.80521e-06
1.34884e-07
1.1873e-07
1.18731e-07
1.19906e-07
1.19905e-07
1.1385e-07
1.125e-07
1.34874e-07
1.18728e-07
1.18725e-07
1.19904e-07
1.19901e-07
1.13849e-07
1.12498e-07
1.34885e-07
1.18735e-07
1.18729e-07
1.1991e-07
1.19903e-07
1.13851e-07
1.125e-07
1.34874e-07
1.18729e-07
1.18725e-07
1.19905e-07
1.19901e-07
1.13849e-07
1.12499e-07
1.17589e-07
1.17585e-07
1.32869e-07
1.16484e-07
1.16481e-07
1.09884e-07
1.11177e-07
1.17595e-07
1.17588e-07
1.32882e-07
1.16491e-07
1.16485e-07
1.09886e-07
1.11179e-07
1.17589e-07
1.17585e-07
1.32871e-07
1.16485e-07
1.16481e-07
1.09884e-07
1.11177e-07
1.32308e-07
1.14385e-07
1.14386e-07
1.15418e-07
1.15417e-07
1.0862e-07
1.07383e-07
1.32297e-07
1.14383e-07
1.1438e-07
1.15417e-07
1.15413e-07
1.08619e-07
1.07382e-07
1.32309e-07
1.1439e-07
1.14383e-07
1.15423e-07
1.15415e-07
1.08621e-07
1.07384e-07
1.32298e-07
1.14384e-07
1.1438e-07
1.15417e-07
1.15413e-07
1.0862e-07
1.07382e-07
4.77153e-07
1.1514e-06
1.4748e-06
3.8823e-07
1.46896e-06
3.87283e-07
4.77486e-07
6.57018e-07
1.00065e-06
2.07546e-06
2.80308e-06
6.53414e-07
1.00471e-06
2.08034e-06
4.68647e-07
1.1358e-06
1.44697e-06
3.80096e-07
4.68387e-07
1.45285e-06
3.80995e-07
6.65186e-07
2.10089e-06
2.8176e-06
1.02212e-06
1.0176e-06
2.09622e-06
6.68589e-07
4.76027e-07
1.15141e-06
3.88953e-07
1.47518e-06
3.86608e-07
1.46836e-06
4.78852e-07
6.56933e-07
1.00087e-06
2.07497e-06
2.80486e-06
6.53324e-07
1.0047e-06
2.0803e-06
4.69866e-07
1.13593e-06
3.79589e-07
1.44633e-06
4.67148e-07
3.81717e-07
1.45329e-06
6.65117e-07
2.10127e-06
2.8166e-06
1.02164e-06
1.01791e-06
2.09567e-06
6.68513e-07
1.75553e-06
3.633e-07
7.86451e-07
7.86711e-07
7.81355e-07
7.81664e-07
1.76234e-06
1.69552e-06
3.4612e-07
7.3589e-07
7.36429e-07
1.6878e-06
7.41144e-07
7.41339e-07
4.5271e-07
1.40117e-06
3.66708e-07
1.09396e-06
4.4983e-07
1.40901e-06
3.67475e-07
6.41917e-07
9.89044e-07
2.77923e-06
2.06039e-06
9.82826e-07
2.0526e-06
6.45189e-07
6.34126e-07
2.03108e-06
9.65482e-07
2.76691e-06
9.71952e-07
6.30469e-07
2.03862e-06
4.58279e-07
1.10797e-06
1.43151e-06
3.74153e-07
1.42374e-06
3.7329e-07
4.60903e-07
4.51649e-07
1.4023e-06
3.66048e-07