/*--------------------------------*- C++ -*----------------------------------*\
| =========                 |                                                 |
| \\      /  F ield         | OpenFOAM: The Open Source CFD Toolbox           |
|  \\    /   O peration     | Version:  v1906                                 |
|   \\  /    A nd           | Web:      www.OpenFOAM.com                      |
|    \\/     M anipulation  |                                                 |
\*---------------------------------------------------------------------------*/
FoamFile
{
    version     2.0;
    format      ascii;
    class       volScalarField;
    location    "450";
    object      k;
}
// * * * * * * * * * * * * * * * * * * * * * * * * * * * * * * * * * * * * * //

dimensions      [0 2 -2 0 0 0 0];


internalField   nonuniform List<scalar> 
43248
(
4.17634e-05
3.64592e-05
3.64587e-05
4.1786e-05
3.6456e-05
3.64607e-05
3.64568e-05
3.64645e-05
4.17875e-05
3.64598e-05
3.64625e-05
4.17873e-05
2.08499e-05
2.08494e-05
2.08535e-05
2.08554e-05
6.95315e-05
6.95344e-05
6.68947e-05
6.69044e-05
6.46104e-05
7.13535e-05
6.47094e-05
6.46121e-05
7.1359e-05
7.13228e-05
6.4711e-05
5.30923e-05
6.01867e-05
2.88297e-05
2.85846e-05
5.32931e-05
5.30935e-05
3.62269e-05
6.01907e-05
2.88306e-05
6.00678e-05
2.85858e-05
5.32944e-05
6.95337e-05
6.95077e-05
4.15797e-05
6.69052e-05
6.6889e-05
6.68406e-05
6.68293e-05
6.95298e-05
6.95037e-05
7.13604e-05
6.47132e-05
6.01917e-05
2.88326e-05
5.32966e-05
7.13543e-05
6.47116e-05
2.88336e-05
6.01846e-05
5.32954e-05
5.30972e-05
3.6225e-05
6.01853e-05
2.8831e-05
6.00672e-05
2.85863e-05
5.32963e-05
6.46161e-05
7.13577e-05
7.13215e-05
6.47109e-05
5.30953e-05
3.62325e-05
2.88344e-05
6.01883e-05
2.85896e-05
6.00664e-05
5.32943e-05
6.46137e-05
7.13547e-05
7.13212e-05
6.47096e-05
6.9533e-05
6.68964e-05
6.68939e-05
6.95322e-05
5.30963e-05
2.88356e-05
6.01881e-05
2.85906e-05
5.32978e-05
5.30975e-05
3.62307e-05
2.88375e-05
6.01936e-05
2.85926e-05
6.00708e-05
5.32981e-05
6.46156e-05
7.13556e-05
6.47126e-05
6.46164e-05
7.13592e-05
7.13257e-05
6.47129e-05
4.15794e-05
6.68942e-05
6.69073e-05
6.68338e-05
6.6844e-05
6.95327e-05
6.95068e-05
6.95355e-05
6.95096e-05
6.9519e-05
6.95219e-05
7.00275e-05
5.93315e-05
6.68775e-05
7.1136e-05
7.11192e-05
5.92667e-05
7.00678e-05
7.00865e-05
5.93251e-05
6.68854e-05
7.1145e-05
7.11307e-05
5.9285e-05
7.00998e-05
9.23388e-05
7.20369e-05
7.20301e-05
7.20228e-05
7.20164e-05
9.23501e-05
7.01262e-05
6.98233e-05
6.81174e-05
6.46511e-05
7.01159e-05
6.9832e-05
6.81528e-05
7.01853e-05
7.13383e-05
7.73857e-05
7.73673e-05
7.01998e-05
7.01289e-05
6.46698e-05
6.98456e-05
6.82025e-05
6.98368e-05
6.81678e-05
7.01392e-05
7.01289e-05
6.98218e-05
6.81248e-05
6.46533e-05
7.01176e-05
6.98345e-05
6.81613e-05
7.01879e-05
7.13432e-05
7.74089e-05
7.73876e-05
7.0202e-05
7.01921e-05
7.73585e-05
7.13382e-05
7.01782e-05
7.73796e-05
7.01306e-05
6.46722e-05
6.98484e-05
6.82094e-05
6.98354e-05
6.8176e-05
7.0142e-05
6.95211e-05
6.95201e-05
9.23136e-05
7.20052e-05
7.20106e-05
9.23016e-05
7.20191e-05
7.20245e-05
7.0083e-05
5.93303e-05
6.68859e-05
7.11455e-05
5.92797e-05
7.11295e-05
7.01045e-05
7.00319e-05
5.93207e-05
6.68745e-05
7.11333e-05
7.11187e-05
5.92715e-05
7.00531e-05
7.0039e-05
7.11052e-05
5.9181e-05
6.68602e-05
5.92322e-05
7.00176e-05
7.11229e-05
6.99875e-05
7.10952e-05
5.91727e-05
6.68442e-05
6.99661e-05
7.11102e-05
5.92223e-05
9.23362e-05
7.20302e-05
7.20356e-05
7.20163e-05
7.20217e-05
9.23489e-05
6.95172e-05
6.95163e-05
7.01887e-05
7.13448e-05
7.74078e-05
7.73872e-05
7.02027e-05
7.01316e-05
6.46724e-05
6.82105e-05
6.98481e-05
6.81748e-05
6.98393e-05
7.01436e-05
7.01858e-05
7.1341e-05
7.7386e-05
7.7366e-05
7.02004e-05
7.01295e-05
6.46698e-05
6.98494e-05
6.82036e-05
6.98364e-05
6.81664e-05
7.01411e-05
7.01275e-05
6.8127e-05
6.98241e-05
6.4653e-05
7.0118e-05
6.81579e-05
6.98327e-05
7.0187e-05
7.13421e-05
7.74044e-05
7.73866e-05
7.0201e-05
7.01912e-05
7.73575e-05
7.13368e-05
7.01773e-05
7.73755e-05
7.01309e-05
6.46745e-05
6.82068e-05
6.98463e-05
6.81766e-05
6.98376e-05
7.01405e-05
7.01276e-05
6.98236e-05
6.81196e-05
6.46518e-05
7.01169e-05
6.98324e-05
6.81561e-05
7.01868e-05
7.13419e-05
7.73877e-05
7.737e-05
7.02008e-05
7.01909e-05
7.73408e-05
7.13342e-05
7.01771e-05
7.73588e-05
7.01296e-05
6.46728e-05
6.98459e-05
6.82059e-05
6.98372e-05
6.81697e-05
7.0141e-05
6.95204e-05
7.00837e-05
5.93286e-05
6.68818e-05
7.11437e-05
5.928e-05
7.1129e-05
7.01047e-05
7.00343e-05
5.93242e-05
6.68764e-05
7.11366e-05
7.11182e-05
5.92723e-05
7.00553e-05
9.23424e-05
7.20307e-05
7.20369e-05
7.20167e-05
7.2023e-05
9.23508e-05
6.95197e-05
7.0127e-05
6.81202e-05
6.98248e-05
6.46535e-05
7.01172e-05
6.8154e-05
6.98334e-05
7.01866e-05
7.13399e-05
7.73876e-05
7.73677e-05
7.02006e-05
7.01908e-05
7.73582e-05
7.01301e-05
6.46723e-05
6.82048e-05
6.9847e-05
6.81682e-05
6.98383e-05
7.01399e-05
7.01285e-05
6.81267e-05
6.98252e-05
6.46546e-05
7.01186e-05
6.8158e-05
6.98338e-05
7.01879e-05
7.13464e-05
7.74042e-05
7.73862e-05
7.02025e-05
7.01927e-05
7.7357e-05
7.13387e-05
7.01782e-05
7.73755e-05
7.01317e-05
6.46748e-05
6.82069e-05
6.98474e-05
6.81763e-05
6.98387e-05
7.01414e-05
9.23187e-05
7.20129e-05
7.20068e-05
9.23068e-05
7.20268e-05
7.20207e-05
7.00344e-05
5.93241e-05
6.6879e-05
7.11374e-05
5.9273e-05
7.1119e-05
7.00558e-05
7.00871e-05
5.93356e-05
6.6889e-05
7.11487e-05
5.92833e-05
7.11303e-05
7.01083e-05
6.99903e-05
7.10958e-05
5.91744e-05
6.68492e-05
6.99687e-05
5.92257e-05
7.11137e-05
7.00429e-05
7.1107e-05
5.91847e-05
6.68623e-05
7.00215e-05
5.92375e-05
7.1125e-05
9.23414e-05
7.20379e-05
7.20319e-05
7.2024e-05
7.20179e-05
9.23541e-05
6.95203e-05
6.95192e-05
6.95231e-05
6.95219e-05
5.95164e-05
4.17532e-05
5.05031e-05
5.04945e-05
5.04605e-05
5.04692e-05
5.95491e-05
5.95153e-05
4.17582e-05
5.05044e-05
5.05094e-05
5.04672e-05
5.04655e-05
5.95491e-05
5.95158e-05
4.17608e-05
5.05105e-05
5.05043e-05
5.04612e-05
5.04635e-05
5.95487e-05
5.95183e-05
4.17664e-05
5.05081e-05
5.0515e-05
5.0466e-05
5.04661e-05
5.95513e-05
1.49214e-05
1.49211e-05
1.481e-05
1.07955e-05
1.08225e-05
2.06645e-05
1.49213e-05
1.49199e-05
1.48099e-05
1.48086e-05
1.07953e-05
1.08222e-05
1.49243e-05
1.49235e-05
1.48121e-05
1.07967e-05
1.08237e-05
2.06704e-05
1.49243e-05
1.49239e-05
1.48128e-05
1.48125e-05
1.07968e-05
1.08237e-05
4.55475e-05
5.54143e-05
4.35622e-05
5.31725e-05
4.55225e-05
5.54886e-05
4.36102e-05
4.80435e-05
5.25225e-05
6.01385e-05
5.85125e-05
5.24729e-05
5.84539e-05
4.80884e-05
4.56945e-05
5.3215e-05
5.55995e-05
4.37727e-05
5.55262e-05
4.37517e-05
4.57219e-05
4.55583e-05
5.54206e-05
4.35654e-05
5.31744e-05
4.55254e-05
5.54952e-05
4.36128e-05
4.80529e-05
5.25146e-05
6.01425e-05
5.85212e-05
5.84627e-05
5.24821e-05
4.80829e-05
4.79362e-05
5.83692e-05
5.23491e-05
6.01168e-05
4.78974e-05
5.84286e-05
5.23896e-05
4.57e-05
5.32174e-05
5.56034e-05
4.37745e-05
5.55342e-05
4.37547e-05
4.57068e-05
5.94419e-05
4.15788e-05
5.03232e-05
5.03211e-05
5.03532e-05
5.94103e-05
5.03523e-05
4.80504e-05
5.25223e-05
6.01445e-05
5.85221e-05
5.24833e-05
5.84626e-05
4.80949e-05
4.57048e-05
5.32169e-05
5.56051e-05
4.38003e-05
5.55328e-05
4.37462e-05
4.573e-05
4.80453e-05
5.25242e-05
6.01421e-05
5.85124e-05
5.84535e-05
5.24767e-05
4.80906e-05
4.5697e-05
5.32147e-05
4.37992e-05
5.56001e-05
4.3745e-05
5.55266e-05
4.57265e-05
4.55342e-05
5.54226e-05
4.35817e-05
5.31756e-05
4.55355e-05
5.54918e-05
4.35994e-05
4.80599e-05
5.25154e-05
6.01417e-05
5.85187e-05
5.24819e-05
5.84611e-05
4.80716e-05
4.79219e-05
5.83679e-05
5.23506e-05
6.01111e-05
4.79069e-05
5.23844e-05
5.84264e-05
4.5712e-05
5.32194e-05
5.56011e-05
4.37803e-05
5.55349e-05
4.37636e-05
4.56972e-05
4.55549e-05
4.35706e-05
5.54199e-05
5.31744e-05
4.55299e-05
4.35949e-05
5.54919e-05
4.80478e-05
5.2523e-05
6.01411e-05
5.85158e-05
5.84572e-05
5.24786e-05
4.80942e-05
4.79349e-05
5.83638e-05
5.23485e-05
6.0114e-05
4.7896e-05
5.8423e-05
5.23897e-05
4.56992e-05
5.32185e-05
4.37769e-05
5.56028e-05
4.37593e-05
5.55306e-05
4.5727e-05
4.55332e-05
4.35685e-05
5.54193e-05
5.31763e-05
4.55354e-05
4.3616e-05
5.54891e-05
4.80445e-05
5.25249e-05
6.01394e-05
5.85142e-05
5.24754e-05
5.84545e-05
4.80901e-05
4.7931e-05
5.8421e-05
4.5702e-05
5.32181e-05
4.3802e-05
5.56011e-05
4.37505e-05
5.55284e-05
4.57279e-05
4.55359e-05
4.35828e-05
5.54236e-05
5.31769e-05
4.55416e-05
4.36006e-05
5.54946e-05
4.80649e-05
5.25187e-05
6.01454e-05
5.85211e-05
5.84637e-05
5.24898e-05
4.80761e-05
4.79257e-05
5.83705e-05
5.23576e-05
6.01194e-05
4.7912e-05
5.84288e-05
5.23874e-05
4.57236e-05
5.32196e-05
4.37831e-05
5.56056e-05
4.37656e-05
5.55343e-05
4.57096e-05
5.94451e-05
4.15883e-05
5.03228e-05
5.03234e-05
5.94129e-05
5.0354e-05
5.03619e-05
1.49184e-05
1.61055e-05
1.61062e-05
1.80808e-05
1.79862e-05
1.6087e-05
1.60862e-05
1.79697e-05
1.60873e-05
1.60869e-05
1.60863e-05
1.6086e-05
1.79713e-05
1.60868e-05
1.60862e-05
1.79809e-05
1.80791e-05
1.8557e-05
1.61058e-05
1.61056e-05
1.61981e-05
1.61971e-05
1.8089e-05
1.85389e-05
1.61071e-05
1.61063e-05
1.61976e-05
1.61979e-05
1.61055e-05
1.61967e-05
1.61969e-05
1.80897e-05
1.85383e-05
1.61057e-05
1.61974e-05
1.6197e-05
1.85382e-05
1.50069e-05
1.50066e-05
1.50068e-05
1.50064e-05
5.35096e-05
7.00396e-05
5.29558e-05
7.00639e-05
6.96365e-05
6.96165e-05
5.35186e-05
7.00439e-05
5.29532e-05
7.00722e-05
1.49181e-05
1.49183e-05
1.49179e-05
1.46702e-05
1.46698e-05
1.46701e-05
1.46697e-05
2.93517e-05
4.5207e-05
1.48829e-05
1.61301e-05
2.8783e-05
4.56157e-05
1.48319e-05
6.96359e-05
6.9616e-05
2.93519e-05
1.4883e-05
4.52034e-05
1.61308e-05
2.8784e-05
1.48319e-05
4.56253e-05
5.90535e-05
5.9065e-05
1.82366e-05
5.928e-05
5.92904e-05
6.96524e-05
6.96736e-05
6.96543e-05
6.96752e-05
1.78226e-05
5.89325e-05
5.89462e-05
5.86942e-05
5.87055e-05
5.21543e-05
7.00334e-05
7.00085e-05
5.27543e-05
5.21556e-05
7.00411e-05
7.00116e-05
5.27576e-05
2.794e-05
1.60732e-05
4.49873e-05
1.49369e-05
4.45601e-05
1.49962e-05
2.84954e-05
2.79367e-05
1.60729e-05
4.49949e-05
1.49366e-05
4.45572e-05
1.4996e-05
2.84995e-05
6.96543e-05
6.96752e-05
1.78357e-05
5.89462e-05
5.89316e-05
5.87066e-05
5.86925e-05
6.96518e-05
6.96729e-05
5.21509e-05
7.00418e-05
7.00122e-05
5.27644e-05
2.79406e-05
1.60742e-05
4.49959e-05
1.49376e-05
4.45596e-05
1.4997e-05
2.84987e-05
5.21499e-05
7.00363e-05
7.00067e-05
5.27625e-05
2.79412e-05
1.60736e-05
1.49374e-05
4.4993e-05
1.49967e-05
4.45591e-05
2.85026e-05
2.79344e-05
1.60731e-05
4.49843e-05
1.49368e-05
4.45572e-05
1.49962e-05
2.85009e-05
5.21546e-05
7.00387e-05
7.00138e-05
5.27565e-05
2.79329e-05
1.60726e-05
1.49366e-05
4.49885e-05
1.4996e-05
4.45597e-05
2.84993e-05
5.21545e-05
7.00345e-05
7.00093e-05
5.27547e-05
6.96538e-05
6.96746e-05
1.78363e-05
5.8944e-05
5.89356e-05
5.87022e-05
5.86955e-05
6.9653e-05
6.96741e-05
2.79362e-05
1.60735e-05
1.49368e-05
4.49947e-05
1.49963e-05
4.45521e-05
2.85029e-05
2.79363e-05
1.60728e-05
1.49369e-05
4.49964e-05
1.49963e-05
4.45607e-05
2.84998e-05
5.21485e-05
7.00368e-05
7.00071e-05
5.27668e-05
5.21504e-05
7.00417e-05
7.00122e-05
5.27681e-05
1.78207e-05
5.89354e-05
5.89463e-05
5.86958e-05
5.87065e-05
6.96524e-05
6.96736e-05
6.96544e-05
6.96755e-05
6.96347e-05
6.96145e-05
6.96366e-05
6.96165e-05
5.90522e-05
5.90641e-05
1.82564e-05
5.92771e-05
5.92907e-05
6.95781e-05
6.95972e-05
6.95801e-05
6.95993e-05
1.83618e-05
5.96033e-05
5.9613e-05
5.93891e-05
5.9402e-05
5.35128e-05
7.00434e-05
5.29571e-05
7.00716e-05
2.93464e-05
4.52082e-05
1.48831e-05
1.61312e-05
2.87874e-05
4.56179e-05
1.48322e-05
2.93512e-05
4.52105e-05
1.48828e-05
1.61303e-05
2.87856e-05
4.56267e-05
1.48318e-05
5.36914e-05
7.00929e-05
7.00698e-05
5.42012e-05
5.36929e-05
7.01002e-05
7.00736e-05
5.42041e-05
2.964e-05
1.61612e-05
4.62244e-05
1.47445e-05
4.58311e-05
1.47869e-05
3.01999e-05
2.96377e-05
1.61611e-05
4.62317e-05
1.4744e-05
4.58338e-05
1.47866e-05
3.02042e-05
5.90649e-05
5.90512e-05
1.82393e-05
5.92905e-05
5.92764e-05
6.96341e-05
6.9614e-05
6.95803e-05
6.95993e-05
1.83728e-05
5.96146e-05
5.96008e-05
5.94025e-05
5.93892e-05
6.95776e-05
6.95967e-05
2.93494e-05
4.52089e-05
1.48838e-05
1.61312e-05
2.87898e-05
4.56276e-05
1.48328e-05
5.35171e-05
7.00386e-05
5.29519e-05
7.00669e-05
2.93541e-05
1.48836e-05
4.52075e-05
1.61311e-05
2.87862e-05
1.48326e-05
4.56243e-05
5.36895e-05
7.01008e-05
7.00741e-05
5.42095e-05
2.9644e-05
1.61626e-05
4.62325e-05
1.47451e-05
4.58323e-05
1.47877e-05
3.0203e-05
5.36884e-05
7.00956e-05
7.00688e-05
5.42082e-05
2.96388e-05
1.61618e-05
1.47449e-05
4.62324e-05
1.47874e-05
4.58315e-05
3.02085e-05
5.3512e-05
7.00446e-05
5.29567e-05
7.00692e-05
2.93483e-05
1.48828e-05
4.52091e-05
1.61302e-05
2.87828e-05
1.48318e-05
4.56202e-05
5.35102e-05
7.00404e-05
5.29564e-05
7.00652e-05
2.9636e-05
1.61608e-05
4.6221e-05
1.4744e-05
4.58296e-05
1.47866e-05
3.02025e-05
5.36933e-05
7.00978e-05
7.00749e-05
5.42036e-05
2.96381e-05
1.61609e-05
1.47441e-05
4.62272e-05
1.47866e-05
4.58325e-05
3.02004e-05
5.36932e-05
7.0094e-05
7.00708e-05
5.42021e-05
5.90609e-05
5.90532e-05
1.82405e-05
5.92886e-05
5.92797e-05
6.96353e-05
6.96151e-05
6.95797e-05
6.95987e-05
1.83731e-05
5.96122e-05
5.96036e-05
5.93989e-05
5.93907e-05
6.95787e-05
6.95979e-05
2.93507e-05
1.48832e-05
4.52087e-05
1.61303e-05
2.87878e-05
1.48322e-05
4.56287e-05
5.35213e-05
7.0039e-05
5.29511e-05
7.00674e-05
5.35228e-05
7.0044e-05
5.29529e-05
7.00723e-05
2.96388e-05
1.61615e-05
1.47441e-05
4.62306e-05
1.47867e-05
4.58273e-05
3.02038e-05
2.96414e-05
1.6161e-05
1.47445e-05
4.6234e-05
1.4787e-05
4.58321e-05
3.02048e-05
5.36882e-05
7.00961e-05
7.00693e-05
5.42124e-05
5.36898e-05
7.01009e-05
7.00742e-05
5.42139e-05
6.96348e-05
6.96146e-05
6.96368e-05
6.96166e-05
1.83688e-05
5.9604e-05
5.96146e-05
5.93907e-05
5.94023e-05
6.95783e-05
6.95975e-05
6.95803e-05
6.95995e-05
6.98493e-05
5.33316e-05
6.9181e-05
5.95611e-05
6.91665e-05
5.93952e-05
6.98607e-05
7.09926e-05
7.40123e-05
7.00489e-05
7.09893e-05
7.40773e-05
6.98482e-05
5.31401e-05
6.91442e-05
5.91231e-05
6.98365e-05
6.91584e-05
5.92943e-05
7.0969e-05
7.41747e-05
7.00547e-05
7.41127e-05
7.09722e-05
6.96352e-05
6.96177e-05
6.98515e-05
5.33293e-05
5.95716e-05
6.91822e-05
5.93982e-05
6.91676e-05
6.9863e-05
7.09957e-05
7.40303e-05
7.00573e-05
7.09928e-05
7.4105e-05
6.98504e-05
5.31494e-05
5.91257e-05
6.91452e-05
6.98386e-05
5.93051e-05
6.91596e-05
7.09725e-05
7.42023e-05
7.00591e-05
7.41304e-05
7.09753e-05
6.96347e-05
6.96171e-05
8.75159e-05
7.24408e-05
7.24349e-05
7.24401e-05
7.24342e-05
8.75909e-05
5.70417e-05
3.89741e-05
6.88078e-05
5.91102e-05
5.69456e-05
3.91039e-05
6.88361e-05
5.71064e-05
3.89946e-05
6.88217e-05
5.91209e-05
5.70117e-05
3.91191e-05
6.88466e-05
8.74848e-05
7.24621e-05
7.24563e-05
8.74067e-05
7.24628e-05
7.24569e-05
5.72299e-05
6.88727e-05
5.92245e-05
3.94901e-05
3.93635e-05
6.88453e-05
5.73226e-05
5.7296e-05
6.88829e-05
5.92361e-05
3.95069e-05
3.93835e-05
6.88593e-05
5.73884e-05
6.9654e-05
6.96719e-05
6.96557e-05
6.96738e-05
8.7257e-05
7.25069e-05
7.25005e-05
8.71762e-05
7.25075e-05
7.25012e-05
5.66579e-05
3.87111e-05
5.88761e-05
6.87967e-05
6.87695e-05
3.85792e-05
5.67477e-05
5.67245e-05
3.87269e-05
5.88877e-05
6.88102e-05
6.8781e-05
3.86013e-05
5.68152e-05
5.645e-05
6.87304e-05
3.81784e-05
5.87524e-05
5.63558e-05
6.87573e-05
3.83102e-05
5.65174e-05
6.87408e-05
3.82006e-05
5.8766e-05
5.64238e-05
6.87707e-05
3.83281e-05
8.72929e-05
7.24851e-05
7.24788e-05
7.24845e-05
7.2478e-05
8.73719e-05
6.98218e-05
6.91015e-05
5.85414e-05
5.23516e-05
6.98099e-05
6.91142e-05
5.87225e-05
7.10094e-05
7.00238e-05
7.3974e-05
7.10129e-05
7.39041e-05
7.10331e-05
7.37907e-05
7.00178e-05
7.10295e-05
7.3866e-05
6.98233e-05
5.25632e-05
6.9136e-05
5.90148e-05
6.98352e-05
6.91216e-05
5.88383e-05
6.98241e-05
6.91021e-05
5.85454e-05
5.23551e-05
6.9812e-05
6.9115e-05
5.87357e-05
7.10132e-05
7.00275e-05
7.40038e-05
7.39249e-05
7.10162e-05
7.10365e-05
7.3813e-05
7.00254e-05
7.10334e-05
7.3895e-05
6.98255e-05
5.25647e-05
6.91363e-05
5.90276e-05
6.91224e-05
5.8843e-05
6.98375e-05
6.96557e-05
6.96737e-05
8.72551e-05
7.25015e-05
7.25065e-05
8.71779e-05
7.25021e-05
7.25071e-05
5.67212e-05
3.87255e-05
5.88887e-05
6.88083e-05
3.86e-05
6.87835e-05
5.68127e-05
5.66546e-05
3.87053e-05
5.88747e-05
6.87958e-05
6.87709e-05
3.85783e-05
5.67461e-05
5.65172e-05
6.87437e-05
3.81993e-05
5.87661e-05
3.83267e-05
5.64204e-05
6.87692e-05
5.64511e-05
6.8731e-05
3.81768e-05
5.87518e-05
5.63542e-05
6.87568e-05
3.83086e-05
8.72944e-05
7.24797e-05
7.24847e-05
7.24791e-05
7.24841e-05
8.73699e-05
6.96533e-05
6.96713e-05
6.9824e-05
5.8543e-05
6.91026e-05
5.23619e-05
6.98119e-05
5.87343e-05
6.91154e-05
7.1013e-05
7.00278e-05
7.40015e-05
7.10161e-05
7.39212e-05
7.10363e-05
7.3811e-05
7.00258e-05
7.10332e-05
7.38925e-05
6.98254e-05
5.25603e-05
5.90263e-05
6.91371e-05
6.98374e-05
5.88404e-05
6.91226e-05
6.98218e-05
6.91017e-05
5.85419e-05
5.23601e-05
6.98098e-05
6.91146e-05
5.87237e-05
7.1009e-05
7.00225e-05
7.39786e-05
7.38991e-05
7.10127e-05
7.10329e-05
7.3786e-05
7.00206e-05
7.10291e-05
7.38695e-05
6.98232e-05
5.25593e-05
6.91359e-05
5.90161e-05
6.91219e-05
5.88389e-05
6.98352e-05
6.98236e-05
5.85423e-05
6.90974e-05
5.23541e-05
6.98112e-05
5.87326e-05
6.91176e-05
7.10127e-05
7.00291e-05
7.39955e-05
7.3927e-05
7.10157e-05
7.1036e-05
7.38147e-05
7.00232e-05
7.10329e-05
7.38879e-05
6.98247e-05
5.25641e-05
5.90247e-05
6.91391e-05
5.88399e-05
6.91188e-05
6.98369e-05
6.98218e-05
6.91012e-05
5.85397e-05
5.2352e-05
6.98097e-05
6.91141e-05
5.87277e-05
7.10101e-05
7.00248e-05
7.3976e-05
7.39081e-05
7.10131e-05
7.10333e-05
7.37939e-05
7.0019e-05
7.10302e-05
7.38689e-05
6.98232e-05
5.25636e-05
6.91354e-05
5.902e-05
6.91215e-05
5.88373e-05
6.98352e-05
6.96551e-05
6.96732e-05
8.72608e-05
7.25015e-05
7.25073e-05
8.71807e-05
7.25022e-05
7.25079e-05
5.67227e-05
3.8727e-05
5.88844e-05
6.88097e-05
3.86006e-05
6.87804e-05
5.68169e-05
5.66587e-05
3.87085e-05
5.88772e-05
6.87982e-05
6.87691e-05
3.8581e-05
5.67508e-05
5.65229e-05
6.87403e-05
3.81988e-05
5.87634e-05
3.83288e-05
5.6422e-05
6.87702e-05
5.64537e-05
6.87291e-05
3.81806e-05
5.87552e-05
5.63589e-05
6.87589e-05
3.8312e-05
8.72997e-05
7.24798e-05
7.24855e-05
7.24791e-05
7.24849e-05
8.73745e-05
6.96545e-05
6.96725e-05
6.98223e-05
5.8538e-05
6.90973e-05
5.23648e-05
6.98099e-05
5.87296e-05
6.91177e-05
7.10109e-05
7.0023e-05
7.39798e-05
7.39006e-05
7.1014e-05
7.10343e-05
7.37887e-05
7.0021e-05
7.10311e-05
7.38708e-05
6.98235e-05
5.25582e-05
5.90215e-05
6.91394e-05
5.88357e-05
6.91189e-05
6.98357e-05
6.98237e-05
5.85434e-05
6.91023e-05
5.2366e-05
6.98116e-05
5.87368e-05
6.91154e-05
7.10126e-05
7.00279e-05
7.4e-05
7.39217e-05
7.10157e-05
7.10359e-05
7.38102e-05
7.00259e-05
7.10329e-05
7.38915e-05
6.98251e-05
5.256e-05
5.90287e-05
6.91368e-05
5.88411e-05
6.91227e-05
6.98372e-05
8.726e-05
7.25067e-05
7.25009e-05
8.71759e-05
7.25074e-05
7.25015e-05
5.66555e-05
3.8711e-05
5.88775e-05
6.8798e-05
5.67515e-05
3.85794e-05
6.87689e-05
5.67205e-05
3.87265e-05
5.88887e-05
6.88093e-05
5.68171e-05
3.85987e-05
6.8781e-05
5.64551e-05
6.87288e-05
3.81799e-05
5.8755e-05
5.63536e-05
3.83115e-05
6.87584e-05
5.6522e-05
6.8741e-05
3.81959e-05
5.87663e-05
5.64188e-05
3.83292e-05
6.87704e-05
8.72944e-05
7.2485e-05
7.24791e-05
8.73734e-05
7.24844e-05
7.24785e-05
6.9654e-05
6.96718e-05
6.9656e-05
6.96739e-05
6.96333e-05
6.96158e-05
6.96353e-05
6.96177e-05
8.75144e-05
7.24407e-05
7.24345e-05
7.24401e-05
7.24336e-05
8.75879e-05
5.70367e-05
3.89737e-05
6.88075e-05
5.91071e-05
5.69494e-05
6.88353e-05
3.91012e-05
5.71032e-05
3.89953e-05
6.882e-05
5.91213e-05
5.7016e-05
6.88483e-05
3.91207e-05
8.74821e-05
7.24622e-05
7.24557e-05
8.74058e-05
7.24628e-05
7.24566e-05
5.72327e-05
6.88721e-05
5.92231e-05
3.94883e-05
6.8845e-05
5.73193e-05
3.93642e-05
5.72996e-05
6.8885e-05
5.92355e-05
3.95081e-05
6.88575e-05
5.73857e-05
3.93827e-05
6.9579e-05
6.95961e-05
6.95813e-05
6.95982e-05
8.76902e-05
7.24182e-05
7.24117e-05
8.76189e-05
7.24189e-05
7.24127e-05
5.77639e-05
4.0255e-05
5.95508e-05
6.89429e-05
6.8916e-05
4.01185e-05
5.78813e-05
5.78412e-05
4.02557e-05
5.95627e-05
6.89542e-05
6.8929e-05
4.01435e-05
5.79173e-05
5.7599e-05
6.88812e-05
3.9745e-05
5.94424e-05
5.75027e-05
6.89079e-05
3.98719e-05
5.76647e-05
6.88939e-05
3.97651e-05
5.94556e-05
5.75731e-05
6.89202e-05
3.98902e-05
8.77207e-05
7.23973e-05
7.23908e-05
7.23966e-05
7.239e-05
8.77854e-05
6.98516e-05
5.33329e-05
6.91817e-05
5.95729e-05
6.91671e-05
5.93998e-05
6.98631e-05
7.09958e-05
7.40325e-05
7.00567e-05
7.0993e-05
7.41069e-05
6.98505e-05
5.31434e-05
6.91446e-05
5.91276e-05
6.91592e-05
6.98387e-05
5.93064e-05
7.09726e-05
7.42042e-05
7.00587e-05
7.41327e-05
7.09754e-05
6.98729e-05
6.91895e-05
5.96554e-05
5.38633e-05
6.98617e-05
6.92046e-05
5.98164e-05
7.09282e-05
7.00842e-05
7.4356e-05
7.43002e-05
7.09311e-05
7.09517e-05
7.42093e-05
7.00789e-05
7.09487e-05
7.42681e-05
6.98736e-05
5.4036e-05
6.92277e-05
6.006e-05
6.92129e-05
5.99046e-05
6.98843e-05
6.98752e-05
6.919e-05
5.96604e-05
5.38665e-05
6.98641e-05
6.92053e-05
5.98274e-05
7.09318e-05
7.00877e-05
7.43842e-05
7.43189e-05
7.09344e-05
7.09549e-05
7.42288e-05
7.00861e-05
7.09522e-05
7.42964e-05
6.9876e-05
5.40374e-05
6.92283e-05
6.00703e-05
6.92135e-05
5.99098e-05
6.98867e-05
8.75167e-05
7.24354e-05
7.24404e-05
7.24348e-05
7.24398e-05
8.75859e-05
5.71024e-05
3.89933e-05
6.88221e-05
5.91207e-05
6.88465e-05
5.70147e-05
3.91188e-05
5.70363e-05
3.89736e-05
6.88095e-05
5.91065e-05
3.90997e-05
5.69483e-05
6.88339e-05
8.74796e-05
7.24568e-05
7.24618e-05
7.24574e-05
8.74076e-05
7.24625e-05
5.72979e-05
6.88831e-05
5.92362e-05
3.95051e-05
6.88598e-05
3.93823e-05
5.73847e-05
5.72313e-05
6.88705e-05
5.92229e-05
3.94849e-05
3.93631e-05
6.88473e-05
5.73192e-05
6.96327e-05
6.96152e-05
6.95813e-05
6.95982e-05
8.76884e-05
7.24129e-05
7.24179e-05
8.76205e-05
7.24136e-05
7.24186e-05
5.78419e-05
4.026e-05
5.95637e-05
6.89532e-05
4.0142e-05
6.89315e-05
5.79229e-05
5.77755e-05
4.0241e-05
5.95502e-05
6.89405e-05
6.89188e-05
4.01224e-05
5.78579e-05
5.76574e-05
6.8896e-05
3.9765e-05
5.94552e-05
3.9886e-05
5.75731e-05
6.8919e-05
5.7592e-05
6.88834e-05
3.97457e-05
5.94414e-05
5.75066e-05
6.89063e-05
3.98671e-05
8.77213e-05
7.2392e-05
7.2397e-05
7.23912e-05
7.23962e-05
8.77872e-05
6.95786e-05
6.95956e-05
6.98493e-05
5.33279e-05
6.91813e-05
5.95625e-05
6.91667e-05
5.93949e-05
6.98607e-05
7.09923e-05
7.40063e-05
7.0052e-05
7.09887e-05
7.40816e-05
6.98482e-05
5.31479e-05
6.91441e-05
5.91231e-05
6.91588e-05
6.98365e-05
5.92955e-05
7.09684e-05
7.41791e-05
7.00538e-05
7.41074e-05
7.09719e-05
6.98751e-05
5.96589e-05
6.91906e-05
5.38718e-05
6.9864e-05
5.98263e-05
6.92059e-05
7.09316e-05
7.00882e-05
7.43828e-05
7.43172e-05
7.09343e-05
7.09548e-05
7.42264e-05
7.00867e-05
7.09521e-05
7.42946e-05
6.98759e-05
5.40339e-05
6.00692e-05
6.92289e-05
5.99084e-05
6.9214e-05
6.98865e-05
6.98728e-05
6.91896e-05
5.96554e-05
5.38702e-05
6.98618e-05
6.9205e-05
5.98176e-05
7.09276e-05
7.00828e-05
7.43592e-05
7.42941e-05
7.09309e-05
7.09514e-05
7.4203e-05
7.00815e-05
7.0948e-05
7.42712e-05
6.98736e-05
5.40331e-05
6.92281e-05
6.00613e-05
6.92131e-05
5.99043e-05
6.98843e-05
6.98508e-05
5.33329e-05
5.95703e-05
6.91844e-05
5.93973e-05
6.91632e-05
6.98625e-05
7.09953e-05
7.40328e-05
7.00543e-05
7.40992e-05
7.09924e-05
6.98499e-05
5.31426e-05
5.91247e-05
6.91411e-05
5.93037e-05
6.98379e-05
6.91615e-05
7.0972e-05
7.41965e-05
7.00599e-05
7.41341e-05
7.09748e-05
6.98495e-05
5.33326e-05
6.91809e-05
5.95661e-05
6.91663e-05
5.93947e-05
6.9861e-05
7.09929e-05
7.4014e-05
7.00503e-05
7.09899e-05
7.40799e-05
6.98483e-05
5.31402e-05
6.91436e-05
5.91221e-05
6.98365e-05
6.91583e-05
5.92992e-05
7.09697e-05
7.41771e-05
7.00558e-05
7.41159e-05
7.09725e-05
6.98745e-05
5.96583e-05
6.91868e-05
5.38659e-05
6.98633e-05
5.9825e-05
6.9208e-05
7.0931e-05
7.00891e-05
7.43797e-05
7.43139e-05
7.09336e-05
7.09543e-05
7.42294e-05
7.00841e-05
7.09516e-05
7.42906e-05
6.98752e-05
5.40379e-05
6.00681e-05
6.92312e-05
5.99079e-05
6.92101e-05
6.9886e-05
6.98731e-05
6.91892e-05
5.96556e-05
5.38638e-05
6.9862e-05
6.92045e-05
5.98211e-05
7.0929e-05
7.00853e-05
7.43584e-05
7.43026e-05
7.09315e-05
7.09521e-05
7.42115e-05
7.00801e-05
7.09494e-05
7.42709e-05
6.98739e-05
5.40377e-05
6.92276e-05
6.00646e-05
6.92127e-05
5.9905e-05
6.98846e-05
8.75209e-05
7.24354e-05
7.24411e-05
7.24347e-05
7.24405e-05
8.75908e-05
5.71056e-05
3.89949e-05
6.88195e-05
5.91185e-05
6.88478e-05
5.70159e-05
3.91189e-05
5.70406e-05
3.89773e-05
6.88082e-05
5.91103e-05
3.91013e-05
5.69499e-05
6.88362e-05
8.74842e-05
7.24568e-05
7.24626e-05
7.24575e-05
8.74121e-05
7.24632e-05
5.72996e-05
6.88845e-05
5.92326e-05
3.95061e-05
6.8857e-05
3.93844e-05
5.73871e-05
5.72339e-05
6.88729e-05
5.92243e-05
3.9489e-05
3.93663e-05
6.88456e-05
5.73207e-05
6.96339e-05
6.96164e-05
6.95806e-05
6.95977e-05
8.76928e-05
7.24128e-05
7.24185e-05
8.76248e-05
7.24135e-05
7.24192e-05
5.78441e-05
4.02624e-05
5.95601e-05
6.89544e-05
4.01432e-05
6.89284e-05
5.79268e-05
5.77793e-05
4.02452e-05
5.95521e-05
6.89428e-05
6.89169e-05
4.01262e-05
5.78594e-05
5.76609e-05
6.88934e-05
3.97666e-05
5.94526e-05
3.98883e-05
5.75751e-05
6.89199e-05
5.75943e-05
6.8882e-05
3.97492e-05
5.94441e-05
5.75096e-05
6.89083e-05
3.98701e-05
8.77255e-05
7.23919e-05
7.23976e-05
7.23911e-05
7.23969e-05
8.77916e-05
6.95797e-05
6.95967e-05
6.98497e-05
5.33278e-05
5.95668e-05
6.91848e-05
5.93931e-05
6.91634e-05
6.98614e-05
7.09936e-05
7.40082e-05
7.00524e-05
7.40829e-05
7.09907e-05
6.98488e-05
5.31522e-05
5.91205e-05
6.91413e-05
5.93005e-05
6.98368e-05
6.91618e-05
7.09704e-05
7.41807e-05
7.00543e-05
7.41089e-05
7.09732e-05
6.98515e-05
5.33293e-05
5.95735e-05
6.91824e-05
5.93989e-05
6.91676e-05
6.9863e-05
7.09953e-05
7.40292e-05
7.00573e-05
7.09924e-05
7.41033e-05
6.98503e-05
5.31535e-05
5.91261e-05
6.91449e-05
6.98385e-05
5.93072e-05
6.91597e-05
7.09721e-05
7.42009e-05
7.00592e-05
7.41294e-05
7.09749e-05
6.98735e-05
5.96541e-05
6.91871e-05
5.38745e-05
6.98622e-05
5.98214e-05
6.92084e-05
7.09295e-05
7.00834e-05
7.43611e-05
7.42955e-05
7.09322e-05
7.09527e-05
7.42053e-05
7.00819e-05
7.095e-05
7.4273e-05
6.98742e-05
5.4033e-05
6.00645e-05
6.92317e-05
5.99039e-05
6.92104e-05
6.9885e-05
6.98751e-05
5.96602e-05
6.91906e-05
5.3876e-05
6.9864e-05
5.98278e-05
6.9206e-05
7.09313e-05
7.00882e-05
7.43814e-05
7.43154e-05
7.09339e-05
7.09544e-05
7.42258e-05
7.00868e-05
7.09517e-05
7.42934e-05
6.98759e-05
5.40346e-05
6.00707e-05
6.92293e-05
5.991e-05
6.92142e-05
6.98866e-05
6.96333e-05
6.9616e-05
6.96354e-05
6.96179e-05
8.7693e-05
7.24183e-05
7.24124e-05
8.76212e-05
7.2419e-05
7.24131e-05
5.77751e-05
4.02463e-05
5.95523e-05
6.89427e-05
4.01234e-05
6.89166e-05
5.78629e-05
5.78418e-05
4.02623e-05
5.95635e-05
6.89529e-05
4.01434e-05
6.8931e-05
5.79281e-05
5.75964e-05
6.88817e-05
3.97467e-05
5.94442e-05
5.75058e-05
3.98709e-05
6.89082e-05
5.766e-05
6.88957e-05
3.97664e-05
5.94551e-05
5.7571e-05
3.98875e-05
6.89187e-05
8.77219e-05
7.23974e-05
7.23915e-05
7.23966e-05
7.23908e-05
8.77913e-05
6.95794e-05
6.95962e-05
6.95814e-05
6.95983e-05
1.50404e-05
1.50409e-05
1.48327e-05
1.49326e-05
1.4933e-05
1.52916e-05
1.54094e-05
3.78633e-05
2.48706e-05
2.4872e-05
1.81013e-05
3.77247e-05
2.49717e-05
2.49802e-05
3.7321e-05
1.79489e-05
2.4668e-05
2.46645e-05
2.45628e-05
2.45714e-05
3.74429e-05
3.73199e-05
1.79604e-05
2.4653e-05
2.46464e-05
2.45808e-05
2.45764e-05
3.74423e-05
3.73224e-05
1.79612e-05
2.46544e-05
2.46531e-05
2.45827e-05
2.45782e-05
3.74456e-05
3.73108e-05
1.79478e-05
2.46642e-05
2.46742e-05
3.74511e-05
2.45602e-05
2.45627e-05
3.78538e-05
2.48732e-05
2.48842e-05
1.81165e-05
3.77349e-05
2.4977e-05
2.49796e-05
3.89405e-05
1.8511e-05
2.59413e-05
2.59326e-05
2.58238e-05
2.58365e-05
3.90589e-05
3.78547e-05
2.48894e-05
2.48854e-05
1.80994e-05
2.49586e-05
3.77342e-05
2.49604e-05
3.89407e-05
1.85264e-05
2.59186e-05
2.5915e-05
2.58454e-05
2.58419e-05
3.90562e-05
3.78569e-05
2.48904e-05
2.48875e-05
1.81006e-05
2.49582e-05
3.77346e-05
2.49638e-05
3.89408e-05
1.85268e-05
2.5924e-05
2.59178e-05
2.58471e-05
2.58429e-05
3.90599e-05
3.89333e-05
1.85239e-05
2.59312e-05
2.5936e-05
2.58274e-05
2.58349e-05
3.90676e-05
1.50985e-05
1.51504e-05
1.51509e-05
1.52628e-05
1.52633e-05
1.56504e-05
1.55291e-05
1.50982e-05
1.51503e-05
1.51506e-05
1.52627e-05
1.5263e-05
1.56503e-05
1.5529e-05
1.50984e-05
1.51505e-05
1.51506e-05
1.5263e-05
1.5263e-05
1.56503e-05
1.55289e-05
1.5098e-05
1.51502e-05
1.51505e-05
1.52627e-05
1.52629e-05
1.56502e-05
1.55288e-05
1.50403e-05
1.50406e-05
1.48324e-05
1.49324e-05
1.49327e-05
1.52915e-05
1.54094e-05
1.50405e-05
1.50406e-05
1.48326e-05
1.49327e-05
1.49327e-05
1.52914e-05
1.54093e-05
1.50402e-05
1.50405e-05
1.48322e-05
1.49324e-05
1.49327e-05
1.52914e-05
1.54092e-05
1.47501e-05
1.47238e-05
1.47242e-05
1.48271e-05
1.48275e-05
1.51753e-05
1.50608e-05
1.47497e-05
1.47236e-05
1.47239e-05
1.4827e-05
1.48272e-05
1.51753e-05
1.50607e-05
1.475e-05
1.47239e-05
1.47239e-05
1.48272e-05
1.48272e-05
1.51752e-05
1.50607e-05
1.47496e-05
1.47236e-05
1.47239e-05
1.48269e-05
1.48272e-05
1.51751e-05
1.50606e-05
1.96147e-05
2.92076e-05
3.35499e-05
1.80061e-05
3.342e-05
1.79587e-05
1.96425e-05
2.24003e-05
2.75836e-05
3.95924e-05
4.53023e-05
2.23141e-05
2.7681e-05
3.97009e-05
1.94498e-05
2.89251e-05
3.29974e-05
1.78069e-05
1.94239e-05
3.31319e-05
1.78512e-05
2.25713e-05
4.00737e-05
4.55215e-05
2.80212e-05
2.79289e-05
3.99709e-05
2.26561e-05
1.95988e-05
2.92105e-05
1.80138e-05
3.35541e-05
1.79571e-05
3.34157e-05
1.96658e-05
2.24021e-05
2.75731e-05
3.95785e-05
4.53127e-05
2.23133e-05
2.76963e-05
3.97054e-05
1.94704e-05
2.89261e-05
1.78047e-05
3.29952e-05
1.94068e-05
1.78567e-05
3.31317e-05
2.25716e-05
4.00828e-05
4.5519e-05
2.80433e-05
2.79209e-05
3.99578e-05
2.26575e-05
3.81339e-05
1.82228e-05
2.52894e-05
2.52982e-05
2.51901e-05
2.51934e-05
3.82697e-05
3.7027e-05
1.78583e-05
2.4257e-05
2.42667e-05
3.69012e-05
2.43531e-05
2.43603e-05
1.90941e-05
3.21477e-05
1.75331e-05
2.80731e-05
1.90676e-05
3.22794e-05
1.75593e-05
2.20838e-05
2.73485e-05
4.48867e-05
3.93166e-05
2.72351e-05
3.9202e-05
2.21311e-05
2.18837e-05
3.88151e-05
2.68912e-05
4.46616e-05
2.70084e-05
2.1836e-05
3.89281e-05
1.92435e-05
2.83626e-05
3.27053e-05
1.77014e-05
3.25728e-05
1.76704e-05
1.92706e-05
1.90928e-05
3.21456e-05
1.75331e-05
2.80777e-05
1.90679e-05
3.22852e-05
1.75584e-05