/*--------------------------------*- C++ -*----------------------------------*\
| =========                 |                                                 |
| \\      /  F ield         | OpenFOAM: The Open Source CFD Toolbox           |
|  \\    /   O peration     | Version:  v1906                                 |
|   \\  /    A nd           | Web:      www.OpenFOAM.com                      |
|    \\/     M anipulation  |                                                 |
\*---------------------------------------------------------------------------*/
FoamFile
{
    version     2.0;
    format      ascii;
    class       volVectorField;
    location    "450";
    object      U;
}
// * * * * * * * * * * * * * * * * * * * * * * * * * * * * * * * * * * * * * //

dimensions      [0 1 -1 0 0 0 0];


internalField   nonuniform List<vector> 
43248
(
(-3.83117e-05 -3.85186e-05 0.104906)
(1.01261e-05 1.76741e-05 0.10828)
(-1.0251e-05 1.78065e-05 0.10828)
(3.83977e-05 -3.83537e-05 0.104907)
(1.78221e-05 1.02718e-05 0.108283)
(1.7772e-05 -1.02284e-05 0.108279)
(-1.77252e-05 1.02075e-05 0.108283)
(-1.7735e-05 -1.01999e-05 0.10828)
(-3.83728e-05 3.84227e-05 0.104906)
(1.01892e-05 -1.77174e-05 0.108282)
(-1.01538e-05 -1.77138e-05 0.108281)
(3.84118e-05 3.83999e-05 0.104906)
(2.27291e-05 2.27385e-05 0.113134)
(-2.27418e-05 2.27604e-05 0.113134)
(2.27392e-05 -2.2724e-05 0.113133)
(-2.27087e-05 -2.27077e-05 0.113133)
(-2.04311e-06 -6.89074e-06 0.0709179)
(-6.8715e-06 -2.06809e-06 0.070918)
(-5.13926e-06 -8.27088e-06 0.0870352)
(-8.33834e-06 -5.22059e-06 0.0870366)
(-3.98163e-07 1.26949e-05 0.0909888)
(-1.58602e-06 -1.14163e-05 0.0816205)
(-5.88555e-07 -1.39743e-05 0.0910351)
(3.79329e-07 1.27073e-05 0.0909888)
(1.54932e-06 -1.14521e-05 0.0816203)
(-5.85966e-07 1.12257e-05 0.0815626)
(6.03404e-07 -1.39805e-05 0.0910351)
(1.41415e-07 2.50292e-05 0.0985542)
(-6.77308e-06 -1.34951e-05 0.0926824)
(4.71326e-06 2.77187e-05 0.110831)
(4.85826e-06 2.84696e-05 0.110841)
(-4.6734e-07 -1.71832e-05 0.0986113)
(-1.21312e-07 2.50371e-05 0.098554)
(-1.06169e-05 1.83986e-05 0.108294)
(6.7537e-06 -1.36402e-05 0.0926828)
(-4.73002e-06 2.77482e-05 0.110831)
(-6.80618e-06 1.93983e-05 0.0926207)
(-4.89168e-06 2.84845e-05 0.110841)
(4.54906e-07 -1.71823e-05 0.0986112)
(2.03396e-06 -6.91442e-06 0.0709176)
(-4.62144e-06 5.60001e-06 0.0708534)
(-4.4984e-05 4.49634e-05 0.104759)
(5.13219e-06 -8.32117e-06 0.0870354)
(8.27877e-06 -5.14365e-06 0.0870375)
(-7.09195e-06 7.45675e-06 0.0869791)
(-7.40466e-06 7.05157e-06 0.0869799)
(6.84774e-06 -2.00245e-06 0.0709189)
(-5.5409e-06 4.55564e-06 0.0708514)
(-1.14477e-05 -1.55634e-06 0.0816213)
(-1.4003e-05 -5.86185e-07 0.0910349)
(-1.37568e-05 -6.7879e-06 0.0926841)
(2.77213e-05 4.7178e-06 0.110831)
(-1.71959e-05 -4.49343e-07 0.0986111)
(-1.14238e-05 1.5503e-06 0.0816219)
(-1.39983e-05 5.7258e-07 0.0910349)
(2.77157e-05 -4.72556e-06 0.11083)
(-1.36084e-05 6.75577e-06 0.0926839)
(-1.71944e-05 4.72306e-07 0.098611)
(-2.5033e-05 1.14882e-07 0.0985539)
(-1.83171e-05 1.05666e-05 0.108297)
(1.36095e-05 -6.74081e-06 0.0926842)
(-2.77276e-05 4.72538e-06 0.110832)
(-1.93056e-05 6.78338e-06 0.0926214)
(-2.84627e-05 4.86583e-06 0.110842)
(1.71746e-05 -4.41089e-07 0.098611)
(-1.27055e-05 -3.81866e-07 0.0909886)
(1.14302e-05 -1.52682e-06 0.0816211)
(-1.1161e-05 5.69511e-07 0.0815619)
(1.39613e-05 -5.79182e-07 0.0910347)
(-2.50308e-05 -1.23894e-07 0.0985541)
(-1.83323e-05 -1.0555e-05 0.108294)
(-2.77117e-05 -4.72031e-06 0.110831)
(1.36307e-05 6.77515e-06 0.0926836)
(-2.84474e-05 -4.86498e-06 0.110841)
(-1.93387e-05 -6.80509e-06 0.0926222)
(1.71631e-05 4.78839e-07 0.0986108)
(-1.27068e-05 3.82983e-07 0.0909887)
(1.14502e-05 1.53919e-06 0.0816211)
(-1.1185e-05 -5.97615e-07 0.0815636)
(1.39603e-05 6.12228e-07 0.0910348)
(-6.84358e-06 2.02289e-06 0.0709194)
(-8.29952e-06 5.19179e-06 0.0870362)
(-5.15991e-06 8.3499e-06 0.0870369)
(-2.03507e-06 6.90809e-06 0.0709181)
(1.51978e-07 -2.50534e-05 0.0985533)
(4.71767e-06 -2.77106e-05 0.11083)
(-6.75927e-06 1.36782e-05 0.0926837)
(4.86124e-06 -2.84545e-05 0.11084)
(-4.53078e-07 1.71649e-05 0.0986109)
(-8.70445e-08 -2.50453e-05 0.0985533)
(-1.05117e-05 -1.83059e-05 0.108295)
(-4.7013e-06 -2.77101e-05 0.11083)
(6.80727e-06 1.36625e-05 0.0926837)
(-4.85203e-06 -2.84421e-05 0.11084)
(-6.83131e-06 -1.93398e-05 0.0926215)
(4.41854e-07 1.71565e-05 0.0986109)
(-3.5966e-07 -1.27524e-05 0.0909888)
(-1.51603e-06 1.1467e-05 0.0816208)
(-5.90422e-07 1.39876e-05 0.0910345)
(4.45103e-07 -1.27537e-05 0.0909887)
(1.5938e-06 1.14489e-05 0.0816214)
(-6.44802e-07 -1.11825e-05 0.0815631)
(5.51232e-07 1.39808e-05 0.0910347)
(-4.49809e-05 -4.49909e-05 0.104759)
(8.34191e-06 5.15319e-06 0.0870373)
(5.18667e-06 8.33668e-06 0.0870354)
(-7.43926e-06 -7.09392e-06 0.0869811)
(-7.11204e-06 -7.43095e-06 0.0869797)
(6.90489e-06 2.02696e-06 0.0709183)
(-5.57675e-06 -4.62297e-06 0.0708546)
(2.06811e-06 6.89047e-06 0.0709181)
(-4.65048e-06 -5.56436e-06 0.0708542)
(4.59388e-06 5.51857e-06 0.0708567)
(5.52679e-06 4.62636e-06 0.0708559)
(8.46017e-06 1.38311e-05 0.091264)
(-8.06743e-06 -2.04305e-05 0.0961249)
(7.02053e-06 7.33654e-06 0.0869809)
(-3.93988e-06 -7.66212e-06 0.0810012)
(4.47939e-06 6.49836e-06 0.0809462)
(1.42092e-05 2.12202e-05 0.0960747)
(-8.17636e-06 -1.6433e-05 0.0913114)
(1.37628e-05 8.36471e-06 0.0912507)
(-2.0678e-05 -8.30782e-06 0.0961325)
(7.32974e-06 7.02251e-06 0.0869775)
(-7.48925e-06 -3.83084e-06 0.0809995)
(6.45295e-06 4.36902e-06 0.0809386)
(2.1197e-05 1.41606e-05 0.0960657)
(-1.63927e-05 -8.29077e-06 0.0913151)
(5.74479e-06 5.74105e-06 0.0830579)
(-5.55456e-06 -4.09467e-06 0.0678217)
(-4.10277e-06 -5.50555e-06 0.0678167)
(5.53772e-06 3.48805e-06 0.0677589)
(3.47904e-06 5.45688e-06 0.0677523)
(-6.73699e-06 -6.60951e-06 0.0831103)
(5.06462e-08 -6.7507e-06 0.0762644)
(-6.31912e-07 6.34562e-06 0.0780019)
(2.28895e-08 1.26357e-05 0.0894196)
(-5.9526e-07 -1.38959e-05 0.0910402)
(-8.96787e-07 7.04711e-06 0.0762079)
(-4.05698e-07 -7.01923e-06 0.0780505)
(-1.10253e-06 -1.33661e-05 0.0894776)
(-7.28969e-07 6.39639e-06 0.0677447)
(6.30345e-07 1.10701e-05 0.0815633)
(-1.54582e-06 -1.16939e-05 0.0852763)
(-4.75475e-07 9.66729e-06 0.0852116)
(7.98154e-08 -6.6444e-06 0.067819)
(-8.8426e-07 6.99603e-06 0.0762085)
(-3.9383e-07 1.25278e-05 0.0909839)
(-3.95421e-07 -7.03675e-06 0.0780505)
(-1.10113e-06 -1.34387e-05 0.089474)
(-6.22973e-07 6.30244e-06 0.078002)
(2.01728e-08 1.24926e-05 0.0894161)
(6.79857e-08 -6.76425e-06 0.0762649)
(-5.33561e-08 -6.80471e-06 0.0762637)
(6.25843e-07 6.34645e-06 0.0780021)
(-4.12515e-08 1.27005e-05 0.0894198)
(6.04551e-07 -1.38978e-05 0.0910401)
(8.92882e-07 7.09609e-06 0.0762098)
(4.13328e-07 -7.02553e-06 0.0780504)
(1.10879e-06 -1.34159e-05 0.089477)
(6.99807e-07 6.48242e-06 0.0677452)
(-6.14082e-07 1.11221e-05 0.0815629)
(1.53601e-06 -1.17331e-05 0.0852748)
(4.80391e-07 9.73069e-06 0.0852112)
(-6.56117e-08 -6.71566e-06 0.0678154)
(-5.21812e-08 -6.7175e-06 0.0678136)
(4.90323e-07 9.82714e-06 0.0852122)
(1.58164e-06 -1.14163e-05 0.08162)
(7.14496e-07 6.51162e-06 0.0677434)
(1.55411e-06 -1.17002e-05 0.0852758)
(8.78789e-07 7.04784e-06 0.0762104)
(3.7879e-07 1.25384e-05 0.0909839)
(4.00515e-07 -7.03359e-06 0.0780504)
(1.10395e-06 -1.34908e-05 0.0894734)
(6.15545e-07 6.30042e-06 0.0780023)
(-3.77584e-08 1.25425e-05 0.0894163)
(-6.60717e-08 -6.82766e-06 0.0762643)
(-4.62484e-06 5.54972e-06 0.0708557)
(2.04292e-06 -6.90851e-06 0.0709154)
(6.60416e-06 -6.62992e-06 0.0831111)
(-5.54756e-06 3.50928e-06 0.0677521)
(-3.52394e-06 5.52027e-06 0.0677574)
(-5.84213e-06 5.81523e-06 0.0830586)
(5.51257e-06 -4.10654e-06 0.0678158)
(4.07789e-06 -5.54603e-06 0.0678211)
(-8.44956e-06 1.37392e-05 0.0912537)
(8.18523e-06 -2.05889e-05 0.0961275)
(-7.05546e-06 7.34768e-06 0.086978)
(3.85456e-06 -7.5705e-06 0.0809983)
(-1.42311e-05 2.12425e-05 0.0960681)
(-4.45088e-06 6.4627e-06 0.0809395)
(8.25291e-06 -1.63315e-05 0.0913102)
(-1.37492e-05 8.40709e-06 0.0912607)
(2.05634e-05 -8.20725e-06 0.0961307)
(-7.3003e-06 7.01001e-06 0.0869788)
(7.53559e-06 -3.88908e-06 0.0810031)
(-6.44739e-06 4.43634e-06 0.0809441)
(-2.11867e-05 1.41873e-05 0.0960718)
(1.63247e-05 -8.26036e-06 0.0913171)
(8.19186e-06 -1.62483e-05 0.0913135)
(-4.45911e-06 6.5517e-06 0.0809393)
(-1.44032e-05 2.15158e-05 0.0960744)
(5.12412e-06 -8.25268e-06 0.0870366)
(8.05886e-06 -2.04428e-05 0.0961339)
(-8.56496e-06 1.39314e-05 0.0912569)
(3.87284e-06 -7.52061e-06 0.0809982)
(1.62466e-05 -8.19277e-06 0.0913204)
(-6.53136e-06 4.44512e-06 0.0809439)
(-2.14572e-05 1.43636e-05 0.096078)
(8.2093e-06 -5.12991e-06 0.0870387)
(-1.39378e-05 8.52005e-06 0.0912639)
(7.48424e-06 -3.90228e-06 0.081003)
(2.04194e-05 -8.07195e-06 0.0961371)
(-5.76537e-06 5.73727e-06 0.083058)
(5.50568e-06 -4.11397e-06 0.0678166)
(4.08231e-06 -5.54164e-06 0.067822)
(-5.51684e-06 3.48136e-06 0.0677531)
(-3.49597e-06 5.49004e-06 0.0677584)
(6.64414e-06 -6.67509e-06 0.0831103)
(-5.49462e-06 4.55509e-06 0.0708537)
(6.84094e-06 -2.01747e-06 0.0709167)
(6.46636e-06 -6.76876e-07 0.0677462)
(1.1073e-05 6.17346e-07 0.0815635)
(-1.17353e-05 -1.5283e-06 0.0852753)
(9.70403e-06 -4.66068e-07 0.0852123)
(-6.70718e-06 7.89344e-08 0.067816)
(7.05062e-06 -8.7308e-07 0.0762114)
(1.2554e-05 -3.74694e-07 0.0909847)
(-1.34778e-05 -1.08383e-06 0.0894737)
(-7.07027e-06 -4.06957e-07 0.0780501)
(1.25433e-05 3.89726e-08 0.0894172)
(6.35029e-06 -6.09596e-07 0.0780041)
(-6.7979e-06 8.08033e-08 0.0762648)
(6.40634e-06 7.5125e-07 0.0677448)
(1.10671e-05 -5.9503e-07 0.0815627)
(-1.17005e-05 1.50943e-06 0.0852768)
(9.68669e-06 5.20786e-07 0.0852118)
(-6.65743e-06 -1.15458e-07 0.0678193)
(7.00118e-06 9.17738e-07 0.0762093)
(1.25539e-05 4.38782e-07 0.0909848)
(-7.06559e-06 3.67503e-07 0.07805)
(-1.34404e-05 1.06273e-06 0.0894742)
(6.33627e-06 6.49341e-07 0.0780039)
(1.25085e-05 3.38341e-08 0.0894167)
(-6.77749e-06 -1.08121e-07 0.0762653)
(6.80785e-06 8.27104e-08 0.0762636)
(-1.27106e-05 5.07181e-08 0.0894194)
(-6.35238e-06 -6.28205e-07 0.0780019)
(1.38854e-05 -5.76686e-07 0.0910398)
(-7.10347e-06 -8.85672e-07 0.0762096)
(1.34147e-05 -1.07348e-06 0.0894767)
(7.01867e-06 -3.92592e-07 0.0780501)
(-6.4778e-06 -6.88469e-07 0.0677453)
(-1.10641e-05 5.92784e-07 0.0815623)
(1.17473e-05 -1.50715e-06 0.085275)
(-9.71943e-06 -4.76755e-07 0.0852112)
(6.71968e-06 9.56838e-08 0.0678156)
(6.72538e-06 7.45922e-08 0.0678139)
(-9.81975e-06 -4.84869e-07 0.0852121)
(1.13866e-05 -1.55455e-06 0.0816208)
(-6.51137e-06 -7.05032e-07 0.0677435)
(1.17071e-05 -1.52104e-06 0.0852761)
(-7.05496e-06 -8.74682e-07 0.0762102)
(-1.25366e-05 -3.85588e-07 0.0909837)
(1.34747e-05 -1.07333e-06 0.0894732)
(7.03337e-06 -3.87315e-07 0.0780502)
(-1.25624e-05 4.39469e-08 0.089416)
(-6.30863e-06 -6.23713e-07 0.0780021)
(6.82227e-06 9.74078e-08 0.0762642)
(6.79647e-06 -5.84539e-08 0.0762634)
(-6.34581e-06 6.14837e-07 0.078002)
(-1.26878e-05 -4.49503e-08 0.08942)
(1.3882e-05 6.18261e-07 0.0910398)
(-7.09226e-06 8.79107e-07 0.0762095)
(7.01719e-06 4.18176e-07 0.0780502)
(1.34005e-05 1.11106e-06 0.0894771)
(-6.46459e-06 6.75434e-07 0.0677478)
(-1.10776e-05 -6.30537e-07 0.0815639)
(1.17416e-05 1.52956e-06 0.085276)
(-9.69996e-06 4.5783e-07 0.0852126)
(6.71193e-06 -8.30534e-08 0.0678178)
(6.71589e-06 -5.71733e-08 0.0678161)
(-9.8039e-06 4.74602e-07 0.0852135)
(1.14174e-05 1.57721e-06 0.0816207)
(-6.49844e-06 6.97626e-07 0.0677459)
(1.16962e-05 1.55245e-06 0.0852771)
(-7.04107e-06 8.62521e-07 0.0762102)
(-1.25273e-05 3.7913e-07 0.0909838)
(7.03045e-06 4.03785e-07 0.0780502)
(1.34725e-05 1.10365e-06 0.0894735)
(-6.30006e-06 6.01867e-07 0.0780021)
(-1.25379e-05 -4.28539e-08 0.0894165)
(6.80887e-06 -8.00282e-08 0.076264)
(5.49587e-06 -4.56037e-06 0.0708539)
(1.3714e-05 -8.43018e-06 0.0912535)
(-2.05631e-05 8.22274e-06 0.0961277)
(7.32991e-06 -7.02988e-06 0.086977)
(-7.53288e-06 3.92111e-06 0.0809982)
(2.12123e-05 -1.41929e-05 0.0960681)
(6.45561e-06 -4.47327e-06 0.0809387)
(-1.62915e-05 8.28949e-06 0.0913101)
(8.39198e-06 -1.37343e-05 0.0912606)
(-8.21067e-06 2.05935e-05 0.0961302)
(7.03549e-06 -7.33192e-06 0.0869798)
(-3.83707e-06 7.56501e-06 0.0810032)
(4.40785e-06 -6.44477e-06 0.0809443)
(1.41922e-05 -2.12047e-05 0.0960716)
(-8.22014e-06 1.63316e-05 0.0913168)
(5.73938e-06 -5.75804e-06 0.0830579)
(-4.07348e-06 5.5628e-06 0.0678161)
(-5.50686e-06 4.1082e-06 0.067822)
(3.47955e-06 -5.52272e-06 0.0677523)
(5.49471e-06 -3.49282e-06 0.0677585)
(-6.62937e-06 6.67379e-06 0.0831102)
(4.62143e-06 -5.53299e-06 0.0708567)
(7.24664e-08 6.80726e-06 0.0762633)
(6.77527e-08 -1.26987e-05 0.0894197)
(-5.99169e-07 -6.40052e-06 0.0780034)
(-5.93046e-07 1.39077e-05 0.0910395)
(-8.55146e-07 -7.10329e-06 0.0762096)
(-1.08018e-06 1.34036e-05 0.0894769)
(-4.07896e-07 7.06306e-06 0.0780495)
(-6.53197e-07 -6.45759e-06 0.0677481)
(6.30686e-07 -1.10825e-05 0.0815638)
(-1.50496e-06 1.17412e-05 0.0852755)
(-4.38218e-07 -9.70988e-06 0.0852128)
(8.68989e-08 6.70855e-06 0.0678177)
(6.89503e-08 6.7135e-06 0.067816)
(-1.5214e-06 1.16967e-05 0.0852766)
(-8.46312e-07 -7.05488e-06 0.0762103)
(-3.60806e-07 -1.2579e-05 0.0909838)
(-1.08003e-06 1.34818e-05 0.0894732)
(-4.01223e-07 7.07642e-06 0.0780496)
(6.17379e-08 -1.25473e-05 0.0894163)
(-5.94379e-07 -6.3557e-06 0.0780035)
(8.5514e-08 6.82269e-06 0.0762638)
(-1.12214e-07 6.77621e-06 0.0762654)
(3.30715e-09 -1.26882e-05 0.0894189)
(6.6634e-07 -6.4036e-06 0.0780032)
(5.60444e-07 1.38986e-05 0.0910397)
(9.11435e-07 -7.08202e-06 0.0762086)
(1.048e-06 1.33677e-05 0.0894779)
(3.75076e-07 7.05742e-06 0.0780498)
(6.97243e-07 -6.41986e-06 0.0677432)
(-6.78172e-07 -1.10822e-05 0.0815635)
(1.52969e-06 1.17139e-05 0.0852766)
(4.50127e-07 -9.67934e-06 0.0852107)
(-1.30502e-07 6.66331e-06 0.0678183)
(-1.10563e-07 6.66861e-06 0.0678166)
(4.66206e-07 -9.77996e-06 0.0852117)
(1.62567e-06 1.14122e-05 0.0816211)
(7.18171e-07 -6.45074e-06 0.0677414)
(1.54294e-06 1.16689e-05 0.0852775)
(8.9202e-07 -7.03499e-06 0.0762092)
(4.40833e-07 -1.25817e-05 0.0909838)
(1.04338e-06 1.34463e-05 0.0894744)
(3.61151e-07 7.07208e-06 0.0780498)
(2.715e-09 -1.2543e-05 0.0894154)
(6.52337e-07 -6.36023e-06 0.0780033)
(-1.33158e-07 6.79039e-06 0.076266)
(6.62192e-06 6.60238e-06 0.0831115)
(-3.49776e-06 -5.53676e-06 0.0677582)
(-5.52944e-06 -3.50787e-06 0.0677525)
(-5.80617e-06 -5.8105e-06 0.0830593)
(4.09301e-06 5.52328e-06 0.0678217)
(5.54424e-06 4.08013e-06 0.0678157)
(-1.37119e-05 -8.39381e-06 0.0912614)
(2.05838e-05 8.18265e-06 0.0961303)
(-7.3255e-06 -7.04993e-06 0.08698)
(7.56789e-06 3.8437e-06 0.0810035)
(-2.11915e-05 -1.41779e-05 0.0960721)
(-6.43108e-06 -4.44264e-06 0.0809449)
(1.63295e-05 8.21606e-06 0.0913172)
(-8.40584e-06 -1.37168e-05 0.0912545)
(8.24244e-06 2.0582e-05 0.0961275)
(-7.0683e-06 -7.32098e-06 0.0869787)
(3.89052e-06 7.58102e-06 0.0809981)
(-1.4188e-05 -2.11768e-05 0.096069)
(-4.45469e-06 -6.46301e-06 0.0809405)
(8.28569e-06 1.63333e-05 0.0913103)
(1.62444e-05 8.15604e-06 0.0913205)
(-6.52397e-06 -4.44961e-06 0.0809446)
(-2.14728e-05 -1.43537e-05 0.0960783)
(8.26973e-06 5.15097e-06 0.0870384)
(-1.39e-05 -8.50444e-06 0.0912645)
(2.04339e-05 8.06219e-06 0.0961368)
(7.50837e-06 3.86065e-06 0.0810034)
(8.21736e-06 1.62469e-05 0.0913136)
(-4.46605e-06 -6.55354e-06 0.0809403)
(-1.43628e-05 -2.1452e-05 0.0960752)
(5.18337e-06 8.26658e-06 0.0870365)
(-8.51929e-06 -1.39029e-05 0.0912576)
(8.11167e-06 2.04372e-05 0.0961339)
(3.90583e-06 7.52393e-06 0.080998)
(-5.72698e-06 -5.73438e-06 0.0830586)
(4.09913e-06 5.51561e-06 0.0678226)
(5.53904e-06 4.08433e-06 0.0678166)
(-3.46968e-06 -5.50864e-06 0.0677593)
(-5.49865e-06 -3.48238e-06 0.0677535)
(6.66594e-06 6.64329e-06 0.0831107)
(-5.52847e-06 -4.6279e-06 0.070857)
(6.8994e-06 2.04593e-06 0.070916)
(-4.65323e-06 -5.51765e-06 0.0708565)
(2.08404e-06 6.87995e-06 0.0709158)
(1.88011e-05 1.88215e-05 0.0974182)
(4.45439e-05 4.45785e-05 0.104745)
(-3.98731e-05 -2.12624e-05 0.101727)
(-2.11531e-05 -3.98914e-05 0.101732)
(4.32302e-05 2.43409e-05 0.101643)
(2.42975e-05 4.32304e-05 0.101636)
(-1.97839e-05 -2.00984e-05 0.0974883)
(-1.88509e-05 1.87979e-05 0.0974181)
(-4.45069e-05 4.44826e-05 0.104745)
(3.99474e-05 -2.11758e-05 0.101728)
(2.1212e-05 -3.9969e-05 0.101731)
(-4.32489e-05 2.42825e-05 0.101637)
(-2.42913e-05 4.32336e-05 0.101641)
(2.00104e-05 -1.99806e-05 0.0974889)
(1.87907e-05 -1.88519e-05 0.0974183)
(4.44948e-05 -4.45359e-05 0.104745)
(-2.11663e-05 3.998e-05 0.101728)
(-3.99653e-05 2.12177e-05 0.101731)
(2.42605e-05 -4.32476e-05 0.101637)
(4.32242e-05 -2.4286e-05 0.101641)
(-1.99527e-05 2.00232e-05 0.0974883)
(-1.87956e-05 -1.8788e-05 0.0974188)
(-4.4486e-05 -4.44898e-05 0.104745)
(2.12149e-05 3.99727e-05 0.101731)
(3.99948e-05 2.12135e-05 0.101728)
(-2.42783e-05 -4.32447e-05 0.101642)
(-4.31928e-05 -2.42521e-05 0.101638)
(2.00063e-05 1.99757e-05 0.0974887)
(1.03999e-05 3.15538e-05 0.115005)
(3.15171e-05 1.0409e-05 0.115006)
(1.05457e-05 3.19709e-05 0.114979)
(1.32028e-05 1.3218e-05 0.116309)
(1.30872e-05 1.31101e-05 0.116357)
(-2.3192e-05 2.32016e-05 0.113128)
(-1.04142e-05 3.15682e-05 0.115005)
(-3.15279e-05 1.04264e-05 0.115006)
(-1.05654e-05 3.19976e-05 0.114979)
(-3.19654e-05 1.05687e-05 0.11498)
(-1.32038e-05 1.32283e-05 0.116309)
(-1.30863e-05 1.31143e-05 0.116357)
(3.15314e-05 -1.04108e-05 0.115005)
(1.04279e-05 -3.15067e-05 0.115005)
(1.05829e-05 -3.19421e-05 0.114979)
(1.32188e-05 -1.31792e-05 0.116309)
(1.30961e-05 -1.30672e-05 0.116357)
(-2.31605e-05 -2.31561e-05 0.113127)
(-3.15173e-05 -1.03921e-05 0.115005)
(-1.03946e-05 -3.15051e-05 0.115005)
(-3.19599e-05 -1.05335e-05 0.114979)
(-1.05415e-05 -3.19435e-05 0.114979)
(-1.3199e-05 -1.31746e-05 0.116309)
(-1.30829e-05 -1.30638e-05 0.116357)
(8.92976e-07 -4.18273e-05 0.103364)
(1.6141e-06 2.50024e-05 0.097489)
(8.5045e-07 5.81823e-05 0.103957)
(-4.63924e-07 -1.69687e-05 0.0986223)
(4.13553e-06 5.77842e-05 0.103208)
(-1.08688e-06 -1.73999e-05 0.0975675)
(6.57771e-07 -3.99965e-05 0.104085)
(8.15268e-06 5.56557e-05 0.101539)
(-5.72282e-06 -4.3763e-05 0.0996181)
(6.72956e-06 1.91487e-05 0.0926177)
(-3.52655e-06 -1.83745e-05 0.0954626)
(1.2406e-05 5.27739e-05 0.0995444)
(3.35008e-06 2.17269e-05 0.0953831)
(-1.9992e-06 -4.54598e-05 0.101674)
(4.03999e-06 5.72029e-05 0.103195)
(1.20369e-07 2.47038e-05 0.0985432)
(-1.10108e-06 -1.76083e-05 0.0975579)
(6.41108e-07 -4.02536e-05 0.10407)
(1.57902e-06 2.47072e-05 0.0974797)
(8.2394e-07 5.75437e-05 0.103943)
(8.17396e-07 -4.21003e-05 0.10335)
(-9.3498e-07 -4.18727e-05 0.103363)
(-1.60531e-06 2.50463e-05 0.0974882)
(-8.52667e-07 5.81673e-05 0.103957)
(4.51251e-07 -1.69687e-05 0.0986222)
(-4.12007e-06 5.77871e-05 0.103207)
(1.05262e-06 -1.74252e-05 0.0975671)
(-6.99943e-07 -3.99685e-05 0.104085)
(-8.16084e-06 5.57293e-05 0.101538)
(5.66651e-06 -4.37654e-05 0.0996184)
(-6.75287e-06 1.91737e-05 0.0926163)
(3.50392e-06 -1.84207e-05 0.095462)
(-3.34141e-06 2.17633e-05 0.0953817)
(-1.24103e-05 5.2844e-05 0.0995417)
(1.86612e-06 -4.54692e-05 0.101674)
(1.76012e-06 -4.52698e-05 0.101686)
(-3.40028e-06 2.19962e-05 0.0953888)
(-1.25597e-05 5.32911e-05 0.0995507)
(6.75273e-06 -1.34859e-05 0.0926872)
(-8.27421e-06 5.61889e-05 0.10155)
(3.4744e-06 -1.82714e-05 0.0954692)
(5.55594e-06 -4.36048e-05 0.0996276)
(-4.03538e-06 5.71793e-05 0.103194)
(-1.17001e-07 2.47141e-05 0.098543)
(1.08162e-06 -1.76369e-05 0.0975576)
(-6.69154e-07 -4.02304e-05 0.10407)
(-1.5589e-06 2.47345e-05 0.0974789)
(-8.22212e-07 5.7543e-05 0.103943)
(-8.66585e-07 -4.21176e-05 0.10335)
(1.98885e-05 -1.98548e-05 0.0974961)
(3.82418e-05 -3.81971e-05 0.104922)
(-4.36512e-05 2.46376e-05 0.101648)
(-2.46357e-05 4.36283e-05 0.101652)
(3.98457e-05 -2.10035e-05 0.101739)
(-1.91139e-05 1.90633e-05 0.097425)
(2.10229e-05 -3.98429e-05 0.101742)
(5.56266e-05 8.17577e-06 0.101539)
(-4.3829e-05 -5.69851e-06 0.0996205)
(1.90872e-05 6.73675e-06 0.0926171)
(-1.84562e-05 -3.48807e-06 0.0954628)
(5.27595e-05 1.23723e-05 0.0995423)
(2.17116e-05 3.36119e-06 0.0953827)
(-4.5481e-05 -1.78695e-06 0.101675)
(5.71813e-05 4.04792e-06 0.103194)
(2.4716e-05 1.2916e-07 0.0985431)
(-1.76422e-05 -1.07035e-06 0.0975579)
(-4.0251e-05 6.80524e-07 0.10407)
(2.47367e-05 1.58292e-06 0.0974794)
(5.74898e-05 8.20006e-07 0.103943)
(-4.20881e-05 8.90584e-07 0.10335)
(5.56527e-05 -8.1111e-06 0.101538)
(-4.37763e-05 5.69147e-06 0.0996187)
(1.9119e-05 -6.68979e-06 0.0926168)
(-1.83959e-05 3.48302e-06 0.0954631)
(2.17334e-05 -3.30051e-06 0.095383)
(5.27573e-05 -1.23473e-05 0.0995422)
(-4.54302e-05 1.87275e-06 0.101674)
(5.71881e-05 -3.99102e-06 0.103194)
(2.4715e-05 -7.31744e-08 0.0985433)
(-4.02486e-05 -6.40282e-07 0.10407)
(-1.76116e-05 1.08293e-06 0.097558)
(5.74938e-05 -7.81252e-07 0.103943)
(2.47112e-05 -1.51768e-06 0.0974798)
(-4.20918e-05 -8.50715e-07 0.10335)
(4.18254e-05 9.59552e-07 0.103364)
(-2.50442e-05 1.60514e-06 0.0974878)
(-5.81619e-05 8.24116e-07 0.103957)
(1.69553e-05 -4.21511e-07 0.0986221)
(-5.78051e-05 4.11336e-06 0.103207)
(1.74327e-05 -1.01914e-06 0.0975673)
(3.99531e-05 7.2051e-07 0.104085)
(-5.56354e-05 8.16795e-06 0.101539)
(4.37757e-05 -5.68897e-06 0.0996205)
(-1.90856e-05 6.72084e-06 0.0926171)
(1.8429e-05 -3.4669e-06 0.095463)
(-5.2737e-05 1.23946e-05 0.0995443)
(-2.17254e-05 3.35281e-06 0.0953818)
(4.54364e-05 -1.86798e-06 0.101676)
(4.53008e-05 -1.78213e-06 0.101688)
(-2.19594e-05 3.40814e-06 0.0953889)
(-5.3204e-05 1.25599e-05 0.0995533)
(1.34635e-05 -6.73353e-06 0.0926887)
(-5.61595e-05 8.30123e-06 0.101551)
(4.36032e-05 -5.5745e-06 0.0996298)
(1.82844e-05 -3.45156e-06 0.0954703)
(-5.72218e-05 4.03319e-06 0.103194)
(-2.47128e-05 8.90532e-08 0.098543)
(1.76322e-05 -1.04315e-06 0.0975578)
(4.02196e-05 6.91708e-07 0.10407)
(-2.47461e-05 1.56278e-06 0.0974786)
(-5.75258e-05 7.9236e-07 0.103943)
(4.20591e-05 8.86917e-07 0.103351)
(4.18397e-05 -9.2296e-07 0.103363)
(-5.81883e-05 -8.54774e-07 0.103957)
(-2.50183e-05 -1.60706e-06 0.0974888)
(1.69499e-05 4.73981e-07 0.0986219)
(-5.77626e-05 -4.11752e-06 0.103207)
(3.99934e-05 -6.52826e-07 0.104084)
(1.74039e-05 1.06742e-06 0.0975673)
(-5.5631e-05 -8.15216e-06 0.101539)
(4.37744e-05 5.69891e-06 0.0996196)
(-1.9112e-05 -6.74725e-06 0.0926179)
(1.84203e-05 3.50974e-06 0.095463)
(-2.17165e-05 -3.36708e-06 0.095383)
(-5.27655e-05 -1.23802e-05 0.0995441)
(4.54509e-05 1.88628e-06 0.101675)
(4.52924e-05 1.79098e-06 0.101687)
(-2.19511e-05 -3.40647e-06 0.0953901)
(-5.323e-05 -1.25362e-05 0.0995531)
(1.34794e-05 6.76422e-06 0.0926881)
(-5.61649e-05 -8.28305e-06 0.101551)
(1.82704e-05 3.48727e-06 0.0954703)
(4.36339e-05 5.59908e-06 0.0996289)
(-5.72048e-05 -4.04065e-06 0.103195)
(-2.47043e-05 -1.08141e-07 0.0985432)
(4.02353e-05 -6.24118e-07 0.10407)
(1.76049e-05 1.0846e-06 0.0975579)
(-5.75224e-05 -8.22672e-07 0.103943)
(-2.47221e-05 -1.56571e-06 0.0974795)
(4.21281e-05 -8.44043e-07 0.10335)
(9.47556e-07 4.17996e-05 0.103363)
(8.46533e-07 -5.81875e-05 0.103957)
(1.63476e-06 -2.50371e-05 0.0974878)
(-4.44526e-07 1.69449e-05 0.098622)
(4.10774e-06 -5.77868e-05 0.103207)
(6.9671e-07 3.99355e-05 0.104084)
(-1.04789e-06 1.74149e-05 0.0975673)
(8.14603e-06 -5.56475e-05 0.101539)
(-5.7073e-06 4.38332e-05 0.0996203)
(6.75379e-06 -1.91215e-05 0.0926178)
(-3.49069e-06 1.8438e-05 0.095463)
(1.2386e-05 -5.27512e-05 0.0995439)
(3.37268e-06 -2.17363e-05 0.0953829)
(-1.87278e-06 4.54712e-05 0.101675)
(-1.77413e-06 4.52999e-05 0.101688)
(-3.46817e-06 1.82894e-05 0.0954704)
(4.01823e-06 -5.71574e-05 0.103194)
(1.35557e-07 -2.47287e-05 0.0985424)
(6.64321e-07 4.02091e-05 0.10407)
(-1.07328e-06 1.76233e-05 0.0975577)
(8.16884e-07 -5.75249e-05 0.103943)
(1.59093e-06 -2.47338e-05 0.0974787)
(8.73975e-07 4.20469e-05 0.10335)
(-9.46966e-07 4.17813e-05 0.103363)
(-8.21155e-07 -5.81873e-05 0.103956)
(-1.58919e-06 -2.50088e-05 0.0974877)
(4.40407e-07 1.69355e-05 0.098622)
(-4.08013e-06 -5.77728e-05 0.103207)
(-6.91642e-07 3.99319e-05 0.104084)
(1.03524e-06 1.73794e-05 0.0975674)
(-8.12359e-06 -5.56144e-05 0.101538)
(5.72344e-06 4.38045e-05 0.0996191)
(-6.77345e-06 -1.91199e-05 0.0926172)
(3.51957e-06 1.84125e-05 0.095463)
(-3.379e-06 -2.17021e-05 0.0953819)
(-1.23913e-05 -5.27684e-05 0.0995427)
(1.88091e-06 4.54447e-05 0.101675)
(1.79352e-06 4.53001e-05 0.101687)
(-3.42089e-06 -2.1933e-05 0.0953891)
(-1.25416e-05 -5.32153e-05 0.0995517)
(6.79785e-06 1.35124e-05 0.0926881)
(-8.25497e-06 -5.61324e-05 0.10155)
(3.49231e-06 1.82626e-05 0.0954702)
(5.61522e-06 4.3651e-05 0.0996284)
(-4.00468e-06 -5.7227e-05 0.103194)
(-6.91052e-08 -2.47205e-05 0.0985424)
(-6.65556e-07 4.01999e-05 0.104069)
(1.05552e-06 1.75852e-05 0.097558)
(-7.90809e-07 -5.75425e-05 0.103942)
(-1.55148e-06 -2.47117e-05 0.0974785)
(-8.59379e-07 4.2116e-05 0.10335)
(1.98846e-05 1.98526e-05 0.0974958)
(3.82638e-05 3.82492e-05 0.10492)
(-2.46196e-05 -4.36351e-05 0.101652)
(-4.35776e-05 -2.45902e-05 0.101648)
(-1.90631e-05 -1.90578e-05 0.0974257)
(2.10267e-05 3.98613e-05 0.101742)
(3.98822e-05 2.10286e-05 0.101739)
(6.10575e-05 6.10354e-05 0.108908)
(-9.16969e-05 5.6893e-05 0.107966)
(5.69333e-05 -9.17643e-05 0.107966)
(-0.000146125 -0.000146175 0.106634)
(9.82206e-06 9.70633e-06 0.106791)
(5.74063e-05 9.21527e-05 0.107918)
(-5.74473e-05 9.23094e-05 0.107918)
(-9.72545e-06 9.74725e-06 0.106792)
(9.23609e-05 5.74039e-05 0.107919)
(9.23439e-05 -5.74148e-05 0.107918)
(-9.21939e-05 5.72078e-05 0.107919)
(-9.22541e-05 -5.72802e-05 0.107918)
(9.79254e-06 -9.66873e-06 0.106791)
(5.72272e-05 -9.225e-05 0.107919)
(-5.71591e-05 -9.21274e-05 0.107919)
(-9.64172e-06 -9.61984e-06 0.106791)
(0.000146135 0.000146141 0.106634)
(7.14308e-06 7.13181e-06 0.10683)
(5.70833e-05 9.17967e-05 0.107966)
(-5.71409e-05 9.18222e-05 0.107965)
(5.62148e-05 8.99835e-05 0.1081)
(-5.6245e-05 9.02942e-05 0.1081)
(-0.000146156 0.000146088 0.106634)
(-6.94366e-06 6.95975e-06 0.106831)
(9.17577e-05 5.69612e-05 0.107966)
(9.18541e-05 -5.71059e-05 0.107965)
(9.03831e-05 5.63278e-05 0.108101)
(9.0316e-05 -5.62232e-05 0.1081)
(-9.17533e-05 -5.69721e-05 0.107965)
(-9.01463e-05 5.60076e-05 0.108101)
(-9.02092e-05 -5.60724e-05 0.1081)
(0.000146145 -0.000146184 0.106634)
(7.01552e-06 -6.87594e-06 0.10683)
(-5.68491e-05 -9.16242e-05 0.107966)
(5.60462e-05 -9.02267e-05 0.108101)
(-5.59596e-05 -9.00798e-05 0.108101)
(-6.88968e-06 -6.8795e-06 0.10683)
(6.13699e-05 6.13533e-05 0.108832)
(-6.13675e-05 6.1303e-05 0.108832)
(6.13194e-05 -6.13444e-05 0.108832)
(-6.13349e-05 -6.13238e-05 0.108832)
(1.19698e-06 1.08036e-05 0.0940541)
(-1.48387e-06 3.26478e-05 0.0835755)
(1.89822e-06 5.77747e-05 0.0940776)
(-4.18345e-06 -4.85154e-06 0.0835806)
(-3.63216e-06 1.48121e-05 0.0721605)
(5.46342e-06 -5.58805e-06 0.0721978)
(1.07589e-05 1.18862e-06 0.0940531)
(3.27242e-05 -1.47554e-06 0.0835762)
(5.78631e-05 1.95208e-06 0.0940777)
(-4.88885e-06 -4.13489e-06 0.0835795)
(-6.10594e-05 6.09955e-05 0.108908)
(6.10143e-05 -6.10408e-05 0.108908)
(-6.10265e-05 -6.1014e-05 0.108908)
(6.01377e-05 6.01622e-05 0.109132)
(-6.01221e-05 6.00723e-05 0.109132)
(6.0085e-05 -6.011e-05 0.109132)
(-6.00878e-05 -6.00759e-05 0.109132)
(-4.89628e-05 3.99203e-06 0.102491)
(-6.49709e-05 2.62583e-05 0.0957158)
(-0.000101793 2.00844e-05 0.108605)
(-9.11949e-05 5.65893e-05 0.108012)
(-0.000111142 5.6843e-06 0.102466)
(-2.15472e-05 -3.79667e-07 0.0957347)
(-0.000101438 1.99342e-05 0.108671)
(1.47199e-05 -3.54281e-06 0.0721573)
(-5.59677e-06 5.45292e-06 0.0721998)
(3.9184e-06 -4.89677e-05 0.102491)
(2.01095e-05 -0.000101724 0.108605)
(2.63685e-05 -6.49546e-05 0.0957163)
(5.66438e-05 -9.12628e-05 0.108012)
(5.70977e-06 -0.000111155 0.102465)
(1.99688e-05 -0.000101357 0.108671)
(-3.88047e-07 -2.13459e-05 0.0957329)
(-3.18477e-05 -1.73602e-05 0.0893933)
(-1.7306e-05 -3.18835e-05 0.0893915)
(-8.25127e-06 -8.23004e-06 0.106814)
(-1.07373e-05 3.00473e-06 0.0893984)
(3.12627e-06 -1.07812e-05 0.0893958)
(-5.55008e-06 -5.43437e-06 0.0722797)
(3.50978e-06 1.51237e-05 0.0722399)
(-5.42158e-06 -5.53287e-06 0.072277)
(1.51878e-05 3.57149e-06 0.0722401)
(0.000147894 0.000147921 0.106613)
(-2.78944e-06 1.19635e-05 0.0895316)
(1.18065e-05 -2.82848e-06 0.0895288)
(1.77879e-05 3.29742e-05 0.0895288)
(3.3108e-05 1.77747e-05 0.0895263)
(2.10286e-06 6.05907e-05 0.0942444)
(-4.35109e-06 -4.10327e-06 0.0836968)
(-1.69232e-06 3.38385e-05 0.0836951)
(1.3782e-06 1.2973e-05 0.0942165)
(-2.23229e-06 6.05939e-05 0.0942446)
(4.2731e-06 -4.18985e-06 0.083695)
(1.6446e-06 3.38648e-05 0.083696)
(-1.40819e-06 1.29918e-05 0.0942163)
(6.08691e-06 0.000114857 0.102598)
(5.77064e-05 9.27684e-05 0.10787)
(1.37377e-07 2.35769e-05 0.0958849)
(2.02805e-05 0.000102083 0.108539)
(2.72803e-05 6.73431e-05 0.0958687)
(2.04216e-05 0.000102448 0.108472)
(4.51399e-06 5.21405e-05 0.102625)
(-6.21419e-06 0.000114904 0.102598)
(-5.77399e-05 9.27912e-05 0.10787)
(-1.90719e-07 2.33701e-05 0.095883)
(-2.02636e-05 0.000102125 0.108539)
(-2.73923e-05 6.74043e-05 0.0958684)
(-2.04075e-05 0.000102468 0.108472)
(-4.52593e-06 5.21276e-05 0.102625)
(5.52879e-06 -5.43093e-06 0.0722769)
(-3.63468e-06 1.51447e-05 0.0722413)
(-0.000147887 0.0001478 0.106613)
(2.794e-06 1.18138e-05 0.0895287)
(-1.18863e-05 -2.81007e-06 0.0895322)
(-1.78302e-05 3.30382e-05 0.0895274)
(-3.30029e-05 1.77794e-05 0.0895285)
(5.47247e-06 -5.53062e-06 0.0722794)
(-1.51119e-05 3.51826e-06 0.0722392)
(6.06556e-05 2.15156e-06 0.0942446)
(-4.16355e-06 -4.27578e-06 0.0836956)
(3.39061e-05 -1.69714e-06 0.0836957)
(1.29604e-05 1.39611e-06 0.0942155)
(0.000114884 6.1322e-06 0.102597)
(9.27443e-05 5.75655e-05 0.10787)
(2.33741e-05 1.60432e-07 0.0958839)
(0.000102116 2.02656e-05 0.108539)
(6.74217e-05 2.73167e-05 0.095868)
(0.000102484 2.04108e-05 0.108472)
(5.21085e-05 4.53402e-06 0.102624)
(6.06528e-05 -2.12486e-06 0.0942447)
(-4.13694e-06 4.32594e-06 0.0836962)
(3.38531e-05 1.66649e-06 0.0836942)
(1.29726e-05 -1.46143e-06 0.0942153)
(0.000114883 -6.13997e-06 0.102597)
(9.28356e-05 -5.77111e-05 0.107869)
(0.000102093 -2.02605e-05 0.108539)
(2.34249e-05 -1.8866e-07 0.0958842)
(0.000102451 -2.03982e-05 0.108472)
(6.73515e-05 -2.73017e-05 0.0958671)
(5.20698e-05 -4.54561e-06 0.102624)
(-0.000114927 6.15982e-06 0.102598)
(-9.26812e-05 5.74979e-05 0.10787)
(-2.35231e-05 1.95946e-07 0.0958862)
(-0.000102154 2.02373e-05 0.108539)
(-6.73572e-05 2.73205e-05 0.0958691)
(-0.00010251 2.03861e-05 0.108472)