/*--------------------------------*- C++ -*----------------------------------*\
| =========                 |                                                 |
| \\      /  F ield         | OpenFOAM: The Open Source CFD Toolbox           |
|  \\    /   O peration     | Version:  v1906                                 |
|   \\  /    A nd           | Web:      www.OpenFOAM.com                      |
|    \\/     M anipulation  |                                                 |
\*---------------------------------------------------------------------------*/
FoamFile
{
    version     2.0;
    format      ascii;
    class       volScalarField;
    location    "0.235";
    object      p;
}
// * * * * * * * * * * * * * * * * * * * * * * * * * * * * * * * * * * * * * //

dimensions      [0 2 -2 0 0 0 0];


internalField   nonuniform List<scalar> 
247104
(
-2.82813e-11
2.75109e-10
4.26391e-10
3.5978e-10
2.19565e-10
4.01321e-10
4.37318e-10
2.24434e-10
1.42422e-10
2.5584e-10
3.47116e-10
1.83536e-10
7.47344e-11
2.22966e-10
3.80334e-10
2.56749e-10
1.51789e-10
1.93025e-10
-9.76417e-11
-4.81009e-10
-6.3238e-10
-4.25319e-10
-2.03329e-11
2.45177e-10
1.88825e-10
-5.29326e-11
-1.22822e-10
-6.3787e-10
-1.15451e-09
-1.33945e-09
-1.08719e-09
-5.33877e-10
-3.9276e-11
-2.11637e-11
-2.97414e-10
-3.06981e-10
-3.60268e-10
-9.22814e-10
-1.4747e-09
-1.66906e-09
-1.40368e-09
-8.11606e-10
-2.71226e-10
-2.87807e-10
-2.12114e-10
-2.99054e-10
-8.07136e-10
-1.31664e-09
-1.49911e-09
-1.24932e-09
-7.03787e-10
-2.15965e-10
-1.73693e-10
-2.03484e-10
-1.75595e-10
-4.43537e-10
-8.09963e-10
-9.56779e-10
-7.54962e-10
-3.69041e-10
-1.26688e-10
-1.63543e-10
-3.86271e-10
-2.82768e-10
-1.74518e-10
-3.21851e-10
-4.28806e-10
-2.82909e-10
-1.44381e-10
-2.8541e-10
-1.98199e-10
-2.87279e-10
-4.38776e-10
-2.39939e-10
-1.85002e-10
-3.37589e-08
-3.57991e-08
-3.61061e-08
-3.72684e-08
-3.73206e-08
-3.73966e-08
-3.73866e-08
-3.60442e-08
-3.56922e-08
-3.61366e-08
-3.81822e-08
-4.10401e-08
-4.11107e-08
-4.11092e-08
-4.10343e-08
-3.77691e-08
-3.75644e-08
-3.7314e-08
-4.10581e-08
-4.11224e-08
-4.10706e-08
-4.10689e-08
-4.11175e-08
-4.10494e-08
-3.73802e-08
-3.63922e-08
-3.3841e-08
-3.73884e-08
-4.11452e-08
-4.10877e-08
-4.09836e-08
-4.0982e-08
-4.10831e-08
-4.1137e-08
-3.74835e-08
-3.58406e-08
-3.59016e-08
-3.74882e-08
-4.1159e-08
-4.1102e-08
-4.09982e-08
-4.09966e-08
-4.10975e-08
-4.11509e-08
-3.73368e-08
-3.74824e-08
-3.74948e-08
-4.10977e-08
-4.11643e-08
-4.11132e-08
-4.11116e-08
-4.11595e-08
-4.10898e-08
-3.75497e-08
-3.66125e-08
-3.61809e-08
-3.78665e-08
-4.11074e-08
-4.11783e-08
-4.11772e-08
-4.11025e-08
-3.77051e-08
-3.74547e-08
-3.60649e-08
-3.58308e-08
-3.76716e-08
-3.74658e-08
-3.75498e-08
-3.7382e-08
-3.75768e-08
-3.74671e-08
-3.53854e-08
-3.64964e-08
-3.59337e-08
-3.75371e-08
-3.66467e-08
-3.60834e-08
-5.38747e-08
-5.40697e-08
-5.42335e-08
-5.6404e-08
-5.64765e-08
-5.64919e-08
-5.64224e-08
-5.41988e-08
-5.39956e-08
-5.4241e-08
-5.71318e-08
-6.01311e-08
-6.02691e-08
-6.02694e-08
-6.01344e-08
-5.64766e-08
-5.59602e-08
-5.64235e-08
-6.01266e-08
-6.05064e-08
-6.04989e-08
-6.04986e-08
-6.0505e-08
-6.0113e-08
-5.56703e-08
-5.36869e-08
-5.39015e-08
-5.64969e-08
-6.0272e-08
-6.05011e-08
-6.04811e-08
-6.04811e-08
-6.05006e-08
-6.02688e-08
-5.56381e-08
-5.3992e-08
-5.41022e-08
-5.65168e-08
-6.02741e-08
-6.05029e-08
-6.04838e-08
-6.04847e-08
-6.05041e-08
-6.02727e-08
-5.57097e-08
-5.59173e-08
-5.64527e-08
-6.01264e-08
-6.05084e-08
-6.05067e-08
-6.05095e-08
-6.05163e-08
-6.01245e-08
-5.56238e-08
-5.36484e-08
-5.42366e-08
-5.64979e-08
-6.01262e-08
-6.02812e-08
-6.02882e-08
-6.01545e-08
-5.60126e-08
-5.57977e-08
-5.37461e-08
-5.40322e-08
-5.59885e-08
-5.56931e-08
-5.5659e-08
-5.57268e-08
-5.56371e-08
-5.58032e-08
-5.38047e-08
-5.37181e-08
-5.40178e-08
-5.5936e-08
-5.366e-08
-5.37584e-08
-7.32422e-08
-7.34159e-08
-7.354e-08
-7.57932e-08
-7.58559e-08
-7.59566e-08
-7.57612e-08
-7.35355e-08
-7.33107e-08
-7.35485e-08
-7.66277e-08
-7.95532e-08
-7.96055e-08
-7.96063e-08
-7.95552e-08
-7.59292e-08
-7.52124e-08
-7.58012e-08
-7.95532e-08
-7.97125e-08
-7.9714e-08
-7.97145e-08
-7.97135e-08
-7.95562e-08
-7.49922e-08
-7.30377e-08
-7.32515e-08
-7.58629e-08
-7.96079e-08
-7.97159e-08
-7.97129e-08
-7.97131e-08
-7.97163e-08
-7.9609e-08
-7.48998e-08
-7.33613e-08
-7.34291e-08
-7.59671e-08
-7.96103e-08
-7.97173e-08
-7.97143e-08
-7.97145e-08
-7.97174e-08
-7.96112e-08
-7.49371e-08
-7.51722e-08
-7.57776e-08
-7.95608e-08
-7.97165e-08
-7.97181e-08
-7.97185e-08
-7.97172e-08
-7.95606e-08
-7.49249e-08
-7.30173e-08
-7.35577e-08
-7.59415e-08
-7.95592e-08
-7.96106e-08
-7.96113e-08
-7.9558e-08
-7.51477e-08
-7.50567e-08
-7.30524e-08
-7.33343e-08
-7.52245e-08
-7.49983e-08
-7.49034e-08
-7.4936e-08
-7.49191e-08
-7.50519e-08
-7.30582e-08
-7.30442e-08
-7.33664e-08
-7.51662e-08
-7.30092e-08
-7.3043e-08
-9.25864e-08
-9.27548e-08
-9.29266e-08
-9.51835e-08
-9.52584e-08
-9.53946e-08
-9.5158e-08
-9.29063e-08
-9.26777e-08
-9.29316e-08
-9.60332e-08
-9.89628e-08
-9.89805e-08
-9.89805e-08
-9.89636e-08
-9.53701e-08
-9.45564e-08
-9.5182e-08
-9.89634e-08
-9.90103e-08
-9.9013e-08
-9.90132e-08
-9.90112e-08
-9.89642e-08
-9.43215e-08
-9.23727e-08
-9.25824e-08
-9.5259e-08
-9.89807e-08
-9.90132e-08
-9.90136e-08
-9.90137e-08
-9.90134e-08
-9.89817e-08
-9.41816e-08
-9.26517e-08
-9.27583e-08
-9.53967e-08
-9.89815e-08
-9.90138e-08
-9.9014e-08
-9.90139e-08
-9.90135e-08
-9.89815e-08
-9.42011e-08
-9.44549e-08
-9.5161e-08
-9.89651e-08
-9.90121e-08
-9.90139e-08
-9.90137e-08
-9.90112e-08
-9.8964e-08
-9.42342e-08
-9.23128e-08
-9.29095e-08
-9.53712e-08
-9.89648e-08
-9.89821e-08
-9.89816e-08
-9.89638e-08
-9.44024e-08
-9.43662e-08
-9.23901e-08
-9.26851e-08
-9.45604e-08
-9.43233e-08
-9.41827e-08
-9.42015e-08
-9.42331e-08
-9.43635e-08
-9.24363e-08
-9.23762e-08
-9.26523e-08
-9.44533e-08
-9.23091e-08
-9.23872e-08
-1.11946e-07
-1.12113e-07
-1.12304e-07
-1.14572e-07
-1.1465e-07
-1.14791e-07
-1.14551e-07
-1.12281e-07
-1.12058e-07
-1.12312e-07
-1.15426e-07
-1.18378e-07
-1.18383e-07
-1.18383e-07
-1.18377e-07
-1.14787e-07
-1.1394e-07
-1.14572e-07
-1.18377e-07
-1.18391e-07
-1.18392e-07
-1.18392e-07
-1.1839e-07
-1.18376e-07
-1.137e-07
-1.1174e-07
-1.1194e-07
-1.1465e-07
-1.18384e-07
-1.18392e-07
-1.18393e-07
-1.18392e-07
-1.18392e-07
-1.18382e-07
-1.13547e-07
-1.11996e-07
-1.12113e-07
-1.14792e-07
-1.18384e-07
-1.18393e-07
-1.18393e-07
-1.18393e-07
-1.18392e-07
-1.18382e-07
-1.13557e-07
-1.13807e-07
-1.14553e-07
-1.18378e-07
-1.18392e-07
-1.18393e-07
-1.18393e-07
-1.18391e-07
-1.18377e-07
-1.13609e-07
-1.11658e-07
-1.12282e-07
-1.14792e-07
-1.18378e-07
-1.18384e-07
-1.18384e-07
-1.18378e-07
-1.13761e-07
-1.13732e-07
-1.11754e-07
-1.1206e-07
-1.13943e-07
-1.13703e-07
-1.13551e-07
-1.1356e-07
-1.13608e-07
-1.13738e-07
-1.11779e-07
-1.1174e-07
-1.11996e-07
-1.13808e-07
-1.11658e-07
-1.11755e-07
-1.31416e-07
-1.31581e-07
-1.31773e-07
-1.34042e-07
-1.34119e-07
-1.3426e-07
-1.34022e-07
-1.31752e-07
-1.31519e-07
-1.31776e-07
-1.3489e-07
-1.37828e-07
-1.37827e-07
-1.37826e-07
-1.37827e-07
-1.34259e-07
-1.3344e-07
-1.34043e-07
-1.37828e-07
-1.37826e-07
-1.37824e-07
-1.37823e-07
-1.37826e-07
-1.37826e-07
-1.33168e-07
-1.3121e-07
-1.3141e-07
-1.34119e-07
-1.37827e-07
-1.37824e-07
-1.37821e-07
-1.37821e-07
-1.37823e-07
-1.37826e-07
-1.33005e-07
-1.3146e-07
-1.31582e-07
-1.3426e-07
-1.37826e-07
-1.37824e-07
-1.37821e-07
-1.37821e-07
-1.37824e-07
-1.37827e-07
-1.33011e-07
-1.33273e-07
-1.34024e-07
-1.37828e-07
-1.37826e-07
-1.37824e-07
-1.37824e-07
-1.37826e-07
-1.37828e-07
-1.33069e-07
-1.31122e-07
-1.31753e-07
-1.34257e-07
-1.37828e-07
-1.37827e-07
-1.37827e-07
-1.37828e-07
-1.33207e-07
-1.33192e-07
-1.31224e-07
-1.31534e-07
-1.3341e-07
-1.33165e-07
-1.33006e-07
-1.33012e-07
-1.33072e-07
-1.33201e-07
-1.31243e-07
-1.31211e-07
-1.31459e-07
-1.33273e-07
-1.31125e-07
-1.31226e-07
-1.50822e-07
-1.50985e-07
-1.51175e-07
-1.53421e-07
-1.53496e-07
-1.53636e-07
-1.534e-07
-1.51149e-07
-1.50921e-07
-1.51179e-07
-1.54262e-07
-1.57166e-07
-1.57165e-07
-1.57164e-07
-1.57166e-07
-1.53626e-07
-1.52819e-07
-1.53422e-07
-1.57167e-07
-1.57164e-07
-1.57161e-07
-1.57161e-07
-1.57163e-07
-1.57166e-07
-1.5254e-07
-1.50612e-07
-1.50815e-07
-1.53496e-07
-1.57165e-07
-1.57162e-07
-1.57159e-07
-1.57159e-07
-1.57161e-07
-1.57164e-07
-1.5237e-07
-1.50857e-07
-1.50985e-07
-1.53637e-07
-1.57165e-07
-1.57161e-07
-1.57159e-07
-1.57159e-07
-1.57161e-07
-1.57165e-07
-1.52376e-07
-1.52654e-07
-1.53402e-07
-1.57166e-07
-1.57164e-07
-1.57161e-07
-1.57161e-07
-1.57163e-07
-1.57167e-07
-1.52437e-07
-1.50521e-07
-1.51151e-07
-1.53624e-07
-1.57166e-07
-1.57165e-07
-1.57165e-07
-1.57166e-07
-1.52566e-07
-1.52567e-07
-1.5063e-07
-1.50935e-07
-1.52787e-07
-1.52537e-07
-1.52371e-07
-1.52378e-07
-1.52439e-07
-1.52574e-07
-1.50636e-07
-1.5061e-07
-1.50855e-07
-1.52653e-07
-1.50523e-07
-1.50631e-07
-1.70018e-07
-1.70182e-07
-1.70376e-07
-1.72625e-07
-1.72705e-07
-1.72848e-07
-1.72609e-07
-1.70352e-07
-1.70125e-07
-1.70379e-07
-1.73474e-07
-1.76411e-07
-1.76414e-07
-1.76415e-07
-1.76411e-07
-1.7285e-07
-1.72024e-07
-1.72626e-07
-1.76411e-07
-1.76417e-07
-1.7642e-07
-1.76421e-07
-1.76418e-07
-1.76412e-07
-1.71755e-07
-1.69812e-07
-1.70011e-07
-1.72706e-07
-1.76414e-07
-1.7642e-07
-1.76424e-07
-1.76424e-07
-1.76421e-07
-1.76415e-07
-1.71593e-07
-1.70059e-07
-1.70181e-07
-1.72848e-07
-1.76414e-07
-1.76421e-07
-1.76424e-07
-1.76424e-07
-1.76421e-07
-1.76415e-07
-1.71599e-07
-1.71855e-07
-1.7261e-07
-1.76411e-07
-1.76418e-07
-1.76421e-07
-1.76421e-07
-1.76418e-07
-1.76411e-07
-1.71655e-07
-1.69721e-07
-1.70353e-07
-1.72846e-07
-1.76412e-07
-1.76414e-07
-1.76414e-07
-1.76411e-07
-1.71791e-07
-1.71776e-07
-1.69826e-07
-1.70137e-07
-1.71994e-07
-1.71754e-07
-1.71593e-07
-1.716e-07
-1.71658e-07
-1.71784e-07
-1.69838e-07
-1.6981e-07
-1.70057e-07
-1.71854e-07
-1.69723e-07
-1.69827e-07
-1.89331e-07
-1.89499e-07
-1.89695e-07
-1.91977e-07
-1.92059e-07
-1.92202e-07
-1.91963e-07
-1.89678e-07
-1.89444e-07
-1.89698e-07
-1.92834e-07
-1.95812e-07
-1.95814e-07
-1.95814e-07
-1.95812e-07
-1.92218e-07
-1.91378e-07
-1.91978e-07
-1.95811e-07
-1.95817e-07
-1.95819e-07
-1.95819e-07
-1.95817e-07
-1.95813e-07
-1.91117e-07
-1.89134e-07
-1.89325e-07
-1.9206e-07
-1.95814e-07
-1.95819e-07
-1.95821e-07
-1.95821e-07
-1.95819e-07
-1.95815e-07
-1.90958e-07
-1.89385e-07
-1.89499e-07
-1.92203e-07
-1.95814e-07
-1.95819e-07
-1.95821e-07
-1.95821e-07
-1.95819e-07
-1.95815e-07
-1.90964e-07
-1.91202e-07
-1.91964e-07
-1.95812e-07
-1.95817e-07
-1.95819e-07
-1.95819e-07
-1.95817e-07
-1.95813e-07
-1.91018e-07
-1.89045e-07
-1.89679e-07
-1.92213e-07
-1.95813e-07
-1.95815e-07
-1.95815e-07
-1.95812e-07
-1.91166e-07
-1.91132e-07
-1.89143e-07
-1.89459e-07
-1.91347e-07
-1.91115e-07
-1.90957e-07
-1.90965e-07
-1.91021e-07
-1.9114e-07
-1.8917e-07
-1.89132e-07
-1.89384e-07
-1.91201e-07
-1.89047e-07
-1.89144e-07
-2.08903e-07
-2.09069e-07
-2.09261e-07
-2.11536e-07
-2.11611e-07
-2.11751e-07
-2.11515e-07
-2.09238e-07
-2.09006e-07
-2.09264e-07
-2.12379e-07
-2.15322e-07
-2.15319e-07
-2.15318e-07
-2.15321e-07
-2.11753e-07
-2.10933e-07
-2.11536e-07
-2.15322e-07
-2.15316e-07
-2.15313e-07
-2.15312e-07
-2.15315e-07
-2.15321e-07
-2.10659e-07
-2.08699e-07
-2.08896e-07
-2.11611e-07
-2.15319e-07
-2.15313e-07
-2.15309e-07
-2.15309e-07
-2.15312e-07
-2.15318e-07
-2.10493e-07
-2.08947e-07
-2.09068e-07
-2.11752e-07
-2.15318e-07
-2.15312e-07
-2.15309e-07
-2.15309e-07
-2.15312e-07
-2.15318e-07
-2.10499e-07
-2.10763e-07
-2.11516e-07
-2.15321e-07
-2.15315e-07
-2.15312e-07
-2.15312e-07
-2.15315e-07
-2.15322e-07
-2.10558e-07
-2.0861e-07
-2.09241e-07
-2.11749e-07
-2.15321e-07
-2.15318e-07
-2.15318e-07
-2.15322e-07
-2.10695e-07
-2.10682e-07
-2.08714e-07
-2.09021e-07
-2.10901e-07
-2.10657e-07
-2.10493e-07
-2.105e-07
-2.1056e-07
-2.10689e-07
-2.08732e-07
-2.08697e-07
-2.08945e-07
-2.10762e-07
-2.08611e-07
-2.08715e-07
-2.28323e-07
-2.28486e-07
-2.28687e-07
-2.30924e-07
-2.30999e-07
-2.3114e-07
-2.30904e-07
-2.28648e-07
-2.28421e-07
-2.28683e-07
-2.31765e-07
-2.34679e-07
-2.34678e-07
-2.34678e-07
-2.34679e-07
-2.31133e-07
-2.30322e-07
-2.30925e-07
-2.34679e-07
-2.34677e-07
-2.34675e-07
-2.34675e-07
-2.34676e-07
-2.34678e-07
-2.30043e-07
-2.28113e-07
-2.28316e-07
-2.31e-07
-2.34678e-07
-2.34675e-07
-2.34674e-07
-2.34674e-07
-2.34675e-07
-2.34677e-07
-2.29876e-07
-2.28358e-07
-2.28485e-07
-2.31141e-07
-2.34678e-07
-2.34675e-07
-2.34674e-07
-2.34674e-07
-2.34675e-07
-2.34677e-07
-2.29881e-07
-2.30155e-07
-2.30904e-07
-2.34679e-07
-2.34676e-07
-2.34675e-07
-2.34675e-07
-2.34676e-07
-2.34678e-07
-2.29941e-07
-2.28021e-07
-2.28652e-07
-2.3113e-07
-2.34678e-07
-2.34677e-07
-2.34677e-07
-2.34678e-07
-2.3007e-07
-2.30068e-07
-2.2813e-07
-2.28437e-07
-2.3029e-07
-2.30041e-07
-2.29876e-07
-2.29882e-07
-2.29943e-07
-2.30076e-07
-2.28137e-07
-2.28111e-07
-2.28356e-07
-2.30154e-07
-2.28023e-07
-2.28131e-07
-2.47565e-07
-2.4773e-07
-2.47931e-07
-2.50184e-07
-2.50265e-07
-2.50408e-07
-2.50168e-07
-2.47901e-07
-2.47672e-07
-2.47925e-07
-2.51037e-07
-2.53983e-07
-2.53985e-07
-2.53986e-07
-2.53983e-07
-2.50412e-07
-2.49585e-07
-2.50186e-07
-2.53983e-07
-2.53987e-07
-2.53989e-07
-2.53989e-07
-2.53987e-07
-2.53983e-07
-2.49317e-07
-2.4736e-07
-2.47558e-07
-2.50266e-07
-2.53985e-07
-2.53989e-07
-2.53991e-07
-2.53991e-07
-2.53989e-07
-2.53985e-07
-2.49155e-07
-2.47609e-07
-2.47729e-07
-2.50408e-07
-2.53985e-07
-2.53989e-07
-2.53991e-07
-2.53991e-07
-2.53989e-07
-2.53985e-07
-2.49161e-07
-2.49412e-07
-2.5017e-07
-2.53983e-07
-2.53987e-07
-2.53989e-07
-2.53989e-07
-2.53987e-07
-2.53983e-07
-2.49216e-07
-2.4727e-07
-2.47903e-07
-2.5041e-07
-2.53983e-07
-2.53985e-07
-2.53985e-07
-2.53983e-07
-2.49356e-07
-2.49335e-07
-2.47372e-07
-2.47686e-07
-2.49553e-07
-2.49315e-07
-2.49155e-07
-2.49161e-07
-2.49218e-07
-2.49343e-07
-2.4739e-07
-2.47358e-07
-2.47607e-07
-2.49411e-07
-2.47271e-07
-2.47374e-07
-2.66964e-07
-2.6713e-07
-2.6733e-07
-2.69594e-07
-2.69673e-07
-2.69814e-07
-2.69576e-07
-2.67302e-07
-2.67071e-07
-2.67324e-07
-2.70444e-07
-2.73391e-07
-2.7339e-07
-2.7339e-07
-2.73391e-07
-2.69818e-07
-2.68994e-07
-2.69596e-07
-2.73391e-07
-2.7339e-07
-2.73389e-07
-2.73389e-07
-2.7339e-07
-2.7339e-07
-2.68724e-07
-2.66761e-07
-2.66957e-07
-2.69673e-07
-2.7339e-07
-2.73389e-07
-2.73389e-07
-2.73389e-07
-2.73389e-07
-2.7339e-07
-2.6856e-07
-2.6701e-07
-2.67129e-07
-2.69815e-07
-2.7339e-07
-2.73389e-07
-2.73389e-07
-2.73389e-07
-2.73389e-07
-2.7339e-07
-2.68566e-07
-2.68822e-07
-2.69577e-07
-2.73391e-07
-2.7339e-07
-2.73389e-07
-2.73389e-07
-2.7339e-07
-2.73391e-07
-2.68623e-07
-2.66672e-07
-2.67304e-07
-2.69816e-07
-2.73391e-07
-2.7339e-07
-2.7339e-07
-2.73391e-07
-2.68762e-07
-2.68744e-07
-2.66774e-07
-2.67085e-07
-2.68962e-07
-2.68722e-07
-2.6856e-07
-2.68567e-07
-2.68625e-07
-2.68752e-07
-2.66794e-07
-2.66759e-07
-2.67008e-07
-2.68821e-07
-2.66673e-07
-2.66775e-07
-2.86384e-07
-2.86548e-07
-2.8675e-07
-2.88997e-07
-2.89073e-07
-2.89214e-07
-2.88976e-07
-2.86716e-07
-2.86487e-07
-2.86747e-07
-2.8984e-07
-2.92769e-07
-2.92768e-07
-2.92768e-07
-2.92768e-07
-2.89211e-07
-2.88394e-07
-2.88998e-07
-2.92768e-07
-2.92767e-07
-2.92766e-07
-2.92766e-07
-2.92767e-07
-2.92768e-07
-2.8812e-07
-2.86177e-07
-2.86378e-07
-2.89074e-07
-2.92768e-07
-2.92766e-07
-2.92766e-07
-2.92766e-07
-2.92766e-07
-2.92767e-07
-2.87954e-07
-2.86424e-07
-2.86548e-07
-2.89215e-07
-2.92768e-07
-2.92766e-07
-2.92766e-07
-2.92765e-07
-2.92766e-07
-2.92767e-07
-2.8796e-07
-2.88226e-07
-2.88978e-07
-2.92768e-07
-2.92767e-07
-2.92766e-07
-2.92766e-07
-2.92767e-07
-2.92768e-07
-2.88018e-07
-2.86087e-07
-2.86718e-07
-2.89209e-07
-2.92768e-07
-2.92768e-07
-2.92768e-07
-2.92768e-07
-2.88151e-07
-2.88143e-07
-2.86194e-07
-2.86501e-07
-2.88363e-07
-2.88118e-07
-2.87954e-07
-2.87961e-07
-2.8802e-07
-2.88151e-07
-2.86205e-07
-2.86175e-07
-2.86422e-07
-2.88225e-07
-2.86088e-07
-2.86195e-07
-3.05698e-07
-3.05862e-07
-3.06065e-07
-3.08317e-07
-3.08397e-07
-3.08539e-07
-3.08299e-07
-3.06034e-07
-3.05805e-07
-3.06061e-07
-3.09166e-07
-3.12111e-07
-3.12112e-07
-3.12112e-07
-3.12111e-07
-3.08542e-07
-3.07716e-07
-3.08318e-07
-3.12111e-07
-3.12113e-07
-3.12114e-07
-3.12114e-07
-3.12113e-07
-3.12111e-07
-3.07447e-07
-3.05493e-07
-3.05691e-07
-3.08397e-07
-3.12112e-07
-3.12114e-07
-3.12115e-07
-3.12115e-07
-3.12114e-07
-3.12112e-07
-3.07284e-07
-3.0574e-07
-3.05862e-07
-3.0854e-07
-3.12112e-07
-3.12114e-07
-3.12115e-07
-3.12115e-07
-3.12114e-07
-3.12112e-07
-3.0729e-07
-3.07545e-07
-3.08301e-07
-3.12111e-07
-3.12113e-07
-3.12114e-07
-3.12114e-07
-3.12113e-07
-3.12111e-07
-3.07347e-07
-3.05402e-07
-3.06035e-07
-3.08539e-07
-3.12111e-07
-3.12112e-07
-3.12112e-07
-3.12111e-07
-3.07485e-07
-3.07467e-07
-3.05506e-07
-3.05818e-07
-3.07685e-07
-3.07445e-07
-3.07285e-07
-3.07292e-07
-3.07348e-07
-3.07474e-07
-3.05524e-07
-3.0549e-07
-3.05739e-07
-3.07546e-07
-3.05404e-07
-3.05507e-07
-3.25086e-07
-3.25253e-07
-3.25454e-07
-3.27713e-07
-3.27792e-07
-3.27934e-07
-3.27695e-07
-3.25425e-07
-3.25194e-07
-3.25451e-07
-3.28562e-07
-3.31507e-07
-3.31507e-07
-3.31507e-07
-3.31507e-07
-3.27936e-07
-3.27112e-07
-3.27715e-07
-3.31507e-07
-3.31508e-07
-3.31507e-07
-3.31507e-07
-3.31507e-07
-3.31507e-07
-3.26843e-07
-3.24884e-07
-3.25081e-07
-3.27793e-07
-3.31508e-07
-3.31507e-07
-3.31507e-07
-3.31507e-07
-3.31508e-07
-3.31508e-07
-3.26679e-07
-3.25132e-07
-3.25252e-07
-3.27935e-07
-3.31507e-07
-3.31507e-07
-3.31507e-07
-3.31508e-07
-3.31508e-07
-3.31508e-07
-3.26685e-07
-3.26942e-07
-3.27697e-07
-3.31508e-07
-3.31508e-07
-3.31508e-07
-3.31508e-07
-3.31508e-07
-3.31508e-07
-3.26742e-07
-3.24794e-07
-3.25426e-07
-3.27934e-07
-3.31508e-07
-3.31508e-07
-3.31508e-07
-3.31508e-07
-3.26881e-07
-3.26864e-07
-3.24898e-07
-3.25208e-07
-3.27081e-07
-3.26841e-07
-3.26679e-07
-3.26686e-07
-3.26744e-07
-3.26871e-07
-3.24917e-07
-3.24882e-07
-3.25131e-07
-3.26941e-07
-3.24796e-07
-3.24899e-07
-3.44488e-07
-3.44653e-07
-3.44855e-07
-3.47108e-07
-3.47187e-07
-3.47328e-07
-3.47089e-07
-3.44824e-07
-3.44594e-07
-3.44852e-07
-3.47956e-07
-3.50898e-07
-3.50898e-07
-3.50898e-07
-3.50898e-07
-3.47329e-07
-3.46507e-07
-3.4711e-07
-3.50898e-07
-3.50898e-07
-3.50898e-07
-3.50898e-07
-3.50898e-07
-3.50898e-07
-3.46236e-07
-3.44284e-07
-3.44482e-07
-3.47188e-07
-3.50898e-07
-3.50898e-07
-3.50899e-07
-3.50898e-07
-3.50898e-07
-3.50898e-07
-3.46072e-07
-3.44531e-07
-3.44653e-07
-3.47329e-07
-3.50898e-07
-3.50898e-07
-3.50899e-07
-3.50898e-07
-3.50898e-07
-3.50898e-07
-3.46078e-07
-3.46337e-07
-3.47092e-07
-3.50898e-07
-3.50898e-07
-3.50898e-07
-3.50898e-07
-3.50898e-07
-3.50898e-07
-3.46136e-07
-3.44194e-07
-3.44825e-07
-3.47328e-07
-3.50898e-07
-3.50898e-07
-3.50898e-07
-3.50898e-07
-3.46273e-07
-3.46258e-07
-3.44298e-07
-3.44607e-07
-3.46476e-07
-3.46235e-07
-3.46073e-07
-3.46079e-07
-3.46137e-07
-3.46265e-07
-3.44316e-07
-3.44281e-07
-3.4453e-07
-3.46337e-07
-3.44195e-07
-3.44299e-07
-3.63873e-07
-3.64039e-07
-3.64241e-07
-3.665e-07
-3.66579e-07
-3.66721e-07
-3.66482e-07
-3.64211e-07
-3.6398e-07
-3.64238e-07
-3.6735e-07
-3.70298e-07
-3.70298e-07
-3.70298e-07
-3.70298e-07
-3.66725e-07
-3.659e-07
-3.66502e-07
-3.70299e-07
-3.70298e-07
-3.70298e-07
-3.70298e-07
-3.70298e-07
-3.70298e-07
-3.65631e-07
-3.6367e-07
-3.63867e-07
-3.6658e-07
-3.70298e-07
-3.70298e-07
-3.70298e-07
-3.70298e-07
-3.70298e-07
-3.70298e-07
-3.65467e-07
-3.63918e-07
-3.64038e-07
-3.66722e-07
-3.70298e-07
-3.70298e-07
-3.70298e-07
-3.70298e-07
-3.70298e-07
-3.70298e-07
-3.65473e-07
-3.65728e-07
-3.66484e-07
-3.70299e-07
-3.70298e-07
-3.70298e-07
-3.70298e-07
-3.70298e-07
-3.70298e-07
-3.6553e-07
-3.6358e-07
-3.64213e-07
-3.66723e-07
-3.70298e-07
-3.70298e-07
-3.70298e-07
-3.70298e-07
-3.65669e-07
-3.6565e-07
-3.63683e-07
-3.63994e-07
-3.65868e-07
-3.65629e-07
-3.65468e-07
-3.65474e-07
-3.65532e-07
-3.65657e-07
-3.63704e-07
-3.63668e-07
-3.63917e-07
-3.65727e-07
-3.63582e-07
-3.63683e-07
-3.83306e-07
-3.83471e-07
-3.83671e-07
-3.85923e-07
-3.86e-07
-3.8614e-07
-3.85902e-07
-3.83639e-07
-3.83409e-07
-3.83668e-07
-3.86768e-07
-3.89696e-07
-3.89694e-07
-3.89694e-07
-3.89696e-07
-3.86138e-07
-3.85322e-07
-3.85925e-07
-3.89696e-07
-3.89693e-07
-3.89691e-07
-3.89691e-07
-3.89693e-07
-3.89696e-07
-3.85047e-07
-3.831e-07
-3.83299e-07
-3.86e-07
-3.89694e-07
-3.89691e-07
-3.89689e-07
-3.89689e-07
-3.89691e-07
-3.89694e-07
-3.84881e-07
-3.83347e-07
-3.8347e-07
-3.86142e-07
-3.89694e-07
-3.89691e-07
-3.89689e-07
-3.89689e-07
-3.89691e-07
-3.89694e-07
-3.84886e-07
-3.85153e-07
-3.85905e-07
-3.89696e-07
-3.89693e-07
-3.89691e-07
-3.89691e-07
-3.89693e-07
-3.89696e-07
-3.84945e-07
-3.8301e-07
-3.83641e-07
-3.86136e-07
-3.89696e-07
-3.89694e-07
-3.89694e-07
-3.89696e-07
-3.85079e-07
-3.8507e-07
-3.83116e-07
-3.83423e-07
-3.8529e-07
-3.85045e-07
-3.84881e-07
-3.84887e-07
-3.84947e-07
-3.85078e-07
-3.8313e-07
-3.83098e-07
-3.83346e-07
-3.85153e-07
-3.83011e-07
-3.83116e-07
-4.02632e-07
-4.02796e-07
-4.02998e-07
-4.05241e-07
-4.05318e-07
-4.05459e-07
-4.05221e-07
-4.02964e-07
-4.02736e-07
-4.02994e-07
-4.06086e-07
-4.09012e-07
-4.09013e-07
-4.09013e-07
-4.09013e-07
-4.05457e-07
-4.0464e-07
-4.05242e-07
-4.09012e-07
-4.09013e-07
-4.09014e-07
-4.09014e-07
-4.09013e-07
-4.09013e-07
-4.04366e-07
-4.02425e-07
-4.02626e-07
-4.05319e-07
-4.09013e-07
-4.09014e-07
-4.09014e-07
-4.09014e-07
-4.09014e-07
-4.09013e-07
-4.04201e-07
-4.02672e-07
-4.02796e-07
-4.05461e-07
-4.09013e-07
-4.09014e-07
-4.09014e-07
-4.09014e-07
-4.09014e-07
-4.09013e-07
-4.04206e-07
-4.0447e-07
-4.05223e-07
-4.09013e-07
-4.09013e-07
-4.09014e-07
-4.09014e-07
-4.09013e-07
-4.09012e-07
-4.04264e-07
-4.02334e-07
-4.02966e-07
-4.05455e-07
-4.09013e-07
-4.09013e-07
-4.09013e-07
-4.09012e-07
-4.04398e-07
-4.04388e-07
-4.02441e-07
-4.0275e-07
-4.04608e-07
-4.04364e-07
-4.04201e-07
-4.04207e-07
-4.04266e-07
-4.04395e-07
-4.02453e-07
-4.02423e-07
-4.0267e-07
-4.04469e-07
-4.02337e-07
-4.02441e-07
-4.21928e-07
-4.22094e-07
-4.22296e-07
-4.24552e-07
-4.24632e-07
-4.24774e-07
-4.24535e-07
-4.22265e-07
-4.22036e-07
-4.22293e-07
-4.25403e-07
-4.28351e-07
-4.28353e-07
-4.28353e-07
-4.28352e-07
-4.24779e-07
-4.23953e-07
-4.24554e-07
-4.28351e-07
-4.28354e-07
-4.28355e-07
-4.28356e-07
-4.28354e-07
-4.28352e-07
-4.23684e-07
-4.21726e-07
-4.21922e-07
-4.24633e-07
-4.28353e-07
-4.28355e-07
-4.28357e-07
-4.28357e-07
-4.28356e-07
-4.28353e-07
-4.23522e-07
-4.21974e-07
-4.22093e-07
-4.24776e-07
-4.28353e-07
-4.28356e-07
-4.28357e-07
-4.28357e-07
-4.28356e-07
-4.28353e-07
-4.23528e-07
-4.2378e-07
-4.24537e-07
-4.28352e-07
-4.28354e-07
-4.28356e-07
-4.28356e-07
-4.28354e-07
-4.28352e-07
-4.23584e-07
-4.21635e-07
-4.22268e-07
-4.24777e-07
-4.28352e-07
-4.28353e-07
-4.28353e-07
-4.28352e-07
-4.23724e-07
-4.23703e-07
-4.21738e-07
-4.22051e-07
-4.23921e-07
-4.23683e-07
-4.23522e-07
-4.23528e-07
-4.23586e-07
-4.23711e-07
-4.21757e-07
-4.21723e-07
-4.21973e-07
-4.2378e-07
-4.21638e-07
-4.21739e-07
-4.41334e-07
-4.41499e-07
-4.41701e-07
-4.4396e-07
-4.44038e-07
-4.4418e-07
-4.43941e-07
-4.4167e-07
-4.4144e-07
-4.41698e-07
-4.44808e-07
-4.47755e-07
-4.47755e-07
-4.47755e-07
-4.47755e-07
-4.44183e-07
-4.43359e-07
-4.43961e-07
-4.47755e-07
-4.47755e-07
-4.47755e-07
-4.47755e-07
-4.47755e-07
-4.47755e-07
-4.43089e-07
-4.41131e-07
-4.41327e-07
-4.44039e-07
-4.47755e-07
-4.47755e-07
-4.47755e-07
-4.47755e-07
-4.47755e-07
-4.47755e-07
-4.42926e-07
-4.41379e-07
-4.41499e-07
-4.44181e-07
-4.47755e-07
-4.47755e-07
-4.47755e-07
-4.47755e-07
-4.47755e-07
-4.47755e-07
-4.42931e-07
-4.43188e-07
-4.43943e-07
-4.47755e-07
-4.47755e-07
-4.47755e-07
-4.47755e-07
-4.47755e-07
-4.47755e-07
-4.42989e-07
-4.41041e-07
-4.41673e-07
-4.44181e-07
-4.47755e-07
-4.47755e-07
-4.47755e-07
-4.47755e-07
-4.43127e-07
-4.4311e-07
-4.41145e-07
-4.41454e-07
-4.43328e-07
-4.43087e-07
-4.42926e-07
-4.42932e-07
-4.4299e-07
-4.43117e-07
-4.41163e-07
-4.41129e-07
-4.41378e-07
-4.43188e-07
-4.41043e-07
-4.41146e-07
-4.6074e-07
-4.60905e-07
-4.61107e-07
-4.63364e-07
-4.63442e-07
-4.63584e-07
-4.63345e-07
-4.61075e-07
-4.60845e-07
-4.61103e-07
-4.64212e-07
-4.67158e-07
-4.67159e-07
-4.67159e-07
-4.67159e-07
-4.63587e-07
-4.62762e-07
-4.63364e-07
-4.67158e-07
-4.67159e-07
-4.67159e-07
-4.67159e-07
-4.67159e-07
-4.67158e-07
-4.62493e-07
-4.60536e-07
-4.60733e-07
-4.63442e-07
-4.67158e-07
-4.67159e-07
-4.67159e-07
-4.67159e-07
-4.67159e-07
-4.67158e-07
-4.62329e-07
-4.60784e-07
-4.60904e-07
-4.63584e-07
-4.67158e-07
-4.67159e-07
-4.67159e-07
-4.67159e-07
-4.67159e-07
-4.67158e-07
-4.62335e-07
-4.62591e-07
-4.63346e-07
-4.67158e-07
-4.67158e-07
-4.67159e-07
-4.67159e-07
-4.67158e-07
-4.67158e-07
-4.62392e-07
-4.60445e-07
-4.61077e-07
-4.63584e-07
-4.67158e-07
-4.67158e-07
-4.67158e-07
-4.67158e-07
-4.6253e-07
-4.62513e-07
-4.60549e-07
-4.60859e-07
-4.62731e-07
-4.6249e-07
-4.62329e-07
-4.62335e-07
-4.62393e-07
-4.6252e-07
-4.60567e-07
-4.60533e-07
-4.60781e-07
-4.6259e-07
-4.60447e-07
-4.60549e-07
-4.80157e-07
-4.80322e-07
-4.80524e-07
-4.82782e-07
-4.82859e-07
-4.83001e-07
-4.82762e-07
-4.80492e-07
-4.80266e-07
-4.8052e-07
-4.83629e-07
-4.8657e-07
-4.86569e-07
-4.86569e-07
-4.8657e-07
-4.83002e-07
-4.82177e-07
-4.82783e-07
-4.8657e-07
-4.86568e-07
-4.86567e-07
-4.86566e-07
-4.86567e-07
-4.86569e-07
-4.81909e-07
-4.79953e-07
-4.8015e-07
-4.8286e-07
-4.86569e-07
-4.86567e-07
-4.86565e-07
-4.86565e-07
-4.86566e-07
-4.86569e-07
-4.81744e-07
-4.80201e-07
-4.80322e-07
-4.83002e-07
-4.86569e-07
-4.86567e-07
-4.86565e-07
-4.86565e-07
-4.86567e-07
-4.86569e-07
-4.8175e-07
-4.8201e-07
-4.82765e-07
-4.8657e-07
-4.86568e-07
-4.86567e-07
-4.86567e-07
-4.86568e-07
-4.8657e-07
-4.81808e-07
-4.79863e-07
-4.80495e-07
-4.83e-07
-4.8657e-07
-4.86569e-07
-4.86569e-07
-4.8657e-07
-4.81946e-07
-4.81931e-07
-4.79967e-07
-4.80277e-07
-4.8215e-07
-4.81908e-07
-4.81745e-07
-4.81751e-07
-4.8181e-07
-4.81938e-07
-4.79985e-07
-4.79951e-07
-4.80199e-07
-4.8201e-07
-4.79865e-07
-4.79967e-07
-4.99553e-07
-4.99717e-07
-4.99918e-07
-5.02163e-07
-5.02239e-07
-5.02379e-07
-5.02142e-07
-4.99882e-07
-4.99655e-07
-4.99914e-07
-5.03007e-07
-5.05928e-07
-5.05927e-07
-5.05926e-07
-5.05927e-07
-5.02375e-07
-5.0156e-07
-5.02164e-07
-5.05928e-07
-5.05926e-07
-5.05925e-07
-5.05925e-07
-5.05925e-07
-5.05927e-07
-5.01285e-07
-4.99347e-07
-4.99548e-07
-5.0224e-07
-5.05927e-07
-5.05925e-07
-5.05924e-07
-5.05924e-07
-5.05925e-07
-5.05926e-07
-5.01119e-07
-4.99593e-07
-4.99718e-07
-5.02382e-07
-5.05927e-07
-5.05925e-07
-5.05924e-07
-5.05924e-07
-5.05925e-07
-5.05926e-07
-5.01124e-07
-5.01394e-07
-5.02145e-07
-5.05928e-07
-5.05926e-07
-5.05925e-07
-5.05925e-07
-5.05926e-07
-5.05928e-07
-5.01184e-07
-4.99256e-07
-4.99888e-07
-5.02374e-07
-5.05928e-07
-5.05927e-07
-5.05927e-07
-5.05928e-07
-5.01316e-07
-5.0131e-07
-4.99364e-07
-4.99672e-07
-5.01531e-07
-5.01285e-07
-5.0112e-07
-5.01126e-07
-5.01186e-07
-5.01318e-07
-4.99376e-07
-4.99346e-07
-4.99593e-07
-5.01394e-07
-4.9926e-07
-4.99366e-07
-5.18828e-07
-5.18993e-07
-5.19195e-07
-5.21445e-07
-5.21526e-07
-5.21667e-07
-5.21427e-07
-5.19161e-07
-5.18934e-07
-5.19192e-07
-5.22295e-07
-5.25239e-07
-5.25241e-07
-5.25241e-07
-5.25239e-07
-5.2167e-07
-5.20843e-07
-5.21446e-07
-5.25238e-07
-5.25242e-07
-5.25244e-07
-5.25244e-07
-5.25243e-07
-5.25238e-07
-5.20574e-07
-5.18621e-07
-5.18822e-07
-5.21525e-07
-5.2524e-07
-5.25244e-07
-5.25246e-07
-5.25246e-07
-5.25244e-07
-5.2524e-07
-5.20411e-07
-5.18869e-07
-5.18992e-07
-5.21667e-07
-5.2524e-07
-5.25244e-07
-5.25246e-07
-5.25246e-07
-5.25244e-07
-5.25239e-07
-5.20417e-07
-5.2067e-07
-5.21428e-07
-5.25238e-07
-5.25242e-07
-5.25244e-07
-5.25243e-07
-5.25241e-07
-5.25237e-07
-5.20472e-07
-5.1853e-07
-5.19164e-07
-5.21667e-07
-5.25237e-07
-5.25239e-07
-5.25239e-07
-5.25236e-07
-5.20611e-07
-5.20592e-07
-5.18633e-07
-5.18947e-07
-5.20811e-07
-5.20572e-07
-5.20411e-07
-5.20417e-07
-5.20474e-07
-5.20599e-07
-5.18651e-07
-5.18619e-07
-5.18867e-07
-5.20669e-07
-5.18532e-07
-5.18634e-07
-5.3821e-07
-5.38377e-07
-5.38578e-07
-5.40844e-07
-5.40925e-07
-5.41067e-07
-5.40828e-07
-5.3855e-07
-5.3832e-07
-5.38574e-07
-5.41695e-07
-5.44652e-07
-5.44652e-07
-5.44652e-07
-5.44653e-07
-5.41074e-07
-5.40245e-07
-5.40845e-07
-5.44651e-07
-5.44651e-07
-5.44652e-07
-5.44652e-07
-5.44652e-07
-5.44653e-07
-5.39978e-07
-5.38009e-07
-5.38201e-07
-5.40923e-07
-5.44651e-07
-5.44651e-07
-5.44652e-07
-5.44652e-07
-5.44652e-07
-5.44653e-07
-5.39815e-07
-5.38258e-07
-5.38373e-07
-5.41065e-07
-5.44651e-07
-5.44651e-07
-5.44652e-07
-5.44652e-07
-5.44652e-07
-5.44653e-07
-5.3982e-07
-5.40072e-07
-5.40827e-07
-5.44651e-07
-5.44651e-07
-5.44652e-07
-5.44652e-07
-5.44653e-07
-5.44653e-07
-5.39877e-07
-5.37918e-07
-5.38549e-07
-5.41069e-07
-5.44651e-07
-5.44652e-07
-5.44652e-07
-5.44653e-07
-5.40018e-07
-5.39995e-07
-5.38018e-07
-5.38329e-07
-5.4021e-07
-5.39973e-07
-5.39813e-07
-5.39819e-07
-5.39877e-07
-5.40002e-07
-5.38042e-07
-5.38002e-07
-5.38253e-07
-5.40068e-07
-5.37918e-07
-5.38018e-07
-5.57677e-07
-5.57842e-07
-5.5804e-07
-5.6029e-07
-5.60367e-07
-5.60508e-07
-5.60271e-07
-5.58009e-07
-5.57782e-07
-5.58038e-07
-5.61134e-07
-5.64059e-07
-5.64058e-07
-5.64058e-07
-5.6406e-07
-5.60506e-07
-5.59691e-07
-5.60293e-07
-5.6406e-07
-5.64057e-07
-5.64055e-07
-5.64055e-07
-5.64057e-07
-5.64061e-07
-5.59416e-07
-5.57476e-07
-5.57671e-07
-5.60368e-07
-5.64059e-07
-5.64056e-07
-5.64054e-07
-5.64054e-07
-5.64056e-07
-5.6406e-07
-5.59251e-07
-5.57723e-07
-5.57842e-07
-5.6051e-07
-5.64059e-07
-5.64056e-07
-5.64055e-07
-5.64055e-07
-5.64057e-07
-5.64061e-07
-5.59257e-07
-5.59528e-07
-5.60274e-07
-5.64062e-07
-5.64058e-07
-5.64057e-07
-5.64057e-07
-5.64059e-07
-5.64064e-07
-5.59317e-07
-5.57388e-07
-5.58014e-07
-5.60505e-07
-5.64063e-07
-5.64061e-07
-5.64062e-07
-5.64064e-07
-5.5945e-07
-5.59445e-07
-5.57496e-07
-5.57797e-07
-5.59663e-07
-5.59416e-07
-5.59252e-07
-5.59259e-07
-5.5932e-07
-5.59452e-07
-5.57509e-07
-5.57475e-07
-5.57722e-07
-5.59529e-07
-5.57391e-07
-5.57497e-07
-5.7698e-07
-5.77144e-07
-5.77347e-07
-5.79595e-07
-5.79674e-07
-5.79815e-07
-5.79575e-07
-5.77311e-07
-5.77084e-07
-5.77346e-07
-5.80445e-07
-5.83382e-07
-5.83383e-07
-5.83382e-07
-5.83381e-07
-5.79815e-07
-5.78991e-07
-5.79598e-07
-5.83383e-07
-5.83384e-07
-5.83385e-07
-5.83385e-07
-5.83383e-07
-5.8338e-07
-5.78721e-07
-5.76773e-07
-5.76977e-07