/*--------------------------------*- C++ -*----------------------------------*\
| =========                 |                                                 |
| \\      /  F ield         | OpenFOAM: The Open Source CFD Toolbox           |
|  \\    /   O peration     | Version:  v1912                                 |
|   \\  /    A nd           | Website:  www.openfoam.com                      |
|    \\/     M anipulation  |                                                 |
\*---------------------------------------------------------------------------*/
FoamFile
{
    version     2.0;
    format      ascii;
    class       volScalarField;
    location    "1.45";
    object      nut;
}
// * * * * * * * * * * * * * * * * * * * * * * * * * * * * * * * * * * * * * //

dimensions      [0 2 -1 0 0 0 0];


internalField   nonuniform List<scalar> 
171728
(
1.10819e-06
1.12693e-06
1.12748e-06
4.64728e-07
7.40545e-08
8.50729e-08
8.52549e-08
1.00764e-07
5.85589e-09
7.08221e-09
7.08074e-09
9.84101e-08
1.74253e-09
4.0115e-09
3.98368e-09
9.85584e-08
1.8329e-09
3.7789e-09
3.78305e-09
9.85625e-08
1.83412e-09
3.77082e-09
3.77651e-09
9.85632e-08
1.82469e-09
3.77724e-09
3.76989e-09
9.8563e-08
1.83832e-09
3.78229e-09
3.77862e-09
9.85621e-08
1.83988e-09
3.77874e-09
3.77094e-09
9.8565e-08
1.83757e-09
3.77853e-09
3.77298e-09
9.85634e-08
1.83512e-09
3.77814e-09
3.77657e-09
9.85643e-08
1.8429e-09
3.77503e-09
3.77536e-09
9.85639e-08
1.84599e-09
3.80645e-09
3.77763e-09
9.85636e-08
1.8507e-09
3.80348e-09
3.77284e-09
9.85636e-08
1.83081e-09
3.76746e-09
3.77794e-09
9.85637e-08
1.83317e-09
3.76601e-09
3.77283e-09
9.85645e-08
1.84237e-09
3.78036e-09
3.77579e-09
9.85658e-08
1.83583e-09
3.76974e-09
3.77488e-09
9.85644e-08
1.83994e-09
3.75894e-09
3.77599e-09
9.85631e-08
1.82671e-09
3.79472e-09
3.77129e-09
9.85559e-08
1.93965e-09
3.77433e-09
3.77536e-09
9.85666e-08
1.83469e-09
3.78046e-09
3.77507e-09
9.85662e-08
1.8393e-09
3.7786e-09
3.77549e-09
9.85668e-08
1.83811e-09
3.77957e-09
3.77694e-09
9.85667e-08
1.84011e-09
3.77694e-09
3.77461e-09
9.85672e-08
1.83799e-09
3.77834e-09
3.77521e-09
9.85666e-08
1.83992e-09
3.78006e-09
3.77715e-09
9.85671e-08
1.83903e-09
3.77845e-09
3.77553e-09
9.85672e-08
1.83848e-09
3.77738e-09
3.77447e-09
9.85665e-08
1.83968e-09
3.77943e-09
3.77667e-09
9.8566e-08
1.83899e-09
3.77916e-09
3.7759e-09
9.85669e-08
1.8394e-09
3.77665e-09
3.77524e-09
9.85671e-08
1.83941e-09
3.78024e-09
3.77583e-09
9.85672e-08
1.83815e-09
3.78039e-09
3.77641e-09
9.85665e-08
1.83973e-09
3.78035e-09
3.77631e-09
9.85674e-08
1.83888e-09
3.77798e-09
3.77472e-09
9.85668e-08
1.84008e-09
3.78006e-09
3.77682e-09
9.85669e-08
1.83979e-09
3.77999e-09
3.77675e-09
9.85674e-08
1.83933e-09
3.78081e-09
3.78306e-09
9.85677e-08
1.85691e-09
3.78699e-09
3.78173e-09
9.85524e-08
2.00256e-09
3.7635e-09
3.77704e-09
9.85658e-08
1.83825e-09
3.76858e-09
3.77146e-09
9.8567e-08
1.84048e-09
3.77807e-09
3.76992e-09
9.8568e-08
1.84147e-09
3.77564e-09
3.76985e-09
9.85676e-08
1.84382e-09
3.7771e-09
3.77497e-09
9.85675e-08
1.84225e-09
3.77513e-09
3.77037e-09
9.85679e-08
1.84113e-09
3.7747e-09
3.77394e-09
9.85694e-08
1.8421e-09
3.77638e-09
3.77853e-09
9.85681e-08
1.84218e-09
3.77747e-09
3.77984e-09
9.85676e-08
1.84219e-09
3.77582e-09
3.7782e-09
9.85681e-08
1.84111e-09
3.77471e-09
3.77746e-09
9.85678e-08
1.84281e-09
3.77576e-09
3.77708e-09
9.85675e-08
1.84328e-09
3.77719e-09
3.77856e-09
9.8568e-08
1.84424e-09
3.78474e-09
3.77769e-09
9.8568e-08
1.84532e-09
3.77896e-09
3.7783e-09
9.85669e-08
1.8405e-09
3.77533e-09
3.77827e-09
9.85631e-08
1.83838e-09
3.78066e-09
3.77862e-09
9.85533e-08
1.83817e-09
3.77971e-09
3.77705e-09
9.85536e-08
1.83872e-09
3.7814e-09
3.7789e-09
9.85526e-08
1.8396e-09
3.78026e-09
3.77682e-09
9.85529e-08
1.83946e-09
3.78163e-09
3.77942e-09
9.85525e-08
1.83802e-09
3.77975e-09
3.77695e-09
9.85534e-08
1.83787e-09
3.78191e-09
3.77918e-09
9.8552e-08
1.83936e-09
3.78158e-09
3.77917e-09
9.85522e-08
1.83872e-09
3.78138e-09
3.77878e-09
9.85528e-08
1.83824e-09
3.78073e-09
3.77807e-09
9.85523e-08
1.83828e-09
3.77967e-09
3.77703e-09
9.85522e-08
1.83799e-09
3.78027e-09
3.77811e-09
9.85528e-08
1.83378e-09
3.77902e-09
3.7776e-09
9.85532e-08
1.83074e-09
3.78045e-09
3.76003e-09
9.85546e-08
1.83513e-09
3.78336e-09
3.77586e-09
9.85504e-08
1.83939e-09
3.78089e-09
3.77844e-09
9.85525e-08
1.83786e-09
3.77985e-09
3.77675e-09
9.85527e-08
1.83761e-09
3.78086e-09
3.77762e-09
9.85511e-08
1.83986e-09
3.78103e-09
3.77771e-09
9.8551e-08
1.83755e-09
3.78043e-09
3.77722e-09
9.85515e-08
1.83828e-09
3.78028e-09
3.77688e-09
9.85514e-08
1.83917e-09
3.78068e-09
3.77749e-09
9.85514e-08
1.83886e-09
3.77988e-09
3.77715e-09
9.8551e-08
1.83821e-09
3.78157e-09
3.77891e-09
9.85519e-08
1.83752e-09
3.78014e-09
3.77753e-09
9.8551e-08
1.83864e-09
3.78086e-09
3.77814e-09
9.85515e-08
1.83897e-09
3.78099e-09
3.7783e-09
9.85516e-08
1.84077e-09
3.78083e-09
3.77821e-09
9.85516e-08
1.8411e-09
3.78107e-09
3.77839e-09
9.85518e-08
1.84132e-09
3.78037e-09
3.77818e-09
9.85505e-08
1.84095e-09
3.78231e-09
3.77995e-09
9.85516e-08
1.83918e-09
3.77956e-09
3.77741e-09
9.85512e-08
1.84034e-09
3.77979e-09
3.77684e-09
9.85512e-08
1.84156e-09
3.78127e-09
3.77826e-09
9.85516e-08
1.84393e-09
3.77862e-09
3.77375e-09
9.85542e-08
1.91048e-09
3.80011e-09
3.80559e-09
9.85525e-08
4.27876e-09
4.76351e-09
4.81901e-09
9.84624e-08
5.0596e-08
4.50305e-08
4.49724e-08
9.74329e-08
4.59552e-07
2.32056e-07
2.32086e-07
4.955e-07
3.92387e-07
6.91793e-07
6.92122e-07
3.92489e-07
6.91874e-07
6.91912e-07
1.96138e-06
1.96145e-06
1.96136e-06
1.96142e-06
6.91707e-07
6.91663e-07
3.92204e-07
6.91543e-07
6.91888e-07
3.92144e-07
4.64786e-07
2.57759e-07
1.12756e-06
1.1276e-06
1.87199e-07
1.87199e-07
4.64751e-07
2.57679e-07
1.12742e-06
1.12811e-06
1.87358e-07
1.87255e-07
1.1278e-06
1.87229e-07
1.87108e-07
4.64703e-07
2.57767e-07
1.12765e-06
1.87252e-07
1.87241e-07
2.57769e-07
1.00817e-07
2.50834e-07
8.5156e-08
8.51823e-08
1.09936e-08
1.10814e-08
1.00801e-07
2.50902e-07
8.51766e-08
8.51475e-08
1.09471e-08
1.10002e-08
8.51314e-08
1.08877e-08
1.09824e-08
1.00838e-07
2.50853e-07
8.52915e-08
1.09659e-08
1.09123e-08
2.50848e-07
9.83258e-08
2.50332e-07
7.12763e-09
7.11531e-09
4.23762e-09
4.23084e-09
9.83328e-08
2.50343e-07
7.14148e-09
7.12406e-09
4.20608e-09
4.24095e-09
7.13604e-09
4.21155e-09
4.25529e-09
9.83853e-08
2.50359e-07
7.14415e-09
4.17695e-09
4.16552e-09
2.50319e-07
9.85402e-08
2.50306e-07
4.02646e-09
4.06431e-09
3.8345e-09
3.83929e-09
9.8516e-08
2.50305e-07
3.97081e-09
4.02836e-09
3.78817e-09
3.8414e-09
4.04501e-09
3.78594e-09
3.82853e-09
9.85616e-08
2.50331e-07
3.98973e-09
3.77197e-09
3.77753e-09
2.50279e-07
9.85417e-08
2.50302e-07
3.83233e-09
3.83534e-09
3.82455e-09
3.83689e-09
9.8523e-08
2.50297e-07
3.77141e-09
3.83467e-09
3.7921e-09
3.82822e-09
3.81936e-09
3.77018e-09
3.81403e-09
9.85586e-08
2.50325e-07
3.77017e-09
3.75897e-09
3.76331e-09
2.50274e-07
9.85418e-08
2.50307e-07
3.82975e-09
3.84519e-09
3.80722e-09
3.86219e-09
9.85265e-08
2.50307e-07
3.75857e-09
3.82765e-09
3.7832e-09
3.82197e-09
3.81322e-09
3.78161e-09
3.80723e-09
9.85595e-08
2.50334e-07
3.76397e-09
3.75229e-09
3.75705e-09
2.50282e-07
9.85454e-08
2.50309e-07
3.78188e-09
3.85311e-09
3.84357e-09
3.84254e-09
9.85198e-08
2.50306e-07
3.74785e-09
3.82225e-09
3.78809e-09
3.82489e-09
3.80623e-09
3.78094e-09
3.81094e-09
9.8559e-08
2.50332e-07
3.75771e-09
3.7562e-09
3.76115e-09
2.50278e-07
9.8546e-08
2.50307e-07
3.83094e-09
3.8468e-09
3.82715e-09
3.8448e-09
9.85159e-08
2.50302e-07
3.76433e-09
3.82879e-09
3.79433e-09
3.82707e-09
3.81361e-09
3.78165e-09
3.81292e-09
9.85578e-08
2.50327e-07
3.76598e-09
3.75865e-09
3.76335e-09
2.50273e-07
9.85255e-08
2.50311e-07
3.82597e-09
3.84317e-09
3.799e-09
3.82577e-09
9.85186e-08
2.50322e-07
3.7601e-09
3.82689e-09
3.77476e-09
3.82297e-09
3.8107e-09
3.77498e-09
3.80723e-09
9.85606e-08
2.50338e-07
3.76056e-09
3.75221e-09
3.75749e-09
2.50284e-07
9.85345e-08
2.50295e-07
3.81066e-09
3.79455e-09
3.83547e-09
3.77721e-09
9.85111e-08
2.50305e-07
3.76521e-09
3.82557e-09
3.76987e-09
3.82733e-09
3.80811e-09
3.77921e-09
3.81201e-09
9.85592e-08
2.5033e-07
3.76047e-09
3.75765e-09
3.76283e-09
2.50276e-07
9.85472e-08
2.50307e-07
3.87611e-09
3.80237e-09
3.82617e-09
3.78214e-09
9.85176e-08
2.50306e-07
3.7723e-09
3.82726e-09
3.77934e-09
3.82495e-09
3.81039e-09
3.77764e-09
3.80897e-09
9.85594e-08
2.50333e-07
3.76303e-09
3.75552e-09
3.75887e-09
2.50281e-07
9.8534e-08
2.50299e-07
3.82649e-09
3.77302e-09
3.82516e-09
3.77147e-09
9.85183e-08
2.50333e-07
3.77427e-09
3.82589e-09
3.77391e-09
3.82517e-09
3.80983e-09
3.79336e-09
3.81637e-09
9.856e-08
2.50331e-07
3.76027e-09
3.75817e-09
3.75978e-09
2.50279e-07
9.85364e-08
2.50301e-07
3.82836e-09
3.78768e-09
3.81297e-09
3.84455e-09
9.85124e-08
2.50332e-07
3.77008e-09
3.82656e-09
3.76205e-09
3.8212e-09
3.81702e-09
3.79625e-09
3.81242e-09
9.85607e-08
2.50335e-07
3.76244e-09
3.75383e-09
3.75777e-09
2.50286e-07
9.85359e-08
2.50295e-07
3.81591e-09
3.85285e-09
3.83792e-09
3.83713e-09
9.85186e-08
2.50312e-07
3.75967e-09
3.82222e-09
3.75753e-09
3.82677e-09
3.81112e-09
3.77453e-09
3.81419e-09
9.85607e-08
2.50331e-07
3.75979e-09
3.75766e-09
3.76386e-09
2.50277e-07
9.85382e-08
2.50303e-07
3.84227e-09
3.82703e-09
3.8274e-09
3.88953e-09
9.85286e-08
2.50297e-07
3.77838e-09
3.82887e-09
3.77893e-09
3.82281e-09
3.8149e-09
3.77282e-09
3.80827e-09
9.856e-08
2.50337e-07
3.76611e-09
3.7537e-09
3.75822e-09
2.50285e-07
9.85353e-08
2.50294e-07
3.8279e-09
3.8577e-09
3.83495e-09
3.84429e-09
9.85459e-08
2.50282e-07
3.77622e-09
3.82394e-09
3.77972e-09
3.82639e-09
3.80689e-09
3.77636e-09
3.81344e-09
9.85605e-08
2.50332e-07
3.75889e-09
3.75681e-09
3.76304e-09
2.50278e-07
9.85373e-08
2.503e-07
3.81809e-09
3.84252e-09
3.8334e-09
3.82829e-09
9.85394e-08
2.50329e-07
3.77843e-09
3.82707e-09
3.77771e-09
3.8235e-09
3.81195e-09
3.77726e-09
3.81037e-09
9.85613e-08
2.50338e-07
3.76337e-09
3.75396e-09
3.75967e-09
2.50284e-07
9.85338e-08
2.50315e-07
3.81191e-09
3.81841e-09
3.80631e-09
3.8116e-09
9.85503e-08
2.50329e-07
3.77586e-09
3.82703e-09
3.77175e-09
3.8271e-09
3.81225e-09
3.75313e-09
3.80986e-09
9.85601e-08
2.50336e-07
3.7629e-09
3.7562e-09
3.75674e-09
2.50285e-07
9.85368e-08
2.50289e-07
3.80607e-09
3.84114e-09
3.86518e-09
3.92523e-09
9.85819e-08
2.50367e-07
3.76768e-09
3.82789e-09
3.78718e-09
3.82179e-09
3.8086e-09
3.80025e-09
3.82278e-09
9.85609e-08
2.50336e-07
3.75419e-09
3.75411e-09
3.75208e-09
2.50298e-07
9.85748e-08
2.50359e-07
3.83606e-09
3.86231e-09
3.80836e-09
3.89401e-09
9.85212e-08
2.5033e-07
3.79118e-09
3.82204e-09
3.62172e-09
3.82689e-09
3.83635e-09
3.76508e-09
3.81301e-09
9.85631e-08
2.5034e-07
3.77051e-09
3.75228e-09
3.76049e-09
2.50287e-07
9.85293e-08
2.50323e-07
3.87388e-09
3.88336e-09
3.84517e-09
3.83867e-09
9.85295e-08
2.50318e-07
3.7008e-09
3.82435e-09
3.79109e-09
3.82374e-09
3.81105e-09
3.78524e-09
3.80966e-09
9.85618e-08
2.50339e-07
3.76048e-09
3.75553e-09
3.76089e-09
2.50287e-07
9.8557e-08
2.50321e-07
3.83804e-09
3.84378e-09
3.82651e-09
3.8449e-09
9.8535e-08
2.50318e-07
3.77612e-09
3.82518e-09
3.78126e-09
3.8255e-09
3.81003e-09
3.78048e-09
3.81115e-09
9.85624e-08
2.50339e-07
3.76229e-09
3.75634e-09
3.76148e-09
2.50285e-07
9.85565e-08
2.50319e-07
3.83183e-09
3.84702e-09
3.82446e-09
3.84525e-09
9.85349e-08
2.50316e-07
3.7754e-09
3.82603e-09
3.77979e-09
3.82575e-09
3.81108e-09
3.78125e-09
3.81094e-09
9.85624e-08
2.50337e-07
3.7632e-09
3.75738e-09
3.76984e-09
2.50284e-07
9.8557e-08
2.50321e-07
3.8304e-09
3.84714e-09
3.82215e-09
3.84335e-09
9.85352e-08
2.50318e-07
3.77373e-09
3.82608e-09
3.77751e-09
3.82379e-09
3.81168e-09
3.77883e-09
3.80926e-09
9.85627e-08
2.50339e-07
3.77166e-09
3.75524e-09
3.76486e-09
2.50286e-07
9.8556e-08
2.50324e-07
3.83137e-09
3.84616e-09
3.8218e-09
3.84363e-09
9.8535e-08
2.50318e-07
3.77473e-09
3.82507e-09
3.77715e-09
3.82429e-09
3.80807e-09
3.78049e-09
3.81169e-09
9.85625e-08
2.50339e-07
3.76633e-09
3.75587e-09
3.76479e-09
2.50285e-07
9.85566e-08
2.50318e-07
3.82854e-09
3.84522e-09
3.82563e-09
3.84645e-09
9.85351e-08
2.50315e-07
3.77193e-09
3.82429e-09
3.78096e-09
3.82696e-09
3.81154e-09
3.78157e-09
3.81112e-09
9.85625e-08
2.50336e-07
3.76721e-09
3.75751e-09
3.76554e-09
2.50284e-07
9.85565e-08
2.50322e-07
3.83321e-09
3.84848e-09
3.82177e-09
3.8435e-09
9.85351e-08
2.50318e-07
3.77654e-09
3.82749e-09
3.77712e-09
3.82402e-09
3.81059e-09
3.77994e-09
3.8112e-09
9.85625e-08
2.50339e-07
3.76679e-09
3.75593e-09
3.76565e-09
2.50284e-07
9.85564e-08
2.50322e-07
3.83007e-09
3.84643e-09
3.82285e-09
3.84385e-09
9.85352e-08
2.50319e-07
3.77344e-09
3.82543e-09
3.7782e-09
3.82438e-09
3.81105e-09
3.77932e-09
3.80948e-09
9.85627e-08
2.5034e-07
3.76725e-09
3.75531e-09
3.76396e-09
2.50287e-07
9.85565e-08
2.50322e-07
3.82966e-09
3.84525e-09
3.82322e-09
3.84466e-09
9.85352e-08
2.50318e-07
3.77304e-09
3.82425e-09
3.77854e-09
3.82516e-09
3.81022e-09
3.7803e-09
3.81046e-09
9.85626e-08
2.50339e-07
3.76644e-09
3.75632e-09
3.76492e-09
2.50286e-07
9.8556e-08
2.50322e-07
3.83122e-09
3.84762e-09
3.82393e-09
3.84407e-09
9.85344e-08
2.50318e-07
3.77459e-09
3.82629e-09
3.77885e-09
3.82524e-09
3.81208e-09
3.78046e-09
3.81068e-09
9.85619e-08
2.50339e-07
3.76824e-09
3.75641e-09
3.7652e-09
2.50285e-07
9.85567e-08
2.5032e-07
3.83109e-09
3.8304e-09
3.82304e-09
3.84501e-09
9.85359e-08
2.50309e-07
3.77427e-09
3.82581e-09
3.77842e-09
3.82467e-09
3.81062e-09
3.78324e-09
3.8101e-09
9.85627e-08
2.50338e-07
3.76678e-09
3.75596e-09
3.76457e-09
2.50285e-07
9.85564e-08
2.50323e-07
3.832e-09
3.85102e-09
3.82133e-09
3.85073e-09
9.85369e-08
2.50325e-07
3.77507e-09
3.82519e-09
3.77672e-09
3.8244e-09
3.80947e-09
3.7817e-09
3.81119e-09
9.85627e-08
2.50338e-07
3.76565e-09
3.75637e-09
3.76567e-09
2.50284e-07
9.85561e-08
2.50322e-07
3.83028e-09
3.85243e-09
3.82346e-09
3.85024e-09
9.85313e-08
2.50326e-07
3.77367e-09
3.82572e-09
3.77879e-09
3.82473e-09
3.80959e-09
3.78142e-09
3.81008e-09
9.85625e-08
2.5034e-07
3.76575e-09
3.75665e-09
3.76502e-09
2.50287e-07
9.85568e-08
2.5032e-07
3.82964e-09
3.85221e-09
3.82392e-09
3.85044e-09
9.85312e-08
2.50326e-07
3.77304e-09
3.82514e-09
3.77927e-09
3.82584e-09
3.81039e-09
3.78087e-09
3.81024e-09
9.85624e-08
2.50339e-07
3.7669e-09
3.7526e-09
3.76081e-09
2.50287e-07
9.85565e-08
2.50321e-07
3.83208e-09
3.85363e-09
3.82278e-09
3.84929e-09
9.85313e-08
2.50327e-07
3.77545e-09
3.82663e-09
3.77812e-09
3.8243e-09
3.80979e-09
3.77926e-09
3.80796e-09
9.85629e-08
2.50341e-07
3.76635e-09
3.75326e-09
3.76114e-09
2.5029e-07
9.85565e-08
2.50322e-07
3.83018e-09
3.85115e-09
3.82246e-09
3.85025e-09
9.85314e-08
2.50326e-07
3.77355e-09
3.82391e-09
3.77783e-09
3.8252e-09
3.80858e-09
3.78098e-09
3.80997e-09
9.85631e-08
2.5034e-07
3.76607e-09
3.75504e-09
3.76323e-09
2.50288e-07
9.85556e-08
2.50321e-07
3.83132e-09
3.85316e-09
3.82352e-09
3.85076e-09
9.85306e-08
2.50326e-07
3.77471e-09
3.82587e-09
3.77883e-09
3.82571e-09
3.80945e-09
3.78151e-09
3.81247e-09
9.85623e-08
2.5034e-07
3.76698e-09
3.7556e-09
3.76575e-09
2.50285e-07
9.85565e-08
2.50322e-07
3.83122e-09
3.85236e-09
3.82274e-09
3.85008e-09
9.85315e-08
2.50325e-07
3.77459e-09
3.82502e-09
3.778e-09
3.82473e-09
3.81084e-09
3.78199e-09
3.8117e-09
9.85632e-08
2.50339e-07
3.76844e-09
3.75636e-09
3.76581e-09
2.50284e-07
9.85563e-08
2.50321e-07
3.83182e-09
3.85224e-09
3.83313e-09
3.84287e-09
9.85314e-08
2.50324e-07
3.77474e-09
3.82453e-09
3.7737e-09
3.8228e-09
3.80797e-09
3.78224e-09
3.78303e-09
9.85624e-08
2.50341e-07
3.76801e-09
3.75136e-09
3.74679e-09
2.50288e-07
9.85511e-08
2.5032e-07
3.82524e-09
3.85071e-09
3.77248e-09
3.84565e-09
9.85349e-08
2.50346e-07
3.7573e-09
3.82239e-09
3.74685e-09
3.83129e-09
3.78303e-09
3.7731e-09
3.85469e-09
9.8562e-08
2.50342e-07
3.67178e-09
3.75417e-09
3.75161e-09
2.50293e-07
9.8552e-08
2.50313e-07
3.80326e-09
3.80763e-09
3.82926e-09
3.84832e-09
9.85397e-08
2.50348e-07
3.65685e-09
3.83364e-09
3.79586e-09
3.82721e-09
3.82724e-09
3.77452e-09
3.8131e-09
9.85617e-08
2.5034e-07
3.78677e-09
3.76317e-09
3.76654e-09
2.50287e-07
9.85465e-08
2.5031e-07
3.82281e-09
3.84586e-09
3.81575e-09
3.85662e-09
9.85825e-08
2.50343e-07
3.75726e-09
3.82671e-09
3.79072e-09
3.82516e-09
3.81242e-09
3.78054e-09
3.81117e-09
9.85623e-08
2.5034e-07
3.76901e-09
3.76187e-09
3.76386e-09
2.50286e-07
9.85435e-08
2.50307e-07
3.82013e-09
3.84937e-09
3.81615e-09
3.84439e-09
9.85521e-08
2.50345e-07
3.7572e-09
3.82541e-09
3.79266e-09
3.82617e-09
3.8096e-09
3.777e-09
3.8114e-09
9.85625e-08
2.5034e-07
3.76628e-09
3.76254e-09
3.76428e-09
2.50287e-07
9.85441e-08
2.50307e-07
3.81929e-09
3.84368e-09
3.81645e-09
3.84383e-09
9.85505e-08
2.50344e-07
3.75742e-09
3.82575e-09
3.79045e-09
3.82636e-09
3.80972e-09
3.77832e-09
3.81179e-09
9.85625e-08
2.5034e-07
3.76648e-09
3.76152e-09
3.76495e-09
2.50287e-07
9.85435e-08
2.50306e-07
3.82086e-09
3.84439e-09
3.8155e-09
3.84364e-09
9.85505e-08
2.50344e-07
3.75798e-09
3.82695e-09
3.79351e-09
3.82615e-09
3.81154e-09
3.77717e-09
3.81168e-09
9.85623e-08
2.50339e-07
3.76863e-09
3.76354e-09
3.76731e-09
2.50285e-07
9.85439e-08
2.50307e-07
3.81995e-09
3.84268e-09
3.81546e-09
3.84285e-09
9.85511e-08
2.50344e-07
3.75836e-09
3.82559e-09
3.79373e-09
3.82611e-09
3.8106e-09
3.77708e-09
3.81094e-09
9.85627e-08
2.5034e-07
3.76587e-09
3.76347e-09
3.76568e-09
2.50288e-07
9.85442e-08
2.50307e-07
3.81954e-09
3.84222e-09
3.81604e-09
3.84375e-09
9.85512e-08
2.50345e-07
3.75778e-09
3.8256e-09
3.79381e-09
3.82688e-09
3.8074e-09
3.77697e-09
3.81143e-09
9.85633e-08
2.50341e-07
3.76953e-09
3.7551e-09
3.76412e-09
2.50289e-07
9.8544e-08
2.50307e-07
3.82077e-09
3.84366e-09
3.81583e-09
3.84401e-09
9.85505e-08
2.50344e-07
3.75911e-09
3.82662e-09
3.7935e-09
3.82684e-09
3.80973e-09
3.77735e-09
3.81232e-09
9.85629e-08
2.5034e-07
3.76638e-09
3.75598e-09
3.76591e-09
2.50287e-07
9.85437e-08
2.50308e-07
3.82091e-09
3.84474e-09
3.81481e-09
3.84281e-09
9.85503e-08
2.50345e-07
3.75916e-09
3.82752e-09
3.79247e-09
3.82559e-09
3.81166e-09
3.77628e-09
3.81078e-09
9.85626e-08
2.50341e-07
3.76854e-09
3.75489e-09
3.76443e-09
2.50288e-07
9.85437e-08
2.5031e-07
3.82004e-09
3.84336e-09
3.8143e-09
3.84281e-09
9.85505e-08
2.50346e-07
3.75825e-09
3.82609e-09
3.79199e-09
3.82554e-09
3.80886e-09
3.77641e-09
3.8107e-09
9.85628e-08
2.50341e-07
3.76587e-09
3.75546e-09
3.76468e-09
2.50289e-07
9.8544e-08
2.50307e-07
3.8183e-09
3.84246e-09
3.81633e-09
3.84394e-09
9.85508e-08
2.50344e-07
3.75658e-09
3.82513e-09
3.7941e-09
3.82677e-09
3.81009e-09
3.7775e-09
3.81091e-09
9.85631e-08
2.5034e-07
3.77019e-09
3.75622e-09
3.76462e-09
2.50287e-07
9.85437e-08
2.50307e-07
3.82052e-09
3.84364e-09
3.81542e-09
3.84462e-09
9.85507e-08
2.50344e-07
3.75889e-09
3.82656e-09
3.79341e-09
3.82698e-09
3.81101e-09
3.7781e-09
3.81219e-09
9.85628e-08
2.50339e-07
3.76657e-09
3.75714e-09
3.76731e-09
2.50285e-07
9.85437e-08
2.50306e-07
3.82008e-09
3.84487e-09
3.81383e-09
3.84843e-09
9.85505e-08
2.50347e-07
3.75876e-09
3.82724e-09
3.78338e-09
3.82512e-09
3.81111e-09
3.78043e-09
3.8087e-09
9.85627e-08
2.5034e-07
3.76791e-09
3.75553e-09
3.76515e-09
2.50288e-07
9.85445e-08
2.50307e-07
3.81941e-09
3.85786e-09
3.81024e-09
3.83102e-09
9.85487e-08
2.50359e-07
3.77683e-09
3.82678e-09
3.77757e-09
3.82491e-09
3.80842e-09
3.78428e-09
3.80879e-09
9.85629e-08
2.50341e-07
3.76594e-09
3.75529e-09
3.76494e-09
2.50288e-07
9.85452e-08
2.50309e-07
3.81676e-09
3.79974e-09
3.81408e-09
3.83473e-09
9.8536e-08
2.50347e-07
3.7737e-09
3.82599e-09
3.7779e-09
3.82706e-09
3.81086e-09
3.7746e-09
3.80784e-09
9.85624e-08
2.50339e-07
3.76732e-09
3.75827e-09
3.75767e-09
2.5029e-07
9.85442e-08
2.50307e-07
3.8192e-09
3.83698e-09
3.81558e-09
3.8401e-09
9.85485e-08
2.50346e-07
3.77256e-09
3.82857e-09
3.77569e-09
3.8217e-09
3.8012e-09
3.78227e-09
3.83066e-09
9.85623e-08
2.50334e-07
3.74352e-09
3.76006e-09
3.76178e-09
2.50296e-07
9.85446e-08
2.50306e-07
3.81932e-09
3.84015e-09
3.81645e-09
3.84132e-09
9.85486e-08
2.50347e-07
3.76986e-09
3.82148e-09
3.77595e-09
3.82043e-09
3.83182e-09
3.7826e-09
3.8323e-09
9.85646e-08
2.50334e-07
3.75923e-09
3.75907e-09
3.76303e-09
2.50299e-07
9.85447e-08
2.50305e-07
3.82028e-09
3.84016e-09
3.81665e-09
3.84158e-09
9.85492e-08
2.50347e-07
3.77047e-09
3.82023e-09
3.77607e-09
3.8205e-09
3.83098e-09
3.78245e-09
3.8308e-09
9.85653e-08
2.50334e-07
3.75827e-09
3.7589e-09
3.76157e-09
2.50302e-07
9.85441e-08
2.50305e-07
3.82128e-09
3.84175e-09
3.81638e-09
3.84111e-09
9.85483e-08
2.50348e-07
3.77143e-09
3.82171e-09
3.77581e-09
3.82009e-09
3.8314e-09
3.78108e-09
3.829e-09
9.85644e-08
2.50335e-07
3.75883e-09
3.75692e-09
3.76021e-09
2.50305e-07
9.85442e-08
2.50303e-07
3.82149e-09
3.84141e-09
3.8168e-09
3.84151e-09
9.85485e-08
2.50346e-07
3.77166e-09
3.82148e-09
3.77623e-09
3.82057e-09
3.82957e-09
3.78186e-09
3.8302e-09
9.85647e-08
2.50333e-07
3.75696e-09
3.75751e-09
3.75892e-09
2.50302e-07
9.85442e-08
2.50305e-07
3.82269e-09
3.84214e-09
3.81617e-09
3.84173e-09
9.85484e-08
2.50345e-07
3.77279e-09
3.82217e-09
3.77558e-09
3.82077e-09
3.83179e-09
3.78234e-09
3.83211e-09
9.85646e-08
2.50333e-07
3.76118e-09
3.75851e-09
3.76222e-09
2.503e-07
9.85448e-08
2.50306e-07
3.82045e-09
3.84059e-09
3.81541e-09
3.84048e-09
9.85491e-08
2.50347e-07
3.77054e-09
3.82067e-09
3.77485e-09
3.81943e-09
3.83093e-09
3.78171e-09
3.83084e-09
9.85653e-08
2.50335e-07
3.75802e-09
3.75808e-09
3.76142e-09
2.50301e-07
9.85442e-08
2.50306e-07
3.82078e-09
3.84154e-09
3.816e-09
3.84015e-09
9.8548e-08
2.50348e-07
3.77089e-09
3.82157e-09
3.77543e-09
3.81915e-09
3.83359e-09
3.78165e-09
3.8308e-09
9.85642e-08
2.50335e-07
3.76073e-09
3.75796e-09
3.76064e-09
2.50302e-07
9.85438e-08
2.50305e-07
3.8221e-09
3.8417e-09
3.81587e-09
3.84139e-09
9.8548e-08
2.50345e-07
3.77221e-09
3.82169e-09
3.77508e-09
3.82034e-09
3.8323e-09
3.78263e-09
3.83249e-09
9.85642e-08
2.50332e-07
3.7609e-09
3.75916e-09
3.76431e-09
2.50296e-07
9.85441e-08
2.50308e-07
3.82118e-09
3.84152e-09
3.81373e-09
3.83991e-09
9.85485e-08
2.50348e-07
3.77188e-09
3.8216e-09
3.77094e-09
3.81877e-09
3.83287e-09
3.78125e-09
3.82937e-09
9.85647e-08
2.50335e-07
3.76125e-09
3.75767e-09
3.76113e-09
2.50303e-07
9.85441e-08
2.50305e-07
3.81937e-09
3.84018e-09
3.81672e-09
3.84171e-09
9.85485e-08
2.50347e-07
3.77007e-09
3.82017e-09
3.77383e-09
3.82058e-09
3.83175e-09
3.7824e-09
3.82968e-09
9.85647e-08
2.50335e-07
3.76005e-09
3.75882e-09
3.76141e-09
2.50304e-07
9.85444e-08
2.50303e-07
3.82063e-09
3.84028e-09
3.81642e-09
3.84153e-09
9.85488e-08
2.50346e-07
3.77123e-09
3.82029e-09
3.77331e-09
3.82066e-09
3.83145e-09
3.78183e-09
3.83125e-09
9.8565e-08
2.50334e-07
3.75968e-09
3.75818e-09
3.76267e-09
2.50302e-07
9.85444e-08
2.50304e-07
3.82097e-09
3.84167e-09
3.81659e-09
3.84097e-09
9.85486e-08
2.50346e-07
3.77121e-09
3.82218e-09
3.77267e-09
3.82223e-09
3.83176e-09
3.78161e-09
3.83102e-09
9.85646e-08
2.50335e-07
3.75963e-09
3.75989e-09
3.76004e-09
2.50305e-07
9.85448e-08
2.50307e-07
3.821e-09
3.83993e-09
3.81496e-09
3.84121e-09
9.8549e-08
2.50346e-07
3.77042e-09
3.82343e-09
3.77071e-09
3.82383e-09
3.83098e-09
3.78176e-09
3.83669e-09
9.85653e-08
2.50329e-07
3.7544e-09
3.72029e-09
3.74453e-09
2.50295e-07
9.85441e-08
2.503e-07
3.82093e-09
3.84202e-09
3.82005e-09
3.84369e-09
9.85483e-08
2.50344e-07
3.77047e-09
3.82337e-09
3.77629e-09
3.82007e-09
3.83555e-09
3.78411e-09
3.83107e-09
9.85674e-08
2.5033e-07
3.74201e-09
3.75597e-09
3.76131e-09
2.50297e-07
9.85437e-08
2.50303e-07
3.82421e-09
3.8433e-09
3.8163e-09
3.84176e-09
9.85477e-08
2.50345e-07
3.77418e-09
3.82061e-09
3.7731e-09
3.81954e-09
3.83304e-09
3.78122e-09
3.82898e-09
9.85634e-08
2.50332e-07
3.7569e-09
3.75456e-09
3.74439e-09
2.50305e-07
9.85427e-08
2.50304e-07
3.82302e-09
3.84245e-09
3.81445e-09
3.84046e-09
9.85472e-08
2.50345e-07
3.77344e-09
3.82148e-09
3.77151e-09
3.819e-09
3.82829e-09
3.78144e-09
3.83123e-09
9.85631e-08
2.50332e-07
3.76668e-09
3.75761e-09
3.7516e-09
2.503e-07
9.85432e-08
2.50302e-07
3.8189e-09
3.83957e-09
3.81692e-09
3.84179e-09
9.85474e-08
2.50344e-07
3.7695e-09
3.81933e-09
3.77405e-09
3.82053e-09
3.82941e-09
3.7819e-09
3.82952e-09
9.85633e-08
2.50332e-07
3.77358e-09
3.75899e-09
3.7609e-09
2.503e-07
9.85436e-08
2.50302e-07
3.81991e-09
3.84132e-09
3.81642e-09
3.84195e-09
9.85472e-08
2.50344e-07
3.77054e-09
3.8214e-09
3.77362e-09
3.82073e-09
3.83165e-09
3.78176e-09
3.83142e-09
9.85631e-08
2.50331e-07
3.75905e-09
3.75888e-09
3.76294e-09
2.50298e-07
9.85425e-08
2.50303e-07
3.82238e-09
3.84223e-09
3.81539e-09
3.84045e-09
9.85471e-08
2.50344e-07
3.77302e-09
3.82235e-09
3.77255e-09
3.81912e-09
3.83326e-09
3.78172e-09
3.82984e-09
9.85631e-08
2.50331e-07
3.76068e-09
3.759e-09
3.7618e-09
2.50299e-07
9.85435e-08
2.50303e-07
3.8189e-09
3.84e-09
3.81611e-09
3.84197e-09
9.85476e-08
2.50344e-07
3.76956e-09
3.82002e-09
3.77331e-09
3.82066e-09
3.83173e-09
3.78154e-09
3.83058e-09
9.85636e-08
2.50331e-07
3.75954e-09
3.75897e-09
3.76174e-09
2.50298e-07
9.85426e-08
2.50305e-07
3.821e-09
3.8405e-09
3.81467e-09
3.84042e-09
9.85472e-08
2.50346e-07
3.77167e-09
3.82059e-09
3.77187e-09
3.81908e-09
3.83108e-09
3.78147e-09
3.83101e-09
9.85632e-08
2.50333e-07
3.75811e-09
3.76053e-09
3.76322e-09
2.50299e-07
9.85426e-08
2.50302e-07
3.82053e-09
3.84173e-09
3.81671e-09
3.84009e-09
9.8547e-08
2.50346e-07
3.77123e-09
3.82171e-09
3.77387e-09
3.81899e-09
3.83285e-09
3.78037e-09
3.8289e-09
9.85631e-08
2.50333e-07
3.76072e-09
3.7567e-09
3.76023e-09
2.50302e-07
9.85434e-08
2.50302e-07
3.8205e-09
3.84046e-09
3.81611e-09
3.84269e-09
9.85472e-08
2.50342e-07
3.77117e-09
3.8204e-09
3.77328e-09
3.82152e-09
3.83161e-09
3.78368e-09
3.83215e-09
9.85634e-08
2.50329e-07
3.75958e-09
3.76015e-09
3.76356e-09
2.50296e-07
9.8543e-08
2.50304e-07
3.82078e-09
3.84156e-09
3.81536e-09
3.83998e-09
9.85476e-08
2.50345e-07
3.77144e-09
3.82151e-09
3.77249e-09
3.81878e-09
3.8321e-09
3.78098e-09
3.82951e-09
9.85638e-08
2.50332e-07
3.76013e-09
3.75751e-09
3.76098e-09
2.503e-07
9.85431e-08
2.50306e-07
3.81958e-09
3.84052e-09
3.81524e-09
3.84031e-09
9.85472e-08
2.50346e-07
3.77019e-09
3.82044e-09
3.77243e-09
3.8191e-09
3.83164e-09
3.78228e-09
3.83022e-09
9.85634e-08
2.50333e-07
3.75964e-09
3.75877e-09
3.76167e-09
2.503e-07
9.85427e-08
2.50302e-07
3.82024e-09
3.84014e-09
3.81558e-09
3.84048e-09
9.85471e-08
2.50344e-07
3.77093e-09
3.82001e-09
3.77313e-09
3.8193e-09
3.8302e-09
3.78219e-09
3.83062e-09
9.85633e-08
2.50331e-07
3.75822e-09
3.75863e-09
3.76205e-09
2.50298e-07
9.85427e-08
2.50303e-07
3.82086e-09
3.84109e-09
3.81509e-09
3.84029e-09
9.85475e-08
2.50345e-07
3.7748e-09
3.82117e-09
3.78731e-09
3.81906e-09
3.83167e-09
3.78114e-09
3.8306e-09
9.85636e-08
2.50332e-07
3.7597e-09
3.75768e-09
3.76205e-09
2.50299e-07
9.85416e-08
2.50303e-07
3.82113e-09
3.84201e-09
3.81582e-09
3.84111e-09
9.85469e-08
2.50345e-07
3.75668e-09
3.82182e-09
3.78829e-09
3.81999e-09
3.83128e-09
3.78218e-09
3.82992e-09
9.8563e-08
2.50332e-07
3.75934e-09
3.75868e-09
3.76139e-09
2.50301e-07
9.85417e-08
2.50302e-07
3.82223e-09
3.84121e-09
3.81609e-09
3.84068e-09
9.85473e-08
2.50346e-07
3.75792e-09
3.82111e-09
3.78849e-09
3.81954e-09
3.82984e-09
3.78109e-09
3.82951e-09
9.85635e-08
2.50332e-07
3.75787e-09
3.75761e-09
3.76097e-09
2.50302e-07
9.85418e-08
2.503e-07
3.82176e-09
3.84015e-09
3.81702e-09
3.84167e-09
9.8547e-08
2.50343e-07
3.7575e-09
3.82267e-09
3.78944e-09
3.82664e-09
3.8322e-09
3.78274e-09
3.83158e-09
9.85629e-08
2.50363e-07
3.76021e-09
3.75838e-09
3.76298e-09
2.50296e-07
9.85421e-08
2.50303e-07
3.82266e-09
3.84231e-09
3.81477e-09
3.84074e-09
9.85472e-08
2.50345e-07
3.75845e-09
3.81586e-09
3.78715e-09
3.82605e-09
3.83315e-09
3.78147e-09
3.82928e-09
9.85665e-08
2.50365e-07
3.76115e-09
3.75742e-09
3.76078e-09
2.503e-07
9.85426e-08
2.50307e-07
3.81964e-09
3.84045e-09
3.81444e-09
3.84042e-09
9.85474e-08
2.50348e-07
3.75546e-09
3.81418e-09
3.78681e-09
3.82569e-09
3.83155e-09
3.78138e-09
3.82944e-09
9.85668e-08
2.50368e-07
3.7596e-09
3.75731e-09
3.76107e-09
2.50302e-07
9.85417e-08
2.50303e-07
3.82072e-09
3.84036e-09
3.81592e-09
3.84222e-09
9.85472e-08
2.50344e-07
3.75646e-09
3.81427e-09
3.78838e-09
3.83014e-09
3.83146e-09
3.78319e-09
3.83218e-09
9.85665e-08
2.50367e-07
3.75943e-09
3.75916e-09
3.76349e-09
2.50299e-07
9.85418e-08
2.50302e-07
3.82179e-09
3.8418e-09
3.81491e-09
3.8428e-09
9.85477e-08
2.50344e-07
3.75771e-09
3.81548e-09
3.78822e-09
3.81985e-09
3.83291e-09
3.78083e-09
3.83131e-09
9.85672e-08
2.50343e-07
3.7611e-09
3.75586e-09
3.76786e-09
2.50299e-07
9.85413e-08
2.50307e-07
3.82153e-09
3.84349e-09
3.8192e-09
3.84828e-09
9.85473e-08
2.50343e-07
3.7591e-09
3.82081e-09
3.79045e-09
3.84289e-09
3.8403e-09
3.78789e-09
3.82389e-09
9.85637e-08
2.50338e-07
3.77705e-09
3.77071e-09
3.77483e-09
2.50287e-07
9.85346e-08
2.50315e-07
3.83184e-09
3.8325e-09
4.24782e-09
4.22491e-09
9.85421e-08
2.50324e-07
3.75671e-09
3.85068e-09
4.24703e-09
4.26577e-09
3.80926e-09
4.10787e-09
4.16171e-09
9.85567e-08
2.50339e-07
3.75059e-09
4.14113e-09
4.13083e-09
2.50283e-07
9.85146e-08
2.50093e-07
4.85942e-09
4.90089e-09
2.25625e-08
2.26495e-08
9.84742e-08
2.50139e-07
4.84135e-09
4.81465e-09
2.26317e-08
2.26744e-08
4.80698e-09
2.24945e-08
2.25941e-08
9.85174e-08
2.5009e-07
4.76469e-09
2.25097e-08
2.24749e-08
2.50131e-07
9.7402e-08
1.33919e-07
4.51338e-08
4.51618e-08
1.86199e-07
1.85804e-07
9.74671e-08
1.33948e-07
4.50142e-08
4.52278e-08
1.85872e-07
1.85735e-07
4.51895e-08
1.86321e-07
1.86117e-07
9.74695e-08
1.33852e-07
4.50254e-08
1.86046e-07
1.85821e-07
1.33855e-07
4.95522e-07
2.31768e-07
2.31567e-07
4.95461e-07
2.31916e-07
2.31633e-07
4.59538e-07
4.5963e-07
4.59593e-07
2.31785e-07
4.95435e-07
2.31915e-07
5.83731e-08
2.60723e-07
1.70804e-07
1.70822e-07
5.10688e-07
3.49553e-07
4.62321e-07
2.28913e-07
5.1063e-07
3.49535e-07
2.28897e-07
4.62194e-07
4.64699e-07
4.61512e-07
4.61415e-07
3.12365e-06
0.000120055
3.13263e-06
0.000121453
0.000241255
0.000248291
3.12413e-06
0.000120072
3.13254e-06
0.000121471
1.10836e-06
1.10779e-06
1.10806e-06
1.53043e-07
1.52965e-07
1.53001e-07
1.53065e-07
2.44268e-07
4.95988e-06
8.56045e-07
6.67348e-07
1.69463e-07
3.73034e-06
5.60489e-07
0.000241247
0.000248276
2.4384e-07
8.55308e-07
4.95882e-06
6.67241e-07
1.69272e-07
5.60193e-07
3.72959e-06
7.63797e-06
7.63879e-06
2.47917e-07
8.04006e-06
8.04175e-06
2.99058e-06
0.000120921
2.98329e-06
0.000120915
0.000248914
0.000248906
2.991e-06
0.000120937
2.98372e-06
0.000120931
7.40418e-08
7.40278e-08
7.4069e-08
1.03866e-08
1.03844e-08