/*--------------------------------*- C++ -*----------------------------------*\
| =========                 |                                                 |
| \\      /  F ield         | OpenFOAM: The Open Source CFD Toolbox           |
|  \\    /   O peration     | Version:  v1912                                 |
|   \\  /    A nd           | Website:  www.openfoam.com                      |
|    \\/     M anipulation  |                                                 |
\*---------------------------------------------------------------------------*/
FoamFile
{
    version     2.0;
    format      ascii;
    class       volScalarField;
    location    "1.45";
    object      p;
}
// * * * * * * * * * * * * * * * * * * * * * * * * * * * * * * * * * * * * * //

dimensions      [0 2 -2 0 0 0 0];


internalField   nonuniform List<scalar> 
171728
(
0.0208796
0.0208821
0.0208821
0.0208985
0.0206614
0.0206615
0.0206614
0.020675
0.02044
0.02044
0.02044
0.0204535
0.0202186
0.0202185
0.0202185
0.020232
0.0199971
0.019997
0.019997
0.0200106
0.0197757
0.0197756
0.0197756
0.0197891
0.0195542
0.0195541
0.0195541
0.0195677
0.0193328
0.0193327
0.0193327
0.0193462
0.0191113
0.0191112
0.0191112
0.0191247
0.0188898
0.0188897
0.0188897
0.0189033
0.0186684
0.0186683
0.0186683
0.0186818
0.0184469
0.0184468
0.0184468
0.0184604
0.0182255
0.0182254
0.0182254
0.0182389
0.018004
0.0180039
0.0180039
0.0180175
0.0177826
0.0177825
0.0177825
0.017796
0.0175611
0.017561
0.017561
0.0175745
0.0173396
0.0173395
0.0173395
0.0173531
0.0171182
0.0171181
0.0171181
0.0171316
0.0168967
0.0168966
0.0168966
0.0169102
0.0166753
0.0166752
0.0166752
0.0166887
0.0164538
0.0164537
0.0164537
0.0164673
0.0162324
0.0162322
0.0162322
0.0162458
0.0160109
0.0160108
0.0160108
0.0160243
0.0157894
0.0157893
0.0157893
0.0158029
0.015568
0.0155679
0.0155679
0.0155814
0.0153465
0.0153464
0.0153464
0.01536
0.015125
0.0151249
0.0151249
0.0151385
0.0149036
0.0149035
0.0149035
0.014917
0.0146821
0.014682
0.014682
0.0146956
0.0144607
0.0144605
0.0144605
0.0144741
0.0142392
0.0142391
0.0142391
0.0142526
0.0140177
0.0140176
0.0140176
0.0140312
0.0137963
0.0137962
0.0137962
0.0138097
0.0135748
0.0135747
0.0135747
0.0135882
0.0133533
0.0133532
0.0133532
0.0133668
0.0131319
0.0131317
0.0131317
0.0131453
0.0129104
0.0129103
0.0129103
0.0129238
0.0126889
0.0126888
0.0126888
0.0127024
0.0124675
0.0124673
0.0124673
0.0124809
0.012246
0.0122459
0.0122459
0.0122594
0.0120245
0.0120244
0.0120244
0.012038
0.011803
0.0118029
0.0118029
0.0118165
0.0115816
0.0115815
0.0115815
0.011595
0.0113601
0.01136
0.01136
0.0113735
0.0111386
0.0111385
0.0111385
0.0111521
0.0109172
0.0109171
0.0109171
0.0109306
0.0106957
0.0106956
0.0106956
0.0107091
0.0104742
0.0104741
0.0104741
0.0104877
0.0102528
0.0102527
0.0102527
0.0102662
0.0100313
0.0100312
0.0100312
0.0100447
0.00980983
0.00980972
0.00980972
0.00982327
0.00958837
0.00958826
0.00958826
0.00960181
0.0093669
0.0093668
0.0093668
0.00938034
0.00914544
0.00914533
0.00914533
0.00915888
0.00892398
0.00892387
0.00892387
0.00893742
0.00870252
0.00870241
0.00870241
0.00871596
0.00848105
0.00848095
0.00848095
0.00849449
0.00825959
0.00825949
0.00825949
0.00827303
0.00803813
0.00803803
0.00803803
0.00805157
0.00781668
0.00781657
0.00781657
0.00783011
0.00759522
0.00759511
0.00759511
0.00760866
0.00737376
0.00737365
0.00737365
0.0073872
0.0071523
0.00715219
0.00715219
0.00716574
0.00693084
0.00693073
0.00693073
0.00694428
0.00670938
0.00670928
0.00670928
0.00672282
0.00648793
0.00648782
0.00648782
0.00650137
0.00626647
0.00626636
0.00626636
0.00627991
0.00604501
0.0060449
0.0060449
0.00605845
0.00582356
0.00582345
0.00582345
0.00583699
0.0056021
0.00560199
0.00560199
0.00561554
0.00538064
0.00538053
0.00538053
0.00539408
0.00515918
0.00515908
0.00515908
0.00517262
0.00493773
0.00493762
0.00493762
0.00495117
0.00471627
0.00471616
0.00471616
0.00472971
0.00449481
0.0044947
0.0044947
0.00450825
0.00427335
0.00427324
0.00427324
0.00428679
0.00405189
0.00405178
0.00405178
0.00406533
0.00383042
0.00383032
0.00383032
0.00384386
0.00360896
0.00360885
0.00360885
0.0036224
0.0033875
0.00338739
0.00338739
0.00340094
0.00316604
0.00316593
0.00316593
0.00317948
0.00294457
0.00294446
0.00294446
0.00295801
0.00272311
0.002723
0.002723
0.00273654
0.00250164
0.00250153
0.00250153
0.00251508
0.00228017
0.00228007
0.00228007
0.00229361
0.00205871
0.0020586
0.0020586
0.00207214
0.00183724
0.00183713
0.00183713
0.00185068
0.00161577
0.00161566
0.00161566
0.00162921
0.0013943
0.0013942
0.0013942
0.00140774
0.00117283
0.00117273
0.00117273
0.00118627
0.000951363
0.000951254
0.000951255
0.000964802
0.000729891
0.000729784
0.000729784
0.000743332
0.000508438
0.000508324
0.000508324
0.000521864
0.000287799
0.000287138
0.000287134
0.00030048
8.36453e-05
8.86879e-05
8.86798e-05
8.81461e-05
0.0209278
0.0209222
0.0209223
0.0209279
0.0209222
0.0209222
0.0209319
0.0209319
0.0209319
0.0209319
0.0209223
0.0209222
0.0209278
0.0209222
0.0209223
0.0209278
0.0208984
0.0207033
0.0208821
0.0208821
0.0207168
0.0207168
0.0208985
0.0207033
0.0208821
0.0208821
0.0207168
0.0207168
0.0208821
0.0207168
0.0207168
0.0208984
0.0207033
0.0208821
0.0207168
0.0207168
0.0207033
0.020675
0.0204819
0.0206615
0.0206615
0.0204953
0.0204953
0.020675
0.0204819
0.0206615
0.0206614
0.0204953
0.0204953
0.0206614
0.0204953
0.0204953
0.020675
0.0204819
0.0206614
0.0204953
0.0204953
0.0204819
0.0204535
0.0202604
0.02044
0.02044
0.0202739
0.0202739
0.0204535
0.0202604
0.02044
0.02044
0.0202739
0.0202739
0.02044
0.0202739
0.0202739
0.0204535
0.0202604
0.02044
0.0202739
0.0202739
0.0202604
0.020232
0.0200389
0.0202185
0.0202185
0.0200524
0.0200524
0.020232
0.0200389
0.0202185
0.0202185
0.0200524
0.0200524
0.0202185
0.0200524
0.0200524
0.020232
0.0200389
0.0202185
0.0200524
0.0200524
0.0200389
0.0200106
0.0198175
0.019997
0.019997
0.0198309
0.0198309
0.0200106
0.0198175
0.019997
0.019997
0.0198309
0.0198309
0.019997
0.0198309
0.0198309
0.0200106
0.0198175
0.019997
0.0198309
0.0198309
0.0198175
0.0197891
0.019596
0.0197756
0.0197756
0.0196095
0.0196095
0.0197891
0.019596
0.0197756
0.0197756
0.0196095
0.0196095
0.0197756
0.0196095
0.0196095
0.0197891
0.019596
0.0197756
0.0196095
0.0196095
0.019596
0.0195677
0.0193745
0.0195541
0.0195541
0.019388
0.019388
0.0195677
0.0193745
0.0195541
0.0195541
0.019388
0.019388
0.0195541
0.019388
0.019388
0.0195677
0.0193745
0.0195541
0.019388
0.019388
0.0193745
0.0193462
0.0191531
0.0193327
0.0193327
0.0191666
0.0191666
0.0193462
0.0191531
0.0193327
0.0193327
0.0191666
0.0191666
0.0193327
0.0191666
0.0191666
0.0193462
0.0191531
0.0193327
0.0191666
0.0191666
0.0191531
0.0191247
0.0189316
0.0191112
0.0191112
0.0189451
0.0189451
0.0191247
0.0189316
0.0191112
0.0191112
0.0189451
0.0189451
0.0191112
0.0189451
0.0189451
0.0191247
0.0189316
0.0191112
0.0189451
0.0189451
0.0189316
0.0189033
0.0187102
0.0188897
0.0188897
0.0187236
0.0187236
0.0189033
0.0187102
0.0188897
0.0188897
0.0187236
0.0187236
0.0188897
0.0187236
0.0187236
0.0189033
0.0187102
0.0188897
0.0187236
0.0187236
0.0187102
0.0186818
0.0184887
0.0186683
0.0186683
0.0185022
0.0185022
0.0186818
0.0184887
0.0186683
0.0186683
0.0185022
0.0185022
0.0186683
0.0185022
0.0185022
0.0186818
0.0184887
0.0186683
0.0185022
0.0185022
0.0184887
0.0184604
0.0182673
0.0184468
0.0184468
0.0182807
0.0182807
0.0184604
0.0182673
0.0184468
0.0184468
0.0182807
0.0182807
0.0184468
0.0182807
0.0182807
0.0184604
0.0182673
0.0184468
0.0182807
0.0182807
0.0182673
0.0182389
0.0180458
0.0182254
0.0182254
0.0180593
0.0180593
0.0182389
0.0180458
0.0182254
0.0182254
0.0180593
0.0180593
0.0182254
0.0180593
0.0180593
0.0182389
0.0180458
0.0182254
0.0180593
0.0180593
0.0180458
0.0180175
0.0178243
0.0180039
0.0180039
0.0178378
0.0178378
0.0180175
0.0178243
0.0180039
0.0180039
0.0178378
0.0178378
0.0180039
0.0178378
0.0178378
0.0180175
0.0178243
0.0180039
0.0178378
0.0178378
0.0178243
0.017796
0.0176029
0.0177825
0.0177825
0.0176164
0.0176164
0.017796
0.0176029
0.0177825
0.0177825
0.0176164
0.0176164
0.0177825
0.0176164
0.0176164
0.017796
0.0176029
0.0177825
0.0176164
0.0176164
0.0176029
0.0175745
0.0173814
0.017561
0.017561
0.0173949
0.0173949
0.0175745
0.0173814
0.017561
0.017561
0.0173949
0.0173949
0.017561
0.0173949
0.0173949
0.0175745
0.0173814
0.017561
0.0173949
0.0173949
0.0173814
0.0173531
0.01716
0.0173395
0.0173395
0.0171734
0.0171734
0.0173531
0.01716
0.0173395
0.0173395
0.0171734
0.0171734
0.0173395
0.0171734
0.0171734
0.0173531
0.01716
0.0173395
0.0171734
0.0171734
0.01716
0.0171316
0.0169385
0.0171181
0.0171181
0.016952
0.016952
0.0171316
0.0169385
0.0171181
0.0171181
0.016952
0.016952
0.0171181
0.016952
0.016952
0.0171316
0.0169385
0.0171181
0.016952
0.016952
0.0169385
0.0169102
0.0167171
0.0168966
0.0168966
0.0167305
0.0167305
0.0169102
0.0167171
0.0168966
0.0168966
0.0167305
0.0167305
0.0168966
0.0167305
0.0167305
0.0169102
0.0167171
0.0168966
0.0167305
0.0167305
0.0167171
0.0166887
0.0164956
0.0166752
0.0166752
0.0165091
0.0165091
0.0166887
0.0164956
0.0166752
0.0166752
0.0165091
0.0165091
0.0166752
0.0165091
0.0165091
0.0166887
0.0164956
0.0166752
0.0165091
0.0165091
0.0164956
0.0164673
0.0162741
0.0164537
0.0164537
0.0162876
0.0162876
0.0164673
0.0162741
0.0164537
0.0164537
0.0162876
0.0162876
0.0164537
0.0162876
0.0162876
0.0164673
0.0162741
0.0164537
0.0162876
0.0162876
0.0162741
0.0162458
0.0160527
0.0162322
0.0162322
0.0160662
0.0160662
0.0162458
0.0160527
0.0162322
0.0162322
0.0160662
0.0160662
0.0162322
0.0160662
0.0160662
0.0162458
0.0160527
0.0162322
0.0160662
0.0160662
0.0160527
0.0160243
0.0158312
0.0160108
0.0160108
0.0158447
0.0158447
0.0160243
0.0158312
0.0160108
0.0160108
0.0158447
0.0158447
0.0160108
0.0158447
0.0158447
0.0160243
0.0158312
0.0160108
0.0158447
0.0158447
0.0158312
0.0158029
0.0156098
0.0157893
0.0157893
0.0156232
0.0156232
0.0158029
0.0156098
0.0157893
0.0157893
0.0156232
0.0156232
0.0157893
0.0156232
0.0156232
0.0158029
0.0156098
0.0157893
0.0156232
0.0156232
0.0156098
0.0155814
0.0153883
0.0155679
0.0155679
0.0154018
0.0154018
0.0155814
0.0153883
0.0155679
0.0155679
0.0154018
0.0154018
0.0155679
0.0154018
0.0154018
0.0155814
0.0153883
0.0155679
0.0154018
0.0154018
0.0153883
0.01536
0.0151668
0.0153464
0.0153464
0.0151803
0.0151803
0.01536
0.0151668
0.0153464
0.0153464
0.0151803
0.0151803
0.0153464
0.0151803
0.0151803
0.01536
0.0151668
0.0153464
0.0151803
0.0151803
0.0151668
0.0151385
0.0149454
0.0151249
0.0151249
0.0149588
0.0149588
0.0151385
0.0149454
0.0151249
0.0151249
0.0149588
0.0149588
0.0151249
0.0149588
0.0149588
0.0151385
0.0149454
0.0151249
0.0149588
0.0149588
0.0149454
0.014917
0.0147239
0.0149035
0.0149035
0.0147374
0.0147374
0.014917
0.0147239
0.0149035
0.0149035
0.0147374
0.0147374
0.0149035
0.0147374
0.0147374
0.014917
0.0147239
0.0149035
0.0147374
0.0147374
0.0147239
0.0146956
0.0145024
0.014682
0.014682
0.0145159
0.0145159
0.0146956
0.0145024
0.014682
0.014682
0.0145159
0.0145159
0.014682
0.0145159
0.0145159
0.0146956
0.0145024
0.014682
0.0145159
0.0145159
0.0145024
0.0144741
0.014281
0.0144605
0.0144605
0.0142945
0.0142945
0.0144741
0.014281
0.0144605
0.0144605
0.0142945
0.0142945
0.0144605
0.0142945
0.0142945
0.0144741
0.014281
0.0144605
0.0142945
0.0142945
0.014281
0.0142526
0.0140595
0.0142391
0.0142391
0.014073
0.014073
0.0142526
0.0140595
0.0142391
0.0142391
0.014073
0.014073
0.0142391
0.014073
0.014073
0.0142526
0.0140595
0.0142391
0.014073
0.014073
0.0140595
0.0140312
0.013838
0.0140176
0.0140176
0.0138515
0.0138515
0.0140312
0.013838
0.0140176
0.0140176
0.0138515
0.0138515
0.0140176
0.0138515
0.0138515
0.0140312
0.013838
0.0140176
0.0138515
0.0138515
0.013838
0.0138097
0.0136166
0.0137962
0.0137962
0.0136301
0.0136301
0.0138097
0.0136166
0.0137962
0.0137962
0.0136301
0.0136301
0.0137962
0.0136301
0.0136301
0.0138097
0.0136166
0.0137962
0.0136301
0.0136301
0.0136166
0.0135882
0.0133951
0.0135747
0.0135747
0.0134086
0.0134086
0.0135882
0.0133951
0.0135747
0.0135747
0.0134086
0.0134086
0.0135747
0.0134086
0.0134086
0.0135882
0.0133951
0.0135747
0.0134086
0.0134086
0.0133951
0.0133668
0.0131736
0.0133532
0.0133532
0.0131871
0.0131871
0.0133668
0.0131736
0.0133532
0.0133532
0.0131871
0.0131871
0.0133532
0.0131871
0.0131871
0.0133668
0.0131736
0.0133532
0.0131871
0.0131871
0.0131736
0.0131453
0.0129522
0.0131317
0.0131317
0.0129656
0.0129656
0.0131453
0.0129522
0.0131317
0.0131317
0.0129656
0.0129656
0.0131317
0.0129656
0.0129656
0.0131453
0.0129522
0.0131317
0.0129656
0.0129656
0.0129522
0.0129238
0.0127307
0.0129103
0.0129103
0.0127442
0.0127442
0.0129238
0.0127307
0.0129103
0.0129103
0.0127442
0.0127442
0.0129103
0.0127442
0.0127442
0.0129238
0.0127307
0.0129103
0.0127442
0.0127442
0.0127307
0.0127024
0.0125092
0.0126888
0.0126888
0.0125227
0.0125227
0.0127024
0.0125092
0.0126888
0.0126888
0.0125227
0.0125227
0.0126888
0.0125227
0.0125227
0.0127024
0.0125092
0.0126888
0.0125227
0.0125227
0.0125092
0.0124809
0.0122878
0.0124673
0.0124673
0.0123012
0.0123012
0.0124809
0.0122878
0.0124673
0.0124673
0.0123012
0.0123012
0.0124673
0.0123012
0.0123012
0.0124809
0.0122878
0.0124673
0.0123012
0.0123012
0.0122878
0.0122594
0.0120663
0.0122459
0.0122459
0.0120798
0.0120798
0.0122594
0.0120663
0.0122459
0.0122459
0.0120798
0.0120798
0.0122459
0.0120798
0.0120798
0.0122594
0.0120663
0.0122459
0.0120798
0.0120798
0.0120663
0.012038
0.0118448
0.0120244
0.0120244
0.0118583
0.0118583
0.012038
0.0118448
0.0120244
0.0120244
0.0118583
0.0118583
0.0120244
0.0118583
0.0118583
0.012038
0.0118448
0.0120244
0.0118583
0.0118583
0.0118448
0.0118165
0.0116234
0.0118029
0.0118029
0.0116368
0.0116368
0.0118165
0.0116234
0.0118029
0.0118029
0.0116368
0.0116368
0.0118029
0.0116368
0.0116368
0.0118165
0.0116234
0.0118029
0.0116368
0.0116368
0.0116234
0.011595
0.0114019
0.0115815
0.0115815
0.0114154
0.0114154
0.011595
0.0114019
0.0115815
0.0115815
0.0114154
0.0114154
0.0115815
0.0114154
0.0114154
0.011595
0.0114019
0.0115815
0.0114154
0.0114154
0.0114019
0.0113735
0.0111804
0.01136
0.01136
0.0111939
0.0111939
0.0113735
0.0111804
0.01136
0.01136
0.0111939
0.0111939
0.01136
0.0111939
0.0111939
0.0113735
0.0111804
0.01136
0.0111939
0.0111939
0.0111804
0.0111521
0.010959
0.0111385
0.0111385
0.0109724
0.0109724
0.0111521
0.010959
0.0111385
0.0111385
0.0109724
0.0109724
0.0111385
0.0109724
0.0109724
0.0111521
0.010959
0.0111385
0.0109724
0.0109724
0.010959
0.0109306
0.0107375
0.0109171
0.0109171
0.010751
0.010751
0.0109306
0.0107375
0.0109171
0.0109171
0.010751
0.010751
0.0109171
0.010751
0.010751
0.0109306
0.0107375
0.0109171
0.010751
0.010751
0.0107375
0.0107091
0.010516
0.0106956
0.0106956
0.0105295
0.0105295
0.0107091
0.010516
0.0106956
0.0106956
0.0105295
0.0105295
0.0106956
0.0105295
0.0105295
0.0107091
0.010516
0.0106956
0.0105295
0.0105295
0.010516
0.0104877
0.0102945
0.0104741
0.0104741
0.010308
0.010308
0.0104877
0.0102945
0.0104741
0.0104741
0.010308
0.010308
0.0104741
0.010308
0.010308
0.0104877
0.0102945
0.0104741
0.010308
0.010308
0.0102945
0.0102662
0.0100731
0.0102527
0.0102527
0.0100866
0.0100866
0.0102662
0.0100731
0.0102527
0.0102527
0.0100866
0.0100866
0.0102527
0.0100866
0.0100866
0.0102662
0.0100731
0.0102527
0.0100866
0.0100866
0.0100731
0.0100447
0.00985162
0.0100312
0.0100312
0.00986509
0.00986509
0.0100447
0.00985162
0.0100312
0.0100312
0.00986509
0.00986509
0.0100312
0.00986509
0.00986509
0.0100447
0.00985162
0.0100312
0.00986509
0.00986509
0.00985162
0.00982327
0.00963015
0.00980972
0.00980972
0.00964363
0.00964363
0.00982327
0.00963015
0.00980972
0.00980972
0.00964363
0.00964363
0.00980972
0.00964363
0.00964363
0.00982327
0.00963015
0.00980972
0.00964363
0.00964363
0.00963015
0.00960181
0.00940869
0.00958826
0.00958826
0.00942216
0.00942216
0.00960181
0.00940869
0.00958826
0.00958826
0.00942216
0.00942216
0.00958826
0.00942216
0.00942216
0.00960181
0.00940869
0.00958826
0.00942216
0.00942216
0.00940869
0.00938034
0.00918722
0.0093668
0.0093668
0.0092007
0.0092007
0.00938034
0.00918722
0.0093668
0.0093668
0.0092007
0.0092007
0.0093668
0.0092007
0.0092007
0.00938034
0.00918722
0.0093668
0.0092007
0.0092007
0.00918722
0.00915888
0.00896576
0.00914533
0.00914533
0.00897924
0.00897924
0.00915888
0.00896576
0.00914533
0.00914533
0.00897924
0.00897924
0.00914533
0.00897924
0.00897924
0.00915888
0.00896576
0.00914533
0.00897924
0.00897924
0.00896576
0.00893742
0.0087443
0.00892387
0.00892387
0.00875777
0.00875777
0.00893742
0.0087443
0.00892387
0.00892387
0.00875777
0.00875777
0.00892387
0.00875777
0.00875777
0.00893742
0.0087443
0.00892387
0.00875777
0.00875777
0.0087443
0.00871596
0.00852284
0.00870241
0.00870241
0.00853631
0.00853631
0.00871596
0.00852284
0.00870241
0.00870241
0.00853631
0.00853631
0.00870241
0.00853631
0.00853631
0.00871596
0.00852284
0.00870241
0.00853631
0.00853631
0.00852284
0.00849449
0.00830138
0.00848095
0.00848095
0.00831485
0.00831485
0.00849449
0.00830138
0.00848095
0.00848095
0.00831485
0.00831485
0.00848095
0.00831485
0.00831485
0.00849449
0.00830138
0.00848095
0.00831485
0.00831485
0.00830138
0.00827303
0.00807992
0.00825949
0.00825949
0.00809339
0.00809339
0.00827303
0.00807992
0.00825949
0.00825949
0.00809339
0.00809339
0.00825949
0.00809339
0.00809339
0.00827303
0.00807992
0.00825949
0.00809339
0.00809339
0.00807992
0.00805157
0.00785846
0.00803803
0.00803803
0.00787193
0.00787193
0.00805157
0.00785846
0.00803803
0.00803803
0.00787193
0.00787193
0.00803803
0.00787193
0.00787193
0.00805157
0.00785846
0.00803803
0.00787193
0.00787193
0.00785846
0.00783011
0.007637
0.00781657
0.00781657
0.00765047
0.00765047
0.00783011
0.007637
0.00781657
0.00781657
0.00765047
0.00765047
0.00781657
0.00765047
0.00765047
0.00783011
0.007637
0.00781657
0.00765047
0.00765047
0.007637
0.00760866
0.00741554
0.00759511
0.00759511
0.00742901
0.00742901
0.00760866
0.00741554
0.00759511
0.00759511
0.00742901
0.00742901
0.00759511
0.00742901
0.00742901
0.00760866
0.00741554
0.00759511
0.00742901
0.00742901
0.00741554
0.0073872
0.00719408
0.00737365
0.00737365
0.00720756
0.00720755
0.0073872
0.00719408
0.00737365
0.00737365
0.00720756
0.00720756
0.00737365
0.00720756
0.00720756
0.0073872
0.00719408
0.00737365
0.00720756
0.00720756
0.00719408
0.00716574
0.00697262
0.00715219
0.00715219
0.0069861
0.0069861
0.00716574
0.00697262
0.00715219
0.00715219
0.0069861
0.0069861
0.00715219
0.0069861
0.0069861
0.00716574
0.00697262
0.00715219
0.0069861
0.0069861
0.00697262
0.00694428
0.00675117
0.00693073
0.00693073
0.00676464
0.00676464
0.00694428
0.00675117
0.00693073
0.00693073
0.00676464
0.00676464
0.00693073
0.00676464
0.00676464
0.00694428
0.00675117
0.00693073
0.00676464
0.00676464
0.00675117
0.00672282
0.00652971
0.00670928
0.00670928
0.00654318
0.00654318
0.00672282
0.00652971
0.00670928
0.00670928
0.00654318
0.00654318
0.00670928
0.00654318
0.00654318
0.00672282
0.00652971
0.00670928
0.00654318
0.00654318
0.00652971
0.00650137
0.00630825
0.00648782
0.00648782
0.00632173
0.00632173
0.00650137
0.00630825
0.00648782
0.00648782
0.00632173
0.00632173
0.00648782
0.00632173
0.00632173
0.00650137
0.00630825
0.00648782
0.00632173
0.00632173
0.00630825
0.00627991
0.00608679
0.00626636
0.00626636
0.00610027
0.00610027
0.00627991
0.00608679
0.00626636
0.00626636
0.00610027
0.00610027
0.00626636
0.00610027
0.00610027
0.00627991
0.00608679
0.00626636
0.00610027
0.00610027
0.00608679
0.00605845
0.00586534
0.0060449
0.0060449
0.00587881
0.00587881
0.00605845
0.00586534
0.0060449
0.0060449
0.00587881
0.00587881
0.00604491
0.00587881
0.00587881
0.00605845
0.00586534
0.0060449
0.00587881
0.00587881
0.00586534
0.005837
0.00564388
0.00582345
0.00582345
0.00565736
0.00565735
0.005837
0.00564388
0.00582345
0.00582345
0.00565735
0.00565736
0.00582345
0.00565736
0.00565736
0.00583699
0.00564388
0.00582345
0.00565736
0.00565735
0.00564388
0.00561554
0.00542242
0.00560199
0.00560199
0.0054359
0.0054359
0.00561554
0.00542242
0.00560199
0.00560199
0.0054359
0.0054359
0.00560199
0.0054359
0.0054359
0.00561554
0.00542242
0.00560199
0.0054359
0.0054359
0.00542242
0.00539408
0.00520097
0.00538053
0.00538053
0.00521444
0.00521444
0.00539408
0.00520097
0.00538053
0.00538053
0.00521444
0.00521444
0.00538053
0.00521444
0.00521444
0.00539408
0.00520097
0.00538053
0.00521444
0.00521444
0.00520097
0.00517262
0.00497951
0.00515908
0.00515908
0.00499298
0.00499298
0.00517262
0.00497951
0.00515908
0.00515908
0.00499298
0.00499298
0.00515908
0.00499298
0.00499298
0.00517262
0.00497951
0.00515908
0.00499298
0.00499298
0.00497951
0.00495117
0.00475805
0.00493762
0.00493762
0.00477152
0.00477152
0.00495117
0.00475805
0.00493762
0.00493762
0.00477152
0.00477152
0.00493762
0.00477152
0.00477152
0.00495117
0.00475805
0.00493762
0.00477152
0.00477152
0.00475805
0.00472971
0.00453659
0.00471616
0.00471616
0.00455006
0.00455006
0.00472971
0.00453659
0.00471616
0.00471616
0.00455006
0.00455006
0.00471616
0.00455006
0.00455006
0.00472971
0.00453659
0.00471616
0.00455006
0.00455006
0.00453659
0.00450825
0.00431513
0.0044947
0.0044947
0.0043286
0.0043286
0.00450825
0.00431513
0.0044947
0.0044947
0.0043286
0.0043286
0.0044947
0.0043286
0.0043286
0.00450825
0.00431513
0.0044947
0.0043286
0.0043286
0.00431513
0.00428679
0.00409367
0.00427324
0.00427324
0.00410714
0.00410714
0.00428679
0.00409367
0.00427324
0.00427324
0.00410714
0.00410714
0.00427324
0.00410714
0.00410714
0.00428679
0.00409367
0.00427324
0.00410714
0.00410714
0.00409367
0.00406533
0.00387221
0.00405178
0.00405178
0.00388568
0.00388568
0.00406533
0.00387221
0.00405178
0.00405178
0.00388568
0.00388568
0.00405178
0.00388568
0.00388568
0.00406533
0.00387221
0.00405178
0.00388568
0.00388568
0.00387221
0.00384386
0.00365074
0.00383032
0.00383032
0.00366422
0.00366422
0.00384386
0.00365074
0.00383032
0.00383032
0.00366422
0.00366422
0.00383032
0.00366422
0.00366422
0.00384386
0.00365074
0.00383032
0.00366422
0.00366422
0.00365074
0.0036224
0.00342928
0.00360885
0.00360885
0.00344276
0.00344276
0.0036224
0.00342928
0.00360885
0.00360885
0.00344276
0.00344276
0.00360885
0.00344276
0.00344276
0.0036224
0.00342928
0.00360885
0.00344276
0.00344276
0.00342928
0.00340094
0.00320782
0.00338739
0.00338739
0.00322129
0.00322129
0.00340094
0.00320782
0.00338739
0.00338739
0.00322129
0.00322129
0.00338739
0.00322129
0.00322129
0.00340094
0.00320782
0.00338739
0.00322129
0.00322129
0.00320782
0.00317948
0.00298635
0.00316593
0.00316593
0.00299983
0.00299983
0.00317948
0.00298635
0.00316593
0.00316593
0.00299983
0.00299983
0.00316593
0.00299983
0.00299983
0.00317948
0.00298635
0.00316593
0.00299983
0.00299983
0.00298635
0.00295801
0.00276489
0.00294446
0.00294446
0.00277836
0.00277836
0.00295801
0.00276489
0.00294446
0.00294446
0.00277836
0.00277836
0.00294446
0.00277836
0.00277836
0.00295801
0.00276489
0.00294446
0.00277836
0.00277836
0.00276489
0.00273654
0.00254342
0.002723
0.002723
0.0025569
0.0025569
0.00273654
0.00254342
0.002723
0.002723
0.0025569
0.0025569
0.002723
0.0025569
0.0025569
0.00273654
0.00254342
0.002723
0.0025569
0.0025569
0.00254342
0.00251508
0.00232196
0.00250153
0.00250153
0.00233543
0.00233543
0.00251508
0.00232196
0.00250153
0.00250153
0.00233543
0.00233543
0.00250153
0.00233543
0.00233543
0.00251508
0.00232196
0.00250153
0.00233543
0.00233543
0.00232196
0.00229361
0.00210049
0.00228007
0.00228007
0.00211396
0.00211396
0.00229361
0.00210049
0.00228007
0.00228007
0.00211396
0.00211396
0.00228007
0.00211396
0.00211396
0.00229361
0.00210049
0.00228007
0.00211396
0.00211396
0.00210049
0.00207214
0.00187902
0.0020586
0.0020586
0.0018925
0.0018925
0.00207214
0.00187902
0.0020586
0.0020586
0.0018925
0.0018925
0.0020586
0.0018925
0.0018925
0.00207214
0.00187902
0.0020586
0.0018925
0.0018925
0.00187902
0.00185068
0.00165756
0.00183713
0.00183713
0.00167103
0.00167103
0.00185068
0.00165756
0.00183713
0.00183713
0.00167103
0.00167103
0.00183713
0.00167103
0.00167103
0.00185068
0.00165756
0.00183713
0.00167103
0.00167103
0.00165756
0.00162921
0.00143609
0.00161566
0.00161566
0.00144956
0.00144956
0.00162921
0.00143609
0.00161566
0.00161566
0.00144956
0.00144956
0.00161567
0.00144956
0.00144956
0.00162921
0.00143609
0.00161566
0.00144956
0.00144956
0.00143609
0.00140774
0.00121462
0.0013942
0.0013942
0.00122809
0.00122809
0.00140774
0.00121462
0.0013942
0.0013942
0.00122809
0.00122809
0.0013942
0.00122809
0.00122809
0.00140774
0.00121462
0.0013942
0.00122809
0.00122809
0.00121462
0.00118627
0.000993147
0.00117273
0.00117273
0.00100662
0.00100662
0.00118627
0.000993147
0.00117273
0.00117273
0.00100662
0.00100662
0.00117273
0.00100662
0.00100662
0.00118627
0.000993147
0.00117273
0.00100662
0.00100662
0.000993147
0.000964803
0.000771676
0.000951254
0.000951254
0.000785151
0.000785151
0.000964803
0.000771676
0.000951254
0.000951254
0.000785151
0.000785151
0.000951255
0.000785151
0.000785152
0.000964802
0.000771676
0.000951254
0.000785151
0.000785151
0.000771676
0.000743332
0.000550208
0.000729784
0.000729783
0.000563685
0.000563688
0.000743332
0.000550208
0.000729784
0.000729783
0.000563686
0.000563685
0.000729785
0.000563687
0.000563687
0.000743331
0.000550208
0.000729784
0.000563685
0.000563686
0.000550208
0.000521865
0.000328796
0.000508324
0.000508324
0.000342337
0.000342339
0.000521864
0.000328802
0.000508324
0.000508324
0.000342335
0.000342334
0.000508324
0.000342338
0.000342335
0.000521864
0.000328797
0.000508324
0.000342335
0.000342335
0.000328799
0.000300472
0.000110275
0.000287138
0.00028714
0.000123998
0.000123998
0.000300483
0.000110279
0.000287134
0.000287134
0.000123989
0.000123988
0.000287137
0.000123993
0.00012399
0.000300473
0.000110271
0.000287134
0.000123988
0.000123986
0.00011027
8.81502e-05
8.86824e-05
8.86786e-05
8.81548e-05
8.86789e-05
8.86693e-05
8.36466e-05
8.36408e-05
8.36421e-05
8.86771e-05
8.81435e-05
8.86756e-05
0.0209562
0.020991
0.0209722
0.0209722
0.0210477
0.0210048
0.0211095
0.0209835
0.0210476
0.0210048
0.0209835
0.0211094
0.0210203
0.0211291
0.0211291
0.0208183
0.0209383
0.0209242
0.0208194
0.0208221
0.0208156
0.0208183
0.0209383
0.0209242
0.0208194
0.0208796
0.0208796
0.0208796
0.0207166
0.0207166
0.0207166
0.0207166
0.020813
0.0209199
0.0208831
0.0208269
0.0208893
0.0208173
0.0208267
0.0208222
0.0208156
0.020813
0.0208831
0.0209198
0.0208269
0.0208893
0.0208267
0.0208173
0.0209209
0.0209209
0.0208136
0.0208155
0.0208155
0.0205925
0.0206758
0.0206758
0.0205924
0.0206756
0.0205925
0.0205924
0.0206758
0.0206758
0.0205924
0.0206614
0.0206614
0.0206614
0.0204954
0.0204954
0.0204954
0.0204954
0.0205929
0.0206751
0.0206614
0.0206061
0.020675
0.0205929
0.0206061
0.0206756
0.0205925
0.0205929
0.0206614
0.0206751
0.0206061
0.020675
0.0206061
0.0205929
0.0206755
0.0206755
0.0205926
0.0205924
0.0205924
0.0203708
0.0204539
0.0204539
0.0203708
0.0204538
0.0203709
0.0203708
0.0204539
0.0204539
0.0203708
0.02044
0.02044
0.02044
0.020274
0.020274
0.020274
0.020274
0.0203714
0.0204533
0.02044
0.0203846
0.0204533
0.0203714
0.0203846
0.0204538
0.0203709
0.0203714
0.02044
0.0204533
0.0203846
0.0204533
0.0203846
0.0203713
0.0204538
0.0204538
0.0203711
0.0203709
0.0203709
0.0201494
0.0202324
0.0202324
0.0201494
0.0202323
0.0201494
0.0201494
0.0202324
0.0202324
0.0201494
0.0202186
0.0202186
0.0202186
0.0200525
0.0200525
0.0200525
0.0200525
0.0201499
0.0202319
0.0202185
0.0201631
0.0202319
0.0201499
0.0201632
0.0202323
0.0201494
0.0201499
0.0202185
0.0202319
0.0201631
0.0202319
0.0201632
0.0201499
0.0202323
0.0202323
0.0201497
0.0201494
0.0201494
0.0199279
0.0200109
0.0200109
0.0199279
0.0200109
0.0199279
0.0199279
0.0200109
0.0200109
0.0199279
0.0199971
0.0199971
0.0199971
0.019831
0.019831
0.019831
0.019831
0.0199285
0.0200104
0.0199971
0.0199417
0.0200104
0.0199284
0.0199417
0.0200109
0.019928
0.0199285
0.0199971
0.0200104
0.0199417
0.0200104
0.0199417
0.0199284
0.0200109
0.0200109
0.0199282
0.019928
0.019928
0.0197065
0.0197894
0.0197895
0.0197065
0.0197894
0.0197065
0.0197065
0.0197895
0.0197895
0.0197065
0.0197757
0.0197757
0.0197757
0.0196096
0.0196096
0.0196096
0.0196096
0.019707
0.0197889
0.0197756
0.0197202
0.0197889
0.019707
0.0197202
0.0197894
0.0197065
0.019707
0.0197756
0.0197889
0.0197202
0.0197889
0.0197202
0.019707
0.0197894
0.0197894
0.0197067
0.0197065
0.0197065
0.019485
0.019568
0.019568
0.019485
0.019568
0.019485
0.019485
0.019568
0.019568
0.019485
0.0195542
0.0195542
0.0195542
0.0193881
0.0193881
0.0193881
0.0193881
0.0194855
0.0195675
0.0195541
0.0194988
0.0195675
0.0194855
0.0194988
0.019568
0.019485
0.0194855
0.0195541
0.0195675
0.0194988
0.0195675
0.0194988
0.0194855
0.019568
0.019568
0.0194853
0.019485
0.019485
0.0192635
0.0193465
0.0193465
0.0192635
0.0193465
0.0192636
0.0192635
0.0193465
0.0193465
0.0192635
0.0193328
0.0193328
0.0193328
0.0191667
0.0191667
0.0191667
0.0191667
0.0192641
0.019346
0.0193327
0.0192773
0.019346
0.019264
0.0192773
0.0193465
0.0192636
0.0192641
0.0193327
0.019346
0.0192773
0.019346
0.0192773
0.019264
0.0193465
0.0193465
0.0192638
0.0192636
0.0192636
0.0190421
0.0191251
0.0191251
0.0190421
0.019125
0.0190421
0.0190421
0.0191251
0.0191251
0.0190421
0.0191113
0.0191113
0.0191113
0.0189452
0.0189452
0.0189452
0.0189452
0.0190426
0.0191246
0.0191112
0.0190558
0.0191246
0.0190426
0.0190559
0.019125
0.0190421
0.0190426
0.0191112
0.0191246
0.0190558
0.0191246
0.0190559
0.0190426
0.019125
0.019125
0.0190424
0.0190421
0.0190421
0.0188206
0.0189036
0.0189036
0.0188206
0.0189036
0.0188207
0.0188206
0.0189036
0.0189036
0.0188206
0.0188898
0.0188898
0.0188898
0.0187238
0.0187238
0.0187238
0.0187238
0.0188212
0.0189031
0.0188898
0.0188344
0.0189031
0.0188211
0.0188344
0.0189036
0.0188207
0.0188212
0.0188898
0.0189031
0.0188344
0.0189031
0.0188344
0.0188211
0.0189036
0.0189036
0.0188209
0.0188207
0.0188207
0.0185992
0.0186822
0.0186822
0.0185992
0.0186821
0.0185992
0.0185992
0.0186822
0.0186822
0.0185992
0.0186684
0.0186684
0.0186684
0.0185023
0.0185023
0.0185023
0.0185023
0.0185997
0.0186816
0.0186683
0.0186129
0.0186816
0.0185997
0.018613
0.0186821
0.0185992
0.0185997
0.0186683
0.0186816
0.0186129
0.0186816
0.018613
0.0185997
0.0186821
0.0186821
0.0185994
0.0185992
0.0185992
0.0183777
0.0184607
0.0184607
0.0183777
0.0184607
0.0183777
0.0183777
0.0184607
0.0184607
0.0183777