/*--------------------------------*- C++ -*----------------------------------*\
| =========                 |                                                 |
| \\      /  F ield         | OpenFOAM: The Open Source CFD Toolbox           |
|  \\    /   O peration     | Version:  v1906                                 |
|   \\  /    A nd           | Web:      www.OpenFOAM.com                      |
|    \\/     M anipulation  |                                                 |
\*---------------------------------------------------------------------------*/
FoamFile
{
    version     2.0;
    format      ascii;
    class       volScalarField;
    location    "0.12";
    object      p;
}
// * * * * * * * * * * * * * * * * * * * * * * * * * * * * * * * * * * * * * //

dimensions      [0 2 -2 0 0 0 0];


internalField   nonuniform List<scalar> 
247104
(
6.62876e-10
2.90714e-09
2.81294e-09
2.53781e-09
2.22715e-09
2.58621e-09
2.82809e-09
2.82248e-09
2.9171e-09
2.98595e-09
3.0057e-09
2.74617e-09
2.57028e-09
2.78251e-09
3.02023e-09
2.95354e-09
2.87074e-09
3.03156e-09
2.74574e-09
2.33556e-09
2.16377e-09
2.3787e-09
2.79442e-09
3.03393e-09
2.82581e-09
2.64856e-09
2.79922e-09
2.35649e-09
1.86885e-09
1.68682e-09
1.91695e-09
2.42267e-09
2.82289e-09
2.57744e-09
2.21799e-09
2.3929e-09
2.64062e-09
2.19804e-09
1.7003e-09
1.51699e-09
1.74933e-09
2.26649e-09
2.66071e-09
2.30697e-09
2.70335e-09
2.84838e-09
2.41714e-09
1.93777e-09
1.75794e-09
1.98572e-09
2.48272e-09
2.87218e-09
2.63672e-09
2.89896e-09
3.07291e-09
2.83103e-09
2.4464e-09
2.28025e-09
2.48874e-09
2.87687e-09
3.07356e-09
2.86506e-09
2.8756e-09
2.99639e-09
3.06685e-09
2.84695e-09
2.67757e-09
2.88255e-09
3.07812e-09
2.96204e-09
2.85452e-09
2.60043e-09
2.32665e-09
2.65088e-09
2.87299e-09
-3.14967e-08
-3.36388e-08
-3.32378e-08
-3.44121e-08
-3.49084e-08
-3.49072e-08
-3.49599e-08
-3.28728e-08
-3.26717e-08
-3.32447e-08
-3.54299e-08
-3.88024e-08
-3.90233e-08
-3.90243e-08
-3.88027e-08
-3.50357e-08
-3.47989e-08
-3.44053e-08
-3.88018e-08
-3.89073e-08
-3.89081e-08
-3.89083e-08
-3.89075e-08
-3.87999e-08
-3.4479e-08
-3.33807e-08
-3.14857e-08
-3.49109e-08
-3.90189e-08
-3.89052e-08
-3.87839e-08
-3.87842e-08
-3.8906e-08
-3.90191e-08
-3.48282e-08
-3.27452e-08
-3.35869e-08
-3.48923e-08
-3.9016e-08
-3.89025e-08
-3.87813e-08
-3.87818e-08
-3.89037e-08
-3.90165e-08
-3.47191e-08
-3.51347e-08
-3.4933e-08
-3.87933e-08
-3.88998e-08
-3.89006e-08
-3.89014e-08
-3.89014e-08
-3.87946e-08
-3.47458e-08
-3.38103e-08
-3.28634e-08
-3.5021e-08
-3.87916e-08
-3.90121e-08
-3.90145e-08
-3.87958e-08
-3.50402e-08
-3.45136e-08
-3.28217e-08
-3.26341e-08
-3.47792e-08
-3.44595e-08
-3.48111e-08
-3.47127e-08
-3.47465e-08
-3.4516e-08
-3.15856e-08
-3.33603e-08
-3.27246e-08
-3.5124e-08
-3.38121e-08
-3.28237e-08
-5.16043e-08
-5.18095e-08
-5.20047e-08
-5.42365e-08
-5.42613e-08
-5.42542e-08
-5.42401e-08
-5.17274e-08
-5.16758e-08
-5.19913e-08
-5.48119e-08
-5.80115e-08
-5.82383e-08
-5.82406e-08
-5.80184e-08
-5.38255e-08
-5.37681e-08
-5.42349e-08
-5.80185e-08
-5.85313e-08
-5.85589e-08
-5.85602e-08
-5.85346e-08
-5.80173e-08
-5.30804e-08
-5.11413e-08
-5.1601e-08
-5.42588e-08
-5.82392e-08
-5.85597e-08
-5.85629e-08
-5.85635e-08
-5.85612e-08
-5.82405e-08
-5.31622e-08
-5.16747e-08
-5.18047e-08
-5.42515e-08
-5.82388e-08
-5.85596e-08
-5.85627e-08
-5.8563e-08
-5.85596e-08
-5.82389e-08
-5.32891e-08
-5.39065e-08
-5.42391e-08
-5.80145e-08
-5.85302e-08
-5.85588e-08
-5.85594e-08
-5.85309e-08
-5.80139e-08
-5.30564e-08
-5.12351e-08
-5.17287e-08
-5.38225e-08
-5.8012e-08
-5.82376e-08
-5.82412e-08
-5.80135e-08
-5.33278e-08
-5.3373e-08
-5.12897e-08
-5.16745e-08
-5.37694e-08
-5.30795e-08
-5.3161e-08
-5.3288e-08
-5.30546e-08
-5.33699e-08
-5.11596e-08
-5.11425e-08
-5.16694e-08
-5.39054e-08
-5.12285e-08
-5.12825e-08
-7.1838e-08
-7.20037e-08
-7.20399e-08
-7.44397e-08
-7.44304e-08
-7.45441e-08
-7.43463e-08
-7.17948e-08
-7.17445e-08
-7.20387e-08
-7.5372e-08
-7.83413e-08
-7.84181e-08
-7.84188e-08
-7.83397e-08
-7.40957e-08
-7.37042e-08
-7.44431e-08
-7.8341e-08
-7.85346e-08
-7.8545e-08
-7.85448e-08
-7.85327e-08
-7.83397e-08
-7.30931e-08
-7.12871e-08
-7.18384e-08
-7.44288e-08
-7.84198e-08
-7.85468e-08
-7.85522e-08
-7.85516e-08
-7.85442e-08
-7.84154e-08
-7.2991e-08
-7.1912e-08
-7.20065e-08
-7.45436e-08
-7.84208e-08
-7.85471e-08
-7.85528e-08
-7.85522e-08
-7.85447e-08
-7.84178e-08
-7.30796e-08
-7.39455e-08
-7.43521e-08
-7.83431e-08
-7.85357e-08
-7.85469e-08
-7.85468e-08
-7.85342e-08
-7.83409e-08
-7.29754e-08
-7.14733e-08
-7.17979e-08
-7.41044e-08
-7.83452e-08
-7.84205e-08
-7.84207e-08
-7.83387e-08
-7.31018e-08
-7.33523e-08
-7.13551e-08
-7.17424e-08
-7.37373e-08
-7.31007e-08
-7.29962e-08
-7.30823e-08
-7.2977e-08
-7.33523e-08
-7.14369e-08
-7.12924e-08
-7.19175e-08
-7.39467e-08
-7.14705e-08
-7.13527e-08
-9.19803e-08
-9.21298e-08
-9.22819e-08
-9.47255e-08
-9.47196e-08
-9.49163e-08
-9.46193e-08
-9.20299e-08
-9.19429e-08
-9.22854e-08
-9.58924e-08
-9.87332e-08
-9.87546e-08
-9.87544e-08
-9.8734e-08
-9.45238e-08
-9.38992e-08
-9.47275e-08
-9.87363e-08
-9.87855e-08
-9.8788e-08
-9.8788e-08
-9.87851e-08
-9.87331e-08
-9.32581e-08
-9.1448e-08
-9.19749e-08
-9.47214e-08
-9.87556e-08
-9.87885e-08
-9.87893e-08
-9.87891e-08
-9.87876e-08
-9.87551e-08
-9.30101e-08
-9.19986e-08
-9.21337e-08
-9.49183e-08
-9.87557e-08
-9.87888e-08
-9.87895e-08
-9.87892e-08
-9.87877e-08
-9.87544e-08
-9.30794e-08
-9.39936e-08
-9.46219e-08
-9.87355e-08
-9.87862e-08
-9.87886e-08
-9.87884e-08
-9.87851e-08
-9.87337e-08
-9.30727e-08
-9.15698e-08
-9.20341e-08
-9.45255e-08
-9.8734e-08
-9.87561e-08
-9.87562e-08
-9.87346e-08
-9.31603e-08
-9.35107e-08
-9.15369e-08
-9.1954e-08
-9.39033e-08
-9.32618e-08
-9.30149e-08
-9.30821e-08
-9.30738e-08
-9.35103e-08
-9.15997e-08
-9.14542e-08
-9.2005e-08
-9.39961e-08
-9.15656e-08
-9.15329e-08
-1.12226e-07
-1.12371e-07
-1.12568e-07
-1.15026e-07
-1.15013e-07
-1.15256e-07
-1.14916e-07
-1.12316e-07
-1.12233e-07
-1.1257e-07
-1.16249e-07
-1.1907e-07
-1.19075e-07
-1.19075e-07
-1.19069e-07
-1.1488e-07
-1.14174e-07
-1.15029e-07
-1.19068e-07
-1.19082e-07
-1.19082e-07
-1.19082e-07
-1.19081e-07
-1.19067e-07
-1.13523e-07
-1.11712e-07
-1.12221e-07
-1.15015e-07
-1.19076e-07
-1.19083e-07
-1.19082e-07
-1.19082e-07
-1.19082e-07
-1.19074e-07
-1.13233e-07
-1.12222e-07
-1.1237e-07
-1.15262e-07
-1.19076e-07
-1.19083e-07
-1.19082e-07
-1.19082e-07
-1.19082e-07
-1.19073e-07
-1.1329e-07
-1.14207e-07
-1.14916e-07
-1.19069e-07
-1.19082e-07
-1.19082e-07
-1.19082e-07
-1.19082e-07
-1.19069e-07
-1.13316e-07
-1.118e-07
-1.12316e-07
-1.14888e-07
-1.19069e-07
-1.19075e-07
-1.19075e-07
-1.19069e-07
-1.13379e-07
-1.13767e-07
-1.11806e-07
-1.12235e-07
-1.14173e-07
-1.13524e-07
-1.13223e-07
-1.13287e-07
-1.13314e-07
-1.13769e-07
-1.11882e-07
-1.11711e-07
-1.12217e-07
-1.14203e-07
-1.11795e-07
-1.11804e-07
-1.32517e-07
-1.32658e-07
-1.32872e-07
-1.35333e-07
-1.3532e-07
-1.35575e-07
-1.35223e-07
-1.32619e-07
-1.32537e-07
-1.3287e-07
-1.36569e-07
-1.39385e-07
-1.39387e-07
-1.39387e-07
-1.39383e-07
-1.35205e-07
-1.3447e-07
-1.35339e-07
-1.39386e-07
-1.39388e-07
-1.39388e-07
-1.39388e-07
-1.39387e-07
-1.39383e-07
-1.33822e-07
-1.32006e-07
-1.32512e-07
-1.35316e-07
-1.39385e-07
-1.39387e-07
-1.39387e-07
-1.39387e-07
-1.39387e-07
-1.39385e-07
-1.3351e-07
-1.32506e-07
-1.32658e-07
-1.35574e-07
-1.39385e-07
-1.39387e-07
-1.39387e-07
-1.39387e-07
-1.39387e-07
-1.39386e-07
-1.33565e-07
-1.34486e-07
-1.35224e-07
-1.39386e-07
-1.39388e-07
-1.39388e-07
-1.39388e-07
-1.39387e-07
-1.39383e-07
-1.33612e-07
-1.32087e-07
-1.32619e-07
-1.35212e-07
-1.39386e-07
-1.39386e-07
-1.39387e-07
-1.39384e-07
-1.33659e-07
-1.3406e-07
-1.32101e-07
-1.32539e-07
-1.34474e-07
-1.33823e-07
-1.33505e-07
-1.33568e-07
-1.33608e-07
-1.34063e-07
-1.32183e-07
-1.32011e-07
-1.32504e-07
-1.34487e-07
-1.32089e-07
-1.321e-07
-1.5282e-07
-1.5296e-07
-1.53178e-07
-1.55639e-07
-1.55626e-07
-1.55882e-07
-1.55529e-07
-1.52925e-07
-1.52843e-07
-1.53175e-07
-1.56881e-07
-1.59694e-07
-1.59695e-07
-1.59695e-07
-1.59693e-07
-1.55516e-07
-1.54773e-07
-1.55645e-07
-1.59695e-07
-1.59696e-07
-1.59695e-07
-1.59695e-07
-1.59695e-07
-1.59694e-07
-1.54129e-07
-1.52311e-07
-1.52813e-07
-1.55622e-07
-1.59694e-07
-1.59695e-07
-1.59695e-07
-1.59694e-07
-1.59695e-07
-1.59694e-07
-1.5381e-07
-1.5281e-07
-1.52959e-07
-1.55879e-07
-1.59694e-07
-1.59695e-07
-1.59695e-07
-1.59695e-07
-1.59695e-07
-1.59695e-07
-1.53865e-07
-1.54787e-07
-1.55535e-07
-1.59695e-07
-1.59696e-07
-1.59695e-07
-1.59695e-07
-1.59695e-07
-1.59694e-07
-1.53916e-07
-1.5239e-07
-1.52929e-07
-1.5552e-07
-1.59694e-07
-1.59696e-07
-1.59694e-07
-1.59694e-07
-1.53962e-07
-1.54369e-07
-1.52407e-07
-1.52848e-07
-1.54777e-07
-1.54128e-07
-1.5381e-07
-1.53863e-07
-1.53922e-07
-1.54368e-07
-1.52488e-07
-1.52314e-07
-1.52806e-07
-1.54787e-07
-1.52392e-07
-1.52404e-07
-1.73124e-07
-1.73264e-07
-1.73484e-07
-1.75947e-07
-1.75931e-07
-1.76189e-07
-1.7584e-07
-1.73233e-07
-1.73151e-07
-1.7348e-07
-1.77187e-07
-1.80002e-07
-1.80003e-07
-1.80003e-07
-1.80002e-07
-1.75828e-07
-1.7508e-07
-1.75951e-07
-1.80002e-07
-1.80003e-07
-1.80002e-07
-1.80002e-07
-1.80002e-07
-1.80002e-07
-1.74433e-07
-1.72618e-07
-1.73119e-07
-1.75931e-07
-1.80002e-07
-1.80002e-07
-1.80002e-07
-1.80002e-07
-1.80002e-07
-1.80002e-07
-1.74117e-07
-1.73115e-07
-1.73265e-07
-1.7619e-07
-1.80002e-07
-1.80002e-07
-1.80002e-07
-1.80002e-07
-1.80002e-07
-1.80002e-07
-1.74171e-07
-1.75094e-07
-1.75838e-07
-1.80002e-07
-1.80002e-07
-1.80002e-07
-1.80002e-07
-1.80002e-07
-1.80002e-07
-1.74221e-07
-1.72696e-07
-1.73232e-07
-1.75831e-07
-1.80002e-07
-1.80002e-07
-1.80001e-07
-1.80002e-07
-1.74263e-07
-1.7467e-07
-1.72713e-07
-1.73153e-07
-1.75085e-07
-1.74436e-07
-1.74117e-07
-1.7417e-07
-1.74225e-07
-1.74673e-07
-1.72793e-07
-1.72621e-07
-1.73113e-07
-1.75092e-07
-1.72697e-07
-1.7271e-07
-1.93432e-07
-1.93572e-07
-1.93792e-07
-1.96253e-07
-1.96238e-07
-1.96496e-07
-1.96147e-07
-1.93541e-07
-1.93459e-07
-1.93788e-07
-1.97494e-07
-2.0031e-07
-2.0031e-07
-2.0031e-07
-2.0031e-07
-1.96138e-07
-1.95388e-07
-1.96258e-07
-2.00309e-07
-2.00311e-07
-2.0031e-07
-2.0031e-07
-2.0031e-07
-2.0031e-07
-1.9474e-07
-1.92926e-07
-1.93426e-07
-1.96239e-07
-2.00309e-07
-2.00311e-07
-2.0031e-07
-2.0031e-07
-2.0031e-07
-2.0031e-07
-1.94425e-07
-1.93422e-07
-1.93572e-07
-1.96501e-07
-2.00309e-07
-2.0031e-07
-2.0031e-07
-2.0031e-07
-2.0031e-07
-2.0031e-07
-1.94479e-07
-1.95402e-07
-1.96146e-07
-2.0031e-07
-2.00311e-07
-2.0031e-07
-2.0031e-07
-2.0031e-07
-2.0031e-07
-1.94529e-07
-1.93004e-07
-1.9354e-07
-1.96139e-07
-2.0031e-07
-2.0031e-07
-2.0031e-07
-2.0031e-07
-1.94571e-07
-1.94978e-07
-1.9302e-07
-1.93461e-07
-1.95392e-07
-1.94741e-07
-1.94422e-07
-1.94473e-07
-1.94535e-07
-1.94981e-07
-1.93101e-07
-1.92927e-07
-1.93419e-07
-1.95396e-07
-1.93003e-07
-1.93017e-07
-2.1374e-07
-2.1388e-07
-2.14101e-07
-2.16566e-07
-2.16547e-07
-2.16804e-07
-2.16455e-07
-2.13846e-07
-2.13766e-07
-2.14096e-07
-2.17802e-07
-2.20619e-07
-2.20618e-07
-2.20618e-07
-2.20618e-07
-2.16445e-07
-2.15696e-07
-2.16567e-07
-2.20619e-07
-2.20619e-07
-2.20619e-07
-2.20619e-07
-2.20618e-07
-2.20618e-07
-2.15048e-07
-2.13234e-07
-2.13734e-07
-2.16547e-07
-2.20618e-07
-2.20619e-07
-2.20618e-07
-2.20618e-07
-2.20618e-07
-2.20618e-07
-2.14733e-07
-2.13731e-07
-2.1388e-07
-2.16809e-07
-2.20619e-07
-2.20619e-07
-2.20618e-07
-2.20618e-07
-2.20618e-07
-2.20618e-07
-2.14787e-07
-2.1571e-07
-2.16454e-07
-2.20619e-07
-2.20619e-07
-2.20618e-07
-2.20618e-07
-2.20618e-07
-2.20618e-07
-2.14837e-07
-2.13312e-07
-2.13848e-07
-2.16447e-07
-2.20618e-07
-2.20618e-07
-2.20618e-07
-2.20618e-07
-2.1488e-07
-2.15287e-07
-2.13329e-07
-2.13769e-07
-2.157e-07
-2.15049e-07
-2.14729e-07
-2.14781e-07
-2.14846e-07
-2.1529e-07
-2.13409e-07
-2.13235e-07
-2.13726e-07
-2.15704e-07
-2.13312e-07
-2.13326e-07
-2.34048e-07
-2.34187e-07
-2.34416e-07
-2.36871e-07
-2.36855e-07
-2.37113e-07
-2.36764e-07
-2.34153e-07
-2.34074e-07
-2.34405e-07
-2.38115e-07
-2.40927e-07
-2.40927e-07
-2.40926e-07
-2.40926e-07
-2.36752e-07
-2.36004e-07
-2.36875e-07
-2.40927e-07
-2.40927e-07
-2.40927e-07
-2.40927e-07
-2.40927e-07
-2.40926e-07
-2.35357e-07
-2.33542e-07
-2.34042e-07
-2.36856e-07
-2.40927e-07
-2.40927e-07
-2.40927e-07
-2.40927e-07
-2.40927e-07
-2.40927e-07
-2.35041e-07
-2.34039e-07
-2.34188e-07
-2.37117e-07
-2.40927e-07
-2.40927e-07
-2.40927e-07
-2.40927e-07
-2.40927e-07
-2.40927e-07
-2.35095e-07
-2.36018e-07
-2.36763e-07
-2.40927e-07
-2.40927e-07
-2.40927e-07
-2.40927e-07
-2.40927e-07
-2.40927e-07
-2.35145e-07
-2.3362e-07
-2.34157e-07
-2.36756e-07
-2.40927e-07
-2.40926e-07
-2.40926e-07
-2.40926e-07
-2.35188e-07
-2.35595e-07
-2.33637e-07
-2.34077e-07
-2.36009e-07
-2.35357e-07
-2.35038e-07
-2.35089e-07
-2.35153e-07
-2.35598e-07
-2.33717e-07
-2.33544e-07
-2.34035e-07
-2.36012e-07
-2.3362e-07
-2.33634e-07
-2.54357e-07
-2.54496e-07
-2.54725e-07
-2.5718e-07
-2.57164e-07
-2.57422e-07
-2.57073e-07
-2.54462e-07
-2.54388e-07
-2.54714e-07
-2.58422e-07
-2.61236e-07
-2.61236e-07
-2.61236e-07
-2.61237e-07
-2.5706e-07
-2.56315e-07
-2.57184e-07
-2.61236e-07
-2.61236e-07
-2.61236e-07
-2.61235e-07
-2.61236e-07
-2.61236e-07
-2.55666e-07
-2.53851e-07
-2.54351e-07
-2.57165e-07
-2.61236e-07
-2.61236e-07
-2.61236e-07
-2.61236e-07
-2.61236e-07
-2.61236e-07
-2.5535e-07
-2.54348e-07
-2.54497e-07
-2.57426e-07
-2.61236e-07
-2.61236e-07
-2.61236e-07
-2.61236e-07
-2.61236e-07
-2.61236e-07
-2.55404e-07
-2.56328e-07
-2.57072e-07
-2.61236e-07
-2.61236e-07
-2.61236e-07
-2.61236e-07
-2.61236e-07
-2.61236e-07
-2.55455e-07
-2.53929e-07
-2.54465e-07
-2.57066e-07
-2.61236e-07
-2.61236e-07
-2.61236e-07
-2.61236e-07
-2.55497e-07
-2.55904e-07
-2.53946e-07
-2.54386e-07
-2.56318e-07
-2.55666e-07
-2.55347e-07
-2.55397e-07
-2.55464e-07
-2.55907e-07
-2.54027e-07
-2.53853e-07
-2.54344e-07
-2.56321e-07
-2.53929e-07
-2.53943e-07
-2.74667e-07
-2.74807e-07
-2.75035e-07
-2.7749e-07
-2.77475e-07
-2.77734e-07
-2.7738e-07
-2.74773e-07
-2.74697e-07
-2.75024e-07
-2.78732e-07
-2.81546e-07
-2.81546e-07
-2.81546e-07
-2.81546e-07
-2.77369e-07
-2.76624e-07
-2.77494e-07
-2.81546e-07
-2.81546e-07
-2.81546e-07
-2.81546e-07
-2.81546e-07
-2.81546e-07
-2.75976e-07
-2.74161e-07
-2.74661e-07
-2.77475e-07
-2.81546e-07
-2.81546e-07
-2.81546e-07
-2.81546e-07
-2.81546e-07
-2.81546e-07
-2.7566e-07
-2.74658e-07
-2.74807e-07
-2.77736e-07
-2.81546e-07
-2.81546e-07
-2.81546e-07
-2.81546e-07
-2.81546e-07
-2.81546e-07
-2.75714e-07
-2.76638e-07
-2.77382e-07
-2.81546e-07
-2.81546e-07
-2.81546e-07
-2.81546e-07
-2.81546e-07
-2.81546e-07
-2.75765e-07
-2.74239e-07
-2.74775e-07
-2.77375e-07
-2.81546e-07
-2.81546e-07
-2.81546e-07
-2.81546e-07
-2.75807e-07
-2.76214e-07
-2.74256e-07
-2.74696e-07
-2.76628e-07
-2.75976e-07
-2.75657e-07
-2.75707e-07
-2.75774e-07
-2.76217e-07
-2.74337e-07
-2.74162e-07
-2.74653e-07
-2.76631e-07
-2.74239e-07
-2.74253e-07
-2.94978e-07
-2.95118e-07
-2.95345e-07
-2.978e-07
-2.97785e-07
-2.98044e-07
-2.97689e-07
-2.95083e-07
-2.95008e-07
-2.95334e-07
-2.99043e-07
-3.01856e-07
-3.01856e-07
-3.01856e-07
-3.01856e-07
-2.97679e-07
-2.96935e-07
-2.97804e-07
-3.01856e-07
-3.01856e-07
-3.01856e-07
-3.01856e-07
-3.01856e-07
-3.01856e-07
-2.96286e-07
-2.94471e-07
-2.94971e-07
-2.97785e-07
-3.01856e-07
-3.01856e-07
-3.01856e-07
-3.01856e-07
-3.01856e-07
-3.01856e-07
-2.9597e-07
-2.94968e-07
-2.95117e-07
-2.98047e-07
-3.01856e-07
-3.01856e-07
-3.01856e-07
-3.01856e-07
-3.01856e-07
-3.01856e-07
-2.96024e-07
-2.96948e-07
-2.97692e-07
-3.01856e-07
-3.01856e-07
-3.01856e-07
-3.01856e-07
-3.01856e-07
-3.01856e-07
-2.96075e-07
-2.9455e-07
-2.95086e-07
-2.97686e-07
-3.01856e-07
-3.01856e-07
-3.01856e-07
-3.01856e-07
-2.96117e-07
-2.96524e-07
-2.94566e-07
-2.95006e-07
-2.96938e-07
-2.96286e-07
-2.95967e-07
-2.96017e-07
-2.96083e-07
-2.96527e-07
-2.94647e-07
-2.94473e-07
-2.94964e-07
-2.96941e-07
-2.94548e-07
-2.94563e-07
-3.15288e-07
-3.15428e-07
-3.15655e-07
-3.1811e-07
-3.18095e-07
-3.18355e-07
-3.17999e-07
-3.15393e-07
-3.15318e-07
-3.15644e-07
-3.19353e-07
-3.22167e-07
-3.22166e-07
-3.22167e-07
-3.22166e-07
-3.1799e-07
-3.17245e-07
-3.18114e-07
-3.22166e-07
-3.22166e-07
-3.22166e-07
-3.22166e-07
-3.22166e-07
-3.22166e-07
-3.16596e-07
-3.14781e-07
-3.15281e-07
-3.18095e-07
-3.22166e-07
-3.22166e-07
-3.22166e-07
-3.22166e-07
-3.22166e-07
-3.22166e-07
-3.1628e-07
-3.15278e-07
-3.15428e-07
-3.18357e-07
-3.22166e-07
-3.22166e-07
-3.22166e-07
-3.22166e-07
-3.22166e-07
-3.22166e-07
-3.16334e-07
-3.17258e-07
-3.18002e-07
-3.22166e-07
-3.22166e-07
-3.22166e-07
-3.22166e-07
-3.22166e-07
-3.22166e-07
-3.16385e-07
-3.1486e-07
-3.15396e-07
-3.17996e-07
-3.22166e-07
-3.22166e-07
-3.22167e-07
-3.22166e-07
-3.16427e-07
-3.16834e-07
-3.14876e-07
-3.15316e-07
-3.17248e-07
-3.16597e-07
-3.16278e-07
-3.1633e-07
-3.1639e-07
-3.16837e-07
-3.14957e-07
-3.14783e-07
-3.15274e-07
-3.17256e-07
-3.14858e-07
-3.14872e-07
-3.35598e-07
-3.35738e-07
-3.35963e-07
-3.38418e-07
-3.38405e-07
-3.38665e-07
-3.38309e-07
-3.35704e-07
-3.35629e-07
-3.35955e-07
-3.39663e-07
-3.42476e-07
-3.42477e-07
-3.42477e-07
-3.42476e-07
-3.383e-07
-3.37555e-07
-3.38424e-07
-3.42476e-07
-3.42476e-07
-3.42476e-07
-3.42476e-07
-3.42476e-07
-3.42476e-07
-3.36906e-07
-3.35091e-07
-3.35591e-07
-3.38405e-07
-3.42476e-07
-3.42476e-07
-3.42476e-07
-3.42476e-07
-3.42476e-07
-3.42476e-07
-3.3659e-07
-3.35588e-07
-3.35737e-07
-3.38667e-07
-3.42476e-07
-3.42476e-07
-3.42476e-07
-3.42476e-07
-3.42476e-07
-3.42476e-07
-3.36644e-07
-3.37568e-07
-3.38312e-07
-3.42476e-07
-3.42476e-07
-3.42476e-07
-3.42476e-07
-3.42476e-07
-3.42476e-07
-3.36695e-07
-3.3517e-07
-3.35706e-07
-3.38306e-07
-3.42476e-07
-3.42476e-07
-3.42476e-07
-3.42476e-07
-3.36738e-07
-3.37144e-07
-3.35186e-07
-3.35626e-07
-3.37558e-07
-3.36906e-07
-3.36587e-07
-3.36638e-07
-3.36701e-07
-3.37147e-07
-3.35267e-07
-3.35093e-07
-3.35584e-07
-3.37561e-07
-3.35168e-07
-3.35183e-07
-3.55909e-07
-3.56048e-07
-3.56276e-07
-3.5873e-07
-3.58716e-07
-3.58975e-07
-3.5862e-07
-3.56015e-07
-3.5594e-07
-3.56265e-07
-3.59974e-07
-3.62787e-07
-3.62788e-07
-3.62787e-07
-3.62787e-07
-3.58609e-07
-3.57866e-07
-3.58735e-07
-3.62787e-07
-3.62787e-07
-3.62787e-07
-3.62787e-07
-3.62787e-07
-3.62787e-07
-3.57217e-07
-3.55402e-07
-3.55902e-07
-3.58716e-07
-3.62787e-07
-3.62787e-07
-3.62787e-07
-3.62787e-07
-3.62787e-07
-3.62787e-07
-3.56901e-07
-3.55899e-07
-3.56048e-07
-3.58977e-07
-3.62787e-07
-3.62787e-07
-3.62787e-07
-3.62787e-07
-3.62787e-07
-3.62787e-07
-3.56955e-07
-3.57879e-07
-3.58623e-07
-3.62787e-07
-3.62787e-07
-3.62787e-07
-3.62787e-07
-3.62787e-07
-3.62787e-07
-3.57006e-07
-3.5548e-07
-3.56016e-07
-3.58616e-07
-3.62787e-07
-3.62787e-07
-3.62787e-07
-3.62788e-07
-3.57049e-07
-3.57455e-07
-3.55497e-07
-3.55937e-07
-3.57868e-07
-3.57217e-07
-3.56898e-07
-3.56949e-07
-3.57013e-07
-3.57458e-07
-3.55578e-07
-3.55403e-07
-3.55895e-07
-3.57873e-07
-3.55479e-07
-3.55494e-07
-3.76221e-07
-3.7636e-07
-3.76586e-07
-3.79041e-07
-3.79027e-07
-3.79286e-07
-3.78931e-07
-3.76325e-07
-3.7625e-07
-3.76576e-07
-3.80285e-07
-3.83098e-07
-3.83098e-07
-3.83098e-07
-3.83098e-07
-3.7892e-07
-3.78176e-07
-3.79046e-07
-3.83098e-07
-3.83098e-07
-3.83098e-07
-3.83098e-07
-3.83098e-07
-3.83098e-07
-3.77528e-07
-3.75713e-07
-3.76213e-07
-3.79027e-07
-3.83098e-07
-3.83098e-07
-3.83098e-07
-3.83098e-07
-3.83098e-07
-3.83098e-07
-3.77212e-07
-3.7621e-07
-3.76359e-07
-3.79288e-07
-3.83098e-07
-3.83098e-07
-3.83098e-07
-3.83098e-07
-3.83098e-07
-3.83098e-07
-3.77266e-07
-3.78189e-07
-3.78933e-07
-3.83098e-07
-3.83098e-07
-3.83098e-07
-3.83098e-07
-3.83098e-07
-3.83098e-07
-3.77317e-07
-3.75791e-07
-3.76327e-07
-3.78927e-07
-3.83098e-07
-3.83098e-07
-3.83098e-07
-3.83098e-07
-3.7736e-07
-3.77766e-07
-3.75808e-07
-3.76248e-07
-3.7818e-07
-3.77529e-07
-3.7721e-07
-3.77262e-07
-3.77321e-07
-3.77768e-07
-3.75889e-07
-3.75715e-07
-3.76206e-07
-3.78185e-07
-3.7579e-07
-3.75804e-07
-3.9653e-07
-3.9667e-07
-3.96896e-07
-3.99352e-07
-3.99337e-07
-3.99596e-07
-3.99241e-07
-3.96636e-07
-3.9656e-07
-3.96886e-07
-4.00595e-07
-4.03408e-07
-4.03408e-07
-4.03408e-07
-4.03408e-07
-3.99231e-07
-3.98486e-07
-3.99356e-07
-4.03408e-07
-4.03408e-07
-4.03408e-07
-4.03408e-07
-4.03408e-07
-4.03408e-07
-3.97838e-07
-3.96023e-07
-3.96523e-07
-3.99337e-07
-4.03408e-07
-4.03408e-07
-4.03408e-07
-4.03408e-07
-4.03408e-07
-4.03408e-07
-3.97522e-07
-3.9652e-07
-3.96669e-07
-3.99598e-07
-4.03408e-07
-4.03408e-07
-4.03408e-07
-4.03409e-07
-4.03408e-07
-4.03408e-07
-3.97576e-07
-3.985e-07
-3.99244e-07
-4.03408e-07
-4.03408e-07
-4.03408e-07
-4.03408e-07
-4.03408e-07
-4.03408e-07
-3.97627e-07
-3.96101e-07
-3.96637e-07
-3.99238e-07
-4.03408e-07
-4.03408e-07
-4.03408e-07
-4.03408e-07
-3.9767e-07
-3.98076e-07
-3.96118e-07
-3.96558e-07
-3.9849e-07
-3.97839e-07
-3.9752e-07
-3.9757e-07
-3.97636e-07
-3.98079e-07
-3.96199e-07
-3.96025e-07
-3.96516e-07
-3.98495e-07
-3.96101e-07
-3.96115e-07
-4.16842e-07
-4.16981e-07
-4.17208e-07
-4.19664e-07
-4.19649e-07
-4.19908e-07
-4.19553e-07
-4.16947e-07
-4.1687e-07
-4.17198e-07
-4.20906e-07
-4.2372e-07
-4.2372e-07
-4.2372e-07
-4.2372e-07
-4.19543e-07
-4.18798e-07
-4.19668e-07
-4.2372e-07
-4.2372e-07
-4.2372e-07
-4.2372e-07
-4.2372e-07
-4.2372e-07
-4.1815e-07
-4.16335e-07
-4.16835e-07
-4.19649e-07
-4.2372e-07
-4.2372e-07
-4.2372e-07
-4.2372e-07
-4.2372e-07
-4.2372e-07
-4.17834e-07
-4.16832e-07
-4.16981e-07
-4.1991e-07
-4.2372e-07
-4.2372e-07
-4.2372e-07
-4.2372e-07
-4.23721e-07
-4.23721e-07
-4.17888e-07
-4.18811e-07
-4.19556e-07
-4.2372e-07
-4.2372e-07
-4.2372e-07
-4.23721e-07
-4.23721e-07
-4.23721e-07
-4.17939e-07
-4.16413e-07
-4.16949e-07
-4.1955e-07
-4.2372e-07
-4.23721e-07
-4.23721e-07
-4.23721e-07
-4.17982e-07
-4.18388e-07
-4.16429e-07
-4.1687e-07
-4.18802e-07
-4.18151e-07
-4.17832e-07
-4.17882e-07
-4.17947e-07
-4.18391e-07
-4.16511e-07
-4.16336e-07
-4.16828e-07
-4.18806e-07
-4.16412e-07
-4.16428e-07
-4.37154e-07
-4.37294e-07
-4.37521e-07
-4.39977e-07
-4.39962e-07
-4.4022e-07
-4.39865e-07
-4.3726e-07
-4.37183e-07
-4.37511e-07
-4.41219e-07
-4.44033e-07
-4.44033e-07
-4.44033e-07
-4.44033e-07
-4.39856e-07
-4.39111e-07
-4.39981e-07
-4.44033e-07
-4.44033e-07
-4.44033e-07
-4.44033e-07
-4.44033e-07
-4.44033e-07
-4.38462e-07
-4.36648e-07
-4.37148e-07
-4.39961e-07
-4.44033e-07
-4.44033e-07
-4.44033e-07
-4.44033e-07
-4.44033e-07
-4.44033e-07
-4.38147e-07
-4.37145e-07
-4.37294e-07
-4.40223e-07
-4.44033e-07
-4.44033e-07
-4.44033e-07
-4.44033e-07
-4.44033e-07
-4.44033e-07
-4.38201e-07
-4.39124e-07
-4.39868e-07
-4.44033e-07
-4.44033e-07
-4.44033e-07
-4.44033e-07
-4.44033e-07
-4.44033e-07
-4.38251e-07
-4.36726e-07
-4.37262e-07
-4.39862e-07
-4.44033e-07
-4.44033e-07
-4.44033e-07
-4.44033e-07
-4.38294e-07
-4.38701e-07
-4.36742e-07
-4.37183e-07
-4.39114e-07
-4.38463e-07
-4.38144e-07
-4.38195e-07
-4.3826e-07
-4.38704e-07
-4.36824e-07
-4.36649e-07
-4.37141e-07
-4.39119e-07
-4.36725e-07
-4.36741e-07
-4.57466e-07
-4.57605e-07
-4.57832e-07
-4.60288e-07
-4.60273e-07
-4.60531e-07
-4.60176e-07
-4.57571e-07
-4.57494e-07
-4.57822e-07
-4.6153e-07
-4.64344e-07
-4.64344e-07
-4.64344e-07
-4.64344e-07
-4.60167e-07
-4.59422e-07
-4.60292e-07
-4.64344e-07
-4.64344e-07
-4.64344e-07
-4.64344e-07
-4.64344e-07
-4.64344e-07
-4.58774e-07
-4.56959e-07
-4.57459e-07
-4.60272e-07
-4.64344e-07
-4.64344e-07
-4.64344e-07
-4.64344e-07
-4.64344e-07
-4.64344e-07
-4.58458e-07
-4.57456e-07
-4.57605e-07
-4.60534e-07
-4.64344e-07
-4.64344e-07
-4.64344e-07
-4.64344e-07
-4.64344e-07
-4.64344e-07
-4.58512e-07
-4.59435e-07
-4.60179e-07
-4.64344e-07
-4.64344e-07
-4.64344e-07
-4.64344e-07
-4.64344e-07
-4.64344e-07
-4.58562e-07
-4.57037e-07
-4.57573e-07
-4.60173e-07
-4.64344e-07
-4.64344e-07
-4.64344e-07
-4.64344e-07
-4.58606e-07
-4.59012e-07
-4.57053e-07
-4.57494e-07
-4.59426e-07
-4.58775e-07
-4.58455e-07
-4.58506e-07
-4.58571e-07
-4.59015e-07
-4.57135e-07
-4.5696e-07
-4.57452e-07
-4.5943e-07
-4.57036e-07
-4.57052e-07
-4.77777e-07
-4.77917e-07
-4.78144e-07
-4.806e-07
-4.80584e-07
-4.80843e-07
-4.80488e-07
-4.77882e-07
-4.77806e-07
-4.78133e-07
-4.81842e-07
-4.84656e-07
-4.84656e-07
-4.84656e-07
-4.84656e-07
-4.8048e-07
-4.79734e-07
-4.80604e-07
-4.84656e-07
-4.84656e-07
-4.84656e-07
-4.84656e-07
-4.84656e-07
-4.84656e-07
-4.79086e-07
-4.7727e-07
-4.7777e-07
-4.80584e-07
-4.84656e-07
-4.84656e-07
-4.84656e-07
-4.84656e-07
-4.84656e-07
-4.84656e-07
-4.7877e-07
-4.77768e-07
-4.77916e-07
-4.80846e-07
-4.84656e-07
-4.84656e-07
-4.84656e-07
-4.84656e-07
-4.84656e-07
-4.84656e-07
-4.78824e-07
-4.79747e-07
-4.80491e-07
-4.84656e-07
-4.84656e-07
-4.84656e-07
-4.84656e-07
-4.84656e-07
-4.84656e-07
-4.78874e-07
-4.77348e-07
-4.77885e-07
-4.80485e-07
-4.84656e-07
-4.84656e-07
-4.84656e-07
-4.84656e-07
-4.78918e-07
-4.79324e-07
-4.77365e-07
-4.77805e-07
-4.79737e-07
-4.79086e-07
-4.78767e-07
-4.78817e-07
-4.78883e-07
-4.79327e-07
-4.77446e-07
-4.77272e-07
-4.77763e-07
-4.79742e-07
-4.77347e-07
-4.77363e-07
-4.98091e-07
-4.9823e-07
-4.98457e-07
-5.00913e-07
-5.00898e-07
-5.01157e-07
-5.00802e-07
-4.98195e-07
-4.98122e-07
-4.98447e-07
-5.02156e-07
-5.0497e-07
-5.0497e-07
-5.0497e-07
-5.0497e-07
-5.00793e-07
-5.00048e-07
-5.00917e-07
-5.0497e-07
-5.0497e-07
-5.0497e-07
-5.0497e-07
-5.0497e-07
-5.0497e-07
-4.99399e-07
-4.97583e-07
-4.98084e-07
-5.00898e-07
-5.0497e-07
-5.0497e-07
-5.0497e-07
-5.0497e-07
-5.0497e-07
-5.0497e-07
-4.99083e-07
-4.98081e-07
-4.9823e-07
-5.0116e-07
-5.0497e-07
-5.0497e-07
-5.0497e-07
-5.0497e-07
-5.0497e-07
-5.0497e-07
-4.99137e-07
-5.00061e-07
-5.00805e-07
-5.0497e-07
-5.0497e-07
-5.0497e-07
-5.0497e-07
-5.0497e-07
-5.0497e-07
-4.99188e-07
-4.97662e-07
-4.98198e-07
-5.00799e-07
-5.0497e-07
-5.0497e-07
-5.0497e-07
-5.0497e-07
-4.99231e-07
-4.99637e-07
-4.97678e-07
-4.98119e-07
-5.00051e-07
-4.994e-07
-4.99081e-07
-4.99131e-07
-4.99196e-07
-4.9964e-07
-4.9776e-07
-4.97586e-07
-4.98077e-07
-5.00055e-07
-4.97661e-07
-4.97677e-07
-5.18405e-07
-5.18545e-07
-5.18771e-07
-5.21226e-07
-5.21214e-07
-5.21471e-07
-5.21116e-07
-5.18508e-07
-5.18433e-07
-5.1876e-07
-5.2247e-07
-5.25284e-07
-5.25284e-07
-5.25284e-07
-5.25284e-07
-5.21107e-07
-5.20361e-07
-5.2123e-07
-5.25284e-07
-5.25284e-07
-5.25284e-07
-5.25284e-07
-5.25284e-07
-5.25284e-07
-5.19713e-07
-5.17898e-07
-5.18398e-07
-5.21212e-07
-5.25284e-07
-5.25284e-07
-5.25284e-07
-5.25284e-07
-5.25284e-07
-5.25284e-07
-5.19397e-07
-5.18395e-07
-5.18544e-07
-5.21474e-07
-5.25284e-07
-5.25284e-07
-5.25284e-07
-5.25284e-07
-5.25284e-07
-5.25284e-07
-5.19451e-07
-5.20375e-07
-5.21119e-07
-5.25284e-07
-5.25284e-07
-5.25284e-07
-5.25284e-07
-5.25284e-07
-5.25284e-07
-5.19502e-07
-5.17976e-07
-5.18512e-07
-5.21113e-07
-5.25284e-07
-5.25284e-07
-5.25284e-07
-5.25284e-07
-5.19545e-07
-5.19951e-07
-5.17992e-07
-5.18433e-07
-5.20365e-07
-5.19714e-07
-5.19395e-07
-5.19445e-07
-5.1951e-07
-5.19954e-07
-5.18074e-07
-5.17899e-07
-5.18391e-07
-5.20369e-07
-5.17975e-07
-5.17991e-07
-5.38719e-07
-5.38858e-07
-5.39084e-07
-5.41541e-07
-5.41528e-07
-5.41784e-07
-5.4143e-07
-5.38822e-07
-5.38747e-07
-5.39074e-07
-5.42784e-07
-5.45598e-07
-5.45598e-07
-5.45598e-07
-5.45598e-07
-5.41421e-07
-5.40675e-07
-5.41545e-07
-5.45597e-07
-5.45597e-07
-5.45598e-07
-5.45598e-07
-5.45598e-07
-5.45598e-07
-5.40027e-07
-5.38211e-07
-5.38711e-07
-5.41526e-07
-5.45597e-07
-5.45598e-07
-5.45598e-07
-5.45598e-07
-5.45598e-07
-5.45598e-07
-5.39711e-07
-5.38709e-07
-5.38858e-07
-5.41787e-07
-5.45597e-07
-5.45598e-07
-5.45598e-07
-5.45598e-07
-5.45598e-07
-5.45598e-07
-5.39765e-07
-5.40688e-07
-5.41432e-07
-5.45598e-07
-5.45598e-07
-5.45598e-07
-5.45598e-07
-5.45597e-07
-5.45597e-07
-5.39815e-07
-5.38289e-07
-5.38826e-07
-5.41426e-07
-5.45598e-07
-5.45598e-07
-5.45598e-07
-5.45597e-07
-5.39858e-07
-5.40265e-07
-5.38306e-07
-5.38746e-07
-5.40678e-07
-5.40027e-07
-5.39708e-07
-5.39759e-07
-5.39823e-07
-5.40268e-07
-5.38387e-07
-5.38213e-07
-5.38704e-07
-5.40683e-07
-5.38288e-07
-5.38304e-07
-5.59033e-07
-5.59172e-07
-5.59397e-07
-5.61854e-07
-5.61842e-07
-5.62098e-07
-5.61743e-07
-5.59137e-07
-5.59061e-07
-5.59388e-07
-5.63098e-07
-5.65911e-07
-5.65911e-07
-5.65912e-07
-5.65912e-07
-5.61734e-07
-5.60989e-07
-5.61859e-07
-5.65911e-07
-5.65911e-07
-5.65911e-07
-5.65911e-07
-5.65911e-07
-5.65911e-07
-5.60341e-07
-5.58525e-07
-5.59025e-07
-5.61838e-07
-5.65911e-07
-5.65912e-07
-5.65912e-07
-5.65912e-07
-5.65912e-07
-5.65912e-07
-5.60025e-07
-5.59023e-07
-5.59171e-07
-5.62101e-07
-5.65911e-07
-5.65911e-07
-5.65911e-07
-5.65912e-07
-5.65912e-07
-5.65911e-07
-5.60079e-07
-5.61002e-07
-5.61746e-07
-5.65911e-07
-5.65912e-07
-5.65912e-07
-5.65912e-07
-5.65911e-07
-5.65911e-07
-5.60129e-07
-5.58603e-07
-5.5914e-07
-5.6174e-07
-5.65911e-07
-5.65912e-07
-5.65912e-07
-5.65911e-07
-5.60172e-07
-5.60579e-07
-5.5862e-07
-5.5906e-07
-5.60992e-07
-5.60341e-07
-5.60022e-07
-5.60072e-07
-5.60137e-07
-5.60582e-07
-5.58701e-07
-5.58527e-07
-5.59018e-07
-5.60997e-07
-5.58602e-07
-5.58618e-07
-5.79347e-07
-5.79486e-07
-5.79712e-07
-5.82168e-07
-5.82156e-07
-5.82413e-07
-5.82058e-07
-5.79449e-07
-5.79375e-07
-5.79702e-07
-5.83412e-07
-5.86227e-07
-5.86226e-07
-5.86227e-07
-5.86226e-07
-5.8205e-07
-5.81304e-07
-5.82173e-07
-5.86226e-07
-5.86226e-07
-5.86226e-07
-5.86226e-07
-5.86226e-07
-5.86226e-07
-5.80655e-07
-5.78839e-07
-5.79339e-07
-5.82154e-07
-5.86226e-07
-5.86227e-07
-5.86227e-07
-5.86227e-07
-5.86226e-07
-5.86226e-07
-5.80339e-07
-5.79337e-07
-5.79486e-07
-5.82416e-07
-5.86226e-07
-5.86226e-07
-5.86226e-07
-5.86226e-07
-5.86226e-07
-5.86226e-07
-5.80393e-07
-5.81316e-07
-5.82061e-07
-5.86226e-07
-5.86226e-07
-5.86226e-07
-5.86226e-07
-5.86226e-07
-5.86226e-07
-5.80443e-07
-5.78917e-07
-5.79454e-07
-5.82055e-07
-5.86226e-07
-5.86226e-07
-5.86226e-07
-5.86226e-07
-5.80487e-07
-5.80893e-07
-5.78934e-07
-5.79374e-07
-5.81307e-07
-5.80656e-07
-5.80336e-07
-5.80387e-07
-5.80452e-07
-5.80896e-07
-5.79015e-07
-5.78841e-07
-5.79332e-07
-5.81311e-07
-5.78916e-07
-5.78932e-07
-5.99663e-07
-5.99802e-07
-6.00028e-07
-6.02485e-07
-6.02472e-07
-6.02728e-07
-6.02374e-07
-5.99765e-07
-5.99691e-07
-6.00018e-07
-6.03728e-07
-6.06542e-07
-6.06542e-07
-6.06542e-07
-6.06542e-07
-6.02365e-07
-6.0162e-07
-6.02489e-07
-6.06542e-07
-6.06542e-07
-6.06542e-07
-6.06542e-07
-6.06542e-07
-6.06542e-07
-6.00972e-07
-5.99154e-07
-5.99655e-07
-6.0247e-07
-6.06542e-07
-6.06542e-07
-6.06542e-07
-6.06542e-07
-6.06542e-07
-6.06542e-07