/*--------------------------------*- C++ -*----------------------------------*\
| =========                 |                                                 |
| \\      /  F ield         | OpenFOAM: The Open Source CFD Toolbox           |
|  \\    /   O peration     | Version:  v1906                                 |
|   \\  /    A nd           | Web:      www.OpenFOAM.com                      |
|    \\/     M anipulation  |                                                 |
\*---------------------------------------------------------------------------*/
FoamFile
{
    version     2.0;
    format      ascii;
    class       volScalarField;
    location    "650";
    object      epsilon;
}
// * * * * * * * * * * * * * * * * * * * * * * * * * * * * * * * * * * * * * //

dimensions      [0 2 -3 0 0 0 0];


internalField   nonuniform List<scalar> 
43248
(
1.14832e-06
8.63019e-07
8.62981e-07
1.14849e-06
8.62774e-07
8.63035e-07
8.62795e-07
8.63048e-07
1.14837e-06
8.62915e-07
8.6292e-07
1.14864e-06
3.19679e-07
3.19658e-07
3.19747e-07
3.19757e-07
1.84273e-05
1.84291e-05
5.46221e-06
5.4633e-06
4.0915e-06
9.16111e-06
4.09373e-06
4.09156e-06
9.16209e-06
9.15533e-06
4.09383e-06
2.10217e-06
3.47512e-06
5.58153e-07
5.52247e-07
2.1068e-06
2.10225e-06
8.56907e-07
3.47497e-06
5.58205e-07
3.47223e-06
5.52311e-07
2.10686e-06
1.84288e-05
1.84185e-05
1.14403e-06
5.4637e-06
5.46195e-06
5.46128e-06
5.45939e-06
1.84263e-05
1.84159e-05
9.16293e-06
4.09396e-06
3.47539e-06
5.58263e-07
2.10695e-06
9.1625e-06
4.09398e-06
5.5828e-07
3.47549e-06
2.10689e-06
2.10239e-06
8.56719e-07
3.47505e-06
5.58191e-07
3.47151e-06
5.52299e-07
2.10697e-06
4.09181e-06
9.16192e-06
9.15548e-06
4.09378e-06
2.10231e-06
8.56965e-07
5.58261e-07
3.47463e-06
5.52368e-07
3.47186e-06
2.10689e-06
4.09171e-06
9.16188e-06
9.15539e-06
4.09364e-06
1.84295e-05
5.46371e-06
5.46198e-06
1.8428e-05
2.10235e-06
5.58312e-07
3.47512e-06
5.52409e-07
2.10697e-06
2.10237e-06
8.56846e-07
5.58335e-07
3.47545e-06
5.52445e-07
3.47243e-06
2.10698e-06
4.09167e-06
9.16224e-06
4.09352e-06
4.09186e-06
9.16295e-06
9.1565e-06
4.09362e-06
1.14385e-06
5.46222e-06
5.46381e-06
5.45938e-06
5.46147e-06
1.84281e-05
1.84178e-05
1.84299e-05
1.84196e-05
1.84221e-05
1.84244e-05
4.53811e-06
2.81207e-06
5.46181e-06
9.50053e-06
9.49688e-06
2.81012e-06
4.5406e-06
4.54432e-06
2.81179e-06
5.46367e-06
9.50341e-06
9.50121e-06
2.81172e-06
4.54281e-06
9.73615e-06
2.17307e-05
2.17285e-05
2.1724e-05
2.17227e-05
9.73566e-06
1.22031e-05
1.08237e-05
4.74415e-06
4.09182e-06
1.22002e-05
1.08267e-05
4.74429e-06
2.20535e-05
9.15808e-06
7.08834e-06
7.08887e-06
2.20604e-05
1.22035e-05
4.09337e-06
1.08299e-05
4.7459e-06
1.08269e-05
4.74575e-06
1.22067e-05
1.22034e-05
1.08239e-05
4.74436e-06
4.09195e-06
1.22005e-05
1.08268e-05
4.74469e-06
2.20544e-05
9.1595e-06
7.09013e-06
7.09051e-06
2.2061e-05
2.20563e-05
7.08951e-06
9.15826e-06
2.20498e-05
7.08913e-06
1.22039e-05
4.09345e-06
1.08301e-05
4.7461e-06
1.08271e-05
4.74599e-06
1.22068e-05
1.84238e-05
1.84234e-05
9.73347e-06
2.17175e-05
2.17182e-05
9.73385e-06
2.17238e-05
2.17245e-05
4.54444e-06
2.81221e-06
5.46361e-06
9.50417e-06
2.81163e-06
9.50093e-06
4.54485e-06
4.5386e-06
2.81105e-06
5.46177e-06
9.49978e-06
9.49612e-06
2.81045e-06
4.53877e-06
4.54225e-06
9.49606e-06
2.80845e-06
5.46141e-06
2.809e-06
4.54183e-06
9.49962e-06
4.53606e-06
9.49146e-06
2.80728e-06
5.45966e-06
4.53596e-06
9.49504e-06
2.80782e-06
9.73584e-06
2.17288e-05
2.17296e-05
2.17225e-05
2.17233e-05
9.73544e-06
1.84213e-05
1.84209e-05
2.20541e-05
9.16001e-06
7.08999e-06
7.09033e-06
2.20607e-05
1.2204e-05
4.09356e-06
4.74625e-06
1.08306e-05
4.74597e-06
1.08276e-05
1.22071e-05
2.20541e-05
9.15949e-06
7.08859e-06
7.08909e-06
2.2061e-05
1.22042e-05
4.09338e-06
1.08305e-05
4.74612e-06
1.08274e-05
4.74593e-06
1.22072e-05
1.22029e-05
4.74445e-06
1.08246e-05
4.09185e-06
1.22004e-05
4.74451e-06
1.08266e-05
2.20532e-05
9.15947e-06
7.08964e-06
7.09002e-06
2.20598e-05
2.20551e-05
7.08903e-06
9.15797e-06
2.20486e-05
7.08864e-06
1.22038e-05
4.09373e-06
4.74604e-06
1.08298e-05
4.74602e-06
1.08277e-05
1.22063e-05
1.22033e-05
1.08245e-05
4.74424e-06
4.0916e-06
1.22008e-05
1.08265e-05
4.74428e-06
2.20537e-05
9.15938e-06
7.08821e-06
7.08858e-06
2.20603e-05
2.20557e-05
7.0876e-06
9.15793e-06
2.20491e-05
7.08721e-06
1.22041e-05
4.09372e-06
1.08297e-05
4.74568e-06
1.08276e-05
4.74584e-06
1.22067e-05
1.84245e-05
4.5447e-06
2.81255e-06
5.46352e-06
9.5044e-06
2.81153e-06
9.5007e-06
4.54516e-06
4.53877e-06
2.81142e-06
5.46171e-06
9.49939e-06
9.49646e-06
2.81054e-06
4.53915e-06
9.73659e-06
2.17298e-05
2.17301e-05
2.17234e-05
2.17238e-05
9.73623e-06
1.8423e-05
1.22033e-05
4.74416e-06
1.08248e-05
4.09172e-06
1.22008e-05
4.74414e-06
1.08268e-05
2.20539e-05
9.15925e-06
7.08819e-06
7.08853e-06
2.20605e-05
2.20558e-05
7.08716e-06
1.22042e-05
4.09356e-06
4.74591e-06
1.083e-05
4.74572e-06
1.0828e-05
1.22067e-05
1.22032e-05
4.74448e-06
1.08249e-05
4.09174e-06
1.22006e-05
4.74443e-06
1.08269e-05
2.20536e-05
9.16048e-06
7.08987e-06
7.09037e-06
2.20605e-05
2.20559e-05
7.08939e-06
9.15901e-06
2.20491e-05
7.08887e-06
1.2204e-05
4.09377e-06
4.74608e-06
1.08301e-05
4.7461e-06
1.0828e-05
1.22066e-05
9.73398e-06
2.17188e-05
2.17182e-05
9.73437e-06
2.17251e-05
2.17244e-05
4.53865e-06
2.81112e-06
5.46173e-06
9.49994e-06
2.81045e-06
9.49626e-06
4.5391e-06
4.54467e-06
2.81237e-06
5.4638e-06
9.50434e-06
2.81176e-06
9.5014e-06
4.54509e-06
4.53649e-06
9.49159e-06
2.80718e-06
5.45986e-06
4.53604e-06
2.80813e-06
9.49519e-06
4.54247e-06
9.49668e-06
2.80854e-06
5.46155e-06
4.54207e-06
2.80915e-06
9.49969e-06
9.73636e-06
2.17301e-05
2.17295e-05
2.17238e-05
2.17232e-05
9.73595e-06
1.84232e-05
1.84227e-05
1.8425e-05
1.84245e-05
2.66817e-06
1.14939e-06
1.76803e-06
1.76742e-06
1.76766e-06
1.768e-06
2.66822e-06
2.66813e-06
1.14905e-06
1.76768e-06
1.76763e-06
1.76801e-06
1.76782e-06
2.66819e-06
2.66796e-06
1.14938e-06
1.7679e-06
1.76816e-06
1.76801e-06
1.7678e-06
2.66863e-06
2.66822e-06
1.14902e-06
1.76776e-06
1.76788e-06
1.76765e-06
1.76783e-06
2.66829e-06
1.66574e-07
1.66568e-07
1.64464e-07
7.93879e-08
7.99298e-08
3.15717e-07
1.66579e-07
1.66531e-07
1.64466e-07
1.64421e-07
7.93835e-08
7.99249e-08
1.66629e-07
1.66602e-07
1.64487e-07
7.94054e-08
7.99483e-08
3.15812e-07
1.66617e-07
1.66605e-07
1.64503e-07
1.64492e-07
7.94037e-08
7.99465e-08
1.41075e-06
2.36146e-06
1.27385e-06
2.10314e-06
1.41058e-06
2.36233e-06
1.27317e-06
1.61684e-06
2.0325e-06
3.47422e-06
2.86022e-06
2.03172e-06
2.85963e-06
1.61714e-06
1.41575e-06
2.10585e-06
2.36573e-06
1.27839e-06
2.36487e-06
1.27937e-06
1.41588e-06
1.41058e-06
2.36172e-06
1.27398e-06
2.10319e-06
1.41059e-06
2.36261e-06
1.27314e-06
1.618e-06
2.03192e-06
3.47515e-06
2.86082e-06
2.86013e-06
2.03215e-06
1.61631e-06
1.612e-06
2.85716e-06
2.0281e-06
3.47211e-06
1.61254e-06
2.85782e-06
2.02806e-06
1.41599e-06
2.10593e-06
2.36598e-06
1.27839e-06
2.36512e-06
1.27953e-06
1.41543e-06
2.66476e-06
1.14347e-06
1.76379e-06
1.76363e-06
1.76373e-06
2.66474e-06
1.76362e-06
1.61818e-06
2.03207e-06
3.47481e-06
2.86046e-06
2.03239e-06
2.86014e-06
1.61625e-06
1.41666e-06
2.10605e-06
2.366e-06
1.27846e-06
2.36511e-06
1.27967e-06
1.41515e-06
1.61694e-06
2.03258e-06
3.47493e-06
2.8604e-06
2.85967e-06
2.03201e-06
1.61721e-06
1.41559e-06
2.10597e-06
1.27849e-06
2.36585e-06
1.27935e-06
2.36494e-06
1.41555e-06
1.40976e-06
2.36184e-06
1.27429e-06
2.10332e-06
1.41236e-06
2.36263e-06
1.2732e-06
1.61828e-06
2.03185e-06
3.47452e-06
2.86068e-06
2.03177e-06
2.86017e-06
1.61635e-06
1.61163e-06
2.85731e-06
2.02773e-06
3.47218e-06
1.61355e-06
2.02792e-06
2.85743e-06
1.41738e-06
2.10607e-06
2.366e-06
1.27849e-06
2.36522e-06
1.27971e-06
1.415e-06
1.41037e-06
1.274e-06
2.36159e-06
2.10323e-06
1.41088e-06
1.27329e-06
2.36244e-06
1.61829e-06
2.03193e-06
3.47477e-06
2.86002e-06
2.85971e-06
2.03189e-06
1.61636e-06
1.61168e-06
2.85669e-06
2.02782e-06
3.47175e-06
1.61355e-06
2.85729e-06
2.02786e-06
1.41631e-06
2.106e-06
1.27852e-06
2.36582e-06
1.27954e-06
2.36501e-06
1.41523e-06
1.41111e-06
1.27342e-06
2.36169e-06
2.10332e-06
1.41097e-06
1.27426e-06
2.36246e-06
1.617e-06
2.03206e-06
3.47433e-06
2.85995e-06
2.03201e-06
2.85964e-06
1.61726e-06
1.6127e-06
2.85726e-06
1.41607e-06
2.10603e-06
1.27953e-06
2.36586e-06
1.27877e-06
2.36506e-06
1.41615e-06
1.41105e-06
1.27362e-06
2.36183e-06
2.10333e-06
1.4109e-06
1.27416e-06
2.3626e-06
1.61731e-06
2.03288e-06
3.47521e-06
2.8608e-06
2.86024e-06
2.03192e-06
1.61753e-06
1.61297e-06
2.85738e-06
2.02779e-06
3.47242e-06
1.61257e-06
2.85755e-06
2.02869e-06
1.41608e-06
2.10606e-06
1.27965e-06
2.36598e-06
1.27893e-06
2.36521e-06
1.41617e-06
2.66487e-06
1.1436e-06
1.76342e-06
1.76365e-06
2.66481e-06
1.76378e-06
1.76401e-06
1.33486e-07
2.30055e-07
2.30116e-07
3.57062e-07
3.52108e-07
2.27866e-07
2.27853e-07
3.51793e-07
2.27786e-07
2.27883e-07
2.27741e-07
2.27838e-07
3.51299e-07
2.27799e-07
2.27798e-07
3.52045e-07
3.5711e-07
3.77551e-07
2.30143e-07
2.30169e-07
2.37928e-07
2.37902e-07
3.5685e-07
3.77223e-07
2.30142e-07
2.30197e-07
2.37809e-07
2.3793e-07
2.3015e-07
2.37778e-07
2.37883e-07
3.57604e-07
3.7655e-07
2.3011e-07
2.37843e-07
2.37841e-07
3.77451e-07
1.34155e-07
1.34147e-07
1.34161e-07
1.34157e-07
3.68147e-06
8.90882e-06
3.65168e-06
8.91423e-06
1.84693e-05
1.84613e-05
3.68212e-06
8.91135e-06
3.65202e-06
8.91603e-06
1.33474e-07
1.33489e-07
1.33483e-07
1.31782e-07
1.31772e-07
1.31789e-07
1.31783e-07
1.1571e-06
2.79936e-06
1.58223e-07
2.325e-07
1.1299e-06
2.82125e-06
1.58427e-07
1.84709e-05
1.8463e-05
1.15731e-06
1.58229e-07
2.79814e-06
2.32564e-07
1.12987e-06
1.58445e-07
2.82287e-06
5.13564e-06
5.13753e-06
3.64284e-07
5.148e-06
5.14993e-06
1.84753e-05
1.84836e-05
1.84775e-05
1.84858e-05
3.45233e-07
5.12937e-06
5.13129e-06
5.1156e-06
5.11733e-06
3.60263e-06
8.90843e-06
8.90275e-06
3.63577e-06
3.603e-06
8.90929e-06
8.90441e-06
3.63577e-06
1.08678e-06
2.25645e-07
2.7861e-06
1.58121e-07
2.75975e-06
1.5808e-07
1.11519e-06
1.0871e-06
2.25661e-07
2.78668e-06
1.58126e-07
2.76017e-06
1.58084e-07
1.11449e-06
1.84763e-05
1.84846e-05
3.44962e-07
5.12979e-06
5.12773e-06
5.11856e-06
5.11678e-06
1.84748e-05
1.84831e-05
3.60296e-06
8.91023e-06
8.90542e-06
3.63651e-06
1.08654e-06
2.25634e-07
2.78663e-06
1.58112e-07
2.76019e-06
1.58066e-07
1.11524e-06
3.60259e-06
8.9096e-06
8.90485e-06
3.63668e-06
1.08719e-06
2.25692e-07
1.58118e-07
2.78497e-06
1.58073e-07
2.76158e-06
1.11453e-06
1.08724e-06
2.25554e-07
2.78444e-06
1.58112e-07
2.76094e-06
1.58072e-07
1.11469e-06
3.60286e-06
8.90968e-06
8.90402e-06
3.63606e-06
1.08714e-06
2.25643e-07
1.58121e-07
2.78474e-06
1.58079e-07
2.76105e-06
1.11469e-06
3.60265e-06
8.90935e-06
8.90366e-06
3.63619e-06
1.8478e-05
1.84863e-05
3.45575e-07
5.13121e-06
5.12954e-06
5.11739e-06
5.11551e-06
1.84761e-05
1.84845e-05
1.08688e-06
2.25612e-07
1.58128e-07
2.78616e-06
1.58082e-07
2.75991e-06
1.1146e-06
1.08721e-06
2.25605e-07
1.5812e-07
2.78668e-06
1.58075e-07
2.7603e-06
1.11479e-06
3.60302e-06
8.90913e-06
8.90432e-06
3.63543e-06
3.6032e-06
8.91022e-06
8.90542e-06
3.63627e-06
3.45336e-07
5.1296e-06
5.13151e-06
5.11555e-06
5.11744e-06
1.84762e-05
1.84846e-05
1.84776e-05
1.8486e-05
1.84681e-05
1.84602e-05
1.84703e-05
1.84623e-05
5.13554e-06
5.1373e-06
3.64558e-07
5.14731e-06
5.14975e-06
1.84459e-05
1.84532e-05
1.84476e-05
1.84554e-05
3.69686e-07
5.16505e-06
5.16604e-06
5.15322e-06
5.15524e-06
3.68155e-06
8.91037e-06
3.65204e-06
8.91515e-06
1.1578e-06
2.79806e-06
1.58232e-07
2.32631e-07
1.12919e-06
2.82276e-06
1.58436e-07
1.15704e-06
2.79849e-06
1.58236e-07
2.32616e-07
1.12991e-06
2.82328e-06
1.58436e-07
3.69558e-06
8.91977e-06
8.9146e-06
3.72233e-06
3.69577e-06
8.92065e-06
8.91618e-06
3.72251e-06
1.17161e-06
2.35165e-07
2.85752e-06
1.59099e-07
2.83397e-06
1.58728e-07
1.1997e-06
1.17226e-06
2.35194e-07
2.85794e-06
1.59099e-07
2.83448e-06
1.58732e-07
1.19932e-06
5.13861e-06
5.13691e-06
3.64084e-07
5.14821e-06
5.14615e-06
1.84677e-05
1.84597e-05
1.84469e-05
1.84545e-05
3.69424e-07
5.16519e-06
5.16319e-06
5.15658e-06
5.1549e-06
1.84453e-05
1.84529e-05
1.15791e-06
2.79846e-06
1.58217e-07
2.3254e-07
1.12938e-06
2.8233e-06
1.58428e-07
3.68225e-06
8.91075e-06
3.65176e-06
8.91545e-06
1.15713e-06
1.58226e-07
2.79992e-06
2.32645e-07
1.12991e-06
1.58427e-07
2.82168e-06
3.69593e-06
8.92146e-06
8.9171e-06
3.72309e-06
1.17179e-06
2.35171e-07
2.85784e-06
1.59094e-07
2.83443e-06
1.58716e-07
1.20024e-06
3.69584e-06
8.92095e-06
8.91656e-06
3.72173e-06
1.17234e-06
2.35224e-07
1.59089e-07
2.85628e-06
1.58723e-07
2.83596e-06
1.19927e-06
3.68081e-06
8.91013e-06
3.65215e-06
8.91553e-06
1.15715e-06
1.58229e-07
2.79942e-06
2.32598e-07
1.12983e-06
1.58431e-07
2.82138e-06
3.68199e-06
8.90975e-06
3.65182e-06
8.91517e-06
1.17238e-06
2.35074e-07
2.85562e-06
1.59089e-07
2.83538e-06
1.5872e-07
1.19932e-06
3.69657e-06
8.92099e-06
8.91592e-06
3.72185e-06
1.17226e-06
2.35174e-07
1.59091e-07
2.85739e-06
1.58725e-07
2.83538e-06
1.19935e-06
3.69566e-06
8.92062e-06
8.91552e-06
3.72252e-06
5.13738e-06
5.13557e-06
3.63413e-07
5.14966e-06
5.14796e-06
1.84691e-05
1.84611e-05
1.84485e-05
1.84561e-05
3.7044e-07
5.16632e-06
5.16494e-06
5.15535e-06
5.15347e-06
1.84466e-05
1.84543e-05
1.15726e-06
1.58227e-07
2.79864e-06
2.32559e-07
1.12994e-06
1.58431e-07
2.82336e-06
3.68122e-06
8.91024e-06
3.65255e-06
8.91498e-06
3.68176e-06
8.91133e-06
3.65209e-06
8.91607e-06
1.17244e-06
2.35138e-07
1.59108e-07
2.8575e-06
1.58727e-07
2.83415e-06
1.19949e-06
1.17248e-06
2.35132e-07
1.59094e-07
2.85796e-06
1.58725e-07
2.8346e-06
1.19945e-06
3.6963e-06
8.92047e-06
8.91604e-06
3.72252e-06
3.69603e-06
8.92152e-06
8.9171e-06
3.72265e-06
1.84691e-05
1.84611e-05
1.84706e-05
1.84625e-05
3.69616e-07
5.16499e-06
5.16691e-06
5.15357e-06
5.15547e-06
1.84466e-05
1.84542e-05
1.84481e-05
1.84557e-05
1.21311e-05
3.67424e-06
1.06762e-05
4.49089e-06
1.06713e-05
4.48699e-06
1.21341e-05
2.24356e-05
7.21531e-06
8.91138e-06
2.24339e-05
7.21489e-06
1.21308e-05
3.6595e-06
1.06662e-05
4.4713e-06
1.21277e-05
1.06709e-05
4.47556e-06
2.24243e-05
7.21625e-06
8.91174e-06
7.21689e-06
2.24259e-05
1.84687e-05
1.84618e-05
1.21316e-05
3.67474e-06
4.49147e-06
1.06768e-05
4.48755e-06
1.06719e-05
1.21346e-05
2.24366e-05
7.21751e-06
8.91318e-06
2.24353e-05
7.21711e-06
1.21313e-05
3.65957e-06
4.4719e-06
1.06669e-05
1.21283e-05
4.47621e-06
1.06715e-05
2.24256e-05
7.21843e-06
8.91421e-06
7.21901e-06
2.24269e-05
1.84704e-05
1.84634e-05
9.73119e-06
2.19131e-05
2.19124e-05
2.19128e-05
2.19121e-05
9.72947e-06
3.96348e-06
1.92643e-06
9.03768e-06
5.13902e-06
3.95744e-06
1.93394e-06
9.04249e-06
3.9688e-06
1.92855e-06
9.0424e-06
5.14093e-06
3.96538e-06
1.93475e-06
9.04722e-06
9.72899e-06
2.19228e-05
2.19222e-05
9.7306e-06
2.1923e-05
2.19224e-05
3.97382e-06
9.04966e-06
5.14481e-06
1.95509e-06
1.94779e-06
9.04503e-06
3.97952e-06
3.98186e-06
9.05443e-06
5.14672e-06
1.95586e-06
1.94996e-06
9.04978e-06
3.98496e-06
1.84758e-05
1.8483e-05
1.8478e-05
1.84852e-05
9.72699e-06
2.19423e-05
2.19424e-05
9.72828e-06
2.19425e-05
2.19427e-05
3.94154e-06
1.91195e-06
5.1259e-06
9.0349e-06
9.02921e-06
1.90484e-06
3.94493e-06
3.94813e-06
1.91321e-06
5.12763e-06
9.03995e-06
9.03497e-06
1.90669e-06
3.95354e-06
3.92757e-06
9.02131e-06
1.88251e-06
5.11922e-06
3.92364e-06
9.02714e-06
1.88976e-06
3.93456e-06
9.02712e-06
1.8844e-06
5.12115e-06
3.93075e-06
9.03225e-06
1.89087e-06
9.72939e-06
2.19324e-05
2.19325e-05
2.19321e-05
2.19322e-05
9.72794e-06
1.2124e-05
1.06561e-05
4.43659e-06
3.61134e-06
1.21208e-05
1.06606e-05
4.44253e-06
2.24435e-05
8.90578e-06
7.21303e-06
2.24452e-05
7.21325e-06
2.24548e-05
7.21066e-06
8.90535e-06
2.24531e-05
7.21062e-06
1.21243e-05
3.62776e-06
1.06658e-05
4.45938e-06
1.21274e-05
1.0661e-05
4.45452e-06
1.21242e-05
1.06562e-05
4.43713e-06
3.61161e-06
1.2121e-05
1.06609e-05
4.44322e-06
2.24448e-05
8.90738e-06
7.21538e-06
7.21562e-06
2.24462e-05
2.24558e-05
7.2132e-06
8.90631e-06
2.24543e-05
7.213e-06
1.21245e-05
3.62803e-06
1.06659e-05
4.4606e-06
1.06611e-05
4.45482e-06
1.21277e-05
1.84769e-05
1.84839e-05
9.72682e-06
2.19419e-05
2.19426e-05
9.72813e-06
2.19422e-05
2.19429e-05
3.94743e-06
1.91337e-06
5.12889e-06
9.03995e-06
1.90631e-06
9.03425e-06
3.95155e-06
3.94141e-06
1.91129e-06
5.12719e-06
9.03521e-06
9.02953e-06
1.90509e-06
3.94488e-06
3.93527e-06
9.02631e-06
1.88407e-06
5.1196e-06
1.89145e-06
3.92895e-06
9.03217e-06
3.92748e-06
9.02163e-06
1.8828e-06
5.11751e-06
3.92349e-06
9.02745e-06
1.88895e-06
9.72924e-06
2.1932e-05
2.19327e-05
2.19318e-05
2.19324e-05
9.72777e-06
1.84753e-05
1.84825e-05
1.21245e-05
4.43717e-06
1.06567e-05
3.61155e-06
1.21213e-05
4.44323e-06
1.06613e-05
2.2445e-05
8.90833e-06
7.21525e-06
2.24463e-05
7.21549e-06
2.2456e-05
7.2131e-06
8.90724e-06
2.24546e-05
7.21284e-06
1.21248e-05
3.62819e-06
4.46008e-06
1.06665e-05
1.2128e-05
4.45508e-06
1.06616e-05
1.21246e-05
1.06564e-05
4.43703e-06
3.61172e-06
1.21214e-05
1.06611e-05
4.44307e-06
2.24444e-05
8.90778e-06
7.21351e-06
7.21388e-06
2.24461e-05
2.24557e-05
7.21137e-06
8.90663e-06
2.2454e-05
7.21111e-06
1.21249e-05
3.62789e-06
1.06661e-05
4.46028e-06
1.06614e-05
4.45469e-06
1.21281e-05
1.21239e-05
4.43744e-06
1.06573e-05
3.61168e-06
1.21207e-05
4.44268e-06
1.06603e-05
2.24437e-05
8.90709e-06
7.21482e-06
7.21491e-06
2.24452e-05
2.24548e-05
7.21238e-06
8.90665e-06
2.24532e-05
7.21251e-06
1.21242e-05
3.62809e-06
4.4599e-06
1.06652e-05
4.45512e-06
1.0662e-05
1.21273e-05
1.2124e-05
1.06561e-05
4.43726e-06
3.61203e-06
1.21208e-05
1.06607e-05
4.44255e-06
2.24436e-05
8.90671e-06
7.21302e-06
7.21311e-06
2.24451e-05
2.24547e-05
7.21062e-06
8.90634e-06
2.24532e-05
7.21071e-06
1.21243e-05
3.62783e-06
1.06657e-05
4.45968e-06
1.0661e-05
4.45502e-06
1.21275e-05
1.84785e-05
1.84857e-05
9.72773e-06
2.19432e-05
2.19433e-05
9.72898e-06
2.19435e-05
2.19436e-05
3.94732e-06
1.91321e-06
5.12772e-06
9.0398e-06
1.90682e-06
9.03486e-06
3.95362e-06
3.94038e-06
1.91153e-06
5.12594e-06
9.03522e-06
9.02956e-06
1.90532e-06
3.94668e-06
3.93604e-06
9.027e-06
1.88452e-06
5.12105e-06
1.89106e-06
3.92939e-06
9.0321e-06
3.92915e-06
9.02167e-06
1.88296e-06
5.1194e-06
3.92249e-06
9.02748e-06
1.88937e-06
9.73011e-06
2.19333e-05
2.19335e-05
2.1933e-05
2.19332e-05
9.72869e-06
1.84768e-05
1.84839e-05
1.21241e-05
4.43721e-06
1.06574e-05
3.61162e-06
1.21209e-05
4.44249e-06
1.06604e-05
2.24439e-05
8.90727e-06
7.21301e-06
7.21326e-06
2.24454e-05
2.2455e-05
7.21083e-06
8.90617e-06
2.24535e-05
7.21065e-06
1.21244e-05
3.62825e-06
4.45974e-06
1.06653e-05
4.45491e-06
1.06621e-05
1.21276e-05
1.2124e-05
4.43702e-06
1.06565e-05
3.61178e-06
1.21208e-05
4.44335e-06
1.06612e-05
2.24438e-05
8.90837e-06
7.21498e-06
7.21522e-06
2.24452e-05
2.24548e-05
7.21284e-06
8.90727e-06
2.24534e-05
7.21263e-06
1.21243e-05
3.62821e-06
4.46069e-06
1.06662e-05
4.45468e-06
1.06614e-05
1.21275e-05
9.7273e-06
2.1943e-05
2.19424e-05
9.7286e-06
2.19433e-05
2.19427e-05
3.94025e-06
1.91246e-06
5.126e-06
9.035e-06
3.94656e-06
1.9047e-06
9.03003e-06
3.94857e-06
1.9132e-06
5.12788e-06
9.03973e-06
3.95194e-06
1.90679e-06
9.03473e-06
3.92906e-06
9.02222e-06
1.88234e-06
5.11941e-06
3.92235e-06
1.89005e-06
9.02732e-06
3.93463e-06
9.02695e-06
1.88443e-06
5.12133e-06
3.93068e-06
1.89092e-06
9.03203e-06
9.72974e-06
2.19331e-05
2.19325e-05
9.72828e-06
2.19329e-05
2.19323e-05
1.84768e-05
1.8484e-05
1.84782e-05
1.84853e-05
1.84676e-05
1.84606e-05
1.84697e-05
1.84628e-05
9.73081e-06
2.19122e-05
2.19124e-05
2.19119e-05
2.1912e-05
9.72907e-06
3.96188e-06
1.92659e-06
9.03689e-06
5.13869e-06
3.95845e-06
9.04239e-06
1.93355e-06
3.97026e-06
1.92842e-06
9.04258e-06
5.14069e-06
3.96437e-06
9.04744e-06
1.93525e-06
9.72864e-06
2.1922e-05
2.19221e-05
9.73024e-06
2.19223e-05
2.19224e-05
3.97486e-06
9.04961e-06
5.1454e-06
1.95477e-06
9.04424e-06
3.97794e-06
1.94792e-06
3.98062e-06
9.05465e-06
5.1465e-06
1.95664e-06
9.05002e-06
3.98632e-06
1.94937e-06
1.8446e-05
1.84528e-05
1.84483e-05
1.8455e-05
9.72923e-06
2.1902e-05
2.19021e-05
9.73117e-06
2.19025e-05
2.19021e-05
4.00441e-06
1.99647e-06
5.16179e-06
9.06448e-06
9.05852e-06
1.98875e-06
4.01097e-06
4.01272e-06
1.99674e-06
5.16444e-06
9.06738e-06
9.06384e-06
1.99088e-06
4.01447e-06
3.9939e-06
9.05143e-06
1.96878e-06
5.15617e-06
3.99044e-06
9.05677e-06
1.97544e-06
4.00207e-06
9.05719e-06
1.97009e-06
5.15837e-06
3.9963e-06
9.06155e-06
1.97738e-06
9.7313e-06
2.18933e-05
2.18917e-05
2.18926e-05
2.18916e-05
9.72928e-06
1.21313e-05
3.67446e-06
1.06763e-05
4.4919e-06
1.06714e-05
4.48695e-06
1.21344e-05
2.24365e-05
7.21758e-06
8.91229e-06
2.24352e-05
7.21722e-06
1.21311e-05
3.65961e-06
1.06663e-05
4.47136e-06
1.0671e-05
1.2128e-05
4.4767e-06
2.24256e-05
7.21854e-06
8.91332e-06
7.21912e-06
2.24269e-05
1.21373e-05
1.06767e-05
4.50155e-06
3.70285e-06
1.21343e-05
1.06816e-05
4.50516e-06
2.24053e-05
8.91728e-06
7.21768e-06
7.2187e-06
2.24068e-05
2.24165e-05
7.21802e-06
8.91702e-06
2.24147e-05
7.2172e-06
1.21375e-05
3.71562e-06
1.0687e-05
4.51849e-06
1.06821e-05
4.51511e-06
1.21403e-05
1.21375e-05
1.06769e-05
4.50163e-06
3.70289e-06
1.21346e-05
1.06818e-05
4.50553e-06
2.24063e-05
8.91894e-06
7.21996e-06
7.22094e-06
2.24074e-05
2.24172e-05
7.22022e-06
8.91798e-06
2.24159e-05
7.21946e-06
1.21377e-05
3.71583e-06
1.06871e-05
4.51886e-06
1.06822e-05
4.51553e-06
1.21405e-05
9.73066e-06
2.1912e-05
2.19127e-05
2.19117e-05
2.19123e-05
9.72894e-06
3.96856e-06
1.92825e-06
9.04196e-06
5.13917e-06
9.04748e-06
3.96513e-06
1.93463e-06
3.96178e-06
1.92685e-06
9.03721e-06
5.13709e-06
1.93291e-06
3.95828e-06
9.04273e-06
9.72847e-06
2.19217e-05
2.19223e-05
2.1922e-05
9.73007e-06
2.19226e-05
3.98165e-06
9.05475e-06
5.14774e-06
1.95582e-06
9.04937e-06
1.94966e-06
3.98484e-06
3.97468e-06
9.04996e-06
5.14605e-06
1.95395e-06
1.94816e-06
9.04458e-06
3.97784e-06
1.84672e-05
1.84602e-05
1.84474e-05
1.84541e-05
9.72917e-06
2.19018e-05
2.19024e-05
9.73103e-06
2.19021e-05
2.19028e-05
4.01146e-06
1.99675e-06
5.16493e-06
9.06858e-06
1.99093e-06
9.06345e-06
4.01669e-06
4.00551e-06
1.9949e-06
5.16329e-06
9.06376e-06
9.05863e-06
1.98942e-06
4.00833e-06
4.00167e-06
9.05653e-06
1.97066e-06
5.1568e-06
1.97646e-06
3.99708e-06
9.06175e-06
3.99345e-06
9.05175e-06
1.96913e-06
5.15474e-06
3.99035e-06
9.05695e-06
1.9747e-06
9.73117e-06
2.18923e-05
2.1893e-05
2.1892e-05
2.18926e-05
9.72921e-06
1.84457e-05
1.84525e-05
1.21317e-05
3.67449e-06
1.06766e-05
4.49183e-06
1.06717e-05
4.48678e-06
1.21348e-05
2.24364e-05
7.2159e-06
8.91261e-06
2.24348e-05
7.21539e-06
1.21315e-05
3.65979e-06
1.06666e-05
4.47128e-06
1.06713e-05
1.21284e-05
4.47671e-06
2.24252e-05
7.21671e-06
8.91371e-06
7.21744e-06
2.24268e-05
1.21377e-05
4.5021e-06
1.06773e-05
3.70313e-06
1.21348e-05
4.50569e-06
1.06823e-05
2.24062e-05
8.91982e-06
7.21985e-06
7.2208e-06
2.24073e-05
2.24171e-05
7.22011e-06
8.91886e-06
2.24159e-05
7.21934e-06
1.21379e-05
3.716e-06
4.51905e-06
1.06876e-05
4.51563e-06
1.06827e-05
1.21407e-05
1.21379e-05
1.06772e-05
4.50134e-06
3.70277e-06
1.2135e-05
1.06821e-05
4.5062e-06
2.24058e-05
8.91933e-06
7.21815e-06
7.21927e-06
2.24073e-05
2.2417e-05
7.21855e-06
8.9183e-06
2.24155e-05
7.21764e-06
1.21381e-05
3.71627e-06
1.06874e-05
4.51937e-06
1.06825e-05
4.51495e-06
1.21409e-05
1.2131e-05
3.67482e-06
4.49133e-06
1.06757e-05
4.48714e-06
1.06724e-05
1.2134e-05
2.24355e-05
7.21692e-06
8.91267e-06
7.21664e-06
2.24341e-05
1.21307e-05
3.6597e-06
4.47172e-06
1.06671e-05
4.4761e-06
1.21277e-05
1.06705e-05
2.24245e-05
7.21797e-06
8.91305e-06
7.21849e-06
2.24258e-05
1.21312e-05
3.67428e-06
1.06762e-05
4.49166e-06
1.06713e-05
4.48691e-06
1.21342e-05
2.24354e-05
7.21513e-06
8.91232e-06
2.2434e-05
7.21483e-06
1.21309e-05
3.66016e-06
1.06662e-05
4.47162e-06
1.21278e-05
1.06709e-05
4.47595e-06
2.24244e-05
7.21616e-06
8.91267e-06
7.21668e-06
2.24257e-05
1.21372e-05
4.50165e-06
1.06777e-05
3.70198e-06
1.21343e-05
4.50601e-06
1.06812e-05
2.24051e-05
8.91861e-06
7.21938e-06
7.22028e-06
2.24064e-05
2.24161e-05
7.21959e-06
8.9183e-06
2.24148e-05
7.21888e-06
1.21374e-05
3.71673e-06
4.51938e-06
1.06866e-05
4.51495e-06
1.06831e-05
1.21402e-05
1.21373e-05
1.06768e-05
4.50114e-06
3.70315e-06
1.21344e-05
1.06817e-05
4.50595e-06
2.2405e-05
8.91819e-06
7.21756e-06
7.21848e-06
2.24063e-05
2.2416e-05
7.21778e-06
8.91793e-06
2.24147e-05
7.21705e-06
1.21375e-05
3.71578e-06
1.06871e-05
4.51916e-06
1.06822e-05
4.51472e-06
1.21403e-05
9.73153e-06
2.19133e-05
2.19134e-05
2.19129e-05
2.19131e-05
9.72985e-06
3.97045e-06
1.92856e-06
9.04248e-06
5.14059e-06
9.04732e-06
3.96442e-06
1.9354e-06
3.96349e-06
1.92701e-06
9.03725e-06
5.13891e-06
1.93369e-06
3.95751e-06
9.04273e-06
9.72939e-06
2.1923e-05
2.19231e-05
2.19233e-05
9.73094e-06
2.19234e-05
3.98081e-06
9.05453e-06
5.14657e-06
1.95683e-06
9.04991e-06
1.94947e-06
3.98655e-06
3.97391e-06
9.05002e-06
5.14474e-06
1.95516e-06
1.94794e-06
9.04461e-06
3.97967e-06
1.84686e-05
1.84616e-05
1.84489e-05
1.84557e-05
9.73007e-06
2.1903e-05
2.19031e-05
9.73188e-06
2.19033e-05
2.19035e-05
4.01163e-06
1.99764e-06
5.16455e-06
9.06836e-06
1.99068e-06
9.06406e-06
4.01701e-06
4.00469e-06
1.9962e-06
5.162e-06
9.06381e-06
9.05869e-06
1.98899e-06
4.01012e-06
4.00208e-06
9.05708e-06
1.97022e-06
5.1582e-06
1.97732e-06
3.99653e-06
9.06162e-06
3.99521e-06
9.05181e-06
1.9686e-06
5.15649e-06
3.98961e-06
9.05701e-06
1.97576e-06
9.732e-06
2.18935e-05
2.18936e-05
2.18932e-05
2.18933e-05
9.73009e-06
1.84471e-05
1.84538e-05
1.21313e-05
3.67508e-06
4.49106e-06
1.06759e-05
4.48697e-06
1.06724e-05
1.21343e-05
2.24357e-05
7.21521e-06
8.91213e-06
7.21484e-06
2.24344e-05
1.2131e-05
3.65904e-06
4.47152e-06
1.06672e-05
4.47588e-06
1.21279e-05
1.06706e-05
2.24247e-05
7.21615e-06
8.91318e-06
7.21674e-06
2.24261e-05
1.21311e-05
3.67465e-06
4.49199e-06
1.06767e-05
4.48688e-06
1.06717e-05
1.21342e-05
2.24355e-05
7.21718e-06
8.91322e-06
2.24342e-05
7.21681e-06
1.21309e-05
3.65974e-06
4.47126e-06
1.06666e-05
1.21278e-05
4.47669e-06
1.06714e-05
2.24245e-05
7.21811e-06
8.91426e-06
7.21868e-06
2.24258e-05
1.21374e-05
4.50144e-06
1.06778e-05
3.70278e-06
1.21345e-05
4.50581e-06
1.06813e-05
2.24054e-05
8.9188e-06
7.21756e-06
7.21854e-06
2.24066e-05
2.24164e-05
7.21783e-06
8.91782e-06
2.24151e-05
7.21706e-06
1.21376e-05
3.71605e-06
4.51921e-06
1.06867e-05
4.51474e-06
1.06832e-05
1.21404e-05
1.21373e-05
4.50153e-06
1.06772e-05
3.70275e-06
1.21344e-05
4.50549e-06
1.06822e-05
2.24051e-05
8.91985e-06
7.21951e-06
7.22047e-06
2.24063e-05
2.24161e-05
7.21978e-06
8.91889e-06
2.24148e-05
7.21901e-06
1.21375e-05
3.71614e-06
4.5189e-06
1.06875e-05
4.51543e-06
1.06826e-05
1.21403e-05
1.84686e-05
1.84616e-05
1.847e-05
1.84631e-05
9.7297e-06
2.19028e-05
2.19022e-05
9.73155e-06
2.19031e-05
2.19025e-05
4.00464e-06
1.99574e-06
5.16208e-06
9.06347e-06
1.98922e-06
9.05917e-06
4.00995e-06
4.01269e-06
1.99702e-06
5.16399e-06
9.06825e-06
1.99107e-06
9.06391e-06
4.01544e-06
3.99503e-06
9.05221e-06
1.96871e-06
5.15656e-06
3.98953e-06
1.97556e-06
9.05675e-06
4.00055e-06
9.05695e-06
1.97085e-06
5.15849e-06
3.99755e-06
1.97675e-06
9.0615e-06
9.73169e-06
2.18933e-05
2.18927e-05
2.1893e-05
2.18924e-05
9.72974e-06
1.8447e-05
1.84538e-05
1.84485e-05
1.84552e-05
1.17589e-07
1.17582e-07
1.32868e-07
1.16484e-07
1.16479e-07
1.09883e-07
1.11176e-07
1.74041e-06
7.66205e-07
7.66483e-07
3.58072e-07
1.73328e-06
7.71051e-07
7.71357e-07
1.71093e-06
3.51269e-07
7.56181e-07
7.56372e-07
7.51111e-07
7.51469e-07
1.71838e-06
1.71052e-06
3.50856e-07
7.56629e-07
7.54607e-07
7.51184e-07
7.51978e-07
1.71814e-06
1.71142e-06
3.51468e-07
7.55277e-07
7.56598e-07
7.52229e-07
7.50922e-07
1.71864e-06
1.71076e-06
3.51111e-07
7.56019e-07
7.56309e-07
1.71823e-06
7.51234e-07
7.51528e-07
1.74036e-06
7.66056e-07
7.66355e-07
3.58117e-07
1.73335e-06
7.71115e-07
7.71456e-07
1.79829e-06
3.76601e-07
8.16913e-07
8.16638e-07
8.11356e-07
8.12039e-07
1.80495e-06
1.74035e-06
7.66051e-07
7.66953e-07
3.5781e-07
7.69692e-07
1.73306e-06
7.71531e-07
1.79817e-06
3.76108e-07
8.16893e-07
8.15026e-07
8.11588e-07
8.12321e-07
1.80499e-06
1.74119e-06
7.67297e-07
7.65872e-07
3.57381e-07
7.7142e-07
1.73319e-06
7.70278e-07
1.79807e-06
3.76963e-07
8.15812e-07
8.17216e-07
8.12611e-07
8.11437e-07
1.80538e-06
1.79831e-06
3.76337e-07
8.16763e-07
8.16977e-07
8.11656e-07
8.11962e-07
1.80512e-06
1.34875e-07
1.18728e-07
1.18723e-07
1.19905e-07
1.19898e-07
1.13848e-07
1.12498e-07
1.34864e-07
1.18726e-07
1.18722e-07
1.19903e-07
1.19898e-07
1.13848e-07
1.12497e-07
1.34878e-07
1.18728e-07
1.18728e-07
1.19904e-07
1.19903e-07
1.13849e-07
1.12499e-07
1.34872e-07
1.18728e-07
1.18726e-07
1.19904e-07
1.19901e-07
1.13849e-07
1.12498e-07
1.17587e-07
1.17582e-07
1.32859e-07
1.16482e-07
1.16478e-07
1.09883e-07
1.11176e-07
1.17588e-07
1.17587e-07
1.32874e-07
1.16484e-07
1.16484e-07
1.09884e-07
1.11177e-07
1.17589e-07
1.17586e-07
1.32869e-07
1.16485e-07
1.16482e-07
1.09884e-07
1.11177e-07
1.32298e-07
1.14383e-07
1.14378e-07
1.15417e-07
1.1541e-07
1.08618e-07
1.07381e-07
1.32286e-07
1.14381e-07
1.14376e-07
1.15414e-07
1.15409e-07
1.08618e-07
1.0738e-07
1.32302e-07
1.14383e-07
1.14383e-07
1.15416e-07
1.15415e-07
1.08619e-07
1.07382e-07
1.32296e-07
1.14383e-07
1.1438e-07
1.15416e-07
1.15413e-07
1.08619e-07
1.07382e-07
4.77032e-07
1.15112e-06
1.47452e-06
3.88087e-07
1.46888e-06
3.87216e-07
4.77393e-07
6.56945e-07
1.00067e-06
2.0743e-06
2.80302e-06
6.53378e-07
1.00442e-06
2.0812e-06
4.68477e-07
1.13601e-06
1.44695e-06
3.80054e-07
4.68105e-07
1.45273e-06
3.80926e-07
6.65074e-07
2.10223e-06
2.81758e-06
1.02157e-06
1.01755e-06
2.09518e-06
6.686e-07
4.76205e-07
1.15113e-06
3.88953e-07
1.47506e-06
3.8663e-07
1.46842e-06
4.78884e-07
6.56969e-07
1.00079e-06
2.07425e-06
2.8048e-06
6.53376e-07
1.00453e-06
2.08102e-06
4.70104e-07
1.13611e-06
3.7955e-07
1.44638e-06
4.67492e-07
3.8178e-07
1.45312e-06
6.65059e-07
2.10167e-06
2.81641e-06
1.02167e-06
1.01785e-06
2.09494e-06
6.68604e-07
1.75548e-06
3.63249e-07
7.86281e-07
7.86422e-07
7.81287e-07
7.81585e-07
1.7625e-06
1.69503e-06
3.46313e-07
7.36168e-07
7.36582e-07
1.68778e-06
7.41261e-07
7.41367e-07
4.52629e-07
1.40145e-06
3.66613e-07
1.09408e-06
4.50133e-07
1.40871e-06
3.67408e-07
6.41574e-07
9.88682e-07
2.77928e-06
2.05902e-06
9.82961e-07
2.05352e-06
6.45274e-07
6.33753e-07
2.03193e-06
9.65857e-07
2.76687e-06
9.71715e-07
6.30007e-07
2.03729e-06
4.58647e-07
1.10791e-06
1.43124e-06
3.74104e-07
1.42382e-06
3.73292e-07
4.61214e-07
4.51514e-07
1.40219e-06
3.66114e-07