/*--------------------------------*- C++ -*----------------------------------*\
| =========                 |                                                 |
| \\      /  F ield         | OpenFOAM: The Open Source CFD Toolbox           |
|  \\    /   O peration     | Version:  v1906                                 |
|   \\  /    A nd           | Web:      www.OpenFOAM.com                      |
|    \\/     M anipulation  |                                                 |
\*---------------------------------------------------------------------------*/
FoamFile
{
    version     2.0;
    format      ascii;
    class       volScalarField;
    location    "650";
    object      nut;
}
// * * * * * * * * * * * * * * * * * * * * * * * * * * * * * * * * * * * * * //

dimensions      [0 2 -1 0 0 0 0];


internalField   nonuniform List<scalar> 
43248
(
0.000136841
0.000138619
0.00013862
0.000136689
0.000138637
0.000138618
0.000138629
0.00013864
0.000136842
0.000138633
0.000138647
0.000136799
0.000122368
0.00012236
0.000122368
0.000122383
2.36122e-05
2.36117e-05
7.37331e-05
7.37397e-05
9.1827e-05
5.00155e-05
9.20493e-05
9.18327e-05
5.00189e-05
5.0007e-05
9.20537e-05
0.000120668
9.38115e-05
0.000133969
0.000133108
0.000121317
0.000120672
0.000137832
9.38314e-05
0.000133973
9.35213e-05
0.00013311
0.000121322
2.3612e-05
2.36076e-05
0.000135994
7.37366e-05
7.37248e-05
7.3627e-05
7.36287e-05
2.36127e-05
2.36082e-05
5.00143e-05
9.20587e-05
9.38201e-05
0.000133984
0.000121328
5.00088e-05
9.20533e-05
0.000133987
9.37976e-05
0.000121325
0.000120675
0.000137842
9.38124e-05
0.000133974
9.35411e-05
0.000133112
0.000121328
9.1826e-05
5.00186e-05
5.00033e-05
9.20635e-05
0.000120673
0.000137852
0.00013399
9.38294e-05
0.000133127
9.35239e-05
0.000121328
9.18227e-05
5.00153e-05
4.99999e-05
9.20623e-05
2.361e-05
7.37154e-05
7.37337e-05
2.36118e-05
0.000120681
0.000133997
9.38187e-05
0.000133135
0.000121328
0.000120676
0.00013786
0.000134007
9.38234e-05
0.000133145
9.35214e-05
0.000121324
9.18264e-05
5.00118e-05
9.20696e-05
9.1825e-05
5.00157e-05
5.00004e-05
9.20692e-05
0.000136
7.37302e-05
7.3737e-05
7.36348e-05
7.36283e-05
2.36116e-05
2.36072e-05
2.36113e-05
2.36068e-05
2.36104e-05
2.36094e-05
9.72571e-05
0.000112669
7.37004e-05
4.79387e-05
4.79319e-05
0.000112501
9.73158e-05
9.72862e-05
0.000112656
7.36927e-05
4.79375e-05
4.79241e-05
0.000112504
9.736e-05
7.8819e-05
2.14921e-05
2.14902e-05
2.14904e-05
2.14878e-05
7.88427e-05
3.62668e-05
4.05366e-05
8.80232e-05
9.19278e-05
3.62651e-05
4.05356e-05
8.81076e-05
2.01019e-05
5.00128e-05
7.60343e-05
7.59924e-05
2.0104e-05
3.62689e-05
9.19533e-05
4.05391e-05
8.82053e-05
4.05405e-05
8.81232e-05
3.62705e-05
3.62687e-05
4.05368e-05
8.80426e-05
9.19298e-05
3.62672e-05
4.05357e-05
8.81202e-05
2.01031e-05
5.00115e-05
7.60593e-05
7.6018e-05
2.01051e-05
2.01037e-05
7.59713e-05
5.001e-05
2.01017e-05
7.60129e-05
3.62702e-05
9.1956e-05
4.05394e-05
8.82249e-05
4.05406e-05
8.81356e-05
3.62725e-05
2.36099e-05
2.36097e-05
7.8796e-05
2.14865e-05
2.1489e-05
7.87779e-05
2.14885e-05
2.1491e-05
9.72765e-05
0.000112658
7.36952e-05
4.79329e-05
0.000112491
4.79264e-05
9.73262e-05
9.72596e-05
0.000112667
7.36959e-05
4.79381e-05
4.79368e-05
0.000112507
9.73147e-05
9.71998e-05
4.79207e-05
0.000112242
7.36684e-05
0.000112414
9.71498e-05
4.79234e-05
9.71909e-05
4.79286e-05
0.000112258
7.36569e-05
9.71334e-05
4.79307e-05
0.000112424
7.88205e-05
2.14902e-05
2.14927e-05
2.14881e-05
2.14906e-05
7.88433e-05
2.36105e-05
2.36103e-05
2.01033e-05
5.0011e-05
7.60575e-05
7.60166e-05
2.01053e-05
3.62706e-05
9.19587e-05
8.8216e-05
4.05391e-05
8.81403e-05
4.05405e-05
3.62716e-05
2.01016e-05
5.00072e-05
7.6031e-05
7.59886e-05
2.01036e-05
3.62678e-05
9.19565e-05
4.05389e-05
8.82033e-05
4.05403e-05
8.81226e-05
3.62693e-05
3.62708e-05
8.80336e-05
4.05321e-05
9.19407e-05
3.62661e-05
8.81283e-05
4.05393e-05
2.01037e-05
5.00103e-05
7.60618e-05
7.60177e-05
2.01058e-05
2.01043e-05
7.59711e-05
5.00109e-05
2.01023e-05
7.60151e-05
3.62688e-05
9.19504e-05
8.82288e-05
4.05437e-05
8.81347e-05
4.05361e-05
3.62752e-05
3.62684e-05
4.0532e-05
8.80266e-05
9.19423e-05
3.62639e-05
4.05392e-05
8.81183e-05
2.01025e-05
5.00069e-05
7.60404e-05
7.59993e-05
2.01045e-05
2.01031e-05
7.59526e-05
5.00076e-05
2.01011e-05
7.59935e-05
3.62672e-05
9.19452e-05
4.05436e-05
8.82205e-05
4.0536e-05
8.81267e-05
3.62719e-05
2.36079e-05
9.72706e-05
0.000112635
7.36861e-05
4.79274e-05
0.000112492
4.79263e-05
9.73196e-05
9.72607e-05
0.000112666
7.36989e-05
4.79434e-05
4.79334e-05
0.000112504
9.73119e-05
7.88216e-05
2.14891e-05
2.14925e-05
2.1487e-05
2.14904e-05
7.88389e-05
2.36097e-05
3.62687e-05
8.80249e-05
4.05321e-05
9.19435e-05
3.62642e-05
8.81205e-05
4.05392e-05
2.01027e-05
5.00097e-05
7.60395e-05
7.59983e-05
2.01047e-05
2.01033e-05
7.59931e-05
3.62673e-05
9.19514e-05
8.82154e-05
4.05436e-05
8.81258e-05
4.05361e-05
3.62724e-05
3.627e-05
8.80315e-05
4.05322e-05
9.19456e-05
3.62661e-05
8.8123e-05
4.05393e-05
2.01033e-05
5.00073e-05
7.60541e-05
7.60095e-05
2.01054e-05
2.0104e-05
7.59637e-05
5.00081e-05
2.01019e-05
7.60082e-05
3.62694e-05
9.19504e-05
8.82195e-05
4.05437e-05
8.81301e-05
4.05362e-05
3.62734e-05
7.87974e-05
2.1489e-05
2.14861e-05
7.87795e-05
2.14911e-05
2.14882e-05
9.72619e-05
0.000112677
7.37033e-05
4.79386e-05
0.000112509
4.79373e-05
9.73118e-05
9.72789e-05
0.000112668
7.36965e-05
4.79341e-05
0.000112493
4.79242e-05
9.73289e-05
9.71854e-05
4.79291e-05
0.000112265
7.36627e-05
9.71354e-05
0.000112422
4.79313e-05
9.72029e-05
4.79166e-05
0.000112247
7.36683e-05
9.71523e-05
0.000112424
4.79256e-05
7.88221e-05
2.14927e-05
2.14899e-05
2.14907e-05
2.14878e-05
7.88449e-05
2.36095e-05
2.36093e-05
2.36091e-05
2.36089e-05
0.000119488
0.000136557
0.000129876
0.000129917
0.00012965
0.000129654
0.000119625
0.000119489
0.00013664
0.000129854
0.000129856
0.000129678
0.000129673
0.000119615
0.000119492
0.000136548
0.000129891
0.00012987
0.000129622
0.000129638
0.000119597
0.000119493
0.00013661
0.000129902
0.000129897
0.000129685
0.0001297
0.000119622
0.000120247
0.000120255
0.000119979
0.000132085
0.000131845
0.0001217
0.000120245
0.00012025
0.000119977
0.000119983
0.000132085
0.000131845
0.000120253
0.000120261
0.000119993
0.000132082
0.000131842
0.000121723
0.000120257
0.000120267
0.000119989
0.000119999
0.000132085
0.000131844
0.00013234
0.000117025
0.000134059
0.00012098
0.000132183
0.000117295
0.000134421
0.000128473
0.000122147
9.36874e-05
0.000107726
0.000121968
0.000107532
0.000128689
0.00013272
0.000121019
0.000117587
0.00013487
0.000117333
0.000134645
0.000132705
0.000132419
0.000117036
0.000134055
0.000120985
0.000132192
0.000117308
0.000134435
0.000128411
0.000122149
9.36757e-05
0.000107737
0.000107545
0.000121986
0.000128791
0.000128281
0.000107313
0.000121609
9.36775e-05
0.000128029
0.000107508
0.000121799
0.000132744
0.000121021
0.000117611
0.000134888
0.000117337
0.000134639
0.00013294
0.000119346
0.000136082
0.000129226
0.000129229
0.000129392
0.000119217
0.000129397
0.00012839
0.000122193
9.36885e-05
0.000107746
0.000121956
0.000107544
0.000128787
0.000132682
0.000121025
0.000117602
0.000135036
0.000117343
0.000134575
0.00013297
0.000128496
0.000122132
9.36792e-05
0.000107719
0.000107531
0.000121977
0.000128673
0.000132763
0.000121021
0.000135027
0.000117595
0.000134605
0.000117333
0.000132907
0.000132486
0.000117037
0.000134046
0.000120989
0.000132017
0.000117309
0.000134436
0.000128374
0.000122145
9.36918e-05
0.000107738
0.000122012
0.00010754
0.000128769
0.000128294
0.000107305
0.000121641
9.36592e-05
0.000127937
0.000121774
0.000107518
0.000132603
0.000121025
0.000117614
0.000134885
0.000117338
0.000134636
0.000132974
0.000132441
0.000134068
0.000117036
0.000120989
0.000132169
0.000134426
0.000117307
0.000128375
0.000122195
9.36783e-05
0.000107744
0.000107539
0.000121976
0.000128777
0.000128297
0.000107309
0.000121614
9.36755e-05
0.000127938
0.000107505
0.000121816
0.000132709
0.000121022
0.000134881
0.00011761
0.000134654
0.000117334
0.000132959
0.000132239
0.000134221
0.000117035
0.000120984
0.000132261
0.000134253
0.000117298
0.000128524
0.00012216
9.36893e-05
0.000107744
0.000121984
0.000107538
0.000128683
0.000128135
0.000107502
0.000132731
0.000121019
0.000134933
0.000117598
0.000134742
0.000117336
0.000132899
0.00013234
0.000134116
0.000117036
0.000120988
0.000132224
0.000134347
0.000117309
0.000128467
0.00012214
9.36791e-05
0.000107733
0.00010754
0.000121999
0.000128696
0.000128207
0.000107304
0.000121639
9.3674e-05
0.000128031
0.000107514
0.000121773
0.000132735
0.000121027
0.000134772
0.00011761
0.000134721
0.000117339
0.00013289
0.000119348
0.000136064
0.000129255
0.000129262
0.000119223
0.000129393
0.000129394
0.000150049
0.000101455
0.000101449
8.23626e-05
8.26614e-05
0.000102205
0.000102193
8.25951e-05
0.000102231
0.000102189
0.000102242
0.000102207
8.27379e-05
0.000102234
0.000102232
8.26834e-05
8.23549e-05
8.20679e-05
0.00010143
0.000101407
9.92349e-05
9.9226e-05
8.24896e-05
8.19763e-05
0.000101434
0.000101405
9.92667e-05
9.92247e-05
0.000101422
9.92732e-05
9.924e-05
8.23379e-05
8.21518e-05
0.000101447
9.9267e-05
9.92648e-05
8.20961e-05
0.000151076
0.000151076
0.000151068
0.000151072
6.999e-05
4.95561e-05
6.91083e-05
4.95604e-05
2.36299e-05
2.36266e-05
7.00083e-05
4.95499e-05
6.91028e-05
4.95638e-05
0.000150051
0.000150043
0.000150049
0.000146971
0.000146972
0.000146963
0.000146969
6.70083e-05
6.56844e-05
0.000125986
0.000100696
6.59857e-05
6.63886e-05
0.000124963
2.36276e-05
2.36243e-05
6.69917e-05
0.000125994
6.57272e-05
0.000100688
6.601e-05
0.000124961
6.6357e-05
6.11131e-05
6.11118e-05
8.23465e-05
6.14328e-05
6.1434e-05
2.3633e-05
2.36366e-05
2.36318e-05
2.36353e-05
8.27889e-05
6.0939e-05
6.09408e-05
6.0605e-05
6.06089e-05
6.79442e-05
4.95498e-05
4.95459e-05
6.88825e-05
6.79412e-05
4.95564e-05
4.95415e-05
6.88914e-05
6.46441e-05
0.000103036
6.53796e-05
0.000126988
6.47321e-05
0.000128032
6.55214e-05
6.46288e-05
0.000103016
6.53765e-05
0.000126977
6.47513e-05
0.000128022
6.55667e-05
2.3633e-05
2.36365e-05
8.29653e-05
6.09603e-05
6.09582e-05
6.05977e-05
6.05889e-05
2.36333e-05
2.36369e-05
6.79365e-05
4.95531e-05
4.95378e-05
6.89008e-05
6.46614e-05
0.00010304
6.53797e-05
0.000126993
6.47306e-05
0.000128042
6.55192e-05
6.79389e-05
4.95488e-05
4.95331e-05
6.8893e-05
6.45801e-05
0.000103009
0.000126984
6.54205e-05
0.000128031
6.46937e-05
6.55829e-05
6.46006e-05
0.000103066
6.54213e-05
0.00012699
6.46964e-05
0.000128034
6.55811e-05
6.79485e-05
4.9551e-05
4.95467e-05
6.88922e-05
6.46046e-05
0.000103029
0.000126984
6.54049e-05
0.000128029
6.47224e-05
6.55481e-05
6.79517e-05
4.9547e-05
4.95433e-05
6.88823e-05
2.36307e-05
2.36341e-05
8.28367e-05
6.0935e-05
6.09409e-05
6.06002e-05
6.06091e-05
2.36324e-05
2.36359e-05
6.46288e-05
0.000103055
0.000126989
6.53814e-05
0.000128037
6.47405e-05
6.55756e-05
6.4619e-05
0.000103053
0.000126996
6.53892e-05
0.000128043
6.47361e-05
6.55545e-05
6.79264e-05
4.9551e-05
4.95358e-05
6.89262e-05
6.79272e-05
4.95521e-05
4.9537e-05
6.89125e-05
8.27621e-05
6.09411e-05
6.09412e-05
6.06111e-05
6.06099e-05
2.36321e-05
2.36358e-05
2.36316e-05
2.36351e-05
2.363e-05
2.36265e-05
2.36289e-05
2.36255e-05
6.11087e-05
6.11125e-05
8.22577e-05
6.14343e-05
6.1434e-05
2.362e-05
2.36237e-05
2.36196e-05
2.36226e-05
8.20596e-05
6.19014e-05
6.19079e-05
6.15989e-05
6.15986e-05
6.9998e-05
4.95536e-05
6.91055e-05
4.95673e-05
6.69387e-05
6.57263e-05
0.000125984
0.00010066
6.60421e-05
6.63425e-05
0.000124963
6.69922e-05
6.57367e-05
0.000125975
0.000100648
6.60057e-05
6.63526e-05
0.000124955
7.01987e-05
4.95706e-05
4.95667e-05
7.10242e-05
7.02001e-05
4.95774e-05
4.95643e-05
7.10303e-05
6.74746e-05
9.99452e-05
6.72918e-05
0.000122972
6.67001e-05
0.00012397
6.84059e-05
6.74429e-05
9.99233e-05
6.72994e-05
0.000122965
6.67038e-05
0.000123962
6.84423e-05
6.11002e-05
6.1092e-05
8.22113e-05
6.14534e-05
6.14515e-05
2.36303e-05
2.36269e-05
2.36205e-05
2.36236e-05
8.22e-05
6.19231e-05
6.19219e-05
6.15855e-05
6.15773e-05
2.36208e-05
2.36239e-05
6.69416e-05
6.5725e-05
0.000125996
0.000100688
6.60395e-05
6.63429e-05
0.000124967
7.00025e-05
4.95457e-05
6.91024e-05
4.95599e-05
6.69972e-05
0.000125983
6.56784e-05
0.000100645
6.59849e-05
0.000124963
6.6396e-05
7.01953e-05
4.9574e-05
4.95607e-05
7.10386e-05
6.74761e-05
9.99487e-05
6.72926e-05
0.000122974
6.67001e-05
0.00012398
6.83913e-05
7.01923e-05
4.95699e-05
4.95563e-05
7.10616e-05
6.74297e-05
9.99209e-05
0.000122973
6.73448e-05
0.000123969
6.66453e-05
6.84567e-05
7.00167e-05
4.95566e-05
6.91083e-05
4.95618e-05
6.69805e-05
0.000125982
6.57084e-05
0.000100663
6.60092e-05
0.000124962
6.63836e-05
6.9987e-05
4.9553e-05
6.91138e-05
4.95577e-05
6.742e-05
9.997e-05
6.73472e-05
0.000122973
6.66535e-05
0.000123971
6.8463e-05
7.01906e-05
4.95721e-05
4.95673e-05
7.10452e-05
6.74473e-05
9.9937e-05
0.000122973
6.73025e-05
0.000123969
6.66727e-05
6.84323e-05
7.02057e-05
4.95679e-05
4.95638e-05
7.10256e-05
6.11038e-05
6.11124e-05
8.23909e-05
6.14284e-05
6.14339e-05
2.36293e-05
2.36259e-05
2.36181e-05
2.36213e-05
8.19954e-05
6.19022e-05
6.19032e-05
6.15898e-05
6.15987e-05
2.36198e-05
2.3623e-05
6.69837e-05
0.000125996
6.57245e-05
0.000100688
6.6015e-05
0.000124974
6.6351e-05
7.00294e-05
4.95481e-05
6.90837e-05
4.95619e-05
7.00216e-05
4.95492e-05
6.90962e-05
4.95629e-05
6.74317e-05
9.99643e-05
0.000122971
6.7306e-05
0.000123979
6.66922e-05
6.84502e-05
6.74419e-05
9.99625e-05
0.000122983
6.73077e-05
0.000123982
6.66973e-05
6.84396e-05
7.01793e-05
4.95719e-05
4.95587e-05
7.10516e-05
7.01882e-05
4.9573e-05
4.95598e-05
7.10524e-05
2.36292e-05
2.36257e-05
2.36286e-05
2.36252e-05
8.20777e-05
6.19021e-05
6.1903e-05
6.15989e-05
6.15968e-05
2.36195e-05
2.36229e-05
2.3619e-05
2.36222e-05
3.6196e-05
6.96635e-05
4.03456e-05
7.10893e-05
4.03472e-05
7.07547e-05
3.61989e-05
2.02173e-05
6.83239e-05
4.95552e-05
2.02169e-05
6.84492e-05
3.61956e-05
6.94411e-05
4.03403e-05
7.03535e-05
3.61927e-05
4.03392e-05
7.06948e-05
2.0214e-05
6.86159e-05
4.95614e-05
6.84947e-05
2.02144e-05
2.36298e-05
2.36268e-05
3.61979e-05
6.96552e-05
7.11111e-05
4.03454e-05
7.07593e-05
4.03469e-05
3.62008e-05
2.02189e-05
6.83409e-05
4.95586e-05
2.02185e-05
6.84809e-05
3.61975e-05
6.94704e-05
7.03566e-05
4.03399e-05
3.61945e-05
7.07163e-05
4.0339e-05
2.02156e-05
6.86478e-05
4.95556e-05
6.8512e-05
2.0216e-05
2.36274e-05
2.36244e-05
7.08357e-05
2.15529e-05
2.155e-05
2.15528e-05
2.15499e-05
7.09692e-05
7.38751e-05
7.09702e-05
4.71479e-05
6.11899e-05
7.37584e-05
7.1148e-05
4.71612e-05
7.39549e-05
7.09439e-05
4.71393e-05
6.119e-05
7.37672e-05
7.11924e-05
4.7153e-05
7.0801e-05
2.1556e-05
2.15531e-05
7.06648e-05
2.15562e-05
2.15533e-05
7.41877e-05
4.7174e-05
6.13586e-05
7.17771e-05
7.15982e-05
4.7161e-05
7.43047e-05
7.41966e-05
4.71655e-05
6.13568e-05
7.18202e-05
7.15758e-05
4.71523e-05
7.43801e-05
2.36333e-05
2.36363e-05
2.3632e-05
2.36351e-05
7.04439e-05
2.15634e-05
2.15595e-05
7.03114e-05
2.15634e-05
2.15596e-05
7.32944e-05
7.05237e-05
6.08586e-05
4.71452e-05
4.71407e-05
7.03294e-05
7.34702e-05
7.33356e-05
7.05497e-05
6.08623e-05
4.71385e-05
4.71243e-05
7.03167e-05
7.34886e-05
7.30232e-05
4.71276e-05
6.96937e-05
6.06874e-05
7.28517e-05
4.71321e-05
6.98876e-05
7.30779e-05
4.71103e-05
6.96816e-05
6.06888e-05
7.28834e-05
4.71246e-05
6.99227e-05
7.04918e-05
2.15601e-05
2.15562e-05
2.156e-05
2.15561e-05
7.0622e-05
3.61888e-05
4.0329e-05
6.95157e-05
6.82937e-05
3.61859e-05
4.03265e-05
6.9853e-05
2.02197e-05
4.95507e-05
6.82772e-05
2.02202e-05
6.81439e-05
2.02231e-05
6.79651e-05
4.95448e-05
2.02226e-05
6.80989e-05
3.61893e-05
6.85367e-05
4.03322e-05
7.02837e-05
3.61923e-05
4.03337e-05
6.99402e-05
3.61906e-05
4.03293e-05
6.95174e-05
6.82982e-05
3.61878e-05
4.03266e-05
6.98737e-05
2.02209e-05
4.95476e-05
6.83106e-05
6.8161e-05
2.02213e-05
2.02242e-05
6.79736e-05
4.95506e-05
2.02237e-05
6.81318e-05
3.61912e-05
6.8536e-05
4.03325e-05
7.02958e-05
4.03341e-05
6.99473e-05
3.61941e-05
2.36332e-05
2.36363e-05
7.04486e-05
2.15604e-05
2.15627e-05
7.03042e-05
2.15605e-05
2.15628e-05
7.33473e-05
7.0528e-05
6.0851e-05
4.71361e-05
7.03327e-05
4.71311e-05
7.3511e-05
7.32896e-05
7.05462e-05
6.08431e-05
4.71438e-05
4.71388e-05
7.02992e-05
7.3467e-05
7.30548e-05
4.71178e-05
6.96952e-05
6.07086e-05
6.98837e-05
7.29117e-05
4.71229e-05
7.30284e-05
4.71252e-05
6.96624e-05
6.07064e-05
7.28427e-05
4.71307e-05
6.9918e-05
7.04871e-05
2.15572e-05
2.15595e-05
2.15571e-05
2.15594e-05
7.06268e-05
2.36335e-05
2.36366e-05
3.61906e-05
6.95157e-05
4.03288e-05
6.83217e-05
3.61877e-05
6.98752e-05
4.03263e-05
2.02214e-05
4.9544e-05
6.83076e-05
2.02218e-05
6.81594e-05
2.02247e-05
6.79761e-05
4.95469e-05
2.02242e-05
6.81297e-05
3.61911e-05
6.8527e-05
7.03057e-05
4.03319e-05
3.61941e-05
6.99423e-05
4.03334e-05
3.61881e-05
4.03286e-05
6.95124e-05
6.83138e-05
3.61851e-05
4.03259e-05
6.98495e-05
2.02194e-05
4.95392e-05
6.82812e-05
6.81303e-05
2.022e-05
2.02228e-05
6.79494e-05
4.9543e-05
2.02223e-05
6.81023e-05
3.61886e-05
6.85286e-05
4.03318e-05
7.02756e-05
4.03334e-05
6.99419e-05
3.61916e-05
3.61912e-05
6.95113e-05
4.03193e-05
6.8303e-05
3.61878e-05
6.9881e-05
4.03315e-05
2.02217e-05
4.95514e-05
6.83028e-05
6.81704e-05
2.02221e-05
2.0225e-05
6.79954e-05
4.95457e-05
2.02246e-05
6.81218e-05
3.61913e-05
6.85396e-05
7.03053e-05
4.03381e-05
6.99408e-05
4.03265e-05
3.61947e-05
3.61887e-05
4.03282e-05
6.95068e-05
6.829e-05
3.61857e-05
4.03257e-05
6.987e-05
2.02203e-05
4.95479e-05
6.828e-05
6.81537e-05
2.02207e-05
2.02236e-05
6.79747e-05
4.95418e-05
2.02232e-05
6.81017e-05
3.61892e-05
6.85439e-05
4.03316e-05
7.02959e-05
4.03332e-05
6.99347e-05
3.61922e-05
2.36309e-05
2.3634e-05
7.0447e-05
2.15592e-05
2.15626e-05
7.03117e-05
2.15593e-05
2.15626e-05
7.33645e-05
7.05513e-05
6.08545e-05
4.71382e-05
7.03151e-05
4.71243e-05
7.34836e-05
7.33188e-05
7.05525e-05
6.08624e-05
4.71447e-05
4.714e-05
7.03082e-05
7.3444e-05
7.30397e-05
4.711e-05
6.96697e-05
6.06815e-05
6.99128e-05
7.29194e-05
4.71243e-05
7.30123e-05
4.71265e-05
6.96785e-05
6.0689e-05
7.28768e-05
4.71316e-05
6.99163e-05
7.04921e-05
2.1556e-05
2.15593e-05
2.15559e-05
2.15592e-05
7.06245e-05
2.36326e-05
2.36357e-05
3.61891e-05
6.95028e-05
4.03192e-05
6.83275e-05
3.61857e-05
6.98758e-05
4.03314e-05
2.02205e-05
4.95419e-05
6.82899e-05
6.81389e-05
2.0221e-05
2.02238e-05
6.79534e-05
4.95451e-05
2.02233e-05
6.81114e-05
3.61893e-05
6.85181e-05
7.02987e-05
4.0338e-05
6.99322e-05
4.03264e-05
3.61926e-05
3.61909e-05
6.95158e-05
4.03284e-05
6.83266e-05
3.6188e-05
6.9876e-05
4.03259e-05
2.02216e-05
4.9543e-05
6.83059e-05
6.81593e-05
2.0222e-05
2.02249e-05
6.79768e-05
4.95462e-05
2.02244e-05
6.81276e-05
3.61914e-05
6.85229e-05
7.02976e-05
4.03318e-05
6.99463e-05
4.03334e-05
3.61944e-05
7.04493e-05
2.15627e-05
2.15598e-05
7.03065e-05
2.15628e-05
2.15599e-05
7.33245e-05
7.05108e-05
6.08629e-05
4.71483e-05
7.34424e-05
7.03332e-05
4.71345e-05
7.33272e-05
7.05604e-05
6.08623e-05
4.71399e-05
7.35215e-05
7.03099e-05
4.71259e-05
7.29965e-05
4.71202e-05
6.97033e-05
6.069e-05
7.28812e-05
6.98832e-05
4.71342e-05
7.30775e-05
4.71115e-05
6.96771e-05
6.06889e-05
7.2889e-05
6.99236e-05
4.71258e-05
7.0489e-05
2.15595e-05
2.15566e-05
7.06269e-05
2.15593e-05
2.15564e-05
2.36325e-05
2.36354e-05
2.36318e-05
2.36349e-05
2.36297e-05
2.36268e-05
2.36287e-05
2.36258e-05
7.08395e-05
2.15535e-05
2.15496e-05
2.15534e-05
2.15495e-05
7.09632e-05
7.39032e-05
7.0963e-05
4.71534e-05
6.1187e-05
7.37345e-05
4.71582e-05
7.11569e-05
7.39252e-05
7.09541e-05
4.71382e-05
6.11902e-05
7.37878e-05
4.71516e-05
7.11728e-05
7.07948e-05
2.15567e-05
2.15528e-05
7.06668e-05
2.15568e-05
2.15529e-05
7.41631e-05
4.71704e-05
6.13469e-05
7.17856e-05
4.71668e-05
7.4333e-05
7.15924e-05
7.42191e-05
4.71642e-05
6.13583e-05
7.17862e-05
4.71508e-05
7.43521e-05
7.15953e-05
2.36206e-05
2.36234e-05
2.36195e-05
2.36224e-05
7.11289e-05
2.15501e-05
2.15462e-05
7.1002e-05
2.155e-05
2.15468e-05
7.49897e-05
7.3042e-05
6.18299e-05
4.71897e-05
4.71902e-05
7.28317e-05
7.51719e-05
7.50379e-05
7.30302e-05
6.18224e-05
4.71927e-05
4.71768e-05
7.284e-05
7.51923e-05
7.47586e-05
4.71788e-05
7.22083e-05
6.16705e-05
7.45718e-05
4.71825e-05
7.24231e-05
7.47708e-05
4.71635e-05
7.22311e-05
6.16728e-05
7.46391e-05
4.71765e-05
7.24161e-05
7.11624e-05
2.15462e-05
2.15439e-05
2.15465e-05
2.15436e-05
7.12849e-05
3.6198e-05
6.96639e-05
4.03458e-05
7.11032e-05
4.03475e-05
7.07684e-05
3.62007e-05
2.02184e-05
6.83395e-05
4.95619e-05
2.0218e-05
6.84838e-05
3.61975e-05
6.9448e-05
4.03405e-05
7.03645e-05
4.03396e-05
3.61946e-05
7.07068e-05
2.02151e-05
6.86521e-05
4.95589e-05
6.85128e-05
2.02155e-05
3.62018e-05
4.03535e-05
7.11454e-05
7.05098e-05
3.61992e-05
4.03526e-05
7.14727e-05
2.02079e-05
4.95723e-05
6.89368e-05
6.88251e-05
2.02082e-05
2.02112e-05
6.86617e-05
4.95662e-05
2.02111e-05
6.87797e-05
3.6202e-05
7.072e-05
4.03592e-05
7.18437e-05
4.03604e-05
7.15258e-05
3.62048e-05
3.62039e-05
4.03535e-05
7.11586e-05
7.05185e-05
3.62012e-05
4.03527e-05
7.14954e-05
2.02093e-05
4.95691e-05
6.89718e-05
6.88415e-05
2.02097e-05
2.02126e-05
6.86798e-05
4.95722e-05
2.02122e-05
6.88138e-05
3.62042e-05
7.07212e-05
4.03594e-05
7.1866e-05
4.03606e-05
7.15351e-05
3.62069e-05
7.08345e-05
2.15506e-05
2.15529e-05
2.15505e-05
2.15528e-05
7.09674e-05
7.39401e-05
7.09591e-05
4.7144e-05
6.12101e-05
4.71491e-05
7.37772e-05
7.11785e-05
7.38987e-05
7.09355e-05
4.71518e-05
6.12088e-05
7.11803e-05
7.37328e-05
4.71567e-05
7.07999e-05
2.15538e-05
2.15561e-05
2.15539e-05
7.06627e-05
2.15562e-05
7.42043e-05
4.71616e-05
6.13464e-05
7.1806e-05
4.71572e-05
7.1587e-05
7.43675e-05
7.41625e-05
4.7169e-05
6.13377e-05
7.18141e-05
7.15647e-05
4.71652e-05
7.43302e-05
2.36301e-05
2.36271e-05
2.36206e-05
2.36235e-05
7.11301e-05
2.15473e-05
2.15495e-05
7.10027e-05
2.15474e-05
2.15496e-05
7.50566e-05
7.30477e-05
6.18203e-05
4.71855e-05
7.28319e-05
4.71822e-05
7.5171e-05
7.4998e-05
7.30564e-05
6.18101e-05
4.71931e-05
4.719e-05
7.28087e-05
7.51592e-05
7.47611e-05
4.71698e-05
7.22064e-05
6.16932e-05
7.2433e-05
7.46292e-05
4.71741e-05
7.47479e-05
4.71774e-05
7.21868e-05
6.16909e-05
7.45836e-05
4.71817e-05
7.24354e-05
7.11648e-05
2.15442e-05
2.15464e-05
2.1544e-05
2.15463e-05
7.12899e-05
2.36209e-05
2.36238e-05
3.61954e-05
6.96547e-05
4.03452e-05
7.10816e-05
4.03468e-05
7.07621e-05
3.61982e-05
2.02171e-05
6.83104e-05
4.95544e-05
2.02165e-05
6.84537e-05
3.6195e-05
6.94624e-05
4.03397e-05
7.03576e-05
4.0339e-05
3.61921e-05
7.06828e-05
2.02137e-05
6.86213e-05
4.95508e-05
6.84837e-05
2.02142e-05
3.62039e-05
7.11514e-05
4.03531e-05
7.05338e-05
3.62011e-05
7.14942e-05
4.03524e-05
2.02097e-05
4.95655e-05
6.89695e-05
6.8839e-05
2.02102e-05
2.02131e-05
6.86794e-05
4.95686e-05
2.02127e-05
6.88111e-05
3.62041e-05
7.07156e-05
7.18633e-05
4.0359e-05
7.15329e-05
4.03602e-05
3.62068e-05
3.62013e-05
4.03528e-05
7.11534e-05
7.05373e-05
3.61986e-05
4.03521e-05
7.14639e-05
2.02078e-05
4.95607e-05
6.89415e-05
6.88125e-05
2.02084e-05
2.02113e-05
6.86505e-05
4.95646e-05
2.02107e-05
6.87834e-05
3.62017e-05
7.07062e-05
4.03588e-05
7.1838e-05
4.03599e-05
7.15328e-05
3.62043e-05
3.61982e-05
6.96617e-05
7.11098e-05
4.03512e-05
7.07638e-05
4.03392e-05
3.62014e-05
2.02192e-05
6.83493e-05
4.95565e-05
6.84753e-05
2.02188e-05
3.61981e-05
6.94517e-05
7.03574e-05
4.03333e-05
7.07146e-05
3.61948e-05
4.03442e-05
2.02159e-05
6.86432e-05
4.95622e-05
6.85213e-05
2.02163e-05
3.6196e-05
6.96707e-05
4.0345e-05
7.1092e-05
4.03465e-05
7.07584e-05
3.61988e-05
2.02178e-05
6.83314e-05
4.95526e-05
2.02174e-05
6.84534e-05
3.61956e-05
6.94363e-05
4.03395e-05
7.03505e-05
3.61926e-05
4.03387e-05
7.07041e-05
2.02145e-05
6.86208e-05
4.95585e-05
6.85033e-05
2.02149e-05
3.62045e-05
7.11564e-05
4.03468e-05
7.05389e-05
3.62014e-05
7.14854e-05
4.03581e-05
2.02101e-05
4.95728e-05
6.89635e-05
6.88507e-05
2.02104e-05
2.02134e-05
6.86884e-05
4.95673e-05
2.0213e-05
6.88069e-05
3.62045e-05
7.07086e-05
7.18541e-05
4.03649e-05
7.15418e-05
4.03533e-05
3.62074e-05
3.62019e-05
4.03526e-05
7.1155e-05
7.05101e-05
3.61992e-05
4.03519e-05
7.1474e-05
2.02087e-05
4.95692e-05
6.89421e-05
6.88318e-05
2.0209e-05
2.0212e-05
6.86702e-05
4.95633e-05
2.02117e-05
6.87852e-05
3.62023e-05
7.07248e-05
4.03586e-05
7.18454e-05
4.03597e-05
7.15351e-05
3.62049e-05
7.08411e-05
2.15494e-05
2.15527e-05
2.15493e-05
2.15527e-05
7.09649e-05
7.39159e-05
7.09484e-05
4.7138e-05
6.11843e-05
4.71512e-05
7.37984e-05
7.11629e-05
7.38769e-05
7.09473e-05
4.71527e-05
6.119e-05
7.11601e-05
7.37611e-05
4.71577e-05
7.07959e-05
2.15526e-05
2.15559e-05
2.15527e-05
7.06689e-05
2.1556e-05
7.42277e-05
4.7164e-05
6.13495e-05
7.17855e-05
4.71508e-05
7.15938e-05
7.43421e-05
7.41889e-05
4.717e-05
6.13584e-05
7.17788e-05
7.15941e-05
4.7166e-05
7.43044e-05
2.36291e-05
2.36262e-05
2.36182e-05
2.36212e-05
7.11277e-05
2.1546e-05
2.15494e-05
7.10074e-05
2.15461e-05
2.15495e-05
7.50635e-05
7.30286e-05
6.18134e-05
4.71879e-05
7.28411e-05
4.71748e-05
7.51742e-05
7.50264e-05
7.30194e-05
6.18304e-05
4.71939e-05
4.71908e-05
7.28475e-05
7.51371e-05
7.47586e-05
4.71631e-05
7.22221e-05
6.16676e-05
7.24134e-05
7.46487e-05
4.71756e-05
7.47229e-05
4.71781e-05
7.22276e-05
6.16733e-05
7.46116e-05
4.71825e-05
7.24084e-05
7.11702e-05
2.15429e-05
2.15462e-05
2.15428e-05
2.15462e-05
7.12879e-05
2.36199e-05
2.36228e-05
3.61961e-05
6.964e-05
7.11043e-05
4.03511e-05
7.07542e-05
4.03391e-05
3.61993e-05
2.02181e-05
6.83183e-05
4.95565e-05
6.84624e-05
2.02176e-05
3.6196e-05
6.94854e-05
7.03482e-05
4.03331e-05
7.07086e-05
3.61927e-05
4.03441e-05
2.02147e-05
6.86306e-05
4.95534e-05
6.84918e-05
2.02152e-05
3.61982e-05
6.96521e-05
7.11027e-05
4.03452e-05
7.0767e-05
4.03467e-05
3.6201e-05
2.02191e-05
6.83385e-05
4.95575e-05
2.02187e-05
6.84798e-05
3.61978e-05
6.94748e-05
7.03636e-05
4.03397e-05
3.61949e-05
7.07092e-05
4.03389e-05
2.02158e-05
6.8648e-05
4.95545e-05
6.85102e-05
2.02162e-05
3.62024e-05
7.11479e-05
4.03466e-05
7.05432e-05
3.61993e-05
7.14781e-05
4.0358e-05
2.02089e-05
4.95633e-05
6.89501e-05
6.88205e-05
2.02094e-05
2.02122e-05
6.86585e-05
4.95667e-05
2.02118e-05
6.8792e-05
3.62024e-05
7.07061e-05
7.18464e-05
4.03648e-05
7.15335e-05
4.03532e-05
3.62053e-05
3.62042e-05
7.11582e-05
4.03528e-05
7.05469e-05
3.62015e-05
7.14961e-05
4.03521e-05
2.02099e-05
4.95644e-05
6.89685e-05
6.88376e-05
2.02104e-05
2.02133e-05
6.86771e-05
4.95677e-05
2.02129e-05
6.88104e-05
3.62045e-05
7.07079e-05
7.18642e-05
4.03588e-05
7.1535e-05
4.03599e-05
3.62072e-05
2.36289e-05
2.3626e-05
2.36283e-05
2.36254e-05
7.11327e-05
2.15495e-05
2.15466e-05
7.10031e-05
2.15496e-05
2.15467e-05
7.50181e-05
7.30312e-05
6.18317e-05
4.71978e-05
7.28385e-05
4.71847e-05
7.51453e-05
7.50308e-05
7.30525e-05
6.18291e-05
4.71893e-05
7.28253e-05
4.71762e-05
7.52086e-05
7.4729e-05
4.71731e-05
7.2222e-05
6.16721e-05
7.46062e-05
7.2409e-05
4.71856e-05
7.48007e-05
4.71648e-05
7.22033e-05
6.16724e-05
7.46186e-05
7.24383e-05
4.71772e-05
7.1165e-05
2.15464e-05
2.15435e-05
2.15463e-05
2.15434e-05
7.12919e-05
2.36198e-05
2.36225e-05
2.36192e-05
2.3622e-05
0.000173138
0.000173152
0.000149018
0.000172282
0.000172293
0.000191518
0.000192221
7.41401e-05
7.26419e-05
7.26411e-05
8.24931e-05
7.38949e-05
7.28486e-05
7.28363e-05
7.32539e-05
8.25253e-05
7.23813e-05
7.2392e-05
7.2304e-05
7.22956e-05
7.34527e-05
7.32478e-05
8.27117e-05
7.23007e-05
7.24796e-05
7.23427e-05
7.22411e-05
7.34208e-05
7.32335e-05
8.25899e-05
7.24457e-05
7.23092e-05
7.22688e-05
7.23814e-05
7.34308e-05
7.32627e-05
8.25524e-05
7.24287e-05
7.2446e-05
7.34627e-05
7.22479e-05
7.22399e-05
7.41168e-05
7.26897e-05
7.26905e-05
8.24567e-05
7.38949e-05
7.27873e-05
7.2776e-05
7.58492e-05
8.18667e-05
7.41445e-05
7.40856e-05
7.39461e-05
7.39624e-05
7.60921e-05
7.40824e-05
7.27314e-05
7.26294e-05
8.23816e-05
7.2844e-05
7.39304e-05
7.26949e-05
7.58787e-05
8.20949e-05
7.40036e-05
7.41657e-05
7.40338e-05
7.39392e-05
7.60448e-05
7.40755e-05
7.2641e-05
7.27667e-05
8.2503e-05
7.26984e-05
7.39313e-05
7.28363e-05
7.58966e-05
8.193e-05
7.41539e-05
7.40045e-05
7.39538e-05
7.4041e-05
7.60554e-05
7.58579e-05
8.19203e-05
7.41273e-05
7.41205e-05
7.39233e-05
7.39221e-05
7.60887e-05
0.000152111
0.000173994
0.000174006
0.000174853
0.000174867
0.000193625
0.000192923
0.000152113
0.000173993
0.000174006
0.000174852
0.000174865
0.000193625
0.000192923
0.000152105
0.000173991
0.000174001
0.000174851
0.000174862
0.000193621
0.000192919
0.000152111
0.000173992
0.000174004
0.000174852
0.000174864
0.000193622
0.00019292
0.000173137
0.00017315
0.000149019
0.000172281
0.000172293
0.000191518
0.00019222
0.000173135
0.000173147
0.00014901
0.000172278
0.000172288
0.000191514
0.000192216
0.000173136
0.000173149
0.000149015
0.000172279
0.000172292
0.000191515
0.000192217
0.000147997
0.000170574
0.000170585
0.000171427
0.000171442
0.000190814
0.00019011
0.000148
0.000170573
0.000170586
0.000171427
0.00017144
0.000190814
0.00019011
0.000147992
0.000170571
0.000170582
0.000171425
0.000171437
0.00019081
0.000190106
0.000147997
0.000170572
0.000170585
0.000171426
0.000171439
0.00019081
0.000190107
7.2591e-05
6.67005e-05
6.87026e-05
7.52438e-05
6.84402e-05
7.49362e-05
7.2748e-05
6.87504e-05
6.83636e-05
6.79713e-05
6.59108e-05
6.85681e-05
6.87075e-05
6.81889e-05
7.26855e-05
6.62792e-05
6.77303e-05
7.50546e-05
7.25435e-05
6.79918e-05
7.53129e-05
6.89229e-05
6.8796e-05
6.61733e-05
6.92566e-05
6.89276e-05
6.85905e-05
6.90847e-05
7.25995e-05
6.67149e-05
7.50949e-05
6.86973e-05
7.50631e-05
6.84294e-05
7.26928e-05
6.87525e-05
6.8367e-05
6.79546e-05
6.58763e-05
6.85726e-05
6.87166e-05
6.81861e-05
7.25864e-05
6.62719e-05
7.5166e-05
6.77305e-05
7.25099e-05
7.51655e-05
6.7994e-05
6.89269e-05
6.87897e-05
6.62093e-05
6.92659e-05
6.89199e-05
6.85867e-05
6.90903e-05
7.45519e-05
8.22119e-05
7.32427e-05
7.32201e-05
7.30579e-05
7.30708e-05
7.47825e-05
7.27814e-05
8.28567e-05
7.19224e-05
7.18859e-05
7.2607e-05
7.19996e-05
7.20252e-05
7.24555e-05
6.63637e-05
7.54658e-05
6.48085e-05
7.26526e-05
6.65506e-05
7.54929e-05
6.83838e-05
6.80385e-05
6.5231e-05
6.75692e-05
6.79418e-05
6.73253e-05
6.82915e-05
6.79948e-05
6.67012e-05
6.74343e-05
6.48846e-05
6.75144e-05
6.80974e-05
6.696e-05
7.26435e-05
6.5343e-05
6.72448e-05
7.53154e-05
6.70594e-05
7.52852e-05
7.24312e-05
7.26335e-05
6.63233e-05
7.55667e-05
6.48625e-05
7.24885e-05
6.65986e-05
7.53317e-05