/*--------------------------------*- C++ -*----------------------------------*\
| =========                 |                                                 |
| \\      /  F ield         | OpenFOAM: The Open Source CFD Toolbox           |
|  \\    /   O peration     | Version:  v1906                                 |
|   \\  /    A nd           | Web:      www.OpenFOAM.com                      |
|    \\/     M anipulation  |                                                 |
\*---------------------------------------------------------------------------*/
FoamFile
{
    version     2.0;
    format      ascii;
    class       volScalarField;
    location    "750";
    object      nut;
}
// * * * * * * * * * * * * * * * * * * * * * * * * * * * * * * * * * * * * * //

dimensions      [0 2 -1 0 0 0 0];


internalField   nonuniform List<scalar> 
42616
(
0.000233972
0.000233087
0.000233089
0.000233401
0.000232523
0.00022771
0.000227717
0.000223721
0.000230493
0.000220183
0.000220193
0.000208934
0.00022776
0.000211511
0.000211521
0.000193632
0.000224381
0.000202498
0.000202505
0.000179623
0.000220491
0.00019363
0.000193635
0.00016731
0.000216239
0.000185147
0.00018515
0.0001566
0.000211754
0.000177121
0.000177122
0.00014727
0.000207141
0.000169589
0.000169588
0.000138995
0.000202481
0.000162524
0.000162522
0.000131686
0.000197828
0.000155869
0.000155866
0.000125022
0.000193216
0.000149571
0.000149567
0.000118919
0.000188626
0.000143587
0.000143583
0.000113159
0.000184094
0.000137863
0.000137859
0.000107923
0.000179649
0.000132361
0.000132356
0.000102995
0.000175279
0.000127072
0.000127066
9.8331e-05
0.000170974
0.000122015
0.000122006
9.40717e-05
0.000166719
0.000117219
0.00011721
9.03795e-05
0.000162516
0.000112712
0.000112701
8.74178e-05
0.000158337
0.000108554
0.000108544
8.50919e-05
0.000154178
0.000104795
0.000104785
8.33463e-05
0.000234265
0.000234457
0.000234458
0.000234262
0.000234457
0.000234458
0.000234275
0.000234275
0.000234275
0.000234275
0.000234459
0.000234459
0.000234263
0.000234458
0.000234461
0.000234265
0.000233397
0.000226076
0.000233086
0.000233083
0.000229284
0.000229273
0.000233396
0.000226054
0.000233087
0.000233082
0.000229291
0.000229279
0.00023309
0.000229286
0.000229288
0.000233401
0.000226084
0.000233086
0.000229292
0.000229281
0.000226078
0.000223717
0.000212066
0.000227708
0.000227695
0.000222209
0.000222192
0.000223692
0.000212041
0.000227715
0.000227701
0.000222221
0.000222198
0.000227709
0.00022221
0.000222208
0.000223724
0.000212067
0.000227703
0.000222219
0.000222204
0.000212067
0.000208935
0.000196907
0.000220181
0.000220163
0.00021373
0.000213713
0.000208907
0.000196896
0.000220193
0.00022017
0.000213745
0.00021372
0.000220179
0.000213736
0.000213724
0.000208935
0.000196922
0.000220177
0.000213747
0.00021373
0.000196916
0.000193658
0.000182758
0.000211501
0.000211485
0.000204736
0.000204722
0.000193639
0.000182784
0.000211517
0.000211492
0.000204753
0.000204729
0.000211495
0.00020475
0.000204727
0.000193649
0.000182792
0.000211503
0.000204758
0.00020474
0.000182757
0.000179645
0.000170188
0.000202482
0.000202468
0.0001958
0.000195787
0.000179588
0.000170232
0.000202499
0.000202474
0.000195819
0.000195791
0.000202472
0.000195815
0.000195787
0.000179615
0.000170232
0.000202487
0.000195821
0.000195806
0.000170191
0.000167333
0.000159199
0.000193614
0.0001936
0.000187211
0.000187196
0.000167269
0.00015925
0.000193633
0.000193604
0.000187231
0.000187198
0.000193601
0.000187226
0.000187197
0.000167286
0.00015925
0.000193621
0.000187229
0.000187219
0.000159203
0.00015662
0.000149586
0.000185132
0.000185116
0.000179065
0.000179049
0.000156548
0.000149663
0.000185153
0.000185118
0.000179087
0.00017905
0.000185118
0.000179081
0.000179051
0.000156559
0.000149592
0.00018514
0.000179082
0.000179076
0.000149585
0.000147285
0.000141179
0.000177106
0.000177089
0.000171409
0.000171392
0.000147188
0.000141118
0.000177128
0.000177089
0.000171433
0.000171392
0.000177091
0.000171426
0.000171395
0.000147291
0.000141178
0.000177116
0.000171426
0.000171422
0.000141142
0.000138958
0.000133586
0.000169572
0.000169556
0.000164231
0.000164213
0.00013902
0.000133612
0.000169596
0.000169555
0.000164255
0.000164213
0.000169558
0.000164249
0.000164217
0.00013893
0.000133661
0.000169586
0.000164247
0.000164245
0.000133627
0.000131743
0.000126822
0.000162506
0.000162489
0.000157477
0.000157458
0.000131732
0.000126826
0.000162529
0.000162488
0.0001575
0.000157459
0.000162491
0.000157497
0.000157462
0.000131641
0.000126742
0.00016252
0.000157494
0.000157491
0.000126815
0.000125028
0.000120552
0.000155848
0.000155831
0.000151091
0.000151074
0.000125018
0.000120546
0.000155872
0.000155831
0.000151115
0.000151075
0.000155835
0.000151115
0.000151079
0.00012512
0.000120441
0.000155863
0.000151111
0.000151107
0.00012054
0.000118881
0.000114483
0.000149547
0.00014953
0.000145028
0.000145012
0.000118887
0.000114501
0.000149571
0.00014953
0.000145053
0.000145012
0.000149535
0.000145056
0.000145019
0.000118993
0.000114424
0.000149563
0.000145051
0.000145046
0.000114496
0.00011323
0.000108821
0.00014356
0.000143544
0.000139242
0.000139229
0.000113187
0.000108818
0.000143584
0.000143543
0.000139268
0.000139226
0.000143551
0.000139272
0.000139235
0.000113238
0.000108781
0.000143578
0.000139267
0.000139264
0.000108816
0.000107934
0.000103645
0.000137835
0.000137821
0.000133689
0.000133676
0.000107926
0.00010364
0.00013786
0.000137817
0.000133718
0.000133672
0.000137827
0.00013372
0.000133684
0.000107902
0.000103623
0.000137855
0.000133715
0.000133713
0.000103636
0.000103008
9.90352e-05
0.000132331
0.000132318
0.000128344
0.000128332
0.000103003
9.90268e-05
0.000132358
0.000132312
0.000128372
0.000128326
0.000132326
0.000128377
0.000128341
0.000102989
9.90067e-05
0.000132356
0.000128371
0.00012837
9.90322e-05
9.83423e-05
9.48646e-05
0.000127039
0.000127027
0.000123227
0.000123215
9.83551e-05
9.48217e-05
0.000127065
0.00012702
0.000123253
0.000123209
0.000127036
0.000123262
0.000123225
9.8343e-05
9.48138e-05
0.000127066
0.000123254
0.000123253
9.48605e-05
9.40929e-05
9.13155e-05
0.000121981
0.000121968
0.000118338
0.000118321
9.41434e-05
9.1185e-05
0.000122004
0.000121961
0.000118357
0.000118316
0.000121978
0.000118371
0.000118336
9.41279e-05
9.12826e-05
0.000122007
0.00011836
0.00011836
9.1364e-05
9.04671e-05
8.82157e-05
0.000117183
0.000117172
0.000113755
0.000113748
9.05286e-05
8.81166e-05
0.000117203
0.000117166
0.000113782
0.000113744
0.00011718
0.000113794
0.000113756
9.04568e-05
8.82145e-05
0.00011721
0.000113785
0.000113782
8.82939e-05
8.75278e-05
8.58197e-05
0.000112678
0.000112663
0.000109498
0.000109491
8.75811e-05
8.56095e-05
0.000112692
0.000112659
0.000109526
0.000109489
0.000112673
0.000109538
0.0001095
8.75208e-05
8.5735e-05
0.0001127
0.000109531
0.000109525
8.57985e-05
8.50901e-05
8.39382e-05
0.000108522
0.000108506
0.000105628
0.00010562
8.52371e-05
8.37439e-05
0.000108531
0.000108502
0.000105656
0.000105619
0.000108516
0.000105668
0.000105631
8.51611e-05
8.38748e-05
0.000108542
0.000105661
0.000105655
8.39764e-05
8.33997e-05
0.000104766
0.000104747
8.35406e-05
0.00010477
0.000104743
0.000104759
8.34512e-05
0.000104785
0.00023473
0.000234746
0.000234729
0.000234729
0.000235129
0.000234799
0.000234793
0.000234726
0.00023513
0.000234799
0.000234726
0.00023504
0.000234871
0.000233472
0.000233507
0.000104695
3.88443e-05
0.000128422
3.97895e-05
2.1955e-05
2.2851e-05
0.000104689
3.88135e-05
0.000128406
3.97813e-05
0.000233972
0.000233972
0.000233972
0.000232929
0.000232929
0.000232929
0.000232929
0.000206072
9.35186e-05
0.000233967
0.000231962
0.00022233
8.65239e-05
0.000233607
2.19583e-05
2.28521e-05
0.000206018
0.000233968
9.32062e-05
0.000231966
0.00022239
0.000233607
8.66664e-05
4.76483e-05
4.77038e-05
0.000231285
4.37205e-05
4.37324e-05
7.26206e-05
4.24051e-05
8.13679e-05
4.37521e-05
2.47885e-05
2.54742e-05
7.26074e-05
4.24006e-05
8.13485e-05
4.37479e-05
0.000232522
0.000232522
0.000232523
0.000231066
0.000231063
0.000231065
0.000231064
0.000167329
7.8954e-05
0.000232061
0.000225992
0.000180025
7.40023e-05
0.00023135
2.47877e-05
2.54736e-05
0.000167245
0.000232053
7.89673e-05
0.000225999
0.000179913
0.00023134
7.40897e-05
3.91002e-05
3.91185e-05
0.000219437
3.64974e-05
3.65262e-05
5.63239e-05
4.55389e-05
6.12131e-05
4.64152e-05
2.60153e-05
2.61181e-05
5.6333e-05
4.55349e-05
6.12011e-05
4.64119e-05
0.000230491
0.000230492
0.000230492
0.000228508
0.000228505
0.000228507
0.000228506
0.000138516
6.70816e-05
0.000228591
0.000218085
0.000147963
6.31317e-05
0.000227476
2.60135e-05
2.6116e-05
0.000138505
0.000228586
6.70405e-05
0.000218096
0.00014794
0.000227471
6.31988e-05
3.32566e-05
3.32805e-05
0.000204453
3.2011e-05
3.20345e-05
4.7034e-05
4.74965e-05
4.99572e-05
4.8009e-05
2.6041e-05
2.59392e-05
4.70078e-05
4.74922e-05
4.99716e-05
4.80058e-05
0.000227757
0.000227759
0.000227757
0.000225279
0.000225276
0.000225279
0.000225276
0.00011749
5.7954e-05
0.000223638
0.000209264
0.000124558
5.51758e-05
0.000222222
2.60385e-05
2.59375e-05
0.000117495
0.00022364
5.79315e-05
0.000209273
0.000124589
0.000222222
5.51943e-05
3.06835e-05
3.07015e-05
0.000189665
3.03681e-05
3.03704e-05
4.14905e-05
4.85792e-05
4.32583e-05
4.88417e-05
2.56718e-05
2.55201e-05
4.14429e-05
4.85753e-05
4.33068e-05
4.88389e-05
0.000224378
0.00022438
0.000224377
0.000221502
0.000221499
0.000221501
0.000221497
0.000102063
5.1688e-05
0.000217672
0.000200253
0.000107425
4.98077e-05
0.00021608
2.5669e-05
2.55184e-05
0.000102079
0.000217676
5.1663e-05
0.000200259
0.000107426
0.000216082
4.98232e-05
3.02901e-05
3.02867e-05
0.000176275
3.04436e-05
3.0445e-05
3.82007e-05
4.90893e-05
3.92475e-05
4.91965e-05
2.52351e-05
2.50951e-05
3.81769e-05
4.90862e-05
3.92982e-05
4.91938e-05
0.000220487
0.000220489
0.000220485
0.000217328
0.000217322
0.000217324
0.000217321
9.04734e-05
4.75601e-05
0.000211165
0.000191467
9.45767e-05
4.64019e-05
0.000209498
2.52323e-05
2.50935e-05
9.04826e-05
0.00021117
4.75689e-05
0.000191471
9.45762e-05
0.000209502
4.63974e-05
3.11132e-05
3.11125e-05
0.0001645
3.15572e-05
3.15623e-05
3.64074e-05
4.92672e-05
3.69543e-05
4.92946e-05
2.48472e-05
2.47345e-05
3.63904e-05
4.92638e-05
3.69709e-05
4.92911e-05
0.000216233
0.000216234
0.000216231
0.00021289
0.000212883
0.000212884
0.000212882
8.15869e-05
4.50129e-05
0.000204476
0.000183095
8.48156e-05
4.43727e-05
0.000202807
2.48447e-05
2.47325e-05
8.16267e-05
0.000204483
4.50322e-05
0.000183096
8.48085e-05
0.000202809
4.43621e-05
3.26818e-05
3.26793e-05
0.000154233
3.33077e-05
3.33055e-05
3.57046e-05
4.92839e-05
3.58329e-05
4.9281e-05
2.45354e-05
2.44472e-05
3.56885e-05
4.92813e-05
3.58418e-05
4.92782e-05
0.000211746
0.000211747
0.000211745
0.000208301
0.000208293
0.000208293
0.000208292
7.469e-05
4.36398e-05
0.000197843
0.000175191
7.72654e-05
4.3357e-05
0.000196211
2.45324e-05
2.4447e-05
7.46683e-05
0.000197848
4.36509e-05
0.000175191
7.72231e-05
0.000196212
4.33549e-05
3.47118e-05
3.47139e-05
0.000145195
3.54501e-05
3.54444e-05
3.58149e-05
4.92437e-05
3.56421e-05
4.92412e-05
2.42971e-05
2.42279e-05
3.57605e-05
4.92403e-05
3.56783e-05
4.92386e-05
0.000207133
0.000207133
0.000207131
0.000203647
0.000203638
0.000203637
0.000203636
6.92617e-05
4.3168e-05
0.000191397
0.000167781
7.12905e-05
4.30709e-05
0.000189818
2.42917e-05
2.42301e-05
6.92513e-05
0.000191401
4.31223e-05
0.00016778
7.13498e-05
0.000189819
4.31124e-05
3.70316e-05
3.70318e-05
0.000137272
3.78303e-05
3.78198e-05
3.65924e-05
4.92177e-05
3.62167e-05
4.92156e-05
2.41202e-05
2.40663e-05
3.65359e-05
4.9213e-05
3.62466e-05
4.92132e-05
0.000202473
0.000202472
0.00020247
0.000198988
0.000198979
0.000198978
0.000198976
6.4919e-05
4.33298e-05
0.000185165
0.000160823
6.65568e-05
4.34152e-05
0.000183645
2.41127e-05
2.40699e-05
6.49191e-05
0.000185168
4.32492e-05
0.000160821
6.65855e-05
0.000183644
4.35386e-05
3.95033e-05
3.94963e-05
0.00013013
4.03195e-05
4.03202e-05
3.80296e-05
4.92161e-05
3.74265e-05
4.92212e-05
2.39905e-05
2.3951e-05
3.79439e-05
4.92126e-05
3.74625e-05
4.92199e-05
0.00019782
0.000197818
0.000197816
0.000194362
0.000194354
0.000194352
0.000194351
6.15356e-05
4.40172e-05
0.000179189
0.000154263
6.2767e-05
4.42638e-05
0.000177739
2.39824e-05
2.39551e-05
6.15221e-05
0.000179192
4.39276e-05
0.00015426
6.27938e-05
0.000177738
4.43849e-05
4.20076e-05
4.20113e-05
0.000123593
4.28565e-05
4.28556e-05
3.99772e-05
4.92401e-05
3.9245e-05
4.92454e-05
2.38992e-05
2.38691e-05
3.99262e-05
4.92266e-05
3.92643e-05
4.92504e-05
0.000193209
0.000193206
0.000193205
0.000189774
0.000189767
0.000189764
0.000189763
5.89407e-05
4.51503e-05
0.000173492
0.000148045
5.98757e-05
4.5534e-05
0.000172107
2.389e-05
2.3874e-05
5.89478e-05
0.000173495
4.50641e-05
0.000148042
5.98779e-05
0.000172105
4.56427e-05
4.44888e-05
4.44856e-05
0.000117459
4.53229e-05
4.53166e-05
4.24403e-05
4.92753e-05
4.1579e-05
4.92845e-05
2.38352e-05
2.38118e-05
4.24227e-05
4.92628e-05
4.15963e-05
4.9289e-05
0.00018862
0.000188617
0.000188616
0.000185219
0.000185214
0.00018521
0.00018521
5.71003e-05
4.66516e-05
0.000168042
0.000142133
5.77144e-05
4.71323e-05
0.000166715
2.38254e-05
2.38172e-05
5.70903e-05
0.000168045
4.65788e-05
0.000142129
5.772e-05
0.000166713
4.72441e-05
4.68774e-05
4.68737e-05
0.000111596
4.76653e-05
4.76605e-05
4.53793e-05
4.93159e-05
4.43725e-05
4.93255e-05
2.37901e-05
2.37713e-05
4.53463e-05
4.93045e-05
4.43664e-05
4.93297e-05
0.000184089
0.000184085
0.000184085
0.000180753
0.000180749
0.000180744
0.000180745
5.59622e-05
4.84512e-05
0.000162805
0.000136469
5.62765e-05
4.90255e-05
0.000161526
2.37797e-05
2.3777e-05
5.59076e-05
0.000162808
4.83806e-05
0.000136465
5.63243e-05
0.000161525
4.91202e-05
4.9116e-05
4.91151e-05
0.000106152
4.98453e-05
4.9844e-05
4.8615e-05
4.93552e-05
4.75066e-05
4.93642e-05
2.37572e-05
2.37422e-05
4.85927e-05
4.9345e-05
4.7517e-05
4.93681e-05
0.000179645
0.00017964
0.000179641
0.000176365
0.000176362
0.000176356
0.000176358
5.54479e-05
5.04315e-05
0.000157748
0.000131021
5.55315e-05
5.11588e-05
0.000156511
2.37469e-05
2.37462e-05
5.54237e-05
0.000157751
5.04465e-05
0.000131015
5.55699e-05
0.00015651
5.11521e-05
5.11833e-05
5.11906e-05
0.000101274
5.18461e-05
5.18277e-05
5.20215e-05
4.93912e-05
5.08851e-05
4.93992e-05
2.37301e-05
2.37207e-05
5.20587e-05
4.93819e-05
5.08693e-05
4.94028e-05
0.000175277
0.00017527
0.000175273
0.000172044
0.000172042
0.000172036
0.000172038
5.55578e-05
5.26082e-05
0.000152843
0.000125789
5.54299e-05
5.33659e-05
0.000151642
2.3724e-05
2.37206e-05
5.55365e-05
0.000152847
5.26272e-05
0.000125781
5.54568e-05
0.000151641
5.33643e-05
5.30631e-05
5.30766e-05
9.68889e-05
5.36649e-05
5.36485e-05
5.55571e-05
4.94239e-05
5.43164e-05
4.94311e-05
2.37079e-05
2.37017e-05
5.56011e-05
4.94149e-05
5.42877e-05
4.94347e-05
0.000170972
0.000170966
0.000170969
0.000167776
0.000167775
0.000167769
0.000167771
5.62893e-05
5.48978e-05
0.000148087
0.000120793
5.59447e-05
5.55934e-05
0.00014692
2.37049e-05
2.37003e-05
5.62588e-05
0.000148091
5.48812e-05
0.000120785
5.59981e-05
0.000146919
5.56321e-05
5.47618e-05
5.47622e-05
9.30569e-05
5.5308e-05
5.53099e-05
5.89786e-05
4.94541e-05
5.77124e-05
4.94606e-05
2.36893e-05
2.36847e-05
5.9e-05
4.94454e-05
5.77024e-05
4.94638e-05
0.000166719
0.000166712
0.000166715
0.000163559
0.000163559
0.000163553
0.000163554
5.75791e-05
5.71911e-05
0.000143447
0.00011605
5.70678e-05
5.78661e-05
0.000142304
2.3687e-05
2.36827e-05
5.75469e-05
0.000143451
5.7157e-05
0.000116041
5.70903e-05
0.000142305
5.79057e-05
5.63088e-05
5.63074e-05
8.97543e-05
5.67725e-05
5.67749e-05
6.21788e-05
4.94825e-05
6.09613e-05
4.94888e-05
2.36728e-05
2.36683e-05
6.22064e-05
4.94739e-05
6.09486e-05
4.94913e-05
0.000162516
0.000162509
0.000162513
0.000159377
0.000159377
0.000159373
0.000159372
5.93763e-05
5.94409e-05
0.000138904
0.00011162
5.87173e-05
6.01151e-05
0.000137789
2.36706e-05
2.36666e-05
5.94016e-05
0.000138907
5.93818e-05
0.000111611
5.87138e-05
0.00013779
6.0182e-05
5.76951e-05
5.76932e-05
8.69722e-05
5.81109e-05
5.81135e-05
6.50897e-05
4.95086e-05
6.39859e-05
4.95142e-05
2.36573e-05
2.36535e-05
6.51164e-05
4.95009e-05
6.3971e-05
4.95173e-05
0.000158339
0.000158332
0.000158335
0.000155214
0.000155215
0.000155211
0.00015521
6.16302e-05
6.16292e-05
0.000134464
0.000107551
6.082e-05
6.2283e-05
0.00013338
2.36554e-05
2.36516e-05
6.16311e-05
0.000134467
6.15784e-05
0.000107543
6.08119e-05
0.000133384
6.23551e-05
5.89462e-05
5.89448e-05
8.48696e-05
5.93245e-05
5.93261e-05
6.76993e-05
4.95334e-05
6.66973e-05
4.95377e-05
2.36432e-05
2.36397e-05
4.95263e-05
6.66901e-05
4.9542e-05
0.000154181
0.000154174
0.000154177
6.42307e-05
6.37314e-05
0.000130144
0.000103921
6.32618e-05
6.44179e-05
0.000129101
2.36411e-05
6.41752e-05
0.000130144
6.36891e-05
6.32821e-05
0.000129103
6.00815e-05
6.008e-05
8.34426e-05
6.04257e-05
6.04254e-05
0.00023487
0.000233511
0.000233564
2.30837e-05
0.000214404
2.30572e-05
0.000214663
0.000234429
5.08378e-05
5.09877e-05
0.000230149
0.000228857
0.000235129
0.0002348
0.000234909
0.000234726
0.000235128
0.0002348
0.000234934
0.000234726
0.000234324
4.03606e-05
0.000218426
0.000147064
0.00023432
4.03223e-05
0.00021821
0.000147241
0.000233832
0.000234471
9.81396e-05
0.000234271
0.000233342
0.000234597
0.000228364
0.000233834
0.00023447
9.79548e-05
0.000234271
0.000233343
0.000234597
0.000228363
0.000234872
0.000233581
0.000233678
2.30838e-05
0.00021442
0.000234426
5.08944e-05
5.08708e-05
0.000230187
0.000230248
2.30782e-05
0.000214162
0.000235128
0.0002348
0.000235323
0.000234726
0.000235128
0.0002348
0.000234726
0.000234929
0.000234321
4.04045e-05
0.000213495
0.000146974
0.000233839
0.000234471
9.96076e-05
0.000234271
0.000232472
0.000234597
0.000228337
0.000234341
4.03214e-05
0.000218106
0.00014715
0.000233827
0.00023447
0.00023427
9.80732e-05
0.000234597
0.000233268
0.00022828
0.00023473
0.000234746
0.000234729
0.000234729
0.00023473
0.000234746
0.000234729
0.000234729
0.00023473
0.000234746
0.000234729
0.000234729
0.000234591
0.000234573
0.000234253
0.000234253
0.000234592
0.000234592
0.000234252
0.000234591
0.000234573
0.000234253
0.000234253
0.000234592
0.000234592
0.000234252
0.000234591
0.000234573
0.000234253
0.000234253
0.000234592
0.000234592
0.000234252
0.000234591
0.000234574
0.000234253
0.000234253
0.000234592
0.000234592
0.000234252
0.000235128
0.000234798
0.000234726
0.000234834
0.000233828
0.000234472
9.82407e-05
0.00023427
0.000233385
0.000234597
0.00022827
0.00023433
4.03448e-05
0.00021843
0.000146938
0.000233835
0.000234473
0.000234271
9.81956e-05
0.000234597
0.000233261
0.000228347
0.000234322
4.03209e-05
0.000218411
0.00014717
0.00023487
0.000233703
0.000233459
2.30757e-05
0.000214045
0.000234429
5.09283e-05
5.09803e-05
0.000229093
0.000228975
2.30576e-05
0.000214476
0.00023513
0.000234798
0.000234726
0.000234807
0.000233827
0.000234472
0.000234271
9.96776e-05
0.000234597
0.000233161
0.000228326
0.000233829
0.000234473
0.000234271
9.8208e-05
0.000234597
0.000233327
0.00022833
0.000234323
4.04077e-05
0.000213459
0.00014709
0.000234342
4.03232e-05
0.000218419
0.000147197
0.000234428
5.09812e-05
5.09089e-05
0.000228891
0.000230239
2.30852e-05
0.000214435
2.30801e-05
0.000214391
2.19666e-05
2.28715e-05
2.19808e-05
2.28672e-05
4.76998e-05
4.76057e-05
0.000231283
4.37031e-05
4.36241e-05
2.45024e-05
2.33218e-05
2.44999e-05
2.33174e-05
0.000229582
3.99438e-05
3.98874e-05
4.28302e-05
4.28055e-05
0.000104709
3.88351e-05
0.00012841
3.97866e-05
0.000206106
9.30844e-05
0.000233967
0.000231961
0.000222379
8.65335e-05
0.000233607
0.000206105
9.29882e-05
0.000233967
0.000231954
0.000222365
8.64615e-05
0.000233607
9.83232e-05
4.19359e-05
4.03317e-05
8.5525e-05
9.8323e-05
4.19322e-05
4.03166e-05
8.55225e-05
0.000199945
0.000230702
8.01838e-05
0.000232671
8.49688e-05
0.000233181
0.000185451
0.00019994
0.000230693
8.01294e-05
0.00023267
8.48956e-05
0.000233181
0.000185442
4.77178e-05
4.77283e-05
0.000231271
4.36995e-05
4.37163e-05
2.19582e-05
2.28688e-05
2.44992e-05
2.33304e-05
0.000229564
3.99387e-05
3.99175e-05
4.28178e-05
4.2843e-05
2.45023e-05
2.33194e-05
0.000206095
9.28082e-05
0.000233968
0.000231965
0.000222386
8.65861e-05
0.000233607
0.000104669
3.88323e-05
0.00012843
3.97813e-05
0.000206059
0.000233967
9.29938e-05
0.000231957
0.000222346
0.000233607
8.64593e-05
9.83148e-05
4.1932e-05
4.03217e-05
8.55133e-05
0.000199934
0.000230707
8.01921e-05
0.000232671
8.49933e-05
0.000233182
0.000185432
9.82911e-05
4.1928e-05
4.0312e-05
8.54676e-05
0.000199887
0.000230698
0.000232667
8.01168e-05
0.000233179
8.49338e-05
0.000185357
0.000104688
3.88372e-05
0.00012831
3.97927e-05
0.000206051
0.000233968
9.29183e-05
0.000231964
0.000222395
0.000233607
8.63564e-05
0.000104646
3.88393e-05
0.000128456
3.97873e-05
0.000199919
0.000230705
8.02512e-05
0.00023267
8.51888e-05
0.000233181
0.000185428
9.83133e-05
4.19355e-05
4.03177e-05
8.55107e-05
0.000199904
0.000230706
0.000232668
8.01079e-05
0.00023318
8.48419e-05
0.000185412
9.82998e-05
4.19353e-05
4.03173e-05
8.55054e-05
4.75012e-05
4.75883e-05
0.000231291
4.35786e-05
4.36357e-05
2.19792e-05
2.28681e-05
2.44992e-05
2.33313e-05
0.000229594
3.98541e-05
3.98983e-05
4.2778e-05
4.28155e-05
2.45005e-05
2.33181e-05
0.000206078
0.000233968
9.29496e-05
0.000231957
0.000222408
0.000233608
8.63449e-05
0.000104616
3.88243e-05
0.000128451
3.97938e-05
0.000104667
3.88373e-05
0.000128493
3.97884e-05
0.000199855
0.00023071
0.000232664
8.02912e-05
0.000233179
8.50831e-05
0.000185311
0.000199929
0.000230699
0.00023267
8.01098e-05
0.000233182
8.48318e-05
0.000185422
9.82669e-05
4.19336e-05
4.03118e-05
8.54396e-05
9.83326e-05
4.19334e-05
4.03147e-05
8.55124e-05
2.19541e-05
2.28677e-05
2.19516e-05
2.28665e-05
0.000229584
3.99336e-05
3.99403e-05
4.28098e-05
4.28376e-05
2.45017e-05
2.33188e-05
2.45e-05
2.33174e-05
2.47914e-05
2.54766e-05
2.47892e-05
2.54748e-05
3.91359e-05
3.90738e-05
0.000219436
3.65249e-05
3.64854e-05
2.59599e-05
2.56269e-05
2.59584e-05
2.56251e-05
0.000216602
3.3875e-05
3.38481e-05
3.5794e-05
3.57426e-05
7.26211e-05
4.24014e-05
8.13672e-05
4.3749e-05
0.00016733
7.88808e-05
0.000232063
0.000225991
0.000180057
7.39558e-05
0.000231352
0.000167317
7.88107e-05
0.000232061
0.000225976
0.000180046
7.39902e-05
0.000231349
6.96911e-05
4.52353e-05
4.41354e-05
6.32726e-05
6.96905e-05
4.52335e-05
4.41316e-05
6.32868e-05
0.000162794
0.000224152
6.82027e-05
0.000229615
7.2734e-05
0.000230536
0.000151756
0.000162788
0.000224136
6.82381e-05
0.000229611
7.26382e-05
0.000230533
0.000151753
3.91195e-05
3.91189e-05
0.00021941
3.65223e-05
3.65169e-05
2.47913e-05
2.54771e-05
2.59586e-05
2.56249e-05
0.000216573
3.38682e-05
3.38704e-05
3.57746e-05
3.57655e-05
2.59604e-05
2.56269e-05
0.000167314
7.88745e-05
0.000232063
0.000226
0.000180033
7.40314e-05
0.000231351
7.25744e-05
4.23968e-05
8.13094e-05
4.37444e-05
0.000167249
0.000232056
7.88198e-05
0.000225982
0.000179963
0.000231343
7.38992e-05
6.96847e-05
4.52318e-05
4.41308e-05
6.32839e-05
0.000162772
0.000224162
6.82625e-05
0.000229614
7.26827e-05
0.000230536
0.000151755
6.96569e-05
4.5229e-05
4.41268e-05
6.32648e-05
0.000162716
0.000224142
0.000229604
6.81628e-05
0.000230525
7.26785e-05
0.000151717
7.26084e-05
4.24038e-05
8.13606e-05
4.37517e-05
0.000167326
0.000232059
7.87798e-05
0.000225991
0.000180017
0.000231349
7.39577e-05
7.26244e-05
4.24041e-05
8.13473e-05
4.37508e-05
0.000162756
0.000224152
6.82358e-05
0.000229612
7.27646e-05
0.000230533
0.000151787
6.96893e-05
4.52349e-05
4.41338e-05
6.32776e-05
0.000162797
0.000224152
0.000229616
6.82131e-05
0.000230534
7.26133e-05
0.000151776
6.97034e-05
4.52335e-05
4.41334e-05
6.32947e-05
3.90544e-05
3.90875e-05
0.000219439
3.64702e-05
3.65128e-05
2.47906e-05
2.54754e-05
2.5957e-05
2.56235e-05
0.000216603
3.38313e-05
3.38594e-05
3.57246e-05
3.57477e-05
2.59592e-05
2.56259e-05
0.000167338
0.000232061
7.87833e-05
0.000225984
0.000180025
0.000231351
7.39652e-05
7.256e-05
4.24023e-05
8.12844e-05
4.37492e-05
7.26273e-05
4.24019e-05
8.1352e-05
4.37491e-05
0.000162689
0.000224161
0.000229604
6.83005e-05
0.000230524
7.27329e-05
0.000151739
0.00016279
0.000224147
0.000229616
6.82225e-05
0.000230535
7.2622e-05
0.000151786
6.96496e-05
4.5231e-05
4.41313e-05
6.32596e-05
6.97024e-05
4.52323e-05
4.41313e-05
6.32985e-05
2.47906e-05
2.54746e-05
2.47895e-05
2.54742e-05
0.000216604
3.38262e-05
3.38597e-05
3.57373e-05
3.5757e-05
2.59582e-05
2.56253e-05
2.59579e-05
2.56248e-05
2.60166e-05
2.61193e-05
2.60149e-05
2.61174e-05
3.33043e-05
3.3271e-05
0.000204456
3.20509e-05
3.20317e-05
2.60886e-05
2.6119e-05
2.60866e-05
2.61171e-05
0.000201188
3.09621e-05
3.09415e-05
3.16585e-05
3.16371e-05
5.63471e-05
4.55362e-05
6.12111e-05
4.64142e-05
0.000138486
6.70514e-05
0.000228594
0.000218082
0.000148007
6.31159e-05
0.000227479
0.000138485
6.69752e-05
0.00022859
0.000218065
0.000148003
6.31589e-05
0.000227475
5.48444e-05
4.7327e-05
4.66475e-05
5.10824e-05
5.48378e-05
4.73262e-05
4.66451e-05
5.10924e-05
0.000135381
0.000215929
5.88566e-05
0.000224994
6.20925e-05
0.000226276
0.000127157
0.000135389
0.000215911
5.88337e-05
0.000224991
6.20201e-05
0.000226272
0.000127166
3.32912e-05
3.3293e-05
0.000204436
3.20375e-05
3.20522e-05
2.60169e-05
2.61195e-05
2.60879e-05
2.61179e-05
0.000201165
3.09463e-05
3.0967e-05
3.1646e-05
3.16563e-05
2.60888e-05
2.61192e-05
0.000138482
6.7008e-05
0.000228594
0.000218096
0.000147985
6.31755e-05
0.000227478
5.63127e-05
4.55317e-05
6.11936e-05
4.64091e-05
0.000138466
0.000228583
6.70126e-05
0.000218072
0.000147956
0.000227468
6.30884e-05
5.48293e-05
4.73235e-05
4.66431e-05
5.10525e-05
0.000135365
0.000215943
5.88393e-05
0.000224993
6.20442e-05
0.000226277
0.000127142
5.48409e-05
4.7321e-05
4.66404e-05
5.10428e-05
0.000135355
0.000215918
0.000224986
5.88339e-05
0.000226267
6.2063e-05
0.000127137
5.63363e-05
4.55372e-05
6.12056e-05
4.64144e-05
0.000138499
0.000228596
6.69535e-05
0.00021808
0.000148027
0.000227482
6.314e-05
5.6348e-05
4.55361e-05
6.1221e-05
4.64134e-05
0.000135346
0.000215934
5.87995e-05
0.000224992
6.21146e-05
0.000226274
0.000127201
5.48331e-05
4.73262e-05
4.66452e-05
5.10497e-05
0.000135395
0.000215925
0.000224996
5.88158e-05
0.000226279
6.20042e-05
0.000127155
5.48367e-05
4.73252e-05
4.66442e-05
5.10813e-05
3.32659e-05
3.32847e-05
0.000204459
3.2019e-05
3.20397e-05
2.6016e-05
2.61185e-05
2.60857e-05
2.61157e-05
0.000201189
3.09372e-05
3.09552e-05
3.16354e-05
3.16537e-05
2.60759e-05
2.61184e-05
0.000138507
0.000228597
6.69657e-05
0.00021808
0.000148025
0.000227483
6.31478e-05
5.63093e-05
4.55335e-05
6.11932e-05
4.64114e-05
5.63346e-05
4.55349e-05
6.12296e-05
4.64125e-05
0.000135333
0.000215944
0.000224991
5.88104e-05
0.000226273
6.20646e-05
0.000127149
0.000135405
0.000215928
0.000225
5.88209e-05
0.000226281
6.20172e-05
0.000127169
5.48446e-05
4.73235e-05
4.6642e-05
5.10496e-05
5.4863e-05
4.73243e-05
4.66432e-05
5.10615e-05
2.60151e-05
2.61177e-05
2.60147e-05
2.61171e-05
0.000201182
3.0931e-05
3.09411e-05
3.16226e-05
3.16422e-05
2.60872e-05
2.61174e-05
2.60864e-05
2.61168e-05
2.60428e-05
2.59404e-05
2.60401e-05
2.59385e-05
3.07075e-05
3.06993e-05
0.00018964
3.03974e-05
3.03702e-05
2.5741e-05
2.58803e-05
2.57385e-05
2.5877e-05
0.000186455
3.02783e-05
3.02426e-05
3.02974e-05
3.02984e-05
4.70194e-05
4.74948e-05
4.99635e-05
4.80086e-05
0.000117503
5.78971e-05
0.00022364
0.000209253
0.000124597
5.52289e-05
0.000222224
0.000117513
5.78483e-05
0.000223638
0.000209237
0.000124608
5.52329e-05
0.000222222
4.61886e-05
4.85015e-05
4.81274e-05
4.39218e-05
4.62257e-05
4.8501e-05
4.81258e-05
4.38862e-05
0.000115385
0.000206996
5.22699e-05
0.000219234
5.44442e-05
0.000220752
0.000109254
0.000115397
0.000206981
5.22755e-05
0.000219234
5.43958e-05
0.000220751
0.000109254
3.06934e-05
3.07086e-05
0.000189634
3.03673e-05
3.04047e-05
2.60423e-05
2.59413e-05
2.57393e-05
2.58788e-05
0.00018644
3.02288e-05
3.027e-05
3.02892e-05
3.02957e-05
2.57411e-05
2.5879e-05
0.000117493
5.7878e-05
0.000223641
0.000209269
0.000124584
5.52319e-05
0.000222222
4.69971e-05
4.74894e-05
4.99818e-05
4.80032e-05
0.000117492
0.000223633
5.78736e-05
0.000209244
0.000124583
0.000222217
5.52116e-05
4.62147e-05
4.84985e-05
4.81233e-05
4.38661e-05
0.000115377
0.000207012
5.22793e-05
0.000219232
5.44273e-05
0.000220752
0.000109257
4.623e-05
4.84958e-05
4.81205e-05
4.38715e-05
0.000115378
0.000206988
0.000219229
5.22534e-05
0.000220747
5.44258e-05
0.000109242
4.69977e-05
4.74949e-05
4.99739e-05
4.80085e-05
0.000117491
0.000223641
5.78464e-05
0.000209245
0.000124597
0.000222223
5.52201e-05
4.70037e-05
4.7494e-05
4.99522e-05
4.80078e-05
0.000115367
0.000207009
5.22153e-05
0.000219231
5.44949e-05
0.00022075
0.000109232
4.62173e-05
4.85009e-05
4.81262e-05
4.38528e-05
0.000115375
0.000206987
0.000219229
5.22719e-05
0.000220749
5.43945e-05
0.000109227
4.62087e-05
4.85e-05
4.81249e-05
4.38674e-05
3.06906e-05
3.07091e-05
0.000189671
3.03768e-05
3.03839e-05
2.60494e-05
2.59396e-05
2.57374e-05
2.58757e-05
0.00018643
3.02698e-05
3.02515e-05
3.02815e-05
3.03066e-05
2.57392e-05
2.58798e-05
0.000117511
0.000223646
5.78515e-05
0.000209256
0.000124608
0.000222229
5.52273e-05
4.70282e-05
4.74926e-05
4.99744e-05
4.80062e-05
4.70466e-05
4.74929e-05
4.99848e-05
4.80068e-05
0.00011538
0.000207018
0.000219233
5.2237e-05
0.000220753
5.44799e-05
0.000109243
0.00011539
0.000206999
0.000219237
5.22792e-05
0.000220757
5.43986e-05
0.000109256
4.62021e-05
4.84983e-05
4.81239e-05
4.38966e-05
4.61987e-05
4.84991e-05
4.8124e-05
4.39193e-05
2.60409e-05
2.59385e-05
2.60401e-05
2.59377e-05
0.000186412
3.0238e-05
3.02448e-05
3.02871e-05
3.02972e-05
2.57388e-05
2.58785e-05
2.57379e-05
2.58777e-05
2.56731e-05
2.5522e-05
2.56704e-05
2.55193e-05
3.02807e-05
3.02881e-05
0.00017627
3.04787e-05
3.04476e-05
2.53037e-05
2.54526e-05
2.5301e-05
2.54498e-05
0.000173285
3.09349e-05
3.09049e-05
3.05759e-05
3.05792e-05
4.1461e-05
4.8578e-05
4.32987e-05
4.88415e-05
0.000102087
5.16294e-05
0.000217675
0.000200237
0.000107404
4.98711e-05
0.000216083
0.000102088
5.1581e-05
0.000217675
0.000200225
0.000107447
4.98886e-05
0.000216084
4.09842e-05
4.90637e-05
4.88887e-05
3.96106e-05
4.10229e-05
4.90631e-05
4.88878e-05
3.96067e-05
0.000100548
0.00019801
4.79777e-05
0.000212825
4.9355e-05
0.000214465
9.58886e-05