/*--------------------------------*- C++ -*----------------------------------*\
| =========                 |                                                 |
| \\      /  F ield         | OpenFOAM: The Open Source CFD Toolbox           |
|  \\    /   O peration     | Version:  v1906                                 |
|   \\  /    A nd           | Web:      www.OpenFOAM.com                      |
|    \\/     M anipulation  |                                                 |
\*---------------------------------------------------------------------------*/
FoamFile
{
    version     2.0;
    format      ascii;
    class       volVectorField;
    location    "750";
    object      U;
}
// * * * * * * * * * * * * * * * * * * * * * * * * * * * * * * * * * * * * * //

dimensions      [0 1 -1 0 0 0 0];


internalField   nonuniform List<vector> 
42616
(
(0.00010616 0.000106165 0.100294)
(-0.000184949 0.000115435 0.10039)
(0.000115516 -0.00018493 0.10039)
(-0.00024779 -0.000247751 0.100398)
(9.72042e-05 9.71517e-05 0.100854)
(-0.000151413 9.3613e-05 0.100938)
(9.37068e-05 -0.000151214 0.100938)
(-0.00019434 -0.00019436 0.100971)
(9.7079e-05 9.70504e-05 0.101368)
(-0.00015224 9.09212e-05 0.101447)
(9.08897e-05 -0.000152414 0.101447)
(-0.000194748 -0.00019474 0.101474)
(9.48377e-05 9.48154e-05 0.101886)
(-0.000149303 8.71587e-05 0.101954)
(8.72185e-05 -0.000149368 0.101954)
(-0.000192215 -0.000192184 0.101967)
(9.14338e-05 9.14325e-05 0.102391)
(-0.000143668 8.24563e-05 0.102442)
(8.25333e-05 -0.000143688 0.102442)
(-0.000187012 -0.000186994 0.102435)
(8.79781e-05 8.79685e-05 0.102877)
(-0.000137776 7.83953e-05 0.102907)
(7.84452e-05 -0.000137751 0.102907)
(-0.000181584 -0.000181566 0.102874)
(8.48287e-05 8.48103e-05 0.103344)
(-0.000132374 7.51248e-05 0.103348)
(7.51903e-05 -0.000132328 0.103348)
(-0.00017692 -0.000176922 0.103285)
(8.21014e-05 8.21044e-05 0.103793)
(-0.000127645 7.25723e-05 0.103768)
(7.26337e-05 -0.000127574 0.103768)
(-0.00017316 -0.00017315 0.103668)
(7.98116e-05 7.98161e-05 0.104226)
(-0.000123542 7.05829e-05 0.104168)
(7.06342e-05 -0.00012346 0.104168)
(-0.000170222 -0.000170226 0.104027)
(7.7868e-05 7.78302e-05 0.104646)
(-0.000120011 6.92389e-05 0.10455)
(6.91958e-05 -0.000119931 0.10455)
(-0.000168082 -0.000168089 0.104363)
(7.61318e-05 7.60866e-05 0.105053)
(-0.000116839 6.8152e-05 0.104917)
(6.81323e-05 -0.00011677 0.104917)
(-0.000166525 -0.000166582 0.104678)
(7.45692e-05 7.45096e-05 0.105449)
(-0.000113865 6.71442e-05 0.105269)
(6.71332e-05 -0.000113793 0.105269)
(-0.000165175 -0.000165281 0.104972)
(7.31033e-05 7.30452e-05 0.105836)
(-0.000111201 6.61347e-05 0.105606)
(6.61463e-05 -0.000111167 0.105606)
(-0.000164018 -0.000164195 0.105245)
(7.16379e-05 7.16043e-05 0.106213)
(-0.000108747 6.5052e-05 0.10593)
(6.50675e-05 -0.000108703 0.10593)
(-0.000162991 -0.000163099 0.105497)
(7.02016e-05 7.01911e-05 0.106581)
(-0.000106337 6.40049e-05 0.106239)
(6.40098e-05 -0.000106268 0.106239)
(-0.000161764 -0.000161783 0.105727)
(6.87874e-05 6.87887e-05 0.10694)
(-0.000103959 6.30039e-05 0.106534)
(6.30155e-05 -0.000103874 0.106533)
(-0.000160276 -0.000160294 0.105934)
(6.74008e-05 6.74073e-05 0.10729)
(-0.000101618 6.1996e-05 0.106813)
(6.20003e-05 -0.000101541 0.106813)
(-0.000158657 -0.000158687 0.106117)
(6.60624e-05 6.60859e-05 0.107631)
(-9.93324e-05 6.09863e-05 0.107077)
(6.1003e-05 -9.93851e-05 0.107077)
(-0.000156836 -0.000156876 0.106274)
(6.47636e-05 6.48069e-05 0.107963)
(-9.7342e-05 6.00463e-05 0.107325)
(6.0037e-05 -9.74237e-05 0.107325)
(-0.000154774 -0.000154811 0.106405)
(6.35017e-05 6.35321e-05 0.108287)
(-9.54807e-05 5.90634e-05 0.107556)
(5.90645e-05 -9.55474e-05 0.107556)
(-0.000152344 -0.00015237 0.106508)
(6.22749e-05 6.22873e-05 0.108602)
(-9.36438e-05 5.80593e-05 0.10777)
(5.8038e-05 -9.36959e-05 0.10777)
(-0.000149487 -0.000149498 0.106585)
(0.000138075 0.000138072 0.100281)
(0.000126438 0.000159958 0.100229)
(-0.000126371 0.000159921 0.100229)
(-0.000137942 0.00013801 0.10028)
(0.000159968 0.000126455 0.100229)
(0.000159664 -0.000126408 0.100229)
(9.37969e-05 9.38097e-05 0.100152)
(-9.37311e-05 9.37843e-05 0.100152)
(9.36731e-05 -9.38319e-05 0.100152)
(-9.38017e-05 -9.38393e-05 0.100152)
(-0.000159853 0.000126407 0.100229)
(-0.000159943 -0.000126418 0.100229)
(0.000137772 -0.000138122 0.10028)
(0.000126267 -0.000160027 0.100229)
(-0.000126411 -0.000159939 0.100229)
(-0.000138046 -0.000137984 0.100281)
(0.000247828 0.000247834 0.100398)
(0.000112796 0.000112697 0.100896)
(0.000115565 0.000184817 0.10039)
(-0.000115512 0.000184891 0.10039)
(9.31938e-05 0.000149005 0.100817)
(-9.31287e-05 0.000149023 0.100817)
(-0.000247721 0.000247699 0.100398)
(-0.000112648 0.000112606 0.100896)
(0.000184946 0.000115538 0.10039)
(0.000184875 -0.000115493 0.10039)
(0.000149031 9.31656e-05 0.100817)
(0.000149063 -9.30994e-05 0.100817)
(-0.000184957 -0.000115564 0.10039)
(-0.000148969 9.30967e-05 0.100817)
(-0.000149013 -9.31878e-05 0.100817)
(0.000247637 -0.000247864 0.100398)
(0.000112795 -0.000112585 0.100896)
(-0.000115576 -0.000184926 0.10039)
(9.32207e-05 -0.000148709 0.100817)
(-9.31854e-05 -0.000148918 0.100817)
(-0.000112763 -0.000112761 0.100896)
(0.000194422 0.000194284 0.100971)
(0.00010551 0.000105376 0.101399)
(9.36535e-05 0.000151502 0.100938)
(-9.36045e-05 0.000151526 0.100938)
(9.14778e-05 0.000152169 0.101319)
(-9.14196e-05 0.000152191 0.101319)
(-0.000194265 0.000194228 0.100971)
(-0.000105422 0.00010526 0.101399)
(0.000151498 9.36314e-05 0.100938)
(0.000151537 -9.35819e-05 0.100938)
(0.000152142 9.14936e-05 0.101319)
(0.000152098 -9.15019e-05 0.101319)
(-0.000151462 -9.36697e-05 0.100938)
(-0.000152066 9.14388e-05 0.101319)
(-0.000152151 -9.13755e-05 0.101319)
(0.000194353 -0.000194216 0.100971)
(0.000105289 -0.000105545 0.101399)
(-9.36598e-05 -0.000151411 0.100938)
(9.14241e-05 -0.000152231 0.101319)
(-9.14067e-05 -0.000152129 0.101319)
(-0.00010538 -0.00010537 0.101399)
(0.000194898 0.000194747 0.101474)
(9.78151e-05 9.77452e-05 0.101896)
(9.09528e-05 0.000152308 0.101447)
(-9.09094e-05 0.000152312 0.101447)
(8.83693e-05 0.000150497 0.101828)
(-8.82833e-05 0.000150467 0.101828)
(-0.000194811 0.000194637 0.101474)
(-9.7754e-05 9.75817e-05 0.101896)
(0.000152275 9.0983e-05 0.101447)
(0.000152223 -9.0991e-05 0.101447)
(0.000150449 8.83879e-05 0.101828)
(0.000150442 -8.83302e-05 0.101828)
(-0.000152314 -9.08662e-05 0.101447)
(-0.000150465 8.8288e-05 0.101828)
(-0.000150523 -8.83253e-05 0.101828)
(0.000194646 -0.000194941 0.101474)
(9.76441e-05 -9.7847e-05 0.101896)
(-9.09217e-05 -0.000152279 0.101447)
(8.83264e-05 -0.00015055 0.101828)
(-8.83702e-05 -0.000150452 0.101828)
(-9.78079e-05 -9.77486e-05 0.101896)
(0.000192254 0.00019216 0.101967)
(8.84958e-05 8.84721e-05 0.10237)
(8.72396e-05 0.000149339 0.101954)
(-8.7149e-05 0.000149305 0.101954)
(8.36749e-05 0.000145212 0.102322)
(-8.35583e-05 0.000145166 0.102322)
(-0.000192183 0.000192033 0.101967)
(-8.84196e-05 8.83479e-05 0.10237)
(0.00014929 8.72532e-05 0.101954)
(0.00014929 -8.7189e-05 0.101954)
(0.000145133 8.37062e-05 0.102322)
(0.00014514 -8.35974e-05 0.102322)
(-0.000149366 -8.72235e-05 0.101954)
(-0.000145157 8.3628e-05 0.102322)
(-0.000145228 -8.3725e-05 0.102322)
(0.000192084 -0.000192256 0.101967)
(8.83916e-05 -8.85027e-05 0.10237)
(-8.72637e-05 -0.000149288 0.101954)
(8.36956e-05 -0.000145187 0.102322)
(-8.37478e-05 -0.000145128 0.102322)
(-8.85602e-05 -8.85064e-05 0.10237)
(0.000186998 0.000186932 0.102435)
(7.971e-05 7.97344e-05 0.102816)
(8.2499e-05 0.000143728 0.102442)
(-8.24033e-05 0.000143686 0.102442)
(7.93796e-05 0.000139286 0.102793)
(-7.93105e-05 0.000139234 0.102793)
(-0.000186917 0.000186823 0.102435)
(-7.96611e-05 7.96701e-05 0.102816)
(0.00014364 8.25236e-05 0.102442)
(0.00014365 -8.24423e-05 0.102442)
(0.00013918 7.93808e-05 0.102793)
(0.000139205 -7.93264e-05 0.102793)
(-0.000143735 -8.25334e-05 0.102442)
(-0.000139214 7.93309e-05 0.102793)
(-0.00013927 -7.93589e-05 0.102793)
(0.00018685 -0.000186997 0.102435)
(7.97102e-05 -7.96791e-05 0.102816)
(-8.25674e-05 -0.00014363 0.102442)
(7.93827e-05 -0.000139199 0.102793)
(-7.9388e-05 -0.000139161 0.102793)
(-7.97478e-05 -7.96692e-05 0.102816)
(0.000181601 0.000181568 0.102874)
(7.19433e-05 7.19618e-05 0.103234)
(7.84459e-05 0.000137844 0.102907)
(-7.83858e-05 0.000137803 0.102907)
(7.5932e-05 0.000133725 0.10324)
(-7.58803e-05 0.000133669 0.10324)
(-0.000181538 0.000181497 0.102874)
(-7.19182e-05 7.19097e-05 0.103234)
(0.000137742 7.84371e-05 0.102907)
(0.000137769 -7.8389e-05 0.102907)
(0.000133623 7.59042e-05 0.10324)
(0.000133667 -7.58751e-05 0.10324)
(-0.000137828 -7.84113e-05 0.102907)
(-0.000133663 7.58706e-05 0.10324)
(-0.000133704 -7.58773e-05 0.10324)
(0.000181534 -0.000181577 0.102874)
(7.19747e-05 -7.19175e-05 0.103234)
(-7.84429e-05 -0.000137723 0.102907)
(7.59357e-05 -0.000133622 0.10324)
(-7.59111e-05 -0.000133606 0.10324)
(-7.19655e-05 -7.19091e-05 0.103234)
(0.000176955 0.000176921 0.103284)
(6.51069e-05 6.51591e-05 0.103625)
(7.51891e-05 0.000132436 0.103348)
(-7.51411e-05 0.000132381 0.103348)
(7.31967e-05 0.000128836 0.103665)
(-7.31701e-05 0.000128771 0.103665)
(-0.000176909 0.000176857 0.103285)
(-6.51157e-05 6.51165e-05 0.103626)
(0.000132329 7.51591e-05 0.103348)
(0.000132377 -7.51327e-05 0.103348)
(0.000128692 7.31831e-05 0.103665)
(0.00012876 -7.31542e-05 0.103665)
(-0.00013241 -7.5127e-05 0.103348)
(-0.000128763 7.31558e-05 0.103665)
(-0.000128787 -7.31338e-05 0.103665)
(0.000176914 -0.000176936 0.103285)
(6.51701e-05 -6.51013e-05 0.103626)
(-7.51582e-05 -0.000132311 0.103348)
(7.32178e-05 -0.000128697 0.103665)
(-7.31661e-05 -0.00012867 0.103665)
(-6.51416e-05 -6.50735e-05 0.103626)
(0.000173185 0.00017317 0.103668)
(5.9137e-05 5.92506e-05 0.103993)
(7.26056e-05 0.000127708 0.103768)
(-7.25908e-05 0.000127649 0.103768)
(7.10463e-05 0.000124561 0.104069)
(-7.10421e-05 0.000124511 0.10407)
(-0.000173168 0.000173119 0.103668)
(-5.91625e-05 5.92238e-05 0.103993)
(0.000127567 7.25987e-05 0.103768)
(0.000127638 -7.25734e-05 0.103768)
(0.000124417 7.10501e-05 0.10407)
(0.000124494 -7.10236e-05 0.10407)
(-0.000127665 -7.25479e-05 0.103768)
(-0.000124509 7.10255e-05 0.10407)
(-0.000124521 -7.09884e-05 0.10407)
(0.000173165 -0.000173185 0.103668)
(5.92647e-05 -5.91343e-05 0.103993)
(-7.25805e-05 -0.00012754 0.103768)
(7.10814e-05 -0.000124426 0.10407)
(-7.10218e-05 -0.000124385 0.10407)
(-5.91829e-05 -5.91011e-05 0.103993)
(0.000170259 0.000170206 0.104027)
(5.41582e-05 5.435e-05 0.104338)
(7.06353e-05 0.000123596 0.104168)
(-7.06328e-05 0.000123548 0.104168)
(6.96753e-05 0.000120914 0.104456)
(-6.96673e-05 0.000120872 0.104456)
(-0.000170242 0.000170163 0.104027)
(-5.41692e-05 5.43471e-05 0.104338)
(0.000123452 7.06147e-05 0.104168)
(0.000123527 -7.06132e-05 0.104168)
(0.000120764 6.95592e-05 0.104456)
(0.000120822 -6.96332e-05 0.104456)
(-0.000123549 -7.05327e-05 0.104168)
(-0.000120848 6.95391e-05 0.104456)
(-0.000120847 -6.94715e-05 0.104456)
(0.000170193 -0.000170274 0.104027)
(5.43403e-05 -5.40781e-05 0.104338)
(-7.05608e-05 -0.000123417 0.104168)
(6.94979e-05 -0.000120762 0.104456)
(-6.94324e-05 -0.00012073 0.104456)
(-5.41657e-05 -5.40482e-05 0.104338)
(0.00016815 0.000168163 0.104363)
(4.97365e-05 4.98777e-05 0.104663)
(6.9391e-05 0.000120081 0.10455)
(-6.93814e-05 0.000120038 0.10455)
(6.86333e-05 0.000117708 0.104826)
(-6.85833e-05 0.000117656 0.104827)
(-0.000168116 0.000168133 0.104363)
(-4.96603e-05 4.98674e-05 0.104663)
(0.000119932 6.92691e-05 0.10455)
(0.000119983 -6.93567e-05 0.10455)
(0.000117552 6.85002e-05 0.104827)
(0.000117585 -6.85834e-05 0.104827)
(-0.000120017 -6.91935e-05 0.10455)
(-0.000117607 6.84154e-05 0.104827)
(-0.000117636 -6.84313e-05 0.104827)
(0.000168124 -0.00016812 0.104363)
(4.98397e-05 -4.96721e-05 0.104663)
(-6.91404e-05 -0.000119908 0.10455)
(6.83914e-05 -0.000117541 0.104827)
(-6.83523e-05 -0.000117557 0.104827)
(-4.97149e-05 -4.96753e-05 0.104663)
(0.000166611 0.000166595 0.104678)
(4.55429e-05 4.55958e-05 0.104968)
(6.83718e-05 0.00011693 0.104917)
(-6.83253e-05 0.000116885 0.104917)
(6.76228e-05 0.000114682 0.105182)
(-6.75665e-05 0.000114642 0.105182)
(-0.000166523 0.000166562 0.104678)
(-4.54687e-05 4.56295e-05 0.104968)
(0.000116783 6.82401e-05 0.104917)
(0.000116815 -6.83292e-05 0.104917)
(0.000114557 6.74877e-05 0.105182)
(0.000114573 -6.75706e-05 0.105182)
(-0.000116873 -6.81828e-05 0.104917)
(-0.000114589 6.73935e-05 0.105182)
(-0.000114622 -6.74403e-05 0.105182)
(0.000166543 -0.00016658 0.104678)
(4.55924e-05 -4.54922e-05 0.104968)
(-6.80973e-05 -0.000116805 0.104917)
(6.73797e-05 -0.000114522 0.105182)
(-6.7342e-05 -0.000114588 0.105182)
(-4.54862e-05 -4.55289e-05 0.104968)
(0.00016529 0.000165223 0.104972)
(4.15966e-05 4.15867e-05 0.105253)
(6.73739e-05 0.000113958 0.105268)
(-6.73138e-05 0.000113908 0.105268)
(6.66262e-05 0.000111909 0.105523)
(-6.65482e-05 0.000111884 0.105523)
(-0.000165186 0.000165216 0.104972)
(-4.15483e-05 4.16334e-05 0.105253)
(0.000113831 6.72413e-05 0.105269)
(0.000113841 -6.73195e-05 0.105268)
(0.000111831 6.65086e-05 0.105523)
(0.000111831 -6.65502e-05 0.105523)
(-0.000113897 -6.71939e-05 0.105269)
(-0.000111829 6.6396e-05 0.105523)
(-0.00011184 -6.64272e-05 0.105523)
(0.000165199 -0.000165247 0.104972)
(4.15805e-05 -4.1558e-05 0.105253)
(-6.70927e-05 -0.000113872 0.105269)
(6.64031e-05 -0.000111792 0.105523)
(-6.63441e-05 -0.000111836 0.105523)
(-4.15026e-05 -4.16036e-05 0.105253)
(0.000164157 0.000164043 0.105245)
(3.76361e-05 3.77456e-05 0.105519)
(6.63592e-05 0.000111274 0.105606)
(-6.62882e-05 0.000111252 0.105606)
(6.55716e-05 0.000109427 0.10585)
(-6.55254e-05 0.000109384 0.10585)
(-0.000164111 0.000164047 0.105245)
(-3.75584e-05 3.77002e-05 0.105519)
(0.000111205 6.62597e-05 0.105606)
(0.0001112 -6.62864e-05 0.105606)
(0.000109348 6.54512e-05 0.10585)
(0.000109346 -6.55123e-05 0.10585)
(-0.000111208 -6.61655e-05 0.105606)
(-0.000109348 6.5319e-05 0.10585)
(-0.000109352 -6.5382e-05 0.10585)
(0.000164025 -0.000164159 0.105245)
(3.77156e-05 -3.75462e-05 0.105519)
(-6.60848e-05 -0.000111206 0.105606)
(6.53381e-05 -0.00010931 0.10585)
(-6.5279e-05 -0.000109332 0.10585)
(-3.75987e-05 -3.75757e-05 0.105519)
(0.000163093 0.000163039 0.105497)
(3.34814e-05 3.36434e-05 0.105764)
(6.53057e-05 0.000108815 0.105929)
(-6.52692e-05 0.000108776 0.105929)
(6.45509e-05 0.000107005 0.106163)
(-6.45309e-05 0.000106952 0.106163)
(-0.000163053 0.000162994 0.105497)
(-3.33856e-05 3.35547e-05 0.105764)
(0.000108734 6.51857e-05 0.10593)
(0.000108739 -6.52478e-05 0.105929)
(0.000106911 6.44112e-05 0.106163)
(0.000106933 -6.44974e-05 0.106163)
(-0.000108748 -6.51172e-05 0.10593)
(-0.000106931 6.42589e-05 0.106163)
(-0.000106939 -6.43569e-05 0.106163)
(0.000162995 -0.000163066 0.105497)
(3.36467e-05 -3.33535e-05 0.105763)
(-6.50174e-05 -0.000108717 0.10593)
(6.42703e-05 -0.000106873 0.106163)
(-6.42304e-05 -0.000106869 0.106163)
(-3.34772e-05 -3.33528e-05 0.105764)
(0.000161822 0.000161832 0.105727)
(2.93862e-05 2.95107e-05 0.105986)
(6.42991e-05 0.000106397 0.106239)
(-6.42857e-05 0.000106358 0.106239)
(6.35492e-05 0.000104623 0.106461)
(-6.35559e-05 0.000104578 0.106461)
(-0.000161784 0.000161743 0.105727)
(-2.93034e-05 2.94305e-05 0.105986)
(0.000106305 6.41563e-05 0.106239)
(0.000106338 -6.42446e-05 0.106239)
(0.000104527 6.34229e-05 0.106461)
(0.000104566 -6.34937e-05 0.106461)
(-0.000106346 -6.41074e-05 0.106239)
(-0.000104547 6.32652e-05 0.106461)
(-0.000104568 -6.33635e-05 0.106461)
(0.000161801 -0.000161773 0.105727)
(2.95102e-05 -2.92556e-05 0.105986)
(-6.39819e-05 -0.000106263 0.106239)
(6.32662e-05 -0.000104465 0.106461)
(-6.32436e-05 -0.000104456 0.106461)
(-2.93517e-05 -2.92481e-05 0.105986)
(0.000160343 0.000160334 0.105934)
(2.55298e-05 2.56242e-05 0.106186)
(6.32973e-05 0.00010402 0.106533)
(-6.32919e-05 0.000103985 0.106533)
(6.25394e-05 0.000102281 0.106744)
(-6.25294e-05 0.000102229 0.106744)
(-0.0001603 0.000160252 0.105934)
(-2.54509e-05 2.55072e-05 0.106186)
(0.000103929 6.3167e-05 0.106533)
(0.000103979 -6.32394e-05 0.106533)
(0.000102193 6.24261e-05 0.106745)
(0.000102225 -6.24767e-05 0.106744)
(-0.000103986 -6.31143e-05 0.106533)
(-0.000102195 6.22486e-05 0.106745)
(-0.000102234 -6.23646e-05 0.106744)
(0.000160313 -0.000160293 0.105934)
(2.56025e-05 -2.54027e-05 0.106186)
(-6.2996e-05 -0.000103866 0.106533)
(6.22586e-05 -0.000102119 0.106745)
(-6.22463e-05 -0.000102102 0.106745)
(-2.54702e-05 -2.53914e-05 0.106186)
(0.000158726 0.000158704 0.106117)
(2.19806e-05 2.20668e-05 0.10636)
(6.22868e-05 0.000101681 0.106813)
(-6.22651e-05 0.000101656 0.106813)
(6.15302e-05 0.000100013 0.107012)
(-6.14944e-05 9.99224e-05 0.107012)
(-0.00015869 0.000158612 0.106117)
(-2.18928e-05 2.19169e-05 0.106361)
(0.000101601 6.21634e-05 0.106813)
(0.000101636 -6.22211e-05 0.106813)
(9.99405e-05 6.14384e-05 0.107013)
(9.99447e-05 -6.14798e-05 0.107012)
(-0.000101664 -6.21121e-05 0.106813)
(-9.98735e-05 6.12312e-05 0.107013)
(-9.99408e-05 -6.13567e-05 0.107012)
(0.000158662 -0.000158679 0.106117)
(2.20018e-05 -2.1875e-05 0.10636)
(-6.19936e-05 -0.000101527 0.106813)
(6.12462e-05 -9.98775e-05 0.107012)
(-6.1241e-05 -9.98016e-05 0.107013)
(-2.1904e-05 -2.18455e-05 0.10636)
(0.000156917 0.000156905 0.106274)
(1.86633e-05 1.87546e-05 0.106509)
(6.12921e-05 9.95113e-05 0.107077)
(-6.12407e-05 9.93871e-05 0.107077)
(6.05612e-05 9.80166e-05 0.107264)
(-6.05284e-05 9.78751e-05 0.107264)
(-0.000156868 0.000156783 0.106274)
(-1.86011e-05 1.86071e-05 0.10651)
(9.94231e-05 6.11865e-05 0.107077)
(9.94382e-05 -6.12408e-05 0.107077)
(9.79557e-05 6.05079e-05 0.107265)
(9.79306e-05 -6.05298e-05 0.107264)
(-9.94078e-05 -6.11138e-05 0.107077)
(-9.78142e-05 6.02829e-05 0.107265)
(-9.78872e-05 -6.03993e-05 0.107264)
(0.000156817 -0.000156894 0.106274)
(1.86509e-05 -1.85843e-05 0.106509)
(-6.10013e-05 -9.92615e-05 0.107077)
(6.02786e-05 -9.78967e-05 0.107264)
(-6.02882e-05 -9.77539e-05 0.107264)
(-1.86072e-05 -1.85531e-05 0.106509)
(0.000154845 0.000154855 0.106404)
(1.55395e-05 1.56183e-05 0.106631)
(6.03222e-05 9.75842e-05 0.107325)
(-6.02844e-05 9.74036e-05 0.107325)
(5.95843e-05 9.60819e-05 0.107499)
(-5.95619e-05 9.60102e-05 0.107499)
(-0.000154812 0.000154719 0.106405)
(-1.54873e-05 1.55161e-05 0.106631)
(9.74508e-05 6.02454e-05 0.107325)
(9.74491e-05 -6.02903e-05 0.107324)
(9.60565e-05 5.95439e-05 0.1075)
(9.60207e-05 -5.95589e-05 0.107499)
(-9.74151e-05 -6.01564e-05 0.107325)
(-9.59288e-05 5.93114e-05 0.1075)
(-9.59886e-05 -5.94184e-05 0.107499)
(0.000154718 -0.00015484 0.106405)
(1.5511e-05 -1.54672e-05 0.106631)
(-6.00491e-05 -9.72749e-05 0.107325)
(5.93032e-05 -9.60022e-05 0.1075)
(-5.93211e-05 -9.58635e-05 0.1075)
(-1.55079e-05 -1.54498e-05 0.106631)
(0.000152396 0.000152433 0.106508)
(1.26477e-05 1.26454e-05 0.106725)
(5.93377e-05 9.56523e-05 0.107556)
(-5.93143e-05 9.55502e-05 0.107556)
(5.85591e-05 9.41367e-05 0.107717)
(-5.85589e-05 9.41984e-05 0.107718)
(-0.000152358 0.000152291 0.106509)
(-1.25621e-05 1.25563e-05 0.106726)
(9.55585e-05 5.92377e-05 0.107556)
(9.55608e-05 -5.93132e-05 0.107556)
(9.42189e-05 5.85212e-05 0.107718)
(9.41807e-05 -5.8535e-05 0.107718)
(-9.55429e-05 -5.91739e-05 0.107556)
(-9.40951e-05 5.83201e-05 0.107718)
(-9.41419e-05 -5.84048e-05 0.107718)
(0.000152278 -0.000152411 0.106508)
(1.25746e-05 -1.25109e-05 0.106725)
(-5.908e-05 -9.54073e-05 0.107556)
(5.82957e-05 -9.41501e-05 0.107718)
(-5.83076e-05 -9.40197e-05 0.107718)
(-1.25631e-05 -1.25024e-05 0.106725)
(0.000149543 0.000149579 0.106585)
(5.82911e-05 9.37475e-05 0.107769)
(-5.82838e-05 9.37476e-05 0.107769)
(-0.000149512 0.00014943 0.106585)
(9.37063e-05 5.8168e-05 0.10777)
(9.37326e-05 -5.82667e-05 0.107769)
(-9.37126e-05 -5.81411e-05 0.107769)
(0.000149439 -0.000149552 0.106585)
(-5.80506e-05 -9.3565e-05 0.10777)
(-3.92797e-07 -4.02639e-07 0.0999987)
(1.81955e-05 1.81859e-05 0.100004)
(-1.79499e-07 1.3427e-05 0.1)
(1.34335e-05 -1.8789e-07 0.1)
(-5.16843e-05 6.92273e-06 0.100012)
(-2.01042e-05 1.84344e-05 0.100002)
(-0.000135322 6.00969e-05 0.100068)
(-1.24462e-05 -5.71029e-07 0.0999962)
(7.09469e-06 -5.17322e-05 0.100012)
(1.84586e-05 -2.01552e-05 0.100002)
(-5.49972e-07 -1.24858e-05 0.0999962)
(5.87183e-05 -0.000136319 0.100069)
(-2.44792e-05 -2.44927e-05 0.100007)
(-0.000134114 -8.04002e-05 0.100055)
(-8.03439e-05 -0.00013359 0.100055)
(-1.3288e-05 0.000147061 0.100669)
(0.000226498 0.000575493 0.0996108)
(1.115e-05 0.000335767 0.100561)
(-3.8277e-05 0.000365719 0.0990402)
(-0.000413805 0.000954898 0.0979414)
(-0.000208639 0.000400996 0.095669)
(0.000146801 -1.36069e-05 0.100668)
(0.000577589 0.000225289 0.0996129)
(0.000336207 1.12647e-05 0.10056)
(0.000366177 -3.885e-05 0.0990406)
(-0.000106189 0.000106125 0.100294)
(0.000106123 -0.000106148 0.100294)
(-0.000106213 -0.00010619 0.100294)
(9.48198e-05 9.47625e-05 0.100733)
(-9.4775e-05 9.47369e-05 0.100733)
(9.4834e-05 -9.47441e-05 0.100733)
(-9.47738e-05 -9.47942e-05 0.100733)
(-0.00025337 6.4681e-06 0.100719)
(-0.000387432 0.000205348 0.100572)
(-0.000169218 3.99341e-05 0.100331)
(-0.000145314 8.85552e-05 0.100561)
(-0.000335682 2.72526e-05 0.100496)
(-0.000150691 0.000168767 0.100661)
(-0.000141317 3.22985e-05 0.100497)
(0.000953962 -0.000411638 0.097935)
(0.000401067 -0.000208037 0.0956684)
(5.74905e-06 -0.000252869 0.100718)
(3.99496e-05 -0.000169102 0.100331)
(0.0002059 -0.00038741 0.100572)
(8.85539e-05 -0.000145159 0.100561)
(2.66316e-05 -0.000335343 0.100497)
(3.22386e-05 -0.000141077 0.100497)
(0.00016934 -0.000149852 0.10066)
(-0.0004169 -0.000169346 0.100452)
(-0.000169516 -0.000417303 0.100453)
(-0.000112687 -0.000112629 0.100646)
(-2.17025e-05 -9.06825e-05 0.100491)
(-9.09233e-05 -2.17894e-05 0.10049)
(9.23274e-07 0.00017764 0.100868)
(-4.52743e-05 0.00035615 0.098324)
(-3.47245e-06 0.000192228 0.100779)
(-3.92683e-05 0.000318602 0.0979432)
(-0.000195208 0.000322891 0.0926303)
(-0.000170776 0.000277774 0.0910095)
(0.000177545 5.63232e-07 0.100867)
(0.000356731 -4.51326e-05 0.0983248)
(0.000192202 -3.78163e-06 0.100779)
(0.000319051 -3.91923e-05 0.0979435)
(-9.71379e-05 9.71381e-05 0.100854)
(9.72436e-05 -9.71779e-05 0.100854)
(-9.71602e-05 -9.71737e-05 0.100854)
(9.7236e-05 9.72025e-05 0.101238)
(-9.72004e-05 9.71945e-05 0.101238)
(9.72366e-05 -9.73657e-05 0.101238)
(-9.72254e-05 -9.72158e-05 0.101238)
(-0.000248093 1.96967e-05 0.101155)
(-0.000204869 0.000198628 0.100823)
(-0.000156631 3.04458e-05 0.100889)
(-0.000151756 9.27997e-05 0.101063)
(-0.000288492 1.83347e-05 0.100985)
(-0.000171237 0.00018382 0.100948)
(-0.000158549 3.05466e-05 0.101015)
(0.00032341 -0.000194536 0.0926248)
(0.000278116 -0.000170051 0.0910082)
(1.95588e-05 -0.000247976 0.101154)
(3.04715e-05 -0.00015643 0.100889)
(0.000198671 -0.000204376 0.100823)
(9.28637e-05 -0.000151722 0.101063)
(1.78285e-05 -0.000288049 0.100985)
(3.06232e-05 -0.000158461 0.101014)
(0.000183513 -0.000171064 0.100946)
(-5.8657e-05 -9.16758e-05 0.10044)
(-9.1642e-05 -5.87855e-05 0.10044)
(-0.000108656 -0.000108691 0.101146)
(-6.29477e-05 -7.27809e-05 0.10044)
(-7.27367e-05 -6.32635e-05 0.100439)
(3.83711e-06 0.000195717 0.100968)
(-2.00858e-05 0.000325927 0.0971217)
(2.36279e-06 0.000223174 0.100898)
(-1.12609e-05 0.000284385 0.0967115)
(-0.00014693 0.000232587 0.0883819)
(-0.000119339 0.000189481 0.0870815)
(0.000195596 3.71513e-06 0.100967)
(0.000326353 -2.02026e-05 0.0971219)
(0.000223123 2.28781e-06 0.100899)
(0.000284729 -1.12255e-05 0.0967118)
(-9.70602e-05 9.70441e-05 0.101368)
(9.70716e-05 -9.72212e-05 0.101368)
(-9.70825e-05 -9.70632e-05 0.101368)
(9.55932e-05 9.55692e-05 0.101757)
(-9.55842e-05 9.55672e-05 0.101757)
(9.56007e-05 -9.56689e-05 0.101757)
(-9.55985e-05 -9.55831e-05 0.101757)
(-0.000242145 1.82149e-05 0.101587)
(-0.000220718 0.000187919 0.101026)
(-0.000161062 3.06017e-05 0.101404)
(-0.000152042 9.02291e-05 0.101575)
(-0.000287738 1.84383e-05 0.101417)
(-0.000177245 0.000163851 0.101133)
(-0.000161407 3.05411e-05 0.101534)
(0.000232524 -0.000146341 0.0883761)
(0.000189515 -0.000118929 0.0870812)
(1.87148e-05 -0.000242321 0.101587)
(3.08204e-05 -0.000161146 0.101404)
(0.000187288 -0.000221158 0.101026)
(9.02158e-05 -0.00015219 0.101575)
(1.89621e-05 -0.000288002 0.101417)
(3.07486e-05 -0.00016147 0.101534)
(0.000163357 -0.000177546 0.101132)
(-9.75444e-05 -8.56635e-05 0.10018)
(-8.56974e-05 -9.78021e-05 0.100179)
(-0.000101989 -0.000101926 0.10165)
(-9.41883e-05 -6.28409e-05 0.100113)
(-6.29094e-05 -9.44249e-05 0.100111)
(2.89161e-06 0.000197806 0.10097)
(5.28361e-06 0.000289913 0.0958336)
(2.42391e-06 0.00023412 0.100922)
(9.85168e-06 0.000245293 0.0954186)
(-9.83026e-05 0.00015725 0.08497)
(-7.36324e-05 0.000120213 0.0839842)
(0.00019778 2.76702e-06 0.100969)
(0.000290175 5.24622e-06 0.0958336)
(0.000234191 2.35401e-06 0.100923)
(0.000245454 9.98807e-06 0.0954189)
(-9.4821e-05 9.48131e-05 0.101886)
(9.48494e-05 -9.48896e-05 0.101886)
(-9.48399e-05 -9.48291e-05 0.101886)
(9.23116e-05 9.23073e-05 0.102266)
(-9.22822e-05 9.23085e-05 0.102266)
(9.23327e-05 -9.23305e-05 0.102266)
(-9.23163e-05 -9.23047e-05 0.102266)
(-0.000230671 1.61649e-05 0.101987)
(-0.00021992 0.000165788 0.101137)
(-0.000159846 2.99672e-05 0.101919)
(-0.000148004 8.59995e-05 0.102078)
(-0.000281707 1.62571e-05 0.101825)
(-0.000171278 0.000138637 0.101225)
(-0.000158826 2.97093e-05 0.102046)
(0.000157161 -9.78812e-05 0.0849653)
(0.000120217 -7.33676e-05 0.0839853)
(1.62462e-05 -0.000230703 0.101987)
(3.00805e-05 -0.000159873 0.101919)
(0.000165773 -0.000220079 0.101137)
(8.60634e-05 -0.000148054 0.102078)
(1.64423e-05 -0.000281783 0.101825)
(2.97992e-05 -0.000158831 0.102046)
(0.000138529 -0.000171302 0.101224)
(-0.00011864 -7.56367e-05 0.0997191)
(-7.56234e-05 -0.000118788 0.0997175)
(-9.32438e-05 -9.31931e-05 0.102137)
(-0.000109582 -5.16845e-05 0.0996063)
(-5.1612e-05 -0.000109687 0.0996039)
(9.74098e-07 0.000191101 0.100874)
(1.85142e-05 0.000251693 0.0945328)
(8.07976e-07 0.000233293 0.100847)
(1.83403e-05 0.000205885 0.094138)
(-6.0589e-05 0.000103393 0.082336)
(-4.05994e-05 7.28123e-05 0.081612)
(0.00019103 8.50947e-07 0.100873)
(0.000251767 1.85748e-05 0.094532)
(0.000233355 7.55069e-07 0.100848)
(0.000205959 1.85363e-05 0.0941384)
(-9.14048e-05 9.14326e-05 0.102391)
(9.14531e-05 -9.14477e-05 0.102391)
(-9.14383e-05 -9.14211e-05 0.102391)
(8.88219e-05 8.8817e-05 0.102757)
(-8.87963e-05 8.88135e-05 0.102757)
(8.88337e-05 -8.88252e-05 0.102757)
(-8.88262e-05 -8.87984e-05 0.102757)
(-0.000216008 1.41892e-05 0.102346)
(-0.000211327 0.000143491 0.101154)
(-0.000154967 2.89129e-05 0.102419)
(-0.00014217 8.13634e-05 0.10256)
(-0.000270559 1.40722e-05 0.102193)
(-0.000160615 0.000115042 0.101226)
(-0.000153519 2.86564e-05 0.10254)
(0.000103255 -6.02873e-05 0.0823323)
(7.27532e-05 -4.02622e-05 0.0816137)
(1.42495e-05 -0.000215972 0.102346)
(2.89693e-05 -0.000154952 0.102419)
(0.000143485 -0.000211418 0.101155)
(8.1418e-05 -0.000142176 0.10256)
(1.41073e-05 -0.000270605 0.102193)
(2.87077e-05 -0.000153479 0.10254)
(0.000114909 -0.000160591 0.101225)
(-0.000127036 -6.70449e-05 0.0991154)
(-6.68803e-05 -0.000127086 0.099114)
(-8.40096e-05 -8.39295e-05 0.102597)
(-0.000113996 -4.30389e-05 0.0989736)
(-4.28825e-05 -0.000114077 0.0989716)
(-5.12714e-07 0.00017967 0.100692)
(2.061e-05 0.000215498 0.0932813)
(-8.77577e-07 0.000226014 0.100683)
(1.73443e-05 0.000169594 0.0929223)
(-3.54225e-05 6.86908e-05 0.0803304)
(-1.92113e-05 4.26243e-05 0.0798076)
(0.000179673 -5.10151e-07 0.100691)
(0.000215543 2.06166e-05 0.0932799)
(0.000226112 -8.77824e-07 0.100684)
(0.000169702 1.74801e-05 0.0929229)
(-8.7952e-05 8.79665e-05 0.102877)
(8.79901e-05 -8.79776e-05 0.102877)
(-8.79813e-05 -8.79513e-05 0.102877)
(8.5577e-05 8.55577e-05 0.103229)
(-8.55563e-05 8.55588e-05 0.103229)
(8.55947e-05 -8.55718e-05 0.103229)
(-8.55783e-05 -8.55431e-05 0.103229)
(-0.000200353 1.27113e-05 0.102663)
(-0.000199883 0.000124219 0.101088)
(-0.000149026 2.79372e-05 0.102898)
(-0.000136365 7.75075e-05 0.103019)
(-0.000257281 1.22309e-05 0.102518)
(-0.000148503 9.51564e-05 0.101146)
(-0.000147519 2.77175e-05 0.103014)
(6.88251e-05 -3.52027e-05 0.0803267)
(4.27402e-05 -1.88806e-05 0.0798088)
(1.28212e-05 -0.00020022 0.102662)
(2.79978e-05 -0.00014896 0.102898)
(0.000124294 -0.000199946 0.101089)
(7.75605e-05 -0.000136335 0.103019)
(1.23238e-05 -0.000257214 0.102518)
(2.77807e-05 -0.000147435 0.103014)
(9.51125e-05 -0.00014846 0.101145)
(-0.000126992 -6.11197e-05 0.0984176)
(-6.09681e-05 -0.000127094 0.0984164)
(-7.57317e-05 -7.56666e-05 0.103029)
(-0.000111416 -3.7198e-05 0.0982595)
(-3.70508e-05 -0.000111567 0.0982574)
(-9.51829e-07 0.000165929 0.100437)
(1.59386e-05 0.000183797 0.0921159)
(-1.6318e-06 0.000215245 0.100442)
(1.10796e-05 0.000138258 0.0917999)
(-2.02232e-05 4.80577e-05 0.0788001)
(-6.33624e-06 2.44683e-05 0.0784253)
(0.000165912 -8.60294e-07 0.100436)
(0.000183836 1.5936e-05 0.0921144)
(0.000215405 -1.48676e-06 0.100444)
(0.000138323 1.12726e-05 0.0918003)
(-8.48121e-05 8.48121e-05 0.103344)
(8.48483e-05 -8.48246e-05 0.103344)
(-8.48285e-05 -8.4793e-05 0.103344)
(8.2743e-05 8.27408e-05 0.103682)
(-8.27438e-05 8.27459e-05 0.103682)
(8.2779e-05 -8.27464e-05 0.103682)
(-8.27474e-05 -8.27034e-05 0.103682)
(-0.000184946 1.18901e-05 0.102939)
(-0.00018781 0.000108618 0.100948)
(-0.000143116 2.71481e-05 0.103356)
(-0.000131128 7.44291e-05 0.103455)
(-0.000243543 1.10504e-05 0.1028)
(-0.000136361 7.89573e-05 0.100996)
(-0.000141707 2.69856e-05 0.103467)
(4.80951e-05 -1.98781e-05 0.0787958)
(2.46423e-05 -6.09777e-06 0.0784268)
(1.19874e-05 -0.00018481 0.102938)
(2.72164e-05 -0.00014303 0.103356)
(0.000108739 -0.000187852 0.100949)
(7.44933e-05 -0.000131075 0.103455)
(1.11551e-05 -0.000243461 0.1028)
(2.70517e-05 -0.000141605 0.103467)
(7.8932e-05 -0.000136314 0.100995)
(-0.000122116 -5.7233e-05 0.0976627)
(-5.70613e-05 -0.000122248 0.0976613)
(-6.84371e-05 -6.83788e-05 0.103433)
(-0.000104955 -3.31067e-05 0.0974976)
(-3.29397e-05 -0.000105089 0.0974951)
(-4.04918e-07 0.000151469 0.100124)
(8.33164e-06 0.000157322 0.0910525)
(-1.29644e-06 0.000202904 0.10014)
(3.24426e-06 0.000112364 0.0907796)
(-1.14151e-05 3.62321e-05 0.0776183)