/*--------------------------------*- C++ -*----------------------------------*\
| =========                 |                                                 |
| \\      /  F ield         | OpenFOAM: The Open Source CFD Toolbox           |
|  \\    /   O peration     | Version:  v1912                                 |
|   \\  /    A nd           | Website:  www.openfoam.com                      |
|    \\/     M anipulation  |                                                 |
\*---------------------------------------------------------------------------*/
FoamFile
{
    version     2.0;
    format      ascii;
    class       volScalarField;
    location    "1.85";
    object      nut;
}
// * * * * * * * * * * * * * * * * * * * * * * * * * * * * * * * * * * * * * //

dimensions      [0 2 -1 0 0 0 0];


internalField   nonuniform List<scalar> 
171728
(
1.53113e-06
1.53421e-06
1.53489e-06
6.41782e-07
1.05663e-07
1.21264e-07
1.21431e-07
1.22078e-07
8.20382e-09
9.44482e-09
9.45196e-09
1.18581e-07
2.59799e-09
4.99168e-09
4.96229e-09
1.18802e-07
2.7538e-09
4.68736e-09
4.69065e-09
1.18806e-07
2.75643e-09
4.67724e-09
4.68199e-09
1.18807e-07
2.7467e-09
4.68185e-09
4.67266e-09
1.18807e-07
2.76339e-09
4.69007e-09
4.68464e-09
1.18806e-07
2.76307e-09
4.68502e-09
4.67572e-09
1.18809e-07
2.76032e-09
4.68436e-09
4.67661e-09
1.18807e-07
2.75464e-09
4.68385e-09
4.68064e-09
1.18808e-07
2.76275e-09
4.68203e-09
4.68021e-09
1.18808e-07
2.76415e-09
4.71724e-09
4.68336e-09
1.18807e-07
2.7694e-09
4.70892e-09
4.67637e-09
1.18807e-07
2.75254e-09
4.67123e-09
4.68231e-09
1.18807e-07
2.75399e-09
4.66831e-09
4.67728e-09
1.18809e-07
2.76423e-09
4.68773e-09
4.68087e-09
1.1881e-07
2.75687e-09
4.67388e-09
4.67807e-09
1.18808e-07
2.76914e-09
4.66005e-09
4.68135e-09
1.18807e-07
2.75133e-09
4.70218e-09
4.67785e-09
1.18799e-07
2.87593e-09
4.67616e-09
4.67947e-09
1.18811e-07
2.75526e-09
4.68644e-09
4.67922e-09
1.1881e-07
2.76125e-09
4.68482e-09
4.67994e-09
1.1881e-07
2.75971e-09
4.68599e-09
4.68168e-09
1.18811e-07
2.76189e-09
4.68273e-09
4.67868e-09
1.18811e-07
2.7586e-09
4.68315e-09
4.67829e-09
1.1881e-07
2.76251e-09
4.68695e-09
4.68234e-09
1.18811e-07
2.75981e-09
4.68449e-09
4.67988e-09
1.18811e-07
2.76043e-09
4.68332e-09
4.67873e-09
1.1881e-07
2.7606e-09
4.68529e-09
4.68084e-09
1.1881e-07
2.76103e-09
4.68574e-09
4.68023e-09
1.18811e-07
2.76109e-09
4.68368e-09
4.67941e-09
1.18811e-07
2.76034e-09
4.68645e-09
4.67983e-09
1.18811e-07
2.75967e-09
4.68603e-09
4.67955e-09
1.1881e-07
2.76185e-09
4.68738e-09
4.68036e-09
1.18812e-07
2.76026e-09
4.68301e-09
4.67672e-09
1.18811e-07
2.7616e-09
4.68621e-09
4.67995e-09
1.18811e-07
2.76092e-09
4.68588e-09
4.67962e-09
1.18811e-07
2.76131e-09
4.68785e-09
4.68648e-09
1.18812e-07
2.77813e-09
4.69321e-09
4.68511e-09
1.18798e-07
2.92245e-09
4.67232e-09
4.6801e-09
1.1881e-07
2.75855e-09
4.67016e-09
4.67625e-09
1.18811e-07
2.7614e-09
4.68419e-09
4.67483e-09
1.18812e-07
2.76217e-09
4.68063e-09
4.67382e-09
1.18812e-07
2.76489e-09
4.68247e-09
4.6793e-09
1.18812e-07
2.76352e-09
4.68051e-09
4.67463e-09
1.18811e-07
2.7614e-09
4.67907e-09
4.67742e-09
1.18814e-07
2.7636e-09
4.68186e-09
4.68296e-09
1.18812e-07
2.76305e-09
4.68227e-09
4.68363e-09
1.18811e-07
2.76349e-09
4.68104e-09
4.68239e-09
1.18812e-07
2.76121e-09
4.67861e-09
4.68025e-09
1.18812e-07
2.76397e-09
4.68156e-09
4.6821e-09
1.18811e-07
2.76359e-09
4.68151e-09
4.68209e-09
1.18812e-07
2.765e-09
4.69065e-09
4.68227e-09
1.18812e-07
2.76593e-09
4.68621e-09
4.6817e-09
1.18811e-07
2.76082e-09
4.68107e-09
4.68413e-09
1.18807e-07
2.75748e-09
4.68703e-09
4.68559e-09
1.18796e-07
2.75763e-09
4.68573e-09
4.68374e-09
1.18797e-07
2.75849e-09
4.6887e-09
4.68683e-09
1.18795e-07
2.7589e-09
4.68619e-09
4.6832e-09
1.18796e-07
2.75901e-09
4.68812e-09
4.68639e-09
1.18795e-07
2.75737e-09
4.68597e-09
4.68375e-09
1.18796e-07
2.75736e-09
4.6879e-09
4.68577e-09
1.18794e-07
2.75827e-09
4.68766e-09
4.68592e-09
1.18795e-07
2.75823e-09
4.68772e-09
4.68586e-09
1.18795e-07
2.75764e-09
4.68672e-09
4.68477e-09
1.18795e-07
2.75773e-09
4.68666e-09
4.68473e-09
1.18795e-07
2.75814e-09
4.68694e-09
4.68554e-09
1.18796e-07
2.75297e-09
4.68599e-09
4.68487e-09
1.18796e-07
2.75139e-09
4.68645e-09
4.66638e-09
1.18797e-07
2.75495e-09
4.6908e-09
4.6846e-09
1.18793e-07
2.75901e-09
4.6875e-09
4.68558e-09
1.18795e-07
2.75699e-09
4.68536e-09
4.68312e-09
1.18796e-07
2.75675e-09
4.68665e-09
4.68452e-09
1.18794e-07
2.75979e-09
4.68836e-09
4.68637e-09
1.18794e-07
2.75667e-09
4.68681e-09
4.68482e-09
1.18794e-07
2.75683e-09
4.68618e-09
4.68403e-09
1.18794e-07
2.75885e-09
4.68751e-09
4.6855e-09
1.18794e-07
2.7585e-09
4.68652e-09
4.6845e-09
1.18794e-07
2.75733e-09
4.68731e-09
4.68538e-09
1.18795e-07
2.75696e-09
4.68696e-09
4.6851e-09
1.18794e-07
2.75828e-09
4.68696e-09
4.68498e-09
1.18794e-07
2.75915e-09
4.68828e-09
4.68628e-09
1.18795e-07
2.75973e-09
4.68664e-09
4.68484e-09
1.18794e-07
2.76036e-09
4.68695e-09
4.68498e-09
1.18795e-07
2.76169e-09
4.68701e-09
4.6854e-09
1.18793e-07
2.76058e-09
4.68911e-09
4.68755e-09
1.18794e-07
2.75854e-09
4.6855e-09
4.68412e-09
1.18794e-07
2.75981e-09
4.68609e-09
4.68348e-09
1.18794e-07
2.76151e-09
4.68847e-09
4.68622e-09
1.18794e-07
2.76295e-09
4.68382e-09
4.67962e-09
1.18798e-07
2.82411e-09
4.7034e-09
4.70657e-09
1.18795e-07
5.33626e-09
5.5916e-09
5.64166e-09
1.18676e-07
5.66136e-08
5.07142e-08
5.06853e-08
1.16679e-07
5.89349e-07
2.42544e-07
2.42582e-07
6.08849e-07
5.44979e-07
8.69744e-07
8.7006e-07
5.45095e-07
8.69837e-07
8.69752e-07
2.4362e-06
2.43626e-06
2.4362e-06
2.43624e-06
8.69736e-07
8.6952e-07
5.44812e-07
8.69483e-07
8.69843e-07
5.44709e-07
6.41868e-07
3.10966e-07
1.53478e-06
1.53482e-06
2.67498e-07
2.67546e-07
6.41835e-07
3.10936e-07
1.53473e-06
1.53533e-06
2.67713e-07
2.67588e-07
1.53503e-06
2.67567e-07
2.67401e-07
6.4177e-07
3.10994e-07
1.53511e-06
2.67547e-07
2.67587e-07
3.11016e-07
1.22128e-07
3.00882e-07
1.21338e-07
1.21374e-07
1.5153e-08
1.5249e-08
1.22127e-07
3.00935e-07
1.2136e-07
1.21329e-07
1.51019e-08
1.51545e-08
1.21293e-07
1.50395e-08
1.51413e-08
1.22157e-07
3.00885e-07
1.21478e-07
1.5115e-08
1.50557e-08
3.00872e-07
1.18496e-07
3.00078e-07
9.50175e-09
9.49644e-09
5.31003e-09
5.30028e-09
1.18506e-07
3.00092e-07
9.51216e-09
9.50214e-09
5.26659e-09
5.30965e-09
9.51366e-09
5.27485e-09
5.32857e-09
1.18562e-07
3.00112e-07
9.51426e-09
5.23424e-09
5.21932e-09
3.00068e-07
1.18788e-07
3.0004e-07
5.01941e-09
5.05776e-09
4.75285e-09
4.76628e-09
1.18759e-07
3.00044e-07
4.95025e-09
5.01598e-09
4.69659e-09
4.76058e-09
5.03466e-09
4.69663e-09
4.74654e-09
1.18812e-07
3.00074e-07
4.96706e-09
4.67832e-09
4.68461e-09
3.00017e-07
1.18786e-07
3.00033e-07
4.75082e-09
4.75776e-09
4.73906e-09
4.75621e-09
1.18765e-07
3.00036e-07
4.6816e-09
4.75038e-09
4.69694e-09
4.74283e-09
4.73452e-09
4.67504e-09
4.72754e-09
1.18808e-07
3.00066e-07
4.6761e-09
4.66048e-09
4.66657e-09
3.00009e-07
1.18786e-07
3.00044e-07
4.74581e-09
4.76599e-09
4.71879e-09
4.78008e-09
1.18768e-07
3.00048e-07
4.66531e-09
4.74194e-09
4.68469e-09
4.73321e-09
4.72637e-09
4.68553e-09
4.71761e-09
1.18809e-07
3.0008e-07
4.66823e-09
4.65076e-09
4.65669e-09
3.00023e-07
1.1879e-07
3.00043e-07
4.69615e-09
4.7704e-09
4.75669e-09
4.76195e-09
1.18763e-07
3.00044e-07
4.6512e-09
4.73254e-09
4.69014e-09
4.73767e-09
4.71621e-09
4.68691e-09
4.72389e-09
1.18808e-07
3.00075e-07
4.65818e-09
4.6569e-09
4.66273e-09
3.00015e-07
1.1879e-07
3.00038e-07
4.74744e-09
4.76778e-09
4.74384e-09
4.76566e-09
1.18758e-07
3.00038e-07
4.67177e-09
4.74315e-09
4.69903e-09
4.74133e-09
4.7276e-09
4.68856e-09
4.72691e-09
1.18807e-07
3.00068e-07
4.66998e-09
4.66098e-09
4.66609e-09
3.00008e-07
1.18771e-07
3.00047e-07
4.74034e-09
4.76272e-09
4.71104e-09
4.74766e-09
1.18762e-07
3.00063e-07
4.66615e-09
4.73979e-09
4.67613e-09
4.73471e-09
4.72332e-09
4.68023e-09
4.71905e-09
1.1881e-07
3.00081e-07
4.66313e-09
4.65131e-09
4.65779e-09
3.00022e-07
1.18781e-07
3.00036e-07
4.72555e-09
4.72683e-09
4.74245e-09
4.69966e-09
1.18754e-07
3.00046e-07
4.66961e-09
4.73751e-09
4.6684e-09
4.73973e-09
4.71979e-09
4.68447e-09
4.72408e-09
1.18808e-07
3.00074e-07
4.66206e-09
4.65727e-09
4.66355e-09
3.00014e-07
1.18794e-07
3.00043e-07
4.79519e-09
4.7298e-09
4.74279e-09
4.70575e-09
1.18761e-07
3.00046e-07
4.67519e-09
4.73922e-09
4.68259e-09
4.73818e-09
4.72203e-09
4.68338e-09
4.72189e-09
1.18809e-07
3.00076e-07
4.66471e-09
4.65591e-09
4.65989e-09
3.00018e-07
1.18779e-07
3.00033e-07
4.74293e-09
4.70129e-09
4.74212e-09
4.69017e-09
1.18763e-07
3.00073e-07
4.67941e-09
4.73913e-09
4.6759e-09
4.73836e-09
4.7229e-09
4.70273e-09
4.73012e-09
1.18809e-07
3.00073e-07
4.66227e-09
4.65906e-09
4.65908e-09
3.00016e-07
1.18782e-07
3.0003e-07
4.74502e-09
4.71192e-09
4.728e-09
4.75778e-09
1.18754e-07
3.00069e-07
4.67477e-09
4.73973e-09
4.66402e-09
4.73342e-09
4.73096e-09
4.70268e-09
4.72597e-09
1.1881e-07
3.00078e-07
4.66351e-09
4.65405e-09
4.65799e-09
3.00024e-07
1.18787e-07
3.00032e-07
4.73035e-09
4.76437e-09
4.74512e-09
4.75461e-09
1.18761e-07
3.00051e-07
4.66341e-09
4.73379e-09
4.6583e-09
4.73898e-09
4.72328e-09
4.67714e-09
4.72612e-09
1.1881e-07
3.00075e-07
4.66067e-09
4.65658e-09
4.6647e-09
3.00016e-07
1.18781e-07
3.0004e-07
4.76324e-09
4.74586e-09
4.74193e-09
4.80447e-09
1.1877e-07
3.00031e-07
4.68504e-09
4.74171e-09
4.68257e-09
4.7365e-09
4.72726e-09
4.67309e-09
4.7211e-09
1.18809e-07
3.0008e-07
4.66897e-09
4.65409e-09
4.66033e-09
3.00022e-07
1.18779e-07
3.00027e-07
4.74179e-09
4.77311e-09
4.74999e-09
4.76411e-09
1.18788e-07
3.00022e-07
4.68191e-09
4.73708e-09
4.68426e-09
4.74028e-09
4.71871e-09
4.68199e-09
4.72732e-09
1.1881e-07
3.00074e-07
4.66132e-09
4.65758e-09
4.66554e-09
3.00013e-07
1.18781e-07
3.00038e-07
4.7318e-09
4.76313e-09
4.74327e-09
4.7429e-09
1.18782e-07
3.00069e-07
4.6855e-09
4.74105e-09
4.67922e-09
4.73459e-09
4.72438e-09
4.68069e-09
4.72139e-09
1.1881e-07
3.00083e-07
4.6658e-09
4.65233e-09
4.65937e-09
3.00022e-07
1.18778e-07
3.00049e-07
4.72515e-09
4.73284e-09
4.7241e-09
4.72489e-09
1.18795e-07
3.00066e-07
4.68032e-09
4.73859e-09
4.67544e-09
4.74027e-09
4.72402e-09
4.6561e-09
4.72171e-09
1.18809e-07
3.00079e-07
4.66486e-09
4.65711e-09
4.65743e-09
3.00024e-07
1.1878e-07
3.00029e-07
4.72306e-09
4.75626e-09
4.77404e-09
4.84602e-09
1.18826e-07
3.00101e-07
4.6747e-09
4.74055e-09
4.68394e-09
4.73357e-09
4.7208e-09
4.70271e-09
4.7386e-09
1.1881e-07
3.00078e-07
4.6555e-09
4.65605e-09
4.64837e-09
3.00034e-07
1.18816e-07
3.00099e-07
4.76011e-09
4.78682e-09
4.70804e-09
4.81845e-09
1.18766e-07
3.00071e-07
4.69479e-09
4.73478e-09
4.51928e-09
4.73953e-09
4.7513e-09
4.67266e-09
4.7262e-09
1.18812e-07
3.00083e-07
4.66726e-09
4.65251e-09
4.6608e-09
3.00025e-07
1.18772e-07
3.00059e-07
4.79356e-09
4.80613e-09
4.76237e-09
4.75916e-09
1.18766e-07
3.00054e-07
4.5936e-09
4.73642e-09
4.69423e-09
4.73619e-09
4.72364e-09
4.69067e-09
4.72251e-09
1.18811e-07
3.00082e-07
4.66198e-09
4.65527e-09
4.66233e-09
3.00024e-07
1.18799e-07
3.00059e-07
4.75424e-09
4.76195e-09
4.74269e-09
4.7647e-09
1.18778e-07
3.00055e-07
4.68039e-09
4.73743e-09
4.68349e-09
4.73713e-09
4.72248e-09
4.68484e-09
4.72335e-09
1.18812e-07
3.00083e-07
4.66442e-09
4.65533e-09
4.66191e-09
3.00023e-07
1.18798e-07
3.00054e-07
4.74724e-09
4.76649e-09
4.74095e-09
4.76739e-09
1.18777e-07
3.0005e-07
4.68221e-09
4.73902e-09
4.68359e-09
4.73972e-09
4.7238e-09
4.68748e-09
4.72446e-09
1.18811e-07
3.00079e-07
4.66581e-09
4.65829e-09
4.66997e-09
3.0002e-07
1.188e-07
3.00058e-07
4.74613e-09
4.76679e-09
4.73681e-09
4.76367e-09
1.18778e-07
3.00054e-07
4.6802e-09
4.7393e-09
4.6795e-09
4.73594e-09
4.72492e-09
4.68351e-09
4.72197e-09
1.18812e-07
3.00083e-07
4.67437e-09
4.65456e-09
4.6659e-09
3.00023e-07
1.18798e-07
3.00061e-07
4.74715e-09
4.76531e-09
4.7373e-09
4.76448e-09
1.18777e-07
3.00054e-07
4.68127e-09
4.73776e-09
4.67997e-09
4.737e-09
4.72061e-09
4.68544e-09
4.72334e-09
1.18812e-07
3.00082e-07
4.66864e-09
4.65532e-09
4.66465e-09
3.00022e-07
1.18799e-07
3.00054e-07
4.74263e-09
4.76347e-09
4.74156e-09
4.76795e-09
1.18777e-07
3.0005e-07
4.67677e-09
4.73615e-09
4.68421e-09
4.74029e-09
4.72293e-09
4.68746e-09
4.72462e-09
1.18812e-07
3.00078e-07
4.66833e-09
4.65804e-09
4.66748e-09
3.0002e-07
1.18798e-07
3.00059e-07
4.75046e-09
4.76908e-09
4.73657e-09
4.764e-09
1.18777e-07
3.00053e-07
4.68454e-09
4.74166e-09
4.67924e-09
4.73636e-09
4.72296e-09
4.68491e-09
4.72474e-09
1.18811e-07
3.00081e-07
4.66901e-09
4.65557e-09
4.66762e-09
3.00019e-07
1.18799e-07
3.00058e-07
4.74462e-09
4.76527e-09
4.73849e-09
4.76473e-09
1.18778e-07
3.00055e-07
4.67874e-09
4.73783e-09
4.68116e-09
4.73709e-09
4.72456e-09
4.68386e-09
4.72097e-09
1.18812e-07
3.00083e-07
4.67061e-09
4.65451e-09
4.6639e-09
3.00025e-07
1.18799e-07
3.00058e-07
4.74569e-09
4.76479e-09
4.73808e-09
4.76484e-09
1.18777e-07
3.00053e-07
4.67983e-09
4.73736e-09
4.68071e-09
4.73718e-09
4.72262e-09
4.68476e-09
4.7217e-09
1.18812e-07
3.00082e-07
4.66869e-09
4.65545e-09
4.66457e-09
3.00024e-07
1.18798e-07
3.00057e-07
4.74622e-09
4.76679e-09
4.74027e-09
4.76663e-09
1.18776e-07
3.00054e-07
4.68036e-09
4.73903e-09
4.6825e-09
4.73853e-09
4.72439e-09
4.68556e-09
4.72318e-09
1.18811e-07
3.00081e-07
4.67037e-09
4.65652e-09
4.66613e-09
3.00023e-07
1.18799e-07
3.00056e-07
4.74723e-09
4.75149e-09
4.73792e-09
4.76348e-09
1.18777e-07
3.00043e-07
4.68111e-09
4.73876e-09
4.68071e-09
4.73734e-09
4.72316e-09
4.68781e-09
4.72291e-09
1.18812e-07
3.0008e-07
4.6692e-09
4.65587e-09
4.6658e-09
3.00022e-07
1.18799e-07
3.0006e-07
4.74723e-09
4.77444e-09
4.73589e-09
4.77346e-09
1.18778e-07
3.00061e-07
4.68107e-09
4.73804e-09
4.67865e-09
4.73681e-09
4.72157e-09
4.68714e-09
4.72398e-09
1.18812e-07
3.00081e-07
4.66762e-09
4.6561e-09
4.66691e-09
3.00021e-07
1.18799e-07
3.0006e-07
4.74458e-09
4.77282e-09
4.73852e-09
4.77169e-09
1.18774e-07
3.00063e-07
4.67876e-09
4.73812e-09
4.68122e-09
4.73638e-09
4.72153e-09
4.68569e-09
4.72119e-09
1.18812e-07
3.00083e-07
4.66758e-09
4.65516e-09
4.66458e-09
3.00026e-07
1.18799e-07
3.00056e-07
4.74482e-09
4.77264e-09
4.73899e-09
4.77295e-09
1.18773e-07
3.00061e-07
4.67901e-09
4.73752e-09
4.68168e-09
4.73855e-09
4.72082e-09
4.68668e-09
4.72388e-09
1.18811e-07
3.00082e-07
4.66691e-09
4.65335e-09
4.66363e-09
3.00024e-07
1.18798e-07
3.00058e-07
4.74883e-09
4.77552e-09
4.73792e-09
4.77175e-09
1.18773e-07
3.00064e-07
4.68297e-09
4.74039e-09
4.68059e-09
4.73697e-09
4.72158e-09
4.68458e-09
4.71975e-09
1.18812e-07
3.00084e-07
4.6673e-09
4.65367e-09
4.66228e-09
3.00029e-07
1.18799e-07
3.00058e-07
4.74547e-09
4.77124e-09
4.73765e-09
4.77282e-09
1.18774e-07
3.00062e-07
4.67962e-09
4.7359e-09
4.68034e-09
4.73799e-09
4.71861e-09
4.68656e-09
4.72261e-09
1.18813e-07
3.00082e-07
4.66519e-09
4.65574e-09
4.66524e-09
3.00024e-07
1.18798e-07
3.00058e-07
4.74652e-09
4.7741e-09
4.73891e-09
4.77326e-09
1.18773e-07
3.00062e-07
4.68066e-09
4.7387e-09
4.68156e-09
4.73842e-09
4.7212e-09
4.68724e-09
4.72479e-09
1.18812e-07
3.00082e-07
4.66783e-09
4.65646e-09
4.66743e-09
3.00021e-07
1.18799e-07
3.00059e-07
4.74584e-09
4.77229e-09
4.73809e-09
4.77309e-09
1.18774e-07
3.0006e-07
4.68e-09
4.73683e-09
4.68066e-09
4.73802e-09
4.72373e-09
4.68815e-09
4.72596e-09
1.18812e-07
3.0008e-07
4.67042e-09
4.65738e-09
4.66953e-09
3.00019e-07
1.18799e-07
3.00057e-07
4.74771e-09
4.77374e-09
4.74595e-09
4.7654e-09
1.18774e-07
3.00059e-07
4.68138e-09
4.73791e-09
4.67614e-09
4.73484e-09
4.72081e-09
4.68792e-09
4.69871e-09
1.18812e-07
3.00084e-07
4.67022e-09
4.65146e-09
4.65194e-09
3.00026e-07
1.18792e-07
3.00054e-07
4.73733e-09
4.77085e-09
4.68791e-09
4.76859e-09
1.1878e-07
3.00082e-07
4.66351e-09
4.73375e-09
4.65311e-09
4.74413e-09
4.69197e-09
4.68386e-09
4.76696e-09
1.18811e-07
3.00084e-07
4.58044e-09
4.65453e-09
4.6477e-09
3.00029e-07
1.18801e-07
3.00045e-07
4.70888e-09
4.72534e-09
4.74625e-09
4.77046e-09
1.18782e-07
3.00078e-07
4.56917e-09
4.7473e-09
4.69836e-09
4.73989e-09
4.73903e-09
4.67825e-09
4.7242e-09
1.18811e-07
3.00082e-07
4.68721e-09
4.66412e-09
4.66755e-09
3.00024e-07
1.1879e-07
3.00044e-07
4.73647e-09
4.75732e-09
4.72983e-09
4.77916e-09
1.18825e-07
3.00077e-07
4.66254e-09
4.74018e-09
4.6944e-09
4.73917e-09
4.72525e-09
4.68628e-09
4.72448e-09
1.18811e-07
3.00081e-07
4.67172e-09
4.66409e-09
4.66682e-09
3.00021e-07
1.18788e-07
3.00041e-07
4.7338e-09
4.77093e-09
4.72998e-09
4.76452e-09
1.18797e-07
3.0008e-07
4.66377e-09
4.73959e-09
4.69577e-09
4.73908e-09
4.7228e-09
4.68088e-09
4.72344e-09
1.18812e-07
3.00082e-07
4.66886e-09
4.66353e-09
4.66568e-09
3.00025e-07
1.18788e-07
3.00042e-07
4.73302e-09
4.7635e-09
4.72954e-09
4.76421e-09
1.18795e-07
3.00078e-07
4.66387e-09
4.73868e-09
4.69304e-09
4.73953e-09
4.72149e-09
4.68269e-09
4.72442e-09
1.18811e-07
3.00081e-07
4.66738e-09
4.66303e-09
4.66697e-09
3.00022e-07
1.18788e-07
3.00042e-07
4.73401e-09
4.76466e-09
4.72872e-09
4.76398e-09
1.18795e-07
3.0008e-07
4.6632e-09
4.74048e-09
4.69589e-09
4.73925e-09
4.72398e-09
4.68135e-09
4.72357e-09
1.18811e-07
3.00082e-07
4.67024e-09
4.66433e-09
4.66843e-09
3.00022e-07
1.18788e-07
3.00042e-07
4.73341e-09
4.76293e-09
4.72866e-09
4.76325e-09
1.18795e-07
3.00079e-07
4.6646e-09
4.73907e-09
4.69601e-09
4.73924e-09
4.72387e-09
4.68167e-09
4.72385e-09
1.18811e-07
3.00081e-07
4.66815e-09
4.66535e-09
4.66773e-09
3.00024e-07
1.18789e-07
3.00042e-07
4.73202e-09
4.76182e-09
4.72885e-09
4.76338e-09
1.18796e-07
3.0008e-07
4.66253e-09
4.73832e-09
4.69583e-09
4.73928e-09
4.71844e-09
4.68085e-09
4.7231e-09
1.18813e-07
3.00082e-07
4.67045e-09
4.6558e-09
4.66636e-09
3.00026e-07
1.18788e-07
3.00042e-07
4.73526e-09
4.76441e-09
4.72842e-09
4.76326e-09
1.18794e-07
3.00079e-07
4.66631e-09
4.74054e-09
4.69531e-09
4.73884e-09
4.72174e-09
4.68079e-09
4.72426e-09
1.18811e-07
3.00082e-07
4.66628e-09
4.65643e-09
4.66814e-09
3.00023e-07
1.18788e-07
3.00043e-07
4.73406e-09
4.76459e-09
4.72787e-09
4.76279e-09
1.18794e-07
3.0008e-07
4.66499e-09
4.74051e-09
4.69474e-09
4.73831e-09
4.72463e-09
4.68033e-09
4.72352e-09
1.18811e-07
3.00083e-07
4.6693e-09
4.65588e-09
4.66751e-09
3.00026e-07
1.18788e-07
3.00047e-07
4.73349e-09
4.76354e-09
4.72694e-09
4.76271e-09
1.18795e-07
3.00081e-07
4.6644e-09
4.7394e-09
4.69386e-09
4.7382e-09
4.72118e-09
4.6802e-09
4.7231e-09
1.18812e-07
3.00084e-07
4.66601e-09
4.65608e-09
4.66696e-09
3.00026e-07
1.18789e-07
3.00042e-07
4.73032e-09
4.76132e-09
4.73027e-09
4.76463e-09
1.18795e-07
3.0008e-07
4.66129e-09
4.73715e-09
4.69724e-09
4.7402e-09
4.72069e-09
4.68203e-09
4.72282e-09
1.18812e-07
3.00082e-07
4.66856e-09
4.65752e-09
4.66596e-09
3.00025e-07
1.18788e-07
3.00043e-07
4.73498e-09
4.76455e-09
4.72867e-09
4.7644e-09
1.18795e-07
3.00079e-07
4.66601e-09
4.74059e-09
4.69578e-09
4.73951e-09
4.72422e-09
4.68197e-09
4.72377e-09
1.18812e-07
3.00081e-07
4.66884e-09
4.65776e-09
4.66815e-09
3.00022e-07
1.18788e-07
3.00041e-07
4.73257e-09
4.76417e-09
4.72789e-09
4.76925e-09
1.18795e-07
3.00083e-07
4.66383e-09
4.73965e-09
4.68605e-09
4.73841e-09
4.72326e-09
4.68519e-09
4.72203e-09
1.18812e-07
3.00082e-07
4.66894e-09
4.65686e-09
4.66759e-09
3.00025e-07
1.18789e-07
3.00043e-07
4.73304e-09
4.77775e-09
4.72342e-09
4.75591e-09
1.18792e-07
3.0009e-07
4.68295e-09
4.74014e-09
4.67894e-09
4.73714e-09
4.72135e-09
4.69208e-09
4.72151e-09
1.18812e-07
3.00084e-07
4.6674e-09
4.65533e-09
4.66599e-09
3.00026e-07
1.1879e-07
3.00044e-07
4.73008e-09
4.71677e-09
4.72799e-09
4.75442e-09
1.18779e-07
3.00082e-07
4.67863e-09
4.73823e-09
4.68014e-09
4.74017e-09
4.72312e-09
4.67934e-09
4.72234e-09
1.18812e-07
3.00081e-07
4.6674e-09
4.65985e-09
4.65922e-09
3.00026e-07
1.18789e-07
3.00043e-07
4.73351e-09
4.75602e-09
4.72996e-09
4.75889e-09
1.18793e-07
3.00082e-07
4.67866e-09
4.74169e-09
4.67749e-09
4.73403e-09
4.71668e-09
4.6874e-09
4.74673e-09
1.18812e-07
3.00076e-07
4.64538e-09
4.66167e-09
4.65669e-09
3.00033e-07
1.18789e-07
3.00042e-07
4.73349e-09
4.75865e-09
4.73083e-09
4.76027e-09
1.18792e-07
3.00083e-07
4.67499e-09
4.73394e-09
4.67758e-09
4.73263e-09
4.74852e-09
4.68858e-09
4.74953e-09
1.18814e-07
3.00076e-07
4.65453e-09
4.66162e-09
4.65917e-09
3.00035e-07
1.18789e-07
3.00041e-07
4.73457e-09
4.75835e-09
4.73035e-09
4.75964e-09
1.18793e-07
3.00083e-07
4.67562e-09
4.7322e-09
4.67699e-09
4.73179e-09
4.74724e-09
4.68779e-09
4.74691e-09
1.18815e-07
3.00076e-07
4.65335e-09
4.6608e-09
4.65659e-09
3.0004e-07
1.18788e-07
3.0004e-07
4.73599e-09
4.76075e-09
4.73045e-09
4.75897e-09
1.18791e-07
3.00084e-07
4.67698e-09
4.73445e-09
4.6771e-09
4.73117e-09
4.74981e-09
4.68594e-09
4.74384e-09
1.18814e-07
3.00077e-07
4.656e-09
4.65819e-09
4.65402e-09
3.00044e-07
1.18789e-07
3.00038e-07
4.73508e-09
4.75893e-09
4.73061e-09
4.75946e-09
1.18792e-07
3.00082e-07
4.67606e-09
4.73271e-09
4.67726e-09
4.73175e-09
4.74472e-09
4.68683e-09
4.74546e-09
1.18815e-07
3.00075e-07
4.65081e-09
4.65899e-09
4.65317e-09
3.00041e-07
1.18788e-07
3.0004e-07
4.73707e-09
4.76032e-09
4.73033e-09
4.76028e-09
1.18792e-07
3.00081e-07
4.67801e-09
4.73411e-09
4.67698e-09
4.73254e-09
4.748e-09
4.68756e-09
4.74733e-09
1.18814e-07
3.00074e-07
4.65574e-09
4.66022e-09
4.65625e-09
3.00037e-07
1.18789e-07
3.00042e-07
4.73478e-09
4.75878e-09
4.72914e-09
4.75877e-09
1.18792e-07
3.00083e-07
4.67571e-09
4.73263e-09
4.67582e-09
4.73092e-09
4.74731e-09
4.68704e-09
4.7463e-09
1.18815e-07
3.00076e-07
4.65313e-09
4.65993e-09
4.65573e-09
3.00038e-07
1.18789e-07
3.00041e-07
4.73482e-09
4.75971e-09
4.73067e-09
4.75891e-09
1.18792e-07
3.00084e-07
4.6758e-09
4.73347e-09
4.67732e-09
4.73118e-09
4.7499e-09
4.68758e-09
4.74697e-09
1.18814e-07
3.00077e-07
4.65579e-09
4.66046e-09
4.65562e-09
3.00039e-07
1.18789e-07
3.0004e-07
4.7362e-09
4.7596e-09
4.72986e-09
4.75982e-09
1.18792e-07
3.00081e-07
4.67716e-09
4.73335e-09
4.6764e-09
4.73199e-09
4.74887e-09
4.68776e-09
4.74806e-09
1.18814e-07
3.00074e-07
4.65605e-09
4.66094e-09
4.65911e-09
3.00033e-07
1.18789e-07
3.00046e-07
4.7356e-09
4.76013e-09
4.72679e-09
4.75812e-09
1.18792e-07
3.00085e-07
4.67693e-09
4.73396e-09
4.66939e-09
4.73012e-09
4.74949e-09
4.68645e-09
4.74554e-09
1.18814e-07
3.00078e-07
4.657e-09
4.6595e-09
4.65656e-09
3.0004e-07
1.18789e-07
3.0004e-07
4.73267e-09
4.75806e-09
4.73101e-09
4.76062e-09
1.18792e-07
3.00083e-07
4.67432e-09
4.73174e-09
4.67346e-09
4.73261e-09
4.74755e-09
4.68798e-09
4.74565e-09
1.18815e-07
3.00076e-07
4.655e-09
4.66101e-09
4.65665e-09
3.00042e-07
1.18789e-07
3.00038e-07
4.73454e-09
4.75877e-09
4.73097e-09
4.76044e-09
1.18792e-07
3.00082e-07
4.67607e-09
4.73244e-09
4.67328e-09
4.73276e-09
4.74803e-09
4.68783e-09
4.74863e-09
1.18815e-07
3.00075e-07
4.65539e-09
4.66084e-09
4.65938e-09
3.00038e-07
1.18789e-07
3.00039e-07
4.73643e-09
4.7602e-09
4.73103e-09
4.75935e-09
1.18792e-07
3.00082e-07
4.67773e-09
4.73443e-09
4.67279e-09
4.73385e-09
4.74852e-09
4.6875e-09
4.74682e-09
1.18815e-07
3.00077e-07
4.6557e-09
4.66249e-09
4.65573e-09
3.00043e-07
1.1879e-07
3.00045e-07
4.73409e-09
4.75757e-09
4.72774e-09
4.75806e-09
1.18793e-07
3.00084e-07
4.67485e-09
4.73485e-09
4.66947e-09
4.73372e-09
4.74748e-09
4.68639e-09
4.75057e-09
1.18815e-07
3.00072e-07
4.6509e-09
4.61897e-09
4.63871e-09
3.00033e-07
1.18789e-07
3.00035e-07
4.73465e-09
4.75936e-09
4.73409e-09
4.76234e-09
1.18791e-07
3.00079e-07
4.67574e-09
4.73471e-09
4.67613e-09
4.73177e-09
4.74997e-09
4.69108e-09
4.74768e-09
1.18817e-07
3.00071e-07
4.63744e-09
4.66124e-09
4.66196e-09
3.00032e-07
1.18788e-07
3.00037e-07
4.73873e-09
4.76159e-09
4.73094e-09
4.76075e-09
1.18791e-07
3.00081e-07
4.67999e-09
4.73237e-09
4.67327e-09
4.73154e-09
4.75028e-09
4.68698e-09
4.74461e-09
1.18813e-07
3.00074e-07
4.65411e-09
4.65715e-09
4.64049e-09
3.00045e-07
1.18788e-07
3.00041e-07
4.73747e-09
4.76083e-09
4.72868e-09
4.75907e-09
1.18791e-07
3.00082e-07
4.67892e-09
4.73346e-09
4.67115e-09
4.7307e-09
4.74382e-09
4.68665e-09
4.74772e-09
1.18813e-07
3.00075e-07
4.66073e-09
4.65912e-09
4.64746e-09
3.00038e-07
1.18788e-07
3.00037e-07
4.73249e-09
4.75748e-09
4.73153e-09
4.7604e-09
1.18791e-07
3.0008e-07
4.67404e-09
4.73094e-09
4.67404e-09
4.73222e-09
4.74458e-09
4.68725e-09
4.74522e-09
1.18813e-07
3.00073e-07
4.66717e-09
4.66047e-09
4.6558e-09
3.00037e-07
1.18789e-07
3.00036e-07
4.73359e-09
4.75984e-09
4.73137e-09
4.76095e-09
1.18791e-07
3.00079e-07
4.67515e-09
4.73359e-09
4.6739e-09
4.73281e-09
4.74756e-09
4.68782e-09
4.74745e-09
1.18813e-07
3.00072e-07
4.65386e-09
4.66124e-09
4.6581e-09
3.00034e-07
1.18788e-07
3.0004e-07
4.73745e-09
4.76134e-09
4.72934e-09
4.75845e-09
1.18791e-07
3.00081e-07
4.67902e-09
4.73515e-09
4.67186e-09
4.73021e-09
4.7507e-09
4.687e-09
4.74541e-09
1.18813e-07
3.00074e-07
4.65722e-09
4.66048e-09
4.65641e-09
3.00037e-07
1.18789e-07
3.00039e-07
4.73259e-09
4.7583e-09
4.73066e-09
4.76051e-09
1.18791e-07
3.00081e-07
4.67419e-09
4.73202e-09
4.67318e-09
4.7323e-09
4.74758e-09
4.68706e-09
4.74564e-09
1.18813e-07
3.00073e-07
4.65442e-09
4.6607e-09
4.65561e-09
3.00037e-07
1.18788e-07
3.00041e-07
4.7345e-09
4.75825e-09
4.72867e-09
4.75899e-09
1.18791e-07
3.00081e-07
4.67609e-09
4.73202e-09
4.67121e-09
4.73078e-09
4.74698e-09
4.68756e-09
4.7476e-09
1.18813e-07
3.00074e-07
4.65287e-09
4.66291e-09
4.6588e-09
3.00034e-07
1.18788e-07
3.00036e-07
4.73448e-09
4.76009e-09
4.73156e-09
4.75886e-09
1.18791e-07
3.00082e-07
4.67607e-09
4.7337e-09
4.67405e-09
4.7309e-09
4.75072e-09
4.68567e-09
4.74432e-09
1.18813e-07
3.00075e-07
4.65762e-09
4.65857e-09
4.65469e-09
3.0004e-07
1.18789e-07
3.00038e-07
4.73488e-09
4.75881e-09
4.72968e-09
4.76116e-09
1.18791e-07
3.00077e-07
4.67648e-09
4.73241e-09
4.6722e-09
4.73312e-09
4.748e-09
4.68897e-09
4.74849e-09
1.18813e-07
3.0007e-07
4.65482e-09
4.66209e-09
4.65901e-09
3.00031e-07
1.18788e-07
3.0004e-07
4.73409e-09
4.75942e-09
4.72943e-09
4.75776e-09
1.18792e-07
3.00082e-07
4.67569e-09
4.733e-09
4.67194e-09
4.72969e-09
4.74777e-09
4.68584e-09
4.74492e-09
1.18814e-07
3.00075e-07
4.65472e-09
4.65898e-09
4.65547e-09
3.00038e-07
1.18788e-07
3.00042e-07
4.73367e-09
4.75927e-09
4.72954e-09
4.75915e-09
1.1879e-07
3.00082e-07
4.67521e-09
4.73286e-09
4.67209e-09
4.7311e-09
4.74831e-09
4.68762e-09
4.7462e-09
1.18813e-07
3.00075e-07
4.65524e-09
4.66076e-09
4.65674e-09
3.00038e-07
1.18788e-07
3.00036e-07
4.73455e-09
4.7586e-09
4.73024e-09
4.75963e-09
1.18791e-07
3.00079e-07
4.67616e-09
4.73212e-09
4.67262e-09
4.73159e-09
4.74706e-09
4.68865e-09
4.74779e-09
1.18813e-07
3.00071e-07
4.65403e-09
4.66172e-09
4.65832e-09
3.00033e-07
1.18788e-07
3.00038e-07
4.73579e-09
4.75977e-09
4.72874e-09
4.75823e-09
1.18791e-07
3.00081e-07
4.68154e-09
4.73347e-09
4.68647e-09
4.73011e-09
4.74895e-09
4.68594e-09
4.74609e-09
1.18814e-07
3.00074e-07
4.65589e-09
4.65915e-09
4.65663e-09
3.00036e-07
1.18787e-07
3.00036e-07
4.7343e-09
4.75928e-09
4.73006e-09
4.7593e-09
1.1879e-07
3.00081e-07
4.66068e-09
4.73276e-09
4.68799e-09
4.73132e-09
4.74754e-09
4.68747e-09
4.74615e-09
1.18813e-07
3.00073e-07
4.65449e-09
4.66062e-09
4.65675e-09
3.00038e-07
1.18787e-07
3.00036e-07
4.73592e-09
4.75915e-09
4.73014e-09
4.75994e-09
1.18791e-07
3.00082e-07
4.66249e-09
4.7327e-09
4.68801e-09
4.73155e-09
4.74559e-09
4.6865e-09
4.74504e-09
1.18813e-07
3.00075e-07
4.65255e-09
4.65961e-09
4.6556e-09
3.0004e-07
1.18787e-07
3.00033e-07
4.73676e-09
4.75873e-09
4.73183e-09
4.76076e-09
1.18791e-07
3.00077e-07
4.66337e-09
4.73492e-09
4.68966e-09
4.73886e-09
4.74848e-09
4.68879e-09
4.74756e-09
1.18813e-07
3.00098e-07
4.65536e-09
4.66094e-09
4.65799e-09
3.00031e-07
1.18787e-07
3.0004e-07
4.73718e-09
4.76119e-09
4.72743e-09
4.75813e-09
1.18791e-07
3.00082e-07
4.66387e-09
4.72886e-09
4.6853e-09
4.73665e-09
4.75031e-09
4.68615e-09
4.7441e-09
1.1882e-07
3.00102e-07
4.65723e-09
4.65868e-09
4.65471e-09
3.00038e-07
1.18787e-07
3.00041e-07
4.73237e-09
4.75797e-09
4.72868e-09
4.75813e-09
1.18791e-07
3.00083e-07
4.65907e-09
4.72585e-09
4.68654e-09
4.73661e-09
4.7463e-09
4.68672e-09
4.74509e-09
1.1882e-07
3.00103e-07
4.65333e-09
4.65933e-09
4.65583e-09
3.00038e-07
1.18787e-07
3.00035e-07
4.73411e-09
4.7585e-09
4.73096e-09
4.76134e-09
1.18791e-07
3.00077e-07
4.66075e-09
4.72653e-09
4.68894e-09
4.74254e-09
4.74804e-09
4.68878e-09
4.74883e-09
1.1882e-07
3.00104e-07
4.65496e-09
4.66119e-09
4.65936e-09
3.00033e-07
1.18787e-07
3.00036e-07
4.73611e-09
4.76165e-09
4.72813e-09
4.76185e-09
1.18791e-07
3.0008e-07
4.66304e-09
4.72884e-09
4.68747e-09
4.73208e-09
4.7502e-09
4.68561e-09
4.74597e-09
1.18819e-07
3.00083e-07
4.65762e-09
4.65708e-09
4.66361e-09
3.00036e-07
1.18786e-07
3.00043e-07
4.73449e-09
4.76209e-09
4.73093e-09
4.7659e-09
1.18791e-07
3.00078e-07
4.66385e-09
4.73337e-09
4.68822e-09
4.75356e-09
4.75319e-09
4.69155e-09
4.73432e-09
1.18814e-07
3.00079e-07
4.67205e-09
4.67029e-09
4.67355e-09
3.00025e-07
1.18778e-07
3.00042e-07
4.74297e-09
4.75263e-09
5.16136e-09
5.12532e-09
1.18786e-07
3.00057e-07
4.66079e-09
4.76183e-09
5.12613e-09
5.17391e-09
4.71855e-09
4.97849e-09
5.05825e-09
1.18805e-07
3.0008e-07
4.64658e-09
5.0254e-09
5.04643e-09
3.00025e-07
1.18722e-07
2.9906e-07
5.68314e-09
5.7446e-09
2.57736e-08
2.58498e-08
1.18675e-07
2.99088e-07
5.66728e-09
5.64985e-09
2.58026e-08
2.58454e-08
5.63771e-09
2.56644e-08
2.57657e-08
1.18735e-07
2.9904e-07
5.57188e-09
2.56713e-08
2.56399e-08
2.99075e-07
1.16721e-07
8.41579e-08
5.08267e-08
5.08651e-08
2.71919e-07
2.71508e-07
1.16706e-07
8.41806e-08
5.0702e-08
5.0922e-08
2.71557e-07
2.71349e-07
5.0897e-08
2.7207e-07
2.71755e-07
1.16727e-07
8.40821e-08
5.07166e-08
2.71684e-07
2.715e-07
8.41109e-08
6.08879e-07
2.42248e-07
2.41998e-07
6.08714e-07
2.42403e-07
2.42109e-07
5.89343e-07
5.89427e-07
5.89352e-07
2.42283e-07
6.08735e-07
2.42399e-07
5.19099e-08
2.23841e-07
1.52412e-07
1.52428e-07
5.66811e-07
3.17759e-07
7.84405e-07
2.07027e-07
5.6673e-07
3.1778e-07
2.07027e-07
7.8421e-07
4.16507e-07
4.66802e-07
4.66706e-07
3.94451e-06
0.000119899
3.72766e-06
0.000121492
0.000239619
0.000245921
3.94511e-06
0.000119916
3.7289e-06
0.00012151
1.53138e-06
1.53057e-06
1.53097e-06
2.19199e-07
2.19129e-07
2.19163e-07
2.19234e-07
3.41938e-07
6.26328e-06
1.05913e-06
9.70196e-07
1.85903e-07
4.5491e-06
7.21596e-07
0.000239611
0.000245907
3.40926e-07
1.05811e-06
6.26184e-06
9.69994e-07
1.85799e-07
7.21224e-07
4.54815e-06
8.5858e-06
8.58686e-06
3.11101e-07
9.86819e-06
9.87004e-06
3.79621e-06
0.000120565
3.78648e-06
0.000120551
0.000246803
0.000246794
3.79673e-06
0.00012058
3.78697e-06
0.000120567
1.05644e-07
1.05638e-07
1.05686e-07
1.4693e-08