/*--------------------------------*- C++ -*----------------------------------*\
| =========                 |                                                 |
| \\      /  F ield         | OpenFOAM: The Open Source CFD Toolbox           |
|  \\    /   O peration     | Version:  v1912                                 |
|   \\  /    A nd           | Website:  www.openfoam.com                      |
|    \\/     M anipulation  |                                                 |
\*---------------------------------------------------------------------------*/
FoamFile
{
    version     2.0;
    format      ascii;
    class       volScalarField;
    location    "1.85";
    object      p;
}
// * * * * * * * * * * * * * * * * * * * * * * * * * * * * * * * * * * * * * //

dimensions      [0 2 -2 0 0 0 0];


internalField   nonuniform List<scalar> 
171728
(
0.020561
0.0205619
0.0205619
0.0205785
0.0203449
0.0203448
0.0203448
0.0203582
0.0201269
0.0201268
0.0201268
0.0201401
0.0199089
0.0199087
0.0199087
0.0199221
0.0196908
0.0196907
0.0196907
0.019704
0.0194727
0.0194726
0.0194726
0.0194859
0.0192547
0.0192546
0.0192546
0.0192679
0.0190366
0.0190365
0.0190365
0.0190498
0.0188186
0.0188184
0.0188184
0.0188318
0.0186005
0.0186004
0.0186004
0.0186137
0.0183825
0.0183823
0.0183823
0.0183957
0.0181644
0.0181643
0.0181643
0.0181776
0.0179464
0.0179462
0.0179462
0.0179596
0.0177283
0.0177282
0.0177282
0.0177415
0.0175102
0.0175101
0.0175101
0.0175235
0.0172922
0.0172921
0.0172921
0.0173054
0.0170741
0.017074
0.017074
0.0170873
0.0168561
0.0168559
0.0168559
0.0168693
0.016638
0.0166379
0.0166379
0.0166512
0.01642
0.0164198
0.0164198
0.0164332
0.0162019
0.0162018
0.0162018
0.0162151
0.0159839
0.0159837
0.0159837
0.0159971
0.0157658
0.0157657
0.0157657
0.015779
0.0155478
0.0155476
0.0155476
0.015561
0.0153297
0.0153296
0.0153296
0.0153429
0.0151116
0.0151115
0.0151115
0.0151248
0.0148936
0.0148935
0.0148935
0.0149068
0.0146755
0.0146754
0.0146754
0.0146887
0.0144575
0.0144573
0.0144573
0.0144707
0.0142394
0.0142393
0.0142393
0.0142526
0.0140214
0.0140212
0.0140212
0.0140346
0.0138033
0.0138032
0.0138032
0.0138165
0.0135853
0.0135851
0.0135851
0.0135985
0.0133672
0.0133671
0.0133671
0.0133804
0.0131492
0.013149
0.013149
0.0131624
0.0129311
0.012931
0.012931
0.0129443
0.012713
0.0127129
0.0127129
0.0127262
0.012495
0.0124948
0.0124948
0.0125082
0.0122769
0.0122768
0.0122768
0.0122901
0.0120589
0.0120587
0.0120587
0.0120721
0.0118408
0.0118407
0.0118407
0.011854
0.0116228
0.0116226
0.0116226
0.011636
0.0114047
0.0114046
0.0114046
0.0114179
0.0111867
0.0111865
0.0111865
0.0111999
0.0109686
0.0109685
0.0109685
0.0109818
0.0107505
0.0107504
0.0107504
0.0107638
0.0105325
0.0105324
0.0105324
0.0105457
0.0103144
0.0103143
0.0103143
0.0103276
0.0100964
0.0100962
0.0100962
0.0101096
0.00987833
0.00987819
0.00987819
0.00989153
0.00966027
0.00966013
0.00966013
0.00967347
0.00944222
0.00944208
0.00944208
0.00945542
0.00922416
0.00922402
0.00922402
0.00923736
0.00900611
0.00900597
0.00900597
0.00901931
0.00878805
0.00878792
0.00878792
0.00880126
0.00857
0.00856986
0.00856986
0.0085832
0.00835194
0.00835181
0.00835181
0.00836515
0.00813389
0.00813375
0.00813375
0.00814709
0.00791583
0.0079157
0.0079157
0.00792904
0.00769778
0.00769764
0.00769764
0.00771098
0.00747972
0.00747959
0.00747959
0.00749293
0.00726167
0.00726153
0.00726153
0.00727487
0.00704361
0.00704347
0.00704347
0.00705682
0.00682556
0.00682542
0.00682542
0.00683876
0.0066075
0.00660736
0.00660736
0.0066207
0.00638945
0.00638931
0.00638931
0.00640265
0.00617139
0.00617125
0.00617125
0.00618459
0.00595334
0.0059532
0.0059532
0.00596654
0.00573528
0.00573515
0.00573514
0.00574849
0.00551723
0.00551709
0.00551709
0.00553043
0.00529918
0.00529904
0.00529904
0.00531238
0.00508112
0.00508098
0.00508098
0.00509432
0.00486307
0.00486293
0.00486293
0.00487627
0.00464501
0.00464487
0.00464487
0.00465821
0.00442696
0.00442682
0.00442682
0.00444016
0.0042089
0.00420876
0.00420876
0.0042221
0.00399085
0.00399071
0.00399071
0.00400405
0.00377279
0.00377265
0.00377265
0.00378599
0.00355474
0.0035546
0.0035546
0.00356794
0.00333668
0.00333654
0.00333654
0.00334988
0.00311863
0.00311849
0.00311849
0.00313183
0.00290057
0.00290043
0.00290043
0.00291377
0.00268252
0.00268238
0.00268238
0.00269572
0.00246446
0.00246432
0.00246432
0.00247766
0.00224641
0.00224627
0.00224627
0.00225961
0.00202835
0.00202821
0.00202821
0.00204155
0.0018103
0.00181016
0.00181016
0.0018235
0.00159224
0.00159211
0.00159211
0.00160545
0.00137419
0.00137405
0.00137405
0.00138739
0.00115613
0.001156
0.001156
0.00116934
0.00093808
0.000937942
0.000937942
0.000951282
0.000720024
0.000719887
0.000719887
0.000733228
0.000501984
0.000501842
0.000501842
0.000515174
0.00028477
0.00028415
0.000284152
0.000297222
8.31477e-05
8.80526e-05
8.80606e-05
8.77684e-05
0.0206074
0.0206017
0.0206017
0.0206074
0.0206017
0.0206017
0.0206124
0.0206124
0.0206124
0.0206124
0.0206017
0.0206017
0.0206074
0.0206017
0.0206017
0.0206074
0.0205785
0.0203861
0.0205619
0.0205619
0.0203993
0.0203993
0.0205785
0.0203861
0.0205619
0.0205619
0.0203993
0.0203993
0.0205619
0.0203993
0.0203993
0.0205785
0.0203861
0.0205619
0.0203993
0.0203993
0.0203861
0.0203582
0.020168
0.0203448
0.0203448
0.0201813
0.0201813
0.0203582
0.020168
0.0203448
0.0203448
0.0201813
0.0201813
0.0203448
0.0201813
0.0201813
0.0203582
0.020168
0.0203448
0.0201813
0.0201813
0.020168
0.0201401
0.01995
0.0201268
0.0201268
0.0199632
0.0199632
0.0201401
0.01995
0.0201268
0.0201268
0.0199632
0.0199632
0.0201268
0.0199632
0.0199632
0.0201401
0.01995
0.0201268
0.0199632
0.0199632
0.01995
0.0199221
0.0197319
0.0199087
0.0199087
0.0197452
0.0197452
0.0199221
0.0197319
0.0199087
0.0199087
0.0197452
0.0197452
0.0199087
0.0197452
0.0197452
0.0199221
0.0197319
0.0199087
0.0197452
0.0197452
0.0197319
0.019704
0.0195139
0.0196907
0.0196907
0.0195271
0.0195271
0.019704
0.0195139
0.0196907
0.0196907
0.0195271
0.0195271
0.0196907
0.0195271
0.0195271
0.019704
0.0195139
0.0196907
0.0195271
0.0195271
0.0195139
0.0194859
0.0192958
0.0194726
0.0194726
0.0193091
0.0193091
0.0194859
0.0192958
0.0194726
0.0194726
0.0193091
0.0193091
0.0194726
0.0193091
0.0193091
0.0194859
0.0192958
0.0194726
0.0193091
0.0193091
0.0192958
0.0192679
0.0190778
0.0192546
0.0192546
0.019091
0.019091
0.0192679
0.0190778
0.0192546
0.0192546
0.019091
0.019091
0.0192546
0.019091
0.019091
0.0192679
0.0190778
0.0192546
0.019091
0.019091
0.0190778
0.0190498
0.0188597
0.0190365
0.0190365
0.018873
0.018873
0.0190498
0.0188597
0.0190365
0.0190365
0.018873
0.018873
0.0190365
0.018873
0.018873
0.0190498
0.0188597
0.0190365
0.018873
0.018873
0.0188597
0.0188318
0.0186416
0.0188184
0.0188184
0.0186549
0.0186549
0.0188318
0.0186416
0.0188184
0.0188184
0.0186549
0.0186549
0.0188184
0.0186549
0.0186549
0.0188318
0.0186416
0.0188184
0.0186549
0.0186549
0.0186416
0.0186137
0.0184236
0.0186004
0.0186004
0.0184368
0.0184368
0.0186137
0.0184236
0.0186004
0.0186004
0.0184368
0.0184368
0.0186004
0.0184368
0.0184368
0.0186137
0.0184236
0.0186004
0.0184368
0.0184368
0.0184236
0.0183957
0.0182055
0.0183823
0.0183823
0.0182188
0.0182188
0.0183957
0.0182055
0.0183823
0.0183823
0.0182188
0.0182188
0.0183823
0.0182188
0.0182188
0.0183957
0.0182055
0.0183823
0.0182188
0.0182188
0.0182055
0.0181776
0.0179875
0.0181643
0.0181643
0.0180007
0.0180007
0.0181776
0.0179875
0.0181643
0.0181643
0.0180007
0.0180007
0.0181643
0.0180007
0.0180007
0.0181776
0.0179875
0.0181643
0.0180007
0.0180007
0.0179875
0.0179596
0.0177694
0.0179462
0.0179462
0.0177827
0.0177827
0.0179596
0.0177694
0.0179462
0.0179462
0.0177827
0.0177827
0.0179462
0.0177827
0.0177827
0.0179596
0.0177694
0.0179462
0.0177827
0.0177827
0.0177694
0.0177415
0.0175514
0.0177282
0.0177282
0.0175646
0.0175646
0.0177415
0.0175514
0.0177282
0.0177282
0.0175646
0.0175646
0.0177282
0.0175646
0.0175646
0.0177415
0.0175514
0.0177282
0.0175646
0.0175646
0.0175514
0.0175235
0.0173333
0.0175101
0.0175101
0.0173466
0.0173466
0.0175235
0.0173333
0.0175101
0.0175101
0.0173466
0.0173466
0.0175101
0.0173466
0.0173466
0.0175235
0.0173333
0.0175101
0.0173466
0.0173466
0.0173333
0.0173054
0.0171153
0.0172921
0.0172921
0.0171285
0.0171285
0.0173054
0.0171153
0.0172921
0.0172921
0.0171285
0.0171285
0.0172921
0.0171285
0.0171285
0.0173054
0.0171153
0.0172921
0.0171285
0.0171285
0.0171153
0.0170873
0.0168972
0.017074
0.017074
0.0169105
0.0169105
0.0170873
0.0168972
0.017074
0.017074
0.0169105
0.0169105
0.017074
0.0169105
0.0169105
0.0170873
0.0168972
0.017074
0.0169105
0.0169105
0.0168972
0.0168693
0.0166792
0.0168559
0.0168559
0.0166924
0.0166924
0.0168693
0.0166792
0.0168559
0.0168559
0.0166924
0.0166924
0.0168559
0.0166924
0.0166924
0.0168693
0.0166791
0.0168559
0.0166924
0.0166924
0.0166791
0.0166512
0.0164611
0.0166379
0.0166379
0.0164743
0.0164743
0.0166512
0.0164611
0.0166379
0.0166379
0.0164743
0.0164743
0.0166379
0.0164743
0.0164743
0.0166512
0.0164611
0.0166379
0.0164743
0.0164743
0.0164611
0.0164332
0.016243
0.0164198
0.0164198
0.0162563
0.0162563
0.0164332
0.016243
0.0164198
0.0164198
0.0162563
0.0162563
0.0164198
0.0162563
0.0162563
0.0164332
0.016243
0.0164198
0.0162563
0.0162563
0.016243
0.0162151
0.016025
0.0162018
0.0162018
0.0160382
0.0160382
0.0162151
0.016025
0.0162018
0.0162018
0.0160382
0.0160382
0.0162018
0.0160382
0.0160382
0.0162151
0.016025
0.0162018
0.0160382
0.0160382
0.016025
0.0159971
0.0158069
0.0159837
0.0159837
0.0158202
0.0158202
0.0159971
0.0158069
0.0159837
0.0159837
0.0158202
0.0158202
0.0159837
0.0158202
0.0158202
0.0159971
0.0158069
0.0159837
0.0158202
0.0158202
0.0158069
0.015779
0.0155889
0.0157657
0.0157657
0.0156021
0.0156021
0.015779
0.0155889
0.0157657
0.0157657
0.0156021
0.0156021
0.0157657
0.0156021
0.0156021
0.015779
0.0155889
0.0157657
0.0156021
0.0156021
0.0155889
0.015561
0.0153708
0.0155476
0.0155476
0.0153841
0.0153841
0.015561
0.0153708
0.0155476
0.0155476
0.0153841
0.0153841
0.0155476
0.0153841
0.0153841
0.015561
0.0153708
0.0155476
0.0153841
0.0153841
0.0153708
0.0153429
0.0151528
0.0153296
0.0153296
0.015166
0.015166
0.0153429
0.0151528
0.0153296
0.0153296
0.015166
0.015166
0.0153296
0.015166
0.015166
0.0153429
0.0151528
0.0153296
0.015166
0.015166
0.0151528
0.0151248
0.0149347
0.0151115
0.0151115
0.014948
0.014948
0.0151248
0.0149347
0.0151115
0.0151115
0.014948
0.014948
0.0151115
0.014948
0.014948
0.0151248
0.0149347
0.0151115
0.014948
0.014948
0.0149347
0.0149068
0.0147167
0.0148935
0.0148935
0.0147299
0.0147299
0.0149068
0.0147167
0.0148935
0.0148935
0.0147299
0.0147299
0.0148935
0.0147299
0.0147299
0.0149068
0.0147167
0.0148935
0.0147299
0.0147299
0.0147167
0.0146887
0.0144986
0.0146754
0.0146754
0.0145119
0.0145119
0.0146887
0.0144986
0.0146754
0.0146754
0.0145119
0.0145119
0.0146754
0.0145119
0.0145119
0.0146887
0.0144986
0.0146754
0.0145119
0.0145119
0.0144986
0.0144707
0.0142805
0.0144573
0.0144573
0.0142938
0.0142938
0.0144707
0.0142805
0.0144573
0.0144573
0.0142938
0.0142938
0.0144573
0.0142938
0.0142938
0.0144707
0.0142805
0.0144573
0.0142938
0.0142938
0.0142805
0.0142526
0.0140625
0.0142393
0.0142393
0.0140757
0.0140757
0.0142526
0.0140625
0.0142393
0.0142393
0.0140757
0.0140757
0.0142393
0.0140757
0.0140757
0.0142526
0.0140625
0.0142393
0.0140757
0.0140757
0.0140625
0.0140346
0.0138444
0.0140212
0.0140212
0.0138577
0.0138577
0.0140346
0.0138444
0.0140212
0.0140212
0.0138577
0.0138577
0.0140212
0.0138577
0.0138577
0.0140346
0.0138444
0.0140212
0.0138577
0.0138577
0.0138444
0.0138165
0.0136264
0.0138032
0.0138032
0.0136396
0.0136396
0.0138165
0.0136264
0.0138032
0.0138032
0.0136396
0.0136396
0.0138032
0.0136396
0.0136396
0.0138165
0.0136264
0.0138032
0.0136396
0.0136396
0.0136264
0.0135985
0.0134083
0.0135851
0.0135851
0.0134216
0.0134216
0.0135985
0.0134083
0.0135851
0.0135851
0.0134216
0.0134216
0.0135851
0.0134216
0.0134216
0.0135985
0.0134083
0.0135851
0.0134216
0.0134216
0.0134083
0.0133804
0.0131903
0.0133671
0.0133671
0.0132035
0.0132035
0.0133804
0.0131903
0.0133671
0.0133671
0.0132035
0.0132035
0.0133671
0.0132035
0.0132035
0.0133804
0.0131903
0.0133671
0.0132035
0.0132035
0.0131903
0.0131624
0.0129722
0.013149
0.013149
0.0129855
0.0129855
0.0131624
0.0129722
0.013149
0.013149
0.0129855
0.0129855
0.013149
0.0129855
0.0129855
0.0131624
0.0129722
0.013149
0.0129855
0.0129855
0.0129722
0.0129443
0.0127542
0.012931
0.012931
0.0127674
0.0127674
0.0129443
0.0127542
0.012931
0.012931
0.0127674
0.0127674
0.012931
0.0127674
0.0127674
0.0129443
0.0127542
0.012931
0.0127674
0.0127674
0.0127542
0.0127262
0.0125361
0.0127129
0.0127129
0.0125494
0.0125494
0.0127262
0.0125361
0.0127129
0.0127129
0.0125494
0.0125494
0.0127129
0.0125494
0.0125494
0.0127262
0.0125361
0.0127129
0.0125494
0.0125494
0.0125361
0.0125082
0.0123181
0.0124948
0.0124948
0.0123313
0.0123313
0.0125082
0.0123181
0.0124948
0.0124948
0.0123313
0.0123313
0.0124948
0.0123313
0.0123313
0.0125082
0.0123181
0.0124948
0.0123313
0.0123313
0.0123181
0.0122901
0.0121
0.0122768
0.0122768
0.0121133
0.0121133
0.0122901
0.0121
0.0122768
0.0122768
0.0121133
0.0121133
0.0122768
0.0121133
0.0121133
0.0122901
0.0121
0.0122768
0.0121133
0.0121133
0.0121
0.0120721
0.0118819
0.0120587
0.0120587
0.0118952
0.0118952
0.0120721
0.0118819
0.0120587
0.0120587
0.0118952
0.0118952
0.0120587
0.0118952
0.0118952
0.0120721
0.0118819
0.0120587
0.0118952
0.0118952
0.0118819
0.011854
0.0116639
0.0118407
0.0118407
0.0116771
0.0116771
0.011854
0.0116639
0.0118407
0.0118407
0.0116771
0.0116771
0.0118407
0.0116771
0.0116771
0.011854
0.0116639
0.0118407
0.0116771
0.0116771
0.0116639
0.011636
0.0114458
0.0116226
0.0116226
0.0114591
0.0114591
0.011636
0.0114458
0.0116226
0.0116226
0.0114591
0.0114591
0.0116226
0.0114591
0.0114591
0.011636
0.0114458
0.0116226
0.0114591
0.0114591
0.0114458
0.0114179
0.0112278
0.0114046
0.0114046
0.011241
0.011241
0.0114179
0.0112278
0.0114046
0.0114046
0.011241
0.011241
0.0114046
0.011241
0.011241
0.0114179
0.0112278
0.0114046
0.011241
0.011241
0.0112278
0.0111999
0.0110097
0.0111865
0.0111865
0.011023
0.011023
0.0111999
0.0110097
0.0111865
0.0111865
0.011023
0.011023
0.0111865
0.011023
0.011023
0.0111999
0.0110097
0.0111865
0.011023
0.011023
0.0110097
0.0109818
0.0107917
0.0109685
0.0109685
0.0108049
0.0108049
0.0109818
0.0107917
0.0109685
0.0109685
0.0108049
0.0108049
0.0109685
0.0108049
0.0108049
0.0109818
0.0107917
0.0109685
0.0108049
0.0108049
0.0107917
0.0107638
0.0105736
0.0107504
0.0107504
0.0105869
0.0105869
0.0107638
0.0105736
0.0107504
0.0107504
0.0105869
0.0105869
0.0107504
0.0105869
0.0105869
0.0107638
0.0105736
0.0107504
0.0105869
0.0105869
0.0105736
0.0105457
0.0103556
0.0105324
0.0105324
0.0103688
0.0103688
0.0105457
0.0103556
0.0105324
0.0105324
0.0103688
0.0103688
0.0105324
0.0103688
0.0103688
0.0105457
0.0103556
0.0105324
0.0103688
0.0103688
0.0103556
0.0103276
0.0101375
0.0103143
0.0103143
0.0101508
0.0101508
0.0103276
0.0101375
0.0103143
0.0103143
0.0101508
0.0101508
0.0103143
0.0101508
0.0101508
0.0103276
0.0101375
0.0103143
0.0101508
0.0101508
0.0101375
0.0101096
0.00991945
0.0100962
0.0100962
0.0099327
0.0099327
0.0101096
0.00991945
0.0100962
0.0100962
0.0099327
0.0099327
0.0100962
0.0099327
0.0099327
0.0101096
0.00991945
0.0100962
0.0099327
0.0099327
0.00991945
0.00989153
0.00970139
0.00987819
0.00987819
0.00971465
0.00971465
0.00989153
0.00970139
0.00987819
0.00987819
0.00971465
0.00971465
0.00987819
0.00971465
0.00971465
0.00989153
0.00970139
0.00987819
0.00971465
0.00971465
0.00970139
0.00967347
0.00948334
0.00966013
0.00966013
0.00949659
0.00949659
0.00967347
0.00948334
0.00966013
0.00966013
0.00949659
0.00949659
0.00966013
0.00949659
0.00949659
0.00967347
0.00948334
0.00966013
0.00949659
0.00949659
0.00948334
0.00945542
0.00926528
0.00944208
0.00944208
0.00927854
0.00927854
0.00945542
0.00926528
0.00944208
0.00944208
0.00927854
0.00927854
0.00944208
0.00927854
0.00927854
0.00945542
0.00926528
0.00944208
0.00927854
0.00927854
0.00926528
0.00923736
0.00904723
0.00922402
0.00922402
0.00906048
0.00906048
0.00923736
0.00904723
0.00922402
0.00922402
0.00906048
0.00906048
0.00922402
0.00906048
0.00906048
0.00923736
0.00904723
0.00922402
0.00906048
0.00906048
0.00904723
0.00901931
0.00882917
0.00900597
0.00900597
0.00884243
0.00884243
0.00901931
0.00882917
0.00900597
0.00900597
0.00884243
0.00884243
0.00900597
0.00884243
0.00884243
0.00901931
0.00882917
0.00900597
0.00884243
0.00884243
0.00882917
0.00880126
0.00861112
0.00878792
0.00878792
0.00862437
0.00862437
0.00880126
0.00861112
0.00878792
0.00878792
0.00862437
0.00862437
0.00878792
0.00862437
0.00862437
0.00880126
0.00861112
0.00878792
0.00862437
0.00862437
0.00861112
0.0085832
0.00839307
0.00856986
0.00856986
0.00840632
0.00840632
0.0085832
0.00839307
0.00856986
0.00856986
0.00840632
0.00840632
0.00856986
0.00840632
0.00840632
0.0085832
0.00839307
0.00856986
0.00840632
0.00840632
0.00839307
0.00836515
0.00817501
0.00835181
0.00835181
0.00818827
0.00818826
0.00836515
0.00817501
0.00835181
0.00835181
0.00818826
0.00818827
0.00835181
0.00818827
0.00818827
0.00836515
0.00817501
0.00835181
0.00818827
0.00818826
0.00817501
0.00814709
0.00795695
0.00813375
0.00813375
0.00797021
0.00797021
0.00814709
0.00795696
0.00813375
0.00813375
0.00797021
0.00797021
0.00813375
0.00797021
0.00797021
0.00814709
0.00795696
0.00813375
0.00797021
0.00797021
0.00795696
0.00792904
0.0077389
0.0079157
0.0079157
0.00775215
0.00775215
0.00792904
0.0077389
0.0079157
0.0079157
0.00775215
0.00775215
0.0079157
0.00775215
0.00775216
0.00792904
0.0077389
0.0079157
0.00775216
0.00775215
0.0077389
0.00771098
0.00752084
0.00769764
0.00769764
0.0075341
0.0075341
0.00771098
0.00752084
0.00769764
0.00769764
0.0075341
0.0075341
0.00769764
0.0075341
0.0075341
0.00771098
0.00752084
0.00769764
0.0075341
0.0075341
0.00752084
0.00749293
0.00730279
0.00747959
0.00747959
0.00731604
0.00731604
0.00749293
0.00730279
0.00747959
0.00747959
0.00731604
0.00731604
0.00747959
0.00731604
0.00731604
0.00749293
0.00730279
0.00747959
0.00731604
0.00731604
0.00730279
0.00727487
0.00708473
0.00726153
0.00726153
0.00709799
0.00709799
0.00727487
0.00708473
0.00726153
0.00726153
0.00709799
0.00709799
0.00726153
0.00709799
0.00709799
0.00727487
0.00708473
0.00726153
0.00709799
0.00709799
0.00708473
0.00705682
0.00686668
0.00704347
0.00704347
0.00687993
0.00687993
0.00705682
0.00686668
0.00704347
0.00704347
0.00687993
0.00687993
0.00704348
0.00687993
0.00687993
0.00705682
0.00686668
0.00704347
0.00687993
0.00687993
0.00686668
0.00683876
0.00664862
0.00682542
0.00682542
0.00666188
0.00666188
0.00683876
0.00664862
0.00682542
0.00682542
0.00666188
0.00666188
0.00682542
0.00666188
0.00666188
0.00683876
0.00664862
0.00682542
0.00666188
0.00666188
0.00664862
0.0066207
0.00643057
0.00660736
0.00660736
0.00644382
0.00644382
0.00662071
0.00643057
0.00660736
0.00660736
0.00644382
0.00644382
0.00660736
0.00644382
0.00644382
0.0066207
0.00643057
0.00660736
0.00644382
0.00644382
0.00643057
0.00640265
0.00621251
0.00638931
0.00638931
0.00622577
0.00622577
0.00640265
0.00621251
0.00638931
0.00638931
0.00622577
0.00622577
0.00638931
0.00622577
0.00622577
0.00640265
0.00621251
0.00638931
0.00622577
0.00622577
0.00621251
0.00618459
0.00599446
0.00617125
0.00617125
0.00600771
0.00600771
0.0061846
0.00599446
0.00617125
0.00617125
0.00600771
0.00600771
0.00617125
0.00600771
0.00600771
0.00618459
0.00599446
0.00617125
0.00600771
0.00600771
0.00599446
0.00596654
0.0057764
0.0059532
0.0059532
0.00578966
0.00578966
0.00596654
0.0057764
0.0059532
0.0059532
0.00578966
0.00578966
0.0059532
0.00578966
0.00578966
0.00596654
0.0057764
0.0059532
0.00578966
0.00578966
0.0057764
0.00574849
0.00555835
0.00573515
0.00573514
0.0055716
0.0055716
0.00574849
0.00555835
0.00573515
0.00573515
0.0055716
0.0055716
0.00573515
0.0055716
0.00557161
0.00574849
0.00555835
0.00573514
0.0055716
0.0055716
0.00555835
0.00553043
0.0053403
0.00551709
0.00551709
0.00535355
0.00535355
0.00553043
0.0053403
0.00551709
0.00551709
0.00535355
0.00535355
0.00551709
0.00535355
0.00535355
0.00553043
0.0053403
0.00551709
0.00535355
0.00535355
0.0053403
0.00531238
0.00512224
0.00529904
0.00529904
0.0051355
0.0051355
0.00531238
0.00512224
0.00529904
0.00529904
0.0051355
0.0051355
0.00529904
0.0051355
0.0051355
0.00531238
0.00512224
0.00529904
0.0051355
0.0051355
0.00512224
0.00509432
0.00490419
0.00508098
0.00508098
0.00491744
0.00491744
0.00509432
0.00490419
0.00508098
0.00508098
0.00491744
0.00491744
0.00508098
0.00491744
0.00491744
0.00509432
0.00490419
0.00508098
0.00491744
0.00491744
0.00490419
0.00487627
0.00468613
0.00486293
0.00486293
0.00469939
0.00469939
0.00487627
0.00468613
0.00486293
0.00486293
0.00469939
0.00469939
0.00486293
0.00469939
0.00469939
0.00487627
0.00468613
0.00486293
0.00469939
0.00469939
0.00468613
0.00465821
0.00446808
0.00464487
0.00464487
0.00448133
0.00448133
0.00465821
0.00446808
0.00464487
0.00464487
0.00448133
0.00448133
0.00464487
0.00448133
0.00448133
0.00465821
0.00446808
0.00464487
0.00448133
0.00448133
0.00446808
0.00444016
0.00425002
0.00442682
0.00442682
0.00426328
0.00426328
0.00444016
0.00425002
0.00442682
0.00442682
0.00426328
0.00426328
0.00442682
0.00426328
0.00426328
0.00444016
0.00425002
0.00442682
0.00426328
0.00426328
0.00425002
0.0042221
0.00403197
0.00420876
0.00420876
0.00404522
0.00404522
0.00422211
0.00403197
0.00420876
0.00420876
0.00404522
0.00404522
0.00420876
0.00404522
0.00404522
0.0042221
0.00403197
0.00420876
0.00404522
0.00404522
0.00403197
0.00400405
0.00381391
0.00399071
0.00399071
0.00382717
0.00382717
0.00400405
0.00381391
0.00399071
0.00399071
0.00382717
0.00382717
0.00399071
0.00382717
0.00382717
0.00400405
0.00381391
0.00399071
0.00382717
0.00382717
0.00381391
0.00378599
0.00359586
0.00377265
0.00377265
0.00360911
0.00360911
0.00378599
0.00359586
0.00377265
0.00377265
0.00360911
0.00360911
0.00377265
0.00360911
0.00360911
0.00378599
0.00359586
0.00377265
0.00360911
0.00360911
0.00359586
0.00356794
0.0033778
0.0035546
0.0035546
0.00339106
0.00339106
0.00356794
0.0033778
0.0035546
0.0035546
0.00339106
0.00339106
0.0035546
0.00339106
0.00339106
0.00356794
0.0033778
0.0035546
0.00339106
0.00339106
0.0033778
0.00334988
0.00315975
0.00333654
0.00333654
0.003173
0.003173
0.00334988
0.00315975
0.00333654
0.00333654
0.003173
0.003173
0.00333654
0.003173
0.003173
0.00334988
0.00315975
0.00333654
0.003173
0.003173
0.00315975
0.00313183
0.00294169
0.00311849
0.00311849
0.00295495
0.00295495
0.00313183
0.00294169
0.00311849
0.00311849
0.00295495
0.00295495
0.00311849
0.00295495
0.00295495
0.00313183
0.00294169
0.00311849
0.00295495
0.00295495
0.00294169
0.00291377
0.00272364
0.00290043
0.00290043
0.00273689
0.00273689
0.00291377
0.00272364
0.00290043
0.00290043
0.00273689
0.00273689
0.00290043
0.00273689
0.00273689
0.00291377
0.00272364
0.00290043
0.00273689
0.00273689
0.00272364
0.00269572
0.00250558
0.00268238
0.00268238
0.00251884
0.00251884
0.00269572
0.00250558
0.00268238
0.00268238
0.00251884
0.00251884
0.00268238
0.00251884
0.00251884
0.00269572
0.00250558
0.00268238
0.00251884
0.00251884
0.00250558
0.00247766
0.00228753
0.00246432
0.00246432
0.00230078
0.00230078
0.00247766
0.00228753
0.00246432
0.00246432
0.00230078
0.00230078
0.00246432
0.00230078
0.00230078
0.00247766
0.00228753
0.00246432
0.00230078
0.00230078
0.00228753
0.00225961
0.00206947
0.00224627
0.00224627
0.00208273
0.00208273
0.00225961
0.00206947
0.00224627
0.00224627
0.00208273
0.00208273
0.00224627
0.00208273
0.00208273
0.00225961
0.00206947
0.00224627
0.00208273
0.00208273
0.00206947
0.00204155
0.00185142
0.00202821
0.00202821
0.00186467
0.00186467
0.00204155
0.00185142
0.00202821
0.00202821
0.00186467
0.00186467
0.00202821
0.00186467
0.00186467
0.00204155
0.00185142
0.00202821
0.00186467
0.00186467
0.00185142
0.0018235
0.00163336
0.00181016
0.00181016
0.00164662
0.00164662
0.0018235
0.00163336
0.00181016
0.00181016
0.00164662
0.00164662
0.00181016
0.00164662
0.00164662
0.0018235
0.00163336
0.00181016
0.00164662
0.00164662
0.00163336
0.00160545
0.00141531
0.00159211
0.00159211
0.00142856
0.00142856
0.00160545
0.00141531
0.00159211
0.00159211
0.00142856
0.00142856
0.00159211
0.00142856
0.00142857
0.00160545
0.00141531
0.00159211
0.00142856
0.00142856
0.00141531
0.00138739
0.00119726
0.00137405
0.00137405
0.00121051
0.00121051
0.00138739
0.00119726
0.00137405
0.00137405
0.00121051
0.00121051
0.00137405
0.00121051
0.00121051
0.00138739
0.00119726
0.00137405
0.00121051
0.00121051
0.00119726
0.00116934
0.000979201
0.001156
0.001156
0.000992455
0.000992455
0.00116934
0.0009792
0.001156
0.001156
0.000992455
0.000992455
0.001156
0.000992455
0.000992456
0.00116934
0.000979201
0.001156
0.000992456
0.000992455
0.0009792
0.000951282
0.000761146
0.000937942
0.000937941
0.0007744
0.0007744
0.000951283
0.000761146
0.000937941
0.000937942
0.0007744
0.000774401
0.000937942
0.0007744
0.000774401
0.000951282
0.000761146
0.000937942
0.000774401
0.000774401
0.000761145
0.000733228
0.000543092
0.000719887
0.000719886
0.000556349
0.000556351
0.000733228
0.000543091
0.000719887
0.000719887
0.00055635
0.00055635
0.000719888
0.00055635
0.000556351
0.000733228
0.000543092
0.000719887
0.000556349
0.00055635
0.000543092
0.000515175
0.000325106
0.000501842
0.000501841
0.000338444
0.000338444
0.000515174
0.000325107
0.000501842
0.000501843
0.000338443
0.000338444
0.000501842
0.000338444
0.000338442
0.000515175
0.000325106
0.000501842
0.000338445
0.000338443
0.000325105
0.000297228
0.000109437
0.000284152
0.000284151
0.000122245
0.000122239
0.000297227
0.000109434
0.00028415
0.000284152
0.000122237
0.000122243
0.000284149
0.000122235
0.000122239
0.000297225
0.000109442
0.000284149
0.000122245
0.000122237
0.000109434
8.77703e-05
8.80513e-05
8.80397e-05
8.77674e-05
8.80491e-05
8.80472e-05
8.31446e-05
8.31499e-05
8.31467e-05
8.80487e-05
8.77746e-05
8.80486e-05
0.0206364
0.020671
0.0206524
0.0206524
0.0207286
0.0206849
0.0207884
0.0206636
0.0207286
0.0206848
0.0206636
0.0207884
0.0207004
0.0208093
0.0208093
0.0204996
0.020621
0.0206042
0.0205007
0.0205045
0.0204983
0.0204995
0.0206212
0.0206042
0.0205007
0.020561
0.020561
0.020561
0.0203994
0.0203994
0.0203994
0.0203994
0.020494
0.0206006
0.0205635
0.0205076
0.0205691
0.0204973
0.0205072
0.0205045
0.0204983
0.020494
0.0205635
0.0206005
0.0205076
0.0205691
0.0205072
0.0204972
0.0206019
0.0206019
0.020495
0.0204954
0.0204954
0.020277
0.020359
0.0203592
0.0202769
0.0203588
0.020277
0.020277
0.020359
0.0203592
0.0202769
0.0203449
0.0203449
0.0203449
0.0201814
0.0201814
0.0201814
0.0201814
0.0202774
0.0203583
0.0203448
0.0202903
0.0203582
0.0202774
0.0202903
0.0203588
0.020277
0.0202774
0.0203448
0.0203583
0.0202903
0.0203582
0.0202903
0.0202774
0.0203587
0.0203587
0.0202771
0.0202769
0.0202769
0.0200587
0.0201405
0.0201405
0.0200587
0.0201404
0.0200588
0.0200587
0.0201405
0.0201405
0.0200587
0.0201269
0.0201269
0.0201269
0.0199634
0.0199634
0.0199634
0.0199634
0.0200593
0.0201399
0.0201268
0.0200723
0.0201399
0.0200593
0.0200723
0.0201404
0.0200588
0.0200593
0.0201268
0.0201399
0.0200723
0.0201399
0.0200723
0.0200593
0.0201404
0.0201404
0.020059
0.0200588
0.0200588
0.0198407
0.0199224
0.0199224
0.0198407
0.0199223
0.0198407
0.0198407
0.0199224
0.0199224
0.0198407
0.0199089
0.0199089
0.0199089
0.0197453
0.0197453
0.0197453
0.0197453
0.0198412
0.0199219
0.0199088
0.0198542
0.0199219
0.0198412
0.0198542
0.0199224
0.0198407
0.0198412
0.0199088
0.0199219
0.0198542
0.0199219
0.0198542
0.0198412
0.0199224
0.0199224
0.0198409
0.0198407
0.0198407
0.0196226
0.0197043
0.0197044
0.0196226
0.0197043
0.0196227
0.0196226
0.0197043
0.0197044
0.0196226
0.0196908
0.0196908
0.0196908
0.0195273
0.0195273
0.0195273
0.0195273
0.0196232
0.0197038
0.0196907
0.0196361
0.0197038
0.0196231
0.0196362
0.0197043
0.0196227
0.0196232
0.0196907
0.0197038
0.0196361
0.0197038
0.0196362
0.0196231
0.0197043
0.0197043
0.0196229
0.0196227
0.0196227
0.0194046
0.0194863
0.0194863
0.0194046
0.0194863
0.0194046
0.0194046
0.0194863
0.0194863
0.0194046
0.0194727
0.0194727
0.0194727
0.0193092
0.0193092
0.0193092
0.0193092
0.0194051
0.0194858
0.0194726
0.0194181
0.0194858
0.0194051
0.0194181
0.0194862
0.0194046
0.0194051
0.0194726
0.0194858
0.0194181
0.0194858
0.0194181
0.0194051
0.0194863
0.0194863
0.0194048
0.0194046
0.0194046
0.0191865
0.0192682
0.0192682
0.0191865
0.0192682
0.0191866
0.0191865
0.0192682
0.0192682
0.0191865
0.0192547
0.0192547
0.0192547
0.0190911
0.0190911
0.0190911
0.0190911
0.0191871
0.0192677
0.0192546
0.0192
0.0192677
0.019187
0.0192001
0.0192682
0.0191866
0.0191871
0.0192546
0.0192677
0.0192
0.0192677
0.0192001
0.019187
0.0192682
0.0192682
0.0191868
0.0191866
0.0191866
0.0189685
0.0190502
0.0190502
0.0189685
0.0190501
0.0189685
0.0189685
0.0190502
0.0190502
0.0189685
0.0190366
0.0190366
0.0190366
0.0188731
0.0188731
0.0188731
0.0188731
0.018969
0.0190496
0.0190365
0.018982
0.0190497
0.018969
0.018982
0.0190501
0.0189685
0.018969
0.0190365
0.0190496
0.018982
0.0190497
0.018982
0.018969
0.0190501
0.0190501
0.0189687
0.0189685
0.0189685
0.0187504
0.0188321
0.0188321
0.0187504
0.0188321
0.0187505
0.0187504
0.0188321
0.0188321
0.0187504
0.0188186
0.0188186
0.0188186
0.018655
0.018655
0.018655
0.018655
0.018751
0.0188316
0.0188185
0.0187639
0.0188316
0.0187509
0.018764
0.0188321
0.0187505
0.018751
0.0188185
0.0188316
0.0187639
0.0188316
0.018764
0.0187509
0.0188321
0.0188321
0.0187507
0.0187504
0.0187504
0.0185323
0.0186141
0.0186141
0.0185324
0.018614
0.0185324
0.0185323
0.0186141
0.0186141
0.0185324
0.0186005
0.0186005
0.0186005
0.018437
0.018437
0.018437
0.018437
0.0185329
0.0186135
0.0186004
0.0185459
0.0186135
0.0185329
0.0185459
0.018614
0.0185324
0.0185329
0.0186004
0.0186135
0.0185459
0.0186135
0.0185459
0.0185329
0.018614
0.018614
0.0185326
0.0185324
0.0185324
0.0183143
0.018396
0.018396
0.0183143
0.018396
0.0183143
0.0183143
0.018396
0.018396
0.0183143
0.0183825
0.0183825
0.0183825
0.0182189
0.0182189
0.0182189
0.0182189
0.0183148
0.0183955
0.0183824
0.0183278
0.0183955
0.0183148
0.0183279
0.018396
0.0183143
0.0183148
0.0183824
0.0183955
0.0183278
0.0183955
0.0183279
0.0183148
0.018396
0.018396
0.0183146
0.0183143
0.0183143
0.0180962
0.018178
0.018178
0.0180962