/*--------------------------------*- C++ -*----------------------------------*\
| =========                 |                                                 |
| \\      /  F ield         | OpenFOAM: The Open Source CFD Toolbox           |
|  \\    /   O peration     | Version:  v1906                                 |
|   \\  /    A nd           | Web:      www.OpenFOAM.com                      |
|    \\/     M anipulation  |                                                 |
\*---------------------------------------------------------------------------*/
FoamFile
{
    version     2.0;
    format      ascii;
    class       volScalarField;
    location    "150";
    object      k;
}
// * * * * * * * * * * * * * * * * * * * * * * * * * * * * * * * * * * * * * //

dimensions      [0 2 -2 0 0 0 0];


internalField   nonuniform List<scalar> 
171728
(
2.76207e-05
2.18036e-05
2.18066e-05
2.76384e-05
2.18052e-05
2.18063e-05
2.18351e-05
2.17634e-05
2.76308e-05
2.17957e-05
2.18032e-05
2.75925e-05
1.34811e-05
1.34895e-05
1.34793e-05
1.34757e-05
6.87354e-05
6.87292e-05
6.30701e-05
6.3089e-05
5.99534e-05
6.99798e-05
5.99505e-05
5.99444e-05
6.99865e-05
6.99849e-05
5.99509e-05
4.217e-05
5.35027e-05
1.65591e-05
1.65587e-05
4.22009e-05
4.22133e-05
2.18067e-05
5.35122e-05
1.65672e-05
5.35296e-05
1.65664e-05
4.22155e-05
6.87144e-05
6.87076e-05
2.76734e-05
6.30588e-05
6.30826e-05
6.30614e-05
6.30878e-05
6.87497e-05
6.87387e-05
7.00067e-05
5.99536e-05
5.35784e-05
1.65527e-05
4.22204e-05
6.99828e-05
5.99735e-05
1.65495e-05
5.35235e-05
4.22306e-05
4.21442e-05
2.18331e-05
5.35467e-05
1.6558e-05
5.35205e-05
1.65571e-05
4.21791e-05
5.99568e-05
7.00039e-05
7.00009e-05
5.9929e-05
4.21668e-05
2.17622e-05
1.65215e-05
5.34592e-05
1.65201e-05
5.34656e-05
4.21147e-05
5.99169e-05
6.99399e-05
6.99368e-05
5.99135e-05
6.87276e-05
6.30996e-05
6.30899e-05
6.87218e-05
4.21832e-05
1.65562e-05
5.35513e-05
1.6556e-05
4.21683e-05
4.22812e-05
2.18039e-05
1.6578e-05
5.35616e-05
1.65769e-05
5.35714e-05
4.23013e-05
5.99805e-05
6.99847e-05
6.00069e-05
6.0006e-05
7.00048e-05
6.99991e-05
6.00066e-05
2.7635e-05
6.30631e-05
6.30887e-05
6.30575e-05
6.3092e-05
6.87063e-05
6.8695e-05
6.8723e-05
6.87141e-05
6.87268e-05
6.87219e-05
6.40461e-05
5.01522e-05
6.30804e-05
6.93508e-05
6.93467e-05
5.01828e-05
6.40609e-05
6.40937e-05
5.01913e-05
6.30893e-05
6.93505e-05
6.93484e-05
5.01823e-05
6.40766e-05
8.96159e-05
7.14711e-05
7.14569e-05
7.14586e-05
7.14453e-05
8.96079e-05
6.9367e-05
6.89486e-05
6.43044e-05
5.99536e-05
6.93625e-05
6.89515e-05
6.43059e-05
6.97995e-05
6.99772e-05
7.54746e-05
7.54712e-05
6.98135e-05
6.93631e-05
5.99502e-05
6.89515e-05
6.42883e-05
6.89487e-05
6.42867e-05
6.93672e-05
6.93805e-05
6.89423e-05
6.43549e-05
5.99512e-05
6.9376e-05
6.89456e-05
6.43608e-05
6.98093e-05
6.9985e-05
7.55557e-05
7.55525e-05
6.98215e-05
6.98215e-05
7.55504e-05
6.99866e-05
6.98092e-05
7.55539e-05
6.9377e-05
5.99496e-05
6.89463e-05
6.43614e-05
6.89432e-05
6.43593e-05
6.9381e-05
6.8707e-05
6.87148e-05
8.96093e-05
7.14432e-05
7.14604e-05
8.96129e-05
7.14552e-05
7.14727e-05
6.41099e-05
5.01795e-05
6.30658e-05
6.93454e-05
5.01967e-05
6.93425e-05
6.41092e-05
6.40647e-05
5.02012e-05
6.30904e-05
6.93619e-05
6.93583e-05
5.01861e-05
6.40671e-05
6.41071e-05
6.9342e-05
5.01979e-05
6.30664e-05
5.0196e-05
6.41077e-05
6.93448e-05
6.40604e-05
6.93562e-05
5.01809e-05
6.30895e-05
6.40465e-05
6.93599e-05
5.01869e-05
8.96098e-05
7.14563e-05
7.14742e-05
7.14443e-05
7.14619e-05
8.96028e-05
6.87409e-05
6.87476e-05
6.98281e-05
7.00036e-05
7.55463e-05
7.5541e-05
6.98421e-05
6.93768e-05
5.9941e-05
6.43434e-05
6.8945e-05
6.43321e-05
6.89413e-05
6.93825e-05
6.98115e-05
6.99794e-05
7.549e-05
7.54849e-05
6.98261e-05
6.93746e-05
5.99717e-05
6.89464e-05
6.43356e-05
6.89424e-05
6.43254e-05
6.93802e-05
6.93705e-05
6.43089e-05
6.89357e-05
5.99499e-05
6.93651e-05
6.43289e-05
6.89398e-05
6.98186e-05
7.00024e-05
7.55367e-05
7.55342e-05
6.98316e-05
6.98301e-05
7.55384e-05
7.0003e-05
6.98173e-05
7.55401e-05
6.9368e-05
5.99283e-05
6.43367e-05
6.89416e-05
6.43308e-05
6.8938e-05
6.93732e-05
6.9347e-05
6.89254e-05
6.42852e-05
5.9919e-05
6.9342e-05
6.89294e-05
6.42871e-05
6.97697e-05
6.99377e-05
7.54339e-05
7.54394e-05
6.97827e-05
6.97811e-05
7.54455e-05
6.9938e-05
6.9768e-05
7.54459e-05
6.93441e-05
5.99167e-05
6.8932e-05
6.42831e-05
6.8928e-05
6.42825e-05
6.9349e-05
6.87192e-05
6.41581e-05
5.019e-05
6.31115e-05
6.93577e-05
5.02128e-05
6.93554e-05
6.4151e-05
6.40877e-05
5.01661e-05
6.30969e-05
6.9343e-05
6.93407e-05
5.01988e-05
6.40815e-05
8.9656e-05
7.14573e-05
7.14616e-05
7.14461e-05
7.14503e-05
8.96536e-05
6.87141e-05
6.93799e-05
6.43612e-05
6.89525e-05
5.99816e-05
6.93754e-05
6.43655e-05
6.89561e-05
6.98086e-05
6.99813e-05
7.55076e-05
7.55032e-05
6.9822e-05
6.98196e-05
7.55037e-05
6.93767e-05
5.99993e-05
6.4369e-05
6.89578e-05
6.43646e-05
6.89543e-05
6.93811e-05
6.93976e-05
6.43708e-05
6.89633e-05
6.00026e-05
6.93926e-05
6.43774e-05
6.89667e-05
6.9828e-05
7.00023e-05
7.55558e-05
7.55528e-05
6.98412e-05
6.98403e-05
7.55476e-05
7.00024e-05
6.98266e-05
7.55523e-05
6.93944e-05
5.99922e-05
6.43813e-05
6.89681e-05
6.43779e-05
6.89646e-05
6.93991e-05
8.96086e-05
7.14396e-05
7.1432e-05
8.96089e-05
7.14521e-05
7.1444e-05
6.406e-05
5.01664e-05
6.30697e-05
6.93287e-05
5.01496e-05
6.9325e-05
6.40617e-05
6.40668e-05
5.01521e-05
6.31006e-05
6.93411e-05
5.01551e-05
6.93378e-05
6.40906e-05
6.40521e-05
6.93224e-05
5.01359e-05
6.30549e-05
6.40498e-05
5.01469e-05
6.93262e-05
6.40699e-05
6.93365e-05
5.01308e-05
6.30967e-05
6.40723e-05
5.01483e-05
6.93397e-05
8.96087e-05
7.14539e-05
7.14453e-05
7.14413e-05
7.14332e-05
8.96113e-05
6.86976e-05
6.87037e-05
6.87152e-05
6.87223e-05
4.96717e-05
2.76597e-05
3.78377e-05
3.78258e-05
3.78479e-05
3.78482e-05
4.96498e-05
4.97198e-05
2.76779e-05
3.78433e-05
3.78632e-05
3.78583e-05
3.78776e-05
4.97095e-05
4.97004e-05
2.76684e-05
3.78804e-05
3.78644e-05
3.78956e-05
3.78799e-05
4.97069e-05
4.96781e-05
2.76387e-05
3.78125e-05
3.78171e-05
3.78262e-05
3.78308e-05
4.96723e-05
1.16754e-05
1.1673e-05
1.16741e-05
1.08379e-05
1.0838e-05
1.34892e-05
1.16778e-05
1.16767e-05
1.16768e-05
1.16755e-05
1.0839e-05
1.0839e-05
1.16732e-05
1.16738e-05
1.16729e-05
1.08377e-05
1.08376e-05
1.34754e-05
1.167e-05
1.16769e-05
1.16686e-05
1.16757e-05
1.08379e-05
1.0838e-05
3.09866e-05
4.54863e-05
2.85844e-05
4.21948e-05
3.10199e-05
4.54944e-05
2.85611e-05
3.48422e-05
4.08606e-05
5.35161e-05
5.00713e-05
4.08679e-05
5.0084e-05
3.48174e-05
3.10242e-05
4.21673e-05
4.54339e-05
2.85653e-05
4.54391e-05
2.85882e-05
3.09906e-05
3.10333e-05
4.55574e-05
2.85872e-05
4.22146e-05
3.10671e-05
4.55523e-05
2.85644e-05
3.4866e-05
4.08647e-05
5.35224e-05
5.01003e-05
5.01167e-05
4.08766e-05
3.48389e-05
3.48357e-05
5.01013e-05
4.08754e-05
5.35312e-05
3.48625e-05
5.01101e-05
4.08641e-05
3.10707e-05
4.22162e-05
4.55176e-05
2.85699e-05
4.55432e-05
2.85928e-05
3.10368e-05
4.9714e-05
2.76339e-05
3.78555e-05
3.78745e-05
3.78413e-05
4.97151e-05
3.78605e-05
3.49023e-05
4.08854e-05
5.35939e-05
5.01882e-05
4.08969e-05
5.01724e-05
3.48768e-05
3.10625e-05
4.22231e-05
4.55238e-05
2.85373e-05
4.55075e-05
2.85584e-05
3.10309e-05
3.48574e-05
4.08779e-05
5.35358e-05
5.01148e-05
5.01068e-05
4.08877e-05
3.4832e-05
3.10449e-05
4.2224e-05
2.85305e-05
4.55333e-05
2.85515e-05
4.55187e-05
3.1013e-05
3.10024e-05
4.54861e-05
2.85239e-05
4.21448e-05
3.10346e-05
4.54855e-05
2.8502e-05
3.48973e-05
4.0904e-05
5.35463e-05
5.01179e-05
4.09127e-05
5.01098e-05
3.48714e-05
3.4864e-05
5.01157e-05
4.09069e-05
5.35341e-05
3.48896e-05
4.08982e-05
5.01288e-05
3.10442e-05
4.21669e-05
4.54959e-05
2.85115e-05
4.54621e-05
2.8533e-05
3.10119e-05
3.08921e-05
2.84826e-05
4.53956e-05
4.21589e-05
3.09245e-05
2.8461e-05
4.5421e-05
3.47502e-05
4.08077e-05
5.34746e-05
4.99572e-05
4.996e-05
4.08179e-05
3.47233e-05
3.47206e-05
4.99486e-05
4.08154e-05
5.34482e-05
3.47479e-05
4.99252e-05
4.08046e-05
3.09307e-05
4.21593e-05
2.8469e-05
4.54154e-05
2.84914e-05
4.53908e-05
3.08979e-05
3.09999e-05
2.85795e-05
4.54993e-05
4.22028e-05
3.10332e-05
2.85573e-05
4.54894e-05
3.48506e-05
4.08628e-05
5.35644e-05
5.01189e-05
4.08733e-05
5.01209e-05
3.48247e-05
3.48171e-05
5.00785e-05
3.1041e-05
4.22017e-05
2.85647e-05
4.55032e-05
2.85872e-05
4.54666e-05
3.10088e-05
3.10722e-05
2.86216e-05
4.56012e-05
4.2292e-05
3.1104e-05
2.86008e-05
4.55812e-05
3.49031e-05
4.08742e-05
5.35805e-05
5.01785e-05
5.01756e-05
4.08838e-05
3.4877e-05
3.48692e-05
5.01765e-05
4.08783e-05
5.35683e-05
3.48951e-05
5.01476e-05
4.0869e-05
3.1116e-05
4.23071e-05
2.86133e-05
4.56063e-05
2.86345e-05
4.56215e-05
3.10839e-05
4.96416e-05
2.75898e-05
3.78224e-05
3.78263e-05
4.96695e-05
3.78082e-05
3.7812e-05
1.3494e-05
2.19553e-05
2.18388e-05
2.77892e-05
2.77949e-05
2.77725e-05
2.77253e-05
2.1846e-05
2.18876e-05
2.18464e-05
2.18817e-05
2.78723e-05
2.78278e-05
2.18648e-05
2.1867e-05
2.18633e-05
2.18673e-05
2.18643e-05
2.19543e-05
2.18641e-05
2.77433e-05
2.77194e-05
2.18745e-05
2.18453e-05
2.18745e-05
2.77543e-05
2.18617e-05
2.18746e-05
5.99519e-05
7.00278e-05
7.00306e-05
5.99544e-05
6.87334e-05
6.87359e-05
5.99819e-05
7.0052e-05
7.00531e-05
5.99849e-05
1.35184e-05
1.34984e-05
1.35037e-05
1.34931e-05
1.35177e-05
1.34987e-05
1.35038e-05
4.24004e-05
5.3862e-05
1.6629e-05
2.19553e-05
5.38625e-05
1.66312e-05
4.23879e-05
6.8747e-05
6.87559e-05
4.24878e-05
1.66176e-05
5.36446e-05
2.1844e-05
1.66189e-05
5.36289e-05
4.24593e-05
6.31308e-05
6.31123e-05
2.77452e-05
6.31218e-05
6.31021e-05
6.3118e-05
6.31166e-05
6.87405e-05
6.87489e-05
6.87406e-05
6.87488e-05
6.31367e-05
6.31411e-05
2.77251e-05
6.31347e-05
6.31519e-05
6.87507e-05
6.87421e-05
6.875e-05
6.87416e-05
2.77723e-05
6.31389e-05
6.31571e-05
6.31479e-05
6.31567e-05
5.99741e-05
7.00146e-05
7.00105e-05
5.99562e-05
4.22147e-05
5.36977e-05
1.65549e-05
2.18463e-05
5.37256e-05
1.65551e-05
4.22039e-05
4.22319e-05
5.35246e-05
1.65951e-05
2.18866e-05
5.35066e-05
1.65949e-05
4.22145e-05
5.9934e-05
7.00328e-05
7.00296e-05
5.99313e-05
5.99677e-05
7.0006e-05
7.00076e-05
5.99655e-05
4.21595e-05
2.18464e-05
5.37193e-05
1.6555e-05
5.37308e-05
1.6555e-05
4.21284e-05
4.21935e-05
2.18833e-05
5.35397e-05
1.65912e-05
5.35205e-05
1.65925e-05
4.22332e-05
6.31232e-05
6.32316e-05
2.78314e-05
6.31075e-05
6.32269e-05
6.88029e-05
6.88118e-05
6.87316e-05
6.87269e-05
2.78696e-05
6.30941e-05
6.32268e-05
6.31079e-05
6.3232e-05
6.88125e-05
6.88043e-05
4.23093e-05
5.3709e-05
1.66137e-05
2.18644e-05
5.37478e-05
1.66126e-05
4.23302e-05
5.99576e-05
7.00424e-05
7.00435e-05
5.99665e-05
4.22495e-05
1.66055e-05
5.37531e-05
2.18673e-05
1.6605e-05
5.37524e-05
4.22728e-05
5.99776e-05
7.00526e-05
7.00513e-05
5.99862e-05
4.23387e-05
2.18637e-05
5.37574e-05
1.66038e-05
5.37374e-05
1.66074e-05
4.22937e-05
5.99491e-05
7.0043e-05
7.00417e-05
5.99631e-05
4.22375e-05
2.18673e-05
1.65941e-05
5.37496e-05
1.6598e-05
5.375e-05
4.22356e-05
6.00492e-05
7.00858e-05
7.0088e-05
6.0058e-05
4.2266e-05
1.65687e-05
5.35631e-05
2.18648e-05
1.65715e-05
5.35625e-05
4.23004e-05
6.00131e-05
7.00129e-05
7.00127e-05
5.99992e-05
4.24024e-05
2.19545e-05
5.38443e-05
1.6631e-05
5.38644e-05
1.6631e-05
4.23985e-05
6.00477e-05
7.00883e-05
7.00866e-05
6.00418e-05
4.23003e-05
2.18641e-05
1.65724e-05
5.3554e-05
1.65715e-05
5.35838e-05
4.22706e-05
5.99989e-05
7.00113e-05
7.00109e-05
6.00187e-05
6.31344e-05
6.31192e-05
2.77109e-05
6.31403e-05
6.31178e-05
6.87362e-05
6.87419e-05
6.87568e-05
6.87481e-05
2.77522e-05
6.31478e-05
6.31136e-05
6.3143e-05
6.31219e-05
6.87393e-05
6.87338e-05
4.24121e-05
1.66318e-05
5.35669e-05
2.18745e-05
1.66319e-05
5.35794e-05
4.24727e-05
6.01278e-05
7.00216e-05
7.00228e-05
6.01241e-05
6.01085e-05
7.00253e-05
7.00268e-05
6.01113e-05
4.24875e-05
2.18421e-05
1.66189e-05
5.36317e-05
1.66187e-05
5.36183e-05
4.24358e-05
4.24613e-05
2.18744e-05
1.66322e-05
5.35803e-05
1.6632e-05
5.35827e-05
4.24496e-05
6.01156e-05
7.00232e-05
7.0021e-05
6.01099e-05
6.00959e-05
7.00272e-05
7.00253e-05
6.00997e-05
6.87423e-05
6.8749e-05
6.87407e-05
6.87488e-05
2.77942e-05
6.31178e-05
6.31148e-05
6.31231e-05
6.30985e-05
6.87492e-05
6.87414e-05
6.87512e-05
6.87416e-05
1.65733e-05
5.3565e-05
4.22835e-05
7.00096e-05
6.0017e-05
5.35658e-05
7.00256e-05
6.8742e-05
6.87442e-05
6.93474e-05
6.89254e-05
6.43298e-05
5.99515e-05
6.89231e-05
6.43299e-05
6.93515e-05
6.98157e-05
7.00297e-05
7.55283e-05
7.55298e-05
6.98028e-05
6.98032e-05
7.55267e-05
7.00284e-05
7.55264e-05
6.98163e-05
6.93513e-05
5.9954e-05
6.89241e-05
6.43347e-05
6.89264e-05
6.43348e-05
6.93472e-05
6.87391e-05
6.87299e-05
6.93725e-05
6.43857e-05
6.89412e-05
5.9978e-05
6.4384e-05
6.89399e-05
6.93745e-05
6.98388e-05
7.00533e-05
7.55914e-05
7.55939e-05
6.98274e-05
6.98259e-05
7.55937e-05
7.00516e-05
7.55913e-05
6.98372e-05
6.93782e-05
5.99951e-05
6.43857e-05
6.89428e-05
6.43879e-05
6.89441e-05
6.93762e-05
6.87553e-05
6.87478e-05
8.96962e-05
7.15059e-05
7.14982e-05
7.14938e-05
7.1486e-05
8.96987e-05
6.41312e-05
5.02503e-05
6.31249e-05
6.93825e-05
5.02176e-05
6.93852e-05
6.41334e-05
6.41787e-05
5.02446e-05
6.31059e-05
6.93847e-05
5.02128e-05
6.93877e-05
6.41825e-05
6.41277e-05
6.93853e-05
6.31266e-05
5.02176e-05
5.02506e-05
6.93827e-05
6.41137e-05
6.41777e-05
6.9389e-05
6.31054e-05
5.01768e-05
5.01558e-05
6.93858e-05
6.41686e-05
8.96958e-05
7.14923e-05
7.14844e-05
7.15046e-05
7.14967e-05
8.96914e-05
6.41201e-05
5.02034e-05
6.93845e-05
6.31187e-05
6.41421e-05
5.02114e-05
6.93873e-05
6.42004e-05
5.02262e-05
6.93901e-05
6.31127e-05
6.42102e-05
5.02193e-05
6.93927e-05
8.97009e-05
7.1497e-05
7.14895e-05
8.97057e-05
7.15087e-05
7.1501e-05
6.87482e-05
6.8741e-05
6.87482e-05
6.87409e-05
8.97096e-05
7.14906e-05
7.14815e-05
7.14785e-05
7.14695e-05
8.97095e-05
6.41727e-05
5.02365e-05
6.31364e-05
6.9374e-05
6.9377e-05
5.02419e-05
6.41756e-05
6.42284e-05
5.02583e-05
6.31425e-05
6.93796e-05
6.93827e-05
5.02433e-05
6.42243e-05
6.41775e-05
6.93778e-05
6.31362e-05
5.02484e-05
6.93749e-05
6.41582e-05
5.02442e-05
6.42362e-05
6.93842e-05
6.3149e-05
5.02587e-05
6.93809e-05
6.42373e-05
5.02195e-05
8.97063e-05
7.14773e-05
7.14683e-05
7.14894e-05
7.14804e-05
8.97044e-05
6.87429e-05
6.87501e-05
6.87422e-05
6.87495e-05
8.97032e-05
7.14793e-05
7.14703e-05
8.97055e-05
7.14911e-05
7.1482e-05
6.4166e-05
5.02353e-05
6.31452e-05
6.93788e-05
6.93762e-05
5.0245e-05
6.41475e-05
6.42173e-05
5.02585e-05
6.31609e-05
6.93853e-05
6.93827e-05
5.0261e-05
6.42007e-05
6.41621e-05
6.93757e-05
5.02397e-05
6.31413e-05
6.41694e-05
6.93785e-05
5.02423e-05
6.42149e-05
6.93823e-05
5.02588e-05
6.31587e-05
6.42405e-05
6.93851e-05
5.02656e-05
8.9705e-05
7.14917e-05
7.14825e-05
7.14798e-05
7.14708e-05
8.9704e-05
6.9387e-05
6.89394e-05
6.4394e-05
5.99667e-05
6.89373e-05
6.43922e-05
6.93898e-05
6.98358e-05
7.00141e-05
7.5551e-05
7.55528e-05
6.98251e-05
6.98222e-05
7.55522e-05
7.00106e-05
7.555e-05
6.9833e-05
6.93919e-05
5.9951e-05
6.89387e-05
6.43922e-05
6.89407e-05
6.43949e-05
6.9389e-05
6.93517e-05
6.8922e-05
6.4325e-05
5.99418e-05
6.93476e-05
6.89244e-05
6.43249e-05
6.98054e-05
7.00308e-05
7.55265e-05
6.9819e-05
7.55247e-05
6.98174e-05
7.55245e-05
7.00317e-05
6.98041e-05
7.55261e-05
6.93478e-05
5.99244e-05
6.89233e-05
6.4315e-05
6.9352e-05
6.8921e-05
6.43117e-05
6.93876e-05
6.89357e-05
6.43902e-05
5.99685e-05
6.93848e-05
6.89375e-05
6.4392e-05
6.98174e-05
7.00055e-05
7.55539e-05
7.55509e-05
6.98286e-05
6.98307e-05
7.55498e-05
7.00079e-05
6.98196e-05
7.5553e-05
6.93826e-05
5.99646e-05
6.89354e-05
6.43899e-05
6.89337e-05
6.43885e-05
6.93853e-05
8.97333e-05
7.14968e-05
7.15252e-05
7.14854e-05
7.15135e-05
8.97315e-05
6.42223e-05
5.02038e-05
6.31102e-05
6.93827e-05
6.93842e-05
5.02379e-05
6.4218e-05
6.42104e-05
5.03962e-05
6.323e-05
6.94379e-05
5.03698e-05
6.94406e-05
6.42245e-05
6.42209e-05
6.9382e-05
6.31128e-05
5.02302e-05
6.93806e-05
5.0236e-05
6.41943e-05
6.42107e-05
6.94413e-05
6.32347e-05
5.04144e-05
5.0407e-05
6.94383e-05
6.42116e-05
8.97326e-05
7.14858e-05
7.15135e-05
7.1497e-05
7.15251e-05
8.97347e-05
6.88111e-05
6.88037e-05
6.87247e-05
6.87332e-05
8.97306e-05
7.14854e-05
7.15138e-05
8.97324e-05
7.1497e-05
7.15256e-05
6.42073e-05
5.02115e-05
6.30987e-05
6.93796e-05
5.02379e-05
6.93772e-05
6.42026e-05
6.42323e-05
5.04299e-05
6.32273e-05
6.94438e-05
6.94408e-05
5.04304e-05
6.42325e-05
6.42031e-05
6.93784e-05
5.0241e-05
6.30977e-05
5.02452e-05
6.41982e-05
6.93803e-05
6.42244e-05
6.94395e-05
5.04128e-05
6.32362e-05
6.42249e-05
6.94429e-05
5.03948e-05
8.97314e-05
7.14976e-05
7.15262e-05
7.14858e-05
7.15143e-05
8.97299e-05
6.88047e-05
6.88126e-05
6.93449e-05
6.8927e-05
6.43359e-05
5.99592e-05
6.89256e-05
6.43358e-05
6.93475e-05
6.98219e-05
7.00437e-05
7.55613e-05
7.5563e-05
6.98098e-05
6.98085e-05
7.55631e-05
7.0042e-05
7.55613e-05
6.98207e-05
6.93505e-05
5.99657e-05
6.8929e-05
6.43446e-05
6.893e-05
6.43449e-05
6.9348e-05
6.93706e-05
6.43755e-05
6.89372e-05
5.99771e-05
6.93687e-05
6.43757e-05
6.89388e-05
6.98227e-05
7.0051e-05
7.55927e-05
6.98341e-05
7.55906e-05
6.98356e-05
7.55909e-05
7.00528e-05
6.98243e-05
7.55932e-05
6.93648e-05
5.99956e-05
6.43648e-05
6.89369e-05
6.93667e-05
6.43654e-05
6.89352e-05
6.93449e-05
6.8923e-05
6.43267e-05
5.99715e-05
6.93421e-05
6.89249e-05
6.43275e-05
6.98062e-05
7.00415e-05
7.55638e-05
7.55618e-05
6.98186e-05
6.98195e-05
7.55614e-05
7.0043e-05
6.98073e-05
7.55634e-05
6.93398e-05
5.99553e-05
6.89228e-05
6.43241e-05
6.89211e-05
6.43226e-05
6.93429e-05
6.94014e-05
6.44486e-05
6.89696e-05
6.00497e-05
6.44474e-05
6.89668e-05
6.94056e-05
6.98628e-05
7.00876e-05
7.56211e-05
7.56228e-05
6.98505e-05
6.98507e-05
7.56216e-05
7.00862e-05
7.56199e-05
6.9863e-05
6.94049e-05
6.0058e-05
6.44504e-05
6.89666e-05
6.44516e-05
6.89695e-05
6.94007e-05
6.93629e-05
6.89494e-05
6.4382e-05
6.00161e-05
6.89456e-05
6.438e-05
6.93676e-05
6.98201e-05
7.00138e-05
7.55545e-05
7.55563e-05
6.98081e-05
6.98077e-05
7.55546e-05
7.00117e-05
7.55531e-05
6.98197e-05
6.93659e-05
5.9998e-05
6.89431e-05
6.43759e-05
6.8947e-05
6.43812e-05
6.9361e-05
6.94063e-05
6.44439e-05
6.89669e-05
6.00416e-05
6.94021e-05
6.44445e-05
6.89695e-05
6.98511e-05
7.00869e-05
7.56147e-05
7.56146e-05
6.98634e-05
6.98632e-05
7.56183e-05
7.00883e-05
6.98509e-05
7.56194e-05
6.94025e-05
6.0026e-05
6.44305e-05
6.89697e-05
6.4427e-05
6.89667e-05
6.94065e-05
6.93686e-05
6.89475e-05
6.43659e-05
6.00108e-05
6.93642e-05
6.89512e-05
6.4372e-05
6.98073e-05
7.00102e-05
7.55529e-05
7.55505e-05
6.98197e-05
6.98195e-05
7.55513e-05
7.00121e-05
6.98074e-05
7.5553e-05
6.93653e-05
6.00094e-05
6.89531e-05
6.43702e-05
6.89493e-05
6.4368e-05
6.93698e-05
8.9681e-05
7.14863e-05
7.14894e-05
7.14746e-05
7.14781e-05
8.96809e-05
6.41402e-05
5.0207e-05
6.31403e-05
6.93816e-05
6.93845e-05
5.01833e-05
6.41408e-05
6.40836e-05
5.0228e-05
6.31222e-05
6.9371e-05
5.02119e-05
6.93731e-05
6.40894e-05
6.41384e-05
6.93853e-05
6.3149e-05
5.0231e-05
6.93822e-05
5.02206e-05
6.41606e-05
6.41114e-05
6.93727e-05
6.3124e-05
5.02096e-05
5.02113e-05
6.93704e-05
6.41174e-05
8.96788e-05
7.14746e-05
7.14787e-05
7.14861e-05
7.14899e-05
8.96794e-05
6.87432e-05
6.8735e-05
6.87487e-05
6.87562e-05
8.96822e-05
7.14748e-05
7.14776e-05
8.96832e-05
7.14864e-05
7.14888e-05
6.4159e-05
5.0211e-05
6.31518e-05
6.93867e-05
5.02228e-05
6.93837e-05
6.41787e-05
6.41245e-05
5.01895e-05
6.31163e-05
6.93701e-05
6.93683e-05
5.02145e-05
6.41216e-05
6.4159e-05
6.93829e-05
5.02199e-05
6.3137e-05
5.02086e-05
6.41603e-05
6.93859e-05
6.41225e-05
6.93697e-05
5.01959e-05
6.31116e-05
6.41225e-05
6.93716e-05
5.0195e-05
8.96835e-05
7.14865e-05
7.14882e-05
7.14749e-05
7.1477e-05
8.9682e-05
6.87324e-05
6.87406e-05
6.94053e-05
6.44568e-05
6.89973e-05
6.01212e-05
6.44414e-05
6.89943e-05
6.94095e-05
6.98338e-05
7.00231e-05
7.55868e-05
7.55881e-05
6.98218e-05
6.98213e-05
7.55861e-05
7.00214e-05
7.55847e-05
6.98333e-05
6.94094e-05
6.01365e-05
6.44472e-05
6.89938e-05
6.44513e-05
6.8997e-05
6.94055e-05
6.94061e-05
6.4419e-05
6.89966e-05
6.00954e-05
6.44204e-05
6.89937e-05
6.94103e-05
6.98434e-05
7.00267e-05
7.55753e-05
7.55774e-05
6.98307e-05
6.98304e-05
7.55783e-05
7.00251e-05
7.55763e-05
6.98431e-05
6.94101e-05
6.01076e-05
6.44231e-05
6.89938e-05
6.44248e-05
6.89966e-05
6.94061e-05
6.94097e-05
6.4457e-05
6.89944e-05
6.01265e-05
6.94057e-05
6.44605e-05
6.89973e-05
6.98203e-05
7.00215e-05
7.55831e-05
7.55817e-05
6.98322e-05
6.98328e-05
7.5583e-05
7.00228e-05
6.98208e-05
7.5585e-05
6.94054e-05
6.01074e-05
6.44538e-05
6.89964e-05
6.4447e-05
6.8994e-05
6.9409e-05
6.94109e-05
6.44281e-05
6.89935e-05
6.01066e-05
6.94066e-05
6.44344e-05
6.89962e-05
6.98296e-05
7.00254e-05
7.55811e-05
7.55792e-05
6.98421e-05
6.98427e-05
7.55777e-05
7.0027e-05
6.983e-05
7.55804e-05
6.94069e-05
6.01002e-05
6.44392e-05
6.89951e-05
6.44353e-05
6.89928e-05
6.94108e-05
6.87495e-05
6.87417e-05
6.87483e-05
6.87409e-05
8.97032e-05
7.14951e-05
7.14875e-05
8.97032e-05
7.15072e-05
7.14995e-05
6.41261e-05
5.02101e-05
6.31145e-05
6.93865e-05
6.41166e-05
5.02069e-05
6.93835e-05
6.42064e-05
5.02183e-05
6.31126e-05
6.93923e-05
6.42072e-05
5.02059e-05
6.93891e-05
6.41269e-05
6.9383e-05
5.02523e-05
6.31133e-05
6.41291e-05
5.02183e-05
6.93858e-05
6.42008e-05
6.93873e-05
5.0181e-05
6.3109e-05
6.41952e-05
5.01682e-05
6.93909e-05
8.97052e-05
7.15081e-05
7.15005e-05
8.97041e-05
7.14962e-05
7.14886e-05
6.87413e-05
6.87488e-05
6.87429e-05
6.87499e-05
6.98202e-05
7.55508e-05
7.00111e-05
6.98077e-05
7.55534e-05
6.9371e-05
6.00195e-05
6.89512e-05
6.43633e-05
6.93665e-05
6.89547e-05
6.43606e-05
7.00273e-05
6.875e-05
6.87523e-05
1.16747e-05
1.16849e-05
1.34938e-05
1.16746e-05
1.1684e-05
1.08394e-05
1.08394e-05
4.98747e-05
3.7993e-05
3.79894e-05
2.77435e-05
3.79786e-05
3.79752e-05
4.98812e-05
4.99067e-05
3.80026e-05
3.80038e-05
2.77586e-05
4.99129e-05
3.79881e-05
3.79901e-05
5.00341e-05
3.80013e-05
3.80139e-05
2.77249e-05
3.79865e-05
3.79985e-05
5.00376e-05
5.00401e-05
2.77725e-05
3.79893e-05
3.79998e-05
3.80044e-05
3.80154e-05
5.00345e-05
5.00781e-05
3.80595e-05
3.81553e-05
2.78325e-05
3.81385e-05
3.80416e-05
5.00836e-05
5.00799e-05
2.78678e-05
3.80332e-05
3.81375e-05
3.80499e-05
3.81524e-05
5.00758e-05
4.97667e-05
3.7949e-05
3.79465e-05
2.77056e-05
3.79327e-05
3.79341e-05
4.97797e-05
4.98536e-05
2.77563e-05
3.79543e-05
3.79475e-05
3.79678e-05
3.79614e-05
4.98432e-05
4.98998e-05
2.77921e-05
3.79864e-05
3.79847e-05
4.98752e-05
3.8001e-05
3.79986e-05
1.16846e-05
1.16893e-05
1.35186e-05
1.16841e-05
1.16892e-05
1.08412e-05
1.08413e-05
1.16861e-05
1.16851e-05
1.34985e-05
1.16852e-05
1.16851e-05
1.08407e-05
1.08408e-05
1.16798e-05
1.16875e-05
1.35037e-05
1.16799e-05
1.16875e-05
1.08403e-05
1.08404e-05
1.34931e-05
1.16746e-05
1.1683e-05
1.16746e-05
1.16835e-05
1.08393e-05
1.08391e-05
1.3518e-05
1.16836e-05
1.16892e-05
1.1684e-05
1.16892e-05
1.08409e-05
1.08412e-05
1.34986e-05
1.16841e-05
1.16852e-05
1.16848e-05
1.16851e-05
1.08406e-05
1.08404e-05
1.35037e-05
1.16802e-05
1.16876e-05
1.16801e-05
1.16876e-05
1.08403e-05
1.08403e-05
3.12528e-05
4.5771e-05
2.87132e-05
4.23964e-05
4.57657e-05
2.87378e-05
3.12178e-05
3.50738e-05
4.11501e-05
5.38609e-05
5.03759e-05
4.11374e-05
5.03849e-05
3.51004e-05
3.51016e-05
5.0391e-05
5.38636e-05
4.11375e-05
4.11491e-05
5.03855e-05
3.5075e-05
3.12163e-05
4.23924e-05
4.57631e-05
2.8737e-05
4.57716e-05
2.87131e-05
3.12509e-05
3.11901e-05
2.87884e-05
4.56815e-05
4.24948e-05
2.88122e-05
4.56658e-05
3.1154e-05
3.48995e-05
4.09462e-05
5.36464e-05
5.0197e-05
4.09343e-05
5.02062e-05
3.49276e-05
3.49263e-05
5.01998e-05
5.36416e-05
4.09341e-05
4.09459e-05
5.02067e-05
3.48965e-05
3.11552e-05
4.24414e-05
2.88103e-05
4.56822e-05
2.87859e-05
4.5699e-05
3.11914e-05
4.98868e-05
2.77918e-05
3.79813e-05
3.79769e-05
3.79958e-05
3.79916e-05
4.9885e-05
5.00398e-05
2.77725e-05
3.79878e-05
3.79992e-05
5.00361e-05
3.80026e-05
3.8014e-05
5.00362e-05
2.7725e-05
3.80032e-05
3.80148e-05
5.00408e-05
3.79884e-05
3.79998e-05
3.10422e-05
4.54906e-05
2.85449e-05
4.22106e-05
4.54716e-05
2.85704e-05
3.10048e-05
3.48968e-05
4.09644e-05
5.37095e-05
5.02419e-05
5.02275e-05
4.09538e-05
3.49242e-05
3.49262e-05
5.02343e-05
5.37034e-05
4.09563e-05
5.02321e-05
4.09664e-05
3.48966e-05
3.10083e-05
4.22174e-05
4.55168e-05
2.8571e-05
4.54609e-05
2.85463e-05
3.10457e-05
3.1159e-05
4.55637e-05
2.85957e-05
4.21769e-05
4.56141e-05
2.86197e-05
3.11187e-05
3.49347e-05
4.09648e-05
5.3501e-05
5.01158e-05
5.01439e-05
4.09463e-05
3.49704e-05
3.49597e-05
5.01366e-05
5.35131e-05
4.09359e-05
5.0147e-05
3.49244e-05
4.09533e-05
3.11253e-05
4.2193e-05
4.56108e-05
2.86206e-05
4.56277e-05
2.85959e-05
3.1164e-05
3.1005e-05
4.54907e-05
2.8568e-05
4.21664e-05
3.104e-05
4.54578e-05
2.85411e-05
3.49248e-05
4.09595e-05
5.37358e-05
5.02189e-05
4.09704e-05
5.019e-05
3.48981e-05
3.48959e-05
5.01977e-05
4.09685e-05
5.37341e-05
4.09579e-05
3.49253e-05
5.01967e-05
3.10416e-05
4.21811e-05
4.55075e-05
2.85387e-05
4.55079e-05
2.85648e-05
3.10076e-05
3.11117e-05
4.55682e-05
2.86198e-05
4.22135e-05
3.1152e-05
4.55796e-05
2.85935e-05
3.49425e-05
4.0923e-05
5.35476e-05
5.01526e-05
5.01413e-05
4.09377e-05
3.49091e-05
3.49167e-05
5.01298e-05
4.09439e-05
5.35159e-05
3.49499e-05
5.01631e-05
4.09288e-05
3.11449e-05
4.22297e-05
4.55662e-05
2.85909e-05
4.55817e-05
2.86174e-05
3.11054e-05
5.00819e-05
2.78712e-05
3.80379e-05
3.81376e-05
3.81533e-05
3.8056e-05
5.00761e-05
5.00754e-05
2.78294e-05
3.80521e-05
3.81523e-05
3.80352e-05
5.00801e-05
3.81364e-05
3.1174e-05
4.56571e-05
2.86784e-05
4.23477e-05
4.56554e-05
2.87116e-05
3.11321e-05
3.49688e-05
4.09984e-05
5.37281e-05
5.02952e-05
5.0307e-05
4.0986e-05
3.49985e-05
3.49956e-05
5.02869e-05
5.37423e-05
4.09862e-05
5.02886e-05
4.09975e-05
3.49658e-05
3.11412e-05
4.23445e-05
4.56501e-05
2.87234e-05
4.56628e-05
2.86902e-05
3.11831e-05
3.11235e-05
2.86426e-05
4.55292e-05
4.22246e-05
2.86775e-05
4.5539e-05
3.10791e-05
3.49382e-05
4.099e-05
5.37452e-05
5.02617e-05
5.02594e-05
4.09767e-05
3.49688e-05
3.49647e-05
5.02586e-05
5.37544e-05
4.09768e-05
5.02634e-05
3.49338e-05
4.09885e-05
3.10916e-05
4.22657e-05
2.86921e-05
4.55773e-05
2.86573e-05
4.5514e-05
3.11357e-05
3.11224e-05
4.56162e-05
2.86998e-05
4.23462e-05
3.11646e-05
4.56268e-05
2.8668e-05
3.49909e-05
4.09858e-05
5.37371e-05
5.02894e-05
4.09976e-05
5.0307e-05
3.49607e-05
3.49631e-05
5.02866e-05
4.09976e-05
5.37474e-05
4.0986e-05
3.49931e-05
5.02675e-05
3.11545e-05
4.23297e-05
4.55425e-05
2.86566e-05
4.55863e-05
2.86896e-05
3.11105e-05
3.10677e-05
2.86631e-05
4.54984e-05
4.22254e-05
3.11105e-05
2.86278e-05
4.55318e-05
3.49568e-05
4.09787e-05
5.37623e-05
5.02348e-05
5.02447e-05
4.09899e-05
3.4926e-05
3.49301e-05
5.02624e-05
4.09887e-05
5.37353e-05
3.49606e-05
5.02619e-05
4.09771e-05
3.10997e-05
4.22353e-05
2.86144e-05
4.55324e-05
2.86485e-05
4.55308e-05
3.10574e-05
3.10614e-05
2.86066e-05
4.5499e-05
4.2299e-05
2.86301e-05
4.55574e-05
3.10249e-05
3.48728e-05
4.09452e-05
5.35762e-05
5.01373e-05
4.09312e-05
5.01485e-05
3.49045e-05
3.48983e-05
5.01129e-05
5.35797e-05
4.0928e-05
4.09413e-05
5.01206e-05
3.48659e-05
3.10262e-05
4.22673e-05
2.86253e-05
4.55595e-05
2.86024e-05
4.55678e-05
3.1062e-05
3.12177e-05
4.57262e-05
2.87372e-05
4.24023e-05
3.12538e-05
4.57304e-05
2.87118e-05
3.51044e-05
4.11376e-05
5.38639e-05
5.03642e-05
3.50736e-05
4.11496e-05
5.03548e-05
3.50746e-05
5.03814e-05
4.11488e-05
5.38629e-05
3.51031e-05
4.11372e-05
5.03444e-05
3.12521e-05
4.24001e-05
4.57284e-05
2.87101e-05
3.12152e-05
4.57207e-05
2.87359e-05
3.10221e-05
2.86326e-05
4.55131e-05
4.23099e-05
3.10587e-05
2.86092e-05
4.55125e-05
3.4887e-05
4.09206e-05
5.35767e-05
5.01207e-05
5.0124e-05
4.09345e-05
3.48571e-05
3.48607e-05
5.01093e-05
4.09386e-05
5.35759e-05
3.48918e-05
5.00841e-05
4.09251e-05
3.10556e-05
4.22621e-05
2.86099e-05
4.55458e-05
2.8634e-05
4.54957e-05
3.10206e-05
4.98236e-05
2.77479e-05
3.79413e-05
3.79388e-05
3.79521e-05
3.79544e-05
4.98319e-05
4.98406e-05
2.77153e-05
3.79606e-05
3.79565e-05
3.79472e-05
4.98144e-05
3.79428e-05
3.12252e-05
2.87882e-05
4.57423e-05
4.24309e-05
2.88128e-05
4.57302e-05
3.11895e-05
3.49294e-05
4.0944e-05
5.35643e-05
5.01748e-05
4.09308e-05
5.01817e-05
3.49603e-05
3.49559e-05
5.01516e-05
5.35763e-05
4.09282e-05
4.09409e-05
5.01753e-05
3.49249e-05
3.11899e-05
4.24125e-05
2.88148e-05
4.5716e-05
2.8789e-05
4.56944e-05
3.12251e-05
3.11507e-05
2.88127e-05
4.56737e-05
4.24832e-05
3.11883e-05
2.87877e-05
4.56797e-05
3.49275e-05
4.09356e-05
5.364e-05
5.02234e-05
3.48979e-05
4.09467e-05
5.02079e-05
3.48977e-05
5.01912e-05
4.09453e-05
5.36399e-05
3.49256e-05
4.09339e-05
5.02259e-05
3.11842e-05
4.24692e-05
2.87863e-05
4.56671e-05
3.11465e-05
2.88118e-05
4.56468e-05
3.11891e-05
2.88142e-05
4.57278e-05
4.24722e-05
3.12246e-05
2.87908e-05
4.56845e-05
3.49501e-05
4.09277e-05
5.35654e-05
5.01803e-05
5.01724e-05
4.09387e-05
3.49221e-05
3.49216e-05
5.0186e-05
4.09389e-05
5.35813e-05
3.49524e-05
5.0197e-05
4.09267e-05
3.1224e-05
4.24741e-05
2.87937e-05
4.57068e-05
2.88175e-05
4.56916e-05
3.11888e-05
4.98945e-05
2.77489e-05
3.79984e-05
3.79935e-05
4.98647e-05
3.79843e-05
3.79792e-05
3.48537e-05
4.09297e-05
5.01265e-05
5.35603e-05
4.09164e-05
3.48837e-05
5.00978e-05
3.10222e-05
4.22412e-05
2.86342e-05
4.55524e-05
2.86091e-05
3.10565e-05
4.55668e-05
4.09395e-05
5.35658e-05
4.09281e-05
1.34821e-05
2.1836e-05
2.17967e-05
2.76425e-05
1.34878e-05
2.18478e-05
2.18031e-05
2.76563e-05
1.34941e-05
2.18647e-05
2.18108e-05
2.76716e-05
1.34998e-05
2.18792e-05
2.18095e-05
2.76683e-05
1.35042e-05
2.18885e-05
2.1805e-05
2.7663e-05
1.35077e-05
2.18947e-05
2.17954e-05
2.75282e-05
1.35108e-05
2.19025e-05
2.17863e-05
2.75439e-05
1.35137e-05
2.19115e-05
2.1778e-05
2.7518e-05
1.35157e-05
2.19168e-05
2.17748e-05
2.74945e-05
1.35171e-05
2.19211e-05
2.17741e-05
2.7408e-05
1.35183e-05
2.19252e-05
2.17738e-05
2.74079e-05
1.35195e-05
2.19304e-05
2.17752e-05
2.73488e-05
1.35203e-05
2.19341e-05
2.17801e-05
2.74251e-05
1.35203e-05
2.19342e-05
2.17889e-05
2.74973e-05
1.35197e-05
2.19329e-05
2.17988e-05
2.7558e-05
1.35178e-05
2.19351e-05
2.18085e-05
2.76043e-05
1.3515e-05
2.19393e-05
2.18126e-05
2.76367e-05
1.35119e-05
2.19434e-05
2.18128e-05
2.76552e-05
1.35085e-05
2.19453e-05
2.18139e-05
2.76717e-05
1.35054e-05
2.19474e-05
2.18172e-05
2.76925e-05
1.35028e-05
2.19506e-05
2.1816e-05
2.7708e-05
1.35009e-05
2.19527e-05
2.18181e-05
2.7728e-05
1.34993e-05
2.19539e-05
2.18235e-05
2.77432e-05