/*--------------------------------*- C++ -*----------------------------------*\
| =========                 |                                                 |
| \\      /  F ield         | OpenFOAM: The Open Source CFD Toolbox           |
|  \\    /   O peration     | Version:  v1906                                 |
|   \\  /    A nd           | Web:      www.OpenFOAM.com                      |
|    \\/     M anipulation  |                                                 |
\*---------------------------------------------------------------------------*/
FoamFile
{
    version     2.0;
    format      ascii;
    class       volScalarField;
    location    "150";
    object      nut;
}
// * * * * * * * * * * * * * * * * * * * * * * * * * * * * * * * * * * * * * //

dimensions      [0 2 -1 0 0 0 0];


internalField   nonuniform List<scalar> 
171728
(
9.66919e-05
9.65449e-05
9.65914e-05
9.67636e-05
9.6601e-05
9.65502e-05
9.67649e-05
9.6459e-05
9.66994e-05
9.65299e-05
9.66076e-05
9.66036e-05
0.000110423
0.00011049
0.000110434
0.000110447
2.3475e-05
2.34741e-05
6.77365e-05
6.77468e-05
8.17409e-05
4.9539e-05
8.17522e-05
8.1715e-05
4.95452e-05
4.95447e-05
8.17463e-05
9.20467e-05
8.03436e-05
0.000100755
0.000100769
9.21924e-05
9.21866e-05
9.66029e-05
8.03419e-05
0.000100768
8.03788e-05
0.000100782
9.2205e-05
2.34717e-05
2.34708e-05
9.67659e-05
6.76922e-05
6.77546e-05
6.76867e-05
6.77606e-05
2.3478e-05
2.34763e-05
4.9546e-05
8.17179e-05
8.04738e-05
0.000100762
9.22083e-05
4.95339e-05
8.17657e-05
0.000100737
8.03485e-05
9.22826e-05
9.19378e-05
9.66688e-05
8.04508e-05
0.000100742
8.03669e-05
0.000100723
9.21034e-05
8.1708e-05
4.95491e-05
4.95481e-05
8.1654e-05
9.21465e-05
9.64492e-05
0.000100653
8.02537e-05
0.000100671
8.02541e-05
9.1926e-05
8.16245e-05
4.95253e-05
4.9525e-05
8.16228e-05
2.3472e-05
6.77565e-05
6.77588e-05
2.3473e-05
9.20507e-05
0.000100728
8.04202e-05
0.000100711
9.19854e-05
9.23629e-05
9.65833e-05
0.000100762
8.04402e-05
0.000100782
8.04552e-05
9.2438e-05
8.17457e-05
4.95397e-05
8.18212e-05
8.18145e-05
4.9546e-05
4.95427e-05
8.18245e-05
9.65943e-05
6.77273e-05
6.77432e-05
6.77092e-05
6.77397e-05
2.34698e-05
2.34677e-05
2.34723e-05
2.34707e-05
2.34738e-05
2.34726e-05
8.59872e-05
9.17211e-05
6.77509e-05
4.73492e-05
4.73513e-05
9.17842e-05
8.60301e-05
8.60017e-05
9.18261e-05
6.77312e-05
4.73464e-05
4.73424e-05
9.17539e-05
8.60054e-05
7.50109e-05
2.1405e-05
2.14023e-05
2.14036e-05
2.14002e-05
7.50109e-05
3.60715e-05
4.02844e-05
8.00572e-05
8.1755e-05
3.60702e-05
4.02854e-05
8.00717e-05
2.00424e-05
4.95394e-05
7.23709e-05
7.23539e-05
2.00444e-05
3.60706e-05
8.17381e-05
4.02854e-05
8.00345e-05
4.02846e-05
8.00183e-05
3.60716e-05
3.60761e-05
4.02826e-05
8.01328e-05
8.17441e-05
3.60747e-05
4.02836e-05
8.01542e-05
2.00454e-05
4.95448e-05
7.24693e-05
7.24536e-05
2.00472e-05
2.00471e-05
7.2451e-05
4.95454e-05
2.00453e-05
7.2467e-05
3.60754e-05
8.17304e-05
4.02839e-05
8.0157e-05
4.0283e-05
8.01426e-05
3.60766e-05
2.34706e-05
2.3472e-05
7.50193e-05
2.14002e-05
2.14044e-05
7.50126e-05
2.1402e-05
2.14062e-05
8.60504e-05
9.17344e-05
6.76982e-05
4.73416e-05
9.17785e-05
4.73408e-05
8.60658e-05
8.60464e-05
9.18486e-05
6.77627e-05
4.73572e-05
4.73561e-05
9.17854e-05
8.60706e-05
8.60594e-05
4.73407e-05
9.17747e-05
6.7709e-05
9.17865e-05
8.60436e-05
4.73417e-05
8.60494e-05
4.73552e-05
9.17638e-05
6.77735e-05
8.59957e-05
4.73566e-05
9.18004e-05
7.50085e-05
2.1402e-05
2.14062e-05
2.14003e-05
2.14045e-05
7.50091e-05
2.34766e-05
2.34778e-05
2.0047e-05
4.95444e-05
7.24619e-05
7.24453e-05
2.00491e-05
3.60735e-05
8.16708e-05
8.01259e-05
4.02819e-05
8.00928e-05
4.02806e-05
3.60751e-05
2.00433e-05
4.95329e-05
7.23916e-05
7.23729e-05
2.00454e-05
3.6071e-05
8.17486e-05
4.02824e-05
8.01127e-05
4.0281e-05
8.00794e-05
3.60728e-05
3.60733e-05
8.00383e-05
4.02787e-05
8.1702e-05
3.60719e-05
8.00941e-05
4.02801e-05
2.00469e-05
4.95488e-05
7.2448e-05
7.24328e-05
2.00487e-05
2.00486e-05
7.24397e-05
4.95494e-05
2.00468e-05
7.24534e-05
3.60727e-05
8.16364e-05
8.0112e-05
4.02808e-05
8.00899e-05
4.02796e-05
3.60742e-05
3.60656e-05
4.0276e-05
8.00024e-05
8.16415e-05
3.60643e-05
4.02771e-05
8.00173e-05
2.00388e-05
4.95241e-05
7.23212e-05
7.23197e-05
2.00406e-05
2.00405e-05
7.23283e-05
4.95246e-05
2.00388e-05
7.23405e-05
3.60649e-05
8.16221e-05
4.02776e-05
8.00109e-05
4.02765e-05
7.99997e-05
3.60661e-05
2.34706e-05
8.61002e-05
9.17081e-05
6.77713e-05
4.73449e-05
9.17798e-05
4.73441e-05
8.61003e-05
8.60491e-05
9.17405e-05
6.77624e-05
4.73542e-05
4.73532e-05
9.18445e-05
8.60517e-05
7.50407e-05
2.1402e-05
2.1405e-05
2.14003e-05
2.14033e-05
7.50491e-05
2.34718e-05
3.60751e-05
8.01382e-05
4.02842e-05
8.17559e-05
3.60739e-05
8.01563e-05
4.02853e-05
2.00443e-05
4.95371e-05
7.24176e-05
7.24008e-05
2.00461e-05
2.00459e-05
7.24128e-05
3.60743e-05
8.17919e-05
8.01635e-05
4.02862e-05
8.01453e-05
4.0285e-05
3.60754e-05
3.60803e-05
8.01583e-05
4.02875e-05
8.18164e-05
3.60788e-05
8.01828e-05
4.02885e-05
2.00479e-05
4.95448e-05
7.2475e-05
7.24582e-05
2.00499e-05
2.00495e-05
7.24507e-05
4.95445e-05
2.00474e-05
7.24697e-05
3.60796e-05
8.17763e-05
8.01907e-05
4.02889e-05
8.01741e-05
4.02878e-05
3.60809e-05
7.50136e-05
2.14011e-05
2.13981e-05
7.50025e-05
2.14029e-05
2.13999e-05
8.60053e-05
9.17205e-05
6.7732e-05
4.73472e-05
9.16477e-05
4.73457e-05
8.60267e-05
8.59275e-05
9.16558e-05
6.77579e-05
4.73392e-05
9.16563e-05
4.7338e-05
8.60061e-05
8.60028e-05
4.73447e-05
9.15937e-05
6.77114e-05
8.59808e-05
9.16505e-05
4.7346e-05
8.59546e-05
4.73377e-05
9.15736e-05
6.7759e-05
8.59472e-05
9.16502e-05
4.73387e-05
7.50008e-05
2.14032e-05
2.14001e-05
2.14013e-05
2.13983e-05
7.5016e-05
2.34682e-05
2.34691e-05
2.3471e-05
2.34721e-05
9.62355e-05
9.67147e-05
9.69108e-05
9.69268e-05
9.69095e-05
9.69212e-05
9.61863e-05
9.64052e-05
9.67868e-05
9.69521e-05
9.7016e-05
9.69462e-05
9.70091e-05
9.63989e-05
9.61744e-05
9.66304e-05
9.69856e-05
9.6955e-05
9.69796e-05
9.69507e-05
9.62355e-05
9.62256e-05
9.66067e-05
9.68264e-05
9.68404e-05
9.68187e-05
9.68327e-05
9.62301e-05
0.000131934
0.000131951
0.000131914
0.000157181
0.000157161
0.000110469
0.000131953
0.000131963
0.000131939
0.000131951
0.000157178
0.000157162
0.000131968
0.000131956
0.000131938
0.000157172
0.000157154
0.000110449
0.000131987
0.000131952
0.000131954
0.000131935
0.000157177
0.00015716
9.37378e-05
9.19291e-05
9.34672e-05
9.21756e-05
9.37534e-05
9.19865e-05
9.34579e-05
9.37701e-05
9.37404e-05
8.0374e-05
8.77806e-05
9.37253e-05
8.78099e-05
9.37652e-05
9.37643e-05
9.20239e-05
9.17602e-05
9.34594e-05
9.17393e-05
9.34731e-05
9.37465e-05
9.3835e-05
9.20836e-05
9.34513e-05
9.22081e-05
9.38508e-05
9.2075e-05
9.34442e-05
9.38166e-05
9.37285e-05
8.0357e-05
8.7787e-05
8.78284e-05
9.37203e-05
9.38109e-05
9.38039e-05
8.77736e-05
9.37147e-05
8.04017e-05
9.3811e-05
8.7828e-05
9.37286e-05
9.38654e-05
9.21895e-05
9.19907e-05
9.34577e-05
9.20143e-05
9.347e-05
9.38492e-05
9.64069e-05
9.67415e-05
9.69334e-05
9.69949e-05
9.69468e-05
9.63845e-05
9.70086e-05
9.38928e-05
9.38008e-05
8.05009e-05
8.80032e-05
9.37851e-05
8.79339e-05
9.38887e-05
9.37954e-05
9.21949e-05
9.19657e-05
9.33388e-05
9.18627e-05
9.33422e-05
9.37876e-05
9.37871e-05
9.37514e-05
8.03708e-05
8.78904e-05
8.78468e-05
9.37384e-05
9.37818e-05
9.37523e-05
9.22439e-05
9.33213e-05
9.20387e-05
9.33265e-05
9.19533e-05
9.37454e-05
9.37302e-05
9.18597e-05
9.32416e-05
9.19618e-05
9.37419e-05
9.18807e-05
9.32379e-05
9.39139e-05
9.38762e-05
8.04351e-05
8.78718e-05
9.38586e-05
8.78208e-05
9.39098e-05
9.38907e-05
8.78408e-05
9.38386e-05
8.04214e-05
9.38927e-05
9.38602e-05
8.7909e-05
9.37773e-05
9.20272e-05
9.19736e-05
9.32642e-05
9.17587e-05
9.32714e-05
9.3767e-05
9.34458e-05
9.31468e-05
9.16908e-05
9.21301e-05
9.3457e-05
9.31447e-05
9.18209e-05
9.35197e-05
9.35832e-05
8.02802e-05
8.75401e-05
8.75226e-05
9.35694e-05
9.35153e-05
9.35039e-05
8.74644e-05
9.35587e-05
8.0218e-05
9.35124e-05
8.74088e-05
9.35738e-05
9.34856e-05
9.21034e-05
9.3166e-05
9.17837e-05
9.31785e-05
9.16727e-05
9.34728e-05
9.37091e-05
9.3397e-05
9.18743e-05
9.21528e-05
9.3726e-05
9.33909e-05
9.1856e-05
9.37638e-05
9.37251e-05
8.04442e-05
8.78747e-05
9.37135e-05
8.78607e-05
9.37601e-05
9.37411e-05
8.77409e-05
9.37515e-05
9.21136e-05
9.34064e-05
9.19071e-05
9.34201e-05
9.1733e-05
9.37386e-05
9.3911e-05
9.35054e-05
9.21755e-05
9.2424e-05
9.39217e-05
9.35049e-05
9.21185e-05
9.39118e-05
9.37544e-05
8.04777e-05
8.81317e-05
8.8097e-05
9.37399e-05
9.391e-05
9.38843e-05
8.80792e-05
9.37221e-05
8.04622e-05
9.38872e-05
8.79873e-05
9.37414e-05
9.39636e-05
9.24458e-05
9.35419e-05
9.22094e-05
9.35491e-05
9.22522e-05
9.39536e-05
9.61134e-05
9.65904e-05
9.68033e-05
9.68146e-05
9.62014e-05
9.68151e-05
9.68262e-05
0.000110437
9.70194e-05
9.66779e-05
9.7107e-05
9.71117e-05
9.7013e-05
9.69775e-05
9.66795e-05
9.67905e-05
9.66913e-05
9.67964e-05
9.73666e-05
9.73266e-05
9.67356e-05
9.67365e-05
9.67519e-05
9.67531e-05
9.67562e-05
9.70126e-05
9.67617e-05
9.69455e-05
9.69784e-05
9.68185e-05
9.67144e-05
9.68254e-05
9.70917e-05
9.67502e-05
9.68297e-05
8.17227e-05
4.95603e-05
4.9561e-05
8.17123e-05
2.34762e-05
2.34764e-05
8.17779e-05
4.95646e-05
4.95651e-05
8.17758e-05
0.000110465
0.000110473
0.000110485
0.000110443
0.000110484
0.00011048
0.000110498
9.27578e-05
8.10784e-05
0.000100913
9.70273e-05
8.10963e-05
0.000100939
9.2643e-05
2.34757e-05
2.34773e-05
9.29784e-05
0.000100918
8.05765e-05
9.67299e-05
0.000100939
8.05427e-05
9.28522e-05
6.78131e-05
6.7775e-05
9.7053e-05
6.78078e-05
6.77637e-05
6.77911e-05
6.77801e-05
2.34775e-05
2.34787e-05
2.34761e-05
2.34774e-05
6.78124e-05
6.78052e-05
9.70216e-05
6.78159e-05
6.78353e-05
2.34792e-05
2.34776e-05
2.34777e-05
2.34762e-05
9.69979e-05
6.78232e-05
6.78426e-05
6.78336e-05
6.7834e-05
8.17711e-05
4.9556e-05
4.95541e-05
8.17087e-05
9.22991e-05
8.06525e-05
0.00010075
9.66898e-05
8.07438e-05
0.000100756
9.22333e-05
9.23963e-05
8.03252e-05
0.000100778
9.68122e-05
8.03028e-05
0.000100828
9.22532e-05
8.16649e-05
4.95616e-05
4.95608e-05
8.1675e-05
8.17462e-05
4.95527e-05
4.95529e-05
8.17565e-05
9.2019e-05
9.66932e-05
8.07196e-05
0.000100751
8.07422e-05
0.000100756
9.18982e-05
9.21412e-05
9.67925e-05
8.04011e-05
0.000100795
8.03267e-05
0.000100805
9.23132e-05
6.77787e-05
6.79677e-05
9.73493e-05
6.77664e-05
6.79647e-05
2.34881e-05
2.34896e-05
2.34752e-05
2.34748e-05
9.73626e-05
6.77431e-05
6.79644e-05
6.77599e-05
6.79639e-05
2.34899e-05
2.34883e-05
9.25617e-05
8.06499e-05
0.000100826
9.67513e-05
8.07798e-05
0.000100919
9.26541e-05
8.17366e-05
4.95598e-05
4.95601e-05
8.17564e-05
9.25472e-05
0.000100821
8.0794e-05
9.67523e-05
0.000100926
8.08068e-05
9.25275e-05
8.17539e-05
4.95649e-05
4.95644e-05
8.17792e-05
9.26363e-05
9.67514e-05
8.07995e-05
0.000100841
8.07292e-05
0.000100845
9.24463e-05
8.1699e-05
4.95596e-05
4.95593e-05
8.17407e-05
9.24052e-05
9.67538e-05
0.000100828
8.0793e-05
0.000100831
8.078e-05
9.24125e-05
8.191e-05
4.95804e-05
4.95811e-05
8.19123e-05
9.24462e-05
0.000100776
8.04181e-05
9.67722e-05
0.000100814
8.04346e-05
9.24042e-05
8.18122e-05
4.95516e-05
4.95513e-05
8.17652e-05
9.27365e-05
9.70158e-05
8.10453e-05
0.000100925
8.10844e-05
0.000100928
9.27428e-05
8.18982e-05
4.95812e-05
4.95806e-05
8.18956e-05
9.24722e-05
9.67621e-05
0.000100803
8.04163e-05
0.000100812
8.04816e-05
9.23296e-05
8.1763e-05
4.95506e-05
4.95506e-05
8.1824e-05
6.77962e-05
6.77785e-05
9.69545e-05
6.78184e-05
6.77923e-05
2.3476e-05
2.34771e-05
2.34776e-05
2.3476e-05
9.69817e-05
6.78341e-05
6.77904e-05
6.78139e-05
6.77922e-05
2.34767e-05
2.34757e-05
9.2633e-05
0.000100948
8.04423e-05
9.68279e-05
0.000100958
8.04916e-05
9.29052e-05
8.20417e-05
4.95549e-05
4.95549e-05
8.20155e-05
8.20108e-05
4.95542e-05
4.95545e-05
8.20028e-05
9.29423e-05
9.66922e-05
0.000100931
8.05346e-05
0.000100929
8.0491e-05
9.27443e-05
9.28097e-05
9.68299e-05
0.000100951
8.04925e-05
0.000100956
8.04852e-05
9.27626e-05
8.19985e-05
4.95544e-05
4.95539e-05
8.20063e-05
8.19692e-05
4.95545e-05
4.9554e-05
8.20033e-05
2.34767e-05
2.34777e-05
2.34753e-05
2.34764e-05
9.71366e-05
6.78002e-05
6.77863e-05
6.78017e-05
6.77445e-05
2.34774e-05
2.34763e-05
2.34768e-05
2.34751e-05
0.000100816
8.04345e-05
9.24733e-05
4.95499e-05
8.18102e-05
8.04337e-05
4.9554e-05
2.34761e-05
2.34756e-05
3.60675e-05
4.02793e-05
8.00898e-05
8.17093e-05
4.02786e-05
8.00791e-05
3.60685e-05
2.00456e-05
4.9561e-05
7.24225e-05
7.24384e-05
2.00439e-05
2.00438e-05
7.24343e-05
4.95603e-05
7.24209e-05
2.00456e-05
3.60686e-05
8.17251e-05
4.0279e-05
8.00885e-05
4.02796e-05
8.00988e-05
3.60676e-05
2.34771e-05
2.34755e-05
3.6077e-05
8.02003e-05
4.0284e-05
8.17576e-05
8.0187e-05
4.02836e-05
3.60775e-05
2.00504e-05
4.95651e-05
7.2502e-05
7.25174e-05
2.00488e-05
2.00486e-05
7.25166e-05
4.95645e-05
7.25018e-05
2.00502e-05
3.60784e-05
8.18144e-05
8.01871e-05
4.02846e-05
8.02029e-05
4.02849e-05
3.60779e-05
2.34772e-05
2.34759e-05
7.50778e-05
2.14111e-05
2.14079e-05
2.14093e-05
2.14061e-05
7.50934e-05
8.61696e-05
9.19663e-05
6.78124e-05
4.7366e-05
9.1862e-05
4.7367e-05
8.61585e-05
8.61694e-05
9.19278e-05
6.77721e-05
4.73539e-05
9.18325e-05
4.73548e-05
8.61644e-05
8.61454e-05
4.73668e-05
6.78064e-05
9.18618e-05
9.19709e-05
4.73661e-05
8.61233e-05
8.61473e-05
4.73546e-05
6.77611e-05
9.17127e-05
9.16183e-05
4.73538e-05
8.61362e-05
7.50902e-05
2.1409e-05
2.14057e-05
2.14109e-05
2.14076e-05
7.50719e-05
8.61382e-05
9.1846e-05
4.73661e-05
6.78024e-05
8.61772e-05
9.18962e-05
4.73671e-05
8.62319e-05
9.18794e-05
4.73563e-05
6.77817e-05
8.62368e-05
9.18657e-05
4.73574e-05
7.50966e-05
2.141e-05
2.14069e-05
7.50915e-05
2.14118e-05
2.14086e-05
2.34788e-05
2.34775e-05
2.34773e-05
2.34761e-05
7.5092e-05
2.14092e-05
2.14057e-05
2.14074e-05
2.14039e-05
7.51036e-05
8.62348e-05
9.19098e-05
6.78222e-05
4.73639e-05
4.73652e-05
9.1941e-05
8.62256e-05
8.62574e-05
9.19343e-05
6.78179e-05
4.73521e-05
4.73532e-05
9.18911e-05
8.62331e-05
8.62318e-05
4.73652e-05
6.78113e-05
9.19632e-05
4.73644e-05
8.61978e-05
9.19372e-05
8.62595e-05
4.73539e-05
6.78202e-05
9.19389e-05
4.73526e-05
8.62778e-05
9.17857e-05
7.50988e-05
2.14072e-05
2.14037e-05
2.1409e-05
2.14055e-05
7.5084e-05
2.34779e-05
2.3479e-05
2.34764e-05
2.34776e-05
7.50942e-05
2.14076e-05
2.1404e-05
7.50855e-05
2.14093e-05
2.14058e-05
8.62079e-05
9.19189e-05
6.78279e-05
4.73658e-05
4.73651e-05
9.19404e-05
8.61755e-05
8.62148e-05
9.19456e-05
6.78407e-05
4.73545e-05
4.73537e-05
9.19397e-05
8.61894e-05
8.62132e-05
4.73647e-05
9.19218e-05
6.78285e-05
8.62132e-05
4.73659e-05
9.19432e-05
8.62205e-05
4.73533e-05
9.19281e-05
6.78466e-05
8.62698e-05
4.73544e-05
9.19658e-05
7.50854e-05
2.14094e-05
2.14059e-05
2.14077e-05
2.14041e-05
7.5096e-05
3.60795e-05
4.02835e-05
8.02212e-05
8.17388e-05
4.02826e-05
8.02088e-05
3.60803e-05
2.00497e-05
4.95559e-05
7.24546e-05
7.24689e-05
2.00482e-05
2.00477e-05
7.24684e-05
4.95544e-05
7.24536e-05
2.00492e-05
3.60808e-05
8.17058e-05
4.02828e-05
8.02072e-05
4.02834e-05
8.02232e-05
3.608e-05
3.60685e-05
4.02781e-05
8.00705e-05
8.16981e-05
3.60675e-05
4.02788e-05
8.00809e-05
2.00438e-05
4.95612e-05
7.24327e-05
2.00457e-05
7.24179e-05
2.00456e-05
7.24182e-05
4.95615e-05
2.00438e-05
7.24327e-05
3.60673e-05
8.16429e-05
4.02784e-05
8.00587e-05
3.60683e-05
4.02777e-05
8.00405e-05
3.60798e-05
4.02826e-05
8.02038e-05
8.17605e-05
3.6079e-05
4.02832e-05
8.02166e-05
2.0047e-05
4.95523e-05
7.24699e-05
7.24546e-05
2.00486e-05
2.00489e-05
7.24533e-05
4.95529e-05
2.00473e-05
7.24693e-05
3.60785e-05
8.17416e-05
4.02827e-05
8.02125e-05
4.02822e-05
8.02e-05
3.60793e-05
7.5117e-05
2.14087e-05
2.14145e-05
2.1407e-05
2.14128e-05
7.51266e-05
8.62739e-05
9.17857e-05
6.7765e-05
4.73567e-05
4.7357e-05
9.19228e-05
8.62466e-05
8.63286e-05
9.23452e-05
6.79742e-05
4.73846e-05
9.22516e-05
4.73853e-05
8.63503e-05
8.62542e-05
4.7356e-05
6.77641e-05
9.18986e-05
4.73557e-05
9.19039e-05
8.62017e-05
8.63131e-05
4.73851e-05
6.79716e-05
9.239e-05
9.23575e-05
4.73843e-05
8.63313e-05
7.51274e-05
2.14072e-05
2.14129e-05
2.14088e-05
2.14146e-05
7.51178e-05
2.34895e-05
2.34882e-05
2.34742e-05
2.34757e-05
7.51261e-05
2.14069e-05
2.14128e-05
7.51163e-05
2.14086e-05
2.14145e-05
8.62224e-05
9.1821e-05
6.77439e-05
4.7354e-05
9.19087e-05
4.73537e-05
8.62273e-05
8.63638e-05
9.24185e-05
6.7953e-05
4.73862e-05
4.7385e-05
9.24082e-05
8.63817e-05
8.62281e-05
4.73547e-05
9.19223e-05
6.775e-05
9.1949e-05
8.61983e-05
4.7355e-05
8.63608e-05
4.73844e-05
9.23599e-05
6.79816e-05
8.63464e-05
4.73855e-05
9.22999e-05
7.51159e-05
2.14086e-05
2.14146e-05
2.14069e-05
2.14128e-05
7.51258e-05
2.34885e-05
2.34897e-05
3.60679e-05
4.028e-05
8.01043e-05
8.17354e-05
4.028e-05
8.00947e-05
3.60685e-05
2.00467e-05
4.95603e-05
7.24584e-05
7.24732e-05
2.0045e-05
2.00448e-05
7.24723e-05
4.95595e-05
7.24575e-05
2.00465e-05
3.60694e-05
8.17642e-05
4.02814e-05
8.01149e-05
4.02814e-05
8.01246e-05
3.60689e-05
3.60766e-05
8.01701e-05
4.02826e-05
8.17593e-05
3.60761e-05
8.01797e-05
4.02829e-05
2.00481e-05
4.95642e-05
7.2514e-05
2.00497e-05
7.24997e-05
2.005e-05
7.25006e-05
4.95649e-05
2.00483e-05
7.25152e-05
3.60751e-05
8.17967e-05
8.01562e-05
4.02824e-05
3.60755e-05
8.01489e-05
4.0282e-05
3.60675e-05
4.02786e-05
8.00741e-05
8.17642e-05
3.6067e-05
4.02792e-05
8.00851e-05
2.00445e-05
4.95591e-05
7.24712e-05
7.24564e-05
2.00462e-05
2.00464e-05
7.24566e-05
4.95595e-05
2.00446e-05
7.24718e-05
3.60661e-05
8.17089e-05
4.02788e-05
8.00742e-05
4.02781e-05
8.00629e-05
3.60667e-05
3.60836e-05
8.03214e-05
4.0291e-05
8.18973e-05
8.03089e-05
4.02902e-05
3.60846e-05
2.00541e-05
4.9581e-05
7.2546e-05
7.25601e-05
2.00524e-05
2.00524e-05
7.25586e-05
4.95805e-05
7.25447e-05
2.00541e-05
3.60846e-05
8.19263e-05
8.0312e-05
4.029e-05
8.03254e-05
4.02909e-05
3.60835e-05
3.60708e-05
4.02842e-05
8.01651e-05
8.18073e-05
4.02828e-05
8.01523e-05
3.60721e-05
2.00469e-05
4.9552e-05
7.24539e-05
7.24674e-05
2.00452e-05
2.00451e-05
7.24639e-05
4.95513e-05
7.24511e-05
2.00468e-05
3.60715e-05
8.17703e-05
4.02821e-05
8.01437e-05
4.02831e-05
8.0164e-05
3.60702e-05
3.60847e-05
8.03033e-05
4.02903e-05
8.18951e-05
3.60837e-05
8.03136e-05
4.0291e-05
2.00524e-05
4.95807e-05
7.25484e-05
7.25368e-05
2.00541e-05
2.00541e-05
7.25425e-05
4.95812e-05
2.00524e-05
7.25551e-05
3.60836e-05
8.1842e-05
8.02846e-05
4.02907e-05
8.02648e-05
4.02899e-05
3.60847e-05
3.60724e-05
4.02836e-05
8.0119e-05
8.18065e-05
3.60712e-05
4.02847e-05
8.01434e-05
2.00449e-05
4.95505e-05
7.24603e-05
7.24459e-05
2.00466e-05
2.00467e-05
7.24476e-05
4.95512e-05
2.0045e-05
7.24607e-05
3.60715e-05
8.1791e-05
4.02852e-05
8.01427e-05
4.02842e-05
8.01274e-05
3.60726e-05
7.50648e-05
2.1406e-05
2.14091e-05
2.14042e-05
2.14074e-05
7.50766e-05
8.60824e-05
9.18106e-05
6.7819e-05
4.73516e-05
4.73526e-05
9.17347e-05
8.6068e-05
8.60517e-05
9.18856e-05
6.77971e-05
4.73628e-05
9.18485e-05
4.73635e-05
8.60526e-05
8.60606e-05
4.73532e-05
6.78259e-05
9.18989e-05
4.73519e-05
9.18505e-05
8.6136e-05
8.61089e-05
4.7364e-05
6.77934e-05
9.18623e-05
9.18369e-05
4.73628e-05
8.61425e-05
7.50736e-05
2.14042e-05
2.14075e-05
2.14059e-05
2.14091e-05
7.50627e-05
2.34773e-05
2.3476e-05
2.34761e-05
2.34773e-05
7.50782e-05
2.14043e-05
2.14074e-05
7.50678e-05
2.1406e-05
2.14091e-05
8.61103e-05
9.18e-05
6.78302e-05
4.73542e-05
9.18338e-05
4.73527e-05
8.61805e-05
8.61512e-05
9.18559e-05
6.77844e-05
4.73639e-05
4.73631e-05
9.19169e-05
8.6164e-05
8.61281e-05
4.73525e-05
9.1839e-05
6.78106e-05
9.18054e-05
8.61163e-05
4.73533e-05
8.61597e-05
4.73632e-05
9.18111e-05
6.77814e-05
8.61405e-05
4.7364e-05
9.18516e-05
7.50683e-05
2.14061e-05
2.1409e-05
2.14043e-05
2.14073e-05
7.50783e-05
2.34755e-05
2.34769e-05
3.60826e-05
8.02843e-05
4.02994e-05
8.20104e-05
8.02384e-05
4.02984e-05
3.60837e-05
2.00493e-05
4.95554e-05
7.24907e-05
7.25037e-05
2.00476e-05
2.00476e-05
7.25019e-05
4.95548e-05
7.24881e-05
2.00492e-05
3.60839e-05
8.20615e-05
8.02515e-05
4.02983e-05
8.02726e-05
4.02992e-05
3.6083e-05
3.60843e-05
8.0242e-05
4.02993e-05
8.19635e-05
8.02381e-05
4.02984e-05
3.60852e-05
2.00508e-05
4.95547e-05
7.24748e-05
7.249e-05
2.0049e-05
2.00489e-05
7.24902e-05
4.95539e-05
7.2475e-05
2.00507e-05
3.60854e-05
8.20062e-05
8.0244e-05
4.02984e-05
8.02586e-05
4.02993e-05
3.60845e-05
3.6084e-05
8.02756e-05
4.02985e-05
8.20411e-05
3.60828e-05
8.02936e-05
4.02995e-05
2.00474e-05
4.9554e-05
7.24995e-05
7.24858e-05
2.00491e-05
2.00492e-05
7.24867e-05
4.95546e-05
2.00475e-05
7.25013e-05
3.6083e-05
8.19826e-05
8.02792e-05
4.02996e-05
8.02518e-05
4.02987e-05
3.60841e-05
3.60856e-05
8.02533e-05
4.02985e-05
8.20118e-05
3.60843e-05
8.02765e-05
4.02995e-05
2.00489e-05
4.95539e-05
7.24925e-05
7.24775e-05
2.00508e-05
2.00508e-05
7.2476e-05
4.95547e-05
2.00489e-05
7.24924e-05
3.60847e-05
8.19892e-05
8.0287e-05
4.02996e-05
8.02678e-05
4.02988e-05
3.6086e-05
2.34779e-05
2.34765e-05
2.34765e-05
2.34752e-05
7.50995e-05
2.14095e-05
2.14064e-05
7.50878e-05
2.14114e-05
2.14082e-05
8.6136e-05
9.18779e-05
6.77845e-05
4.73666e-05
8.61265e-05
9.18467e-05
4.73658e-05
8.62213e-05
9.1863e-05
6.77726e-05
4.73567e-05
8.62429e-05
9.18058e-05
4.73553e-05
8.61573e-05
4.73659e-05
9.19778e-05
6.7791e-05
8.61467e-05
9.18856e-05
4.73668e-05
8.62214e-05
4.7354e-05
9.17205e-05
6.77751e-05
8.61896e-05
9.16823e-05
4.73555e-05
7.50905e-05
2.14116e-05
2.14085e-05
7.51008e-05
2.14098e-05
2.14066e-05
2.34761e-05
2.34775e-05
2.34754e-05
2.34765e-05
2.00466e-05
7.24458e-05
4.95503e-05
2.00449e-05
7.24602e-05
3.60726e-05
8.18283e-05
4.02848e-05
8.01191e-05
3.60717e-05
4.02859e-05
8.01184e-05
4.95547e-05
2.34775e-05
2.3477e-05
0.000131941
0.000131906
0.000110452
0.000131951
0.000131918
0.000157161
0.000157148
9.67582e-05
9.73161e-05
9.73057e-05
9.70478e-05
9.73277e-05
9.73183e-05
9.67616e-05
9.6847e-05
9.73507e-05
9.7351e-05
9.71179e-05
9.68469e-05
9.73661e-05
9.73679e-05
9.71903e-05
9.73233e-05
9.73513e-05
9.70151e-05
9.73326e-05
9.7359e-05
9.71807e-05
9.71889e-05
9.70219e-05
9.73394e-05
9.73635e-05
9.7336e-05
9.7361e-05
9.71968e-05
9.73703e-05
9.75398e-05
9.77716e-05
9.73521e-05
9.77733e-05
9.75397e-05
9.73661e-05
9.73551e-05
9.73477e-05
9.75129e-05
9.77707e-05
9.75153e-05
9.77648e-05
9.73677e-05
9.64127e-05
9.71679e-05
9.71601e-05
9.69346e-05
9.71714e-05
9.71741e-05
9.64487e-05
9.67012e-05
9.69885e-05
9.72426e-05
9.72329e-05
9.72357e-05
9.72239e-05
9.66879e-05
9.68047e-05
9.71062e-05
9.7352e-05
9.73417e-05
9.67305e-05
9.73475e-05
9.7336e-05
0.000131913
0.000131932
0.000110494
0.000131926
0.000131934
0.000157152
0.000157147
0.000131921
0.00013195
0.000110477
0.000131934
0.00013195
0.000157156
0.000157151
0.000131964
0.000131943
0.000110499
0.000131964
0.000131944
0.000157155
0.000157154
0.000110432
0.000131955
0.000131917
0.000131954
0.000131915
0.000157161
0.000157159
0.000110486
0.000131918
0.000131931
0.000131925
0.000131931
0.000157145
0.000157161
0.000110478
0.00013193
0.000131951
0.000131937
0.000131951
0.000157147
0.00015715
0.000110497
0.000131957
0.000131944
0.000131966
0.000131945
0.000157154
0.000157155
9.44181e-05
9.27486e-05
9.3902e-05
9.27297e-05
9.27234e-05
9.39164e-05
9.44085e-05
9.4476e-05
9.4449e-05
8.10933e-05
8.84761e-05
9.44577e-05
8.85332e-05
9.44834e-05
9.44889e-05
8.85481e-05
8.10823e-05
9.44556e-05
9.44473e-05
8.85121e-05
9.44813e-05
9.43976e-05
9.2691e-05
9.27149e-05
9.39044e-05
9.28236e-05
9.39018e-05
9.44143e-05
9.42461e-05
9.4127e-05
9.24365e-05
9.29889e-05
9.41388e-05
9.23376e-05
9.42345e-05
9.40017e-05
9.38826e-05
8.05978e-05
8.79968e-05
9.3895e-05
8.80502e-05
9.40007e-05
9.39943e-05
8.80445e-05
8.05662e-05
9.38924e-05
9.38842e-05
8.80359e-05
9.39914e-05
9.42307e-05
9.27861e-05
9.41221e-05
9.23995e-05
9.41153e-05
9.24887e-05
9.42575e-05
9.67778e-05
9.71256e-05
9.73325e-05
9.73177e-05
9.73284e-05
9.73141e-05
9.67918e-05
9.71894e-05
9.70216e-05
9.73331e-05
9.73576e-05
9.71987e-05
9.73288e-05
9.73521e-05
9.71984e-05
9.70204e-05
9.73358e-05
9.73615e-05
9.71915e-05
9.73401e-05
9.73662e-05
9.37682e-05
9.19183e-05
9.3409e-05
9.22728e-05
9.18332e-05
9.34304e-05
9.37448e-05
9.39241e-05
9.39074e-05
8.07037e-05
8.81142e-05
8.80884e-05
9.39214e-05
9.39369e-05
9.39477e-05
8.81166e-05
8.06638e-05
9.39265e-05
8.80869e-05
9.39142e-05
9.39235e-05
9.37563e-05
9.23883e-05
9.19399e-05
9.34253e-05
9.17444e-05
9.34178e-05
9.37888e-05
9.4117e-05
9.21172e-05
9.35479e-05
9.20637e-05
9.23157e-05
9.35578e-05
9.40875e-05
9.40663e-05
9.39428e-05
8.02787e-05
8.78286e-05
8.79541e-05
9.39359e-05
9.40947e-05
9.40694e-05
8.79302e-05
8.03038e-05
9.39081e-05
8.7949e-05
9.40407e-05
9.39151e-05
9.41027e-05
9.21759e-05
9.23048e-05
9.35543e-05
9.246e-05
9.3548e-05
9.41336e-05
9.37391e-05
9.18618e-05
9.34208e-05
9.20704e-05
9.37604e-05
9.17713e-05
9.3399e-05
9.39323e-05
9.39377e-05
8.07546e-05
8.80582e-05
9.39283e-05
8.79438e-05
9.39299e-05
9.392e-05
8.79735e-05
9.39246e-05
8.07671e-05
9.39356e-05
9.39415e-05
8.79913e-05
9.37742e-05
9.21098e-05
9.19421e-05
9.33849e-05
9.19479e-05
9.34089e-05
9.37574e-05
9.40619e-05
9.21075e-05
9.35681e-05
9.22382e-05
9.41007e-05
9.21832e-05
9.35517e-05
9.4026e-05
9.38805e-05
8.04057e-05
8.79748e-05
8.79201e-05
9.38796e-05
9.401e-05
9.40218e-05
8.78766e-05
9.38953e-05
8.03287e-05
9.40425e-05
8.80183e-05
9.38961e-05
9.40829e-05
9.22807e-05
9.21167e-05
9.35413e-05
9.21619e-05
9.35634e-05
9.40508e-05
9.73641e-05
9.73667e-05
9.7526e-05
9.77676e-05
9.77652e-05
9.75319e-05
9.73674e-05
9.73637e-05
9.73394e-05
9.75257e-05
9.77678e-05
9.7524e-05
9.73573e-05
9.77681e-05
9.41998e-05
9.24629e-05
9.38162e-05
9.27223e-05
9.24327e-05
9.38627e-05
9.41659e-05
9.415e-05
9.39943e-05
8.07258e-05
8.82972e-05
8.83831e-05
9.40036e-05
9.416e-05
9.41502e-05
8.82705e-05
8.07472e-05
9.40022e-05
8.82597e-05
9.39923e-05
9.4141e-05
9.41887e-05
9.28063e-05
9.24381e-05
9.38946e-05
9.2495e-05
9.38591e-05
9.42306e-05
9.4072e-05
9.37526e-05
9.20625e-05
9.23386e-05
9.38005e-05
9.20583e-05
9.40281e-05
9.40708e-05
9.39855e-05
8.07893e-05
8.81819e-05
8.81934e-05
9.39921e-05
9.40885e-05
9.40746e-05
8.81896e-05
8.07949e-05
9.39915e-05
8.81843e-05
9.4057e-05
9.39825e-05
9.4065e-05
9.25431e-05
9.38417e-05
9.22021e-05
9.38011e-05
9.19745e-05
9.41187e-05
9.41293e-05
9.22683e-05
9.38227e-05
9.26847e-05
9.41743e-05
9.23168e-05
9.37864e-05
9.41296e-05
9.40035e-05
8.07232e-05
8.82382e-05
9.39956e-05
8.82798e-05
9.41213e-05
9.41293e-05
8.82251e-05
9.39975e-05
8.07751e-05
9.40065e-05
9.41386e-05
8.81776e-05
9.41434e-05
9.25793e-05
9.20458e-05
9.37434e-05
9.22064e-05
9.37903e-05
9.40959e-05
9.3985e-05
9.37567e-05
9.19094e-05
9.23631e-05
9.40329e-05
9.37062e-05
9.21191e-05
9.40466e-05
9.39991e-05
8.08135e-05
8.81278e-05
8.81541e-05
9.39894e-05
9.40358e-05
9.40459e-05
8.82101e-05
9.39877e-05
8.07525e-05
9.40594e-05
8.82704e-05
9.39961e-05
9.39989e-05
9.23758e-05
9.36583e-05
9.2071e-05
9.37061e-05
9.20446e-05
9.39569e-05
9.38449e-05
9.3587e-05
9.18784e-05
9.2461e-05
9.35973e-05
9.20777e-05
9.38294e-05
9.38964e-05
9.38897e-05
8.04757e-05
8.789e-05
9.38957e-05
8.79539e-05
9.3915e-05
9.38996e-05
8.78445e-05
8.04701e-05
9.38873e-05
9.38832e-05
8.7839e-05
9.38786e-05
9.38269e-05
9.22741e-05
9.35734e-05
9.20854e-05
9.35662e-05
9.21918e-05
9.38512e-05
9.44038e-05
9.25365e-05
9.39176e-05
9.27572e-05
9.4428e-05
9.25961e-05
9.39033e-05
9.44965e-05
9.4458e-05
8.10821e-05
8.8454e-05
9.44752e-05
9.445e-05
8.83974e-05
9.44746e-05
8.84824e-05
9.44494e-05
8.10973e-05
9.4491e-05
9.44577e-05
8.83809e-05
9.44252e-05
9.27252e-05
9.2567e-05
9.38946e-05
9.44001e-05
9.25206e-05
9.39154e-05
9.38146e-05
9.36146e-05
9.19582e-05
9.25641e-05
9.38415e-05
9.36039e-05
9.2037e-05
9.38695e-05
9.38739e-05
8.04655e-05
8.78725e-05
8.78554e-05
9.38714e-05
9.38598e-05
9.38632e-05
8.78093e-05
9.38824e-05
8.04785e-05
9.38813e-05
8.77431e-05
9.38868e-05
9.38329e-05
9.22822e-05
9.36004e-05
9.21921e-05
9.36159e-05
9.19135e-05
9.38175e-05
9.66038e-05
9.69645e-05
9.71979e-05
9.71925e-05
9.7182e-05
9.7188e-05
9.66561e-05
9.66789e-05
9.69699e-05
9.72151e-05
9.72056e-05
9.72219e-05
9.65578e-05
9.72149e-05
9.43466e-05
9.4107e-05
9.27305e-05
9.27031e-05
9.41251e-05
9.26585e-05
9.43354e-05
9.40821e-05
9.39009e-05
8.04515e-05
8.80072e-05
9.39089e-05
8.80514e-05
9.40983e-05
9.4089e-05
8.79404e-05
8.0466e-05
9.38997e-05
9.38934e-05
8.80006e-05
9.40706e-05
9.43273e-05
9.26504e-05
9.41324e-05
9.2591e-05
9.41155e-05
9.25893e-05
9.43442e-05
9.42187e-05
9.41458e-05
9.24104e-05
9.29447e-05
9.42499e-05
9.41295e-05
9.25161e-05
9.39993e-05
9.39022e-05
8.0547e-05
8.81308e-05
9.39981e-05
9.38913e-05
8.80128e-05
9.3994e-05
8.79712e-05
9.38862e-05
8.05692e-05
9.39904e-05
9.38968e-05
8.81113e-05
9.42354e-05
9.28507e-05
9.4118e-05
9.23761e-05
9.42094e-05
9.414e-05
9.2263e-05
9.43328e-05
9.41344e-05
9.26889e-05
9.28735e-05
9.43541e-05
9.41241e-05
9.24822e-05
9.40716e-05
9.3904e-05
8.04321e-05
8.80271e-05
8.79818e-05
9.38924e-05
9.40726e-05
9.40668e-05
8.80321e-05
9.38934e-05
8.04986e-05
9.40788e-05
8.80901e-05
9.39012e-05
9.4361e-05
9.28561e-05
9.41279e-05
9.25907e-05
9.41435e-05
9.25397e-05
9.43441e-05
9.68132e-05
9.70696e-05
9.73409e-05
9.73227e-05
9.66809e-05
9.7347e-05
9.7326e-05
9.38462e-05
9.38646e-05
8.78709e-05
8.04381e-05
9.38695e-05
9.38675e-05
8.77928e-05
9.38226e-05
9.23067e-05
9.36237e-05
9.21665e-05
9.36109e-05
9.38383e-05
9.2287e-05
9.39021e-05
8.04525e-05
9.39123e-05
0.000110404
9.66196e-05
9.65063e-05
9.65594e-05
0.000110374
9.6677e-05
9.65397e-05
9.66697e-05
0.000110397
9.67663e-05
9.65954e-05
9.67489e-05
0.000110447
9.68102e-05
9.65867e-05
9.673e-05
0.000110454
9.68392e-05
9.65663e-05
9.67355e-05
0.000110469
9.68529e-05
9.65054e-05
9.58949e-05
0.000110472
9.68609e-05
9.64662e-05
9.60946e-05
0.000110469
9.68868e-05
9.64143e-05
9.59462e-05
0.00011048
9.68845e-05
9.64132e-05
9.58565e-05
0.000110485
9.68873e-05
9.64274e-05
9.53405e-05
0.000110493
9.68931e-05
9.64321e-05
9.54149e-05
0.000110492
9.69101e-05
9.64355e-05
9.50005e-05
0.000110509
9.69246e-05
9.64442e-05
9.55601e-05
0.000110504
9.69217e-05
9.6483e-05
9.59868e-05
0.000110507
9.6912e-05
9.65333e-05
9.62755e-05
0.000110482
9.69174e-05
9.65869e-05
9.64689e-05
0.000110465
9.69282e-05
9.66122e-05
9.6599e-05
0.000110451
9.69574e-05
9.66024e-05
9.6677e-05
0.00011043
9.69597e-05
9.66005e-05
9.67379e-05
0.000110437
9.69698e-05
9.66158e-05
9.67651e-05
0.000110431
9.69881e-05
9.66042e-05
9.67992e-05
0.000110433
9.70027e-05
9.65988e-05
9.68829e-05
0.000110444
9.70091e-05
9.66147e-05
9.69295e-05