/*--------------------------------*- C++ -*----------------------------------*\
| =========                 |                                                 |
| \\      /  F ield         | OpenFOAM: The Open Source CFD Toolbox           |
|  \\    /   O peration     | Version:  v1906                                 |
|   \\  /    A nd           | Web:      www.OpenFOAM.com                      |
|    \\/     M anipulation  |                                                 |
\*---------------------------------------------------------------------------*/
FoamFile
{
    version     2.0;
    format      ascii;
    class       volScalarField;
    location    "50";
    object      epsilon;
}
// * * * * * * * * * * * * * * * * * * * * * * * * * * * * * * * * * * * * * //

dimensions      [0 2 -3 0 0 0 0];


internalField   nonuniform List<scalar> 
42840
(
2.00477e-07
2.36592e-07
2.36529e-07
2.78853e-07
2.78983e-07
2.78945e-07
2.78549e-07
2.36528e-07
2.36607e-07
2.36537e-07
2.36618e-07
2.78999e-07
2.78657e-07
2.36569e-07
2.36707e-07
2.36557e-07
2.3667e-07
2.36585e-07
2.36596e-07
2.36602e-07
2.79012e-07
2.78659e-07
2.36543e-07
2.36514e-07
2.36546e-07
2.78623e-07
2.36614e-07
2.36557e-07
2.02121e-06
8.67294e-06
8.67305e-06
2.02229e-06
1.9707e-05
1.9709e-05
2.01379e-06
8.67483e-06
8.67439e-06
2.01617e-06
2.00483e-07
2.00483e-07
2.00474e-07
2.00475e-07
2.00491e-07
2.00488e-07
2.0048e-07
5.46674e-07
1.63143e-06
2.1308e-07
2.36593e-07
1.63025e-06
2.13115e-07
5.46782e-07
1.97477e-05
1.97481e-05
5.46767e-07
2.13048e-07
1.63089e-06
2.36553e-07
2.13054e-07
1.62943e-06
5.47012e-07
3.69029e-06
3.69942e-06
2.78526e-07
3.68961e-06
3.69969e-06
3.69229e-06
3.69943e-06
1.9707e-05
1.97082e-05
1.97099e-05
1.97106e-05
3.69014e-06
3.69366e-06
2.78537e-07
3.68567e-06
3.69295e-06
1.97109e-05
1.97078e-05
1.9711e-05
1.97099e-05
2.78891e-07
3.69089e-06
3.69134e-06
3.68633e-06
3.69393e-06
2.02096e-06
8.67203e-06
8.67227e-06
2.0221e-06
5.46922e-07
1.6303e-06
2.12976e-07
2.36534e-07
1.62907e-06
2.12996e-07
5.47103e-07
5.46967e-07
1.63071e-06
2.13037e-07
2.36622e-07
1.62955e-06
2.13047e-07
5.4728e-07
2.02208e-06
8.67421e-06
8.67374e-06
2.02113e-06
2.02176e-06
8.67412e-06
8.67295e-06
2.02046e-06
5.47172e-07
2.36527e-07
1.62928e-06
2.12999e-07
1.63014e-06
2.12998e-07
5.46978e-07
5.47175e-07
2.36625e-07
1.62973e-06
2.13028e-07
1.63066e-06
2.13032e-07
5.46846e-07
3.68853e-06
3.68948e-06
2.78684e-07
3.68958e-06
3.68939e-06
1.97101e-05
1.97112e-05
1.97099e-05
1.97083e-05
2.79032e-07
3.69014e-06
3.69005e-06
3.69107e-06
3.68695e-06
1.97128e-05
1.97109e-05
5.46322e-07
1.63149e-06
2.13028e-07
2.36577e-07
1.63016e-06
2.13032e-07
5.466e-07
2.01988e-06
8.70396e-06
8.70222e-06
2.02085e-06
5.46969e-07
2.13058e-07
1.63878e-06
2.36712e-07
2.13072e-07
1.63753e-06
5.47055e-07
2.01422e-06
8.67658e-06
8.67564e-06
2.01315e-06
5.46535e-07
2.36574e-07
1.63014e-06
2.13039e-07
1.63125e-06
2.13039e-07
5.46328e-07
2.02069e-06
8.7017e-06
8.70245e-06
2.01987e-06
5.47241e-07
2.36711e-07
2.13068e-07
1.63732e-06
2.13071e-07
1.63863e-06
5.47047e-07
2.01962e-06
8.6823e-06
8.67862e-06
2.01942e-06
5.46532e-07
2.13037e-07
1.63133e-06
2.36608e-07
2.13053e-07
1.63016e-06
5.46696e-07
2.01995e-06
8.67997e-06
8.67844e-06
2.02096e-06
5.46947e-07
2.36594e-07
1.63042e-06
2.13103e-07
1.6314e-06
2.13106e-07
5.46731e-07
2.0207e-06
8.67662e-06
8.67886e-06
2.01994e-06
5.46796e-07
2.36598e-07
2.1305e-07
1.63012e-06
2.1304e-07
1.63124e-06
5.46679e-07
2.0208e-06
8.67716e-06
8.67825e-06
2.01969e-06
3.7383e-06
3.6923e-06
2.78655e-07
3.73663e-06
3.69008e-06
1.97083e-05
1.9708e-05
1.9747e-05
1.97471e-05
2.79014e-07
3.73148e-06
3.68698e-06
3.73728e-06
3.69063e-06
1.97059e-05
1.97069e-05
5.46233e-07
2.13013e-07
1.63303e-06
2.36557e-07
2.13033e-07
1.63166e-06
5.4654e-07
2.01923e-06
8.67084e-06
8.67113e-06
2.0201e-06
2.0152e-06
8.68211e-06
8.6811e-06
2.01682e-06
5.46969e-07
2.36524e-07
2.13047e-07
1.62905e-06
2.13051e-07
1.63042e-06
5.46659e-07
5.46475e-07
2.36556e-07
2.13027e-07
1.63142e-06
2.13034e-07
1.6327e-06
5.46264e-07
2.02015e-06
8.67314e-06
8.67275e-06
2.01944e-06
2.01585e-06
8.68002e-06
8.68108e-06
2.01482e-06
1.97121e-05
1.97132e-05
1.97193e-05
1.97211e-05
2.78907e-07
3.69086e-06
3.69626e-06
3.69071e-06
3.70119e-06
1.97128e-05
1.97123e-05
1.97217e-05
1.97208e-05
2.13103e-07
1.63114e-06
5.46907e-07
8.67895e-06
2.02044e-06
1.63241e-06
8.68006e-06
1.97122e-05
1.97209e-05
1.33259e-05
1.22096e-05
2.53259e-06
2.02218e-06
1.22099e-05
2.53349e-06
1.33258e-05
2.27577e-05
8.67203e-06
5.32538e-06
5.3195e-06
2.27527e-05
2.27561e-05
5.3194e-06
8.6739e-06
5.32548e-06
2.27612e-05
1.33256e-05
2.0212e-06
1.22099e-05
2.53334e-06
1.22096e-05
2.53218e-06
1.33257e-05
1.97079e-05
1.97077e-05
1.33293e-05
2.51793e-06
1.22087e-05
2.01527e-06
2.51885e-06
1.2209e-05
1.33261e-05
2.27543e-05
8.67431e-06
5.32572e-06
5.32413e-06
2.27488e-05
2.27538e-05
5.32799e-06
8.67471e-06
5.32122e-06
2.27596e-05
1.33241e-05
2.01473e-06
2.51926e-06
1.2209e-05
2.51777e-06
1.22087e-05
1.33242e-05
1.97485e-05
1.97473e-05
7.09567e-06
2.20363e-05
2.20374e-05
2.20317e-05
2.20327e-05
7.0868e-06
2.05382e-06
8.51235e-07
3.68933e-06
8.76826e-06
8.50759e-07
8.76803e-06
2.05523e-06
2.05682e-06
8.52938e-07
3.69874e-06
8.77493e-06
8.52464e-07
8.77464e-06
2.05822e-06
2.05492e-06
8.7681e-06
3.69089e-06
8.50883e-07
8.51267e-07
8.76841e-06
2.05383e-06
2.05788e-06
8.77489e-06
3.69992e-06
8.5262e-07
8.52956e-07
8.77497e-06
2.0568e-06
7.07473e-06
2.20307e-05
2.20318e-05
2.20332e-05
2.20343e-05
7.08998e-06
2.05524e-06
8.51555e-07
8.76906e-06
3.68593e-06
2.05621e-06
8.51056e-07
8.76888e-06
2.05818e-06
8.53408e-07
8.77597e-06
3.69877e-06
2.05913e-06
8.53006e-07
8.776e-06
7.1162e-06
2.20393e-05
2.20405e-05
7.11413e-06
2.20428e-05
2.2044e-05
1.9708e-05
1.97074e-05
1.97105e-05
1.97098e-05
7.0964e-06
2.20426e-05
2.20431e-05
2.20378e-05
2.20383e-05
7.08762e-06
2.05503e-06
8.51436e-07
3.68408e-06
8.76939e-06
8.76907e-06
8.50909e-07
2.0563e-06
2.05796e-06
8.5238e-07
3.69249e-06
8.77394e-06
8.77361e-06
8.5185e-07
2.05924e-06
2.05602e-06
8.76897e-06
3.68777e-06
8.5089e-07
8.76931e-06
2.05496e-06
8.51334e-07
2.05892e-06
8.77365e-06
3.69386e-06
8.51839e-07
8.7739e-06
2.05785e-06
8.52283e-07
7.08324e-06
2.20371e-05
2.20376e-05
2.20403e-05
2.20408e-05
7.09383e-06
1.97093e-05
1.97091e-05
1.97101e-05
1.97108e-05
7.09947e-06
2.20409e-05
2.20414e-05
7.09714e-06
2.20447e-05
2.20451e-05
2.05666e-06
8.50913e-07
3.68956e-06
8.77013e-06
8.77028e-06
8.51264e-07
2.05526e-06
2.05948e-06
8.51664e-07
3.6904e-06
8.77387e-06
8.7741e-06
8.52097e-07
2.05806e-06
2.05533e-06
8.77148e-06
8.51188e-07
3.68074e-06
2.0564e-06
8.76998e-06
8.5075e-07
2.05818e-06
8.77397e-06
8.52124e-07
3.693e-06
2.05925e-06
8.77377e-06
8.51679e-07
7.10065e-06
2.2044e-05
2.20444e-05
2.20416e-05
2.2042e-05
7.09517e-06
1.33262e-05
1.22096e-05
2.53004e-06
2.02199e-06
1.22099e-05
2.53249e-06
1.33259e-05
2.27444e-05
8.67145e-06
5.32432e-06
5.32231e-06
2.27411e-05
2.27439e-05
5.3171e-06
8.67244e-06
5.32627e-06
2.27487e-05
1.33261e-05
2.02104e-06
1.221e-05
2.53337e-06
1.22097e-05
2.53177e-06
1.33262e-05
1.3326e-05
1.22099e-05
2.53376e-06
2.02111e-06
1.33261e-05
1.22095e-05
2.5329e-06
2.27618e-05
8.67528e-06
5.32636e-06
2.27657e-05
5.33734e-06
2.27639e-05
5.33624e-06
8.67343e-06
2.27599e-05
5.33707e-06
1.33262e-05
2.0221e-06
1.22096e-05
2.53335e-06
1.33261e-05
1.22098e-05
2.53426e-06
1.33277e-05
1.22099e-05
2.53013e-06
2.02069e-06
1.33281e-05
1.22095e-05
2.52636e-06
2.27521e-05
8.67355e-06
5.33594e-06
5.33536e-06
2.27544e-05
2.27536e-05
5.32681e-06
8.67295e-06
2.27485e-05
5.32059e-06
1.33306e-05
2.0216e-06
1.22096e-05
2.51687e-06
1.22098e-05
2.5257e-06
1.33307e-05
7.11932e-06
2.20489e-05
2.20493e-05
2.20444e-05
2.20448e-05
7.11961e-06
2.05853e-06
8.5162e-07
3.6825e-06
8.77224e-06
8.772e-06
8.51145e-07
2.05946e-06
2.056e-06
8.5166e-07
3.68838e-06
8.76957e-06
8.51169e-07
8.76934e-06
2.05693e-06
2.05976e-06
8.77245e-06
3.68909e-06
8.51407e-07
8.77256e-06
8.51705e-07
2.05888e-06
2.05721e-06
8.76962e-06
3.68957e-06
8.51246e-07
8.51635e-07
8.7697e-06
2.05632e-06
7.11506e-06
2.20432e-05
2.20436e-05
2.2047e-05
2.20475e-05
7.1119e-06
1.9711e-05
1.971e-05
1.9709e-05
1.97094e-05
7.10567e-06
2.20457e-05
2.20463e-05
7.12033e-06
2.2048e-05
2.20485e-05
2.06045e-06
8.5189e-07
3.6891e-06
8.77294e-06
8.52167e-07
8.77316e-06
2.05892e-06
2.05782e-06
8.5136e-07
3.68823e-06
8.77126e-06
8.77152e-06
8.51712e-07
2.05628e-06
2.05914e-06
8.77281e-06
8.51842e-07
3.691e-06
8.51561e-07
2.06033e-06
8.77269e-06
2.05655e-06
8.77248e-06
8.51591e-07
3.68904e-06
2.05775e-06
8.77105e-06
8.51204e-07
7.10931e-06
2.20465e-05
2.20471e-05
2.20442e-05
2.20448e-05
7.09722e-06
1.97117e-05
1.97119e-05
1.33337e-05
1.22096e-05
2.5451e-06
2.0208e-06
1.22099e-05
2.54637e-06
1.33335e-05
2.28665e-05
8.70305e-06
5.42582e-06
5.41832e-06
2.28656e-05
2.28612e-05
5.40881e-06
8.70311e-06
5.41878e-06
2.28619e-05
1.33336e-05
2.01986e-06
1.22099e-05
2.54671e-06
1.22096e-05
2.54533e-06
1.33337e-05
1.333e-05
2.51905e-06
1.2209e-05
2.01301e-06
1.33276e-05
2.51795e-06
1.22086e-05
2.27672e-05
8.67652e-06
5.33919e-06
2.27722e-05
5.34075e-06
2.27665e-05
5.32585e-06
8.67557e-06
2.27605e-05
5.33239e-06
1.33349e-05
2.01404e-06
2.51801e-06
1.22088e-05
1.33289e-05
2.519e-06
1.2209e-05
1.33333e-05
1.22099e-05
2.54573e-06
2.0198e-06
1.33335e-05
1.22097e-05
2.54439e-06
2.28479e-05
8.70159e-06
5.3923e-06
5.39658e-06
2.28487e-05
2.28544e-05
5.39316e-06
8.70147e-06
2.28546e-05
5.39292e-06
1.33334e-05
2.02076e-06
1.22098e-05
2.54401e-06
1.221e-05
2.54533e-06
1.33331e-05
1.33309e-05
2.53486e-06
1.22096e-05
2.02029e-06
2.53613e-06
1.22099e-05
1.33321e-05
2.27673e-05
8.67977e-06
5.33853e-06
5.33459e-06
2.27678e-05
2.27586e-05
5.33243e-06
8.67955e-06
5.33554e-06
2.27588e-05
1.33319e-05
2.01888e-06
2.53665e-06
1.22096e-05
2.53524e-06
1.22095e-05
1.33304e-05
1.33351e-05
1.22092e-05
2.53393e-06
2.02093e-06
1.22096e-05
2.53509e-06
1.33354e-05
2.27603e-05
8.67929e-06
5.33444e-06
5.33368e-06
2.2759e-05
2.27562e-05
5.33226e-06
8.67957e-06
5.33433e-06
2.2758e-05
1.33322e-05
2.01992e-06
1.22095e-05
2.53545e-06
1.22093e-05
2.5341e-06
1.33312e-05
1.33319e-05
2.53547e-06
1.22099e-05
2.01984e-06
1.3331e-05
2.53423e-06
1.22097e-05
2.27505e-05
8.67808e-06
5.33008e-06
5.33226e-06
2.27525e-05
2.2754e-05
5.33196e-06
8.6787e-06
2.27523e-05
5.33021e-06
1.33343e-05
2.02089e-06
2.53403e-06
1.22096e-05
2.5352e-06
1.22099e-05
1.33366e-05
1.33311e-05
1.22095e-05
2.53471e-06
2.01977e-06
1.33378e-05
1.22091e-05
2.53354e-06
2.27539e-05
8.67766e-06
5.33399e-06
5.33632e-06
2.2756e-05
2.27572e-05
5.33638e-06
8.6774e-06
2.27548e-05
5.33337e-06
1.33337e-05
2.02071e-06
1.22091e-05
2.53346e-06
1.22094e-05
2.53456e-06
1.3335e-05
7.11954e-06
2.20615e-05
2.2057e-05
2.20576e-05
2.20532e-05
7.12941e-06
2.06021e-06
8.56936e-07
3.73708e-06
8.78677e-06
8.78657e-06
8.56423e-07
2.06105e-06
2.0572e-06
8.51692e-07
3.69068e-06
8.76998e-06
8.51171e-07
8.76963e-06
2.05803e-06
2.06153e-06
8.78663e-06
3.73767e-06
8.56446e-07
8.78682e-06
8.56876e-07
2.06063e-06
2.05852e-06
8.76953e-06
3.6914e-06
8.51136e-07
8.51596e-07
8.76985e-06
2.05763e-06
7.12288e-06
2.20542e-05
2.20498e-05
2.20593e-05
2.20549e-05
7.11976e-06
1.97087e-05
1.97076e-05
1.97465e-05
1.97475e-05
7.13779e-06
2.20583e-05
2.20538e-05
7.13702e-06
2.20611e-05
2.20565e-05
2.06262e-06
8.56211e-07
3.73592e-06
8.78767e-06
8.56734e-07
8.78788e-06
2.06093e-06
2.05965e-06
8.50858e-07
3.68907e-06
8.76877e-06
8.76932e-06
8.51351e-07
2.05795e-06
2.06121e-06
8.78695e-06
8.56759e-07
3.73502e-06
8.56284e-07
2.06222e-06
8.78652e-06
2.05823e-06
8.76971e-06
8.51412e-07
3.68905e-06
2.05923e-06
8.76928e-06
8.50947e-07
7.13887e-06
2.20561e-05
2.20514e-05
2.20569e-05
2.20523e-05
7.11915e-06
1.97055e-05
1.97072e-05
1.33347e-05
2.52392e-06
1.22088e-05
2.02016e-06
2.52435e-06
1.22091e-05
1.33274e-05
2.27345e-05
8.67033e-06
5.31314e-06
5.31144e-06
2.27302e-05
2.2735e-05
5.31445e-06
8.67136e-06
5.31596e-06
2.27411e-05
1.33323e-05
2.0191e-06
2.52122e-06
1.22093e-05
2.52182e-06
1.22089e-05
1.33344e-05
1.33359e-05
2.51569e-06
1.22099e-05
2.01631e-06
2.51689e-06
1.22102e-05
1.33362e-05
2.27564e-05
8.68191e-06
5.33112e-06
5.33151e-06
2.27537e-05
2.27524e-05
5.32794e-06
8.68221e-06
5.33533e-06
2.27547e-05
1.33419e-05
2.01556e-06
2.51712e-06
1.22104e-05
2.51578e-06
1.22101e-05
1.33383e-05
1.33254e-05
2.5262e-06
1.2209e-05
2.01923e-06
1.33314e-05
2.52588e-06
1.22087e-05
2.275e-05
8.67388e-06
5.33151e-06
5.3283e-06
2.27563e-05
2.27493e-05
5.31594e-06
8.67206e-06
2.27404e-05
5.31264e-06
1.33306e-05
2.0203e-06
2.52812e-06
1.22107e-05
2.52819e-06
1.22103e-05
1.33266e-05
1.33351e-05
2.51729e-06
1.22102e-05
2.01486e-06
1.33407e-05
2.51682e-06
1.22099e-05
2.27515e-05
8.6811e-06
5.32467e-06
5.33447e-06
2.27545e-05
2.27549e-05
5.32297e-06
8.68079e-06
2.27516e-05
5.32894e-06
1.33336e-05
2.01576e-06
2.51785e-06
1.22099e-05
2.51851e-06
1.22101e-05
1.33385e-05
1.97133e-05
1.97126e-05
1.97204e-05
1.97198e-05
7.09716e-06
2.20355e-05
2.20366e-05
7.10137e-06
2.20402e-05
2.20413e-05
2.05582e-06
8.51028e-07
3.69134e-06
8.76863e-06
2.05463e-06
8.51382e-07
8.76871e-06
2.05875e-06
8.5285e-07
3.6971e-06
8.77558e-06
2.05757e-06
8.53188e-07
8.77571e-06
2.05435e-06
8.7685e-06
8.51245e-07
3.6897e-06
2.05537e-06
8.50863e-07
8.76829e-06
2.0573e-06
8.77544e-06
8.5303e-07
3.69485e-06
2.05831e-06
8.5266e-07
8.77524e-06
7.09492e-06
2.20413e-05
2.20425e-05
7.10125e-06
2.20382e-05
2.20393e-05
1.97119e-05
1.97129e-05
1.97209e-05
1.97215e-05
2.27568e-05
5.33555e-06
8.67799e-06
2.27533e-05
5.33464e-06
1.33323e-05
2.01934e-06
1.22093e-05
2.53417e-06
1.33379e-05
1.22089e-05
2.53316e-06
8.67941e-06
1.9713e-05
1.97223e-05
1.93059e-07
1.93066e-07
2.0048e-07
1.9307e-07
1.9307e-07
1.89249e-07
1.8925e-07
6.84988e-07
3.85096e-07
3.8531e-07
2.78528e-07
3.84823e-07
3.85039e-07
6.85475e-07
6.85296e-07
3.85353e-07
3.85466e-07
2.7868e-07
6.85701e-07
3.85091e-07
3.85204e-07
6.85902e-07
3.85251e-07
3.85439e-07
2.78593e-07
3.84976e-07
3.85134e-07
6.86355e-07
6.86403e-07
2.78872e-07
3.85043e-07
3.84998e-07
3.85291e-07
3.8529e-07
6.85837e-07
6.85965e-07
3.85509e-07
3.85368e-07
2.78672e-07
3.85088e-07
3.85256e-07
6.86404e-07
6.86591e-07
2.78992e-07
3.853e-07
3.85149e-07
3.85561e-07
3.85401e-07
6.86032e-07
6.8614e-07
3.85913e-07
3.85333e-07
2.78657e-07
3.85059e-07
3.85621e-07
6.86598e-07
6.86717e-07
2.79018e-07
3.85549e-07
3.85076e-07
3.85791e-07
3.85329e-07
6.86161e-07
6.85611e-07
2.78944e-07
3.85078e-07
3.8519e-07
6.85113e-07
3.85302e-07
3.85425e-07
1.93067e-07
1.93073e-07
2.00491e-07
1.93078e-07
1.93083e-07
1.89251e-07
1.89254e-07
1.93059e-07
1.93069e-07
2.00491e-07
1.93076e-07
1.93074e-07
1.8925e-07
1.89249e-07
1.93065e-07
1.93066e-07
2.00475e-07
1.9307e-07
1.9307e-07
1.8925e-07
1.89251e-07
2.00478e-07
1.93063e-07
1.93072e-07
1.93068e-07
1.93073e-07
1.89249e-07
1.89248e-07
2.00492e-07
1.9307e-07
1.93082e-07
1.93061e-07
1.93083e-07
1.89254e-07
1.89253e-07
2.00492e-07
1.93079e-07
1.93071e-07
1.93078e-07
1.93076e-07
1.89255e-07
1.89249e-07
2.0048e-07
1.93076e-07
1.93068e-07
1.93075e-07
1.93072e-07
1.89251e-07
1.89244e-07
3.21373e-07
6.37347e-07
3.0061e-07
5.46905e-07
6.37708e-07
3.00867e-07
3.2105e-07
3.85873e-07
5.13166e-07
1.63015e-06
9.80157e-07
5.12719e-07
9.79018e-07
3.86298e-07
3.86254e-07
9.78521e-07
1.63139e-06
5.12719e-07
5.13148e-07
9.7947e-07
3.85839e-07
3.20973e-07
5.46579e-07
6.37753e-07
3.00883e-07
6.37334e-07
3.00659e-07
3.21302e-07
3.20971e-07
3.00507e-07
6.35645e-07
5.47018e-07
3.00776e-07
6.35918e-07
3.20638e-07
3.85173e-07
5.12998e-07
1.62955e-06
9.7557e-07
5.1251e-07
9.74761e-07
3.85661e-07
3.85595e-07
9.7497e-07
1.63065e-06
5.12455e-07
5.1291e-07
9.75542e-07
3.8504e-07
3.20613e-07
5.46742e-07
3.00845e-07
6.35862e-07
3.00581e-07
6.3549e-07
3.20949e-07
6.8537e-07
2.78878e-07
3.84899e-07
3.85098e-07
3.85115e-07
3.85331e-07
6.84923e-07
6.86309e-07
2.78926e-07
3.84967e-07
3.85093e-07
6.85854e-07
3.85225e-07
3.85375e-07
6.85893e-07
2.78534e-07
3.85234e-07
3.85324e-07
6.86376e-07
3.85003e-07
3.85039e-07
3.20786e-07
6.36169e-07
3.00595e-07
5.47159e-07
6.3646e-07
3.00257e-07
3.20475e-07
3.85253e-07
5.12782e-07
1.62904e-06
9.76524e-07
9.75821e-07
5.12307e-07
3.85791e-07
3.85844e-07
9.76115e-07
1.63022e-06
5.12237e-07
9.76612e-07
5.12702e-07
3.8532e-07
3.20412e-07
5.46855e-07
6.36395e-07
3.00226e-07
6.3604e-07
3.00023e-07
3.20744e-07
3.21034e-07
6.36328e-07
3.00693e-07
5.47252e-07
6.36766e-07
3.00949e-07
3.20658e-07
3.85429e-07
5.12937e-07
1.62944e-06
9.76801e-07
9.7597e-07
5.12502e-07
3.85911e-07
3.85857e-07
9.76069e-07
1.63066e-06
5.12522e-07
9.76728e-07
3.85272e-07
5.12943e-07
3.20713e-07
5.46993e-07
6.36905e-07
3.00368e-07
6.36451e-07
3.00684e-07
3.21109e-07
3.20547e-07
6.36522e-07
3.00929e-07
5.46927e-07
3.20861e-07
6.36242e-07
3.00707e-07
3.85923e-07
5.12214e-07
1.63031e-06
9.76995e-07
5.12625e-07
9.77457e-07
3.85506e-07
3.85389e-07
9.7694e-07
5.12612e-07
1.62902e-06
5.1219e-07
3.85803e-07
9.76503e-07
3.20915e-07
5.47212e-07
6.36414e-07
3.0068e-07
6.36693e-07
3.00923e-07
3.20583e-07
3.2056e-07
6.36558e-07
3.0089e-07
5.46909e-07
3.2098e-07
6.36065e-07
3.00576e-07
3.85719e-07
5.12593e-07
1.63082e-06
9.76459e-07
9.7706e-07
5.13016e-07
3.85299e-07
3.85308e-07
9.76754e-07
5.12955e-07
1.62955e-06
3.85737e-07
9.76176e-07
5.12559e-07
3.20892e-07
5.47133e-07
6.35668e-07
3.00466e-07
6.36313e-07
3.00764e-07
3.20511e-07
6.86392e-07
2.79006e-07
3.85298e-07
3.85109e-07
3.85357e-07
3.85556e-07
6.85963e-07
6.86061e-07
2.78662e-07
3.85552e-07
3.8536e-07
3.85291e-07
6.8652e-07
3.85111e-07
3.20902e-07
6.35237e-07
3.001e-07
5.46586e-07
6.35552e-07
3.00307e-07
3.20568e-07
3.85477e-07
5.13087e-07
1.63018e-06
9.77726e-07
9.76993e-07
5.12618e-07
3.85981e-07
3.85967e-07
9.77145e-07
1.63137e-06
5.1259e-07
9.77723e-07
5.13027e-07
3.85444e-07
3.20533e-07
5.46316e-07
6.3557e-07
3.00271e-07
6.35165e-07
3.00077e-07
3.2089e-07
3.21623e-07
3.00744e-07
6.39446e-07
5.47162e-07
3.0098e-07
6.39825e-07
3.21281e-07
3.8732e-07
5.1455e-07
1.6375e-06
9.90885e-07
9.89933e-07
5.14106e-07
3.8777e-07
3.87693e-07
9.89579e-07
1.63873e-06
5.14111e-07
9.90503e-07
3.87282e-07
5.14542e-07
3.2126e-07
5.46837e-07
3.00331e-07
6.39868e-07
3.00677e-07
6.3946e-07
3.21623e-07
3.20589e-07
6.35556e-07
3.00345e-07
5.46261e-07
3.20936e-07
6.35223e-07
3.00129e-07
3.86024e-07
5.12491e-07
1.6313e-06
9.77877e-07
5.12935e-07
9.78354e-07
3.8549e-07
3.85534e-07
9.77867e-07
5.1298e-07
1.63006e-06
5.12531e-07
3.85974e-07
9.7737e-07
3.20968e-07
5.46548e-07
6.35315e-07
3.0015e-07
6.35632e-07
3.00388e-07
3.20593e-07
3.21282e-07
3.00928e-07
6.39702e-07
5.47009e-07
3.21618e-07
3.00661e-07
6.393e-07
3.87627e-07
5.14074e-07
1.6386e-06
9.88176e-07
9.89196e-07
5.14502e-07
3.87119e-07
3.87176e-07
9.89868e-07
5.14511e-07
1.63738e-06
3.87693e-07
9.88757e-07
5.1408e-07
3.21661e-07
5.47291e-07
3.00638e-07
6.392e-07
3.00873e-07
6.39625e-07
3.2129e-07
3.21119e-07
3.00749e-07
6.36567e-07
5.46764e-07
3.00995e-07
6.36928e-07
3.20803e-07
3.858e-07
5.12855e-07
1.63011e-06
9.78786e-07
5.12439e-07
9.77876e-07
3.86189e-07
3.86183e-07
9.77679e-07
1.63132e-06
5.12501e-07
5.12902e-07
9.78472e-07
3.85753e-07
3.20751e-07
5.4646e-07
3.0031e-07
6.36955e-07
3.00704e-07
6.36559e-07
3.21087e-07
3.21093e-07
6.3764e-07
3.00823e-07
5.46704e-07
3.21433e-07
6.37283e-07
3.0059e-07
3.86302e-07
5.12787e-07
1.63153e-06
9.77771e-07
3.85888e-07
5.13176e-07
9.78584e-07
3.85835e-07
9.78862e-07
5.13108e-07
1.63026e-06
3.86247e-07
5.12714e-07
9.77983e-07
3.21456e-07
5.46988e-07
6.37272e-07
3.00579e-07
3.21128e-07
6.37651e-07
3.00793e-07
3.20837e-07
3.00947e-07
6.36889e-07
5.46604e-07
3.21168e-07
3.0067e-07
6.3659e-07
3.86103e-07
5.12589e-07
1.63126e-06
9.77366e-07
9.78113e-07
5.12964e-07
3.85571e-07
3.85669e-07
9.78185e-07
5.12911e-07
1.63006e-06
3.86154e-07
9.77446e-07
5.12511e-07
3.21203e-07
5.46915e-07
3.00626e-07
6.36701e-07
3.00873e-07
6.37019e-07
3.20866e-07
6.86535e-07
2.78989e-07
3.85577e-07
3.85096e-07
3.85336e-07
3.85876e-07
6.8609e-07
6.8618e-07
2.78671e-07
3.858e-07
3.8535e-07
3.8552e-07
6.86629e-07
3.85079e-07
3.20964e-07
3.00626e-07
6.35083e-07
5.46498e-07
3.00877e-07
6.35454e-07
3.20603e-07
3.85717e-07
5.13309e-07
1.63172e-06
9.79142e-07
5.12847e-07
9.78289e-07
3.86242e-07
3.86138e-07
9.78043e-07
1.63285e-06
5.12813e-07
5.13268e-07
9.78879e-07
3.85608e-07
3.20635e-07
5.46261e-07
3.00276e-07
6.35632e-07
3.00624e-07
6.35132e-07
3.20987e-07
3.20632e-07
3.00702e-07
6.36056e-07
5.46689e-07
3.20965e-07
3.0044e-07
6.35794e-07
3.85412e-07
5.12241e-07
1.63029e-06
9.75776e-07
3.84973e-07
5.12722e-07
9.76149e-07
3.84988e-07
9.75658e-07
5.12827e-07
1.62918e-06
3.85512e-07
5.12351e-07
9.75176e-07
3.20967e-07
5.46932e-07
3.00402e-07
6.36073e-07
3.20614e-07
3.00644e-07
6.36313e-07
3.20544e-07
3.0082e-07
6.35416e-07
5.46207e-07
3.20917e-07
3.00538e-07
6.35117e-07
3.85929e-07
5.12783e-07
1.63262e-06
9.77618e-07
9.78413e-07
5.13178e-07
3.85399e-07
3.85451e-07
9.78515e-07
5.13183e-07
1.63146e-06
3.86051e-07
9.77746e-07
5.12758e-07
3.20864e-07
5.46493e-07
3.00475e-07
6.35227e-07
3.00728e-07
6.3554e-07
3.2052e-07
6.85041e-07
2.78567e-07
3.85203e-07
3.85372e-07
6.85469e-07
3.84991e-07
3.85133e-07
3.85546e-07
5.13035e-07
9.77866e-07
1.63e-06
5.12646e-07
3.86105e-07
9.77214e-07
3.20902e-07
5.46633e-07
3.00847e-07
6.37017e-07
3.00593e-07
3.21251e-07
6.36666e-07
5.13204e-07
1.63129e-06
5.12816e-07
2.00482e-07
2.36618e-07
2.36534e-07
2.78966e-07
2.00457e-07
2.36543e-07
2.36542e-07
2.78972e-07
2.00452e-07
2.36559e-07
2.36568e-07
2.78964e-07
2.0047e-07
2.36559e-07
2.36584e-07
2.78931e-07
2.00457e-07
2.36561e-07
2.36589e-07
2.78974e-07
2.00479e-07
2.36566e-07
2.36578e-07
2.79452e-07
2.0048e-07
2.36579e-07
2.36559e-07
2.79348e-07
2.00482e-07
2.36621e-07
2.36558e-07
2.79767e-07
2.00498e-07
2.36633e-07
2.36575e-07
2.79554e-07
2.00546e-07
2.36588e-07
2.36599e-07
2.79395e-07
2.00507e-07
2.36554e-07
2.36647e-07
2.79273e-07
2.00486e-07
2.36553e-07
2.36607e-07
2.79608e-07
2.00487e-07
2.36595e-07
2.36607e-07
2.79263e-07
2.00493e-07
2.36605e-07
2.36609e-07
2.79089e-07
2.00478e-07
2.36593e-07
2.36627e-07
2.79093e-07
2.00473e-07
2.36585e-07
2.36623e-07
2.79046e-07
2.00474e-07
2.3661e-07
2.36618e-07
2.79505e-07
2.00474e-07
2.36617e-07
2.36632e-07
2.79326e-07
2.00475e-07
2.36613e-07
2.36647e-07
2.79141e-07
2.00472e-07
2.36579e-07
2.36656e-07
2.79038e-07
2.00486e-07
2.36543e-07
2.36646e-07
2.78887e-07
2.00482e-07
2.36523e-07
2.36608e-07
2.78864e-07
2.00485e-07
2.36547e-07
2.36576e-07
2.78995e-07
2.00478e-07
2.36574e-07
2.36579e-07
2.79017e-07
2.0048e-07
2.36588e-07
2.36582e-07
2.7897e-07
2.78919e-07
2.78594e-07
2.36587e-07
2.36512e-07
2.36574e-07
2.36576e-07
2.79061e-07
2.7862e-07
2.36552e-07
2.36646e-07
2.36547e-07
2.36664e-07
2.36588e-07
2.36555e-07
2.36588e-07
2.79018e-07
2.78668e-07
2.36558e-07
2.36541e-07
2.3657e-07
2.78627e-07
2.78949e-07
2.7862e-07
2.36573e-07
2.36578e-07
2.36592e-07
2.36579e-07
2.78955e-07
2.78647e-07
2.36552e-07
2.36694e-07
2.36538e-07
2.36723e-07
2.366e-07
2.3656e-07
2.36608e-07
2.79034e-07
2.78753e-07
2.36573e-07
2.36561e-07
2.36566e-07
2.78615e-07
2.7896e-07
2.78519e-07
2.36594e-07
2.36584e-07
2.36575e-07
2.36558e-07
2.79006e-07
2.78622e-07
2.36554e-07
2.36735e-07
2.3656e-07
2.36704e-07
2.36642e-07
2.3656e-07
2.36622e-07
2.79098e-07
2.78697e-07
2.36563e-07
2.36588e-07
2.36557e-07
2.78599e-07
2.78847e-07
2.7855e-07
2.36589e-07
2.36597e-07
2.36586e-07
2.36585e-07
2.78987e-07
2.78585e-07
2.36562e-07
2.367e-07
2.36563e-07
2.36665e-07
2.36641e-07
2.36566e-07
2.36613e-07
2.79029e-07
2.78724e-07
2.36559e-07
2.36595e-07
2.36564e-07
2.78646e-07
2.78925e-07
2.78664e-07
2.36607e-07
2.3659e-07
2.36596e-07
2.36639e-07
2.78941e-07
2.78626e-07
2.36585e-07
2.36657e-07
2.36586e-07
2.36604e-07
2.36629e-07
2.36565e-07
2.36639e-07
2.79071e-07
2.78691e-07
2.36567e-07
2.36592e-07
2.36577e-07
2.79125e-07
2.79017e-07
2.7862e-07
2.36595e-07
2.3665e-07
2.36596e-07
2.36645e-07
2.78982e-07
2.78673e-07
2.36609e-07
2.36617e-07
2.36625e-07
2.36589e-07
2.36642e-07
2.36564e-07
2.36648e-07
2.79015e-07
2.78585e-07
2.36586e-07
2.36571e-07
2.36613e-07
2.79006e-07
2.78939e-07
2.78618e-07
2.36624e-07
2.36657e-07
2.36624e-07
2.36638e-07
2.78999e-07
2.78717e-07
2.36653e-07
2.36605e-07
2.36648e-07
2.36594e-07
2.3665e-07
2.36619e-07
2.36685e-07
2.78951e-07
2.78613e-07
2.36627e-07
2.36556e-07
2.36674e-07
2.7945e-07
2.78996e-07
2.78734e-07
2.36628e-07
2.36647e-07
2.36664e-07
2.36618e-07
2.7906e-07
2.78699e-07
2.36651e-07
2.36596e-07
2.36658e-07
2.36603e-07
2.36715e-07
2.36633e-07
2.36745e-07
2.7898e-07
2.78677e-07
2.36689e-07
2.36577e-07
2.36722e-07
2.79225e-07
2.79077e-07
2.78756e-07
2.36676e-07
2.36646e-07
2.36656e-07
2.36635e-07
2.79092e-07
2.78735e-07
2.36661e-07
2.36609e-07
2.36649e-07
2.36632e-07
2.3679e-07
2.3662e-07
2.36744e-07
2.79018e-07
2.7871e-07
2.36706e-07
2.36586e-07
2.3667e-07
2.79067e-07
2.79085e-07
2.78762e-07
2.36666e-07
2.36633e-07
2.36632e-07
2.36625e-07
2.79087e-07
2.78703e-07
2.36666e-07
2.36671e-07
2.36635e-07
2.36656e-07
2.36746e-07
2.3657e-07
2.36734e-07
2.79078e-07
2.78848e-07
2.36729e-07
2.36647e-07
2.36673e-07
2.78962e-07
2.79092e-07
2.78722e-07
2.36636e-07
2.3663e-07
2.36597e-07
2.36632e-07
2.79058e-07
2.78785e-07
2.36634e-07
2.36654e-07
2.36594e-07
2.36653e-07
2.36743e-07
2.3655e-07
2.36707e-07
2.79196e-07
2.7877e-07
2.36697e-07
2.3663e-07
2.36657e-07
2.79298e-07
2.79053e-07
2.78659e-07
2.36602e-07
2.36638e-07
2.36617e-07
2.36646e-07
2.7916e-07
2.78888e-07
2.36607e-07
2.36662e-07
2.36576e-07
2.36662e-07
2.36732e-07
2.36586e-07
2.36679e-07
2.7909e-07
2.78747e-07
2.36692e-07
2.3659e-07
2.36636e-07
2.78949e-07
2.7902e-07
2.78746e-07
2.36628e-07
2.36648e-07
2.36617e-07
2.36621e-07
2.7922e-07
2.78704e-07
2.36581e-07
2.36669e-07
2.36569e-07
2.36699e-07
2.36685e-07
2.36608e-07
2.36652e-07
2.7913e-07
2.78905e-07
2.36638e-07
2.36611e-07
2.36622e-07
2.78744e-07
2.79088e-07
2.7866e-07
2.36614e-07
2.36639e-07
2.36579e-07
2.3664e-07
2.79079e-07
2.78711e-07
2.36577e-07
2.36702e-07
2.36581e-07
2.36696e-07
2.36658e-07
2.36607e-07
2.36609e-07
2.79236e-07
2.78864e-07
2.36642e-07
2.36625e-07
2.36628e-07
2.78774e-07
2.78983e-07
2.78608e-07
2.36582e-07
2.36651e-07
2.36541e-07
2.36647e-07
2.79067e-07
2.78773e-07
2.36586e-07
2.36704e-07
2.36554e-07
2.36681e-07
2.36625e-07
2.36589e-07
2.36571e-07
2.79188e-07
2.78776e-07
2.36628e-07
2.36626e-07
2.36616e-07
2.78701e-07
2.78955e-07
2.78573e-07
2.36553e-07
2.36644e-07
2.36518e-07
2.36613e-07
2.79116e-07
2.78742e-07
2.36572e-07
2.36687e-07
2.36561e-07
2.36657e-07
2.3658e-07
2.36601e-07
2.36569e-07
2.79109e-07
2.78733e-07
2.36615e-07
2.36619e-07
2.36618e-07
2.7917e-07
2.78893e-07
2.786e-07
2.36515e-07
2.3663e-07
2.3653e-07
2.36575e-07
2.79072e-07
2.7865e-07
2.36563e-07
2.36675e-07
2.36567e-07
2.36676e-07
2.36569e-07
2.36619e-07
2.36591e-07
2.79084e-07
2.78814e-07
2.36654e-07
2.36632e-07
2.3665e-07
2.79001e-07
2.78964e-07
2.78597e-07
2.36538e-07
2.36594e-07
2.3658e-07
2.36579e-07
2.78986e-07
2.78699e-07
2.36564e-07
2.36674e-07
2.36539e-07
2.36697e-07
2.36613e-07
2.36619e-07
2.36614e-07
2.79145e-07
2.78738e-07
2.3665e-07
2.36644e-07
2.36625e-07
2.78821e-07
2.78937e-07
2.78595e-07
2.36595e-07
2.36579e-07
2.36597e-07
2.36604e-07
2.79034e-07
2.78748e-07
2.36539e-07
2.36703e-07
2.36542e-07
2.36729e-07
2.36609e-07
2.36603e-07
2.36602e-07
2.79096e-07
2.78809e-07
2.36625e-07
2.36655e-07
2.36595e-07
2.78704e-07
2.78933e-07
2.78577e-07
2.36603e-07
2.36611e-07
2.3657e-07
2.36628e-07
2.79088e-07
2.78682e-07
2.36593e-07
2.36737e-07
2.36612e-07
2.36764e-07
2.36598e-07
2.36561e-07
2.36576e-07
2.79162e-07
2.78847e-07
2.36597e-07
2.36654e-07
2.36591e-07
2.78569e-07
2.78957e-07
2.78591e-07
2.366e-07
2.36633e-07
2.36557e-07
2.36595e-07
2.7905e-07
2.78669e-07
2.36616e-07
2.36772e-07
2.36634e-07
2.36748e-07
2.36583e-07
2.36526e-07
2.36586e-07
2.79228e-07
2.78874e-07
2.36592e-07
2.36631e-07
2.36607e-07
2.7851e-07
2.78972e-07
2.78651e-07
2.36566e-07
2.36603e-07
2.36568e-07
2.36589e-07
2.79005e-07
2.78624e-07
2.36637e-07
2.36751e-07
2.36626e-07
2.36708e-07
2.36588e-07
2.36548e-07
2.36575e-07
2.79198e-07
2.788e-07
2.3662e-07
2.36581e-07
2.36642e-07
2.78657e-07
2.79007e-07
2.7862e-07
2.36583e-07
2.36598e-07
2.36583e-07
2.36585e-07
2.79e-07
2.78684e-07
2.36634e-07
2.36716e-07
2.36597e-07
2.36706e-07
2.36591e-07
2.36555e-07
2.36605e-07
2.79162e-07
2.78799e-07
2.36658e-07
2.3658e-07
2.36641e-07
2.78637e-07
2.78986e-07
2.78563e-07
2.36586e-07
2.36604e-07
2.3655e-07
2.36599e-07
2.79068e-07
2.78691e-07
2.36614e-07
2.36725e-07
2.36581e-07
2.36728e-07
2.36625e-07
2.36591e-07
2.36596e-07
2.79158e-07
2.78825e-07
2.3666e-07
2.36589e-07
2.36611e-07
2.78647e-07
2.78904e-07
2.78575e-07
2.36566e-07
2.36624e-07
2.36539e-07
2.36607e-07
2.7905e-07
2.78674e-07
2.36585e-07
2.36727e-07
2.36577e-07
2.36717e-07
2.36616e-07
2.36592e-07
2.36576e-07
2.79147e-07
2.78678e-07
2.36623e-07
2.36563e-07
2.36558e-07
2.78534e-07
2.02023e-06
8.67663e-06
8.67654e-06
2.02103e-06
1.97149e-05
1.97159e-05
2.01698e-06
8.67551e-06
8.6752e-06
2.01796e-06
2.00496e-07
2.00493e-07
2.005e-07
2.00459e-07
2.00468e-07
2.00464e-07
2.00463e-07
5.4698e-07
1.63084e-06
2.13012e-07
2.36608e-07
1.62982e-06
2.13025e-07
5.4722e-07
1.97449e-05
1.97428e-05
5.46239e-07
2.1307e-07
1.63066e-06
2.36534e-07
2.13074e-07
1.62943e-06
5.46552e-07
3.68893e-06
3.69406e-06
2.78664e-07
3.68575e-06
3.69429e-06
2.02039e-06
8.67615e-06
2.02131e-06
8.67415e-06
1.97159e-05
1.97164e-05
2.0171e-06
8.67561e-06
2.01808e-06
8.6736e-06
2.00468e-07
2.00479e-07
2.00482e-07
2.00452e-07
2.00464e-07
2.00473e-07
2.00472e-07
5.4664e-07
1.631e-06
2.13035e-07
2.36558e-07
5.47006e-07
1.62972e-06
2.13082e-07
1.97349e-05
1.97311e-05
5.46134e-07
2.13033e-07
1.63048e-06
2.36556e-07
5.46412e-07
2.13039e-07
1.6293e-06
3.6879e-06
3.69985e-06
2.78611e-07
3.69046e-06
3.69769e-06
2.02055e-06
8.67454e-06
2.02152e-06
8.67468e-06
1.9714e-05
1.97128e-05
2.01756e-06
8.67531e-06
2.0184e-06
8.67577e-06
2.00477e-07
2.00491e-07
2.00482e-07
2.00472e-07
2.00468e-07
2.00479e-07
2.00474e-07
5.4671e-07
1.63101e-06
2.13057e-07
2.36561e-07
5.46957e-07
1.63009e-06
2.13063e-07
1.97215e-05
1.97183e-05
5.45905e-07
2.1303e-07
1.63103e-06
2.36587e-07
5.46289e-07
2.13032e-07
1.63024e-06
3.69344e-06
3.69261e-06
2.78578e-07
3.69517e-06
3.69785e-06
2.01981e-06
8.67529e-06
2.02126e-06
8.67537e-06
1.97088e-05
1.9709e-05
2.01789e-06
8.67602e-06