/*--------------------------------*- C++ -*----------------------------------*\
| =========                 |                                                 |
| \\      /  F ield         | OpenFOAM: The Open Source CFD Toolbox           |
|  \\    /   O peration     | Version:  v1906                                 |
|   \\  /    A nd           | Web:      www.OpenFOAM.com                      |
|    \\/     M anipulation  |                                                 |
\*---------------------------------------------------------------------------*/
FoamFile
{
    version     2.0;
    format      ascii;
    class       surfaceScalarField;
    location    "50";
    object      phi;
}
// * * * * * * * * * * * * * * * * * * * * * * * * * * * * * * * * * * * * * //

dimensions      [0 3 -1 0 0 0 0];
oriented        oriented;


internalField   nonuniform List<scalar> 
123680
(
1.10049e-09
2.39078e-09
-1.81575e-09
-1.1484e-09
0.00110643
-0.00110643
-1.24357e-06
1.03272e-10
3.32637e-09
0.00110445
-2.94781e-07
1.24623e-06
2.93016e-07
9.40549e-07
-3.02468e-07
2.97203e-07
-9.40503e-07
-0.00110445
-1.2381e-06
-2.41659e-09
3.44403e-09
0.0011041
-2.94823e-07
1.24057e-06
2.92591e-07
9.40955e-07
-3.04327e-07
3.01039e-07
-9.39875e-07
-0.0011041
1.27134e-06
1.23844e-06
-2.42667e-07
-2.47077e-07
0.000268754
-0.000270774
-0.000270773
1.27138e-06
1.23807e-06
-2.42333e-07
-2.47237e-07
0.000268753
1.27695e-06
1.24094e-06
-2.39853e-07
-2.47383e-07
0.000268759
-0.00027079
-1.28048e-06
-1.24384e-06
-0.000268759
2.42037e-07
2.5066e-07
0.00027079
2.79867e-09
0.00110366
-3.00095e-07
1.28036e-06
2.98678e-07
9.3992e-07
-3.01962e-07
2.97761e-07
-9.4072e-07
-0.00110365
-1.2831e-06
-6.4928e-10
4.69073e-09
0.0011041
-3.0352e-07
1.28529e-06
3.00781e-07
9.46211e-07
-3.04994e-07
3.00432e-07
-9.45994e-07
-0.0011041
2.3035e-10
-0.00110366
3.90422e-09
-1.27698e-06
2.98639e-07
-3.00138e-07
-9.40517e-07
2.97344e-07
-3.02293e-07
9.39886e-07
0.00110365
1.28585e-06
1.48901e-10
-0.0011041
4.3419e-09
-1.28283e-06
3.01596e-07
-3.03133e-07
-9.46297e-07
3.00214e-07
-3.05242e-07
9.45484e-07
0.0011041
-2.42547e-07
-2.45249e-07
0.00026878
-0.000270819
-1.24637e-06
-0.00026878
2.44923e-07
2.4761e-07
0.000270819
3.23979e-09
0.00110472
-2.97715e-07
1.24347e-06
2.959e-07
9.43941e-07
-3.04753e-07
3.00945e-07
-9.42361e-07
-0.00110472
-1.27719e-06
-6.00165e-10
3.20627e-09
0.00110376
-3.03137e-07
1.28008e-06
3.01164e-07
9.43362e-07
-3.05022e-07
3.0028e-07
-9.4321e-07
-0.00110376
-6.54665e-10
-0.00110472
4.06827e-09
-1.24081e-06
2.96205e-07
-2.97594e-07
-9.43362e-07
3.00689e-07
-3.04787e-07
9.42422e-07
0.00110472
1.28045e-06
2.65286e-10
-0.00110376
3.14459e-09
-1.27714e-06
3.01442e-07
-3.03274e-07
-9.42907e-07
3.00288e-07
-3.05098e-07
9.42953e-07
0.00110376
1.89293e-10
1.86444e-09
0.00110356
-2.96674e-07
1.27513e-06
2.96288e-07
9.40224e-07
-3.02665e-07
2.96908e-07
-9.40499e-07
-0.00110356
-7.43928e-10
-0.00110445
4.64461e-09
-1.24383e-06
2.93026e-07
-2.94997e-07
-9.39677e-07
2.97577e-07
9.40361e-07
-3.0208e-07
0.00110445
1.27531e-06
0.00110356
-1.95571e-10
-0.00110356
2.57319e-09
-1.27156e-06
2.96287e-07
-2.97012e-07
-9.39995e-07
2.97448e-07
-3.0192e-07
9.4289e-07
-2.39944e-07
-2.47303e-07
0.00026874
-0.000270768
-1.2408e-06
-0.00026874
2.4211e-07
2.50355e-07
0.000270768
-3.50756e-09
3.77757e-09
0.00110463
-2.94857e-07
1.24063e-06
2.92939e-07
9.41254e-07
-3.04177e-07
3.01158e-07
-9.39767e-07
-0.00110463
-2.20102e-09
-0.0011041
4.55207e-09
-1.23818e-06
2.92775e-07
-2.94916e-07
-9.39992e-07
3.01199e-07
9.4029e-07
-3.04212e-07
0.0011041
1.24104e-06
0.00110463
-3.40912e-09
-0.00110463
3.54158e-09
-1.23839e-06
2.93297e-07
-2.9493e-07
-9.39069e-07
3.01137e-07
-3.03818e-07
9.41351e-07
-0.000268752
2.44816e-07
2.50923e-07
2.41316e-09
-2.96749e-07
1.27474e-06
2.95814e-07
9.43237e-07
-3.01841e-07
2.97732e-07
-9.42554e-07
-8.94042e-10
-2.9461e-07
1.2407e-06
2.92976e-07
-3.03733e-07
3.01253e-07
-3.6593e-09
3.04569e-09
9.41501e-07
-9.39258e-07
-4.94564e-10
-6.78634e-08
0.000248294
3.18137e-08
2.0626e-10
-0.000248258
-7.48332e-09
4.9429e-08
0.000208438
-8.45351e-09
-0.000208472
8.47894e-09
-4.78051e-08
0.000208472
5.89852e-09
-0.000208438
-6.19917e-11
6.70624e-08
0.000248258
-3.10839e-08
7.45736e-10
-0.000248294
6.82952e-09
2.02894e-08
0.000103777
-0.000103805
-8.60633e-09
-1.99748e-08
0.000103808
-0.000103779
-6.86322e-08
-8.93194e-10
0.000248343
4.05379e-10
2.97611e-08
-0.000248304
-7.86074e-09
5.10501e-08
0.000208461
-7.88743e-09
-0.000208496
7.73539e-09
-5.08934e-08
0.000208497
7.69261e-09
-0.000208461
6.71635e-08
-2.21336e-10
0.000248302
9.49697e-10
-2.94895e-08
-0.000248341
-7.29529e-11
-4.44207e-10
0.00110643
-0.00110643
-1.66314e-09
-1.15786e-09
0.00110605
-0.00110605
-2.33201e-09
-8.64398e-10
0.00110626
-0.00110626
-0.00110643
-7.42641e-10
-2.70172e-10
0.00110643
-0.00110643
-8.01891e-10
5.48352e-11
0.00110643
-0.00110605
-1.78724e-09
-5.58779e-10
0.00110605
-0.00110626
-2.52793e-09
-1.30325e-09
0.00110626
6.69508e-08
-1.43076e-09
0.00026236
-9.10735e-10
-1.90902e-07
-0.000262234
-2.69017e-08
-5.2675e-08
1.3124e-07
0.000263149
1.18046e-08
-0.000263213
0.00110095
4.53554e-09
2.12612e-09
1.00987e-06
-8.26892e-07
8.26106e-07
-1.00929e-06
-0.00110095
4.03123e-09
1.24646e-06
0.00110445
2.39017e-11
-9.39903e-07
2.97661e-07
-3.02257e-07
9.40601e-07
-1.24389e-06
2.93095e-07
-2.94969e-07
2.70879e-08
4.98902e-08
0.000263212
-1.26323e-08
-0.000263149
-1.27081e-07
-2.39104e-09
0.00110095
2.44918e-09
-1.00902e-06
8.26451e-07
-8.26685e-07
1.00996e-06
-6.87433e-08
2.21112e-09
0.000262235
1.91209e-09
1.91303e-07
-0.000262361
7.30381e-09
2.33322e-08
0.000103822
-0.000103852
-8.70689e-09
-2.20693e-08
0.000103851
-0.000103821
-1.13545e-09
6.83474e-08
0.00026232
-1.91801e-07
-1.54228e-09
-0.000262194
0.00110067
3.82474e-09
-7.63888e-11
1.00508e-06
-8.20457e-07
8.2163e-07
-1.00316e-06
-0.00110067
-2.73846e-08
-4.88497e-08
1.3035e-07
0.000263087
1.15324e-08
-0.000263153
4.3631e-09
1.24088e-06
0.0011041
-1.89293e-09
-9.39736e-07
3.01258e-07
-3.04339e-07
9.40906e-07
-1.23834e-06
2.92815e-07
-2.95111e-07
-2.8761e-09
0.00110067
4.94972e-10
-1.00305e-06
8.21805e-07
-8.20381e-07
1.00522e-06
2.72974e-08
4.86324e-08
0.000263153
-1.35134e-08
-0.000263087
-1.2821e-07
1.73855e-09
-6.71067e-08
0.000262195
1.90125e-07
1.22984e-09
-0.000262321
2.97549e-08
-2.12653e-08
5.27446e-08
0.000300791
-1.36595e-08
-0.000300838
3.05872e-08
-1.97965e-08
4.92487e-08
0.000300724
-1.60503e-08
-0.000300768
-1.27541e-06
-1.24097e-06
0.000270774
-0.000268753
2.44764e-07
2.51074e-07
-3.07608e-08
1.87568e-08
0.000300836
1.65707e-08
-0.00030079
-5.01308e-08
-3.00498e-08
2.03282e-08
0.000300766
1.5983e-08
-0.000300724
-4.80201e-08
-0.000300836
2.97226e-08
-2.01576e-08
5.17506e-08
-1.39591e-08
0.000300788
-0.000300765
3.06528e-08
-1.93075e-08
4.87331e-08
-1.52866e-08
0.00030072
2.04844e-08
0.000103779
-0.000103807
-2.01774e-08
0.000103808
-0.000103779
2.02287e-08
0.000103778
-0.000103806
-2.04179e-08
0.000103806
-0.000103778
2.6632e-08
4.94026e-08
0.00030079
-1.45608e-08
-0.000300831
3.05905e-08
4.90024e-08
0.000300747
-1.52989e-08
-0.000300791
0.00027079
-1.28069e-06
-1.24393e-06
-0.000268758
2.42398e-07
2.50903e-07
0.000300831
-2.85667e-08
1.61973e-08
-0.000300791
-4.8199e-08
0.000300789
-3.03794e-08
1.58732e-08
-0.000300747
-4.84113e-08
-2.02554e-08
-8.35886e-09
-0.000103783
0.000103812
2.0182e-08
7.14354e-09
0.000103781
-2.05492e-08
-8.25306e-09
-0.000103779
0.000103807
2.024e-08
8.12922e-09
0.000103778
1.27718e-06
1.24108e-06
0.000268759
-2.39858e-07
-2.47253e-07
-2.76479e-08
-4.75245e-08
-0.000300788
1.52792e-08
0.000300828
-3.03926e-08
-4.75725e-08
-0.000300745
1.53043e-08
0.000300787
2.65465e-08
-1.409e-08
4.9341e-08
0.00030079
2.94407e-08
-1.43226e-08
4.89537e-08
0.000300745
-6.78258e-08
0.000248335
3.15798e-08
-1.37459e-10
-0.000248299
4.90177e-08
0.000208477
-8.55443e-09
-0.000208511
-4.77989e-08
0.000208511
5.68957e-09
-0.000208478
6.72425e-08
0.000248299
-3.13236e-08
4.58694e-10
-0.000248336
-1.54493e-09
0.000262333
-1.92157e-09
-1.93724e-07
-0.000262203
1.28296e-07
0.000263091
1.11658e-08
-0.000263154
0.00110102
2.94166e-09
7.80687e-10
1.01036e-06
-8.25901e-07
8.26442e-07
-1.0088e-06
-0.00110102
3.12101e-09
0.00110365
-4.35484e-10
-1.27704e-06
2.98893e-07
-3.00015e-07
-9.40482e-07
2.98051e-07
-3.01855e-07
9.40098e-07
0.000263153
-1.43074e-08
-0.00026309
-1.25019e-07
-3.87623e-09
0.00110102
2.0092e-09
-1.00877e-06
8.26476e-07
-8.26202e-07
1.01015e-06
1.45314e-09
0.000262204
1.81754e-09
1.92981e-07
-0.000262333
0.000262362
-9.34333e-10
-1.93966e-07
-0.000262236
-2.98821e-08
1.3076e-07
0.000263106
1.14972e-08
-0.000263169
0.00110117
5.55189e-10
1.01377e-06
-8.26103e-07
8.26996e-07
-1.01153e-06
-0.00110117
4.89686e-09
0.0011041
1.28574e-06
1.7013e-10
-9.45859e-07
3.00524e-07
9.45672e-07
-3.04996e-07
-1.28316e-06
3.01409e-07
-3.03471e-07
0.000263169
3.04107e-08
-1.37976e-08
-0.000263106
-1.27445e-07
0.00110117
1.73125e-09
-1.01159e-06
8.26852e-07
-8.26366e-07
1.0135e-06
0.000262237
8.54316e-10
1.92998e-07
-0.000262362
-4.23412e-10
6.6852e-08
-3.09099e-08
6.44296e-10
0.000248258
-4.77482e-08
-0.000208439
5.72658e-09
0.000208473
4.90578e-08
-8.64971e-09
0.000208439
-4.57094e-10
-6.67391e-08
-0.000248259
3.08719e-08
8.86963e-11
0.000248295
6.69903e-08
-3.11914e-08
-2.68099e-10
0.000248299
-4.6869e-08
9.47553e-09
-0.000208479
4.61328e-09
0.000208512
4.96075e-08
-7.08572e-09
-9.32252e-09
0.000208478
-6.66236e-08
-0.000248299
3.02486e-08
-1.15157e-10
0.000248335
1.48394e-09
1.76913e-09
1.92918e-07
0.000262203
2.83557e-09
-7.01571e-10
1.28046e-06
-3.00283e-07
2.98673e-07
9.40453e-07
-3.02168e-07
2.9796e-07
-9.40747e-07
-1.24415e-07
-0.000263089
-1.4047e-08
0.000263152
-0.00110102
-3.13577e-09
2.06756e-09
-1.00882e-06
8.26584e-07
-8.26017e-07
1.00984e-06
0.00110102
1.11586e-08
1.28104e-07
0.00026309
3.47809e-09
1.43063e-09
1.01046e-06
-8.262e-07
-1.00897e-06
8.26362e-07
-1.0734e-09
-0.000262203
-2.41829e-09
-1.93178e-07
0.000262333
7.0577e-10
1.93047e-07
0.000262237
4.13971e-09
-1.28311e-06
-1.39303e-10
9.46024e-07
-3.05426e-07
-9.46585e-07
3.00494e-07
1.28572e-06
-3.034e-07
3.01562e-07
3.01594e-08
-1.26926e-07
-0.000263105
-1.2958e-08
0.000263168
-0.00110117
1.55864e-09
-1.01161e-06
8.2705e-07
-8.26137e-07
1.01332e-06
0.00110117
-2.91193e-08
1.10063e-08
1.31028e-07
0.000263106
1.05358e-09
1.01377e-06
-8.26348e-07
-1.01168e-06
8.27047e-07
-0.000262237
-4.2614e-10
-1.93467e-07
0.000262363
4.9346e-08
0.000300737
-1.73661e-08
-0.000300778
-2.39436e-08
4.95733e-08
0.00030085
-1.65683e-08
-0.000300885
0.000270819
-0.000268779
2.4517e-07
2.47535e-07
0.000300776
1.86159e-08
-0.000300736
-4.81042e-08
2.24076e-08
0.000300883
1.86142e-08
-0.00030085
-4.75421e-08
6.417e-09
0.000103786
-0.000103816
0.000103819
-9.40263e-09
-0.000103787
-1.96723e-08
-0.000103782
0.000103811
2.09816e-08
0.00010378
1.24402e-06
0.00026878
-2.42767e-07
-2.45028e-07
-4.70874e-08
-0.000300736
1.80358e-08
0.000300775
2.35389e-08
-2.63296e-08
-4.72819e-08
-0.000300845
1.72242e-08
0.000300878
-1.68392e-08
4.94518e-08
0.000300735
-2.28454e-08
2.73919e-08
-1.73103e-08
4.91891e-08
0.000300847
-9.22292e-09
-0.000103793
0.000103826
6.55322e-09
0.00010379
-2.24331e-09
0.000262351
-1.41769e-09
-1.88809e-07
-0.000262227
1.28179e-07
0.000263106
1.15683e-08
-0.000263164
0.0011009
3.37916e-09
1.63209e-10
1.01072e-06
-8.23009e-07
8.26703e-07
-1.00571e-06
-0.00110091
3.65382e-09
0.00110472
-1.25182e-09
-1.241e-06
2.96209e-07
-2.97772e-07
-9.42627e-07
3.01136e-07
-3.04554e-07
9.43383e-07
0.000263164
-1.39996e-08
-0.000263105
-1.25325e-07
-3.46201e-09
0.00110091
1.33503e-09
-1.00853e-06
8.23999e-07
-8.25889e-07
1.00769e-06
1.56138e-09
0.000262227
2.00635e-09
1.87364e-07
-0.000262351
-6.78564e-08
0.000248289
2.92523e-08
-8.70645e-10
-0.00024825
5.1803e-08
0.000208425
-8.42348e-09
-0.000208461
-4.99154e-08
0.00020846
6.35862e-09
-0.000208425
6.738e-08
0.00024825
-2.93828e-08
3.55608e-10
-0.000248288
0.000262314
-1.91111e-07
-1.18749e-09
-0.000262191
0.00110088
4.09693e-10
1.01064e-06
-8.26071e-07
8.26665e-07
-1.00876e-06
-0.00110088
-2.9522e-08
1.28217e-07
0.000263007
1.395e-08
-0.000263068
3.46361e-09
0.00110376
1.28035e-06
-1.26385e-10
-9.42978e-07
3.00602e-07
9.43273e-07
-3.04936e-07
-1.27739e-06
3.017e-07
-3.03221e-07
0.00110088
1.52007e-09
-1.00857e-06
8.26618e-07
-8.26276e-07
1.01042e-06
0.000263068
2.98595e-08
-1.56216e-08
-0.000263007
-1.2475e-07
0.000262192
1.90396e-07
1.30165e-09
-0.000262315
6.64804e-08
-2.35752e-10
4.04244e-10
-2.84855e-08
0.000248305
-5.02804e-08
-0.000208464
6.66499e-09
0.000208499
5.10439e-08
-8.08405e-09
0.000208462
-6.72477e-08
-2.94015e-10
-0.000248305
-2.45633e-10
2.95324e-08
0.000248343
1.77876e-09
1.18022e-09
1.87281e-07
0.000262227
3.1911e-09
-1.63669e-09
1.24367e-06
-2.97843e-07
2.96157e-07
9.43492e-07
-3.04775e-07
3.01299e-07
-9.43156e-07
-1.24759e-07
-0.000263105
-1.38019e-08
0.000263163
-0.0011009
-2.93113e-09
1.49042e-09
-1.00876e-06
8.23985e-07
-8.25898e-07
1.00721e-06
0.00110091
1.09215e-08
1.27882e-07
0.000263105
3.88349e-09
7.10533e-10
1.01052e-06
-8.23255e-07
-1.00606e-06
8.26749e-07
-1.55917e-09
-0.000262227
-2.00424e-09
-1.87989e-07
0.000262351
6.71186e-08
-2.90689e-08
-7.36625e-11
0.000248251
-4.90247e-08
7.76588e-09
-0.000208423
6.82087e-09
0.000208457
5.22156e-08
-7.84593e-09
-8.11467e-09
0.000208424
-6.66488e-08
-0.000248251
2.87509e-08
-4.31346e-10
0.000248289
1.90265e-07
1.43338e-09
0.000262191
2.73158e-09
-1.27737e-06
-3.93549e-10
9.43921e-07
-3.05277e-07
-9.43197e-07
3.00695e-07
1.28025e-06
-3.0331e-07
3.014e-07
-0.00110088
1.71311e-09
-1.00868e-06
8.26525e-07
-8.26179e-07
1.01025e-06
0.00110088
2.91877e-08
-1.24099e-07
-0.000263007
-1.49854e-08
0.000263068
9.66242e-10
1.01078e-06
-8.26167e-07
-1.00883e-06
8.26652e-07
-2.99515e-08
1.46766e-08
1.28425e-07
0.000263007
-0.000262191
-1.90526e-07
-9.03455e-10
0.000262314
2.63223e-10
0.000248331
1.30342e-10
3.05941e-08
-0.000248295
0.000208479
-9.70594e-09
-0.000208515
0.000208512
5.86351e-09
-0.000208478
5.69925e-10
0.000248296
3.22844e-10
-3.23121e-08
-0.000248334
6.71988e-08
0.000262329
-1.8838e-07
-1.62839e-10
-0.000262209
0.00110089
1.76642e-09
1.00749e-06
-8.26791e-07
8.26324e-07
-1.00634e-06
-0.00110088
-5.00784e-08
1.29004e-07
0.000263079
1.16261e-08
-0.00026314
2.07181e-09
0.00110356
3.24486e-10
-1.27157e-06
2.96364e-07
-2.96824e-07
-9.40103e-07
2.97569e-07
-3.02401e-07
9.40614e-07
0.00110088
2.30803e-09
-1.00622e-06
8.26605e-07
-8.2659e-07
1.00741e-06
4.71864e-08
0.000263139
-1.38905e-08
-0.000263079
-1.24507e-07
-6.83687e-08
0.00026221
1.88474e-07
2.108e-09
-0.00026233
0.000248294
3.06494e-08
6.93782e-10
-0.000248258
-5.69474e-09
0.000208418
-1.03438e-08
-0.000208452
0.00020845
9.19877e-09
5.27534e-09
-0.000208418
0.000248258
-3.2422e-08
9.39958e-10
-0.000248294
-6.77126e-08
1.90271e-09
1.89839e-09
1.9052e-07
0.000262233
3.69542e-09
-8.9132e-10
1.24623e-06
-2.95077e-07
2.92974e-07
9.4132e-07
-3.02214e-07
-9.39884e-07
2.97727e-07
5.08134e-08
-1.27208e-07
-0.000263147
-1.26798e-08
0.00026321
-0.00110095
-3.62473e-09
1.309e-09
-1.00863e-06
8.27031e-07
1.01023e-06
-8.2598e-07
0.00110095
-5.1671e-08
1.21247e-08
1.30789e-07
0.000263148
4.27293e-09
1.40469e-09
1.01066e-06
-8.26464e-07
-1.0089e-06
8.26653e-07
6.68109e-08
-1.89643e-09
-0.000262233
-1.11342e-09
-1.91064e-07
0.00026236
4.2001e-10
4.79903e-10
-3.21704e-08
0.000248295
-0.000208476
6.34415e-09
0.000208512
-8.88895e-09
0.000208476
-2.51398e-11
-0.000248295
2.5066e-10
3.05243e-08
0.000248331
-6.73331e-08
1.87833e-07
1.73928e-09
0.000262209
2.07531e-09
-1.27167e-06
-5.77555e-10
9.40988e-07
-3.02261e-07
-9.4018e-07
2.97951e-07
1.27504e-06
-2.97018e-07
2.96135e-07
-0.00110089
0.00110088
1.41407e-09
-1.00588e-06
8.26981e-07
-8.26076e-07
1.01028e-06
4.754e-08
3.02709e-08
0.000263139
-1.24666e-07
-0.000263078
-1.38658e-08
1.23633e-09
1.00799e-06
-8.26438e-07
-1.00618e-06
8.26827e-07
-4.97261e-08
-2.89327e-08
1.10458e-08
1.28368e-07
0.000263078
6.68242e-08
0.000262328
-0.000262208
-1.88329e-07
-5.77293e-10
-3.1989e-08
8.32436e-10
0.000248258
8.85882e-09
0.000208449
-0.000208416
5.97773e-09
-6.86145e-09
-9.19181e-09
0.000208417
0.000248294
-0.000248258
3.06164e-08
4.4631e-10
5.17202e-08
0.000300644
-1.3575e-08
-0.000300688
-2.01769e-08
5.08951e-08
0.000300796
-1.44688e-08
-0.000300839
0.000270768
-0.000268739
2.42372e-07
2.50224e-07
0.000300686
1.54791e-08
-0.000300644
-5.00386e-08
2.06545e-08
0.00030084
1.43209e-08
-0.000300797
-5.09808e-08
8.52833e-09
0.000103773
-0.000103801
0.000103799
-7.08819e-09
-0.000103772
-2.14182e-08
-0.000103819
0.000103848
2.36594e-08
0.00010382
1.23832e-06
0.00026874
-2.40012e-07
-2.47353e-07
-4.96756e-08
-0.000300643
1.3964e-08
0.000300686
2.02021e-08
-2.71301e-08
-5.06839e-08
-0.000300799
1.27659e-08
0.000300843
-1.48131e-08
5.16331e-08
0.000300643
-2.0045e-08
2.78745e-08
-1.57092e-08
5.13625e-08
0.000300796
-6.16099e-09
-0.000103767
0.000103793
9.37329e-09
0.00010377
6.82831e-08
0.00026235
-1.89063e-07
-3.3125e-10
-0.00026223
0.00110079
-1.23374e-09
1.00862e-06
-8.23012e-07
8.24709e-07
-1.00537e-06
-0.00110079
-4.869e-08
1.30274e-07
0.000263088
1.19766e-08
-0.000263151
3.97097e-09
0.00110463
-3.17729e-09
-1.23859e-06
2.93193e-07
-2.94981e-07
-9.39697e-07
3.01548e-07
-3.04041e-07
9.41544e-07
0.00110079
-1.57016e-10
-1.00517e-06
8.2457e-07
-8.23016e-07
1.00851e-06
4.86324e-08
0.000263151
-1.34291e-08
-0.000263088
-1.28207e-07
-6.69344e-08
0.00026223
1.87325e-07
1.06104e-09
-0.00026235
1.38021e-11
0.000248286
7.31247e-11
3.19396e-08
-0.00024825
0.000208417
-6.77765e-09
-0.00020845
0.000208451
8.12173e-09
-0.000208417
2.34039e-10
0.00024825
2.14424e-10
-3.12567e-08
-0.000248286
0.00024833
7.5714e-11
2.93568e-08
-0.000248291
-7.22996e-09
0.00020846
-7.91244e-09
-0.000208494
0.000208493
9.1509e-09
6.38327e-09
-0.00020846
0.00024829
4.27184e-10
-2.94322e-08
-0.000248328
1.46251e-09
-6.59711e-08
1.89551e-07
8.59927e-10
0.000262194
3.84068e-09
-2.75753e-09
1.24076e-06
-2.95162e-07
2.92822e-07
9.40937e-07
-3.04537e-07
-9.40265e-07
3.01512e-07
-0.00110067
-2.75131e-09
1.83337e-10
-1.00296e-06
8.21986e-07
1.005e-06
-8.20127e-07
0.00110067
4.81868e-08
-1.27862e-07
-0.000263087
-1.35344e-08
0.000263154
3.92313e-09
-2.0703e-10
1.00559e-06
-8.20305e-07
-1.00309e-06
8.21678e-07
-4.84863e-08
1.17746e-08
1.30305e-07
0.000263087
-9.81351e-10
6.7742e-08
-0.000262195
-1.91424e-07
-2.25012e-09
0.000262321
-6.63334e-08
1.87007e-07
7.03656e-10
0.00026223
3.3997e-09
-1.23855e-06
-4.09638e-09
9.4204e-07
-3.04087e-07
-9.39586e-07
3.01634e-07
1.24071e-06
-2.94948e-07
2.93182e-07
-0.00110079
-3.68297e-10
-1.00518e-06
8.24549e-07
-8.22602e-07
1.00824e-06
0.00110079
4.84345e-08
2.96653e-08
0.000263151
-1.28051e-07
-0.000263088
-1.33465e-08
-1.20848e-09
1.00876e-06
-8.22999e-07
-1.00527e-06
8.24579e-07
-4.83061e-08
-2.99428e-08
1.17191e-08
1.29899e-07
0.000263088
6.73961e-08
-0.00026223
-1.88542e-07
-3.19065e-10
0.00026235
3.59649e-10
-1.84642e-11
-3.02266e-08
0.00024825
-0.000208419
8.42691e-09
0.000208452
-6.01085e-09
0.000208418
4.71985e-10
-0.00024825
-5.02086e-10
3.21487e-08
0.000248286
3.90771e-10
-2.8449e-08
0.000248292
8.18315e-09
0.000208494
-0.000208461
7.17749e-09
-7.22192e-09
-7.68935e-09
0.00020846
-0.000248293
2.39463e-10
2.92247e-08
0.000248331
0.000103776
-0.000103803
0.000103804
-0.000103776
0.00010379
-0.000103817
0.000103822
-0.000103792
0.000268753
-2.42468e-07
-2.47103e-07
1.96409e-08
-5.03998e-08
-0.00030079
1.50948e-08
2.017e-08
-4.8681e-08
-0.000300722
1.49479e-08
-2.19126e-08
-1.25041e-08
5.20163e-08
0.000300789
-2.02027e-08
-1.42362e-08
4.88579e-08
0.000300721
0.000103804
-0.000103775
0.000103775
0.000103824
-0.000103795
0.000103795
1.01073e-06
-8.25856e-07
8.26639e-07
-1.00833e-06
-7.07864e-10
5.136e-10
-4.90426e-08
1.28023e-07
1.10584e-08
0.000263079
-6.73582e-08
0.000262206
1.87476e-07
2.74672e-09
-2.75362e-10
-7.1997e-09
-8.45646e-09
0.000208416
0.000248258
-3.18135e-08
8.60459e-10
-1.06129e-10
-4.794e-08
1.2967e-07
0.000263088
1.19417e-08
-7.76359e-09
0.00020846
-6.8168e-09
0.000103776
0.000103797
-2.07903e-09
3.1107e-08
0.000153758
1.16656e-09
-0.000153788
-0.000184593
-1.55265e-10
-5.45893e-10
0.000184625
-0.000242466
3.22219e-08
1.15617e-09
0.000242502
-6.92486e-08
-3.09875e-08
7.52778e-10
-0.000248294
-4.26594e-10
6.67548e-08
-0.000184625
-3.54523e-10
3.98071e-10
-0.000242502
6.7901e-08
1.75947e-09
0.000153789
-3.05941e-08
-8.32583e-05
8.32899e-05
-9.95994e-10
5.82072e-09
0.000208471
8.44152e-09
-4.75191e-08
0.000285833
-3.00089e-08
-1.53277e-10
6.2917e-08
-0.000285874
0.000285872
-1.33297e-09
-6.2499e-08
-1.0265e-09
-8.32873e-05
3.07374e-08
8.32603e-05
-0.000285832
3.2047e-08
0.000285869
-6.19483e-08
-8.76404e-09
-7.37715e-09
4.90753e-08
6.22545e-08
8.32941e-05
6.71472e-10
-3.1669e-08
-0.000153758
3.1471e-08
2.36532e-11
-1.95612e-10
-6.75929e-08
0.000184593
2.57122e-09
-3.06379e-10
-0.000184626
0.000242466
-3.0761e-08
6.82458e-08
-0.000242503
-3.59834e-10
-6.90716e-08
-0.000153788
0.000103806
-8.74682e-09
-1.97956e-08
6.61852e-09
2.00419e-08
2.82717e-08
-2.8562e-09
0.000153813
2.25611e-09
-0.000153841
-0.000242573
3.11338e-08
1.00547e-09
0.000242611
-7.0124e-08
-0.000184608
4.14573e-10
-9.71245e-10
0.000184639
6.30968e-10
-2.87994e-08
-0.000248344
-4.77724e-10
6.88774e-08
4.4076e-10
-0.000242614
7.00716e-08
-0.000184639
-8.76213e-10
2.2747e-09
0.000153843
-3.05142e-08
-8.32981e-05
8.33305e-05
-1.94707e-09
8.18578e-09
0.000208496
7.461e-09
-5.08883e-08
0.000285951
-2.70664e-08
-3.74549e-10
6.45987e-08
-0.000285996
0.000285996
-1.49648e-09
-6.61732e-08
-1.20823e-09
-8.33239e-05
2.63636e-08
8.33064e-05
-0.000285951
3.11868e-08
0.000285994
-6.54608e-08
-7.99376e-09
-7.9315e-09
5.04665e-08
6.40655e-08
8.33399e-05
-3.02929e-08
1.0048e-10
-0.000153813
7.23066e-10
2.92239e-08
-7.21593e-10
-7.07932e-08
0.000242573
-2.84348e-08
6.76413e-08
-0.000242611
0.000184609
2.06689e-09
-3.37071e-10
-0.00018464
-7.28933e-08
-7.63808e-10
-0.00015384
0.000103852
-8.3287e-09
-2.16994e-08
7.60413e-09
2.33896e-08
-1.07192e-08
-9.75974e-09
0.000233198
2.33288e-08
2.66102e-08
-0.000233227
-8.55012e-05
-1.11388e-08
-1.7947e-08
8.55303e-05
-8.54903e-05
-1.20069e-08
-1.70838e-08
8.55194e-05
1.38553e-08
-8.55258e-05
1.48575e-08
-8.5515e-05
-2.42987e-08
-2.5852e-08
0.000233225
-3.05515e-08
3.61712e-08
-0.000239557
0.000239598
2.47286e-08
-7.05059e-08
0.000265821
-2.96661e-08
9.97868e-08
4.65016e-08
-0.000265885
-4.99546e-08
1.56596e-08
0.000300837
1.87323e-08
-3.04021e-08
0.000196504
3.69237e-08
-1.54847e-08
-0.000196539
0.000265884
-9.86679e-08
-4.50935e-08
0.00019654
1.59041e-08
-2.23146e-08
6.87642e-08
-0.000239597
-2.97126e-08
3.4756e-08
-0.000239497
0.000239537
2.61095e-08
-7.14356e-08
0.000265717
-3.07997e-08
1.03851e-07
4.758e-08
-0.000265788
-4.83907e-08
1.46684e-08
0.000300768
2.01459e-08
-2.99449e-08
0.000196462
3.41938e-08
-1.65117e-08
-0.000196496
0.000265788
-1.04683e-07
-4.42039e-08
0.000196497
1.50158e-08
-2.57316e-08
6.8393e-08
-0.000239536
2.98779e-08
-3.5496e-08
0.000239558
6.88269e-08
-0.000196505
-3.66605e-08
0.000196541
5.20026e-08
-1.30226e-08
-2.1614e-08
2.92026e-08
-0.00026582
3.0244e-08
0.000265884
-9.89931e-08
-4.49877e-08
9.94196e-08
4.62533e-08
0.000239597
-7.04806e-08
3.07651e-08
-3.25948e-08
0.000239497
6.8388e-08
-0.000196464
-3.54008e-08
0.000196498
4.85857e-08
-1.51189e-08
-1.96423e-08
3.00313e-08
-0.000265716
2.97963e-08
0.000265787
-1.04762e-07
-4.39925e-08
1.0362e-07
4.74344e-08
0.000239537
-7.144e-08
1.05841e-08
1.14768e-08
-0.000233198
8.54993e-05
1.1672e-08
-8.55264e-05
8.54885e-05
1.07272e-08
-8.55157e-05
-0.000233224
-0.000239556
-2.94147e-08
3.65868e-08
2.37674e-08
-7.01719e-08
-3.07629e-08
0.00026582
-0.000265883
9.91132e-08
4.70104e-08
3.58492e-08
0.000196507
-1.42266e-08
-0.000196543
-5.09034e-08
1.47214e-08
1.99625e-08
-3.02833e-08
-2.44243e-08
-0.000239595
6.9157e-08
-9.93658e-08
-4.43084e-08
1.5689e-08
-0.000239496
-2.91839e-08
3.5013e-08
2.57684e-08
-7.09791e-08
-3.13304e-08
0.000265714
-0.000265785
1.03613e-07
4.78714e-08
3.32753e-08
0.000196467
-1.47366e-08
-0.000196501
-4.88241e-08
1.46188e-08
2.07307e-08
-2.92906e-08
-2.72743e-08
-0.000239536
6.89197e-08
-1.04999e-07
-4.37021e-08
1.52397e-08
-0.000233191
1.0867e-08
1.13467e-08
1.12339e-08
8.55101e-05
-8.55355e-05
1.07231e-08
8.54994e-05
-8.55249e-05
-0.000233221
0.000103807
-1.96459e-08
2.00915e-08
0.000103805
-2.0028e-08
1.9686e-08
-1.04315e-08
-1.03004e-08
0.000233188
2.60468e-08
2.40415e-08
-0.000233217
-8.55067e-05
-1.13062e-08
-1.72293e-08
8.55352e-05
-8.54927e-05
-1.12571e-08
-1.72797e-08
8.55212e-05
1.45038e-08
-8.55316e-05
1.47124e-08
-8.55177e-05
-2.57286e-08
-2.34493e-08
0.000233214
3.40824e-08
-2.96734e-08
-0.000239554
0.000239594
2.6185e-08
-7.04895e-08
0.000265818
-3.09583e-08
1.04555e-07
4.43549e-08
-0.000265887
1.53221e-08
-4.81404e-08
0.000300831
-2.82934e-08
0.000196506
3.41563e-08
-1.47091e-08
-0.00019654
0.00019654
1.53701e-08
0.000265886
-1.04243e-07
-4.2005e-08
-2.66029e-08
6.93857e-08
-0.000239594
3.43744e-08
-2.94982e-08
-0.00023949
0.000239534
2.38442e-08
-7.32191e-08
0.000265724
-3.1223e-08
1.04041e-07
4.98739e-08
-0.000265798
1.4719e-08
-4.86092e-08
0.000300791
-2.97908e-08
0.000196456
3.38584e-08
-1.49774e-08
-0.00019649
0.000196489
1.52028e-08
0.000265798
-1.04773e-07
-4.7183e-08
-2.4599e-08
7.14581e-08
-0.000239534
-3.34053e-08
0.000239553
3.07093e-08
6.90809e-08
-0.000196506
-3.45437e-08
0.00019654
-1.46092e-08
4.86158e-08
2.64738e-08
2.96011e-08
-0.000265817
0.000265886
-1.04439e-07
-4.20295e-08
0.000239593
-7.05431e-08
1.04277e-07
4.40356e-08
-3.31308e-08
0.000239489
3.09368e-08
7.11666e-08
-0.000196456
-3.48167e-08
0.000196489
-1.5139e-08
4.86994e-08
2.99585e-08
2.94472e-08
-0.000265724
0.000265798
-1.04829e-07
-4.70566e-08
0.000239534
-7.32802e-08
1.03898e-07
4.97904e-08
1.06649e-08
1.08188e-08
-0.000233189
8.55056e-05
1.15813e-08
-8.55319e-05
8.54917e-05
1.13366e-08
-8.5518e-05
-0.000233217
-0.00010381
1.97092e-08
6.91893e-09
-2.05724e-08
-8.59483e-09
-0.000103806
1.95867e-08
7.7222e-09
-2.06988e-08
-7.70766e-09
-0.000233185
1.12654e-08
1.10558e-08
-2.58678e-08
-2.36853e-08
0.000233212
1.06916e-08
8.55103e-05
1.42292e-08
1.09146e-08
8.54963e-05
1.40239e-08
2.66029e-08
2.45851e-08
-1.56086e-08
8.55372e-05
-1.57626e-08
8.55231e-05
-3.40691e-08
3.09792e-08
0.000239552
-0.000239592
-2.60129e-08
6.95859e-08
-0.000265818
2.93046e-08
-1.03964e-07
-4.14535e-08
0.000265886
-1.48407e-08
4.99472e-08
-0.000300831
2.72053e-08
-0.000196508
-3.32702e-08
1.49312e-08
0.000196541
-0.000196541
-1.5651e-08
-0.000265886
1.04727e-07
4.46158e-08
2.62193e-08
-7.02669e-08
0.000239592
-3.41496e-08
3.13525e-08
0.000239488
-0.000239533
-2.39064e-08
7.18387e-08
-0.000265724
2.92864e-08
-1.04371e-07
-4.65521e-08
0.000265798
-1.49755e-08
4.91383e-08
-0.000300789
2.93901e-08
-0.000196456
-3.32726e-08
1.50545e-08
0.00019649
-0.00019649
-1.54149e-08
-0.000265798
1.04128e-07
5.01173e-08
2.40204e-08
-7.276e-08
0.000239532
-0.000239553
3.48193e-08
-2.94221e-08
-7.04012e-08
3.36396e-08
0.000196506
-3.09367e-08
0.000265817
1.04571e-07
4.43888e-08
1.54029e-08
-4.86097e-08
-2.83432e-08
6.9446e-08
-1.04616e-07
-4.1886e-08
-0.000239489
3.48219e-08
-2.92845e-08
-7.29802e-08
3.34842e-08
0.000196456
-3.124e-08
0.000265724
1.04069e-07
4.99995e-08
1.52237e-08
-4.89017e-08
-3.07327e-08
7.161e-08
-1.05069e-07
-4.69966e-08
-1.09485e-08
-1.11826e-08
0.000233184
-8.55106e-05
-1.03751e-08
8.55359e-05
-8.54965e-05
-1.02011e-08
8.55218e-05
0.000233214
-1.51504e-09
2.88468e-08
0.000153833
1.89608e-09
-0.000153862
-0.000184628
-1.30771e-09
0.00018466
-0.00024256
3.01809e-08
1.11986e-09
0.000242602
-7.25083e-08
-3.11859e-08
3.56382e-11
-0.000248335
6.68318e-08
-0.000184661
3.28547e-10
-0.000242602
7.03752e-08
1.4143e-09
0.00015386
-2.86251e-08
-8.32943e-05
8.33238e-05
-8.71796e-10
5.92236e-09
0.000208511
-4.8107e-08
0.000285959
-2.78553e-08
-1.1212e-10
6.48018e-08
-0.000286005
0.000286003
-1.54906e-09
-6.54374e-08
-7.17955e-10
-8.33214e-05
2.77789e-08
8.32979e-05
-0.000285957
2.96808e-08
0.000285999
-6.46015e-08
-9.33183e-09
4.8754e-08
6.51936e-08
8.3329e-05
1.487e-09
-2.96636e-08
-0.000153835
3.12422e-08
2.75249e-10
-6.75822e-08
0.000184629
1.75404e-09
-0.000184662
0.000242561
-2.87655e-08
7.0874e-08
-0.000242602
-7.24933e-08
-0.000153862
-0.000153759
2.22173e-10
-3.17745e-08
1.48899e-09
0.000153789
2.55604e-09
0.000184592
-6.33056e-10
-3.09289e-08
0.000242465
7.08351e-11
6.81263e-08
3.16773e-08
3.05206e-10
0.000248294
-5.10364e-10
-6.7936e-08
1.03796e-09
0.000184625
-5.89162e-10
1.47224e-09
0.000242502
-6.94701e-08
8.32669e-05
3.06574e-08
-8.32967e-05
-8.83737e-10
-8.81549e-09
-0.000208473
4.89067e-08
3.13526e-08
-0.000285828
-1.29307e-09
-6.1434e-08
0.000285865
-1.49979e-09
8.32998e-05
-0.000285868
-2.2442e-10
6.22468e-08
-8.32646e-05
-3.05458e-08
-3.05006e-08
0.000285829
6.23e-08
5.6452e-09
-4.81977e-08
-6.28217e-08
0.00015376
-2.52983e-09
3.11309e-08
-3.1108e-08
7.32018e-10
-6.21923e-10
6.69322e-08
1.69063e-10
-0.000184592
-1.19002e-09
0.000184624
3.21191e-08
-0.000242465
-6.8447e-08
0.000242501
0.000153791
-8.97273e-10
6.81208e-08
-0.000153831
1.60351e-09
-2.92135e-08
1.31453e-09
0.000153857
1.43287e-09
0.000184627
-2.92084e-08
0.00024256
-1.75022e-10
7.09471e-08
3.13513e-08
-7.26687e-11
0.000248335
-6.79392e-08
1.58573e-09
0.00018466
1.13952e-09
0.000242602
-7.22642e-08
2.99636e-08
8.33031e-05
-8.3332e-05
-1.04534e-09
-1.0098e-08
-0.000208512
-6.65281e-09
4.99138e-08
-0.000285947
2.63748e-08
-1.08657e-09
-6.41289e-08
0.00028599
-0.000285994
3.0972e-10
6.65187e-08
-1.62543e-10
8.33297e-05
-8.33027e-05
-2.79821e-08
-2.78278e-08
0.000285951
6.61501e-08
4.92736e-09
8.93575e-09
-4.78927e-08
-6.47468e-08
-3.58788e-10
3.03898e-08
0.000153826
-3.17192e-08
-2.78339e-10
6.71534e-08
-0.000184627
-2.58184e-09
0.000184658
-0.000242561
2.79167e-08
-7.18673e-08
0.000242604
7.05488e-08
0.000153851
-1.07132e-08
-1.09177e-08
0.000233188
2.68678e-08
2.42703e-08
-0.000233217
-8.55028e-05
-1.1146e-08
-1.67552e-08
8.55307e-05
-8.55175e-05
-1.11906e-08
-1.66682e-08
8.55454e-05
1.53391e-08
-8.55288e-05
1.50894e-08
-8.55435e-05
-2.53485e-08
-2.32531e-08
0.000233214
3.4756e-08
-3.16391e-08
-0.000239494
0.000239536
2.57243e-08
-7.04839e-08
0.000265716
-3.41351e-08