/*--------------------------------*- C++ -*----------------------------------*\
| =========                 |                                                 |
| \\      /  F ield         | OpenFOAM: The Open Source CFD Toolbox           |
|  \\    /   O peration     | Version:  v1906                                 |
|   \\  /    A nd           | Web:      www.OpenFOAM.com                      |
|    \\/     M anipulation  |                                                 |
\*---------------------------------------------------------------------------*/
FoamFile
{
    version     2.0;
    format      ascii;
    class       volScalarField;
    location    "300";
    object      epsilon;
}
// * * * * * * * * * * * * * * * * * * * * * * * * * * * * * * * * * * * * * //

dimensions      [0 2 -3 0 0 0 0];


internalField   nonuniform List<scalar> 
43248
(
1.14844e-06
8.6298e-07
8.62953e-07
1.14851e-06
8.62728e-07
8.63025e-07
8.62781e-07
8.6305e-07
1.1486e-06
8.62896e-07
8.62921e-07
1.14866e-06
3.19679e-07
3.1967e-07
3.1978e-07
3.19795e-07
1.84271e-05
1.84288e-05
5.46245e-06
5.46361e-06
4.09155e-06
9.16106e-06
4.09355e-06
4.0914e-06
9.16177e-06
9.15527e-06
4.09374e-06
2.10207e-06
3.475e-06
5.58161e-07
5.52251e-07
2.10669e-06
2.1021e-06
8.56887e-07
3.47519e-06
5.5819e-07
3.47213e-06
5.52295e-07
2.10674e-06
1.84281e-05
1.84179e-05
1.14397e-06
5.46372e-06
5.4618e-06
5.46121e-06
5.4594e-06
1.84256e-05
1.84153e-05
9.16282e-06
4.09351e-06
3.47511e-06
5.58259e-07
2.10685e-06
9.16219e-06
4.09341e-06
5.58273e-07
3.47538e-06
2.10674e-06
2.10228e-06
8.56729e-07
3.47496e-06
5.58198e-07
3.47136e-06
5.52329e-07
2.10684e-06
4.09183e-06
9.16164e-06
9.15489e-06
4.09377e-06
2.10219e-06
8.56977e-07
5.58286e-07
3.47505e-06
5.52401e-07
3.47141e-06
2.10682e-06
4.09162e-06
9.16198e-06
9.15504e-06
4.09386e-06
1.8429e-05
5.46372e-06
5.46206e-06
1.84275e-05
2.10229e-06
5.58312e-07
3.47463e-06
5.52427e-07
2.10685e-06
2.10228e-06
8.56856e-07
5.58358e-07
3.47529e-06
5.52477e-07
3.47225e-06
2.10698e-06
4.09182e-06
9.16194e-06
4.09352e-06
4.09157e-06
9.16297e-06
9.15641e-06
4.09397e-06
1.14409e-06
5.46198e-06
5.4641e-06
5.45956e-06
5.46128e-06
1.84278e-05
1.84175e-05
1.84297e-05
1.84194e-05
1.84219e-05
1.84241e-05
4.53802e-06
2.81207e-06
5.46169e-06
9.50047e-06
9.49669e-06
2.81011e-06
4.54092e-06
4.54435e-06
2.8113e-06
5.46346e-06
9.50363e-06
9.50072e-06
2.81217e-06
4.54294e-06
9.73622e-06
2.17305e-05
2.17283e-05
2.17237e-05
2.17225e-05
9.73576e-06
1.22029e-05
1.08234e-05
4.74415e-06
4.09177e-06
1.22e-05
1.08264e-05
4.7443e-06
2.20533e-05
9.15803e-06
7.08848e-06
7.08901e-06
2.20601e-05
1.22033e-05
4.09343e-06
1.08295e-05
4.74598e-06
1.08266e-05
4.74576e-06
1.22063e-05
1.2203e-05
1.08236e-05
4.74439e-06
4.09195e-06
1.22001e-05
1.08264e-05
4.74461e-06
2.20535e-05
9.15924e-06
7.09012e-06
7.0905e-06
2.20601e-05
2.20556e-05
7.08949e-06
9.15778e-06
2.2049e-05
7.08911e-06
1.22035e-05
4.09348e-06
1.08294e-05
4.7461e-06
1.08269e-05
4.74593e-06
1.22063e-05
1.84232e-05
1.84228e-05
9.73337e-06
2.17169e-05
2.17176e-05
9.73377e-06
2.17232e-05
2.17239e-05
4.54452e-06
2.81247e-06
5.46358e-06
9.50375e-06
2.81142e-06
9.50075e-06
4.54483e-06
4.53845e-06
2.81135e-06
5.46172e-06
9.49915e-06
9.49615e-06
2.81026e-06
4.53891e-06
4.54223e-06
9.49605e-06
2.80819e-06
5.46123e-06
2.80918e-06
4.5418e-06
9.49904e-06
4.53626e-06
9.49145e-06
2.80704e-06
5.45944e-06
4.53582e-06
9.49444e-06
2.80805e-06
9.73576e-06
2.17282e-05
2.17289e-05
2.17219e-05
2.17226e-05
9.73537e-06
1.84206e-05
1.84202e-05
2.20537e-05
9.15989e-06
7.09009e-06
7.09043e-06
2.20603e-05
1.22039e-05
4.09352e-06
4.74593e-06
1.08302e-05
4.74611e-06
1.08273e-05
1.22065e-05
2.20534e-05
9.15924e-06
7.08861e-06
7.08912e-06
2.20602e-05
1.22039e-05
4.0936e-06
1.08296e-05
4.74584e-06
1.08276e-05
4.74595e-06
1.22065e-05
1.22025e-05
4.7442e-06
1.08242e-05
4.09196e-06
1.21998e-05
4.74454e-06
1.08262e-05
2.20523e-05
9.15903e-06
7.08959e-06
7.08996e-06
2.20589e-05
2.20543e-05
7.08896e-06
9.15781e-06
2.20478e-05
7.08857e-06
1.22031e-05
4.09359e-06
4.74618e-06
1.08294e-05
4.74584e-06
1.08273e-05
1.22059e-05
1.2203e-05
1.08241e-05
4.7441e-06
4.09189e-06
1.22002e-05
1.08261e-05
4.74442e-06
2.20532e-05
9.15899e-06
7.08832e-06
7.08869e-06
2.20598e-05
2.20553e-05
7.08769e-06
9.158e-06
2.20487e-05
7.08731e-06
1.22035e-05
4.09355e-06
1.08295e-05
4.74606e-06
1.0827e-05
4.7457e-06
1.22064e-05
1.8424e-05
4.54483e-06
2.81218e-06
5.46343e-06
9.50419e-06
2.81162e-06
9.50051e-06
4.54518e-06
4.53886e-06
2.81111e-06
5.46176e-06
9.49959e-06
9.49595e-06
2.81053e-06
4.53923e-06
9.73668e-06
2.17295e-05
2.17298e-05
2.17231e-05
2.17235e-05
9.73629e-06
1.84225e-05
1.22029e-05
4.74419e-06
1.08245e-05
4.09169e-06
1.22005e-05
4.74409e-06
1.08265e-05
2.20533e-05
9.15898e-06
7.08822e-06
7.08856e-06
2.20598e-05
2.20553e-05
7.08718e-06
1.22038e-05
4.0937e-06
4.74566e-06
1.08297e-05
4.74582e-06
1.08277e-05
1.22063e-05
1.2203e-05
4.7445e-06
1.08247e-05
4.0921e-06
1.22004e-05
4.74463e-06
1.08267e-05
2.20533e-05
9.16035e-06
7.09005e-06
7.09055e-06
2.20602e-05
2.20557e-05
7.08955e-06
9.15895e-06
2.20488e-05
7.08903e-06
1.22037e-05
4.09361e-06
4.74626e-06
1.08299e-05
4.74614e-06
1.08277e-05
1.22064e-05
9.73407e-06
2.17186e-05
2.1718e-05
9.73447e-06
2.17249e-05
2.17242e-05
4.53891e-06
2.81146e-06
5.46192e-06
9.49949e-06
2.81055e-06
9.49649e-06
4.53905e-06
4.54473e-06
2.81268e-06
5.46374e-06
9.50457e-06
2.81158e-06
9.50088e-06
4.54521e-06
4.53635e-06
9.49178e-06
2.80741e-06
5.45968e-06
4.53624e-06
2.80798e-06
9.49479e-06
4.54257e-06
9.49643e-06
2.8084e-06
5.4618e-06
4.5421e-06
2.80939e-06
9.49973e-06
9.73646e-06
2.173e-05
2.17293e-05
2.17236e-05
2.1723e-05
9.73608e-06
1.84228e-05
1.84224e-05
1.84247e-05
1.84243e-05
2.66793e-06
1.14908e-06
1.76878e-06
1.768e-06
1.76724e-06
1.76786e-06
2.66864e-06
2.6679e-06
1.149e-06
1.76821e-06
1.76814e-06
1.76781e-06
1.76763e-06
2.66858e-06
2.66814e-06
1.14914e-06
1.76822e-06
1.76817e-06
1.76796e-06
1.76789e-06
2.66823e-06
2.66803e-06
1.14911e-06
1.76819e-06
1.76837e-06
1.76768e-06
1.76784e-06
2.66873e-06
1.66578e-07
1.66572e-07
1.64498e-07
7.94085e-08
7.99273e-08
3.15734e-07
1.66589e-07
1.6655e-07
1.64482e-07
1.64447e-07
7.93924e-08
7.99327e-08
1.66649e-07
1.66624e-07
1.64517e-07
7.94173e-08
7.99592e-08
3.15846e-07
1.66647e-07
1.66633e-07
1.64529e-07
1.64517e-07
7.94112e-08
7.99618e-08
1.41004e-06
2.36139e-06
1.27335e-06
2.10301e-06
1.41125e-06
2.36225e-06
1.27388e-06
1.61698e-06
2.03245e-06
3.47439e-06
2.85988e-06
2.03156e-06
2.85966e-06
1.61718e-06
1.41624e-06
2.10576e-06
2.36566e-06
1.27933e-06
2.36479e-06
1.27863e-06
1.41541e-06
1.41052e-06
2.36163e-06
1.27323e-06
2.10307e-06
1.41085e-06
2.36251e-06
1.27391e-06
1.61851e-06
2.03209e-06
3.47505e-06
2.86048e-06
2.86031e-06
2.03216e-06
1.61595e-06
1.6118e-06
2.85733e-06
2.02802e-06
3.47213e-06
1.61359e-06
2.85756e-06
2.02812e-06
1.41606e-06
2.1058e-06
2.36591e-06
1.2793e-06
2.36504e-06
1.27857e-06
1.41565e-06
2.66531e-06
1.14334e-06
1.76356e-06
1.76344e-06
1.76397e-06
2.66434e-06
1.76387e-06
1.61825e-06
2.03187e-06
3.47523e-06
2.8607e-06
2.03224e-06
2.86003e-06
1.61584e-06
1.41555e-06
2.1059e-06
2.36591e-06
1.27943e-06
2.36502e-06
1.27874e-06
1.41557e-06
1.61683e-06
2.03241e-06
3.47488e-06
2.85994e-06
2.85969e-06
2.03232e-06
1.61712e-06
1.41543e-06
2.10582e-06
1.27872e-06
2.36571e-06
1.27888e-06
2.36483e-06
1.41544e-06
1.40961e-06
2.36174e-06
1.27435e-06
2.10321e-06
1.41224e-06
2.36252e-06
1.273e-06
1.61714e-06
2.0323e-06
3.47442e-06
2.86025e-06
2.03161e-06
2.86004e-06
1.61737e-06
1.6128e-06
2.857e-06
2.02729e-06
3.47207e-06
1.6124e-06
2.02825e-06
2.85757e-06
1.41726e-06
2.10595e-06
2.36588e-06
1.27804e-06
2.36513e-06
1.27969e-06
1.41465e-06
1.41084e-06
1.27372e-06
2.36156e-06
2.10315e-06
1.41069e-06
1.27335e-06
2.36239e-06
1.61704e-06
2.03174e-06
3.47449e-06
2.86036e-06
2.85974e-06
2.03177e-06
1.61729e-06
1.61272e-06
2.85686e-06
2.02799e-06
3.47217e-06
1.6123e-06
2.85708e-06
2.02805e-06
1.41574e-06
2.10586e-06
1.27823e-06
2.36577e-06
1.27936e-06
2.36492e-06
1.41587e-06
1.40983e-06
1.27366e-06
2.36159e-06
2.10317e-06
1.41204e-06
1.27394e-06
2.36235e-06
1.61687e-06
2.03198e-06
3.47451e-06
2.86025e-06
2.03151e-06
2.85949e-06
1.61717e-06
1.61253e-06
2.85723e-06
1.41648e-06
2.10596e-06
1.27953e-06
2.36575e-06
1.27892e-06
2.36496e-06
1.4154e-06
1.40971e-06
1.27366e-06
2.36184e-06
2.1033e-06
1.41232e-06
1.27406e-06
2.36256e-06
1.61861e-06
2.03244e-06
3.47514e-06
2.8605e-06
2.86037e-06
2.0321e-06
1.61609e-06
1.61191e-06
2.85738e-06
2.02816e-06
3.4725e-06
1.61371e-06
2.85761e-06
2.02847e-06
1.41734e-06
2.10596e-06
1.27958e-06
2.36591e-06
1.27895e-06
2.36522e-06
1.41475e-06
2.66545e-06
1.14351e-06
1.76355e-06
1.76367e-06
2.66447e-06
1.76396e-06
1.76403e-06
1.33487e-07
2.30094e-07
2.30134e-07
3.57888e-07
3.5173e-07
2.27878e-07
2.27889e-07
3.51061e-07
2.27817e-07
2.27906e-07
2.27778e-07
2.27863e-07
3.52093e-07
2.27815e-07
2.27817e-07
3.51285e-07
3.57521e-07
3.7665e-07
2.30153e-07
2.30205e-07
2.37936e-07
2.37941e-07
3.57635e-07
3.76573e-07
2.30173e-07
2.30217e-07
2.37835e-07
2.37954e-07
2.30173e-07
2.37812e-07
2.37906e-07
3.56913e-07
3.77506e-07
2.30127e-07
2.37856e-07
2.37858e-07
3.77081e-07
1.34156e-07
1.34152e-07
1.34163e-07
1.34157e-07
3.68109e-06
8.90945e-06
3.65244e-06
8.91407e-06
1.84695e-05
1.84616e-05
3.68135e-06
8.91132e-06
3.65255e-06
8.916e-06
1.33481e-07
1.33491e-07
1.33485e-07
1.31783e-07
1.31779e-07
1.31791e-07
1.31786e-07
1.15795e-06
2.79809e-06
1.58237e-07
2.32536e-07
1.12923e-06
2.82293e-06
1.58441e-07
1.84709e-05
1.8463e-05
1.15787e-06
1.5823e-07
2.79949e-06
2.32576e-07
1.12949e-06
1.58442e-07
2.82164e-06
5.13701e-06
5.13896e-06
3.63972e-07
5.14663e-06
5.14863e-06
1.84754e-05
1.84838e-05
1.84774e-05
1.84858e-05
3.45812e-07
5.12801e-06
5.13009e-06
5.11719e-06
5.11874e-06
3.60351e-06
8.90829e-06
8.90338e-06
3.63545e-06
3.60354e-06
8.90968e-06
8.90401e-06
3.63551e-06
1.08725e-06
2.25656e-07
2.78494e-06
1.58122e-07
2.76148e-06
1.58079e-07
1.11444e-06
1.08691e-06
2.257e-07
2.78543e-06
1.58125e-07
2.76174e-06
1.58085e-07
1.1153e-06
1.84765e-05
1.84848e-05
3.45708e-07
5.13145e-06
5.12948e-06
5.11743e-06
5.1154e-06
1.84749e-05
1.84832e-05
3.60362e-06
8.91018e-06
8.90526e-06
3.63584e-06
1.08749e-06
2.25666e-07
2.78546e-06
1.58133e-07
2.76182e-06
1.58086e-07
1.11485e-06
3.60276e-06
8.91002e-06
8.90435e-06
3.63616e-06
1.08728e-06
2.25713e-07
1.58129e-07
2.78688e-06
1.58086e-07
2.76017e-06
1.11479e-06
1.08656e-06
2.25594e-07
2.7861e-06
1.58129e-07
2.75957e-06
1.58086e-07
1.11565e-06
3.6027e-06
8.90974e-06
8.9041e-06
3.63622e-06
1.0872e-06
2.25667e-07
1.58132e-07
2.78638e-06
1.5809e-07
2.75973e-06
1.11469e-06
3.60338e-06
8.90949e-06
8.90375e-06
3.63563e-06
1.8478e-05
1.84863e-05
3.45078e-07
5.12988e-06
5.12833e-06
5.11892e-06
5.11724e-06
1.84762e-05
1.84847e-05
1.08699e-06
2.25633e-07
1.58126e-07
2.7849e-06
1.58084e-07
2.76125e-06
1.11545e-06
1.0868e-06
2.25622e-07
1.58124e-07
2.78538e-06
1.58082e-07
2.76193e-06
1.11567e-06
3.60316e-06
8.90921e-06
8.90427e-06
3.6366e-06
3.60364e-06
8.91036e-06
8.90546e-06
3.63603e-06
3.45912e-07
5.12817e-06
5.13018e-06
5.11713e-06
5.11912e-06
1.84763e-05
1.84847e-05
1.84778e-05
1.84863e-05
1.84684e-05
1.84603e-05
1.84703e-05
1.84623e-05
5.13699e-06
5.13856e-06
3.63535e-07
5.14619e-06
5.14848e-06
1.84461e-05
1.84535e-05
1.84476e-05
1.84555e-05
3.70409e-07
5.16381e-06
5.16553e-06
5.155e-06
5.1565e-06
3.68116e-06
8.91008e-06
3.65252e-06
8.91552e-06
1.15711e-06
2.7994e-06
1.58228e-07
2.3264e-07
1.12992e-06
2.8214e-06
1.58433e-07
1.15783e-06
2.79973e-06
1.58237e-07
2.32652e-07
1.12937e-06
2.82198e-06
1.5844e-07
3.69632e-06
8.91962e-06
8.91518e-06
3.72157e-06
3.69637e-06
8.92102e-06
8.91586e-06
3.72193e-06
1.17227e-06
2.35178e-07
2.85615e-06
1.59097e-07
2.83538e-06
1.58727e-07
1.19935e-06
1.17183e-06
2.35234e-07
2.85665e-06
1.59102e-07
2.83575e-06
1.58735e-07
1.19937e-06
5.13738e-06
5.13552e-06
3.63616e-07
5.14982e-06
5.14782e-06
1.84678e-05
1.84598e-05
1.84472e-05
1.84547e-05
3.6998e-07
5.16682e-06
5.16448e-06
5.1554e-06
5.15354e-06
1.84453e-05
1.84529e-05
1.15718e-06
2.79979e-06
1.58237e-07
2.32569e-07
1.13004e-06
2.82201e-06
1.58449e-07
3.68159e-06
8.91041e-06
3.65201e-06
8.91586e-06
1.15779e-06
1.58242e-07
2.79868e-06
2.32667e-07
1.12994e-06
1.58443e-07
2.8234e-06
3.69646e-06
8.92145e-06
8.91709e-06
3.72193e-06
1.1725e-06
2.35203e-07
2.85653e-06
1.59114e-07
2.83582e-06
1.58737e-07
1.19952e-06
3.69604e-06
8.92135e-06
8.91618e-06
3.72245e-06
1.17196e-06
2.35248e-07
1.59107e-07
2.85798e-06
1.58741e-07
2.83477e-06
1.19991e-06
3.68191e-06
8.91013e-06
3.65189e-06
8.91557e-06
1.15721e-06
1.58242e-07
2.79819e-06
2.32624e-07
1.1298e-06
1.58444e-07
2.82296e-06
3.68113e-06
8.90986e-06
3.65238e-06
8.91532e-06
1.17179e-06
2.35109e-07
2.85731e-06
1.59101e-07
2.83408e-06
1.58735e-07
1.20008e-06
3.69579e-06
8.92104e-06
8.91589e-06
3.72276e-06
1.17218e-06
2.35197e-07
1.59107e-07
2.85578e-06
1.5874e-07
2.83432e-06
1.19946e-06
3.69625e-06
8.92079e-06
8.91562e-06
3.72175e-06
5.13879e-06
5.13691e-06
3.64202e-07
5.14824e-06
5.14666e-06
1.84692e-05
1.84612e-05
1.84486e-05
1.84561e-05
3.69654e-07
5.16606e-06
5.16371e-06
5.15674e-06
5.15481e-06
1.84467e-05
1.84543e-05
1.15723e-06
1.58235e-07
2.7999e-06
2.32578e-07
1.12947e-06
1.58438e-07
2.82201e-06
3.68213e-06
8.91031e-06
3.652e-06
8.91511e-06
3.68152e-06
8.91148e-06
3.65262e-06
8.91618e-06
1.17202e-06
2.35156e-07
1.59104e-07
2.8562e-06
1.58727e-07
2.83543e-06
1.20006e-06
1.17241e-06
2.35148e-07
1.59101e-07
2.8567e-06
1.58732e-07
2.83584e-06
1.19956e-06
3.69602e-06
8.92083e-06
8.91587e-06
3.72223e-06
3.69646e-06
8.92166e-06
8.91725e-06
3.72224e-06
1.84693e-05
1.84613e-05
1.84709e-05
1.84628e-05
3.70088e-07
5.16366e-06
5.16563e-06
5.15482e-06
5.15676e-06
1.84468e-05
1.84544e-05
1.84483e-05
1.8456e-05
1.21312e-05
3.67501e-06
1.06755e-05
4.49154e-06
1.06721e-05
4.4866e-06
1.21341e-05
2.24358e-05
7.21548e-06
8.91122e-06
2.24342e-05
7.21499e-06
1.21309e-05
3.65902e-06
1.06668e-05
4.47116e-06
1.21278e-05
1.06702e-05
4.47656e-06
2.24246e-05
7.21633e-06
8.91236e-06
7.21704e-06
2.24261e-05
1.8469e-05
1.8462e-05
1.21315e-05
3.67519e-06
4.49185e-06
1.06761e-05
4.4869e-06
1.06727e-05
1.21345e-05
2.24362e-05
7.21731e-06
8.91313e-06
2.24349e-05
7.21695e-06
1.21312e-05
3.65916e-06
4.47141e-06
1.06675e-05
1.21281e-05
4.47673e-06
1.06708e-05
2.24252e-05
7.21827e-06
8.91425e-06
7.21885e-06
2.24265e-05
1.84704e-05
1.84634e-05
9.7312e-06
2.19131e-05
2.19125e-05
2.19128e-05
2.19122e-05
9.72949e-06
3.96212e-06
1.92658e-06
9.03734e-06
5.13762e-06
3.95864e-06
1.93352e-06
9.04287e-06
3.97027e-06
1.92859e-06
9.04254e-06
5.13962e-06
3.96431e-06
1.93506e-06
9.04731e-06
9.72904e-06
2.19228e-05
2.19222e-05
9.73062e-06
2.19231e-05
2.19225e-05
3.97484e-06
9.05009e-06
5.14613e-06
1.95442e-06
1.94826e-06
9.04473e-06
3.97825e-06
3.98078e-06
9.05454e-06
5.14808e-06
1.95621e-06
1.94992e-06
9.04993e-06
3.98615e-06
1.8476e-05
1.84832e-05
1.8478e-05
1.84852e-05
9.72707e-06
2.19424e-05
2.19425e-05
9.72839e-06
2.19427e-05
2.19429e-05
3.94043e-06
1.91169e-06
5.12763e-06
9.03501e-06
9.02937e-06
1.90524e-06
3.94628e-06
3.94782e-06
1.91354e-06
5.12914e-06
9.0404e-06
9.03468e-06
1.90637e-06
3.95179e-06
3.92912e-06
9.0214e-06
1.88306e-06
5.11785e-06
3.92255e-06
9.02725e-06
1.88953e-06
3.93575e-06
9.02677e-06
1.88416e-06
5.11993e-06
3.92962e-06
9.03264e-06
1.89152e-06
9.72949e-06
2.19325e-05
2.19327e-05
2.19322e-05
2.19323e-05
9.72802e-06
1.2124e-05
1.06569e-05
4.43746e-06
3.61089e-06
1.21209e-05
1.06601e-05
4.44247e-06
2.24438e-05
8.90645e-06
7.21315e-06
2.24455e-05
7.2134e-06
2.24551e-05
7.21082e-06
8.90528e-06
2.24534e-05
7.21077e-06
1.21244e-05
3.62845e-06
1.0665e-05
4.46017e-06
1.21275e-05
1.06617e-05
4.45489e-06
1.21241e-05
1.0657e-05
4.4371e-06
3.61106e-06
1.2121e-05
1.06602e-05
4.44319e-06
2.24446e-05
8.90705e-06
7.21538e-06
7.21546e-06
2.24461e-05
2.24557e-05
7.21298e-06
8.90667e-06
2.24541e-05
7.21309e-06
1.21245e-05
3.62869e-06
1.06651e-05
4.46087e-06
1.06619e-05
4.45493e-06
1.21276e-05
1.84771e-05
1.84842e-05
9.72693e-06
2.19421e-05
2.19428e-05
9.72823e-06
2.19424e-05
2.19431e-05
3.94817e-06
1.91308e-06
5.12787e-06
9.03981e-06
1.9069e-06
9.03492e-06
3.95331e-06
3.94032e-06
1.91182e-06
5.126e-06
9.03504e-06
9.0301e-06
1.90446e-06
3.94614e-06
3.93451e-06
9.02697e-06
1.88465e-06
5.12131e-06
1.89123e-06
3.93042e-06
9.03204e-06
3.92897e-06
9.02214e-06
1.88195e-06
5.11928e-06
3.92242e-06
9.02731e-06
1.88986e-06
9.72936e-06
2.19322e-05
2.19329e-05
2.19319e-05
2.19326e-05
9.72789e-06
1.84754e-05
1.84826e-05
1.21243e-05
4.43769e-06
1.06575e-05
3.61109e-06
1.21212e-05
4.44272e-06
1.06607e-05
2.24445e-05
8.90833e-06
7.2151e-06
2.24458e-05
7.21532e-06
2.24555e-05
7.21289e-06
8.90718e-06
2.2454e-05
7.21267e-06
1.21247e-05
3.62853e-06
4.46055e-06
1.06656e-05
1.21278e-05
4.45509e-06
1.06624e-05
1.21246e-05
1.0657e-05
4.43765e-06
3.61155e-06
1.21214e-05
1.0661e-05
4.44256e-06
2.24443e-05
8.90738e-06
7.2135e-06
7.21376e-06
2.2446e-05
2.24556e-05
7.21125e-06
8.907e-06
2.24538e-05
7.21111e-06
1.21249e-05
3.62811e-06
1.06661e-05
4.46003e-06
1.06615e-05
4.45515e-06
1.2128e-05
1.21238e-05
4.43695e-06
1.06568e-05
3.61142e-06
1.21206e-05
4.44315e-06
1.06608e-05
2.24434e-05
8.90712e-06
7.21469e-06
7.21476e-06
2.24449e-05
2.24545e-05
7.21227e-06
8.90673e-06
2.2453e-05
7.21238e-06
1.21242e-05
3.62804e-06
4.46026e-06
1.06659e-05
4.45458e-06
1.06614e-05
1.21273e-05
1.21242e-05
1.06571e-05
4.43673e-06
3.61082e-06
1.2121e-05
1.06603e-05
4.4427e-06
2.24437e-05
8.90681e-06
7.213e-06
7.21309e-06
2.24452e-05
2.24548e-05
7.21067e-06
8.90646e-06
2.24533e-05
7.21072e-06
1.21245e-05
3.62844e-06
1.06652e-05
4.46033e-06
1.0662e-05
4.45452e-06
1.21276e-05
1.84785e-05
1.84857e-05
9.72777e-06
2.19433e-05
2.19434e-05
9.72908e-06
2.19436e-05
2.19437e-05
3.94869e-06
1.91392e-06
5.1294e-06
9.04027e-06
1.90643e-06
9.03459e-06
3.9524e-06
3.94174e-06
1.9121e-06
5.12757e-06
9.03532e-06
9.02972e-06
1.905e-06
3.94542e-06
3.93474e-06
9.02669e-06
1.88389e-06
5.1197e-06
1.89169e-06
3.93087e-06
9.03252e-06
3.92776e-06
9.02185e-06
1.88288e-06
5.11826e-06
3.92398e-06
9.02758e-06
1.89003e-06
9.7302e-06
2.19334e-05
2.19335e-05
2.19331e-05
2.19332e-05
9.72873e-06
1.84769e-05
1.8484e-05
1.21241e-05
4.43674e-06
1.06567e-05
3.61167e-06
1.21209e-05
4.44303e-06
1.0661e-05
2.24438e-05
8.90735e-06
7.21296e-06
7.21323e-06
2.24452e-05
2.24548e-05
7.21082e-06
8.9062e-06
2.24533e-05
7.21056e-06
1.21244e-05
3.62819e-06
4.46036e-06
1.06661e-05
4.45453e-06
1.06613e-05
1.21276e-05
1.21241e-05
4.43727e-06
1.06574e-05
3.61123e-06
1.21209e-05
4.44315e-06
1.06607e-05
2.24439e-05
8.90852e-06
7.21498e-06
7.2152e-06
2.24452e-05
2.24549e-05
7.2128e-06
8.90736e-06
2.24534e-05
7.21259e-06
1.21244e-05
3.6287e-06
4.4604e-06
1.06656e-05
4.45495e-06
1.06623e-05
1.21276e-05
9.72739e-06
2.19431e-05
2.19425e-05
9.72868e-06
2.19434e-05
2.19428e-05
3.94151e-06
1.91231e-06
5.12745e-06
9.03537e-06
3.9453e-06
1.9047e-06
9.0297e-06
3.94744e-06
1.91341e-06
5.12941e-06
9.03982e-06
3.9532e-06
1.90675e-06
9.0349e-06
3.92762e-06
9.02182e-06
1.88218e-06
5.11831e-06
3.92375e-06
1.88997e-06
9.02764e-06
3.93606e-06
9.02696e-06
1.88456e-06
5.12033e-06
3.92954e-06
1.8913e-06
9.0321e-06
9.72979e-06
2.19332e-05
2.19326e-05
9.72834e-06
2.19329e-05
2.19323e-05
1.84769e-05
1.84841e-05
1.84785e-05
1.84856e-05
1.84678e-05
1.84609e-05
1.84697e-05
1.84628e-05
9.73094e-06
2.19124e-05
2.19126e-05
2.19121e-05
2.19122e-05
9.72918e-06
3.96331e-06
1.92715e-06
9.03702e-06
5.13722e-06
3.95739e-06
9.04249e-06
1.93305e-06
3.96893e-06
1.92839e-06
9.04234e-06
5.13937e-06
3.96543e-06
9.04792e-06
1.93475e-06
9.72872e-06
2.19221e-05
2.19222e-05
9.73035e-06
2.19224e-05
2.19226e-05
3.97371e-06
9.04973e-06
5.14631e-06
1.9543e-06
9.04441e-06
3.97927e-06
1.94846e-06
3.98177e-06
9.05515e-06
5.14784e-06
1.95584e-06
9.04972e-06
3.98516e-06
1.94998e-06
1.84462e-05
1.8453e-05
1.84483e-05
1.8455e-05
9.72937e-06
2.19022e-05
2.19023e-05
9.73131e-06
2.19027e-05
2.19023e-05
4.00391e-06
1.99637e-06
5.16329e-06
9.06463e-06
9.05872e-06
1.9892e-06
4.0116e-06
4.0141e-06
1.9957e-06
5.16553e-06
9.06779e-06
9.06352e-06
1.99183e-06
4.01342e-06
3.99455e-06
9.05157e-06
1.96933e-06
5.15521e-06
3.98955e-06
9.05694e-06
1.97518e-06
4e-06
9.0569e-06
1.97085e-06
5.15721e-06
3.99758e-06
9.062e-06
1.97657e-06
9.73146e-06
2.18935e-05
2.18919e-05
2.18928e-05
2.18918e-05
9.72942e-06
1.21313e-05
3.67512e-06
1.06757e-05
4.49211e-06
1.06723e-05
4.48695e-06
1.21344e-05
2.24365e-05
7.21747e-06
8.91266e-06
2.24351e-05
7.21717e-06
1.21311e-05
3.65924e-06
1.0667e-05
4.47137e-06
1.06704e-05
1.2128e-05
4.47665e-06
2.24255e-05
7.21851e-06
8.91301e-06
7.21903e-06
2.24268e-05
1.21374e-05
1.06774e-05
4.50127e-06
3.70207e-06
1.21344e-05
1.06809e-05
4.50603e-06
2.24055e-05
8.91793e-06
7.21776e-06
7.21884e-06
2.24069e-05
2.24166e-05
7.21815e-06
8.91687e-06
2.24149e-05
7.21729e-06
1.21376e-05
3.71662e-06
1.06863e-05
4.51914e-06
1.06829e-05
4.51478e-06
1.21404e-05
1.21375e-05
1.06777e-05
4.50156e-06
3.7023e-06
1.21346e-05
1.06811e-05
4.50603e-06
2.24062e-05
8.91862e-06
7.21991e-06
7.22083e-06
2.24075e-05
2.24172e-05
7.22014e-06
8.91832e-06
2.24159e-05
7.21941e-06
1.21377e-05
3.71666e-06
1.06865e-05
4.51896e-06
1.06831e-05
4.51536e-06
1.21405e-05
9.73078e-06
2.19121e-05
2.19128e-05
2.19118e-05
2.19125e-05
9.72907e-06
3.97011e-06
1.92858e-06
9.04255e-06
5.14072e-06
9.04731e-06
3.96419e-06
1.93534e-06
3.96318e-06
1.92646e-06
9.03773e-06
5.1387e-06
1.93347e-06
3.95727e-06
9.0425e-06
9.7286e-06
2.19219e-05
2.19225e-05
2.19221e-05
9.7302e-06
2.19228e-05
3.98069e-06
9.05455e-06
5.14657e-06
1.95646e-06
9.04998e-06
1.94952e-06
3.98611e-06
3.97358e-06
9.04973e-06
5.14471e-06
1.95467e-06
1.9478e-06
9.04513e-06
3.97915e-06
1.84673e-05
1.84603e-05
1.84475e-05
1.84543e-05
9.72931e-06
2.19019e-05
2.19025e-05
9.73116e-06
2.19022e-05
2.19029e-05
4.01259e-06
1.99748e-06
5.16387e-06
9.06837e-06
1.99056e-06
9.06408e-06
4.01545e-06
4.00444e-06
1.99557e-06
5.16268e-06
9.06358e-06
9.05918e-06
1.98908e-06
4.00976e-06
4.00019e-06
9.05712e-06
1.9704e-06
5.15834e-06
1.9772e-06
3.99679e-06
9.06158e-06
3.99484e-06
9.05226e-06
1.96874e-06
5.15633e-06
3.98935e-06
9.05676e-06
1.97527e-06
9.7313e-06
2.18924e-05
2.1893e-05
2.18921e-05
2.18927e-05
9.72934e-06
1.84457e-05
1.84525e-05
1.21317e-05
3.6745e-06
1.06767e-05
4.49139e-06
1.06718e-05
4.48723e-06
1.21347e-05
2.24364e-05
7.21577e-06
8.913e-06
2.24347e-05
7.21532e-06
1.21314e-05
3.65953e-06
1.06665e-05
4.47174e-06
1.06714e-05
1.21284e-05
4.47614e-06
2.24251e-05
7.21666e-06
8.91333e-06
7.21734e-06
2.24267e-05
1.21376e-05
4.5015e-06
1.06781e-05
3.70226e-06
1.21347e-05
4.50608e-06
1.06816e-05
2.24059e-05
8.91986e-06
7.21969e-06
7.22065e-06
2.2407e-05
2.24168e-05
7.21995e-06
8.9188e-06
2.24156e-05
7.21918e-06
1.21378e-05
3.71665e-06
4.51948e-06
1.06869e-05
4.51506e-06
1.06835e-05
1.21406e-05
1.21379e-05
1.06772e-05
4.50181e-06
3.70257e-06
1.21349e-05
1.06821e-05
4.50556e-06
2.24057e-05
8.91893e-06
7.2181e-06
7.21917e-06
2.24072e-05
2.2417e-05
7.21846e-06
8.91864e-06
2.24154e-05
7.21758e-06
1.2138e-05
3.71617e-06
1.06875e-05
4.51885e-06
1.06826e-05
4.51548e-06
1.21408e-05
1.2131e-05
3.67426e-06
4.49173e-06
1.06766e-05
4.48664e-06
1.06716e-05
1.2134e-05
2.24352e-05
7.21679e-06
8.91271e-06
7.21651e-06
2.24338e-05
1.21307e-05
3.65958e-06
4.47126e-06
1.06663e-05
4.4765e-06
1.21276e-05
1.06712e-05
2.24242e-05
7.21786e-06
8.91304e-06
7.21836e-06
2.24256e-05
1.21313e-05
3.67491e-06
1.06757e-05
4.49101e-06
1.06723e-05
4.48674e-06
1.21343e-05
2.24355e-05
7.2151e-06
8.91246e-06
2.24341e-05
7.2148e-06
1.2131e-05
3.65899e-06
1.06671e-05
4.47102e-06
1.2128e-05
1.06704e-05
4.47605e-06
2.24245e-05
7.21613e-06
8.91278e-06
7.21666e-06
2.24258e-05
1.21371e-05
4.50142e-06
1.0677e-05
3.70271e-06
1.21342e-05
4.50538e-06
1.0682e-05
2.24048e-05
8.91862e-06
7.2193e-06
7.22019e-06
2.24061e-05
2.24158e-05
7.21949e-06
8.91836e-06
2.24145e-05
7.21878e-06
1.21373e-05
3.71598e-06
4.51891e-06
1.06874e-05
4.51528e-06
1.06824e-05
1.21401e-05
1.21375e-05
1.06777e-05
4.50143e-06
3.7021e-06
1.21346e-05
1.06812e-05
4.50535e-06
2.24051e-05
8.91838e-06
7.21757e-06
7.21848e-06
2.24064e-05
2.24161e-05
7.21778e-06
8.91809e-06
2.24148e-05
7.21705e-06
1.21377e-05
3.71651e-06
1.06865e-05
4.5186e-06
1.06831e-05
4.51513e-06
1.21405e-05
9.7316e-06
2.19133e-05
2.19134e-05
2.1913e-05
2.19131e-05
9.72987e-06
3.96913e-06
1.92836e-06
9.04226e-06
5.13914e-06
9.04777e-06
3.96571e-06
1.93524e-06
3.96217e-06
1.92694e-06
9.03736e-06
5.13758e-06
1.93324e-06
3.95876e-06
9.04281e-06
9.72942e-06
2.1923e-05
2.19231e-05
2.19233e-05
9.73102e-06
2.19234e-05
3.98208e-06
9.05502e-06
5.14806e-06
1.95601e-06
9.04967e-06
1.94991e-06
3.98534e-06
3.9751e-06
9.0501e-06
5.14615e-06
1.95468e-06
1.9484e-06
9.04473e-06
3.97841e-06
1.84686e-05
1.84617e-05
1.84489e-05
1.84557e-05
9.73007e-06
2.1903e-05
2.19031e-05
9.7319e-06
2.19034e-05
2.19035e-05
4.0129e-06
1.99695e-06
5.16554e-06
9.06884e-06
1.99147e-06
9.06376e-06
4.01574e-06
4.00591e-06
1.99559e-06
5.16354e-06
9.0639e-06
9.05882e-06
1.98962e-06
4.00883e-06
4.00069e-06
9.05682e-06
1.97093e-06
5.15709e-06
1.97675e-06
3.99773e-06
9.06204e-06
3.99376e-06
9.05191e-06
1.96926e-06
5.15538e-06
3.99075e-06
9.05712e-06
1.97537e-06
9.73203e-06
2.18935e-05
2.18936e-05
2.18932e-05
2.18933e-05
9.7301e-06
1.84471e-05
1.84539e-05
1.21313e-05
3.67453e-06
4.49172e-06
1.06767e-05
4.48657e-06
1.06718e-05
1.21343e-05
2.24356e-05
7.21521e-06
8.91218e-06
7.21483e-06
2.24342e-05
1.2131e-05
3.65968e-06
4.47111e-06
1.06665e-05
4.47637e-06
1.21279e-05
1.06714e-05
2.24245e-05
7.21616e-06
8.91322e-06
7.21672e-06
2.24259e-05
1.21313e-05
3.67517e-06
4.49174e-06
1.06761e-05
4.48693e-06
1.06727e-05
1.21342e-05
2.24356e-05
7.21717e-06
8.91331e-06
2.24343e-05
7.21681e-06
1.2131e-05
3.6593e-06
4.47153e-06
1.06674e-05
1.21279e-05
4.47662e-06
1.06708e-05
2.24246e-05
7.21813e-06
8.91442e-06
7.21869e-06
2.24259e-05
1.21375e-05
4.50128e-06
1.06772e-05
3.70212e-06
1.21345e-05
4.50531e-06
1.06821e-05
2.24052e-05
8.91838e-06
7.21758e-06
7.21849e-06
2.24064e-05
2.24162e-05
7.21779e-06
8.91803e-06
2.24149e-05
7.21706e-06
1.21376e-05
3.71655e-06
4.51879e-06
1.06875e-05
4.51519e-06
1.06826e-05
1.21404e-05
1.21374e-05
4.50155e-06
1.06781e-05
3.70248e-06
1.21345e-05
4.50614e-06
1.06816e-05
2.24053e-05
8.92001e-06
7.21954e-06
7.22048e-06
2.24065e-05
2.24162e-05
7.21979e-06
8.91897e-06
2.2415e-05
7.21904e-06
1.21376e-05
3.71663e-06
4.51937e-06
1.0687e-05
4.51506e-06
1.06835e-05
1.21404e-05
1.84687e-05
1.84618e-05
1.84702e-05
1.84634e-05
9.72972e-06
2.19029e-05
2.19023e-05
9.73154e-06
2.19032e-05
2.19026e-05
4.00572e-06
1.99553e-06
5.16352e-06
9.0639e-06
1.98953e-06
9.05878e-06
4.00869e-06
4.01239e-06
1.99701e-06
5.16544e-06
9.06834e-06
1.99116e-06
9.06402e-06
4.01546e-06
3.99359e-06
9.05186e-06
1.9691e-06
5.15534e-06
3.99054e-06
1.97533e-06
9.0571e-06
4.00054e-06
9.05709e-06
1.9708e-06
5.15734e-06
3.99683e-06
1.97692e-06
9.06156e-06
9.73168e-06
2.18934e-05
2.18928e-05
2.1893e-05
2.18925e-05
9.72976e-06
1.84472e-05
1.84539e-05
1.84488e-05
1.84555e-05
1.17587e-07
1.17584e-07
1.32869e-07
1.16482e-07
1.16481e-07
1.09882e-07
1.11176e-07
1.73971e-06
7.67064e-07
7.67217e-07
3.57442e-07
1.73426e-06
7.70173e-07
7.70556e-07
1.71076e-06
3.51871e-07
7.5531e-07
7.55477e-07
7.51987e-07
7.52389e-07
1.7186e-06
1.71103e-06
3.51478e-07
7.55528e-07
7.56052e-07
7.52286e-07
7.511e-07
1.71723e-06
1.71118e-06
3.51025e-07
7.56465e-07
7.55424e-07
7.51538e-07
7.52038e-07
1.71742e-06
1.71169e-06
3.51888e-07
7.5522e-07
7.55445e-07
1.71747e-06
7.52067e-07
7.52233e-07
1.74113e-06
7.66879e-07
7.67212e-07
3.57139e-07
1.73312e-06
7.70133e-07
7.705e-07
1.79789e-06
3.77013e-07
8.16106e-07
8.1536e-07
8.12058e-07
8.13115e-07
1.80537e-06
1.7399e-06
7.67117e-07
7.66108e-07
3.57637e-07
7.70884e-07
1.73385e-06
7.70456e-07
1.79898e-06
3.76791e-07
8.15795e-07
8.16529e-07
8.12794e-07
8.11437e-07
1.80424e-06
1.7397e-06
7.66544e-07
7.66909e-07
3.57941e-07
7.70196e-07
1.73423e-06
7.71291e-07
1.7991e-06
3.76346e-07
8.17019e-07
8.15751e-07
8.11807e-07
8.12528e-07
1.80464e-06
1.79908e-06
3.77091e-07
8.15554e-07
8.1597e-07
8.12573e-07
8.12774e-07
1.80411e-06
1.34876e-07
1.18726e-07
1.18724e-07
1.19903e-07
1.199e-07
1.13848e-07
1.12497e-07
1.3487e-07
1.18725e-07
1.18724e-07
1.19902e-07
1.19901e-07
1.13848e-07
1.12497e-07
1.3488e-07
1.18729e-07
1.18726e-07
1.19905e-07
1.19902e-07
1.13849e-07
1.12498e-07
1.34873e-07
1.18729e-07
1.18724e-07
1.19905e-07
1.199e-07
1.13849e-07
1.12498e-07
1.17586e-07
1.17585e-07
1.32865e-07
1.16481e-07
1.1648e-07
1.09882e-07
1.11176e-07
1.1759e-07
1.17586e-07
1.32876e-07
1.16486e-07
1.16482e-07
1.09883e-07
1.11177e-07
1.1759e-07
1.17585e-07
1.32871e-07
1.16485e-07
1.1648e-07
1.09883e-07
1.11177e-07
1.323e-07
1.14381e-07
1.1438e-07
1.15415e-07
1.15412e-07
1.08618e-07
1.0738e-07
1.32294e-07
1.1438e-07
1.14378e-07
1.15414e-07
1.15413e-07
1.08618e-07
1.0738e-07
1.32304e-07
1.14385e-07
1.14381e-07
1.15419e-07
1.15414e-07
1.08619e-07
1.07381e-07
1.32299e-07
1.14384e-07
1.14379e-07
1.15418e-07
1.15413e-07
1.08619e-07
1.07381e-07
4.75992e-07
1.15054e-06
1.47564e-06
3.88956e-07
1.46815e-06
3.86692e-07
4.78812e-07
6.55623e-07
9.99777e-07
2.07449e-06
2.80465e-06
6.54552e-07
1.00562e-06
2.0818e-06
4.6981e-07
1.13661e-06
1.44617e-06
3.7957e-07
4.67116e-07
1.45354e-06
3.81832e-07
6.66086e-07
2.10255e-06
2.8165e-06
1.02328e-06
1.01703e-06
2.09524e-06
6.67343e-07
4.75766e-07
1.15084e-06
3.88176e-07
1.47468e-06
3.87256e-07
1.46892e-06
4.78621e-07
6.5563e-07
1.00005e-06
2.07453e-06
2.80359e-06
6.5459e-07
1.00569e-06
2.08102e-06
4.69569e-07
1.13655e-06
3.80121e-07
1.44693e-06
4.66818e-07
3.81085e-07
1.45283e-06
6.66139e-07
2.10175e-06
2.81775e-06
1.02331e-06
1.01717e-06
2.09513e-06
6.67351e-07
1.75622e-06
3.64057e-07
7.85254e-07
7.85708e-07
7.82199e-07
7.82374e-07
1.76165e-06
1.69593e-06
3.45523e-07
7.37134e-07
7.37557e-07
1.68769e-06
7.40406e-07
7.40578e-07
4.51574e-07
1.40209e-06
3.66071e-07
1.09331e-06
4.51347e-07
1.40838e-06
3.68125e-07
6.42991e-07
9.88211e-07
2.78084e-06
2.05897e-06
9.83829e-07
2.054e-06
6.43936e-07
6.3237e-07
2.03202e-06
9.66879e-07
2.76569e-06
9.71241e-07
6.31436e-07
2.03752e-06
4.59466e-07
1.1086e-06
1.43055e-06
3.74846e-07
1.42451e-06
3.72784e-07
4.59827e-07
4.52754e-07
1.40177e-06
3.66694e-07
1.09385e-06
4.4997e-07
1.40911e-06