/*--------------------------------*- C++ -*----------------------------------*\
| =========                 |                                                 |
| \\      /  F ield         | OpenFOAM: The Open Source CFD Toolbox           |
|  \\    /   O peration     | Version:  v1912                                 |
|   \\  /    A nd           | Website:  www.openfoam.com                      |
|    \\/     M anipulation  |                                                 |
\*---------------------------------------------------------------------------*/
FoamFile
{
    version     2.0;
    format      ascii;
    class       volScalarField;
    location    "0.95";
    object      nut;
}
// * * * * * * * * * * * * * * * * * * * * * * * * * * * * * * * * * * * * * //

dimensions      [0 2 -1 0 0 0 0];


internalField   nonuniform List<scalar> 
171728
(
6.83118e-07
7.22111e-07
7.22586e-07
2.8417e-07
4.54577e-08
5.44332e-08
5.4617e-08
7.43852e-08
3.52357e-09
4.71812e-09
4.71242e-09
7.25202e-08
9.21351e-10
2.87125e-09
2.8485e-09
7.25996e-08
9.42284e-10
2.7147e-09
2.71909e-09
7.26035e-08
9.41137e-10
2.70991e-09
2.71383e-09
7.26032e-08
9.31681e-10
2.71803e-09
2.71227e-09
7.26034e-08
9.42425e-10
2.71766e-09
2.71547e-09
7.26033e-08
9.47498e-10
2.7162e-09
2.70947e-09
7.26047e-08
9.43403e-10
2.71498e-09
2.71228e-09
7.26037e-08
9.44273e-10
2.71414e-09
2.71539e-09
7.26038e-08
9.53341e-10
2.71149e-09
2.71444e-09
7.26047e-08
9.58221e-10
2.73617e-09
2.7148e-09
7.26042e-08
9.62894e-10
2.73902e-09
2.7133e-09
7.26036e-08
9.38489e-10
2.70725e-09
2.71614e-09
7.26043e-08
9.41685e-10
2.70837e-09
2.71174e-09
7.26044e-08
9.50444e-10
2.71665e-09
2.71478e-09
7.26046e-08
9.43007e-10
2.70906e-09
2.71416e-09
7.26043e-08
9.42804e-10
2.70172e-09
2.71427e-09
7.26032e-08
9.27368e-10
2.72838e-09
2.70854e-09
7.25984e-08
1.02997e-09
2.718e-09
2.71458e-09
7.26059e-08
9.44529e-10
2.71823e-09
2.71436e-09
7.26062e-08
9.47957e-10
2.71738e-09
2.71561e-09
7.26063e-08
9.47616e-10
2.71651e-09
2.71504e-09
7.26061e-08
9.49592e-10
2.71709e-09
2.71595e-09
7.26064e-08
9.48557e-10
2.71663e-09
2.71482e-09
7.26064e-08
9.4808e-10
2.71699e-09
2.71532e-09
7.26065e-08
9.48745e-10
2.71649e-09
2.71482e-09
7.26063e-08
9.48346e-10
2.71615e-09
2.71449e-09
7.26059e-08
9.48906e-10
2.71717e-09
2.71563e-09
7.26061e-08
9.47538e-10
2.71682e-09
2.71504e-09
7.26063e-08
9.48855e-10
2.71428e-09
2.71489e-09
7.26062e-08
9.49194e-10
2.71866e-09
2.71606e-09
7.26063e-08
9.47857e-10
2.71738e-09
2.71556e-09
7.26063e-08
9.4792e-10
2.71767e-09
2.7159e-09
7.26064e-08
9.48592e-10
2.7173e-09
2.7163e-09
7.2606e-08
9.49275e-10
2.71848e-09
2.7175e-09
7.26065e-08
9.49009e-10
2.71761e-09
2.71663e-09
7.26069e-08
9.48767e-10
2.71801e-09
2.72246e-09
7.26068e-08
9.65846e-10
2.72497e-09
2.72193e-09
7.25923e-08
1.10029e-09
2.69864e-09
2.7173e-09
7.26059e-08
9.47681e-10
2.71256e-09
2.70976e-09
7.26066e-08
9.50541e-10
2.71685e-09
2.7095e-09
7.2607e-08
9.52061e-10
2.71579e-09
2.71063e-09
7.26072e-08
9.53513e-10
2.71538e-09
2.7138e-09
7.26074e-08
9.51907e-10
2.71487e-09
2.71091e-09
7.26077e-08
9.51698e-10
2.71468e-09
2.71459e-09
7.26082e-08
9.51455e-10
2.71466e-09
2.71696e-09
7.26083e-08
9.5188e-10
2.71554e-09
2.71794e-09
7.2608e-08
9.51947e-10
2.71506e-09
2.71749e-09
7.26079e-08
9.5224e-10
2.71483e-09
2.71788e-09
7.2608e-08
9.52814e-10
2.71508e-09
2.71645e-09
7.26081e-08
9.53138e-10
2.71583e-09
2.71723e-09
7.2608e-08
9.53535e-10
2.72331e-09
2.71713e-09
7.26081e-08
9.5539e-10
2.71485e-09
2.7183e-09
7.26079e-08
9.51822e-10
2.71355e-09
2.7152e-09
7.26046e-08
9.51108e-10
2.71732e-09
2.71471e-09
7.25973e-08
9.51162e-10
2.71741e-09
2.71431e-09
7.25971e-08
9.51232e-10
2.71798e-09
2.71502e-09
7.25976e-08
9.5129e-10
2.71783e-09
2.71409e-09
7.25977e-08
9.51117e-10
2.71808e-09
2.7155e-09
7.25975e-08
9.50814e-10
2.71789e-09
2.7147e-09
7.25978e-08
9.50564e-10
2.71783e-09
2.71468e-09
7.25973e-08
9.51541e-10
2.71753e-09
2.71463e-09
7.25975e-08
9.51431e-10
2.71858e-09
2.71548e-09
7.25977e-08
9.50485e-10
2.71824e-09
2.71512e-09
7.25975e-08
9.50761e-10
2.7168e-09
2.7137e-09
7.25976e-08
9.49841e-10
2.71684e-09
2.71408e-09
7.25979e-08
9.4593e-10
2.7164e-09
2.71478e-09
7.25982e-08
9.41872e-10
2.71818e-09
2.69659e-09
7.25998e-08
9.46477e-10
2.7187e-09
2.70996e-09
7.25956e-08
9.50911e-10
2.71793e-09
2.71499e-09
7.25977e-08
9.50695e-10
2.71814e-09
2.71465e-09
7.2598e-08
9.50674e-10
2.71715e-09
2.71332e-09
7.25973e-08
9.51466e-10
2.71778e-09
2.71362e-09
7.2597e-08
9.50974e-10
2.71749e-09
2.7135e-09
7.25968e-08
9.51211e-10
2.71808e-09
2.71392e-09
7.25975e-08
9.50961e-10
2.71788e-09
2.71405e-09
7.25973e-08
9.51406e-10
2.7172e-09
2.71405e-09
7.25973e-08
9.51575e-10
2.719e-09
2.7159e-09
7.25976e-08
9.50896e-10
2.71762e-09
2.71451e-09
7.25978e-08
9.5059e-10
2.71721e-09
2.71409e-09
7.25976e-08
9.50848e-10
2.71782e-09
2.71471e-09
7.25974e-08
9.52736e-10
2.71811e-09
2.715e-09
7.25978e-08
9.52426e-10
2.71767e-09
2.71455e-09
7.25976e-08
9.52775e-10
2.71784e-09
2.7152e-09
7.25975e-08
9.52799e-10
2.71795e-09
2.71503e-09
7.25981e-08
9.52076e-10
2.71689e-09
2.71405e-09
7.25977e-08
9.52326e-10
2.71757e-09
2.71429e-09
7.25975e-08
9.53103e-10
2.71827e-09
2.71504e-09
7.25977e-08
9.55703e-10
2.7175e-09
2.71284e-09
7.25997e-08
1.0298e-09
2.74157e-09
2.74755e-09
7.25984e-08
3.12949e-09
3.73784e-09
3.79582e-09
7.25541e-08
4.14969e-08
3.84032e-08
3.83488e-08
7.19232e-08
3.15978e-07
1.80869e-07
1.80907e-07
3.23456e-07
2.15802e-07
4.73444e-07
4.73657e-07
2.15809e-07
4.73483e-07
4.73628e-07
1.30057e-06
1.30058e-06
1.3006e-06
1.3006e-06
4.73309e-07
4.7342e-07
2.15653e-07
4.73291e-07
4.73487e-07
2.15612e-07
2.84237e-07
1.91402e-07
7.22546e-07
7.22377e-07
1.19432e-07
1.1937e-07
2.84153e-07
1.91262e-07
7.22415e-07
7.23008e-07
1.19585e-07
1.19501e-07
7.22808e-07
1.19454e-07
1.19364e-07
2.84198e-07
1.9137e-07
7.22478e-07
1.19537e-07
1.19505e-07
1.9139e-07
7.44364e-08
1.8672e-07
5.4508e-08
5.45242e-08
7.13228e-09
7.20699e-09
7.43926e-08
1.86796e-07
5.45323e-08
5.45277e-08
7.09532e-09
7.1563e-09
5.45214e-08
7.04184e-09
7.12136e-09
7.44493e-08
1.86757e-07
5.46588e-08
7.12135e-09
7.08155e-09
1.86757e-07
7.24421e-08
1.86496e-07
4.74575e-09
4.73434e-09
3.00821e-09
3.00394e-09
7.24425e-08
1.86496e-07
4.76366e-09
4.74314e-09
2.98924e-09
3.01184e-09
4.76082e-09
2.98856e-09
3.02232e-09
7.24905e-08
1.86514e-07
4.77489e-09
2.96246e-09
2.95839e-09
1.86479e-07
7.25773e-08
1.86481e-07
2.87752e-09
2.90988e-09
2.75807e-09
2.75408e-09
7.25583e-08
1.86469e-07
2.8369e-09
2.88487e-09
2.7219e-09
2.76204e-09
2.89616e-09
2.71905e-09
2.7522e-09
7.25934e-08
1.86494e-07
2.85669e-09
2.71022e-09
2.71341e-09
1.8645e-07
7.2583e-08
1.86481e-07
2.75453e-09
2.75146e-09
2.75186e-09
2.75528e-09
7.25669e-08
1.86463e-07
2.70634e-09
2.75812e-09
2.72683e-09
2.75235e-09
2.74634e-09
2.70676e-09
2.74212e-09
7.2593e-08
1.86493e-07
2.7093e-09
2.70045e-09
2.70275e-09
1.8645e-07
7.25826e-08
1.86482e-07
2.75324e-09
2.76412e-09
2.73783e-09
2.78406e-09
7.25706e-08
1.86474e-07
2.69647e-09
2.75318e-09
2.72248e-09
2.75106e-09
2.7416e-09
2.7206e-09
2.73931e-09
7.25927e-08
1.86497e-07
2.70415e-09
2.69844e-09
2.70126e-09
1.86453e-07
7.25863e-08
1.86484e-07
2.70863e-09
2.77622e-09
2.77226e-09
2.76379e-09
7.2562e-08
1.86474e-07
2.69162e-09
2.75264e-09
2.72748e-09
2.75191e-09
2.73912e-09
2.71766e-09
2.74034e-09
7.25927e-08
1.86496e-07
2.70327e-09
2.69966e-09
2.70346e-09
1.86451e-07
7.2587e-08
1.86488e-07
2.7519e-09
2.76604e-09
2.75205e-09
2.76501e-09
7.25595e-08
1.86473e-07
2.70252e-09
2.75424e-09
2.73059e-09
2.75351e-09
2.7409e-09
2.71807e-09
2.74118e-09
7.25926e-08
1.86495e-07
2.70661e-09
2.70054e-09
2.70449e-09
1.8645e-07
7.25658e-08
1.86484e-07
2.75185e-09
2.7644e-09
2.729e-09
2.74661e-09
7.25608e-08
1.86487e-07
2.70019e-09
2.7546e-09
2.71519e-09
2.75082e-09
2.74039e-09
2.71292e-09
2.7376e-09
7.25941e-08
1.86501e-07
2.70364e-09
2.69754e-09
2.70086e-09
1.86457e-07
7.25732e-08
1.86467e-07
2.73454e-09
2.7118e-09
2.77236e-09
2.70398e-09
7.25542e-08
1.86475e-07
2.70558e-09
2.75305e-09
2.71557e-09
2.75386e-09
2.73804e-09
2.71384e-09
2.74071e-09
7.2593e-08
1.86497e-07
2.70359e-09
2.70063e-09
2.70421e-09
1.86451e-07
7.25849e-08
1.86479e-07
2.79683e-09
2.7241e-09
2.75181e-09
2.70933e-09
7.2559e-08
1.86473e-07
2.7143e-09
2.75523e-09
2.71966e-09
2.75237e-09
2.74096e-09
2.71469e-09
2.73943e-09
7.25928e-08
1.86499e-07
2.70658e-09
2.70012e-09
2.70265e-09
1.86455e-07
7.25735e-08
1.86477e-07
2.75028e-09
2.69802e-09
2.74772e-09
2.70134e-09
7.25598e-08
1.86499e-07
2.71393e-09
2.75372e-09
2.71392e-09
2.75138e-09
2.73932e-09
2.72347e-09
2.74257e-09
7.25942e-08
1.86497e-07
2.70409e-09
2.70095e-09
2.70276e-09
1.86454e-07
7.25743e-08
1.86485e-07
2.74896e-09
2.71086e-09
2.74047e-09
2.77194e-09
7.25569e-08
1.86502e-07
2.70858e-09
2.75274e-09
2.70405e-09
2.7496e-09
2.74302e-09
2.73119e-09
2.74155e-09
7.25942e-08
1.86502e-07
2.70538e-09
2.69869e-09
2.70233e-09
1.86459e-07
7.25664e-08
1.8647e-07
2.74186e-09
2.77971e-09
2.77297e-09
2.75853e-09
7.25629e-08
1.86483e-07
2.70021e-09
2.75165e-09
2.69903e-09
2.75378e-09
2.74162e-09
2.71412e-09
2.74368e-09
7.25935e-08
1.86497e-07
2.70506e-09
2.70202e-09
2.70571e-09
1.86452e-07
7.2579e-08
1.86477e-07
2.7572e-09
2.7477e-09
2.75462e-09
2.81332e-09
7.25723e-08
1.86474e-07
2.71451e-09
2.75509e-09
2.71722e-09
2.74957e-09
2.74369e-09
2.71652e-09
2.73844e-09
7.25939e-08
1.86503e-07
2.70734e-09
2.69789e-09
2.70025e-09
1.86459e-07
7.25765e-08
1.86474e-07
2.75274e-09
2.7827e-09
2.75897e-09
2.76391e-09
7.25879e-08
1.86457e-07
2.71345e-09
2.75094e-09
2.71724e-09
2.75249e-09
2.73756e-09
2.71337e-09
2.74111e-09
7.25938e-08
1.86501e-07
2.70189e-09
2.70066e-09
2.70352e-09
1.86457e-07
7.25779e-08
1.86473e-07
2.74547e-09
2.76314e-09
2.76251e-09
2.75374e-09
7.25814e-08
1.86499e-07
2.71523e-09
2.75397e-09
2.71797e-09
2.75218e-09
2.74149e-09
2.71633e-09
2.74122e-09
7.2594e-08
1.86503e-07
2.70608e-09
2.69959e-09
2.7031e-09
1.86457e-07
7.25756e-08
1.86493e-07
2.73863e-09
2.74483e-09
2.72808e-09
2.73808e-09
7.25911e-08
1.86501e-07
2.71376e-09
2.75456e-09
2.70884e-09
2.75452e-09
2.7421e-09
2.69471e-09
2.74127e-09
7.25937e-08
1.86502e-07
2.70549e-09
2.70022e-09
2.70041e-09
1.86459e-07
7.25793e-08
1.8646e-07
2.72452e-09
2.75791e-09
2.79797e-09
2.84561e-09
7.26211e-08
1.86541e-07
2.70477e-09
2.75604e-09
2.73464e-09
2.75016e-09
2.73904e-09
2.74297e-09
2.74848e-09
7.2594e-08
1.86503e-07
2.69868e-09
2.69628e-09
2.70141e-09
1.86472e-07
7.26185e-08
1.86529e-07
2.75354e-09
2.78196e-09
2.74422e-09
2.80909e-09
7.25649e-08
1.86493e-07
2.73247e-09
2.75016e-09
2.58146e-09
2.75495e-09
2.76087e-09
2.70203e-09
2.74163e-09
7.25959e-08
1.86508e-07
2.7178e-09
2.69715e-09
2.70359e-09
1.86463e-07
7.25717e-08
1.86496e-07
2.78942e-09
2.79543e-09
2.7703e-09
2.75959e-09
7.25793e-08
1.86491e-07
2.66178e-09
2.75336e-09
2.72842e-09
2.7516e-09
2.74078e-09
2.7229e-09
2.73981e-09
7.25949e-08
1.86504e-07
2.70503e-09
2.70036e-09
2.70388e-09
1.8646e-07
7.26002e-08
1.86495e-07
2.76172e-09
2.76537e-09
2.75102e-09
2.76486e-09
7.25776e-08
1.86492e-07
2.71602e-09
2.75262e-09
2.72001e-09
2.75283e-09
2.7393e-09
2.71837e-09
2.74044e-09
7.25957e-08
1.86506e-07
2.70511e-09
2.7011e-09
2.70414e-09
1.86462e-07
7.25998e-08
1.86496e-07
2.75633e-09
2.76799e-09
2.74974e-09
2.76339e-09
7.25775e-08
1.86492e-07
2.71335e-09
2.75368e-09
2.71812e-09
2.75128e-09
2.74088e-09
2.7175e-09
2.73886e-09
7.25957e-08
1.86506e-07
2.70643e-09
2.70044e-09
2.71276e-09
1.86461e-07
7.25996e-08
1.86496e-07
2.75409e-09
2.7665e-09
2.7497e-09
2.76426e-09
7.25774e-08
1.86492e-07
2.71201e-09
2.7521e-09
2.71809e-09
2.75211e-09
2.73951e-09
2.71814e-09
2.74005e-09
7.25956e-08
1.86506e-07
2.71296e-09
2.70132e-09
2.70823e-09
1.86461e-07
7.25991e-08
1.86497e-07
2.75569e-09
2.76767e-09
2.74904e-09
2.76372e-09
7.25773e-08
1.86492e-07
2.71359e-09
2.75326e-09
2.71742e-09
2.75173e-09
2.73965e-09
2.71776e-09
2.74052e-09
7.25955e-08
1.86506e-07
2.7108e-09
2.70019e-09
2.70668e-09
1.8646e-07
7.25997e-08
1.86494e-07
2.75382e-09
2.76694e-09
2.75093e-09
2.76506e-09
7.25777e-08
1.86491e-07
2.71176e-09
2.75265e-09
2.71929e-09
2.75298e-09
2.74063e-09
2.7187e-09
2.73984e-09
7.25959e-08
1.86504e-07
2.70948e-09
2.7015e-09
2.70696e-09
1.8646e-07
7.25997e-08
1.86497e-07
2.7551e-09
2.76743e-09
2.74904e-09
2.76349e-09
7.25777e-08
1.86494e-07
2.71299e-09
2.7531e-09
2.71744e-09
2.7514e-09
2.73988e-09
2.71726e-09
2.73919e-09
7.25959e-08
1.86507e-07
2.70906e-09
2.70008e-09
2.70634e-09
1.86463e-07
7.25991e-08
1.86497e-07
2.75482e-09
2.76721e-09
2.74935e-09
2.7637e-09
7.25773e-08
1.86493e-07
2.71273e-09
2.75287e-09
2.71773e-09
2.75162e-09
2.73941e-09
2.7177e-09
2.73977e-09
7.25955e-08
1.86507e-07
2.7086e-09
2.70053e-09
2.7069e-09
1.86462e-07
7.25992e-08
1.86497e-07
2.75403e-09
2.76646e-09
2.75019e-09
2.76456e-09
7.25773e-08
1.86492e-07
2.71194e-09
2.75211e-09
2.71855e-09
2.75243e-09
2.73999e-09
2.71847e-09
2.7404e-09
7.25955e-08
1.86506e-07
2.70917e-09
2.70133e-09
2.70753e-09
1.86461e-07
7.25992e-08
1.86497e-07
2.75518e-09
2.76796e-09
2.74955e-09
2.76256e-09
7.25773e-08
1.86493e-07
2.71307e-09
2.75334e-09
2.71756e-09
2.7519e-09
2.74036e-09
2.71841e-09
2.74078e-09
7.25955e-08
1.86506e-07
2.70954e-09
2.70109e-09
2.70797e-09
1.86461e-07
7.25994e-08
1.86496e-07
2.75387e-09
2.74738e-09
2.7499e-09
2.76982e-09
7.25784e-08
1.86488e-07
2.71168e-09
2.75245e-09
2.71821e-09
2.75188e-09
2.74018e-09
2.72093e-09
2.73937e-09
7.25955e-08
1.86506e-07
2.70931e-09
2.70051e-09
2.70648e-09
1.86462e-07
7.25991e-08
1.86496e-07
2.75547e-09
2.7652e-09
2.7499e-09
2.76929e-09
7.25798e-08
1.86498e-07
2.71312e-09
2.75272e-09
2.71831e-09
2.75266e-09
2.73962e-09
2.71961e-09
2.74089e-09
7.25956e-08
1.86505e-07
2.7088e-09
2.70152e-09
2.70803e-09
1.8646e-07
7.25989e-08
1.86496e-07
2.75577e-09
2.77223e-09
2.7497e-09
2.76819e-09
7.25734e-08
1.86499e-07
2.71368e-09
2.75385e-09
2.71806e-09
2.75186e-09
2.74082e-09
2.71871e-09
2.7395e-09
7.25954e-08
1.86506e-07
2.70998e-09
2.70121e-09
2.70716e-09
1.86462e-07
7.25998e-08
1.86496e-07
2.75369e-09
2.77084e-09
2.75006e-09
2.7683e-09
7.25739e-08
1.865e-07
2.71161e-09
2.75221e-09
2.71844e-09
2.75284e-09
2.73983e-09
2.71862e-09
2.74041e-09
7.25959e-08
1.86507e-07
2.70981e-09
2.69714e-09
2.70313e-09
1.86463e-07
7.25994e-08
1.86497e-07
2.75461e-09
2.7714e-09
2.74961e-09
2.76779e-09
7.25735e-08
1.865e-07
2.71253e-09
2.75295e-09
2.71799e-09
2.75187e-09
2.74001e-09
2.71805e-09
2.73965e-09
7.25959e-08
1.86508e-07
2.70995e-09
2.69873e-09
2.705e-09
1.86463e-07
7.2599e-08
1.86497e-07
2.75466e-09
2.77101e-09
2.74965e-09
2.76839e-09
7.25732e-08
1.86499e-07
2.71256e-09
2.75227e-09
2.71804e-09
2.75243e-09
2.7401e-09
2.71881e-09
2.73997e-09
7.25956e-08
1.86506e-07
2.71104e-09
2.69953e-09
2.70539e-09
1.86462e-07
7.2599e-08
1.86496e-07
2.75529e-09
2.772e-09
2.75017e-09
2.76851e-09
7.25733e-08
1.86499e-07
2.71321e-09
2.75324e-09
2.71854e-09
2.75253e-09
2.74013e-09
2.71892e-09
2.74117e-09
7.25957e-08
1.86506e-07
2.7111e-09
2.69964e-09
2.70661e-09
1.86461e-07
7.25992e-08
1.86497e-07
2.75519e-09
2.77147e-09
2.74973e-09
2.76781e-09
7.25736e-08
1.86499e-07
2.71309e-09
2.75269e-09
2.71803e-09
2.75154e-09
2.73941e-09
2.71888e-09
2.73988e-09
7.2596e-08
1.86506e-07
2.71043e-09
2.70017e-09
2.70596e-09
1.86462e-07
7.25994e-08
1.86496e-07
2.75498e-09
2.77061e-09
2.76207e-09
2.76153e-09
7.25737e-08
1.86498e-07
2.71251e-09
2.75151e-09
2.7145e-09
2.75169e-09
2.73816e-09
2.72079e-09
2.71442e-09
7.25957e-08
1.86507e-07
2.71102e-09
2.69694e-09
2.68838e-09
1.86463e-07
7.25956e-08
1.865e-07
2.75376e-09
2.77259e-09
2.70186e-09
2.76482e-09
7.25748e-08
1.86518e-07
2.69748e-09
2.75178e-09
2.68694e-09
2.75861e-09
2.71968e-09
2.70451e-09
2.77999e-09
7.25953e-08
1.86508e-07
2.61637e-09
2.69916e-09
2.70362e-09
1.86467e-07
7.25883e-08
1.86493e-07
2.74383e-09
2.73036e-09
2.75329e-09
2.76361e-09
7.25839e-08
1.86527e-07
2.60476e-09
2.75972e-09
2.73405e-09
2.75309e-09
2.75431e-09
2.71123e-09
2.74226e-09
7.25953e-08
1.86507e-07
2.7289e-09
2.70594e-09
2.7067e-09
1.86462e-07
7.25878e-08
1.86487e-07
2.74851e-09
2.77778e-09
2.74529e-09
2.77545e-09
7.26231e-08
1.86519e-07
2.69714e-09
2.75284e-09
2.72855e-09
2.7518e-09
2.74084e-09
2.71894e-09
2.74025e-09
7.25955e-08
1.86508e-07
2.70969e-09
2.70496e-09
2.70452e-09
1.86463e-07
7.25832e-08
1.86485e-07
2.74705e-09
2.76913e-09
2.7455e-09
2.7646e-09
7.25925e-08
1.86519e-07
2.69753e-09
2.75223e-09
2.73059e-09
2.7528e-09
2.73931e-09
2.71669e-09
2.74129e-09
7.25955e-08
1.86507e-07
2.70901e-09
2.70636e-09
2.7062e-09
1.86461e-07
7.25839e-08
1.86483e-07
2.74687e-09
2.76481e-09
2.74584e-09
2.76434e-09
7.25915e-08
1.86518e-07
2.69863e-09
2.75338e-09
2.72831e-09
2.75324e-09
2.74084e-09
2.71631e-09
2.74048e-09
7.25959e-08
1.86505e-07
2.71097e-09
2.70366e-09
2.70562e-09
1.86461e-07
7.2584e-08
1.86483e-07
2.74708e-09
2.76445e-09
2.74492e-09
2.76397e-09
7.25916e-08
1.86519e-07
2.69814e-09
2.75337e-09
2.73156e-09
2.75291e-09
2.74019e-09
2.71593e-09
2.74079e-09
7.25961e-08
1.86506e-07
2.71062e-09
2.70683e-09
2.70858e-09
1.86461e-07
7.25841e-08
1.86484e-07
2.74673e-09
2.76393e-09
2.74457e-09
2.76318e-09
7.25917e-08
1.86519e-07
2.69875e-09
2.75316e-09
2.73187e-09
2.75285e-09
2.73971e-09
2.7153e-09
2.74062e-09
7.25961e-08
1.86507e-07
2.70961e-09
2.70553e-09
2.70543e-09
1.86463e-07
7.25841e-08
1.86484e-07
2.74638e-09
2.76339e-09
2.74501e-09
2.76386e-09
7.25917e-08
1.86519e-07
2.69868e-09
2.75318e-09
2.73144e-09
2.75327e-09
2.73903e-09
2.71582e-09
2.74135e-09
7.25963e-08
1.86507e-07
2.7128e-09
2.69904e-09
2.70575e-09
1.86462e-07
7.25847e-08
1.86483e-07
2.74569e-09
2.76325e-09
2.74523e-09
2.76409e-09
7.2592e-08
1.86518e-07
2.69771e-09
2.75257e-09
2.73157e-09
2.7533e-09
2.73928e-09
2.71635e-09
2.74162e-09
7.25968e-08
1.86506e-07
2.71013e-09
2.69978e-09
2.70684e-09
1.86461e-07
7.25842e-08
1.86484e-07
2.74656e-09
2.76422e-09
2.74427e-09
2.76326e-09
7.25915e-08
1.86519e-07
2.69848e-09
2.75344e-09
2.73063e-09
2.75242e-09
2.73982e-09
2.71539e-09
2.74068e-09
7.25963e-08
1.86507e-07
2.71091e-09
2.6988e-09
2.70594e-09
1.86462e-07
7.25838e-08
1.86484e-07
2.74659e-09
2.76398e-09
2.74457e-09
2.76369e-09
7.25915e-08
1.86519e-07
2.69852e-09
2.75316e-09
2.73098e-09
2.75277e-09
2.73941e-09
2.71576e-09
2.74048e-09
7.25963e-08
1.86507e-07
2.71059e-09
2.69977e-09
2.70671e-09
1.86462e-07
7.25842e-08
1.86483e-07
2.74641e-09
2.76419e-09
2.7451e-09
2.76389e-09
7.25918e-08
1.86518e-07
2.69841e-09
2.7533e-09
2.73156e-09
2.75312e-09
2.73977e-09
2.71623e-09
2.74084e-09
7.25966e-08
1.86506e-07
2.7143e-09
2.69983e-09
2.70647e-09
1.86461e-07
7.25844e-08
1.86482e-07
2.74663e-09
2.76397e-09
2.74506e-09
2.7643e-09
7.2592e-08
1.86518e-07
2.69875e-09
2.75331e-09
2.7319e-09
2.75309e-09
2.73987e-09
2.71638e-09
2.74039e-09
7.25966e-08
1.86505e-07
2.70911e-09
2.70035e-09
2.7077e-09
1.86461e-07
7.25846e-08
1.86482e-07
2.74632e-09
2.76444e-09
2.74304e-09
2.76873e-09
7.25919e-08
1.8652e-07
2.69891e-09
2.75329e-09
2.72263e-09
2.75237e-09
2.73955e-09
2.71994e-09
2.73891e-09
7.25967e-08
1.86505e-07
2.71034e-09
2.70027e-09
2.70787e-09
1.86461e-07
7.25851e-08
1.86481e-07
2.74455e-09
2.77783e-09
2.74034e-09
2.74534e-09
7.25904e-08
1.86534e-07
2.71452e-09
2.75334e-09
2.71949e-09
2.75339e-09
2.73806e-09
2.71829e-09
2.73919e-09
7.25968e-08
1.86504e-07
2.71007e-09
2.70103e-09
2.70885e-09
1.86459e-07
7.25857e-08
1.86483e-07
2.7433e-09
2.72261e-09
2.74281e-09
2.75586e-09
7.25785e-08
1.86519e-07
2.71377e-09
2.7543e-09
2.7181e-09
2.75347e-09
2.73965e-09
2.71302e-09
2.73655e-09
7.25967e-08
1.86504e-07
2.71149e-09
2.70104e-09
2.70146e-09
1.86462e-07
7.25846e-08
1.86482e-07
2.74494e-09
2.75896e-09
2.74419e-09
2.76263e-09
7.25904e-08
1.86519e-07
2.71162e-09
2.75523e-09
2.7168e-09
2.75001e-09
2.72965e-09
2.71843e-09
2.75414e-09
7.25963e-08
1.86501e-07
2.69065e-09
2.70151e-09
2.71124e-09
1.86471e-07
7.25845e-08
1.86481e-07
2.7456e-09
2.76286e-09
2.7448e-09
2.76363e-09
7.25909e-08
1.86519e-07
2.71034e-09
2.7501e-09
2.71691e-09
2.74927e-09
2.7553e-09
2.71859e-09
2.7548e-09
7.25974e-08
1.86501e-07
2.71032e-09
2.70061e-09
2.71117e-09
1.86473e-07
7.25848e-08
1.86479e-07
2.74621e-09
2.76338e-09
2.74533e-09
2.76404e-09
7.25912e-08
1.86517e-07
2.71066e-09
2.74979e-09
2.71737e-09
2.74957e-09
2.75533e-09
2.71907e-09
2.75493e-09
7.25977e-08
1.86499e-07
2.70997e-09
2.70108e-09
2.71133e-09
1.86472e-07
7.25849e-08
1.8648e-07
2.74681e-09
2.76393e-09
2.74489e-09
2.76343e-09
7.25914e-08
1.86518e-07
2.71121e-09
2.75024e-09
2.71694e-09
2.74903e-09
2.75481e-09
2.71858e-09
2.75514e-09
7.25978e-08
1.865e-07
2.70963e-09
2.70028e-09
2.71183e-09
1.86472e-07
7.25849e-08
1.86478e-07
2.74716e-09
2.76399e-09
2.74457e-09
2.7634e-09
7.25915e-08
1.86516e-07
2.71156e-09
2.75047e-09
2.71663e-09
2.74906e-09
2.75519e-09
2.71869e-09
2.7555e-09
7.25979e-08
1.86498e-07
2.70995e-09
2.70006e-09
2.71003e-09
1.8647e-07
7.25849e-08
1.86479e-07
2.74689e-09
2.76401e-09
2.74465e-09
2.76356e-09
7.25913e-08
1.86516e-07
2.7113e-09
2.75042e-09
2.71667e-09
2.74919e-09
2.75574e-09
2.71899e-09
2.75597e-09
7.25978e-08
1.86498e-07
2.71256e-09
2.70081e-09
2.71186e-09
1.86469e-07
7.25853e-08
1.86479e-07
2.74621e-09
2.76377e-09
2.7448e-09
2.76302e-09
7.25916e-08
1.86517e-07
2.71058e-09
2.75018e-09
2.71684e-09
2.74858e-09
2.75592e-09
2.71815e-09
2.75471e-09
7.25981e-08
1.86499e-07
2.71044e-09
2.7001e-09
2.711e-09
1.86471e-07
7.25852e-08
1.86479e-07
2.74631e-09
2.76353e-09
2.74453e-09
2.76304e-09
7.25913e-08
1.86518e-07
2.71068e-09
2.74991e-09
2.7166e-09
2.74862e-09
2.75574e-09
2.71791e-09
2.75441e-09
7.25978e-08
1.865e-07
2.71034e-09
2.69979e-09
2.71008e-09
1.86472e-07
7.25849e-08
1.86478e-07
2.74708e-09
2.76391e-09
2.74518e-09
2.76392e-09
7.25914e-08
1.86516e-07
2.7115e-09
2.75023e-09
2.71669e-09
2.74949e-09
2.75474e-09
2.71945e-09
2.75634e-09
7.25978e-08
1.86498e-07
2.71084e-09
2.70147e-09
2.71342e-09
1.86468e-07
7.25851e-08
1.86479e-07
2.7472e-09
2.76426e-09
2.74454e-09
2.76328e-09
7.25916e-08
1.86516e-07
2.71244e-09
2.75067e-09
2.71589e-09
2.74882e-09
2.75664e-09
2.71876e-09
2.75453e-09
7.25981e-08
1.86499e-07
2.712e-09
2.70072e-09
2.71153e-09
1.86471e-07
7.25857e-08
1.86479e-07
2.74619e-09
2.76354e-09
2.74425e-09
2.76285e-09
7.2592e-08
1.86517e-07
2.71075e-09
2.74991e-09
2.71552e-09
2.74839e-09
2.75657e-09
2.71799e-09
2.7536e-09
7.25985e-08
1.86499e-07
2.71185e-09
2.69997e-09
2.71054e-09
1.86471e-07
7.25854e-08
1.86478e-07
2.74657e-09
2.76305e-09
2.74421e-09
2.76324e-09
7.2592e-08
1.86516e-07
2.71104e-09
2.74942e-09
2.71514e-09
2.74896e-09
2.75458e-09
2.71789e-09
2.7543e-09
7.25984e-08
1.86499e-07
2.70977e-09
2.69974e-09
2.71083e-09
1.86471e-07
7.25855e-08
1.86477e-07
2.74645e-09
2.76361e-09
2.74548e-09
2.76419e-09
7.2592e-08
1.86516e-07
2.71045e-09
2.75036e-09
2.71538e-09
2.75188e-09
2.7548e-09
2.71797e-09
2.75692e-09
7.25983e-08
1.86499e-07
2.7094e-09
2.70151e-09
2.71008e-09
1.86472e-07
7.25855e-08
1.86477e-07
2.74798e-09
2.76409e-09
2.74598e-09
2.76584e-09
7.25923e-08
1.86513e-07
2.71081e-09
2.75368e-09
2.71518e-09
2.75533e-09
2.75707e-09
2.71886e-09
2.76259e-09
7.25986e-08
1.86491e-07
2.70592e-09
2.66645e-09
2.69388e-09
1.86462e-07
7.25859e-08
1.86474e-07
2.74829e-09
2.76614e-09
2.74732e-09
2.76565e-09
7.25924e-08
1.86513e-07
2.71095e-09
2.75424e-09
2.71733e-09
2.74958e-09
2.76204e-09
2.71928e-09
2.75461e-09
7.26011e-08
1.86494e-07
2.69211e-09
2.69432e-09
2.70254e-09
1.86466e-07
7.25851e-08
1.86475e-07
2.74882e-09
2.76574e-09
2.74465e-09
2.76403e-09
7.25915e-08
1.86513e-07
2.71232e-09
2.7502e-09
2.71543e-09
2.74874e-09
2.75561e-09
2.71865e-09
2.75524e-09
7.25971e-08
1.86495e-07
2.7038e-09
2.69746e-09
2.69618e-09
1.86469e-07
7.2584e-08
1.86475e-07
2.7479e-09
2.76456e-09
2.74424e-09
2.76368e-09
7.25909e-08
1.86512e-07
2.71207e-09
2.75012e-09
2.71541e-09
2.74894e-09
2.75434e-09
2.71932e-09
2.75574e-09
7.25971e-08
1.86494e-07
2.71815e-09
2.70142e-09
2.70336e-09
1.86466e-07
7.25846e-08
1.86474e-07
2.74629e-09
2.76361e-09
2.74436e-09
2.76325e-09
7.25913e-08
1.86512e-07
2.71074e-09
2.74971e-09
2.71566e-09
2.74874e-09
2.75528e-09
2.71798e-09
2.75416e-09
7.25976e-08
1.86494e-07
2.72524e-09
2.70096e-09
2.71067e-09
1.86466e-07
7.25847e-08
1.86475e-07
2.74603e-09
2.76323e-09
2.74395e-09
2.76344e-09
7.25912e-08
1.86512e-07
2.71056e-09
2.74965e-09
2.71532e-09
2.74895e-09
2.75517e-09
2.71821e-09
2.75429e-09
7.25975e-08
1.86494e-07
2.70986e-09
2.70102e-09
2.71123e-09
1.86466e-07
7.2584e-08
1.86474e-07
2.74699e-09
2.76414e-09
2.7446e-09
2.76353e-09
7.25909e-08
1.86512e-07
2.71157e-09
2.75057e-09
2.71593e-09
2.74895e-09
2.75581e-09
2.71813e-09
2.7541e-09
7.25973e-08
1.86494e-07
2.71042e-09
2.70118e-09
2.71144e-09
1.86467e-07
7.25846e-08
1.86474e-07
2.74628e-09
2.7634e-09
2.74465e-09
2.76379e-09
7.25912e-08
1.86511e-07
2.71084e-09
2.74977e-09
2.716e-09
2.74923e-09
2.75589e-09
2.71878e-09
2.75553e-09
7.25975e-08
1.86493e-07
2.71079e-09
2.70197e-09
2.7124e-09
1.86464e-07
7.25844e-08
1.86475e-07
2.74725e-09
2.76432e-09
2.74352e-09
2.76262e-09
7.25911e-08
1.86512e-07
2.71181e-09
2.75073e-09
2.71489e-09
2.74799e-09
2.756e-09
2.71841e-09
2.75463e-09
7.25975e-08
1.86494e-07
2.71025e-09
2.70296e-09
2.71226e-09
1.86465e-07
7.25845e-08
1.86475e-07
2.74607e-09
2.76356e-09
2.74402e-09
2.76266e-09
7.25911e-08
1.86513e-07
2.71067e-09
2.74996e-09
2.71539e-09
2.74822e-09
2.75576e-09
2.71817e-09
2.75427e-09
7.25975e-08
1.86495e-07
2.71073e-09
2.70007e-09
2.71107e-09
1.86467e-07
7.25847e-08
1.86472e-07
2.74632e-09
2.76289e-09
2.74532e-09
2.76463e-09
7.25914e-08
1.8651e-07
2.71093e-09
2.74924e-09
2.71668e-09
2.75014e-09
2.75507e-09
2.72e-09
2.75594e-09
7.25979e-08
1.86492e-07
2.7102e-09
2.702e-09
2.71275e-09
1.86463e-07
7.25847e-08
1.86473e-07
2.74771e-09
2.76473e-09
2.74425e-09
2.76301e-09
7.25914e-08
1.8651e-07
2.71229e-09
2.75105e-09
2.71558e-09
2.74851e-09
2.75634e-09
2.71836e-09
2.75446e-09
7.25979e-08
1.86492e-07
2.71151e-09
2.70036e-09
2.71134e-09
1.86464e-07
7.2585e-08
1.86475e-07
2.74644e-09
2.76334e-09
2.74385e-09
2.76279e-09
7.25917e-08
1.86512e-07
2.71098e-09
2.74965e-09
2.7152e-09
2.74828e-09
2.75522e-09
2.71813e-09
2.7539e-09
7.25982e-08
1.86494e-07
2.71038e-09
2.70014e-09
2.71077e-09
1.86466e-07
7.25847e-08
1.86472e-07
2.74598e-09
2.76284e-09
2.74455e-09
2.76353e-09
7.25914e-08
1.86511e-07
2.71055e-09
2.74917e-09
2.71655e-09
2.74906e-09
2.75437e-09
2.71846e-09
2.75495e-09
7.25979e-08
1.86493e-07
2.70955e-09
2.70045e-09
2.71181e-09
1.86464e-07
7.25848e-08
1.86473e-07
2.74653e-09
2.76387e-09
2.74427e-09
2.76353e-09
7.25915e-08
1.86511e-07
2.71345e-09
2.7503e-09
2.72892e-09
2.749e-09
2.75577e-09
2.71907e-09
2.75537e-09
7.2598e-08
1.86493e-07
2.71093e-09
2.70109e-09
2.71223e-09
1.86464e-07
7.25843e-08
1.86473e-07
2.74677e-09
2.76398e-09
2.74424e-09
2.7634e-09
7.25915e-08
1.86511e-07
2.69796e-09
2.7502e-09
2.7291e-09
2.74894e-09
2.75519e-09
2.71844e-09
2.75436e-09
7.2598e-08
1.86493e-07
2.71034e-09
2.70042e-09
2.71122e-09
1.86465e-07
7.25843e-08
1.86472e-07
2.74656e-09
2.76338e-09
2.7448e-09
2.76361e-09
7.25916e-08
1.86511e-07
2.69783e-09
2.74965e-09
2.72966e-09
2.74943e-09
2.75476e-09
2.71846e-09
2.75492e-09
7.25981e-08
1.86492e-07
2.70995e-09
2.70046e-09
2.71179e-09
1.86465e-07
7.25845e-08
1.86471e-07
2.74695e-09
2.76376e-09
2.74496e-09
2.76379e-09
7.25915e-08
1.86509e-07
2.69826e-09
2.75269e-09
2.72974e-09
2.75515e-09
2.75594e-09
2.71914e-09
2.75513e-09
7.25978e-08
1.86528e-07
2.71111e-09
2.7007e-09
2.71196e-09
1.86463e-07
7.25845e-08
1.86472e-07
2.74733e-09
2.76387e-09
2.74402e-09
2.76328e-09
7.25919e-08
1.8651e-07
2.69863e-09
2.74399e-09
2.72882e-09
2.75482e-09
2.75543e-09
2.71807e-09
2.75415e-09
7.25966e-08
1.86529e-07
2.71057e-09
2.6998e-09
2.71106e-09
1.86464e-07
7.25844e-08
1.86475e-07
2.7464e-09
2.76314e-09
2.74353e-09
2.7633e-09
7.25916e-08
1.86513e-07
2.69775e-09
2.74334e-09
2.72834e-09
2.75483e-09
2.75509e-09
2.71796e-09
2.75439e-09
7.25964e-08
1.86531e-07
2.71033e-09
2.69955e-09
2.71143e-09
1.86466e-07
7.25841e-08
1.86473e-07
2.7465e-09
2.76351e-09
2.74429e-09
2.76355e-09
7.25915e-08
1.8651e-07
2.69783e-09
2.74382e-09
2.72907e-09
2.75783e-09
2.75516e-09
2.71935e-09
2.75549e-09
7.25962e-08
1.86528e-07
2.71025e-09
2.70114e-09
2.71205e-09
1.86464e-07
7.25844e-08
1.86472e-07
2.74686e-09
2.76373e-09
2.74405e-09
2.76358e-09
7.25918e-08
1.8651e-07
2.6981e-09
2.7449e-09
2.729e-09
2.7479e-09
2.75651e-09
2.71836e-09
2.75695e-09
7.2599e-08
1.86503e-07
2.71153e-09
2.69947e-09
2.71601e-09
1.86463e-07
7.25843e-08
1.86475e-07
2.74661e-09
2.76444e-09
2.74945e-09
2.77014e-09
7.25918e-08
1.86509e-07
2.69852e-09
2.74873e-09
2.73226e-09
2.7704e-09
2.766e-09
2.72688e-09
2.75401e-09
7.25985e-08
1.86496e-07
2.72464e-09
2.71483e-09
2.71776e-09
1.86454e-07
7.25795e-08
1.86483e-07
2.76112e-09
2.75661e-09
3.18325e-09
3.18255e-09
7.25872e-08
1.86486e-07
2.69718e-09
2.78118e-09
3.21801e-09
3.20843e-09
2.74333e-09
3.10254e-09
3.12228e-09
7.25936e-08
1.86486e-07
2.70084e-09
3.12331e-09
3.07964e-09
1.86432e-07
7.26045e-08
1.86326e-07
3.79944e-09
3.84979e-09
1.86242e-08
1.86311e-08
7.25782e-08
1.86323e-07
3.81737e-09
3.77931e-09
1.86751e-08
1.87135e-08
3.77307e-09
1.85576e-08
1.86314e-08
7.2598e-08
1.86326e-07
3.76458e-09
1.85885e-08
1.85384e-08
1.86309e-07
7.19442e-08
1.46619e-07
3.84863e-08
3.84877e-08
1.20107e-07
1.20059e-07
7.19491e-08
1.46627e-07
3.8386e-08
3.85709e-08
1.20303e-07
1.20065e-07
3.85384e-08
1.20467e-07
1.20226e-07
7.2011e-08
1.46587e-07
3.83887e-08
1.20313e-07
1.20289e-07
1.46565e-07
3.23487e-07
1.80688e-07
1.80563e-07
3.23424e-07
1.80795e-07
1.80611e-07
3.15974e-07
3.16064e-07
3.16067e-07
1.80707e-07
3.23408e-07
1.80807e-07
7.86689e-08
2.95852e-07
1.92374e-07
1.92411e-07
4.94776e-07
3.85323e-07
3.8345e-07
2.5167e-07
4.9474e-07
3.8534e-07
2.51668e-07
3.83324e-07
5.05582e-07
3.762e-07
3.76195e-07
2.05408e-06
0.000119524
2.17745e-06
0.000121569
0.000243465
0.000251503
2.0546e-06
0.000119541
2.17631e-06
0.000121587
6.83178e-07
6.82986e-07
6.83113e-07
9.46453e-08
9.45631e-08
9.46098e-08
9.46695e-08
1.55038e-07
3.01731e-06
6.40459e-07
4.02019e-07
1.15787e-07
2.58308e-06
3.80513e-07
0.000243458
0.000251488
1.55462e-07
6.39845e-07
3.01679e-06
4.01959e-07
1.15532e-07
3.80193e-07
2.58265e-06
5.80192e-06
5.80203e-06
1.84932e-07
5.50883e-06
5.51033e-06
1.96966e-06
0.000121349
1.9652e-06
0.000121348
0.000251756
0.000251751
1.96994e-06
0.000121366
1.96548e-06
0.000121365
4.54445e-08
4.54284e-08
4.54615e-08
6.20267e-09