/*--------------------------------*- C++ -*----------------------------------*\
| =========                 |                                                 |
| \\      /  F ield         | OpenFOAM: The Open Source CFD Toolbox           |
|  \\    /   O peration     | Version:  v1912                                 |
|   \\  /    A nd           | Website:  www.openfoam.com                      |
|    \\/     M anipulation  |                                                 |
\*---------------------------------------------------------------------------*/
FoamFile
{
    version     2.0;
    format      ascii;
    class       volScalarField;
    location    "0.95";
    object      p;
}
// * * * * * * * * * * * * * * * * * * * * * * * * * * * * * * * * * * * * * //

dimensions      [0 2 -2 0 0 0 0];


internalField   nonuniform List<scalar> 
171728
(
0.0213009
0.0213045
0.0213046
0.0213208
0.0210779
0.021078
0.021078
0.0210919
0.0208521
0.0208521
0.0208521
0.0208659
0.0206263
0.0206262
0.0206262
0.02064
0.0204004
0.0204003
0.0204003
0.0204141
0.0201745
0.0201744
0.0201744
0.0201883
0.0199486
0.0199485
0.0199485
0.0199624
0.0197227
0.0197226
0.0197226
0.0197365
0.0194968
0.0194967
0.0194967
0.0195106
0.0192709
0.0192708
0.0192708
0.0192847
0.019045
0.0190449
0.0190449
0.0190588
0.0188191
0.018819
0.018819
0.0188329
0.0185932
0.0185931
0.0185931
0.018607
0.0183673
0.0183672
0.0183672
0.0183811
0.0181414
0.0181414
0.0181414
0.0181552
0.0179155
0.0179155
0.0179155
0.0179293
0.0176896
0.0176896
0.0176896
0.0177034
0.0174637
0.0174637
0.0174637
0.0174775
0.0172379
0.0172378
0.0172378
0.0172516
0.017012
0.0170119
0.0170119
0.0170257
0.0167861
0.016786
0.016786
0.0167998
0.0165602
0.0165601
0.0165601
0.0165739
0.0163343
0.0163342
0.0163342
0.016348
0.0161084
0.0161083
0.0161083
0.0161221
0.0158825
0.0158824
0.0158824
0.0158963
0.0156566
0.0156565
0.0156565
0.0156704
0.0154307
0.0154306
0.0154306
0.0154445
0.0152048
0.0152047
0.0152047
0.0152186
0.0149789
0.0149788
0.0149788
0.0149927
0.014753
0.014753
0.014753
0.0147668
0.0145271
0.0145271
0.0145271
0.0145409
0.0143012
0.0143012
0.0143012
0.014315
0.0140754
0.0140753
0.0140753
0.0140891
0.0138495
0.0138494
0.0138494
0.0138632
0.0136236
0.0136235
0.0136235
0.0136373
0.0133977
0.0133976
0.0133976
0.0134114
0.0131718
0.0131717
0.0131717
0.0131855
0.0129459
0.0129458
0.0129458
0.0129597
0.01272
0.0127199
0.0127199
0.0127338
0.0124941
0.012494
0.012494
0.0125079
0.0122682
0.0122681
0.0122681
0.012282
0.0120423
0.0120422
0.0120422
0.0120561
0.0118164
0.0118163
0.0118163
0.0118302
0.0115905
0.0115905
0.0115905
0.0116043
0.0113646
0.0113646
0.0113646
0.0113784
0.0111387
0.0111387
0.0111387
0.0111525
0.0109128
0.0109128
0.0109128
0.0109266
0.010687
0.0106869
0.0106869
0.0107007
0.0104611
0.010461
0.010461
0.0104748
0.0102352
0.0102351
0.0102351
0.0102489
0.0100093
0.0100092
0.0100092
0.010023
0.00978337
0.0097833
0.0097833
0.00979714
0.00955748
0.0095574
0.0095574
0.00957124
0.00933158
0.00933151
0.00933151
0.00934535
0.00910568
0.00910561
0.00910561
0.00911945
0.00887979
0.00887972
0.00887972
0.00889356
0.00865389
0.00865382
0.00865382
0.00866766
0.00842799
0.00842792
0.00842792
0.00844176
0.0082021
0.00820202
0.00820202
0.00821587
0.0079762
0.00797613
0.00797613
0.00798997
0.0077503
0.00775023
0.00775023
0.00776407
0.0075244
0.00752433
0.00752433
0.00753817
0.0072985
0.00729843
0.00729843
0.00731227
0.00707261
0.00707253
0.00707253
0.00708638
0.00684671
0.00684663
0.00684663
0.00686048
0.00662081
0.00662073
0.00662073
0.00663458
0.00639491
0.00639483
0.00639483
0.00640868
0.00616901
0.00616893
0.00616894
0.00618278
0.00594311
0.00594303
0.00594303
0.00595688
0.00571721
0.00571713
0.00571713
0.00573098
0.00549131
0.00549123
0.00549123
0.00550508
0.00526541
0.00526533
0.00526533
0.00527918
0.00503951
0.00503943
0.00503943
0.00505328
0.0048136
0.00481353
0.00481353
0.00482737
0.0045877
0.00458763
0.00458763
0.00460147
0.0043618
0.00436173
0.00436173
0.00437557
0.0041359
0.00413582
0.00413582
0.00414967
0.00390999
0.00390992
0.00390992
0.00392377
0.00368409
0.00368402
0.00368402
0.00369786
0.00345819
0.00345812
0.00345812
0.00347196
0.00323229
0.00323221
0.00323221
0.00324606
0.00300638
0.00300631
0.00300631
0.00302015
0.00278048
0.00278041
0.00278041
0.00279425
0.00255457
0.0025545
0.0025545
0.00256835
0.00232867
0.0023286
0.0023286
0.00234244
0.00210277
0.00210269
0.00210269
0.00211654
0.00187686
0.00187679
0.00187679
0.00189063
0.00165096
0.00165089
0.00165089
0.00166473
0.00142505
0.00142498
0.00142498
0.00143883
0.00119915
0.00119908
0.00119908
0.00121292
0.000973245
0.000973172
0.000973172
0.000987018
0.000747339
0.000747268
0.000747267
0.000761114
0.000521448
0.000521371
0.000521369
0.000535209
0.00029631
0.000295674
0.00029567
0.000309362
8.68423e-05
9.27634e-05
9.27438e-05
9.25241e-05
0.0213511
0.0213462
0.0213461
0.021351
0.0213462
0.0213462
0.0213539
0.0213539
0.0213539
0.0213539
0.0213461
0.0213462
0.0213511
0.0213462
0.0213462
0.0213511
0.0213208
0.0211208
0.0213046
0.0213045
0.0211345
0.0211345
0.0213207
0.0211207
0.0213046
0.0213046
0.0211345
0.0211345
0.0213046
0.0211345
0.0211345
0.0213208
0.0211208
0.0213045
0.0211345
0.0211345
0.0211207
0.0210919
0.0208948
0.021078
0.021078
0.0209086
0.0209086
0.0210919
0.0208948
0.021078
0.021078
0.0209086
0.0209086
0.021078
0.0209086
0.0209086
0.0210919
0.0208948
0.021078
0.0209086
0.0209086
0.0208948
0.0208659
0.0206689
0.0208521
0.0208521
0.0206827
0.0206827
0.0208659
0.0206689
0.0208521
0.0208521
0.0206827
0.0206827
0.0208521
0.0206827
0.0206827
0.0208659
0.0206689
0.0208521
0.0206827
0.0206827
0.0206689
0.02064
0.020443
0.0206262
0.0206262
0.0204568
0.0204568
0.02064
0.020443
0.0206262
0.0206262
0.0204568
0.0204568
0.0206262
0.0204568
0.0204568
0.02064
0.020443
0.0206262
0.0204568
0.0204568
0.020443
0.0204141
0.0202171
0.0204003
0.0204003
0.0202309
0.0202309
0.0204141
0.0202171
0.0204003
0.0204003
0.0202309
0.0202309
0.0204003
0.0202309
0.0202309
0.0204141
0.0202171
0.0204003
0.0202309
0.0202309
0.0202171
0.0201883
0.0199912
0.0201744
0.0201744
0.020005
0.020005
0.0201883
0.0199912
0.0201744
0.0201744
0.020005
0.020005
0.0201744
0.020005
0.020005
0.0201883
0.0199912
0.0201744
0.020005
0.020005
0.0199912
0.0199624
0.0197653
0.0199485
0.0199485
0.0197791
0.0197791
0.0199624
0.0197653
0.0199485
0.0199485
0.0197791
0.0197791
0.0199485
0.0197791
0.0197791
0.0199624
0.0197653
0.0199485
0.0197791
0.0197791
0.0197653
0.0197365
0.0195394
0.0197226
0.0197226
0.0195532
0.0195532
0.0197365
0.0195394
0.0197226
0.0197226
0.0195532
0.0195532
0.0197226
0.0195532
0.0195532
0.0197365
0.0195394
0.0197226
0.0195532
0.0195532
0.0195394
0.0195106
0.0193135
0.0194967
0.0194967
0.0193273
0.0193273
0.0195106
0.0193135
0.0194967
0.0194967
0.0193273
0.0193273
0.0194967
0.0193273
0.0193273
0.0195106
0.0193135
0.0194967
0.0193273
0.0193273
0.0193135
0.0192847
0.0190876
0.0192708
0.0192708
0.0191014
0.0191014
0.0192847
0.0190876
0.0192708
0.0192708
0.0191014
0.0191014
0.0192708
0.0191014
0.0191014
0.0192847
0.0190876
0.0192708
0.0191014
0.0191014
0.0190876
0.0190588
0.0188617
0.0190449
0.0190449
0.0188755
0.0188755
0.0190588
0.0188617
0.0190449
0.0190449
0.0188755
0.0188755
0.0190449
0.0188755
0.0188755
0.0190588
0.0188617
0.0190449
0.0188755
0.0188755
0.0188617
0.0188329
0.0186358
0.018819
0.018819
0.0186496
0.0186496
0.0188329
0.0186358
0.018819
0.018819
0.0186496
0.0186496
0.018819
0.0186496
0.0186496
0.0188329
0.0186358
0.018819
0.0186496
0.0186496
0.0186358
0.018607
0.0184099
0.0185931
0.0185931
0.0184237
0.0184237
0.018607
0.0184099
0.0185931
0.0185931
0.0184237
0.0184237
0.0185931
0.0184237
0.0184237
0.018607
0.0184099
0.0185931
0.0184237
0.0184237
0.0184099
0.0183811
0.018184
0.0183672
0.0183672
0.0181978
0.0181978
0.0183811
0.018184
0.0183672
0.0183672
0.0181978
0.0181978
0.0183672
0.0181978
0.0181978
0.0183811
0.018184
0.0183672
0.0181978
0.0181978
0.018184
0.0181552
0.0179581
0.0181414
0.0181414
0.0179719
0.0179719
0.0181552
0.0179581
0.0181414
0.0181414
0.0179719
0.0179719
0.0181414
0.0179719
0.0179719
0.0181552
0.0179581
0.0181414
0.0179719
0.0179719
0.0179581
0.0179293
0.0177323
0.0179155
0.0179155
0.017746
0.017746
0.0179293
0.0177323
0.0179155
0.0179155
0.017746
0.017746
0.0179155
0.017746
0.017746
0.0179293
0.0177323
0.0179155
0.017746
0.017746
0.0177323
0.0177034
0.0175064
0.0176896
0.0176896
0.0175201
0.0175201
0.0177034
0.0175064
0.0176896
0.0176896
0.0175201
0.0175201
0.0176896
0.0175201
0.0175201
0.0177034
0.0175064
0.0176896
0.0175201
0.0175201
0.0175064
0.0174775
0.0172805
0.0174637
0.0174637
0.0172943
0.0172942
0.0174775
0.0172805
0.0174637
0.0174637
0.0172943
0.0172943
0.0174637
0.0172943
0.0172943
0.0174775
0.0172805
0.0174637
0.0172942
0.0172942
0.0172805
0.0172516
0.0170546
0.0172378
0.0172378
0.0170684
0.0170684
0.0172516
0.0170546
0.0172378
0.0172378
0.0170684
0.0170684
0.0172378
0.0170684
0.0170684
0.0172516
0.0170546
0.0172378
0.0170684
0.0170684
0.0170546
0.0170257
0.0168287
0.0170119
0.0170119
0.0168425
0.0168425
0.0170257
0.0168287
0.0170119
0.0170119
0.0168425
0.0168425
0.0170119
0.0168425
0.0168425
0.0170257
0.0168287
0.0170119
0.0168425
0.0168425
0.0168287
0.0167998
0.0166028
0.016786
0.016786
0.0166166
0.0166166
0.0167998
0.0166028
0.016786
0.016786
0.0166166
0.0166166
0.016786
0.0166166
0.0166166
0.0167998
0.0166028
0.016786
0.0166166
0.0166166
0.0166028
0.0165739
0.0163769
0.0165601
0.0165601
0.0163907
0.0163907
0.0165739
0.0163769
0.0165601
0.0165601
0.0163907
0.0163907
0.0165601
0.0163907
0.0163907
0.0165739
0.0163769
0.0165601
0.0163907
0.0163907
0.0163769
0.016348
0.016151
0.0163342
0.0163342
0.0161648
0.0161648
0.016348
0.016151
0.0163342
0.0163342
0.0161648
0.0161648
0.0163342
0.0161648
0.0161648
0.016348
0.016151
0.0163342
0.0161648
0.0161648
0.016151
0.0161221
0.0159251
0.0161083
0.0161083
0.0159389
0.0159389
0.0161222
0.0159251
0.0161083
0.0161083
0.0159389
0.0159389
0.0161083
0.0159389
0.0159389
0.0161221
0.0159251
0.0161083
0.0159389
0.0159389
0.0159251
0.0158963
0.0156992
0.0158824
0.0158824
0.015713
0.015713
0.0158963
0.0156992
0.0158824
0.0158824
0.015713
0.015713
0.0158824
0.015713
0.015713
0.0158963
0.0156992
0.0158824
0.015713
0.015713
0.0156992
0.0156704
0.0154733
0.0156565
0.0156565
0.0154871
0.0154871
0.0156704
0.0154733
0.0156565
0.0156565
0.0154871
0.0154871
0.0156565
0.0154871
0.0154871
0.0156704
0.0154733
0.0156565
0.0154871
0.0154871
0.0154733
0.0154445
0.0152474
0.0154306
0.0154306
0.0152612
0.0152612
0.0154445
0.0152474
0.0154306
0.0154306
0.0152612
0.0152612
0.0154306
0.0152612
0.0152612
0.0154445
0.0152474
0.0154306
0.0152612
0.0152612
0.0152474
0.0152186
0.0150215
0.0152047
0.0152047
0.0150353
0.0150353
0.0152186
0.0150215
0.0152047
0.0152047
0.0150353
0.0150353
0.0152047
0.0150353
0.0150353
0.0152186
0.0150215
0.0152047
0.0150353
0.0150353
0.0150215
0.0149927
0.0147956
0.0149788
0.0149788
0.0148094
0.0148094
0.0149927
0.0147956
0.0149788
0.0149788
0.0148094
0.0148094
0.0149788
0.0148094
0.0148094
0.0149927
0.0147956
0.0149788
0.0148094
0.0148094
0.0147956
0.0147668
0.0145697
0.014753
0.014753
0.0145835
0.0145835
0.0147668
0.0145697
0.014753
0.014753
0.0145835
0.0145835
0.014753
0.0145835
0.0145835
0.0147668
0.0145697
0.014753
0.0145835
0.0145835
0.0145697
0.0145409
0.0143439
0.0145271
0.0145271
0.0143576
0.0143576
0.0145409
0.0143439
0.0145271
0.0145271
0.0143576
0.0143576
0.0145271
0.0143576
0.0143576
0.0145409
0.0143439
0.0145271
0.0143576
0.0143576
0.0143439
0.014315
0.014118
0.0143012
0.0143012
0.0141318
0.0141318
0.014315
0.014118
0.0143012
0.0143012
0.0141318
0.0141318
0.0143012
0.0141318
0.0141318
0.014315
0.014118
0.0143012
0.0141318
0.0141318
0.014118
0.0140891
0.0138921
0.0140753
0.0140753
0.0139059
0.0139059
0.0140891
0.0138921
0.0140753
0.0140753
0.0139059
0.0139059
0.0140753
0.0139059
0.0139059
0.0140891
0.0138921
0.0140753
0.0139059
0.0139059
0.0138921
0.0138632
0.0136662
0.0138494
0.0138494
0.01368
0.01368
0.0138632
0.0136662
0.0138494
0.0138494
0.01368
0.01368
0.0138494
0.01368
0.01368
0.0138632
0.0136662
0.0138494
0.01368
0.01368
0.0136662
0.0136373
0.0134403
0.0136235
0.0136235
0.0134541
0.0134541
0.0136373
0.0134403
0.0136235
0.0136235
0.0134541
0.0134541
0.0136235
0.0134541
0.0134541
0.0136373
0.0134403
0.0136235
0.0134541
0.0134541
0.0134403
0.0134114
0.0132144
0.0133976
0.0133976
0.0132282
0.0132282
0.0134114
0.0132144
0.0133976
0.0133976
0.0132282
0.0132282
0.0133976
0.0132282
0.0132282
0.0134114
0.0132144
0.0133976
0.0132282
0.0132282
0.0132144
0.0131855
0.0129885
0.0131717
0.0131717
0.0130023
0.0130023
0.0131855
0.0129885
0.0131717
0.0131717
0.0130023
0.0130023
0.0131717
0.0130023
0.0130023
0.0131855
0.0129885
0.0131717
0.0130023
0.0130023
0.0129885
0.0129597
0.0127626
0.0129458
0.0129458
0.0127764
0.0127764
0.0129597
0.0127626
0.0129458
0.0129458
0.0127764
0.0127764
0.0129458
0.0127764
0.0127764
0.0129597
0.0127626
0.0129458
0.0127764
0.0127764
0.0127626
0.0127338
0.0125367
0.0127199
0.0127199
0.0125505
0.0125505
0.0127338
0.0125367
0.0127199
0.0127199
0.0125505
0.0125505
0.0127199
0.0125505
0.0125505
0.0127338
0.0125367
0.0127199
0.0125505
0.0125505
0.0125367
0.0125079
0.0123108
0.012494
0.012494
0.0123246
0.0123246
0.0125079
0.0123108
0.012494
0.012494
0.0123246
0.0123246
0.012494
0.0123246
0.0123246
0.0125079
0.0123108
0.012494
0.0123246
0.0123246
0.0123108
0.012282
0.0120849
0.0122681
0.0122681
0.0120987
0.0120987
0.012282
0.0120849
0.0122681
0.0122681
0.0120987
0.0120987
0.0122681
0.0120987
0.0120987
0.012282
0.0120849
0.0122681
0.0120987
0.0120987
0.0120849
0.0120561
0.011859
0.0120422
0.0120422
0.0118728
0.0118728
0.0120561
0.011859
0.0120422
0.0120422
0.0118728
0.0118728
0.0120422
0.0118728
0.0118728
0.0120561
0.011859
0.0120422
0.0118728
0.0118728
0.011859
0.0118302
0.0116331
0.0118163
0.0118163
0.0116469
0.0116469
0.0118302
0.0116331
0.0118163
0.0118163
0.0116469
0.0116469
0.0118163
0.0116469
0.0116469
0.0118302
0.0116331
0.0118163
0.0116469
0.0116469
0.0116331
0.0116043
0.0114072
0.0115905
0.0115905
0.011421
0.011421
0.0116043
0.0114072
0.0115905
0.0115905
0.011421
0.011421
0.0115905
0.011421
0.011421
0.0116043
0.0114072
0.0115905
0.011421
0.011421
0.0114072
0.0113784
0.0111814
0.0113646
0.0113646
0.0111951
0.0111951
0.0113784
0.0111814
0.0113646
0.0113646
0.0111951
0.0111951
0.0113646
0.0111951
0.0111951
0.0113784
0.0111814
0.0113646
0.0111951
0.0111951
0.0111814
0.0111525
0.0109555
0.0111387
0.0111387
0.0109692
0.0109692
0.0111525
0.0109555
0.0111387
0.0111387
0.0109692
0.0109692
0.0111387
0.0109692
0.0109692
0.0111525
0.0109555
0.0111387
0.0109692
0.0109692
0.0109555
0.0109266
0.0107296
0.0109128
0.0109128
0.0107434
0.0107434
0.0109266
0.0107296
0.0109128
0.0109128
0.0107434
0.0107434
0.0109128
0.0107434
0.0107434
0.0109266
0.0107296
0.0109128
0.0107434
0.0107434
0.0107296
0.0107007
0.0105037
0.0106869
0.0106869
0.0105175
0.0105175
0.0107007
0.0105037
0.0106869
0.0106869
0.0105175
0.0105175
0.0106869
0.0105175
0.0105175
0.0107007
0.0105037
0.0106869
0.0105175
0.0105175
0.0105037
0.0104748
0.0102778
0.010461
0.010461
0.0102916
0.0102916
0.0104748
0.0102778
0.010461
0.010461
0.0102916
0.0102916
0.010461
0.0102916
0.0102916
0.0104748
0.0102778
0.010461
0.0102916
0.0102916
0.0102778
0.0102489
0.0100519
0.0102351
0.0102351
0.0100657
0.0100657
0.0102489
0.0100519
0.0102351
0.0102351
0.0100657
0.0100657
0.0102351
0.0100657
0.0100657
0.0102489
0.0100519
0.0102351
0.0100657
0.0100657
0.0100519
0.010023
0.00982599
0.0100092
0.0100092
0.00983977
0.00983977
0.010023
0.00982598
0.0100092
0.0100092
0.00983977
0.00983977
0.0100092
0.00983977
0.00983977
0.010023
0.00982599
0.0100092
0.00983977
0.00983977
0.00982599
0.00979714
0.00960009
0.0097833
0.0097833
0.00961388
0.00961388
0.00979714
0.00960009
0.0097833
0.0097833
0.00961388
0.00961388
0.0097833
0.00961388
0.00961388
0.00979714
0.00960009
0.0097833
0.00961388
0.00961388
0.00960009
0.00957124
0.00937419
0.0095574
0.0095574
0.00938798
0.00938798
0.00957124
0.00937419
0.0095574
0.0095574
0.00938798
0.00938798
0.0095574
0.00938798
0.00938798
0.00957124
0.00937419
0.0095574
0.00938798
0.00938798
0.00937419
0.00934535
0.0091483
0.00933151
0.00933151
0.00916209
0.00916209
0.00934535
0.0091483
0.00933151
0.00933151
0.00916209
0.00916209
0.00933151
0.00916209
0.00916209
0.00934535
0.0091483
0.00933151
0.00916209
0.00916209
0.0091483
0.00911945
0.0089224
0.00910561
0.00910561
0.00893619
0.00893619
0.00911945
0.0089224
0.00910561
0.00910561
0.00893619
0.00893619
0.00910561
0.00893619
0.00893619
0.00911945
0.0089224
0.00910561
0.00893619
0.00893619
0.0089224
0.00889356
0.0086965
0.00887972
0.00887971
0.00871029
0.00871029
0.00889356
0.0086965
0.00887971
0.00887972
0.00871029
0.00871029
0.00887972
0.00871029
0.00871029
0.00889356
0.0086965
0.00887971
0.00871029
0.00871029
0.0086965
0.00866766
0.00847061
0.00865382
0.00865382
0.0084844
0.00848439
0.00866766
0.00847061
0.00865382
0.00865382
0.0084844
0.0084844
0.00865382
0.0084844
0.0084844
0.00866766
0.00847061
0.00865382
0.0084844
0.00848439
0.00847061
0.00844176
0.00824471
0.00842792
0.00842792
0.0082585
0.0082585
0.00844176
0.00824471
0.00842792
0.00842792
0.0082585
0.0082585
0.00842792
0.0082585
0.0082585
0.00844176
0.00824471
0.00842792
0.0082585
0.0082585
0.00824471
0.00821587
0.00801881
0.00820202
0.00820202
0.0080326
0.0080326
0.00821587
0.00801881
0.00820202
0.00820202
0.0080326
0.0080326
0.00820202
0.0080326
0.0080326
0.00821587
0.00801881
0.00820202
0.0080326
0.0080326
0.00801881
0.00798997
0.00779291
0.00797613
0.00797613
0.0078067
0.0078067
0.00798997
0.00779291
0.00797613
0.00797613
0.0078067
0.0078067
0.00797613
0.0078067
0.0078067
0.00798997
0.00779291
0.00797613
0.0078067
0.0078067
0.00779291
0.00776407
0.00756702
0.00775023
0.00775023
0.00758081
0.0075808
0.00776407
0.00756702
0.00775023
0.00775023
0.0075808
0.00758081
0.00775023
0.0075808
0.00758081
0.00776407
0.00756702
0.00775023
0.00758081
0.0075808
0.00756702
0.00753817
0.00734112
0.00752433
0.00752433
0.00735491
0.00735491
0.00753817
0.00734112
0.00752433
0.00752433
0.00735491
0.00735491
0.00752433
0.00735491
0.00735491
0.00753817
0.00734112
0.00752433
0.00735491
0.00735491
0.00734112
0.00731227
0.00711522
0.00729843
0.00729843
0.00712901
0.00712901
0.00731227
0.00711522
0.00729843
0.00729843
0.00712901
0.00712901
0.00729843
0.00712901
0.00712901
0.00731227
0.00711522
0.00729843
0.00712901
0.00712901
0.00711522
0.00708638
0.00688932
0.00707253
0.00707253
0.00690311
0.00690311
0.00708638
0.00688932
0.00707253
0.00707253
0.00690311
0.00690311
0.00707253
0.00690311
0.00690311
0.00708638
0.00688932
0.00707253
0.00690311
0.00690311
0.00688932
0.00686048
0.00666342
0.00684663
0.00684663
0.00667721
0.00667721
0.00686048
0.00666342
0.00684663
0.00684663
0.00667721
0.00667721
0.00684663
0.00667721
0.00667721
0.00686048
0.00666342
0.00684663
0.00667721
0.00667721
0.00666342
0.00663458
0.00643752
0.00662073
0.00662073
0.00645131
0.00645131
0.00663458
0.00643752
0.00662073
0.00662073
0.00645131
0.00645131
0.00662073
0.00645131
0.00645131
0.00663458
0.00643752
0.00662073
0.00645131
0.00645131
0.00643752
0.00640868
0.00621162
0.00639483
0.00639483
0.00622541
0.00622541
0.00640868
0.00621162
0.00639483
0.00639483
0.00622541
0.00622541
0.00639484
0.00622541
0.00622541
0.00640868
0.00621162
0.00639483
0.00622541
0.00622541
0.00621162
0.00618278
0.00598572
0.00616893
0.00616893
0.00599951
0.00599951
0.00618278
0.00598572
0.00616893
0.00616893
0.00599951
0.00599951
0.00616894
0.00599951
0.00599951
0.00618278
0.00598572
0.00616893
0.00599951
0.00599951
0.00598572
0.00595688
0.00575982
0.00594303
0.00594303
0.00577361
0.00577361
0.00595688
0.00575982
0.00594303
0.00594303
0.00577361
0.00577361
0.00594303
0.00577361
0.00577361
0.00595688
0.00575982
0.00594303
0.00577361
0.00577361
0.00575982
0.00573098
0.00553392
0.00571713
0.00571713
0.00554771
0.00554771
0.00573098
0.00553392
0.00571713
0.00571713
0.00554771
0.00554771
0.00571714
0.00554771
0.00554771
0.00573098
0.00553392
0.00571713
0.00554771
0.00554771
0.00553392
0.00550508
0.00530802
0.00549123
0.00549123
0.00532181
0.00532181
0.00550508
0.00530802
0.00549123
0.00549123
0.00532181
0.00532181
0.00549124
0.00532181
0.00532181
0.00550508
0.00530802
0.00549123
0.00532181
0.00532181
0.00530802
0.00527918
0.00508212
0.00526533
0.00526533
0.00509591
0.00509591
0.00527918
0.00508212
0.00526533
0.00526533
0.00509591
0.00509591
0.00526533
0.00509591
0.00509591
0.00527918
0.00508212
0.00526533
0.00509591
0.00509591
0.00508212
0.00505328
0.00485622
0.00503943
0.00503943
0.00487001
0.00487001
0.00505328
0.00485622
0.00503943
0.00503943
0.00487001
0.00487001
0.00503943
0.00487001
0.00487001
0.00505328
0.00485622
0.00503943
0.00487001
0.00487001
0.00485622
0.00482737
0.00463031
0.00481353
0.00481353
0.0046441
0.0046441
0.00482737
0.00463031
0.00481353
0.00481353
0.0046441
0.0046441
0.00481353
0.0046441
0.00464411
0.00482737
0.00463031
0.00481353
0.0046441
0.0046441
0.00463031
0.00460147
0.00440441
0.00458763
0.00458763
0.0044182
0.0044182
0.00460147
0.00440441
0.00458763
0.00458763
0.0044182
0.0044182
0.00458763
0.0044182
0.0044182
0.00460147
0.00440441
0.00458763
0.0044182
0.0044182
0.00440441
0.00437557
0.00417851
0.00436173
0.00436173
0.0041923
0.0041923
0.00437557
0.00417851
0.00436173
0.00436173
0.0041923
0.0041923
0.00436173
0.0041923
0.0041923
0.00437557
0.00417851
0.00436173
0.0041923
0.0041923
0.00417851
0.00414967
0.00395261
0.00413582
0.00413582
0.0039664
0.0039664
0.00414967
0.00395261
0.00413582
0.00413582
0.0039664
0.0039664
0.00413582
0.0039664
0.0039664
0.00414967
0.00395261
0.00413582
0.0039664
0.0039664
0.00395261
0.00392377
0.0037267
0.00390992
0.00390992
0.00374049
0.00374049
0.00392377
0.0037267
0.00390992
0.00390992
0.00374049
0.00374049
0.00390992
0.00374049
0.0037405
0.00392377
0.0037267
0.00390992
0.0037405
0.00374049
0.0037267
0.00369786
0.0035008
0.00368402
0.00368402
0.00351459
0.00351459
0.00369786
0.0035008
0.00368402
0.00368402
0.00351459
0.00351459
0.00368402
0.00351459
0.00351459
0.00369786
0.0035008
0.00368402
0.00351459
0.00351459
0.0035008
0.00347196
0.0032749
0.00345812
0.00345812
0.00328869
0.00328869
0.00347196
0.0032749
0.00345812
0.00345812
0.00328869
0.00328869
0.00345812
0.00328869
0.00328869
0.00347196
0.0032749
0.00345811
0.00328869
0.00328869
0.0032749
0.00324606
0.00304899
0.00323221
0.00323221
0.00306279
0.00306278
0.00324606
0.00304899
0.00323221
0.00323221
0.00306278
0.00306279
0.00323221
0.00306279
0.00306279
0.00324606
0.00304899
0.00323221
0.00306279
0.00306278
0.00304899
0.00302015
0.00282309
0.00300631
0.00300631
0.00283688
0.00283688
0.00302015
0.00282309
0.00300631
0.00300631
0.00283688
0.00283688
0.00300631
0.00283688
0.00283688
0.00302015
0.00282309
0.00300631
0.00283688
0.00283688
0.00282309
0.00279425
0.00259719
0.00278041
0.0027804
0.00261098
0.00261098
0.00279425
0.00259719
0.00278041
0.00278041
0.00261098
0.00261098
0.00278041
0.00261098
0.00261098
0.00279425
0.00259719
0.0027804
0.00261098
0.00261098
0.00259719
0.00256835
0.00237128
0.0025545
0.0025545
0.00238507
0.00238507
0.00256835
0.00237128
0.0025545
0.0025545
0.00238507
0.00238507
0.0025545
0.00238507
0.00238507
0.00256835
0.00237128
0.0025545
0.00238507
0.00238507
0.00237128
0.00234244
0.00214538
0.0023286
0.0023286
0.00215917
0.00215917
0.00234244
0.00214538
0.0023286
0.0023286
0.00215917
0.00215917
0.0023286
0.00215917
0.00215917
0.00234244
0.00214538
0.0023286
0.00215917
0.00215917
0.00214538
0.00211654
0.00191947
0.00210269
0.00210269
0.00193327
0.00193327
0.00211654
0.00191947
0.00210269
0.00210269
0.00193327
0.00193327
0.00210269
0.00193327
0.00193327
0.00211654
0.00191947
0.00210269
0.00193327
0.00193326
0.00191947
0.00189064
0.00169357
0.00187679
0.00187679
0.00170736
0.00170736
0.00189064
0.00169357
0.00187679
0.00187679
0.00170736
0.00170736
0.00187679
0.00170736
0.00170736
0.00189064
0.00169357
0.00187679
0.00170736
0.00170736
0.00169357
0.00166473
0.00146766
0.00165089
0.00165088
0.00148146
0.00148146
0.00166473
0.00146766
0.00165089
0.00165089
0.00148146
0.00148146
0.00165089
0.00148146
0.00148146
0.00166473
0.00146767
0.00165088
0.00148146
0.00148146
0.00146766
0.00143883
0.00124176
0.00142498
0.00142498
0.00125555
0.00125555
0.00143883
0.00124176
0.00142498
0.00142498
0.00125555
0.00125555
0.00142498
0.00125555
0.00125555
0.00143883
0.00124176
0.00142498
0.00125555
0.00125555
0.00124176
0.00121292
0.00101586
0.00119908
0.00119908
0.00102965
0.00102965
0.00121292
0.00101586
0.00119908
0.00119908
0.00102965
0.00102965
0.00119908
0.00102965
0.00102965
0.00121292
0.00101586
0.00119908
0.00102965
0.00102965
0.00101586
0.000987018
0.000789951
0.000973172
0.000973172
0.000803744
0.000803744
0.000987018
0.000789951
0.000973172
0.000973172
0.000803744
0.000803744
0.000973173
0.000803744
0.000803744
0.000987018
0.000789951
0.000973172
0.000803744
0.000803744
0.000789951
0.000761114
0.000564046
0.000747267
0.000747267
0.000577841
0.000577844
0.000761114
0.000564046
0.000747268
0.000747267
0.000577841
0.000577841
0.000747268
0.000577843
0.000577842
0.000761113
0.000564046
0.000747268
0.000577841
0.000577842
0.000564047
0.00053521
0.000338192
0.000521369
0.000521371
0.000352027
0.000352028
0.000535211
0.000338195
0.00052137
0.00052137
0.000352026
0.000352024
0.00052137
0.000352029
0.000352026
0.000535208
0.00033819
0.00052137
0.000352024
0.000352024
0.000338191
0.000309366
0.000116327
0.000295673
0.000295673
0.000130296
0.000130306
0.000309368
0.000116337
0.000295673
0.000295669
0.000130296
0.000130288
0.000295672
0.0001303
0.000130292
0.000309362
0.000116316
0.000295668
0.000130283
0.000130292
0.000116324
9.25267e-05
9.27529e-05
9.27622e-05
9.25392e-05
9.27531e-05
9.27419e-05
8.68482e-05
8.68354e-05
8.68399e-05
9.27507e-05
9.25147e-05
9.2751e-05
0.021379
0.0214149
0.0213955
0.0213955
0.0214708
0.0214287
0.0215341
0.0214071
0.0214708
0.0214287
0.0214071
0.0215342
0.0214441
0.0215512
0.0215513
0.0212372
0.0213599
0.0213454
0.0212391
0.0212298
0.0212336
0.0212371
0.0213598
0.0213454
0.021239
0.0213009
0.021301
0.0213009
0.0211342
0.0211342
0.0211343
0.0211342
0.0212337
0.0213383
0.021304
0.021247
0.0213152
0.021237
0.0212469
0.02123
0.0212338
0.0212338
0.021304
0.0213384
0.021247
0.0213154
0.0212469
0.0212371
0.0213394
0.0213393
0.0212334
0.0212358
0.0212357
0.0210076
0.0210925
0.0210925
0.0210076
0.0210924
0.0210076
0.0210076
0.0210925
0.0210925
0.0210076
0.0210779
0.0210779
0.0210779
0.0209086
0.0209086
0.0209086
0.0209086
0.0210081
0.0210919
0.021078
0.0210215
0.0210918
0.021008
0.0210215
0.0210924
0.0210076
0.0210081
0.021078
0.0210919
0.0210216
0.0210918
0.0210215
0.0210081
0.0210924
0.0210924
0.0210078
0.0210076
0.0210076
0.0207816
0.0208662
0.0208663
0.0207816
0.0208662
0.0207816
0.0207816
0.0208663
0.0208663
0.0207816
0.0208521
0.0208521
0.0208521
0.0206828
0.0206827
0.0206828
0.0206827
0.0207821
0.0208657
0.0208521
0.0207956
0.0208657
0.0207821
0.0207956
0.0208662
0.0207816
0.0207821
0.0208521
0.0208658
0.0207956
0.0208657
0.0207956
0.0207821
0.0208662
0.0208662
0.0207818
0.0207816
0.0207816
0.0205557
0.0206403
0.0206403
0.0205557
0.0206403
0.0205557
0.0205557
0.0206403
0.0206403
0.0205557
0.0206263
0.0206263
0.0206263
0.0204569
0.0204569
0.0204569
0.0204569
0.0205562
0.0206398
0.0206262
0.0205697
0.0206398
0.0205562
0.0205698
0.0206403
0.0205557
0.0205562
0.0206262
0.0206398
0.0205697
0.0206398
0.0205698
0.0205562
0.0206403
0.0206403
0.0205559
0.0205557
0.0205557
0.0203298
0.0204144
0.0204144
0.0203298
0.0204144
0.0203298
0.0203298
0.0204144
0.0204144
0.0203298
0.0204004
0.0204004
0.0204004
0.020231
0.020231
0.020231
0.020231
0.0203303
0.0204139
0.0204003
0.0203438
0.0204139
0.0203303
0.0203439
0.0204144
0.0203298
0.0203303
0.0204003
0.0204139
0.0203438
0.0204139
0.0203439
0.0203303
0.0204144
0.0204144
0.02033
0.0203298
0.0203298
0.0201039
0.0201885
0.0201886
0.0201039
0.0201885
0.0201039
0.0201039
0.0201885
0.0201886
0.0201039
0.0201745
0.0201745
0.0201745
0.0200051
0.0200051
0.0200051
0.0200051
0.0201044
0.020188
0.0201744
0.0201179
0.020188
0.0201044
0.020118
0.0201885
0.0201039
0.0201044
0.0201744
0.020188
0.0201179
0.020188
0.020118
0.0201044
0.0201885
0.0201885
0.0201041
0.0201039
0.0201039
0.019878
0.0199626
0.0199627
0.019878
0.0199626
0.019878
0.019878
0.0199626
0.0199627
0.019878
0.0199486
0.0199486
0.0199486
0.0197792
0.0197792
0.0197792
0.0197792
0.0198785
0.0199621
0.0199485
0.019892
0.0199621
0.0198785
0.0198921
0.0199626
0.019878
0.0198785
0.0199485
0.0199621
0.019892
0.0199621
0.0198921
0.0198785
0.0199626
0.0199626
0.0198783
0.019878
0.019878
0.0196521
0.0197368
0.0197368
0.0196521
0.0197367
0.0196521
0.0196521
0.0197368
0.0197368
0.0196521
0.0197227
0.0197227
0.0197227
0.0195533
0.0195533
0.0195533
0.0195533
0.0196526
0.0197363
0.0197226
0.0196661
0.0197362
0.0196526
0.0196662
0.0197367
0.0196521
0.0196526
0.0197226
0.0197363
0.0196661
0.0197362
0.0196662
0.0196526
0.0197367
0.0197367
0.0196524
0.0196521
0.0196521
0.0194262
0.0195109
0.0195109
0.0194262
0.0195108
0.0194262
0.0194262
0.0195109
0.0195109
0.0194262
0.0194968
0.0194968
0.0194968
0.0193274
0.0193274
0.0193274
0.0193274
0.0194267
0.0195104
0.0194967
0.0194402
0.0195103
0.0194267
0.0194403
0.0195108
0.0194262
0.0194267
0.0194967
0.0195104
0.0194402
0.0195103
0.0194403
0.0194267
0.0195108
0.0195108
0.0194265
0.0194262
0.0194262
0.0192003
0.019285
0.019285
0.0192003
0.0192849
0.0192003
0.0192003
0.019285
0.019285
0.0192003
0.0192709
0.0192709
0.0192709
0.0191015
0.0191015
0.0191015
0.0191015
0.0192008
0.0192845
0.0192708
0.0192144
0.0192844
0.0192008
0.0192144
0.0192849
0.0192003
0.0192008
0.0192708
0.0192845
0.0192144
0.0192844
0.0192144
0.0192008
0.0192849
0.0192849
0.0192006
0.0192003
0.0192003
0.0189744
0.0190591
0.0190591
0.0189744
0.019059
0.0189744
0.0189744
0.0190591
0.0190591
0.0189744
0.019045
0.019045
0.019045
0.0188756
0.0188756
0.0188756
0.0188756
0.0189749
0.0190586
0.019045
0.0189885
0.0190585
0.0189749
0.0189885
0.019059
0.0189744
0.0189749
0.019045
0.0190586
0.0189885
0.0190585
0.0189885
0.0189749
0.019059
0.019059
0.0189747
0.0189744
0.0189744
0.0187485
0.0188332
0.0188332
0.0187485
0.0188331
0.0187485
0.0187485
0.0188332
0.0188332
0.0187485
0.0188191