/*--------------------------------*- C++ -*----------------------------------*\
| =========                 |                                                 |
| \\      /  F ield         | OpenFOAM: The Open Source CFD Toolbox           |
|  \\    /   O peration     | Version:  v1906                                 |
|   \\  /    A nd           | Web:      www.OpenFOAM.com                      |
|    \\/     M anipulation  |                                                 |
\*---------------------------------------------------------------------------*/
FoamFile
{
    version     2.0;
    format      ascii;
    class       volScalarField;
    location    "950";
    object      epsilon;
}
// * * * * * * * * * * * * * * * * * * * * * * * * * * * * * * * * * * * * * //

dimensions      [0 2 -3 0 0 0 0];


internalField   nonuniform List<scalar> 
43248
(
1.14838e-06
8.63035e-07
8.63001e-07
1.14814e-06
8.6278e-07
8.6307e-07
8.62828e-07
8.63048e-07
1.14884e-06
8.6295e-07
8.62929e-07
1.14878e-06
3.19689e-07
3.19677e-07
3.1977e-07
3.1976e-07
1.84275e-05
1.84292e-05
5.46216e-06
5.46337e-06
4.09161e-06
9.1613e-06
4.09393e-06
4.09183e-06
9.16211e-06
9.1556e-06
4.09373e-06
2.10221e-06
3.47504e-06
5.58208e-07
5.52302e-07
2.10686e-06
2.1023e-06
8.56926e-07
3.47505e-06
5.58238e-07
3.47174e-06
5.52345e-07
2.10695e-06
1.84288e-05
1.84185e-05
1.14438e-06
5.46393e-06
5.46179e-06
5.46111e-06
5.45948e-06
1.84262e-05
1.84159e-05
9.16296e-06
4.09401e-06
3.47555e-06
5.5828e-07
2.10701e-06
9.16239e-06
4.0936e-06
5.5831e-07
3.47496e-06
2.10693e-06
2.10241e-06
8.56756e-07
3.47469e-06
5.58218e-07
3.47167e-06
5.52327e-07
2.107e-06
4.09191e-06
9.16189e-06
9.15545e-06
4.09363e-06
2.10233e-06
8.56966e-07
5.58273e-07
3.4748e-06
5.5238e-07
3.47188e-06
2.10692e-06
4.09154e-06
9.16188e-06
9.15542e-06
4.09399e-06
1.84296e-05
5.46362e-06
5.46188e-06
1.84282e-05
2.10243e-06
5.58347e-07
3.47512e-06
5.52442e-07
2.10699e-06
2.10248e-06
8.56853e-07
5.58349e-07
3.47565e-06
5.5246e-07
3.47195e-06
2.10704e-06
4.09183e-06
9.16234e-06
4.09406e-06
4.0917e-06
9.1633e-06
9.15657e-06
4.09401e-06
1.14387e-06
5.46204e-06
5.46415e-06
5.45958e-06
5.46123e-06
1.84281e-05
1.84178e-05
1.84301e-05
1.84198e-05
1.84223e-05
1.84244e-05
4.53815e-06
2.81207e-06
5.46185e-06
9.50059e-06
9.49694e-06
2.81011e-06
4.54051e-06
4.54442e-06
2.81183e-06
5.46369e-06
9.50347e-06
9.50127e-06
2.81174e-06
4.54271e-06
9.7362e-06
2.17309e-05
2.17286e-05
2.17241e-05
2.17228e-05
9.73571e-06
1.22035e-05
1.0824e-05
4.74426e-06
4.09192e-06
1.22005e-05
1.08269e-05
4.7444e-06
2.2054e-05
9.15827e-06
7.08846e-06
7.08899e-06
2.20609e-05
1.22038e-05
4.09338e-06
1.08302e-05
4.74602e-06
1.08271e-05
4.74587e-06
1.22071e-05
1.22034e-05
1.08246e-05
4.74458e-06
4.09185e-06
1.22009e-05
1.08266e-05
4.7446e-06
2.20545e-05
9.15959e-06
7.09018e-06
7.09056e-06
2.20611e-05
2.20565e-05
7.08956e-06
9.15816e-06
2.20499e-05
7.08917e-06
1.22042e-05
4.09372e-06
1.08298e-05
4.7461e-06
1.08277e-05
4.74616e-06
1.22069e-05
1.84239e-05
1.84234e-05
9.73345e-06
2.17175e-05
2.17182e-05
9.73383e-06
2.17238e-05
2.17245e-05
4.54454e-06
2.81219e-06
5.46359e-06
9.50442e-06
2.81168e-06
9.50074e-06
4.54482e-06
4.5386e-06
2.81098e-06
5.46182e-06
9.49975e-06
9.49611e-06
2.81049e-06
4.53874e-06
4.54225e-06
9.49608e-06
2.80844e-06
5.46166e-06
2.80902e-06
4.54183e-06
9.49968e-06
4.53606e-06
9.49145e-06
2.80725e-06
5.45949e-06
4.53597e-06
9.49502e-06
2.80782e-06
9.73581e-06
2.17288e-05
2.17295e-05
2.17225e-05
2.17232e-05
9.73542e-06
1.84212e-05
1.84209e-05
2.20541e-05
9.16004e-06
7.09004e-06
7.09039e-06
2.20607e-05
1.22041e-05
4.09363e-06
4.7463e-06
1.08307e-05
4.74602e-06
1.08277e-05
1.22072e-05
2.20542e-05
9.15977e-06
7.08864e-06
7.08915e-06
2.2061e-05
1.22044e-05
4.09379e-06
1.083e-05
4.74602e-06
1.0828e-05
4.74602e-06
1.2207e-05
1.22029e-05
4.74447e-06
1.08246e-05
4.09183e-06
1.22004e-05
4.74432e-06
1.08266e-05
2.20531e-05
9.15945e-06
7.08961e-06
7.08998e-06
2.20597e-05
2.20551e-05
7.08899e-06
9.15796e-06
2.20485e-05
7.08861e-06
1.22038e-05
4.09384e-06
4.74583e-06
1.08298e-05
4.74609e-06
1.08278e-05
1.22066e-05
1.22035e-05
1.0824e-05
4.74415e-06
4.09207e-06
1.22006e-05
1.0827e-05
4.74446e-06
2.20538e-05
9.15942e-06
7.08825e-06
7.08862e-06
2.20604e-05
2.20557e-05
7.08762e-06
9.15793e-06
2.20492e-05
7.08724e-06
1.2204e-05
4.09352e-06
1.08302e-05
4.7461e-06
1.08272e-05
4.74574e-06
1.22069e-05
1.84246e-05
4.54488e-06
2.8126e-06
5.46366e-06
9.50412e-06
2.81153e-06
9.50119e-06
4.54516e-06
4.53884e-06
2.81152e-06
5.46192e-06
9.49951e-06
9.49659e-06
2.81043e-06
4.53921e-06
9.73669e-06
2.17299e-05
2.17303e-05
2.17236e-05
2.1724e-05
9.73633e-06
1.84232e-05
1.22036e-05
4.74419e-06
1.0825e-05
4.09189e-06
1.22009e-05
4.7442e-06
1.0827e-05
2.20542e-05
9.15937e-06
7.08827e-06
7.08862e-06
2.20608e-05
2.20561e-05
7.08724e-06
1.22042e-05
4.09359e-06
4.74607e-06
1.08303e-05
4.74577e-06
1.08281e-05
1.22072e-05
1.22036e-05
4.7445e-06
1.08246e-05
4.09214e-06
1.22006e-05
4.74469e-06
1.08275e-05
2.20539e-05
9.16027e-06
7.08998e-06
7.09048e-06
2.20608e-05
2.20562e-05
7.08949e-06
9.15918e-06
2.20493e-05
7.08897e-06
1.22039e-05
4.0936e-06
4.74627e-06
1.08308e-05
4.74615e-06
1.08278e-05
1.22072e-05
9.73406e-06
2.1719e-05
2.17183e-05
9.73444e-06
2.17252e-05
2.17246e-05
4.53873e-06
2.81108e-06
5.46194e-06
9.49963e-06
2.81049e-06
9.49668e-06
4.53913e-06
4.54486e-06
2.81232e-06
5.46365e-06
9.50481e-06
2.81169e-06
9.50113e-06
4.54492e-06
4.53651e-06
9.49195e-06
2.80722e-06
5.45971e-06
4.5361e-06
2.80812e-06
9.49497e-06
4.54237e-06
9.49646e-06
2.80845e-06
5.46184e-06
4.54225e-06
2.80935e-06
9.50006e-06
9.73644e-06
2.17303e-05
2.17296e-05
2.1724e-05
2.17233e-05
9.73604e-06
1.84232e-05
1.84227e-05
1.84251e-05
1.84247e-05
2.66823e-06
1.14933e-06
1.76792e-06
1.76739e-06
1.76777e-06
1.76779e-06
2.66807e-06
2.66823e-06
1.14941e-06
1.76751e-06
1.76739e-06
1.76814e-06
1.76794e-06
2.66803e-06
2.66799e-06
1.14919e-06
1.76839e-06
1.76828e-06
1.76785e-06
1.76775e-06
2.66868e-06
2.668e-06
1.14901e-06
1.76813e-06
1.76838e-06
1.76763e-06
1.76784e-06
2.6687e-06
1.66591e-07
1.66573e-07
1.6448e-07
7.93908e-08
7.99329e-08
3.15737e-07
1.6659e-07
1.66542e-07
1.64478e-07
1.64431e-07
7.93863e-08
7.99279e-08
1.66638e-07
1.66613e-07
1.64497e-07
7.94076e-08
7.99506e-08
3.15815e-07
1.66619e-07
1.66606e-07
1.64505e-07
1.64494e-07
7.94042e-08
7.9947e-08
1.41082e-06
2.36153e-06
1.27347e-06
2.10319e-06
1.41068e-06
2.36239e-06
1.27401e-06
1.61687e-06
2.03251e-06
3.47447e-06
2.86035e-06
2.03162e-06
2.85968e-06
1.6172e-06
1.41579e-06
2.1059e-06
2.36578e-06
1.27948e-06
2.3649e-06
1.27878e-06
1.41584e-06
1.41101e-06
2.36182e-06
1.27339e-06
2.10326e-06
1.41085e-06
2.36267e-06
1.27421e-06
1.6173e-06
2.03265e-06
3.47484e-06
2.86092e-06
2.86019e-06
2.03204e-06
1.61756e-06
1.61298e-06
2.85724e-06
2.02777e-06
3.47264e-06
1.61253e-06
2.85792e-06
2.02864e-06
1.41595e-06
2.10599e-06
2.36603e-06
1.27949e-06
2.36517e-06
1.27874e-06
1.41599e-06
2.66482e-06
1.14322e-06
1.7638e-06
1.76362e-06
1.76366e-06
2.66476e-06
1.76352e-06
1.61837e-06
2.03214e-06
3.47484e-06
2.86051e-06
2.03246e-06
2.86032e-06
1.61593e-06
1.41664e-06
2.1061e-06
2.36602e-06
1.27834e-06
2.36515e-06
1.28003e-06
1.41502e-06
1.61826e-06
2.03198e-06
3.47525e-06
2.86041e-06
2.85976e-06
2.03261e-06
1.61587e-06
1.41656e-06
2.10606e-06
1.27832e-06
2.36587e-06
1.27999e-06
2.36502e-06
1.41495e-06
1.40971e-06
2.36186e-06
1.2745e-06
2.10335e-06
1.41246e-06
2.36262e-06
1.27314e-06
1.61859e-06
2.03176e-06
3.47459e-06
2.8607e-06
2.03186e-06
2.86016e-06
1.61599e-06
1.61185e-06
2.85727e-06
2.0277e-06
3.47194e-06
1.61368e-06
2.02785e-06
2.85749e-06
1.41761e-06
2.10607e-06
2.36596e-06
1.2782e-06
2.36523e-06
1.27982e-06
1.41453e-06
1.40959e-06
1.274e-06
2.36167e-06
2.10327e-06
1.41223e-06
1.27316e-06
2.36248e-06
1.61841e-06
2.03172e-06
3.47475e-06
2.86005e-06
2.85989e-06
2.03191e-06
1.61593e-06
1.61174e-06
2.85692e-06
2.02775e-06
3.47188e-06
1.61351e-06
2.85713e-06
2.02791e-06
1.41725e-06
2.106e-06
1.27819e-06
2.36584e-06
1.27959e-06
2.36505e-06
1.41467e-06
1.40977e-06
1.27439e-06
2.36174e-06
2.10335e-06
1.4124e-06
1.27323e-06
2.36249e-06
1.61821e-06
2.0324e-06
3.47454e-06
2.85996e-06
2.0318e-06
2.85966e-06
1.61593e-06
1.61151e-06
2.85728e-06
1.41742e-06
2.10609e-06
1.27818e-06
2.36587e-06
1.27978e-06
2.3651e-06
1.41482e-06
1.40971e-06
1.27455e-06
2.36193e-06
2.1034e-06
1.41243e-06
1.27323e-06
2.36265e-06
1.61871e-06
2.03243e-06
3.4751e-06
2.8609e-06
2.86014e-06
2.03248e-06
1.61611e-06
1.61196e-06
2.8572e-06
2.02845e-06
3.47287e-06
1.61378e-06
2.85789e-06
2.0283e-06
1.41757e-06
2.10614e-06
1.27834e-06
2.36599e-06
1.27996e-06
2.3653e-06
1.41452e-06
2.66544e-06
1.14357e-06
1.76345e-06
1.76367e-06
2.66445e-06
1.7638e-06
1.7641e-06
1.33481e-07
2.30054e-07
2.30116e-07
3.573e-07
3.52223e-07
2.27839e-07
2.27855e-07
3.51726e-07
2.27787e-07
2.27892e-07
2.27742e-07
2.27832e-07
3.51403e-07
2.27801e-07
2.27799e-07
3.51232e-07
3.56943e-07
3.7738e-07
2.30113e-07
2.30166e-07
2.37897e-07
2.37903e-07
3.56806e-07
3.77569e-07
2.30138e-07
2.30207e-07
2.37803e-07
2.37941e-07
2.3014e-07
2.37779e-07
2.37873e-07
3.57735e-07
3.77198e-07
2.30106e-07
2.37842e-07
2.37838e-07
3.76525e-07
1.34151e-07
1.34146e-07
1.34162e-07
1.34154e-07
3.68128e-06
8.90895e-06
3.65205e-06
8.91436e-06
1.84693e-05
1.84613e-05
3.68174e-06
8.91115e-06
3.65209e-06
8.91586e-06
1.33474e-07
1.3349e-07
1.3348e-07
1.31777e-07
1.31772e-07
1.3179e-07
1.31781e-07
1.15717e-06
2.79922e-06
1.58222e-07
2.32499e-07
1.12974e-06
2.8213e-06
1.58426e-07
1.84708e-05
1.84628e-05
1.15739e-06
1.58225e-07
2.79817e-06
2.32561e-07
1.12989e-06
1.58439e-07
2.82292e-06
5.13559e-06
5.13753e-06
3.63819e-07
5.14798e-06
5.14995e-06
1.84753e-05
1.84836e-05
1.84774e-05
1.84857e-05
3.45203e-07
5.12937e-06
5.13136e-06
5.1155e-06
5.11731e-06
3.60265e-06
8.90859e-06
8.90288e-06
3.6356e-06
3.60257e-06
8.90925e-06
8.90443e-06
3.63592e-06
1.08673e-06
2.25621e-07
2.7862e-06
1.58107e-07
2.75939e-06
1.58067e-07
1.11482e-06
1.08727e-06
2.25663e-07
2.7865e-06
1.58119e-07
2.75992e-06
1.58076e-07
1.11445e-06
1.84763e-05
1.84847e-05
3.44953e-07
5.12988e-06
5.12786e-06
5.11873e-06
5.11688e-06
1.84752e-05
1.84835e-05
3.60267e-06
8.91007e-06
8.90519e-06
3.63638e-06
1.08681e-06
2.25636e-07
2.78669e-06
1.58124e-07
2.75992e-06
1.58076e-07
1.11535e-06
3.6029e-06
8.90948e-06
8.90472e-06
3.63602e-06
1.08665e-06
2.257e-07
1.58128e-07
2.78519e-06
1.58082e-07
2.76181e-06
1.11505e-06
1.0873e-06
2.25556e-07
2.78457e-06
1.5811e-07
2.76087e-06
1.58069e-07
1.1146e-06
3.60266e-06
8.90992e-06
8.90431e-06
3.63629e-06
1.08711e-06
2.2564e-07
1.58114e-07
2.78482e-06
1.58071e-07
2.76131e-06
1.11447e-06
3.60357e-06
8.90935e-06
8.90368e-06
3.63595e-06
1.84778e-05
1.84862e-05
3.45844e-07
5.13127e-06
5.12959e-06
5.11737e-06
5.11543e-06
1.84762e-05
1.84846e-05
1.0874e-06
2.25614e-07
1.58124e-07
2.78625e-06
1.58079e-07
2.75989e-06
1.11485e-06
1.08731e-06
2.25607e-07
1.58118e-07
2.78665e-06
1.58075e-07
2.76011e-06
1.11482e-06
3.60359e-06
8.90923e-06
8.90444e-06
3.63616e-06
3.6032e-06
8.91014e-06
8.90533e-06
3.63617e-06
3.45601e-07
5.12956e-06
5.13152e-06
5.11533e-06
5.11729e-06
1.84761e-05
1.84844e-05
1.84775e-05
1.84859e-05
1.84682e-05
1.84602e-05
1.84702e-05
1.84622e-05
5.13544e-06
5.13725e-06
3.64327e-07
5.14726e-06
5.14974e-06
1.84459e-05
1.84533e-05
1.84475e-05
1.84553e-05
3.69438e-07
5.16503e-06
5.166e-06
5.15329e-06
5.15527e-06
3.6814e-06
8.91035e-06
3.65191e-06
8.9151e-06
1.15726e-06
2.79793e-06
1.5822e-07
2.32602e-07
1.12942e-06
2.82277e-06
1.58422e-07
1.15707e-06
2.79843e-06
1.58228e-07
2.32617e-07
1.12981e-06
2.82311e-06
1.58429e-07
3.6958e-06
8.91987e-06
8.91472e-06
3.72225e-06
3.69588e-06
8.92061e-06
8.91616e-06
3.72236e-06
1.17191e-06
2.35135e-07
2.85745e-06
1.59084e-07
2.83399e-06
1.58715e-07
1.19965e-06
1.17213e-06
2.35193e-07
2.85772e-06
1.59094e-07
2.8345e-06
1.58727e-07
1.19918e-06
5.13841e-06
5.13675e-06
3.64061e-07
5.14818e-06
5.14622e-06
1.84681e-05
1.84601e-05
1.84469e-05
1.84545e-05
3.69221e-07
5.16526e-06
5.16407e-06
5.15634e-06
5.15473e-06
1.84456e-05
1.84533e-05
1.1578e-06
2.79839e-06
1.58225e-07
2.32538e-07
1.12941e-06
2.82324e-06
1.58435e-07
3.68179e-06
8.91062e-06
3.65211e-06
8.9153e-06
1.15767e-06
1.58234e-07
2.79976e-06
2.32654e-07
1.12948e-06
1.58435e-07
2.82175e-06
3.69612e-06
8.92131e-06
8.91692e-06
3.7225e-06
1.17195e-06
2.35167e-07
2.85771e-06
1.591e-07
2.83447e-06
1.58724e-07
1.19988e-06
3.6959e-06
8.9208e-06
8.91642e-06
3.72246e-06
1.17185e-06
2.35234e-07
1.59098e-07
2.85646e-06
1.58732e-07
2.83576e-06
1.19993e-06
3.68163e-06
8.91038e-06
3.652e-06
8.91575e-06
1.15701e-06
1.5822e-07
2.79931e-06
2.32591e-07
1.12984e-06
1.58424e-07
2.82135e-06
3.68185e-06
8.90979e-06
3.65206e-06
8.9152e-06
1.17232e-06
2.35072e-07
2.85588e-06
1.59088e-07
2.83519e-06
1.58718e-07
1.19934e-06
3.69623e-06
8.92118e-06
8.91613e-06
3.7219e-06
1.17231e-06
2.35163e-07
1.59087e-07
2.85732e-06
1.58719e-07
2.8353e-06
1.19929e-06
3.6958e-06
8.92068e-06
8.91557e-06
3.72254e-06
5.13731e-06
5.13552e-06
3.63573e-07
5.14963e-06
5.14796e-06
1.84692e-05
1.84611e-05
1.84484e-05
1.84559e-05
3.70328e-07
5.16631e-06
5.16494e-06
5.15537e-06
5.1535e-06
1.84466e-05
1.84543e-05
1.15719e-06
1.58224e-07
2.79863e-06
2.32556e-07
1.12994e-06
1.58428e-07
2.82331e-06
3.68171e-06
8.91034e-06
3.65211e-06
8.91505e-06
3.68163e-06
8.91126e-06
3.65221e-06
8.91598e-06
1.17239e-06
2.35138e-07
1.59103e-07
2.85734e-06
1.58721e-07
2.83411e-06
1.1993e-06
1.17246e-06
2.35129e-07
1.59091e-07
2.85789e-06
1.58722e-07
2.83468e-06
1.19942e-06
3.69599e-06
8.92051e-06
8.91612e-06
3.72246e-06
3.69618e-06
8.92146e-06
8.91705e-06
3.72254e-06
1.8469e-05
1.8461e-05
1.84705e-05
1.84625e-05
3.69963e-07
5.16494e-06
5.16688e-06
5.15347e-06
5.1554e-06
1.84466e-05
1.84542e-05
1.8448e-05
1.84556e-05
1.21312e-05
3.67422e-06
1.06762e-05
4.49107e-06
1.06713e-05
4.48707e-06
1.21342e-05
2.2436e-05
7.2155e-06
8.91152e-06
2.24344e-05
7.21509e-06
1.21309e-05
3.65933e-06
1.06663e-05
4.47151e-06
1.21279e-05
1.0671e-05
4.47567e-06
2.24247e-05
7.21645e-06
8.91187e-06
7.21709e-06
2.24263e-05
1.84687e-05
1.84618e-05
1.21313e-05
3.67485e-06
4.49148e-06
1.06766e-05
4.48746e-06
1.06717e-05
1.21344e-05
2.24362e-05
7.21735e-06
8.91303e-06
2.24348e-05
7.21699e-06
1.21311e-05
3.65947e-06
4.47186e-06
1.06667e-05
1.2128e-05
4.47621e-06
1.06713e-05
2.24252e-05
7.21828e-06
8.91404e-06
7.21887e-06
2.24265e-05
1.84703e-05
1.84633e-05
9.73106e-06
2.19128e-05
2.19122e-05
2.19125e-05
2.19119e-05
9.72931e-06
3.96336e-06
1.92625e-06
9.03755e-06
5.13896e-06
3.95725e-06
1.93392e-06
9.04235e-06
3.96904e-06
1.92808e-06
9.04239e-06
5.14092e-06
3.96545e-06
1.93538e-06
9.04715e-06
9.72887e-06
2.19226e-05
2.1922e-05
9.73049e-06
2.19228e-05
2.19222e-05
3.97373e-06
9.04955e-06
5.14481e-06
1.95531e-06
1.94787e-06
9.04493e-06
3.97933e-06
3.98169e-06
9.05435e-06
5.14676e-06
1.95656e-06
1.94955e-06
9.04975e-06
3.98515e-06
1.84758e-05
1.8483e-05
1.84779e-05
1.84851e-05
9.72695e-06
2.19423e-05
2.19425e-05
9.72829e-06
2.19426e-05
2.19428e-05
3.94139e-06
1.91168e-06
5.12594e-06
9.03483e-06
9.02918e-06
1.90502e-06
3.94509e-06
3.94817e-06
1.91317e-06
5.12774e-06
9.03996e-06
9.03503e-06
1.90673e-06
3.9534e-06
3.92743e-06
9.02127e-06
1.88284e-06
5.11922e-06
3.9236e-06
9.02709e-06
1.88951e-06
3.93456e-06
9.0272e-06
1.88457e-06
5.12123e-06
3.93044e-06
9.03224e-06
1.89107e-06
9.72942e-06
2.19324e-05
2.19326e-05
2.19321e-05
2.19323e-05
9.72792e-06
1.21241e-05
1.06561e-05
4.43664e-06
3.61148e-06
1.21209e-05
1.06607e-05
4.44285e-06
2.2444e-05
8.9059e-06
7.21323e-06
2.24457e-05
7.21343e-06
2.24553e-05
7.21084e-06
8.9055e-06
2.24536e-05
7.21081e-06
1.21244e-05
3.62773e-06
1.06659e-05
4.4594e-06
1.21276e-05
1.06611e-05
4.45453e-06
1.21242e-05
1.06562e-05
4.43701e-06
3.61147e-06
1.2121e-05
1.06609e-05
4.44311e-06
2.24449e-05
8.90737e-06
7.21528e-06
7.21554e-06
2.24462e-05
2.24558e-05
7.21321e-06
8.90628e-06
2.24544e-05
7.21291e-06
1.21245e-05
3.62792e-06
1.06659e-05
4.46043e-06
1.06612e-05
4.45485e-06
1.21277e-05
1.84769e-05
1.8484e-05
9.72686e-06
2.1942e-05
2.19427e-05
9.72815e-06
2.19423e-05
2.1943e-05
3.94754e-06
1.91359e-06
5.12905e-06
9.03993e-06
1.90617e-06
9.03423e-06
3.95154e-06
3.94127e-06
1.91133e-06
5.12734e-06
9.0353e-06
9.0296e-06
1.905e-06
3.94507e-06
3.93555e-06
9.02635e-06
1.88353e-06
5.11981e-06
1.89138e-06
3.92935e-06
9.03218e-06
3.92736e-06
9.02167e-06
1.88274e-06
5.11768e-06
3.9234e-06
9.02753e-06
1.88935e-06
9.72928e-06
2.19321e-05
2.19329e-05
2.19318e-05
2.19326e-05
9.72782e-06
1.84758e-05
1.84829e-05
1.21242e-05
4.43705e-06
1.06564e-05
3.61119e-06
1.2121e-05
4.44322e-06
1.0661e-05
2.24444e-05
8.90814e-06
7.21515e-06
2.24458e-05
7.21538e-06
2.24554e-05
7.21292e-06
8.90709e-06
2.24539e-05
7.21277e-06
1.21245e-05
3.62838e-06
4.46002e-06
1.06663e-05
1.21277e-05
4.45495e-06
1.06614e-05
1.21244e-05
1.06562e-05
4.43715e-06
3.61139e-06
1.21212e-05
1.06609e-05
4.44289e-06
2.24441e-05
8.90766e-06
7.21338e-06
7.21379e-06
2.24458e-05
2.24555e-05
7.21127e-06
8.90652e-06
2.24537e-05
7.21101e-06
1.21247e-05
3.62818e-06
1.06659e-05
4.46029e-06
1.06612e-05
4.4548e-06
1.21279e-05
1.2124e-05
4.43753e-06
1.06573e-05
3.6116e-06
1.21209e-05
4.4426e-06
1.06603e-05
2.24445e-05
8.90731e-06
7.21487e-06
7.21494e-06
2.2446e-05
2.24557e-05
7.21246e-06
8.90692e-06
2.24542e-05
7.21256e-06
1.21244e-05
3.62807e-06
4.45997e-06
1.06652e-05
4.45515e-06
1.0662e-05
1.21275e-05
1.2124e-05
1.06561e-05
4.43732e-06
3.61107e-06
1.21208e-05
1.06607e-05
4.4425e-06
2.24435e-05
8.90672e-06
7.21305e-06
7.21316e-06
2.2445e-05
2.24546e-05
7.21068e-06
8.90632e-06
2.24531e-05
7.21075e-06
1.21243e-05
3.62818e-06
1.06657e-05
4.45956e-06
1.0661e-05
4.45498e-06
1.21275e-05
1.84784e-05
1.84856e-05
9.72772e-06
2.19432e-05
2.19433e-05
9.72902e-06
2.19435e-05
2.19436e-05
3.94754e-06
1.91334e-06
5.12783e-06
9.03982e-06
1.9069e-06
9.03487e-06
3.95347e-06
3.94052e-06
1.91176e-06
5.126e-06
9.03521e-06
9.02952e-06
1.90518e-06
3.94648e-06
3.93629e-06
9.02706e-06
1.88469e-06
5.12111e-06
1.89119e-06
3.92968e-06
9.03211e-06
3.9294e-06
9.02166e-06
1.88293e-06
5.11942e-06
3.9226e-06
9.02746e-06
1.88968e-06
9.73012e-06
2.19333e-05
2.19334e-05
2.1933e-05
2.19331e-05
9.72868e-06
1.84768e-05
1.8484e-05
1.21242e-05
4.43678e-06
1.06574e-05
3.61102e-06
1.2121e-05
4.44291e-06
1.06605e-05
2.24442e-05
8.90736e-06
7.21305e-06
7.21329e-06
2.24456e-05
2.24552e-05
7.2109e-06
8.90625e-06
2.24537e-05
7.21068e-06
1.21245e-05
3.62845e-06
4.4603e-06
1.06654e-05
4.45453e-06
1.06621e-05
1.21277e-05
1.2124e-05
4.43708e-06
1.06565e-05
3.61174e-06
1.21208e-05
4.4431e-06
1.06612e-05
2.24437e-05
8.90829e-06
7.21497e-06
7.2152e-06
2.24451e-05
2.24547e-05
7.21278e-06
8.90719e-06
2.24533e-05
7.21261e-06
1.21243e-05
3.62823e-06
4.46057e-06
1.06662e-05
4.45492e-06
1.06615e-05
1.21275e-05
9.72719e-06
2.19428e-05
2.19422e-05
9.7285e-06
2.19431e-05
2.19425e-05
3.94034e-06
1.91254e-06
5.12596e-06
9.03485e-06
3.94627e-06
1.90455e-06
9.0299e-06
3.94831e-06
1.91391e-06
5.12792e-06
9.03966e-06
3.9522e-06
1.90623e-06
9.03472e-06
3.92923e-06
9.02203e-06
1.88272e-06
5.11931e-06
3.92245e-06
1.89e-06
9.02718e-06
3.93448e-06
9.02696e-06
1.8837e-06
5.1213e-06
3.93051e-06
1.89161e-06
9.03194e-06
9.72963e-06
2.19329e-05
2.19323e-05
9.72818e-06
2.19326e-05
2.19321e-05
1.84766e-05
1.84838e-05
1.84781e-05
1.84852e-05
1.84677e-05
1.84607e-05
1.84697e-05
1.84627e-05
9.7308e-06
2.19123e-05
2.19125e-05
2.1912e-05
2.19121e-05
9.72908e-06
3.96186e-06
1.92683e-06
9.03686e-06
5.13857e-06
3.95837e-06
9.04234e-06
1.93317e-06
3.97016e-06
1.92845e-06
9.04266e-06
5.14062e-06
3.96422e-06
9.04748e-06
1.93529e-06
9.72862e-06
2.1922e-05
2.19222e-05
9.73022e-06
2.19223e-05
2.19225e-05
3.97473e-06
9.04957e-06
5.14534e-06
1.95423e-06
9.04423e-06
3.97807e-06
1.94821e-06
3.98069e-06
9.05469e-06
5.14647e-06
1.95666e-06
9.05008e-06
3.98625e-06
1.9493e-06
1.8446e-05
1.84529e-05
1.84482e-05
1.84549e-05
9.72926e-06
2.19021e-05
2.19022e-05
9.73116e-06
2.19026e-05
2.19022e-05
4.0043e-06
1.99622e-06
5.1618e-06
9.06446e-06
9.05851e-06
1.98897e-06
4.01088e-06
4.01274e-06
1.9966e-06
5.16445e-06
9.06745e-06
9.06389e-06
1.99081e-06
4.01447e-06
3.99383e-06
9.0514e-06
1.96909e-06
5.15613e-06
3.99027e-06
9.05674e-06
1.97508e-06
4.00209e-06
9.05721e-06
1.97014e-06
5.15831e-06
3.99637e-06
9.06163e-06
1.9771e-06
9.73132e-06
2.18934e-05
2.18919e-05
2.18927e-05
2.18917e-05
9.72932e-06
1.21314e-05
3.6743e-06
1.06764e-05
4.49172e-06
1.06715e-05
4.4869e-06
1.21345e-05
2.24366e-05
7.21749e-06
8.91224e-06
2.24353e-05
7.21709e-06
1.21311e-05
3.6594e-06
1.06663e-05
4.47141e-06
1.06711e-05
1.2128e-05
4.47649e-06
2.24257e-05
7.21841e-06
8.91329e-06
7.219e-06
2.2427e-05
1.21374e-05
1.06768e-05
4.50154e-06
3.70278e-06
1.21344e-05
1.06817e-05
4.50534e-06
2.24056e-05
8.91737e-06
7.21786e-06
7.21888e-06
2.2407e-05
2.24168e-05
7.2182e-06
8.91714e-06
2.2415e-05
7.21739e-06
1.21376e-05
3.71569e-06
1.0687e-05
4.5185e-06
1.06821e-05
4.51517e-06
1.21404e-05
1.21376e-05
1.06769e-05
4.5016e-06
3.70283e-06
1.21347e-05
1.06818e-05
4.50555e-06
2.24064e-05
8.91891e-06
7.21984e-06
7.2208e-06
2.24076e-05
2.24173e-05
7.2201e-06
8.91794e-06
2.24161e-05
7.21932e-06
1.21378e-05
3.71586e-06
1.06872e-05
4.51896e-06
1.06823e-05
4.5154e-06
1.21406e-05
9.73072e-06
2.1912e-05
2.19128e-05
2.19117e-05
2.19125e-05
9.72899e-06
3.96855e-06
1.92808e-06
9.04194e-06
5.13911e-06
9.04745e-06
3.96514e-06
1.93449e-06
3.96181e-06
1.92678e-06
9.03728e-06
5.13712e-06
1.93294e-06
3.95827e-06
9.04281e-06
9.72851e-06
2.19217e-05
2.19225e-05
2.1922e-05
9.73013e-06
2.19228e-05
3.98161e-06
9.05469e-06
5.14766e-06
1.95567e-06
9.04932e-06
1.94983e-06
3.98485e-06
3.97464e-06
9.05003e-06
5.14603e-06
1.9541e-06
1.94819e-06
9.04468e-06
3.97802e-06
1.84676e-05
1.84606e-05
1.84473e-05
1.8454e-05
9.72922e-06
2.19018e-05
2.19025e-05
9.73108e-06
2.19021e-05
2.19029e-05
4.01147e-06
1.99672e-06
5.16507e-06
9.06851e-06
1.99109e-06
9.0634e-06
4.0167e-06
4.00549e-06
1.99499e-06
5.16359e-06
9.06384e-06
9.05873e-06
1.98951e-06
4.00843e-06
4.00171e-06
9.05648e-06
1.97068e-06
5.15692e-06
1.97661e-06
3.99713e-06
9.06169e-06
3.99339e-06
9.05187e-06
1.96903e-06
5.15509e-06
3.9903e-06
9.05702e-06
1.97485e-06
9.73123e-06
2.18923e-05
2.1893e-05
2.18919e-05
2.18927e-05
9.72928e-06
1.8446e-05
1.84528e-05
1.21315e-05
3.67447e-06
1.06765e-05
4.49176e-06
1.06715e-05
4.48671e-06
1.21346e-05
2.24362e-05
7.21577e-06
8.91247e-06
2.24346e-05
7.21524e-06
1.21313e-05
3.65957e-06
1.06664e-05
4.47134e-06
1.06711e-05
1.21282e-05
4.47648e-06
2.24249e-05
7.21656e-06
8.91358e-06
7.2173e-06
2.24265e-05
1.21375e-05
4.50193e-06
1.06772e-05
3.70266e-06
1.21346e-05
4.5057e-06
1.06821e-05
2.24058e-05
8.91966e-06
7.2197e-06
7.22066e-06
2.2407e-05
2.24168e-05
7.21996e-06
8.9187e-06
2.24155e-05
7.2192e-06
1.21377e-05
3.71621e-06
4.51896e-06
1.06875e-05
4.51553e-06
1.06826e-05
1.21405e-05
1.21377e-05
1.0677e-05
4.50135e-06
3.7027e-06
1.21348e-05
1.06819e-05
4.50613e-06
2.24056e-05
8.91918e-06
7.21799e-06
7.21912e-06
2.24071e-05
2.24168e-05
7.2184e-06
8.91815e-06
2.24153e-05
7.21748e-06
1.21379e-05
3.71601e-06
1.06873e-05
4.51934e-06
1.06824e-05
4.51488e-06
1.21407e-05
1.21311e-05
3.67446e-06
4.49136e-06
1.06757e-05
4.48727e-06
1.06723e-05
1.21341e-05
2.24363e-05
7.21699e-06
8.91291e-06
7.21672e-06
2.24349e-05
1.21309e-05
3.65959e-06
4.47174e-06
1.06671e-05
4.47612e-06
1.21278e-05
1.06705e-05
2.24252e-05
7.21807e-06
8.91328e-06
7.21856e-06
2.24266e-05
1.21312e-05
3.67429e-06
1.06762e-05
4.49161e-06
1.06713e-05
4.48688e-06
1.21342e-05
2.24353e-05
7.21519e-06
8.91233e-06
2.24339e-05
7.21487e-06
1.21309e-05
3.65966e-06
1.06662e-05
4.47154e-06
1.21278e-05
1.06709e-05
4.47608e-06
2.24243e-05
7.2162e-06
8.91271e-06
7.21674e-06
2.24257e-05
1.21372e-05
4.50174e-06
1.06776e-05
3.70202e-06
1.21344e-05
4.50603e-06
1.06812e-05
2.24057e-05
8.9188e-06
7.2195e-06
7.22039e-06
2.2407e-05
2.24168e-05
7.21969e-06
8.91851e-06
2.24155e-05
7.21899e-06
1.21374e-05
3.71668e-06
4.51946e-06
1.06865e-05
4.515e-06
1.06831e-05
1.21402e-05
1.21374e-05
1.06768e-05
4.50115e-06
3.70306e-06
1.21344e-05
1.06817e-05
4.50593e-06
2.2405e-05
8.91826e-06
7.21763e-06
7.21855e-06
2.24063e-05
2.2416e-05
7.21786e-06
8.91797e-06
2.24146e-05
7.21712e-06
1.21375e-05
3.71582e-06
1.0687e-05
4.51916e-06
1.06822e-05
4.51472e-06
1.21403e-05
9.73153e-06
2.19132e-05
2.19133e-05
2.19129e-05
2.1913e-05
9.72984e-06
3.97054e-06
1.92864e-06
9.04248e-06
5.14051e-06
9.04735e-06
3.96448e-06
1.93539e-06
3.96354e-06
1.92698e-06
9.03724e-06
5.13884e-06
1.93338e-06
3.95754e-06
9.04272e-06
9.72939e-06
2.19229e-05
2.1923e-05
2.19232e-05
9.73097e-06
2.19233e-05
3.98078e-06
9.05456e-06
5.14651e-06
1.95681e-06
9.04989e-06
1.94949e-06
3.98654e-06
3.97383e-06
9.05001e-06
5.1447e-06
1.95451e-06
1.9483e-06
9.04458e-06
3.97951e-06
1.84686e-05
1.84617e-05
1.84488e-05
1.84555e-05
9.73007e-06
2.19029e-05
2.1903e-05
9.73188e-06
2.19033e-05
2.19034e-05
4.01163e-06
1.99768e-06
5.16453e-06
9.06838e-06
1.9906e-06
9.06402e-06
4.01709e-06
4.00469e-06
1.99541e-06
5.16198e-06
9.0638e-06
9.05865e-06
1.98954e-06
4.01011e-06
4.0022e-06
9.05706e-06
1.97034e-06
5.15816e-06
1.97728e-06
3.99653e-06
9.06163e-06
3.99522e-06
9.05178e-06
1.96919e-06
5.15645e-06
3.98961e-06
9.057e-06
1.97524e-06
9.732e-06
2.18934e-05
2.18936e-05
2.18931e-05
2.18932e-05
9.73009e-06
1.84471e-05
1.84538e-05
1.21314e-05
3.67462e-06
4.49169e-06
1.06759e-05
4.48656e-06
1.06725e-05
1.21344e-05
2.24359e-05
7.21528e-06
8.91221e-06
7.21489e-06
2.24345e-05
1.21311e-05
3.65954e-06
4.47107e-06
1.06673e-05
4.47627e-06
1.2128e-05
1.06707e-05
2.24249e-05
7.21621e-06
8.91327e-06
7.21679e-06
2.24262e-05
1.21312e-05
3.67478e-06
4.49187e-06
1.06767e-05
4.48699e-06
1.06718e-05
1.21342e-05
2.24354e-05
7.21714e-06
8.91315e-06
2.24341e-05
7.21677e-06
1.21309e-05
3.65951e-06
4.47141e-06
1.06667e-05
1.21278e-05
4.47648e-06
1.06714e-05
2.24244e-05
7.21808e-06
8.9142e-06
7.21865e-06
2.24257e-05
1.21375e-05
4.50112e-06
1.06778e-05
3.70265e-06
1.21346e-05
4.50595e-06
1.06814e-05
2.24055e-05
8.91886e-06
7.21761e-06
7.21859e-06
2.24067e-05
2.24165e-05
7.21789e-06
8.91788e-06
2.24153e-05
7.21711e-06
1.21377e-05
3.71608e-06
4.51921e-06
1.06868e-05
4.51467e-06
1.06833e-05
1.21405e-05
1.21373e-05
4.50158e-06
1.06773e-05
3.70269e-06
1.21344e-05
4.50557e-06
1.06822e-05
2.2405e-05
8.9198e-06
7.21947e-06
7.22042e-06
2.24062e-05
2.2416e-05
7.21973e-06
8.91882e-06
2.24147e-05
7.21897e-06
1.21375e-05
3.71624e-06
4.51895e-06
1.06876e-05
4.51541e-06
1.06827e-05
1.21403e-05
1.84685e-05
1.84615e-05
1.84699e-05
1.8463e-05
9.72953e-06
2.19026e-05
2.1902e-05
9.73139e-06
2.19029e-05
2.19023e-05
4.00453e-06
1.99611e-06
5.16198e-06
9.06339e-06
1.98891e-06
9.05906e-06
4.00993e-06
4.01255e-06
1.99736e-06
5.16391e-06
9.0682e-06
1.99076e-06
9.06389e-06
4.01552e-06
3.99501e-06
9.05209e-06
1.96859e-06
5.15644e-06
3.98946e-06
1.97557e-06
9.05664e-06
4.00049e-06
9.05691e-06
1.97037e-06
5.15838e-06
3.99736e-06
1.97706e-06
9.06146e-06
9.73153e-06
2.18931e-05
2.18925e-05
2.18928e-05
2.18922e-05
9.72957e-06
1.8447e-05
1.84537e-05
1.84484e-05
1.84552e-05
1.17585e-07
1.17584e-07
1.32863e-07
1.16481e-07
1.16481e-07
1.09882e-07
1.11176e-07
1.74114e-06
7.65905e-07
7.67317e-07
3.57008e-07
1.73302e-06
7.71408e-07
7.70318e-07
1.71079e-06
3.50918e-07
7.5615e-07
7.56298e-07
7.51015e-07
7.51395e-07
1.71829e-06
1.71125e-06
3.50872e-07
7.56706e-07
7.55202e-07
7.51024e-07
7.51863e-07
1.71834e-06
1.71091e-06
3.51845e-07
7.55352e-07
7.56013e-07
7.52394e-07
7.51155e-07
1.71818e-06
1.71061e-06
3.51372e-07
7.5651e-07
7.55251e-07
1.71863e-06
7.50959e-07
7.52386e-07
1.74024e-06
7.6598e-07
7.66386e-07
3.58137e-07
1.73322e-06
7.7095e-07
7.71345e-07
1.79823e-06
3.76437e-07
8.16746e-07
8.16325e-07
8.11278e-07
8.11887e-07
1.8048e-06
1.741e-06
7.6597e-07
7.66702e-07
3.57783e-07
7.69966e-07
1.73284e-06
7.71429e-07
1.79776e-06
3.75961e-07
8.17105e-07
8.15538e-07
8.11345e-07
8.12254e-07
1.80529e-06
1.74121e-06
7.67231e-07
7.66239e-07
3.57384e-07
7.71207e-07
1.73335e-06
7.70418e-07
1.79814e-06
3.76904e-07
8.15855e-07
8.16657e-07
8.1287e-07
8.11389e-07
1.80558e-06
1.79796e-06
3.77019e-07
8.16905e-07
8.16961e-07
8.11243e-07
8.12372e-07
1.80542e-06
1.34871e-07
1.18725e-07
1.18724e-07
1.19901e-07
1.199e-07
1.13848e-07
1.12497e-07
1.34863e-07
1.18724e-07
1.1872e-07
1.19901e-07
1.19896e-07
1.13847e-07
1.12496e-07
1.34878e-07
1.1873e-07
1.18727e-07
1.19906e-07
1.19901e-07
1.13849e-07
1.12499e-07
1.34869e-07
1.18726e-07
1.18724e-07
1.19902e-07
1.199e-07
1.13848e-07
1.12497e-07
1.17585e-07
1.1758e-07
1.32858e-07
1.1648e-07
1.16476e-07
1.09882e-07
1.11175e-07
1.17591e-07
1.17586e-07
1.32875e-07
1.16486e-07
1.16483e-07
1.09884e-07
1.11177e-07
1.17586e-07
1.17584e-07
1.32867e-07
1.16482e-07
1.1648e-07
1.09883e-07
1.11176e-07
1.32294e-07
1.14379e-07
1.14379e-07
1.15413e-07
1.15411e-07
1.08618e-07
1.0738e-07
1.32286e-07
1.14379e-07
1.14375e-07
1.15413e-07
1.15408e-07
1.08617e-07
1.07379e-07
1.32302e-07
1.14385e-07
1.14381e-07
1.15418e-07
1.15413e-07
1.08619e-07
1.07382e-07
1.32293e-07
1.14381e-07
1.14378e-07
1.15414e-07
1.15411e-07
1.08618e-07
1.07381e-07
4.77106e-07
1.1511e-06
1.47464e-06
3.8822e-07
1.46885e-06
3.87241e-07
4.77448e-07
6.56898e-07
1.00041e-06
2.07407e-06
2.80318e-06
6.53261e-07
1.00474e-06
2.08142e-06
4.68601e-07
1.13611e-06
1.44676e-06
3.80057e-07
4.68334e-07
1.45295e-06
3.80996e-07
6.65047e-07
2.10217e-06
2.8175e-06
1.02175e-06
1.01754e-06
2.09522e-06
6.68485e-07
4.77112e-07
1.15117e-06
3.88887e-07
1.475e-06
3.86596e-07
1.46866e-06
4.77511e-07
6.56896e-07
1.00062e-06
2.07481e-06
2.80483e-06
6.53311e-07
1.00485e-06
2.08042e-06
4.68644e-07
1.13608e-06
3.79615e-07
1.44669e-06
4.68334e-07
3.81686e-07
1.45299e-06
6.651e-07
2.10116e-06
2.81649e-06
1.02211e-06
1.01766e-06
2.09563e-06
6.68494e-07
1.75526e-06
3.6389e-07
7.86634e-07
7.85331e-07
7.81157e-07
7.82448e-07
1.76276e-06
1.69547e-06
3.46013e-07
7.36014e-07
7.3643e-07
1.68764e-06
7.41144e-07
7.41324e-07
4.51452e-07
1.40193e-06
3.66666e-07
1.0938e-06
4.51206e-07
1.40805e-06
3.67435e-07
6.41752e-07
9.87506e-07
2.77912e-06
2.06024e-06
9.83833e-07
2.05254e-06
6.44969e-07
6.33878e-07
2.03061e-06
9.66887e-07
2.76678e-06
9.70664e-07
6.30245e-07
2.03844e-06
4.59364e-07
1.10797e-06
1.43065e-06
3.741e-07
1.42426e-06
3.73261e-07
4.59766e-07
4.51575e-07
1.40229e-06
3.65999e-07
1.09323e-06
4.51347e-07
1.40821e-06
3.6817e-07