/*--------------------------------*- C++ -*----------------------------------*\
| =========                 |                                                 |
| \\      /  F ield         | OpenFOAM: The Open Source CFD Toolbox           |
|  \\    /   O peration     | Version:  v1906                                 |
|   \\  /    A nd           | Web:      www.OpenFOAM.com                      |
|    \\/     M anipulation  |                                                 |
\*---------------------------------------------------------------------------*/
FoamFile
{
    version     2.0;
    format      ascii;
    class       volScalarField;
    location    "950";
    object      k;
}
// * * * * * * * * * * * * * * * * * * * * * * * * * * * * * * * * * * * * * //

dimensions      [0 2 -2 0 0 0 0];


internalField   nonuniform List<scalar> 
43248
(
4.17641e-05
3.64596e-05
3.64589e-05
4.17839e-05
3.64561e-05
3.64605e-05
3.64567e-05
3.64625e-05
4.1765e-05
3.64601e-05
3.64612e-05
4.17702e-05
2.08488e-05
2.08479e-05
2.08518e-05
2.08524e-05
6.95314e-05
6.95338e-05
6.68956e-05
6.69051e-05
6.46125e-05
7.13527e-05
6.47089e-05
6.46137e-05
7.13588e-05
7.13224e-05
6.47124e-05
5.30925e-05
6.01873e-05
2.88275e-05
2.85823e-05
5.32924e-05
5.30947e-05
3.62269e-05
6.01921e-05
2.88279e-05
6.00689e-05
2.85828e-05
5.32951e-05
6.95336e-05
6.95075e-05
4.15631e-05
6.69065e-05
6.68901e-05
6.68417e-05
6.68299e-05
6.95296e-05
6.95034e-05
7.13582e-05
6.47134e-05
6.01909e-05
2.88299e-05
5.32976e-05
7.13538e-05
6.47126e-05
2.88309e-05
6.01849e-05
5.32959e-05
5.30955e-05
3.62247e-05
6.01856e-05
2.88273e-05
6.0067e-05
2.85823e-05
5.32957e-05
6.46133e-05
7.13571e-05
7.13211e-05
6.4713e-05
5.30947e-05
3.62303e-05
2.883e-05
6.01872e-05
2.85848e-05
6.00651e-05
5.32944e-05
6.46134e-05
7.13546e-05
7.13186e-05
6.47099e-05
6.95321e-05
6.68969e-05
6.68947e-05
6.9532e-05
5.30971e-05
2.88334e-05
6.01885e-05
2.85881e-05
5.32978e-05
5.30971e-05
3.62291e-05
2.88341e-05
6.01936e-05
2.8589e-05
6.00708e-05
5.32976e-05
6.46154e-05
7.13544e-05
6.47121e-05
6.4617e-05
7.13585e-05
7.13235e-05
6.47131e-05
4.15787e-05
6.68942e-05
6.69075e-05
6.68336e-05
6.68443e-05
6.95317e-05
6.95057e-05
6.95348e-05
6.95088e-05
6.9519e-05
6.95213e-05
7.00288e-05
5.93327e-05
6.68783e-05
7.11374e-05
7.11187e-05
5.92683e-05
7.00692e-05
7.00875e-05
5.93265e-05
6.68862e-05
7.11472e-05
7.11291e-05
5.92861e-05
7.01022e-05
9.23399e-05
7.20373e-05
7.20304e-05
7.20231e-05
7.20167e-05
9.23515e-05
7.01255e-05
6.98228e-05
6.81206e-05
6.46512e-05
7.01156e-05
6.98315e-05
6.81518e-05
7.01848e-05
7.13391e-05
7.73862e-05
7.73676e-05
7.01993e-05
7.01286e-05
6.46717e-05
6.98451e-05
6.82009e-05
6.98364e-05
6.81707e-05
7.01396e-05
7.01284e-05
6.98213e-05
6.81252e-05
6.46539e-05
7.0117e-05
6.9834e-05
6.81617e-05
7.01874e-05
7.13429e-05
7.74093e-05
7.73878e-05
7.02015e-05
7.01916e-05
7.73587e-05
7.13379e-05
7.01777e-05
7.738e-05
7.013e-05
6.4672e-05
6.98479e-05
6.82102e-05
6.98349e-05
6.81764e-05
7.01415e-05
6.9521e-05
6.952e-05
9.23134e-05
7.20056e-05
7.2011e-05
9.23045e-05
7.20194e-05
7.20248e-05
7.00846e-05
5.93323e-05
6.6887e-05
7.11453e-05
5.92815e-05
7.11307e-05
7.01062e-05
7.00333e-05
5.93219e-05
6.68749e-05
7.11338e-05
7.1119e-05
5.92726e-05
7.00545e-05
7.00405e-05
7.11072e-05
5.91826e-05
6.68615e-05
5.92341e-05
7.00191e-05
7.11221e-05
6.9989e-05
7.10955e-05
5.91738e-05
6.6845e-05
6.99677e-05
7.11105e-05
5.92235e-05
9.23389e-05
7.20306e-05
7.2036e-05
7.20166e-05
7.2022e-05
9.23503e-05
6.95169e-05
6.9516e-05
7.01871e-05
7.13445e-05
7.74075e-05
7.7386e-05
7.02012e-05
7.01308e-05
6.46743e-05
6.8209e-05
6.98465e-05
6.81764e-05
6.98379e-05
7.01407e-05
7.01842e-05
7.13384e-05
7.73858e-05
7.73657e-05
7.01988e-05
7.01279e-05
6.46712e-05
6.98479e-05
6.82037e-05
6.98349e-05
6.81678e-05
7.01396e-05
7.01272e-05
6.81241e-05
6.98206e-05
6.46543e-05
7.0116e-05
6.81599e-05
6.98333e-05
7.01862e-05
7.13416e-05
7.74056e-05
7.73847e-05
7.02002e-05
7.01904e-05
7.73571e-05
7.13363e-05
7.01765e-05
7.73758e-05
7.01291e-05
6.46722e-05
6.82094e-05
6.98473e-05
6.81741e-05
6.98342e-05
7.01407e-05
7.01257e-05
6.98223e-05
6.81222e-05
6.46517e-05
7.01157e-05
6.9831e-05
6.81534e-05
7.01852e-05
7.13391e-05
7.73872e-05
7.73692e-05
7.01992e-05
7.01894e-05
7.73399e-05
7.13338e-05
7.01755e-05
7.73582e-05
7.01287e-05
6.46723e-05
6.98446e-05
6.82024e-05
6.98359e-05
6.81724e-05
7.01386e-05
6.95194e-05
7.00854e-05
5.93298e-05
6.68824e-05
7.11455e-05
5.92816e-05
7.11271e-05
7.01065e-05
7.00362e-05
5.93252e-05
6.68771e-05
7.11369e-05
7.11185e-05
5.92744e-05
7.00575e-05
9.2344e-05
7.20307e-05
7.2037e-05
7.20167e-05
7.20231e-05
9.23524e-05
6.95196e-05
7.01271e-05
6.8121e-05
6.98224e-05
6.46539e-05
7.01163e-05
6.81544e-05
6.98345e-05
7.01864e-05
7.13409e-05
7.73882e-05
7.7368e-05
7.02003e-05
7.01905e-05
7.7359e-05
7.01296e-05
6.46739e-05
6.82024e-05
6.98482e-05
6.81723e-05
6.98363e-05
7.01399e-05
7.01277e-05
6.8126e-05
6.98245e-05
6.4655e-05
7.01177e-05
6.81584e-05
6.98332e-05
7.01869e-05
7.13453e-05
7.74039e-05
7.73855e-05
7.02015e-05
7.01917e-05
7.73565e-05
7.13387e-05
7.01772e-05
7.73751e-05
7.01308e-05
6.46756e-05
6.82074e-05
6.98468e-05
6.81758e-05
6.98381e-05
7.01417e-05
9.23173e-05
7.20123e-05
7.20064e-05
9.23086e-05
7.20262e-05
7.20202e-05
7.00352e-05
5.93246e-05
6.6879e-05
7.11369e-05
5.9274e-05
7.11185e-05
7.00566e-05
7.0088e-05
5.93364e-05
6.68894e-05
7.11465e-05
5.92846e-05
7.11318e-05
7.01093e-05
6.99909e-05
7.10952e-05
5.91751e-05
6.68492e-05
6.99693e-05
5.92262e-05
7.11132e-05
7.00437e-05
7.11082e-05
5.91855e-05
6.68629e-05
7.00223e-05
5.92384e-05
7.11233e-05
9.2343e-05
7.20374e-05
7.20314e-05
7.20234e-05
7.20175e-05
9.23545e-05
6.95192e-05
6.95181e-05
6.95224e-05
6.95213e-05
5.95186e-05
4.17573e-05
5.05037e-05
5.05047e-05
5.04639e-05
5.04702e-05
5.95518e-05
5.95165e-05
4.17596e-05
5.05073e-05
5.05072e-05
5.04667e-05
5.04651e-05
5.95519e-05
5.95188e-05
4.17697e-05
5.05035e-05
5.04997e-05
5.04703e-05
5.04729e-05
5.95501e-05
5.95204e-05
4.17793e-05
5.05002e-05
5.05046e-05
5.04737e-05
5.04775e-05
5.9552e-05
1.49194e-05
1.49189e-05
1.48081e-05
1.07943e-05
1.08212e-05
2.06631e-05
1.49192e-05
1.49172e-05
1.48078e-05
1.48059e-05
1.07939e-05
1.08208e-05
1.49218e-05
1.49212e-05
1.48097e-05
1.07953e-05
1.08223e-05
2.06674e-05
1.4921e-05
1.49211e-05
1.48096e-05
1.48097e-05
1.07951e-05
1.08221e-05
4.55524e-05
5.54152e-05
4.35636e-05
5.31726e-05
4.55298e-05
5.54898e-05
4.36105e-05
4.80445e-05
5.25129e-05
6.01395e-05
5.85132e-05
5.24783e-05
5.84543e-05
4.80895e-05
4.56976e-05
5.32165e-05
5.56011e-05
4.37737e-05
5.55271e-05
4.37525e-05
4.57248e-05
4.55317e-05
5.54238e-05
4.35781e-05
5.31738e-05
4.55367e-05
5.54919e-05
4.35959e-05
4.80615e-05
5.25199e-05
6.01437e-05
5.85207e-05
5.84632e-05
5.24856e-05
4.8074e-05
4.79235e-05
5.83697e-05
5.2354e-05
6.01178e-05
4.79086e-05
5.84284e-05
5.23887e-05
4.57198e-05
5.32169e-05
5.56021e-05
4.37784e-05
5.55355e-05
4.37614e-05
4.57057e-05
5.94449e-05
4.15983e-05
5.03181e-05
5.03183e-05
5.03603e-05
5.94111e-05
5.03584e-05
4.80476e-05
5.25274e-05
6.0144e-05
5.85207e-05
5.248e-05
5.84612e-05
4.80939e-05
4.56994e-05
5.3217e-05
5.56054e-05
4.38003e-05
5.55317e-05
4.37462e-05
4.57296e-05
4.80448e-05
5.25225e-05
6.01422e-05
5.85123e-05
5.84534e-05
5.2478e-05
4.80902e-05
4.57026e-05
5.32166e-05
4.37997e-05
5.56008e-05
4.37453e-05
5.55278e-05
4.57274e-05
4.55491e-05
5.54204e-05
4.35671e-05
5.31754e-05
4.55259e-05
5.5494e-05
4.36125e-05
4.80463e-05
5.25183e-05
6.01416e-05
5.85192e-05
5.24787e-05
5.84607e-05
4.80917e-05
4.79327e-05
5.83672e-05
5.23481e-05
6.01112e-05
4.78944e-05
5.23872e-05
5.84264e-05
4.5697e-05
5.32187e-05
5.56049e-05
4.37753e-05
5.55317e-05
4.37544e-05
4.57256e-05
4.55325e-05
4.35789e-05
5.54191e-05
5.31738e-05
4.55307e-05
4.35972e-05
5.54897e-05
4.80583e-05
5.25211e-05
6.01399e-05
5.85138e-05
5.84557e-05
5.24815e-05
4.80705e-05
4.79196e-05
5.83623e-05
5.23509e-05
6.0113e-05
4.79044e-05
5.84213e-05
5.23833e-05
4.57144e-05
5.32176e-05
4.37792e-05
5.56003e-05
4.3762e-05
5.55308e-05
4.57058e-05
4.55361e-05
4.35825e-05
5.54203e-05
5.31756e-05
4.55334e-05
4.36006e-05
5.54895e-05
4.8059e-05
5.2513e-05
6.01402e-05
5.85136e-05
5.24846e-05
5.84563e-05
4.8071e-05
4.79192e-05
5.84212e-05
4.5711e-05
5.3218e-05
4.38023e-05
5.55993e-05
4.37593e-05
5.55323e-05
4.5702e-05
4.55587e-05
4.35681e-05
5.54217e-05
5.31771e-05
4.5522e-05
4.36141e-05
5.54952e-05
4.805e-05
5.25182e-05
6.01453e-05
5.8521e-05
5.84628e-05
5.24862e-05
4.80958e-05
4.79363e-05
5.83694e-05
5.23511e-05
6.01193e-05
4.78973e-05
5.84283e-05
5.23932e-05
4.5705e-05
5.32199e-05
4.37783e-05
5.56063e-05
4.37577e-05
5.55335e-05
4.57298e-05
5.94469e-05
4.15784e-05
5.03255e-05
5.03296e-05
5.94147e-05
5.03556e-05
5.03607e-05
1.49177e-05
1.61037e-05
1.61052e-05
1.8076e-05
1.79819e-05
1.6085e-05
1.60849e-05
1.7969e-05
1.60854e-05
1.60856e-05
1.60845e-05
1.60851e-05
1.79683e-05
1.60858e-05
1.60856e-05
1.79836e-05
1.80755e-05
1.85528e-05
1.61037e-05
1.61042e-05
1.61958e-05
1.61956e-05
1.80858e-05
1.85375e-05
1.61051e-05
1.6105e-05
1.61953e-05
1.61963e-05
1.61042e-05
1.61949e-05
1.61957e-05
1.80882e-05
1.85374e-05
1.61049e-05
1.61964e-05
1.61962e-05
1.85566e-05
1.50062e-05
1.5006e-05
1.50064e-05
1.50062e-05
5.35067e-05
7.00394e-05
5.29529e-05
7.00636e-05
6.96362e-05
6.96162e-05
5.35173e-05
7.00432e-05
5.29529e-05
7.00715e-05
1.49175e-05
1.49179e-05
1.49177e-05
1.46694e-05
1.46693e-05
1.46697e-05
1.46694e-05
2.93495e-05
4.5203e-05
1.48821e-05
1.61284e-05
2.87823e-05
4.56188e-05
1.48311e-05
6.96355e-05
6.96156e-05
2.93462e-05
1.48827e-05
4.52048e-05
1.61299e-05
2.87872e-05
1.48317e-05
4.56217e-05
5.90525e-05
5.90637e-05
1.82572e-05
5.92775e-05
5.92905e-05
6.9652e-05
6.96731e-05
6.96541e-05
6.9675e-05
1.78197e-05
5.89317e-05
5.89449e-05
5.8692e-05
5.8705e-05
5.21515e-05
7.00333e-05
7.00084e-05
5.27513e-05
5.21527e-05
7.00405e-05
7.00111e-05
5.27544e-05
2.79319e-05
1.60714e-05
4.49848e-05
1.49362e-05
4.45545e-05
1.49954e-05
2.8497e-05
2.79332e-05
1.60716e-05
4.49875e-05
1.49362e-05
4.45618e-05
1.49955e-05
2.84968e-05
6.96539e-05
6.96748e-05
1.78327e-05
5.89444e-05
5.89325e-05
5.87048e-05
5.86916e-05
6.96526e-05
6.96735e-05
5.21507e-05
7.00412e-05
7.00113e-05
5.27629e-05
2.79416e-05
1.60724e-05
4.49894e-05
1.49368e-05
4.45599e-05
1.49962e-05
2.84958e-05
5.21495e-05
7.00359e-05
7.00062e-05
5.27608e-05
2.79379e-05
1.60722e-05
1.49366e-05
4.49854e-05
1.4996e-05
4.4553e-05
2.84997e-05
2.79338e-05
1.60714e-05
4.49857e-05
1.49361e-05
4.45534e-05
1.49955e-05
2.8499e-05
5.21538e-05
7.00396e-05
7.00143e-05
5.27563e-05
2.79386e-05
1.60716e-05
1.49361e-05
4.49871e-05
1.49954e-05
4.45555e-05
2.8493e-05
5.21529e-05
7.00343e-05
7.00088e-05
5.27535e-05
6.96534e-05
6.96742e-05
1.78352e-05
5.8942e-05
5.89346e-05
5.87001e-05
5.8695e-05
6.96529e-05
6.9674e-05
2.79397e-05
1.60725e-05
1.49366e-05
4.49894e-05
1.4996e-05
4.45512e-05
2.84936e-05
2.79363e-05
1.60723e-05
1.49367e-05
4.49935e-05
1.4996e-05
4.45601e-05
2.84983e-05
5.21475e-05
7.00366e-05
7.00072e-05
5.27652e-05
5.2149e-05
7.00409e-05
7.00113e-05
5.27665e-05
1.78189e-05
5.89332e-05
5.89469e-05
5.86932e-05
5.87057e-05
6.9652e-05
6.96731e-05
6.96541e-05
6.96751e-05
6.96343e-05
6.96141e-05
6.96364e-05
6.96163e-05
5.90498e-05
5.90632e-05
1.82529e-05
5.92766e-05
5.92895e-05
6.95777e-05
6.95968e-05
6.95799e-05
6.95991e-05
1.83588e-05
5.9603e-05
5.96109e-05
5.9387e-05
5.94009e-05
5.35101e-05
7.00429e-05
5.29542e-05
7.00711e-05
2.93481e-05
4.52056e-05
1.48822e-05
1.61291e-05
2.87809e-05
4.56171e-05
1.48313e-05
2.93493e-05
4.52112e-05
1.48823e-05
1.61289e-05
2.87822e-05
4.56214e-05
1.48313e-05
5.36889e-05
7.00924e-05
7.00696e-05
5.41991e-05
5.36906e-05
7.00999e-05
7.00732e-05
5.42024e-05
2.96342e-05
1.6159e-05
4.62235e-05
1.47434e-05
4.58282e-05
1.47859e-05
3.0201e-05
2.96352e-05
1.61596e-05
4.62276e-05
1.47435e-05
4.5834e-05
1.4786e-05
3.01986e-05
5.9063e-05
5.90509e-05
1.8238e-05
5.92887e-05
5.92782e-05
6.96348e-05
6.96148e-05
6.958e-05
6.9599e-05
1.83696e-05
5.96131e-05
5.96013e-05
5.94009e-05
5.93886e-05
6.95783e-05
6.95974e-05
2.93483e-05
4.52089e-05
1.48829e-05
1.61292e-05
2.87881e-05
4.56202e-05
1.48319e-05
5.35159e-05
7.00382e-05
5.29513e-05
7.00665e-05
2.9351e-05
1.48828e-05
4.52072e-05
1.61297e-05
2.87834e-05
1.48318e-05
4.56212e-05
5.36894e-05
7.01001e-05
7.00734e-05
5.42086e-05
2.96402e-05
1.61605e-05
4.62263e-05
1.47441e-05
4.58322e-05
1.47867e-05
3.01997e-05
5.36882e-05
7.00952e-05
7.00685e-05
5.42074e-05
2.96362e-05
1.61604e-05
1.47439e-05
4.62264e-05
1.47865e-05
4.58283e-05
3.02046e-05
5.35117e-05
7.00454e-05
5.29559e-05
7.00701e-05
2.93443e-05
1.48822e-05
4.52073e-05
1.61291e-05
2.87847e-05
1.48312e-05
4.56182e-05
5.35091e-05
7.004e-05
5.29555e-05
7.00649e-05
2.96357e-05
1.61589e-05
4.62242e-05
1.47432e-05
4.58254e-05
1.47858e-05
3.0203e-05
5.36928e-05
7.00987e-05
7.00757e-05
5.42036e-05
2.96379e-05
1.61596e-05
1.47433e-05
4.62238e-05
1.47859e-05
4.58308e-05
3.01984e-05
5.36921e-05
7.00936e-05
7.00705e-05
5.4201e-05
5.90597e-05
5.90525e-05
1.82382e-05
5.92864e-05
5.92793e-05
6.96352e-05
6.9615e-05
6.95793e-05
6.95982e-05
1.83715e-05
5.96108e-05
5.96031e-05
5.93979e-05
5.93897e-05
6.95786e-05
6.95978e-05
2.93524e-05
1.48828e-05
4.52093e-05
1.61297e-05
2.87861e-05
1.48318e-05
4.56252e-05
5.352e-05
7.00391e-05
5.29503e-05
7.00673e-05
5.35212e-05
7.00432e-05
5.29514e-05
7.00715e-05
2.96404e-05
1.61605e-05
1.47438e-05
4.62254e-05
1.47864e-05
4.58264e-05
3.02002e-05
2.96369e-05
1.61601e-05
1.4744e-05
4.62312e-05
1.47865e-05
4.58329e-05
3.02042e-05
5.36873e-05
7.00958e-05
7.00693e-05
5.42109e-05
5.36885e-05
7.01001e-05
7.00735e-05
5.42123e-05
6.96345e-05
6.96142e-05
6.96363e-05
6.96162e-05
1.83592e-05
5.9602e-05
5.96144e-05
5.939e-05
5.94012e-05
6.9578e-05
6.95972e-05
6.95799e-05
6.9599e-05
6.98493e-05
5.33291e-05
6.91809e-05
5.95593e-05
6.91664e-05
5.93933e-05
6.98607e-05
7.09929e-05
7.40126e-05
7.00487e-05
7.09896e-05
7.4077e-05
6.98481e-05
5.31372e-05
6.91442e-05
5.91212e-05
6.98365e-05
6.91584e-05
5.92925e-05
7.09692e-05
7.4174e-05
7.00545e-05
7.41132e-05
7.09724e-05
6.96349e-05
6.96174e-05
6.9851e-05
5.33292e-05
5.95712e-05
6.91817e-05
5.93979e-05
6.91671e-05
6.98626e-05
7.09954e-05
7.40279e-05
7.00566e-05
7.09924e-05
7.41048e-05
6.98499e-05
5.31482e-05
5.91254e-05
6.91447e-05
6.98381e-05
5.93047e-05
6.9159e-05
7.09722e-05
7.42019e-05
7.00586e-05
7.41304e-05
7.09749e-05
6.96343e-05
6.96167e-05
8.75162e-05
7.24402e-05
7.24343e-05
7.24395e-05
7.24337e-05
8.75889e-05
5.70404e-05
3.8976e-05
6.88072e-05
5.91081e-05
5.69446e-05
3.90995e-05
6.88353e-05
5.71059e-05
3.89909e-05
6.88196e-05
5.9121e-05
5.70126e-05
3.91222e-05
6.88476e-05
8.74832e-05
7.24616e-05
7.24558e-05
8.74077e-05
7.24623e-05
7.24564e-05
5.72294e-05
6.88719e-05
5.92237e-05
3.9488e-05
3.9364e-05
6.88447e-05
5.73211e-05
5.72964e-05
6.88842e-05
5.92351e-05
3.95096e-05
3.93802e-05
6.88571e-05
5.73874e-05
6.96535e-05
6.96715e-05
6.96555e-05
6.96735e-05
8.72573e-05
7.25066e-05
7.25003e-05
8.71743e-05
7.25072e-05
7.25011e-05
5.66528e-05
3.87064e-05
5.88735e-05
6.87952e-05
6.877e-05
3.85783e-05
5.67487e-05
5.67227e-05
3.87261e-05
5.8887e-05
6.88098e-05
6.87808e-05
3.85964e-05
5.68163e-05
5.64538e-05
6.87302e-05
3.81798e-05
5.87518e-05
5.63541e-05
6.87561e-05
3.83083e-05
5.65176e-05
6.87406e-05
3.81966e-05
5.87648e-05
5.64235e-05
6.87704e-05
3.8328e-05
8.72914e-05
7.24848e-05
7.24787e-05
7.24842e-05
7.24779e-05
8.73713e-05
6.98219e-05
6.91015e-05
5.85393e-05
5.23489e-05
6.981e-05
6.91142e-05
5.87209e-05
7.10099e-05
7.00237e-05
7.39736e-05
7.10133e-05
7.39057e-05
7.10336e-05
7.37938e-05
7.00176e-05
7.10301e-05
7.38657e-05
6.98233e-05
5.25609e-05
6.9136e-05
5.90131e-05
6.98352e-05
6.91215e-05
5.88367e-05
6.98239e-05
6.91019e-05
5.85427e-05
5.23522e-05
6.98118e-05
6.91148e-05
5.87327e-05
7.10129e-05
7.00269e-05
7.40012e-05
7.39234e-05
7.1016e-05
7.10362e-05
7.38126e-05
7.00247e-05
7.1033e-05
7.38926e-05
6.98253e-05
5.2562e-05
6.91361e-05
5.90247e-05
6.91222e-05
5.88402e-05
6.98373e-05
6.96554e-05
6.96733e-05
8.72573e-05
7.25012e-05
7.25064e-05
8.71736e-05
7.25019e-05
7.2507e-05
5.67187e-05
3.87238e-05
5.8887e-05
6.88079e-05
3.85974e-05
6.87827e-05
5.68115e-05
5.6654e-05
3.87049e-05
5.88744e-05
6.87958e-05
6.87707e-05
3.85783e-05
5.67463e-05
5.6519e-05
6.87426e-05
3.8197e-05
5.87646e-05
3.83247e-05
5.6419e-05
6.87688e-05
5.64533e-05
6.87308e-05
3.81784e-05
5.87524e-05
5.63533e-05
6.87567e-05
3.83065e-05
8.7292e-05
7.24795e-05
7.24846e-05
7.24789e-05
7.2484e-05
8.73717e-05
6.9654e-05
6.96721e-05
6.98234e-05
5.85423e-05
6.91019e-05
5.23606e-05
6.98113e-05
5.87339e-05
6.91148e-05
7.10127e-05
7.00273e-05
7.40021e-05
7.10157e-05
7.39218e-05
7.1036e-05
7.38076e-05
7.00251e-05
7.10328e-05
7.38917e-05
6.98248e-05
5.25599e-05
5.90258e-05
6.91365e-05
6.98368e-05
5.88402e-05
6.9122e-05
6.98216e-05
6.91012e-05
5.8541e-05
5.23589e-05
6.98095e-05
6.91141e-05
5.87226e-05
7.10091e-05
7.00221e-05
7.39776e-05
7.38997e-05
7.10128e-05
7.1033e-05
7.37855e-05
7.00201e-05
7.10292e-05
7.38687e-05
6.9823e-05
5.25589e-05
6.91354e-05
5.90151e-05
6.91214e-05
5.88382e-05
6.9835e-05
6.9824e-05
5.85425e-05
6.90971e-05
5.23537e-05
6.98117e-05
5.87328e-05
6.91172e-05
7.10143e-05
7.00299e-05
7.3996e-05
7.39282e-05
7.10173e-05
7.10377e-05
7.38126e-05
7.00241e-05
7.10346e-05
7.38893e-05
6.98252e-05
5.25634e-05
5.90248e-05
6.91388e-05
5.88401e-05
6.91185e-05
6.98373e-05
6.98214e-05
6.91005e-05
5.85384e-05
5.23509e-05
6.98092e-05
6.91135e-05
5.87263e-05
7.10097e-05
7.00244e-05
7.39756e-05
7.39058e-05
7.10127e-05
7.1033e-05
7.37935e-05
7.00187e-05
7.10299e-05
7.38676e-05
6.98227e-05
5.25627e-05
6.91348e-05
5.90186e-05
6.91209e-05
5.88359e-05
6.98348e-05
6.96547e-05
6.96728e-05
8.72622e-05
7.25011e-05
7.25069e-05
8.71784e-05
7.25018e-05
7.25076e-05
5.67225e-05
3.87269e-05
5.88833e-05
6.8809e-05
3.85976e-05
6.87799e-05
5.68169e-05
5.66592e-05
3.87106e-05
5.88766e-05
6.87962e-05
6.87713e-05
3.8581e-05
5.67508e-05
5.6523e-05
6.87398e-05
3.81964e-05
5.87616e-05
3.83287e-05
5.64229e-05
6.87695e-05
5.64549e-05
6.87313e-05
3.81803e-05
5.87544e-05
5.6359e-05
6.87572e-05
3.83114e-05
8.72966e-05
7.24794e-05
7.24852e-05
7.24787e-05
7.24846e-05
8.73766e-05
6.96544e-05
6.96724e-05
6.98224e-05
5.85376e-05
6.90973e-05
5.2363e-05
6.98101e-05
5.8729e-05
6.91176e-05
7.10112e-05
7.0023e-05
7.39793e-05
7.39007e-05
7.10143e-05
7.10345e-05
7.37895e-05
7.00209e-05
7.10314e-05
7.38706e-05
6.98236e-05
5.25571e-05
5.9021e-05
6.91393e-05
5.88353e-05
6.91188e-05
6.98358e-05
6.98235e-05
5.8542e-05
6.91022e-05
5.23645e-05
6.98113e-05
5.87354e-05
6.91153e-05
7.10122e-05
7.00273e-05
7.39999e-05
7.39203e-05
7.10152e-05
7.10355e-05
7.38071e-05
7.00251e-05
7.10323e-05
7.38908e-05
6.98249e-05
5.25588e-05
5.90271e-05
6.91366e-05
5.88397e-05
6.91225e-05
6.98369e-05
8.72591e-05
7.25062e-05
7.25004e-05
8.71763e-05
7.25068e-05
7.2501e-05
5.66554e-05
3.87075e-05
5.88758e-05
6.87973e-05
5.67508e-05
3.85804e-05
6.87683e-05
5.67217e-05
3.87304e-05
5.88878e-05
6.88095e-05
5.68165e-05
3.85976e-05
6.87806e-05
5.64523e-05
6.87279e-05
3.8179e-05
5.87539e-05
5.63574e-05
3.83089e-05
6.87578e-05
5.65187e-05
6.87406e-05
3.81987e-05
5.87662e-05
5.64236e-05
3.83289e-05
6.877e-05
8.72931e-05
7.24845e-05
7.24786e-05
8.73729e-05
7.24838e-05
7.2478e-05
6.96536e-05
6.96714e-05
6.96555e-05
6.96735e-05
6.96329e-05
6.96153e-05
6.9635e-05
6.96175e-05
8.75158e-05
7.24405e-05
7.24344e-05
7.24399e-05
7.24335e-05
8.75852e-05
5.70349e-05
3.8973e-05
6.88086e-05
5.91067e-05
5.69458e-05
6.88332e-05
3.90996e-05
5.71057e-05
3.89915e-05
6.88198e-05
5.91198e-05
5.70118e-05
6.88479e-05
3.91197e-05
8.74795e-05
7.2462e-05
7.24556e-05
8.74057e-05
7.24625e-05
7.24565e-05
5.72298e-05
6.88697e-05
5.92207e-05
3.94865e-05
6.88463e-05
5.73164e-05
3.93613e-05
5.72951e-05
6.88847e-05
5.92346e-05
3.95068e-05
6.88573e-05
5.73855e-05
3.93795e-05
6.95786e-05
6.95956e-05
6.95811e-05
6.9598e-05
8.76871e-05
7.2418e-05
7.24116e-05
8.76201e-05
7.24187e-05
7.24126e-05
5.77617e-05
4.02516e-05
5.95491e-05
6.89403e-05
6.89179e-05
4.01157e-05
5.78791e-05
5.78423e-05
4.02513e-05
5.95622e-05
6.89539e-05
6.89288e-05
4.01406e-05
5.7914e-05
5.75968e-05
6.88825e-05
3.97413e-05
5.94401e-05
5.75001e-05
6.89057e-05
3.98686e-05
5.76606e-05
6.88936e-05
3.97616e-05
5.94542e-05
5.75704e-05
6.89199e-05
3.98871e-05
8.77206e-05
7.23971e-05
7.23907e-05
7.23964e-05
7.239e-05
8.77833e-05
6.98516e-05
5.33305e-05
6.91816e-05
5.95704e-05
6.9167e-05
5.93974e-05
6.98631e-05
7.09956e-05
7.40307e-05
7.00561e-05
7.09927e-05
7.41045e-05
6.98504e-05
5.31404e-05
6.91444e-05
5.91248e-05
6.9159e-05
6.98387e-05
5.93037e-05
7.09725e-05
7.4202e-05
7.00582e-05
7.41315e-05
7.09753e-05
6.98727e-05
6.91894e-05
5.96535e-05
5.38608e-05
6.98616e-05
6.92045e-05
5.98145e-05
7.09282e-05
7.00839e-05
7.43546e-05
7.43005e-05
7.0931e-05
7.09517e-05
7.42095e-05
7.00786e-05
7.09488e-05
7.42674e-05
6.98734e-05
5.40339e-05
6.92276e-05
6.00584e-05
6.92128e-05
5.99028e-05
6.98842e-05
6.98752e-05
6.919e-05
5.96583e-05
5.38641e-05
6.98641e-05
6.92052e-05
5.98252e-05
7.09318e-05
7.00874e-05
7.43826e-05
7.4318e-05
7.09344e-05
7.09549e-05
7.42277e-05
7.00857e-05
7.09522e-05
7.42946e-05
6.9876e-05
5.40358e-05
6.92283e-05
6.00687e-05
6.92135e-05
5.99083e-05
6.98868e-05
8.75142e-05
7.24352e-05
7.24403e-05
7.24346e-05
7.24397e-05
8.75875e-05
5.71005e-05
3.89916e-05
6.88213e-05
5.91194e-05
6.8846e-05
5.70131e-05
3.91163e-05
5.7037e-05
3.89727e-05
6.88094e-05
5.91078e-05
3.90972e-05
5.69472e-05
6.88339e-05
8.74814e-05
7.24566e-05
7.24618e-05
7.24573e-05
8.74058e-05
7.24624e-05
5.72965e-05
6.88826e-05
5.92345e-05
3.95045e-05
6.88591e-05
3.93799e-05
5.73819e-05
5.72306e-05
6.88706e-05
5.92224e-05
3.94849e-05
3.93618e-05
6.88471e-05
5.73176e-05
6.96336e-05
6.96159e-05
6.9581e-05
6.95979e-05
8.76894e-05
7.24127e-05
7.24178e-05
8.76186e-05
7.24134e-05
7.24185e-05
5.78405e-05
4.02591e-05
5.95621e-05
6.89527e-05
4.01393e-05
6.89307e-05
5.79217e-05
5.77757e-05
4.02418e-05
5.955e-05
6.89406e-05
6.89188e-05
4.01204e-05
5.78569e-05
5.76551e-05
6.88953e-05
3.97625e-05
5.94535e-05
3.98844e-05
5.7572e-05
6.89184e-05
5.75907e-05
6.88832e-05
3.97448e-05
5.94423e-05
5.75065e-05
6.89065e-05
3.98657e-05
8.77194e-05
7.23918e-05
7.23969e-05
7.2391e-05
7.23961e-05
8.77882e-05
6.95793e-05
6.95964e-05
6.98492e-05
5.33278e-05
6.9181e-05
5.95617e-05
6.91663e-05
5.93946e-05
6.98607e-05
7.09924e-05
7.40062e-05
7.00515e-05
7.09889e-05
7.40803e-05
6.9848e-05
5.31465e-05
6.91436e-05
5.91224e-05
6.91584e-05
6.98363e-05
5.92945e-05
7.09686e-05
7.41778e-05
7.00534e-05
7.41084e-05
7.0972e-05
6.98747e-05
5.96586e-05
6.91901e-05
5.38708e-05
6.98635e-05
5.98258e-05
6.92054e-05
7.09313e-05
7.00876e-05
7.4382e-05
7.43165e-05
7.09339e-05
7.09544e-05
7.42254e-05
7.0086e-05
7.09517e-05
7.42941e-05
6.98754e-05
5.40341e-05
6.00689e-05
6.92286e-05
5.99081e-05
6.92136e-05
6.98861e-05
6.98728e-05
6.91893e-05
5.96548e-05
5.38694e-05
6.98617e-05
6.92047e-05
5.9817e-05
7.09278e-05
7.00825e-05
7.43581e-05
7.42946e-05
7.0931e-05
7.09515e-05
7.42042e-05
7.0081e-05
7.09482e-05
7.42702e-05
6.98736e-05
5.4033e-05
6.92279e-05
6.00608e-05
6.92129e-05
5.99039e-05
6.98843e-05
6.98512e-05
5.33325e-05
5.95707e-05
6.9184e-05
5.93978e-05
6.91628e-05
6.98628e-05
7.09969e-05
7.40338e-05
7.00553e-05
7.41001e-05
7.0994e-05
6.98503e-05
5.31422e-05
5.91251e-05
6.91408e-05
5.9304e-05
6.98384e-05
6.91611e-05
7.09736e-05
7.41973e-05
7.00609e-05
7.4136e-05
7.09763e-05
6.9849e-05
5.3332e-05
6.91802e-05
5.95644e-05
6.91656e-05
5.9393e-05
6.98605e-05
7.09924e-05
7.40115e-05
7.005e-05
7.09895e-05
7.4079e-05
6.98479e-05
5.31395e-05
6.9143e-05
5.91204e-05
6.9836e-05
6.91576e-05
5.92975e-05
7.09691e-05
7.41757e-05
7.00555e-05
7.41133e-05
7.09719e-05
6.98748e-05
5.96587e-05
6.91864e-05
5.38654e-05
6.98636e-05
5.98254e-05
6.92075e-05
7.09325e-05
7.009e-05
7.43779e-05
7.43231e-05
7.0935e-05
7.09557e-05
7.42318e-05
7.00849e-05
7.09531e-05
7.42908e-05
6.98754e-05
5.40378e-05
6.00686e-05
6.92307e-05
5.99085e-05
6.92096e-05
6.98861e-05
6.98726e-05
6.91885e-05
5.96538e-05
5.38629e-05
6.98615e-05
6.92038e-05
5.98193e-05
7.09284e-05
7.00849e-05
7.43563e-05
7.43006e-05
7.09309e-05
7.09515e-05
7.42087e-05
7.00797e-05
7.09488e-05
7.42693e-05
6.98734e-05
5.40369e-05
6.92269e-05
6.00626e-05
6.92121e-05
5.99032e-05
6.98841e-05
8.7521e-05
7.24351e-05
7.24408e-05
7.24344e-05
7.24402e-05
8.759e-05
5.71044e-05
3.89929e-05
6.8819e-05
5.91161e-05
6.88471e-05
5.70157e-05
3.91196e-05
5.70388e-05
3.89751e-05
6.88098e-05
5.91094e-05
3.91033e-05
5.69514e-05
6.88343e-05
8.74851e-05
7.24565e-05
7.24623e-05
7.24572e-05
8.74107e-05
7.24629e-05
5.7299e-05
6.88839e-05
5.92316e-05
3.95063e-05
6.88565e-05
3.93817e-05
5.7387e-05
5.72347e-05
6.88708e-05
5.92237e-05
3.94912e-05
3.93637e-05
6.88476e-05
5.73207e-05
6.96338e-05
6.96163e-05
6.95802e-05
6.95972e-05
8.76912e-05
7.24125e-05
7.24183e-05
8.76257e-05
7.24132e-05
7.2419e-05
5.78432e-05
4.02622e-05
5.95588e-05
6.89539e-05
4.01406e-05
6.89278e-05
5.79262e-05
5.77783e-05
4.02459e-05
5.95514e-05
6.89407e-05
6.89192e-05
4.01231e-05
5.78616e-05
5.76604e-05
6.88928e-05
3.97646e-05
5.94512e-05
3.98874e-05
5.75743e-05
6.89194e-05
5.75947e-05
6.88837e-05
3.9746e-05
5.94432e-05
5.75098e-05
6.89066e-05
3.98706e-05
8.77266e-05
7.23916e-05
7.23973e-05
7.23908e-05
7.23966e-05
8.77898e-05
6.95797e-05
6.95966e-05
6.98499e-05
5.33269e-05
5.95663e-05
6.91847e-05
5.93928e-05
6.91633e-05
6.98615e-05
7.09939e-05
7.40089e-05
7.00523e-05
7.40826e-05
7.0991e-05
6.98489e-05
5.31507e-05
5.91201e-05
6.91412e-05
5.92998e-05
6.98369e-05
6.91617e-05
7.09706e-05
7.41802e-05
7.00543e-05
7.41093e-05
7.09735e-05
6.98511e-05
5.33281e-05
5.9572e-05
6.91822e-05
5.93972e-05
6.91674e-05
6.98626e-05
7.09948e-05
7.4027e-05
7.00565e-05
7.09919e-05
7.41027e-05
6.985e-05
5.31518e-05
5.91245e-05
6.91447e-05
6.98382e-05
5.93057e-05
6.91596e-05
7.09716e-05
7.42001e-05
7.00585e-05
7.41285e-05
7.09743e-05
6.98736e-05
5.96537e-05
6.9187e-05
5.38732e-05
6.98623e-05
5.98209e-05
6.92083e-05
7.09297e-05
7.00833e-05
7.43606e-05
7.42956e-05
7.09324e-05
7.09529e-05
7.42056e-05
7.00818e-05
7.09502e-05
7.42727e-05
6.98742e-05
5.4032e-05
6.00639e-05
6.92316e-05
5.99034e-05
6.92103e-05
6.9885e-05
6.98747e-05
5.96584e-05
6.91904e-05
5.38744e-05
6.98636e-05
5.98263e-05
6.92058e-05
7.09306e-05
7.00875e-05
7.43799e-05
7.43144e-05
7.09333e-05
7.09538e-05
7.42242e-05
7.0086e-05
7.09511e-05
7.42922e-05
6.98755e-05
5.40333e-05
6.00692e-05
6.9229e-05
5.99084e-05
6.9214e-05
6.98862e-05
6.96329e-05
6.96157e-05
6.9635e-05
6.96175e-05
8.76904e-05
7.24176e-05
7.24118e-05
8.76203e-05
7.24183e-05
7.24125e-05
5.77723e-05
4.02431e-05
5.95513e-05
6.8942e-05
4.01238e-05
6.89159e-05
5.78617e-05
5.78394e-05
4.02639e-05
5.95626e-05
6.89543e-05
4.01391e-05
6.89283e-05
5.79271e-05
5.75973e-05
6.8881e-05
3.9747e-05
5.94426e-05
5.75052e-05
3.9867e-05
6.89075e-05
5.76611e-05
6.88933e-05
3.97625e-05
5.94548e-05
5.75711e-05
3.98885e-05
6.89197e-05
8.77211e-05
7.23967e-05
7.23909e-05
7.2396e-05
7.23902e-05
8.77891e-05
6.95791e-05
6.95959e-05
6.9581e-05
6.95979e-05
1.50401e-05
1.50405e-05
1.4832e-05
1.49322e-05
1.49326e-05
1.52914e-05
1.54093e-05
3.78648e-05
2.48671e-05
2.48709e-05
1.81163e-05
3.77233e-05
2.49756e-05
2.49861e-05
3.73163e-05
1.79457e-05
2.46634e-05
2.46617e-05
2.45587e-05
2.4567e-05
3.7448e-05
3.7313e-05
1.79571e-05
2.46554e-05
2.4652e-05
2.45715e-05
2.457e-05
3.74388e-05
3.73156e-05
1.79598e-05
2.46508e-05
2.46499e-05
2.45803e-05
2.45742e-05
3.74424e-05
3.7311e-05
1.79449e-05
2.46681e-05
2.46738e-05
3.74496e-05
2.45578e-05
2.45594e-05
3.78629e-05
2.48681e-05
2.48784e-05
1.81119e-05
3.77231e-05
2.49636e-05
2.49767e-05
3.89316e-05
1.85081e-05
2.5933e-05
2.59243e-05
2.58227e-05
2.5831e-05
3.9059e-05
3.78548e-05
2.48831e-05
2.48791e-05
1.80987e-05
2.49599e-05
3.77286e-05
2.49644e-05
3.89365e-05
1.8523e-05
2.59194e-05
2.59195e-05
2.5839e-05
2.58335e-05
3.90549e-05
3.78544e-05
2.48877e-05
2.48831e-05
1.80989e-05
2.496e-05
3.77351e-05
2.49621e-05
3.8941e-05
1.85255e-05
2.59202e-05
2.59172e-05
2.58467e-05
2.58417e-05
3.90599e-05
3.8931e-05
1.85085e-05
2.59366e-05
2.59412e-05
2.58192e-05
2.58245e-05
3.90654e-05
1.50978e-05
1.51501e-05
1.51505e-05
1.52625e-05
1.52629e-05
1.56502e-05
1.55289e-05
1.50976e-05
1.51501e-05
1.51503e-05
1.52625e-05
1.52628e-05
1.56502e-05
1.55288e-05
1.5098e-05
1.51502e-05
1.51505e-05
1.52627e-05
1.52629e-05
1.56501e-05
1.55288e-05
1.50978e-05
1.51501e-05
1.51504e-05
1.52625e-05
1.52629e-05
1.56501e-05
1.55287e-05
1.50401e-05
1.50403e-05
1.48318e-05
1.49322e-05
1.49324e-05
1.52913e-05
1.54092e-05
1.50402e-05
1.50405e-05
1.48322e-05
1.49324e-05
1.49326e-05
1.52913e-05
1.54092e-05
1.50401e-05
1.50404e-05
1.4832e-05
1.49322e-05
1.49326e-05
1.52912e-05
1.54091e-05
1.47494e-05
1.47234e-05
1.47238e-05
1.48268e-05
1.48271e-05
1.51751e-05
1.50606e-05
1.47491e-05
1.47234e-05
1.47236e-05
1.48267e-05
1.4827e-05
1.51751e-05
1.50606e-05
1.47495e-05
1.47236e-05
1.47238e-05
1.48269e-05
1.48271e-05
1.51751e-05
1.50605e-05
1.47493e-05
1.47234e-05
1.47237e-05
1.48267e-05
1.48271e-05
1.5175e-05
1.50605e-05
1.96136e-05
2.92094e-05
3.35496e-05
1.80053e-05
3.34217e-05
1.7957e-05
1.96407e-05
2.23996e-05
2.75809e-05
3.95892e-05
4.53056e-05
2.2311e-05
2.76744e-05
3.96994e-05
1.94481e-05
2.89221e-05
3.29992e-05
1.78045e-05
1.94229e-05
3.31278e-05
1.78493e-05
2.25675e-05
4.00767e-05
4.55171e-05
2.80246e-05
2.79241e-05
3.99678e-05
2.26526e-05
1.95996e-05
2.92133e-05
1.80063e-05
3.35508e-05
1.7959e-05
3.34165e-05
1.96614e-05
2.2387e-05
2.75749e-05
3.95781e-05
4.53087e-05
2.23137e-05
2.76936e-05
3.9701e-05
1.94667e-05
2.89219e-05
1.78066e-05
3.29909e-05
1.94075e-05
1.78508e-05
3.31304e-05
2.25735e-05
4.00766e-05
4.55191e-05
2.8037e-05
2.79205e-05
3.99584e-05
2.26464e-05
3.81327e-05
1.82156e-05
2.5297e-05
2.5302e-05
2.51841e-05
2.51892e-05
3.82689e-05
3.70232e-05
1.78551e-05
2.42502e-05
2.42575e-05
3.68986e-05
2.43532e-05
2.43566e-05
1.90869e-05
3.21397e-05
1.75309e-05
2.80732e-05
1.90605e-05
3.22799e-05
1.75578e-05
2.20786e-05
2.73358e-05
4.48837e-05
3.93113e-05
2.72378e-05
3.91969e-05
2.2122e-05
2.18735e-05
3.88041e-05
2.68999e-05
4.46581e-05
2.69952e-05
2.18332e-05
3.89256e-05
1.92389e-05
2.83567e-05
3.26998e-05
1.76981e-05
3.25663e-05
1.76685e-05
1.92641e-05
1.90899e-05
3.21449e-05
1.75306e-05
2.80746e-05
1.90622e-05
3.22835e-05