/*--------------------------------*- C++ -*----------------------------------*\
| =========                 |                                                 |
| \\      /  F ield         | OpenFOAM: The Open Source CFD Toolbox           |
|  \\    /   O peration     | Version:  v1906                                 |
|   \\  /    A nd           | Web:      www.OpenFOAM.com                      |
|    \\/     M anipulation  |                                                 |
\*---------------------------------------------------------------------------*/
FoamFile
{
    version     2.0;
    format      ascii;
    class       volVectorField;
    location    "950";
    object      U;
}
// * * * * * * * * * * * * * * * * * * * * * * * * * * * * * * * * * * * * * //

dimensions      [0 1 -1 0 0 0 0];


internalField   nonuniform List<vector> 
43248
(
(-3.83293e-05 -3.85445e-05 0.104906)
(1.01313e-05 1.76642e-05 0.10828)
(-1.02479e-05 1.77938e-05 0.10828)
(3.84077e-05 -3.83776e-05 0.104907)
(1.78353e-05 1.02631e-05 0.108283)
(1.77781e-05 -1.02309e-05 0.108279)
(-1.77258e-05 1.01904e-05 0.108283)
(-1.77294e-05 -1.01973e-05 0.10828)
(-3.8364e-05 3.84141e-05 0.104906)
(1.01888e-05 -1.77143e-05 0.108282)
(-1.0151e-05 -1.77048e-05 0.108282)
(3.84308e-05 3.84322e-05 0.104906)
(2.27434e-05 2.27321e-05 0.113134)
(-2.27435e-05 2.27519e-05 0.113135)
(2.27475e-05 -2.27342e-05 0.113134)
(-2.27094e-05 -2.27144e-05 0.113134)
(-2.05417e-06 -6.88387e-06 0.0709178)
(-6.89045e-06 -2.03453e-06 0.0709176)
(-5.14462e-06 -8.26766e-06 0.0870352)
(-8.35982e-06 -5.18644e-06 0.0870362)
(-4.10486e-07 1.26877e-05 0.0909885)
(-1.58705e-06 -1.13881e-05 0.0816202)
(-6.02806e-07 -1.39804e-05 0.0910348)
(3.76692e-07 1.26896e-05 0.0909884)
(1.55372e-06 -1.14592e-05 0.0816199)
(-5.81446e-07 1.12205e-05 0.0815622)
(6.01758e-07 -1.39857e-05 0.0910347)
(1.27372e-07 2.50061e-05 0.0985541)
(-6.77359e-06 -1.35005e-05 0.0926823)
(4.73062e-06 2.77155e-05 0.110832)
(4.87571e-06 2.84609e-05 0.110842)
(-4.77267e-07 -1.72001e-05 0.0986113)
(-1.21644e-07 2.50128e-05 0.0985538)
(-1.06072e-05 1.83888e-05 0.108294)
(6.76166e-06 -1.36502e-05 0.0926825)
(-4.71591e-06 2.77392e-05 0.110832)
(-6.7954e-06 1.93821e-05 0.0926204)
(-4.87091e-06 2.84731e-05 0.110842)
(4.603e-07 -1.72036e-05 0.0986111)
(2.0369e-06 -6.91547e-06 0.0709174)
(-4.6198e-06 5.6003e-06 0.0708532)
(-4.49964e-05 4.49585e-05 0.104759)
(5.13915e-06 -8.32382e-06 0.0870353)
(8.2862e-06 -5.13697e-06 0.0870373)
(-7.08819e-06 7.45266e-06 0.0869789)
(-7.4006e-06 7.05549e-06 0.0869797)
(6.85419e-06 -1.99392e-06 0.0709187)
(-5.53594e-06 4.56247e-06 0.0708512)
(-1.14436e-05 -1.51676e-06 0.0816204)
(-1.40091e-05 -5.76998e-07 0.0910339)
(-1.37636e-05 -6.76369e-06 0.0926835)
(2.77415e-05 4.6959e-06 0.110831)
(-1.72018e-05 -4.60163e-07 0.0986105)
(-1.14314e-05 1.55688e-06 0.0816208)
(-1.40065e-05 5.83407e-07 0.0910338)
(2.77329e-05 -4.74383e-06 0.110831)
(-1.36117e-05 6.75432e-06 0.0926831)
(-1.71994e-05 4.68349e-07 0.0986104)
(-2.50315e-05 1.15588e-07 0.0985536)
(-1.83195e-05 1.05529e-05 0.108297)
(1.36221e-05 -6.74327e-06 0.0926839)
(-2.77325e-05 4.71779e-06 0.110832)
(-1.92996e-05 6.77832e-06 0.0926211)
(-2.84699e-05 4.86109e-06 0.110842)
(1.71831e-05 -4.34718e-07 0.0986106)
(-1.27068e-05 -3.79405e-07 0.0909878)
(1.14356e-05 -1.51287e-06 0.0816207)
(-1.1163e-05 5.76064e-07 0.0815614)
(1.39678e-05 -5.73213e-07 0.091034)
(-2.50228e-05 -1.31002e-07 0.0985538)
(-1.8329e-05 -1.05591e-05 0.108294)
(-2.7714e-05 -4.72642e-06 0.110831)
(1.36304e-05 6.77493e-06 0.0926829)
(-2.84535e-05 -4.87068e-06 0.110842)
(-1.93388e-05 -6.80276e-06 0.0926215)
(1.7174e-05 4.76606e-07 0.0986104)
(-1.26939e-05 3.84913e-07 0.0909879)
(1.1456e-05 1.54124e-06 0.0816201)
(-1.11866e-05 -5.96516e-07 0.0815626)
(1.39626e-05 6.16771e-07 0.091034)
(-6.84129e-06 2.02347e-06 0.0709187)
(-8.2958e-06 5.18765e-06 0.0870356)
(-5.14398e-06 8.3558e-06 0.0870368)
(-2.02395e-06 6.9147e-06 0.0709179)
(1.36304e-07 -2.50405e-05 0.0985532)
(4.72487e-06 -2.77094e-05 0.110831)
(-6.75302e-06 1.36885e-05 0.0926836)
(4.87458e-06 -2.84511e-05 0.110841)
(-4.61527e-07 1.71796e-05 0.0986107)
(-9.91906e-08 -2.50329e-05 0.0985531)
(-1.05142e-05 -1.83028e-05 0.108296)
(-4.70202e-06 -2.77093e-05 0.110831)
(6.7891e-06 1.36793e-05 0.0926831)
(-4.84693e-06 -2.84435e-05 0.110841)
(-6.84834e-06 -1.93241e-05 0.092621)
(4.38968e-07 1.71693e-05 0.0986107)
(-3.72294e-07 -1.27456e-05 0.0909884)
(-1.51356e-06 1.14718e-05 0.0816206)
(-5.9926e-07 1.40003e-05 0.0910342)
(4.3277e-07 -1.27402e-05 0.0909882)
(1.57381e-06 1.14597e-05 0.0816207)
(-6.6943e-07 -1.11779e-05 0.0815624)
(5.43995e-07 1.39904e-05 0.0910342)
(-4.49698e-05 -4.49688e-05 0.104759)
(8.34101e-06 5.16741e-06 0.0870366)
(5.17296e-06 8.34965e-06 0.0870349)
(-7.44292e-06 -7.08454e-06 0.0869805)
(-7.12737e-06 -7.41525e-06 0.0869793)
(6.90308e-06 2.03476e-06 0.0709176)
(-5.58003e-06 -4.61785e-06 0.0708539)
(2.05183e-06 6.8977e-06 0.0709176)
(-4.66902e-06 -5.55513e-06 0.0708536)
(4.58348e-06 5.52814e-06 0.0708566)
(5.50751e-06 4.65805e-06 0.0708554)
(8.44959e-06 1.38279e-05 0.0912642)
(-8.07373e-06 -2.04396e-05 0.096125)
(7.01544e-06 7.34024e-06 0.0869809)
(-3.96324e-06 -7.66567e-06 0.0810013)
(4.47275e-06 6.51211e-06 0.0809462)
(1.4204e-05 2.12107e-05 0.0960748)
(-8.18838e-06 -1.643e-05 0.0913115)
(1.37417e-05 8.3744e-06 0.0912507)
(-2.06946e-05 -8.29255e-06 0.0961323)
(7.31002e-06 7.05834e-06 0.0869771)
(-7.5142e-06 -3.80195e-06 0.0809993)
(6.42448e-06 4.39512e-06 0.0809384)
(2.11832e-05 1.41749e-05 0.0960656)
(-1.64161e-05 -8.27995e-06 0.0913151)
(5.72262e-06 5.75627e-06 0.083058)
(-5.57332e-06 -4.0781e-06 0.0678218)
(-4.12422e-06 -5.48077e-06 0.0678167)
(5.51754e-06 3.50117e-06 0.067759)
(3.45635e-06 5.48217e-06 0.0677523)
(-6.75931e-06 -6.59e-06 0.0831104)
(3.17801e-08 -6.75478e-06 0.076264)
(-6.5121e-07 6.33757e-06 0.0780015)
(1.04045e-08 1.26424e-05 0.0894193)
(-6.07575e-07 -1.39089e-05 0.0910398)
(-9.11023e-07 7.04978e-06 0.0762074)
(-4.24434e-07 -7.02456e-06 0.0780501)
(-1.11743e-06 -1.33652e-05 0.0894772)
(-7.35407e-07 6.3971e-06 0.0677443)
(6.21697e-07 1.10817e-05 0.081563)
(-1.55531e-06 -1.1686e-05 0.0852759)
(-4.8593e-07 9.67403e-06 0.0852112)
(7.15247e-08 -6.64217e-06 0.0678186)
(-9.03197e-07 7.00173e-06 0.0762081)
(-4.07027e-07 1.25117e-05 0.0909836)
(-4.11714e-07 -7.03913e-06 0.0780501)
(-1.11696e-06 -1.34375e-05 0.0894736)
(-6.42767e-07 6.29738e-06 0.0780016)
(5.56686e-09 1.24933e-05 0.0894158)
(4.87054e-08 -6.76622e-06 0.0762645)
(-5.61318e-08 -6.80955e-06 0.0762633)
(6.15415e-07 6.3412e-06 0.0780017)
(-4.30117e-08 1.26858e-05 0.0894193)
(6.02996e-07 -1.39095e-05 0.0910397)
(8.86712e-07 7.09284e-06 0.0762093)
(4.08251e-07 -7.02912e-06 0.07805)
(1.10679e-06 -1.34141e-05 0.0894765)
(6.98894e-07 6.4772e-06 0.0677448)
(-6.07105e-07 1.1113e-05 0.0815625)
(1.53936e-06 -1.17412e-05 0.0852743)
(4.84371e-07 9.71486e-06 0.0852107)
(-6.80117e-08 -6.71431e-06 0.0678149)
(-5.16353e-08 -6.72037e-06 0.0678132)
(4.96297e-07 9.81674e-06 0.0852117)
(1.58453e-06 -1.14159e-05 0.0816196)
(7.16029e-07 6.5087e-06 0.067743)
(1.55801e-06 -1.16993e-05 0.0852753)
(8.73759e-07 7.04371e-06 0.0762099)
(3.75932e-07 1.25239e-05 0.0909835)
(3.94359e-07 -7.03965e-06 0.07805)
(1.1038e-06 -1.34952e-05 0.089473)
(6.10236e-07 6.29586e-06 0.0780018)
(-4.0356e-08 1.25334e-05 0.0894159)
(-7.47444e-08 -6.82737e-06 0.0762638)
(-4.61798e-06 5.54898e-06 0.0708555)
(2.04846e-06 -6.9085e-06 0.0709152)
(6.60933e-06 -6.62957e-06 0.0831111)
(-5.53961e-06 3.51345e-06 0.0677521)
(-3.51603e-06 5.52666e-06 0.0677574)
(-5.83669e-06 5.81676e-06 0.0830586)
(5.51799e-06 -4.10481e-06 0.0678158)
(4.08559e-06 -5.53932e-06 0.0678211)
(-8.44714e-06 1.37363e-05 0.0912537)
(8.19019e-06 -2.05964e-05 0.0961275)
(-7.04419e-06 7.34415e-06 0.0869778)
(3.85342e-06 -7.56444e-06 0.0809983)
(-1.42196e-05 2.12317e-05 0.0960681)
(-4.44307e-06 6.45715e-06 0.0809395)
(8.25957e-06 -1.63358e-05 0.0913102)
(-1.37462e-05 8.40304e-06 0.0912607)
(2.05672e-05 -8.21194e-06 0.0961307)
(-7.29036e-06 7.01145e-06 0.0869786)
(7.54296e-06 -3.87882e-06 0.081003)
(-6.43979e-06 4.44481e-06 0.080944)
(-2.11835e-05 1.41773e-05 0.0960717)
(1.63299e-05 -8.26239e-06 0.091317)
(8.19424e-06 -1.62559e-05 0.0913135)
(-4.44945e-06 6.54347e-06 0.0809393)
(-1.43946e-05 2.15037e-05 0.0960743)
(5.12715e-06 -8.2555e-06 0.0870365)
(8.06047e-06 -2.04559e-05 0.0961339)
(-8.55891e-06 1.39226e-05 0.0912568)
(3.86845e-06 -7.5118e-06 0.0809982)
(1.62528e-05 -8.2001e-06 0.0913203)
(-6.52447e-06 4.44969e-06 0.0809438)
(-2.14573e-05 1.43533e-05 0.096078)
(8.21684e-06 -5.12637e-06 0.0870385)
(-1.39352e-05 8.51762e-06 0.0912639)
(7.4906e-06 -3.8947e-06 0.0810029)
(2.04233e-05 -8.08024e-06 0.0961371)
(-5.75736e-06 5.73746e-06 0.0830579)
(5.51217e-06 -4.11024e-06 0.0678167)
(4.09088e-06 -5.53466e-06 0.067822)
(-5.51255e-06 3.48568e-06 0.0677531)
(-3.489e-06 5.49653e-06 0.0677584)
(6.65308e-06 -6.67364e-06 0.0831103)
(-5.48816e-06 4.5654e-06 0.0708535)
(6.84759e-06 -2.00758e-06 0.0709164)
(6.46005e-06 -6.53455e-07 0.0677452)
(1.10567e-05 6.47591e-07 0.0815626)
(-1.17459e-05 -1.50046e-06 0.0852742)
(9.69614e-06 -4.36894e-07 0.0852113)
(-6.716e-06 1.05628e-07 0.0678151)
(7.04434e-06 -8.47621e-07 0.0762102)
(1.25617e-05 -3.66794e-07 0.0909837)
(-1.34725e-05 -1.06847e-06 0.0894726)
(-7.0761e-06 -3.90817e-07 0.078049)
(1.25555e-05 5.43901e-08 0.0894161)
(6.34138e-06 -5.92625e-07 0.078003)
(-6.80686e-06 1.04479e-07 0.0762637)
(6.40917e-06 7.54474e-07 0.0677437)
(1.10673e-05 -5.96734e-07 0.0815616)
(-1.16971e-05 1.50849e-06 0.0852756)
(9.68841e-06 5.21121e-07 0.0852106)
(-6.65517e-06 -1.10128e-07 0.0678183)
(7.0045e-06 9.30429e-07 0.0762081)
(1.255e-05 4.45187e-07 0.0909838)
(-7.06676e-06 3.85037e-07 0.0780489)
(-1.34428e-05 1.06831e-06 0.0894731)
(6.33631e-06 6.63445e-07 0.0780028)
(1.25059e-05 3.7135e-08 0.0894155)
(-6.77485e-06 -9.23854e-08 0.0762642)
(6.81107e-06 8.88789e-08 0.0762629)
(-1.26979e-05 5.09882e-08 0.0894188)
(-6.34744e-06 -6.20672e-07 0.0780011)
(1.38886e-05 -5.74749e-07 0.091039)
(-7.1005e-06 -8.78988e-07 0.0762089)
(1.34143e-05 -1.07245e-06 0.0894761)
(7.02012e-06 -3.85445e-07 0.0780493)
(-6.47494e-06 -6.80647e-07 0.0677448)
(-1.10519e-05 6.04271e-07 0.0815618)
(1.17565e-05 -1.49605e-06 0.0852745)
(-9.70981e-06 -4.67816e-07 0.0852106)
(6.7241e-06 1.07443e-07 0.0678151)
(6.72887e-06 8.31807e-08 0.0678134)
(-9.81408e-06 -4.81887e-07 0.0852115)
(1.13911e-05 -1.54397e-06 0.0816204)
(-6.5082e-06 -6.99001e-07 0.0677429)
(1.17072e-05 -1.51252e-06 0.0852755)
(-7.05608e-06 -8.64732e-07 0.0762095)
(-1.25363e-05 -3.81261e-07 0.0909829)
(1.34843e-05 -1.06902e-06 0.0894725)
(7.03067e-06 -3.79797e-07 0.0780494)
(-1.25538e-05 4.64479e-08 0.0894153)
(-6.29889e-06 -6.12413e-07 0.0780012)
(6.81318e-06 1.07701e-07 0.0762634)
(6.7979e-06 -5.32791e-08 0.0762624)
(-6.34556e-06 6.23982e-07 0.0780011)
(-1.26878e-05 -4.40849e-08 0.089419)
(1.38785e-05 6.20596e-07 0.091039)
(-7.09429e-06 8.84908e-07 0.0762085)
(7.01631e-06 4.2593e-07 0.0780492)
(1.34002e-05 1.1108e-06 0.0894761)
(-6.46628e-06 6.74727e-07 0.0677468)
(-1.10765e-05 -6.2697e-07 0.081563)
(1.17403e-05 1.52749e-06 0.085275)
(-9.70063e-06 4.55441e-07 0.0852115)
(6.71241e-06 -8.10004e-08 0.0678169)
(6.71536e-06 -5.71903e-08 0.0678151)
(-9.80373e-06 4.73181e-07 0.0852124)
(1.14111e-05 1.57956e-06 0.0816198)
(-6.50073e-06 6.95698e-07 0.0677449)
(1.1698e-05 1.55337e-06 0.085276)
(-7.04635e-06 8.65553e-07 0.0762091)
(-1.25298e-05 3.81931e-07 0.090983)
(7.03221e-06 4.12132e-07 0.0780493)
(1.34735e-05 1.10524e-06 0.0894725)
(-6.29931e-06 6.11457e-07 0.0780012)
(-1.254e-05 -4.2889e-08 0.0894156)
(6.81451e-06 -7.32671e-08 0.076263)
(5.49708e-06 -4.56319e-06 0.0708532)
(1.37183e-05 -8.42605e-06 0.0912533)
(-2.0556e-05 8.21964e-06 0.0961275)
(7.33011e-06 -7.02864e-06 0.0869763)
(-7.53436e-06 3.92314e-06 0.0809978)
(2.12118e-05 -1.41921e-05 0.0960678)
(6.45169e-06 -4.46693e-06 0.0809384)
(-1.62878e-05 8.29143e-06 0.0913099)
(8.39799e-06 -1.37258e-05 0.0912605)
(-8.20423e-06 2.05965e-05 0.0961303)
(7.0461e-06 -7.32527e-06 0.0869796)
(-3.8258e-06 7.57963e-06 0.0810031)
(4.41846e-06 -6.4334e-06 0.0809442)
(1.41954e-05 -2.11946e-05 0.0960715)
(-8.21167e-06 1.63368e-05 0.0913167)
(5.74323e-06 -5.74805e-06 0.0830577)
(-4.069e-06 5.56735e-06 0.0678159)
(-5.49849e-06 4.11574e-06 0.0678219)
(3.48246e-06 -5.51625e-06 0.0677521)
(5.50102e-06 -3.48405e-06 0.0677584)
(-6.62739e-06 6.68483e-06 0.08311)
(4.63486e-06 -5.52734e-06 0.0708566)
(6.6804e-08 6.8105e-06 0.076263)
(6.3292e-08 -1.27089e-05 0.0894194)
(-6.11005e-07 -6.40031e-06 0.078003)
(-6.02957e-07 1.39142e-05 0.0910392)
(-8.60132e-07 -7.10869e-06 0.0762093)
(-1.0851e-06 1.34137e-05 0.0894766)
(-4.16343e-07 7.06909e-06 0.0780492)
(-6.47941e-07 -6.45912e-06 0.0677479)
(6.4154e-07 -1.10852e-05 0.0815635)
(-1.50265e-06 1.17456e-05 0.0852752)
(-4.37306e-07 -9.70934e-06 0.0852125)
(8.90289e-08 6.70889e-06 0.0678175)
(6.88974e-08 6.71364e-06 0.0678158)
(-1.51846e-06 1.17035e-05 0.0852763)
(-8.46236e-07 -7.06204e-06 0.07621)
(-3.71924e-07 -1.25777e-05 0.0909835)
(-1.08379e-06 1.34845e-05 0.089473)
(-4.09311e-07 7.0883e-06 0.0780492)
(5.77026e-08 -1.25609e-05 0.089416)
(-6.04598e-07 -6.35304e-06 0.0780031)
(8.00826e-08 6.82997e-06 0.0762636)
(-1.2228e-07 6.7797e-06 0.0762648)
(-1.32099e-08 -1.26784e-05 0.0894182)
(6.54584e-07 -6.40001e-06 0.0780027)
(5.49899e-07 1.39123e-05 0.0910392)
(8.98294e-07 -7.07932e-06 0.076208)
(1.03386e-06 1.33702e-05 0.0894773)
(3.67416e-07 7.06085e-06 0.0780493)
(6.86248e-07 -6.41323e-06 0.0677426)
(-6.97128e-07 -1.1072e-05 0.0815628)
(1.50931e-06 1.17219e-05 0.0852758)
(4.34367e-07 -9.66382e-06 0.0852099)
(-1.4295e-07 6.6688e-06 0.0678177)
(-1.21936e-07 6.67208e-06 0.067816)
(4.46584e-07 -9.76959e-06 0.0852109)
(1.61261e-06 1.14342e-05 0.0816204)
(7.06146e-07 -6.44775e-06 0.0677408)
(1.52277e-06 1.16751e-05 0.0852768)
(8.78522e-07 -7.03085e-06 0.0762086)
(4.28498e-07 -1.25711e-05 0.0909833)
(1.02714e-06 1.34494e-05 0.0894739)
(3.54591e-07 7.07488e-06 0.0780494)
(-1.20186e-08 -1.25197e-05 0.0894148)
(6.39967e-07 -6.35416e-06 0.0780028)
(-1.43471e-07 6.79495e-06 0.0762654)
(6.60769e-06 6.61496e-06 0.0831111)
(-3.50597e-06 -5.52567e-06 0.0677579)
(-5.54105e-06 -3.49771e-06 0.0677521)
(-5.82068e-06 -5.79826e-06 0.0830589)
(4.08516e-06 5.5328e-06 0.0678213)
(5.53168e-06 4.08927e-06 0.0678154)
(-1.37228e-05 -8.37932e-06 0.091261)
(2.05883e-05 8.19555e-06 0.0961301)
(-7.3297e-06 -7.04141e-06 0.0869794)
(7.56041e-06 3.85544e-06 0.081003)
(-2.11961e-05 -1.41673e-05 0.0960718)
(-6.43949e-06 -4.43115e-06 0.0809444)
(1.63202e-05 8.23459e-06 0.0913169)
(-8.42157e-06 -1.3704e-05 0.0912542)
(8.23042e-06 2.06048e-05 0.0961274)
(-7.08031e-06 -7.30435e-06 0.0869782)
(3.87916e-06 7.59613e-06 0.0809977)
(-1.41961e-05 -2.1162e-05 0.0960687)
(-4.47111e-06 -6.45349e-06 0.08094)
(8.26964e-06 1.63465e-05 0.09131)
(1.6235e-05 8.16911e-06 0.0913202)
(-6.53402e-06 -4.43997e-06 0.0809442)
(-2.14671e-05 -1.43439e-05 0.096078)
(8.2672e-06 5.15656e-06 0.0870378)
(-1.39127e-05 -8.4932e-06 0.0912642)
(2.0441e-05 8.07266e-06 0.0961365)
(7.50197e-06 3.87069e-06 0.0810029)
(8.20295e-06 1.62626e-05 0.0913133)
(-4.47909e-06 -6.53702e-06 0.0809398)
(-1.43756e-05 -2.14311e-05 0.096075)
(5.16267e-06 8.27869e-06 0.087036)
(-8.53353e-06 -1.38902e-05 0.0912573)
(8.09779e-06 2.04614e-05 0.0961337)
(3.89525e-06 7.54458e-06 0.0809975)
(-5.73948e-06 -5.72026e-06 0.0830583)
(4.0928e-06 5.52611e-06 0.0678222)
(5.52945e-06 4.09421e-06 0.0678163)
(-3.47767e-06 -5.49948e-06 0.0677589)
(-5.50986e-06 -3.47347e-06 0.0677531)
(6.65332e-06 6.6565e-06 0.0831104)
(-5.5298e-06 -4.61997e-06 0.0708563)
(6.8997e-06 2.05101e-06 0.0709153)
(-4.67049e-06 -5.51018e-06 0.070856)
(2.0673e-06 6.89106e-06 0.0709153)
(1.87879e-05 1.88143e-05 0.0974184)
(4.45181e-05 4.45444e-05 0.104745)
(-3.98787e-05 -2.12728e-05 0.101727)
(-2.11455e-05 -3.98808e-05 0.101732)
(4.32241e-05 2.43278e-05 0.101644)
(2.42786e-05 4.3209e-05 0.101636)
(-1.98003e-05 -2.01047e-05 0.0974884)
(-1.88497e-05 1.87893e-05 0.0974182)
(-4.45295e-05 4.44922e-05 0.104745)
(3.99482e-05 -2.1191e-05 0.101728)
(2.12105e-05 -3.99725e-05 0.101732)
(-4.32564e-05 2.42827e-05 0.101638)
(-2.4295e-05 4.32217e-05 0.101642)
(2.00132e-05 -1.9989e-05 0.0974889)
(1.87884e-05 -1.88412e-05 0.0974182)
(4.45159e-05 -4.45569e-05 0.104745)
(-2.11586e-05 3.99724e-05 0.101728)
(-3.99699e-05 2.12275e-05 0.101731)
(2.42782e-05 -4.32606e-05 0.101637)
(4.32347e-05 -2.42931e-05 0.101641)
(-1.99444e-05 2.00221e-05 0.0974883)
(-1.88069e-05 -1.87774e-05 0.0974187)
(-4.45224e-05 -4.45163e-05 0.104745)
(2.12237e-05 3.99914e-05 0.101731)
(3.99858e-05 2.12346e-05 0.101728)
(-2.42823e-05 -4.32344e-05 0.101642)
(-4.32071e-05 -2.42475e-05 0.101638)
(2.00045e-05 1.99968e-05 0.0974887)
(1.04111e-05 3.15594e-05 0.115006)
(3.1535e-05 1.03993e-05 0.115006)
(1.056e-05 3.19824e-05 0.11498)
(1.32141e-05 1.32195e-05 0.116309)
(1.30959e-05 1.31055e-05 0.116357)
(-2.31873e-05 2.31991e-05 0.113129)
(-1.04114e-05 3.15637e-05 0.115006)
(-3.15331e-05 1.04234e-05 0.115007)
(-1.05532e-05 3.20007e-05 0.11498)
(-3.19659e-05 1.05675e-05 0.114981)
(-1.31977e-05 1.32294e-05 0.116309)
(-1.30877e-05 1.31125e-05 0.116357)
(3.15482e-05 -1.04221e-05 0.115005)
(1.04355e-05 -3.1514e-05 0.115006)
(1.05915e-05 -3.1946e-05 0.11498)
(1.32287e-05 -1.31868e-05 0.116309)
(1.31048e-05 -1.30775e-05 0.116357)
(-2.31554e-05 -2.31609e-05 0.113128)
(-3.15238e-05 -1.03968e-05 0.115005)
(-1.03905e-05 -3.15153e-05 0.115006)
(-3.19596e-05 -1.05398e-05 0.114979)
(-1.05334e-05 -3.19467e-05 0.11498)
(-1.3193e-05 -1.31808e-05 0.116309)
(-1.30822e-05 -1.30705e-05 0.116357)
(8.91924e-07 -4.18633e-05 0.103364)
(1.60611e-06 2.499e-05 0.097489)
(8.65036e-07 5.81493e-05 0.103957)
(-4.66529e-07 -1.69905e-05 0.0986223)
(4.1297e-06 5.77226e-05 0.103208)
(-1.09297e-06 -1.74108e-05 0.0975676)
(6.71357e-07 -4.00163e-05 0.104085)
(8.15129e-06 5.56483e-05 0.10154)
(-5.72665e-06 -4.37707e-05 0.0996182)
(6.72811e-06 1.91436e-05 0.0926176)
(-3.53057e-06 -1.83782e-05 0.0954625)
(1.2415e-05 5.27925e-05 0.0995445)
(3.34366e-06 2.17244e-05 0.095383)
(-1.99863e-06 -4.54564e-05 0.101675)
(4.04524e-06 5.71803e-05 0.103195)
(1.15015e-07 2.4686e-05 0.0985432)
(-1.11095e-06 -1.76153e-05 0.097558)
(6.47854e-07 -4.02651e-05 0.104071)
(1.56959e-06 2.46954e-05 0.0974797)
(8.34562e-07 5.75137e-05 0.103943)
(8.20775e-07 -4.2114e-05 0.10335)
(-9.38286e-07 -4.18412e-05 0.103363)
(-1.60494e-06 2.5023e-05 0.0974879)
(-8.37443e-07 5.81377e-05 0.103957)
(4.58315e-07 -1.69881e-05 0.0986222)
(-4.11336e-06 5.77573e-05 0.103207)
(1.05568e-06 -1.74419e-05 0.0975669)
(-6.89259e-07 -3.99759e-05 0.104085)
(-8.14397e-06 5.56649e-05 0.101538)
(5.66706e-06 -4.37694e-05 0.0996183)
(-6.7374e-06 1.91618e-05 0.0926161)
(3.50126e-06 -1.84329e-05 0.0954617)
(-3.34289e-06 2.17462e-05 0.0953812)
(-1.23938e-05 5.28113e-05 0.0995416)
(1.85598e-06 -4.54352e-05 0.101674)
(1.76858e-06 -4.52954e-05 0.101686)
(-3.39164e-06 2.1978e-05 0.0953883)
(-1.25499e-05 5.32736e-05 0.0995506)
(6.74923e-06 -1.34915e-05 0.092687)
(-8.27254e-06 5.61852e-05 0.10155)
(3.47421e-06 -1.82844e-05 0.095469)
(5.55516e-06 -4.36052e-05 0.0996275)
(-4.03151e-06 5.71714e-05 0.103194)
(-1.13701e-07 2.46947e-05 0.0985428)
(1.07981e-06 -1.76442e-05 0.0975574)
(-6.6084e-07 -4.02361e-05 0.10407)
(-1.56733e-06 2.47249e-05 0.0974786)
(-8.08566e-07 5.75006e-05 0.103943)
(-8.59687e-07 -4.21172e-05 0.10335)
(1.98933e-05 -1.98687e-05 0.0974961)
(3.82553e-05 -3.82245e-05 0.104922)
(-4.36516e-05 2.46283e-05 0.101648)
(-2.46402e-05 4.36155e-05 0.101652)
(3.98454e-05 -2.10148e-05 0.101739)
(-1.91113e-05 1.905e-05 0.0974251)
(2.1032e-05 -3.98677e-05 0.101742)
(5.56367e-05 8.17782e-06 0.101538)
(-4.38378e-05 -5.69292e-06 0.0996202)
(1.90742e-05 6.75825e-06 0.0926165)
(-1.84633e-05 -3.46824e-06 0.0954621)
(5.27661e-05 1.23874e-05 0.0995421)
(2.1713e-05 3.38118e-06 0.0953819)
(-4.54764e-05 -1.7871e-06 0.101675)
(5.72532e-05 4.05032e-06 0.103194)
(2.47169e-05 1.11918e-07 0.0985425)
(-1.76428e-05 -1.07124e-06 0.0975572)
(-4.0251e-05 6.69468e-07 0.10407)
(2.47409e-05 1.57961e-06 0.0974787)
(5.74954e-05 8.04092e-07 0.103943)
(-4.20685e-05 8.84352e-07 0.10335)
(5.56631e-05 -8.11859e-06 0.101538)
(-4.37635e-05 5.68535e-06 0.0996184)
(1.91173e-05 -6.693e-06 0.092616)
(-1.8395e-05 3.48188e-06 0.0954622)
(2.17379e-05 -3.30693e-06 0.0953822)
(5.27648e-05 -1.23526e-05 0.0995418)
(-4.54252e-05 1.86478e-06 0.101674)
(5.71655e-05 -3.99698e-06 0.103194)
(2.47169e-05 -8.25329e-08 0.0985427)
(-4.02486e-05 -6.51164e-07 0.10407)
(-1.7613e-05 1.0791e-06 0.0975573)
(5.74988e-05 -7.94981e-07 0.103943)
(2.47136e-05 -1.52268e-06 0.097479)
(-4.20838e-05 -8.66423e-07 0.10335)
(4.18104e-05 9.50387e-07 0.103364)
(-2.50354e-05 1.59898e-06 0.0974875)
(-5.81645e-05 8.19089e-07 0.103957)
(1.69652e-05 -4.22103e-07 0.0986216)
(-5.77755e-05 4.10024e-06 0.103207)
(1.7435e-05 -1.02838e-06 0.0975669)
(3.99763e-05 7.13519e-07 0.104085)
(-5.56112e-05 8.15099e-06 0.101539)
(4.37757e-05 -5.69808e-06 0.0996204)
(-1.90795e-05 6.72119e-06 0.0926168)
(1.84353e-05 -3.47098e-06 0.0954625)
(-5.27269e-05 1.23816e-05 0.0995442)
(-2.17236e-05 3.3542e-06 0.0953816)
(4.54525e-05 -1.88208e-06 0.101676)
(4.5291e-05 -1.79068e-06 0.101688)
(-2.19532e-05 3.39088e-06 0.0953887)
(-5.31941e-05 1.25382e-05 0.0995532)
(1.34659e-05 -6.72989e-06 0.0926884)
(-5.61478e-05 8.28352e-06 0.101551)
(4.3614e-05 -5.58904e-06 0.0996297)
(1.82885e-05 -3.45229e-06 0.0954698)
(-5.72238e-05 4.02442e-06 0.103194)
(-2.47034e-05 9.13401e-08 0.0985426)
(1.76366e-05 -1.04649e-06 0.0975574)
(4.02389e-05 6.83967e-07 0.10407)
(-2.47351e-05 1.56042e-06 0.0974783)
(-5.75358e-05 7.87087e-07 0.103943)
(4.20975e-05 8.70252e-07 0.103351)
(4.18289e-05 -9.29493e-07 0.103363)
(-5.81572e-05 -8.60152e-07 0.103957)
(-2.50141e-05 -1.60722e-06 0.0974882)
(1.69557e-05 4.72256e-07 0.0986215)
(-5.77569e-05 -4.11795e-06 0.103208)
(3.99592e-05 -6.58465e-07 0.104084)
(1.74116e-05 1.05957e-06 0.0975668)
(-5.56407e-05 -8.15487e-06 0.101539)
(4.38033e-05 5.71139e-06 0.0996193)
(-1.91006e-05 -6.7419e-06 0.0926172)
(1.84274e-05 3.50779e-06 0.0954624)
(-2.17098e-05 -3.36407e-06 0.0953823)
(-5.27412e-05 -1.23656e-05 0.0995438)
(4.54582e-05 1.88706e-06 0.101675)
(4.53033e-05 1.79171e-06 0.101687)
(-2.1948e-05 -3.40719e-06 0.0953894)
(-5.32262e-05 -1.25311e-05 0.0995528)
(1.34857e-05 6.76949e-06 0.0926874)
(-5.617e-05 -8.28338e-06 0.101551)
(1.828e-05 3.4893e-06 0.0954697)
(4.3621e-05 5.59476e-06 0.0996286)
(-5.71954e-05 -4.04033e-06 0.103195)
(-2.46958e-05 -1.1262e-07 0.0985429)
(4.02371e-05 -6.2886e-07 0.10407)
(1.76127e-05 1.082e-06 0.0975574)
(-5.75046e-05 -8.25734e-07 0.103943)
(-2.47157e-05 -1.56641e-06 0.097479)
(4.21287e-05 -8.44164e-07 0.10335)
(9.45798e-07 4.18188e-05 0.103363)
(8.43043e-07 -5.81614e-05 0.103957)
(1.62901e-06 -2.50351e-05 0.0974879)
(-4.56726e-07 1.69566e-05 0.0986218)
(4.11723e-06 -5.78218e-05 0.103207)
(6.9529e-07 3.99144e-05 0.104084)
(-1.0449e-06 1.74293e-05 0.0975672)
(8.15355e-06 -5.5651e-05 0.101539)
(-5.69638e-06 4.38234e-05 0.0996202)
(6.76465e-06 -1.91166e-05 0.0926175)
(-3.48675e-06 1.84479e-05 0.0954629)
(1.2395e-05 -5.275e-05 0.099544)
(3.38688e-06 -2.17316e-05 0.0953828)
(-1.86971e-06 4.54716e-05 0.101675)
(-1.77031e-06 4.53088e-05 0.101688)
(-3.46106e-06 1.82997e-05 0.0954702)
(4.02818e-06 -5.72113e-05 0.103194)
(1.15775e-07 -2.47104e-05 0.0985423)
(6.67012e-07 4.02221e-05 0.10407)
(-1.07605e-06 1.76327e-05 0.0975577)
(8.13213e-07 -5.74711e-05 0.103943)
(1.5857e-06 -2.47337e-05 0.0974787)
(8.66572e-07 4.21014e-05 0.10335)
(-9.49811e-07 4.1801e-05 0.103363)
(-8.2172e-07 -5.81635e-05 0.103957)
(-1.60238e-06 -2.50013e-05 0.0974873)
(4.32031e-07 1.69525e-05 0.0986217)
(-4.09409e-06 -5.78079e-05 0.103207)
(-6.92891e-07 3.9955e-05 0.104084)
(1.0264e-06 1.73909e-05 0.0975671)
(-8.12577e-06 -5.55764e-05 0.101538)
(5.71378e-06 4.38251e-05 0.0996189)
(-6.78942e-06 -1.91068e-05 0.0926167)
(3.49688e-06 1.84258e-05 0.0954625)
(-3.38727e-06 -2.16837e-05 0.0953814)
(-1.23901e-05 -5.2742e-05 0.0995425)
(1.87063e-06 4.54736e-05 0.101675)
(1.7825e-06 4.53091e-05 0.101687)
(-3.43886e-06 -2.19222e-05 0.0953886)
(-1.2555e-05 -5.32145e-05 0.0995515)
(6.77339e-06 1.3522e-05 0.0926876)
(-8.26316e-06 -5.61214e-05 0.10155)
(3.46905e-06 1.8274e-05 0.0954697)
(5.6027e-06 4.36638e-05 0.0996282)
(-4.00427e-06 -5.71614e-05 0.103194)
(-8.74272e-08 -2.47061e-05 0.0985422)
(-6.62011e-07 4.0222e-05 0.104069)
(1.04124e-06 1.75973e-05 0.0975576)
(-7.9347e-07 -5.7532e-05 0.103943)
(-1.56599e-06 -2.46937e-05 0.0974781)
(-8.754e-07 4.20791e-05 0.10335)
(1.98876e-05 1.98773e-05 0.0974958)
(3.82604e-05 3.82544e-05 0.104921)
(-2.46195e-05 -4.36278e-05 0.101652)
(-4.35962e-05 -2.45851e-05 0.101648)
(-1.90612e-05 -1.90343e-05 0.0974256)
(2.10438e-05 3.9886e-05 0.101742)
(3.98795e-05 2.105e-05 0.101739)
(6.10365e-05 6.10175e-05 0.108908)
(-9.16812e-05 5.68879e-05 0.107966)
(5.69191e-05 -9.1785e-05 0.107966)
(-0.000146143 -0.000146177 0.106634)
(9.82591e-06 9.71932e-06 0.106791)
(5.73998e-05 9.21516e-05 0.107918)
(-5.74328e-05 9.23139e-05 0.107918)
(-9.69081e-06 9.75209e-06 0.106792)
(9.23435e-05 5.73951e-05 0.107919)
(9.23382e-05 -5.74374e-05 0.107918)
(-9.21729e-05 5.71976e-05 0.107919)
(-9.22669e-05 -5.73045e-05 0.107918)
(9.77078e-06 -9.67804e-06 0.106791)
(5.72147e-05 -9.22715e-05 0.107918)
(-5.71884e-05 -9.21355e-05 0.107918)
(-9.72363e-06 -9.68665e-06 0.106791)
(0.000146147 0.000146164 0.106634)
(7.13103e-06 7.13429e-06 0.10683)
(5.70711e-05 9.17899e-05 0.107966)
(-5.71276e-05 9.1828e-05 0.107965)
(5.61975e-05 8.99735e-05 0.1081)
(-5.6235e-05 9.02967e-05 0.1081)
(-0.000146138 0.000146111 0.106635)
(-6.93208e-06 6.97086e-06 0.106831)
(9.1738e-05 5.69486e-05 0.107966)
(9.18434e-05 -5.71321e-05 0.107965)
(9.03601e-05 5.63163e-05 0.108101)
(9.02968e-05 -5.62417e-05 0.1081)
(-9.1772e-05 -5.69879e-05 0.107965)
(-9.01467e-05 5.60027e-05 0.108101)
(-9.02481e-05 -5.60741e-05 0.1081)
(0.000146136 -0.000146213 0.106634)
(7.0109e-06 -6.91587e-06 0.10683)
(-5.68835e-05 -9.16347e-05 0.107966)
(5.60209e-05 -9.02429e-05 0.108101)
(-5.60029e-05 -9.00856e-05 0.108101)
(-6.94491e-06 -6.87691e-06 0.10683)
(6.13508e-05 6.1331e-05 0.108832)
(-6.13577e-05 6.12903e-05 0.108832)
(6.13078e-05 -6.13624e-05 0.108832)
(-6.13481e-05 -6.13405e-05 0.108832)
(1.26227e-06 1.07854e-05 0.0940546)
(-1.49525e-06 3.26551e-05 0.0835758)
(1.97152e-06 5.77756e-05 0.0940781)
(-4.20541e-06 -4.83519e-06 0.0835809)
(-3.59889e-06 1.48287e-05 0.0721604)
(5.4966e-06 -5.57422e-06 0.0721978)
(1.07382e-05 1.21513e-06 0.0940532)
(3.27149e-05 -1.45932e-06 0.0835761)
(5.78593e-05 1.97991e-06 0.0940777)
(-4.90727e-06 -4.1228e-06 0.0835794)
(-6.10527e-05 6.09828e-05 0.108908)
(6.0999e-05 -6.10613e-05 0.108908)
(-6.10448e-05 -6.10283e-05 0.108908)
(6.01164e-05 6.01467e-05 0.109132)
(-6.01316e-05 6.00614e-05 0.109132)
(6.0062e-05 -6.01255e-05 0.109132)
(-6.01326e-05 -6.00907e-05 0.109132)
(-4.89892e-05 4.02247e-06 0.102491)
(-6.4933e-05 2.63108e-05 0.0957165)
(-0.000101797 2.00548e-05 0.108605)
(-9.11838e-05 5.6581e-05 0.108012)
(-0.000111155 5.68605e-06 0.102466)
(-2.15056e-05 -3.44099e-07 0.0957355)
(-0.000101449 1.99087e-05 0.108671)
(1.4722e-05 -3.54423e-06 0.0721572)
(-5.59814e-06 5.4609e-06 0.0721997)
(3.9083e-06 -4.89786e-05 0.102491)
(2.01003e-05 -0.000101735 0.108605)
(2.63276e-05 -6.49735e-05 0.0957165)
(5.66258e-05 -9.12839e-05 0.108012)
(5.6953e-06 -0.000111171 0.102465)
(1.99489e-05 -0.000101365 0.10867)
(-4.39294e-07 -2.1361e-05 0.0957331)
(-3.18913e-05 -1.73017e-05 0.0893931)
(-1.73251e-05 -3.18847e-05 0.0893913)
(-8.32486e-06 -8.27402e-06 0.106814)
(-1.07975e-05 3.07907e-06 0.0893981)
(3.10697e-06 -1.07821e-05 0.0893956)
(-5.57776e-06 -5.42387e-06 0.0722796)
(3.48896e-06 1.51331e-05 0.0722398)
(-5.43014e-06 -5.52738e-06 0.072277)
(1.5183e-05 3.58229e-06 0.0722401)
(0.000147887 0.000147929 0.106613)
(-2.81783e-06 1.1979e-05 0.0895317)
(1.17953e-05 -2.82928e-06 0.0895289)
(1.77594e-05 3.29877e-05 0.0895289)
(3.3097e-05 1.7787e-05 0.0895264)
(2.17667e-06 6.05982e-05 0.0942449)
(-4.36423e-06 -4.10203e-06 0.0836971)
(-1.69417e-06 3.3836e-05 0.0836956)
(1.4607e-06 1.29498e-05 0.094217)
(-2.15718e-06 6.05948e-05 0.0942449)
(4.31483e-06 -4.16718e-06 0.0836953)
(1.69587e-06 3.38943e-05 0.0836962)
(-1.33297e-06 1.29774e-05 0.0942168)
(6.14438e-06 0.000114884 0.102598)
(5.77053e-05 9.27662e-05 0.10787)
(1.15748e-07 2.35884e-05 0.0958853)
(2.02752e-05 0.000102066 0.108539)
(2.72724e-05 6.73606e-05 0.0958692)
(2.04208e-05 0.000102435 0.108472)
(4.57592e-06 5.2137e-05 0.102626)
(-6.1744e-06 0.000114889 0.102598)
(-5.77267e-05 9.27911e-05 0.10787)
(-1.30504e-07 2.33933e-05 0.0958833)
(-2.02588e-05 0.00010211 0.108539)
(-2.73354e-05 6.74176e-05 0.0958686)
(-2.04024e-05 0.000102452 0.108472)
(-4.48663e-06 5.21252e-05 0.102625)
(5.57218e-06 -5.40897e-06 0.0722769)
(-3.58582e-06 1.51669e-05 0.0722413)
(-0.000147861 0.000147824 0.106613)
(2.84076e-06 1.18429e-05 0.0895288)
(-1.18429e-05 -2.7684e-06 0.0895325)
(-1.77794e-05 3.30801e-05 0.0895274)
(-3.29536e-05 1.78313e-05 0.0895287)
(5.50816e-06 -5.48168e-06 0.07228)
(-1.50764e-05 3.57423e-06 0.0722397)
(6.06362e-05 2.17893e-06 0.0942445)
(-4.18323e-06 -4.26982e-06 0.0836955)
(3.38922e-05 -1.68053e-06 0.0836956)
(1.29513e-05 1.43203e-06 0.0942155)
(0.000114895 6.15291e-06 0.102597)
(9.27291e-05 5.75638e-05 0.10787)
(2.33639e-05 1.65932e-07 0.0958841)
(0.000102094 2.02465e-05 0.108539)
(6.74052e-05 2.73252e-05 0.0958683)
(0.000102465 2.0391e-05 0.108472)
(5.21132e-05 4.54356e-06 0.102625)
(6.06485e-05 -2.09948e-06 0.0942447)
(-4.1516e-06 4.32295e-06 0.0836962)
(3.38423e-05 1.65733e-06 0.0836942)
(1.29556e-05 -1.43841e-06 0.0942154)
(0.000114885 -6.12994e-06 0.102598)
(9.28313e-05 -5.7733e-05 0.107869)
(0.00010208 -2.02742e-05 0.108539)
(2.34158e-05 -1.91622e-07 0.0958843)
(0.000102441 -2.04148e-05 0.108472)
(6.73539e-05 -2.73235e-05 0.0958671)
(5.20778e-05 -4.53992e-06 0.102625)
(-0.000114936 6.13219e-06 0.102598)
(-9.26554e-05 5.74925e-05 0.10787)
(-2.34724e-05 2.38067e-07 0.095887)
(-0.000102148 2.0206e-05 0.108539)
(-6.7317e-05 2.73735e-05 0.0958698)
(-0.0001025 2.03598e-05 0.108472)
(-5.21669e-05 4.5828e-06 0.102625)
(-6.06454e-05 2.22141e-06 0.0942443)