/*--------------------------------*- C++ -*----------------------------------*\
| =========                 |                                                 |
| \\      /  F ield         | OpenFOAM: The Open Source CFD Toolbox           |
|  \\    /   O peration     | Version:  v1906                                 |
|   \\  /    A nd           | Web:      www.OpenFOAM.com                      |
|    \\/     M anipulation  |                                                 |
\*---------------------------------------------------------------------------*/
FoamFile
{
    version     2.0;
    format      ascii;
    class       volScalarField;
    location    "950";
    object      k;
}
// * * * * * * * * * * * * * * * * * * * * * * * * * * * * * * * * * * * * * //

dimensions      [0 2 -2 0 0 0 0];


internalField   nonuniform List<scalar> 
42840
(
3.83838e-05
5.1109e-05
5.11091e-05
5.32901e-05
5.34869e-05
5.32894e-05
5.34309e-05
5.11063e-05
5.1107e-05
5.12924e-05
5.12931e-05
5.32905e-05
5.34422e-05
5.11062e-05
5.11059e-05
5.12922e-05
5.1292e-05
5.11086e-05
5.12952e-05
5.12947e-05
5.32894e-05
5.34408e-05
5.11086e-05
5.12951e-05
5.12947e-05
5.34423e-05
5.13547e-05
5.13547e-05
6.85103e-05
7.3354e-05
7.33804e-05
6.84821e-05
7.1115e-05
7.1141e-05
6.85148e-05
7.33594e-05
7.33858e-05
6.84863e-05
3.83849e-05
3.83875e-05
3.83881e-05
3.86993e-05
3.87005e-05
3.8703e-05
3.87037e-05
6.05224e-05
6.46926e-05
4.63279e-05
5.11722e-05
6.47233e-05
4.64076e-05
6.04773e-05
7.11133e-05
7.11397e-05
6.05222e-05
4.63289e-05
6.46932e-05
5.11722e-05
4.64085e-05
6.47237e-05
6.04736e-05
6.98616e-05
6.98732e-05
5.33448e-05
6.98806e-05
6.98926e-05
6.99168e-05
6.99283e-05
7.11129e-05
7.11391e-05
7.11154e-05
7.11415e-05
6.98621e-05
6.9872e-05
5.33428e-05
6.98813e-05
6.98908e-05
7.11665e-05
7.11407e-05
7.11689e-05
7.11432e-05
5.33865e-05
6.99086e-05
6.99183e-05
6.98905e-05
6.99003e-05
6.85125e-05
7.33587e-05
7.33852e-05
6.84842e-05
6.05211e-05
6.46908e-05
4.63245e-05
5.11695e-05
6.4722e-05
4.64042e-05
6.04723e-05
6.05226e-05
6.46947e-05
4.63258e-05
5.11702e-05
6.47255e-05
4.64055e-05
6.04738e-05
6.85144e-05
7.34099e-05
7.33841e-05
6.85413e-05
6.85165e-05
7.34148e-05
7.33888e-05
6.85435e-05
6.05291e-05
5.1232e-05
6.47577e-05
4.65591e-05
6.4728e-05
4.6483e-05
6.0575e-05
6.05306e-05
5.12327e-05
6.47612e-05
4.65605e-05
6.4732e-05
4.64843e-05
6.05766e-05
6.98721e-05
6.98603e-05
5.33447e-05
6.98902e-05
6.98779e-05
7.11116e-05
7.11378e-05
7.11685e-05
7.11427e-05
5.33887e-05
6.99177e-05
6.99052e-05
6.99003e-05
6.98886e-05
7.11652e-05
7.11393e-05
6.05239e-05
6.46946e-05
4.63265e-05
5.11693e-05
6.47255e-05
4.64062e-05
6.04749e-05
6.85127e-05
7.33541e-05
7.33806e-05
6.84841e-05
6.0522e-05
4.63266e-05
6.46897e-05
5.11691e-05
4.64063e-05
6.47202e-05
6.04731e-05
6.85184e-05
7.34153e-05
7.33895e-05
6.85458e-05
6.05318e-05
5.1232e-05
6.47612e-05
4.65612e-05
6.4732e-05
4.6485e-05
6.05779e-05
6.85163e-05
7.34102e-05
7.33842e-05
6.85437e-05
6.05299e-05
5.12316e-05
4.65613e-05
6.47559e-05
4.64852e-05
6.4727e-05
6.0576e-05
6.85122e-05
7.33594e-05
7.33838e-05
6.8486e-05
6.05211e-05
4.6328e-05
6.46907e-05
5.11718e-05
4.64076e-05
6.47217e-05
6.04755e-05
6.85112e-05
7.33552e-05
7.33816e-05
6.84831e-05
6.0534e-05
5.12347e-05
6.47591e-05
4.65626e-05
6.47298e-05
4.64864e-05
6.0576e-05
6.85182e-05
7.34138e-05
7.33894e-05
6.85431e-05
6.05299e-05
5.12344e-05
4.65626e-05
6.47575e-05
4.64865e-05
6.4728e-05
6.05758e-05
6.85152e-05
7.34112e-05
7.33852e-05
6.85421e-05
6.98652e-05
6.98625e-05
5.33432e-05
6.98844e-05
6.98817e-05
7.11139e-05
7.114e-05
7.11671e-05
7.1141e-05
5.33872e-05
6.99117e-05
6.9909e-05
6.98935e-05
6.98907e-05
7.11675e-05
7.11417e-05
6.05235e-05
4.63292e-05
6.46966e-05
5.11718e-05
4.64088e-05
6.47275e-05
6.04748e-05
6.85101e-05
7.33564e-05
7.33829e-05
6.84838e-05
6.85129e-05
7.33594e-05
7.33858e-05
6.84861e-05
6.05304e-05
5.12347e-05
4.65635e-05
6.47594e-05
4.64873e-05
6.47304e-05
6.05761e-05
6.05315e-05
5.12344e-05
4.65638e-05
6.47633e-05
4.64877e-05
6.47337e-05
6.05775e-05
6.85159e-05
7.34124e-05
7.33864e-05
6.8541e-05
6.85174e-05
7.34153e-05
7.33895e-05
6.85441e-05
7.11132e-05
7.11393e-05
7.1116e-05
7.11422e-05
5.33888e-05
6.99078e-05
6.99199e-05
6.98899e-05
6.99015e-05
7.11667e-05
7.11409e-05
7.11696e-05
7.11438e-05
4.66382e-05
6.47634e-05
6.05834e-05
7.34146e-05
6.85457e-05
6.47692e-05
7.34199e-05
7.11682e-05
7.11712e-05
7.179e-05
7.15677e-05
7.15382e-05
6.84983e-05
7.15583e-05
7.15267e-05
7.17995e-05
7.16285e-05
7.33655e-05
7.96981e-05
7.97022e-05
7.16135e-05
7.1627e-05
7.97153e-05
7.33691e-05
7.97113e-05
7.1642e-05
7.1785e-05
6.84943e-05
7.15434e-05
7.1512e-05
7.1553e-05
7.15236e-05
7.17752e-05
7.11272e-05
7.11289e-05
7.17905e-05
7.1546e-05
7.15712e-05
6.85024e-05
7.15336e-05
7.15587e-05
7.18043e-05
7.16304e-05
7.33709e-05
7.9715e-05
7.97237e-05
7.16158e-05
7.16294e-05
7.97368e-05
7.33745e-05
7.97283e-05
7.16439e-05
7.17895e-05
6.84987e-05
7.15191e-05
7.15441e-05
7.15313e-05
7.15563e-05
7.17766e-05
7.11258e-05
7.11272e-05
9.4927e-05
7.34527e-05
7.34463e-05
7.3439e-05
7.34327e-05
9.49302e-05
7.40749e-05
6.51187e-05
6.98664e-05
7.31882e-05
6.51325e-05
7.32009e-05
7.40687e-05
7.41229e-05
6.51277e-05
6.98783e-05
7.31988e-05
6.51424e-05
7.32114e-05
7.4117e-05
7.4086e-05
7.32152e-05
6.98759e-05
6.51556e-05
6.51421e-05
7.32028e-05
7.40917e-05
7.41343e-05
7.32257e-05
6.98876e-05
6.51655e-05
6.5151e-05
7.32134e-05
7.41398e-05
9.49156e-05
7.34262e-05
7.34199e-05
7.344e-05
7.34336e-05
9.49123e-05
7.41396e-05
6.52087e-05
7.32454e-05
6.99213e-05
7.41355e-05
6.52212e-05
7.32582e-05
7.41876e-05
6.52177e-05
7.3256e-05
6.99335e-05
7.41837e-05
6.52309e-05
7.32686e-05
9.49725e-05
7.34769e-05
7.34705e-05
9.49699e-05
7.34904e-05
7.34841e-05
7.11252e-05
7.11269e-05
7.11277e-05
7.11293e-05
9.49261e-05
7.34528e-05
7.34461e-05
7.34392e-05
7.34324e-05
9.49293e-05
7.40755e-05
6.51186e-05
6.98672e-05
7.3189e-05
7.32015e-05
6.51335e-05
7.407e-05
7.41212e-05
6.51265e-05
6.98767e-05
7.31983e-05
7.32108e-05
6.5141e-05
7.41157e-05
7.40873e-05
7.32159e-05
6.98765e-05
6.51565e-05
7.32036e-05
7.40926e-05
6.5142e-05
7.41331e-05
7.32253e-05
6.98862e-05
6.5164e-05
7.32129e-05
7.41384e-05
6.51499e-05
9.49146e-05
7.34264e-05
7.34196e-05
7.34401e-05
7.34333e-05
9.49113e-05
7.11545e-05
7.11528e-05
7.11569e-05
7.11553e-05
9.49437e-05
7.34519e-05
7.34451e-05
9.49406e-05
7.34655e-05
7.34588e-05
7.41204e-05
6.52006e-05
6.99041e-05
7.32443e-05
7.32321e-05
6.51869e-05
7.41254e-05
7.41662e-05
6.52081e-05
6.99138e-05
7.32539e-05
7.32415e-05
6.51949e-05
7.41712e-05
7.41093e-05
7.32181e-05
6.51648e-05
6.98951e-05
7.4104e-05
7.32302e-05
6.51788e-05
7.4155e-05
7.32274e-05
6.51727e-05
6.99047e-05
7.41497e-05
7.32395e-05
6.51863e-05
9.49549e-05
7.34781e-05
7.34714e-05
7.34645e-05
7.34578e-05
9.49578e-05
7.179e-05
7.15698e-05
7.15463e-05
6.85004e-05
7.15572e-05
7.15341e-05
7.18039e-05
7.16302e-05
7.33703e-05
7.97167e-05
7.97253e-05
7.16156e-05
7.16292e-05
7.97384e-05
7.33738e-05
7.973e-05
7.16437e-05
7.17893e-05
6.84964e-05
7.15425e-05
7.15195e-05
7.15549e-05
7.15317e-05
7.17752e-05
7.1814e-05
7.15731e-05
7.15414e-05
6.8526e-05
7.18044e-05
7.15828e-05
7.15526e-05
7.16539e-05
7.33988e-05
7.97408e-05
7.16688e-05
7.9737e-05
7.16554e-05
7.97244e-05
7.33952e-05
7.16405e-05
7.97282e-05
7.18191e-05
6.853e-05
7.15974e-05
7.15668e-05
7.18285e-05
7.15881e-05
7.15557e-05
7.18184e-05
7.15723e-05
7.15489e-05
6.85282e-05
7.18046e-05
7.15848e-05
7.15608e-05
7.16561e-05
7.34035e-05
7.97639e-05
7.97558e-05
7.16705e-05
7.16572e-05
7.9743e-05
7.34e-05
7.16427e-05
7.97513e-05
7.1819e-05
6.85321e-05
7.15997e-05
7.15751e-05
7.15872e-05
7.15632e-05
7.18328e-05
9.49245e-05
7.34461e-05
7.34519e-05
7.34324e-05
7.34382e-05
9.49278e-05
7.4121e-05
6.5126e-05
6.9876e-05
7.31998e-05
7.32091e-05
6.51394e-05
7.41158e-05
7.40746e-05
6.51203e-05
6.98636e-05
7.31895e-05
6.51325e-05
7.31989e-05
7.40693e-05
7.4133e-05
7.32235e-05
6.98864e-05
6.51624e-05
7.32143e-05
6.51494e-05
7.41381e-05
7.40866e-05
7.32133e-05
6.98746e-05
6.51556e-05
6.51437e-05
7.3204e-05
7.40918e-05
9.49131e-05
7.34196e-05
7.34254e-05
7.34334e-05
7.34392e-05
9.49098e-05
7.11239e-05
7.11255e-05
7.11564e-05
7.11548e-05
9.49421e-05
7.34452e-05
7.34509e-05
9.49391e-05
7.34588e-05
7.34646e-05
7.4166e-05
6.52066e-05
6.99139e-05
7.3253e-05
6.51943e-05
7.32426e-05
7.41711e-05
7.41196e-05
6.51999e-05
6.99023e-05
7.32419e-05
7.32329e-05
6.51887e-05
7.41248e-05
7.41549e-05
7.32288e-05
6.51721e-05
6.99041e-05
6.51848e-05
7.41497e-05
7.32382e-05
7.41085e-05
7.32186e-05
6.51665e-05
6.98918e-05
7.41033e-05
7.32279e-05
6.5178e-05
9.49534e-05
7.34714e-05
7.34772e-05
7.34578e-05
7.34636e-05
9.49564e-05
7.1153e-05
7.11516e-05
7.17882e-05
7.15704e-05
7.15382e-05
6.85003e-05
7.15579e-05
7.15265e-05
7.18022e-05
7.16279e-05
7.33656e-05
7.96964e-05
7.97007e-05
7.16129e-05
7.16264e-05
7.9714e-05
7.33692e-05
7.97097e-05
7.16414e-05
7.17877e-05
6.84966e-05
7.15432e-05
7.15118e-05
7.15554e-05
7.15235e-05
7.17733e-05
7.18188e-05
7.15484e-05
7.15738e-05
6.85305e-05
7.18051e-05
7.15605e-05
7.15862e-05
7.16562e-05
7.34042e-05
7.97623e-05
7.16707e-05
7.97541e-05
7.16573e-05
7.97413e-05
7.34006e-05
7.16428e-05
7.97497e-05
7.18196e-05
6.85339e-05
7.15748e-05
7.16008e-05
7.18333e-05
7.15627e-05
7.15886e-05
7.18168e-05
7.1573e-05
7.15413e-05
6.85285e-05
7.18028e-05
7.15854e-05
7.15527e-05
7.16533e-05
7.33989e-05
7.97397e-05
7.97353e-05
7.16682e-05
7.16549e-05
7.97227e-05
7.33954e-05
7.16399e-05
7.97269e-05
7.18171e-05
6.85319e-05
7.16001e-05
7.15668e-05
7.15878e-05
7.15556e-05
7.18312e-05
7.17906e-05
7.15446e-05
7.15692e-05
6.85023e-05
7.15356e-05
7.15597e-05
7.18043e-05
7.16303e-05
7.3369e-05
7.97151e-05
7.97232e-05
7.16157e-05
7.16292e-05
7.97363e-05
7.33744e-05
7.97283e-05
7.16438e-05
7.17898e-05
6.84963e-05
7.15208e-05
7.15448e-05
7.15301e-05
7.15544e-05
7.17758e-05
7.1789e-05
7.15694e-05
7.15401e-05
6.84992e-05
7.15582e-05
7.15279e-05
7.18028e-05
7.16288e-05
7.33667e-05
7.96962e-05
7.97047e-05
7.16142e-05
7.16278e-05
7.97177e-05
7.33703e-05
7.97094e-05
7.16423e-05
7.17883e-05
6.84952e-05
7.15428e-05
7.15132e-05
7.15549e-05
7.15254e-05
7.17742e-05
7.18189e-05
7.15501e-05
7.15746e-05
6.8528e-05
7.18052e-05
7.15591e-05
7.15842e-05
7.16561e-05
7.34041e-05
7.9762e-05
7.9754e-05
7.16705e-05
7.16572e-05
7.97414e-05
7.3399e-05
7.16427e-05
7.97493e-05
7.18195e-05
6.85336e-05
7.15732e-05
7.15989e-05
7.15643e-05
7.15894e-05
7.18332e-05
7.18173e-05
7.15738e-05
7.15426e-05
6.85269e-05
7.18036e-05
7.15837e-05
7.15546e-05
7.16546e-05
7.33999e-05
7.97433e-05
7.97352e-05
7.1669e-05
7.16557e-05
7.97224e-05
7.33964e-05
7.16412e-05
7.97306e-05
7.1818e-05
6.85307e-05
7.15983e-05
7.15688e-05
7.15887e-05
7.15569e-05
7.18317e-05
9.49289e-05
7.34461e-05
7.34528e-05
7.34324e-05
7.34391e-05
9.49317e-05
7.41207e-05
6.51249e-05
6.98702e-05
7.31963e-05
7.3209e-05
6.51365e-05
7.41153e-05
7.40763e-05
6.512e-05
6.98675e-05
7.31889e-05
6.51344e-05
7.32015e-05
7.40707e-05
7.41325e-05
7.32234e-05
6.98796e-05
6.51596e-05
7.32109e-05
6.51483e-05
7.41379e-05
7.4088e-05
7.32159e-05
6.98768e-05
6.51574e-05
6.51433e-05
7.32035e-05
7.40934e-05
9.4917e-05
7.34196e-05
7.34263e-05
7.34334e-05
7.344e-05
9.49142e-05
7.11262e-05
7.11279e-05
7.11548e-05
7.11534e-05
9.49461e-05
7.34451e-05
7.34518e-05
9.49434e-05
7.34588e-05
7.34654e-05
7.41656e-05
6.52038e-05
6.9907e-05
7.3252e-05
6.51932e-05
7.32395e-05
7.41707e-05
7.41211e-05
6.52016e-05
6.99043e-05
7.32445e-05
7.32321e-05
6.51883e-05
7.41261e-05
7.41546e-05
7.32254e-05
6.5171e-05
6.98981e-05
6.51819e-05
7.41492e-05
7.32376e-05
7.411e-05
7.3218e-05
6.51661e-05
6.98953e-05
7.41047e-05
7.32302e-05
6.51797e-05
9.49576e-05
7.34714e-05
7.3478e-05
7.34578e-05
7.34644e-05
9.49603e-05
7.11554e-05
7.11538e-05
7.1791e-05
7.15377e-05
7.15686e-05
6.85001e-05
7.15286e-05
7.15592e-05
7.18005e-05
7.16298e-05
7.33679e-05
7.96974e-05
7.9706e-05
7.16153e-05
7.16288e-05
7.9719e-05
7.33715e-05
7.97107e-05
7.16433e-05
7.1786e-05
6.84941e-05
7.15137e-05
7.15443e-05
7.15231e-05
7.15539e-05
7.17764e-05
7.17894e-05
7.15428e-05
7.15693e-05
6.8502e-05
7.15316e-05
7.15599e-05
7.18033e-05
7.16295e-05
7.33709e-05
7.97142e-05
7.97183e-05
7.16144e-05
7.16279e-05
7.97314e-05
7.33745e-05
7.97274e-05
7.1643e-05
7.17889e-05
6.84968e-05
7.15168e-05
7.1545e-05
7.15282e-05
7.15545e-05
7.17746e-05
7.1815e-05
7.15432e-05
7.15741e-05
6.85258e-05
7.18055e-05
7.15522e-05
7.15837e-05
7.16557e-05
7.34012e-05
7.97445e-05
7.97365e-05
7.16701e-05
7.16568e-05
7.97237e-05
7.33976e-05
7.16423e-05
7.97319e-05
7.18201e-05
6.85315e-05
7.15662e-05
7.15983e-05
7.15574e-05
7.1589e-05
7.18295e-05
7.18177e-05
7.15463e-05
7.15747e-05
6.85288e-05
7.18043e-05
7.15572e-05
7.15844e-05
7.16548e-05
7.34042e-05
7.9757e-05
7.97531e-05
7.16697e-05
7.16564e-05
7.97405e-05
7.34006e-05
7.16414e-05
7.97443e-05
7.18191e-05
6.8533e-05
7.15713e-05
7.1599e-05
7.15606e-05
7.15896e-05
7.18314e-05
7.11254e-05
7.11271e-05
7.11283e-05
7.113e-05
9.49445e-05
7.34517e-05
7.34454e-05
9.49415e-05
7.34653e-05
7.3459e-05
7.41193e-05
6.51998e-05
6.99035e-05
7.32436e-05
7.41245e-05
6.51871e-05
7.32314e-05
7.41674e-05
6.52095e-05
6.99151e-05
7.32541e-05
7.41725e-05
6.5196e-05
7.3242e-05
7.41085e-05
7.32174e-05
6.51649e-05
6.98943e-05
7.41029e-05
6.51779e-05
7.32294e-05
7.41566e-05
7.3228e-05
6.51739e-05
6.99062e-05
7.41511e-05
6.51877e-05
7.32399e-05
9.49558e-05
7.34779e-05
7.34716e-05
9.49586e-05
7.34643e-05
7.3458e-05
7.11546e-05
7.1153e-05
7.11575e-05
7.11559e-05
7.16822e-05
7.97477e-05
7.34259e-05
7.16679e-05
7.97557e-05
7.18463e-05
6.8557e-05
7.16038e-05
7.15707e-05
7.1832e-05
7.16127e-05
7.15826e-05
7.34289e-05
7.11803e-05
7.11831e-05
3.12669e-05
3.12656e-05
3.84904e-05
3.13973e-05
3.1396e-05
2.22593e-05
2.2108e-05
6.58147e-05
5.93018e-05
5.93044e-05
5.32951e-05
5.93096e-05
5.931e-05
6.5807e-05
6.59115e-05
5.94424e-05
5.94435e-05
5.34903e-05
6.59037e-05
5.94483e-05
5.94494e-05
6.58144e-05
5.93022e-05
5.93034e-05
5.32941e-05
5.9308e-05
5.93092e-05
6.58073e-05
6.58815e-05
5.34409e-05
5.94085e-05
5.94112e-05
5.94091e-05
5.94105e-05
6.58867e-05
6.58143e-05
5.93028e-05
5.93045e-05
5.32952e-05
5.93103e-05
5.93085e-05
6.58076e-05
6.5881e-05
5.34383e-05
5.94119e-05
5.94139e-05
5.94078e-05
5.94096e-05
6.58875e-05
6.58132e-05
5.93013e-05
5.93033e-05
5.32936e-05
5.93089e-05
5.93061e-05
6.58063e-05
6.58799e-05
5.34369e-05
5.941e-05
5.94134e-05
5.94057e-05
5.94089e-05
6.58867e-05
6.58805e-05
5.34386e-05
5.94131e-05
5.9414e-05
6.58879e-05
5.94087e-05
5.94099e-05
3.12674e-05
3.12663e-05
3.84915e-05
3.13978e-05
3.13967e-05
2.22595e-05
2.21082e-05
3.12708e-05
3.12698e-05
3.84942e-05
3.14012e-05
3.14001e-05
2.22631e-05
2.21118e-05
3.12713e-05
3.12697e-05
3.84948e-05
3.14017e-05
3.14001e-05
2.22632e-05
2.21118e-05
3.85962e-05
3.16536e-05
3.16523e-05
3.15267e-05
3.15254e-05
2.24104e-05
2.25601e-05
3.85973e-05
3.16541e-05
3.16531e-05
3.15273e-05
3.15262e-05
2.24106e-05
2.25603e-05
3.85999e-05
3.16575e-05
3.16564e-05
3.15306e-05
3.15296e-05
2.24142e-05
2.25639e-05
3.86005e-05
3.1658e-05
3.16564e-05
3.1531e-05
3.15295e-05
2.24142e-05
2.25639e-05
5.61434e-05
6.22259e-05
5.48429e-05
6.05063e-05
6.22117e-05
5.48557e-05
5.61331e-05
5.72089e-05
6.02286e-05
6.47047e-05
6.40875e-05
6.02296e-05
6.40994e-05
5.72195e-05
5.72555e-05
6.41217e-05
6.47115e-05
6.02601e-05
6.02591e-05
6.411e-05
5.72453e-05
5.60917e-05
6.04942e-05
6.21858e-05
5.48087e-05
6.22004e-05
5.4797e-05
5.61015e-05
5.61385e-05
5.48503e-05
6.22237e-05
6.05024e-05
5.48456e-05
6.22044e-05
5.61332e-05
5.72128e-05
6.02268e-05
6.47053e-05
6.40805e-05
6.02287e-05
6.4095e-05
5.72094e-05
5.72458e-05
6.41172e-05
6.4712e-05
6.02592e-05
6.02578e-05
6.41028e-05
5.72486e-05
5.60913e-05
6.04937e-05
5.47992e-05
6.21788e-05
5.48041e-05
6.21979e-05
5.60964e-05
6.58323e-05
5.33407e-05
5.93453e-05
5.93462e-05
5.93382e-05
5.93394e-05
6.58397e-05
6.58328e-05
5.33393e-05
5.93436e-05
5.93448e-05
6.58386e-05
5.93371e-05
5.93384e-05
6.58629e-05
5.33866e-05
5.93727e-05
5.9374e-05
6.58573e-05
5.93757e-05
5.93771e-05
5.6133e-05
6.22217e-05
5.48482e-05
6.05011e-05
6.22023e-05
5.48437e-05
5.61296e-05
5.721e-05
6.02222e-05
6.47034e-05
6.40776e-05
6.40923e-05
6.02313e-05
5.72062e-05
5.72429e-05
6.41147e-05
6.47096e-05
6.02616e-05
6.41003e-05
6.0253e-05
5.72462e-05
5.60868e-05
6.04927e-05
6.21765e-05
5.47974e-05
6.2196e-05
5.48022e-05
5.60898e-05
5.61388e-05
6.22271e-05
5.48493e-05
6.05025e-05
6.22076e-05
5.48448e-05
5.61336e-05
5.72127e-05
6.02276e-05
6.47069e-05
6.40856e-05
6.40997e-05
6.02288e-05
5.72091e-05
5.72458e-05
6.41221e-05
6.47136e-05
6.02591e-05
6.4108e-05
5.72489e-05
6.02579e-05
5.60915e-05
6.04941e-05
6.21819e-05
5.47986e-05
6.22013e-05
5.48034e-05
5.60966e-05
5.61704e-05
6.2228e-05
5.48869e-05
6.05485e-05
5.61748e-05
6.22469e-05
5.4891e-05
5.73144e-05
6.03196e-05
6.47459e-05
6.41577e-05
6.03115e-05
6.41443e-05
5.73176e-05
5.72823e-05
6.41225e-05
6.02824e-05
6.474e-05
6.02903e-05
5.72793e-05
6.41363e-05
5.62149e-05
6.05564e-05
6.22716e-05
5.4934e-05
6.22529e-05
5.49302e-05
5.62102e-05
5.61741e-05
6.22334e-05
5.4888e-05
6.055e-05
5.61797e-05
6.22523e-05
5.48922e-05
5.73172e-05
6.03171e-05
6.475e-05
6.4165e-05
6.41519e-05
6.0317e-05
5.73187e-05
5.72847e-05
6.41303e-05
6.02877e-05
6.47436e-05
5.72822e-05
6.4144e-05
6.02887e-05
5.62195e-05
6.05579e-05
6.2277e-05
5.49351e-05
6.22584e-05
5.49313e-05
5.62136e-05
6.58329e-05
5.33407e-05
5.93433e-05
5.9345e-05
5.93404e-05
5.93387e-05
6.58394e-05
6.58637e-05
5.33927e-05
5.9373e-05
5.93748e-05
5.93777e-05
6.58572e-05
5.93796e-05
5.6139e-05
6.2227e-05
5.48504e-05
6.05036e-05
6.22074e-05
5.48457e-05
5.61339e-05
5.72127e-05
6.02286e-05
6.4707e-05
6.40848e-05
6.40995e-05
6.02298e-05
5.72091e-05
5.72459e-05
6.41219e-05
6.47136e-05
6.026e-05
6.41075e-05
6.02589e-05
5.72491e-05
5.60916e-05
6.04954e-05
6.21817e-05
5.47995e-05
6.22012e-05
5.48043e-05
5.60968e-05
5.61357e-05
5.48489e-05
6.22216e-05
6.05018e-05
5.48443e-05
6.22022e-05
5.61305e-05
5.72085e-05
6.02212e-05
6.47016e-05
6.40764e-05
6.40902e-05
6.02301e-05
5.72048e-05
5.72415e-05
6.41126e-05
6.47086e-05
6.02603e-05
6.40989e-05
5.72447e-05
6.02519e-05
5.60884e-05
6.04936e-05
5.47981e-05
6.21764e-05
5.4803e-05
6.21958e-05
5.60935e-05
5.61744e-05
6.22332e-05
5.48891e-05
6.05512e-05
5.618e-05
6.22522e-05
5.48933e-05
5.73176e-05
6.03182e-05
6.475e-05
6.41651e-05
6.0318e-05
6.41516e-05
5.73205e-05
5.72853e-05
6.41296e-05
6.02887e-05
6.47436e-05
6.02897e-05
5.72825e-05
6.41436e-05
5.62197e-05
6.0559e-05
6.2277e-05
5.49363e-05
6.22582e-05
5.49324e-05
5.62141e-05
5.61711e-05
5.48876e-05
6.2228e-05
6.05494e-05
5.61766e-05
5.48918e-05
6.22468e-05
5.73131e-05
6.03183e-05
6.4745e-05
6.41558e-05
6.4143e-05
6.03108e-05
5.73161e-05
5.72809e-05
6.41212e-05
6.02813e-05
6.47382e-05
5.7278e-05
6.41344e-05
6.02891e-05
5.62164e-05
6.05571e-05
5.49348e-05
6.22715e-05
5.49309e-05
6.2253e-05
5.62107e-05
5.6139e-05
5.48414e-05
6.22229e-05
6.05034e-05
5.4854e-05
6.22036e-05
5.61306e-05
5.72109e-05
6.02221e-05
6.47032e-05
6.40785e-05
6.02312e-05
6.40927e-05
5.72099e-05
5.72462e-05
6.4115e-05
6.47096e-05
6.02616e-05
6.02531e-05
6.41013e-05
5.72481e-05
5.60889e-05
6.04927e-05
5.48076e-05
6.21796e-05
5.4796e-05
6.21964e-05
5.60974e-05
5.61739e-05
6.22372e-05
5.48985e-05
6.05498e-05
5.61842e-05
6.22513e-05
5.48859e-05
5.73269e-05
6.03197e-05
6.47478e-05
6.4165e-05
5.73161e-05
6.03185e-05
6.41537e-05
5.72804e-05
6.41322e-05
6.02885e-05
6.47414e-05
5.72916e-05
6.02897e-05
6.41437e-05
5.6224e-05
6.0561e-05
6.22756e-05
5.49275e-05
5.62136e-05
6.2262e-05
5.49412e-05
5.61719e-05
5.48958e-05
6.22294e-05
6.0549e-05
5.61796e-05
5.48864e-05
6.22482e-05
5.73165e-05
6.03197e-05
6.47459e-05
6.41583e-05
6.4145e-05
6.03116e-05
5.73193e-05
5.72843e-05
6.41236e-05
6.02825e-05
6.47398e-05
5.72818e-05
6.41369e-05
6.02904e-05
5.62191e-05
6.0557e-05
5.49334e-05
6.22729e-05
5.49352e-05
6.22544e-05
5.62118e-05
6.58317e-05
5.33392e-05
5.93412e-05
5.93453e-05
5.93382e-05
5.93364e-05
6.58383e-05
6.58626e-05
5.33913e-05
5.93708e-05
5.93731e-05
5.93756e-05
6.58559e-05
5.93791e-05
5.61396e-05
5.48509e-05
6.22262e-05
6.05035e-05
5.48463e-05
6.22071e-05
5.61345e-05
5.7214e-05
6.02269e-05
6.4709e-05
6.40852e-05
6.02359e-05
6.40987e-05
5.72103e-05
5.7247e-05
6.4121e-05
6.47154e-05
6.02661e-05
6.02576e-05
6.41077e-05
5.72503e-05
5.60924e-05
6.04952e-05
5.48001e-05
6.21813e-05
5.4805e-05
6.22005e-05
5.60974e-05
5.61733e-05
5.48889e-05
6.22302e-05
6.05496e-05
5.61793e-05
5.48932e-05
6.22486e-05
5.73213e-05
6.03189e-05
6.47483e-05
6.41589e-05
5.7314e-05
6.03175e-05
6.41472e-05
5.72807e-05
6.41252e-05
6.02876e-05
6.47418e-05
5.72815e-05
6.02887e-05
6.4138e-05
5.62192e-05
6.05575e-05
5.49361e-05
6.22729e-05
5.62126e-05
5.49323e-05
6.22552e-05
5.61751e-05
5.48896e-05
6.22329e-05
6.05509e-05
5.61806e-05
5.48938e-05
6.22514e-05
5.73186e-05
6.03242e-05
6.47517e-05
6.41642e-05
6.41517e-05
6.03165e-05
5.73217e-05
5.72865e-05
6.413e-05
6.02871e-05
6.47456e-05
5.72835e-05
6.41429e-05
6.02949e-05
5.62203e-05
6.05588e-05
5.49367e-05
6.2276e-05
5.49328e-05
6.22578e-05
5.62147e-05
6.58643e-05
5.33927e-05
5.93729e-05
5.93743e-05
6.58567e-05
5.93788e-05
5.93797e-05
5.73537e-05
6.03417e-05
6.41662e-05
6.47748e-05
6.03468e-05
5.73511e-05
6.4179e-05
5.62513e-05
6.06021e-05
5.49772e-05
6.22783e-05
5.49787e-05
5.62576e-05
6.22968e-05
6.03462e-05
6.47804e-05
6.03507e-05
2.10353e-05
3.66871e-05
3.66904e-05
4.19597e-05
2.17938e-05
3.7593e-05
3.75961e-05
4.26739e-05
2.25704e-05
3.8473e-05
3.84757e-05
4.33789e-05
2.33615e-05
3.93259e-05
3.93283e-05
4.4051e-05
2.41633e-05
4.01511e-05
4.01533e-05
4.46999e-05
2.49718e-05
4.09477e-05
4.095e-05
4.53266e-05
2.57833e-05
4.17157e-05
4.17178e-05
4.59214e-05
2.65942e-05
4.24549e-05
4.24566e-05
4.6497e-05
2.7401e-05
4.3165e-05
4.31666e-05
4.70533e-05
2.82008e-05
4.38466e-05
4.38479e-05
4.75904e-05
2.89905e-05
4.44998e-05
4.45008e-05
4.80958e-05
2.97677e-05
4.51246e-05
4.51253e-05
4.85859e-05
3.05299e-05
4.57217e-05
4.57222e-05
4.90499e-05
3.12749e-05
4.6291e-05
4.62914e-05
4.94978e-05
3.20009e-05
4.6833e-05
4.68334e-05
4.99154e-05
3.27062e-05
4.73483e-05
4.73486e-05
5.0319e-05
3.33894e-05
4.7837e-05
4.78374e-05
5.07027e-05
3.4049e-05
4.82997e-05
4.83e-05
5.10681e-05
3.4684e-05
4.87365e-05
4.87369e-05
5.14125e-05
3.52936e-05
4.9148e-05
4.91484e-05
5.17366e-05
3.5877e-05
4.95346e-05
4.95351e-05
5.20422e-05
3.64335e-05
4.98967e-05
4.98971e-05
5.23273e-05
3.69627e-05
5.02347e-05
5.02352e-05
5.25946e-05
3.74643e-05
5.05492e-05
5.05495e-05
5.28445e-05
3.7938e-05
5.08404e-05
5.08407e-05
5.30762e-05
4.19515e-05
4.25006e-05
3.66894e-05
3.66892e-05
3.73707e-05
3.7371e-05
4.19314e-05
4.25087e-05
3.66879e-05
3.66908e-05
3.73696e-05
3.73724e-05
3.66927e-05
3.73689e-05
3.73745e-05
4.19548e-05
4.24915e-05
3.66917e-05
3.7372e-05
3.73733e-05
4.25035e-05
4.26723e-05
4.3196e-05
3.75948e-05
3.75951e-05
3.8257e-05
3.82575e-05
4.26565e-05
4.32101e-05
3.75939e-05
3.75965e-05
3.82558e-05
3.82585e-05
3.75986e-05
3.82555e-05
3.82608e-05
4.26765e-05
4.32039e-05
3.75974e-05
3.82583e-05
3.82597e-05
4.31984e-05
4.33698e-05
4.38727e-05
3.84744e-05
3.84749e-05
3.91164e-05
3.91172e-05
4.33532e-05
4.38929e-05
3.84734e-05
3.84758e-05
3.91151e-05
3.91177e-05
3.84782e-05
3.91153e-05
3.91201e-05
4.33693e-05
4.38844e-05
3.84771e-05
3.91177e-05
3.9119e-05
4.38729e-05
4.40471e-05
4.45494e-05
3.9327e-05
3.93277e-05
3.99483e-05
3.99491e-05
4.40315e-05
4.45448e-05
3.9326e-05
3.93283e-05
3.99471e-05
3.99495e-05
3.93306e-05
3.99474e-05
3.99517e-05
4.40427e-05
4.45343e-05
3.93296e-05
3.99497e-05
3.99508e-05
4.45274e-05
4.46875e-05
4.51781e-05
4.01519e-05
4.01526e-05
4.07522e-05
4.07527e-05
4.46813e-05
4.51742e-05
4.01509e-05
4.0153e-05
4.07509e-05
4.07531e-05
4.01554e-05
4.07513e-05
4.07554e-05
4.46901e-05
4.51684e-05
4.01544e-05
4.07535e-05
4.07546e-05
4.51568e-05
4.53093e-05
4.57855e-05
4.09488e-05
4.09491e-05
4.15274e-05
4.15277e-05
4.53049e-05
4.57788e-05
4.09478e-05
4.09495e-05
4.15262e-05
4.15279e-05
4.09519e-05
4.15265e-05
4.15302e-05
4.53164e-05
4.57641e-05
4.09511e-05
4.15285e-05
4.15296e-05
4.57746e-05
4.59136e-05
4.63653e-05
4.17166e-05
4.17168e-05
4.22734e-05
4.22736e-05
4.59094e-05
4.63652e-05
4.17157e-05
4.1717e-05
4.22723e-05
4.22737e-05
4.17195e-05
4.22728e-05
4.22762e-05
4.59212e-05
4.63577e-05
4.17189e-05
4.22747e-05
4.22757e-05
4.63613e-05
4.64871e-05
4.69251e-05
4.24554e-05
4.24555e-05
4.29905e-05
4.29906e-05
4.64877e-05
4.69104e-05
4.24546e-05
4.24556e-05
4.29896e-05
4.29905e-05
4.24582e-05
4.29902e-05
4.29932e-05
4.64946e-05
4.69113e-05
4.24577e-05
4.29919e-05
4.29927e-05
4.69176e-05
4.70409e-05
4.74651e-05
4.31652e-05
4.31653e-05
4.36789e-05
4.3679e-05
4.70486e-05
4.74513e-05
4.31646e-05
4.31652e-05
4.36782e-05
4.36787e-05
4.31681e-05
4.3679e-05
4.36817e-05
4.70523e-05
4.74633e-05
4.31676e-05
4.36803e-05
4.36811e-05
4.74511e-05
4.75769e-05
4.79778e-05
4.38465e-05
4.38465e-05
4.43387e-05
4.43388e-05
4.75819e-05
4.79718e-05
4.38461e-05
4.38462e-05
4.43381e-05
4.43382e-05
4.38495e-05
4.43392e-05
4.43416e-05
4.75769e-05
4.79773e-05
4.38489e-05
4.43402e-05
4.43409e-05
4.79721e-05
4.80822e-05
4.84693e-05
4.44992e-05
4.44992e-05
4.49702e-05
4.49703e-05
4.80925e-05
4.84653e-05
4.44988e-05
4.44988e-05
4.49696e-05
4.49696e-05
4.45022e-05
4.49711e-05
4.49732e-05
4.80867e-05
4.84694e-05
4.45015e-05
4.49719e-05
4.49724e-05
4.84604e-05
4.85764e-05
4.89431e-05
4.51236e-05
4.51237e-05
4.55736e-05
4.5574e-05
4.85811e-05
4.89376e-05
4.51233e-05
4.51231e-05
4.55732e-05
4.55731e-05
4.51268e-05
4.5575e-05
4.55768e-05
4.85747e-05
4.89432e-05
4.51259e-05
4.55755e-05
4.55758e-05
4.89367e-05
4.90448e-05
4.93928e-05
4.57201e-05
4.57205e-05
4.61495e-05
4.61499e-05
4.90478e-05
4.93799e-05
4.572e-05
4.57197e-05
4.61491e-05
4.6149e-05
4.57234e-05
4.61512e-05
4.61526e-05
4.90451e-05
4.93907e-05
4.57224e-05
4.61516e-05
4.61515e-05
4.93807e-05
4.94886e-05
4.98219e-05
4.62893e-05
4.62896e-05
4.66982e-05
4.66985e-05
4.94958e-05
4.98129e-05
4.62891e-05
4.62887e-05
4.66979e-05
4.66977e-05
4.62924e-05
4.67e-05
4.67013e-05
4.94857e-05
4.98206e-05
4.62913e-05
4.67004e-05
4.67002e-05
4.98175e-05
4.99142e-05
5.02286e-05
4.68312e-05
4.68314e-05
4.722e-05
4.72204e-05
4.99174e-05
5.0221e-05
4.6831e-05
4.68306e-05
4.72198e-05
4.72196e-05
4.68342e-05
4.7222e-05
4.7223e-05
4.99129e-05
5.02302e-05
4.68331e-05
4.72223e-05
4.72219e-05
5.02306e-05
5.03164e-05
5.0618e-05
4.73463e-05
4.73467e-05
4.77153e-05
4.77157e-05
5.03231e-05
5.0617e-05
4.73462e-05
4.73459e-05
4.7715e-05
4.77148e-05
4.73493e-05
4.77173e-05
4.77182e-05
5.0318e-05
5.06175e-05
4.73483e-05
4.77176e-05
4.77172e-05
5.06184e-05
5.07032e-05
5.09852e-05
4.7835e-05
4.78354e-05
4.81843e-05
4.81848e-05
5.07036e-05
5.09859e-05
4.78349e-05
4.78345e-05
4.81839e-05
4.81839e-05
4.78379e-05
4.81864e-05
4.81872e-05
5.07013e-05
5.09857e-05
4.78369e-05
4.81867e-05
4.81862e-05
5.09846e-05
5.10661e-05
5.13326e-05
4.82974e-05
4.8298e-05
4.86274e-05
4.86281e-05
5.10669e-05
5.13336e-05
4.82973e-05
4.82971e-05
4.86272e-05
4.86271e-05
4.83004e-05
4.86296e-05
4.86303e-05
5.10663e-05
5.13317e-05
4.82994e-05
4.863e-05
4.86294e-05
5.13334e-05
5.14116e-05
5.16592e-05
4.87342e-05
4.87349e-05
4.90451e-05
4.90459e-05
5.1411e-05
5.16602e-05
4.87342e-05
4.8734e-05
4.90449e-05
4.90449e-05
4.87371e-05
4.90474e-05
4.9048e-05
5.14102e-05
5.16611e-05
4.87362e-05
4.90478e-05
4.90472e-05
5.16613e-05
5.17379e-05
5.19685e-05
4.91457e-05
4.91464e-05
4.94379e-05
4.94385e-05
5.17351e-05
5.19697e-05
4.91456e-05
4.91455e-05
4.94377e-05
4.94377e-05
4.91485e-05
4.94402e-05
4.94407e-05
5.17355e-05
5.19699e-05
4.91478e-05
4.94406e-05
4.94399e-05
5.19708e-05
5.20428e-05
5.22574e-05
4.95323e-05
4.95329e-05
4.9806e-05
4.98067e-05
5.2042e-05
5.22619e-05
4.95322e-05
4.95321e-05
4.98058e-05
4.98059e-05
4.95351e-05
4.98083e-05
4.98087e-05
5.20419e-05
5.22613e-05
4.95343e-05
4.98088e-05
4.98081e-05
5.22635e-05
5.23305e-05
5.2527e-05
4.98944e-05
4.98949e-05
5.015e-05
5.01506e-05
5.23277e-05
5.25355e-05
4.98943e-05
4.98941e-05
5.01498e-05
5.01498e-05
4.9897e-05
5.01523e-05
5.01526e-05
5.23276e-05
5.25345e-05
4.98965e-05
5.01528e-05
5.01521e-05
5.25368e-05
5.25991e-05
5.27888e-05
5.02324e-05
5.02329e-05
5.04701e-05
5.04708e-05
5.25942e-05
5.27903e-05
5.02323e-05
5.02321e-05
5.04699e-05
5.04699e-05
5.02349e-05
5.04725e-05
5.04727e-05
5.25939e-05
5.27796e-05
5.02345e-05
5.04729e-05
5.04723e-05
5.27909e-05
5.28436e-05
5.30252e-05
5.05467e-05
5.05473e-05
5.0767e-05
5.07677e-05
5.28441e-05
5.30263e-05
5.05466e-05
5.05464e-05
5.07667e-05
5.07667e-05
5.05492e-05
5.07695e-05
5.07694e-05
5.28509e-05
5.30148e-05
5.0549e-05
5.07698e-05
5.07692e-05
5.30262e-05
5.30754e-05
5.32429e-05
5.08378e-05
5.08385e-05
5.10409e-05
5.10416e-05
5.30765e-05
5.32438e-05
5.08378e-05
5.08375e-05
5.10407e-05
5.10406e-05
5.08403e-05
5.10436e-05
5.10433e-05
5.30836e-05
5.32423e-05
5.08402e-05
5.10437e-05
5.10432e-05
5.32435e-05
6.48249e-05
7.13585e-05
7.13953e-05
6.47297e-05
6.95347e-05
6.95612e-05
6.4829e-05
7.13638e-05
7.14009e-05
6.4734e-05
2.10342e-05
2.10382e-05
2.10388e-05
2.16022e-05
2.16012e-05
2.16052e-05
2.16059e-05
5.35353e-05
6.02157e-05
2.90724e-05
3.6916e-05
6.03319e-05
2.93173e-05
5.33405e-05
6.95331e-05
6.95596e-05
5.35373e-05
2.90783e-05
6.0214e-05
3.69193e-05
2.93232e-05
6.03349e-05
5.33387e-05
6.69238e-05
6.69342e-05
4.21279e-05
6.69833e-05
6.69969e-05
6.50513e-05
7.14427e-05
6.49593e-05
7.14796e-05
6.95907e-05
6.96181e-05
6.50547e-05
7.14485e-05
6.49629e-05
7.14854e-05
2.17927e-05
2.17967e-05
2.17974e-05
2.23747e-05
2.23738e-05
2.23778e-05
2.23785e-05
5.39984e-05
6.05042e-05
3.00504e-05
3.78155e-05
5.38115e-05
6.06167e-05
3.0294e-05
6.9589e-05
6.96165e-05
5.40001e-05
3.00564e-05
6.0503e-05
3.78184e-05
5.38111e-05
3.02999e-05
6.06192e-05
6.71002e-05
6.71108e-05
4.28497e-05
6.71577e-05
6.71712e-05
6.52708e-05
7.15278e-05
6.51812e-05
7.1565e-05
6.96489e-05
6.96769e-05
6.52748e-05
7.15336e-05
6.51846e-05
7.15709e-05
2.25695e-05
2.25735e-05
2.25743e-05
2.31626e-05
2.31619e-05
2.31657e-05
2.31665e-05
5.4442e-05
6.07822e-05
3.10219e-05
3.86888e-05
5.42632e-05
6.08906e-05
3.12631e-05
6.96472e-05
6.96754e-05
5.44433e-05
3.10272e-05
6.07809e-05
3.86914e-05
5.42621e-05
3.12684e-05
6.08928e-05
6.72714e-05
6.72822e-05
4.35487e-05
6.73271e-05
6.73399e-05
6.54826e-05
7.16136e-05
6.53965e-05
7.1651e-05
6.97087e-05
6.97375e-05
6.54858e-05