/*--------------------------------*- C++ -*----------------------------------*\
| =========                 |                                                 |
| \\      /  F ield         | OpenFOAM: The Open Source CFD Toolbox           |
|  \\    /   O peration     | Version:  v1906                                 |
|   \\  /    A nd           | Web:      www.OpenFOAM.com                      |
|    \\/     M anipulation  |                                                 |
\*---------------------------------------------------------------------------*/
FoamFile
{
    version     2.0;
    format      ascii;
    class       surfaceScalarField;
    location    "950";
    object      phi;
}
// * * * * * * * * * * * * * * * * * * * * * * * * * * * * * * * * * * * * * //

dimensions      [0 3 -1 0 0 0 0];
oriented        oriented;


internalField   nonuniform List<scalar> 
123680
(
1.19343e-07
1.19616e-07
-7.10417e-08
-7.11481e-08
0.00118432
-0.00118442
-1.19696e-06
-1.19596e-07
-4.86459e-08
0.0011323
-2.34303e-07
1.24129e-06
2.72165e-07
9.11208e-07
-2.12669e-07
2.66437e-07
-8.52998e-07
-0.00113233
-1.19152e-06
-1.19633e-07
-4.8611e-08
0.00113194
-2.34329e-07
1.23579e-06
2.72171e-07
9.11054e-07
-2.15369e-07
2.69158e-07
-8.52869e-07
-0.00113196
1.22558e-06
1.19163e-06
-1.98269e-07
-2.0357e-07
0.000268069
-0.000270084
-0.00027009
1.22517e-06
1.19123e-06
-1.98085e-07
-2.03377e-07
0.000268075
1.23097e-06
1.19432e-06
-1.95705e-07
-2.03525e-07
0.000268075
-0.000270102
-1.27511e-06
-1.23852e-06
-0.00026808
2.39186e-07
2.47077e-07
0.000270107
-4.85241e-08
0.00113147
-2.39836e-07
1.27521e-06
2.77534e-07
9.11145e-07
-2.12702e-07
2.66373e-07
-8.53024e-07
-0.00113149
-1.23648e-06
-1.19291e-07
-4.84505e-08
0.00113191
-2.42708e-07
1.28068e-06
2.80353e-07
9.16678e-07
-2.15515e-07
2.69146e-07
-8.58537e-07
-0.00113194
-1.21383e-07
-0.00113142
-4.9366e-08
-1.23066e-06
2.77443e-07
-2.39636e-07
-8.52695e-07
2.66327e-07
-2.12475e-07
9.11151e-07
0.00113139
1.28058e-06
-1.21344e-07
-0.00113186
-4.9282e-08
-1.23616e-06
2.80255e-07
-2.42507e-07
-8.58216e-07
2.69098e-07
-2.15292e-07
9.16689e-07
0.00113184
-1.98396e-07
-2.00852e-07
0.000268097
-0.000270131
-1.24119e-06
-0.000268101
2.41986e-07
2.44304e-07
0.000270136
-4.86895e-08
0.00113258
-2.37188e-07
1.23862e-06
2.75042e-07
9.13973e-07
-2.1546e-07
2.69225e-07
-8.55701e-07
-0.0011326
-1.23104e-06
-1.19265e-07
-4.84308e-08
0.00113157
-2.42693e-07
1.27524e-06
2.80355e-07
9.13799e-07
-2.15446e-07
2.69084e-07
-8.55704e-07
-0.00113159
-1.2169e-07
-0.00113253
-4.94633e-08
-1.19401e-06
2.74952e-07
-2.36993e-07
-8.55379e-07
2.69184e-07
-2.1523e-07
9.13978e-07
0.0011325
1.27514e-06
-1.21315e-07
-0.00113152
-4.92807e-08
-1.23071e-06
2.80263e-07
-2.42502e-07
-8.55387e-07
2.69035e-07
-2.15233e-07
9.13808e-07
0.00113149
-1.19354e-07
-4.84664e-08
0.00113136
-2.37033e-07
1.26978e-06
2.74751e-07
9.11138e-07
-2.12684e-07
2.66368e-07
-8.53035e-07
-0.00113139
-1.21653e-07
-0.00113225
-4.94667e-08
-1.19663e-06
2.72069e-07
-2.34101e-07
-8.52683e-07
2.66392e-07
9.11217e-07
-2.12457e-07
0.00113223
1.26967e-06
0.00113129
-1.21385e-07
-0.00113131
-4.93133e-08
-1.22526e-06
2.74649e-07
-2.36838e-07
-8.5272e-07
2.66317e-07
-2.1246e-07
9.13818e-07
-1.9578e-07
-2.03429e-07
0.000268056
-0.000270079
-1.2357e-06
-0.00026806
2.39316e-07
2.46882e-07
0.000270085
-1.19693e-07
-4.86112e-08
0.00113247
-2.34422e-07
1.23592e-06
2.72283e-07
9.11351e-07
-2.15419e-07
2.6921e-07
-8.53062e-07
-0.0011325
-1.21681e-07
-0.00113189
-4.94204e-08
-1.19119e-06
2.72079e-07
-2.34114e-07
-8.52523e-07
2.69097e-07
9.11121e-07
-2.15169e-07
0.00113186
1.23581e-06
0.0011324
-1.2174e-07
-0.00113242
-4.94516e-08
-1.19131e-06
2.72184e-07
-2.34205e-07
-8.52743e-07
2.6916e-07
-2.15211e-07
9.11346e-07
-0.000268073
2.41756e-07
2.47065e-07
-4.96018e-08
-2.36794e-07
1.26967e-06
2.74628e-07
9.13812e-07
-2.12392e-07
2.66296e-07
-8.55285e-07
-1.22067e-07
-2.34174e-07
1.2358e-06
2.72157e-07
-2.15116e-07
2.6914e-07
-1.22426e-07
-4.97364e-08
9.11352e-07
-8.52649e-07
-1.44875e-10
-7.01766e-08
0.000229293
3.21294e-08
2.19155e-09
-0.000229257
-5.17169e-09
2.24558e-08
0.000193525
-3.62031e-09
-0.000193538
6.85273e-09
-4.36561e-08
0.000193578
3.27168e-09
-0.000193544
1.01027e-10
2.87302e-08
0.000229238
-1.321e-08
9.2837e-10
-0.000229254
5.16008e-09
1.11847e-08
9.79803e-05
-9.79967e-05
-6.75538e-09
-2.00734e-08
9.80177e-05
-9.79908e-05
-7.02536e-08
-2.11582e-10
0.000229321
2.16288e-09
3.00716e-08
-0.000229283
-5.17153e-09
2.46961e-08
0.000193545
-4.14671e-09
-0.000193561
6.80455e-09
-4.59688e-08
0.0001936
3.92191e-09
-0.000193565
2.88235e-08
2.29747e-10
0.000229264
8.84456e-10
-1.11599e-08
-0.000229282
-7.10243e-08
-7.106e-08
0.00118432
-0.00118442
-7.10607e-08
-7.10877e-08
0.0011839
-0.001184
-7.11207e-08
-7.11567e-08
0.00118413
-0.00118423
-0.00118413
-7.35318e-08
-7.36095e-08
0.00118404
-0.00118413
-7.34992e-08
-7.35336e-08
0.00118403
-0.00118371
-7.35442e-08
-7.35486e-08
0.00118362
-0.00118394
-7.35992e-08
-7.36398e-08
0.00118384
7.01749e-08
-1.65908e-09
0.000250197
4.0443e-09
-1.93109e-07
-0.000250076
-9.72186e-09
-2.46712e-08
6.64305e-08
0.000245401
4.0613e-09
-0.000245437
0.00115244
3.5794e-09
-1.40082e-07
1.00836e-06
-7.57685e-07
8.30705e-07
-9.36863e-07
-0.00115249
-4.89312e-08
1.24126e-06
0.00113228
-1.20307e-07
-8.52877e-07
2.66419e-07
-2.12588e-07
9.11217e-07
-1.19683e-06
2.7213e-07
-2.34214e-07
2.07315e-08
4.59034e-08
0.000245475
-1.66818e-08
-0.00024542
-1.05034e-07
-3.75069e-09
0.00115239
-1.41593e-07
-9.36624e-07
8.30791e-07
-7.57441e-07
1.00845e-06
-2.87515e-08
1.61254e-09
0.000250063
1.93444e-09
1.3264e-07
-0.00025017
5.1849e-09
1.34398e-08
9.79615e-05
-9.79801e-05
-6.81694e-09
-2.22884e-08
9.80011e-05
-9.7972e-05
-1.30388e-09
7.0091e-08
0.000250159
-1.93027e-07
4.05832e-09
-0.000250039
0.00115213
3.62881e-09
-1.40157e-07
1.00277e-06
-7.5216e-07
8.25174e-07
-9.31255e-07
-0.00115219
-9.8637e-09
-2.24919e-08
6.65103e-08
0.000245343
4.15667e-09
-0.000245382
-4.88944e-08
1.23576e-06
0.00113191
-1.20347e-07
-8.52698e-07
2.69118e-07
-2.15308e-07
9.11129e-07
-1.19139e-06
2.72142e-07
-2.34242e-07
-3.60916e-09
0.00115208
-1.41669e-07
-9.31008e-07
8.25263e-07
-7.51914e-07
1.00285e-06
2.08392e-08
4.3757e-08
0.00024542
-1.67345e-08
-0.000245362
-1.05145e-07
1.30721e-09
-2.86863e-08
0.000250026
1.32572e-07
1.86743e-09
-0.000250133
1.22978e-08
-1.11577e-08
2.48099e-08
0.000278126
-7.03883e-09
-0.000278144
1.23009e-08
-1.11162e-08
2.25171e-08
0.000278073
-7.53568e-09
-0.000278089
-1.26975e-06
-1.23589e-06
0.000270087
-0.00026807
2.41889e-07
2.47198e-07
-2.31365e-08
2.00182e-08
0.000278195
9.902e-09
-0.000278151
-5.09948e-08
-2.32575e-08
1.99242e-08
0.00027814
1.05501e-08
-0.000278098
-4.86922e-08
-0.000278246
1.21903e-08
-1.12786e-08
2.48793e-08
-6.90175e-09
0.000278227
-0.00027819
1.21872e-08
-1.12385e-08
2.25831e-08
-7.38758e-09
0.000278174
1.11292e-08
9.79782e-05
-9.79946e-05
-1.99383e-08
9.80156e-05
-9.79888e-05
1.11428e-08
9.79774e-05
-9.79937e-05
-1.99954e-08
9.80147e-05
-9.79879e-05
9.87755e-09
2.25349e-08
0.000278124
-7.48615e-09
-0.000278138
1.23159e-08
2.25269e-08
0.00027808
-7.54955e-09
-0.000278096
0.000270104
-1.27518e-06
-1.2386e-06
-0.000268077
2.39323e-07
2.47205e-07
0.000278188
-2.08222e-08
1.04407e-08
-0.000278149
-4.8676e-08
0.000278147
-2.32204e-08
1.05035e-08
-0.000278106
-4.87433e-08
-1.98249e-08
-6.90435e-09
-9.80097e-05
9.80365e-05
1.11865e-08
5.11049e-09
9.79993e-05
-1.98843e-08
-6.85581e-09
-9.80088e-05
9.80356e-05
1.11989e-08
5.11126e-09
9.79984e-05
1.23075e-06
1.1941e-06
0.000268078
-1.95598e-07
-2.03416e-07
-2.0835e-08
-4.85622e-08
-0.0002782
1.04954e-08
0.000278239
-2.32298e-08
-4.86327e-08
-0.000278156
1.05514e-08
0.000278198
9.81825e-09
-7.41532e-09
2.25617e-08
0.000278174
1.22593e-08
-7.4809e-09
2.25513e-08
0.000278131
-7.02003e-08
0.000229329
3.21456e-08
2.19102e-09
-0.000229294
2.25514e-08
0.00019356
-3.68985e-09
-0.000193573
-4.3796e-08
0.000193613
3.48261e-09
-0.000193579
2.87601e-08
0.000229274
-1.3231e-08
8.3738e-10
-0.00022929
-1.45141e-09
0.000250171
3.62377e-09
-1.95704e-07
-0.000250048
6.41056e-08
0.000245344
4.17222e-09
-0.00024538
0.00115252
3.5877e-09
-1.40016e-07
1.00836e-06
-7.57667e-07
8.30677e-07
-9.36842e-07
-0.00115257
-4.88183e-08
0.00113144
-1.2005e-07
-1.23085e-06
2.77503e-07
-2.39766e-07
-8.529e-07
2.66356e-07
-2.12622e-07
9.11156e-07
0.000245418
-1.67739e-08
-0.000245363
-1.02637e-07
-3.66517e-09
0.00115247
-1.41528e-07
-9.36592e-07
8.3077e-07
-7.5742e-07
1.00844e-06
1.42674e-09
0.000250035
2.33516e-09
1.35217e-07
-0.000250145
0.000250199
4.53991e-09
-1.95731e-07
-0.000250079
-1.22789e-08
6.65768e-08
0.000245357
4.16954e-09
-0.000245393
0.00115267
-1.39977e-07
1.01128e-06
-7.57788e-07
8.30778e-07
-9.39738e-07
-0.00115272
-4.87462e-08
0.00113189
1.28065e-06
-1.20004e-07
-8.58414e-07
2.69133e-07
9.16684e-07
-2.15433e-07
-1.23635e-06
2.80317e-07
-2.4262e-07
0.000245431
2.30864e-08
-1.6645e-08
-0.000245376
-1.05131e-07
0.00115261
-1.41487e-07
-9.39501e-07
8.30872e-07
-7.57536e-07
1.01136e-06
0.000250066
1.35289e-09
1.35265e-07
-0.000250173
9.77813e-11
2.86387e-08
-1.31914e-08
9.46453e-10
0.000229277
-4.35889e-08
-0.000193584
3.2042e-09
0.000193618
2.24695e-08
-3.69184e-09
0.000193564
-1.47375e-10
-7.01522e-08
-0.000229296
3.20868e-08
2.20501e-09
0.000229332
2.86668e-08
-1.3209e-08
8.45708e-10
0.000229313
-4.37182e-08
6.79409e-09
-0.000193619
3.42168e-09
0.000193653
2.25603e-08
-5.10187e-09
-3.75542e-09
0.000193599
-7.01732e-08
-0.000229333
3.20999e-08
2.20017e-09
0.000229368
1.42086e-09
2.3626e-09
1.34957e-07
0.000250061
-4.91322e-08
-1.20789e-07
1.27515e-06
-2.39696e-07
2.77482e-07
9.11156e-07
-2.12542e-07
2.66345e-07
-8.52795e-07
-1.02553e-07
-0.000245401
-1.67876e-08
0.000245456
-0.00115241
-3.66687e-09
-1.44448e-07
-9.36181e-07
8.30932e-07
-7.56944e-07
1.00856e-06
0.00115236
4.11344e-09
6.4049e-08
0.000245382
3.58419e-09
-1.43066e-07
1.00849e-06
-7.57178e-07
-9.36403e-07
8.30848e-07
-1.45789e-09
-0.000250074
3.63862e-09
-1.95733e-07
0.000250198
1.36743e-09
1.35004e-07
0.000250093
-4.90315e-08
-1.23625e-06
-1.2075e-07
9.1669e-07
-2.15351e-07
-8.58308e-07
2.69122e-07
1.28062e-06
-2.42567e-07
2.80292e-07
2.30962e-08
-1.05046e-07
-0.000245414
-1.66576e-08
0.000245469
-0.00115257
-1.44414e-07
-9.39079e-07
8.31031e-07
-7.57062e-07
1.01148e-06
0.00115251
-1.22251e-08
4.1157e-09
6.65156e-08
0.000245395
-1.43042e-07
1.01142e-06
-7.57298e-07
-9.39291e-07
8.30947e-07
-0.000250106
4.54429e-09
-1.95759e-07
0.000250226
2.2594e-08
0.00027807
-1.01512e-08
-0.000278084
-1.34823e-08
2.24639e-08
0.000278174
-1.00658e-08
-0.000278183
0.000270133
-0.000268098
2.42112e-07
2.44435e-07
0.000278134
1.29486e-08
-0.000278095
-4.87727e-08
2.22362e-08
0.000278233
1.31366e-08
-0.000278199
-4.85872e-08
5.115e-09
9.7983e-05
-9.80016e-05
9.80226e-05
-6.84283e-09
-9.79936e-05
-1.9972e-08
-9.80118e-05
9.80385e-05
1.12398e-08
9.80013e-05
1.19673e-06
0.000268099
-1.98282e-07
-2.0074e-07
-4.86654e-08
-0.000278146
1.29875e-08
0.000278185
2.2133e-08
-2.07556e-08
-4.84742e-08
-0.00027825
1.31905e-08
0.000278284
-1.00841e-08
2.26141e-08
0.000278121
-1.35452e-08
9.66093e-09
-9.99069e-09
2.24885e-08
0.000278225
-6.88385e-09
-9.80145e-05
9.80435e-05
5.04855e-09
9.8004e-05
-1.78729e-09
0.000250184
4.04229e-09
-1.90549e-07
-0.000250066
6.40921e-08
0.000245359
4.13421e-09
-0.00024539
0.00115239
3.56431e-09
-1.40004e-07
1.00834e-06
-7.54995e-07
8.30727e-07
-9.34134e-07
-0.00115245
-4.89366e-08
0.00113255
-1.20343e-07
-1.1942e-06
2.75006e-07
-2.37119e-07
-8.5558e-07
2.69213e-07
-2.15373e-07
9.13979e-07
0.000245428
-1.66791e-08
-0.000245378
-1.02711e-07
-3.80353e-09
0.00115235
-1.41588e-07
-9.36594e-07
8.28095e-07
-7.57466e-07
1.00572e-06
1.76923e-09
0.000250053
1.8919e-09
1.30084e-07
-0.000250158
-7.0234e-08
0.000229285
3.00476e-08
2.07101e-09
-0.000229247
2.46779e-08
0.000193492
-3.73199e-09
-0.000193508
-4.58931e-08
0.000193548
3.46107e-09
-0.000193512
2.88181e-08
0.000229228
-1.11447e-08
1.01364e-09
-0.000229246
0.000250153
-1.93137e-07
4.24726e-09
-0.000250036
0.00115236
-1.39976e-07
1.00836e-06
-7.57762e-07
8.30739e-07
-9.36866e-07
-0.00115241
-1.22241e-08
6.40796e-08
0.00024529
6.54408e-09
-0.000245324
-4.87318e-08
0.00113154
1.27521e-06
-1.19969e-07
-8.55578e-07
2.69068e-07
9.13807e-07
-2.15364e-07
-1.23091e-06
2.80323e-07
-2.42619e-07
0.00115231
-1.41497e-07
-9.3663e-07
8.3083e-07
-7.57511e-07
1.00844e-06
0.000245362
2.30684e-08
-1.90565e-08
-0.000245309
-1.02601e-07
0.000250023
1.32693e-07
1.66481e-09
-0.000250127
2.873e-08
2.30336e-10
8.95318e-10
-1.11389e-08
0.000229303
-4.59029e-08
-0.000193605
3.85486e-09
0.00019364
2.47076e-08
-4.21581e-09
0.000193585
-7.0229e-08
-2.11153e-10
-0.000229322
2.1697e-09
3.00355e-08
0.00022936
1.77092e-09
1.90728e-09
1.29824e-07
0.000250079
-4.9268e-08
-1.21077e-07
1.23856e-06
-2.37051e-07
2.74984e-07
9.13985e-07
-2.15296e-07
2.692e-07
-8.55474e-07
-1.02627e-07
-0.000245416
-1.66933e-08
0.000245466
-0.00115229
-3.80253e-09
-1.44513e-07
-9.36167e-07
8.28253e-07
-7.56992e-07
1.00584e-06
0.00115224
4.07857e-09
6.40328e-08
0.000245397
3.56684e-09
-1.43068e-07
1.00848e-06
-7.54505e-07
-9.33685e-07
8.30894e-07
-1.78538e-09
-0.000250093
4.04925e-09
-1.90576e-07
0.000250211
2.8725e-08
-1.11237e-08
1.02596e-09
0.000229267
-4.58163e-08
6.86181e-09
-0.000193552
3.39513e-09
0.000193587
2.46889e-08
-5.12338e-09
-3.80235e-09
0.000193532
-7.0209e-08
-0.000229286
3.00112e-08
2.07903e-09
0.000229324
1.32434e-07
1.68314e-09
0.000250049
-4.90234e-08
-1.23081e-06
-1.20719e-07
9.13815e-07
-2.15283e-07
-8.55476e-07
2.69057e-07
1.27517e-06
-2.42558e-07
2.80301e-07
-0.00115226
-1.4442e-07
-9.36218e-07
8.30985e-07
-7.57041e-07
1.00857e-06
0.0011522
2.30828e-08
-1.02516e-07
-0.000245347
-1.90703e-08
0.0002454
-1.43039e-07
1.00851e-06
-7.57274e-07
-9.36422e-07
8.30905e-07
-1.21673e-08
6.48592e-09
6.40192e-08
0.000245328
-0.000250063
-1.93163e-07
4.25594e-09
0.000250179
-1.746e-10
0.000229328
2.2035e-09
3.21282e-08
-0.000229292
0.000193557
-3.81196e-09
-0.000193573
0.000193612
3.45669e-09
-0.000193577
1.26511e-10
0.000229272
9.18562e-10
-1.32264e-08
-0.000229289
7.01504e-08
0.000250166
-1.90514e-07
4.29125e-09
-0.000250052
0.00115237
-1.4007e-07
1.00565e-06
-7.5772e-07
8.30737e-07
-9.34129e-07
-0.00115241
-2.24879e-08
6.40909e-08
0.000245337
4.21619e-09
-0.00024537
-4.87615e-08
0.00113134
-1.20048e-07
-1.22546e-06
2.7472e-07
-2.36966e-07
-8.52919e-07
2.66351e-07
-2.12602e-07
9.11148e-07
0.00115231
-1.41574e-07
-9.33901e-07
8.30825e-07
-7.5747e-07
1.00573e-06
4.37165e-08
0.000245408
-1.67143e-08
-0.000245356
-1.02636e-07
-2.87383e-08
0.000250039
1.3006e-07
1.61421e-09
-0.00025014
0.000229292
3.21201e-08
2.19394e-09
-0.000229256
-5.15703e-09
0.000193505
-3.66564e-09
-0.000193519
0.000193559
6.77391e-09
3.43502e-09
-0.000193525
0.000229237
-1.32248e-08
8.36412e-10
-0.000229253
-2.86624e-08
1.60246e-09
1.95577e-09
1.32385e-07
0.000250089
-4.9239e-08
-1.21046e-07
1.24122e-06
-2.34157e-07
2.72107e-07
9.11221e-07
-2.12505e-07
-8.52778e-07
2.66402e-07
4.58157e-08
-1.04949e-07
-0.000245458
-1.66953e-08
0.000245513
-0.00115233
-4.93045e-09
-1.44519e-07
-9.36195e-07
8.30948e-07
1.00858e-06
-7.56976e-07
0.00115229
-2.46805e-08
4.00113e-09
6.63703e-08
0.000245439
3.44809e-09
-1.43143e-07
1.00851e-06
-7.57202e-07
-9.36422e-07
8.30868e-07
7.01486e-08
-1.95714e-09
-0.000250103
4.29155e-09
-1.93139e-07
0.000250224
1.20353e-10
9.34392e-10
-1.32076e-08
0.000229311
-0.000193616
3.39066e-09
0.000193652
-3.88596e-09
0.000193597
-2.34784e-10
-0.000229331
2.21097e-09
3.20916e-08
0.000229367
-2.86384e-08
1.29787e-07
1.64161e-09
0.000250065
-4.90506e-08
-1.22535e-06
-1.20798e-07
9.11161e-07
-2.12522e-07
-8.52812e-07
2.6634e-07
1.26972e-06
-2.36902e-07
2.74693e-07
-0.00115226
0.0011522
-1.4449e-07
-9.33488e-07
8.30941e-07
-7.56995e-07
1.00858e-06
4.36382e-08
2.3146e-08
0.000245446
-1.02548e-07
-0.000245394
-1.67251e-08
-1.4313e-07
1.0058e-06
-7.57215e-07
-9.33689e-07
8.30888e-07
-2.25003e-08
-1.22461e-08
4.16236e-09
6.40329e-08
0.000245375
7.0112e-08
0.000250192
-0.000250078
-1.90519e-07
4.53087e-09
-1.31977e-08
8.51619e-10
0.000229276
6.81638e-09
0.000193598
-0.000193565
3.37331e-09
-5.09604e-09
-3.73664e-09
0.000193545
0.000229331
-0.000229295
3.2072e-08
2.20397e-09
2.47757e-08
0.000278033
-7.15878e-09
-0.00027805
-1.11767e-08
2.48025e-08
0.000278132
-6.91897e-09
-0.000278148
0.000270082
-0.000268057
2.39439e-07
2.47011e-07
0.0002781
1.00267e-08
-0.000278059
-5.0945e-08
1.99865e-08
0.000278199
9.96342e-09
-0.000278157
-5.09811e-08
5.1449e-09
9.79718e-05
-9.79881e-05
9.80091e-05
-6.81766e-09
-9.79823e-05
-2.21812e-08
-9.79929e-05
9.8022e-05
1.34982e-08
9.79825e-05
1.19129e-06
0.000268059
-1.95671e-07
-2.03308e-07
-5.08346e-08
-0.000278109
1.00763e-08
0.000278151
1.98762e-08
-2.0852e-08
-5.08682e-08
-0.000278208
1.00106e-08
0.000278249
-7.09021e-09
2.48015e-08
0.000278084
-1.12345e-08
9.80642e-09
-6.8469e-09
2.48256e-08
0.000278182
-6.86394e-09
-9.80032e-05
9.80299e-05
5.08432e-09
9.79928e-05
7.01318e-08
0.000250184
-1.90482e-07
4.76947e-09
-0.00025007
0.00115226
-1.40153e-07
1.00567e-06
-7.55007e-07
8.28017e-07
-9.34126e-07
-0.00115231
-2.24646e-08
6.64853e-08
0.000245352
4.17988e-09
-0.000245388
-4.89139e-08
0.00113244
-1.204e-07
-1.19151e-06
2.72254e-07
-2.34336e-07
-8.52943e-07
2.69191e-07
-2.15339e-07
9.11354e-07
0.00115221
-1.41659e-07
-9.33893e-07
8.28105e-07
-7.5476e-07
1.00574e-06
4.37466e-08
0.000245426
-1.67514e-08
-0.000245371
-1.05138e-07
-2.87297e-08
0.000250057
1.30035e-07
1.16824e-09
-0.000250158
-1.0255e-10
0.000229284
2.22523e-09
3.20763e-08
-0.000229248
0.000193509
-3.66792e-09
-0.000193523
0.000193563
3.40357e-09
-0.000193529
1.14795e-10
0.000229229
8.34844e-10
-1.31862e-08
-0.000229245
0.00022932
2.14121e-09
2.99697e-08
-0.000229282
-5.21571e-09
0.000193546
-3.55201e-09
-0.00019356
0.000193599
6.89573e-09
3.283e-09
-0.000193566
0.000229263
9.43683e-10
-1.10816e-08
-0.000229281
1.30784e-09
-2.8582e-08
1.32306e-07
1.88416e-09
0.000250052
-4.9201e-08
-1.21078e-07
1.23573e-06
-2.34181e-07
2.72115e-07
9.11059e-07
-2.15203e-07
-8.5265e-07
2.69129e-07
-0.00115203
-3.60162e-09
-1.44587e-07
-9.30598e-07
8.2542e-07
1.00298e-06
-7.51439e-07
0.00115198
4.3677e-08
-1.05064e-07
-0.0002454
-1.67431e-08
0.000245458
3.62404e-09
-1.43215e-07
1.00291e-06
-7.51669e-07
-9.30814e-07
8.25339e-07
-2.25053e-08
4.10328e-09
6.64504e-08
0.000245381
-1.30837e-09
7.00456e-08
-0.000250065
-1.93049e-07
4.07756e-09
0.000250186
-2.86217e-08
1.29767e-07
1.18369e-09
0.000250083
-4.91996e-08
-1.1914e-06
-1.21151e-07
9.11358e-07
-2.15259e-07
-8.52839e-07
2.69181e-07
1.23586e-06
-2.34273e-07
2.72231e-07
-0.00115216
-1.44583e-07
-9.33467e-07
8.28257e-07
-7.54287e-07
1.00586e-06
0.0011521
4.36767e-08
2.32713e-08
0.000245464
-1.0505e-07
-0.000245409
-1.6766e-08
-1.43222e-07
1.00581e-06
-7.54515e-07
-9.33684e-07
8.28179e-07
-2.24767e-08
-1.22455e-08
4.12557e-09
6.64252e-08
0.00024539
7.00839e-08
-0.000250097
-1.90498e-07
4.78181e-09
0.000250211
1.17622e-10
8.33771e-10
-1.31571e-08
0.000229268
-0.000193569
3.33525e-09
0.000193602
-3.7357e-09
0.000193549
-1.05336e-10
-0.000229288
2.25303e-09
3.2018e-08
0.000229323
9.44229e-10
-1.10478e-08
0.000229302
6.94921e-09
0.000193639
-0.000193605
3.21116e-09
-5.15762e-09
-3.61612e-09
0.000193586
-0.000229321
2.16573e-09
2.99086e-08
0.000229359
9.7971e-05
-9.79874e-05
9.80083e-05
-9.79816e-05
9.79753e-05
-9.79917e-05
9.80127e-05
-9.79859e-05
0.000268071
-1.98164e-07
-2.03451e-07
1.99126e-08
-5.08809e-08
-0.000278201
9.94337e-09
1.98098e-08
-4.85738e-08
-0.000278149
1.06e-08
-1.12151e-08
-6.97441e-09
2.48365e-08
0.000278176
-1.11725e-08
-7.46455e-09
2.25388e-08
0.000278124
9.80292e-05
-9.80025e-05
9.7992e-05
9.80336e-05
-9.80068e-05
9.79963e-05
1.00864e-06
-7.56794e-07
8.30994e-07
-9.3603e-07
3.12185e-10
-1.45924e-07
-2.25185e-08
6.39943e-08
4.1061e-09
0.000245413
-2.8577e-08
0.000250088
1.29578e-07
2.85254e-09
-1.56232e-10
-5.03918e-09
-3.80027e-09
0.000193585
0.000229314
-1.3186e-08
8.63568e-10
4.34142e-11
-2.25003e-08
6.63862e-08
0.000245428
4.07948e-09
-5.103e-09
0.000193625
-3.67774e-09
9.80129e-05
9.80172e-05
-7.83222e-10
1.44012e-08
0.000143282
-3.00244e-10
-0.000143295
-0.000171014
-3.15336e-10
-2.06084e-11
0.000171047
-0.000223249
3.09259e-08
4.37494e-09
0.000223285
-6.91975e-08
-1.31977e-08
9.34417e-10
-0.000229274
-4.7037e-11
2.86849e-08
-0.000171028
-3.67564e-11
8.42762e-10
-0.000223265
3.05486e-08
1.64432e-09
0.000143311
-2.65698e-08
-7.92065e-05
7.92347e-05
-1.62835e-09
3.30794e-09
0.000193558
6.82648e-09
-4.36896e-08
0.000263067
-1.90889e-08
-8.23724e-10
3.06458e-08
-0.000263082
0.000263108
-4.36392e-09
-5.92313e-08
3.26304e-10
-7.92259e-05
1.91072e-08
7.92153e-05
-0.000263093
2.65273e-08
0.000263133
-5.91905e-08
-3.65688e-09
-5.13959e-09
2.24592e-08
3.06464e-08
7.92434e-05
3.22987e-10
-3.09412e-08
-0.000143266
3.21526e-08
2.18553e-09
2.81406e-12
-7.01924e-08
0.000170996
7.724e-10
-2.43969e-11
-0.00017101
0.000223229
-1.44169e-08
3.05969e-08
-0.000223245
-7.82072e-12
-6.92154e-08
-0.000143279
9.80072e-05
-6.73192e-09
-2.01224e-08
5.12994e-09
1.12101e-08
1.24151e-08
-7.14412e-10
0.000143351
-1.54911e-10
-0.000143363
-0.000223332
2.89487e-08
4.27571e-09
0.00022337
-6.93566e-08
-0.000171047
-3.46941e-10
-2.84666e-11
0.000171077
6.45362e-10
-1.11405e-08
-0.000229304
8.72231e-11
3.12006e-08
8.427e-10
-0.000223353
3.31199e-08
-0.000171059
6.07346e-11
1.39602e-09
0.000143378
-2.4501e-08
-7.92522e-05
7.92781e-05
-1.37733e-09
3.95775e-09
0.00019358
6.77807e-09
-4.60001e-08
0.000263176
-1.69153e-08
-8.22658e-10
3.31615e-08
-0.000263196
0.000263222
-4.2646e-09
-6.1839e-08
1.78736e-10
-7.92693e-05
1.69316e-08
7.9261e-05
-0.000263202
2.44572e-08
0.000263248
-6.17948e-08
-4.18152e-09
-5.13919e-09
2.46975e-08
3.31567e-08
7.92868e-05
-2.89584e-08
3.55188e-10
-0.000143335
2.40156e-09
3.00867e-08
-6.48099e-11
-7.26973e-08
0.000223312
-1.24331e-08
3.07624e-08
-0.00022333
0.000171028
7.05903e-10
6.91495e-11
-0.00017104
-7.17823e-08
-2.12702e-11
-0.000143347
9.79906e-05
-6.79182e-09
-2.23391e-08
5.15259e-09
1.34684e-08
-6.97454e-09
-7.01402e-09
0.000213708
1.01384e-08
1.22067e-08
-0.000213716
-8.05258e-05
-1.23638e-08
-1.20063e-08
8.05501e-05
-8.05145e-05
-1.22991e-08
-1.20943e-08
8.05389e-05
9.46917e-09
-8.05422e-05
9.45169e-09
-8.0531e-05
-2.50181e-08
-2.72275e-08
0.000213736
-3.60607e-08
3.33716e-08
-0.000221862
0.000221899
2.50461e-08
-5.98889e-08
0.000250636
-1.58068e-08
5.86405e-08
2.95363e-08
-0.000250684
-5.10465e-08
9.87783e-09
0.00027817
2.00698e-08
-2.31315e-08
0.00018299
1.61545e-08
-9.4829e-09
-0.000183004
0.000250699
-9.74959e-08
-5.23272e-08
0.000183022
1.20057e-08
-1.01357e-08
3.10807e-08
-0.000221882
-3.61789e-08
3.13955e-08
-0.000221801
0.000221839
2.72511e-08
-6.00997e-08
0.000250541
-1.58185e-08
6.35404e-08
2.95495e-08
-0.000250596
-4.87433e-08
1.05216e-08
0.000278114
1.99761e-08
-2.32496e-08
0.000182945
1.42189e-08
-9.46831e-09
-0.000182958
0.000250611
-1.0239e-07
-5.24524e-08
0.000182975
1.20905e-08
-1.22075e-08
3.13019e-08
-0.000221822
1.5797e-08
-1.61699e-08
0.000221878
3.10802e-08
-0.000183008
-3.33247e-08
0.000183039
2.48214e-08
-7.0053e-09
-1.1187e-08
1.22737e-08
-0.000250651
3.60473e-08
0.000250714
-9.74386e-08
-5.23324e-08
5.86247e-08
2.95064e-08
0.000221916
-5.98281e-08
1.58003e-08
-1.42341e-08
0.000221818
3.13043e-08
-0.000182963
-3.13476e-08
0.000182993
2.25225e-08
-7.49799e-09
-1.11439e-08
1.22745e-08
-0.000250556
3.61698e-08
0.000250626
-1.02332e-07
-5.24567e-08
6.35161e-08
2.95242e-08
0.000221856
-6.00368e-08
1.23855e-08
1.23239e-08
-0.000213689
8.05178e-05
6.97008e-09
-8.05343e-05
8.05066e-05
7.0071e-09
-8.0523e-05
-0.000213697
-0.000221929
-3.59932e-08
3.31807e-08
2.49247e-08
-5.96274e-08
-1.5783e-08
0.000250697
-0.000250745
5.86236e-08
2.94192e-08
1.62289e-08
0.00018306
-9.42751e-09
-0.000183074
-5.08274e-08
9.96588e-09
1.98603e-08
-2.31491e-08
-1.01665e-08
-0.00022195
3.11302e-08
-9.72529e-08
-5.23371e-08
1.19996e-08
-0.000221869
-3.61252e-08
3.11993e-08
2.7143e-08
-5.9832e-08
-1.57833e-08
0.000250602
-0.000250657
6.35195e-08
2.94381e-08
1.42971e-08
0.000183016
-9.40555e-09
-0.000183028
-4.85208e-08
1.06294e-08
1.97609e-08
-2.32837e-08
-1.22298e-08
-0.00022189
3.13571e-08
-1.02145e-07
-5.2471e-08
1.20969e-08
-0.000213766
1.23032e-08
1.2231e-08
6.99516e-09
8.05495e-05
-8.0566e-05
7.04137e-09
8.05383e-05
-8.05547e-05
-0.000213774
9.80051e-05
-1.99893e-08
1.11573e-08
9.80042e-05
-2.00454e-08
1.11694e-08
-7.00707e-09
-6.99536e-09
0.000213709
1.21951e-08
1.01613e-08
-0.000213717
-8.05261e-05
-1.23642e-08
-1.20184e-08
8.05505e-05
-8.05126e-05
-1.23206e-08
-1.20771e-08
8.0537e-05
9.44088e-09
-8.05425e-05
9.47032e-09
-8.0529e-05
-2.71177e-08
-2.51549e-08
0.000213736
3.14217e-08
-3.61092e-08
-0.000221862
0.0002219
2.71404e-08
-6.00679e-08
0.000250635
-1.58041e-08
6.36704e-08
2.69584e-08
-0.000250687
1.04152e-08
-4.87268e-08
0.000278163
-2.08153e-08
0.000182991
1.42415e-08
-9.45652e-09
-0.000183003
0.000183021
1.20163e-08
0.000250702
-1.02486e-07
-4.98095e-08
-1.21941e-08
3.13016e-08
-0.000221883
3.14232e-08
-3.61827e-08
-0.000221797
0.000221839
2.51791e-08
-6.23113e-08
0.000250544
-1.58325e-08
6.35953e-08
3.20875e-08
-0.000250601
1.04791e-08
-4.87943e-08
0.000278122
-2.321e-08
0.000182941
1.42229e-08
-9.48499e-09
-0.000182953
0.000182971
1.20757e-08
0.000250616
-1.02494e-07
-5.49761e-08
-1.01599e-08
3.34987e-08
-0.000221822
-1.42568e-08
0.000221879
1.57885e-08
3.13046e-08
-0.000183009
-3.1377e-08
0.000183038
-7.44977e-09
2.25452e-08
9.8485e-09
3.61006e-08
-0.00025065
0.000250717
-1.02432e-07
-4.98145e-08
0.000221917
-6.00097e-08
6.36512e-08
2.69275e-08
-1.4237e-08
0.000221814
1.58178e-08
3.35003e-08
-0.000182959
-3.13792e-08
0.000182989
-7.51506e-09
2.2537e-08
1.22886e-08
3.61727e-08
-0.000250559
0.000250632
-1.02438e-07
-5.49822e-08
0.000221856
-6.22544e-08
6.35744e-08
3.20596e-08
1.23863e-08
1.2342e-08
-0.000213689
8.05181e-05
7.00091e-09
-8.05346e-05
8.05046e-05
6.99014e-09
-8.05211e-05
-0.000213698
-9.8026e-05
1.1216e-08
5.08119e-09
-1.98856e-08
-6.87303e-09
-9.80251e-05
1.12274e-08
5.08284e-09
-1.99426e-08
-6.82353e-09
-0.000213728
1.23451e-08
1.23021e-08
-2.7091e-08
-2.51274e-08
0.000213755
7.01218e-09
8.0534e-05
9.42791e-09
7.00024e-09
8.05205e-05
9.45728e-09
1.21987e-08
1.01662e-08
-1.20162e-08
8.05584e-05
-1.20744e-08
8.05449e-05
-1.42995e-08
1.57736e-08
0.000221913
-0.000221934
-1.22074e-08
3.13347e-08
-0.000250681
3.60698e-08
-1.02301e-07
-4.98296e-08
0.000250748
-7.37906e-09
2.25821e-08
-0.000278214
9.79021e-09
-0.000183044
-3.12834e-08
1.20239e-08
0.000183073
-0.000183056
-9.41178e-09
-0.000250733
6.3647e-08
2.68666e-08
2.70581e-08
-5.9875e-08
0.000221951
-1.4276e-08
1.5805e-08
0.000221848
-0.000221873
-1.01752e-08
3.35286e-08
-0.00025059
3.61417e-08
-1.02314e-07
-5.49937e-08
0.000250662
-7.44494e-09
2.2572e-08
-0.000278172
1.22325e-08
-0.000182994
-3.12796e-08
1.20744e-08
0.000183023
-0.000183006
-9.43946e-09
-0.000250647
6.3569e-08
3.20016e-08
2.50954e-08
-6.21194e-08
0.00022189
-0.000221896
3.13288e-08
-3.60837e-08
-5.99431e-08
1.42759e-08
0.000183026
-1.57823e-08
0.000250665
6.36487e-08
2.68969e-08
1.04646e-08
-4.86227e-08
-2.08283e-08
3.13169e-08
-1.02367e-07
-4.98235e-08
-0.000221831
3.13312e-08
-3.61543e-08
-6.21886e-08
1.42559e-08
0.000182976
-1.58123e-08
0.000250574
6.35714e-08
3.2028e-08
1.05262e-08
-4.86918e-08
-2.32208e-08
3.35123e-08
-1.02375e-07
-5.49887e-08
-7.02038e-09
-7.0094e-09
0.000213747
-8.0542e-05
-1.2315e-08
8.05663e-05
-8.05284e-05
-1.22779e-08
8.05528e-05
0.000213775
-7.01556e-10
1.24168e-08
0.000143352
-1.58147e-10
-0.000143364
-0.000171049
-3.33042e-10
0.000171081
-0.000223333
2.89553e-08
4.33651e-09
0.000223374
-7.17648e-08
-1.32178e-08
6.16312e-10
-0.00022931
2.87134e-08
-0.000171063
7.81606e-10
-0.000223354
3.30846e-08
1.41137e-09
0.000143379
-2.4487e-08
-7.9251e-05
7.92769e-05
-1.3974e-09
3.51409e-09
0.000193593
-4.38291e-08
0.000263174
-1.69184e-08
-7.64958e-10
3.31679e-08
-0.000263193
0.000263219
-4.32598e-09
-6.1801e-08
1.80264e-10
-7.92681e-05
1.6935e-08
7.92598e-05
-0.0002632
2.44459e-08
0.000263245
-6.17608e-08
-3.72315e-09
2.25523e-08
3.31648e-08
7.92857e-05
3.40252e-10
-2.89725e-08
-0.000143336
3.21633e-08
2.41142e-09
-7.02087e-08
0.00017103
6.94356e-10
-0.000171044
0.000223313
-1.24293e-08
3.31384e-08
-0.000223334
-7.17689e-08
-0.000143348
-0.000143297
3.07426e-10
-3.09008e-08
1.66009e-09
0.000143326
7.94835e-10
0.000171033
-2.84591e-11
-1.43952e-08
0.000223269
8.59592e-10
3.05205e-08
3.21107e-08
2.19928e-09
0.000229313
6.7509e-13
-7.01703e-08
-2.77502e-10
0.000171065
-1.09306e-11
4.38953e-09
0.000223305
-6.91799e-08
7.92328e-05
1.91468e-08
-7.92522e-05
2.52566e-10
-3.72535e-09
-0.000193598
2.24817e-08
2.64376e-08
-0.000263145
-4.40516e-09
-5.9096e-08
0.000263185
-1.67274e-09
7.92609e-05
-0.000263159
-8.79088e-10
3.06565e-08
-7.9224e-05
-2.64773e-08
-1.91285e-08
0.000263119
3.0648e-08
3.2405e-09
-4.3616e-08
-5.91423e-08
0.000143313
-8.07506e-10
1.43815e-08
-1.31778e-08
9.56066e-10
-5.00702e-11
2.85942e-08
-2.98438e-10
-0.000171051
-2.108e-11
0.000171084
3.08784e-08
-0.000223289
-6.91561e-08
0.000223325
0.000143342
-3.78422e-11
3.04813e-08
-0.000143368
3.27423e-10
-2.89319e-08
1.42513e-09
0.000143395
7.11068e-10
0.000171067
-1.24064e-08
0.000223353
7.98016e-10
3.3054e-08
3.21252e-08
2.41573e-09
0.000229349
-7.01883e-08
-1.36099e-10
0.0001711
4.34734e-09
0.000223394
-7.17411e-08
1.69688e-08
7.92773e-05
-7.92944e-05
1.15194e-10
-3.78653e-09
-0.000193633
-5.07496e-09
2.25683e-08
-0.000263252
2.43589e-08
-4.35897e-09
-6.16704e-08
0.000263297
-0.000263271
-8.16526e-10
3.31747e-08
-1.43902e-09
7.93031e-05
-7.92686e-05
-2.43993e-08
-1.69536e-08
0.000263226
3.31675e-08
3.45317e-09
6.77309e-09
-4.37571e-08
-6.17171e-08
-7.22951e-10
1.23965e-08
0.000143383
-1.31968e-08
6.29979e-10
2.86235e-08
-0.000171086
-3.20455e-10
0.000171118
-0.000223373
2.89116e-08
-7.17257e-08
0.000223414
3.30089e-08
0.000143411
-6.98338e-09
-7.05394e-09
0.000213715
1.23062e-08
1.01067e-08
-0.000213723
-8.05151e-05
-1.24116e-08
-1.198e-08
8.05395e-05
-8.05287e-05
-1.23124e-08
-1.20785e-08
8.05531e-05
9.47881e-09
-8.05315e-05
9.40561e-09
-8.05452e-05
-2.71788e-08
-2.51466e-08
0.000213743
3.16832e-08
-3.85325e-08
-0.000221803