/*--------------------------------*- C++ -*----------------------------------*\
| =========                 |                                                 |
| \\      /  F ield         | OpenFOAM: The Open Source CFD Toolbox           |
|  \\    /   O peration     | Version:  v1912                                 |
|   \\  /    A nd           | Website:  www.openfoam.com                      |
|    \\/     M anipulation  |                                                 |
\*---------------------------------------------------------------------------*/
FoamFile
{
    version     2.0;
    format      ascii;
    class       volScalarField;
    location    "0.45";
    object      p;
}
// * * * * * * * * * * * * * * * * * * * * * * * * * * * * * * * * * * * * * //

dimensions      [0 2 -2 0 0 0 0];


internalField   nonuniform List<scalar> 
171728
(
0.0217803
0.0217837
0.0217838
0.0218
0.0215501
0.0215502
0.0215502
0.0215645
0.0213194
0.0213194
0.0213194
0.0213337
0.0210887
0.0210886
0.0210886
0.0211029
0.0208579
0.0208579
0.0208579
0.0208721
0.0206271
0.0206271
0.0206271
0.0206414
0.0203963
0.0203963
0.0203963
0.0204106
0.0201656
0.0201655
0.0201655
0.0201798
0.0199348
0.0199347
0.0199347
0.019949
0.019704
0.019704
0.019704
0.0197182
0.0194732
0.0194732
0.0194732
0.0194875
0.0192424
0.0192424
0.0192424
0.0192567
0.0190117
0.0190116
0.0190116
0.0190259
0.0187809
0.0187808
0.0187808
0.0187951
0.0185501
0.0185501
0.0185501
0.0185643
0.0183193
0.0183193
0.0183193
0.0183336
0.0180886
0.0180885
0.0180885
0.0181028
0.0178578
0.0178577
0.0178577
0.017872
0.017627
0.017627
0.017627
0.0176412
0.0173962
0.0173962
0.0173962
0.0174105
0.0171655
0.0171654
0.0171654
0.0171797
0.0169347
0.0169347
0.0169347
0.0169489
0.0167039
0.0167039
0.0167039
0.0167182
0.0164732
0.0164731
0.0164731
0.0164874
0.0162424
0.0162423
0.0162423
0.0162566
0.0160116
0.0160116
0.0160116
0.0160258
0.0157808
0.0157808
0.0157808
0.015795
0.01555
0.01555
0.01555
0.0155643
0.0153193
0.0153192
0.0153192
0.0153335
0.0150885
0.0150884
0.0150884
0.0151027
0.0148577
0.0148577
0.0148577
0.0148719
0.0146269
0.0146269
0.0146269
0.0146412
0.0143962
0.0143961
0.0143961
0.0144104
0.0141654
0.0141653
0.0141653
0.0141796
0.0139346
0.0139346
0.0139346
0.0139488
0.0137039
0.0137038
0.0137038
0.0137181
0.0134731
0.013473
0.013473
0.0134873
0.0132423
0.0132423
0.0132423
0.0132565
0.0130115
0.0130115
0.0130115
0.0130258
0.0127808
0.0127807
0.0127807
0.012795
0.01255
0.01255
0.01255
0.0125642
0.0123192
0.0123192
0.0123192
0.0123334
0.0120884
0.0120884
0.0120884
0.0121027
0.0118577
0.0118576
0.0118576
0.0118719
0.0116269
0.0116268
0.0116268
0.0116411
0.0113961
0.0113961
0.0113961
0.0114103
0.0111653
0.0111653
0.0111653
0.0111796
0.0109346
0.0109345
0.0109345
0.0109488
0.0107038
0.0107037
0.0107037
0.010718
0.010473
0.010473
0.010473
0.0104872
0.0102422
0.0102422
0.0102422
0.0102565
0.0100115
0.0100114
0.0100114
0.0100257
0.00978069
0.00978065
0.00978065
0.00979492
0.00954992
0.00954988
0.00954988
0.00956415
0.00931915
0.00931911
0.00931911
0.00933337
0.00908838
0.00908834
0.00908834
0.0091026
0.0088576
0.00885756
0.00885756
0.00887183
0.00862683
0.00862679
0.00862679
0.00864106
0.00839605
0.00839601
0.00839601
0.00841028
0.00816527
0.00816523
0.00816523
0.0081795
0.0079345
0.00793445
0.00793445
0.00794872
0.00770371
0.00770367
0.00770367
0.00771794
0.00747293
0.00747289
0.00747289
0.00748716
0.00724215
0.00724211
0.00724211
0.00725638
0.00701137
0.00701133
0.00701133
0.0070256
0.00678059
0.00678055
0.00678055
0.00679482
0.00654981
0.00654977
0.00654977
0.00656404
0.00631904
0.006319
0.006319
0.00633326
0.00608826
0.00608822
0.00608822
0.00610249
0.00585749
0.00585745
0.00585745
0.00587171
0.00562672
0.00562667
0.00562668
0.00564094
0.00539594
0.0053959
0.0053959
0.00541017
0.00516517
0.00516513
0.00516513
0.00517939
0.00493439
0.00493435
0.00493435
0.00494862
0.00470362
0.00470358
0.00470358
0.00471784
0.00447284
0.0044728
0.0044728
0.00448707
0.00424206
0.00424202
0.00424202
0.00425629
0.00401128
0.00401124
0.00401124
0.00402551
0.0037805
0.00378046
0.00378046
0.00379473
0.00354972
0.00354968
0.00354968
0.00356395
0.00331894
0.0033189
0.0033189
0.00333316
0.00308816
0.00308811
0.00308812
0.00310238
0.00285738
0.00285734
0.00285734
0.0028716
0.0026266
0.00262656
0.00262656
0.00264082
0.00239582
0.00239578
0.00239578
0.00241005
0.00216505
0.002165
0.002165
0.00217927
0.00193427
0.00193423
0.00193423
0.0019485
0.0017035
0.00170346
0.00170346
0.00171772
0.00147273
0.00147269
0.00147269
0.00148695
0.00124195
0.00124191
0.00124191
0.00125618
0.00101118
0.00101114
0.00101114
0.0010254
0.000780407
0.000780369
0.000780368
0.000794635
0.000549648
0.000549608
0.000549605
0.000563868
0.000319463
0.000319053
0.000319048
0.000333188
9.87291e-05
0.000108988
0.000108983
0.000110181
0.0218328
0.021829
0.021829
0.0218328
0.021829
0.021829
0.0218357
0.0218357
0.0218357
0.0218357
0.021829
0.021829
0.0218328
0.021829
0.021829
0.0218328
0.0218
0.0215936
0.0217838
0.0217838
0.0216078
0.0216078
0.0218
0.0215936
0.0217838
0.0217838
0.0216078
0.0216078
0.0217838
0.0216078
0.0216078
0.0218
0.0215936
0.0217838
0.0216078
0.0216078
0.0215936
0.0215645
0.0213629
0.0215502
0.0215502
0.0213771
0.0213771
0.0215645
0.0213629
0.0215502
0.0215502
0.0213771
0.0213771
0.0215502
0.0213771
0.0213771
0.0215645
0.0213629
0.0215502
0.0213771
0.0213771
0.0213629
0.0213337
0.0211321
0.0213194
0.0213194
0.0211463
0.0211463
0.0213337
0.0211321
0.0213194
0.0213194
0.0211463
0.0211463
0.0213194
0.0211463
0.0211463
0.0213337
0.0211321
0.0213194
0.0211463
0.0211463
0.0211321
0.0211029
0.0209013
0.0210886
0.0210886
0.0209156
0.0209156
0.0211029
0.0209013
0.0210886
0.0210886
0.0209156
0.0209156
0.0210886
0.0209156
0.0209156
0.0211029
0.0209013
0.0210886
0.0209156
0.0209156
0.0209013
0.0208721
0.0206705
0.0208579
0.0208579
0.0206848
0.0206848
0.0208721
0.0206705
0.0208579
0.0208579
0.0206848
0.0206848
0.0208579
0.0206848
0.0206848
0.0208721
0.0206705
0.0208579
0.0206848
0.0206848
0.0206705
0.0206414
0.0204398
0.0206271
0.0206271
0.020454
0.020454
0.0206414
0.0204398
0.0206271
0.0206271
0.020454
0.020454
0.0206271
0.020454
0.020454
0.0206414
0.0204398
0.0206271
0.020454
0.020454
0.0204398
0.0204106
0.020209
0.0203963
0.0203963
0.0202232
0.0202232
0.0204106
0.020209
0.0203963
0.0203963
0.0202232
0.0202232
0.0203963
0.0202232
0.0202232
0.0204106
0.020209
0.0203963
0.0202232
0.0202232
0.020209
0.0201798
0.0199782
0.0201655
0.0201655
0.0199924
0.0199924
0.0201798
0.0199782
0.0201655
0.0201655
0.0199924
0.0199924
0.0201655
0.0199924
0.0199924
0.0201798
0.0199782
0.0201655
0.0199924
0.0199924
0.0199782
0.019949
0.0197474
0.0199347
0.0199347
0.0197617
0.0197617
0.019949
0.0197474
0.0199347
0.0199347
0.0197617
0.0197617
0.0199347
0.0197617
0.0197617
0.019949
0.0197474
0.0199347
0.0197617
0.0197617
0.0197474
0.0197182
0.0195166
0.019704
0.019704
0.0195309
0.0195309
0.0197182
0.0195166
0.019704
0.019704
0.0195309
0.0195309
0.019704
0.0195309
0.0195309
0.0197182
0.0195166
0.019704
0.0195309
0.0195309
0.0195166
0.0194875
0.0192859
0.0194732
0.0194732
0.0193001
0.0193001
0.0194875
0.0192859
0.0194732
0.0194732
0.0193001
0.0193001
0.0194732
0.0193001
0.0193001
0.0194875
0.0192859
0.0194732
0.0193001
0.0193001
0.0192859
0.0192567
0.0190551
0.0192424
0.0192424
0.0190693
0.0190693
0.0192567
0.0190551
0.0192424
0.0192424
0.0190693
0.0190693
0.0192424
0.0190693
0.0190693
0.0192567
0.0190551
0.0192424
0.0190693
0.0190693
0.0190551
0.0190259
0.0188243
0.0190116
0.0190116
0.0188385
0.0188385
0.0190259
0.0188243
0.0190116
0.0190116
0.0188385
0.0188385
0.0190116
0.0188385
0.0188385
0.0190259
0.0188243
0.0190116
0.0188385
0.0188385
0.0188243
0.0187951
0.0185935
0.0187808
0.0187808
0.0186078
0.0186078
0.0187951
0.0185935
0.0187808
0.0187808
0.0186078
0.0186078
0.0187808
0.0186078
0.0186078
0.0187951
0.0185935
0.0187808
0.0186078
0.0186078
0.0185935
0.0185643
0.0183628
0.0185501
0.0185501
0.018377
0.018377
0.0185643
0.0183627
0.0185501
0.0185501
0.018377
0.018377
0.0185501
0.018377
0.018377
0.0185643
0.0183628
0.0185501
0.018377
0.018377
0.0183628
0.0183336
0.018132
0.0183193
0.0183193
0.0181462
0.0181462
0.0183336
0.018132
0.0183193
0.0183193
0.0181462
0.0181462
0.0183193
0.0181462
0.0181462
0.0183336
0.018132
0.0183193
0.0181462
0.0181462
0.018132
0.0181028
0.0179012
0.0180885
0.0180885
0.0179154
0.0179154
0.0181028
0.0179012
0.0180885
0.0180885
0.0179154
0.0179154
0.0180885
0.0179154
0.0179154
0.0181028
0.0179012
0.0180885
0.0179154
0.0179154
0.0179012
0.017872
0.0176704
0.0178577
0.0178577
0.0176847
0.0176847
0.017872
0.0176704
0.0178577
0.0178577
0.0176847
0.0176847
0.0178577
0.0176847
0.0176847
0.017872
0.0176704
0.0178577
0.0176847
0.0176847
0.0176704
0.0176412
0.0174397
0.017627
0.017627
0.0174539
0.0174539
0.0176412
0.0174397
0.017627
0.017627
0.0174539
0.0174539
0.017627
0.0174539
0.0174539
0.0176412
0.0174397
0.017627
0.0174539
0.0174539
0.0174397
0.0174105
0.0172089
0.0173962
0.0173962
0.0172231
0.0172231
0.0174105
0.0172089
0.0173962
0.0173962
0.0172231
0.0172231
0.0173962
0.0172231
0.0172231
0.0174105
0.0172089
0.0173962
0.0172231
0.0172231
0.0172089
0.0171797
0.0169781
0.0171654
0.0171654
0.0169924
0.0169924
0.0171797
0.0169781
0.0171654
0.0171654
0.0169924
0.0169924
0.0171654
0.0169924
0.0169924
0.0171797
0.0169781
0.0171654
0.0169924
0.0169924
0.0169781
0.0169489
0.0167473
0.0169347
0.0169347
0.0167616
0.0167616
0.0169489
0.0167473
0.0169347
0.0169347
0.0167616
0.0167616
0.0169347
0.0167616
0.0167616
0.0169489
0.0167473
0.0169347
0.0167616
0.0167616
0.0167473
0.0167182
0.0165166
0.0167039
0.0167039
0.0165308
0.0165308
0.0167182
0.0165166
0.0167039
0.0167039
0.0165308
0.0165308
0.0167039
0.0165308
0.0165308
0.0167182
0.0165166
0.0167039
0.0165308
0.0165308
0.0165166
0.0164874
0.0162858
0.0164731
0.0164731
0.0163
0.0163
0.0164874
0.0162858
0.0164731
0.0164731
0.0163
0.0163
0.0164731
0.0163
0.0163
0.0164874
0.0162858
0.0164731
0.0163
0.0163
0.0162858
0.0162566
0.016055
0.0162423
0.0162423
0.0160692
0.0160693
0.0162566
0.016055
0.0162423
0.0162423
0.0160692
0.0160692
0.0162423
0.0160693
0.0160693
0.0162566
0.016055
0.0162423
0.0160692
0.0160693
0.016055
0.0160258
0.0158242
0.0160116
0.0160116
0.0158385
0.0158385
0.0160258
0.0158242
0.0160116
0.0160116
0.0158385
0.0158385
0.0160116
0.0158385
0.0158385
0.0160258
0.0158242
0.0160116
0.0158385
0.0158385
0.0158242
0.015795
0.0155935
0.0157808
0.0157808
0.0156077
0.0156077
0.015795
0.0155935
0.0157808
0.0157808
0.0156077
0.0156077
0.0157808
0.0156077
0.0156077
0.015795
0.0155935
0.0157808
0.0156077
0.0156077
0.0155935
0.0155643
0.0153627
0.01555
0.01555
0.0153769
0.0153769
0.0155643
0.0153627
0.01555
0.01555
0.0153769
0.0153769
0.01555
0.0153769
0.0153769
0.0155643
0.0153627
0.01555
0.0153769
0.0153769
0.0153627
0.0153335
0.0151319
0.0153192
0.0153192
0.0151461
0.0151461
0.0153335
0.0151319
0.0153192
0.0153192
0.0151461
0.0151461
0.0153192
0.0151461
0.0151461
0.0153335
0.0151319
0.0153192
0.0151461
0.0151461
0.0151319
0.0151027
0.0149011
0.0150884
0.0150884
0.0149154
0.0149154
0.0151027
0.0149011
0.0150884
0.0150884
0.0149154
0.0149154
0.0150884
0.0149154
0.0149154
0.0151027
0.0149011
0.0150884
0.0149154
0.0149154
0.0149011
0.0148719
0.0146703
0.0148577
0.0148577
0.0146846
0.0146846
0.0148719
0.0146703
0.0148577
0.0148577
0.0146846
0.0146846
0.0148577
0.0146846
0.0146846
0.0148719
0.0146703
0.0148577
0.0146846
0.0146846
0.0146704
0.0146412
0.0144396
0.0146269
0.0146269
0.0144538
0.0144538
0.0146412
0.0144396
0.0146269
0.0146269
0.0144538
0.0144538
0.0146269
0.0144538
0.0144538
0.0146412
0.0144396
0.0146269
0.0144538
0.0144538
0.0144396
0.0144104
0.0142088
0.0143961
0.0143961
0.014223
0.014223
0.0144104
0.0142088
0.0143961
0.0143961
0.014223
0.014223
0.0143961
0.014223
0.014223
0.0144104
0.0142088
0.0143961
0.014223
0.014223
0.0142088
0.0141796
0.013978
0.0141653
0.0141653
0.0139923
0.0139923
0.0141796
0.013978
0.0141653
0.0141653
0.0139923
0.0139923
0.0141653
0.0139923
0.0139923
0.0141796
0.013978
0.0141653
0.0139923
0.0139923
0.013978
0.0139488
0.0137473
0.0139346
0.0139346
0.0137615
0.0137615
0.0139488
0.0137473
0.0139346
0.0139346
0.0137615
0.0137615
0.0139346
0.0137615
0.0137615
0.0139488
0.0137473
0.0139346
0.0137615
0.0137615
0.0137473
0.0137181
0.0135165
0.0137038
0.0137038
0.0135307
0.0135307
0.0137181
0.0135165
0.0137038
0.0137038
0.0135307
0.0135307
0.0137038
0.0135307
0.0135307
0.0137181
0.0135165
0.0137038
0.0135307
0.0135307
0.0135165
0.0134873
0.0132857
0.013473
0.013473
0.0133
0.0133
0.0134873
0.0132857
0.013473
0.013473
0.0133
0.0133
0.013473
0.0133
0.0133
0.0134873
0.0132857
0.013473
0.0133
0.0133
0.0132857
0.0132565
0.013055
0.0132423
0.0132423
0.0130692
0.0130692
0.0132565
0.013055
0.0132423
0.0132423
0.0130692
0.0130692
0.0132423
0.0130692
0.0130692
0.0132565
0.013055
0.0132423
0.0130692
0.0130692
0.013055
0.0130258
0.0128242
0.0130115
0.0130115
0.0128384
0.0128384
0.0130258
0.0128242
0.0130115
0.0130115
0.0128384
0.0128384
0.0130115
0.0128384
0.0128384
0.0130258
0.0128242
0.0130115
0.0128384
0.0128384
0.0128242
0.012795
0.0125934
0.0127807
0.0127807
0.0126076
0.0126076
0.012795
0.0125934
0.0127807
0.0127807
0.0126077
0.0126076
0.0127807
0.0126076
0.0126076
0.012795
0.0125934
0.0127807
0.0126076
0.0126076
0.0125934
0.0125642
0.0123626
0.01255
0.01255
0.0123769
0.0123769
0.0125642
0.0123626
0.01255
0.01255
0.0123769
0.0123769
0.01255
0.0123769
0.0123769
0.0125642
0.0123626
0.01255
0.0123769
0.0123769
0.0123626
0.0123334
0.0121319
0.0123192
0.0123192
0.0121461
0.0121461
0.0123335
0.0121319
0.0123192
0.0123192
0.0121461
0.0121461
0.0123192
0.0121461
0.0121461
0.0123334
0.0121319
0.0123192
0.0121461
0.0121461
0.0121319
0.0121027
0.0119011
0.0120884
0.0120884
0.0119153
0.0119153
0.0121027
0.0119011
0.0120884
0.0120884
0.0119153
0.0119153
0.0120884
0.0119153
0.0119153
0.0121027
0.0119011
0.0120884
0.0119153
0.0119153
0.0119011
0.0118719
0.0116703
0.0118576
0.0118576
0.0116845
0.0116845
0.0118719
0.0116703
0.0118576
0.0118576
0.0116845
0.0116845
0.0118576
0.0116845
0.0116845
0.0118719
0.0116703
0.0118576
0.0116845
0.0116845
0.0116703
0.0116411
0.0114395
0.0116268
0.0116268
0.0114538
0.0114538
0.0116411
0.0114395
0.0116268
0.0116268
0.0114538
0.0114538
0.0116268
0.0114538
0.0114538
0.0116411
0.0114395
0.0116268
0.0114538
0.0114538
0.0114395
0.0114103
0.0112087
0.0113961
0.0113961
0.011223
0.011223
0.0114103
0.0112087
0.0113961
0.0113961
0.011223
0.011223
0.0113961
0.011223
0.011223
0.0114103
0.0112087
0.0113961
0.011223
0.011223
0.0112088
0.0111796
0.010978
0.0111653
0.0111653
0.0109922
0.0109922
0.0111796
0.010978
0.0111653
0.0111653
0.0109922
0.0109922
0.0111653
0.0109922
0.0109922
0.0111796
0.010978
0.0111653
0.0109922
0.0109922
0.010978
0.0109488
0.0107472
0.0109345
0.0109345
0.0107614
0.0107614
0.0109488
0.0107472
0.0109345
0.0109345
0.0107614
0.0107614
0.0109345
0.0107614
0.0107614
0.0109488
0.0107472
0.0109345
0.0107614
0.0107614
0.0107472
0.010718
0.0105164
0.0107037
0.0107037
0.0105307
0.0105307
0.010718
0.0105164
0.0107037
0.0107037
0.0105307
0.0105307
0.0107037
0.0105307
0.0105307
0.010718
0.0105164
0.0107037
0.0105307
0.0105307
0.0105164
0.0104872
0.0102856
0.010473
0.010473
0.0102999
0.0102999
0.0104872
0.0102856
0.010473
0.010473
0.0102999
0.0102999
0.010473
0.0102999
0.0102999
0.0104872
0.0102856
0.010473
0.0102999
0.0102999
0.0102856
0.0102565
0.0100549
0.0102422
0.0102422
0.0100691
0.0100691
0.0102565
0.0100549
0.0102422
0.0102422
0.0100691
0.0100691
0.0102422
0.0100691
0.0100691
0.0102565
0.0100549
0.0102422
0.0100691
0.0100691
0.0100549
0.0100257
0.0098241
0.0100114
0.0100114
0.00983834
0.00983834
0.0100257
0.0098241
0.0100114
0.0100114
0.00983834
0.00983834
0.0100114
0.00983834
0.00983834
0.0100257
0.0098241
0.0100114
0.00983834
0.00983834
0.00982411
0.00979492
0.00959333
0.00978065
0.00978065
0.00960757
0.00960757
0.00979492
0.00959333
0.00978065
0.00978065
0.00960757
0.00960757
0.00978065
0.00960757
0.00960757
0.00979492
0.00959333
0.00978065
0.00960757
0.00960757
0.00959334
0.00956415
0.00936256
0.00954988
0.00954988
0.0093768
0.0093768
0.00956415
0.00936256
0.00954988
0.00954988
0.0093768
0.0093768
0.00954988
0.0093768
0.0093768
0.00956415
0.00936256
0.00954988
0.0093768
0.0093768
0.00936256
0.00933338
0.00913179
0.00931911
0.00931911
0.00914603
0.00914603
0.00933338
0.00913179
0.00931911
0.00931911
0.00914603
0.00914603
0.00931911
0.00914603
0.00914603
0.00933338
0.00913179
0.00931911
0.00914603
0.00914603
0.00913179
0.0091026
0.00890102
0.00908834
0.00908834
0.00891526
0.00891526
0.0091026
0.00890102
0.00908834
0.00908834
0.00891526
0.00891526
0.00908834
0.00891526
0.00891526
0.0091026
0.00890102
0.00908833
0.00891526
0.00891525
0.00890102
0.00887183
0.00867025
0.00885756
0.00885756
0.00868448
0.00868448
0.00887183
0.00867024
0.00885756
0.00885756
0.00868448
0.00868448
0.00885756
0.00868448
0.00868448
0.00887183
0.00867025
0.00885756
0.00868448
0.00868448
0.00867025
0.00864106
0.00843947
0.00862679
0.00862679
0.00845371
0.00845371
0.00864106
0.00843947
0.00862679
0.00862679
0.00845371
0.00845371
0.00862679
0.00845371
0.00845371
0.00864106
0.00843947
0.00862679
0.00845371
0.0084537
0.00843947
0.00841028
0.00820869
0.00839601
0.00839601
0.00822293
0.00822293
0.00841028
0.00820869
0.00839601
0.00839601
0.00822293
0.00822293
0.00839601
0.00822293
0.00822293
0.00841028
0.00820869
0.00839601
0.00822293
0.00822293
0.00820869
0.0081795
0.00797791
0.00816523
0.00816523
0.00799215
0.00799215
0.0081795
0.00797791
0.00816523
0.00816523
0.00799215
0.00799215
0.00816523
0.00799215
0.00799215
0.0081795
0.00797791
0.00816523
0.00799215
0.00799215
0.00797791
0.00794872
0.00774713
0.00793445
0.00793445
0.00776137
0.00776137
0.00794872
0.00774713
0.00793445
0.00793445
0.00776137
0.00776137
0.00793445
0.00776137
0.00776137
0.00794872
0.00774713
0.00793445
0.00776137
0.00776137
0.00774713
0.00771794
0.00751635
0.00770367
0.00770367
0.00753059
0.00753059
0.00771794
0.00751635
0.00770367
0.00770367
0.00753059
0.00753059
0.00770367
0.00753059
0.00753059
0.00771794
0.00751635
0.00770367
0.00753059
0.00753059
0.00751635
0.00748716
0.00728557
0.00747289
0.00747289
0.00729981
0.00729981
0.00748716
0.00728557
0.00747289
0.00747289
0.00729981
0.00729981
0.00747289
0.00729981
0.00729981
0.00748716
0.00728557
0.00747289
0.00729981
0.0072998
0.00728557
0.00725638
0.00705479
0.00724211
0.00724211
0.00706903
0.00706903
0.00725638
0.00705479
0.00724211
0.00724211
0.00706903
0.00706903
0.00724211
0.00706903
0.00706903
0.00725638
0.00705479
0.00724211
0.00706903
0.00706903
0.00705479
0.0070256
0.00682401
0.00701133
0.00701133
0.00683825
0.00683825
0.0070256
0.00682401
0.00701133
0.00701133
0.00683825
0.00683825
0.00701133
0.00683825
0.00683825
0.0070256
0.00682401
0.00701133
0.00683825
0.00683825
0.00682401
0.00679482
0.00659323
0.00678055
0.00678055
0.00660747
0.00660747
0.00679482
0.00659323
0.00678055
0.00678055
0.00660747
0.00660747
0.00678055
0.00660747
0.00660747
0.00679482
0.00659323
0.00678055
0.00660747
0.00660747
0.00659323
0.00656404
0.00636245
0.00654977
0.00654977
0.00637669
0.00637669
0.00656404
0.00636245
0.00654977
0.00654977
0.00637669
0.00637669
0.00654977
0.00637669
0.00637669
0.00656404
0.00636245
0.00654977
0.00637669
0.00637669
0.00636245
0.00633327
0.00613168
0.006319
0.006319
0.00614592
0.00614591
0.00633327
0.00613168
0.006319
0.006319
0.00614592
0.00614592
0.006319
0.00614592
0.00614592
0.00633327
0.00613168
0.006319
0.00614592
0.00614591
0.00613168
0.00610249
0.0059009
0.00608822
0.00608822
0.00591514
0.00591514
0.00610249
0.0059009
0.00608822
0.00608822
0.00591514
0.00591514
0.00608822
0.00591514
0.00591514
0.00610249
0.0059009
0.00608822
0.00591514
0.00591514
0.0059009
0.00587172
0.00567013
0.00585745
0.00585745
0.00568437
0.00568437
0.00587172
0.00567013
0.00585745
0.00585745
0.00568437
0.00568437
0.00585745
0.00568437
0.00568437
0.00587172
0.00567013
0.00585745
0.00568437
0.00568437
0.00567013
0.00564094
0.00543936
0.00562667
0.00562667
0.0054536
0.00545359
0.00564094
0.00543936
0.00562667
0.00562668
0.0054536
0.0054536
0.00562667
0.00545359
0.00545359
0.00564094
0.00543936
0.00562667
0.0054536
0.00545359
0.00543936
0.00541017
0.00520858
0.0053959
0.0053959
0.00522282
0.00522282
0.00541017
0.00520858
0.0053959
0.0053959
0.00522282
0.00522282
0.0053959
0.00522282
0.00522282
0.00541017
0.00520859
0.0053959
0.00522282
0.00522282
0.00520858
0.0051794
0.00497781
0.00516513
0.00516513
0.00499205
0.00499205
0.0051794
0.00497781
0.00516513
0.00516513
0.00499205
0.00499205
0.00516513
0.00499205
0.00499205
0.0051794
0.00497781
0.00516513
0.00499205
0.00499205
0.00497781
0.00494862
0.00474703
0.00493435
0.00493435
0.00476127
0.00476127
0.00494862
0.00474703
0.00493435
0.00493435
0.00476127
0.00476127
0.00493435
0.00476127
0.00476127
0.00494862
0.00474703
0.00493435
0.00476127
0.00476127
0.00474703
0.00471785
0.00451626
0.00470358
0.00470358
0.0045305
0.00453049
0.00471785
0.00451626
0.00470358
0.00470358
0.0045305
0.0045305
0.00470358
0.00453049
0.0045305
0.00471785
0.00451626
0.00470358
0.0045305
0.00453049
0.00451626
0.00448707
0.00428548
0.0044728
0.0044728
0.00429972
0.00429972
0.00448707
0.00428548
0.0044728
0.0044728
0.00429972
0.00429972
0.0044728
0.00429972
0.00429972
0.00448707
0.00428548
0.0044728
0.00429972
0.00429971
0.00428548
0.00425629
0.0040547
0.00424202
0.00424202
0.00406894
0.00406894
0.00425629
0.0040547
0.00424202
0.00424202
0.00406894
0.00406894
0.00424202
0.00406894
0.00406894
0.00425629
0.0040547
0.00424202
0.00406894
0.00406894
0.0040547
0.00402551
0.00382392
0.00401124
0.00401124
0.00383816
0.00383815
0.00402551
0.00382392
0.00401124
0.00401124
0.00383816
0.00383816
0.00401124
0.00383815
0.00383815
0.00402551
0.00382392
0.00401124
0.00383816
0.00383815
0.00382392
0.00379473
0.00359314
0.00378046
0.00378046
0.00360737
0.00360737
0.00379473
0.00359314
0.00378046
0.00378046
0.00360737
0.00360737
0.00378046
0.00360737
0.00360737
0.00379473
0.00359314
0.00378046
0.00360737
0.00360737
0.00359314
0.00356395
0.00336235
0.00354968
0.00354968
0.00337659
0.00337659
0.00356395
0.00336235
0.00354968
0.00354968
0.00337659
0.00337659
0.00354968
0.00337659
0.00337659
0.00356395
0.00336236
0.00354968
0.00337659
0.00337659
0.00336235
0.00333317
0.00313157
0.0033189
0.0033189
0.00314581
0.00314581
0.00333317
0.00313157
0.0033189
0.0033189
0.00314581
0.00314581
0.0033189
0.00314581
0.00314581
0.00333317
0.00313157
0.0033189
0.00314581
0.00314581
0.00313157
0.00310238
0.00290079
0.00308812
0.00308811
0.00291503
0.00291503
0.00310238
0.00290079
0.00308812
0.00308812
0.00291503
0.00291503
0.00308811
0.00291503
0.00291503
0.00310238
0.00290079
0.00308811
0.00291503
0.00291503
0.00290079
0.0028716
0.00267001
0.00285734
0.00285733
0.00268425
0.00268425
0.0028716
0.00267001
0.00285734
0.00285734
0.00268425
0.00268425
0.00285734
0.00268425
0.00268425
0.0028716
0.00267001
0.00285733
0.00268425
0.00268425
0.00267001
0.00264083
0.00243924
0.00262656
0.00262656
0.00245347
0.00245347
0.00264083
0.00243923
0.00262656
0.00262656
0.00245347
0.00245347
0.00262656
0.00245347
0.00245347
0.00264083
0.00243924
0.00262656
0.00245347
0.00245347
0.00243924
0.00241005
0.00220846
0.00239578
0.00239578
0.0022227
0.0022227
0.00241005
0.00220846
0.00239578
0.00239578
0.0022227
0.0022227
0.00239578
0.0022227
0.0022227
0.00241005
0.00220846
0.00239578
0.0022227
0.0022227
0.00220846
0.00217927
0.00197769
0.002165
0.002165
0.00199192
0.00199192
0.00217927
0.00197769
0.002165
0.002165
0.00199192
0.00199192
0.002165
0.00199192
0.00199192
0.00217927
0.00197769
0.002165
0.00199192
0.00199192
0.00197769
0.0019485
0.00174691
0.00193423
0.00193423
0.00176115
0.00176115
0.0019485
0.00174691
0.00193423
0.00193423
0.00176115
0.00176115
0.00193423
0.00176115
0.00176115
0.0019485
0.00174691
0.00193423
0.00176115
0.00176115
0.00174691
0.00171772
0.00151614
0.00170346
0.00170346
0.00153038
0.00153038
0.00171772
0.00151614
0.00170346
0.00170346
0.00153038
0.00153038
0.00170346
0.00153038
0.00153038
0.00171773
0.00151614
0.00170346
0.00153038
0.00153038
0.00151614
0.00148695
0.00128537
0.00147269
0.00147269
0.00129961
0.00129961
0.00148695
0.00128537
0.00147269
0.00147269
0.00129961
0.00129961
0.00147269
0.00129961
0.00129961
0.00148696
0.00128537
0.00147268
0.00129961
0.00129961
0.00128537
0.00125618
0.00105459
0.00124191
0.00124191
0.00106883
0.00106883
0.00125618
0.00105459
0.00124191
0.00124191
0.00106883
0.00106883
0.00124191
0.00106883
0.00106883
0.00125618
0.00105459
0.00124191
0.00106883
0.00106883
0.00105459
0.00102541
0.000823823
0.00101114
0.00101114
0.00083806
0.00083806
0.00102541
0.000823823
0.00101114
0.00101114
0.00083806
0.00083806
0.00101114
0.000838061
0.000838061
0.00102541
0.000823823
0.00101114
0.000838061
0.00083806
0.000823824
0.000794636
0.000593052
0.000780368
0.000780368
0.000607292
0.000607295
0.000794637
0.000593055
0.000780369
0.000780368
0.000607292
0.000607293
0.000780369
0.000607296
0.000607295
0.000794635
0.000593055
0.000780368
0.000607294
0.000607295
0.000593056
0.000563866
0.000362345
0.000549603
0.000549606
0.000376611
0.000376613
0.000563869
0.000362352
0.000549604
0.000549604
0.000376609
0.000376608
0.000549606
0.000376618
0.000376614
0.000563867
0.000362345
0.000549605
0.00037661
0.000376611
0.000362347
0.000333189
0.000135972
0.000319049
0.000319049
0.000149599
0.000149614
0.000333193
0.000135973
0.000319044
0.000319042
0.000149605
0.000149599
0.000319052
0.000149592
0.000149606
0.000333186
0.000135967
0.000319051
0.00014959
0.000149615
0.00013598
0.000110173
0.00010899
0.000108993
0.000110174
0.000108988
0.000108986
9.87323e-05
9.87258e-05
9.87346e-05
0.000108997
0.000110169
0.000108996
0.0218636
0.0219025
0.0218813
0.0218813
0.0219618
0.0219175
0.0220301
0.0218939
0.0219618
0.0219175
0.0218939
0.0220301
0.0219344
0.0220488
0.0220489
0.0217107
0.0218209
0.0218146
0.021711
0.021706
0.0217059
0.0217107
0.021821
0.0218146
0.0217111
0.0217803
0.0217803
0.0217803
0.0216077
0.0216077
0.0216077
0.0216077
0.0217107
0.0218083
0.0217826
0.0217233
0.021804
0.0217107
0.0217233
0.021706
0.0217059
0.0217107
0.0217826
0.0218083
0.0217234
0.021804
0.0217233
0.0217107
0.0218081
0.0218082
0.0217098
0.0217098
0.0217097
0.0214782
0.0215648
0.0215648
0.0214782
0.0215648
0.0214782
0.0214782
0.0215648
0.0215648
0.0214782
0.0215501
0.0215501
0.0215501
0.0213771
0.0213771
0.0213771
0.0213771
0.0214787
0.0215644
0.0215501
0.0214925
0.0215643
0.0214787
0.0214925
0.0215648
0.0214782
0.0214787
0.0215501
0.0215644
0.0214925
0.0215643
0.0214925
0.0214787
0.0215648
0.0215648
0.0214783
0.0214782
0.0214782
0.0212474
0.0213338
0.0213338
0.0212474
0.0213338
0.0212474
0.0212474
0.0213338
0.0213338
0.0212474
0.0213194
0.0213194
0.0213194
0.0211464
0.0211464
0.0211464
0.0211464
0.0212478
0.0213334
0.0213194
0.0212617
0.0213334
0.0212478
0.0212617
0.0213338
0.0212474
0.0212478
0.0213194
0.0213334
0.0212617
0.0213334
0.0212617
0.0212478
0.0213338
0.0213338
0.0212475
0.0212474
0.0212474
0.0210166
0.0211031
0.0211031
0.0210166
0.021103
0.0210166
0.0210166
0.0211031
0.0211031
0.0210166
0.0210887
0.0210887
0.0210887
0.0209156
0.0209156
0.0209156
0.0209156
0.0210171
0.0211026
0.0210887
0.0210309
0.0211026
0.021017
0.021031
0.021103
0.0210166
0.0210171
0.0210887
0.0211026
0.0210309
0.0211026
0.021031
0.021017
0.021103
0.021103
0.0210167
0.0210166
0.0210166
0.0207858
0.0208723
0.0208723
0.0207858
0.0208723
0.0207858
0.0207858
0.0208723
0.0208723
0.0207858
0.0208579
0.0208579
0.0208579
0.0206848
0.0206848
0.0206848
0.0206848
0.0207863
0.0208718
0.0208579
0.0208002
0.0208718
0.0207863
0.0208002
0.0208723
0.0207858
0.0207863
0.0208579
0.0208718
0.0208002
0.0208718
0.0208002
0.0207863
0.0208723
0.0208723
0.0207859
0.0207858
0.0207858
0.020555
0.0206415
0.0206415
0.020555
0.0206415
0.020555
0.020555
0.0206415
0.0206415
0.020555
0.0206271
0.0206271
0.0206271
0.020454
0.020454
0.020454
0.020454
0.0205555
0.020641
0.0206271
0.0205694
0.020641
0.0205555
0.0205694
0.0206415
0.020555
0.0205555
0.0206271
0.020641
0.0205694
0.020641
0.0205694
0.0205555
0.0206415
0.0206415
0.0205552
0.020555
0.020555
0.0203242
0.0204107
0.0204107
0.0203242
0.0204107
0.0203243
0.0203242
0.0204107
0.0204107
0.0203242
0.0203963
0.0203963
0.0203963
0.0202233
0.0202233
0.0202233
0.0202233
0.0203247
0.0204103
0.0203963
0.0203386
0.0204103
0.0203247
0.0203386
0.0204107
0.0203243
0.0203247
0.0203963
0.0204103
0.0203386
0.0204103
0.0203386
0.0203247
0.0204107
0.0204107
0.0203244
0.0203243
0.0203243
0.0200935
0.0201799
0.0201799
0.0200935
0.0201799
0.0200935
0.0200935
0.0201799
0.0201799
0.0200935
0.0201656
0.0201656
0.0201656
0.0199925
0.0199925
0.0199925
0.0199925
0.0200939
0.0201795
0.0201655
0.0201078
0.0201795
0.0200939
0.0201078
0.0201799
0.0200935
0.0200939
0.0201655
0.0201795
0.0201078
0.0201795
0.0201078
0.0200939
0.0201799
0.0201799
0.0200936
0.0200935
0.0200935
0.0198627
0.0199492
0.0199492
0.0198627
0.0199491
0.0198627
0.0198627
0.0199492
0.0199492
0.0198627
0.0199348
0.0199348
0.0199348
0.0197617
0.0197617
0.0197617
0.0197617
0.0198632
0.0199487
0.0199348
0.019877
0.0199487
0.0198631
0.0198771
0.0199492
0.0198627
0.0198632
0.0199348
0.0199487
0.019877
0.0199487
0.0198771
0.0198631
0.0199491
0.0199491
0.0198628
0.0198627
0.0198627
0.0196319
0.0197184
0.0197184
0.0196319
0.0197184
0.0196319
0.0196319
0.0197184
0.0197184
0.0196319
0.019704
0.019704
0.019704
0.0195309
0.0195309
0.0195309
0.0195309
0.0196324
0.0197179
0.019704
0.0196463
0.0197179
0.0196324
0.0196463
0.0197184
0.0196319
0.0196324
0.019704
0.0197179
0.0196463
0.0197179
0.0196463
0.0196324
0.0197184
0.0197184
0.019632
0.0196319
0.0196319
0.0194011
0.0194876
0.0194876
0.0194011
0.0194876
0.0194011
0.0194011
0.0194876
0.0194876
0.0194011
0.0194732
0.0194732
0.0194732
0.0193001
0.0193001
0.0193001
0.0193001
0.0194016
0.0194871
0.0194732
0.0194155
0.0194871
0.0194016
0.0194155
0.0194876
0.0194011
0.0194016
0.0194732
0.0194871
0.0194155
0.0194871
0.0194155
0.0194016
0.0194876
0.0194876
0.0194013
0.0194011
0.0194011
0.0191703
0.0192568
0.0192568
0.0191703
0.0192568
0.0191704
0.0191703
0.0192568
0.0192568
0.0191703
0.0192424
0.0192424
0.0192424
0.0190694
0.0190694
0.0190694
0.0190694
0.0191708
0.0192564