/*--------------------------------*- C++ -*----------------------------------*\
| =========                 |                                                 |
| \\      /  F ield         | OpenFOAM: The Open Source CFD Toolbox           |
|  \\    /   O peration     | Version:  v1906                                 |
|   \\  /    A nd           | Web:      www.OpenFOAM.com                      |
|    \\/     M anipulation  |                                                 |
\*---------------------------------------------------------------------------*/
FoamFile
{
    version     2.0;
    format      ascii;
    class       volScalarField;
    location    "200";
    object      nut;
}
// * * * * * * * * * * * * * * * * * * * * * * * * * * * * * * * * * * * * * //

dimensions      [0 2 -1 0 0 0 0];


internalField   nonuniform List<scalar> 
43248
(
0.000125853
0.00012626
0.000126379
0.000125773
0.000126326
0.000126425
0.00012656
0.000126563
0.000125928
0.000126441
0.00012651
0.000125911
0.000113295
0.000113346
0.000113275
0.000113397
2.35146e-05
2.35131e-05
7.23077e-05
7.22808e-05
8.94114e-05
4.97833e-05
8.9524e-05
8.93912e-05
4.97873e-05
4.97832e-05
8.95274e-05
0.000113165
9.03666e-05
0.00012101
0.000120901
0.000113514
0.00011311
0.000126221
9.03847e-05
0.000121118
9.02235e-05
0.00012101
0.000113523
2.35143e-05
2.3511e-05
0.00012548
7.22978e-05
7.23154e-05
7.22252e-05
7.22578e-05
2.35153e-05
2.35123e-05
4.97851e-05
8.95862e-05
9.03441e-05
0.00012117
0.000113526
4.97841e-05
8.95818e-05
0.000121167
9.03931e-05
0.000113518
0.000113351
0.000126569
9.03587e-05
0.000121307
9.02041e-05
0.000121408
0.00011359
8.94512e-05
4.97834e-05
4.97804e-05
8.95488e-05
0.000113293
0.000126415
0.000121255
9.04155e-05
0.000121174
9.02669e-05
0.000113583
8.94309e-05
4.97852e-05
4.9775e-05
8.95609e-05
2.35132e-05
7.22959e-05
7.22976e-05
2.35133e-05
0.000113285
0.000121164
9.03322e-05
0.000121325
0.000113534
0.000113173
0.000126397
0.000121222
9.04152e-05
0.000121143
9.02568e-05
0.000113486
8.94129e-05
4.97777e-05
8.95268e-05
8.94039e-05
4.97843e-05
4.97737e-05
8.95211e-05
0.00012564
7.23316e-05
7.22928e-05
7.22725e-05
7.22352e-05
2.35147e-05
2.35117e-05
2.35131e-05
2.35102e-05
2.35131e-05
2.35111e-05
9.44903e-05
0.000107226
7.22929e-05
4.77021e-05
4.76972e-05
0.000107146
9.45564e-05
9.44821e-05
0.000107121
7.22583e-05
4.76977e-05
4.7687e-05
0.000107039
9.45416e-05
7.79359e-05
2.14193e-05
2.1417e-05
2.14177e-05
2.14147e-05
7.79524e-05
3.61259e-05
4.03673e-05
8.61634e-05
8.94725e-05
3.61239e-05
4.03693e-05
8.62076e-05
2.00327e-05
4.97839e-05
7.51646e-05
7.51383e-05
2.00348e-05
3.61263e-05
8.94735e-05
4.03718e-05
8.62564e-05
4.03698e-05
8.62235e-05
3.61282e-05
3.61287e-05
4.03675e-05
8.61873e-05
8.94681e-05
3.61268e-05
4.03695e-05
8.62328e-05
2.00343e-05
4.9787e-05
7.51991e-05
7.51689e-05
2.00363e-05
2.00352e-05
7.51419e-05
4.97823e-05
2.00332e-05
7.51726e-05
3.61288e-05
8.94813e-05
4.0372e-05
8.62854e-05
4.03701e-05
8.62419e-05
3.61309e-05
2.35125e-05
2.35128e-05
7.79313e-05
2.14139e-05
2.14167e-05
7.79114e-05
2.14158e-05
2.14186e-05
9.44479e-05
0.000107172
7.22747e-05
4.76915e-05
0.000107123
4.76928e-05
9.45187e-05
9.45034e-05
0.000107531
7.2302e-05
4.77067e-05
4.7699e-05
0.000107478
9.45705e-05
9.44407e-05
4.76892e-05
0.000106951
7.2257e-05
0.000107044
9.44066e-05
4.76867e-05
9.44952e-05
4.76938e-05
0.000107299
7.22797e-05
9.44572e-05
4.77034e-05
0.00010744
7.79343e-05
2.14168e-05
2.14195e-05
2.14148e-05
2.14176e-05
7.79531e-05
2.35136e-05
2.3514e-05
2.00346e-05
4.9779e-05
7.52033e-05
7.51734e-05
2.00366e-05
3.61302e-05
8.95573e-05
8.63209e-05
4.03736e-05
8.62805e-05
4.03718e-05
3.61321e-05
2.00333e-05
4.97781e-05
7.51824e-05
7.51549e-05
2.00354e-05
3.61277e-05
8.95411e-05
4.03735e-05
8.63142e-05
4.03715e-05
8.62652e-05
3.61299e-05
3.61291e-05
8.62203e-05
4.03671e-05
8.95003e-05
3.61271e-05
8.62645e-05
4.03689e-05
2.00345e-05
4.9784e-05
7.51955e-05
7.51712e-05
2.00365e-05
2.00355e-05
7.51411e-05
4.97793e-05
2.00335e-05
7.51725e-05
3.61294e-05
8.95021e-05
8.62996e-05
4.03711e-05
8.62636e-05
4.03694e-05
3.6131e-05
3.61276e-05
4.03674e-05
8.62246e-05
8.95072e-05
3.61257e-05
4.03693e-05
8.62655e-05
2.0034e-05
4.97802e-05
7.52007e-05
7.51703e-05
2.0036e-05
2.00349e-05
7.51435e-05
4.9782e-05
2.00329e-05
7.51731e-05
3.61281e-05
8.9512e-05
4.03718e-05
8.6313e-05
4.03697e-05
8.62854e-05
3.61299e-05
2.35115e-05
9.45323e-05
0.000107259
7.22833e-05
4.76973e-05
0.000107245
4.76913e-05
9.45786e-05
9.45006e-05
0.000107335
7.22811e-05
4.77045e-05
4.77057e-05
0.00010728
9.45712e-05
7.79506e-05
2.14168e-05
2.14201e-05
2.1415e-05
2.14183e-05
7.79651e-05
2.35117e-05
3.61259e-05
8.6176e-05
4.03658e-05
8.94804e-05
3.61238e-05
8.62293e-05
4.03677e-05
2.0033e-05
4.97785e-05
7.51669e-05
7.51448e-05
2.00349e-05
2.0034e-05
7.51435e-05
3.61257e-05
8.94892e-05
8.62717e-05
4.03702e-05
8.62345e-05
4.03682e-05
3.61279e-05
3.6128e-05
8.61675e-05
4.03661e-05
8.94648e-05
3.6126e-05
8.62167e-05
4.03681e-05
2.00339e-05
4.97788e-05
7.51731e-05
7.5148e-05
2.0036e-05
2.0035e-05
7.51229e-05
4.9781e-05
2.00329e-05
7.51511e-05
3.61281e-05
8.94965e-05
8.62529e-05
4.03706e-05
8.62117e-05
4.03687e-05
3.613e-05
7.79578e-05
2.14177e-05
2.14144e-05
7.79377e-05
2.14197e-05
2.14164e-05
9.45356e-05
0.0001074
7.2314e-05
4.77085e-05
0.000107345
4.77017e-05
9.46103e-05
9.45393e-05
0.000107348
7.22741e-05
4.76966e-05
0.000107296
4.76953e-05
9.46108e-05
9.45299e-05
4.76987e-05
0.000107178
7.22935e-05
9.44843e-05
0.000107285
4.77046e-05
9.45334e-05
4.76917e-05
0.000107109
7.2258e-05
9.44965e-05
0.000107226
4.76894e-05
7.79627e-05
2.14207e-05
2.14174e-05
2.14187e-05
2.14155e-05
7.79789e-05
2.3513e-05
2.35134e-05
2.35114e-05
2.35118e-05
0.000113518
0.000125718
0.000120626
0.000120814
0.000120636
0.000120667
0.000113629
0.00011333
0.000125721
0.000120713
0.000120716
0.000120622
0.000120718
0.000113418
0.000113441
0.000125799
0.000120864
0.000120774
0.000120789
0.00012067
0.000113536
0.000113561
0.000125882
0.000120971
0.000120888
0.000120877
0.000120785
0.000113673
0.00011604
0.000116122
0.000116498
0.000132958
0.000132639
0.000113388
0.000116041
0.000116083
0.00011627
0.000116331
0.000132839
0.000132522
0.00011602
0.000116008
0.000116369
0.00013285
0.000132524
0.000113427
0.000116067
0.000116062
0.000116297
0.0001163
0.000132837
0.000132515
0.000121596
0.000110509
0.000122192
0.000113343
0.000121515
0.000110689
0.000122311
0.000118864
0.000114177
9.03177e-05
0.00010249
0.000114001
0.000102418
0.00011902
0.000121917
0.000113419
0.000110825
0.000122357
0.000110764
0.000122474
0.000121981
0.000122193
0.000110647
0.000122181
0.000113347
0.00012211
0.00011078
0.000122323
0.000119092
0.000114125
9.03488e-05
0.000102578
0.000102521
0.000113965
0.000119172
0.00011875
0.000102342
0.000113821
9.03049e-05
0.000118792
0.000102448
0.000113853
0.000122462
0.000113372
0.000110932
0.000122786
0.000110884
0.000122667
0.000122375
0.000113317
0.000125541
0.000120426
0.000120503
0.000120518
0.000113222
0.000120561
0.000119081
0.000114216
9.03111e-05
0.000102556
0.000114082
0.000102499
0.000119152
0.000122363
0.000113473
0.000111001
0.000122893
0.00011093
0.000122789
0.000122472
0.000119087
0.000114222
9.03445e-05
0.000102576
0.00010251
0.00011422
0.000119189
0.000122357
0.000113431
0.000122843
0.000110956
0.000122724
0.000110893
0.00012245
0.000122394
0.000110848
0.000122567
0.000113496
0.000122244
0.000110962
0.000122705
0.00011934
0.00011462
9.03161e-05
0.000102521
0.000114465
0.000102467
0.00011936
0.000119266
0.000102329
0.000114351
9.02752e-05
0.000119141
0.000114451
0.000102425
0.000122508
0.000113503
0.000111102
0.00012266
0.000110934
0.00012278
0.000122622
0.000122143
0.000122468
0.000110708
0.000113432
0.0001221
0.000122606
0.000110885
0.000119159
0.00011418
9.03798e-05
0.00010265
0.000102563
0.000114163
0.00011932
0.000118804
0.000102407
0.000113925
9.03352e-05
0.000118865
0.000102516
0.000113986
0.000122457
0.000113457
0.000122832
0.000111023
0.000122629
0.000110958
0.000122511
0.000122172
0.000122332
0.000110742
0.00011343
0.000122037
0.000122262
0.000110859
0.000119025
0.000114379
9.02815e-05
0.000102473
0.000114207
0.000102399
0.000119191
0.000118909
0.000102353
0.000122282
0.000113424
0.000122818
0.000110941
0.000122691
0.000110843
0.000122393
0.000122274
0.00012229
0.000110658
0.000113343
0.000122215
0.000122216
0.000110794
0.000118998
0.000114251
9.03684e-05
0.00010251
0.000102453
0.000114233
0.000119122
0.000118844
0.000102308
0.000114045
9.03406e-05
0.000118843
0.00010242
0.000114102
0.00012253
0.00011338
0.000122855
0.000110932
0.000122725
0.000110852
0.000122426
0.000113526
0.000125698
0.000120553
0.000120525
0.000113463
0.000120715
0.00012048
0.000150036
0.000101435
0.000101438
8.22296e-05
8.25729e-05
0.000102203
0.000102192
8.2628e-05
0.000102238
0.000102193
0.00010223
0.000102214
8.26509e-05
0.000102231
0.000102239
8.28089e-05
8.23682e-05
8.21037e-05
0.000101416
0.000101394
9.92409e-05
9.92271e-05
8.23394e-05
8.20962e-05
0.000101425
0.000101397
9.92762e-05
9.92298e-05
0.000101415
9.92648e-05
9.92495e-05
8.23747e-05
8.21586e-05
0.000101441
9.92653e-05
9.92731e-05
8.2296e-05
0.000151078
0.000151069
0.000151068
0.000151078
6.99878e-05
4.95532e-05
6.9096e-05
4.95652e-05
2.363e-05
2.36266e-05
7.00156e-05
4.95496e-05
6.9091e-05
4.95638e-05
0.000150033
0.000150031
0.00015004
0.000146975
0.000146968
0.000146964
0.000146976
6.69647e-05
6.57267e-05
0.000125979
0.000100686
6.60194e-05
6.63571e-05
0.000124955
2.36277e-05
2.36243e-05
6.69853e-05
0.000125985
6.56936e-05
0.000100686
6.60266e-05
0.000124959
6.63957e-05
6.11006e-05
6.10981e-05
8.25461e-05
6.14517e-05
6.14512e-05
2.3633e-05
2.36366e-05
2.36319e-05
2.36354e-05
8.2826e-05
6.09551e-05
6.0958e-05
6.05874e-05
6.05962e-05
6.79296e-05
4.95507e-05
4.95447e-05
6.88931e-05
6.79381e-05
4.95566e-05
4.95433e-05
6.88942e-05
6.4595e-05
0.000103042
6.53987e-05
0.000126981
6.47031e-05
0.000128023
6.55657e-05
6.46185e-05
0.000103006
6.5428e-05
0.000126979
6.47186e-05
0.00012802
6.55812e-05
2.3633e-05
2.36366e-05
8.2677e-05
6.09485e-05
6.09384e-05
6.06183e-05
6.06089e-05
2.36332e-05
2.36368e-05
6.79225e-05
4.95525e-05
4.95417e-05
6.89069e-05
6.45949e-05
0.000103038
6.54032e-05
0.000126983
6.4718e-05
0.00012803
6.55753e-05
6.79401e-05
4.95441e-05
4.95392e-05
6.88999e-05
6.46689e-05
0.000103009
0.000126982
6.53626e-05
0.000128022
6.47488e-05
6.55563e-05
6.46659e-05
0.000103044
6.53774e-05
0.000126978
6.47466e-05
0.000128019
6.55501e-05
6.7953e-05
4.95513e-05
4.95456e-05
6.88899e-05
6.46287e-05
0.000103031
0.000126985
6.53867e-05
0.000128026
6.47392e-05
6.55622e-05
6.79353e-05
4.9552e-05
4.95375e-05
6.88861e-05
2.36307e-05
2.36342e-05
8.27894e-05
6.0953e-05
6.0959e-05
6.05874e-05
6.05955e-05
2.36324e-05
2.36359e-05
6.46582e-05
0.000103046
0.00012699
6.54186e-05
0.000128029
6.47e-05
6.55471e-05
6.46167e-05
0.000103057
0.000126997
6.54123e-05
0.000128037
6.47091e-05
6.55489e-05
6.79364e-05
4.95512e-05
4.95362e-05
6.89062e-05
6.79216e-05
4.95525e-05
4.95379e-05
6.89207e-05
8.26437e-05
6.09602e-05
6.09602e-05
6.05979e-05
6.05948e-05
2.36324e-05
2.36359e-05
2.36317e-05
2.36351e-05
2.363e-05
2.36266e-05
2.36289e-05
2.36256e-05
6.10938e-05
6.11016e-05
8.22876e-05
6.14375e-05
6.1452e-05
2.36202e-05
2.36236e-05
2.36196e-05
2.36226e-05
8.21081e-05
6.19163e-05
6.19141e-05
6.15868e-05
6.15865e-05
7.00058e-05
4.95531e-05
6.91032e-05
4.95675e-05
6.698e-05
6.57073e-05
0.000125982
0.000100662
6.59956e-05
6.64063e-05
0.000124955
6.69875e-05
6.5703e-05
0.000125973
0.000100649
6.59991e-05
6.6408e-05
0.000124948
7.02004e-05
4.95753e-05
4.95618e-05
7.10226e-05
7.01953e-05
4.95774e-05
4.95639e-05
7.10434e-05
6.74361e-05
9.99328e-05
6.73133e-05
0.000122964
6.66619e-05
0.00012397
6.84614e-05
6.74358e-05
9.99087e-05
6.73149e-05
0.000122956
6.66691e-05
0.000123961
6.84503e-05
6.11191e-05
6.11109e-05
8.23594e-05
6.14419e-05
6.14329e-05
2.36302e-05
2.36268e-05
2.36204e-05
2.36236e-05
8.20035e-05
6.19099e-05
6.19027e-05
6.16043e-05
6.15957e-05
2.36206e-05
2.36238e-05
6.69785e-05
6.57134e-05
0.000125987
0.000100694
6.59888e-05
6.63884e-05
0.000124955
7.00055e-05
4.95504e-05
6.9099e-05
4.95548e-05
6.69788e-05
0.000125976
6.57324e-05
0.00010065
6.60191e-05
0.000124953
6.63423e-05
7.0182e-05
4.95739e-05
4.95605e-05
7.1055e-05
6.74372e-05
9.99402e-05
6.73042e-05
0.000122964
6.66752e-05
0.000123976
6.84457e-05
7.01917e-05
4.95652e-05
4.95611e-05
7.10353e-05
6.74472e-05
9.99108e-05
0.000122962
6.73383e-05
0.000123965
6.66947e-05
6.84596e-05
7.00019e-05
4.95531e-05
6.91111e-05
4.95657e-05
6.69729e-05
0.000125983
6.5721e-05
0.000100671
6.60006e-05
0.000124958
6.63927e-05
6.99985e-05
4.95488e-05
6.91009e-05
4.95627e-05
6.74567e-05
9.99514e-05
6.73284e-05
0.000122967
6.66869e-05
0.000123968
6.84446e-05
7.02005e-05
4.95761e-05
4.95624e-05
7.10293e-05
6.74463e-05
9.99302e-05
0.000122967
6.73326e-05
0.000123972
6.66759e-05
6.84314e-05
7.01933e-05
4.95721e-05
4.95593e-05
7.10389e-05
6.10929e-05
6.10993e-05
8.2307e-05
6.14482e-05
6.14533e-05
2.36292e-05
2.3626e-05
2.36181e-05
2.36213e-05
8.20983e-05
6.19159e-05
6.19204e-05
6.15787e-05
6.15839e-05
2.36197e-05
2.36229e-05
6.69773e-05
0.000125993
6.57028e-05
0.000100695
6.60209e-05
0.000124968
6.63712e-05
7.0029e-05
4.95477e-05
6.90994e-05
4.9562e-05
7.00181e-05
4.95491e-05
6.9088e-05
4.9563e-05
6.74495e-05
9.99534e-05
0.000122968
6.73376e-05
0.000123982
6.66569e-05
6.84368e-05
6.74524e-05
9.99555e-05
0.000122976
6.73071e-05
0.000123982
6.66863e-05
6.84263e-05
7.01851e-05
4.9572e-05
4.95583e-05
7.10595e-05
7.01911e-05
4.95731e-05
4.95596e-05
7.10519e-05
2.36293e-05
2.36259e-05
2.36285e-05
2.36253e-05
8.19281e-05
6.19209e-05
6.19207e-05
6.15864e-05
6.1585e-05
2.36197e-05
2.36229e-05
2.36191e-05
2.36222e-05
3.61959e-05
6.96556e-05
4.0352e-05
7.10804e-05
4.034e-05
7.07665e-05
3.6199e-05
2.02174e-05
6.8317e-05
4.95584e-05
2.02169e-05
6.8456e-05
3.61958e-05
6.94578e-05
4.03335e-05
7.03616e-05
3.61926e-05
4.03452e-05
7.06821e-05
2.0214e-05
6.86242e-05
4.95559e-05
6.84888e-05
2.02145e-05
2.36297e-05
2.36268e-05
3.61976e-05
6.96468e-05
7.11004e-05
4.03516e-05
7.07686e-05
4.03396e-05
3.62007e-05
2.02188e-05
6.83443e-05
4.95585e-05
2.02184e-05
6.84765e-05
3.61974e-05
6.94734e-05
7.03626e-05
4.03331e-05
3.61942e-05
7.07044e-05
4.03448e-05
2.02155e-05
6.86417e-05
4.95552e-05
6.85202e-05
2.02158e-05
2.36274e-05
2.36245e-05
7.08376e-05
2.15529e-05
2.155e-05
2.15528e-05
2.15499e-05
7.09687e-05
7.39152e-05
7.09474e-05
4.71478e-05
6.12081e-05
7.37234e-05
7.11735e-05
4.71618e-05
7.39601e-05
7.09524e-05
4.71393e-05
6.1208e-05
7.378e-05
7.1201e-05
4.71531e-05
7.08005e-05
2.15561e-05
2.15532e-05
7.06668e-05
2.15562e-05
2.15533e-05
7.41551e-05
4.71742e-05
6.1346e-05
7.1806e-05
7.15756e-05
4.71607e-05
7.434e-05
7.4204e-05
4.71657e-05
6.13442e-05
7.18235e-05
7.15766e-05
4.71523e-05
7.43809e-05
2.36333e-05
2.36363e-05
2.36321e-05
2.36352e-05
7.04477e-05
2.15634e-05
2.15595e-05
7.03086e-05
2.15635e-05
2.15596e-05
7.33189e-05
7.05395e-05
6.08409e-05
4.71455e-05
4.71403e-05
7.03129e-05
7.34475e-05
7.33549e-05
7.05672e-05
6.08491e-05
4.71377e-05
4.71262e-05
7.03361e-05
7.35178e-05
7.29937e-05
4.71264e-05
6.96721e-05
6.07016e-05
7.28784e-05
4.7132e-05
6.98993e-05
7.30476e-05
4.71158e-05
6.97061e-05
6.07053e-05
7.29208e-05
4.7122e-05
6.9904e-05
7.04914e-05
2.15601e-05
2.15563e-05
2.15601e-05
2.15562e-05
7.06245e-05
3.61889e-05
4.03218e-05
6.95074e-05
6.83135e-05
3.61856e-05
4.03316e-05
6.98586e-05
2.02197e-05
4.95505e-05
6.8283e-05
2.02203e-05
6.81394e-05
2.02232e-05
6.7955e-05
4.95446e-05
2.02226e-05
6.81047e-05
3.61891e-05
6.85271e-05
4.03388e-05
7.02738e-05
3.61924e-05
4.03266e-05
6.99408e-05
3.61907e-05
4.03221e-05
6.95199e-05
6.83116e-05
3.61875e-05
4.03318e-05
6.98739e-05
2.02208e-05
4.95472e-05
6.83066e-05
6.81714e-05
2.02212e-05
2.02241e-05
6.79886e-05
4.95499e-05
2.02237e-05
6.81266e-05
3.6191e-05
6.85318e-05
4.03389e-05
7.03009e-05
4.03269e-05
6.99517e-05
3.61942e-05
2.36332e-05
2.36363e-05
7.04477e-05
2.15604e-05
2.15627e-05
7.03087e-05
2.15605e-05
2.15628e-05
7.3345e-05
7.05558e-05
6.08679e-05
4.71405e-05
7.03123e-05
4.71265e-05
7.34916e-05
7.33134e-05
7.05354e-05
6.08589e-05
4.71436e-05
4.71392e-05
7.03289e-05
7.34538e-05
7.30693e-05
4.71128e-05
6.96776e-05
6.06969e-05
6.9925e-05
7.29029e-05
4.71268e-05
7.3004e-05
4.71251e-05
6.96921e-05
6.06884e-05
7.28684e-05
4.71303e-05
6.98876e-05
7.04933e-05
2.15572e-05
2.15594e-05
2.15571e-05
2.15594e-05
7.06236e-05
2.36335e-05
2.36365e-05
3.61905e-05
6.95065e-05
4.03218e-05
6.83299e-05
3.61873e-05
6.9881e-05
4.0331e-05
2.02212e-05
4.95442e-05
6.83086e-05
2.02217e-05
6.81612e-05
2.02246e-05
6.79748e-05
4.9545e-05
2.02241e-05
6.81308e-05
3.61908e-05
6.85215e-05
7.02952e-05
4.03382e-05
3.6194e-05
6.99409e-05
4.03265e-05
3.61881e-05
4.0326e-05
6.9507e-05
6.83165e-05
3.61849e-05
4.03267e-05
6.98551e-05
2.02193e-05
4.95452e-05
6.82745e-05
6.81402e-05
2.02198e-05
2.02227e-05
6.795e-05
4.95386e-05
2.02222e-05
6.81023e-05
3.61884e-05
6.85281e-05
4.0332e-05
7.02827e-05
4.03334e-05
6.99366e-05
3.61915e-05
3.6191e-05
6.95215e-05
4.03251e-05
6.83009e-05
3.61879e-05
6.98722e-05
4.03275e-05
2.02215e-05
4.95513e-05
6.83028e-05
6.81719e-05
2.02219e-05
2.02248e-05
6.79875e-05
4.95452e-05
2.02244e-05
6.81241e-05
3.61914e-05
6.85416e-05
7.03004e-05
4.03326e-05
6.99511e-05
4.03327e-05
3.61944e-05
3.61892e-05
4.03216e-05
6.95074e-05
6.83103e-05
3.61859e-05
4.0331e-05
6.98662e-05
2.02206e-05
4.95428e-05
6.82915e-05
6.8143e-05
2.02211e-05
2.02239e-05
6.79582e-05
4.95464e-05
2.02234e-05
6.8113e-05
3.61894e-05
6.85296e-05
4.03381e-05
7.02918e-05
4.03263e-05
6.99374e-05
3.61926e-05
2.36309e-05
2.3634e-05
7.0447e-05
2.15592e-05
2.15625e-05
7.03117e-05
2.15593e-05
2.15626e-05
7.33391e-05
7.05425e-05
6.08397e-05
4.71376e-05
7.03208e-05
4.7125e-05
7.35077e-05
7.33008e-05
7.05327e-05
6.0847e-05
4.71489e-05
4.71351e-05
7.03295e-05
7.34685e-05
7.30684e-05
4.71156e-05
6.96807e-05
6.07002e-05
6.99128e-05
7.28969e-05
4.71217e-05
7.30293e-05
4.71215e-05
6.96931e-05
6.07073e-05
7.28558e-05
4.71353e-05
6.98932e-05
7.04937e-05
2.1556e-05
2.15593e-05
2.15559e-05
2.15592e-05
7.06241e-05
2.36325e-05
2.36357e-05
3.61891e-05
6.95097e-05
4.03254e-05
6.833e-05
3.6186e-05
6.98691e-05
4.03273e-05
2.02204e-05
4.95418e-05
6.82891e-05
6.81414e-05
2.02209e-05
2.02238e-05
6.79574e-05
4.95455e-05
2.02233e-05
6.81104e-05
3.61895e-05
6.85244e-05
7.02994e-05
4.03325e-05
6.9938e-05
4.03331e-05
3.61925e-05
3.61911e-05
6.95195e-05
4.03221e-05
6.83412e-05
3.61879e-05
6.98771e-05
4.03308e-05
2.02216e-05
4.95434e-05
6.82994e-05
6.81691e-05
2.0222e-05
2.02249e-05
6.79834e-05
4.95468e-05
2.02245e-05
6.81207e-05
3.61914e-05
6.85157e-05
7.0297e-05
4.0338e-05
6.99472e-05
4.03266e-05
3.61946e-05
7.04503e-05
2.15627e-05
2.15598e-05
7.03076e-05
2.15629e-05
2.15599e-05
7.32893e-05
7.05502e-05
6.08499e-05
4.71485e-05
7.34782e-05
7.03294e-05
4.71345e-05
7.33474e-05
7.05636e-05
6.0847e-05
4.71395e-05
7.35091e-05
7.03317e-05
4.71262e-05
7.30382e-05
4.7121e-05
6.97023e-05
6.0707e-05
7.2845e-05
6.98916e-05
4.7135e-05
7.30535e-05
4.71164e-05
6.97068e-05
6.0706e-05
7.29061e-05
6.99062e-05
4.71236e-05
7.0491e-05
2.15595e-05
2.15566e-05
7.06277e-05
2.15594e-05
2.15565e-05
2.36325e-05
2.36356e-05
2.36318e-05
2.3635e-05
2.36298e-05
2.36268e-05
2.36288e-05
2.36257e-05
7.08392e-05
2.15535e-05
2.15497e-05
2.15535e-05
2.15496e-05
7.09642e-05
7.38744e-05
7.09497e-05
4.71534e-05
6.1208e-05
7.37563e-05
4.71583e-05
7.11672e-05
7.39467e-05
7.09517e-05
4.71379e-05
6.12093e-05
7.37819e-05
4.71519e-05
7.12017e-05
7.07958e-05
2.15568e-05
2.15529e-05
7.06688e-05
2.15568e-05
2.1553e-05
7.41879e-05
4.71708e-05
6.13367e-05
7.18129e-05
4.71666e-05
7.43075e-05
7.15745e-05
7.42105e-05
4.71646e-05
6.13454e-05
7.18241e-05
4.71511e-05
7.43717e-05
7.15775e-05
2.36205e-05
2.36235e-05
2.36195e-05
2.36225e-05
7.11289e-05
2.15502e-05
2.15463e-05
7.10058e-05
2.15501e-05
2.15469e-05
7.50032e-05
7.30493e-05
6.18139e-05
4.71903e-05
4.71899e-05
7.28225e-05
7.51606e-05
7.50123e-05
7.30628e-05
6.18129e-05
4.71931e-05
4.71773e-05
7.28217e-05
7.52236e-05
7.47465e-05
4.71788e-05
7.21923e-05
6.16893e-05
7.45926e-05
4.71823e-05
7.24342e-05
7.48151e-05
4.71635e-05
7.2206e-05
6.16888e-05
7.46256e-05
4.71773e-05
7.2439e-05
7.1166e-05
2.15462e-05
2.1544e-05
2.15465e-05
2.15437e-05
7.12843e-05
3.61978e-05
6.966e-05
4.03523e-05
7.11055e-05
4.03402e-05
7.07739e-05
3.62009e-05
2.02184e-05
6.83401e-05
4.95622e-05
2.02179e-05
6.84841e-05
3.61976e-05
6.94605e-05
4.03337e-05
7.03662e-05
4.03456e-05
3.61945e-05
7.07086e-05
2.0215e-05
6.86526e-05
4.95585e-05
6.85142e-05
2.02155e-05
3.6202e-05
4.0347e-05
7.11554e-05
7.05104e-05
3.61992e-05
4.03589e-05
7.14616e-05
2.02079e-05
4.95667e-05
6.89453e-05
6.88157e-05
2.02084e-05
2.02113e-05
6.86547e-05
4.95706e-05
2.02111e-05
6.87869e-05
3.6202e-05
7.07227e-05
4.03656e-05
7.18351e-05
4.03537e-05
7.1536e-05
3.62049e-05
3.6204e-05
4.03472e-05
7.11629e-05
7.05336e-05
3.6201e-05
4.03592e-05
7.14889e-05
2.02092e-05
4.95689e-05
6.89728e-05
6.88429e-05
2.02097e-05
2.02126e-05
6.86812e-05
4.95727e-05
2.02121e-05
6.88153e-05
3.62041e-05
7.07122e-05
4.03659e-05
7.18674e-05
4.0354e-05
7.15413e-05
3.6207e-05
7.08404e-05
2.15506e-05
2.15529e-05
2.15505e-05
2.15528e-05
7.09645e-05
7.39276e-05
7.09534e-05
4.71401e-05
6.11991e-05
4.71536e-05
7.37962e-05
7.11858e-05
7.38862e-05
7.09519e-05
4.71523e-05
6.11892e-05
7.117e-05
7.3752e-05
4.71565e-05
7.07961e-05
2.15538e-05
2.15561e-05
2.15539e-05
7.06688e-05
2.15561e-05
7.42227e-05
4.71662e-05
6.1365e-05
7.18125e-05
4.71528e-05
7.15866e-05
7.43568e-05
7.4182e-05
4.71691e-05
6.1357e-05
7.17975e-05
7.158e-05
4.71652e-05
7.43179e-05
2.36299e-05
2.3627e-05
2.36206e-05
2.36235e-05
7.11276e-05
2.15472e-05
2.15495e-05
7.10082e-05
2.15473e-05
2.15496e-05
7.50383e-05
7.30539e-05
6.18376e-05
4.71902e-05
7.28356e-05
4.7177e-05
7.52093e-05
7.50249e-05
7.30396e-05
6.18265e-05
4.7193e-05
4.71897e-05
7.28323e-05
7.51344e-05
7.4803e-05
4.71652e-05
7.22125e-05
6.16804e-05
7.24339e-05
7.46368e-05
4.71784e-05
7.47201e-05
4.71775e-05
7.22039e-05
6.16727e-05
7.46036e-05
4.71813e-05
7.24186e-05
7.11703e-05
2.15441e-05
2.15464e-05
2.1544e-05
2.15463e-05
7.1287e-05
2.36207e-05
2.36237e-05
3.61952e-05
6.96573e-05
4.0345e-05
7.10888e-05
4.03464e-05
7.07558e-05
3.61981e-05
2.02169e-05
6.83186e-05
4.95495e-05
2.02164e-05
6.84471e-05
3.61948e-05
6.94625e-05
4.03397e-05
7.03528e-05
4.03383e-05
3.61919e-05
7.06884e-05
2.02136e-05
6.86145e-05
4.9556e-05
6.84928e-05
2.0214e-05
3.62038e-05
7.11594e-05
4.03466e-05
7.05483e-05
3.62008e-05
7.14829e-05
4.03584e-05
2.02097e-05
4.95656e-05
6.89612e-05
6.88489e-05
2.021e-05
2.02129e-05
6.86871e-05
4.95688e-05
2.02126e-05
6.88039e-05
3.62039e-05
7.07011e-05
7.18537e-05
4.03652e-05
7.15405e-05
4.03533e-05
3.62068e-05
3.62012e-05
4.0353e-05
7.11475e-05
7.05311e-05
3.61984e-05
4.03518e-05
7.14714e-05
2.02077e-05
4.95664e-05
6.89345e-05
6.88216e-05
2.02082e-05
2.02111e-05
6.8659e-05
4.95601e-05
2.02107e-05
6.87771e-05
3.62015e-05
7.07117e-05
4.03587e-05
7.18446e-05
4.03599e-05
7.15249e-05
3.62041e-05
3.61982e-05
6.96704e-05
7.11129e-05
4.0345e-05
7.077e-05
4.03465e-05
3.6201e-05
2.0219e-05
6.83494e-05
4.95591e-05
6.84757e-05
2.02186e-05
3.61978e-05
6.94518e-05
7.03641e-05
4.03399e-05
7.07087e-05
3.61948e-05
4.03384e-05
2.02157e-05
6.86434e-05
4.9557e-05
6.8522e-05
2.02161e-05
3.61961e-05
6.96577e-05
4.03515e-05
7.10972e-05
4.03395e-05
7.07579e-05
3.61993e-05
2.02181e-05
6.83214e-05
4.95575e-05
2.02177e-05
6.84644e-05
3.6196e-05
6.94549e-05
4.0333e-05
7.03534e-05
3.61928e-05
4.03448e-05
7.07014e-05
2.02147e-05
6.86324e-05
4.9554e-05
6.84944e-05
2.02152e-05
3.62042e-05
7.11578e-05
4.03531e-05
7.05202e-05
3.62014e-05
7.14924e-05
4.03518e-05
2.02099e-05
4.95675e-05
6.89632e-05
6.8851e-05
2.02103e-05
2.02132e-05
6.86891e-05
4.95711e-05
2.02128e-05
6.88059e-05
3.62045e-05
7.07234e-05
7.18637e-05
4.03587e-05
7.15369e-05
4.03599e-05
3.62072e-05
3.62024e-05
4.03465e-05
7.1149e-05
7.05266e-05
3.61993e-05
4.03583e-05
7.14821e-05
2.02089e-05
4.95644e-05
6.89522e-05
6.88227e-05
2.02093e-05
2.02123e-05
6.86608e-05
4.95677e-05
2.02118e-05
6.87949e-05
3.62024e-05
7.071e-05
4.0365e-05
7.18536e-05
4.03532e-05
7.15281e-05
3.62053e-05
7.08418e-05
2.15494e-05
2.15527e-05
2.15493e-05
2.15526e-05
7.09647e-05
7.39409e-05
7.09523e-05
4.71376e-05
6.12051e-05
4.71514e-05
7.37781e-05
7.11847e-05
7.39077e-05
7.09582e-05
4.71485e-05
6.12102e-05
7.11837e-05
7.3738e-05
4.71621e-05
7.07967e-05
2.15525e-05
2.15559e-05
2.15526e-05
7.067e-05
2.1556e-05
7.42074e-05
4.71642e-05
6.13374e-05
7.18073e-05
4.71507e-05
7.15836e-05
7.43677e-05
7.41614e-05
4.71745e-05
6.13432e-05
7.18105e-05
7.15801e-05
4.7161e-05
7.43399e-05
2.36292e-05
2.3626e-05
2.36183e-05
2.36211e-05
7.11285e-05
2.1546e-05
2.15493e-05
7.10081e-05
2.15461e-05
2.15494e-05
7.50422e-05
7.30542e-05
6.18072e-05
4.71882e-05
7.28288e-05
4.71751e-05
7.52079e-05
7.49925e-05
7.30487e-05
6.18135e-05
4.71957e-05
4.7188e-05
7.28326e-05
7.51713e-05
7.47913e-05
4.71631e-05
7.22075e-05
6.16853e-05
7.24348e-05
7.46303e-05
4.71764e-05
7.4763e-05
4.71734e-05
7.22081e-05
6.16897e-05
7.45803e-05
4.7186e-05
7.24169e-05
7.117e-05
2.15429e-05
2.15462e-05
2.15428e-05
2.15461e-05
7.12888e-05
2.36198e-05
2.36228e-05
3.61962e-05
6.965e-05
7.11006e-05
4.03451e-05
7.07568e-05
4.03465e-05
3.61991e-05
2.0218e-05
6.83198e-05
4.95568e-05
6.84621e-05
2.02175e-05
3.61959e-05
6.94783e-05
7.03531e-05
4.03398e-05
7.0705e-05
3.61929e-05
4.03384e-05
2.02146e-05
6.86297e-05
4.9553e-05
6.84917e-05
2.0215e-05
3.61982e-05
6.96474e-05
7.11024e-05
4.03516e-05
7.07719e-05
4.03396e-05
3.62013e-05
2.02191e-05
6.83467e-05
4.95579e-05
2.02187e-05
6.84739e-05
3.6198e-05
6.94858e-05
7.03652e-05
4.0333e-05
3.61948e-05
7.07089e-05
4.03449e-05
2.02158e-05
6.86452e-05
4.95543e-05
6.85108e-05
2.02162e-05
3.62022e-05
7.11491e-05
4.0353e-05
7.05525e-05
3.61994e-05
7.14833e-05
4.03519e-05
2.02087e-05
4.95632e-05
6.89498e-05
6.88199e-05
2.02092e-05
2.02121e-05
6.86588e-05
4.95671e-05
2.02117e-05
6.87924e-05
3.62025e-05
7.07014e-05
7.18538e-05
4.03587e-05
7.15288e-05
4.03599e-05
3.62052e-05
3.62044e-05
7.11619e-05
4.03466e-05
7.0545e-05
3.62014e-05
7.14866e-05
4.03585e-05
2.02099e-05
4.95646e-05
6.89679e-05
6.88382e-05
2.02104e-05
2.02133e-05
6.86758e-05
4.95681e-05
2.02128e-05
6.881e-05
3.62045e-05
7.07104e-05
7.18549e-05
4.03652e-05
7.1542e-05
4.03534e-05
3.62073e-05
2.36291e-05
2.36261e-05
2.36284e-05
2.36253e-05
7.11326e-05
2.15495e-05
2.15466e-05
7.10044e-05
2.15497e-05
2.15467e-05
7.49917e-05
7.30506e-05
6.18165e-05
4.71982e-05
7.28201e-05
4.7185e-05
7.5171e-05
7.50349e-05
7.307e-05
6.18148e-05
4.71897e-05
7.28222e-05
4.71766e-05
7.52121e-05
7.47628e-05
4.71731e-05
7.22016e-05
6.16896e-05
7.45786e-05
7.24238e-05
4.71864e-05
7.48032e-05
4.71647e-05
7.22053e-05
6.1689e-05
7.46241e-05
7.24424e-05
4.71779e-05
7.11658e-05
2.15464e-05
2.15435e-05
2.15463e-05
2.15434e-05
7.12927e-05
2.36198e-05
2.36228e-05
2.36191e-05
2.36221e-05
0.000173128
0.000173142
0.000149021
0.000172279
0.00017229
0.000191514
0.000192211
7.41518e-05
7.25724e-05
7.25648e-05
8.26237e-05
7.38814e-05
7.28758e-05
7.29493e-05
7.32788e-05
8.2478e-05
7.24154e-05
7.25266e-05
7.22684e-05
7.22197e-05
7.34353e-05
7.32012e-05
8.24662e-05
7.23884e-05
7.23912e-05
7.2234e-05
7.22843e-05
7.34994e-05
7.32296e-05
8.25431e-05
7.23147e-05
7.24514e-05
7.23668e-05
7.22246e-05
7.34699e-05
7.32216e-05
8.24093e-05
7.24802e-05
7.2537e-05
7.34775e-05
7.21852e-05
7.21879e-05
7.40732e-05
7.26604e-05
7.25796e-05
8.24305e-05
7.39395e-05
7.27389e-05
7.29292e-05
7.5897e-05
8.19835e-05
7.40486e-05
7.41346e-05
7.40472e-05
7.39256e-05
7.60551e-05
7.41489e-05
7.26443e-05
7.26886e-05
8.24828e-05
7.27203e-05
7.38713e-05
7.28203e-05
7.58948e-05
8.19148e-05
7.40481e-05
7.40353e-05
7.39959e-05
7.40412e-05
7.60564e-05
7.41178e-05
7.27032e-05
7.26092e-05
8.24956e-05
7.28801e-05
7.39021e-05
7.27998e-05
7.58564e-05
8.19389e-05
7.41373e-05
7.42164e-05
7.39409e-05
7.38747e-05
7.61108e-05
7.58534e-05
8.17733e-05
7.39899e-05
7.41606e-05
7.39682e-05
7.38977e-05
7.60875e-05
0.000152098
0.000173991
0.000174002
0.000174843
0.000174857
0.000193616
0.000192919
0.000152094
0.000173987
0.000173997
0.00017484
0.000174849
0.000193613
0.000192917
0.000152094
0.000173987
0.000173999
0.000174841
0.000174854
0.000193613
0.000192916
0.000152103
0.000173989
0.000174004
0.000174842
0.000174858
0.000193613
0.000192916
0.000173125
0.000173135
0.000149013
0.000172276
0.000172286
0.000191512
0.000192209
0.000173125
0.000173139
0.00014901
0.000172275
0.000172287
0.000191511
0.000192208
0.000173127
0.000173143
0.000149022
0.000172277
0.000172292
0.000191512
0.000192209
0.000147984
0.000170572
0.000170582
0.000171418
0.000171432
0.000190805
0.000190107
0.000147982
0.000170569
0.00017058
0.000171416
0.000171426
0.000190803
0.000190105
0.000147979
0.000170567
0.00017058
0.000171415
0.000171429
0.000190802
0.000190103
0.000147988
0.000170571
0.000170585
0.000171418
0.000171433
0.000190802
0.000190104
7.25511e-05
6.67531e-05
6.86821e-05
7.49881e-05
6.84796e-05
7.51559e-05
7.29644e-05
6.88559e-05
6.83826e-05
6.79598e-05
6.58708e-05
6.84356e-05
6.86885e-05
6.82121e-05
7.28908e-05
6.6253e-05
6.77549e-05
7.52442e-05
7.24742e-05
6.79675e-05
7.50809e-05
6.88167e-05
6.88077e-05
6.62085e-05
6.92484e-05
6.8911e-05
6.85788e-05
6.92355e-05
7.25486e-05
6.67203e-05
7.52133e-05
6.87167e-05
7.49621e-05
6.84194e-05
7.29378e-05
6.88545e-05
6.84035e-05
6.7959e-05
6.59092e-05
6.8475e-05
6.86528e-05
6.82123e-05
7.28818e-05
6.62785e-05
7.50695e-05
6.77316e-05
7.24656e-05
7.53019e-05
6.80128e-05
6.88451e-05
6.8839e-05
6.6178e-05
6.92208e-05
6.89395e-05
6.85588e-05
6.9232e-05
7.45285e-05
8.2104e-05
7.32248e-05
7.33488e-05
7.30172e-05
7.29664e-05
7.4813e-05
7.27544e-05
8.29627e-05
7.1902e-05
7.1912e-05
7.26286e-05
7.20394e-05
7.20919e-05
7.27493e-05
6.63021e-05
7.54976e-05
6.48754e-05
7.23494e-05
6.66163e-05
7.54559e-05
6.81752e-05
6.80475e-05
6.52051e-05
6.75632e-05
6.78654e-05
6.73379e-05
6.85416e-05
6.8256e-05
6.67064e-05
6.73327e-05
6.49107e-05
6.75675e-05
6.78705e-05
6.69424e-05
7.24076e-05
6.52915e-05
6.73044e-05
7.52985e-05
6.70076e-05
7.52963e-05
7.27939e-05
7.27442e-05
6.63695e-05
7.5369e-05
6.48774e-05
7.23911e-05
6.655e-05
7.55093e-05
6.81519e-05
6.81251e-05