/*--------------------------------*- C++ -*----------------------------------*\
| =========                 |                                                 |
| \\      /  F ield         | OpenFOAM: The Open Source CFD Toolbox           |
|  \\    /   O peration     | Version:  v1906                                 |
|   \\  /    A nd           | Web:      www.OpenFOAM.com                      |
|    \\/     M anipulation  |                                                 |
\*---------------------------------------------------------------------------*/
FoamFile
{
    version     2.0;
    format      ascii;
    class       volScalarField;
    location    "375";
    object      epsilon;
}
// * * * * * * * * * * * * * * * * * * * * * * * * * * * * * * * * * * * * * //

dimensions      [0 2 -3 0 0 0 0];


internalField   nonuniform List<scalar> 
42840
(
3.43034e-07
8.97959e-07
8.98117e-07
1.17902e-06
3.59432e-07
9.20464e-07
9.20559e-07
1.19756e-06
3.7601e-07
9.41933e-07
9.4204e-07
1.21501e-06
3.92641e-07
9.62396e-07
9.62509e-07
1.2317e-06
4.09274e-07
9.81857e-07
9.81961e-07
1.24754e-06
4.25803e-07
1.00031e-06
1.0004e-06
1.26251e-06
4.42186e-07
1.01775e-06
1.01786e-06
1.27669e-06
4.58326e-07
1.03425e-06
1.03433e-06
1.29013e-06
4.74157e-07
1.04974e-06
1.04985e-06
1.30276e-06
4.8965e-07
1.06437e-06
1.06444e-06
1.31476e-06
5.0471e-07
1.07799e-06
1.0781e-06
1.32592e-06
5.1931e-07
1.09081e-06
1.09088e-06
1.33655e-06
5.33456e-07
1.10272e-06
1.10282e-06
1.34638e-06
5.46971e-07
1.11377e-06
1.11384e-06
1.35565e-06
5.60064e-07
1.12413e-06
1.12422e-06
1.36429e-06
5.72375e-07
1.13351e-06
1.13358e-06
1.37227e-06
5.84292e-07
1.14235e-06
1.14244e-06
1.37978e-06
5.95357e-07
1.1503e-06
1.15035e-06
1.38651e-06
6.05973e-07
1.15754e-06
1.15765e-06
1.39302e-06
6.15876e-07
1.16433e-06
1.16436e-06
1.39855e-06
6.24977e-07
1.16989e-06
1.16999e-06
1.40395e-06
6.33972e-07
1.17585e-06
1.17591e-06
1.40883e-06
6.41266e-07
1.17949e-06
1.17955e-06
1.41242e-06
6.49525e-07
1.18499e-06
1.18506e-06
1.41742e-06
6.55078e-07
1.18669e-06
1.18676e-06
1.41885e-06
6.62354e-07
1.19181e-06
1.19187e-06
1.42408e-06
1.17348e-06
8.92325e-07
8.92347e-07
1.17337e-06
8.9221e-07
8.92466e-07
8.92164e-07
8.92387e-07
1.17359e-06
8.9234e-07
8.92268e-07
1.17351e-06
1.17896e-06
1.19209e-06
8.98098e-07
8.98138e-07
9.15054e-07
9.15107e-07
1.17887e-06
1.19205e-06
8.97988e-07
8.9824e-07
9.14933e-07
9.15149e-07
8.98201e-07
9.1494e-07
9.15226e-07
1.17908e-06
1.19215e-06
8.98082e-07
9.15039e-07
9.15104e-07
1.19228e-06
1.19738e-06
1.20987e-06
9.20589e-07
9.2063e-07
9.36815e-07
9.36828e-07
1.19734e-06
1.20977e-06
9.20473e-07
9.20668e-07
9.36694e-07
9.36873e-07
9.20746e-07
9.3666e-07
9.36885e-07
1.19743e-06
1.20988e-06
9.20625e-07
9.36762e-07
9.36767e-07
1.20993e-06
1.21497e-06
1.22671e-06
9.4209e-07
9.42102e-07
9.57514e-07
9.57534e-07
1.21487e-06
1.22663e-06
9.41977e-07
9.42152e-07
9.57397e-07
9.57591e-07
9.4215e-07
9.57371e-07
9.57593e-07
1.21498e-06
1.22675e-06
9.42033e-07
9.57486e-07
9.5748e-07
1.22678e-06
1.23162e-06
1.24271e-06
9.62531e-07
9.62556e-07
9.77222e-07
9.77247e-07
1.23155e-06
1.24264e-06
9.6242e-07
9.62611e-07
9.77104e-07
9.77292e-07
9.62627e-07
9.77092e-07
9.77319e-07
1.23166e-06
1.24275e-06
9.62513e-07
9.77195e-07
9.77206e-07
1.2428e-06
1.24745e-06
1.25787e-06
9.81989e-07
9.82012e-07
9.95908e-07
9.95932e-07
1.24738e-06
1.25779e-06
9.81877e-07
9.82058e-07
9.95791e-07
9.95972e-07
9.82085e-07
9.95783e-07
9.96004e-07
1.24748e-06
1.2579e-06
9.81973e-07
9.95882e-07
9.95893e-07
1.25795e-06
1.26243e-06
1.27223e-06
1.00043e-06
1.00045e-06
1.01362e-06
1.01363e-06
1.26236e-06
1.27215e-06
1.00032e-06
1.00049e-06
1.0135e-06
1.01368e-06
1.00053e-06
1.01348e-06
1.01368e-06
1.26246e-06
1.27226e-06
1.00042e-06
1.01359e-06
1.01358e-06
1.2723e-06
1.27663e-06
1.2858e-06
1.01788e-06
1.0179e-06
1.03033e-06
1.03036e-06
1.27655e-06
1.28574e-06
1.01777e-06
1.01795e-06
1.03021e-06
1.03039e-06
1.01796e-06
1.03022e-06
1.03043e-06
1.27665e-06
1.28583e-06
1.01785e-06
1.03031e-06
1.03032e-06
1.28589e-06
1.29004e-06
1.29863e-06
1.03436e-06
1.03439e-06
1.04608e-06
1.04608e-06
1.28998e-06
1.29853e-06
1.03425e-06
1.03442e-06
1.04597e-06
1.04614e-06
1.03446e-06
1.04594e-06
1.04614e-06
1.29007e-06
1.29865e-06
1.03436e-06
1.04606e-06
1.04603e-06
1.29868e-06
1.30271e-06
1.31071e-06
1.04987e-06
1.04988e-06
1.0609e-06
1.06095e-06
1.30262e-06
1.31067e-06
1.04976e-06
1.04993e-06
1.06078e-06
1.06095e-06
1.04994e-06
1.06081e-06
1.06101e-06
1.30273e-06
1.31074e-06
1.04984e-06
1.06088e-06
1.06091e-06
1.31082e-06
1.31465e-06
1.3221e-06
1.06447e-06
1.0645e-06
1.07479e-06
1.07479e-06
1.31462e-06
1.32199e-06
1.06436e-06
1.06451e-06
1.07469e-06
1.07485e-06
1.06457e-06
1.07465e-06
1.07484e-06
1.31468e-06
1.32212e-06
1.06446e-06
1.07477e-06
1.07474e-06
1.32214e-06
1.32589e-06
1.33275e-06
1.07811e-06
1.07813e-06
1.08777e-06
1.08783e-06
1.32578e-06
1.33274e-06
1.07801e-06
1.07818e-06
1.08766e-06
1.08782e-06
1.07818e-06
1.0877e-06
1.0879e-06
1.32591e-06
1.3328e-06
1.07808e-06
1.08776e-06
1.08779e-06
1.33288e-06
1.33642e-06
1.34285e-06
1.0909e-06
1.09094e-06
1.09995e-06
1.09994e-06
1.3364e-06
1.34273e-06
1.09079e-06
1.09095e-06
1.09985e-06
1.1e-06
1.09101e-06
1.09981e-06
1.09999e-06
1.33645e-06
1.34286e-06
1.0909e-06
1.09992e-06
1.09989e-06
1.34286e-06
1.34636e-06
1.35213e-06
1.10284e-06
1.10285e-06
1.11116e-06
1.11122e-06
1.34625e-06
1.35212e-06
1.10274e-06
1.10289e-06
1.11105e-06
1.11121e-06
1.1029e-06
1.1111e-06
1.11128e-06
1.34638e-06
1.35216e-06
1.1028e-06
1.11115e-06
1.11118e-06
1.35226e-06
1.35551e-06
1.36097e-06
1.11384e-06
1.11389e-06
1.12173e-06
1.12172e-06
1.3555e-06
1.36086e-06
1.11374e-06
1.11391e-06
1.12163e-06
1.12179e-06
1.11396e-06
1.1216e-06
1.12178e-06
1.35555e-06
1.36101e-06
1.11386e-06
1.12172e-06
1.12168e-06
1.361e-06
1.36426e-06
1.36904e-06
1.12425e-06
1.12426e-06
1.13131e-06
1.13136e-06
1.36416e-06
1.36902e-06
1.12415e-06
1.12429e-06
1.13119e-06
1.13133e-06
1.1243e-06
1.13124e-06
1.1314e-06
1.36429e-06
1.36905e-06
1.1242e-06
1.13127e-06
1.1313e-06
1.36914e-06
1.37216e-06
1.37666e-06
1.13359e-06
1.13363e-06
1.14036e-06
1.14037e-06
1.37214e-06
1.37657e-06
1.13349e-06
1.13364e-06
1.14026e-06
1.14044e-06
1.13369e-06
1.14025e-06
1.14044e-06
1.37217e-06
1.37672e-06
1.1336e-06
1.14037e-06
1.14035e-06
1.37673e-06
1.37971e-06
1.38351e-06
1.14244e-06
1.14247e-06
1.14835e-06
1.1484e-06
1.37963e-06
1.38349e-06
1.14235e-06
1.14251e-06
1.14824e-06
1.14837e-06
1.14253e-06
1.14828e-06
1.14842e-06
1.37977e-06
1.38351e-06
1.14243e-06
1.1483e-06
1.14831e-06
1.38357e-06
1.38645e-06
1.39019e-06
1.15039e-06
1.15042e-06
1.15607e-06
1.15608e-06
1.38642e-06
1.39009e-06
1.15029e-06
1.15042e-06
1.15598e-06
1.15613e-06
1.15046e-06
1.15596e-06
1.15615e-06
1.38645e-06
1.39023e-06
1.15036e-06
1.15608e-06
1.15608e-06
1.39027e-06
1.39293e-06
1.39565e-06
1.15762e-06
1.15765e-06
1.16255e-06
1.1626e-06
1.39285e-06
1.39564e-06
1.15754e-06
1.1577e-06
1.16245e-06
1.1626e-06
1.15773e-06
1.16249e-06
1.16264e-06
1.39298e-06
1.39569e-06
1.15765e-06
1.16253e-06
1.16253e-06
1.39574e-06
1.39848e-06
1.40146e-06
1.1644e-06
1.16444e-06
1.16884e-06
1.16885e-06
1.39847e-06
1.40137e-06
1.16429e-06
1.16443e-06
1.16875e-06
1.16888e-06
1.16448e-06
1.16873e-06
1.16889e-06
1.3985e-06
1.40146e-06
1.16436e-06
1.16882e-06
1.16881e-06
1.4015e-06
1.4039e-06
1.40602e-06
1.17e-06
1.17001e-06
1.17443e-06
1.17447e-06
1.40382e-06
1.40598e-06
1.16992e-06
1.17006e-06
1.17433e-06
1.1745e-06
1.17005e-06
1.17437e-06
1.17454e-06
1.40391e-06
1.40608e-06
1.16998e-06
1.17445e-06
1.17445e-06
1.40612e-06
1.40872e-06
1.41017e-06
1.1759e-06
1.17595e-06
1.17862e-06
1.17864e-06
1.4087e-06
1.41012e-06
1.1758e-06
1.17595e-06
1.17852e-06
1.17865e-06
1.17604e-06
1.17853e-06
1.17868e-06
1.40878e-06
1.41017e-06
1.17594e-06
1.17857e-06
1.17858e-06
1.41024e-06
1.41239e-06
1.41477e-06
1.17961e-06
1.17961e-06
1.18397e-06
1.184e-06
1.41233e-06
1.4147e-06
1.17951e-06
1.17965e-06
1.18388e-06
1.18403e-06
1.17962e-06
1.18388e-06
1.18404e-06
1.41238e-06
1.41481e-06
1.17953e-06
1.18396e-06
1.18396e-06
1.41482e-06
1.41732e-06
1.41688e-06
1.18502e-06
1.18509e-06
1.1862e-06
1.18626e-06
1.41729e-06
1.41687e-06
1.18494e-06
1.18509e-06
1.18611e-06
1.18627e-06
1.18517e-06
1.18616e-06
1.18634e-06
1.41737e-06
1.41693e-06
1.18508e-06
1.18623e-06
1.18626e-06
1.41703e-06
1.41877e-06
1.4214e-06
1.18679e-06
1.1868e-06
1.19075e-06
1.19074e-06
1.41871e-06
1.42128e-06
1.1867e-06
1.18684e-06
1.19065e-06
1.19078e-06
1.18684e-06
1.19061e-06
1.19073e-06
1.41879e-06
1.42138e-06
1.18676e-06
1.19068e-06
1.19064e-06
1.42135e-06
1.42406e-06
1.19187e-06
1.19192e-06
1.424e-06
1.19178e-06
1.19193e-06
1.19196e-06
1.42407e-06
1.19187e-06
4.09712e-06
9.17125e-06
1.8444e-05
4.09753e-06
9.17335e-06
3.38973e-07
3.38954e-07
3.39083e-07
3.39025e-07
2.11723e-06
8.80401e-07
3.48207e-06
5.74149e-07
1.8445e-05
2.11727e-06
8.80546e-07
5.74248e-07
3.48227e-06
1.1638e-06
5.46704e-06
5.46897e-06
4.10482e-06
9.18068e-06
4.10222e-06
9.18763e-06
1.84564e-05
1.84669e-05
4.10519e-06
9.18277e-06
4.10215e-06
9.18971e-06
3.43026e-07
3.43153e-07
3.43109e-07
3.5531e-07
3.55319e-07
3.55417e-07
3.55441e-07
2.13115e-06
3.4898e-06
5.91746e-07
9.03688e-07
2.1257e-06
3.49308e-06
5.97579e-07
1.8457e-05
1.84675e-05
2.13117e-06
5.91867e-07
3.48991e-06
9.03821e-07
2.12577e-06
5.9769e-07
3.49316e-06
5.47354e-06
5.47545e-06
1.18302e-06
5.4766e-06
5.47852e-06
4.11244e-06
9.19727e-06
4.10985e-06
9.20436e-06
1.84796e-05
1.84905e-05
4.11281e-06
9.19935e-06
4.10975e-06
9.20645e-06
3.59436e-07
3.59529e-07
3.59562e-07
3.71855e-07
3.71843e-07
3.71929e-07
3.7194e-07
2.1443e-06
3.50042e-06
6.14916e-07
9.25924e-07
2.13917e-06
3.50353e-06
6.20631e-07
1.84802e-05
1.84912e-05
2.14431e-06
6.15003e-07
3.50043e-06
9.2602e-07
2.1392e-06
6.20718e-07
3.50362e-06
5.48283e-06
5.48474e-06
1.20123e-06
5.48565e-06
5.48758e-06
4.11993e-06
9.21405e-06
4.1174e-06
9.22116e-06
1.85037e-05
1.85149e-05
4.12031e-06
9.21614e-06
4.11731e-06
9.22324e-06
3.75993e-07
3.76082e-07
3.76081e-07
3.88483e-07
3.88463e-07
3.88565e-07
3.88549e-07
2.15675e-06
3.51063e-06
6.37604e-07
9.47141e-07
2.15189e-06
3.51363e-06
6.43196e-07
1.85044e-05
1.85156e-05
2.15677e-06
6.37695e-07
3.51067e-06
9.47254e-07
2.15193e-06
6.43292e-07
3.51373e-06
5.49176e-06
5.49368e-06
1.21844e-06
5.49469e-06
5.49662e-06
4.1273e-06
9.23092e-06
4.12481e-06
9.23808e-06
1.85285e-05
1.85399e-05
4.12768e-06
9.23301e-06
4.12472e-06
9.24016e-06
3.92626e-07
3.92728e-07
3.92716e-07
4.05121e-07
4.05113e-07
4.05209e-07
4.05209e-07
2.16859e-06
3.52047e-06
6.59776e-07
9.67361e-07
2.16399e-06
3.52334e-06
6.65233e-07
1.85291e-05
1.85406e-05
2.1686e-06
6.59877e-07
3.52051e-06
9.67468e-07
2.16402e-06
6.65331e-07
3.52344e-06
5.50083e-06
5.50274e-06
1.2349e-06
5.50371e-06
5.50564e-06
4.13451e-06
9.24789e-06
4.1321e-06
9.25505e-06
1.85537e-05
1.85653e-05
4.13488e-06
9.24997e-06
4.132e-06
9.25714e-06
4.09263e-07
4.09362e-07
4.0936e-07
4.2168e-07
4.21674e-07
4.21772e-07
4.21777e-07
2.17976e-06
3.52992e-06
6.81343e-07
9.86558e-07
2.17544e-06
3.53263e-06
6.8662e-07
1.85544e-05
1.8566e-05
2.17976e-06
6.8144e-07
3.52993e-06
9.86663e-07
2.17546e-06
6.86719e-07
3.53271e-06
5.50967e-06
5.51158e-06
1.25048e-06
5.51246e-06
5.5144e-06
4.14157e-06
9.26488e-06
4.13921e-06
9.27207e-06
1.85795e-05
1.85912e-05
4.14194e-06
9.26692e-06
4.13912e-06
9.27408e-06
4.258e-07
4.25894e-07
4.25901e-07
4.38115e-07
4.38096e-07
4.38202e-07
4.38192e-07
2.19031e-06
3.53895e-06
7.022e-07
1.00476e-06
2.18623e-06
3.54156e-06
7.07298e-07
1.85801e-05
1.85919e-05
2.19031e-06
7.02292e-07
3.53897e-06
1.00486e-06
2.18626e-06
7.0739e-07
3.54163e-06
5.51836e-06
5.52028e-06
1.26522e-06
5.5211e-06
5.52303e-06
4.14848e-06
9.28191e-06
4.1462e-06
9.28906e-06
1.86054e-05
1.86172e-05
4.14885e-06
9.28393e-06
4.1461e-06
9.29107e-06
4.42167e-07
4.42277e-07
4.4226e-07
4.54311e-07
4.54316e-07
4.54406e-07
4.54424e-07
2.20028e-06
3.54763e-06
7.22286e-07
1.02197e-06
2.19645e-06
3.55012e-06
7.27194e-07
1.86062e-05
1.86181e-05
2.20028e-06
7.22388e-07
3.54765e-06
1.02207e-06
2.19646e-06
7.27292e-07
3.5502e-06
5.52688e-06
5.5288e-06
1.27918e-06
5.5296e-06
5.53154e-06
4.1552e-06
9.29886e-06
4.15299e-06
9.30603e-06
1.86318e-05
1.86437e-05
4.15558e-06
9.30088e-06
4.15288e-06
9.30803e-06
4.58328e-07
4.58419e-07
4.58432e-07
4.70235e-07
4.70207e-07
4.70331e-07
4.70313e-07
2.20967e-06
3.55596e-06
7.4162e-07
1.0382e-06
2.20608e-06
3.55831e-06
7.46302e-07
1.86326e-05
1.86447e-05
2.20967e-06
7.41707e-07
3.55595e-06
1.0383e-06
2.2061e-06
7.46398e-07
3.55838e-06
5.53531e-06
5.53723e-06
1.29239e-06
5.53791e-06
5.53986e-06
4.16179e-06
9.31581e-06
4.15963e-06
9.32291e-06
1.86584e-05
1.86705e-05
4.16214e-06
9.31781e-06
4.15954e-06
9.32489e-06
4.74138e-07
4.74259e-07
4.74236e-07
4.85809e-07
4.85824e-07
4.85906e-07
4.85937e-07
2.21851e-06
3.56387e-06
7.60049e-07
1.05349e-06
2.21512e-06
3.56617e-06
7.64545e-07
1.86593e-05
1.86714e-05
2.21851e-06
7.60155e-07
3.56392e-06
1.05358e-06
2.21515e-06
7.64638e-07
3.56624e-06
5.54343e-06
5.54536e-06
1.30482e-06
5.5461e-06
5.54803e-06
4.16818e-06
9.33266e-06
4.16613e-06
9.33974e-06
1.86853e-05
1.86973e-05
4.16855e-06
9.33467e-06
4.16601e-06
9.34174e-06
4.89653e-07
4.89741e-07
4.8976e-07
5.00992e-07
5.00961e-07
5.0109e-07
5.01068e-07
2.22683e-06
3.5716e-06
7.77671e-07
1.06785e-06
2.22371e-06
3.57367e-06
7.81905e-07
1.86861e-05
1.86983e-05
2.22682e-06
7.77749e-07
3.57154e-06
1.06794e-06
2.22371e-06
7.81996e-07
3.57374e-06
5.55163e-06
5.55356e-06
1.31659e-06
5.55403e-06
5.55598e-06
4.17439e-06
9.34934e-06
4.17239e-06
9.35633e-06
1.87122e-05
1.87245e-05
4.17475e-06
9.35135e-06
4.1723e-06
9.35831e-06
5.04691e-07
5.04814e-07
5.04792e-07
5.15695e-07
5.15716e-07
5.15799e-07
5.15832e-07
2.23464e-06
3.57874e-06
7.94299e-07
1.08129e-06
2.23165e-06
3.58084e-06
7.98335e-07
1.87131e-05
1.87253e-05
2.2346e-06
7.94406e-07
3.57882e-06
1.08137e-06
2.23172e-06
7.98428e-07
3.58091e-06
5.55929e-06
5.56122e-06
1.32757e-06
5.56189e-06
5.56383e-06
4.18045e-06
9.36598e-06
4.17855e-06
9.37298e-06
1.87393e-05
1.87513e-05
4.18082e-06
9.36798e-06
4.17842e-06
9.37497e-06
5.19319e-07
5.19411e-07
5.19426e-07
5.29979e-07
5.29945e-07
5.30074e-07
5.30056e-07
2.24198e-06
3.58583e-06
8.10077e-07
1.09386e-06
2.23927e-06
3.58769e-06
8.13857e-07
1.87401e-05
1.87524e-05
2.24194e-06
8.10152e-07
3.58577e-06
1.09395e-06
2.2393e-06
8.13944e-07
3.58778e-06
5.56716e-06
5.56909e-06
1.33797e-06
5.56943e-06
5.57137e-06
4.18628e-06
9.38238e-06
4.18448e-06
9.38915e-06
1.87663e-05
1.87785e-05
4.18662e-06
9.38439e-06
4.18439e-06
9.39113e-06
5.33433e-07
5.33551e-07
5.33531e-07
5.43641e-07
5.43665e-07
5.43745e-07
5.4378e-07
2.24883e-06
3.59237e-06
8.24875e-07
1.10558e-06
2.24626e-06
3.59422e-06
8.28442e-07
1.87671e-05
1.87792e-05
2.24879e-06
8.24973e-07
3.59243e-06
1.10565e-06
2.24634e-06
8.28523e-07
3.59424e-06
5.57451e-06
5.57644e-06
1.34764e-06
5.5769e-06
5.57886e-06
4.19187e-06
9.39848e-06
4.19011e-06
9.40537e-06
1.87932e-05
1.88053e-05
4.19225e-06
9.40048e-06
4.19001e-06
9.40737e-06
5.46985e-07
5.47081e-07
5.47092e-07
5.56841e-07
5.56812e-07
5.56948e-07
5.56932e-07
2.25519e-06
3.59866e-06
8.38731e-07
1.1164e-06
2.25286e-06
3.60033e-06
8.42041e-07
1.87941e-05
1.88064e-05
2.25515e-06
8.38808e-07
3.59862e-06
1.11651e-06
2.2529e-06
8.42136e-07
3.60046e-06
5.58179e-06
5.58373e-06
1.35669e-06
5.58401e-06
5.58595e-06
4.19743e-06
9.41469e-06
4.19578e-06
9.42123e-06
1.88203e-05
1.88322e-05
4.19771e-06
9.41669e-06
4.19571e-06
9.42318e-06
5.60046e-07
5.60163e-07
5.60143e-07
5.69354e-07
5.69373e-07
5.69444e-07
5.69475e-07
2.26122e-06
3.60475e-06
8.5175e-07
1.12658e-06
2.25903e-06
3.60636e-06
8.54853e-07
1.88211e-05
1.88329e-05
2.26113e-06
8.51837e-07
3.60478e-06
1.12663e-06
2.25909e-06
8.54917e-07
3.60635e-06
5.58899e-06
5.59091e-06
1.36518e-06
5.59114e-06
5.59309e-06
4.20241e-06
9.43005e-06
4.20081e-06
9.43671e-06
1.88467e-05
1.88586e-05
4.20279e-06
9.43207e-06
4.20073e-06
9.43876e-06
5.72381e-07
5.72474e-07
5.72484e-07
5.81402e-07
5.81384e-07
5.81522e-07
5.81516e-07
2.26657e-06
3.61022e-06
8.63693e-07
1.13578e-06
2.26463e-06
3.6117e-06
8.66576e-07
1.88475e-05
1.88598e-05
2.26653e-06
8.63769e-07
3.61019e-06
1.13589e-06
2.26466e-06
8.66678e-07
3.61185e-06
5.59562e-06
5.59758e-06
1.37296e-06
5.59781e-06
5.59978e-06
4.20748e-06
9.44576e-06
4.20606e-06
9.45198e-06
1.88734e-05
1.88851e-05
4.2077e-06
9.44777e-06
4.20604e-06
9.45391e-06
5.84291e-07
5.84408e-07
5.84394e-07
5.92561e-07
5.92573e-07
5.92649e-07
5.92664e-07
2.27171e-06
3.61574e-06
8.74952e-07
1.14435e-06
2.26997e-06
3.61704e-06
8.77538e-07
1.88742e-05
1.88857e-05
2.27159e-06
8.75036e-07
3.61579e-06
1.1444e-06
2.27003e-06
8.77593e-07
3.61702e-06
5.60248e-06
5.6044e-06
1.38027e-06
5.60429e-06
5.6062e-06
4.21229e-06
9.46068e-06
4.21068e-06
9.46728e-06
1.88995e-05
1.89114e-05
4.21264e-06
9.46266e-06
4.21058e-06
9.46935e-06
5.95352e-07
5.95443e-07
5.95441e-07
6.03529e-07
6.03518e-07
6.03641e-07
6.03651e-07
2.27636e-06
3.62061e-06
8.85142e-07
1.15232e-06
2.27465e-06
3.62209e-06
8.87694e-07
1.89003e-05
1.89125e-05
2.2763e-06
8.85197e-07
3.62053e-06
1.15241e-06
2.27461e-06
8.87777e-07
3.62222e-06
5.60874e-06
5.61065e-06
1.38699e-06
5.61104e-06
5.61304e-06
4.21619e-06
9.47531e-06
4.21527e-06
9.48085e-06
1.89251e-05
1.89361e-05
4.2164e-06
9.47737e-06
4.21533e-06
9.48279e-06
6.05975e-07
6.06095e-07
6.06092e-07
6.13279e-07
6.13291e-07
6.13384e-07
6.13392e-07
2.28025e-06
3.62534e-06
8.94566e-07
1.15908e-06
2.27916e-06
3.62612e-06
8.96624e-07
1.89258e-05
1.89369e-05
2.28018e-06
8.94674e-07
3.62546e-06
1.15916e-06
2.2793e-06
8.9671e-07
3.62615e-06
5.61485e-06
5.61685e-06
1.393e-06
5.61614e-06
5.61806e-06
4.22124e-06
9.48995e-06
4.21944e-06
9.49662e-06
1.89513e-05
1.8963e-05
4.2215e-06
9.4919e-06
4.21936e-06
9.49864e-06
6.15887e-07
6.15969e-07
6.15972e-07
6.22929e-07
6.22919e-07
6.23018e-07
6.23029e-07
2.28454e-06
3.62982e-06
9.03243e-07
1.16604e-06
2.2829e-06
3.63133e-06
9.05429e-07
1.89523e-05
1.89639e-05
2.28439e-06
9.03267e-07
3.62966e-06
1.16608e-06
2.28279e-06
9.05458e-07
3.63137e-06
5.62124e-06
5.62305e-06
1.39886e-06
5.62352e-06
5.62546e-06
4.22404e-06
9.50334e-06
4.22346e-06
9.50862e-06
1.8975e-05
1.89862e-05
4.2243e-06
9.50543e-06
4.22355e-06
9.51062e-06
6.24958e-07
6.25077e-07
6.25056e-07
6.3169e-07
6.31696e-07
6.31808e-07
6.31814e-07
2.28717e-06
3.63354e-06
9.10754e-07
1.17119e-06
2.28661e-06
3.63409e-06
9.12468e-07
1.89758e-05
1.89876e-05
2.28719e-06
9.10855e-07
3.63364e-06
1.17131e-06
2.28669e-06
9.12578e-07
3.63419e-06
5.62579e-06
5.62782e-06
1.40357e-06
5.62728e-06
5.62926e-06
4.22874e-06
9.51793e-06
4.22744e-06
9.52312e-06
1.90017e-05
1.90109e-05
4.22891e-06
9.51989e-06
4.22745e-06
9.52514e-06
6.33997e-07
6.34089e-07
6.3411e-07
6.39513e-07
6.39521e-07
6.39606e-07
6.39625e-07
2.29095e-06
3.63816e-06
9.18277e-07
1.17699e-06
2.28978e-06
3.63889e-06
9.19892e-07
1.90022e-05
1.90115e-05
2.29083e-06
9.18334e-07
3.63813e-06
1.17702e-06
2.28976e-06
9.1993e-07
3.63891e-06
5.63324e-06
5.63515e-06
1.40872e-06
5.63388e-06
5.63579e-06
4.23085e-06
9.52898e-06
4.22973e-06
9.53614e-06
1.9023e-05
1.90371e-05
4.23119e-06
9.53098e-06
4.22974e-06
9.538e-06
6.41248e-07
6.41347e-07
6.41323e-07
6.47535e-07
6.4753e-07
6.47635e-07
6.47629e-07
2.29245e-06
3.63974e-06
9.23619e-07
1.18082e-06
2.29183e-06
3.64119e-06
9.25189e-07
1.90242e-05
1.90384e-05
2.29239e-06
9.23669e-07
3.63967e-06
1.18089e-06
2.29178e-06
9.25252e-07
3.64123e-06
5.63515e-06
5.63704e-06
1.41198e-06
5.63901e-06
5.64101e-06
4.23489e-06
9.54423e-06
4.2349e-06
9.54678e-06
1.90489e-05
1.90554e-05
4.23505e-06
9.54627e-06
4.235e-06
9.54896e-06
6.49551e-07
6.49646e-07
6.49663e-07
6.53784e-07
6.53809e-07
6.53904e-07
6.53941e-07
2.2958e-06
3.64542e-06
9.30393e-07
1.18561e-06
2.29549e-06
3.64479e-06
9.31495e-07
1.90495e-05
1.90561e-05
2.29578e-06
9.30462e-07
3.64544e-06
1.18567e-06
2.2955e-06
9.31558e-07
3.64485e-06
5.64366e-06
5.64562e-06
1.4167e-06
5.64266e-06
5.64461e-06
4.2363e-06
9.5526e-06
4.2345e-06
9.56172e-06
1.90686e-05
1.90852e-05
4.23654e-06
9.55457e-06
4.23461e-06
9.56334e-06
6.55066e-07
6.55171e-07
6.55163e-07
6.60446e-07
6.60409e-07
6.60515e-07
6.60482e-07
2.29584e-06
3.64448e-06
9.33582e-07
1.18767e-06
2.29519e-06
3.6466e-06
9.34711e-07
1.90699e-05
1.90864e-05
2.2958e-06
9.33644e-07
3.64448e-06
1.18775e-06
2.29516e-06
9.34777e-07
3.64666e-06
5.64323e-06
5.64516e-06
1.41828e-06
5.64896e-06
5.65095e-06
4.24134e-06
9.56972e-06
4.24151e-06
9.5705e-06
1.90961e-05
1.90999e-05
4.24151e-06
9.57181e-06
4.24157e-06
9.57277e-06
6.62355e-07
6.62448e-07
6.62437e-07
2.29981e-06
3.65217e-06
9.39508e-07
1.19247e-06
2.29967e-06
3.65121e-06
9.40633e-07
1.90965e-05
1.91004e-05
2.29976e-06
9.39562e-07
3.65216e-06
1.19252e-06
2.29964e-06
9.40678e-07
3.65125e-06
5.65505e-06
5.65699e-06
1.42344e-06
5.65287e-06
5.6548e-06
1.84423e-05
1.84447e-05
1.16381e-06
5.46714e-06
5.46901e-06
1.84535e-05
1.84432e-05
1.8456e-05
1.84457e-05
1.1694e-06
5.47175e-06
5.47361e-06
5.46877e-06
5.47065e-06
4.09724e-06
9.17239e-06
2.11713e-06
8.80581e-07
3.48205e-06
5.74138e-07
2.11719e-06
8.80589e-07
3.48248e-06
5.74169e-07
4.09836e-06
9.17941e-06
9.17251e-06
4.10099e-06
4.09842e-06
9.18063e-06
9.17366e-06
4.10111e-06
2.11859e-06
8.86487e-07
3.48755e-06
5.85879e-07
3.48416e-06
5.80018e-07
2.12416e-06
2.11864e-06
8.86496e-07
3.48803e-06
5.85914e-07
3.48462e-06
5.80049e-07
2.12422e-06
1.1637e-06
5.46886e-06
5.46693e-06
1.84415e-05
1.84554e-05
1.84449e-05
1.16929e-06
5.47359e-06
5.47168e-06
5.47056e-06
5.46879e-06
1.8453e-05
1.84424e-05
2.11733e-06
8.80461e-07
3.48273e-06
5.74225e-07
4.09745e-06
9.17272e-06
2.11726e-06
8.80677e-07
5.74258e-07
3.4826e-06
4.09831e-06
9.18151e-06
9.17462e-06
4.10139e-06
2.11878e-06
8.86377e-07
3.48823e-06
5.8598e-07
3.48488e-06
5.80087e-07
2.12437e-06
4.09823e-06
9.18088e-06
9.174e-06
4.10132e-06
2.11871e-06
8.86614e-07
5.86028e-07
3.48817e-06
5.80157e-07
3.48484e-06
2.12431e-06
4.09728e-06
9.1723e-06
2.11717e-06
8.80606e-07
5.74199e-07
3.48202e-06
4.09716e-06
9.17222e-06
2.11868e-06
8.8631e-07
3.48763e-06
5.85893e-07
3.48426e-06
5.80027e-07
2.12428e-06
4.0985e-06
9.18055e-06
9.17359e-06
4.10117e-06
2.11861e-06
8.86522e-07
5.85948e-07
3.48763e-06
5.80079e-07
3.48418e-06
2.12422e-06
4.09841e-06
9.18053e-06
9.1735e-06
4.10106e-06
1.16384e-06
5.46896e-06
5.46736e-06
1.84438e-05
1.84562e-05
1.84459e-05
1.16946e-06
5.47361e-06
5.47203e-06
5.47083e-06
5.46906e-06
1.84549e-05
1.84447e-05
2.1173e-06
8.80483e-07
5.74253e-07
3.48262e-06
4.09744e-06
9.17266e-06
4.09747e-06
9.17333e-06
2.11876e-06
8.86483e-07
5.86018e-07
3.48785e-06
5.80144e-07
3.48444e-06
2.12433e-06
2.11879e-06
8.86402e-07
5.86016e-07
3.48824e-06
5.80142e-07
3.48479e-06
2.12436e-06
4.09824e-06
9.18084e-06
9.17393e-06
4.10133e-06
4.09833e-06
9.18161e-06
9.1746e-06
4.10136e-06
1.84433e-05
1.84451e-05
1.16939e-06
5.47184e-06
5.47377e-06
5.46875e-06
5.47067e-06
1.84548e-05
1.84443e-05
1.84566e-05
1.84461e-05
1.84545e-05
1.8465e-05
1.84569e-05
1.84674e-05
5.47335e-06
5.47522e-06
1.1829e-06
5.47631e-06
5.47817e-06
1.84769e-05
1.84661e-05
1.84793e-05
1.84685e-05
1.18827e-06
5.48094e-06
5.4828e-06
5.47793e-06
5.47979e-06
4.10495e-06
9.18191e-06
4.10229e-06
9.18889e-06
2.13101e-06
3.48961e-06
5.91719e-07
9.03808e-07
2.12558e-06
3.49291e-06
5.97539e-07
2.13107e-06
3.49015e-06
5.9176e-07
9.03862e-07
2.12565e-06
3.49347e-06
5.97585e-07
4.10604e-06
9.19597e-06
9.18892e-06
4.10863e-06
4.10612e-06
9.19716e-06
9.19017e-06
4.10876e-06
2.13239e-06
9.09461e-07
3.49821e-06
6.09113e-07
3.49495e-06
6.03338e-07
2.13767e-06
2.13247e-06
9.09519e-07
3.49874e-06
6.0916e-07
3.49553e-06
6.03386e-07
2.13774e-06
5.47529e-06
5.47352e-06
1.18284e-06
5.47824e-06
5.47633e-06
1.84539e-05
1.84645e-05
1.84786e-05
1.84679e-05
1.18824e-06
5.48281e-06
5.4809e-06
5.47989e-06
5.47813e-06
1.84761e-05
1.84654e-05
2.13119e-06
3.49032e-06
5.91793e-07
9.0369e-07
2.12578e-06
3.49359e-06
5.97636e-07
4.10512e-06
9.18214e-06
4.10208e-06
9.18901e-06
2.13112e-06
5.91871e-07
3.4903e-06
9.03938e-07
2.12572e-06
5.97684e-07
3.49347e-06
4.10594e-06
9.19804e-06
9.191e-06
4.109e-06
2.13256e-06
9.09346e-07
3.49889e-06
6.09201e-07
3.49564e-06
6.03403e-07
2.13784e-06
4.10587e-06
9.19729e-06
9.1903e-06
4.10892e-06
2.1325e-06
9.09574e-07
6.09239e-07
3.49873e-06
6.03474e-07
3.49557e-06
2.13777e-06
4.10504e-06
9.18184e-06
4.10239e-06
9.18881e-06
2.1311e-06
5.91808e-07
3.48976e-06
9.03949e-07
2.12563e-06
5.97647e-07
3.49313e-06
4.10494e-06
9.18182e-06
4.10231e-06
9.18885e-06
2.13254e-06
9.09349e-07
3.49835e-06
6.09168e-07
3.49518e-06
6.03389e-07
2.13782e-06
4.10625e-06
9.19708e-06
9.1901e-06
4.10886e-06
2.13248e-06
9.09629e-07
6.09246e-07
3.49846e-06
6.03465e-07
3.49521e-06
2.13778e-06
4.10617e-06
9.19713e-06
9.19014e-06
4.10876e-06
5.47537e-06
5.47361e-06
1.183e-06
5.47809e-06
5.4765e-06
1.84559e-05
1.84663e-05
1.84793e-05
1.84685e-05
1.18837e-06
5.48266e-06
5.48107e-06
5.47987e-06
5.47811e-06
1.8478e-05
1.84673e-05
2.13122e-06
5.91876e-07
3.49037e-06
9.03829e-07
2.12581e-06
5.97712e-07
3.49372e-06
4.10516e-06
9.18209e-06
4.10211e-06
9.18897e-06
4.1052e-06
9.18289e-06
4.10221e-06
9.1899e-06
2.13258e-06
9.09461e-07
6.09259e-07
3.49842e-06
6.03488e-07
3.49518e-06
2.13783e-06
2.13263e-06
9.09508e-07
6.09303e-07
3.49906e-06
6.03525e-07
3.49581e-06
2.13788e-06
4.10593e-06
9.19724e-06
9.19024e-06
4.10896e-06
4.10605e-06
9.19816e-06
9.19118e-06
4.10901e-06
1.84558e-05
1.84664e-05
1.84576e-05
1.84682e-05
1.18843e-06
5.48123e-06
5.48315e-06
5.47828e-06
5.48018e-06
1.84781e-05
1.84674e-05
1.84799e-05
1.84692e-05
1.84779e-05
1.84888e-05
1.84803e-05
1.84913e-05
5.48258e-06
5.48445e-06
1.20109e-06
5.48559e-06
5.48746e-06
1.85009e-05
1.849e-05
1.85033e-05
1.84924e-05
1.20629e-06
5.49015e-06
5.49202e-06
5.4872e-06
5.48909e-06
4.11256e-06
9.19845e-06
4.10992e-06
9.2055e-06
2.14417e-06
3.50023e-06
6.14863e-07
9.26062e-07
2.13903e-06
3.50345e-06
6.20587e-07
2.14423e-06
3.50077e-06
6.14907e-07
9.26091e-07
2.1391e-06
3.50393e-06
6.20627e-07
4.11364e-06
9.21275e-06
9.20566e-06
4.1162e-06
4.11371e-06
9.21389e-06
9.2068e-06
4.11632e-06
2.1455e-06
9.31472e-07
3.50857e-06
6.3195e-07
3.50544e-06
6.26284e-07
2.15049e-06
2.14556e-06
9.31491e-07
3.50903e-06
6.31985e-07
3.50593e-06
6.2632e-07
2.15055e-06
5.48446e-06
5.48269e-06
1.20102e-06
5.48738e-06
5.48546e-06
1.84771e-05
1.8488e-05
1.85026e-05
1.84916e-05
1.20621e-06
5.49193e-06
5.49001e-06
5.48902e-06
5.48725e-06
1.85002e-05
1.84891e-05
2.14434e-06
3.50093e-06
6.14923e-07
9.2594e-07
2.13919e-06
3.50413e-06
6.20672e-07
4.11272e-06
9.1986e-06
4.10967e-06
9.20566e-06
2.14427e-06
6.14982e-07
3.50082e-06
9.26128e-07
2.13912e-06
6.20699e-07
3.50394e-06
4.11355e-06
9.21484e-06
9.20775e-06
4.11658e-06
2.14566e-06
9.31357e-07
3.50925e-06
6.32035e-07
3.50614e-06
6.26341e-07
2.15067e-06
4.11346e-06
9.21407e-06
9.20697e-06
4.11649e-06
2.14559e-06
9.31532e-07
6.32058e-07
3.50905e-06
6.26394e-07
3.50599e-06
2.1506e-06
4.11262e-06
9.19838e-06
4.11004e-06
9.20541e-06
2.14424e-06
6.14994e-07
3.50047e-06
9.26188e-07
2.13912e-06
6.20704e-07
3.50358e-06
4.11252e-06
9.19841e-06
4.10998e-06
9.20537e-06
2.14561e-06
9.31324e-07
3.50862e-06
6.31977e-07
3.50557e-06
6.2632e-07
2.1506e-06
4.1138e-06
9.2138e-06
9.20672e-06
4.11637e-06
2.14556e-06
9.31569e-07
6.32037e-07
3.5086e-06
6.26388e-07
3.50553e-06
2.15054e-06
4.11372e-06
9.21371e-06
9.20666e-06
4.11626e-06
5.48446e-06
5.48269e-06
1.20112e-06
5.48724e-06
5.48564e-06
1.84791e-05
1.84899e-05
1.85034e-05
1.84922e-05
1.20631e-06
5.49183e-06
5.49023e-06
5.48904e-06
5.48726e-06
1.85021e-05
1.8491e-05
2.14435e-06
6.15049e-07
3.50107e-06
9.26067e-07
2.13925e-06
6.20759e-07
3.50418e-06
4.11273e-06
9.19854e-06
4.10972e-06
9.2056e-06
4.11277e-06
9.19943e-06
4.10985e-06
9.20639e-06
2.14564e-06
9.31421e-07
6.32065e-07
3.50872e-06
6.26406e-07
3.50559e-06
2.15061e-06
2.14569e-06
9.31449e-07
6.32092e-07
3.5092e-06
6.26441e-07
3.50614e-06
2.15065e-06
4.11348e-06
9.21401e-06
9.2069e-06
4.11648e-06
4.1136e-06
9.21472e-06
9.20767e-06
4.11651e-06
1.84791e-05
1.84898e-05
1.84809e-05
1.84916e-05
1.2064e-06
5.49013e-06
5.49207e-06
5.48724e-06
5.48915e-06
1.85019e-05
1.84909e-05
1.85037e-05
1.84927e-05
1.85021e-05
1.85132e-05
1.85045e-05
1.85156e-05
5.49174e-06
5.49362e-06
1.2184e-06
5.49465e-06
5.49653e-06
1.85256e-05
1.85143e-05
1.8528e-05
1.85167e-05
1.22341e-06
5.49914e-06
5.50101e-06
5.49623e-06
5.49812e-06
4.12005e-06
9.2152e-06
4.11747e-06
9.22231e-06
2.15665e-06
3.5105e-06
6.37583e-07
9.47297e-07
2.15179e-06
3.51355e-06
6.43179e-07
2.15671e-06
3.51099e-06
6.37616e-07
9.4731e-07
2.15186e-06
3.51403e-06
6.43212e-07
4.12112e-06
9.2296e-06
9.22247e-06
4.12363e-06
4.12119e-06
9.23076e-06
9.22363e-06
4.12375e-06
2.15792e-06
9.52438e-07
3.51843e-06
6.5426e-07
3.51545e-06
6.48739e-07
2.16263e-06
2.15798e-06
9.52453e-07
3.51892e-06
6.54296e-07
3.51596e-06
6.48773e-07
2.16269e-06
5.49357e-06
5.4918e-06
1.21831e-06
5.49647e-06
5.49456e-06
1.85012e-05
1.85124e-05
1.85273e-05
1.8516e-05
1.22332e-06
5.50095e-06
5.49905e-06
5.49809e-06
5.49633e-06
1.85249e-05
1.85135e-05
2.15683e-06
3.51121e-06
6.37642e-07
9.47179e-07
2.15196e-06
3.51423e-06
6.43267e-07
4.12022e-06
9.21539e-06
4.11723e-06
9.2225e-06
2.15675e-06
6.37693e-07
3.51108e-06
9.47363e-07
2.15189e-06
6.43293e-07
3.51406e-06
4.12103e-06
9.23169e-06
9.22456e-06
4.12401e-06
2.15808e-06
9.52327e-07
3.51912e-06
6.54351e-07
3.51615e-06
6.48802e-07
2.16281e-06
4.12095e-06
9.23095e-06
9.22382e-06
4.12392e-06
2.15801e-06
9.52511e-07
6.54382e-07
3.51895e-06
6.48857e-07
3.51604e-06
2.16274e-06
4.12011e-06
9.21512e-06
4.11754e-06
9.22224e-06
2.15669e-06
6.37661e-07
3.51056e-06
9.47354e-07
2.15183e-06
6.43251e-07
3.51362e-06
4.12e-06
9.21503e-06
4.11746e-06
9.22217e-06
2.15802e-06
9.52287e-07
3.51853e-06
6.54282e-07
3.51561e-06
6.48756e-07
2.16275e-06
4.12128e-06
9.2307e-06
9.22356e-06
4.12382e-06
2.15796e-06
9.52506e-07
6.5434e-07
3.51853e-06
6.48814e-07
3.51554e-06
2.16269e-06
4.12119e-06
9.23065e-06
9.22349e-06
4.12371e-06
5.49362e-06
5.49184e-06
1.21843e-06
5.49636e-06
5.49477e-06
1.85032e-05
1.85144e-05
1.8528e-05
1.85167e-05
1.22343e-06
5.50085e-06
5.49926e-06
5.49812e-06
5.49636e-06
1.85268e-05
1.85155e-05
2.15681e-06
6.37717e-07
3.51116e-06
9.47239e-07
2.15196e-06
6.4331e-07
3.51422e-06
4.12022e-06
9.21532e-06
4.11723e-06
9.22244e-06
4.12024e-06
9.21603e-06
4.11734e-06
9.22317e-06
2.15805e-06
9.52402e-07