/*--------------------------------*- C++ -*----------------------------------*\
| =========                 |                                                 |
| \\      /  F ield         | OpenFOAM: The Open Source CFD Toolbox           |
|  \\    /   O peration     | Version:  v1906                                 |
|   \\  /    A nd           | Web:      www.OpenFOAM.com                      |
|    \\/     M anipulation  |                                                 |
\*---------------------------------------------------------------------------*/
FoamFile
{
    version     2.0;
    format      ascii;
    class       volScalarField;
    location    "375";
    object      epsilon;
}
// * * * * * * * * * * * * * * * * * * * * * * * * * * * * * * * * * * * * * //

dimensions      [0 2 -3 0 0 0 0];


internalField   nonuniform List<scalar> 
43248
(
1.15388e-06
8.68653e-07
8.68614e-07
1.15382e-06
8.68371e-07
8.68608e-07
8.68428e-07
8.68649e-07
1.15386e-06
8.68479e-07
8.68513e-07
1.15394e-06
3.22875e-07
3.22871e-07
3.22919e-07
3.22952e-07
1.84316e-05
1.84334e-05
5.46279e-06
5.46393e-06
4.09067e-06
9.16329e-06
4.09327e-06
4.09074e-06
9.16428e-06
9.15753e-06
4.09339e-06
2.10409e-06
3.47653e-06
5.62348e-07
5.56412e-07
2.10996e-06
2.10416e-06
8.62532e-07
3.4769e-06
5.62377e-07
3.47342e-06
5.56453e-07
2.11002e-06
1.84329e-05
1.8423e-05
1.14946e-06
5.46423e-06
5.4623e-06
5.46131e-06
5.45953e-06
1.84304e-05
1.84205e-05
9.16504e-06
4.09363e-06
3.47692e-06
5.62406e-07
2.1101e-06
9.16443e-06
4.09353e-06
5.62414e-07
3.47683e-06
2.11003e-06
2.10421e-06
8.62346e-07
3.4765e-06
5.62365e-07
3.47306e-06
5.56447e-07
2.11006e-06
4.09083e-06
9.16419e-06
9.15746e-06
4.09344e-06
2.10415e-06
8.6258e-07
5.62422e-07
3.47644e-06
5.56508e-07
3.47301e-06
2.11e-06
4.09075e-06
9.16406e-06
9.15735e-06
4.09332e-06
1.84336e-05
5.46398e-06
5.46239e-06
1.84324e-05
2.10423e-06
5.62429e-07
3.4765e-06
5.56491e-07
2.11005e-06
2.1043e-06
8.62449e-07
5.62458e-07
3.47703e-06
5.56547e-07
3.4736e-06
2.1101e-06
4.09049e-06
9.16437e-06
4.09354e-06
4.09062e-06
9.16518e-06
9.15848e-06
4.09359e-06
1.14961e-06
5.46234e-06
5.46427e-06
5.45948e-06
5.46139e-06
1.84321e-05
1.84222e-05
1.84339e-05
1.8424e-05
1.84268e-05
1.8429e-05
4.53935e-06
2.81616e-06
5.46184e-06
9.50453e-06
9.50049e-06
2.81315e-06
4.54324e-06
4.54599e-06
2.81505e-06
5.46366e-06
9.5074e-06
9.50484e-06
2.81499e-06
4.54472e-06
9.7345e-06
2.17351e-05
2.17327e-05
2.17297e-05
2.17285e-05
9.73483e-06
1.22035e-05
1.08247e-05
4.74275e-06
4.09134e-06
1.22009e-05
1.0827e-05
4.74335e-06
2.20552e-05
9.16047e-06
7.08634e-06
7.08644e-06
2.20607e-05
1.22043e-05
4.09259e-06
1.08302e-05
4.74498e-06
1.08279e-05
4.7444e-06
1.22069e-05
1.22036e-05
1.08249e-05
4.74279e-06
4.09146e-06
1.22011e-05
1.08271e-05
4.7438e-06
2.20556e-05
9.16152e-06
7.08802e-06
7.08792e-06
2.20608e-05
2.20561e-05
7.08692e-06
9.16029e-06
2.2051e-05
7.08701e-06
1.22044e-05
4.09266e-06
1.08303e-05
4.74542e-06
1.0828e-05
4.74442e-06
1.2207e-05
1.84283e-05
1.84275e-05
9.73255e-06
2.17231e-05
2.17238e-05
9.73214e-06
2.17279e-05
2.17286e-05
4.54599e-06
2.81614e-06
5.4636e-06
9.50793e-06
2.81439e-06
9.50467e-06
4.54664e-06
4.53997e-06
2.81492e-06
5.46182e-06
9.50331e-06
9.50005e-06
2.8132e-06
4.54064e-06
4.54409e-06
9.49996e-06
2.81119e-06
5.46195e-06
2.81298e-06
4.54342e-06
9.50325e-06
4.5381e-06
9.49534e-06
2.80999e-06
5.46002e-06
4.5374e-06
9.49863e-06
2.81177e-06
9.73403e-06
2.17329e-05
2.17336e-05
2.17281e-05
2.17288e-05
9.73443e-06
1.84258e-05
1.8425e-05
2.20555e-05
9.16232e-06
7.08799e-06
7.08784e-06
2.20607e-05
1.22046e-05
4.09245e-06
4.74542e-06
1.08308e-05
4.74439e-06
1.08285e-05
1.22072e-05
2.20554e-05
9.16164e-06
7.08646e-06
7.08652e-06
2.20609e-05
1.22047e-05
4.09238e-06
1.08306e-05
4.7451e-06
1.08283e-05
4.74439e-06
1.22073e-05
1.22034e-05
4.74269e-06
1.08251e-05
4.09153e-06
1.22009e-05
4.74369e-06
1.08274e-05
2.20547e-05
9.16145e-06
7.08756e-06
7.08746e-06
2.20598e-05
2.20552e-05
7.08646e-06
9.16021e-06
2.205e-05
7.08656e-06
1.22042e-05
4.09274e-06
4.7453e-06
1.08306e-05
4.74431e-06
1.08283e-05
1.22068e-05
1.22037e-05
1.0825e-05
4.7425e-06
4.09142e-06
1.22012e-05
1.08273e-05
4.74349e-06
2.20551e-05
9.16131e-06
7.08605e-06
7.08595e-06
2.20602e-05
2.20556e-05
7.08498e-06
9.16009e-06
2.20505e-05
7.08506e-06
1.22045e-05
4.09266e-06
1.08305e-05
4.74509e-06
1.08281e-05
4.74411e-06
1.22071e-05
1.84289e-05
4.54616e-06
2.81605e-06
5.46346e-06
9.50794e-06
2.8144e-06
9.50458e-06
4.54684e-06
4.5402e-06
2.81504e-06
5.46175e-06
9.50339e-06
9.50004e-06
2.81328e-06
4.54085e-06
9.73466e-06
2.17341e-05
2.17345e-05
2.17291e-05
2.17295e-05
9.73515e-06
1.84277e-05
1.22038e-05
4.74247e-06
1.08253e-05
4.09162e-06
1.22012e-05
4.74345e-06
1.08276e-05
2.20555e-05
9.16157e-06
7.08619e-06
7.08603e-06
2.20606e-05
2.20559e-05
7.08512e-06
1.22046e-05
4.09241e-06
4.7451e-06
1.08308e-05
4.74408e-06
1.08285e-05
1.22072e-05
1.22036e-05
4.74301e-06
1.08254e-05
4.09168e-06
1.22011e-05
4.74361e-06
1.08277e-05
2.2055e-05
9.16243e-06
7.08779e-06
7.08789e-06
2.20605e-05
2.20559e-05
7.08691e-06
9.16122e-06
2.20505e-05
7.08682e-06
1.22044e-05
4.09253e-06
4.74519e-06
1.08309e-05
4.74464e-06
1.08286e-05
1.2207e-05
9.73275e-06
2.17241e-05
2.17234e-05
9.73242e-06
2.17288e-05
2.1728e-05
4.54003e-06
2.81498e-06
5.46171e-06
9.50324e-06
2.81323e-06
9.49999e-06
4.54068e-06
4.54602e-06
2.81624e-06
5.46362e-06
9.50801e-06
2.8144e-06
9.50477e-06
4.54667e-06
4.53821e-06
9.49537e-06
2.81008e-06
5.4601e-06
4.53756e-06
2.81186e-06
9.4986e-06
4.54421e-06
9.50015e-06
2.81125e-06
5.46203e-06
4.54354e-06
2.81313e-06
9.50338e-06
9.73416e-06
2.17338e-05
2.17331e-05
2.1729e-05
2.17283e-05
9.73455e-06
1.84275e-05
1.84267e-05
1.84293e-05
1.84285e-05
2.67145e-06
1.15459e-06
1.77359e-06
1.77273e-06
1.77255e-06
1.77303e-06
2.67221e-06
2.67139e-06
1.15452e-06
1.7732e-06
1.77305e-06
1.7729e-06
1.77274e-06
2.6721e-06
2.6714e-06
1.15456e-06
1.77319e-06
1.77309e-06
1.77287e-06
1.77276e-06
2.67215e-06
2.6714e-06
1.15464e-06
1.77306e-06
1.77331e-06
1.77273e-06
1.773e-06
2.67213e-06
1.68217e-07
1.68196e-07
1.66078e-07
8.00033e-08
8.05579e-08
3.18898e-07
1.68217e-07
1.6818e-07
1.66077e-07
1.66043e-07
8.00012e-08
8.05553e-08
1.68252e-07
1.68224e-07
1.66083e-07
8.0019e-08
8.0574e-08
3.18987e-07
1.6826e-07
1.68232e-07
1.66122e-07
1.66096e-07
8.00211e-08
8.05759e-08
1.41458e-06
2.36313e-06
1.27754e-06
2.1063e-06
1.41513e-06
2.36511e-06
1.27766e-06
1.62128e-06
2.03675e-06
3.4758e-06
2.86184e-06
2.03595e-06
2.86129e-06
1.62098e-06
1.42032e-06
2.10779e-06
2.36851e-06
1.28303e-06
2.36656e-06
1.28292e-06
1.41977e-06
1.41475e-06
2.36341e-06
1.27759e-06
2.10636e-06
1.4153e-06
2.36538e-06
1.27772e-06
1.62151e-06
2.03691e-06
3.47626e-06
2.86238e-06
2.86185e-06
2.03633e-06
1.62119e-06
1.61656e-06
2.8589e-06
2.03229e-06
3.47408e-06
1.61687e-06
2.85945e-06
2.0329e-06
1.42048e-06
2.10785e-06
2.36876e-06
1.28307e-06
2.36683e-06
1.28297e-06
1.41991e-06
2.66889e-06
1.14877e-06
1.76876e-06
1.76859e-06
1.76908e-06
2.66815e-06
1.76893e-06
1.62148e-06
2.03678e-06
3.47639e-06
2.86238e-06
2.03639e-06
2.86178e-06
1.62113e-06
1.4205e-06
2.10794e-06
2.36876e-06
1.28314e-06
2.36681e-06
1.28305e-06
1.41992e-06
1.62131e-06
2.03681e-06
3.47623e-06
2.86188e-06
2.86132e-06
2.03621e-06
1.621e-06
1.42037e-06
2.10786e-06
1.2831e-06
2.36858e-06
1.28299e-06
2.36662e-06
1.41982e-06
1.41469e-06
2.36335e-06
1.27761e-06
2.10641e-06
1.41525e-06
2.36531e-06
1.27774e-06
1.62138e-06
2.03654e-06
3.4759e-06
2.86217e-06
2.03595e-06
2.86166e-06
1.62104e-06
1.61642e-06
2.8587e-06
2.03191e-06
3.47368e-06
1.61674e-06
2.03253e-06
2.85924e-06
1.42044e-06
2.1079e-06
2.36869e-06
1.2831e-06
2.36677e-06
1.28299e-06
1.41986e-06
1.41464e-06
1.27758e-06
2.36321e-06
2.10635e-06
1.41519e-06
1.27772e-06
2.36517e-06
1.6213e-06
2.03656e-06
3.4758e-06
2.8618e-06
2.86127e-06
2.03596e-06
1.62097e-06
1.61637e-06
2.85834e-06
2.03195e-06
3.47366e-06
1.61667e-06
2.85888e-06
2.03257e-06
1.42037e-06
2.10783e-06
1.28307e-06
2.36854e-06
1.28296e-06
2.36662e-06
1.4198e-06
1.41465e-06
1.27764e-06
2.36321e-06
2.10639e-06
1.4152e-06
1.27778e-06
2.36515e-06
1.62129e-06
2.03656e-06
3.47585e-06
2.86184e-06
2.03597e-06
2.8612e-06
1.62096e-06
1.61632e-06
2.85886e-06
1.42039e-06
2.10793e-06
1.28314e-06
2.36857e-06
1.28303e-06
2.36663e-06
1.41983e-06
1.41481e-06
1.27768e-06
2.36345e-06
2.10644e-06
1.41536e-06
1.27782e-06
2.36539e-06
1.62152e-06
2.03696e-06
3.4764e-06
2.86233e-06
2.8618e-06
2.03638e-06
1.62119e-06
1.61658e-06
2.85886e-06
2.03237e-06
3.47425e-06
1.6169e-06
2.85942e-06
2.03298e-06
1.42054e-06
2.10799e-06
1.28318e-06
2.36876e-06
1.28307e-06
2.36686e-06
1.41997e-06
2.66897e-06
1.14892e-06
1.76862e-06
1.76889e-06
2.66823e-06
1.76896e-06
1.76921e-06
1.33749e-07
2.30887e-07
2.30923e-07
3.58398e-07
3.52912e-07
2.28647e-07
2.28662e-07
3.52876e-07
2.28583e-07
2.28687e-07
2.28549e-07
2.28628e-07
3.52946e-07
2.28583e-07
2.28591e-07
3.5294e-07
3.58371e-07
3.78394e-07
2.30946e-07
2.31005e-07
2.38812e-07
2.38821e-07
3.58338e-07
3.78359e-07
2.30963e-07
2.31029e-07
2.38707e-07
2.38844e-07
2.30968e-07
2.38691e-07
2.38779e-07
3.58406e-07
3.7844e-07
2.3093e-07
2.38728e-07
2.38739e-07
3.78436e-07
1.34412e-07
1.3441e-07
1.3442e-07
1.34414e-07
3.68235e-06
8.90807e-06
3.64886e-06
8.91302e-06
1.84666e-05
1.84579e-05
3.6829e-06
8.9098e-06
3.64869e-06
8.91479e-06
1.33745e-07
1.33755e-07
1.33749e-07
1.3207e-07
1.32068e-07
1.32079e-07
1.32073e-07
1.15861e-06
2.79629e-06
1.58617e-07
2.33357e-07
1.13072e-06
2.8198e-06
1.58833e-07
1.84683e-05
1.846e-05
1.15865e-06
1.58615e-07
2.79633e-06
2.33393e-07
1.13076e-06
1.58842e-07
2.82011e-06
5.13165e-06
5.13352e-06
3.65298e-07
5.14351e-06
5.14556e-06
1.8472e-05
1.84806e-05
1.8474e-05
1.84825e-05
3.46452e-07
5.12474e-06
5.12722e-06
5.11132e-06
5.11274e-06
3.59969e-06
8.90719e-06
8.90195e-06
3.63704e-06
3.59975e-06
8.90817e-06
8.90288e-06
3.63715e-06
1.08807e-06
2.26405e-07
2.78306e-06
1.58499e-07
2.75807e-06
1.5845e-07
1.11602e-06
1.08809e-06
2.26453e-07
2.78363e-06
1.58507e-07
2.7584e-06
1.58457e-07
1.11605e-06
1.84729e-05
1.84815e-05
3.46418e-07
5.1269e-06
5.12475e-06
5.1128e-06
5.11133e-06
1.84715e-05
1.84802e-05
3.5995e-06
8.90895e-06
8.90365e-06
3.63763e-06
1.08818e-06
2.26411e-07
2.78366e-06
1.58504e-07
2.75846e-06
1.58453e-07
1.11613e-06
3.59947e-06
8.90859e-06
8.90338e-06
3.63754e-06
1.08816e-06
2.26478e-07
1.5851e-07
2.78366e-06
1.58459e-07
2.75877e-06
1.11612e-06
1.08809e-06
2.26341e-07
2.78297e-06
1.58495e-07
2.75795e-06
1.58445e-07
1.11604e-06
3.59978e-06
8.90825e-06
8.90301e-06
3.6372e-06
1.08807e-06
2.26418e-07
1.58498e-07
2.78326e-06
1.58449e-07
2.75797e-06
1.11603e-06
3.59973e-06
8.90795e-06
8.90262e-06
3.6371e-06
1.84747e-05
1.84835e-05
3.46489e-07
5.1266e-06
5.12499e-06
5.11346e-06
5.1113e-06
1.84725e-05
1.84814e-05
1.08814e-06
2.26377e-07
1.58499e-07
2.78313e-06
1.58448e-07
2.75811e-06
1.11609e-06
1.08816e-06
2.26381e-07
1.58498e-07
2.78378e-06
1.58448e-07
2.75849e-06
1.11612e-06
3.59937e-06
8.908e-06
8.90274e-06
3.6376e-06
3.59945e-06
8.90912e-06
8.90379e-06
3.63769e-06
3.46472e-07
5.12539e-06
5.12742e-06
5.11104e-06
5.11293e-06
1.8473e-05
1.84813e-05
1.84744e-05
1.84828e-05
1.84656e-05
1.8457e-05
1.84676e-05
1.8459e-05
5.13167e-06
5.13319e-06
3.65281e-07
5.14346e-06
5.14565e-06
1.8443e-05
1.84506e-05
1.84444e-05
1.84526e-05
3.71056e-07
5.16093e-06
5.16201e-06
5.14952e-06
5.15124e-06
3.68246e-06
8.90902e-06
3.64893e-06
8.91397e-06
1.15859e-06
2.79637e-06
1.58621e-07
2.33463e-07
1.13069e-06
2.81992e-06
1.58839e-07
1.15862e-06
2.79685e-06
1.58631e-07
2.33477e-07
1.13072e-06
2.82039e-06
1.58846e-07
3.69296e-06
8.9186e-06
8.91384e-06
3.72273e-06
3.69303e-06
8.91956e-06
8.91476e-06
3.72285e-06
1.17316e-06
2.36019e-07
2.85469e-06
1.59524e-07
2.83237e-06
1.59141e-07
1.20081e-06
1.17319e-06
2.36084e-07
2.85522e-06
1.59532e-07
2.8327e-06
1.59153e-07
1.20085e-06
5.13315e-06
5.13156e-06
3.65232e-07
5.14536e-06
5.14345e-06
1.84652e-05
1.84566e-05
1.84438e-05
1.84516e-05
3.7102e-07
5.16245e-06
5.16047e-06
5.1511e-06
5.14944e-06
1.84424e-05
1.84502e-05
1.15868e-06
2.79685e-06
1.58622e-07
2.33388e-07
1.1308e-06
2.8205e-06
1.58846e-07
3.68283e-06
8.90947e-06
3.64864e-06
8.91446e-06
1.15868e-06
1.58633e-07
2.79692e-06
2.33503e-07
1.13078e-06
1.58847e-07
2.82062e-06
3.69281e-06
8.92029e-06
8.91558e-06
3.72326e-06
1.17329e-06
2.36042e-07
2.85498e-06
1.59532e-07
2.83285e-06
1.59143e-07
1.20088e-06
3.69278e-06
8.91996e-06
8.91527e-06
3.72318e-06
1.17327e-06
2.36108e-07
1.59531e-07
2.85516e-06
1.59153e-07
2.83304e-06
1.20089e-06
3.68249e-06
8.90913e-06
3.64897e-06
8.91408e-06
1.1586e-06
1.58621e-07
2.79652e-06
2.33439e-07
1.1307e-06
1.58836e-07
2.81991e-06
3.68238e-06
8.9088e-06
3.64892e-06
8.91373e-06
1.17319e-06
2.35957e-07
2.85458e-06
1.59517e-07
2.83219e-06
1.59137e-07
1.20082e-06
3.69309e-06
8.91966e-06
8.9149e-06
3.72287e-06
1.17317e-06
2.36042e-07
1.59521e-07
2.85488e-06
1.59141e-07
2.83226e-06
1.2008e-06
3.69303e-06
8.91937e-06
8.91453e-06
3.72276e-06
5.1334e-06
5.13137e-06
3.65318e-07
5.1456e-06
5.14385e-06
1.84662e-05
1.84579e-05
1.84455e-05
1.84536e-05
3.71096e-07
5.1623e-06
5.16058e-06
5.1516e-06
5.14955e-06
1.84434e-05
1.84515e-05
1.15869e-06
1.5862e-07
2.79705e-06
2.33401e-07
1.13079e-06
1.58837e-07
2.82043e-06
3.68288e-06
8.90886e-06
3.64856e-06
8.91388e-06
3.68297e-06
8.90996e-06
3.64864e-06
8.91489e-06
1.17324e-06
2.35996e-07
1.59527e-07
2.85469e-06
1.59134e-07
2.83239e-06
1.20086e-06
1.17327e-06
2.36003e-07
1.59522e-07
2.85539e-06
1.59141e-07
2.83279e-06
1.20089e-06
3.69267e-06
8.91942e-06
8.91466e-06
3.72326e-06
3.69275e-06
8.92052e-06
8.91569e-06
3.72335e-06
1.84665e-05
1.84576e-05
1.84681e-05
1.84592e-05
3.71081e-07
5.16095e-06
5.16293e-06
5.14942e-06
5.15131e-06
1.84438e-05
1.84514e-05
1.84453e-05
1.8453e-05
1.21277e-05
3.67154e-06
1.06712e-05
4.49083e-06
1.06673e-05
4.48227e-06
1.21304e-05
2.24343e-05
7.21067e-06
8.91017e-06
2.24349e-05
7.21114e-06
1.21271e-05
3.66033e-06
1.06621e-05
4.46663e-06
1.21243e-05
1.06659e-05
4.47569e-06
2.24252e-05
7.21258e-06
8.91101e-06
7.21225e-06
2.24246e-05
1.84655e-05
1.8459e-05
1.21277e-05
3.67138e-06
4.49142e-06
1.06715e-05
4.48226e-06
1.06677e-05
1.21304e-05
2.2434e-05
7.21209e-06
8.91193e-06
2.24347e-05
7.21321e-06
1.21271e-05
3.66088e-06
4.46659e-06
1.06624e-05
1.21243e-05
4.47629e-06
1.06662e-05
2.24251e-05
7.21458e-06
8.91273e-06
7.21376e-06
2.24243e-05
1.84674e-05
1.8461e-05
9.71967e-06
2.18998e-05
2.18992e-05
2.19008e-05
2.19002e-05
9.71941e-06
3.96038e-06
1.9267e-06
9.0348e-06
5.13469e-06
3.95479e-06
1.93573e-06
9.03951e-06
3.96732e-06
1.92824e-06
9.03959e-06
5.13674e-06
3.96153e-06
1.9374e-06
9.0443e-06
9.72004e-06
2.1914e-05
2.19134e-05
9.72161e-06
2.19111e-05
2.19105e-05
3.96942e-06
9.04576e-06
5.14058e-06
1.95628e-06
1.94704e-06
9.04129e-06
3.97616e-06
3.97622e-06
9.0506e-06
5.14249e-06
1.95798e-06
1.9486e-06
9.04608e-06
3.98323e-06
1.8473e-05
1.84795e-05
1.8475e-05
1.84815e-05
9.7171e-06
2.19315e-05
2.19316e-05
9.71739e-06
2.193e-05
2.19302e-05
3.93682e-06
1.91438e-06
5.12161e-06
9.03167e-06
9.02574e-06
1.90411e-06
3.94469e-06
3.94426e-06
1.91536e-06
5.12313e-06
9.03705e-06
9.03109e-06
1.90626e-06
3.9511e-06
3.92606e-06
9.01779e-06
1.88166e-06
5.11449e-06
3.91825e-06
9.02311e-06
1.89173e-06
3.93273e-06
9.02311e-06
1.88363e-06
5.11697e-06
3.92548e-06
9.02848e-06
1.8929e-06
9.71831e-06
2.19217e-05
2.19219e-05
2.19224e-05
2.19224e-05
9.71963e-06
1.21202e-05
1.06523e-05
4.43217e-06
3.6125e-06
1.21173e-05
1.06557e-05
4.4423e-06
2.24445e-05
8.90503e-06
7.20923e-06
2.2444e-05
7.20856e-06
2.24536e-05
7.20593e-06
8.90413e-06
2.24541e-05
7.20681e-06
1.21208e-05
3.6249e-06
1.06607e-05
4.45951e-06
1.21237e-05
1.0657e-05
4.44993e-06
1.21202e-05
1.06524e-05
4.43212e-06
3.6126e-06
1.21173e-05
1.06559e-05
4.44296e-06
2.24447e-05
8.90596e-06
7.21157e-06
7.21011e-06
2.2444e-05
2.24536e-05
7.20743e-06
8.90508e-06
2.24543e-05
7.20921e-06
1.21208e-05
3.62496e-06
1.06608e-05
4.46015e-06
1.06572e-05
4.44989e-06
1.21236e-05
1.84739e-05
1.84803e-05
9.71728e-06
2.19311e-05
2.19319e-05
9.71725e-06
2.19298e-05
2.19306e-05
3.94433e-06
1.91592e-06
5.12315e-06
9.03679e-06
1.90598e-06
9.03079e-06
3.9517e-06
3.93727e-06
1.91416e-06
5.12159e-06
9.03211e-06
9.02615e-06
1.90434e-06
3.94487e-06
3.93308e-06
9.02283e-06
1.88327e-06
5.11668e-06
1.89312e-06
3.92506e-06
9.02816e-06
3.92625e-06
9.01821e-06
1.88165e-06
5.11454e-06
3.918e-06
9.02352e-06
1.89137e-06
9.71889e-06
2.19215e-05
2.19223e-05
2.19223e-05
2.19231e-05
9.71992e-06
1.84725e-05
1.84791e-05
1.21202e-05
4.43209e-06
1.06526e-05
3.61307e-06
1.21173e-05
4.44298e-06
1.06561e-05
2.24444e-05
8.90675e-06
7.21138e-06
2.24437e-05
7.20991e-06
2.24533e-05
7.20719e-06
8.90587e-06
2.24539e-05
7.20901e-06
1.21208e-05
3.6247e-06
4.46018e-06
1.0661e-05
1.21237e-05
4.44986e-06
1.06574e-05
1.21205e-05
1.06525e-05
4.43235e-06
3.61301e-06
1.21177e-05
1.0656e-05
4.44243e-06
2.24448e-05
8.90645e-06
7.20939e-06
7.20888e-06
2.24443e-05
2.24539e-05
7.20623e-06
8.90555e-06
2.24543e-05
7.20699e-06
1.21212e-05
3.62467e-06
1.06609e-05
4.45961e-06
1.06573e-05
4.45012e-06
1.2124e-05
1.21199e-05
4.43197e-06
1.06525e-05
3.61265e-06
1.2117e-05
4.4428e-06
1.0656e-05
2.24436e-05
8.90608e-06
7.21099e-06
7.20955e-06
2.2443e-05
2.24526e-05
7.20685e-06
8.90518e-06
2.24532e-05
7.20863e-06
1.21205e-05
3.62499e-06
4.46e-06
1.0661e-05
4.44974e-06
1.06573e-05
1.21233e-05
1.21202e-05
1.06524e-05
4.43185e-06
3.61254e-06
1.21173e-05
1.06559e-05
4.44258e-06
2.24437e-05
8.90573e-06
7.20928e-06
7.20785e-06
2.24431e-05
2.24527e-05
7.20515e-06
8.90484e-06
2.24533e-05
7.2069e-06
1.21208e-05
3.62494e-06
1.06609e-05
4.45978e-06
1.06572e-05
4.44962e-06
1.21236e-05
1.84757e-05
1.84824e-05
9.71838e-06
2.19333e-05
2.19334e-05
9.71898e-06
2.19312e-05
2.19312e-05
3.94368e-06
1.91558e-06
5.12353e-06
9.03657e-06
1.90599e-06
9.03089e-06
3.95139e-06
3.93675e-06
1.91398e-06
5.12143e-06
9.03148e-06
9.02582e-06
1.90419e-06
3.94425e-06
3.93292e-06
9.02357e-06
1.88388e-06
5.1166e-06
1.89314e-06
3.92568e-06
9.02853e-06
3.92576e-06
9.0185e-06
1.88212e-06
5.11494e-06
3.91876e-06
9.02343e-06
1.89152e-06
9.71869e-06
2.19215e-05
2.19215e-05
2.19223e-05
2.19223e-05
9.7192e-06
1.84736e-05
1.84802e-05
1.21201e-05
4.43178e-06
1.06525e-05
3.61305e-06
1.21172e-05
4.44265e-06
1.06559e-05
2.24438e-05
8.90581e-06
7.20928e-06
7.20784e-06
2.24431e-05
2.24527e-05
7.20514e-06
8.90494e-06
2.24533e-05
7.20691e-06
1.21207e-05
3.62458e-06
4.45984e-06
1.06609e-05
4.44955e-06
1.06572e-05
1.21235e-05
1.21199e-05
4.432e-06
1.06526e-05
3.61314e-06
1.21171e-05
4.44298e-06
1.0656e-05
2.24437e-05
8.9069e-06
7.2112e-06
7.20973e-06
2.2443e-05
2.24526e-05
7.20702e-06
8.90601e-06
2.24532e-05
7.20884e-06
1.21206e-05
3.62466e-06
4.46018e-06
1.0661e-05
4.44978e-06
1.06573e-05
1.21234e-05
9.71851e-06
2.1932e-05
2.19313e-05
9.71676e-06
2.19318e-05
2.19312e-05
3.93823e-06
1.9146e-06
5.12171e-06
9.03251e-06
3.94543e-06
1.9046e-06
9.02628e-06
3.94506e-06
1.91627e-06
5.12356e-06
9.03731e-06
3.95241e-06
1.90616e-06
9.03107e-06
3.9266e-06
9.0179e-06
1.88163e-06
5.11496e-06
3.91812e-06
1.89153e-06
9.02347e-06
3.93363e-06
9.02269e-06
1.88317e-06
5.11701e-06
3.92494e-06
1.89322e-06
9.02826e-06
9.7214e-06
2.19242e-05
2.19236e-05
9.7216e-06
2.19257e-05
2.19251e-05
1.84739e-05
1.84802e-05
1.84754e-05
1.84817e-05
1.84646e-05
1.84581e-05
1.84665e-05
1.846e-05
9.72196e-06
2.19007e-05
2.19009e-05
2.1903e-05
2.1903e-05
9.72103e-06
3.96182e-06
1.92601e-06
9.03413e-06
5.13452e-06
3.95424e-06
9.03936e-06
1.93615e-06
3.96789e-06
1.92836e-06
9.03948e-06
5.13684e-06
3.96196e-06
9.04475e-06
1.93689e-06
9.72171e-06
2.19143e-05
2.19143e-05
9.72164e-06
2.19125e-05
2.19127e-05
3.97006e-06
9.0461e-06
5.1409e-06
1.95734e-06
9.04142e-06
3.97799e-06
1.94703e-06
3.97826e-06
9.05148e-06
5.14251e-06
1.95775e-06
9.04679e-06
3.9834e-06
1.94967e-06
1.84435e-05
1.84497e-05
1.84456e-05
1.84516e-05
9.72022e-06
2.18913e-05
2.18913e-05
9.72092e-06
2.189e-05
2.18896e-05
3.99951e-06
1.99892e-06
5.15778e-06
9.06117e-06
9.05536e-06
1.98764e-06
4.01097e-06
4.00945e-06
1.99769e-06
5.15983e-06
9.06437e-06
9.06013e-06
1.99074e-06
4.01169e-06
3.99375e-06
9.04817e-06
1.9675e-06
5.15192e-06
3.98471e-06
9.05309e-06
1.97804e-06
3.99854e-06
9.05352e-06
1.97048e-06
5.15414e-06
3.99353e-06
9.05816e-06
1.97805e-06
9.72081e-06
2.1882e-05
2.18803e-05
2.18823e-05
2.18815e-05
9.72104e-06
1.21276e-05
3.67161e-06
1.06713e-05
4.49141e-06
1.06675e-05
4.48229e-06
1.21303e-05
2.24344e-05
7.21229e-06
8.91113e-06
2.24351e-05
7.2134e-06
1.2127e-05
3.66044e-06
1.06622e-05
4.46661e-06
1.0666e-05
1.21243e-05
4.4763e-06
2.24254e-05
7.21476e-06
8.91193e-06
7.21395e-06
2.24247e-05
1.21336e-05
1.06727e-05
4.49688e-06
3.70314e-06
1.21309e-05
1.06766e-05
4.50501e-06
2.2406e-05
8.9166e-06
7.2141e-06
7.21407e-06
2.24053e-05
2.24152e-05
7.21336e-06
8.91582e-06
2.24155e-05
7.21359e-06
1.21341e-05
3.71321e-06
1.0682e-05
4.51817e-06
1.06781e-05
4.51064e-06
1.21366e-05
1.21335e-05
1.06728e-05
4.49694e-06
3.70326e-06
1.21309e-05
1.06767e-05
4.50554e-06
2.2406e-05
8.91758e-06
7.21622e-06
7.21594e-06
2.24052e-05
2.2415e-05
7.21516e-06
8.91681e-06
2.24158e-05
7.21569e-06
1.2134e-05
3.71327e-06
1.06821e-05
4.51875e-06
1.06782e-05
4.51066e-06
1.21365e-05
9.72068e-06
2.18994e-05
2.19001e-05
2.19011e-05
2.19019e-05
9.71998e-06
3.96751e-06
1.92802e-06
9.03917e-06
5.13647e-06
9.04423e-06
3.96138e-06
1.93725e-06
3.96067e-06
1.92638e-06
9.0345e-06
5.13446e-06
1.9355e-06
3.95431e-06
9.03954e-06
9.72065e-06
2.19133e-05
2.1914e-05
2.19111e-05
9.72106e-06
2.19118e-05
3.97674e-06
9.05079e-06
5.14237e-06
1.95803e-06
9.04616e-06
1.9487e-06
3.98336e-06
3.96967e-06
9.04612e-06
5.14079e-06
1.95629e-06
1.94707e-06
9.04149e-06
3.97654e-06
1.84641e-05
1.84576e-05
1.84447e-05
1.84507e-05
9.72058e-06
2.18911e-05
2.18919e-05
9.72035e-06
2.18904e-05
2.18911e-05
4.00893e-06
1.99944e-06
5.15966e-06
9.06548e-06
1.99033e-06
9.06053e-06
4.01473e-06
4.00186e-06
1.99769e-06
5.15795e-06
9.06075e-06
9.05583e-06
1.98869e-06
4.00789e-06
3.99986e-06
9.053e-06
1.9696e-06
5.15401e-06
1.97916e-06
3.99315e-06
9.05828e-06
3.99303e-06
9.04833e-06
1.96798e-06
5.15203e-06
3.98609e-06
9.05358e-06
1.97741e-06
9.72195e-06
2.18818e-05
2.18825e-05
2.18831e-05
2.18839e-05
9.72201e-06
1.84432e-05
1.84493e-05
1.2128e-05
3.67134e-06
1.06714e-05
4.49087e-06
1.06676e-05
4.48249e-06
1.21307e-05
2.24346e-05
7.211e-06
8.91158e-06
2.24351e-05
7.21129e-06
1.21274e-05
3.66083e-06
1.06623e-05
4.46682e-06
1.06661e-05
1.21246e-05
4.47575e-06
2.24254e-05
7.21271e-06
8.91243e-06
7.2126e-06
2.24249e-05
1.21335e-05
4.49692e-06
1.0673e-05
3.70368e-06
1.21309e-05
4.50556e-06
1.06769e-05
2.24057e-05
8.91837e-06
7.21605e-06
7.21576e-06
2.24049e-05
2.24146e-05
7.21497e-06
8.9176e-06
2.24154e-05
7.21551e-06
1.2134e-05
3.71303e-06
4.51875e-06
1.06823e-05
4.5106e-06
1.06784e-05
1.21365e-05
1.21339e-05
1.06729e-05
4.49716e-06
3.7036e-06
1.21313e-05
1.06768e-05
4.505e-06
2.24059e-05
8.91802e-06
7.21428e-06
7.21436e-06
2.24054e-05
2.24152e-05
7.21372e-06
8.91724e-06
2.24157e-05
7.21371e-06
1.21344e-05
3.71301e-06
1.06822e-05
4.5182e-06
1.06783e-05
4.51086e-06
1.21368e-05
1.21273e-05
3.67167e-06
4.49125e-06
1.06715e-05
4.48215e-06
1.06676e-05
1.213e-05
2.24334e-05
7.21174e-06
8.91123e-06
7.21285e-06
2.2434e-05
1.21268e-05
3.6605e-06
4.46647e-06
1.06624e-05
4.47615e-06
1.2124e-05
1.06662e-05
2.24244e-05
7.2142e-06
8.91207e-06
7.21341e-06
2.24237e-05
1.21276e-05
3.67162e-06
1.06714e-05
4.49103e-06
1.06675e-05
4.48203e-06
1.21303e-05
2.24335e-05
7.21004e-06
8.9109e-06
2.24341e-05
7.21113e-06
1.2127e-05
3.6604e-06
1.06623e-05
4.46635e-06
1.21243e-05
1.0666e-05
4.47593e-06
2.24245e-05
7.2125e-06
8.91169e-06
7.21172e-06
2.24238e-05
1.21332e-05
4.49679e-06
1.0673e-05
3.70325e-06
1.21306e-05
4.50537e-06
1.06769e-05
2.2405e-05
8.9177e-06
7.21568e-06
7.2154e-06
2.24042e-05
2.2414e-05
7.21461e-06
8.9169e-06
2.24147e-05
7.21513e-06
1.21337e-05
3.71333e-06
4.5186e-06
1.06823e-05
4.51052e-06
1.06783e-05
1.21362e-05
1.21335e-05
1.06728e-05
4.49668e-06
3.70314e-06
1.21309e-05
1.06767e-05
4.50516e-06
2.24051e-05
8.91739e-06
7.21399e-06
7.21374e-06
2.24043e-05
2.24141e-05
7.21294e-06
8.91661e-06
2.24148e-05
7.21345e-06
1.2134e-05
3.71328e-06
1.06821e-05
4.51839e-06
1.06782e-05
4.5104e-06
1.21365e-05
9.72277e-06
2.19023e-05
2.19024e-05
2.19045e-05
2.19046e-05
9.72214e-06
3.9687e-06
1.92822e-06
9.03912e-06
5.13637e-06
9.04475e-06
3.96183e-06
1.93752e-06
3.9616e-06
1.92639e-06
9.03406e-06
5.13477e-06
1.93595e-06
3.95487e-06
9.03965e-06
9.72204e-06
2.19144e-05
2.19144e-05
2.19133e-05
9.72135e-06
2.19133e-05
3.9781e-06
9.05167e-06
5.14289e-06
1.95845e-06
9.0469e-06
1.94949e-06
3.98422e-06
3.97112e-06
9.0466e-06
5.14084e-06
1.95689e-06
1.94764e-06
9.04181e-06
3.97714e-06
1.84652e-05
1.84589e-05
1.84464e-05
1.84526e-05
9.72108e-06
2.18925e-05
2.18926e-05
9.72201e-06
2.18908e-05
2.18909e-05
4.00854e-06
1.99929e-06
5.15983e-06
9.06538e-06
1.99031e-06
9.06037e-06
4.01486e-06
4.00155e-06
1.99775e-06
5.15786e-06
9.06032e-06
9.05531e-06
1.98847e-06
4.00779e-06
3.99934e-06
9.0536e-06
1.97e-06
5.15409e-06
1.97893e-06
3.99322e-06
9.05826e-06
3.99227e-06
9.04854e-06
1.96816e-06
5.1523e-06
3.98624e-06
9.05319e-06
1.97738e-06
9.72139e-06
2.18817e-05
2.18818e-05
2.18826e-05
2.18826e-05
9.72145e-06
1.84443e-05
1.84504e-05
1.21275e-05
3.67125e-06
4.4911e-06
1.06714e-05
4.48195e-06
1.06675e-05
1.21302e-05
2.24335e-05
7.21005e-06
8.91101e-06
7.21115e-06
2.24342e-05
1.21269e-05
3.66089e-06
4.46627e-06
1.06623e-05
4.47599e-06
1.21242e-05
1.06661e-05
2.24245e-05
7.21251e-06
8.91182e-06
7.21173e-06
2.24238e-05
1.21274e-05
3.67133e-06
4.49141e-06
1.06715e-05
4.48216e-06
1.06677e-05
1.21301e-05
2.24333e-05
7.21191e-06
8.91206e-06
2.24341e-05
7.21303e-06
1.21268e-05
3.66098e-06
4.4665e-06
1.06624e-05
1.2124e-05
4.47632e-06
1.06662e-05
2.24244e-05
7.2144e-06
8.91285e-06
7.21357e-06
2.24237e-05
1.21334e-05
4.49661e-06
1.06729e-05
3.70364e-06
1.21308e-05
4.50523e-06
1.06768e-05
2.24051e-05
8.91744e-06
7.214e-06
7.21373e-06
2.24044e-05
2.24141e-05
7.21294e-06
8.91667e-06
2.24149e-05
7.21344e-06
1.21339e-05
3.71292e-06
4.51844e-06
1.06822e-05
4.51032e-06
1.06782e-05
1.21364e-05
1.21332e-05
4.49682e-06
1.0673e-05
3.70373e-06
1.21306e-05
4.50555e-06
1.06769e-05
2.2405e-05
8.91855e-06
7.21586e-06
7.21558e-06
2.24042e-05
2.2414e-05
7.21479e-06
8.91777e-06
2.24147e-05
7.21534e-06
1.21338e-05
3.71299e-06
4.51877e-06
1.06823e-05
4.51055e-06
1.06784e-05
1.21362e-05
1.84653e-05
1.84587e-05
1.84669e-05
1.84603e-05
9.7227e-06
2.18935e-05
2.18929e-05
9.72118e-06
2.18933e-05
2.18926e-05
4.00289e-06
1.9982e-06
5.15822e-06
9.0612e-06
1.98909e-06
9.05616e-06
4.00845e-06
4.00965e-06
1.99985e-06
5.16011e-06
9.06599e-06
1.99063e-06
9.06098e-06
4.01535e-06
3.99361e-06
9.0481e-06
1.96799e-06
5.15244e-06
3.98646e-06
1.97771e-06
9.05377e-06
4.00065e-06
9.05295e-06
1.96957e-06
5.15443e-06
3.99334e-06
1.9794e-06
9.05862e-06
9.72375e-06
2.18835e-05
2.18829e-05
2.18858e-05
2.18852e-05
9.72305e-06
1.84447e-05
1.84506e-05
1.84462e-05
1.84521e-05
1.17709e-07
1.17705e-07
1.3314e-07
1.16608e-07
1.16606e-07
1.09943e-07
1.11234e-07
1.74036e-06
7.67783e-07
7.68086e-07
3.59027e-07
1.73372e-06
7.71758e-07
7.72038e-07
1.71076e-06
3.5231e-07
7.56595e-07
7.569e-07
7.52617e-07
7.52923e-07
1.71775e-06
1.71074e-06
3.52279e-07
7.56846e-07
7.56566e-07
7.52864e-07
7.52592e-07
1.71777e-06
1.71074e-06
3.52345e-07
7.56918e-07
7.56653e-07
7.52958e-07
7.52677e-07
1.71776e-06
1.71098e-06
3.52336e-07
7.56696e-07
7.5697e-07
1.71802e-06
7.5268e-07
7.52977e-07
1.74034e-06
7.67692e-07
7.68008e-07
3.59002e-07
1.7336e-06
7.71674e-07
7.71985e-07
1.79823e-06
3.77683e-07
8.17815e-07
8.16998e-07
8.1294e-07
8.13762e-07
1.80468e-06
1.7402e-06
7.67945e-07
7.67669e-07
3.58961e-07
7.71623e-07
1.73349e-06
7.71908e-07
1.79844e-06
3.77654e-07
8.17543e-07
8.17247e-07
8.1351e-07
8.13223e-07
1.8048e-06
1.74046e-06
7.6803e-07
7.67743e-07
3.5904e-07
7.71757e-07
1.7336e-06
7.72023e-07
1.79841e-06
3.77725e-07
8.17633e-07
8.17352e-07
8.13599e-07
8.13297e-07
1.80484e-06
1.79875e-06
3.77722e-07
8.17415e-07
8.17711e-07
8.13347e-07
8.13668e-07
1.80512e-06
1.35124e-07
1.18845e-07
1.18843e-07
1.20019e-07
1.20015e-07
1.13904e-07
1.12555e-07
1.3512e-07
1.18845e-07
1.18841e-07
1.20019e-07
1.20014e-07
1.13904e-07
1.12554e-07
1.35129e-07
1.18848e-07
1.18845e-07
1.20021e-07
1.20016e-07
1.13905e-07
1.12556e-07
1.35123e-07
1.18846e-07
1.18843e-07
1.20019e-07
1.20016e-07
1.13904e-07
1.12555e-07
1.17709e-07
1.17704e-07
1.33138e-07
1.16608e-07
1.16603e-07
1.09942e-07
1.11234e-07
1.17712e-07
1.17707e-07
1.33148e-07
1.16611e-07
1.16607e-07
1.09944e-07
1.11235e-07
1.17709e-07
1.17706e-07
1.33142e-07
1.16609e-07
1.16605e-07
1.09943e-07
1.11235e-07
1.32578e-07
1.14513e-07
1.14511e-07
1.15543e-07
1.15539e-07
1.08679e-07
1.07443e-07
1.32573e-07
1.14513e-07
1.14508e-07
1.15543e-07
1.15538e-07
1.08679e-07
1.07443e-07
1.32583e-07
1.14516e-07
1.14512e-07
1.15546e-07
1.15541e-07
1.0868e-07
1.07444e-07
1.32577e-07
1.14514e-07
1.1451e-07
1.15544e-07
1.1554e-07
1.08679e-07
1.07443e-07
4.76662e-07
1.152e-06
1.47496e-06
3.88745e-07
1.46836e-06
3.87228e-07
4.78145e-07
6.56096e-07
1.00138e-06
2.0734e-06
2.80178e-06
6.53884e-07
1.00622e-06
2.07949e-06
4.69285e-07
1.13736e-06
1.44635e-06
3.80193e-07
4.67842e-07
1.45305e-06
3.81654e-07
6.65674e-07
2.10012e-06
2.81455e-06
1.02323e-06
1.01842e-06
2.0942e-06
6.67908e-07
4.7668e-07
1.15205e-06
3.88776e-07
1.47492e-06
3.87263e-07
1.46831e-06
4.78172e-07
6.56067e-07
1.00141e-06
2.07306e-06
2.80196e-06
6.53844e-07
1.0063e-06
2.07918e-06
4.69308e-07
1.1374e-06
3.80228e-07
1.44629e-06
4.67864e-07
3.81683e-07
1.45299e-06
6.65634e-07
2.09985e-06
2.81472e-06
1.02339e-06
1.01854e-06
2.09389e-06
6.67889e-07
1.75535e-06
3.6464e-07
7.86775e-07
7.87063e-07
7.82787e-07
7.83098e-07
1.76194e-06
1.69467e-06
3.4702e-07
7.3774e-07
7.38036e-07
1.68765e-06
7.4165e-07
7.41947e-07
4.52208e-07
1.4016e-06
3.66838e-07
1.09472e-06
4.50845e-07
1.40847e-06
3.6818e-07
6.42237e-07
9.89268e-07
2.77739e-06
2.05818e-06
9.84397e-07
2.05188e-06
6.44439e-07
6.3299e-07
2.03028e-06
9.67464e-07
2.76383e-06
9.72274e-07
6.30832e-07
2.03669e-06
4.59211e-07
1.10938e-06
1.43084e-06
3.7479e-07
1.42403e-06
3.73396e-07
4.60622e-07
4.52272e-07
1.40179e-06
3.66848e-07
1.09475e-06
4.50908e-07
1.40867e-06
3.68198e-07
6.42445e-07
9.89652e-07