/*--------------------------------*- C++ -*----------------------------------*\
| =========                 |                                                 |
| \\      /  F ield         | OpenFOAM: The Open Source CFD Toolbox           |
|  \\    /   O peration     | Version:  v1906                                 |
|   \\  /    A nd           | Web:      www.OpenFOAM.com                      |
|    \\/     M anipulation  |                                                 |
\*---------------------------------------------------------------------------*/
FoamFile
{
    version     2.0;
    format      ascii;
    class       volScalarField;
    location    "375";
    object      k;
}
// * * * * * * * * * * * * * * * * * * * * * * * * * * * * * * * * * * * * * //

dimensions      [0 2 -2 0 0 0 0];


internalField   nonuniform List<scalar> 
43248
(
4.19616e-05
3.66747e-05
3.66742e-05
4.19605e-05
3.66702e-05
3.66692e-05
3.66729e-05
3.6679e-05
4.19566e-05
3.66694e-05
3.66764e-05
4.19646e-05
2.10133e-05
2.10133e-05
2.10131e-05
2.10196e-05
6.95417e-05
6.95444e-05
6.69431e-05
6.69518e-05
6.46385e-05
7.13637e-05
6.47381e-05
6.46403e-05
7.13686e-05
7.13336e-05
6.47401e-05
5.31641e-05
6.02493e-05
2.90115e-05
2.87645e-05
5.33669e-05
5.31655e-05
3.64412e-05
6.02536e-05
2.90122e-05
6.01283e-05
2.87651e-05
5.33684e-05
6.95437e-05
6.95189e-05
4.17561e-05
6.69529e-05
6.69389e-05
6.68774e-05
6.68637e-05
6.954e-05
6.9515e-05
7.13695e-05
6.47417e-05
6.02529e-05
2.90132e-05
5.33692e-05
7.13638e-05
6.47395e-05
2.90121e-05
6.02453e-05
5.33672e-05
5.31667e-05
3.64398e-05
6.02497e-05
2.9014e-05
6.01244e-05
2.87668e-05
5.33697e-05
6.46412e-05
7.13676e-05
7.13326e-05
6.47409e-05
5.31655e-05
3.64471e-05
2.90169e-05
6.02489e-05
2.87701e-05
6.01254e-05
5.33684e-05
6.46397e-05
7.13646e-05
7.13298e-05
6.47392e-05
6.95422e-05
6.69426e-05
6.69395e-05
6.95426e-05
5.31658e-05
2.9015e-05
6.02482e-05
2.87692e-05
5.33688e-05
5.31673e-05
3.64449e-05
2.90183e-05
6.02541e-05
2.87723e-05
6.01304e-05
5.33702e-05
6.46411e-05
7.13658e-05
6.47406e-05
6.46428e-05
7.13693e-05
7.13345e-05
6.47421e-05
4.17616e-05
6.69404e-05
6.6952e-05
6.68673e-05
6.68787e-05
6.95415e-05
6.95168e-05
6.95443e-05
6.95196e-05
6.95302e-05
6.9533e-05
7.00885e-05
5.94381e-05
6.69122e-05
7.11552e-05
7.11384e-05
5.93665e-05
7.01454e-05
7.01404e-05
5.94339e-05
6.6922e-05
7.11649e-05
7.11488e-05
5.93756e-05
7.01743e-05
9.23722e-05
7.20466e-05
7.20394e-05
7.20355e-05
7.20292e-05
9.23938e-05
7.01263e-05
6.98239e-05
6.81372e-05
6.46795e-05
7.01165e-05
6.98337e-05
6.81729e-05
7.01873e-05
7.13494e-05
7.73989e-05
7.73782e-05
7.01989e-05
7.01295e-05
6.46975e-05
6.98475e-05
6.82228e-05
6.98375e-05
6.81875e-05
7.01394e-05
7.01284e-05
6.98245e-05
6.81443e-05
6.46815e-05
7.01186e-05
6.98343e-05
6.81803e-05
7.01897e-05
7.13543e-05
7.74204e-05
7.73992e-05
7.02007e-05
7.01908e-05
7.73698e-05
7.13479e-05
7.018e-05
7.73913e-05
7.01316e-05
6.46994e-05
6.98481e-05
6.82302e-05
6.98381e-05
6.81947e-05
7.01415e-05
6.95323e-05
6.95302e-05
9.23599e-05
7.20179e-05
7.20234e-05
9.23359e-05
7.20284e-05
7.20339e-05
7.01394e-05
5.94402e-05
6.69228e-05
7.11647e-05
5.93748e-05
7.11484e-05
7.01836e-05
7.00881e-05
5.94311e-05
6.6909e-05
7.11532e-05
7.1137e-05
5.93657e-05
7.01324e-05
7.01184e-05
7.11249e-05
5.92751e-05
6.69085e-05
5.93417e-05
7.00729e-05
7.11414e-05
7.00672e-05
7.11135e-05
5.92658e-05
6.68945e-05
7.00216e-05
7.11299e-05
5.93326e-05
9.23706e-05
7.20395e-05
7.20449e-05
7.20289e-05
7.20344e-05
9.23935e-05
6.95285e-05
6.95265e-05
7.01901e-05
7.13552e-05
7.74193e-05
7.73978e-05
7.0201e-05
7.0132e-05
6.4701e-05
6.82296e-05
6.98492e-05
6.8194e-05
6.98393e-05
7.0142e-05
7.01868e-05
7.13493e-05
7.73969e-05
7.73757e-05
7.01985e-05
7.01297e-05
6.46989e-05
6.98485e-05
6.82218e-05
6.98385e-05
6.81864e-05
7.01397e-05
7.01284e-05
6.81439e-05
6.98249e-05
6.46824e-05
7.01186e-05
6.81798e-05
6.98348e-05
7.01895e-05
7.13534e-05
7.74183e-05
7.73971e-05
7.02005e-05
7.01906e-05
7.73677e-05
7.13469e-05
7.01797e-05
7.73892e-05
7.01316e-05
6.47003e-05
6.82297e-05
6.98485e-05
6.81942e-05
6.98385e-05
7.01414e-05
7.01271e-05
6.98244e-05
6.81391e-05
6.46808e-05
7.01173e-05
6.98342e-05
6.81748e-05
7.0188e-05
7.13503e-05
7.73994e-05
7.73785e-05
7.01989e-05
7.01891e-05
7.73496e-05
7.1344e-05
7.01782e-05
7.73707e-05
7.01303e-05
6.46987e-05
6.9848e-05
6.82243e-05
6.9838e-05
6.81891e-05
7.01402e-05
6.95304e-05
7.01353e-05
5.94341e-05
6.69125e-05
7.11627e-05
5.93693e-05
7.11459e-05
7.01794e-05
7.00863e-05
5.9429e-05
6.69094e-05
7.11543e-05
7.11376e-05
5.93641e-05
7.01303e-05
9.23706e-05
7.20398e-05
7.20462e-05
7.20288e-05
7.20352e-05
9.23942e-05
6.9531e-05
7.01275e-05
6.81382e-05
6.98255e-05
6.46822e-05
7.01177e-05
6.8174e-05
6.98353e-05
7.0189e-05
7.13513e-05
7.73995e-05
7.73781e-05
7.02e-05
7.019e-05
7.73702e-05
7.01308e-05
6.47001e-05
6.82239e-05
6.98491e-05
6.81884e-05
6.98391e-05
7.01407e-05
7.01287e-05
6.81437e-05
6.98259e-05
6.46839e-05
7.01188e-05
6.81793e-05
6.98357e-05
7.01894e-05
7.13551e-05
7.74163e-05
7.73959e-05
7.02009e-05
7.01911e-05
7.73672e-05
7.13488e-05
7.01797e-05
7.73879e-05
7.01318e-05
6.47017e-05
6.82286e-05
6.98494e-05
6.81936e-05
6.98395e-05
7.01417e-05
9.23606e-05
7.20237e-05
7.20176e-05
9.23388e-05
7.2034e-05
7.20279e-05
7.0088e-05
5.94311e-05
6.69112e-05
7.11531e-05
5.9367e-05
7.11369e-05
7.01308e-05
7.01403e-05
5.94415e-05
6.69227e-05
7.11643e-05
5.93774e-05
7.11482e-05
7.01831e-05
7.0068e-05
7.11138e-05
5.92684e-05
6.68973e-05
7.00236e-05
5.93346e-05
7.113e-05
7.01203e-05
7.11251e-05
5.92787e-05
6.69089e-05
7.0076e-05
5.9345e-05
7.11412e-05
9.23707e-05
7.20451e-05
7.2039e-05
7.20345e-05
7.20284e-05
9.23922e-05
6.95301e-05
6.9528e-05
6.95329e-05
6.95308e-05
5.96153e-05
4.19446e-05
5.06625e-05
5.06569e-05
5.06189e-05
5.06257e-05
5.9682e-05
5.96154e-05
4.19432e-05
5.06596e-05
5.06584e-05
5.06222e-05
5.06208e-05
5.9681e-05
5.96102e-05
4.19393e-05
5.06543e-05
5.06546e-05
5.0617e-05
5.0617e-05
5.96763e-05
5.96157e-05
4.19476e-05
5.06592e-05
5.06628e-05
5.06219e-05
5.06258e-05
5.96811e-05
1.50263e-05
1.50257e-05
1.49131e-05
1.08496e-05
1.08777e-05
2.08261e-05
1.50262e-05
1.50255e-05
1.49127e-05
1.49119e-05
1.08493e-05
1.08775e-05
1.50279e-05
1.50276e-05
1.4915e-05
1.08509e-05
1.08788e-05
2.08326e-05
1.50301e-05
1.50293e-05
1.49163e-05
1.49159e-05
1.08509e-05
1.08793e-05
4.56429e-05
5.54799e-05
4.36664e-05
5.3245e-05
4.5624e-05
5.55541e-05
4.36994e-05
4.81588e-05
5.26394e-05
6.01992e-05
5.85745e-05
5.26005e-05
5.8514e-05
4.81851e-05
4.57986e-05
5.32869e-05
5.56656e-05
4.38833e-05
5.55923e-05
4.38509e-05
4.58172e-05
4.56462e-05
5.5485e-05
4.36675e-05
5.32465e-05
4.56272e-05
5.55594e-05
4.37005e-05
4.81626e-05
5.26412e-05
6.02036e-05
5.85831e-05
5.85225e-05
5.2604e-05
4.81887e-05
4.8034e-05
5.84282e-05
5.24712e-05
6.01792e-05
4.80073e-05
5.84898e-05
5.25091e-05
4.58022e-05
5.32884e-05
5.56711e-05
4.38844e-05
5.55976e-05
4.38521e-05
4.58206e-05
5.95751e-05
4.17738e-05
5.0474e-05
5.04725e-05
5.05122e-05
5.95083e-05
5.05109e-05
4.8162e-05
5.26397e-05
6.02035e-05
5.85819e-05
5.26047e-05
5.85215e-05
4.81876e-05
4.58019e-05
5.32893e-05
5.56704e-05
4.3885e-05
5.5597e-05
4.38526e-05
4.58202e-05
4.81551e-05
5.26344e-05
6.01959e-05
5.85713e-05
5.85109e-05
5.25974e-05
4.81812e-05
4.57972e-05
5.32872e-05
4.38833e-05
5.56644e-05
4.38509e-05
5.5591e-05
4.58157e-05
4.56461e-05
5.5485e-05
4.36686e-05
5.32477e-05
4.56272e-05
5.55593e-05
4.37017e-05
4.81619e-05
5.26387e-05
6.01999e-05
5.85819e-05
5.26013e-05
5.85214e-05
4.8188e-05
4.80332e-05
5.8427e-05
5.24684e-05
6.01753e-05
4.80064e-05
5.25064e-05
5.84886e-05
4.58022e-05
5.32897e-05
5.5671e-05
4.38857e-05
5.55977e-05
4.38533e-05
4.58205e-05
4.56452e-05
4.36682e-05
5.54821e-05
5.32466e-05
4.56262e-05
4.37014e-05
5.55564e-05
4.81609e-05
5.2639e-05
6.01998e-05
5.85758e-05
5.85158e-05
5.26021e-05
4.81869e-05
4.80329e-05
5.84221e-05
5.24701e-05
6.01759e-05
4.80061e-05
5.84834e-05
5.25079e-05
4.58009e-05
5.32885e-05
4.38853e-05
5.56676e-05
4.38528e-05
5.55945e-05
4.58193e-05
4.56431e-05
4.36678e-05
5.54806e-05
5.32468e-05
4.5624e-05
4.3701e-05
5.5555e-05
4.81577e-05
5.26364e-05
6.01986e-05
5.85745e-05
5.25993e-05
5.8514e-05
4.81838e-05
4.80291e-05
5.84814e-05
4.5799e-05
5.3289e-05
4.3885e-05
5.56667e-05
4.38525e-05
5.55934e-05
4.58176e-05
4.56476e-05
4.36693e-05
5.54856e-05
5.32483e-05
4.56286e-05
4.37025e-05
5.55598e-05
4.81637e-05
5.26431e-05
6.0205e-05
5.85821e-05
5.85222e-05
5.26063e-05
4.81895e-05
4.80354e-05
5.84283e-05
5.24742e-05
6.0181e-05
4.80088e-05
5.84897e-05
5.25119e-05
4.58034e-05
5.32905e-05
4.38865e-05
5.56711e-05
4.3854e-05
5.55982e-05
4.58217e-05
5.95776e-05
4.17793e-05
5.04749e-05
5.04787e-05
5.95107e-05
5.05131e-05
5.05167e-05
1.49374e-05
1.61534e-05
1.61539e-05
1.81338e-05
1.80253e-05
1.6133e-05
1.61331e-05
1.80247e-05
1.6133e-05
1.61334e-05
1.61327e-05
1.6133e-05
1.8026e-05
1.61333e-05
1.61335e-05
1.80255e-05
1.81335e-05
1.85974e-05
1.61531e-05
1.61539e-05
1.62493e-05
1.62493e-05
1.81332e-05
1.85964e-05
1.61542e-05
1.61541e-05
1.62486e-05
1.62496e-05
1.61537e-05
1.62486e-05
1.62491e-05
1.81343e-05
1.85979e-05
1.61542e-05
1.62492e-05
1.62495e-05
1.85972e-05
1.50252e-05
1.50252e-05
1.50253e-05
1.50253e-05
5.35406e-05
7.00326e-05
5.29174e-05
7.00585e-05
6.96295e-05
6.96077e-05
5.3542e-05
7.0038e-05
5.29188e-05
7.00642e-05
1.49374e-05
1.49374e-05
1.49374e-05
1.46906e-05
1.46907e-05
1.46907e-05
1.46908e-05
2.93912e-05
4.52109e-05
1.49118e-05
1.61794e-05
2.88267e-05
4.5636e-05
1.48616e-05
6.96294e-05
6.96086e-05
2.93914e-05
1.4912e-05
4.52051e-05
1.61799e-05
2.8827e-05
1.48617e-05
4.56444e-05
5.90148e-05
5.90262e-05
1.82974e-05
5.92919e-05
5.93046e-05
6.96438e-05
6.96653e-05
6.96457e-05
6.96672e-05
1.78803e-05
5.89469e-05
5.89602e-05
5.86468e-05
5.86589e-05
5.21122e-05
7.0028e-05
7.00005e-05
5.27888e-05
5.21134e-05
7.00332e-05
7.00055e-05
5.279e-05
2.79788e-05
1.6118e-05
4.49995e-05
1.49645e-05
4.45653e-05
1.50231e-05
2.8539e-05
2.79793e-05
1.61185e-05
4.50138e-05
1.49646e-05
4.45602e-05
1.50232e-05
2.85396e-05
6.96453e-05
6.9667e-05
1.78797e-05
5.89594e-05
5.89472e-05
5.86598e-05
5.86484e-05
6.96434e-05
6.96651e-05
5.21139e-05
7.00336e-05
7.00058e-05
5.27903e-05
2.79801e-05
1.61189e-05
4.50111e-05
1.49647e-05
4.4562e-05
1.50234e-05
2.85404e-05
5.21129e-05
7.00294e-05
7.00021e-05
5.27892e-05
2.79797e-05
1.61188e-05
1.49645e-05
4.50037e-05
1.50231e-05
4.45695e-05
2.85401e-05
2.79791e-05
1.61181e-05
4.50008e-05
1.49647e-05
4.45623e-05
1.50234e-05
2.85393e-05
5.21138e-05
7.00325e-05
7.00051e-05
5.279e-05
2.79786e-05
1.61183e-05
1.49646e-05
4.50083e-05
1.50232e-05
4.45564e-05
2.85389e-05
5.21125e-05
7.00287e-05
7.00007e-05
5.27886e-05
6.96454e-05
6.96677e-05
1.78806e-05
5.89561e-05
5.89463e-05
5.86612e-05
5.86514e-05
6.96437e-05
6.9666e-05
2.79794e-05
1.61187e-05
1.49648e-05
4.50073e-05
1.50235e-05
4.4558e-05
2.85396e-05
2.798e-05
1.61188e-05
1.49649e-05
4.50139e-05
1.50235e-05
4.45605e-05
2.85402e-05
5.21129e-05
7.00286e-05
7.0001e-05
5.2789e-05
5.21141e-05
7.00337e-05
7.00058e-05
5.27902e-05
1.78805e-05
5.89527e-05
5.8964e-05
5.8646e-05
5.86586e-05
6.96443e-05
6.96653e-05
6.96463e-05
6.96674e-05
6.96278e-05
6.96062e-05
6.96298e-05
6.96082e-05
5.90077e-05
5.902e-05
1.82968e-05
5.92952e-05
5.93087e-05
6.95702e-05
6.95901e-05
6.95722e-05
6.95922e-05
1.8417e-05
5.96169e-05
5.96247e-05
5.93482e-05
5.93608e-05
5.3542e-05
7.00376e-05
5.29186e-05
7.00636e-05
2.93908e-05
4.52123e-05
1.49116e-05
1.61799e-05
2.88264e-05
4.56362e-05
1.48614e-05
2.93915e-05
4.52119e-05
1.49117e-05
1.61799e-05
2.8827e-05
4.56466e-05
1.48615e-05
5.36583e-05
7.00876e-05
7.00628e-05
5.42284e-05
5.36597e-05
7.00928e-05
7.00677e-05
5.42297e-05
2.96795e-05
1.62112e-05
4.62436e-05
1.47754e-05
4.58344e-05
1.48172e-05
3.02442e-05
2.96801e-05
1.62118e-05
4.62571e-05
1.47755e-05
4.58302e-05
1.48173e-05
3.02453e-05
5.90199e-05
5.90076e-05
1.82965e-05
5.93066e-05
5.92949e-05
6.96274e-05
6.96058e-05
6.95722e-05
6.95919e-05
1.84166e-05
5.96293e-05
5.96167e-05
5.93584e-05
5.93471e-05
6.95701e-05
6.95898e-05
2.9392e-05
4.52121e-05
1.49118e-05
1.61797e-05
2.88278e-05
4.5646e-05
1.48616e-05
5.35411e-05
7.0034e-05
5.29177e-05
7.00602e-05
2.93917e-05
1.49116e-05
4.5215e-05
1.61802e-05
2.88273e-05
1.48614e-05
4.56411e-05
5.36598e-05
7.00932e-05
7.00683e-05
5.42299e-05
2.96811e-05
1.62124e-05
4.62514e-05
1.47756e-05
4.58344e-05
1.48175e-05
3.02453e-05
5.36588e-05
7.0089e-05
7.00644e-05
5.42288e-05
2.96806e-05
1.62123e-05
1.47754e-05
4.62471e-05
1.48172e-05
4.58389e-05
3.02451e-05
5.35425e-05
7.00372e-05
5.29186e-05
7.00631e-05
2.93908e-05
1.49117e-05
4.52103e-05
1.61797e-05
2.88262e-05
1.48615e-05
4.56388e-05
5.35413e-05
7.00331e-05
5.29173e-05
7.0059e-05
2.968e-05
1.62112e-05
4.62459e-05
1.47756e-05
4.58304e-05
1.48174e-05
3.02444e-05
5.36601e-05
7.00923e-05
7.00674e-05
5.42293e-05
2.96795e-05
1.62116e-05
1.47755e-05
4.62521e-05
1.48172e-05
4.58261e-05
3.02439e-05
5.36589e-05
7.00885e-05
7.00632e-05
5.4228e-05
5.90146e-05
5.9005e-05
1.82973e-05
5.9308e-05
5.92988e-05
6.96278e-05
6.96067e-05
6.95721e-05
6.95924e-05
1.84175e-05
5.96241e-05
5.96144e-05
5.93616e-05
5.93518e-05
6.95703e-05
6.95907e-05
2.93921e-05
1.4912e-05
4.52145e-05
1.61802e-05
2.88277e-05
1.48618e-05
4.56445e-05
5.35414e-05
7.00331e-05
5.29176e-05
7.00594e-05
5.35427e-05
7.00382e-05
5.29188e-05
7.0064e-05
2.96803e-05
1.6212e-05
1.47757e-05
4.62505e-05
1.48175e-05
4.58279e-05
3.02446e-05
2.9681e-05
1.6212e-05
1.47758e-05
4.62578e-05
1.48176e-05
4.58302e-05
3.02453e-05
5.36589e-05
7.00884e-05
7.00635e-05
5.42286e-05
5.36601e-05
7.00935e-05
7.00682e-05
5.42298e-05
6.96282e-05
6.96059e-05
6.96303e-05
6.9608e-05
1.84175e-05
5.96233e-05
5.96347e-05
5.93437e-05
5.93561e-05
6.95711e-05
6.95903e-05
6.95732e-05
6.95924e-05
6.98356e-05
5.3296e-05
6.91622e-05
5.95549e-05
6.91455e-05
5.93768e-05
6.9846e-05
7.09894e-05
7.39987e-05
7.00436e-05
7.09905e-05
7.4072e-05
6.98333e-05
5.31727e-05
6.91229e-05
5.91024e-05
6.98227e-05
6.91393e-05
5.92884e-05
7.09701e-05
7.41697e-05
7.0048e-05
7.41002e-05
7.09688e-05
6.96268e-05
6.96105e-05
6.98369e-05
5.32975e-05
5.95593e-05
6.91627e-05
5.93813e-05
6.9146e-05
6.98472e-05
7.09909e-05
7.40189e-05
7.00492e-05
7.09924e-05
7.40924e-05
6.98346e-05
5.31742e-05
5.91071e-05
6.91234e-05
6.98239e-05
5.92928e-05
6.91398e-05
7.0972e-05
7.41903e-05
7.00534e-05
7.41204e-05
7.09705e-05
6.9627e-05
6.96111e-05
8.74425e-05
7.24114e-05
7.24056e-05
7.24137e-05
7.24079e-05
8.74893e-05
5.70966e-05
3.89844e-05
6.87952e-05
5.91327e-05
5.69367e-05
3.92103e-05
6.88193e-05
5.71601e-05
3.9003e-05
6.88074e-05
5.9145e-05
5.70024e-05
3.92284e-05
6.88314e-05
8.74268e-05
7.24429e-05
7.2437e-05
8.73767e-05
7.24365e-05
7.24306e-05
5.71762e-05
6.88509e-05
5.91859e-05
3.95642e-05
3.93603e-05
6.88283e-05
5.73305e-05
5.72401e-05
6.88632e-05
5.91983e-05
3.95829e-05
3.93786e-05
6.88405e-05
5.73959e-05
6.96463e-05
6.96626e-05
6.96482e-05
6.96645e-05
8.71711e-05
7.24828e-05
7.24764e-05
8.71121e-05
7.24795e-05
7.24733e-05
5.6601e-05
3.87942e-05
5.88248e-05
6.87806e-05
6.87505e-05
3.85596e-05
5.67914e-05
5.66707e-05
3.88083e-05
5.88372e-05
6.87932e-05
6.87629e-05
3.85821e-05
5.68542e-05
5.64744e-05
6.87102e-05
3.8166e-05
5.87654e-05
5.62956e-05
6.87371e-05
3.83858e-05
5.65394e-05
6.87226e-05
3.81869e-05
5.87781e-05
5.63633e-05
6.87497e-05
3.84014e-05
8.72063e-05
7.24612e-05
7.24549e-05
7.24626e-05
7.24562e-05
8.7299e-05
6.98069e-05
6.90804e-05
5.85167e-05
5.23891e-05
6.9796e-05
6.90954e-05
5.87196e-05
7.10108e-05
7.00167e-05
7.39686e-05
7.10098e-05
7.38915e-05
7.10301e-05
7.37784e-05
7.00119e-05
7.1031e-05
7.38596e-05
6.98094e-05
5.25231e-05
6.91169e-05
5.901e-05
6.98203e-05
6.91011e-05
5.88162e-05
6.98084e-05
6.90809e-05
5.8522e-05
5.23903e-05
6.97975e-05
6.90959e-05
5.8725e-05
7.10127e-05
7.00216e-05
7.39905e-05
7.3913e-05
7.10113e-05
7.10315e-05
7.37997e-05
7.0017e-05
7.10329e-05
7.3881e-05
6.98109e-05
5.25243e-05
6.91174e-05
5.90153e-05
6.91016e-05
5.88215e-05
6.98218e-05
6.96479e-05
6.96641e-05
8.71727e-05
7.24775e-05
7.24825e-05
8.71094e-05
7.24745e-05
7.24795e-05
5.66683e-05
3.88143e-05
5.88372e-05
6.87935e-05
3.85743e-05
6.8763e-05
5.68741e-05
5.66024e-05
3.87941e-05
5.88259e-05
6.87813e-05
6.8751e-05
3.85565e-05
5.68078e-05
5.65406e-05
6.87228e-05
3.81834e-05
5.87785e-05
3.84006e-05
5.63516e-05
6.87497e-05
5.64744e-05
6.87109e-05
3.81654e-05
5.87674e-05
5.62856e-05
6.87377e-05
3.83805e-05
8.7212e-05
7.24562e-05
7.24612e-05
7.24579e-05
7.2463e-05
8.73129e-05
6.96459e-05
6.96623e-05
6.98082e-05
5.8521e-05
6.90808e-05
5.23904e-05
6.97972e-05
5.8724e-05
6.90958e-05
7.10127e-05
7.0022e-05
7.39889e-05
7.10113e-05
7.39113e-05
7.10315e-05
7.37976e-05
7.00174e-05
7.10328e-05
7.38792e-05
6.98107e-05
5.25244e-05
5.90148e-05
6.91173e-05
6.98215e-05
5.88207e-05
6.91015e-05
6.9807e-05
6.90804e-05
5.85166e-05
5.23897e-05
6.97961e-05
6.90954e-05
5.87197e-05
7.10104e-05
7.00182e-05
7.39685e-05
7.38913e-05
7.10095e-05
7.10298e-05
7.37782e-05
7.00135e-05
7.10306e-05
7.38593e-05
6.98095e-05
5.25235e-05
6.91169e-05
5.90103e-05
6.9101e-05
5.88165e-05
6.98203e-05
6.9808e-05
5.85209e-05
6.90809e-05
5.23905e-05
6.9797e-05
5.87239e-05
6.90958e-05
7.10124e-05
7.00212e-05
7.39878e-05
7.39104e-05
7.1011e-05
7.10312e-05
7.37971e-05
7.00165e-05
7.10325e-05
7.38784e-05
6.98105e-05
5.25244e-05
5.90142e-05
6.91174e-05
5.88206e-05
6.91015e-05
6.98213e-05
6.98067e-05
6.90804e-05
5.85164e-05
5.23892e-05
6.97957e-05
6.90953e-05
5.87193e-05
7.10101e-05
7.0017e-05
7.39678e-05
7.38904e-05
7.10088e-05
7.1029e-05
7.37769e-05
7.00124e-05
7.10303e-05
7.38583e-05
6.98091e-05
5.25231e-05
6.91168e-05
5.90095e-05
6.9101e-05
5.88159e-05
6.982e-05
6.96479e-05
6.96647e-05
8.71908e-05
7.24796e-05
7.24853e-05
8.71323e-05
7.24748e-05
7.24805e-05
5.66558e-05
3.88045e-05
5.88393e-05
6.87907e-05
3.85797e-05
6.8762e-05
5.68538e-05
5.65902e-05
3.8787e-05
5.8829e-05
6.87788e-05
6.87502e-05
3.85597e-05
5.67861e-05
5.65517e-05
6.87249e-05
3.82e-05
5.87819e-05
3.84131e-05
5.63755e-05
6.87501e-05
5.64838e-05
6.87131e-05
3.81802e-05
5.87716e-05
5.63094e-05
6.87381e-05
3.83951e-05
8.72172e-05
7.24532e-05
7.24589e-05
7.2455e-05
7.24607e-05
8.72907e-05
6.96463e-05
6.96629e-05
6.98065e-05
5.85159e-05
6.90803e-05
5.23896e-05
6.97955e-05
5.8719e-05
6.90953e-05
7.10105e-05
7.00171e-05
7.39677e-05
7.38902e-05
7.10091e-05
7.10293e-05
7.37768e-05
7.00125e-05
7.10306e-05
7.38581e-05
6.9809e-05
5.25233e-05
5.90096e-05
6.91168e-05
5.88158e-05
6.91009e-05
6.98198e-05
6.98079e-05
5.85209e-05
6.90808e-05
5.23908e-05
6.9797e-05
5.8724e-05
6.90957e-05
7.10122e-05
7.00221e-05
7.39877e-05
7.39101e-05
7.10108e-05
7.1031e-05
7.37965e-05
7.00174e-05
7.10324e-05
7.38782e-05
6.98104e-05
5.25245e-05
5.90147e-05
6.91173e-05
5.88206e-05
6.91014e-05
6.98213e-05
8.71709e-05
7.24823e-05
7.24764e-05
8.70858e-05
7.24818e-05
7.24759e-05
5.66114e-05
3.87987e-05
5.88248e-05
6.87835e-05
5.68203e-05
3.85538e-05
6.87518e-05
5.66791e-05
3.88175e-05
5.88367e-05
6.87957e-05
5.68866e-05
3.85729e-05
6.8764e-05
5.64687e-05
6.87095e-05
3.81623e-05
5.87638e-05
5.62756e-05
3.83764e-05
6.87376e-05
5.65349e-05
6.87216e-05
3.8181e-05
5.87763e-05
5.63417e-05
3.83952e-05
6.87498e-05
8.72409e-05
7.24653e-05
7.24594e-05
8.73456e-05
7.24686e-05
7.24627e-05
6.96468e-05
6.96627e-05
6.96488e-05
6.96647e-05
6.96252e-05
6.96089e-05
6.96271e-05
6.96109e-05
8.74748e-05
7.24151e-05
7.24089e-05
7.24201e-05
7.24136e-05
8.75361e-05
5.70908e-05
3.89667e-05
6.87931e-05
5.9128e-05
5.69115e-05
6.88198e-05
3.91966e-05
5.71509e-05
3.8991e-05
6.88056e-05
5.91415e-05
5.69828e-05
6.88324e-05
3.92081e-05
8.74439e-05
7.24448e-05
7.24384e-05
8.7347e-05
7.24411e-05
7.24348e-05
5.7195e-05
6.88539e-05
5.91841e-05
3.95831e-05
6.88302e-05
5.73698e-05
3.93548e-05
5.72703e-05
6.88665e-05
5.9197e-05
3.9591e-05
6.88427e-05
5.74241e-05
3.93822e-05
6.95722e-05
6.95877e-05
6.95745e-05
6.95898e-05
8.76123e-05
7.23942e-05
7.23877e-05
8.75578e-05
7.2391e-05
7.23848e-05
5.77167e-05
4.03363e-05
5.95078e-05
6.89255e-05
6.88993e-05
4.01023e-05
5.79164e-05
5.7795e-05
4.03275e-05
5.95195e-05
6.89366e-05
6.8912e-05
4.01347e-05
5.79329e-05
5.76318e-05
6.88643e-05
3.97333e-05
5.94551e-05
5.74596e-05
6.88887e-05
3.99621e-05
5.76802e-05
6.88768e-05
3.97641e-05
5.94678e-05
5.75404e-05
6.89009e-05
3.99661e-05
8.7641e-05
7.23719e-05
7.23652e-05
7.23735e-05
7.23673e-05
8.77152e-05
6.98371e-05
5.32973e-05
6.91627e-05
5.95605e-05
6.9146e-05
5.93822e-05
6.98475e-05
7.0991e-05
7.40205e-05
7.00487e-05
7.09924e-05
7.40941e-05
6.98348e-05
5.3174e-05
6.91234e-05
5.91077e-05
6.91398e-05
6.98242e-05
5.92938e-05
7.09721e-05
7.41921e-05
7.00529e-05
7.41222e-05
7.09705e-05
6.98581e-05
6.91686e-05
5.96391e-05
5.38923e-05
6.98481e-05
6.91855e-05
5.98091e-05
7.09288e-05
7.00773e-05
7.43494e-05
7.4287e-05
7.09275e-05
7.09482e-05
7.41961e-05
7.00732e-05
7.09496e-05
7.42618e-05
6.98599e-05
5.40045e-05
6.92087e-05
6.00521e-05
6.91918e-05
5.98896e-05
6.98696e-05
6.98596e-05
6.91691e-05
5.96446e-05
5.38937e-05
6.98496e-05
6.9186e-05
5.98147e-05
7.09311e-05
7.00825e-05
7.43725e-05
7.43096e-05
7.09294e-05
7.095e-05
7.42185e-05
7.00784e-05
7.09516e-05
7.42849e-05
6.98615e-05
5.40059e-05
6.92092e-05
6.00578e-05
6.91923e-05
5.98949e-05
6.98711e-05
8.74598e-05
7.24074e-05
7.24124e-05
7.24114e-05
7.24164e-05
8.75134e-05
5.71587e-05
3.89942e-05
6.88056e-05
5.91416e-05
6.88314e-05
5.69865e-05
3.92207e-05
5.70923e-05
3.89761e-05
6.87935e-05
5.9129e-05
3.92003e-05
5.69205e-05
6.88192e-05
8.7436e-05
7.24381e-05
7.24432e-05
7.24334e-05
8.73573e-05
7.24384e-05
5.72444e-05
6.88646e-05
5.91967e-05
3.95862e-05
6.88412e-05
3.93747e-05
5.74112e-05
5.71782e-05
6.88525e-05
5.91846e-05
3.95663e-05
3.93568e-05
6.88291e-05
5.73453e-05
6.96248e-05
6.96085e-05
6.95744e-05
6.95895e-05
8.76158e-05
7.23892e-05
7.23942e-05
8.75408e-05
7.23875e-05
7.23925e-05
5.7805e-05
4.03571e-05
5.95189e-05
6.89391e-05
4.01328e-05
6.89139e-05
5.7979e-05
5.77393e-05
4.03369e-05
5.95073e-05
6.89267e-05
6.89017e-05
4.01151e-05
5.79128e-05
5.77016e-05
6.88758e-05
3.97414e-05
5.94656e-05
3.99679e-05
5.75121e-05
6.89025e-05
5.76359e-05
6.88637e-05
3.9724e-05
5.94541e-05
5.74468e-05
6.88903e-05
3.99481e-05
8.76551e-05
7.23686e-05
7.23736e-05
7.23716e-05
7.23766e-05
8.77426e-05
6.95723e-05
6.95875e-05
6.98357e-05
5.32964e-05
6.91623e-05
5.95548e-05
6.91456e-05
5.93766e-05
6.9846e-05
7.09891e-05
7.39986e-05
7.00451e-05
7.09901e-05
7.40718e-05
6.98334e-05
5.31732e-05
6.91229e-05
5.91026e-05
6.91394e-05
6.98227e-05
5.92883e-05
7.09697e-05
7.41694e-05
7.00495e-05
7.41e-05
7.09686e-05
6.98594e-05
5.96437e-05
6.9169e-05
5.38937e-05
6.98494e-05
5.9814e-05
6.91859e-05
7.0931e-05
7.00829e-05
7.43709e-05
7.43078e-05
7.09293e-05
7.095e-05
7.42166e-05
7.00789e-05
7.09516e-05
7.42831e-05
6.98613e-05
5.4006e-05
6.00571e-05
6.92092e-05
5.98943e-05
6.91923e-05
6.98709e-05
6.98581e-05
6.91686e-05
5.96391e-05
5.38927e-05
6.98481e-05
6.91855e-05
5.98095e-05
7.09286e-05
7.00788e-05
7.43494e-05
7.42869e-05
7.09273e-05
7.0948e-05
7.4196e-05
7.00747e-05
7.09492e-05
7.42619e-05
6.986e-05
5.4005e-05
6.92088e-05
6.00524e-05
6.91918e-05
5.98898e-05
6.98696e-05
6.98367e-05
5.32976e-05
5.95594e-05
6.91627e-05
5.93811e-05
6.9146e-05
6.9847e-05
7.09907e-05
7.40178e-05
7.00482e-05
7.40915e-05
7.09921e-05
6.98344e-05
5.31742e-05
5.91066e-05
6.91234e-05
5.92926e-05
6.98237e-05
6.91398e-05
7.09717e-05
7.41895e-05
7.00526e-05
7.41196e-05
7.09702e-05
6.98354e-05
5.32964e-05
6.91622e-05
5.95548e-05
6.91455e-05
5.93766e-05
6.98457e-05
7.09884e-05
7.3998e-05
7.00442e-05
7.09899e-05
7.40714e-05
6.98331e-05
5.3173e-05
6.91229e-05
5.9102e-05
6.98224e-05
6.91393e-05
5.9288e-05
7.09695e-05
7.41694e-05
7.00483e-05
7.40997e-05
7.0968e-05
6.98591e-05
5.96436e-05
6.91691e-05
5.38935e-05
6.98492e-05
5.98135e-05
6.91859e-05
7.09308e-05
7.00821e-05
7.43698e-05
7.43068e-05
7.09291e-05
7.09497e-05
7.42158e-05
7.00779e-05
7.09513e-05
7.42822e-05
6.98611e-05
5.40058e-05
6.00565e-05
6.92092e-05
5.98939e-05
6.91923e-05
6.98707e-05
6.98578e-05
6.91685e-05
5.96391e-05
5.38922e-05
6.98478e-05
6.91854e-05
5.9809e-05
7.09286e-05
7.00781e-05
7.435e-05
7.42872e-05
7.09269e-05
7.09476e-05
7.4196e-05
7.0074e-05
7.09491e-05
7.42624e-05
6.98597e-05
5.40044e-05
6.92087e-05
6.0052e-05
6.91918e-05
5.98893e-05
6.98693e-05
8.74757e-05
7.24112e-05
7.24169e-05
7.24161e-05
7.24217e-05
8.75479e-05
5.71647e-05
3.89831e-05
6.88037e-05
5.91345e-05
6.88323e-05
5.69707e-05
3.92127e-05
5.70974e-05
3.8963e-05
6.87919e-05
5.91256e-05
3.91955e-05
5.69047e-05
6.88204e-05
8.7437e-05
7.24376e-05
7.24432e-05
7.24352e-05
8.73343e-05
7.24409e-05
5.72653e-05
6.88675e-05
5.91925e-05
3.96007e-05
6.88432e-05
3.93828e-05
5.74399e-05
5.71994e-05
6.88555e-05
5.91833e-05
3.95837e-05
3.93626e-05
6.88314e-05
5.73729e-05
6.96253e-05
6.96094e-05
6.95742e-05
6.95899e-05
8.76212e-05
7.23896e-05
7.23952e-05
8.75699e-05
7.23858e-05
7.23914e-05
5.77871e-05
4.03442e-05
5.95196e-05
6.89369e-05
4.01287e-05
6.89115e-05
5.79635e-05
5.77212e-05
4.03273e-05
5.95093e-05
6.8925e-05
6.88996e-05
4.01086e-05
5.78969e-05
5.76963e-05
6.88773e-05
3.97592e-05
5.94683e-05
3.99723e-05
5.75274e-05
6.89008e-05
5.76296e-05
6.88653e-05
3.97389e-05
5.94584e-05
5.74614e-05
6.88889e-05
3.99552e-05
8.7647e-05
7.23657e-05
7.23713e-05
7.23675e-05
7.23732e-05
8.77168e-05
6.95726e-05
6.95881e-05
6.98352e-05
5.32966e-05
5.95544e-05
6.91622e-05
5.93762e-05
6.91454e-05
6.98455e-05
7.09888e-05
7.39979e-05
7.00444e-05
7.40715e-05
7.09903e-05
6.98329e-05
5.31734e-05
5.9102e-05
6.91228e-05
5.92878e-05
6.98222e-05
6.91392e-05
7.09699e-05
7.41694e-05
7.00486e-05
7.40997e-05
7.09684e-05
6.98366e-05
5.32979e-05
5.95595e-05
6.91626e-05
5.93812e-05
6.91459e-05
6.98469e-05
7.09904e-05
7.40175e-05
7.00492e-05
7.09919e-05
7.4091e-05
6.98343e-05
5.31747e-05
5.91069e-05
6.91233e-05
6.98237e-05
5.9293e-05
6.91397e-05
7.09715e-05
7.4189e-05
7.00533e-05
7.4119e-05
7.097e-05
6.98576e-05
5.96387e-05
6.91685e-05
5.38925e-05
6.98477e-05
5.98089e-05
6.91854e-05
7.0929e-05
7.0078e-05
7.43499e-05
7.42869e-05
7.09273e-05
7.09479e-05
7.41959e-05
7.0074e-05
7.09495e-05
7.42621e-05
6.98596e-05
5.40048e-05
6.00519e-05
6.92087e-05
5.98893e-05
6.91917e-05
6.98692e-05
6.98591e-05
5.96436e-05
6.91689e-05
5.38937e-05
6.98491e-05
5.98138e-05
6.91858e-05
7.09306e-05
7.00831e-05
7.43695e-05
7.43066e-05
7.09289e-05
7.09495e-05
7.42154e-05
7.00791e-05
7.09511e-05
7.42821e-05
6.9861e-05
5.40059e-05
6.00569e-05
6.92092e-05
5.9894e-05
6.91922e-05
6.98706e-05
6.96252e-05
6.96086e-05
6.96274e-05
6.96108e-05
8.76387e-05
7.23974e-05
7.23915e-05
8.75302e-05
7.23969e-05
7.23911e-05
5.7753e-05
4.0347e-05
5.95085e-05
6.89292e-05
4.01164e-05
6.89035e-05
5.79292e-05
5.782e-05
4.03652e-05
5.95199e-05
6.89413e-05
4.01353e-05
6.89158e-05
5.79934e-05
5.76351e-05
6.88627e-05
3.97166e-05
5.94523e-05
5.74377e-05
3.99442e-05
6.88913e-05
5.77023e-05
6.88751e-05
3.97358e-05
5.94644e-05
5.7506e-05
3.99634e-05
6.89038e-05
8.76869e-05
7.23757e-05
7.23698e-05
7.23807e-05
7.23748e-05
8.77614e-05
6.95733e-05
6.95881e-05
6.95754e-05
6.95902e-05
1.50515e-05
1.50517e-05
1.48521e-05
1.49439e-05
1.49441e-05
1.52981e-05
1.54159e-05
3.79084e-05
2.4943e-05
2.49481e-05
1.81576e-05
3.77759e-05
2.50344e-05
2.50392e-05
3.7351e-05
1.80033e-05
2.47186e-05
2.47237e-05
2.463e-05
2.4635e-05
3.74849e-05
3.73503e-05
1.80028e-05
2.47223e-05
2.47184e-05
2.46333e-05
2.46295e-05
3.7486e-05
3.7354e-05
1.8004e-05
2.47247e-05
2.47211e-05
2.46366e-05
2.46328e-05
3.74869e-05
3.73509e-05
1.80035e-05
2.47193e-05
2.47239e-05
3.7488e-05
2.46297e-05
2.46347e-05
3.79015e-05
2.49409e-05
2.49462e-05
1.81571e-05
3.77684e-05
2.50315e-05
2.50367e-05
3.89739e-05
1.85696e-05
2.59988e-05
2.59899e-05
2.58961e-05
2.59077e-05
3.91001e-05
3.79034e-05
2.49457e-05
2.49418e-05
1.81568e-05
2.50323e-05
3.77709e-05
2.50364e-05
3.89752e-05
1.85686e-05
2.59955e-05
2.59912e-05
2.5902e-05
2.58978e-05
3.91032e-05
3.79015e-05
2.49463e-05
2.49424e-05
1.81579e-05
2.50331e-05
3.77675e-05
2.50367e-05
3.89766e-05
1.857e-05
2.59978e-05
2.59938e-05
2.59052e-05
2.5901e-05
3.91027e-05
3.89768e-05
1.85693e-05
2.59926e-05
2.59979e-05
2.58982e-05
2.59037e-05
3.91084e-05
1.51164e-05
1.51612e-05
1.51614e-05
1.52734e-05
1.52736e-05
1.56566e-05
1.55353e-05
1.51164e-05
1.51612e-05
1.51615e-05
1.52734e-05
1.52737e-05
1.56566e-05
1.55354e-05
1.51164e-05
1.51611e-05
1.51614e-05
1.52733e-05
1.52736e-05
1.56564e-05
1.55352e-05
1.51165e-05
1.51612e-05
1.51614e-05
1.52734e-05
1.52737e-05
1.56565e-05
1.55353e-05
1.50515e-05
1.50518e-05
1.48521e-05
1.49439e-05
1.49442e-05
1.52981e-05
1.54159e-05
1.50514e-05
1.50517e-05
1.48521e-05
1.49438e-05
1.49441e-05
1.5298e-05
1.54158e-05
1.50515e-05
1.50518e-05
1.48522e-05
1.49439e-05
1.49441e-05
1.5298e-05
1.54158e-05
1.47702e-05
1.47357e-05
1.47359e-05
1.48388e-05
1.4839e-05
1.5182e-05
1.50676e-05
1.477e-05
1.47357e-05
1.4736e-05
1.48388e-05
1.4839e-05
1.5182e-05
1.50676e-05
1.47701e-05
1.47356e-05
1.47359e-05
1.48387e-05
1.4839e-05
1.51819e-05
1.50675e-05
1.47701e-05
1.47357e-05
1.4736e-05
1.48388e-05
1.4839e-05
1.51819e-05
1.50675e-05
1.9643e-05
2.92531e-05
3.35758e-05
1.80457e-05
3.34419e-05
1.80053e-05
1.96868e-05
2.24237e-05
2.76386e-05
3.95947e-05
4.53242e-05
2.23616e-05
2.77451e-05
3.97124e-05
1.94925e-05
2.89646e-05
3.30192e-05
1.7851e-05
1.94504e-05
3.3154e-05
1.78892e-05
2.26196e-05
4.00895e-05
4.55252e-05
2.80918e-05
2.79859e-05
3.99739e-05
2.2683e-05
1.96429e-05
2.92534e-05
1.80461e-05
3.35739e-05
1.80058e-05
3.34399e-05
1.96868e-05
2.24233e-05
2.76387e-05
3.95895e-05
4.53301e-05
2.23611e-05
2.77453e-05
3.97072e-05
1.94925e-05
2.89649e-05
1.78514e-05
3.30175e-05
1.94503e-05
1.78896e-05
3.31522e-05
2.26189e-05
4.00846e-05
4.55208e-05
2.80935e-05
2.79863e-05
3.99685e-05
2.26825e-05
3.81812e-05
1.82721e-05
2.53508e-05
2.53558e-05
2.52603e-05
2.52655e-05
3.83076e-05
3.707e-05
1.79008e-05
2.43259e-05
2.43308e-05
3.69374e-05
2.44126e-05
2.44175e-05
1.91257e-05
3.21671e-05
1.75669e-05
2.81156e-05
1.90869e-05
3.23035e-05
1.76007e-05
2.21095e-05
2.7401e-05
4.48902e-05
3.93265e-05
2.72959e-05
3.92069e-05
2.21703e-05
2.19236e-05
3.8819e-05
2.69574e-05
4.46726e-05
2.7061e-05
2.18642e-05
3.894e-05
1.92645e-05
2.84016e-05
3.27288e-05
1.77407e-05
3.25931e-05
1.77048e-05
1.93051e-05
1.91272e-05
3.21706e-05
1.75671e-05
2.81162e-05
1.90883e-05
3.23071e-05
1.7601e-05
2.21127e-05