/*--------------------------------*- C++ -*----------------------------------*\
| =========                 |                                                 |
| \\      /  F ield         | OpenFOAM: The Open Source CFD Toolbox           |
|  \\    /   O peration     | Version:  v1906                                 |
|   \\  /    A nd           | Web:      www.OpenFOAM.com                      |
|    \\/     M anipulation  |                                                 |
\*---------------------------------------------------------------------------*/
FoamFile
{
    version     2.0;
    format      ascii;
    class       volScalarField;
    location    "375";
    object      k;
}
// * * * * * * * * * * * * * * * * * * * * * * * * * * * * * * * * * * * * * //

dimensions      [0 2 -2 0 0 0 0];


internalField   nonuniform List<scalar> 
42840
(
2.19651e-05
3.78075e-05
3.78145e-05
4.28475e-05
2.27446e-05
3.86902e-05
3.86927e-05
4.35531e-05
2.35409e-05
3.95428e-05
3.95444e-05
4.42222e-05
2.43483e-05
4.03678e-05
4.03707e-05
4.48706e-05
2.51609e-05
4.11668e-05
4.11688e-05
4.54989e-05
2.59751e-05
4.19344e-05
4.19363e-05
4.61e-05
2.67908e-05
4.26731e-05
4.26757e-05
4.66782e-05
2.7599e-05
4.3386e-05
4.33863e-05
4.72354e-05
2.84024e-05
4.40632e-05
4.40672e-05
4.77661e-05
2.91934e-05
4.47218e-05
4.47206e-05
4.82806e-05
2.99744e-05
4.53408e-05
4.53454e-05
4.87647e-05
3.07347e-05
4.59414e-05
4.59398e-05
4.9236e-05
3.14853e-05
4.65075e-05
4.65121e-05
4.96781e-05
3.22095e-05
4.70499e-05
4.70476e-05
5.0105e-05
3.2916e-05
4.75643e-05
4.75696e-05
5.05069e-05
3.35986e-05
4.8049e-05
4.80456e-05
5.08904e-05
3.42664e-05
4.85197e-05
4.85255e-05
5.12585e-05
3.48772e-05
4.89358e-05
4.89321e-05
5.15864e-05
3.55286e-05
4.9375e-05
4.93796e-05
5.19381e-05
3.60579e-05
4.97271e-05
4.9726e-05
5.22028e-05
3.66613e-05
5.01085e-05
5.01088e-05
5.25241e-05
3.71645e-05
5.04554e-05
5.04583e-05
5.27701e-05
3.76606e-05
5.07129e-05
5.07111e-05
5.30089e-05
3.81481e-05
5.10878e-05
5.10893e-05
5.32836e-05
3.85924e-05
5.12809e-05
5.12805e-05
5.34422e-05
3.89529e-05
5.15598e-05
5.15622e-05
5.36755e-05
4.26888e-05
3.75868e-05
3.75846e-05
4.26848e-05
3.75852e-05
3.75891e-05
3.75827e-05
3.75848e-05
4.2691e-05
3.75889e-05
3.75831e-05
4.26854e-05
4.28502e-05
4.33889e-05
3.78107e-05
3.78093e-05
3.84715e-05
3.84737e-05
4.28466e-05
4.33904e-05
3.78094e-05
3.78148e-05
3.84698e-05
3.84755e-05
3.78098e-05
3.84726e-05
3.84792e-05
4.2854e-05
4.33924e-05
3.78082e-05
3.84761e-05
3.84775e-05
4.33961e-05
4.35447e-05
4.40694e-05
3.8689e-05
3.86911e-05
3.93329e-05
3.9333e-05
4.35465e-05
4.40679e-05
3.86874e-05
3.8692e-05
3.9331e-05
3.93329e-05
3.8698e-05
3.9332e-05
3.9338e-05
4.35473e-05
4.40686e-05
3.86963e-05
3.93336e-05
3.93362e-05
4.40729e-05
4.42205e-05
4.47249e-05
3.95443e-05
3.95439e-05
4.01663e-05
4.01654e-05
4.42185e-05
4.4723e-05
3.95426e-05
3.95439e-05
4.01646e-05
4.01663e-05
3.95475e-05
4.01641e-05
4.01672e-05
4.42193e-05
4.47248e-05
3.95457e-05
4.01668e-05
4.01658e-05
4.4725e-05
4.487e-05
4.53556e-05
4.03696e-05
4.0369e-05
4.09705e-05
4.09709e-05
4.48684e-05
4.53549e-05
4.03682e-05
4.03702e-05
4.09688e-05
4.09712e-05
4.03713e-05
4.09701e-05
4.09742e-05
4.48701e-05
4.53564e-05
4.037e-05
4.09721e-05
4.09727e-05
4.53587e-05
4.54958e-05
4.59628e-05
4.11674e-05
4.11676e-05
4.17454e-05
4.17455e-05
4.54953e-05
4.59616e-05
4.11659e-05
4.11679e-05
4.17439e-05
4.1746e-05
4.11708e-05
4.17447e-05
4.17488e-05
4.54965e-05
4.59629e-05
4.11694e-05
4.17471e-05
4.17476e-05
4.59651e-05
4.60975e-05
4.65472e-05
4.19345e-05
4.1935e-05
4.24928e-05
4.24925e-05
4.60965e-05
4.65461e-05
4.19332e-05
4.19351e-05
4.24914e-05
4.24927e-05
4.19386e-05
4.24918e-05
4.2495e-05
4.60977e-05
4.65469e-05
4.19374e-05
4.24936e-05
4.24938e-05
4.65488e-05
4.66772e-05
4.71074e-05
4.26749e-05
4.26741e-05
4.32094e-05
4.32105e-05
4.66759e-05
4.7107e-05
4.26738e-05
4.26749e-05
4.32079e-05
4.32098e-05
4.26762e-05
4.321e-05
4.32133e-05
4.66768e-05
4.71078e-05
4.26751e-05
4.32113e-05
4.3212e-05
4.71099e-05
4.72321e-05
4.7646e-05
4.33845e-05
4.33862e-05
4.38986e-05
4.38973e-05
4.72324e-05
4.76441e-05
4.33831e-05
4.33847e-05
4.38977e-05
4.38986e-05
4.33896e-05
4.38967e-05
4.38999e-05
4.72325e-05
4.76457e-05
4.33883e-05
4.38997e-05
4.38991e-05
4.76472e-05
4.7766e-05
4.81603e-05
4.40659e-05
4.4064e-05
4.45576e-05
4.45601e-05
4.77634e-05
4.81615e-05
4.40652e-05
4.40663e-05
4.45561e-05
4.45583e-05
4.40661e-05
4.456e-05
4.45629e-05
4.77656e-05
4.81613e-05
4.40655e-05
4.45602e-05
4.45618e-05
4.8164e-05
4.82757e-05
4.86562e-05
4.47187e-05
4.47217e-05
4.51912e-05
4.51888e-05
4.82779e-05
4.8653e-05
4.47173e-05
4.47186e-05
4.51904e-05
4.51905e-05
4.47251e-05
4.51884e-05
4.5191e-05
4.82765e-05
4.86548e-05
4.47238e-05
4.51917e-05
4.51903e-05
4.86557e-05
4.87666e-05
4.91235e-05
4.53442e-05
4.53414e-05
4.57907e-05
4.57941e-05
4.87623e-05
4.91261e-05
4.53438e-05
4.53445e-05
4.57893e-05
4.57916e-05
4.53432e-05
4.57942e-05
4.57969e-05
4.87655e-05
4.91254e-05
4.53427e-05
4.57938e-05
4.57961e-05
4.91288e-05
4.92292e-05
4.95788e-05
4.59372e-05
4.5941e-05
4.63704e-05
4.63678e-05
4.92331e-05
4.9575e-05
4.59359e-05
4.59374e-05
4.63697e-05
4.63702e-05
4.59444e-05
4.63677e-05
4.63702e-05
4.92307e-05
4.95776e-05
4.59434e-05
4.63716e-05
4.63696e-05
4.95776e-05
4.9681e-05
5.00035e-05
4.6511e-05
4.65078e-05
4.69158e-05
4.69188e-05
4.9676e-05
5.0006e-05
4.65106e-05
4.6511e-05
4.69143e-05
4.69148e-05
4.65096e-05
4.69189e-05
4.69207e-05
4.96799e-05
5.00035e-05
4.65091e-05
4.6917e-05
4.692e-05
5.00081e-05
5.00988e-05
5.04126e-05
4.70456e-05
4.70494e-05
4.74358e-05
4.74341e-05
5.01027e-05
5.04099e-05
4.70443e-05
4.7045e-05
4.74357e-05
4.74379e-05
4.70521e-05
4.74344e-05
4.74376e-05
5.00989e-05
5.04141e-05
4.70513e-05
4.74396e-05
4.74374e-05
5.04132e-05
5.05079e-05
5.08021e-05
4.75666e-05
4.75642e-05
4.79324e-05
4.79347e-05
5.0504e-05
5.08038e-05
4.75667e-05
4.75681e-05
4.79305e-05
4.79296e-05
4.75671e-05
4.79349e-05
4.79351e-05
5.05091e-05
5.07999e-05
4.75668e-05
4.79318e-05
4.79338e-05
5.08042e-05
5.08872e-05
5.11686e-05
4.80457e-05
4.80486e-05
4.84025e-05
4.84009e-05
5.089e-05
5.11663e-05
4.80441e-05
4.80432e-05
4.84028e-05
4.84045e-05
4.80495e-05
4.84014e-05
4.84055e-05
5.0885e-05
5.11706e-05
4.80484e-05
4.8407e-05
4.84063e-05
5.11711e-05
5.12566e-05
5.1508e-05
4.85208e-05
4.85191e-05
4.8828e-05
4.88309e-05
5.12534e-05
5.15105e-05
4.85213e-05
4.85231e-05
4.88264e-05
4.8827e-05
4.85236e-05
4.88316e-05
4.88312e-05
5.12588e-05
5.15071e-05
4.85244e-05
4.88286e-05
4.88292e-05
5.15098e-05
5.15847e-05
5.18591e-05
4.89326e-05
4.89351e-05
4.92802e-05
4.92783e-05
5.1588e-05
5.18558e-05
4.8931e-05
4.89308e-05
4.928e-05
4.92791e-05
4.89351e-05
4.92787e-05
4.92815e-05
5.15832e-05
5.18585e-05
4.89328e-05
4.92821e-05
4.92822e-05
5.18599e-05
5.19365e-05
5.21276e-05
4.93758e-05
4.93745e-05
4.96178e-05
4.96201e-05
5.19331e-05
5.21299e-05
4.93762e-05
4.93759e-05
4.96173e-05
4.96197e-05
4.93783e-05
4.9621e-05
4.96221e-05
5.19367e-05
5.21295e-05
4.93801e-05
4.96217e-05
4.96218e-05
5.21317e-05
5.21991e-05
5.24633e-05
4.97238e-05
4.9726e-05
5.00429e-05
5.00431e-05
5.22024e-05
5.24618e-05
4.9723e-05
4.97247e-05
5.00419e-05
5.00399e-05
4.97276e-05
5.00442e-05
5.00455e-05
5.22007e-05
5.24609e-05
4.9726e-05
5.00426e-05
5.00441e-05
5.24635e-05
5.25241e-05
5.26902e-05
5.01085e-05
5.01078e-05
5.03381e-05
5.03375e-05
5.25221e-05
5.26893e-05
5.01081e-05
5.01059e-05
5.03386e-05
5.03402e-05
5.01099e-05
5.03377e-05
5.03382e-05
5.25217e-05
5.26919e-05
5.01095e-05
5.03418e-05
5.03397e-05
5.2691e-05
5.27679e-05
5.29657e-05
5.04539e-05
5.04547e-05
5.06775e-05
5.06808e-05
5.27681e-05
5.2968e-05
5.04541e-05
5.0456e-05
5.06764e-05
5.06763e-05
5.04567e-05
5.06831e-05
5.0686e-05
5.27705e-05
5.29653e-05
5.04577e-05
5.0681e-05
5.06847e-05
5.29709e-05
5.30053e-05
5.31957e-05
5.07097e-05
5.07112e-05
5.09693e-05
5.0966e-05
5.30067e-05
5.31918e-05
5.07088e-05
5.0708e-05
5.0969e-05
5.09678e-05
5.07144e-05
5.09654e-05
5.09636e-05
5.30041e-05
5.31941e-05
5.07131e-05
5.09671e-05
5.09636e-05
5.31903e-05
5.32864e-05
5.34125e-05
5.10891e-05
5.10878e-05
5.1262e-05
5.12685e-05
5.3284e-05
5.34177e-05
5.1089e-05
5.10885e-05
5.12623e-05
5.12644e-05
5.10873e-05
5.1272e-05
5.12762e-05
5.32858e-05
5.34158e-05
5.10874e-05
5.12716e-05
5.12762e-05
5.34229e-05
5.34318e-05
5.35832e-05
5.12711e-05
5.12773e-05
5.14284e-05
5.14167e-05
5.34368e-05
5.35726e-05
5.12714e-05
5.12734e-05
5.14274e-05
5.14224e-05
5.12851e-05
5.14139e-05
5.14099e-05
5.34349e-05
5.35763e-05
5.12851e-05
5.14173e-05
5.14104e-05
5.35689e-05
5.36884e-05
5.15696e-05
5.1562e-05
5.36794e-05
5.15688e-05
5.15651e-05
5.15566e-05
5.36823e-05
5.15567e-05
6.48538e-05
7.1406e-05
6.95717e-05
6.48581e-05
7.1412e-05
2.17725e-05
2.177e-05
2.17749e-05
2.1772e-05
5.36079e-05
3.71301e-05
6.03946e-05
2.95042e-05
6.95708e-05
5.36079e-05
3.713e-05
2.95057e-05
6.0397e-05
4.23261e-05
6.70286e-05
6.70402e-05
6.5082e-05
7.14549e-05
6.49861e-05
7.1491e-05
6.96028e-05
6.96293e-05
6.50861e-05
7.14609e-05
6.49909e-05
7.14969e-05
2.19628e-05
2.19693e-05
2.19644e-05
2.25478e-05
2.25488e-05
2.25546e-05
2.25537e-05
5.40745e-05
6.0563e-05
3.02389e-05
3.8031e-05
5.38827e-05
6.06824e-05
3.04841e-05
6.96011e-05
6.96275e-05
5.40758e-05
3.02453e-05
6.05678e-05
3.80373e-05
5.38848e-05
3.04905e-05
6.06843e-05
6.71332e-05
6.71447e-05
4.30433e-05
6.72077e-05
6.72192e-05
6.53032e-05
7.1541e-05
6.521e-05
7.15777e-05
6.96613e-05
6.96886e-05
6.53071e-05
7.15468e-05
6.52137e-05
7.15836e-05
2.2746e-05
2.2751e-05
2.27524e-05
2.33404e-05
2.33409e-05
2.33444e-05
2.33479e-05
5.45218e-05
6.08433e-05
3.12174e-05
3.89057e-05
5.43391e-05
6.09566e-05
3.14596e-05
6.96594e-05
6.96869e-05
5.45215e-05
3.12218e-05
6.08437e-05
3.89078e-05
5.4339e-05
3.14636e-05
6.09576e-05
6.73082e-05
6.73195e-05
4.37399e-05
6.7377e-05
6.73885e-05
6.55179e-05
7.1628e-05
6.54278e-05
7.16648e-05
6.97218e-05
6.97498e-05
6.5522e-05
7.16339e-05
6.54318e-05
7.16707e-05
2.35411e-05
2.35441e-05
2.3547e-05
2.41462e-05
2.41448e-05
2.41483e-05
2.41482e-05
5.49491e-05
6.11117e-05
3.2181e-05
3.97517e-05
5.47737e-05
6.12214e-05
3.24196e-05
6.97201e-05
6.97482e-05
5.49492e-05
3.21841e-05
6.11128e-05
3.97536e-05
5.47739e-05
3.24227e-05
6.1223e-05
6.74714e-05
6.74829e-05
4.44005e-05
6.75404e-05
6.7552e-05
6.57256e-05
7.17154e-05
6.56383e-05
7.17524e-05
6.97839e-05
6.98125e-05
6.57297e-05
7.17213e-05
6.56422e-05
7.17583e-05
2.43467e-05
2.43508e-05
2.43501e-05
2.49568e-05
2.49568e-05
2.49603e-05
2.49607e-05
5.53609e-05
6.1371e-05
3.31289e-05
4.05701e-05
5.51921e-05
6.14766e-05
3.33637e-05
6.97822e-05
6.98109e-05
5.5361e-05
3.31331e-05
6.13722e-05
4.05729e-05
5.51924e-05
3.33679e-05
6.14781e-05
6.76343e-05
6.76458e-05
4.50447e-05
6.77014e-05
6.7713e-05
6.59268e-05
7.18032e-05
6.58424e-05
7.18403e-05
6.98474e-05
6.98763e-05
6.59306e-05
7.18091e-05
6.58462e-05
7.18462e-05
2.51609e-05
2.51642e-05
2.51649e-05
2.57719e-05
2.57711e-05
2.57754e-05
2.57756e-05
5.57557e-05
6.16208e-05
3.4062e-05
4.13612e-05
5.55942e-05
6.17217e-05
3.42911e-05
6.98455e-05
6.98747e-05
5.57555e-05
3.40654e-05
6.16216e-05
4.13634e-05
5.55943e-05
3.42947e-05
6.17227e-05
6.77918e-05
6.78032e-05
4.56651e-05
6.78555e-05
6.78671e-05
6.61209e-05
7.18912e-05
6.60391e-05
7.19283e-05
6.99119e-05
6.99413e-05
6.61248e-05
7.1897e-05
6.60431e-05
7.1934e-05
2.5975e-05
2.59789e-05
2.59797e-05
2.6587e-05
2.6587e-05
2.65899e-05
2.65914e-05
5.61333e-05
6.18593e-05
3.49703e-05
4.21224e-05
5.59781e-05
6.1957e-05
3.51944e-05
6.99101e-05
6.99397e-05
5.61333e-05
3.49739e-05
6.18605e-05
4.21238e-05
5.59783e-05
3.51974e-05
6.1958e-05
6.79432e-05
6.79548e-05
4.62603e-05
6.80053e-05
6.80169e-05
6.6309e-05
7.19792e-05
6.623e-05
7.20162e-05
6.99774e-05
7.0007e-05
6.63128e-05
7.1985e-05
6.62337e-05
7.20218e-05
2.67896e-05
2.67935e-05
2.67935e-05
2.7397e-05
2.7397e-05
2.74009e-05
2.7401e-05
5.64958e-05
6.20896e-05
3.58544e-05
4.2853e-05
5.63473e-05
6.2183e-05
3.60707e-05
6.99756e-05
7.00054e-05
5.64957e-05
3.58582e-05
6.20904e-05
4.28559e-05
5.63471e-05
3.60748e-05
6.21844e-05
6.80896e-05
6.81011e-05
4.68312e-05
6.815e-05
6.81616e-05
6.64898e-05
7.20668e-05
6.64137e-05
7.21038e-05
7.00434e-05
7.00733e-05
6.64936e-05
7.20725e-05
6.64173e-05
7.21095e-05
2.76005e-05
2.7603e-05
2.76047e-05
2.82031e-05
2.82018e-05
2.82058e-05
2.82067e-05
5.68436e-05
6.23107e-05
3.67146e-05
4.3559e-05
5.6701e-05
6.24004e-05
3.69251e-05
7.00417e-05
7.0072e-05
5.68432e-05
3.67168e-05
6.23112e-05
4.35594e-05
5.67009e-05
3.69271e-05
6.24011e-05
6.82324e-05
6.8244e-05
4.73831e-05
6.82903e-05
6.83019e-05
6.6665e-05
7.21544e-05
6.65911e-05
7.2191e-05
7.01102e-05
7.01406e-05
6.66687e-05
7.216e-05
6.65951e-05
7.21965e-05
2.83996e-05
2.84054e-05
2.84039e-05
2.89961e-05
2.89974e-05
2.90007e-05
2.90019e-05
5.71749e-05
6.25211e-05
3.75395e-05
4.42294e-05
5.70386e-05
6.26076e-05
3.7742e-05
7.01086e-05
7.01389e-05
5.71753e-05
3.75443e-05
6.25229e-05
4.42333e-05
5.70389e-05
3.77468e-05
6.26094e-05
6.83677e-05
6.83793e-05
4.79059e-05
6.84246e-05
6.84361e-05
6.68339e-05
7.22414e-05
6.67631e-05
7.22779e-05
7.01776e-05
7.02075e-05
6.68375e-05
7.2247e-05
6.67664e-05
7.22835e-05
2.91961e-05
2.91975e-05
2.92008e-05
2.97808e-05
2.97789e-05
2.97833e-05
2.97835e-05
5.74959e-05
6.27269e-05
3.83438e-05
4.48801e-05
5.73649e-05
6.28088e-05
3.85387e-05
7.01758e-05
7.02063e-05
5.74948e-05
3.83451e-05
6.27262e-05
4.48792e-05
5.73641e-05
3.85398e-05
6.28087e-05
6.85033e-05
6.85147e-05
4.84157e-05
6.85558e-05
6.85675e-05
6.69958e-05
7.23274e-05
6.69272e-05
7.23635e-05
7.02448e-05
7.02755e-05
6.69997e-05
7.2333e-05
6.69315e-05
7.23689e-05
2.99712e-05
2.99774e-05
2.99752e-05
3.05463e-05
3.05479e-05
3.05508e-05
3.05527e-05
5.77969e-05
6.29174e-05
3.91069e-05
4.54929e-05
5.76723e-05
6.29972e-05
3.92938e-05
7.02433e-05
7.02737e-05
5.77978e-05
3.91116e-05
6.29203e-05
4.5497e-05
5.7673e-05
3.92987e-05
6.29995e-05
6.86262e-05
6.86379e-05
4.8892e-05
6.86802e-05
6.86918e-05
6.71527e-05
7.24132e-05
6.70868e-05
7.24493e-05
7.03128e-05
7.03427e-05
6.7156e-05
7.24187e-05
6.70898e-05
7.24548e-05
3.07377e-05
3.0739e-05
3.07425e-05
3.12988e-05
3.12975e-05
3.13024e-05
3.13023e-05
5.80909e-05
6.31072e-05
3.98463e-05
4.60856e-05
5.79714e-05
6.31816e-05
4.00252e-05
7.03109e-05
7.03416e-05
5.80896e-05
3.98474e-05
6.31056e-05
4.60848e-05
5.79704e-05
4.00262e-05
6.31817e-05
6.87536e-05
6.87651e-05
4.93583e-05
6.88016e-05
6.88132e-05
6.73025e-05
7.24977e-05
6.72394e-05
7.25326e-05
7.03802e-05
7.04106e-05
6.73064e-05
7.25033e-05
6.72437e-05
7.25381e-05
3.14824e-05
3.14888e-05
3.14867e-05
3.2032e-05
3.2033e-05
3.20347e-05
3.2037e-05
5.83652e-05
6.32814e-05
4.05478e-05
4.66466e-05
5.82516e-05
6.33546e-05
4.07194e-05
7.03785e-05
7.04086e-05
5.83656e-05
4.05523e-05
6.32846e-05
4.66498e-05
5.82522e-05
4.07236e-05
6.33557e-05
6.88677e-05
6.88792e-05
4.97941e-05
6.89175e-05
6.89292e-05
6.74439e-05
7.25806e-05
6.73842e-05
7.26161e-05
7.04475e-05
7.04776e-05
6.74476e-05
7.25862e-05
6.73872e-05
7.26216e-05
3.22123e-05
3.22126e-05
3.2216e-05
3.27378e-05
3.27369e-05
3.27429e-05
3.27427e-05
5.86283e-05
6.34518e-05
4.12209e-05
4.71781e-05
5.85216e-05
6.35183e-05
4.1381e-05
7.04458e-05
7.04767e-05
5.86272e-05
4.12212e-05
6.345e-05
4.71776e-05
5.85203e-05
4.1382e-05
6.35196e-05
6.89825e-05
6.89943e-05
5.02129e-05
6.90271e-05
6.90387e-05
6.7585e-05
7.26641e-05
6.75258e-05
7.26977e-05
7.05151e-05
7.05449e-05
6.75885e-05
7.26696e-05
6.75303e-05
7.2703e-05
3.29133e-05
3.29209e-05
3.29189e-05
3.34356e-05
3.34372e-05
3.34379e-05
3.34398e-05
5.88805e-05
6.36121e-05
4.18581e-05
4.76928e-05
5.87755e-05
6.36798e-05
4.20171e-05
7.05133e-05
7.05427e-05
5.88796e-05
4.18632e-05
6.36154e-05
4.76958e-05
5.87756e-05
4.2021e-05
6.368e-05
6.90912e-05
6.91024e-05
5.06138e-05
6.91363e-05
6.91478e-05
6.77087e-05
7.27431e-05
6.76564e-05
7.27773e-05
7.05809e-05
7.06109e-05
6.77126e-05
7.27487e-05
6.76585e-05
7.27831e-05
3.36013e-05
3.36005e-05
3.36032e-05
3.40952e-05
3.40933e-05
3.40995e-05
3.41e-05
5.91106e-05
6.37637e-05
4.24636e-05
4.81631e-05
5.90181e-05
6.38223e-05
4.26055e-05
7.05793e-05
7.06099e-05
5.91095e-05
4.24625e-05
6.37616e-05
4.81622e-05
5.90159e-05
4.26058e-05
6.38238e-05
6.91924e-05
6.92042e-05
5.09848e-05
6.92342e-05
6.92462e-05
6.78371e-05
7.28238e-05
6.77844e-05
7.28558e-05
7.06477e-05
7.06768e-05
6.78409e-05
7.28294e-05
6.77901e-05
7.28609e-05
3.42639e-05
3.42714e-05
3.42707e-05
3.47309e-05
3.47335e-05
3.47349e-05
3.47364e-05
5.9339e-05
6.39091e-05
4.30464e-05
4.86303e-05
5.92447e-05
6.3968e-05
4.31864e-05
7.0646e-05
7.06747e-05
5.93383e-05
4.30525e-05
6.3913e-05
4.86337e-05
5.92457e-05
4.31909e-05
6.39685e-05
6.92951e-05
6.93067e-05
5.13514e-05
6.93325e-05
6.93436e-05
6.79516e-05
7.29005e-05
6.78996e-05
7.29344e-05
7.07128e-05
7.07424e-05
6.79549e-05
7.29059e-05
6.79006e-05
7.29402e-05
3.48798e-05
3.48802e-05
3.48815e-05
3.53712e-05
3.53694e-05
3.53733e-05
3.53741e-05
5.95417e-05
6.40404e-05
4.35679e-05
4.9049e-05
5.94559e-05
6.40993e-05
4.37042e-05
7.07111e-05
7.07415e-05
5.95377e-05
4.35657e-05
6.40369e-05
4.90471e-05
5.94511e-05
4.37027e-05
6.40998e-05
6.93825e-05
6.93931e-05
5.16769e-05
6.94274e-05
6.94394e-05
6.80564e-05
7.29757e-05
6.80202e-05
7.30041e-05
7.07766e-05
7.08042e-05
6.80606e-05
7.29815e-05
6.80264e-05
7.30093e-05
3.55271e-05
3.55317e-05
3.55324e-05
3.59155e-05
3.59165e-05
3.59212e-05
3.59216e-05
5.97401e-05
6.41778e-05
4.41138e-05
4.94561e-05
5.96675e-05
6.42162e-05
4.42225e-05
7.07746e-05
7.08021e-05
5.97429e-05
4.4119e-05
6.41829e-05
4.94603e-05
5.96704e-05
4.42283e-05
6.42187e-05
6.94805e-05
6.94937e-05
5.20055e-05
6.95028e-05
6.95147e-05
6.81679e-05
7.30507e-05
6.81083e-05
7.3085e-05
7.08419e-05
7.08712e-05
6.81709e-05
7.30559e-05
6.81099e-05
7.30906e-05
3.60589e-05
3.60628e-05
3.60626e-05
3.65359e-05
3.65376e-05
3.65378e-05
3.65412e-05
5.99203e-05
6.42806e-05
4.45521e-05
4.98447e-05
5.98312e-05
6.43498e-05
4.46898e-05
7.08407e-05
7.08695e-05
5.99135e-05
4.45525e-05
6.4277e-05
4.98423e-05
5.98264e-05
4.46883e-05
6.43476e-05
6.95552e-05
6.9564e-05
5.22988e-05
6.96071e-05
6.96181e-05
6.82481e-05
7.31196e-05
6.82284e-05
7.31465e-05
7.0901e-05
7.09289e-05
6.82521e-05
7.31255e-05
6.82333e-05
7.3152e-05
3.66622e-05
3.66631e-05
3.66658e-05
3.70094e-05
3.70068e-05
3.70131e-05
3.70103e-05
6.0084e-05
6.44089e-05
4.50387e-05
5.01653e-05
6.00375e-05
6.44286e-05
4.51172e-05
7.08992e-05
7.09285e-05
6.0086e-05
4.50389e-05
6.44121e-05
5.01676e-05
6.00367e-05
4.51199e-05
6.44317e-05
6.96378e-05
6.96508e-05
5.25695e-05
6.96489e-05
6.96615e-05
6.83593e-05
7.31942e-05
6.82998e-05
7.3221e-05
7.09674e-05
7.09905e-05
6.83629e-05
7.31995e-05
6.83041e-05
7.32265e-05
3.71628e-05
3.71688e-05
3.71664e-05
3.75754e-05
3.75801e-05
3.75807e-05
3.75867e-05
6.02584e-05
6.45095e-05
4.54462e-05
5.05641e-05
6.01648e-05
6.45701e-05
4.55808e-05
7.09651e-05
7.09881e-05
6.02559e-05
4.54506e-05
6.45083e-05
5.0565e-05
6.01654e-05
4.55835e-05
6.45704e-05
6.97319e-05
6.9743e-05
5.28687e-05
6.97587e-05
6.97698e-05
6.83976e-05
7.32509e-05
6.83849e-05
7.32874e-05
7.10204e-05
7.10555e-05
6.84006e-05
7.32564e-05
6.83866e-05
7.32921e-05
3.76643e-05
3.7665e-05
3.76698e-05
3.79874e-05
3.7983e-05
3.79874e-05
3.79833e-05
6.03531e-05
6.45778e-05
4.5817e-05
5.07612e-05
6.03319e-05
6.4603e-05
4.58716e-05
7.10196e-05
7.10549e-05
6.03499e-05
4.5816e-05
6.45777e-05
5.07607e-05
6.03278e-05
4.58712e-05
6.46026e-05
6.97517e-05
6.97626e-05
5.30347e-05
6.97943e-05
6.9806e-05
6.85205e-05
7.33292e-05
6.84896e-05
7.33423e-05
7.10851e-05
7.11013e-05
6.85247e-05
7.33349e-05
6.84931e-05
7.33487e-05
3.81447e-05
3.81488e-05
3.8145e-05
3.85366e-05
3.85437e-05
3.85447e-05
3.85518e-05
6.05593e-05
6.47304e-05
4.62249e-05
5.11863e-05
6.04665e-05
6.47474e-05
4.63564e-05
7.10827e-05
7.10993e-05
6.05584e-05
4.6227e-05
6.47311e-05
5.11871e-05
6.04664e-05
4.63584e-05
6.47483e-05
6.98897e-05
6.99014e-05
5.33665e-05
6.9886e-05
6.98979e-05
6.85106e-05
7.33718e-05
6.85066e-05
7.34183e-05
7.11338e-05
7.11751e-05
6.85144e-05
7.33771e-05
6.85108e-05
7.34217e-05
3.85992e-05
3.86005e-05
3.86077e-05
3.8808e-05
3.88015e-05
3.88068e-05
3.88022e-05
6.05669e-05
6.47142e-05
4.65253e-05
5.12922e-05
6.05668e-05
6.47344e-05
4.65436e-05
7.11331e-05
7.11743e-05
6.05651e-05
4.65263e-05
6.47154e-05
5.12922e-05
6.05652e-05
4.65448e-05
6.47355e-05
6.9844e-05
6.98554e-05
5.34343e-05
6.99076e-05
6.99193e-05
6.86753e-05
7.34597e-05
6.86417e-05
7.34639e-05
7.12027e-05
7.12121e-05
6.86783e-05
7.34657e-05
6.86441e-05
7.34707e-05
3.89456e-05
3.89509e-05
3.89451e-05
6.08073e-05
6.49087e-05
4.68161e-05
5.16884e-05
6.07043e-05
6.49351e-05
4.69636e-05
7.11997e-05
7.12095e-05
6.08052e-05
4.68185e-05
6.49083e-05
5.16894e-05
6.07042e-05
4.69655e-05
6.49349e-05
7.004e-05
7.00513e-05
5.3792e-05
7.00396e-05
7.0051e-05
6.95697e-05
6.95724e-05
4.23272e-05
6.70324e-05
6.70426e-05
6.9598e-05
6.9572e-05
6.96006e-05
6.95747e-05
4.24918e-05
6.71201e-05
6.71303e-05
6.70465e-05
6.70568e-05
6.48556e-05
7.14107e-05
5.36057e-05
3.71328e-05
6.03958e-05
2.95027e-05
5.36071e-05
3.71317e-05
6.03986e-05
2.95031e-05
6.48714e-05
7.14484e-05
7.14125e-05
6.49688e-05
6.48731e-05
7.14535e-05
7.14173e-05
6.49706e-05
5.36463e-05
3.73608e-05
6.05402e-05
2.9994e-05
6.04196e-05
2.97485e-05
5.38409e-05
5.36477e-05
3.73587e-05
6.05432e-05
2.99939e-05
6.04222e-05
2.97486e-05
5.38421e-05
4.23252e-05
6.70407e-05
6.70267e-05
6.9568e-05
6.96003e-05
6.9574e-05
4.2489e-05
6.71299e-05
6.7116e-05
6.70549e-05
6.70411e-05
6.95967e-05
6.95702e-05
5.36088e-05
3.71306e-05
6.04006e-05
2.95044e-05
6.48562e-05
7.14068e-05
5.36069e-05
3.71301e-05
2.95037e-05
6.03942e-05
6.48758e-05
7.14543e-05
7.14185e-05
6.49737e-05
5.36496e-05
3.73591e-05
6.05452e-05
2.99974e-05
6.04244e-05
2.97508e-05
5.38453e-05
6.4874e-05
7.14492e-05
7.14135e-05
6.4972e-05
5.36477e-05
3.73606e-05
2.99984e-05
6.05417e-05
2.97512e-05
6.04189e-05
5.38438e-05
6.4856e-05
7.14097e-05
5.36064e-05
3.71335e-05
2.95062e-05
6.0393e-05
6.48542e-05
7.1407e-05
5.36484e-05
3.73569e-05
6.05393e-05
2.99939e-05
6.04183e-05
2.97491e-05
5.38428e-05
6.48735e-05
7.14525e-05
7.14164e-05
6.49712e-05
5.36468e-05
3.73594e-05
2.9995e-05
6.05389e-05
2.97506e-05
6.04168e-05
5.38414e-05
6.48718e-05
7.14501e-05
7.14136e-05
6.49695e-05
4.23241e-05
6.7036e-05
6.70334e-05
6.95713e-05
6.95989e-05
6.9573e-05
4.24901e-05
6.71258e-05
6.71234e-05
6.70511e-05
6.70482e-05
6.95994e-05
6.95737e-05
5.36087e-05
3.71312e-05
2.95075e-05
6.03983e-05
6.48568e-05
7.14088e-05
6.48577e-05
7.14116e-05
5.36488e-05
3.73604e-05
2.99991e-05
6.05447e-05
2.97524e-05
6.04214e-05
5.38446e-05
5.36495e-05
3.73575e-05
2.9998e-05
6.05443e-05
2.97526e-05
6.04222e-05
5.38448e-05
6.48746e-05
7.14513e-05
7.14154e-05
6.49728e-05
6.48755e-05
7.14546e-05
7.14182e-05
6.49735e-05
6.95698e-05
6.95726e-05
4.2489e-05
6.71188e-05
6.71304e-05
6.70431e-05
6.70547e-05
6.95987e-05
6.95723e-05
6.96015e-05
6.9575e-05
6.96004e-05
6.96269e-05
6.96031e-05
6.96295e-05
6.71338e-05
6.7144e-05
4.30423e-05
6.72057e-05
6.72156e-05
6.96565e-05
6.96295e-05
6.96592e-05
6.96321e-05
4.32003e-05
6.72912e-05
6.73011e-05
6.72193e-05
6.72292e-05
6.5084e-05
7.14601e-05
6.4988e-05
7.14963e-05
5.40714e-05
6.05632e-05
3.0239e-05
3.80325e-05
5.38808e-05
6.06807e-05
3.04833e-05
5.4073e-05
6.05666e-05
3.02391e-05
3.80326e-05
5.38821e-05
6.0686e-05
3.04839e-05
6.5099e-05
7.15342e-05
7.14977e-05
6.51932e-05
6.51011e-05
7.15392e-05
7.1503e-05
6.51953e-05
5.41104e-05
3.82527e-05
6.0819e-05
3.09707e-05
6.07032e-05
3.07272e-05
5.42968e-05
5.4112e-05
3.82541e-05
6.08244e-05
3.09722e-05
6.07088e-05
3.07284e-05
5.42986e-05
6.71441e-05
6.71305e-05
4.30408e-05
6.72175e-05
6.72038e-05
6.9599e-05
6.96256e-05
6.96586e-05
6.96318e-05
4.32003e-05
6.73024e-05
6.72887e-05
6.72312e-05
6.72177e-05
6.9655e-05
6.9628e-05
5.40755e-05
6.05682e-05
3.02427e-05
3.8031e-05
5.38851e-05
6.06854e-05
3.04874e-05
6.50845e-05
7.14557e-05
6.49893e-05
7.14914e-05
5.40741e-05
3.02447e-05
6.05651e-05
3.80373e-05
5.38837e-05
3.04896e-05
6.06812e-05
6.5103e-05
7.15401e-05
7.15035e-05
6.5197e-05
5.41141e-05
3.82513e-05
6.08234e-05
3.09741e-05
6.07079e-05
3.07308e-05
5.42998e-05
6.51013e-05
7.15343e-05
7.1498e-05
6.51952e-05
5.41127e-05
3.82574e-05
3.09763e-05
6.08183e-05
3.07334e-05
6.07037e-05
5.42982e-05
6.50853e-05
7.14592e-05
6.49887e-05
7.14954e-05
5.40732e-05
3.02401e-05
6.05625e-05
3.80342e-05
5.38813e-05
3.04855e-05
6.06827e-05
6.50837e-05
7.14568e-05
6.4987e-05
7.14933e-05
5.41136e-05
3.82528e-05
6.08209e-05
3.09738e-05
6.07053e-05
3.07292e-05
5.4301e-05
6.51024e-05
7.15382e-05
7.15021e-05
6.5197e-05
5.41124e-05
3.82577e-05
3.09766e-05
6.08233e-05
3.07313e-05
6.07058e-05
5.43001e-05
6.51009e-05
7.15362e-05
7.14999e-05
6.51956e-05
6.71397e-05
6.7137e-05
4.30474e-05
6.72099e-05
6.72075e-05
6.96018e-05
6.96279e-05
6.96569e-05
6.96298e-05
4.32052e-05
6.72945e-05
6.72921e-05
6.72236e-05
6.72209e-05
6.96574e-05
6.96305e-05
5.40763e-05
3.02436e-05
6.05679e-05
3.80326e-05
5.3885e-05
3.04892e-05
6.06879e-05
6.50859e-05
7.14578e-05
6.49903e-05
7.14935e-05
6.50869e-05
7.14612e-05
6.49909e-05
7.14976e-05
5.41148e-05
3.82577e-05
3.09788e-05
6.08214e-05
3.07351e-05
6.07066e-05
5.43008e-05
5.41155e-05
3.8256e-05
3.09796e-05
6.08284e-05
3.07347e-05
6.0711e-05
5.43021e-05
6.51029e-05
7.15364e-05
7.15001e-05
6.5197e-05
6.5104e-05
7.15404e-05
7.15043e-05
6.51984e-05
6.96012e-05
6.9628e-05
6.9604e-05
6.96307e-05
4.32035e-05
6.72947e-05
6.73061e-05
6.72219e-05
6.72332e-05
6.96572e-05
6.96305e-05
6.966e-05
6.96333e-05
6.96593e-05
6.96867e-05
6.96619e-05
6.96894e-05
6.73049e-05
6.73148e-05
4.37315e-05
6.73767e-05
6.73867e-05
6.9717e-05
6.96895e-05
6.97197e-05
6.96921e-05
4.38852e-05
6.74602e-05
6.74702e-05
6.73901e-05
6.74002e-05
6.53051e-05
7.15459e-05
6.52121e-05
7.15825e-05
5.45179e-05
6.08414e-05
3.12136e-05
3.89051e-05
5.4335e-05
6.09562e-05
3.14557e-05
5.45194e-05
6.08466e-05
3.12152e-05
3.89066e-05
5.43367e-05
6.09602e-05
3.14572e-05
6.53198e-05
7.16212e-05
7.15845e-05
6.54115e-05
6.53217e-05
7.1626e-05
7.15892e-05
6.54133e-05
5.45553e-05
3.91198e-05
6.10906e-05
3.19383e-05
6.09782e-05
3.16973e-05
5.47347e-05
5.45568e-05
3.91205e-05
6.10938e-05
3.19393e-05
6.09821e-05
3.16985e-05
5.47361e-05
6.73159e-05
6.73024e-05
4.37322e-05
6.73865e-05
6.73726e-05
6.96574e-05
6.96849e-05
6.9719e-05
6.96913e-05
4.38853e-05
6.74694e-05
6.74555e-05
6.73998e-05
6.73861e-05
6.97153e-05
6.96874e-05
5.45207e-05
6.08458e-05
3.12165e-05
3.89033e-05
5.43377e-05
6.09608e-05
3.14587e-05
6.53051e-05
7.15411e-05
6.52119e-05
7.15777e-05
5.4519e-05
3.12187e-05
6.08408e-05
3.89069e-05
5.43362e-05
3.14601e-05
6.09545e-05
6.53236e-05
7.16271e-05
7.15904e-05
6.54156e-05
5.45581e-05
3.91181e-05
6.10953e-05
3.19409e-05
6.09828e-05
3.16999e-05
5.47379e-05
6.53217e-05
7.16213e-05
7.15845e-05
6.54136e-05
5.45563e-05
3.91206e-05
3.19417e-05
6.10885e-05
3.17012e-05
6.09766e-05
5.4736e-05
6.53064e-05
7.1545e-05
6.52138e-05
7.15814e-05
5.45209e-05
3.12207e-05
6.08457e-05
3.89138e-05
5.43382e-05
3.14632e-05
6.09585e-05
6.5305e-05
7.15428e-05
6.52124e-05
7.15789e-05
5.45589e-05
3.91196e-05
6.109e-05
3.19413e-05
6.09786e-05
3.17009e-05
5.47374e-05
6.53228e-05
7.16249e-05
7.15882e-05
6.54139e-05
5.45579e-05
3.9127e-05
3.19443e-05
6.10897e-05
3.17043e-05
6.09799e-05
5.47361e-05
6.53214e-05
7.16221e-05
7.15856e-05
6.54123e-05
6.73083e-05
6.73056e-05
4.37327e-05
6.73787e-05
6.73762e-05
6.966e-05
6.96874e-05
6.97174e-05
6.96895e-05
4.38856e-05
6.74622e-05
6.74596e-05
6.73924e-05
6.73895e-05
6.97179e-05
6.96901e-05
5.45228e-05
3.12235e-05
6.08507e-05
3.8912e-05
5.43403e-05
3.14658e-05
6.09636e-05
6.53065e-05
7.15431e-05
6.52138e-05
7.15797e-05
6.53077e-05
7.1547e-05
6.52152e-05
7.15831e-05
5.45588e-05
3.91214e-05
3.19447e-05
6.10913e-05
3.17045e-05
6.09794e-05
5.47373e-05
5.45601e-05
3.91252e-05
3.19465e-05
6.1095e-05
3.17067e-05
6.09851e-05
5.47382e-05
6.5323e-05
7.16233e-05
7.15865e-05
6.54142e-05
6.53241e-05
7.16263e-05
7.15897e-05
6.54151e-05
6.96598e-05
6.96867e-05
6.96625e-05
6.96894e-05
4.38924e-05
6.74581e-05
6.74697e-05
6.739e-05
6.74014e-05
6.9717e-05
6.96894e-05
6.97198e-05
6.96921e-05
6.97199e-05
6.97478e-05
6.97225e-05
6.97505e-05
6.74732e-05
6.74833e-05
4.44007e-05
6.75417e-05
6.75517e-05
6.97789e-05
6.97507e-05
6.97816e-05
6.97533e-05
4.45487e-05
6.7622e-05
6.76321e-05
6.75546e-05
6.75646e-05
6.55198e-05
7.16327e-05
6.54296e-05
7.16696e-05
5.49469e-05
6.1112e-05
3.21787e-05
3.97537e-05
5.47713e-05
6.12216e-05
3.2418e-05
5.49483e-05
6.11153e-05
3.21794e-05
3.9753e-05
5.47727e-05
6.12252e-05
3.24186e-05
6.55339e-05
7.17086e-05
7.16716e-05
6.56226e-05
6.55357e-05
7.17134e-05
7.16764e-05
6.56244e-05
5.49827e-05
3.9961e-05
6.135e-05
3.28928e-05
6.12425e-05
3.26561e-05
5.51545e-05
5.49841e-05
3.99602e-05
6.13538e-05
3.28932e-05
6.12462e-05
3.26566e-05
5.5156e-05
6.74826e-05
6.74689e-05
4.43984e-05
6.75515e-05
6.75377e-05
6.9718e-05
6.97462e-05
6.9781e-05
6.97527e-05
4.45465e-05
6.7632e-05
6.76183e-05
6.75645e-05
6.7551e-05
6.97774e-05
6.97489e-05
5.49502e-05
6.11168e-05
3.21809e-05
3.97518e-05
5.47744e-05
6.12263e-05
3.24204e-05
6.552e-05
7.16281e-05
6.54298e-05
7.16649e-05
5.49483e-05
3.21817e-05
6.11102e-05
3.97531e-05
5.47725e-05
3.24208e-05
6.12201e-05
6.55379e-05
7.17144e-05
7.16775e-05
6.56266e-05
5.49858e-05
3.99595e-05
6.13546e-05
3.28956e-05
6.12472e-05
3.26585e-05
5.51578e-05
6.5536e-05
7.17087e-05
7.16718e-05
6.56246e-05
5.4984e-05
3.99607e-05
3.28961e-05
6.13486e-05
3.26591e-05
6.12414e-05
5.5156e-05
6.55204e-05
7.16318e-05
6.54301e-05
7.16687e-05
5.49477e-05
3.21835e-05
6.1111e-05
3.97554e-05
5.47724e-05
3.24216e-05
6.12208e-05
6.55186e-05
7.16289e-05
6.54285e-05
7.1666e-05
5.49848e-05
3.99588e-05
6.13503e-05
3.28934e-05
6.12427e-05
3.26571e-05
5.51571e-05
6.55364e-05
7.17125e-05
7.16755e-05
6.56253e-05
5.49834e-05
3.99621e-05
3.28951e-05
6.13501e-05
3.26588e-05
6.1242e-05
5.51557e-05
6.55347e-05
7.17099e-05
7.16728e-05
6.56236e-05
6.74758e-05
6.74729e-05
4.43997e-05
6.75444e-05
6.75419e-05
6.97207e-05
6.97487e-05
6.97794e-05
6.97509e-05
4.4548e-05
6.76247e-05
6.76223e-05
6.75576e-05
6.75548e-05
6.97799e-05
6.97516e-05
5.49499e-05
3.21856e-05
6.11163e-05
3.97537e-05
5.47747e-05
3.24237e-05
6.12261e-05
6.55207e-05
7.16301e-05
6.54305e-05
7.1667e-05
6.55215e-05
7.16331e-05
6.54314e-05
7.16701e-05
5.49851e-05
3.99611e-05
3.28973e-05
6.13517e-05
3.26605e-05
6.1244e-05