/*--------------------------------*- C++ -*----------------------------------*\
| =========                 |                                                 |
| \\      /  F ield         | OpenFOAM: The Open Source CFD Toolbox           |
|  \\    /   O peration     | Version:  v1906                                 |
|   \\  /    A nd           | Web:      www.OpenFOAM.com                      |
|    \\/     M anipulation  |                                                 |
\*---------------------------------------------------------------------------*/
FoamFile
{
    version     2.0;
    format      ascii;
    class       volScalarField;
    location    "375";
    object      p;
}
// * * * * * * * * * * * * * * * * * * * * * * * * * * * * * * * * * * * * * //

dimensions      [0 2 -2 0 0 0 0];


internalField   nonuniform List<scalar> 
42840
(
0.00163306
0.00163297
0.00163297
0.00163504
0.00159716
0.00159706
0.00159706
0.00159912
0.00156132
0.00156121
0.00156121
0.00156327
0.00152554
0.00152543
0.00152543
0.00152748
0.00148982
0.0014897
0.0014897
0.00149175
0.00145415
0.00145403
0.00145403
0.00145607
0.00141852
0.0014184
0.0014184
0.00142043
0.00138294
0.00138282
0.00138282
0.00138484
0.0013474
0.00134727
0.00134727
0.00134929
0.00131189
0.00131175
0.00131176
0.00131378
0.0012764
0.00127627
0.00127627
0.00127829
0.00124094
0.00124082
0.00124082
0.00124283
0.0012055
0.00120538
0.00120538
0.00120739
0.00117008
0.00116997
0.00116997
0.00117198
0.00113468
0.00113457
0.00113456
0.00113657
0.00109928
0.00109917
0.00109917
0.00110118
0.00106389
0.00106379
0.00106378
0.00106579
0.00102851
0.00102841
0.00102841
0.00103041
0.000993106
0.000993013
0.000993012
0.000995019
0.000957739
0.000957634
0.000957634
0.000959635
0.000922305
0.000922227
0.000922228
0.000924236
0.000886931
0.000886826
0.000886824
0.000888827
0.000851467
0.000851402
0.000851403
0.000853414
0.000816067
0.000815957
0.000815957
0.000817961
0.000780552
0.000780506
0.000780506
0.00078252
0.000745144
0.000745033
0.000745032
0.000747038
0.00163986
0.00164196
0.00164196
0.00163986
0.00164196
0.00164196
0.00164196
0.00164196
0.00163986
0.00164196
0.00164196
0.00163986
0.00163504
0.00160394
0.00163297
0.00163297
0.00160603
0.00160603
0.00163504
0.00160394
0.00163297
0.00163297
0.00160603
0.00160603
0.00163297
0.00160603
0.00160603
0.00163504
0.00160394
0.00163297
0.00160603
0.00160603
0.00160394
0.00159912
0.00156808
0.00159706
0.00159706
0.00157017
0.00157017
0.00159912
0.00156808
0.00159706
0.00159706
0.00157017
0.00157017
0.00159706
0.00157017
0.00157017
0.00159912
0.00156808
0.00159706
0.00157017
0.00157017
0.00156808
0.00156327
0.00153229
0.00156121
0.00156121
0.00153437
0.00153437
0.00156327
0.00153229
0.00156121
0.00156121
0.00153437
0.00153437
0.00156121
0.00153437
0.00153437
0.00156327
0.00153229
0.00156121
0.00153437
0.00153437
0.00153229
0.00152748
0.00149655
0.00152543
0.00152543
0.00149863
0.00149863
0.00152748
0.00149655
0.00152543
0.00152543
0.00149863
0.00149863
0.00152543
0.00149863
0.00149863
0.00152748
0.00149655
0.00152543
0.00149863
0.00149863
0.00149655
0.00149175
0.00146087
0.0014897
0.0014897
0.00146294
0.00146294
0.00149175
0.00146087
0.0014897
0.0014897
0.00146294
0.00146294
0.0014897
0.00146294
0.00146294
0.00149175
0.00146087
0.0014897
0.00146294
0.00146294
0.00146087
0.00145607
0.00142523
0.00145403
0.00145403
0.0014273
0.0014273
0.00145607
0.00142523
0.00145403
0.00145403
0.0014273
0.0014273
0.00145403
0.0014273
0.0014273
0.00145607
0.00142523
0.00145403
0.0014273
0.0014273
0.00142523
0.00142043
0.00138964
0.0014184
0.0014184
0.00139171
0.00139171
0.00142043
0.00138964
0.0014184
0.0014184
0.00139171
0.00139171
0.0014184
0.00139171
0.00139171
0.00142043
0.00138964
0.0014184
0.00139171
0.00139171
0.00138964
0.00138484
0.00135409
0.00138282
0.00138282
0.00135615
0.00135615
0.00138484
0.00135409
0.00138282
0.00138282
0.00135615
0.00135615
0.00138281
0.00135615
0.00135615
0.00138484
0.00135409
0.00138282
0.00135615
0.00135615
0.00135409
0.00134929
0.00131857
0.00134727
0.00134727
0.00132063
0.00132063
0.00134929
0.00131857
0.00134727
0.00134727
0.00132063
0.00132063
0.00134727
0.00132063
0.00132063
0.00134929
0.00131857
0.00134727
0.00132063
0.00132063
0.00131857
0.00131378
0.00128308
0.00131176
0.00131176
0.00128514
0.00128514
0.00131378
0.00128308
0.00131176
0.00131176
0.00128514
0.00128514
0.00131175
0.00128514
0.00128514
0.00131378
0.00128308
0.00131175
0.00128514
0.00128514
0.00128308
0.00127829
0.00124762
0.00127627
0.00127627
0.00124968
0.00124968
0.00127829
0.00124762
0.00127627
0.00127627
0.00124968
0.00124968
0.00127627
0.00124968
0.00124968
0.00127829
0.00124762
0.00127627
0.00124968
0.00124968
0.00124762
0.00124283
0.00121218
0.00124082
0.00124082
0.00121424
0.00121424
0.00124283
0.00121218
0.00124082
0.00124082
0.00121424
0.00121424
0.00124082
0.00121424
0.00121424
0.00124283
0.00121218
0.00124082
0.00121424
0.00121424
0.00121218
0.00120739
0.00117677
0.00120538
0.00120538
0.00117882
0.00117882
0.00120739
0.00117677
0.00120538
0.00120538
0.00117882
0.00117882
0.00120538
0.00117882
0.00117882
0.00120739
0.00117677
0.00120538
0.00117882
0.00117882
0.00117676
0.00117198
0.00114136
0.00116997
0.00116997
0.00114342
0.00114342
0.00117198
0.00114136
0.00116997
0.00116997
0.00114342
0.00114341
0.00116997
0.00114342
0.00114342
0.00117198
0.00114136
0.00116997
0.00114341
0.00114341
0.00114136
0.00113657
0.00110597
0.00113456
0.00113457
0.00110802
0.00110802
0.00113657
0.00110597
0.00113456
0.00113456
0.00110802
0.00110802
0.00113457
0.00110802
0.00110802
0.00113657
0.00110597
0.00113457
0.00110802
0.00110802
0.00110597
0.00110118
0.00107058
0.00109917
0.00109917
0.00107263
0.00107263
0.00110118
0.00107058
0.00109917
0.00109917
0.00107263
0.00107263
0.00109917
0.00107263
0.00107263
0.00110118
0.00107058
0.00109917
0.00107263
0.00107263
0.00107058
0.00106579
0.0010352
0.00106378
0.00106379
0.00103725
0.00103725
0.00106579
0.0010352
0.00106378
0.00106378
0.00103725
0.00103725
0.00106378
0.00103725
0.00103725
0.00106579
0.0010352
0.00106378
0.00103725
0.00103725
0.0010352
0.00103041
0.000999814
0.00102841
0.00102841
0.00100186
0.00100186
0.00103041
0.000999815
0.00102841
0.00102841
0.00100186
0.00100186
0.00102841
0.00100186
0.00100186
0.00103041
0.000999814
0.00102841
0.00100186
0.00100186
0.000999814
0.000995019
0.000964435
0.000993012
0.000993013
0.000966482
0.000966482
0.000995019
0.000964435
0.000993012
0.000993012
0.000966481
0.000966481
0.000993012
0.000966482
0.000966481
0.000995019
0.000964434
0.000993012
0.00096648
0.000966481
0.000964434
0.000959636
0.000929035
0.000957635
0.000957634
0.000931075
0.000931075
0.000959635
0.000929035
0.000957635
0.000957634
0.000931076
0.000931076
0.000957634
0.000931075
0.000931075
0.000959635
0.000929035
0.000957634
0.000931076
0.000931076
0.000929035
0.000924236
0.000893633
0.000922227
0.000922227
0.000895682
0.000895682
0.000924236
0.000893634
0.000922227
0.000922228
0.000895681
0.000895681
0.000922227
0.000895683
0.000895683
0.000924237
0.000893632
0.000922227
0.000895681
0.000895682
0.000893633
0.000888827
0.000858217
0.000886825
0.000886825
0.000860252
0.000860251
0.000888827
0.000858216
0.000886825
0.000886824
0.000860252
0.000860252
0.000886826
0.00086025
0.000860249
0.000888826
0.000858217
0.000886825
0.000860251
0.00086025
0.000858216
0.000853414
0.000822778
0.000851403
0.000851403
0.000824835
0.000824836
0.000853413
0.00082278
0.000851403
0.000851404
0.000824835
0.000824835
0.000851402
0.000824837
0.000824839
0.000853414
0.000822779
0.000851403
0.000824837
0.000824839
0.000822782
0.000817958
0.000787328
0.000815955
0.000815956
0.00078936
0.000789358
0.000817959
0.000787326
0.000815955
0.000815955
0.00078936
0.000789359
0.000815958
0.000789357
0.000789356
0.000817959
0.000787326
0.000815958
0.000789357
0.000789356
0.000787324
0.000782523
0.000751867
0.000780508
0.000780507
0.000753927
0.00075393
0.000782521
0.000751872
0.000780508
0.000780508
0.000753927
0.000753928
0.000780505
0.000753931
0.000753933
0.000782521
0.00075187
0.000780505
0.000753931
0.000753932
0.000751874
0.000747031
0.000745028
0.000745031
0.000747035
0.000745028
0.000745029
0.000745035
0.000747034
0.000745034
0.00165757
0.00165755
0.00165756
0.00165757
0.00165755
0.00164205
0.00164205
0.00164205
0.00164205
0.00165768
0.00165995
0.00165761
0.00166001
0.00165755
0.00165768
0.00165995
0.00166001
0.00165761
0.00165785
0.00165756
0.00165756
0.00162162
0.00163505
0.00163506
0.0016216
0.00163505
0.00162161
0.00162162
0.00163505
0.00163506
0.0016216
0.00163306
0.00163306
0.00163306
0.00160613
0.00160613
0.00160613
0.00160613
0.00162172
0.00163504
0.00163303
0.00162399
0.00163505
0.00162166
0.00162405
0.00163505
0.00162161
0.00162172
0.00163303
0.00163504
0.00162399
0.00163505
0.00162405
0.00162166
0.00163506
0.00163506
0.00162189
0.00162161
0.00162161
0.00158574
0.00159914
0.00159915
0.00158572
0.00159914
0.00158572
0.00158574
0.00159914
0.00159915
0.00158572
0.00159716
0.00159716
0.00159716
0.00157027
0.00157027
0.00157027
0.00157027
0.00158584
0.00159913
0.00159712
0.00158809
0.00159914
0.00158577
0.00158815
0.00159914
0.00158572
0.00158584
0.00159712
0.00159913
0.00158809
0.00159914
0.00158815
0.00158577
0.00159915
0.00159915
0.001586
0.00158573
0.00158573
0.00154992
0.0015633
0.00156331
0.0015499
0.0015633
0.00154991
0.00154992
0.0015633
0.00156331
0.0015499
0.00156132
0.00156132
0.00156132
0.00153448
0.00153448
0.00153448
0.00153448
0.00155002
0.00156329
0.00156127
0.00155226
0.00156329
0.00154996
0.00155232
0.0015633
0.00154991
0.00155002
0.00156127
0.00156329
0.00155226
0.00156329
0.00155232
0.00154995
0.00156331
0.00156331
0.00155018
0.00154991
0.00154991
0.00151416
0.00152752
0.00152753
0.00151415
0.00152752
0.00151415
0.00151416
0.00152752
0.00152753
0.00151415
0.00152554
0.00152554
0.00152554
0.00149875
0.00149875
0.00149875
0.00149875
0.00151425
0.00152751
0.00152549
0.00151649
0.00152751
0.0015142
0.00151655
0.00152752
0.00151415
0.00151425
0.00152549
0.00152751
0.00151649
0.00152751
0.00151655
0.0015142
0.00152753
0.00152753
0.00151441
0.00151415
0.00151415
0.00147846
0.0014918
0.00149181
0.00147844
0.0014918
0.00147845
0.00147846
0.0014918
0.00149181
0.00147845
0.00148982
0.00148982
0.00148982
0.00146306
0.00146306
0.00146306
0.00146306
0.00147855
0.00149178
0.00148976
0.00148078
0.00149178
0.00147849
0.00148084
0.0014918
0.00147845
0.00147855
0.00148976
0.00149178
0.00148078
0.00149178
0.00148084
0.00147849
0.00149181
0.00149181
0.0014787
0.00147845
0.00147845
0.0014428
0.00145613
0.00145614
0.00144279
0.00145613
0.00144279
0.0014428
0.00145613
0.00145614
0.00144279
0.00145415
0.00145415
0.00145415
0.00142742
0.00142742
0.00142742
0.00142742
0.00144289
0.00145611
0.00145408
0.00144512
0.00145611
0.00144284
0.00144517
0.00145613
0.0014428
0.00144289
0.00145408
0.00145611
0.00144512
0.00145611
0.00144517
0.00144284
0.00145614
0.00145614
0.00144304
0.00144279
0.00144279
0.0014072
0.00142051
0.00142051
0.00140719
0.00142052
0.00140719
0.0014072
0.00142051
0.00142051
0.00140719
0.00141852
0.00141852
0.00141852
0.00139183
0.00139183
0.00139183
0.00139183
0.00140728
0.00142049
0.00141846
0.0014095
0.00142048
0.00140723
0.00140955
0.00142051
0.00140719
0.00140728
0.00141846
0.00142049
0.0014095
0.00142048
0.00140955
0.00140723
0.00142051
0.00142051
0.00140743
0.00140719
0.00140719
0.00137163
0.00138493
0.00138493
0.00137162
0.00138493
0.00137162
0.00137163
0.00138493
0.00138493
0.00137162
0.00138294
0.00138294
0.00138294
0.00135628
0.00135628
0.00135628
0.00135628
0.00137171
0.0013849
0.00138287
0.00137392
0.0013849
0.00137166
0.00137398
0.00138493
0.00137162
0.00137171
0.00138287
0.0013849
0.00137393
0.0013849
0.00137398
0.00137166
0.00138493
0.00138493
0.00137186
0.00137162
0.00137162
0.0013361
0.00134939
0.00134939
0.00133609
0.00134939
0.0013361
0.0013361
0.00134939
0.00134939
0.00133609
0.0013474
0.0013474
0.0013474
0.00132076
0.00132076
0.00132076
0.00132076
0.00133618
0.00134936
0.00134732
0.00133839
0.00134936
0.00133613
0.00133844
0.00134939
0.0013361
0.00133618
0.00134732
0.00134936
0.00133839
0.00134936
0.00133844
0.00133613
0.00134939
0.00134939
0.00133632
0.00133609
0.00133609
0.0013006
0.00131388
0.00131388
0.0013006
0.00131388
0.0013006
0.0013006
0.00131388
0.00131388
0.0013006
0.00131189
0.00131189
0.00131189
0.00128527
0.00128527
0.00128527
0.00128527
0.00130068
0.00131385
0.0013118
0.00130288
0.00131385
0.00130063
0.00130293
0.00131388
0.0013006
0.00130068
0.0013118
0.00131385
0.00130288
0.00131385
0.00130293
0.00130063
0.00131388
0.00131388
0.00130082
0.00130059
0.00130059
0.00126514
0.0012784
0.0012784
0.00126513
0.0012784
0.00126513
0.00126514
0.0012784
0.0012784
0.00126513
0.0012764
0.0012764
0.0012764
0.0012498
0.0012498
0.0012498
0.0012498
0.00126521
0.00127837
0.00127632
0.00126741
0.00127837
0.00126517
0.00126745
0.0012784
0.00126513
0.00126521
0.00127632
0.00127837
0.00126741
0.00127837
0.00126745
0.00126516
0.00127841
0.00127841
0.00126535
0.00126513
0.00126513
0.00122969
0.00124295
0.00124295
0.00122969
0.00124295
0.00122969
0.00122969
0.00124295
0.00124295
0.00122969
0.00124094
0.00124094
0.00124094
0.00121436
0.00121436
0.00121436
0.00121436
0.00122976
0.00124292
0.00124086
0.00123196
0.00124291
0.00122972
0.001232
0.00124295
0.00122969
0.00122976
0.00124086
0.00124292
0.00123196
0.00124291
0.001232
0.00122972
0.00124295
0.00124295
0.0012299
0.00122968
0.00122968
0.00119427
0.00120752
0.00120752
0.00119427
0.00120752
0.00119427
0.00119427
0.00120752
0.00120752
0.00119427
0.00120551
0.0012055
0.0012055
0.00117894
0.00117894
0.00117894
0.00117894
0.00119434
0.00120749
0.00120542
0.00119653
0.00120748
0.0011943
0.00119657
0.00120752
0.00119427
0.00119434
0.00120542
0.00120749
0.00119653
0.00120748
0.00119657
0.0011943
0.00120752
0.00120752
0.00119447
0.00119426
0.00119426
0.00115886
0.00117211
0.00117211
0.00115886
0.00117211
0.00115886
0.00115886
0.00117211
0.00117211
0.00115886
0.00117008
0.00117008
0.00117008
0.00114353
0.00114353
0.00114353
0.00114353
0.00115893
0.00117208
0.00117
0.00116112
0.00117206
0.00115889
0.00116115
0.00117211
0.00115886
0.00115893
0.00117001
0.00117208
0.00116112
0.00117207
0.00116115
0.00115889
0.00117211
0.00117211
0.00115906
0.00115885
0.00115885
0.00112347
0.00113671
0.00113671
0.00112347
0.00113671
0.00112347
0.00112347
0.00113671
0.00113671
0.00112347
0.00113468
0.00113468
0.00113468
0.00110812
0.00110813
0.00110812
0.00110813
0.00112353
0.00113668
0.0011346
0.00112572
0.00113667
0.00112349
0.00112575
0.00113671
0.00112347
0.00112353
0.0011346
0.00113668
0.00112571
0.00113666
0.00112575
0.00112349
0.00113671
0.00113671
0.00112366
0.00112346
0.00112346
0.00108809
0.00110133
0.00110132
0.00108808
0.00110133
0.00108809
0.00108809
0.00110133
0.00110132
0.00108808
0.00109928
0.00109928
0.00109928
0.00107274
0.00107274
0.00107274
0.00107274
0.00108815
0.00110129
0.00109921
0.00109033
0.00110128
0.00108811
0.00109036
0.00110133
0.00108808
0.00108815
0.00109921
0.00110129
0.00109033
0.00110128
0.00109036
0.00108811
0.00110133
0.00110133
0.00108828
0.00108807
0.00108807
0.0010527
0.00106594
0.00106594
0.0010527
0.00106594
0.0010527
0.0010527
0.00106594
0.00106594
0.0010527
0.00106389
0.00106389
0.00106389
0.00103735
0.00103735
0.00103735
0.00103735
0.00105276
0.00106591
0.00106382
0.00105494
0.00106589
0.00105273
0.00105497
0.00106594
0.00105271
0.00105276
0.00106382
0.0010659
0.00105494
0.00106589
0.00105497
0.00105273
0.00106594
0.00106594
0.00105289
0.00105269
0.00105269
0.00101732
0.00103057
0.00103056
0.00101732
0.00103057
0.00101732
0.00101732
0.00103057
0.00103057
0.00101732
0.00102851
0.00102851
0.00102851
0.00100196
0.00100197
0.00100197
0.00100197
0.00101738
0.00103053
0.00102844
0.00101956
0.00103052
0.00101735
0.0010196
0.00103057
0.00101732
0.00101738
0.00102844
0.00103053
0.00101956
0.00103052
0.0010196
0.00101735
0.00103057
0.00103057
0.00101751
0.00101731
0.00101731
0.000981947
0.000995185
0.000995176
0.00098195
0.000995185
0.000981953
0.000981947
0.000995184
0.000995176
0.00098195
0.000993107
0.000993107
0.000993107
0.000966576
0.000966576
0.000966575
0.000966575
0.000982002
0.000995145
0.000993044
0.000984168
0.000995126
0.000981971
0.000984198
0.000995185
0.000981953
0.000982001
0.000993044
0.000995144
0.000984166
0.000995125
0.000984196
0.000981971
0.00099518
0.00099518
0.000982125
0.00098194
0.00098194
0.000946548
0.000959803
0.000959799
0.000946545
0.000959802
0.000946547
0.000946549
0.000959803
0.0009598
0.000946545
0.000957739
0.000957737
0.000957738
0.000931165
0.000931164
0.000931165
0.000931164
0.000946609
0.000959765
0.00095767
0.000948782
0.000959749
0.00094657
0.000948819
0.000959801
0.000946548
0.00094661
0.00095767
0.000959766
0.000948783
0.00095975
0.000948819
0.00094657
0.000959799
0.000959799
0.000946734
0.000946535
0.000946536
0.000911169
0.000924416
0.000924403
0.000911173
0.000924418
0.000911176
0.000911169
0.000924416
0.000924403
0.000911172
0.000922304
0.000922306
0.000922304
0.000895784
0.000895786
0.000895784
0.000895786
0.00091122
0.000924373
0.000922253
0.000913382
0.000924348
0.000911194
0.000913409
0.000924418
0.000911173
0.000911218
0.000922254
0.000924372
0.000913381
0.000924347
0.000913409
0.000911192
0.000924412
0.000924411
0.000911339
0.000911164
0.000911163
0.000875738
0.000888996
0.000888995
0.000875741
0.000888994
0.000875745
0.000875739
0.000888996
0.000888995
0.000875742
0.000886933
0.000886931
0.000886933
0.000860318
0.000860316
0.000860317
0.000860315
0.000875794
0.000888958
0.000886862
0.000877963
0.000888947
0.000875761
0.000877997
0.000888995
0.000875747
0.000875796
0.00088686
0.000888958
0.000877962
0.000888946
0.000877996
0.000875762
0.000888989
0.000888989
0.000875917
0.00087573
0.00087573
0.000840345
0.000853611
0.000853596
0.00084034
0.000853613
0.000840339
0.000840345
0.000853611
0.000853597
0.00084034
0.000851464
0.000851466
0.000851463
0.00082494
0.000824942
0.000824941
0.000824943
0.000840396
0.000853565
0.000851424
0.000842554
0.000853532
0.000840366
0.000842581
0.000853613
0.000840338
0.000840397
0.000851425
0.000853567
0.000842555
0.000853535
0.000842582
0.000840366
0.000853607
0.000853608
0.000840514
0.000840333
0.000840333
0.000804866
0.000818135
0.000818126
0.000804878
0.000818135
0.000804882
0.000804866
0.000818134
0.000818126
0.000804877
0.00081607
0.000816069
0.000816072
0.000789415
0.000789414
0.000789414
0.000789413
0.000804914
0.000818093
0.000815998
0.000807077
0.000818082
0.000804891
0.000807114
0.000818136
0.000804883
0.000804914
0.000815998
0.000818093
0.000807077
0.000818082
0.000807113
0.000804891
0.000818129
0.000818129
0.000805031
0.000804865
0.000804864
0.000769462
0.000782736
0.000782721
0.000769452
0.000782737
0.000769452
0.000769461
0.000782736
0.000782721
0.000769453
0.000780549
0.00078055
0.000780547
0.000754019
0.000754019
0.000754019
0.000754019
0.00076951
0.000782687
0.000780521
0.000771656
0.000782649
0.000769484
0.000771672
0.000782737
0.00076945
0.00076951
0.000780521
0.000782687
0.000771656
0.000782649
0.000771673
0.000769484
0.000782729
0.000782729
0.000769628
0.000769448
0.000769448
0.000733907
0.000747201
0.000747192
0.000733917
0.0007472
0.000733921
0.000733907
0.0007472
0.000747192
0.000733917
0.000745148
0.000745146
0.00074515
0.000733955
0.000747162
0.000745077
0.00073613
0.000747156
0.00073393
0.000736172
0.000747201
0.000733923
0.000733955
0.000745076
0.000747162
0.00073613
0.000747155
0.000736172
0.00073393
0.000747197
0.000747197
0.000734071
0.000733904
0.000733904
0.00165756
0.00165756
0.00165785
0.00165756
0.00165756
0.00163957
0.00165303
0.00163957
0.00165303
0.00165302
0.00163958
0.00163958
0.00165304
0.00165304
0.00165757
0.00165755
0.00165768
0.00165995
0.00165761
0.00166001
0.00165768
0.00165995
0.00165761
0.00166001
0.00165304
0.00163957
0.00165303
0.00163958
0.00165304
0.00163957
0.00165303
0.00163958
0.00165303
0.00165095
0.00163963
0.00164202
0.00165302
0.00165101
0.00163969
0.00165303
0.00165095
0.00163963
0.00164202
0.00165302
0.00165101
0.00163969
0.00165785
0.00165756
0.00165756
0.00165756
0.00163957
0.00165303
0.00165302
0.00163958
0.00163958
0.00165304
0.00165304
0.00163957
0.00165303
0.00165768
0.00165995
0.00165761
0.00166001
0.00165757
0.00165755
0.00165768
0.00165995
0.00166001
0.00165761
0.00165304
0.00163957
0.00165303
0.00163958
0.00165303
0.00165095
0.00163963
0.00164202
0.00165302
0.00165101
0.00163969
0.00165304
0.00163957
0.00165303
0.00163958
0.00165303
0.00165095
0.00164202
0.00163962
0.00165101
0.00165302
0.00163969
0.00165757
0.00165755
0.00165768
0.00165995
0.00166001
0.00165761
0.00165757
0.00165755
0.00165303
0.00165095
0.00163963
0.00164202
0.00165302
0.00165101
0.00163969
0.00165304
0.00163957
0.00165303
0.00163959
0.00165303
0.00165095
0.00164202
0.00163963
0.00165101
0.00165302
0.00163969
0.00165304
0.00163957
0.00165303
0.00163959
0.00165785
0.00165756
0.00165756
0.00165756
0.00163957
0.00165303
0.00165302
0.00163958
0.00163957
0.00165304
0.00165304
0.00163957
0.00165303
0.00165768
0.00165995
0.00166001
0.00165761
0.00165757
0.00165755
0.00165757
0.00165755
0.00165303
0.00165095
0.00164202
0.00163962
0.00165101
0.00165302
0.00163969
0.00165303
0.00165095
0.00164202
0.00163963
0.00165101
0.00165302
0.00163969
0.00165304
0.00163957
0.00165303
0.00163958
0.00165304
0.00163957
0.00165303
0.00163958
0.00165756
0.00165756
0.00165302
0.00163958
0.00163958
0.00165304
0.00165304
0.00163957
0.00165303
0.00163957
0.00165303
0.00163505
0.00162161
0.00163505
0.00162161
0.00163506
0.00163506
0.00162189
0.00162161
0.00162161
0.00160366
0.00161709
0.00160366
0.00161709
0.00161707
0.00160366
0.00160366
0.0016171
0.0016171
0.00162162
0.00163505
0.00163506
0.0016216
0.00162172
0.00163504
0.00163303
0.00162399
0.00163505
0.00162166
0.00162405
0.00162172
0.00163504
0.00163303
0.00162399
0.00163505
0.00162166
0.00162405
0.0016171
0.00160365
0.00161709
0.00160367
0.0016171
0.00160365
0.00161709
0.00160367
0.00161708
0.00161501
0.00160371
0.00160609
0.00161707
0.00161507
0.00160377
0.00161708
0.00161501
0.00160371
0.00160609
0.00161707
0.00161507
0.00160377
0.00163506
0.00163506
0.00162189
0.00162161
0.00162161
0.00163505
0.00162161
0.00160366
0.00161709
0.00161707
0.00160366
0.00160366
0.0016171
0.0016171
0.00160366
0.00161709
0.00162172
0.00163504
0.00163303
0.00162399
0.00163505
0.00162166
0.00162405
0.00162162
0.00163505
0.00163506
0.0016216
0.00162172
0.00163303
0.00163504
0.00162399
0.00163505
0.00162405
0.00162166
0.0016171
0.00160365
0.00161709
0.00160367
0.00161708
0.00161501
0.00160371
0.00160609
0.00161707
0.00161507
0.00160377
0.0016171
0.00160365
0.00161709
0.00160367
0.00161708
0.00161501
0.00160609
0.00160371
0.00161507
0.00161707
0.00160377
0.00162162
0.00163505
0.00163506
0.0016216
0.00162172
0.00163303
0.00163504
0.00162399
0.00163505
0.00162405
0.00162166
0.00162162
0.00163505
0.00163506
0.0016216
0.00161708
0.00161501
0.00160371
0.00160609
0.00161707
0.00161507
0.00160377
0.0016171
0.00160365
0.00161709
0.00160367
0.00161708
0.00161501
0.00160609
0.00160371
0.00161507
0.00161707
0.00160377
0.0016171
0.00160365
0.00161709
0.00160367
0.00163506
0.00163506
0.00162189
0.00162161
0.00162161
0.00163505
0.00162161
0.00160366
0.00161709
0.00161707
0.00160366
0.00160366
0.0016171
0.0016171
0.00160366
0.00161709
0.00162172
0.00163303
0.00163504
0.00162399
0.00163505
0.00162405
0.00162166
0.00162162
0.00163505
0.00163506
0.0016216
0.00162162
0.00163505
0.00163506
0.0016216
0.00161708
0.00161501
0.00160609
0.00160371
0.00161507
0.00161707
0.00160377
0.00161708
0.00161501
0.00160609
0.00160371
0.00161507
0.00161707
0.00160377
0.0016171
0.00160365
0.00161709
0.00160367
0.0016171
0.00160365
0.00161709
0.00160367
0.00163505
0.0016216
0.00163505
0.0016216
0.00161707
0.00160366
0.00160366
0.0016171
0.0016171
0.00160366
0.00161709
0.00160366
0.00161709
0.00159914
0.00158572
0.00159914
0.00158572
0.00159915
0.00159915
0.001586
0.00158573
0.00158573
0.00156781
0.00158122
0.00156781
0.00158122
0.00158119
0.00156781
0.00156781
0.00158123
0.00158123
0.00158574
0.00159914
0.00159915
0.00158572
0.00158584
0.00159913
0.00159712
0.00158809
0.00159914
0.00158577
0.00158815
0.00158584
0.00159913
0.00159712
0.00158809
0.00159914
0.00158577
0.00158815
0.00158122
0.0015678
0.00158121
0.00156782
0.00158122
0.0015678
0.00158121
0.00156782
0.00158121
0.00157913
0.00156786
0.00157023
0.0015812
0.00157919
0.00156792
0.00158121
0.00157913
0.00156786
0.00157023
0.0015812
0.00157919
0.00156792
0.00159915
0.00159915
0.001586
0.00158573
0.00158573
0.00159914
0.00158572
0.00156781
0.00158122
0.00158119
0.00156781
0.00156781
0.00158123
0.00158123
0.00156781
0.00158122
0.00158584
0.00159913
0.00159712
0.00158809
0.00159914
0.00158577
0.00158815
0.00158574
0.00159914
0.00159915
0.00158572
0.00158584
0.00159712
0.00159913
0.00158809
0.00159914
0.00158815
0.00158577
0.00158122
0.0015678
0.00158121
0.00156782
0.00158121
0.00157913
0.00156786
0.00157023
0.0015812
0.00157919
0.00156792
0.00158122
0.0015678
0.00158121
0.00156782
0.00158121
0.00157913
0.00157023
0.00156786
0.00157919
0.0015812
0.00156792
0.00158574
0.00159914
0.00159915
0.00158572
0.00158584
0.00159712
0.00159913
0.00158809
0.00159914
0.00158815
0.00158577
0.00158574
0.00159914
0.00159915
0.00158572
0.00158121
0.00157913
0.00156786
0.00157023
0.0015812
0.00157919
0.00156792
0.00158122
0.0015678
0.00158121
0.00156782
0.00158121
0.00157913
0.00157023
0.00156786
0.00157919
0.0015812
0.00156792
0.00158122
0.0015678
0.00158121
0.00156782
0.00159915
0.00159915
0.001586
0.00158573
0.00158573
0.00159914
0.00158572
0.00156781
0.00158122
0.00158119
0.00156781
0.00156781
0.00158123
0.00158123
0.00156781
0.00158122
0.00158584
0.00159712
0.00159913
0.00158809
0.00159914
0.00158815
0.00158577
0.00158574
0.00159914
0.00159915
0.00158572
0.00158574
0.00159914
0.00159915
0.00158572
0.00158121
0.00157913
0.00157023
0.00156786
0.00157919
0.0015812
0.00156792
0.00158121
0.00157913
0.00157023
0.00156786
0.00157919
0.0015812
0.00156792
0.00158122
0.0015678
0.00158121
0.00156782
0.00158122
0.0015678
0.00158121
0.00156782
0.00159914
0.00158572
0.00159914
0.00158572
0.00158118
0.00156781
0.00156781
0.00158123
0.00158123
0.00156781
0.00158122
0.00156781
0.00158122
0.0015633
0.00154991
0.0015633
0.00154991
0.00156331
0.00156331
0.00155018
0.00154991
0.00154991
0.00153202
0.00154541
0.00153202
0.00154541
0.00154537
0.00153202
0.00153202
0.00154542
0.00154542
0.00154992
0.0015633
0.00156331
0.0015499
0.00155002
0.00156329
0.00156127
0.00155226
0.00156329
0.00154995
0.00155232
0.00155002
0.00156329
0.00156127
0.00155226
0.00156329
0.00154995
0.00155232
0.00154541
0.00153202
0.00154541
0.00153203
0.00154541
0.00153202
0.00154541
0.00153203
0.00154539
0.00154331
0.00153207
0.00153443
0.00154539
0.00154337
0.00153213
0.00154539
0.00154332
0.00153207
0.00153443
0.00154539
0.00154337
0.00153213
0.00156331
0.00156331
0.00155018
0.00154991
0.00154991
0.0015633
0.00154991
0.00153202
0.00154541
0.00154537
0.00153202
0.00153202
0.00154541
0.00154541
0.00153202
0.00154541
0.00155002
0.00156329
0.00156127
0.00155226
0.00156329
0.00154995
0.00155232
0.00154992
0.0015633
0.00156331
0.0015499
0.00155002
0.00156127
0.00156329
0.00155226
0.00156329
0.00155232
0.00154995
0.00154541
0.00153202
0.00154541
0.00153203
0.00154539
0.00154331
0.00153207
0.00153443
0.00154539
0.00154337
0.00153213
0.00154541
0.00153202
0.00154541
0.00153203
0.00154539
0.00154332
0.00153443
0.00153207
0.00154337
0.00154539
0.00153213
0.00154992
0.0015633
0.00156331
0.0015499
0.00155002
0.00156127
0.00156329
0.00155226
0.00156329
0.00155232
0.00154996
0.00154992
0.0015633
0.00156331
0.0015499
0.00154539
0.00154332
0.00153207
0.00153443
0.00154539
0.00154337
0.00153213
0.00154541
0.00153202
0.00154541
0.00153203
0.00154539
0.00154332
0.00153443
0.00153207
0.00154337
0.00154539
0.00153213
0.00154541
0.00153202
0.00154541
0.00153203
0.00156331
0.00156331
0.00155018
0.00154991
0.00154991
0.0015633
0.00154991
0.00153202
0.00154541
0.00154537
0.00153202
0.00153202
0.00154541
0.00154542
0.00153202
0.00154541
0.00155002
0.00156127
0.00156329
0.00155226
0.00156329
0.00155232
0.00154996
0.00154992
0.0015633
0.00156331
0.0015499
0.00154992
0.0015633
0.00156331
0.0015499
0.00154539
0.00154332
0.00153443
0.00153207
0.00154337
0.00154539
0.00153213
0.00154539
0.00154332
0.00153443
0.00153207
0.00154337
0.00154539
0.00153213
0.00154541
0.00153202
0.00154541
0.00153203
0.00154541
0.00153202
0.00154541
0.00153203
0.0015633
0.00154991
0.0015633
0.00154991
0.00154537
0.00153202
0.00153202
0.00154542
0.00154542
0.00153202
0.00154541
0.00153202
0.00154541
0.00152752
0.00151415
0.00152752
0.00151415
0.00152753
0.00152753
0.00151441
0.00151415
0.00151415
0.00149629
0.00150966
0.00149629
0.00150966
0.00150961
0.00149629
0.00149629
0.00150966
0.00150966
0.00151416
0.00152752
0.00152753
0.00151415
0.00151425
0.00152751
0.00152549
0.00151649
0.00152751
0.0015142
0.00151655
0.00151425
0.00152751
0.00152549
0.00151649
0.00152751
0.0015142
0.00151655
0.00150966
0.00149629
0.00150966
0.0014963
0.00150966
0.00149629
0.00150966
0.0014963
0.00150964
0.00150756
0.00149634
0.00149869
0.00150964
0.00150762
0.00149639
0.00150964
0.00150756
0.00149634
0.00149869
0.00150964
0.00150762
0.00149639
0.00152753
0.00152753
0.00151441
0.00151415
0.00151415
0.00152753
0.00151415
0.00149629
0.00150966
0.00150961
0.00149629
0.00149629
0.00150966
0.00150966
0.00149629
0.00150966
0.00151425
0.00152751
0.00152549
0.00151649
0.00152751
0.0015142
0.00151655
0.00151416
0.00152752
0.00152753
0.00151415
0.00151425
0.00152549
0.00152751
0.00151649
0.00152751
0.00151655
0.0015142
0.00150966
0.00149629
0.00150966
0.0014963
0.00150964
0.00150756
0.00149634
0.00149869
0.00150964
0.00150762
0.00149639
0.00150966
0.00149629
0.00150966
0.0014963
0.00150964
0.00150756
0.00149869
0.00149634
0.00150762
0.00150964
0.0014964
0.00151416
0.00152752
0.00152753
0.00151415
0.00151425
0.00152549
0.00152751
0.00151649
0.00152751
0.00151655
0.0015142
0.00151416
0.00152752
0.00152753
0.00151415
0.00150964
0.00150756
0.00149634
0.00149869
0.00150964
0.00150762
0.00149639
0.00150966
0.00149629
0.00150966
0.0014963
0.00150964
0.00150756
0.00149869
0.00149634