/*--------------------------------*- C++ -*----------------------------------*\
| =========                 |                                                 |
| \\      /  F ield         | OpenFOAM: The Open Source CFD Toolbox           |
|  \\    /   O peration     | Version:  v1906                                 |
|   \\  /    A nd           | Web:      www.OpenFOAM.com                      |
|    \\/     M anipulation  |                                                 |
\*---------------------------------------------------------------------------*/
FoamFile
{
    version     2.0;
    format      ascii;
    class       surfaceScalarField;
    location    "375";
    object      phi;
}
// * * * * * * * * * * * * * * * * * * * * * * * * * * * * * * * * * * * * * //

dimensions      [0 3 -1 0 0 0 0];
oriented        oriented;


internalField   nonuniform List<scalar> 
123680
(
-1.93944e-07
-1.93829e-07
-0.00119122
1.77216e-07
1.77044e-07
0.00119125
-0.0011399
-1.24204e-06
1.94493e-07
6.09245e-08
0.00113976
-2.46228e-07
1.22188e-06
2.28334e-07
8.56893e-07
-2.38489e-07
-8.93962e-07
1.99675e-07
-0.00113953
-1.23639e-06
1.94296e-07
6.03126e-08
0.00113938
-2.46119e-07
1.2164e-06
2.28422e-07
8.56735e-07
-2.41118e-07
-8.93838e-07
2.02374e-07
-0.000271363
1.27115e-06
1.23678e-06
-2.31169e-07
-2.36398e-07
0.000269323
-1.70583e-07
-1.70187e-07
-0.00119133
1.62604e-07
1.63525e-07
0.00119134
-0.00113934
-1.23715e-06
1.70039e-07
5.23937e-08
0.0011392
-2.42438e-07
1.22279e-06
2.29733e-07
8.5955e-07
-2.3311e-07
-8.87958e-07
2.02796e-07
-0.00113897
-1.23159e-06
1.69588e-07
5.2154e-08
0.00113883
-2.42415e-07
1.21724e-06
2.29757e-07
8.59415e-07
-2.35736e-07
-8.8781e-07
2.05495e-07
-0.000271228
1.26606e-06
1.23168e-06
-2.27528e-07
-2.32782e-07
0.00026919
-1.47145e-07
-1.47054e-07
-0.00119136
1.48227e-07
1.48569e-07
0.00119135
-0.0011388
-1.2325e-06
1.4672e-07
4.39644e-08
0.00113867
-2.38802e-07
1.22372e-06
2.31138e-07
8.61994e-07
-2.28116e-07
-8.82373e-07
2.05665e-07
-0.00113843
-1.22694e-06
1.46648e-07
4.40948e-08
0.0011383
-2.38775e-07
1.21817e-06
2.31167e-07
8.61856e-07
-2.30739e-07
-8.82221e-07
2.08357e-07
-0.000271102
1.26145e-06
1.22699e-06
-2.24194e-07
-2.29496e-07
0.000269068
-1.24299e-07
-1.24144e-07
-0.00119132
1.32675e-07
1.32657e-07
0.00119131
-0.00113828
-1.22802e-06
1.24436e-07
3.53026e-08
0.00113816
-2.3532e-07
1.22466e-06
2.32469e-07
8.64388e-07
-2.23314e-07
-8.77016e-07
2.08448e-07
-0.00113791
-1.22248e-06
1.24458e-07
3.52869e-08
0.00113779
-2.35312e-07
1.21909e-06
2.32484e-07
8.6421e-07
-2.25973e-07
-8.76908e-07
2.1111e-07
-0.000270985
1.25708e-06
1.22271e-06
-2.21141e-07
-2.26374e-07
0.000268953
-1.02846e-07
-1.02647e-07
-0.00119124
1.17802e-07
1.18005e-07
0.00119121
-0.00113779
-1.22406e-06
1.02543e-07
2.83367e-08
0.00113767
-2.32284e-07
1.22529e-06
2.33509e-07
8.66635e-07
-2.18808e-07
-8.71987e-07
2.11054e-07
-0.00113742
-1.21851e-06
1.02455e-07
2.8298e-08
0.0011373
-2.3227e-07
1.21974e-06
2.33516e-07
8.66458e-07
-2.21455e-07
-8.71866e-07
2.13716e-07
-0.000270876
1.25302e-06
1.21864e-06
-2.18309e-07
-2.23564e-07
0.000268846
-8.23972e-08
-8.20781e-08
-0.0011911
1.03042e-07
1.03403e-07
0.00119106
-0.00113731
-1.22033e-06
8.23227e-08
2.15399e-08
0.0011372
-2.29442e-07
1.22588e-06
2.3445e-07
8.68644e-07
-2.14677e-07
-8.67346e-07
2.13372e-07
-0.00113695
-1.21477e-06
8.21044e-08
2.15231e-08
0.00113683
-2.29407e-07
1.22035e-06
2.34486e-07
8.68516e-07
-2.17287e-07
-8.67193e-07
2.16084e-07
-0.000270776
1.24926e-06
1.21491e-06
-2.15747e-07
-2.20982e-07
0.000268748
-6.30652e-08
-6.29305e-08
-0.00119091
8.93976e-08
8.91528e-08
0.00119086
-0.00113686
-1.21671e-06
6.25701e-08
1.48421e-08
0.00113676
-2.26651e-07
1.22656e-06
2.35453e-07
8.70625e-07
-2.1071e-07
-8.62906e-07
2.15631e-07
-0.0011365
-1.21124e-06
6.28138e-08
1.49364e-08
0.00113639
-2.26694e-07
1.22095e-06
2.35422e-07
8.70406e-07
-2.13407e-07
-8.62834e-07
2.18254e-07
-0.000270683
1.24572e-06
1.21138e-06
-2.13312e-07
-2.18545e-07
0.000268658
-4.42692e-08
-4.39521e-08
-0.00119069
7.45206e-08
7.50156e-08
0.00119063
-0.00113644
-1.21361e-06
4.42435e-08
9.33527e-09
0.00113634
-2.24346e-07
1.22689e-06
2.36079e-07
8.72381e-07
-2.07102e-07
-8.58853e-07
2.17649e-07
-0.00113607
-1.20804e-06
4.38438e-08
9.37755e-09
0.00113597
-2.24307e-07
1.22136e-06
2.36112e-07
8.72273e-07
-2.09677e-07
-8.58662e-07
2.20377e-07
-0.000270599
1.24255e-06
1.20818e-06
-2.11168e-07
-2.16419e-07
0.000268575
-2.66911e-08
-2.63599e-08
-0.00119043
6.12375e-08
6.09435e-08
0.00119036
-0.00113604
-1.21049e-06
2.63043e-08
3.77703e-09
0.00113594
-2.21978e-07
1.22742e-06
2.36856e-07
8.74104e-07
-2.03618e-07
-8.54948e-07
2.19589e-07
-0.00113567
-1.20497e-06
2.66343e-08
3.64244e-09
0.00113557
-2.21963e-07
1.22186e-06
2.36883e-07
8.73856e-07
-2.06343e-07
-8.54917e-07
2.22197e-07
-0.000270521
1.23939e-06
1.20515e-06
-2.09118e-07
-2.14287e-07
0.0002685
-1.00947e-08
-9.79739e-09
-0.00119014
4.76585e-08
4.81969e-08
0.00119007
-0.00113566
-1.20783e-06
9.74834e-09
-8.37337e-10
0.00113557
-2.20008e-07
1.22764e-06
2.37343e-07
8.75644e-07
-2.00451e-07
-8.5141e-07
2.21354e-07
-0.00113529
-1.20228e-06
9.29622e-09
-6.4939e-10
0.0011352
-2.19992e-07
1.22209e-06
2.37346e-07
8.75535e-07
-2.03021e-07
-8.51206e-07
2.24073e-07
-0.000270451
1.23673e-06
1.20236e-06
-2.07275e-07
-2.12539e-07
0.000268432
5.75562e-09
6.15683e-09
-0.00118983
3.4832e-08
3.4533e-08
0.00118975
-0.0011353
-1.20515e-06
-5.94615e-09
-5.89336e-09
0.00113522
-2.1802e-07
1.22804e-06
2.37936e-07
8.771e-07
-1.97497e-07
-8.48057e-07
2.22953e-07
-0.00113493
-1.19961e-06
-5.64581e-09
-6.19587e-09
0.00113485
-2.17961e-07
1.22253e-06
2.38006e-07
8.76874e-07
-2.00204e-07
-8.48014e-07
2.25588e-07
-0.000270388
1.23406e-06
1.19984e-06
-2.05641e-07
-2.10809e-07
0.00026837
2.02706e-08
2.06126e-08
-0.0011895
2.24038e-08
2.28153e-08
0.00118942
-0.00113497
-1.20278e-06
-2.0705e-08
-9.87386e-09
0.00113489
-2.16267e-07
1.2283e-06
2.38374e-07
8.78456e-07
-1.94744e-07
-8.44974e-07
2.24472e-07
-0.0011346
-1.19728e-06
-2.09833e-08
-9.51924e-09
0.00113452
-2.16298e-07
1.2227e-06
2.38339e-07
8.78307e-07
-1.97358e-07
-8.44802e-07
2.27141e-07
-0.000270331
1.23165e-06
1.1973e-06
-2.03935e-07
-2.09192e-07
0.000268315
3.41742e-08
3.46797e-08
-0.00118915
1.07157e-08
1.06098e-08
0.00118906
-0.00113466
-1.20047e-06
-3.47155e-08
-1.39399e-08
0.00113458
-2.14549e-07
1.22864e-06
2.38884e-07
8.79567e-07
-1.92319e-07
-8.42206e-07
2.25696e-07
-0.00113429
-1.19489e-06
-3.45973e-08
-1.44849e-08
0.00113421
-2.14454e-07
1.22317e-06
2.38981e-07
8.79365e-07
-1.94992e-07
-8.42137e-07
2.28367e-07
-0.00027028
1.22936e-06
1.19515e-06
-2.02572e-07
-2.07741e-07
0.000268266
4.70205e-08
4.70679e-08
-0.00118879
-8.93058e-10
-8.64391e-10
0.00118869
-0.00113436
-1.19845e-06
-4.68312e-08
-1.77932e-08
0.00113429
-2.13073e-07
1.22881e-06
2.39202e-07
8.80641e-07
-1.90028e-07
-8.3967e-07
2.26927e-07
-0.001134
-1.19299e-06
-4.69661e-08
-1.71508e-08
0.00113393
-2.13125e-07
1.22318e-06
2.39148e-07
8.8049e-07
-1.92653e-07
-8.39498e-07
2.29584e-07
-0.000270236
1.22737e-06
1.19298e-06
-2.01138e-07
-2.06423e-07
0.000268223
5.71969e-08
5.81741e-08
-0.00118841
-9.78023e-09
-9.50373e-09
0.00118831
-0.00113409
-1.19656e-06
-5.8297e-08
-2.12502e-08
0.00113403
-2.1166e-07
1.22898e-06
2.3954e-07
8.81472e-07
-1.88058e-07
-8.37386e-07
2.27815e-07
-0.00113373
-1.19097e-06
-5.81873e-08
-2.20138e-08
0.00113366
-2.11557e-07
1.22353e-06
2.39653e-07
8.8125e-07
-1.90755e-07
-8.37341e-07
2.3047e-07
-0.000270197
1.22535e-06
1.19124e-06
-2.00047e-07
-2.05168e-07
0.000268186
6.86848e-08
6.82597e-08
-0.00118802
-1.96044e-08
-1.99211e-08
0.00118793
-0.00113384
-1.19466e-06
-6.83812e-08
-2.60441e-08
0.00113378
-2.102e-07
1.22934e-06
2.4003e-07
8.82351e-07
-1.86187e-07
-8.35296e-07
2.28792e-07
-0.00113348
-1.18918e-06
-6.84635e-08
-2.54563e-08
0.00113342
-2.10234e-07
1.22373e-06
2.3998e-07
8.82202e-07
-1.88802e-07
-8.35113e-07
2.31455e-07
-0.000270163
1.22368e-06
1.18919e-06
-1.98709e-07
-2.0408e-07
0.000268153
7.64492e-08
7.76344e-08
-0.00118763
-2.81865e-08
-2.77547e-08
0.00118753
-0.00113361
-1.19337e-06
-7.70088e-08
-2.7624e-08
0.00113355
-2.09309e-07
1.22912e-06
2.39985e-07
8.82802e-07
-1.84766e-07
-8.33642e-07
2.29328e-07
-0.00113324
-1.18786e-06
-7.71258e-08
-2.80028e-08
0.00113319
-2.09274e-07
1.2236e-06
2.40047e-07
8.82626e-07
-1.87432e-07
-8.33552e-07
2.32012e-07
-0.000270136
1.22205e-06
1.18808e-06
-1.98059e-07
-2.03076e-07
0.000268127
8.58412e-08
8.56403e-08
-0.00118724
-3.49266e-08
-3.51027e-08
0.00118713
-0.00113339
-1.19148e-06
-8.65534e-08
-3.29013e-08
0.00113334
-2.07829e-07
1.2297e-06
2.40585e-07
8.83664e-07
-1.83065e-07
-8.31671e-07
2.30144e-07
-0.00113303
-1.1859e-06
-8.62457e-08
-3.28642e-08
0.00113298
-2.07759e-07
1.22419e-06
2.40634e-07
8.83413e-07
-1.85761e-07
-8.31593e-07
2.32748e-07
-0.000270112
1.22054e-06
1.18594e-06
-1.96663e-07
-2.02146e-07
0.000268104
9.38232e-08
9.43261e-08
-0.00118683
-4.48204e-08
-4.50295e-08
0.00118674
-0.0011332
-1.19049e-06
-9.33967e-08
-3.4688e-08
0.00113315
-2.07092e-07
1.22953e-06
2.40634e-07
8.84049e-07
-1.81956e-07
-8.30475e-07
2.307e-07
-0.00113283
-1.18504e-06
-9.36099e-08
-3.45339e-08
0.00113279
-2.07148e-07
1.22392e-06
2.40576e-07
8.83935e-07
-1.84559e-07
-8.30312e-07
2.33413e-07
-0.000270093
1.21924e-06
1.18525e-06
-1.96264e-07
-2.01261e-07
0.000268086
9.75925e-08
9.83985e-08
-0.00118643
-4.74803e-08
-4.66137e-08
0.00118633
-0.00113302
-1.18938e-06
-9.86508e-08
-3.70214e-08
0.00113297
-2.06365e-07
1.22935e-06
2.40509e-07
8.84048e-07
-1.81175e-07
-8.29364e-07
2.30583e-07
-0.00113265
-1.18381e-06
-9.88079e-08
-3.73317e-08
0.00113261
-2.06262e-07
1.2239e-06
2.4064e-07
8.83834e-07
-1.83873e-07
-8.29281e-07
2.33211e-07
-0.000270079
1.21824e-06
1.18393e-06
-1.95565e-07
-2.0088e-07
0.000268073
1.08874e-07
1.08319e-07
-0.00118603
-5.76275e-08
-5.8929e-08
0.00118593
-0.00113285
-1.18776e-06
-1.09037e-07
-4.12587e-08
0.00113281
-2.04987e-07
1.23016e-06
2.41356e-07
8.85546e-07
-1.79126e-07
-8.27334e-07
2.32171e-07
-0.00113249
-1.18228e-06
-1.08622e-07
-4.10235e-08
0.00113245
-2.05012e-07
1.22453e-06
2.41296e-07
8.85369e-07
-1.81752e-07
-8.27213e-07
2.34857e-07
-0.000270067
1.21668e-06
1.18223e-06
-1.94223e-07
-1.99558e-07
0.000268062
1.0847e-07
1.0998e-07
-0.00118563
-6.07737e-08
-5.93913e-08
0.00118553
-0.0011327
-1.18778e-06
-1.08329e-07
-4.18086e-08
0.00113267
-2.05128e-07
1.22921e-06
2.40661e-07
8.83929e-07
-1.80155e-07
-8.2817e-07
2.3068e-07
-0.00113234
-1.18222e-06
-1.08812e-07
-4.20583e-08
0.0011323
-2.05099e-07
1.22373e-06
2.40692e-07
8.83812e-07
-1.82803e-07
-8.28005e-07
2.33353e-07
-0.000270063
1.21659e-06
1.18273e-06
-1.95146e-07
-2.00089e-07
0.000268059
1.15188e-07
1.14798e-07
-0.00118524
-6.45192e-08
-6.53223e-08
0.00118513
-0.00113257
-1.18641e-06
-1.16954e-07
-4.32863e-08
0.00113253
-2.04179e-07
1.22957e-06
2.40886e-07
8.86017e-07
-1.77548e-07
-8.25373e-07
2.32397e-07
-0.0011322
-1.18099e-06
-1.16894e-07
-4.30624e-08
0.00113217
-2.04194e-07
1.22394e-06
2.40892e-07
8.85839e-07
-1.80177e-07
-8.25228e-07
2.3506e-07
-0.000270057
1.21511e-06
1.18059e-06
-1.93251e-07
-1.98697e-07
0.000268054
1.22413e-07
1.22942e-07
-0.00118483
-7.27582e-08
-7.24019e-08
0.00118473
-0.00113244
-1.18544e-06
-1.20506e-07
-4.84259e-08
0.00113241
-2.03284e-07
1.22997e-06
2.41294e-07
8.84797e-07
-1.78397e-07
-8.26395e-07
2.31618e-07
-0.00113207
-1.1798e-06
-1.20439e-07
-4.86127e-08
0.00113205
-2.0323e-07
1.22452e-06
2.41308e-07
8.8463e-07
-1.81033e-07
-8.26308e-07
2.34311e-07
-0.00027006
1.21463e-06
1.18048e-06
-1.93601e-07
-1.98741e-07
0.000268057
1.1988e-07
1.20244e-07
-0.00118444
-7.33457e-08
-7.38739e-08
0.00118435
-0.00113234
-1.1856e-06
-1.23183e-07
-4.47769e-08
0.00113231
-2.03587e-07
1.22891e-06
2.40586e-07
8.85992e-07
-1.76749e-07
-8.24419e-07
2.32418e-07
-0.00113197
-1.18028e-06
-1.23171e-07
-4.44751e-08
0.00113195
-2.03671e-07
1.22322e-06
2.40552e-07
8.85818e-07
-1.79408e-07
-8.24275e-07
2.35047e-07
-0.000270062
1.21398e-06
1.17972e-06
-1.92919e-07
-1.98171e-07
0.00026806
1.27005e-07
1.27573e-07
-0.00118406
-7.56455e-08
-7.49341e-08
0.00118396
-0.00113222
-1.18414e-06
-1.24285e-07
-5.23973e-08
0.0011322
-2.02221e-07
1.23025e-06
2.41604e-07
8.84875e-07
-1.77694e-07
-8.25472e-07
2.31516e-07
-0.00113185
-1.17841e-06
-1.24299e-07
-5.30095e-08
0.00113183
-2.02084e-07
1.22489e-06
2.41697e-07
8.84673e-07
-1.80397e-07
-8.25424e-07
2.34144e-07
-0.000270066
1.21358e-06
1.17941e-06
-1.93055e-07
-1.98243e-07
0.000268064
-1.256e-06
-1.21881e-06
0.000271381
-0.000269364
2.25144e-07
2.33034e-07
0.00113905
1.99989e-07
-0.00113919
6.41317e-08
-1.2779e-06
2.332e-07
-2.5284e-07
-8.95479e-07
1.98755e-07
-2.3988e-07
8.56141e-07
1.26147e-06
0.0011395
2.00532e-07
-0.00113964
6.4577e-08
-1.2836e-06
2.359e-07
-2.55727e-07
-9.01132e-07
2.01497e-07
-2.42704e-07
8.61703e-07
-1.22157e-06
0.000271411
-0.000269386
2.27981e-07
2.30178e-07
0.00114017
2.0023e-07
-0.00114031
6.34337e-08
-1.2407e-06
2.30668e-07
-2.501e-07
-8.98164e-07
2.0171e-07
-2.42532e-07
8.59072e-07
1.25595e-06
0.00113915
2.00847e-07
-0.00113929
6.459e-08
-1.27804e-06
2.35939e-07
-2.5566e-07
-8.98299e-07
2.0147e-07
-2.42649e-07
8.58769e-07
2.00413e-07
-0.00114004
6.35297e-08
-1.24338e-06
2.27897e-07
-2.47288e-07
-8.95513e-07
1.98872e-07
8.5621e-07
-2.39873e-07
1.25042e-06
0.00113895
2.00138e-07
-0.00113909
6.48977e-08
-1.27249e-06
2.30385e-07
-2.50081e-07
-8.95463e-07
1.98777e-07
-2.39832e-07
8.56173e-07
-1.21606e-06
0.000271358
-0.000269344
2.25452e-07
2.32752e-07
2.00784e-07
-0.00113967
6.34271e-08
-1.23778e-06
2.27979e-07
-2.47204e-07
-8.95374e-07
2.01504e-07
8.56051e-07
-2.42572e-07
1.216e-06
0.00114006
2.0041e-07
-0.00114021
6.42816e-08
-1.23803e-06
2.27852e-07
-2.4741e-07
-8.95473e-07
2.01687e-07
-2.425e-07
8.56437e-07
-0.000269357
2.27667e-07
2.33003e-07
1.27654e-06
1.23943e-06
-2.28628e-07
-2.36312e-07
0.000269329
-1.25702e-06
-1.2198e-06
0.000271246
-0.00026923
2.26435e-07
2.34322e-07
6.14714e-08
0.00113891
-2.51779e-07
1.25631e-06
2.33638e-07
8.56808e-07
-2.385e-07
-8.93939e-07
1.99548e-07
-1.28229e-06
1.94321e-07
6.22681e-08
0.00113936
-2.54689e-07
1.26175e-06
2.36324e-07
8.62384e-07
-2.41322e-07
-8.99581e-07
2.02297e-07
0.00113849
1.76356e-07
-0.00113863
5.48017e-08
-1.2728e-06
2.34743e-07
-2.48867e-07
-8.89454e-07
2.01832e-07
-2.34513e-07
8.58767e-07
1.26263e-06
0.00113894
1.76139e-07
-0.00113908
5.47589e-08
-1.27839e-06
2.37576e-07
-2.51638e-07
-8.95076e-07
2.04623e-07
-2.37295e-07
8.64363e-07
-2.31297e-07
-2.33718e-07
0.000269351
-1.22259e-06
0.000271276
-0.000269251
2.2928e-07
2.31612e-07
6.12822e-08
0.00114003
-2.49111e-07
1.21905e-06
2.31044e-07
8.59768e-07
-2.41134e-07
-8.96597e-07
2.0252e-07
-1.27668e-06
1.94084e-07
6.17693e-08
0.00113901
-2.54598e-07
1.25627e-06
2.3637e-07
8.59488e-07
-2.41218e-07
-8.96714e-07
2.02316e-07
0.00113961
1.75821e-07
-0.00113975
5.4846e-08
-1.23571e-06
2.32181e-07
-2.46192e-07
-8.92143e-07
2.04775e-07
-2.3717e-07
8.61685e-07
1.25709e-06
0.0011386
1.75454e-07
-0.00113873
5.43859e-08
-1.27284e-06
2.3757e-07
-2.5162e-07
-8.92178e-07
2.04649e-07
-2.37177e-07
8.61497e-07
1.94566e-07
6.24802e-08
0.00113881
-2.49032e-07
1.25071e-06
2.30801e-07
8.5679e-07
-2.38506e-07
1.99515e-07
-8.93972e-07
1.76177e-07
-0.00113948
5.43052e-08
-1.23832e-06
2.29401e-07
-2.43345e-07
-8.89422e-07
2.02041e-07
8.58904e-07
-2.34418e-07
1.25152e-06
0.00113839
1.76843e-07
-0.00113853
5.4755e-08
-1.26732e-06
2.32002e-07
-2.46036e-07
-8.89562e-07
2.01769e-07
-2.34564e-07
8.58685e-07
-2.28639e-07
-2.36195e-07
0.000269309
-1.21705e-06
0.000271223
-0.00026921
2.26674e-07
2.34104e-07
1.94484e-07
6.23843e-08
0.00113992
-2.46432e-07
1.21622e-06
2.28205e-07
8.57067e-07
-2.41157e-07
2.02439e-07
-8.93965e-07
1.7555e-07
-0.00113911
5.38145e-08
-1.23273e-06
2.29436e-07
-2.43313e-07
-8.89215e-07
2.04722e-07
8.58814e-07
-2.37058e-07
1.21706e-06
0.0011395
1.76347e-07
-0.00113964
5.48743e-08
-1.23298e-06
2.29437e-07
-2.43431e-07
-8.89575e-07
2.04674e-07
-2.37232e-07
8.58941e-07
-0.000269223
2.28986e-07
2.34328e-07
1.27161e-06
1.23448e-06
-2.25049e-07
-2.32765e-07
0.000269197
-1.25792e-06
-1.22084e-06
0.000271119
-0.000269104
2.27698e-07
2.35514e-07
5.27728e-08
0.00113836
-2.4794e-07
1.25723e-06
2.3509e-07
8.5939e-07
-2.33221e-07
-8.88012e-07
2.02576e-07
-1.27713e-06
1.70336e-07
5.23279e-08
0.00113881
-2.50659e-07
1.2629e-06
2.37971e-07
8.64998e-07
-2.36e-07
-8.93623e-07
2.05367e-07
0.00113795
1.5305e-07
-0.00113809
4.62719e-08
-1.26807e-06
2.3614e-07
-2.45185e-07
-8.83747e-07
2.04785e-07
-2.29403e-07
8.6128e-07
1.26355e-06
0.0011384
1.53278e-07
-0.00113854
4.5819e-08
-1.27361e-06
2.38972e-07
-2.47937e-07
-8.89391e-07
2.07541e-07
-2.32217e-07
8.66851e-07
-2.27755e-07
-2.30017e-07
0.000269219
-1.22347e-06
0.00027115
-0.000269126
2.30434e-07
2.32767e-07
5.25844e-08
0.00113947
-2.45225e-07
1.22006e-06
2.32569e-07
8.62303e-07
-2.35894e-07
-8.90716e-07
2.05506e-07
-1.27161e-06
1.69845e-07
5.2192e-08
0.00113846
-2.5065e-07
1.25734e-06
2.37954e-07
8.62127e-07
-2.3589e-07
-8.90734e-07
2.05391e-07
0.00113907
1.52854e-07
-0.0011392
4.56125e-08
-1.23087e-06
2.3369e-07
-2.42395e-07
-8.86449e-07
2.07719e-07
-2.3207e-07
8.64192e-07
1.25798e-06
0.00113806
1.53121e-07
-0.00113819
4.60631e-08
-1.26811e-06
2.38948e-07
-2.47941e-07
-8.8649e-07
2.07571e-07
-2.32095e-07
8.63994e-07
1.70521e-07
5.21679e-08
0.00113825
-2.45051e-07
1.2518e-06
2.32399e-07
8.59356e-07
-2.33232e-07
2.0256e-07
-8.88083e-07
1.52413e-07
-0.00113893
4.62452e-08
-1.23366e-06
2.30766e-07
-2.39716e-07
-8.83744e-07
2.04954e-07
8.61387e-07
-2.29343e-07
1.25244e-06
0.00113785
1.52273e-07
-0.00113798
4.56324e-08
-1.26256e-06
2.33377e-07
-2.42367e-07
-8.83751e-07
2.04834e-07
-2.29346e-07
8.61317e-07
-2.25182e-07
-2.32579e-07
0.000269178
-1.21791e-06
0.000271097
-0.000269085
2.27853e-07
2.35278e-07
1.70117e-07
5.20652e-08
0.00113937
-2.42406e-07
1.21739e-06
2.29875e-07
8.59602e-07
-2.3591e-07
2.05456e-07
-8.88108e-07
1.5232e-07
-0.00113856
4.63681e-08
-1.22812e-06
2.30788e-07
-2.39701e-07
-8.83539e-07
2.07635e-07
8.613e-07
-2.31981e-07
1.21813e-06
0.00113897
1.52116e-07
-0.0011391
4.50329e-08
-1.22809e-06
2.30931e-07
-2.39639e-07
-8.83783e-07
2.07728e-07
-2.32026e-07
8.61558e-07
-0.000269097
2.30218e-07
2.35488e-07
1.26693e-06
1.22972e-06
-2.21652e-07
-2.29413e-07
0.000269074
-1.25879e-06
-1.22168e-06
0.000271002
-0.000268987
2.28729e-07
2.36589e-07
4.41024e-08
0.00113782
-2.44301e-07
1.25814e-06
2.36472e-07
8.61894e-07
-2.2816e-07
-8.82363e-07
2.05506e-07
-1.2725e-06
1.47501e-07
4.38764e-08
0.00113827
-2.47088e-07
1.26373e-06
2.39274e-07
8.67471e-07
-2.30975e-07
-8.88005e-07
2.08263e-07
0.00113744
1.29887e-07
-0.00113756
3.78143e-08
-1.26358e-06
2.37456e-07
-2.41713e-07
-8.78326e-07
2.07614e-07
-2.24536e-07
8.63697e-07
1.26431e-06
0.00113789
1.3004e-07
-0.00113801
3.81652e-08
-1.26923e-06
2.40199e-07
-2.44557e-07
-8.83924e-07
2.10399e-07
-2.27314e-07
8.69309e-07
-2.24429e-07
-2.26736e-07
0.000269096
-1.22448e-06
0.000271032
-0.000269009
2.31599e-07
2.33807e-07
4.33615e-08
0.00113894
-2.41504e-07
1.22107e-06
2.34027e-07
8.64806e-07
-2.30832e-07
-8.85066e-07
2.08434e-07
-1.26699e-06
1.47367e-07
4.41172e-08
0.00113793
-2.47078e-07
1.25817e-06
2.39261e-07
8.64608e-07
-2.30859e-07
-8.85105e-07
2.08285e-07
0.00113855
1.29824e-07
-0.00113868
3.73172e-08
-1.22645e-06
2.34942e-07
-2.3898e-07
-8.81012e-07
2.10549e-07
-2.27197e-07
8.66621e-07
1.25873e-06
0.00113754
1.3011e-07
-0.00113767
3.83201e-08
-1.26374e-06
2.40152e-07
-2.44574e-07
-8.81078e-07
2.10372e-07
-2.27249e-07
8.66393e-07
1.46554e-07
4.3846e-08
0.00113772
-2.4151e-07
1.25263e-06
2.33696e-07
8.6194e-07
-2.28107e-07
2.05553e-07
-8.82359e-07
1.29871e-07
-0.00113841
3.72619e-08
-1.22907e-06
2.32197e-07
-2.36122e-07
-8.78317e-07
2.07785e-07
8.63817e-07
-2.24476e-07
1.25326e-06
0.00113733
1.29982e-07
-0.00113746
3.82695e-08
-1.25814e-06
2.3466e-07
-2.38935e-07
-8.78337e-07
2.07626e-07
-2.24507e-07
8.63718e-07
-2.21832e-07
-2.29275e-07
0.000269054
-1.2189e-06
0.00027098
-0.000268968
2.28981e-07
2.36285e-07
1.46469e-07
4.31751e-08
0.00113883
-2.38776e-07
1.21833e-06
2.31253e-07
8.62182e-07
-2.30786e-07
2.08447e-07
-8.82391e-07
1.29968e-07
-0.00113804
3.73203e-08
-1.22354e-06
2.32191e-07
-2.36126e-07
-8.78164e-07
2.10414e-07
8.63674e-07
-2.27164e-07
1.2189e-06
0.00113845
1.29929e-07
-0.00113858
3.78532e-08
-1.22375e-06
2.32146e-07
-2.36268e-07
-8.78359e-07
2.10532e-07
-2.27172e-07
8.6397e-07
-0.000268981
2.31256e-07
2.36581e-07
1.2625e-06
1.2254e-06
-2.18606e-07
-2.26304e-07
0.000268959
-1.25949e-06
-1.2224e-06
0.000270894
-0.000268879
2.2964e-07
2.37482e-07
3.58164e-08
0.00113731
-2.40883e-07
1.259e-06
2.37763e-07
8.64291e-07
-2.23359e-07
-8.77011e-07
2.08295e-07
-1.26817e-06
1.24439e-07
3.62598e-08
0.00113776
-2.43744e-07
1.2645e-06
2.4049e-07
8.69879e-07
-2.26154e-07
-8.82623e-07
2.1106e-07
0.00113694
1.08108e-07
-0.00113706
3.04377e-08
-1.25946e-06
2.38561e-07
-2.38558e-07
-8.73237e-07
2.10226e-07
-2.19984e-07
8.65945e-07
1.26508e-06
0.00113739
1.08263e-07
-0.00113751
3.04302e-08
-1.26505e-06
2.41374e-07
-2.41346e-07
-8.78872e-07
2.12977e-07
-2.22803e-07
8.71523e-07
-2.21264e-07
-2.23663e-07
0.000268981
-1.22512e-06
0.000270924
-0.000268901
2.32438e-07
2.34755e-07
3.54501e-08
0.00113843
-2.38174e-07
1.22186e-06
2.3523e-07
8.67216e-07
-2.26014e-07
-8.79695e-07
2.11237e-07
-1.26268e-06
1.2445e-07
3.63445e-08
0.00113741
-2.43754e-07
1.25893e-06
2.40458e-07
8.66975e-07
-2.26083e-07
-8.79772e-07
2.11044e-07
0.00113806
1.07792e-07
-0.00113818
3.00507e-08
-1.22235e-06
2.36063e-07
-2.35823e-07
-8.75911e-07
2.1316e-07
-2.22634e-07
8.68876e-07
1.25953e-06
0.00113704
1.07989e-07
-0.00113717
3.04598e-08
-1.25953e-06
2.41355e-07
-2.41332e-07
-8.75976e-07
2.12993e-07
-2.22693e-07
8.68658e-07
1.24612e-07
3.63116e-08
0.00113721
-2.38118e-07
1.25345e-06
2.34953e-07
8.64271e-07
-2.23361e-07
2.08273e-07
-8.77055e-07
1.07989e-07
-0.00113791
3.0076e-08
-1.22504e-06
2.3324e-07
-2.33043e-07
-8.73224e-07
2.10412e-07
8.66078e-07
-2.19917e-07
1.25398e-06
0.00113684
1.08274e-07
-0.00113696
3.0553e-08
-1.25401e-06
2.35787e-07
-2.35762e-07
-8.73294e-07
2.10215e-07
-2.19991e-07
8.65932e-07
-2.18703e-07
-2.26232e-07
0.00026894
-1.21959e-06
0.000270871
-0.000268859
2.29857e-07
2.37259e-07
1.24426e-07
3.60272e-08
0.00113832
-2.35471e-07
1.21908e-06
2.32425e-07
8.64536e-07
-2.26015e-07
2.1119e-07
-8.77064e-07
1.07787e-07
-0.00113754
2.99785e-08
-1.21947e-06
2.33271e-07
-2.33004e-07
-8.73033e-07
2.13077e-07
8.65973e-07
-2.22565e-07
1.21965e-06
0.00113795
1.0799e-07
-0.00113807
3.02048e-08
-1.21963e-06
2.33299e-07
-2.33083e-07
-8.73306e-07
2.13123e-07
-2.22648e-07
8.66189e-07
-0.000268872
2.32173e-07
2.37477e-07
1.25849e-06
1.22137e-06
-2.15793e-07
-2.23514e-07
0.000268853
-1.26013e-06
-1.22304e-06
0.000270793
-0.000268779
2.30443e-07
2.3829e-07
2.87123e-08
0.00113682
-2.37817e-07
1.25964e-06
2.38813e-07
8.66481e-07
-2.18897e-07
-8.72026e-07
2.10849e-07
-1.26405e-06
1.02943e-07
2.86339e-08
0.00113727
-2.40582e-07
1.26525e-06
2.4164e-07
8.72072e-07
-2.21698e-07
-8.77643e-07
2.13617e-07
0.00113647
8.73882e-08
-0.00113659
2.34636e-08
-1.25562e-06
2.3958e-07
-2.35618e-07
-8.6847e-07
2.12664e-07
-2.15717e-07
8.68055e-07
1.26569e-06
0.00113692
8.75136e-08
-0.00113704
2.34771e-08
-1.26122e-06
2.42364e-07
-2.38425e-07
-8.74103e-07
2.15399e-07
-2.18539e-07
8.73619e-07
-2.18504e-07
-2.20801e-07
0.000268875
-1.22575e-06
0.000270823
-0.0002688
2.33226e-07
2.35525e-07
2.8276e-08
0.00113794
-2.35075e-07
1.22256e-06
2.36319e-07
8.69395e-07
-2.21564e-07
-8.74715e-07
2.13767e-07
-1.25855e-06
1.02786e-07
2.86919e-08
0.00113692
-2.40586e-07
1.25969e-06
2.41605e-07
8.69184e-07
-2.21611e-07
-8.74767e-07
2.13607e-07
0.00113759
8.71112e-08
-0.0011377
2.31588e-08
-1.21853e-06
2.3706e-07
-2.32906e-07
-8.71152e-07
2.15592e-07
-2.18379e-07
8.70985e-07
1.26014e-06
0.00113657
8.7437e-08
-0.00113669
2.35424e-08
-1.25571e-06
2.42352e-07
-2.38414e-07
-8.71233e-07
2.15403e-07
-2.18455e-07
8.70743e-07
1.02834e-07
2.87431e-08
0.00113672
-2.35008e-07
1.25415e-06
2.3605e-07
8.66485e-07
-2.18883e-07
2.10855e-07
-8.7206e-07
8.7269e-08
-0.00113743
2.31712e-08
-1.22122e-06
2.34228e-07
-2.30123e-07
-8.6847e-07
2.12805e-07
8.68158e-07
-2.1568e-07
1.25461e-06
0.00113637
8.75289e-08
-0.00113648
2.3465e-08
-1.25017e-06
2.36795e-07
-2.32829e-07
-8.68545e-07
2.12612e-07
-2.15753e-07
8.68009e-07
-2.15928e-07
-2.23357e-07
0.000268834
-1.22021e-06
0.000270771
-0.000268759
2.30646e-07
2.38045e-07
1.02632e-07
2.83715e-08
0.00113783
-2.32327e-07
1.21983e-06
2.33558e-07
8.66732e-07
-2.21551e-07
2.13753e-07
-8.72085e-07
8.71871e-08
-0.00113706
2.31441e-08
-1.21568e-06
2.3426e-07
-2.30098e-07
-8.68294e-07
2.15475e-07
8.68053e-07
-2.18336e-07
1.22027e-06
0.00113748
8.72137e-08
-0.00113759
2.32373e-08
-1.21582e-06
2.34282e-07
-2.30178e-07
-8.68553e-07
2.15529e-07
-2.18404e-07
8.68278e-07
-0.000268772
2.32939e-07
2.38262e-07
1.25471e-06
1.21761e-06
-2.13196e-07
-2.20903e-07
0.000268755
-1.26065e-06
-1.22361e-06
0.000270701
-0.000268687
2.31143e-07
2.38962e-07
2.18081e-08
0.00113636
-2.34924e-07
1.26027e-06
2.39805e-07
8.68552e-07
-2.14704e-07
-8.67332e-07
2.13233e-07
-1.26029e-06
8.25858e-08
2.17036e-08
0.00113681
-2.37715e-07
1.26584e-06
2.42614e-07
8.74108e-07
-2.17536e-07
-8.72975e-07
2.15965e-07
0.00113602
6.78904e-08
-0.00113613
1.69717e-08
-1.25208e-06
2.40457e-07
-2.32927e-07
-8.64044e-07
2.14884e-07
-2.11771e-07
8.69977e-07
1.26627e-06
0.00113647
6.78927e-08
-0.00113658
1.6756e-08
-1.2576e-06
2.43307e-07
-2.35655e-07
-8.69599e-07
2.17729e-07
-2.1449e-07
8.75627e-07
-2.15932e-07
-2.18237e-07
0.000268777
-1.22639e-06
0.000270731
-0.000268708
2.34039e-07
2.36261e-07
2.14309e-08
0.00113747
-2.32198e-07
1.2232e-06
2.37305e-07
8.71481e-07
-2.17364e-07
-8.7001e-07
2.16161e-07
-1.25478e-06
8.23937e-08
2.17881e-08
0.00113646
-2.377e-07
1.26031e-06
2.426e-07
8.71253e-07
-2.1743e-07
-8.70083e-07
2.15986e-07
0.00113714
6.77751e-08
-0.00113725
1.64622e-08
-1.21497e-06
2.37969e-07
-2.30178e-07
-8.66742e-07
2.1779e-07
-2.14451e-07
8.72888e-07
1.26068e-06
0.00113612
6.80459e-08
-0.00113623
1.70227e-08
-1.25214e-06
2.43228e-07
-2.3571e-07
-8.66783e-07
2.17627e-07
-2.14495e-07
8.72682e-07
8.26082e-08
2.17908e-08
0.00113625
-2.32143e-07
1.25474e-06
2.37016e-07
8.68499e-07
-2.14747e-07
2.13183e-07
-8.67419e-07
6.72936e-08
-0.00113698
1.65513e-08
-1.21761e-06
2.35226e-07
-2.27331e-07
-8.63978e-07
2.15107e-07
8.70161e-07
-2.11659e-07
1.25518e-06
0.00113592
6.76087e-08
-0.00113603
1.69579e-08
-1.2466e-06
2.37712e-07
-2.30107e-07
-8.64033e-07
2.14934e-07
-2.11714e-07
8.70035e-07
-2.13338e-07
-2.20762e-07
0.000268735
-1.22078e-06
0.000270678
-0.000268667
2.31357e-07
2.38726e-07
8.22178e-08
2.14948e-08
0.00113736
-2.29473e-07
1.22043e-06
2.34528e-07
8.68773e-07
-2.17394e-07
2.16102e-07
-8.67421e-07
6.74242e-08
-0.00113661
1.67089e-08
-1.21212e-06
2.3518e-07
-2.27373e-07
-8.63832e-07
2.17712e-07
8.70006e-07
-2.14361e-07
1.22089e-06
0.00113703
6.74425e-08
-0.00113714
1.65158e-08
-1.21222e-06
2.35229e-07
-2.27417e-07
-8.64053e-07
2.17835e-07
-2.14379e-07
8.7029e-07
-0.00026868
2.33693e-07
2.38994e-07
1.25121e-06
1.21412e-06
-2.10806e-07
-2.18521e-07
0.000268665
-1.26116e-06
-1.22413e-06
0.000270616
-0.000268602
2.31767e-07
2.39582e-07
1.52784e-08
0.00113591
-2.32258e-07
1.2608e-06
2.40693e-07
8.70463e-07
-2.10806e-07
-8.62969e-07
2.15436e-07
-1.25677e-06
6.30078e-08
1.53773e-08
0.00113636
-2.3504e-07
1.26637e-06
2.43476e-07
8.76099e-07
-2.13531e-07
-8.68515e-07
2.18251e-07
0.0011356
4.87336e-08
-0.0011357
1.09074e-08
-1.24872e-06
2.41265e-07
-2.30396e-07
-8.59804e-07
2.17028e-07
-2.07988e-07
8.71867e-07
1.26671e-06
0.00113605
4.89876e-08
-0.00113615
1.09737e-08
-1.25434e-06
2.44064e-07
-2.3321e-07
-8.65485e-07
2.19721e-07
-2.1086e-07
8.77387e-07
-2.13414e-07
-2.15823e-07
0.000268686
-1.22681e-06
0.000270646
-0.000268624
2.34521e-07
2.36833e-07
1.49198e-08
0.00113703
-2.29538e-07
1.22374e-06
2.38174e-07
8.73373e-07
-2.13484e-07
-8.65663e-07
2.18347e-07
-1.25132e-06
6.32501e-08
1.5565e-08
0.00113601
-2.35084e-07
1.26078e-06
2.4342e-07
8.7315e-07
-2.13545e-07
-8.65717e-07
2.18164e-07
0.00113671
4.82852e-08
-0.00113681
1.06195e-08
-1.21164e-06
2.38776e-07
-2.27667e-07
-8.62485e-07
2.19948e-07
-2.10652e-07
8.74795e-07
1.26121e-06
0.0011357
4.85886e-08
-0.0011358
1.09594e-08
-1.2488e-06
2.44071e-07
-2.33171e-07
-8.62555e-07
2.19772e-07
-2.10722e-07
8.7457e-07
6.28202e-08
1.54171e-08
0.00113581
-2.29443e-07
1.25533e-06
2.37936e-07
8.70512e-07
-2.10755e-07
2.15467e-07
-8.62946e-07
4.89999e-08
-0.00113654
1.05542e-08
-1.21436e-06
2.35917e-07
-2.2491e-07
-8.59867e-07
2.17118e-07
8.71922e-07
-2.08016e-07
1.25561e-06
0.00113549
4.93737e-08
-0.0011356
1.11157e-08
-1.24332e-06
2.38449e-07
-2.27646e-07
-8.59942e-07
2.16906e-07
-2.08098e-07
8.71758e-07
-2.10924e-07
-2.18402e-07
0.000268645
-1.2213e-06
0.000270594
-0.000268583
2.31965e-07
2.39377e-07
6.26255e-08
1.51369e-08
0.00113692
-2.26785e-07
1.22101e-06
2.35421e-07
8.70768e-07
-2.13412e-07
2.18376e-07
-8.62967e-07
4.85974e-08
-0.00113618
1.04459e-08
-1.20878e-06
2.35969e-07
-2.24855e-07
-8.59633e-07
2.19844e-07
8.71872e-07
-2.10607e-07
1.22132e-06
0.0011366
4.88571e-08
-0.00113671
1.08955e-08
-1.20898e-06
2.35972e-07
-2.24971e-07
-8.59948e-07
2.19831e-07
-2.10735e-07
8.7203e-07
-0.000268595
2.34232e-07
2.39533e-07
1.24797e-06
1.21086e-06
-2.08604e-07
-2.16339e-07
0.000268582
-1.2616e-06
-1.22453e-06
0.000270539
-0.000268525
2.32273e-07
2.40139e-07
9.72886e-09
0.00113549
-2.2984e-07
1.26123e-06
2.41412e-07
8.72274e-07
-2.07123e-07
-8.58834e-07
2.17496e-07
-1.25351e-06
4.44813e-08
9.36402e-09
0.00113594
-2.32574e-07
1.26686e-06
2.44287e-07
8.77823e-07
-2.09972e-07
-8.64491e-07
2.20225e-07
0.0011352
3.1101e-08
-0.00113529
5.36488e-09
-1.24564e-06
2.42015e-07
-2.28058e-07
-8.55976e-07
2.18929e-07
-2.04564e-07
8.73511e-07
1.26718e-06
0.00113564
3.10551e-08
-0.00113574
5.39317e-09
-1.25118e-06
2.4478e-07
-2.30853e-07
-8.61515e-07
2.21749e-07
-2.07295e-07
8.79162e-07
-2.1136e-07
-2.13631e-07
0.000268604
-1.22732e-06
0.000270568
-0.000268547
2.35133e-07
2.37398e-07
9.19917e-09
0.00113661
-2.27074e-07
1.22424e-06
2.38957e-07
8.75189e-07
-2.09798e-07
-8.6152e-07
2.20405e-07
-1.24797e-06
4.41136e-08
9.49056e-09
0.0011356
-2.32553e-07
1.26134e-06
2.44273e-07