/*--------------------------------*- C++ -*----------------------------------*\
| =========                 |                                                 |
| \\      /  F ield         | OpenFOAM: The Open Source CFD Toolbox           |
|  \\    /   O peration     | Version:  v1906                                 |
|   \\  /    A nd           | Web:      www.OpenFOAM.com                      |
|    \\/     M anipulation  |                                                 |
\*---------------------------------------------------------------------------*/
FoamFile
{
    version     2.0;
    format      ascii;
    class       surfaceScalarField;
    location    "375";
    object      phi;
}
// * * * * * * * * * * * * * * * * * * * * * * * * * * * * * * * * * * * * * //

dimensions      [0 3 -1 0 0 0 0];
oriented        oriented;


internalField   nonuniform List<scalar> 
124860
(
-1.24653e-06
-1.2368e-06
-0.00026951
2.59356e-07
1.95848e-07
1.85472e-07
7.9743e-08
-1.28887e-06
2.17305e-07
-2.65424e-07
-9.09892e-07
1.68354e-07
-2.58978e-07
8.50689e-07
-0.00113979
1.26036e-06
2.25659e-07
-0.00114023
7.44003e-08
-1.289e-06
2.34219e-07
-2.59963e-07
-9.07592e-07
1.98206e-07
-2.48405e-07
8.58852e-07
-1.22019e-06
-0.000269529
2.26401e-07
2.31287e-07
2.36403e-07
1.07317e-07
-1.23806e-06
2.45536e-07
-2.46116e-07
-8.96647e-07
2.28121e-07
-2.32152e-07
8.6156e-07
-0.00114087
1.25477e-06
2.30934e-07
6.93753e-08
-1.28348e-06
2.3416e-07
-2.59972e-07
-9.04639e-07
1.98265e-07
-2.48242e-07
8.56127e-07
-0.00113988
2.25007e-07
-0.00114062
7.47681e-08
-1.249e-06
2.25963e-07
-2.51766e-07
-9.01887e-07
1.95602e-07
-2.45549e-07
8.53428e-07
1.2493e-06
2.30377e-07
-0.00113968
7.36692e-08
-1.27788e-06
2.28649e-07
-2.54351e-07
-9.04625e-07
1.95532e-07
-2.48189e-07
8.56036e-07
-1.2146e-06
-0.000269488
2.26322e-07
2.31271e-07
2.24695e-07
8.61994e-08
-1.24346e-06
2.25955e-07
-2.5176e-07
-9.01572e-07
1.9839e-07
-2.48096e-07
8.53349e-07
-0.00114026
1.2122e-06
2.24464e-07
-0.00114079
7.84899e-08
-1.24607e-06
2.2623e-07
-2.5433e-07
-9.01917e-07
1.98425e-07
-2.482e-07
8.53549e-07
-0.000269503
2.26231e-07
2.31482e-07
1.95471e-07
2.26089e-07
-0.00119096
-0.00119098
1.9585e-07
1.96843e-07
1.89094e-07
2.19496e-07
-0.00119058
-0.00119078
1.94515e-07
2.07438e-07
-1.1898e-08
-3.28833e-09
-9.70892e-05
-1.41342e-08
-3.41512e-09
-9.7091e-05
-1.03104e-08
6.20475e-09
-0.000276396
4.99852e-09
-1.49411e-08
-5.57254e-08
-0.000276376
8.1196e-09
1.98477e-10
4.36833e-08
-1.45435e-08
1.59305e-09
0.000228323
-0.000228354
-2.27967e-08
-0.000192036
1.01342e-09
-1.14651e-10
-3.79589e-08
-0.000228311
1.74165e-08
2.14098e-09
4.37177e-08
-1.45703e-08
1.8472e-09
0.00022836
-0.000228391
-2.28043e-08
3.28895e-09
-0.000192075
-1.50539e-09
3.06991e-08
-5.0049e-09
-5.44801e-09
0.000192074
-0.000192095
-3.79584e-08
-0.000228348
1.74208e-08
2.16204e-09
1.5563e-09
6.30508e-10
1.94781e-07
0.000250139
-0.000250292
-7.50572e-08
-0.00024437
-5.15868e-09
-0.00116211
-3.30011e-09
3.20742e-07
-1.01467e-06
7.60042e-07
-8.37557e-07
9.39474e-07
3.70232e-09
3.33395e-07
9.38564e-07
-8.3676e-07
-1.01385e-06
7.59074e-07
-0.00116221
-7.73139e-08
-1.33151e-09
-0.000250112
4.28002e-10
-1.57062e-07
4.31214e-10
1.94846e-07
0.00025017
-0.00025032
7.73403e-08
-1.29046e-06
2.32083e-07
8.5812e-07
-2.49883e-07
-9.09257e-07
1.9735e-07
1.26002e-06
-2.61114e-07
2.33733e-07
-0.00114038
1.25622e-08
-8.69573e-08
-0.000244386
-7.62936e-09
-0.00116226
3.26831e-07
-1.01217e-06
7.60099e-07
-8.34957e-07
9.42394e-07
-1.28431e-08
3.856e-09
1.10624e-07
0.000244397
-0.000244468
3.3355e-07
9.4148e-07
-8.36922e-07
-1.01408e-06
7.59128e-07
-0.00116237
-0.000250142
1.27668e-09
-1.59619e-07
-1.18902e-08
-9.70935e-05
7.05229e-09
9.70903e-05
-9.71024e-05
1.25046e-06
0.000269566
-2.37481e-07
-2.42272e-07
-0.000271628
-2.59149e-08
-0.000276351
7.73589e-09
1.40022e-08
-1.01313e-08
-2.58219e-08
-0.000276456
7.80824e-09
-1.10068e-08
2.75789e-08
0.000276354
-0.000276377
-9.2004e-09
1.0352e-08
-1.09203e-08
2.74385e-08
0.00027646
-0.000276477
-3.32319e-09
-9.70963e-05
5.00258e-09
9.70931e-05
-9.71074e-05
-2.51977e-08
-0.000192063
-1.41545e-09
-3.80313e-08
-1.51689e-10
-0.000228339
2.11996e-09
1.54184e-08
-9.66793e-08
-0.000244396
-1.01089e-08
3.36027e-10
3.2592e-07
-1.00643e-06
7.57322e-07
-8.2925e-07
9.39548e-07
-0.00116199
-1.75758e-09
-0.000250126
7.82799e-10
-1.62226e-07
-2.5029e-08
3.37865e-09
-0.000192008
-1.52928e-09
-3.80435e-08
-0.000228301
1.54144e-08
2.15729e-09
3.3179e-07
-1.00919e-06
7.57352e-07
-8.29293e-07
9.39561e-07
-0.00116197
1.26485e-08
-8.22961e-08
-0.000244322
-1.00615e-08
-0.000250101
-1.59687e-07
9.16761e-10
-4.37387e-08
1.71238e-09
8.767e-10
1.92251e-07
0.000250166
-0.000250318
7.76289e-08
2.37225e-07
1.21982e-06
-2.5293e-07
2.25454e-07
8.52707e-07
-2.47025e-07
-9.03538e-07
1.94747e-07
-0.00114077
2.49908e-08
-8.70004e-08
-0.00024443
-7.60312e-09
-0.00116204
-2.88642e-09
3.26257e-07
-1.00926e-06
7.57246e-07
-8.32045e-07
9.39436e-07
-3.27895e-08
3.85295e-09
1.10481e-07
0.000244441
-0.000244512
4.75957e-09
3.38957e-07
9.38528e-07
-8.34013e-07
-1.01116e-06
7.56274e-07
-0.00116215
3.79444e-08
-1.71214e-09
-0.000250139
2.71604e-10
-1.59605e-07
1.58271e-10
1.82077e-09
-1.45824e-08
0.000228357
-0.000228388
-0.000192072
-1.47837e-09
-5.43371e-09
0.000192071
-0.000192094
-2.32199e-10
-0.000228345
1.9687e-09
1.74131e-08
-4.37478e-08
1.8974e-07
2.10581e-10
0.000250142
-0.000250287
7.61174e-08
-1.27929e-06
2.37162e-07
8.55253e-07
-2.49723e-07
-9.0634e-07
1.97324e-07
1.24904e-06
-2.55434e-07
2.28266e-07
-0.00113983
-0.00116197
3.26187e-07
-1.0092e-06
7.57254e-07
-8.32098e-07
9.39477e-07
2.28348e-08
1.25342e-08
-8.46289e-08
-0.000244366
-7.55712e-09
3.39063e-07
9.38536e-07
-8.34082e-07
-1.01113e-06
7.56261e-07
-0.00116208
-3.06417e-08
-1.29828e-08
3.96092e-09
1.08183e-07
0.000244377
-0.000244446
3.79347e-08
-0.000250115
-1.57041e-07
9.03651e-10
-1.45844e-08
1.55747e-09
0.000228322
-0.000228353
3.25345e-09
-0.000192021
-1.4206e-09
-5.09546e-09
-5.32411e-09
0.00019202
-0.00019204
-0.00022831
1.74103e-08
2.06743e-09
-1.40451e-08
-9.70751e-05
-2.58807e-08
-0.000276319
4.84562e-09
1.18296e-08
-1.27513e-08
-2.82355e-08
-0.000276414
7.49193e-09
-3.40827e-09
-9.70853e-05
1.32652e-09
-4.61833e-08
1.94759e-07
4.94447e-10
0.000250128
-0.000250278
-0.0011617
-8.25643e-09
3.25364e-07
-1.0062e-06
7.51709e-07
-8.29162e-07
9.33856e-07
2.28945e-08
-8.7143e-08
-0.000244372
-7.68046e-09
-1.03741e-08
3.31874e-07
9.35654e-07
-8.28369e-07
-1.00538e-06
7.53504e-07
-0.00116179
-8.83776e-08
-1.33122e-09
4.04837e-08
-0.000250101
-1.62203e-07
6.91747e-10
-4.62223e-08
1.94844e-07
-4.32757e-10
0.000250159
-0.000250306
7.60818e-08
-1.24485e-06
2.30874e-07
8.52782e-07
-2.49713e-07
-9.03613e-07
1.97534e-07
1.21456e-06
-2.52762e-07
2.25719e-07
-0.00114094
-0.00116186
3.25523e-07
-1.00367e-06
7.51739e-07
-8.26553e-07
9.33922e-07
2.28958e-08
1.26219e-08
-8.71036e-08
-0.000244381
-7.60708e-09
3.32189e-07
9.32984e-07
-8.28522e-07
-1.00561e-06
7.50755e-07
-0.00116197
-3.06173e-08
-1.28953e-08
3.85881e-09
1.10522e-07
0.000244392
-0.000244463
4.04605e-08
-0.000250132
-1.62184e-07
1.47341e-09
1.6352e-10
1.52217e-09
-1.25547e-08
0.000228311
-0.000228347
-0.000192025
-1.58701e-09
-2.32568e-10
-0.000228299
2.24431e-09
1.54178e-08
1.62299e-09
-1.25621e-08
0.000228347
-0.000228383
3.3015e-09
-0.000192061
-1.42463e-09
-5.0441e-09
-5.34314e-09
0.000192061
-0.000192081
-0.000228335
2.03501e-09
1.5402e-08
0.000269543
-2.37153e-07
-2.42414e-07
-0.000271588
1.19609e-08
-2.82611e-08
-0.000276408
4.70161e-09
1.19131e-08
-2.59698e-08
-0.000276356
5.32465e-09
-6.99152e-09
-8.08608e-09
2.97754e-08
0.000276412
-0.000276439
-7.03801e-09
-8.48186e-09
2.75023e-08
0.000276359
-0.000276384
-9.70844e-05
9.70812e-05
-9.70933e-05
-9.70886e-05
9.70855e-05
-9.70976e-05
9.21326e-09
5.14468e-09
-9.71035e-05
6.83388e-09
4.99192e-09
-9.71029e-05
-1.86134e-08
3.83249e-08
0.000220909
-2.03752e-08
4.40351e-08
-0.000220952
-0.000250137
-2.81369e-08
6.7069e-08
-9.42488e-09
-1.28205e-08
3.41111e-08
1.51221e-08
-0.000276424
-0.000181686
1.06264e-09
1.63066e-09
-6.88295e-09
-0.00018171
9.67077e-08
4.67202e-08
-0.000250208
-4.73346e-08
8.82273e-09
-9.41916e-09
1.13099e-08
0.000220876
-3.04713e-09
2.08713e-08
-0.000220895
-0.000250085
6.09942e-08
-1.98197e-07
-3.18147e-08
-6.67748e-09
1.76946e-08
1.04698e-08
-0.000276391
-0.000181655
-3.6482e-08
9.77662e-09
-5.04613e-09
-0.000181666
3.84002e-08
3.37306e-08
-0.000250128
7.06972e-08
-8.72301e-08
-4.67258e-09
-4.67418e-09
0.000212354
-0.000212368
-7.99015e-05
-7.97863e-09
-7.98917e-05
-4.45382e-09
-7.9913e-05
-7.99014e-05
-0.000142089
-6.37979e-10
-1.60126e-08
0.000142105
9.18673e-10
2.08208e-09
0.000169656
1.79912e-11
-0.000169673
-1.58098e-08
0.000222119
4.40775e-08
-0.000222148
1.92792e-09
1.72524e-08
2.13868e-09
0.000228341
8.08187e-11
-3.75183e-08
-0.000142104
1.01262e-09
0.000169673
8.80573e-12
0.000222139
-3.74521e-08
3.82497e-09
1.54809e-08
7.84857e-05
-9.95879e-10
-7.85002e-05
-5.27919e-09
3.24527e-08
-0.000192058
-0.000261286
1.57981e-08
-3.84767e-09
-3.8678e-08
-1.8726e-09
3.96894e-08
-0.000261314
-9.03031e-10
-2.06342e-09
1.55926e-08
0.00014209
-1.4319e-08
1.36159e-09
3.70272e-11
4.31076e-08
-0.000169657
6.19638e-10
-1.50064e-11
-0.000222108
1.61753e-08
-4.03289e-08
-3.20494e-12
4.59294e-08
-0.000142159
-6.39549e-10
-1.40679e-08
7.55326e-10
0.000142173
2.07002e-09
0.000169691
-0.000169707
-1.38482e-08
0.000222203
1.93867e-09
4.66195e-08
-0.000222236
1.72562e-08
2.20829e-09
0.000228378
-3.75121e-08
1.1909e-09
-0.000142172
0.000169707
3.88375e-09
0.000222227
-3.99847e-08
1.33986e-08
7.85299e-05
-7.85422e-05
-1.15398e-09
-5.29436e-09
-0.000192095
-5.0483e-09
3.03136e-08
-0.000261398
1.37121e-08
-3.82122e-09
-3.8644e-08
-0.000261427
-1.87476e-09
3.97864e-08
-7.26381e-10
-7.85278e-05
-1.36077e-08
-1.35573e-08
0.000261401
4.02331e-08
-0.000261431
-1.63974e-09
3.33351e-09
-2.25055e-08
-7.85402e-05
-3.83114e-08
-2.02817e-09
1.36275e-08
0.00014216
-1.43443e-08
1.57721e-09
4.31448e-08
-0.000169691
6.02082e-10
-0.000222195
1.42315e-08
-4.0416e-08
4.60649e-08
-9.71054e-05
6.88052e-09
-1.1755e-08
-0.000212361
6.17395e-09
6.11843e-09
-1.2393e-08
-1.03604e-08
0.000212372
4.74341e-09
7.98911e-05
5.15914e-09
-7.9901e-05
4.79901e-09
7.99046e-05
5.09386e-09
-7.99145e-05
1.19602e-08
9.78349e-09
-0.000212374
-4.79941e-09
7.99021e-05
-4.84381e-09
7.99156e-05
2.6048e-08
-1.39071e-08
0.000220861
-0.000220895
-1.17316e-08
3.37337e-08
-0.000250052
1.75908e-08
-6.55597e-08
-2.17737e-08
2.70922e-08
-1.10485e-08
-0.000276373
1.28025e-08
-0.000181648
-1.75229e-08
4.79099e-09
-0.000250112
7.12849e-08
4.15398e-08
-0.000181668
-5.1573e-09
1.2577e-08
-3.93157e-08
-1.39295e-08
2.59491e-08
0.000220932
-0.000220971
-9.53118e-09
3.59317e-08
-0.000250206
1.76746e-08
-6.54992e-08
-1.68434e-08
-1.09345e-08
2.69679e-08
-0.000276474
-9.04806e-09
1.0284e-08
-0.0001817
-1.74927e-08
4.84909e-09
-0.00018172
-5.0768e-09
-0.000250261
7.12516e-08
3.63799e-08
1.05686e-08
-4.145e-08
-1.73271e-08
-0.000220868
1.72974e-08
-3.89552e-08
1.42079e-08
0.000181647
-0.000181668
0.000250069
-2.63958e-08
4.19947e-08
7.2064e-08
-0.000250129
-2.55368e-08
7.79018e-09
-1.25655e-08
-2.14048e-08
-6.49929e-08
3.42572e-08
-0.000220903
-0.00022094
1.7282e-08
-1.73837e-08
-4.11158e-08
1.42167e-08
0.0001817
-0.00018172
-2.63345e-08
0.000250222
7.20188e-08
3.68694e-08
-0.000250277
7.83472e-09
-2.54597e-08
1.38841e-08
-1.01039e-08
3.64332e-08
-0.000220979
-6.49489e-08
-1.64367e-08
-4.63131e-09
-4.70203e-09
0.00021236
-7.98923e-05
-6.26324e-09
-7.99058e-05
-6.19429e-09
-9.71104e-05
5.02496e-09
-3.34887e-09
1.33611e-08
7.85311e-05
-1.13163e-09
-7.85434e-05
-5.21853e-09
3.01676e-08
-0.000192083
-0.000261403
1.37339e-08
-3.77008e-09
-3.62278e-08
-1.89491e-09
3.74188e-08
-0.00026143
-7.13765e-10
1.35831e-08
-1.96947e-09
0.000142159
-0.000142172
1.55763e-09
-1.2323e-08
5.23929e-11
4.31753e-08
-0.000228371
-0.000222195
1.42859e-08
-3.80622e-08
-0.000169688
5.61192e-10
4.09631e-11
4.35849e-08
-0.000222225
4.90367e-11
-0.000169703
1.54877e-08
7.84836e-05
-1.01789e-09
-7.84981e-05
-5.35039e-09
-4.99025e-09
3.23615e-08
-0.00019203
-0.000261281
1.578e-08
-3.83326e-09
-3.61632e-08
-1.94571e-09
3.72816e-08
-0.000261306
-9.4428e-10
-2.08634e-09
1.55961e-08
0.000142086
-0.0001421
-1.2296e-08
1.6297e-09
4.31452e-08
-0.000228333
-0.000169654
6.66011e-10
-0.0002221
1.62077e-08
-3.79476e-08
-0.000169668
4.353e-08
-0.000222129
-0.00014216
-1.40593e-08
-6.50242e-10
7.53595e-10
0.000142174
-1.38452e-08
0.000222208
1.91801e-09
4.65997e-08
-0.000222241
2.06349e-09
0.000169687
-6.66507e-12
-0.000169704
2.19521e-09
1.72427e-08
0.000228375
-5.8178e-11
-3.74959e-08
1.17201e-09
-0.000142173
3.86948e-09
0.000222233
-3.9991e-08
0.000169704
-2.75623e-11
1.3385e-08
7.85331e-05
-7.85454e-05
-1.1515e-09
-5.29575e-09
-0.000192094
3.24003e-08
-0.000261415
1.36945e-08
-3.8411e-09
-3.85856e-08
-0.000261445
-1.88458e-09
3.97826e-08
-7.37573e-10
-7.8531e-05
-1.36008e-08
-1.35296e-08
0.000261418
4.02065e-08
-0.000261448
-1.59749e-09
-2.46848e-08
-7.85434e-05
-3.82772e-08
1.36208e-08
-2.03518e-09
0.000142161
1.59658e-09
-1.43541e-08
-2.51116e-11
4.31567e-08
-0.0002222
1.42295e-08
-4.04304e-08
-0.000169688
6.23299e-10
-3.62622e-11
4.60565e-08
-2.24417e-11
-0.000142089
-5.88171e-10
-1.4061e-08
7.01092e-10
0.000142103
2.02613e-09
0.000169653
-0.00016967
-1.38457e-08
0.000222116
1.85258e-09
4.66126e-08
-0.000222149
1.72361e-08
2.33583e-09
0.00022834
-3.7474e-08
1.13303e-09
-0.000142102
0.00016967
3.77481e-09
0.00022214
-3.99601e-08
1.33302e-08
7.84892e-05
-7.85014e-05
-1.10161e-09
-5.18181e-09
-0.000192041
-5.11727e-09
3.02338e-08
-0.000261291
1.37499e-08
-3.72562e-09
-3.867e-08
-0.000261321
-1.77606e-09
3.9713e-08
-6.856e-10
-7.8487e-05
-1.3651e-08
-1.34906e-08
0.000261294
4.01816e-08
-0.000261324
-1.52104e-09
3.26601e-09
-2.25216e-08
-7.84994e-05
-3.83193e-08
-1.9911e-09
1.36182e-08
0.000142091
-1.43499e-08
1.26466e-09
4.31575e-08
-0.000169654
5.66049e-10
-0.000222107
1.42332e-08
-4.04159e-08
4.60362e-08
9.06332e-09
-9.70892e-05
2.35695e-08
-1.55992e-08
0.000220843
-9.61794e-09
3.58666e-08
-0.000220878
-0.000250017
1.51595e-08
-6.55423e-08
-2.17808e-08
2.69606e-08
-7.93218e-09
1.27407e-08
-0.000276341
-0.000181638
-1.92655e-08
4.88276e-09
7.12029e-08
4.15137e-08
-0.000250079
-5.14558e-09
-0.000181657
1.05161e-08
-4.15003e-08
-1.58598e-08
2.59112e-08
0.00022092
-1.15799e-08
3.13499e-08
-0.00022095
-0.000250168
1.7669e-08
-6.30653e-08
-1.93542e-08
-1.03748e-08
2.92933e-08
-6.91366e-09
1.27337e-08
-0.000276439
-0.000181697
-1.94752e-08
4.92355e-09
-5.03928e-09
-0.000181718
6.86977e-08
3.89448e-08
-0.000250221
1.26172e-08
-3.68795e-08
-4.60844e-09
-4.69395e-09
0.000212346
-0.000212358
-7.98865e-05
-6.23772e-09
-7.99045e-05
-6.18022e-09
-7.98962e-05
-7.99143e-05
4.9628e-09
-9.70972e-05
-0.000142089
-1.40934e-08
-6.77424e-10
7.71272e-10
0.000142103
-1.38269e-08
0.000222111
4.65193e-08
-0.000222144
1.90406e-09
2.05672e-09
0.000169654
-1.76357e-11
-0.000169668
2.39287e-09
1.52532e-08
0.000228334
-5.17485e-12
-4.00523e-08
-0.000142102
1.16759e-09
3.86e-09
0.000222138
-4.25152e-08
0.000169668
-4.75956e-11
1.33855e-08
7.84896e-05
-7.85018e-05
-1.18358e-09
-5.33491e-09
3.01989e-08
-0.000192045
-0.00026129
1.36688e-08
-3.87648e-09
-3.62391e-08
-0.00026132
-1.90492e-09
3.97341e-08
-7.86782e-10
-1.36042e-08
-7.84874e-05
-3.8362e-08
-0.000261293
1.62325e-09
1.36057e-08
-2.06411e-09
0.000142091
1.35393e-09
-1.23266e-08
-5.95968e-11
4.56173e-08
-0.000222102
1.42539e-08
-4.04683e-08
-0.000169654
6.86887e-10
-8.94909e-11
4.83962e-08
-6.50987e-11
-0.000142158
-1.60768e-08
-5.60374e-10
8.64558e-10
0.000142173
-1.58327e-08
0.000222201
1.93209e-09
4.65203e-08
-0.000222232
2.01117e-09
0.000169688
-0.000169702
2.1236e-09
1.5228e-08
0.00022837
-4.00071e-08
9.5447e-10
-0.000142172
3.78273e-09
0.000222223
-3.99801e-08
0.000169702
1.54519e-08
7.85296e-05
-7.85442e-05
-9.10841e-10
-5.18394e-09
-0.000192081
-5.07163e-09
3.02056e-08
-0.000261401
1.58675e-08
-3.70538e-09
-3.62317e-08
-0.000261426
-1.8379e-09
3.72882e-08
-8.35492e-10
-7.85275e-05
-1.57556e-08
-1.5625e-08
0.000261404
3.77594e-08
-0.000261429
-1.54979e-09
3.32508e-09
-2.25732e-08
-7.85422e-05
-3.58819e-08
1.55937e-08
-1.95116e-09
0.000142159
1.52293e-09
-1.23258e-08
4.56412e-08
-0.000222193
1.62567e-08
-4.04362e-08
-0.000169688
5.09255e-10
4.59377e-08
-0.000212355
6.20466e-09
6.12502e-09
-1.02643e-08
-1.24939e-08
0.000212365
4.69064e-09
7.99016e-05
5.23853e-09
-7.99115e-05
4.77607e-09
7.98904e-05
5.17792e-09
-7.99004e-05
9.82832e-09
1.18459e-08
-0.000212367
-4.78834e-09
7.99126e-05
-4.89315e-09
7.99014e-05
2.36582e-08
-1.55997e-08
0.000220921
-0.000220952
-9.59695e-09
3.34613e-08
-0.000250158
1.51011e-08
-6.06427e-08
-1.9222e-08
2.92664e-08
-8.0822e-09
-0.000276436
-6.81964e-09
1.29475e-08
-0.000181694
-1.9286e-08
4.82175e-09
-0.000250213
6.87198e-08
3.90234e-08
-0.000181713
-5.19853e-09
1.04582e-08
-3.91664e-08
2.35278e-08
-1.37137e-08
0.000220859
-0.000220891
-1.16135e-08
3.37546e-08
-0.000250062
1.52731e-08
-6.55321e-08
-1.93982e-08
2.69973e-08
-8.48162e-09
-0.00027638
-6.86149e-09
1.28567e-08
-0.00018165
-1.73272e-08
4.91885e-09
-0.000250122
7.1146e-08
3.88912e-08
-0.000181667
-5.14284e-09
1.26818e-08
-3.93076e-08
-0.000220928
-1.48313e-08
1.90506e-08
-3.88262e-08
1.59143e-08
0.000181694
-0.000181713
-2.39876e-08
0.000250174
3.9419e-08
6.95322e-08
-0.000250229
-2.78691e-08
4.69424e-09
1.18343e-08
-1.25119e-08
3.39814e-08
-0.00022096
-1.88916e-08
-6.25404e-08
-0.000220867
-1.49987e-08
1.709e-08
-3.89742e-08
1.40259e-08
0.000181649
-0.000181667
-2.38728e-08
0.000250078
3.9322e-08
7.19273e-08
-0.000250138
-2.55789e-08
5.32764e-09
1.17783e-08
-1.2608e-08
3.42572e-08
-0.000220899
-1.90603e-08
-6.4962e-08
-4.58925e-09
-4.66959e-09
0.000212353
-7.99028e-05
-6.27591e-09
-7.98916e-05
-6.20405e-09
-9.70963e-05
-9.71006e-05
1.18577e-07
9.04837e-08
0.000242545
-0.000242689
-2.30874e-07
-2.41495e-07
-0.000271565
-0.000261299
2.56204e-08
-0.000261638
1.78476e-07
-0.00026158
-0.000261996
1.08351e-07
1.05775e-07
0.000242558
-0.000242702
-2.36404e-07
-2.41199e-07
-0.000271589
-0.000261667
1.05299e-07
-0.000261313
1.02748e-07
-0.000261984
-0.000261629
1.05889e-07
1.05631e-07
0.00024253
-0.000242675
-2.36338e-07
-2.41171e-07
-0.000271537
-0.000261631
1.02813e-07
-0.000261273
1.02622e-07
-0.00026195
-0.000261592
1.05678e-07
1.05746e-07
0.00024254
-0.000242684
-2.36038e-07
-2.41392e-07
-0.00027155
-0.000261253
1.02611e-07
-0.000261677
1.0292e-07
-0.000261569
-0.000261995
-0.001215
2.53353e-07
-2.22674e-09
2.58314e-07
5.34827e-09
-0.00121547
2.62339e-07
-2.28911e-09
-0.00121472
-2.04796e-07
0.00123717
-1.95587e-08
-4.7065e-10
-0.00123661
-2.7297e-07
-8.27782e-09
2.09285e-09
1.99942e-07
2.00507e-07
-0.00119091
-0.00121504
2.5338e-07
-0.00121556
2.59029e-07
3.76245e-10
2.56283e-07
-0.00121477
2.62361e-07
1.35701e-09
-0.00121528
0.00123722
7.39203e-10
-0.00123672
9.39927e-10
2.7574e-07
-0.00121462
-0.00121505
2.51578e-07
-2.49397e-08
2.54396e-07
-1.23358e-07
-0.00121453
-3.10414e-07
0.00123649
-1.29371e-07
-0.00123574
-3.67644e-07
-2.65923e-08
1.98494e-07
2.17939e-07
-0.00119073
-0.0012147
2.64712e-07
-0.00121516
2.51777e-07
2.80191e-07
-0.00121444
2.54993e-07
-0.00121499
0.0012366
-0.0012362
-0.000266517
1.76469e-07
2.62641e-09
0.000267282
-4.65294e-09
2.06829e-07
0.000249267
-0.000249428
-1.22509e-09
-2.70111e-09
0.000266963
4.9396e-09
-0.000267607
1.4173e-09
-1.58998e-07
0.000250259
7.72262e-11
-0.000267316
-1.11394e-08
0.000249404
2.87576e-09
0.000267567
-1.86431e-09
-1.79575e-08
-1.88192e-07
0.000264488
1.35324e-08
-0.000265205
-0.000260342
2.41324e-09
1.14465e-07
6.23379e-09
-0.000244443
-0.000250054
-1.63261e-07
-2.8965e-09
-0.000260458
1.20589e-09
-0.000250197
4.37225e-09
-2.08126e-07
5.8299e-09
0.000266483
-1.04372e-09
1.90953e-07
2.22283e-10
-0.000249242
-1.74538e-07
-0.000266924
-5.01255e-09
-4.75429e-09
2.21648e-09
-0.000266568
1.76539e-07
3.3824e-09
-4.63598e-09
0.000267334
2.0687e-07
0.000249331
-1.16735e-09
-0.00024949
-3.5003e-09
0.000266991
-0.000267624
1.51151e-09
-1.58993e-07
0.00025029
-1.12503e-08
-0.000267367
2.96549e-09
0.000249467
0.000267592
-1.83317e-07
-1.54511e-08
0.000264534
-0.000265254
1.09917e-08
-0.000260356
1.74054e-10
3.82948e-09
1.09686e-07
-0.000244456
-0.000250114
-1.65848e-07
-2.97654e-09
-0.000250255
1.13151e-09
-0.000260469
4.36468e-09
-0.000264565
1.65379e-07
-4.42014e-10
1.8437e-07
0.000250132
-0.000250274
1.57884e-08
0.00026038
-0.000260493
-7.63759e-09
-8.64904e-08
-0.000265286
-2.05635e-07
4.11085e-09
0.000266534
-2.79921e-10
1.91006e-07
-0.000249308
-1.77134e-07
-0.000266955
-3.73698e-09
-1.04978e-07
-0.000242575
-1.02402e-07
2.25967e-07
2.30866e-07
0.000261694
-1.09192e-07
-0.000262012
-1.06631e-07
0.00026134
-0.000261657
-0.00024272
-1.57331e-08
-1.80802e-07
0.000264558
2.13454e-08
-0.000265279
-0.000260386
-5.29469e-09
1.02212e-07
3.85162e-09
-0.000244461
-0.000250123
-1.70716e-07
-3.02534e-09
-0.000260498
1.08404e-09
-0.000250263
-3.38129e-09
-2.05505e-07
7.2635e-09
0.000266529
-0.000267315
-7.23243e-10
1.93488e-07
3.2552e-10
-0.000250276
-0.000249302
-1.79795e-07
-0.000266937
-2.9191e-09
-6.93938e-09
-0.000249463
4.28981e-09
-0.00026757
-1.83093e-07
-1.81321e-08
0.000264468
8.36739e-09
-0.000265179
-0.000260293
-2.57986e-09
6.24819e-09
1.0472e-07
-0.000244388
-0.000250028
-1.65744e-07
-2.92244e-09
1.16997e-09
-0.000250169
-0.000260413
7.14229e-09
3.65675e-09
-2.05514e-07
0.000266465
-0.000267264
1.90935e-07
-1.01232e-10
-0.000250249
-0.000266922
-4.36057e-09
-0.00024922
-1.77174e-07
-0.000267553
-0.000249381
-0.000266571
1.79007e-07
5.02466e-10
5.58396e-09
0.000267325
2.0934e-07
0.00024934
-3.62837e-09
-0.000249499
-4.05422e-09
0.000266978
6.6045e-09
-0.000267622
1.94504e-09
-1.58997e-07
0.000250286
-2.82255e-10
-2.17058e-08
-0.000267356
5.32016e-09
0.000249476
0.000267579
-3.56288e-09
-1.81008e-08
-1.85703e-07
0.00026457
-0.000265289
2.13996e-08
-0.000260419
-2.67497e-09
1.09533e-07
3.80013e-09
-0.0002445
-0.000250144
-1.68201e-07
-5.37328e-09
-0.000260537
-0.000250289
3.55461e-09
-5.88944e-09
-0.000264601
2.2898e-09
1.67767e-07
1.86727e-07
0.000250162
-0.000250308
1.84356e-08
0.000260443
-0.000260561
-8.65221e-08
-7.57909e-09
-0.000265321
-2.08088e-07
7.1364e-09
0.000266538
-7.52502e-10
1.90973e-07
2.87497e-10
-0.000249317
-1.79635e-07
-0.000266941
-3.52351e-09
-6.46302e-09
3.74169e-09
-0.000266509
3.7993e-09
1.76488e-07
-7.27061e-09
0.000267275
-3.08468e-09
0.000266962
-0.000267597
2.06844e-07
0.000249262
-1.18147e-09
-0.000249421
-1.56404e-07
1.46015e-09
0.000250259
-8.42192e-09
-0.000267308
0.000267562
2.90524e-09
0.000249397
-1.83209e-07
-1.54691e-08
0.000264483
-0.000265197
8.24903e-09
-0.000260337
1.75955e-10
3.98302e-09
1.07202e-07
-0.000244434
-0.000250051
-1.65839e-07
-2.86187e-09
-0.000250192
1.22501e-09
-0.000260455
7.09241e-09
-0.000264514
1.65335e-07
-3.83117e-10
1.84302e-07
0.00025007
-0.000250211
1.57336e-08
0.000260361
-0.000260479
-7.58399e-09
-8.41293e-08
-0.000265229
3.52894e-09
-2.05585e-07
0.000266476
1.8844e-07
-3.23449e-10
-0.000266926
-4.25349e-09
-0.000249238
-1.77108e-07
-0.000266508
1.12177e-09
1.79092e-07
7.98123e-09
0.000267255
-3.89215e-09
0.000266947
3.03851e-09
-0.00026758
2.09194e-07
0.000249258
-0.000249416
-3.74182e-09
-1.59042e-07
1.83011e-09
0.000250245
1.12641e-10
-0.000267284
-2.43561e-08
0.000267544
-8.9939e-10
5.22082e-09
0.000249391
-1.81409e-08
-1.85572e-07
0.000264497
-0.000265219
2.40751e-08
-0.000260357
-2.60609e-09
1.09418e-07
3.85769e-09
-0.000244443
-0.000250055
-1.68359e-07
-2.93538e-09
-0.000260475
-0.000250201
3.64364e-09
-3.25433e-09
1.67891e-07
-8.52665e-07
-0.000264529
2.22469e-09
-0.000250073
7.57142e-09
6.98928e-09
-2.07942e-07
0.000266474
1.90909e-07
-1.09026e-09
-3.89078e-11
-0.000266912
-3.66238e-09
-3.86024e-09
-0.000249234
-1.7973e-07
8.78288e-10
-0.000266555
1.20281e-09
1.79028e-07
8.36468e-09
0.000267299
-5.99912e-09
0.000266977
-0.000267601
2.09279e-07
0.000249322
-3.52868e-09
-0.000249482
-1.58993e-07
1.79688e-09
0.000250277
-2.40325e-08
-0.000267333
0.000267569
5.37531e-09
0.000249457
-1.85633e-07
-1.53158e-08
0.000264543
-0.000265268
2.3806e-08
-0.000260374
8.49257e-11
3.87519e-09
1.09542e-07
-0.000244451
-0.000250111
-1.68323e-07
-5.32267e-09
-0.000250259
3.56361e-09
-0.000260489
-8.56159e-09
-0.000264574
1.67818e-07
-2.99616e-10
1.86726e-07
0.000250129
-0.000250278
1.56262e-08
0.000260397
-0.000260513
-7.64167e-09
-8.65975e-08
-0.0002653
6.15598e-09
-2.08008e-07
0.000266521
1.90979e-07
-4.9021e-10
-0.00026694
-1.86252e-09
-0.000249298
-1.79658e-07
-0.000242557
-1.02338e-07
-1.02601e-07
2.25789e-07
2.31104e-07
-1.06479e-07
0.00026128
-0.000261596
-1.06599e-07
0.000261706
-0.000262023
-0.000242702
-8.45019e-07
-8.45223e-07
-0.00114621
4.471e-07
4.53407e-07
0.001147
-0.00113705
-1.51086e-06
8.45083e-07
4.15716e-07
0.00113754
-4.96964e-07
1.12592e-06
1.2719e-07
7.23958e-07
-5.35366e-07
-1.2385e-06
5.28661e-08
-0.00113669
-1.50547e-06
8.45116e-07
4.15851e-07
0.00113718
-4.94776e-07
1.11981e-06
1.23292e-07
7.24058e-07
-5.37696e-07
-1.23836e-06
5.62524e-08
-0.000276417
1.54008e-06
1.50534e-06
-4.9235e-07
-4.9803e-07
0.000274362
-1.16144e-06
-1.12088e-06
0.000276433
-0.000274336
8.86556e-08
9.62787e-08
0.00113622
8.50128e-07
-0.00113572
4.1941e-07
-1.55031e-06
1.30186e-07
-5.06213e-07
-1.24576e-06
4.88023e-08
-5.36595e-07
7.25109e-07
1.16714e-06
0.00113668
8.50263e-07
-0.00113618
4.19356e-07
-1.55613e-06
1.32922e-07
-5.09399e-07
-1.25168e-06
5.46696e-08
-5.42171e-07
7.31003e-07
-1.12358e-06
0.000276461
-0.000274358
9.10901e-08
9.61406e-08
0.00113734
8.50815e-07
-0.00113683
4.18507e-07
-1.51015e-06
1.24473e-07
-5.00802e-07
-1.24863e-06
5.46746e-08
-5.42183e-07
7.25324e-07
1.15886e-06
0.00113634
8.55678e-07
-0.00113584
4.19405e-07
-1.5474e-06
1.30059e-07
-5.05858e-07
-1.24616e-06
5.46204e-08
-5.42195e-07
7.24908e-07
8.56088e-07
-0.00113655
4.18447e-07
-1.5129e-06
1.24578e-07
-5.01006e-07
-1.24573e-06
5.18844e-08
7.22684e-07
-5.3922e-07
1.153e-06
0.00113613
8.55793e-07
-0.00113563
4.19558e-07
-1.54234e-06
1.24231e-07
-5.01369e-07
-1.24573e-06
5.19128e-08
-5.41756e-07
7.25488e-07
-1.11808e-06
0.000276408
-0.000274319
9.13879e-08
9.65108e-08
8.50323e-07
-0.0011362
4.29158e-07
-1.5069e-06
1.21786e-07
-4.97368e-07
-1.24301e-06
5.47708e-08
7.22183e-07
-5.42071e-07
1.11522e-06
0.00113724
8.50605e-07
-0.00113673
4.23814e-07
-1.51034e-06
1.21571e-07
-5.01393e-07
-1.24019e-06
5.21128e-08
-5.39072e-07
7.20279e-07
-0.000274335
9.06836e-08
9.60269e-08
1.54852e-06
1.50818e-06
-4.89768e-07
-4.97998e-07
0.000274364
-1.15675e-06
-1.14097e-06
-0.00027443
1.33769e-07
7.02476e-08
0.000276524
4.16959e-07
0.00113671
-5.03006e-07
1.16336e-06
1.31951e-07
7.26624e-07
-5.32557e-07
-1.2414e-06
5.01695e-08
-1.55407e-06
8.44763e-07
4.1658e-07
0.00113717
-5.05337e-07
1.16948e-06
1.35523e-07
7.32317e-07
-5.3827e-07
-1.24717e-06
5.56876e-08
7.95753e-07
-0.00113767
4.16013e-07
-1.54513e-06
1.2129e-07
-5.01583e-07
-1.23426e-06
2.87728e-08
-5.39295e-07
7.23061e-07
0.00113825
1.17377e-06
8.29358e-07
-0.00113812
4.10519e-07
-1.54828e-06
1.38681e-07
-4.96264e-07
-1.23158e-06
6.04358e-08
-5.25755e-07
7.34437e-07
0.00113857
-4.92829e-07
-4.97524e-07
0.000274387
-1.13021e-06
-0.000274445
1.01043e-07
1.06078e-07
0.000276542
4.2106e-07
0.00113783
-4.97406e-07
1.12286e-06
1.26349e-07
7.29683e-07
-5.38035e-07
-1.24143e-06
5.61276e-08
-1.54596e-06
8.44927e-07
4.17071e-07
0.00113683
-5.03238e-07
1.16058e-06
1.31563e-07
7.26781e-07
-5.37823e-07
-1.24146e-06
5.60677e-08
8.40947e-07
-0.00113875
4.42625e-07
-1.49104e-06
1.44381e-07
-4.76439e-07
-1.2208e-06
9.18647e-08
-5.0963e-07
7.36895e-07
0.00113905
1.16532e-06
8.29297e-07
-0.00113778
4.05251e-07
-1.53963e-06
1.3511e-07
-4.93281e-07
-1.22893e-06
6.06176e-08
-5.25616e-07
7.31346e-07
0.00113824
8.44519e-07
4.1651e-07
0.00113662
-4.96671e-07
1.15561e-06
1.27551e-07
7.26636e-07
-5.35281e-07
5.26904e-08
-1.24116e-06
8.29516e-07
-0.00113849
4.09607e-07
-1.50501e-06
1.30375e-07
-4.87874e-07
-1.22565e-06
5.76143e-08
-5.22887e-07
7.2885e-07
0.00113895
1.15966e-06
8.29256e-07
-0.00113757
4.10608e-07
-1.53447e-06
1.30214e-07
-4.88234e-07
-1.22552e-06
5.76351e-08
-5.2263e-07
7.28968e-07
0.00113802
-4.92965e-07
-4.97804e-07
0.000274347
-1.12449e-06
-0.000274405
9.83756e-08
1.06101e-07
0.000276491
8.44896e-07
4.2077e-07
0.00113773
-4.93924e-07
1.12063e-06
1.24905e-07
7.21477e-07
-5.35322e-07
5.28957e-08
-1.2356e-06
8.29497e-07
-0.00113813
4.0933e-07
-1.49912e-06
1.26867e-07
-4.84776e-07
-1.22575e-06
6.08118e-08
-5.25451e-07
7.28565e-07
0.00113859
1.1247e-06
8.29459e-07
-0.00113867
4.09253e-07
-1.49969e-06
1.27599e-07
-4.85467e-07
-1.22277e-06
5.78195e-08
-5.22698e-07
7.26557e-07
0.00113913
-0.00027442
1.00686e-07
1.06035e-07
0.000276497
-0.00114541
4.49394e-07
4.50156e-07
0.00114621
-0.00114541
4.49431e-07
4.50031e-07
0.00114582
-0.00114503
4.49313e-07
4.72404e-07
0.00114602
-0.00114523
4.49497e-07
4.66913e-07
-7.4515e-11
9.49685e-08
0.00023579
-0.000235856
-2.24957e-08
-7.21747e-09
-0.000196882
-2.25277e-09
1.0973e-07
-8.70228e-09
0.000196783
-0.000236193
1.23667e-10
2.1081e-07
0.000236057
-6.60546e-08
-8.23668e-09
8.36705e-09
3.14944e-08
0.00019661
-2.84317e-09
-0.000196647
-9.89298e-05
2.30446e-09
4.26012e-08
9.88849e-05
-8.36236e-09
1.69264e-08
9.8823e-05
-9.88316e-05
9.24615e-08
-1.61888e-10
0.000235822
-0.000235883
-7.21729e-09
-2.45806e-08
-0.000196911
-2.24788e-09
1.07584e-07
-8.65902e-09
0.000196814
-0.000236222
2.10935e-07
2.25345e-10
0.000236084
-8.52462e-09
-6.4052e-08
8.37568e-09
3.36264e-08
0.00019664
-2.8304e-09
-0.000196679
4.47039e-07
4.47619e-07
0.00114701
4.47117e-07
4.47775e-07
0.00114661
4.46928e-07
4.47519e-07
0.00114682
-0.00114857
4.40126e-07
4.6914e-07
0.00114929
-0.00114859
4.40298e-07
4.40827e-07
0.00114937
-0.00114818
4.34664e-07
4.40942e-07
0.00114897
-0.0011484
4.40304e-07
4.40947e-07
0.00114917
-9.50015e-08
-1.59166e-09
0.000260026
-0.000259916
-1.88854e-08
4.74909e-09
-0.000252841
-3.87179e-08
-1.09798e-07
3.20126e-07
4.04477e-08
0.000252629
0.00113905
-0.00113837
3.40109e-09
8.95773e-07
7.87837e-07
-1.18681e-06
-1.35555e-06
5.89175e-07
4.1355e-07
1.12754e-06
0.00113802
8.40034e-07
-1.23485e-06
5.45923e-08
-5.3148e-07
7.25193e-07