/*--------------------------------*- C++ -*----------------------------------*\
| =========                 |                                                 |
| \\      /  F ield         | OpenFOAM: The Open Source CFD Toolbox           |
|  \\    /   O peration     | Version:  v1906                                 |
|   \\  /    A nd           | Web:      www.OpenFOAM.com                      |
|    \\/     M anipulation  |                                                 |
\*---------------------------------------------------------------------------*/
FoamFile
{
    version     2.0;
    format      ascii;
    class       volVectorField;
    location    "50";
    object      U;
}
// * * * * * * * * * * * * * * * * * * * * * * * * * * * * * * * * * * * * * //

dimensions      [0 1 -1 0 0 0 0];


internalField   nonuniform List<vector> 
42616
(
(0.000106132 0.000106152 0.100295)
(-0.000184681 0.000115327 0.100391)
(0.000115221 -0.000184354 0.10039)
(-0.000247446 -0.000247688 0.100399)
(9.71244e-05 9.7121e-05 0.100854)
(-0.000151421 9.35284e-05 0.100938)
(9.32609e-05 -0.000150965 0.100938)
(-0.000194351 -0.000194114 0.100971)
(9.7141e-05 9.71172e-05 0.101368)
(-0.000152278 9.09383e-05 0.101447)
(9.09099e-05 -0.000152469 0.101447)
(-0.000194329 -0.00019449 0.101474)
(9.48577e-05 9.484e-05 0.101886)
(-0.00014922 8.71029e-05 0.101954)
(8.72182e-05 -0.00014939 0.101954)
(-0.000191616 -0.00019199 0.101967)
(9.14598e-05 9.14849e-05 0.102391)
(-0.000143751 8.24301e-05 0.102441)
(8.25809e-05 -0.000143712 0.102442)
(-0.000186587 -0.000186556 0.102435)
(8.82224e-05 8.82373e-05 0.102876)
(-0.000138235 7.86232e-05 0.102906)
(7.87154e-05 -0.000138105 0.102906)
(-0.00018136 -0.000181002 0.102875)
(8.51743e-05 8.51635e-05 0.103344)
(-0.000132917 7.56205e-05 0.103349)
(7.56629e-05 -0.000132808 0.103348)
(-0.000176129 -0.000175994 0.103286)
(8.11804e-05 8.11683e-05 0.103791)
(-0.000125934 7.22329e-05 0.103766)
(7.22386e-05 -0.00012587 0.103766)
(-0.000169468 -0.00016947 0.103668)
(7.38427e-05 7.37717e-05 0.104207)
(-0.000113627 6.61789e-05 0.104149)
(6.6118e-05 -0.000113526 0.104149)
(-0.000157015 -0.000157052 0.104009)
(6.05263e-05 6.0437e-05 0.104563)
(-9.18828e-05 5.46783e-05 0.104465)
(5.46944e-05 -9.19419e-05 0.104465)
(-0.000134935 -0.000134979 0.104277)
(4.2321e-05 4.23259e-05 0.104823)
(-6.4725e-05 3.95337e-05 0.104679)
(3.94052e-05 -6.47443e-05 0.10468)
(-0.000104981 -0.000104958 0.10444)
(2.5223e-05 2.52997e-05 0.104983)
(-3.87503e-05 2.47305e-05 0.104793)
(2.4667e-05 -3.86322e-05 0.104793)
(-7.84163e-05 -7.83765e-05 0.104508)
(1.22428e-05 1.21992e-05 0.105064)
(-1.89974e-05 1.26388e-05 0.10484)
(1.27821e-05 -1.9041e-05 0.10484)
(-5.98058e-05 -5.98858e-05 0.104523)
(4.62463e-06 4.63464e-06 0.105097)
(-7.75776e-06 5.60502e-06 0.104853)
(5.57967e-06 -7.89584e-06 0.104853)
(-4.97555e-05 -4.99443e-05 0.104519)
(1.16566e-06 1.15637e-06 0.105108)
(-3.01633e-06 2.44371e-06 0.104855)
(2.49736e-06 -3.04671e-06 0.104855)
(-4.60236e-05 -4.59685e-05 0.104514)
(-1.57122e-07 -1.88111e-07 0.105111)
(-1.30862e-06 1.41436e-06 0.104856)
(1.38092e-06 -1.38285e-06 0.104855)
(-4.47003e-05 -4.48059e-05 0.104513)
(-5.72477e-07 -5.87814e-07 0.105111)
(-7.79573e-07 1.03351e-06 0.104856)
(1.0852e-06 -8.08387e-07 0.104855)
(-4.44774e-05 -4.438e-05 0.104512)
(-6.63504e-07 -6.43996e-07 0.105111)
(-7.56934e-07 9.34986e-07 0.104856)
(9.14942e-07 -6.18708e-07 0.104855)
(-4.44151e-05 -4.43588e-05 0.104512)
(-6.92532e-07 -6.83797e-07 0.105111)
(-7.50438e-07 1.02778e-06 0.104856)
(9.75325e-07 -6.94895e-07 0.104855)
(-4.45257e-05 -4.4461e-05 0.104512)
(-6.57402e-07 -6.87716e-07 0.105111)
(-7.88588e-07 1.04062e-06 0.104856)
(1.08686e-06 -8.92666e-07 0.104855)
(-4.44399e-05 -4.45534e-05 0.104512)
(-6.75345e-07 -7.38367e-07 0.105112)
(-7.99903e-07 7.85311e-07 0.104855)
(9.59725e-07 -1.05012e-06 0.104856)
(-4.45403e-05 -4.46312e-05 0.104512)
(0.000138704 0.000138632 0.100281)
(0.00012656 0.000160078 0.100229)
(-0.000126635 0.000160046 0.10023)
(-0.000138845 0.00013876 0.100281)
(0.000159946 0.00012665 0.100229)
(0.00015848 -0.000126546 0.10023)
(9.37879e-05 9.38523e-05 0.100152)
(-9.39358e-05 9.38385e-05 0.100152)
(9.34801e-05 -9.37836e-05 0.100152)
(-9.39058e-05 -9.38753e-05 0.100152)
(-0.000160067 0.000126575 0.10023)
(-0.000160174 -0.000126646 0.10023)
(0.00013804 -0.000139037 0.100281)
(0.000126346 -0.00015972 0.10023)
(-0.000126626 -0.000160111 0.100229)
(-0.000138861 -0.000138837 0.100281)
(0.000247415 0.000247379 0.100398)
(0.000113433 0.000113385 0.100896)
(0.000115346 0.000184047 0.10039)
(-0.000115453 0.000184508 0.100391)
(9.30693e-05 0.000149257 0.100816)
(-9.29392e-05 0.000149249 0.100817)
(-0.00024742 0.000247442 0.100398)
(-0.00011305 0.000113226 0.100896)
(0.000184516 0.000115304 0.10039)
(0.00018379 -0.000115082 0.100389)
(0.000149102 9.31037e-05 0.100817)
(0.000148747 -9.26912e-05 0.100817)
(-0.000184609 -0.00011547 0.100391)
(-0.000148924 9.30163e-05 0.100817)
(-0.00014842 -9.27836e-05 0.100817)
(0.00024708 -0.000247643 0.100398)
(0.0001129 -0.000112671 0.100896)
(-0.000115523 -0.000184553 0.100391)
(9.27251e-05 -0.000148356 0.100816)
(-9.28313e-05 -0.000148983 0.100817)
(-0.000113135 -0.000112906 0.100896)
(0.000194719 0.000194669 0.100971)
(0.000106113 0.000106046 0.101399)
(9.35556e-05 0.000151873 0.100938)
(-9.34156e-05 0.000151759 0.100938)
(9.16255e-05 0.000152606 0.101319)
(-9.14222e-05 0.000152464 0.101319)
(-0.000194332 0.000194483 0.100971)
(-0.000105826 0.000105794 0.101399)
(0.000151589 9.36572e-05 0.100938)
(0.000151309 -9.31444e-05 0.100938)
(0.000152515 9.16796e-05 0.101319)
(0.000152402 -9.12969e-05 0.101319)
(-0.000151029 -9.30989e-05 0.100938)
(-0.000152249 9.15164e-05 0.101319)
(-0.000152182 -9.09431e-05 0.101319)
(0.000194124 -0.000194022 0.100971)
(0.000105654 -0.000105785 0.101398)
(-9.32536e-05 -0.000151383 0.100938)
(9.14302e-05 -0.000152342 0.101319)
(-9.12948e-05 -0.000152128 0.101319)
(-0.00010537 -0.000105496 0.101398)
(0.000195045 0.000194932 0.101475)
(9.83915e-05 9.82682e-05 0.101896)
(9.10605e-05 0.000152577 0.101447)
(-9.08475e-05 0.000152448 0.101447)
(8.84171e-05 0.000150498 0.101829)
(-8.81423e-05 0.000150402 0.101829)
(-0.000194753 0.000194714 0.101475)
(-9.80826e-05 9.79845e-05 0.101895)
(0.00015257 9.11052e-05 0.101447)
(0.000152488 -9.08013e-05 0.101447)
(0.00015057 8.84604e-05 0.101829)
(0.000150463 -8.82453e-05 0.101829)
(-0.000152142 -9.04842e-05 0.101447)
(-0.000150329 8.82097e-05 0.101828)
(-0.000149867 -8.80264e-05 0.101828)
(0.000194641 -0.000194776 0.101475)
(9.81125e-05 -9.82599e-05 0.101896)
(-9.08079e-05 -0.000152304 0.101447)
(8.83158e-05 -0.000150544 0.101829)
(-8.82701e-05 -0.000150705 0.101828)
(-9.7861e-05 -9.81889e-05 0.101895)
(0.000192142 0.000191996 0.101968)
(8.9249e-05 8.92e-05 0.102369)
(8.73063e-05 0.000149338 0.101954)
(-8.70349e-05 0.00014924 0.101954)
(8.37797e-05 0.000145231 0.102322)
(-8.35538e-05 0.000145115 0.102322)
(-0.000191862 0.000191757 0.101968)
(-8.90855e-05 8.88876e-05 0.102369)
(0.0001494 8.73652e-05 0.101954)
(0.000149259 -8.71396e-05 0.101954)
(0.000145217 8.38733e-05 0.102322)
(0.000145044 -8.3588e-05 0.102322)
(-0.000148748 -8.69645e-05 0.101953)
(-0.000145193 8.35921e-05 0.102322)
(-0.000145128 -8.35909e-05 0.102321)
(0.000191877 -0.000192031 0.101968)
(8.89411e-05 -8.91514e-05 0.102369)
(-8.72207e-05 -0.000149589 0.101953)
(8.37228e-05 -0.000145195 0.102322)
(-8.38928e-05 -0.000145342 0.102321)
(-8.91352e-05 -8.91667e-05 0.102369)
(0.000186653 0.000186573 0.102436)
(8.10636e-05 8.10984e-05 0.102815)
(8.26094e-05 0.000143773 0.102442)
(-8.24355e-05 0.000143664 0.102442)
(7.96414e-05 0.000139614 0.102792)
(-7.95746e-05 0.000139524 0.102792)
(-0.000186513 0.000186283 0.102435)
(-8.10202e-05 8.09325e-05 0.102814)
(0.000143739 8.27052e-05 0.102442)
(0.000143584 -8.24451e-05 0.102442)
(0.000139532 7.9694e-05 0.102792)
(0.00013947 -7.95209e-05 0.102792)
(-0.000143848 -8.24811e-05 0.102441)
(-0.000139579 7.94862e-05 0.102792)
(-0.000139937 -7.96158e-05 0.102792)
(0.000186327 -0.000186563 0.102436)
(8.09629e-05 -8.09583e-05 0.102815)
(-8.27955e-05 -0.000143807 0.102441)
(7.95986e-05 -0.000139456 0.102792)
(-7.98311e-05 -0.000139482 0.102792)
(-8.13626e-05 -8.09401e-05 0.102814)
(0.000181103 0.000181081 0.102875)
(7.45044e-05 7.45223e-05 0.103233)
(7.87576e-05 0.000138263 0.102906)
(-7.87168e-05 0.000138188 0.102906)
(7.64677e-05 0.000134369 0.10324)
(-7.6438e-05 0.000134284 0.10324)
(-0.000181045 0.000180917 0.102875)
(-7.44919e-05 7.44543e-05 0.103233)
(0.000138179 7.87966e-05 0.102906)
(0.000138135 -7.86487e-05 0.102906)
(0.000134288 7.64668e-05 0.10324)
(0.000134271 -7.63731e-05 0.10324)
(-0.000138584 -7.87669e-05 0.102906)
(-0.000134295 7.63719e-05 0.10324)
(-0.000134545 -7.64884e-05 0.10324)
(0.000180951 -0.000181012 0.102875)
(7.44814e-05 -7.44237e-05 0.103233)
(-7.89444e-05 -0.000138118 0.102906)
(7.64283e-05 -0.00013418 0.10324)
(-7.65696e-05 -0.000134239 0.10324)
(-7.4697e-05 -7.44736e-05 0.103233)
(0.00017601 0.000175971 0.103286)
(6.83147e-05 6.83307e-05 0.103623)
(7.57068e-05 0.000132973 0.103349)
(-7.56725e-05 0.000132887 0.103348)
(7.33073e-05 0.000128118 0.103665)
(-7.32725e-05 0.000128048 0.103665)
(-0.000175968 0.000175885 0.103286)
(-6.83112e-05 6.83268e-05 0.103623)
(0.000132891 7.56956e-05 0.103349)
(0.000132883 -7.56168e-05 0.103349)
(0.000128033 7.32851e-05 0.103665)
(0.000128039 -7.32291e-05 0.103665)
(-0.0001331 -7.5737e-05 0.103349)
(-0.000128023 7.326e-05 0.103665)
(-0.000128138 -7.32971e-05 0.103665)
(0.000175914 -0.000175936 0.103286)
(6.83408e-05 -6.82635e-05 0.103623)
(-7.57925e-05 -0.00013285 0.103349)
(7.32722e-05 -0.000127942 0.103665)
(-7.3314e-05 -0.000128021 0.103665)
(-6.83847e-05 -6.83155e-05 0.103623)
(0.000169451 0.000169397 0.103668)
(5.89772e-05 5.91082e-05 0.103975)
(7.22799e-05 0.000126023 0.103766)
(-7.22395e-05 0.00012595 0.103766)
(6.8197e-05 0.000117599 0.104058)
(-6.81629e-05 0.000117557 0.104058)
(-0.000169406 0.000169365 0.103668)
(-5.89506e-05 5.91581e-05 0.103975)
(0.000125918 7.22518e-05 0.103766)
(0.000125941 -7.22017e-05 0.103766)
(0.000117518 6.80931e-05 0.104058)
(0.000117511 -6.81138e-05 0.104058)
(-0.000126013 -7.2281e-05 0.103766)
(-0.000117483 6.80729e-05 0.104058)
(-0.000117511 -6.80203e-05 0.104058)
(0.000169371 -0.000169399 0.103668)
(5.90909e-05 -5.88445e-05 0.103975)
(-7.22883e-05 -0.000125923 0.103767)
(6.80185e-05 -0.000117399 0.104058)
(-6.79737e-05 -0.000117449 0.104058)
(-5.89292e-05 -5.88443e-05 0.103975)
(0.000157119 0.000157127 0.104009)
(4.141e-05 4.13771e-05 0.10426)
(6.63394e-05 0.000113731 0.104149)
(-6.62941e-05 0.000113672 0.104149)
(5.81577e-05 9.82234e-05 0.104394)
(-5.81054e-05 9.81443e-05 0.104394)
(-0.000157039 0.000157104 0.104009)
(-4.13893e-05 4.13769e-05 0.10426)
(0.00011365 6.62046e-05 0.104149)
(0.00011363 -6.62355e-05 0.104149)
(9.82003e-05 5.80004e-05 0.104395)
(9.81989e-05 -5.81229e-05 0.104394)
(-0.000113629 -6.61497e-05 0.104149)
(-9.81239e-05 5.79835e-05 0.104394)
(-9.81718e-05 -5.80517e-05 0.104394)
(0.000157056 -0.000157015 0.104009)
(4.14973e-05 -4.13485e-05 0.104259)
(-6.60881e-05 -0.000113581 0.104149)
(5.79967e-05 -9.81239e-05 0.104395)
(-5.79707e-05 -9.8158e-05 0.104394)
(-4.13558e-05 -4.13154e-05 0.104259)
(0.000134959 0.000134842 0.104277)
(1.40801e-05 1.40346e-05 0.104441)
(5.47962e-05 9.193e-05 0.104465)
(-5.48021e-05 9.18931e-05 0.104465)
(4.33335e-05 7.16256e-05 0.104636)
(-4.34959e-05 7.17287e-05 0.104636)
(-0.000134891 0.000134776 0.104277)
(-1.42211e-05 1.41722e-05 0.10444)
(9.19518e-05 5.46503e-05 0.104465)
(9.19726e-05 -5.48464e-05 0.104465)
(7.16611e-05 4.32784e-05 0.104636)
(7.16308e-05 -4.35266e-05 0.104636)
(-9.19491e-05 -5.47925e-05 0.104465)
(-7.17162e-05 4.33737e-05 0.104636)
(-7.17474e-05 -4.34381e-05 0.104636)
(0.000134907 -0.000134939 0.104277)
(1.41704e-05 -1.43562e-05 0.10444)
(-5.4696e-05 -9.19369e-05 0.104465)
(4.33099e-05 -7.17564e-05 0.104636)
(-4.33241e-05 -7.17493e-05 0.104636)
(-1.41636e-05 -1.41165e-05 0.10444)
(0.000104853 0.000104767 0.10444)
(-1.17713e-05 -1.16326e-05 0.104521)
(3.9435e-05 6.46082e-05 0.104679)
(-3.96536e-05 6.47053e-05 0.104679)
(2.81901e-05 4.46541e-05 0.104773)
(-2.84041e-05 4.47389e-05 0.104773)
(-0.000104998 0.000104891 0.10444)
(1.15922e-05 -1.1645e-05 0.104521)
(6.46495e-05 3.94089e-05 0.104679)
(6.46206e-05 -3.96099e-05 0.104679)
(4.4653e-05 2.81896e-05 0.104772)
(4.46599e-05 -2.82617e-05 0.104773)
(-6.47381e-05 -3.95108e-05 0.104679)
(-4.48082e-05 2.8176e-05 0.104772)
(-4.48163e-05 -2.81682e-05 0.104773)
(0.000104789 -0.000105073 0.10444)
(-1.17109e-05 1.17164e-05 0.104521)
(-3.94127e-05 -6.4626e-05 0.104679)
(2.81192e-05 -4.46803e-05 0.104773)
(-2.82613e-05 -4.46685e-05 0.104772)
(1.17645e-05 1.19011e-05 0.104521)
(7.82336e-05 7.83099e-05 0.104508)
(-3.04579e-05 -3.02936e-05 0.104542)
(2.4771e-05 3.86359e-05 0.104793)
(-2.4899e-05 3.86835e-05 0.104793)
(1.53385e-05 2.32178e-05 0.104832)
(-1.52382e-05 2.31497e-05 0.104833)
(-7.83929e-05 7.83245e-05 0.104508)
(3.0497e-05 -3.05224e-05 0.104542)
(3.86022e-05 2.48063e-05 0.104793)
(3.86308e-05 -2.47979e-05 0.104793)
(2.30721e-05 1.5259e-05 0.104833)
(2.33293e-05 -1.53648e-05 0.104832)
(-3.8731e-05 -2.47282e-05 0.104793)
(-2.31326e-05 1.50984e-05 0.104832)
(-2.31905e-05 -1.53806e-05 0.104832)
(7.82199e-05 -7.82505e-05 0.104508)
(-3.02726e-05 3.05369e-05 0.104542)
(-2.48082e-05 -3.86766e-05 0.104793)
(1.52139e-05 -2.32137e-05 0.104832)
(-1.52561e-05 -2.33028e-05 0.104832)
(3.04633e-05 3.04124e-05 0.104542)
(5.97473e-05 5.98197e-05 0.104523)
(-4.07068e-05 -4.06672e-05 0.104539)
(1.28849e-05 1.91039e-05 0.10484)
(-1.27404e-05 1.9015e-05 0.10484)
(6.95737e-06 1.00139e-05 0.104851)
(-6.79296e-06 9.96452e-06 0.104851)
(-5.96641e-05 5.9626e-05 0.104523)
(4.0907e-05 -4.07311e-05 0.10454)
(1.89895e-05 1.27687e-05 0.10484)
(1.9172e-05 -1.2889e-05 0.10484)
(9.97756e-06 6.91384e-06 0.104851)
(9.98475e-06 -6.90053e-06 0.104851)
(-1.90614e-05 -1.28718e-05 0.10484)
(-9.84311e-06 6.79531e-06 0.104851)
(-9.88084e-06 -6.92689e-06 0.104851)
(5.98844e-05 -5.9736e-05 0.104523)
(-4.07711e-05 4.07743e-05 0.10454)
(-1.27118e-05 -1.9136e-05 0.10484)
(6.80493e-06 -9.91782e-06 0.104851)
(-6.74958e-06 -9.95086e-06 0.104851)
(4.09063e-05 4.07458e-05 0.10454)
(4.99513e-05 4.99515e-05 0.104519)
(-4.49297e-05 -4.49761e-05 0.104535)
(5.72638e-06 7.97948e-06 0.104853)
(-5.53429e-06 7.94277e-06 0.104853)
(2.93171e-06 3.90311e-06 0.104855)
(-2.84014e-06 3.93363e-06 0.104855)
(-4.97798e-05 4.99244e-05 0.104519)
(4.5158e-05 -4.50582e-05 0.104535)
(7.93573e-06 5.70438e-06 0.104853)
(7.92163e-06 -5.6332e-06 0.104853)
(3.93171e-06 2.91979e-06 0.104855)
(3.89381e-06 -2.85318e-06 0.104855)
(-7.79841e-06 -5.62031e-06 0.104853)
(-3.79268e-06 2.85438e-06 0.104855)
(-3.87735e-06 -2.8823e-06 0.104855)
(4.98016e-05 -4.99113e-05 0.104519)
(-4.50081e-05 4.50416e-05 0.104535)
(-5.49592e-06 -7.85044e-06 0.104853)
(2.87145e-06 -3.83889e-06 0.104855)
(-2.91972e-06 -3.8346e-06 0.104855)
(4.49384e-05 4.50467e-05 0.104535)
(4.615e-05 4.60167e-05 0.104514)
(-4.63065e-05 -4.64024e-05 0.104533)
(2.51053e-06 3.08688e-06 0.104855)
(-2.45264e-06 3.10967e-06 0.104855)
(1.45442e-06 1.62129e-06 0.104856)
(-1.48414e-06 1.68115e-06 0.104855)
(-4.60341e-05 4.60378e-05 0.104515)
(4.63957e-05 -4.63477e-05 0.104533)
(3.16837e-06 2.49031e-06 0.104855)
(3.10397e-06 -2.4492e-06 0.104855)
(1.61053e-06 1.39518e-06 0.104856)
(1.72198e-06 -1.44027e-06 0.104855)
(-3.08354e-06 -2.40552e-06 0.104855)
(-1.63837e-06 1.43771e-06 0.104856)
(-1.6117e-06 -1.40455e-06 0.104856)
(4.59867e-05 -4.6056e-05 0.104514)
(-4.63782e-05 4.64949e-05 0.104533)
(-2.46126e-06 -2.97186e-06 0.104855)
(1.41038e-06 -1.60915e-06 0.104855)
(-1.38564e-06 -1.62143e-06 0.104855)
(4.64079e-05 4.63315e-05 0.104532)
(4.48189e-05 4.47366e-05 0.104513)
(-4.6759e-05 -4.67393e-05 0.104532)
(1.35467e-06 1.34436e-06 0.104856)
(-1.40319e-06 1.40096e-06 0.104856)
(9.65338e-07 9.31727e-07 0.104855)
(-9.64594e-07 9.6387e-07 0.104855)
(-4.48633e-05 4.49017e-05 0.104513)
(4.677e-05 -4.67342e-05 0.104533)
(1.35843e-06 1.29313e-06 0.104856)
(1.46924e-06 -1.35725e-06 0.104855)
(9.3766e-07 8.93381e-07 0.104855)
(1.05204e-06 -9.87661e-07 0.104855)
(-1.29957e-06 -1.29253e-06 0.104856)
(-8.55991e-07 9.75419e-07 0.104856)
(-9.05906e-07 -9.5966e-07 0.104856)
(4.48707e-05 -4.48118e-05 0.104512)
(-4.66605e-05 4.68891e-05 0.104532)
(-1.23844e-06 -1.36681e-06 0.104856)
(1.02617e-06 -8.95725e-07 0.104855)
(-9.05343e-07 -8.94765e-07 0.104855)
(4.67843e-05 4.68891e-05 0.104532)
(4.44949e-05 4.44977e-05 0.104512)
(-4.68887e-05 -4.68548e-05 0.104532)
(1.03662e-06 8.96983e-07 0.104855)
(-1.0233e-06 8.82898e-07 0.104855)
(8.61633e-07 7.00043e-07 0.104855)
(-8.7506e-07 7.7583e-07 0.104855)
(-4.44648e-05 4.44588e-05 0.104512)
(4.68496e-05 -4.68659e-05 0.104532)
(8.77128e-07 9.666e-07 0.104856)
(9.77386e-07 -1.02036e-06 0.104855)
(7.3758e-07 8.24818e-07 0.104855)
(8.15943e-07 -7.99643e-07 0.104855)
(-8.71933e-07 -9.54736e-07 0.104855)
(-7.30765e-07 7.91898e-07 0.104856)
(-8.37368e-07 -8.16223e-07 0.104855)
(4.46339e-05 -4.44985e-05 0.104512)
(-4.68331e-05 4.70354e-05 0.104532)
(-9.45559e-07 -7.91992e-07 0.104855)
(8.13294e-07 -6.22821e-07 0.104855)
(-9.03589e-07 -6.59149e-07 0.104855)
(4.68606e-05 4.69697e-05 0.104532)
(4.43683e-05 4.43631e-05 0.104512)
(-4.69963e-05 -4.69131e-05 0.104532)
(9.60365e-07 7.30199e-07 0.104855)
(-9.96832e-07 7.79325e-07 0.104855)
(8.09378e-07 7.02013e-07 0.104855)
(-9.45536e-07 7.96039e-07 0.104855)
(-4.44099e-05 4.43432e-05 0.104512)
(4.6837e-05 -4.68032e-05 0.104533)
(7.51235e-07 9.25891e-07 0.104855)
(7.91355e-07 -8.77326e-07 0.104855)
(6.65565e-07 8.20447e-07 0.104855)
(7.53763e-07 -8.57884e-07 0.104855)
(-8.14788e-07 -8.59166e-07 0.104855)
(-7.65035e-07 8.54466e-07 0.104855)
(-8.27088e-07 -8.65002e-07 0.104855)
(4.43698e-05 -4.42675e-05 0.104512)
(-4.6859e-05 4.69337e-05 0.104532)
(-9.59766e-07 -6.27655e-07 0.104855)
(7.68295e-07 -6.15229e-07 0.104855)
(-9.37608e-07 -7.06362e-07 0.104855)
(4.6766e-05 4.68996e-05 0.104532)
(4.43421e-05 4.43892e-05 0.104512)
(-4.68534e-05 -4.68181e-05 0.104532)
(9.67859e-07 7.93193e-07 0.104855)
(-1.07776e-06 7.88199e-07 0.104855)
(9.17318e-07 7.58436e-07 0.104855)
(-9.76342e-07 7.61706e-07 0.104855)
(-4.44744e-05 4.45177e-05 0.104512)
(4.67077e-05 -4.67543e-05 0.104532)
(6.81702e-07 9.38272e-07 0.104855)
(8.01525e-07 -1.04667e-06 0.104855)
(7.61287e-07 8.56753e-07 0.104855)
(8.50768e-07 -1.04103e-06 0.104855)
(-8.39909e-07 -9.91566e-07 0.104855)
(-7.74704e-07 8.8623e-07 0.104855)
(-8.05e-07 -9.23527e-07 0.104855)
(4.44414e-05 -4.44346e-05 0.104512)
(-4.67257e-05 4.67116e-05 0.104532)
(-1.0132e-06 -7.93785e-07 0.104855)
(9.10808e-07 -8.16086e-07 0.104855)
(-8.32767e-07 -8.06013e-07 0.104855)
(4.69481e-05 4.68485e-05 0.104532)
(4.45542e-05 4.44897e-05 0.104512)
(-4.68308e-05 -4.68736e-05 0.104532)
(1.07664e-06 8.34841e-07 0.104855)
(-1.11379e-06 8.34482e-07 0.104855)
(8.73329e-07 7.90652e-07 0.104855)
(-8.41722e-07 7.16109e-07 0.104855)
(-4.44595e-05 4.43837e-05 0.104512)
(4.68633e-05 -4.69797e-05 0.104532)
(8.3408e-07 9.73241e-07 0.104855)
(8.77176e-07 -1.16637e-06 0.104855)
(8.20842e-07 8.14695e-07 0.104855)
(8.59922e-07 -1.02329e-06 0.104855)
(-8.09731e-07 -1.049e-06 0.104855)
(-7.56777e-07 7.41278e-07 0.104855)
(-8.91983e-07 -1.06987e-06 0.104855)
(4.45313e-05 -4.46469e-05 0.104512)
(-4.68547e-05 4.6722e-05 0.104532)
(-9.45253e-07 -8.61482e-07 0.104855)
(8.75811e-07 -9.54027e-07 0.104856)
(-9.19751e-07 -1.00878e-06 0.104855)
(4.67848e-05 4.67774e-05 0.104532)
(4.44445e-05 4.43687e-05 0.104512)
(9.75278e-07 8.20371e-07 0.104855)
(-9.04079e-07 7.4676e-07 0.104855)
(-4.43658e-05 4.42046e-05 0.104512)
(8.14978e-07 8.2582e-07 0.104856)
(9.35898e-07 -1.10863e-06 0.104855)
(-9.11414e-07 -1.10825e-06 0.104855)
(4.43633e-05 -4.45595e-05 0.104512)
(-9.35596e-07 -9.95922e-07 0.104856)
(-4.00613e-07 -4.01155e-07 0.0999987)
(1.81471e-05 1.81315e-05 0.100004)
(-1.94642e-07 1.34219e-05 0.1)
(1.34274e-05 -1.98925e-07 0.1)
(-5.17792e-05 7.08481e-06 0.100012)
(-2.02679e-05 1.85206e-05 0.100002)
(-0.000136674 6.02695e-05 0.100068)
(-1.24533e-05 -5.51997e-07 0.0999962)
(7.03642e-06 -5.18866e-05 0.100012)
(1.85789e-05 -2.0263e-05 0.100002)
(-5.44134e-07 -1.24538e-05 0.0999962)
(5.87032e-05 -0.00013255 0.100065)
(-2.45566e-05 -2.45866e-05 0.100007)
(-0.00013498 -8.00869e-05 0.100055)
(-8.0131e-05 -0.000134637 0.100055)
(-1.30448e-05 0.000147939 0.100663)
(0.000221389 0.000574156 0.0996199)
(8.72984e-06 0.000332345 0.100565)
(-3.94791e-05 0.000363641 0.0990235)
(-0.000411984 0.000939754 0.0979596)
(-0.000213976 0.000401983 0.0956619)
(0.00014771 -1.3479e-05 0.100664)
(0.000576345 0.000217959 0.0996204)
(0.000333591 9.54773e-06 0.100565)
(0.000367864 -3.87716e-05 0.0990289)
(-0.000106218 0.000106177 0.100295)
(0.000106037 -0.000105898 0.100295)
(-0.00010601 -0.000106209 0.100295)
(9.47978e-05 9.47401e-05 0.100732)
(-9.4638e-05 9.47305e-05 0.100733)
(9.4781e-05 -9.4726e-05 0.100733)
(-9.46137e-05 -9.46287e-05 0.100733)
(-0.000253642 7.01151e-06 0.100718)
(-0.000384278 0.000204737 0.100578)
(-0.000168879 3.99887e-05 0.100332)
(-0.000146199 8.9531e-05 0.100561)
(-0.000336165 2.66215e-05 0.100498)
(-0.0001522 0.000169919 0.100656)
(-0.000142065 3.23501e-05 0.100498)
(0.000933606 -0.000414015 0.0979184)
(0.000399523 -0.000205689 0.0956471)
(6.40227e-06 -0.000254172 0.100717)
(3.96758e-05 -0.000168722 0.100332)
(0.000204925 -0.000378822 0.100578)
(8.91636e-05 -0.000145625 0.100561)
(2.58694e-05 -0.000335876 0.100498)
(3.21529e-05 -0.000141875 0.100498)
(0.000169071 -0.000147307 0.100659)
(-0.00040656 -0.000168909 0.100465)
(-0.000168684 -0.000407146 0.100466)
(-0.00011395 -0.000114047 0.100645)
(-2.17652e-05 -8.9364e-05 0.100478)
(-9.01246e-05 -2.38342e-05 0.100479)
(1.61954e-06 0.000178544 0.100861)
(-4.88371e-05 0.000356145 0.0983286)
(-2.54602e-06 0.000193175 0.100785)
(-4.09836e-05 0.000319705 0.0979293)
(-0.000196302 0.000321909 0.0926364)
(-0.000171474 0.00027678 0.0909931)
(0.000177713 8.4936e-07 0.10086)
(0.000357455 -4.5836e-05 0.0983307)
(0.000192231 -3.45039e-06 0.100786)
(0.00031971 -3.95229e-05 0.0979299)
(-9.6953e-05 9.70624e-05 0.100854)
(9.7144e-05 -9.71136e-05 0.100854)
(-9.69787e-05 -9.68802e-05 0.100854)
(9.73535e-05 9.73409e-05 0.101238)
(-9.7201e-05 9.72427e-05 0.101238)
(9.74744e-05 -9.74669e-05 0.101238)
(-9.72824e-05 -9.70947e-05 0.101238)
(-0.00024794 1.97687e-05 0.101153)
(-0.000204745 0.000199933 0.100831)
(-0.000156541 3.04197e-05 0.100889)
(-0.000151886 9.2773e-05 0.101063)
(-0.000287938 1.84459e-05 0.100987)
(-0.000171681 0.000184733 0.100944)
(-0.000158613 3.05618e-05 0.101015)
(0.000321455 -0.000194957 0.0926234)
(0.000275403 -0.000170822 0.090985)
(2.01924e-05 -0.000248318 0.101153)
(3.06062e-05 -0.000156396 0.100889)
(0.00019935 -0.000203067 0.100836)
(9.25563e-05 -0.000151631 0.101063)
(1.84997e-05 -0.000288525 0.100987)
(3.08406e-05 -0.000158472 0.101015)
(0.000184809 -0.000171774 0.100949)
(-5.42841e-05 -8.83971e-05 0.100451)
(-9.06411e-05 -5.80212e-05 0.100454)
(-0.000108758 -0.000108706 0.101146)
(-5.94033e-05 -6.95407e-05 0.100424)
(-7.22987e-05 -6.21021e-05 0.10043)
(3.95159e-06 0.000196414 0.100958)
(-2.01256e-05 0.000327209 0.0971291)
(2.5977e-06 0.00022371 0.100907)
(-1.0877e-05 0.000286028 0.0966959)
(-0.000146738 0.000231848 0.0883864)
(-0.000119746 0.000189004 0.087059)
(0.000196044 3.64036e-06 0.100958)
(0.000326737 -2.08856e-05 0.09713)
(0.000223391 2.21707e-06 0.100908)
(0.000285705 -1.1832e-05 0.0966969)
(-9.70091e-05 9.70355e-05 0.101368)
(9.72563e-05 -9.72683e-05 0.101368)
(-9.7081e-05 -9.69328e-05 0.101368)
(9.56e-05 9.55727e-05 0.101758)
(-9.55225e-05 9.55379e-05 0.101757)
(9.5626e-05 -9.56752e-05 0.101758)
(-9.55183e-05 -9.55132e-05 0.101757)
(-0.000241735 1.84031e-05 0.101584)
(-0.000220332 0.000188958 0.101038)
(-0.000161101 3.07016e-05 0.101404)
(-0.000151938 9.01709e-05 0.101575)
(-0.000287182 1.86694e-05 0.10142)
(-0.000177469 0.000164821 0.101128)
(-0.000161273 3.06415e-05 0.101534)
(0.00023104 -0.000145322 0.0883821)
(0.000188889 -0.000118698 0.0870621)
(1.88785e-05 -0.000241975 0.101584)
(3.10047e-05 -0.000161149 0.101404)
(0.000189259 -0.000221374 0.101042)
(9.02099e-05 -0.000152172 0.101575)
(1.92858e-05 -0.000287456 0.10142)
(3.08978e-05 -0.000161379 0.101534)
(0.000164877 -0.000178168 0.101129)
(-9.4574e-05 -8.27313e-05 0.100195)
(-8.42642e-05 -9.70609e-05 0.100204)
(-0.000102007 -0.000102174 0.101649)
(-9.07962e-05 -6.13807e-05 0.100098)
(-6.23783e-05 -9.40588e-05 0.100105)
(2.88476e-06 0.000198456 0.100956)
(5.72034e-06 0.000290116 0.095843)
(2.42493e-06 0.000234007 0.100934)
(1.02924e-05 0.000246172 0.0954016)
(-9.78434e-05 0.000155569 0.0849791)
(-7.4418e-05 0.000119321 0.0839668)
(0.000198181 2.89006e-06 0.100956)
(0.000290106 4.88551e-06 0.0958435)
(0.000233792 2.40875e-06 0.100936)
(0.000246158 9.82707e-06 0.0954018)
(-9.4799e-05 9.4814e-05 0.101886)
(9.48581e-05 -9.49072e-05 0.101886)
(-9.48105e-05 -9.47889e-05 0.101886)
(9.23228e-05 9.23415e-05 0.102266)
(-9.2311e-05 9.23342e-05 0.102266)
(9.23159e-05 -9.23081e-05 0.102266)
(-9.25253e-05 -9.22789e-05 0.102266)
(-0.000230487 1.61928e-05 0.101982)
(-0.000219148 0.000166106 0.101152)
(-0.000159643 3.00831e-05 0.101919)
(-0.000147975 8.59612e-05 0.102078)
(-0.000280883 1.64492e-05 0.101828)
(-0.000171915 0.000139225 0.101215)
(-0.000158649 2.98093e-05 0.102045)
(0.000155617 -9.74171e-05 0.084978)
(0.000119497 -7.43531e-05 0.0839699)
(1.63027e-05 -0.000230526 0.101982)
(3.01809e-05 -0.000159825 0.101919)
(0.00016611 -0.000219364 0.101152)
(8.60787e-05 -0.000148086 0.102078)
(1.66158e-05 -0.00028105 0.101829)
(2.98816e-05 -0.000158778 0.102046)
(0.000139041 -0.000171803 0.101214)
(-0.000115262 -7.34741e-05 0.0997425)
(-7.49758e-05 -0.000119645 0.0997421)
(-9.3445e-05 -9.37621e-05 0.102135)
(-0.000105805 -4.9762e-05 0.0995944)
(-5.20888e-05 -0.000110125 0.0995886)
(8.45996e-07 0.000191882 0.100857)
(1.87616e-05 0.000250872 0.0945455)
(7.06473e-07 0.0002323 0.100863)
(1.8553e-05 0.000206695 0.0941208)
(-6.0236e-05 0.000101798 0.082356)
(-4.13973e-05 7.2927e-05 0.0815985)
(0.00019177 8.73379e-07 0.100856)
(0.000250857 1.84257e-05 0.0945447)
(0.000232195 8.59202e-07 0.100865)
(0.000206692 1.84981e-05 0.0941207)
(-9.14682e-05 9.1474e-05 0.10239)
(9.14572e-05 -9.14385e-05 0.10239)
(-9.17432e-05 -9.14271e-05 0.10239)
(8.90053e-05 8.90262e-05 0.102757)
(-8.90339e-05 8.90025e-05 0.102757)
(8.901e-05 -8.89691e-05 0.102757)
(-8.93406e-05 -8.9007e-05 0.102757)
(-0.000216101 1.37882e-05 0.102339)
(-0.000210371 0.000143006 0.10117)
(-0.00015481 2.89054e-05 0.102418)
(-0.000142343 8.13843e-05 0.10256)
(-0.000269397 1.39446e-05 0.102198)
(-0.000161532 0.000115669 0.10121)
(-0.000153418 2.86368e-05 0.10254)
(0.000101697 -6.01356e-05 0.0823532)
(7.28323e-05 -4.12468e-05 0.0816005)
(1.41139e-05 -0.00021596 0.102339)
(2.89778e-05 -0.000154758 0.102418)
(0.000143038 -0.000210234 0.101171)
(8.15143e-05 -0.000142262 0.10256)
(1.41788e-05 -0.00026934 0.102198)
(2.87142e-05 -0.000153298 0.10254)
(0.000115589 -0.000161347 0.101209)
(-0.000124778 -6.32633e-05 0.0991448)
(-6.6129e-05 -0.000127498 0.0991355)
(-8.50985e-05 -8.47908e-05 0.102595)
(-0.000112367 -4.1076e-05 0.0989586)
(-4.35387e-05 -0.00011391 0.0989492)
(-1.12563e-06 0.000181664 0.100671)
(2.05762e-05 0.000213862 0.0932983)
(-1.23107e-06 0.000224373 0.100702)
(1.73204e-05 0.000170551 0.0929051)
(-3.42159e-05 6.78301e-05 0.0803506)
(-1.90623e-05 4.41472e-05 0.079786)
(0.000181638 -1.24518e-06 0.10067)
(0.000213847 2.04594e-05 0.0932967)
(0.000224428 -1.24015e-06 0.100704)
(0.000170616 1.73835e-05 0.0929056)
(-8.82527e-05 8.82083e-05 0.102876)
(8.82232e-05 -8.81881e-05 0.102876)
(-8.85264e-05 -8.82324e-05 0.102876)
(8.59733e-05 8.59675e-05 0.103229)
(-8.597e-05 8.59332e-05 0.103229)
(8.59649e-05 -8.59224e-05 0.103229)
(-8.61308e-05 -8.59831e-05 0.103229)
(-0.000201394 1.22259e-05 0.102654)
(-0.000198511 0.000123356 0.101107)
(-0.000149065 2.79454e-05 0.102897)
(-0.000136926 7.78516e-05 0.103019)
(-0.00025577 1.19979e-05 0.102525)
(-0.000149793 9.66017e-05 0.101126)
(-0.000147617 2.77544e-05 0.103014)
(6.78554e-05 -3.42172e-05 0.0803475)
(4.41012e-05 -1.89948e-05 0.0797876)
(1.24251e-05 -0.000201278 0.102654)
(2.80114e-05 -0.000148885 0.102897)
(0.000123464 -0.000198475 0.101107)
(7.79298e-05 -0.000136795 0.103019)
(1.22681e-05 -0.000255679 0.102524)
(2.78055e-05 -0.000147433 0.103014)
(9.65495e-05 -0.000149654 0.101124)
(-0.000127135 -5.86614e-05 0.0984444)
(-5.98893e-05 -0.000127395 0.0984389)
(-7.78969e-05 -7.75464e-05 0.103027)
(-0.000112007 -3.75295e-05 0.0982352)
(-3.81814e-05 -0.000111993 0.0982305)
(-2.79883e-06 0.000169487 0.10041)
(1.57526e-05 0.000180089 0.0921379)
(-2.98298e-06 0.000213431 0.100464)
(1.11253e-05 0.000137832 0.091786)
(-1.72659e-05 4.73524e-05 0.0788124)
(-4.4328e-06 2.64942e-05 0.0783937)
(0.000169466 -2.9737e-06 0.100409)
(0.000180103 1.56908e-05 0.0921365)
(0.000213538 -3.07605e-06 0.100465)
(0.000137893 1.12562e-05 0.0917867)
(-8.51674e-05 8.51278e-05 0.103344)
(8.51598e-05 -8.51287e-05 0.103344)
(-8.52919e-05 -8.5185e-05 0.103344)
(8.23843e-05 8.23689e-05 0.103682)
(-8.23464e-05 8.23522e-05 0.103682)
(8.23747e-05 -8.23293e-05 0.103682)
(-8.24097e-05 -8.23768e-05 0.103682)
(-0.000187086 1.10232e-05 0.102927)
(-0.000185278 0.000107594 0.100972)
(-0.000143135 2.71471e-05 0.103356)
(-0.000131444 7.49128e-05 0.103456)
(-0.000241756 1.07318e-05 0.10281)
(-0.000137064 8.16613e-05 0.100972)
(-0.000141524 2.69304e-05 0.103468)
(4.72316e-05 -1.71912e-05 0.0788094)
(2.65774e-05 -4.48324e-06 0.0783956)
(1.10381e-05 -0.000187019 0.102927)
(2.71642e-05 -0.000143012 0.103356)
(0.000107656 -0.000185278 0.100973)
(7.49437e-05 -0.000131347 0.103455)
(1.07635e-05 -0.000241732 0.10281)
(2.6942e-05 -0.000141412 0.103468)
(8.15446e-05 -0.000136967 0.10097)
(-0.00012342 -5.5968e-05 0.0976849)
(-5.60859e-05 -0.000123361 0.0976831)
(-7.16252e-05 -7.15045e-05 0.103432)
(-0.000106688 -3.51354e-05 0.0974632)
(-3.51997e-05 -0.000106668 0.0974609)
(-3.5992e-06 0.000152232 0.100089)
(7.99121e-06 0.000148355 0.0910894)
(-4.18358e-06 0.000198315 0.100161)
(1.88513e-06 0.000106542 0.0907872)