/*--------------------------------*- C++ -*----------------------------------*\
| =========                 |                                                 |
| \\      /  F ield         | OpenFOAM: The Open Source CFD Toolbox           |
|  \\    /   O peration     | Version:  v1906                                 |
|   \\  /    A nd           | Web:      www.OpenFOAM.com                      |
|    \\/     M anipulation  |                                                 |
\*---------------------------------------------------------------------------*/
FoamFile
{
    version     2.0;
    format      ascii;
    class       volScalarField;
    location    "600";
    object      k;
}
// * * * * * * * * * * * * * * * * * * * * * * * * * * * * * * * * * * * * * //

dimensions      [0 2 -2 0 0 0 0];


internalField   nonuniform List<scalar> 
42840
(
3.83832e-05
5.1108e-05
5.11087e-05
5.32894e-05
5.34862e-05
5.32887e-05
5.34407e-05
5.11054e-05
5.11062e-05
5.12916e-05
5.12922e-05
5.32985e-05
5.34303e-05
5.11056e-05
5.11052e-05
5.12916e-05
5.12913e-05
5.11079e-05
5.12941e-05
5.12939e-05
5.32884e-05
5.34305e-05
5.11078e-05
5.12948e-05
5.12938e-05
5.34416e-05
5.13539e-05
5.13538e-05
6.85089e-05
7.33539e-05
7.33803e-05
6.84826e-05
7.11149e-05
7.11409e-05
6.85143e-05
7.33605e-05
7.33855e-05
6.84857e-05
3.83842e-05
3.8387e-05
3.83874e-05
3.86987e-05
3.86997e-05
3.87025e-05
3.8703e-05
6.05228e-05
6.46918e-05
4.63268e-05
5.11712e-05
6.47227e-05
4.64065e-05
6.04742e-05
7.11132e-05
7.11396e-05
6.05215e-05
4.63282e-05
6.46927e-05
5.11719e-05
4.64079e-05
6.47241e-05
6.04728e-05
6.98616e-05
6.98732e-05
5.3344e-05
6.988e-05
6.98916e-05
6.9917e-05
6.99284e-05
7.11129e-05
7.11389e-05
7.11155e-05
7.11416e-05
6.98623e-05
6.98722e-05
5.33431e-05
6.98805e-05
6.98904e-05
7.11664e-05
7.11407e-05
7.1169e-05
7.11432e-05
5.33872e-05
6.99083e-05
6.99179e-05
6.98906e-05
6.99006e-05
6.85108e-05
7.33596e-05
7.33841e-05
6.84844e-05
6.05184e-05
6.46904e-05
4.63235e-05
5.11686e-05
6.47212e-05
4.64032e-05
6.04733e-05
6.05195e-05
6.46943e-05
4.63247e-05
5.11694e-05
6.47252e-05
4.64044e-05
6.04743e-05
6.85148e-05
7.34099e-05
7.33839e-05
6.85398e-05
6.85167e-05
7.34138e-05
7.33896e-05
6.85418e-05
6.05301e-05
5.12311e-05
6.47568e-05
4.65582e-05
6.47276e-05
4.6482e-05
6.05722e-05
6.05312e-05
5.12319e-05
6.4761e-05
4.65594e-05
6.47317e-05
4.64832e-05
6.05736e-05
6.98717e-05
6.98594e-05
5.3333e-05
6.98901e-05
6.98773e-05
7.11113e-05
7.11376e-05
7.11683e-05
7.11426e-05
5.33977e-05
6.99174e-05
6.99048e-05
6.99e-05
6.9888e-05
7.1165e-05
7.11391e-05
6.0523e-05
6.46947e-05
4.63255e-05
5.11687e-05
6.47257e-05
4.64053e-05
6.0474e-05
6.85119e-05
7.3354e-05
7.33804e-05
6.84831e-05
6.05207e-05
4.63256e-05
6.46893e-05
5.11684e-05
4.64052e-05
6.47195e-05
6.04719e-05
6.8518e-05
7.34156e-05
7.33894e-05
6.85455e-05
6.05309e-05
5.12314e-05
6.47612e-05
4.65603e-05
6.4732e-05
4.64841e-05
6.05771e-05
6.85156e-05
7.34098e-05
7.3384e-05
6.8543e-05
6.05287e-05
5.1231e-05
4.65602e-05
6.47552e-05
4.64841e-05
6.47265e-05
6.05749e-05
6.85127e-05
7.33581e-05
7.33845e-05
6.84846e-05
6.05199e-05
4.6327e-05
6.46908e-05
5.11711e-05
4.64066e-05
6.47214e-05
6.04749e-05
6.85102e-05
7.33561e-05
7.33806e-05
6.8484e-05
6.05309e-05
5.12338e-05
6.47585e-05
4.65614e-05
6.47291e-05
4.64853e-05
6.05769e-05
6.85167e-05
7.3414e-05
7.33881e-05
6.85437e-05
6.05314e-05
5.12336e-05
4.65615e-05
6.47571e-05
4.64854e-05
6.47281e-05
6.05736e-05
6.85161e-05
7.34102e-05
7.33861e-05
6.8541e-05
6.9865e-05
6.98627e-05
5.33365e-05
6.98842e-05
6.98812e-05
7.11139e-05
7.11399e-05
7.1167e-05
7.1141e-05
5.33955e-05
6.99114e-05
6.99087e-05
6.98932e-05
6.98911e-05
7.11674e-05
7.11416e-05
6.05223e-05
4.63283e-05
6.4696e-05
5.11709e-05
4.64079e-05
6.47266e-05
6.04736e-05
6.85105e-05
7.33563e-05
7.33827e-05
6.84825e-05
6.85128e-05
7.33591e-05
7.33855e-05
6.84847e-05
6.05297e-05
5.12344e-05
4.65628e-05
6.47599e-05
4.64867e-05
6.47301e-05
6.05754e-05
6.05304e-05
5.12335e-05
4.65628e-05
6.47623e-05
4.64868e-05
6.47332e-05
6.05763e-05
6.85148e-05
7.34122e-05
7.33863e-05
6.85413e-05
6.85169e-05
7.34151e-05
7.33892e-05
6.85437e-05
7.11131e-05
7.11391e-05
7.11159e-05
7.1142e-05
5.3388e-05
6.99075e-05
6.99191e-05
6.989e-05
6.99015e-05
7.11666e-05
7.11409e-05
7.11694e-05
7.11436e-05
4.66371e-05
6.47636e-05
6.05853e-05
7.34156e-05
6.85468e-05
6.47687e-05
7.34186e-05
7.11682e-05
7.1171e-05
7.17899e-05
7.15676e-05
7.15367e-05
6.8499e-05
7.15582e-05
7.15278e-05
7.17994e-05
7.16284e-05
7.33654e-05
7.96981e-05
7.97016e-05
7.16134e-05
7.1627e-05
7.97148e-05
7.3369e-05
7.97114e-05
7.16419e-05
7.17849e-05
6.84929e-05
7.15433e-05
7.15129e-05
7.15529e-05
7.15222e-05
7.17752e-05
7.1127e-05
7.11288e-05
7.17905e-05
7.1546e-05
7.15711e-05
6.85019e-05
7.15335e-05
7.15586e-05
7.18044e-05
7.16305e-05
7.33702e-05
7.97151e-05
7.97238e-05
7.16159e-05
7.16295e-05
7.97369e-05
7.33747e-05
7.97284e-05
7.1644e-05
7.17897e-05
6.84982e-05
7.15189e-05
7.15439e-05
7.15312e-05
7.15561e-05
7.17756e-05
7.11257e-05
7.11272e-05
9.49269e-05
7.34525e-05
7.34462e-05
7.34389e-05
7.34325e-05
9.49298e-05
7.40745e-05
6.51184e-05
6.98657e-05
7.31879e-05
6.51321e-05
7.32005e-05
7.40685e-05
7.41217e-05
6.51271e-05
6.98774e-05
7.32002e-05
6.51417e-05
7.32095e-05
7.41173e-05
7.40857e-05
7.3214e-05
6.9876e-05
6.51553e-05
6.51418e-05
7.32038e-05
7.40914e-05
7.41345e-05
7.32239e-05
6.98875e-05
6.51648e-05
6.51505e-05
7.32147e-05
7.41387e-05
9.49152e-05
7.34261e-05
7.34197e-05
7.34398e-05
7.34334e-05
9.49122e-05
7.41404e-05
6.52083e-05
7.32471e-05
6.99206e-05
7.41348e-05
6.52207e-05
7.32558e-05
7.41883e-05
6.52171e-05
7.32576e-05
6.99323e-05
7.41834e-05
6.52302e-05
7.32662e-05
9.49724e-05
7.34768e-05
7.34704e-05
9.49698e-05
7.34903e-05
7.34839e-05
7.11251e-05
7.11268e-05
7.11277e-05
7.11294e-05
9.49262e-05
7.34528e-05
7.34461e-05
7.34391e-05
7.34324e-05
9.49289e-05
7.40749e-05
6.5118e-05
6.98663e-05
7.31905e-05
7.31998e-05
6.51328e-05
7.40701e-05
7.41207e-05
6.51263e-05
6.98762e-05
7.31999e-05
7.32092e-05
6.51408e-05
7.4116e-05
7.40869e-05
7.32142e-05
6.98766e-05
6.51559e-05
7.32049e-05
7.40922e-05
6.51414e-05
7.41332e-05
7.32236e-05
6.98866e-05
6.51638e-05
7.32144e-05
7.41376e-05
6.51497e-05
9.49143e-05
7.34263e-05
7.34196e-05
7.344e-05
7.34333e-05
9.49114e-05
7.11544e-05
7.11527e-05
7.1157e-05
7.11553e-05
9.49434e-05
7.34518e-05
7.34451e-05
9.49407e-05
7.34654e-05
7.34587e-05
7.41198e-05
6.52001e-05
6.9904e-05
7.32437e-05
7.32332e-05
6.51864e-05
7.41252e-05
7.41661e-05
6.52078e-05
6.99142e-05
7.32523e-05
7.32432e-05
6.51946e-05
7.4171e-05
7.41091e-05
7.32195e-05
6.51642e-05
6.98945e-05
7.41036e-05
7.32289e-05
6.51783e-05
7.41545e-05
7.3229e-05
6.51725e-05
6.99044e-05
7.415e-05
7.32383e-05
6.51862e-05
9.4955e-05
7.3478e-05
7.34713e-05
7.34645e-05
7.34578e-05
9.49576e-05
7.17921e-05
7.15682e-05
7.15456e-05
6.85008e-05
7.15588e-05
7.15333e-05
7.18015e-05
7.16301e-05
7.33692e-05
7.97163e-05
7.9725e-05
7.16155e-05
7.16291e-05
7.97382e-05
7.33746e-05
7.97297e-05
7.16436e-05
7.1787e-05
6.84948e-05
7.15439e-05
7.15186e-05
7.15534e-05
7.15309e-05
7.17774e-05
7.18139e-05
7.15731e-05
7.15423e-05
6.85247e-05
7.18044e-05
7.15827e-05
7.15513e-05
7.16539e-05
7.33987e-05
7.97406e-05
7.16687e-05
7.97371e-05
7.16554e-05
7.97244e-05
7.33951e-05
7.16405e-05
7.97277e-05
7.18191e-05
6.85304e-05
7.15974e-05
7.15652e-05
7.18285e-05
7.1588e-05
7.15565e-05
7.1816e-05
7.15736e-05
7.15481e-05
6.85266e-05
7.18064e-05
7.15832e-05
7.15601e-05
7.1656e-05
7.34045e-05
7.97638e-05
7.97556e-05
7.16704e-05
7.16571e-05
7.97427e-05
7.33992e-05
7.16426e-05
7.97511e-05
7.18211e-05
6.85323e-05
7.1598e-05
7.15742e-05
7.15885e-05
7.15624e-05
7.18306e-05
9.49244e-05
7.3446e-05
7.34517e-05
7.34323e-05
7.3438e-05
9.49273e-05
7.41199e-05
6.51255e-05
6.98758e-05
7.31996e-05
7.32089e-05
6.51388e-05
7.4116e-05
7.40743e-05
6.51196e-05
6.98633e-05
7.31876e-05
6.51318e-05
7.32002e-05
7.40688e-05
7.41331e-05
7.32233e-05
6.9886e-05
6.51618e-05
7.32141e-05
6.51489e-05
7.4137e-05
7.40861e-05
7.32146e-05
6.9874e-05
6.51548e-05
6.51429e-05
7.32023e-05
7.40907e-05
9.49126e-05
7.34195e-05
7.34252e-05
7.34332e-05
7.3439e-05
9.49096e-05
7.11238e-05
7.11252e-05
7.11563e-05
7.11547e-05
9.49416e-05
7.3445e-05
7.34507e-05
9.4939e-05
7.34586e-05
7.34644e-05
7.41662e-05
6.5206e-05
6.99136e-05
7.3252e-05
6.51938e-05
7.32429e-05
7.41699e-05
7.41197e-05
6.51991e-05
6.99018e-05
7.32424e-05
7.32318e-05
6.51879e-05
7.41236e-05
7.41536e-05
7.32286e-05
6.51715e-05
6.99038e-05
6.51842e-05
7.41499e-05
7.32379e-05
7.41072e-05
7.32168e-05
6.51657e-05
6.98912e-05
7.41032e-05
7.32286e-05
6.51772e-05
9.49533e-05
7.34712e-05
7.3477e-05
7.34576e-05
7.34634e-05
9.49558e-05
7.11528e-05
7.11513e-05
7.17904e-05
7.15689e-05
7.15365e-05
6.84995e-05
7.15594e-05
7.15275e-05
7.17999e-05
7.16279e-05
7.33655e-05
7.96961e-05
7.97005e-05
7.16128e-05
7.16264e-05
7.97137e-05
7.33691e-05
7.97094e-05
7.16414e-05
7.17854e-05
6.84957e-05
7.15444e-05
7.15126e-05
7.1554e-05
7.15219e-05
7.17758e-05
7.18189e-05
7.15484e-05
7.15737e-05
6.85301e-05
7.18052e-05
7.15605e-05
7.1586e-05
7.16564e-05
7.34043e-05
7.97625e-05
7.16709e-05
7.97543e-05
7.16575e-05
7.97415e-05
7.34007e-05
7.1643e-05
7.97499e-05
7.18198e-05
6.85336e-05
7.15748e-05
7.1601e-05
7.18332e-05
7.15627e-05
7.15887e-05
7.18144e-05
7.15743e-05
7.1542e-05
6.85277e-05
7.18049e-05
7.15839e-05
7.15511e-05
7.16533e-05
7.33987e-05
7.97392e-05
7.97352e-05
7.16681e-05
7.16548e-05
7.97224e-05
7.33951e-05
7.16399e-05
7.97264e-05
7.18195e-05
6.85312e-05
7.15986e-05
7.1565e-05
7.15892e-05
7.15563e-05
7.18289e-05
7.17901e-05
7.15457e-05
7.15704e-05
6.85007e-05
7.15333e-05
7.15578e-05
7.18039e-05
7.16301e-05
7.33696e-05
7.97145e-05
7.97232e-05
7.16155e-05
7.1629e-05
7.97362e-05
7.33731e-05
7.97278e-05
7.16436e-05
7.17893e-05
6.84967e-05
7.15188e-05
7.15431e-05
7.15311e-05
7.15555e-05
7.17754e-05
7.17912e-05
7.15698e-05
7.15387e-05
6.85002e-05
7.1557e-05
7.15298e-05
7.18007e-05
7.16287e-05
7.33657e-05
7.96962e-05
7.97047e-05
7.16142e-05
7.16277e-05
7.97177e-05
7.33711e-05
7.97096e-05
7.16422e-05
7.17862e-05
6.84943e-05
7.15428e-05
7.1515e-05
7.15545e-05
7.15243e-05
7.17766e-05
7.18184e-05
7.15481e-05
7.15729e-05
6.85284e-05
7.18047e-05
7.15601e-05
7.15853e-05
7.16559e-05
7.34028e-05
7.97619e-05
7.97535e-05
7.16703e-05
7.1657e-05
7.97408e-05
7.33992e-05
7.16425e-05
7.97491e-05
7.18193e-05
6.85323e-05
7.15743e-05
7.16003e-05
7.15624e-05
7.15878e-05
7.18327e-05
7.18151e-05
7.15723e-05
7.15443e-05
6.85259e-05
7.18056e-05
7.15848e-05
7.15533e-05
7.16546e-05
7.3401e-05
7.97432e-05
7.97354e-05
7.1669e-05
7.16557e-05
7.97226e-05
7.33957e-05
7.16412e-05
7.97306e-05
7.18203e-05
6.85315e-05
7.15998e-05
7.15672e-05
7.15873e-05
7.15585e-05
7.18296e-05
9.49287e-05
7.34461e-05
7.34527e-05
7.34324e-05
7.3439e-05
9.49318e-05
7.41209e-05
6.51247e-05
6.987e-05
7.31962e-05
7.32089e-05
6.51361e-05
7.41151e-05
7.40763e-05
6.51201e-05
6.98669e-05
7.31904e-05
6.51344e-05
7.31998e-05
7.40707e-05
7.41323e-05
7.32233e-05
6.98793e-05
6.51591e-05
7.32108e-05
6.5148e-05
7.41378e-05
7.40879e-05
7.32142e-05
6.98771e-05
6.51575e-05
6.51434e-05
7.32049e-05
7.40933e-05
9.49172e-05
7.34196e-05
7.34262e-05
7.34334e-05
7.344e-05
9.4914e-05
7.11261e-05
7.11278e-05
7.11547e-05
7.11534e-05
9.49462e-05
7.34451e-05
7.34517e-05
9.49433e-05
7.34588e-05
7.34654e-05
7.41653e-05
6.52033e-05
6.99068e-05
7.32516e-05
6.51929e-05
7.32393e-05
7.41707e-05
7.41209e-05
6.52017e-05
6.99047e-05
7.32429e-05
7.32338e-05
6.51884e-05
7.41262e-05
7.41546e-05
7.32253e-05
6.51707e-05
6.98978e-05
6.51815e-05
7.4149e-05
7.32376e-05
7.41101e-05
7.32195e-05
6.51662e-05
6.9895e-05
7.41046e-05
7.32288e-05
6.51798e-05
9.49575e-05
7.34714e-05
7.3478e-05
7.34577e-05
7.34644e-05
9.49604e-05
7.11554e-05
7.11537e-05
7.17887e-05
7.15388e-05
7.15701e-05
6.84988e-05
7.15269e-05
7.15573e-05
7.18027e-05
7.16298e-05
7.33678e-05
7.96972e-05
7.9706e-05
7.16152e-05
7.16287e-05
7.97191e-05
7.33714e-05
7.97105e-05
7.16433e-05
7.17882e-05
6.84944e-05
7.15123e-05
7.15427e-05
7.15241e-05
7.15552e-05
7.17738e-05
7.17915e-05
7.15411e-05
7.15706e-05
6.85009e-05
7.15322e-05
7.1558e-05
7.1801e-05
7.16292e-05
7.33706e-05
7.97137e-05
7.97178e-05
7.16142e-05
7.16277e-05
7.97309e-05
7.33742e-05
7.97269e-05
7.16427e-05
7.17866e-05
6.84968e-05
7.15173e-05
7.15433e-05
7.15265e-05
7.15557e-05
7.17769e-05
7.18173e-05
7.15417e-05
7.15724e-05
6.85261e-05
7.18033e-05
7.15532e-05
7.15851e-05
7.16556e-05
7.34011e-05
7.97446e-05
7.97364e-05
7.167e-05
7.16567e-05
7.97236e-05
7.33975e-05
7.16422e-05
7.97319e-05
7.18177e-05
6.85303e-05
7.15675e-05
7.15998e-05
7.1556e-05
7.15872e-05
7.18316e-05
7.18155e-05
7.15467e-05
7.1573e-05
6.85285e-05
7.18059e-05
7.15556e-05
7.15857e-05
7.16546e-05
7.34039e-05
7.97565e-05
7.97526e-05
7.16695e-05
7.16562e-05
7.974e-05
7.34004e-05
7.16412e-05
7.97439e-05
7.18206e-05
6.85325e-05
7.15696e-05
7.16003e-05
7.1561e-05
7.15878e-05
7.18299e-05
7.11253e-05
7.1127e-05
7.11281e-05
7.11298e-05
9.49442e-05
7.34516e-05
7.34453e-05
9.49415e-05
7.34652e-05
7.34588e-05
7.41188e-05
6.51994e-05
6.99037e-05
7.32421e-05
7.41244e-05
6.51868e-05
7.32329e-05
7.41677e-05
6.5209e-05
6.99152e-05
7.32526e-05
7.41716e-05
6.51955e-05
7.32435e-05
7.41083e-05
7.32185e-05
6.51645e-05
6.98938e-05
7.41026e-05
6.51776e-05
7.3228e-05
7.41553e-05
7.32292e-05
6.51732e-05
6.99054e-05
7.41513e-05
6.51871e-05
7.32386e-05
9.49557e-05
7.34778e-05
7.34714e-05
9.49583e-05
7.34642e-05
7.34579e-05
7.11546e-05
7.11529e-05
7.11574e-05
7.11557e-05
7.16822e-05
7.97479e-05
7.34245e-05
7.16679e-05
7.97555e-05
7.18436e-05
6.85557e-05
7.16019e-05
7.15726e-05
7.18345e-05
7.16146e-05
7.15806e-05
7.34298e-05
7.11801e-05
7.11829e-05
3.12665e-05
3.12651e-05
3.84899e-05
3.13969e-05
3.13955e-05
2.22594e-05
2.21081e-05
6.58141e-05
5.93012e-05
5.93037e-05
5.32943e-05
5.9309e-05
5.93094e-05
6.58064e-05
6.59107e-05
5.94417e-05
5.94437e-05
5.34896e-05
6.59033e-05
5.94477e-05
5.94484e-05
6.58145e-05
5.93016e-05
5.93027e-05
5.32935e-05
5.93074e-05
5.93085e-05
6.58064e-05
6.58801e-05
5.34368e-05
5.94115e-05
5.94123e-05
5.94071e-05
5.94082e-05
6.58873e-05
6.58128e-05
5.93038e-05
5.93071e-05
5.3283e-05
5.9307e-05
5.93036e-05
6.58075e-05
6.58811e-05
5.34477e-05
5.94088e-05
5.94103e-05
5.94091e-05
5.94107e-05
6.58856e-05
6.58121e-05
5.93006e-05
5.93034e-05
5.329e-05
5.93054e-05
5.93024e-05
6.58066e-05
6.58806e-05
5.34467e-05
5.94086e-05
5.94116e-05
5.94086e-05
5.94121e-05
6.58858e-05
6.58803e-05
5.34378e-05
5.94125e-05
5.94142e-05
6.58869e-05
5.94081e-05
5.94077e-05
3.1267e-05
3.12658e-05
3.84909e-05
3.13974e-05
3.13962e-05
2.22596e-05
2.21082e-05
3.12703e-05
3.12695e-05
3.84937e-05
3.14006e-05
3.13998e-05
2.22632e-05
2.21118e-05
3.12708e-05
3.12693e-05
3.84941e-05
3.14012e-05
3.13997e-05
2.22632e-05
2.21118e-05
3.85956e-05
3.16532e-05
3.16519e-05
3.15263e-05
3.15249e-05
2.24105e-05
2.25602e-05
3.85966e-05
3.16537e-05
3.16525e-05
3.15268e-05
3.15256e-05
2.24107e-05
2.25603e-05
3.85994e-05
3.16569e-05
3.16561e-05
3.15301e-05
3.15292e-05
2.24143e-05
2.25639e-05
3.85998e-05
3.16575e-05
3.1656e-05
3.15305e-05
3.15291e-05
2.24143e-05
2.2564e-05
5.61401e-05
6.2227e-05
5.48495e-05
6.05028e-05
6.22078e-05
5.48473e-05
5.61336e-05
5.72146e-05
6.02239e-05
6.47041e-05
6.40855e-05
6.0233e-05
6.40994e-05
5.72111e-05
5.72476e-05
6.41217e-05
6.47107e-05
6.02632e-05
6.02547e-05
6.41079e-05
5.72508e-05
5.60917e-05
6.04945e-05
6.21821e-05
5.48026e-05
6.22013e-05
5.48033e-05
5.60985e-05
5.61382e-05
5.48496e-05
6.22233e-05
6.05016e-05
5.48449e-05
6.2204e-05
5.61332e-05
5.72131e-05
6.02246e-05
6.47055e-05
6.40799e-05
6.02336e-05
6.40947e-05
5.72094e-05
5.7246e-05
6.4117e-05
6.47115e-05
6.02638e-05
6.02553e-05
6.41026e-05
5.72492e-05
5.60911e-05
6.0493e-05
5.47986e-05
6.21783e-05
5.48035e-05
6.21975e-05
5.60961e-05
6.58318e-05
5.334e-05
5.93447e-05
5.93442e-05
5.93376e-05
5.93395e-05
6.58389e-05
6.58318e-05
5.33391e-05
5.93427e-05
5.9344e-05
6.58392e-05
5.93377e-05
5.93388e-05
6.58637e-05
5.33912e-05
5.93723e-05
5.93733e-05
6.58563e-05
5.93768e-05
5.93781e-05
5.61365e-05
6.22187e-05
5.48386e-05
6.05023e-05
6.22044e-05
5.48516e-05
5.61247e-05
5.72026e-05
6.0225e-05
6.47026e-05
6.40779e-05
6.4091e-05
6.02264e-05
5.72128e-05
5.72489e-05
6.41132e-05
6.47093e-05
6.02569e-05
6.41007e-05
6.02555e-05
5.7239e-05
5.60829e-05
6.04901e-05
6.21784e-05
5.48045e-05
6.21931e-05
5.47927e-05
5.60948e-05
5.6138e-05
6.22259e-05
5.48389e-05
6.05032e-05
6.22064e-05
5.48518e-05
5.61308e-05
5.72123e-05
6.02242e-05
6.47069e-05
6.40849e-05
6.40993e-05
6.02322e-05
5.72087e-05
5.72453e-05
6.41218e-05
6.47133e-05
6.02584e-05
6.41075e-05
5.72484e-05
6.02554e-05
5.60888e-05
6.04912e-05
6.21806e-05
5.48047e-05
6.22e-05
5.47935e-05
5.60957e-05
5.61664e-05
6.22298e-05
5.48943e-05
6.05459e-05
5.61777e-05
6.2244e-05
5.48815e-05
5.73205e-05
6.03149e-05
6.47458e-05
6.41562e-05
6.03144e-05
6.41448e-05
5.73098e-05
5.72741e-05
6.41226e-05
6.02849e-05
6.47393e-05
6.02864e-05
5.7285e-05
6.41352e-05
5.62178e-05
6.05572e-05
6.22685e-05
5.4923e-05
6.22547e-05
5.49374e-05
5.62066e-05
5.61716e-05
6.22323e-05
5.48952e-05
6.05471e-05
5.61791e-05
6.22511e-05
5.48825e-05
5.73167e-05
6.03184e-05
6.47496e-05
6.41648e-05
6.41516e-05
6.03158e-05
5.73183e-05
5.72842e-05
6.41298e-05
6.02857e-05
6.47433e-05
5.72817e-05
6.41437e-05
6.02879e-05
5.6219e-05
6.05584e-05
6.22754e-05
5.49239e-05
6.22578e-05
5.49382e-05
5.62112e-05
6.58326e-05
5.33489e-05
5.93394e-05
5.93413e-05
5.93411e-05
5.934e-05
6.58377e-05
6.58619e-05
5.33829e-05
5.93749e-05
5.93762e-05
5.93751e-05
6.58572e-05
5.93767e-05
5.61384e-05
6.22267e-05
5.48492e-05
6.05027e-05
6.2207e-05
5.48446e-05
5.61332e-05
5.72131e-05
6.02253e-05
6.47072e-05
6.40849e-05
6.40994e-05
6.02341e-05
5.72094e-05
5.72461e-05
6.41219e-05
6.47135e-05
6.02635e-05
6.41076e-05
6.02561e-05
5.72493e-05
5.60908e-05
6.04944e-05
6.21812e-05
5.47985e-05
6.22007e-05
5.4803e-05
5.60961e-05
5.61358e-05
5.48473e-05
6.22184e-05
6.05006e-05
5.48431e-05
6.2204e-05
5.61274e-05
5.72009e-05
6.02242e-05
6.4701e-05
6.40761e-05
6.4089e-05
6.02251e-05
5.72113e-05
5.72474e-05
6.41114e-05
6.47081e-05
6.02552e-05
6.40989e-05
5.72373e-05
6.02545e-05
5.60857e-05
6.04923e-05
5.47974e-05
6.21779e-05
5.48013e-05
6.21928e-05
5.6094e-05
5.61738e-05
6.22329e-05
5.4888e-05
6.05504e-05
5.61794e-05
6.22518e-05
5.48922e-05
5.73176e-05
6.03176e-05
6.475e-05
6.41652e-05
6.03158e-05
6.41514e-05
5.73204e-05
5.72854e-05
6.41297e-05
6.02858e-05
6.47438e-05
6.02902e-05
5.72826e-05
6.41437e-05
5.62193e-05
6.05582e-05
6.22767e-05
5.49352e-05
6.22579e-05
5.49314e-05
5.62136e-05
5.61683e-05
5.48863e-05
6.22294e-05
6.05483e-05
5.61766e-05
5.48905e-05
6.22438e-05
5.73185e-05
6.03159e-05
6.47444e-05
6.41547e-05
6.41429e-05
6.03109e-05
5.73088e-05
5.72724e-05
6.41208e-05
6.02838e-05
6.47377e-05
5.72835e-05
6.41334e-05
6.0286e-05
5.62166e-05
6.0556e-05
5.49333e-05
6.22681e-05
5.49296e-05
6.22543e-05
5.62081e-05
5.6139e-05
5.48404e-05
6.22204e-05
6.05038e-05
5.48531e-05
6.22063e-05
5.61262e-05
5.7204e-05
6.02256e-05
6.47029e-05
6.40798e-05
6.02269e-05
6.40917e-05
5.72144e-05
5.72503e-05
6.4114e-05
6.47097e-05
6.02573e-05
6.02561e-05
6.41023e-05
5.72403e-05
5.60847e-05
6.04918e-05
5.48065e-05
6.21805e-05
5.47949e-05
6.21949e-05
5.60975e-05
5.61744e-05
6.22335e-05
5.48899e-05
6.05503e-05
5.61808e-05
6.22522e-05
5.48927e-05
5.7319e-05
6.03203e-05
6.47471e-05
6.41649e-05
5.7322e-05
6.03151e-05
6.41519e-05
5.72869e-05
6.41303e-05
6.02842e-05
6.47408e-05
5.7284e-05
6.02919e-05
6.41435e-05
5.62204e-05
6.05582e-05
6.22769e-05
5.49354e-05
5.6214e-05
6.22584e-05
5.49325e-05
5.61682e-05
5.48959e-05
6.22317e-05
6.05474e-05
5.61799e-05
5.48835e-05
6.22458e-05
5.73218e-05
6.03154e-05
6.47461e-05
6.41573e-05
6.41461e-05
6.0315e-05
5.73111e-05
5.72754e-05
6.41245e-05
6.02855e-05
6.47395e-05
5.72864e-05
6.4136e-05
6.02868e-05
5.62199e-05
6.05585e-05
5.49252e-05
6.22702e-05
5.49387e-05
6.22566e-05
5.62084e-05
6.58321e-05
5.33409e-05
5.93381e-05
5.93413e-05
5.93416e-05
5.93387e-05
6.58373e-05
6.58616e-05
5.33842e-05
5.93745e-05
5.93773e-05
5.93744e-05
6.58568e-05
5.93771e-05
5.61396e-05
5.48495e-05
6.2223e-05
6.05023e-05
5.48451e-05
6.22085e-05
5.61314e-05
5.72062e-05
6.02295e-05
6.47079e-05
6.40845e-05
6.02306e-05
6.40973e-05
5.72166e-05
5.72528e-05
6.41198e-05
6.47148e-05
6.02611e-05
6.02601e-05
6.41072e-05
5.72427e-05
5.60896e-05
6.0494e-05
5.47992e-05
6.21824e-05
5.48035e-05
6.21974e-05
5.60977e-05
5.61736e-05
5.48882e-05
6.22298e-05
6.05488e-05
5.6179e-05
5.48925e-05
6.22484e-05
5.73174e-05
6.03208e-05
6.4748e-05
6.41602e-05
5.73204e-05
6.03156e-05
6.41464e-05
5.72853e-05
6.41247e-05
6.02848e-05
6.47421e-05
5.72824e-05
6.02924e-05
6.41388e-05
5.62186e-05
6.0557e-05
5.49354e-05
6.22731e-05
5.62131e-05
5.49316e-05
6.22546e-05
5.61722e-05
5.48883e-05
6.2234e-05
6.05498e-05
5.61804e-05
5.48926e-05
6.22483e-05
5.73245e-05
6.03207e-05
6.47513e-05
6.4163e-05
6.4151e-05
6.03195e-05
5.73136e-05
5.72778e-05
6.41291e-05
6.02895e-05
6.47447e-05
5.7289e-05
6.41417e-05
6.02907e-05
5.62204e-05
6.05577e-05
5.49354e-05
6.22726e-05
5.49316e-05
6.22589e-05
5.6212e-05
6.58632e-05
5.33919e-05
5.93723e-05
5.9374e-05
6.58562e-05
5.93781e-05
5.93788e-05
5.73442e-05
6.03433e-05
6.41671e-05
6.4774e-05
6.03421e-05
5.73569e-05
6.41774e-05
5.62463e-05
6.05994e-05
5.49824e-05
6.2281e-05
5.49662e-05
5.62584e-05
6.22934e-05
6.03459e-05
6.47793e-05
6.0345e-05
2.10345e-05
3.66864e-05
3.66895e-05
4.19518e-05
2.17929e-05
3.75923e-05
3.75954e-05
4.26758e-05
2.25696e-05
3.84723e-05
3.84754e-05
4.33745e-05
2.33607e-05
3.93253e-05
3.93281e-05
4.40447e-05
2.41624e-05
4.01504e-05
4.01532e-05
4.47007e-05
2.49708e-05
4.09472e-05
4.095e-05
4.53193e-05
2.57823e-05
4.17152e-05
4.17181e-05
4.59214e-05
2.65932e-05
4.24544e-05
4.24573e-05
4.64957e-05
2.74002e-05
4.31647e-05
4.31676e-05
4.70571e-05
2.82001e-05
4.38461e-05
4.3849e-05
4.75884e-05
2.89899e-05
4.44991e-05
4.45019e-05
4.80932e-05
2.97672e-05
4.51239e-05
4.51263e-05
4.85874e-05
3.05294e-05
4.57208e-05
4.57231e-05
4.90528e-05
3.12744e-05
4.62902e-05
4.62922e-05
4.9494e-05
3.20004e-05
4.68324e-05
4.68342e-05
4.99181e-05
3.27058e-05
4.73477e-05
4.73492e-05
5.03239e-05
3.33889e-05
4.78365e-05
4.78378e-05
5.07052e-05
3.40485e-05
4.82991e-05
4.83002e-05
5.10677e-05
3.46836e-05
4.87359e-05
4.87369e-05
5.14125e-05
3.52932e-05
4.91474e-05
4.91484e-05
5.1736e-05
3.58766e-05
4.9534e-05
4.95349e-05
5.20427e-05
3.64331e-05
4.9896e-05
4.98968e-05
5.23294e-05
3.69622e-05
5.0234e-05
5.02347e-05
5.25947e-05
3.74637e-05
5.05485e-05
5.05491e-05
5.28439e-05
3.79374e-05
5.08396e-05
5.08402e-05
5.30755e-05
4.1954e-05
4.24914e-05
3.66877e-05
3.66887e-05
3.73689e-05
3.73705e-05
4.19499e-05
4.24888e-05
3.66872e-05
3.66901e-05
3.73689e-05
3.73718e-05
3.6693e-05
3.73682e-05
3.73748e-05
4.19534e-05
4.24952e-05
3.66906e-05
3.73714e-05
3.73723e-05
4.24987e-05
4.26744e-05
4.32062e-05
3.75932e-05
3.75945e-05
3.82556e-05
3.82569e-05
4.26772e-05
4.31904e-05
3.75933e-05
3.75959e-05
3.82554e-05
3.82581e-05
3.75988e-05
3.82547e-05
3.8261e-05
4.26708e-05
4.31942e-05
3.75963e-05
3.82578e-05
3.82586e-05
4.31993e-05
4.33695e-05
4.38838e-05
3.84732e-05
3.84744e-05
3.91153e-05
3.91167e-05
4.33767e-05
4.3874e-05
3.84731e-05
3.84757e-05
3.9115e-05
3.91176e-05
3.84784e-05
3.91147e-05
3.91204e-05
4.33745e-05
4.38915e-05
3.84761e-05
3.91175e-05
3.91183e-05
4.38864e-05
4.40407e-05
4.45279e-05
3.93259e-05
3.93272e-05
3.99472e-05
3.99484e-05
4.40451e-05
4.45367e-05
3.93258e-05
3.93282e-05
3.99469e-05
3.99495e-05
3.93309e-05
3.99468e-05
3.99519e-05
4.4035e-05
4.45414e-05
3.9329e-05
3.99497e-05
3.99503e-05
4.45253e-05
4.46935e-05
4.51768e-05
4.01509e-05
4.01519e-05
4.07509e-05
4.07519e-05
4.46877e-05
4.51602e-05
4.01508e-05
4.01529e-05
4.07507e-05
4.07529e-05
4.01554e-05
4.07507e-05
4.07552e-05
4.46863e-05
4.51617e-05
4.0154e-05
4.07535e-05
4.07539e-05
4.51637e-05
4.53095e-05
4.57825e-05
4.09474e-05
4.09482e-05
4.1526e-05
4.15268e-05
4.53193e-05
4.5768e-05
4.09475e-05
4.09493e-05
4.15259e-05
4.15278e-05
4.09517e-05
4.1526e-05
4.153e-05
4.53195e-05
4.5768e-05
4.09504e-05
4.15288e-05
4.15288e-05
4.57692e-05
4.59095e-05
4.63638e-05
4.17153e-05
4.17159e-05
4.22723e-05
4.22728e-05
4.59154e-05
4.63497e-05
4.17155e-05
4.1717e-05
4.22722e-05
4.22739e-05
4.17192e-05
4.22723e-05
4.22758e-05
4.59236e-05
4.63617e-05
4.17181e-05
4.22753e-05
4.22748e-05
4.63573e-05
4.64897e-05
4.69248e-05
4.24543e-05
4.24548e-05
4.29897e-05
4.29901e-05
4.64976e-05
4.69174e-05
4.24544e-05
4.24558e-05
4.29895e-05
4.2991e-05
4.24579e-05
4.29898e-05
4.29929e-05
4.64978e-05
4.69218e-05
4.24569e-05
4.29928e-05
4.29919e-05
4.69167e-05
4.7045e-05
4.7463e-05
4.31646e-05
4.31648e-05
4.36784e-05
4.36785e-05
4.70482e-05
4.74564e-05
4.31645e-05
4.31658e-05
4.36781e-05
4.36794e-05
4.31678e-05
4.36785e-05
4.36812e-05
4.70507e-05
4.74543e-05
4.31668e-05
4.36814e-05
4.36801e-05
4.7448e-05
4.75762e-05
4.7979e-05
4.38462e-05
4.38461e-05
4.43384e-05
4.43383e-05
4.75801e-05
4.7962e-05
4.38459e-05
4.3847e-05
4.43379e-05
4.43391e-05
4.3849e-05
4.43385e-05
4.4341e-05
4.7583e-05
4.79742e-05
4.38479e-05
4.43414e-05
4.434e-05
4.79716e-05
4.80874e-05
4.84648e-05
4.4499e-05
4.44988e-05
4.497e-05
4.49699e-05
4.80954e-05
4.84598e-05
4.44986e-05
4.44996e-05
4.49692e-05
4.49704e-05
4.45016e-05
4.49704e-05
4.49725e-05
4.8093e-05
4.84573e-05
4.45006e-05
4.49728e-05
4.49716e-05
4.84589e-05
4.85795e-05
4.89365e-05
4.51235e-05
4.51234e-05
4.55736e-05
4.55736e-05
4.85825e-05
4.89346e-05
4.51229e-05
4.51239e-05
4.55728e-05
4.55737e-05
4.51261e-05
4.55742e-05
4.55761e-05
4.85821e-05
4.89422e-05
4.51252e-05
4.55765e-05
4.55752e-05
4.89307e-05
4.90492e-05
4.93883e-05
4.57202e-05
4.57201e-05
4.61496e-05
4.61496e-05
4.90469e-05
4.93828e-05
4.57196e-05
4.57203e-05
4.61488e-05
4.61495e-05
4.57227e-05
4.61504e-05
4.6152e-05
4.90441e-05
4.93873e-05
4.57219e-05
4.61525e-05
4.61512e-05
4.93868e-05
4.94935e-05
4.98209e-05
4.62893e-05
4.62893e-05
4.66982e-05
4.66984e-05
4.94944e-05
4.98111e-05
4.62887e-05
4.62892e-05
4.66974e-05
4.66981e-05
4.62917e-05
4.66993e-05
4.67006e-05
4.94926e-05
4.98179e-05
4.6291e-05
4.67012e-05
4.66999e-05
4.98155e-05
4.99143e-05
5.02306e-05
4.68311e-05
4.68313e-05
4.72199e-05
4.72202e-05
4.9919e-05
5.02234e-05
4.68305e-05
4.68309e-05
4.72191e-05
4.72197e-05
4.68336e-05
4.72214e-05
4.72224e-05
4.99178e-05
5.02241e-05
4.68329e-05
4.72229e-05
4.72218e-05
5.02233e-05
5.03186e-05
5.0618e-05
4.73462e-05
4.73464e-05
4.77151e-05
4.77155e-05
5.03213e-05
5.06102e-05
4.73456e-05
4.73459e-05
4.77144e-05
4.77148e-05
4.73487e-05
4.77167e-05
4.77175e-05
5.03213e-05
5.06107e-05
4.73481e-05
4.77181e-05
4.77169e-05
5.06179e-05
5.07022e-05
5.09837e-05
4.78347e-05
4.78351e-05
4.81839e-05
4.81845e-05
5.07055e-05
5.09818e-05
4.78343e-05
4.78344e-05
4.81834e-05
4.81837e-05
4.78372e-05
4.81858e-05
4.81864e-05
5.07077e-05
5.09791e-05
4.78366e-05
4.8187e-05
4.81859e-05
5.09846e-05
5.10655e-05
5.13327e-05
4.82971e-05
4.82977e-05
4.8627e-05
4.86277e-05
5.10692e-05
5.13297e-05
4.82968e-05
4.82969e-05
4.86266e-05
4.86268e-05
4.82997e-05
4.86291e-05
4.86296e-05
5.10694e-05
5.13282e-05
4.82992e-05
4.86301e-05
4.86291e-05
5.13335e-05
5.14104e-05
5.16594e-05
4.87338e-05
4.87344e-05
4.90447e-05
4.90453e-05
5.14133e-05
5.16582e-05
4.87335e-05
4.87336e-05
4.90443e-05
4.90445e-05
4.87364e-05
4.90469e-05
4.90472e-05
5.14133e-05
5.16573e-05
4.87359e-05
4.90478e-05
4.90467e-05
5.16611e-05
5.17344e-05
5.19687e-05
4.91452e-05
4.91459e-05
4.94373e-05
4.94381e-05
5.17375e-05
5.19676e-05
4.9145e-05
4.91451e-05
4.94371e-05
4.94372e-05
4.91478e-05
4.94395e-05
4.94399e-05
5.17377e-05
5.19685e-05
4.91473e-05
4.94405e-05
4.94394e-05
5.19683e-05
5.20406e-05
5.22588e-05
4.95317e-05
4.95324e-05
4.98053e-05
4.98061e-05
5.20423e-05
5.22594e-05
4.95317e-05
4.95316e-05
4.98052e-05
4.98053e-05
4.95342e-05
4.98077e-05
4.9808e-05
5.20427e-05
5.22611e-05
4.95338e-05
4.98085e-05
4.98075e-05
5.22606e-05
5.23282e-05
5.25263e-05
4.98936e-05
4.98943e-05
5.01492e-05
5.015e-05
5.23285e-05
5.25348e-05
4.98937e-05
4.98935e-05
5.01491e-05
5.01491e-05
4.98962e-05
5.01516e-05
5.01517e-05
5.23277e-05
5.2535e-05
4.98958e-05
5.01523e-05
5.01514e-05
5.25358e-05
5.25997e-05
5.27845e-05
5.02316e-05
5.02323e-05
5.04692e-05
5.04701e-05
5.2594e-05
5.27896e-05
5.02316e-05
5.02315e-05
5.04692e-05
5.04692e-05
5.02341e-05
5.04718e-05
5.04718e-05
5.25937e-05
5.27896e-05
5.02338e-05
5.04724e-05
5.04715e-05
5.27903e-05
5.28451e-05
5.30239e-05
5.05458e-05
5.05466e-05
5.0766e-05
5.0767e-05
5.28434e-05
5.30255e-05
5.05459e-05
5.05458e-05
5.0766e-05
5.0766e-05
5.05484e-05
5.07687e-05
5.07686e-05
5.28434e-05
5.30255e-05
5.05482e-05
5.07693e-05
5.07684e-05
5.30255e-05
5.30743e-05
5.32421e-05
5.08369e-05
5.08378e-05
5.104e-05
5.10409e-05
5.30756e-05
5.32318e-05
5.08371e-05
5.08369e-05
5.104e-05
5.104e-05
5.08395e-05
5.10426e-05
5.10425e-05
5.30757e-05
5.32423e-05
5.08393e-05
5.10434e-05
5.10423e-05
5.32428e-05
6.48244e-05
7.13591e-05
7.13931e-05
6.47279e-05
6.95346e-05
6.9561e-05
6.48279e-05
7.13653e-05
7.13994e-05
6.47323e-05
2.1034e-05
2.10375e-05
2.10388e-05
2.16014e-05
2.16009e-05
2.16046e-05
2.16059e-05
5.35344e-05
6.02143e-05
2.90711e-05
3.69152e-05
6.03306e-05
2.9316e-05
5.33372e-05
6.95329e-05
6.95596e-05
5.35343e-05
2.90763e-05
6.02135e-05
3.69184e-05
2.93211e-05
6.03345e-05
5.33379e-05
6.69237e-05
6.69331e-05
4.21428e-05
6.69833e-05
6.69955e-05
6.50517e-05
7.14428e-05
6.4956e-05
7.14774e-05
6.95905e-05
6.96178e-05
6.50542e-05
7.14493e-05
6.49609e-05
7.14839e-05
2.17924e-05
2.17961e-05
2.17974e-05
2.23738e-05
2.23734e-05
2.23773e-05
2.23785e-05
5.39982e-05
6.05032e-05
3.0049e-05
3.78147e-05
5.38074e-05
6.06157e-05
3.02927e-05
6.9589e-05
6.96165e-05
5.39975e-05
3.00543e-05
6.05026e-05
3.78178e-05
5.38088e-05
3.02978e-05
6.06192e-05
6.71e-05
6.71096e-05
4.28439e-05
6.71578e-05
6.717e-05
6.52716e-05
7.1528e-05
6.51789e-05
7.1563e-05
6.96486e-05
6.96766e-05
6.52731e-05
7.15346e-05
6.51836e-05
7.15694e-05
2.25691e-05
2.2573e-05
2.25742e-05
2.31617e-05
2.31614e-05
2.31653e-05
2.31665e-05
5.44423e-05
6.07814e-05
3.10205e-05
3.86882e-05
5.42595e-05
6.08902e-05
3.12618e-05
6.96471e-05
6.96754e-05
5.44413e-05
3.10256e-05
6.07812e-05
3.86911e-05
5.42604e-05
3.12667e-05
6.08932e-05
6.72712e-05
6.7281e-05
4.35363e-05
6.73268e-05
6.73387e-05
6.54838e-05
7.1614e-05
6.53949e-05
7.16492e-05
6.97084e-05