/*--------------------------------*- C++ -*----------------------------------*\
| =========                 |                                                 |
| \\      /  F ield         | OpenFOAM: The Open Source CFD Toolbox           |
|  \\    /   O peration     | Version:  v1906                                 |
|   \\  /    A nd           | Web:      www.OpenFOAM.com                      |
|    \\/     M anipulation  |                                                 |
\*---------------------------------------------------------------------------*/
FoamFile
{
    version     2.0;
    format      ascii;
    class       volScalarField;
    location    "600";
    object      p;
}
// * * * * * * * * * * * * * * * * * * * * * * * * * * * * * * * * * * * * * //

dimensions      [0 2 -2 0 0 0 0];


internalField   nonuniform List<scalar> 
42840
(
0.000781424
0.000781367
0.000781367
0.000782938
0.000747632
0.000782938
0.000753276
0.000781367
0.000781367
0.000754887
0.000754887
0.000782937
0.000753276
0.000781367
0.000781367
0.000754887
0.000754887
0.000781367
0.000754887
0.000754887
0.000782938
0.000753276
0.000781367
0.000754887
0.000754887
0.000753276
0.000746058
0.000746058
0.000770376
0.000783499
0.000770378
0.000783487
0.000783507
0.000770377
0.000770376
0.000783499
0.000770378
0.000783488
0.000781424
0.000781424
0.000781424
0.000754942
0.000754943
0.000754942
0.000754942
0.00077046
0.000783452
0.000781388
0.000772541
0.000770414
0.000772563
0.000783405
0.000783507
0.000770377
0.00077046
0.000781389
0.000783453
0.000772542
0.000772563
0.000770414
0.000783405
0.000783499
0.000783499
0.00077093
0.000770372
0.000770371
0.000748196
0.000748196
0.000783507
0.000770377
0.000783507
0.000770377
0.000783499
0.000783499
0.00077093
0.000770371
0.000770371
0.000752724
0.000765858
0.000752724
0.000765858
0.000765287
0.000752718
0.000752718
0.00076585
0.00076585
0.000770376
0.000783499
0.000770378
0.000783487
0.00077046
0.000783452
0.000781388
0.000772542
0.000770414
0.000772563
0.000783405
0.00077046
0.000783452
0.000781388
0.000772541
0.000770414
0.000772563
0.000783405
0.000765838
0.000752725
0.00076585
0.000752723
0.000765838
0.000752725
0.00076585
0.000752723
0.000765755
0.000763715
0.00075276
0.000754908
0.000765803
0.000763736
0.000752806
0.000765755
0.000763715
0.000752761
0.000754908
0.000765803
0.000763736
0.000752806
0.000783499
0.000783499
0.000770931
0.000770372
0.000770372
0.000783507
0.000770377
0.000752724
0.000765858
0.000765287
0.000752718
0.000752719
0.00076585
0.00076585
0.000752724
0.000765858
0.00077046
0.000783452
0.000781389
0.000772542
0.000770414
0.000772563
0.000783405
0.000770376
0.000783499
0.000770378
0.000783488
0.00077046
0.000781389
0.000783452
0.000772542
0.000772563
0.000770414
0.000783405
0.000765838
0.000752725
0.00076585
0.000752723
0.000765755
0.000763715
0.000752761
0.000754908
0.000765803
0.000763736
0.000752806
0.000765839
0.000752725
0.00076585
0.000752723
0.000765755
0.000763715
0.000754908
0.000752761
0.000763736
0.000765803
0.000752806
0.000770377
0.000783499
0.000770378
0.000783487
0.00077046
0.000781388
0.000783453
0.000772542
0.000772563
0.000770414
0.000783405
0.000770376
0.0007835
0.000770378
0.000783487
0.000765755
0.000763715
0.000752761
0.000754908
0.000765803
0.000763736
0.000752806
0.000765838
0.000752725
0.00076585
0.000752723
0.000765755
0.000763715
0.000754908
0.00075276
0.000763736
0.000765803
0.000752806
0.000765838
0.000752725
0.000765851
0.000752723
0.000783499
0.000783499
0.000770931
0.000770372
0.000770372
0.000783507
0.000770377
0.000752724
0.000765858
0.000765287
0.000752719
0.000752718
0.00076585
0.00076585
0.000752724
0.000765858
0.00077046
0.000781389
0.000783452
0.000772542
0.000772563
0.000770414
0.000783405
0.000770377
0.0007835
0.000770378
0.000783487
0.000770376
0.000783499
0.000770378
0.000783488
0.000765755
0.000763715
0.000754908
0.00075276
0.000763736
0.000765803
0.000752806
0.000765755
0.000763715
0.000754908
0.000752761
0.000763736
0.000765803
0.000752806
0.000765838
0.000752725
0.000765851
0.000752723
0.000765838
0.000752725
0.00076585
0.000752723
0.000783507
0.000770377
0.000783507
0.000770377
0.000765287
0.000752718
0.000752718
0.00076585
0.00076585
0.000752724
0.000765858
0.000752724
0.000765858
0.000746079
0.000748149
0.0007481
0.000748196
0.000748184
0.000748149
0.000748196
0.000748203
0.000748203
0.000774685
0.00077037
0.000770375
0.000774663
0.000774683
0.000774666
0.00077037
0.000779198
0.000779202
0.000783503
0.00077919
0.000783511
0.000774687
0.000770365
0.000774676
0.000774679
0.000770374
0.000779194
0.000779201
0.000783507
0.00078349
0.000779194
0.000779199
0.000783509
0.000779201
0.000774683
0.000774686
0.000770374
0.00077037
0.000774664
0.000774667
0.000774684
0.00077037
0.000779198
0.000779202
0.000783504
0.00077919
0.000783511
0.000774687
0.000770365
0.000774676
0.00077468
0.000770374
0.000779194
0.000779201
0.000783491
0.000783507
0.000779199
0.000779194
0.000783509
0.000779201
0.000774683
0.000774689
0.000770372
0.000770372
0.000774693
0.000774693
0.000770363
0.00077922
0.000783443
0.000779196
0.000783502
0.00077925
0.000779204
0.000783476
0.00077922
0.000783443
0.000779196
0.000783502
0.00077925
0.000779204
0.000783476
0.000774652
0.00077038
0.000774675
0.000770425
0.000774619
0.000774678
0.000770395
0.000774652
0.000770379
0.000774675
0.000770425
0.000774619
0.000774679
0.000770395
0.000779188
0.000783517
0.000783517
0.000779197
0.000779197
0.000783513
0.000743913
0.000748139
0.000748199
0.00074389
0.000748172
0.000743943
0.000743898
0.000743913
0.000748139
0.000748199
0.00074389
0.000748172
0.000743943
0.000743898
0.000743881
0.000748213
0.000748213
0.00074821
0.000743891
0.000743891
0.000779201
0.000774683
0.000779201
0.000774683
0.000774689
0.000770372
0.000770372
0.000774693
0.000774693
0.000770363
0.000779219
0.000783443
0.000779196
0.000783502
0.000779204
0.00077925
0.000783476
0.00077922
0.000783443
0.000779196
0.000783502
0.000779204
0.00077925
0.000783476
0.000774652
0.000770379
0.000774675
0.000770425
0.000774678
0.000770395
0.000774619
0.000774652
0.000770379
0.000774675
0.000770425
0.000774678
0.000770395
0.000774619
0.000779188
0.000783517
0.000783517
0.000779197
0.000779197
0.000783513
0.000757031
0.000761551
0.000757031
0.000761551
0.000761537
0.000765868
0.000765868
0.000765864
0.000761546
0.000761546
0.000757
0.000752772
0.000757024
0.000752726
0.000757027
0.000756967
0.000752742
0.000757
0.000752772
0.000757024
0.000752726
0.000757027
0.000756967
0.000752742
0.000761569
0.000765853
0.000765794
0.000761545
0.000765827
0.000761553
0.000761599
0.000761569
0.000765853
0.000765794
0.000761545
0.000765827
0.000761553
0.000761599
0.000757038
0.000752719
0.000752719
0.000757041
0.000757041
0.00075271
0.000774685
0.00077037
0.000770375
0.000774663
0.000774683
0.000774667
0.00077037
0.000779198
0.000779202
0.000783504
0.00077919
0.000783511
0.000774687
0.000770365
0.000774676
0.00077468
0.000770374
0.000779194
0.000779201
0.000783507
0.000783491
0.000779194
0.000779199
0.000783509
0.000761544
0.000765858
0.000765841
0.00076155
0.00076586
0.000761544
0.000761549
0.000757035
0.000757024
0.000752712
0.000752721
0.000757028
0.000761548
0.000765854
0.000761552
0.000765862
0.00076154
0.000757034
0.000757011
0.000752717
0.000752722
0.000752717
0.000757032
0.000757015
0.000761544
0.000765858
0.000765841
0.00076155
0.00076586
0.000761544
0.000761549
0.000757035
0.000757024
0.000752712
0.000757028
0.000752721
0.000761548
0.000765855
0.000761552
0.000765862
0.000761539
0.000757034
0.000757011
0.000752717
0.000752722
0.000757032
0.000757015
0.000752716
0.000774689
0.000770372
0.000770372
0.000774693
0.000774693
0.000770363
0.00077922
0.000783442
0.000779196
0.000783502
0.000779204
0.00077925
0.000783476
0.00077922
0.000783443
0.000779197
0.000783502
0.00077925
0.000779204
0.000783476
0.000774652
0.000770379
0.000774675
0.000770426
0.000774679
0.000774618
0.000770395
0.000774652
0.00077038
0.000774675
0.000770426
0.000774619
0.000774679
0.000770395
0.000779188
0.000783517
0.000783517
0.000779197
0.000779197
0.000783513
0.000779201
0.000774683
0.000757031
0.000761551
0.000761537
0.000765868
0.000765868
0.000765864
0.000761546
0.000761547
0.000757
0.000752772
0.000757023
0.000752726
0.000756966
0.000757027
0.000752742
0.000757
0.000752772
0.000757023
0.000752726
0.000757027
0.000756967
0.000752742
0.000761569
0.000765853
0.000765793
0.000761546
0.000761599
0.000765827
0.000761553
0.000761569
0.000765853
0.000765793
0.000761546
0.000765827
0.000761554
0.000761599
0.000757038
0.000752719
0.000752719
0.000757041
0.000757041
0.00075271
0.000757031
0.000761551
0.000774685
0.00077037
0.000770375
0.000774664
0.000774684
0.000774666
0.00077037
0.000779198
0.000779203
0.000783503
0.00077919
0.000783511
0.000774687
0.000770366
0.000774675
0.000774679
0.000770374
0.000779194
0.000779201
0.000783507
0.00078349
0.000779194
0.0007792
0.000783509
0.000761544
0.000765842
0.000765858
0.00076155
0.00076586
0.000761549
0.000761544
0.000757036
0.000757024
0.000752712
0.000752721
0.000757028
0.000761548
0.000765855
0.000761552
0.000765862
0.000761539
0.000757034
0.000757012
0.000752721
0.000752717
0.000752717
0.000757015
0.000757032
0.000761544
0.000765858
0.000765841
0.00076155
0.00076586
0.000761544
0.000761549
0.000757036
0.000757024
0.000752712
0.000757028
0.000752721
0.000761548
0.000765854
0.000761552
0.000765862
0.00076154
0.000757034
0.000757012
0.000752717
0.000752722
0.000757032
0.000757015
0.000752717
0.000774686
0.000770375
0.00077037
0.000774663
0.000774667
0.000774684
0.00077037
0.000779198
0.000779203
0.000783504
0.00077919
0.000783511
0.000774687
0.000770365
0.000774675
0.00077468
0.000770374
0.000779194
0.000779201
0.000783491
0.000783507
0.000779199
0.000779194
0.000783509
0.000774686
0.00077037
0.000770375
0.000774663
0.000774684
0.000774667
0.00077037
0.000779198
0.000779202
0.000783504
0.00077919
0.000783511
0.000774687
0.000770365
0.000774676
0.00077468
0.000770374
0.000779194
0.000779201
0.000783507
0.000783491
0.000779194
0.000779199
0.000783509
0.000761544
0.000765842
0.000765858
0.000761551
0.00076586
0.000761549
0.000761544
0.000757036
0.000757024
0.000752712
0.000757028
0.000752721
0.000761548
0.000765855
0.000761552
0.000765862
0.000761539
0.000757034
0.000757012
0.000752721
0.000752717
0.000757015
0.000757032
0.000752717
0.000761544
0.000765858
0.000765842
0.000761551
0.00076586
0.000761544
0.000761549
0.000757036
0.000757024
0.000752712
0.000757028
0.000752721
0.000761548
0.000765855
0.000761552
0.000765862
0.000761539
0.000757034
0.000757012
0.000752717
0.000752721
0.000757032
0.000757015
0.000752717
0.000774689
0.000770372
0.000770372
0.000774693
0.000774693
0.000770363
0.00077922
0.000783442
0.000779197
0.000783502
0.000779204
0.00077925
0.000783476
0.00077922
0.000783443
0.000779196
0.000783502
0.00077925
0.000779204
0.000783476
0.000774652
0.00077038
0.000774675
0.000770426
0.000774678
0.000774618
0.000770395
0.000774652
0.00077038
0.000774675
0.000770425
0.000774619
0.000774678
0.000770395
0.000779188
0.000783517
0.000783517
0.000779197
0.000779197
0.000783513
0.000779201
0.000774683
0.000757031
0.000761551
0.000761537
0.000765868
0.000765868
0.000765864
0.000761546
0.000761546
0.000757
0.000752772
0.000757023
0.000752727
0.000756966
0.000757027
0.000752742
0.000757
0.000752772
0.000757024
0.000752726
0.000757027
0.000756967
0.000752742
0.000761569
0.000765853
0.000765793
0.000761546
0.0007616
0.000765827
0.000761554
0.000761569
0.000765853
0.000765794
0.000761546
0.000765827
0.000761554
0.000761599
0.000757038
0.000752719
0.000752719
0.000757041
0.000757041
0.00075271
0.000757031
0.000761551
0.000774686
0.000770375
0.00077037
0.000774663
0.000774667
0.000774684
0.00077037
0.000779198
0.000779203
0.000783504
0.00077919
0.000783511
0.000774687
0.000770365
0.000774676
0.00077468
0.000770374
0.000779195
0.000779201
0.00078349
0.000783507
0.0007792
0.000779194
0.000783509
0.000774685
0.000770375
0.00077037
0.000774664
0.000774666
0.000774684
0.00077037
0.000779198
0.000779203
0.000783503
0.00077919
0.000783511
0.000774687
0.000770366
0.000774676
0.000774679
0.000770374
0.000779195
0.000779201
0.00078349
0.000783507
0.0007792
0.000779194
0.000783509
0.000761544
0.000765841
0.000765858
0.000761551
0.00076586
0.000761549
0.000761544
0.000757036
0.000757024
0.000752712
0.000757028
0.000752721
0.000761548
0.000765855
0.000761552
0.000765862
0.000761539
0.000757034
0.000757012
0.000752722
0.000752717
0.000757015
0.000757032
0.000752717
0.000761544
0.000765841
0.000765858
0.000761551
0.00076586
0.000761549
0.000761544
0.000757036
0.000757024
0.000752713
0.000757028
0.000752721
0.000761548
0.000765854
0.000761552
0.000765862
0.00076154
0.000757034
0.000757012
0.000752722
0.000752717
0.000757015
0.000757032
0.000752717
0.000779201
0.000774683
0.000779201
0.000774683
0.000761537
0.000765868
0.000765868
0.000765864
0.000761546
0.000761546
0.000757
0.000752772
0.000757024
0.000752726
0.000752742
0.000756967
0.000757027
0.000757
0.000752772
0.000757024
0.000752726
0.000752742
0.000756967
0.000757027
0.000761569
0.000765853
0.000765794
0.000761546
0.000765827
0.000761599
0.000761554
0.000761569
0.000765853
0.000765794
0.000761546
0.000765827
0.000761599
0.000761554
0.000757038
0.000752719
0.000752719
0.00075271
0.000757041
0.000757041
0.000757031
0.000761551
0.000757031
0.000761551
0.000743892
0.0007482
0.000743896
0.000748208
0.000743884
0.000743888
0.000743895
0.000748204
0.000748187
0.000748206
0.000743888
0.000743893
0.000743896
0.000743895
0.000743895
0.000781459
0.000781459
0.000772598
0.000772633
0.000772633
0.00077268
0.000781507
0.000779322
0.000783215
0.000783215
0.000779755
0.000779496
0.000779496
0.000783375
0.000744015
0.00074791
0.00074791
0.000744447
0.000748071
0.000744188
0.000744188
0.000779322
0.000783214
0.000783215
0.000779756
0.000779496
0.000779496
0.000783374
0.000756898
0.00075646
0.000753017
0.000753017
0.000756737
0.000756738
0.000752844
0.000779322
0.000783214
0.000783215
0.000779756
0.000779496
0.000779497
0.000783374
0.000756898
0.00075646
0.000753017
0.000753017
0.000756737
0.000756738
0.000752844
0.000779322
0.000783214
0.000783215
0.000779756
0.000779496
0.000779497
0.000783374
0.000756898
0.00075646
0.000753017
0.000753017
0.000756737
0.000756739
0.000752844
0.000756899
0.00075646
0.000753017
0.000753016
0.000752843
0.000756738
0.000756738
0.000781459
0.000781459
0.000772598
0.000772633
0.000772633
0.00077268
0.000781506
0.000781459
0.000781459
0.000772598
0.000772633
0.000772633
0.00077268
0.000781507
0.000781459
0.000781459
0.000772598
0.000772633
0.000772633
0.00077268
0.000781506
0.000763771
0.000754976
0.000754976
0.000763805
0.000763805
0.000763852
0.000755023
0.000763771
0.000754976
0.000754976
0.000763805
0.000763805
0.000763852
0.000755023
0.000763771
0.000754976
0.000754976
0.000763805
0.000763805
0.000763852
0.000755023
0.000763771
0.000754976
0.000754976
0.000763805
0.000763805
0.000763852
0.000755023
0.00077435
0.000770456
0.000770697
0.000774581
0.000774585
0.000774353
0.000770702
0.000779487
0.000783305
0.000779239
0.000783423
0.0007794
0.000779266
0.000783203
0.000774378
0.000770441
0.000774628
0.000770576
0.000774481
0.000774599
0.000770662
0.000779527
0.000779285
0.000783409
0.000783178
0.000779281
0.000779522
0.000783175
0.000774351
0.000770697
0.000770456
0.00077458
0.000774354
0.000774585
0.000770702
0.000779487
0.000783305
0.000779239
0.000783423
0.000779401
0.000779266
0.000783203
0.000774378
0.000770441
0.000774629
0.000770576
0.000774481
0.000774599
0.000770662
0.000779527
0.000779285
0.000783178
0.000783409
0.000779522
0.000779281
0.000783175
0.000774551
0.000774113
0.000770671
0.000770671
0.000774391
0.000774391
0.000770497
0.00077455
0.000774113
0.000770671
0.000770671
0.000770497
0.00077439
0.000774391
0.000761671
0.000762104
0.000765564
0.000765565
0.000765725
0.000761845
0.000761844
0.000774351
0.000770456
0.000770697
0.00077458
0.000774585
0.000774353
0.000770701
0.000779487
0.000783306
0.000779238
0.000783423
0.000779265
0.0007794
0.000783203
0.000774379
0.000770441
0.000774629
0.000770575
0.000774599
0.000774482
0.000770661
0.000779526
0.000779285
0.000783409
0.000783177
0.000779281
0.000779522
0.000783175
0.000774351
0.000770456
0.000770697
0.00077458
0.000774585
0.000774353
0.000770702
0.000779487
0.000783305
0.000779239
0.000783423
0.000779266
0.000779401
0.000783202
0.000774378
0.000770441
0.000774628
0.000770576
0.000774599
0.000770662
0.000774481
0.000779527
0.000779285
0.000783409
0.000783177
0.000779281
0.000779522
0.000783175
0.000761875
0.000765759
0.000765527
0.000761634
0.000765525
0.00076163
0.000761871
0.000756726
0.000752921
0.000756977
0.000752787
0.00075683
0.000756947
0.000753007
0.000761835
0.000765774
0.000765656
0.000761588
0.000761749
0.000765553
0.000761614
0.000756698
0.000756928
0.000752802
0.000753043
0.000756933
0.0007567
0.000753047
0.000761875
0.000765759
0.000765527
0.000761634
0.000765525
0.00076163
0.000761871
0.000756725
0.000752922
0.000756976
0.000752787
0.000756947
0.000756828
0.000753008
0.000761836
0.000765774
0.000765655
0.000761588
0.000765552
0.000761615
0.00076175
0.000756698
0.000756928
0.000752802
0.000753043
0.000756933
0.0007567
0.000753047
0.00077455
0.000774113
0.000770672
0.000770671
0.000774391
0.00077439
0.000770498
0.000761671
0.000762104
0.000765564
0.000765565
0.000761845
0.000765725
0.000761844
0.00077435
0.000770456
0.000770697
0.000774581
0.000774585
0.000774353
0.000770702
0.000779487
0.000783305
0.000779239
0.000783423
0.000779266
0.000779401
0.000783203
0.000774378
0.000770441
0.000774628
0.000770576
0.000774599
0.000774481
0.000770662
0.000779527
0.000779285
0.000783409
0.000783178
0.000779281
0.000779522
0.000783175
0.000774351
0.000770697
0.000770456
0.000774581
0.000774353
0.000774585
0.000770702
0.000779487
0.000783305
0.000779239
0.000783423
0.000779266
0.000779401
0.000783203
0.000774378
0.000770441
0.000774628
0.000770576
0.000774599
0.000770662
0.000774481
0.000779527
0.000779284
0.000783178
0.000783409
0.000779522
0.000779281
0.000783175
0.000761875
0.000765759
0.000765528
0.000761634
0.000765525
0.00076163
0.000761871
0.000756726
0.000752922
0.000756976
0.000752787
0.000756829
0.000756947
0.000753008
0.000761836
0.000765774
0.000765656
0.000761588
0.00076175
0.000765553
0.000761615
0.000756698
0.000756929
0.000752802
0.000753042
0.000756933
0.0007567
0.000753047
0.000761875
0.000765527
0.000765759
0.000761634
0.000765525
0.000761871
0.00076163
0.000756726
0.000752922
0.000756976
0.000752787
0.000756947
0.000756829
0.000753008
0.000761836
0.000765774
0.000765656
0.000761588
0.000765553
0.000761615
0.00076175
0.000756698
0.000756929
0.000753043
0.000752803
0.0007567
0.000756933
0.000753048
0.000774351
0.000770697
0.000770456
0.000774581
0.000774353
0.000774585
0.000770701
0.000779487
0.000783306
0.000779238
0.000783423
0.0007794
0.000779266
0.000783203
0.000774379
0.000770441
0.000774629
0.000770575
0.000774482
0.000774599
0.000770662
0.000779526
0.000779284
0.000783178
0.000783409
0.000779522
0.000779281
0.000783176
0.000761875
0.000765759
0.000765528
0.000761634
0.000765525
0.00076163
0.000761871
0.000756726
0.000752922
0.000756976
0.000752787
0.000753008
0.000756829
0.000756947
0.000761836
0.000765774
0.000765656
0.000761588
0.000765553
0.000761749
0.000761615
0.000756698
0.000756929
0.000752803
0.000753043
0.000753048
0.000756933
0.0007567
0.000761875
0.000765528
0.000765759
0.000761634
0.000765525
0.00076187
0.00076163
0.000756726
0.000752921
0.000756977
0.000752787
0.000756947
0.00075683
0.000753008
0.000761835
0.000765774
0.000765656
0.000761588
0.000765553
0.000761615
0.000761749
0.000756698
0.000756929
0.000753042
0.000752803
0.000756701
0.000756933
0.000753047
0.00077455
0.000774113
0.000770672
0.000770671
0.000774391
0.000774389
0.000770497
0.000761671
0.000762104
0.000765564
0.000765565
0.000761845
0.000765725
0.000761844
0.000774351
0.000770697
0.000770457
0.000774581
0.000774354
0.000774585
0.000770701
0.000779487
0.000783305
0.000779239
0.000783423
0.000779401
0.000779266
0.000783203
0.000774378
0.000770441
0.000774629
0.000770576
0.000774481
0.000774599
0.000770662
0.000779526
0.000779285
0.000783178
0.000783409
0.000779522
0.000779281
0.000783175
0.000761875
0.000765528
0.000765759
0.000761634
0.000765525
0.000761871
0.00076163
0.000756726
0.000752922
0.000756977
0.000752787
0.000753008
0.000756829
0.000756947
0.000761836
0.000765774
0.000765656
0.000761588
0.000765553
0.00076175
0.000761615
0.000756698
0.000756928
0.000753042
0.000752803
0.000753047
0.000756701
0.000756933
0.000761875
0.000765528
0.000765759
0.000761634
0.000765525
0.00076187
0.00076163
0.000756726
0.000752922
0.000756977
0.000752788
0.000756947
0.000756829
0.000753008
0.000761836
0.000765774
0.000765656
0.000761588
0.000765553
0.000761615
0.00076175
0.000756698
0.000756929
0.000753042
0.000752803
0.000756701
0.000756933
0.000753047
0.000761671
0.000762104
0.000765565
0.000765565
0.000765725
0.000761844
0.000761844
0.000744179
0.000748001
0.000748119
0.000743932
0.000744093
0.000747897
0.000743959
0.000744218
0.000743977
0.000747872
0.000748104
0.000744214
0.00074787
0.000743974
0.000748001
0.000743932
0.000744093
0.00166582
0.00166574
0.00166574
0.00166731
0.00163001
0.00162993
0.00162993
0.00163149
0.00159426
0.00159418
0.00159418
0.00159575
0.00155859
0.0015585
0.0015585
0.00156006
0.00152297
0.00152288
0.00152288
0.00152444
0.00148741
0.00148731
0.00148731
0.00148887
0.00145189
0.0014518
0.0014518
0.00145336
0.00141643
0.00141633
0.00141633
0.00141789
0.001381
0.0013809
0.0013809
0.00138246
0.00134562
0.00134551
0.00134551
0.00134707
0.00131027
0.00131016
0.00131016
0.00131172
0.00127494
0.00127484
0.00127484
0.00127639
0.00123964
0.00123954
0.00123954
0.0012411
0.00120436
0.00120427
0.00120427
0.00120582
0.0011691
0.00116901
0.00116901
0.00117057
0.00113386
0.00113377
0.00113377
0.00113533
0.00109862
0.00109854
0.00109854
0.0011001
0.0010634
0.00106332
0.00106332
0.00106487
0.00102817
0.0010281
0.0010281
0.00102965
0.00099295
0.000992874
0.000992874
0.000994434
0.000957722
0.00095765
0.000957649
0.000959211
0.000922488
0.000922418
0.000922418
0.000923981
0.000887244
0.000887178
0.000887178
0.000888742
0.000851988
0.000851924
0.000851925
0.000853491
0.000816715
0.000816655
0.000816655
0.000818224
0.00166731
0.00163723
0.00166574
0.00166574
0.00163887
0.00163887
0.00166731
0.00163723
0.00166574
0.00166574
0.00163887
0.00163887
0.00166574
0.00163887
0.00163887
0.00166731
0.00163723
0.00166574
0.00163887
0.00163887
0.00163723
0.00163149
0.00160147
0.00162993
0.00162993
0.00160311
0.00160311
0.00163149
0.00160147
0.00162993
0.00162993
0.00160311
0.00160311
0.00162993
0.00160311
0.00160311
0.00163149
0.00160147
0.00162993
0.00160311
0.00160311
0.00160147
0.00159575
0.00156578
0.00159418
0.00159418
0.00156741
0.00156741
0.00159575
0.00156578
0.00159418
0.00159418
0.00156741
0.00156741
0.00159418
0.00156741
0.00156741
0.00159575
0.00156578
0.00159418
0.00156741
0.00156741
0.00156578
0.00156006
0.00153014
0.0015585
0.0015585
0.00153178
0.00153178
0.00156006
0.00153014
0.0015585
0.0015585
0.00153178
0.00153178
0.0015585
0.00153178
0.00153178
0.00156006
0.00153014
0.0015585
0.00153178
0.00153178
0.00153014
0.00152444
0.00149457
0.00152288
0.00152288
0.0014962
0.0014962
0.00152444
0.00149457
0.00152288
0.00152288
0.0014962
0.0014962
0.00152288
0.0014962
0.0014962
0.00152444
0.00149457
0.00152288
0.0014962
0.0014962
0.00149457
0.00148887
0.00145904
0.00148731
0.00148731
0.00146067
0.00146067
0.00148887
0.00145904
0.00148731
0.00148731
0.00146067
0.00146067
0.00148731
0.00146067
0.00146067
0.00148887
0.00145904
0.00148731
0.00146067
0.00146067
0.00145904
0.00145336
0.00142357
0.0014518
0.0014518
0.00142519
0.00142519
0.00145336
0.00142357
0.0014518
0.0014518
0.00142519
0.00142519
0.0014518
0.00142519
0.00142519
0.00145336
0.00142357
0.0014518
0.00142519
0.00142519
0.00142357
0.00141789
0.00138813
0.00141633
0.00141633
0.00138976
0.00138976
0.00141789
0.00138813
0.00141633
0.00141633
0.00138976
0.00138976
0.00141633
0.00138976
0.00138976
0.00141789
0.00138813
0.00141633
0.00138976
0.00138976
0.00138813
0.00138246
0.00135274
0.0013809
0.0013809
0.00135436
0.00135436
0.00138246
0.00135274
0.0013809
0.0013809
0.00135436
0.00135436
0.0013809
0.00135436
0.00135436
0.00138246
0.00135274
0.0013809
0.00135436
0.00135436
0.00135274
0.00134707
0.00131738
0.00134551
0.00134551
0.001319
0.001319
0.00134707
0.00131738
0.00134551
0.00134551
0.001319
0.001319
0.00134551
0.001319
0.001319
0.00134707
0.00131738
0.00134551
0.001319
0.001319
0.00131738
0.00131172
0.00128205
0.00131016
0.00131016
0.00128366
0.00128366
0.00131172
0.00128205
0.00131016
0.00131016
0.00128366
0.00128366
0.00131016
0.00128366
0.00128366
0.00131172
0.00128205
0.00131016
0.00128366
0.00128366
0.00128205
0.00127639
0.00124675
0.00127484
0.00127484
0.00124836
0.00124836
0.00127639
0.00124675
0.00127484
0.00127484
0.00124836
0.00124836
0.00127484
0.00124836
0.00124836
0.00127639
0.00124675
0.00127484
0.00124836
0.00124836
0.00124675
0.0012411
0.00121147
0.00123954
0.00123954
0.00121308
0.00121308
0.0012411
0.00121147
0.00123954
0.00123954
0.00121308
0.00121308
0.00123954
0.00121308
0.00121308
0.0012411
0.00121147
0.00123954
0.00121308
0.00121308
0.00121147
0.00120582
0.00117621
0.00120427
0.00120427
0.00117782
0.00117782
0.00120582
0.00117621
0.00120427
0.00120427
0.00117782
0.00117782
0.00120427
0.00117782
0.00117782
0.00120582
0.00117621
0.00120427
0.00117782
0.00117782
0.00117621
0.00117057
0.00114096
0.00116901
0.00116901
0.00114258
0.00114258
0.00117057
0.00114096
0.00116901
0.00116901
0.00114258
0.00114258
0.00116901
0.00114258
0.00114258
0.00117057
0.00114096
0.00116901
0.00114258
0.00114258
0.00114096
0.00113533
0.00110573
0.00113377
0.00113377
0.00110735
0.00110735
0.00113533
0.00110573
0.00113377
0.00113377
0.00110735
0.00110735
0.00113377
0.00110735
0.00110735
0.00113533
0.00110573
0.00113377
0.00110735
0.00110735
0.00110573
0.0011001
0.00107051
0.00109854
0.00109854
0.00107212
0.00107212
0.0011001
0.00107051
0.00109854
0.00109854
0.00107212
0.00107212
0.00109854
0.00107212
0.00107212
0.0011001
0.00107051
0.00109854
0.00107212
0.00107212
0.00107051
0.00106487
0.00103529
0.00106332
0.00106332
0.0010369
0.0010369
0.00106487
0.00103529
0.00106332
0.00106332
0.0010369
0.0010369
0.00106332
0.0010369
0.0010369
0.00106487
0.00103529
0.00106332
0.0010369
0.0010369
0.00103529
0.00102965
0.00100007
0.0010281
0.0010281
0.00100168
0.00100168
0.00102965
0.00100007
0.0010281
0.0010281
0.00100168
0.00100168
0.0010281
0.00100168
0.00100168
0.00102965
0.00100007
0.0010281
0.00100168
0.00100168
0.00100007
0.000994434
0.000964845
0.000992874
0.000992874
0.000966456
0.000966456
0.000994434
0.000964845
0.000992874
0.000992874
0.000966456
0.000966456
0.000992874
0.000966456
0.000966456
0.000994434
0.000964845
0.000992874
0.000966456
0.000966456
0.000964844
0.000959211
0.000929615
0.00095765
0.00095765
0.000931227
0.000931227
0.00095921
0.000929616
0.00095765
0.000957649
0.000931227
0.000931227
0.00095765
0.000931227
0.000931227
0.00095921
0.000929615
0.00095765
0.000931226
0.000931226
0.000929615
0.000923981
0.000894378
0.000922418
0.000922418
0.000895989
0.000895989
0.000923981
0.000894378
0.000922418
0.000922418
0.000895989
0.000895989
0.000922418
0.000895989
0.000895989
0.000923981
0.000894378
0.000922418
0.000895989
0.000895988
0.000894377
0.000888742
0.000859128
0.000887178
0.000887178
0.000860739
0.000860739
0.000888742
0.000859128
0.000887178
0.000887178
0.000860739
0.000860739
0.000887178
0.000860739
0.000860739
0.000888742
0.000859128
0.000887177
0.000860739
0.000860739
0.000859128
0.000853491
0.000823863
0.000851924
0.000851924
0.000825474
0.000825474
0.000853491
0.000823863
0.000851924
0.000851924
0.000825474
0.000825474
0.000851924
0.000825474
0.000825474
0.000853491
0.000823863
0.000851925
0.000825474
0.000825474
0.000823863
0.000818224
0.00078858
0.000816655
0.000816655
0.000790191
0.000790191
0.000818223
0.00078858
0.000816655
0.000816655
0.000790191
0.000790191
0.000816655
0.000790191
0.000790191
0.000818224
0.00078858
0.000816655
0.000790191
0.000790191
0.000788579
0.00165447
0.00166775
0.00165445
0.00166776
0.00166776
0.00165444
0.00165447
0.00166776
0.00165444
0.00166776
0.00166582
0.00166582
0.00166582
0.00163895
0.00163895
0.00163895
0.00163895
0.00165461
0.00166772
0.00166579
0.00165678
0.00165451
0.00165683
0.0016677
0.00166776
0.00165444
0.00165461
0.00166579
0.00166772
0.00165678
0.00165683
0.00165451
0.0016677
0.00166776
0.00166776
0.00165513
0.00165445
0.00165445
0.00161868
0.00163194
0.00163195
0.00161866
0.00163195
0.00161865
0.00161868
0.00163194
0.00163195
0.00161866
0.00163001
0.00163001
0.00163001
0.00160319
0.00160319
0.00160319
0.00160319
0.00161881
0.00163191
0.00162997
0.00162098
0.00163189
0.00161873
0.00162103
0.00163195
0.00161865
0.00161881
0.00162997
0.00163191
0.00162098
0.00163189
0.00162103
0.00161873
0.00163195
0.00163195
0.00161934
0.00161866
0.00161866
0.00158296
0.0015962
0.0015962
0.00158294
0.00159621
0.00158294
0.00158296
0.0015962
0.0015962
0.00158294
0.00159426
0.00159426
0.00159426
0.0015675
0.0015675
0.0015675
0.0015675
0.00158309
0.00159617
0.00159423
0.00158525
0.00159614
0.00158301
0.0015853
0.00159621
0.00158294
0.00158309
0.00159423
0.00159617
0.00158525
0.00159614
0.0015853
0.00158301
0.00159621
0.00159621
0.00158361
0.00158294
0.00158294
0.0015473
0.00156052
0.00156053
0.00154729
0.00156053
0.00154728
0.0015473
0.00156052
0.00156053
0.00154729
0.00155859
0.00155859
0.00155859
0.00153187
0.00153187
0.00153187
0.00153187
0.00154743
0.00156049
0.00155855
0.00154959
0.00156046
0.00154735
0.00154963
0.00156053
0.00154728
0.00154743
0.00155855
0.00156049
0.00154959
0.00156046
0.00154963
0.00154735
0.00156053
0.00156053
0.00154795
0.00154729
0.00154729
0.00151171
0.00152491
0.00152491
0.00151169
0.00152491
0.00151169
0.0015117
0.00152491
0.00152491
0.00151169
0.00152297
0.00152297
0.00152297
0.00149629
0.00149629
0.00149629
0.00149629
0.00151183
0.00152487
0.00152292
0.00151398
0.00152484
0.00151175
0.00151403
0.00152491