/*--------------------------------*- C++ -*----------------------------------*\
| =========                 |                                                 |
| \\      /  F ield         | OpenFOAM: The Open Source CFD Toolbox           |
|  \\    /   O peration     | Version:  v1906                                 |
|   \\  /    A nd           | Web:      www.OpenFOAM.com                      |
|    \\/     M anipulation  |                                                 |
\*---------------------------------------------------------------------------*/
FoamFile
{
    version     2.0;
    format      ascii;
    class       surfaceScalarField;
    location    "600";
    object      phi;
}
// * * * * * * * * * * * * * * * * * * * * * * * * * * * * * * * * * * * * * //

dimensions      [0 3 -1 0 0 0 0];
oriented        oriented;


internalField   nonuniform List<scalar> 
123680
(
1.19319e-07
1.19716e-07
-7.11335e-08
-7.112e-08
0.00118432
-0.00118442
-1.19694e-06
-1.19567e-07
-4.87026e-08
0.0011323
-2.34287e-07
1.24129e-06
2.72173e-07
9.112e-07
-2.12681e-07
2.6643e-07
-8.53006e-07
-0.00113233
-1.19149e-06
-1.19633e-07
-4.86544e-08
0.00113194
-2.343e-07
1.23581e-06
2.72191e-07
9.11043e-07
-2.1538e-07
2.69149e-07
-8.52881e-07
-0.00113196
1.22559e-06
1.19163e-06
-1.98272e-07
-2.03576e-07
0.000268069
-0.000270084
-0.00027009
1.22519e-06
1.19123e-06
-1.98096e-07
-2.03379e-07
0.000268075
1.23095e-06
1.19433e-06
-1.9571e-07
-2.03504e-07
0.000268076
-0.000270102
-1.27513e-06
-1.2385e-06
-0.00026808
2.39173e-07
2.47092e-07
0.000270107
-4.85971e-08
0.00113147
-2.39813e-07
1.27522e-06
2.77554e-07
9.11147e-07
-2.12706e-07
2.66372e-07
-8.53028e-07
-0.00113149
-1.23648e-06
-1.19331e-07
-4.84206e-08
0.00113191
-2.42707e-07
1.28068e-06
2.80342e-07
9.16684e-07
-2.15515e-07
2.69164e-07
-8.58535e-07
-0.00113194
-1.21365e-07
-0.00113142
-4.9447e-08
-1.23063e-06
2.77463e-07
-2.39624e-07
-8.52703e-07
2.66323e-07
-2.12483e-07
9.11152e-07
0.00113139
1.28058e-06
-1.21382e-07
-0.00113186
-4.92718e-08
-1.23617e-06
2.80259e-07
-2.42509e-07
-8.58212e-07
2.69108e-07
-2.15285e-07
9.16695e-07
0.00113184
-1.98388e-07
-2.00858e-07
0.000268097
-0.000270131
-1.2412e-06
-0.000268101
2.41994e-07
2.44306e-07
0.000270137
-4.86344e-08
0.00113258
-2.37197e-07
1.23861e-06
2.7503e-07
9.13996e-07
-2.15437e-07
2.6925e-07
-8.5568e-07
-0.0011326
-1.23103e-06
-1.19322e-07
-4.84684e-08
0.00113157
-2.42696e-07
1.27524e-06
2.80356e-07
9.13812e-07
-2.15438e-07
2.69095e-07
-8.55698e-07
-0.00113159
-1.21792e-07
-0.00113253
-4.94312e-08
-1.19402e-06
2.74934e-07
-2.37007e-07
-8.55367e-07
2.69199e-07
-2.15204e-07
9.14003e-07
0.0011325
1.27513e-06
-1.21374e-07
-0.00113152
-4.9316e-08
-1.23072e-06
2.80259e-07
-2.42505e-07
-8.55379e-07
2.69047e-07
-2.152e-07
9.13819e-07
0.0011315
-1.19353e-07
-4.8412e-08
0.00113136
-2.37043e-07
1.26978e-06
2.74743e-07
9.11153e-07
-2.1269e-07
2.66363e-07
-8.53047e-07
-0.00113139
-1.21632e-07
-0.00113225
-4.95207e-08
-1.19663e-06
2.72081e-07
-2.34092e-07
-8.52685e-07
2.66383e-07
9.11208e-07
-2.12456e-07
0.00113223
1.26967e-06
0.00113129
-1.21384e-07
-0.00113131
-4.92699e-08
-1.22527e-06
2.74642e-07
-2.36846e-07
-8.52719e-07
2.66314e-07
-2.12468e-07
9.13826e-07
-1.95766e-07
-2.03426e-07
0.000268056
-0.000270079
-1.23571e-06
-0.00026806
2.39329e-07
2.46872e-07
0.000270085
-1.19676e-07
-4.85885e-08
0.00113247
-2.34427e-07
1.23592e-06
2.72282e-07
9.11352e-07
-2.15423e-07
2.69208e-07
-8.53066e-07
-0.0011325
-1.21666e-07
-0.00113189
-4.94781e-08
-1.19118e-06
2.72096e-07
-2.34109e-07
-8.52502e-07
2.69071e-07
9.11104e-07
-2.15179e-07
0.00113186
1.23581e-06
0.0011324
-1.21715e-07
-0.00113242
-4.94319e-08
-1.19132e-06
2.72187e-07
-2.34224e-07
-8.52755e-07
2.69165e-07
-2.15209e-07
9.11352e-07
-0.000268073
2.41754e-07
2.47061e-07
-4.95563e-08
-2.3681e-07
1.26966e-06
2.74615e-07
9.13816e-07
-2.12405e-07
2.66287e-07
-8.55297e-07
-1.22054e-07
-2.34162e-07
1.2358e-06
2.72158e-07
-2.15146e-07
2.69125e-07
-1.22396e-07
-4.97104e-08
9.11345e-07
-8.52665e-07
-1.38855e-10
-7.01778e-08
0.000229293
3.21293e-08
2.18754e-09
-0.000229257
-5.1673e-09
2.24586e-08
0.000193525
-3.62375e-09
-0.000193538
6.85667e-09
-4.36545e-08
0.000193578
3.27159e-09
-0.000193545
1.05064e-10
2.87283e-08
0.000229238
-1.32106e-08
9.28951e-10
-0.000229254
5.15783e-09
1.11857e-08
9.79803e-05
-9.79966e-05
-6.75995e-09
-2.00686e-08
9.80176e-05
-9.79908e-05
-7.02657e-08
-2.03587e-10
0.000229322
2.15083e-09
3.00784e-08
-0.000229283
-5.18612e-09
2.46737e-08
0.000193545
-4.12111e-09
-0.000193561
6.78522e-09
-4.59871e-08
0.000193601
3.95403e-09
-0.000193565
2.88111e-08
2.38471e-10
0.000229264
8.74099e-10
-1.11547e-08
-0.000229283
-7.09946e-08
-7.10991e-08
0.00118432
-0.00118442
-7.10856e-08
-7.11309e-08
0.0011839
-0.001184
-7.10989e-08
-7.11384e-08
0.00118413
-0.00118423
-0.00118413
-7.36187e-08
-7.35913e-08
0.00118404
-0.00118413
-7.34782e-08
-7.35826e-08
0.00118403
-0.00118371
-7.35482e-08
-7.35956e-08
0.00118362
-0.00118394
-7.35665e-08
-7.36283e-08
0.00118384
7.01749e-08
-1.67137e-09
0.000250197
4.05606e-09
-1.93107e-07
-0.000250076
-9.72244e-09
-2.46744e-08
6.64394e-08
0.0002454
4.05331e-09
-0.000245436
0.00115244
3.54126e-09
-1.40076e-07
1.00835e-06
-7.57693e-07
8.30686e-07
-9.36863e-07
-0.00115249
-4.89804e-08
1.24127e-06
0.00113228
-1.20281e-07
-8.52882e-07
2.66416e-07
-2.126e-07
9.11208e-07
-1.19683e-06
2.72144e-07
-2.34211e-07
2.07288e-08
4.59068e-08
0.000245474
-1.66858e-08
-0.000245419
-1.05031e-07
-3.79594e-09
0.00115239
-1.41588e-07
-9.36621e-07
8.30785e-07
-7.57443e-07
1.00844e-06
-2.87549e-08
1.59549e-09
0.000250063
1.94752e-09
1.32646e-07
-0.00025017
5.18988e-09
1.34326e-08
9.79615e-05
-9.79801e-05
-6.81483e-09
-2.22924e-08
9.80011e-05
-9.7972e-05
-1.32306e-09
7.00902e-08
0.000250159
-1.93024e-07
4.07987e-09
-0.000250039
0.00115213
3.59993e-09
-1.40154e-07
1.00277e-06
-7.52164e-07
8.25172e-07
-9.31263e-07
-0.00115219
-9.84562e-09
-2.25031e-08
6.65201e-08
0.000245343
4.13335e-09
-0.000245382
-4.89249e-08
1.23577e-06
0.00113191
-1.20329e-07
-8.52706e-07
2.6911e-07
-2.15319e-07
9.11114e-07
-1.19139e-06
2.72151e-07
-2.34232e-07
-3.64371e-09
0.00115208
-1.4166e-07
-9.31014e-07
8.2526e-07
-7.51918e-07
1.00285e-06
2.08568e-08
4.37472e-08
0.00024542
-1.67553e-08
-0.000245362
-1.05135e-07
1.28895e-09
-2.86898e-08
0.000250026
1.32575e-07
1.88913e-09
-0.000250133
1.22942e-08
-1.1161e-08
2.48111e-08
0.000278126
-7.0364e-09
-0.000278144
1.23062e-08
-1.11168e-08
2.2519e-08
0.000278073
-7.53583e-09
-0.000278089
-1.26974e-06
-1.23589e-06
0.000270087
-0.00026807
2.41888e-07
2.4719e-07
-2.31458e-08
2.00132e-08
0.000278195
9.91358e-09
-0.000278151
-5.09935e-08
-2.32544e-08
1.99255e-08
0.00027814
1.05467e-08
-0.000278098
-4.86891e-08
-0.000278246
1.21829e-08
-1.12849e-08
2.48875e-08
-6.89526e-09
0.000278227
-0.00027819
1.22007e-08
-1.12347e-08
2.25854e-08
-7.40125e-09
0.000278174
1.11363e-08
9.79783e-05
-9.79946e-05
-1.99314e-08
9.80156e-05
-9.79888e-05
1.11233e-08
9.79775e-05
-9.79938e-05
-2.00165e-08
9.80148e-05
-9.7988e-05
9.86788e-09
2.25424e-08
0.000278124
-7.47249e-09
-0.000278138
1.23378e-08
2.25116e-08
0.00027808
-7.57954e-09
-0.000278097
0.000270104
-1.2752e-06
-1.23858e-06
-0.000268077
2.39308e-07
2.47219e-07
0.000278188
-2.08322e-08
1.04547e-08
-0.000278149
-4.86692e-08
0.000278147
-2.32007e-08
1.04759e-08
-0.000278106
-4.87614e-08
-1.9827e-08
-6.89819e-09
-9.80097e-05
9.80364e-05
1.11934e-08
5.10788e-09
9.79993e-05
-1.99123e-08
-6.82706e-09
-9.80089e-05
9.80357e-05
1.11792e-08
5.12785e-09
9.79985e-05
1.23072e-06
1.1941e-06
0.000268078
-1.95598e-07
-2.03396e-07
-2.08429e-08
-4.85572e-08
-0.0002782
1.0497e-08
0.000278239
-2.32129e-08
-4.86525e-08
-0.000278156
1.05283e-08
0.000278198
9.811e-09
-7.39846e-09
2.25635e-08
0.000278175
1.22819e-08
-7.50959e-09
2.25358e-08
0.000278131
-7.02e-08
0.00022933
3.21408e-08
2.19899e-09
-0.000229294
2.25543e-08
0.00019356
-3.69848e-09
-0.000193573
-4.37957e-08
0.000193613
3.4748e-09
-0.000193579
2.87568e-08
0.000229274
-1.32291e-08
8.4179e-10
-0.000229291
-1.45232e-09
0.000250171
3.6261e-09
-1.95707e-07
-0.000250048
6.41099e-08
0.000245344
4.16351e-09
-0.00024538
0.00115252
3.52322e-09
-1.40026e-07
1.00837e-06
-7.57663e-07
8.30686e-07
-9.36847e-07
-0.00115257
-4.8889e-08
0.00113144
-1.20022e-07
-1.23083e-06
2.77526e-07
-2.39751e-07
-8.52905e-07
2.66356e-07
-2.12623e-07
9.11164e-07
0.000245418
-1.67814e-08
-0.000245363
-1.02637e-07
-3.72324e-09
0.00115247
-1.41536e-07
-9.36596e-07
8.30775e-07
-7.57417e-07
1.00844e-06
1.42379e-09
0.000250035
2.34226e-09
1.35213e-07
-0.000250145
0.000250199
4.54026e-09
-1.95734e-07
-0.00025008
-1.228e-08
6.6578e-08
0.000245357
4.17026e-09
-0.000245393
0.00115267
-1.40012e-07
1.01128e-06
-7.57784e-07
8.30786e-07
-9.39736e-07
-0.00115272
-4.87275e-08
0.00113189
1.28065e-06
-1.20044e-07
-8.5841e-07
2.69145e-07
9.1669e-07
-2.15425e-07
-1.23636e-06
2.80313e-07
-2.42637e-07
0.000245431
2.30917e-08
-1.66431e-08
-0.000245376
-1.05137e-07
0.00115261
-1.41513e-07
-9.39502e-07
8.30877e-07
-7.57533e-07
1.01136e-06
0.000250066
1.35201e-09
1.35261e-07
-0.000250173
1.06373e-10
2.86368e-08
-1.31906e-08
9.40822e-10
0.000229277
-4.35758e-08
-0.000193584
3.20969e-09
0.000193618
2.24696e-08
-3.6903e-09
0.000193564
-1.36782e-10
-7.01572e-08
-0.000229296
3.20949e-08
2.19603e-09
0.000229332
2.86652e-08
-1.32093e-08
8.54808e-10
0.000229313
-4.37179e-08
6.80512e-09
-0.000193619
3.40877e-09
0.000193653
2.25576e-08
-5.09609e-09
-3.76228e-09
0.000193599
-7.01757e-08
-0.000229333
3.21064e-08
2.20507e-09
0.000229369
1.42144e-09
2.3643e-09
1.34953e-07
0.000250061
-4.9208e-08
-1.20769e-07
1.27517e-06
-2.39668e-07
2.775e-07
9.11164e-07
-2.12543e-07
2.66345e-07
-8.52806e-07
-1.0255e-07
-0.000245401
-1.67887e-08
0.000245456
-0.00115241
-3.72184e-09
-1.44457e-07
-9.36176e-07
8.30941e-07
-7.56949e-07
1.00856e-06
0.00115236
4.11129e-09
6.40498e-08
0.000245382
3.5335e-09
-1.43082e-07
1.0085e-06
-7.57176e-07
-9.36403e-07
8.30854e-07
-1.45428e-09
-0.000250075
3.63811e-09
-1.95741e-07
0.000250198
1.36785e-09
1.35001e-07
0.000250093
-4.90184e-08
-1.23625e-06
-1.20791e-07
9.16695e-07
-2.1534e-07
-8.58305e-07
2.69124e-07
1.28062e-06
-2.4257e-07
2.80289e-07
2.31066e-08
-1.05049e-07
-0.000245414
-1.66584e-08
0.000245469
-0.00115257
-1.44428e-07
-9.3908e-07
8.3104e-07
-7.57065e-07
1.01149e-06
0.00115251
-1.22197e-08
4.11731e-09
6.65076e-08
0.000245395
-1.43065e-07
1.01143e-06
-7.57296e-07
-9.39291e-07
8.30953e-07
-0.000250106
4.5474e-09
-1.95766e-07
0.000250226
2.25893e-08
0.00027807
-1.01507e-08
-0.000278084
-1.34801e-08
2.24658e-08
0.000278174
-1.00713e-08
-0.000278182
0.000270133
-0.000268098
2.42118e-07
2.44433e-07
0.000278134
1.29587e-08
-0.000278095
-4.87751e-08
2.22447e-08
0.000278233
1.31247e-08
-0.000278199
-4.8589e-08
5.11862e-09
9.79829e-05
-9.80015e-05
9.80225e-05
-6.83482e-09
-9.79934e-05
-1.99623e-08
-9.80117e-05
9.80385e-05
1.12441e-08
9.80013e-05
1.19672e-06
0.000268099
-1.98276e-07
-2.00744e-07
-4.86645e-08
-0.000278146
1.30125e-08
0.000278185
2.21368e-08
-2.07349e-08
-4.84799e-08
-0.00027825
1.31752e-08
0.000278284
-1.00746e-08
2.26105e-08
0.000278121
-1.35319e-08
9.66851e-09
-1.00109e-08
2.24869e-08
0.000278224
-6.88329e-09
-9.80144e-05
9.80434e-05
5.06277e-09
9.80039e-05
-1.77607e-09
0.000250184
4.02847e-09
-1.90565e-07
-0.000250066
6.40727e-08
0.000245359
4.15291e-09
-0.00024539
0.00115239
3.62587e-09
-1.40093e-07
1.00835e-06
-7.54975e-07
8.30748e-07
-9.34117e-07
-0.00115245
-4.88856e-08
0.00113255
-1.20442e-07
-1.19421e-06
2.75e-07
-2.37126e-07
-8.55557e-07
2.69243e-07
-2.15352e-07
9.14005e-07
0.000245428
-1.66585e-08
-0.000245378
-1.02735e-07
-3.74057e-09
0.00115235
-1.41676e-07
-9.36577e-07
8.28115e-07
-7.57447e-07
1.00573e-06
1.78197e-09
0.000250053
1.8782e-09
1.30067e-07
-0.000250158
-7.02433e-08
0.000229285
3.00492e-08
2.07603e-09
-0.000229247
2.46737e-08
0.000193492
-3.72892e-09
-0.000193508
-4.59e-08
0.000193548
3.46393e-09
-0.000193512
2.88072e-08
0.000229228
-1.11396e-08
1.01683e-09
-0.000229246
0.000250153
-1.93152e-07
4.25448e-09
-0.000250036
0.00115236
-1.40052e-07
1.00838e-06
-7.57745e-07
8.30756e-07
-9.36854e-07
-0.00115241
-1.22316e-08
6.4073e-08
0.00024529
6.54624e-09
-0.000245324
-4.87617e-08
0.00113154
1.2752e-06
-1.20015e-07
-8.55573e-07
2.69084e-07
9.13827e-07
-2.15352e-07
-1.23093e-06
2.80316e-07
-2.42627e-07
0.00115231
-1.41566e-07
-9.36627e-07
8.30849e-07
-7.57493e-07
1.00846e-06
0.000245362
2.30642e-08
-1.90549e-08
-0.000245309
-1.02612e-07
0.000250023
1.32679e-07
1.67224e-09
-0.000250127
2.87191e-08
2.39738e-10
8.81929e-10
-1.11332e-08
0.000229303
-4.59096e-08
-0.000193605
3.89429e-09
0.00019364
2.46864e-08
-4.18533e-09
0.000193585
-7.02356e-08
-1.99916e-10
-0.000229322
2.15637e-09
3.00321e-08
0.000229361
1.78337e-09
1.89283e-09
1.29809e-07
0.00025008
-4.92324e-08
-1.21178e-07
1.23854e-06
-2.37067e-07
2.74972e-07
9.14011e-07
-2.15278e-07
2.69228e-07
-8.55452e-07
-1.02643e-07
-0.000245416
-1.6671e-08
0.000245466
-0.00115229
-3.75221e-09
-1.446e-07
-9.36156e-07
8.28269e-07
-7.56978e-07
1.00586e-06
0.00115224
4.09795e-09
6.40141e-08
0.000245397
3.61938e-09
-1.43159e-07
1.0085e-06
-7.5449e-07
-9.3367e-07
8.30912e-07
-1.77161e-09
-0.000250093
4.03213e-09
-1.90587e-07
0.000250211
2.87172e-08
-1.11206e-08
1.03062e-09
0.000229267
-4.58339e-08
6.86565e-09
-0.000193552
3.39926e-09
0.000193587
2.46835e-08
-5.12719e-09
-3.79785e-09
0.000193532
-7.02135e-08
-0.000229286
3.00049e-08
2.08669e-09
0.000229324
1.32422e-07
1.69189e-09
0.000250049
-4.90581e-08
-1.23081e-06
-1.20775e-07
9.13835e-07
-2.15267e-07
-8.55476e-07
2.69069e-07
1.27517e-06
-2.4256e-07
2.80291e-07
-0.00115226
-1.44495e-07
-9.36205e-07
8.30999e-07
-7.5703e-07
1.00858e-06
0.0011522
2.30772e-08
-1.02527e-07
-0.000245347
-1.90686e-08
0.0002454
-1.43113e-07
1.00853e-06
-7.57263e-07
-9.3642e-07
8.30922e-07
-1.21706e-08
6.4951e-09
6.40092e-08
0.000245328
-0.000250063
-1.93171e-07
4.26409e-09
0.00025018
-1.71163e-10
0.000229328
2.20036e-09
3.21333e-08
-0.000229292
0.000193557
-3.80886e-09
-0.000193572
0.000193612
3.46801e-09
-0.000193576
1.27393e-10
0.000229272
9.22613e-10
-1.32279e-08
-0.000229289
7.01461e-08
0.000250166
-1.90508e-07
4.27652e-09
-0.000250052
0.00115237
-1.40079e-07
1.00567e-06
-7.57724e-07
8.3073e-07
-9.34128e-07
-0.00115242
-2.24878e-08
6.40926e-08
0.000245337
4.21268e-09
-0.00024537
-4.8719e-08
0.00113134
-1.20046e-07
-1.22547e-06
2.74709e-07
-2.36979e-07
-8.52921e-07
2.66346e-07
-2.12608e-07
9.11165e-07
0.00115231
-1.41576e-07
-9.33903e-07
8.30815e-07
-7.57479e-07
1.00573e-06
4.37163e-08
0.000245408
-1.67236e-08
-0.000245356
-1.02635e-07
-2.87348e-08
0.000250039
1.30064e-07
1.59609e-09
-0.00025014
0.000229292
3.21139e-08
2.19624e-09
-0.000229256
-5.15254e-09
0.000193505
-3.67394e-09
-0.000193519
0.000193559
6.77929e-09
3.42624e-09
-0.000193525
0.000229237
-1.32095e-08
8.33786e-10
-0.000229253
-2.86663e-08
1.5927e-09
1.96047e-09
1.32392e-07
0.000250089
-4.92956e-08
-1.21025e-07
1.24124e-06
-2.34148e-07
2.72117e-07
9.11215e-07
-2.12518e-07
-8.52779e-07
2.66404e-07
4.58433e-08
-1.0495e-07
-0.000245458
-1.66951e-08
0.000245513
-0.00115233
-4.96831e-09
-1.44506e-07
-9.36204e-07
8.30939e-07
1.00857e-06
-7.5698e-07
0.00115229
-2.46836e-08
3.99998e-09
6.63783e-08
0.000245438
3.39746e-09
-1.43132e-07
1.0085e-06
-7.57213e-07
-9.36421e-07
8.3086e-07
7.01455e-08
-1.97558e-09
-0.000250103
4.3007e-09
-1.9313e-07
0.000250224
1.26888e-10
9.28913e-10
-1.32086e-08
0.000229311
-0.000193616
3.40759e-09
0.000193652
-3.87159e-09
0.000193596
-2.32555e-10
-0.000229331
2.20619e-09
3.20865e-08
0.000229367
-2.86496e-08
1.29805e-07
1.62353e-09
0.000250065
-4.90124e-08
-1.22537e-06
-1.20797e-07
9.11172e-07
-2.12524e-07
-8.52817e-07
2.66338e-07
1.26971e-06
-2.36914e-07
2.74682e-07
-0.00115226
0.0011522
-1.44492e-07
-9.33489e-07
8.3097e-07
-7.57015e-07
1.00858e-06
4.36385e-08
2.31605e-08
0.000245446
-1.02548e-07
-0.000245394
-1.67361e-08
-1.43128e-07
1.0058e-06
-7.57241e-07
-9.33697e-07
8.30893e-07
-2.24974e-08
-1.22351e-08
4.1549e-09
6.40331e-08
0.000245375
7.01201e-08
0.000250192
-0.000250078
-1.90536e-07
4.53057e-09
-1.3199e-08
8.50973e-10
0.000229276
6.82555e-09
0.000193598
-0.000193565
3.35926e-09
-5.08768e-09
-3.74655e-09
0.000193545
0.000229331
-0.000229295
3.20666e-08
2.21163e-09
2.4765e-08
0.000278033
-7.17098e-09
-0.00027805
-1.11877e-08
2.48075e-08
0.000278132
-6.90248e-09
-0.000278148
0.000270082
-0.000268057
2.39451e-07
2.46998e-07
0.000278101
1.00192e-08
-0.000278059
-5.09516e-08
1.99724e-08
0.000278199
9.97772e-09
-0.000278157
-5.09675e-08
5.13142e-09
9.79717e-05
-9.7988e-05
9.8009e-05
-6.83327e-09
-9.79822e-05
-2.21811e-08
-9.7993e-05
9.8022e-05
1.34924e-08
9.79825e-05
1.19127e-06
0.000268059
-1.95654e-07
-2.03315e-07
-5.08461e-08
-0.000278109
1.00794e-08
0.000278151
1.98629e-08
-2.08659e-08
-5.08585e-08
-0.000278208
1.0026e-08
0.000278249
-7.09544e-09
2.47912e-08
0.000278084
-1.1246e-08
9.7848e-09
-6.83017e-09
2.48341e-08
0.000278182
-6.8833e-09
-9.80032e-05
9.80299e-05
5.07039e-09
9.79927e-05
7.01321e-08
0.000250184
-1.90481e-07
4.7535e-09
-0.00025007
0.00115226
-1.40153e-07
1.00567e-06
-7.55008e-07
8.28016e-07
-9.34128e-07
-0.00115231
-2.24654e-08
6.64879e-08
0.000245352
4.18832e-09
-0.000245388
-4.88929e-08
0.00113244
-1.20379e-07
-1.19151e-06
2.72248e-07
-2.34336e-07
-8.52951e-07
2.6919e-07
-2.15342e-07
9.11358e-07
0.00115221
-1.41654e-07
-9.33905e-07
8.28105e-07
-7.54762e-07
1.00575e-06
4.37461e-08
0.000245426
-1.6746e-08
-0.000245371
-1.05136e-07
-2.8733e-08
0.000250057
1.30037e-07
1.15426e-09
-0.000250158
-1.24387e-10
0.000229284
2.24877e-09
3.20779e-08
-0.000229249
0.000193509
-3.696e-09
-0.000193523
0.000193563
3.37517e-09
-0.000193529
9.24002e-11
0.000229229
8.60998e-10
-1.31891e-08
-0.000229246
0.00022932
2.12146e-09
2.9972e-08
-0.000229282
-5.21794e-09
0.000193546
-3.54356e-09
-0.000193559
0.000193599
6.89309e-09
3.29139e-09
-0.000193566
0.000229263
9.24652e-10
-1.10838e-08
-0.000229281
1.29532e-09
-2.85844e-08
1.3231e-07
1.89912e-09
0.000250052
-4.92446e-08
-1.21065e-07
1.23575e-06
-2.34161e-07
2.72128e-07
9.11056e-07
-2.15219e-07
-8.52647e-07
2.69121e-07
-0.00115203
-3.64232e-09
-1.44581e-07
-9.30593e-07
8.2541e-07
1.00296e-06
-7.51445e-07
0.00115198
4.36797e-08
-1.05049e-07
-0.000245401
-1.67699e-08
0.000245458
3.59181e-09
-1.43207e-07
1.0029e-06
-7.51675e-07
-9.30813e-07
8.25333e-07
-2.25144e-08
4.07412e-09
6.64614e-08
0.000245382
-1.3191e-09
7.00444e-08
-0.000250066
-1.93041e-07
4.0898e-09
0.000250186
-2.86266e-08
1.29772e-07
1.17586e-09
0.000250083
-4.91803e-08
-1.19141e-06
-1.21125e-07
9.11366e-07
-2.15258e-07
-8.52854e-07
2.69176e-07
1.23585e-06
-2.3428e-07
2.72228e-07
-0.00115216
-1.44564e-07
-9.33488e-07
8.28253e-07
-7.54295e-07
1.00587e-06
0.0011521
4.36673e-08
2.32713e-08
0.000245464
-1.05054e-07
-0.000245409
-1.67564e-08
-1.43211e-07
1.00582e-06
-7.54523e-07
-9.33703e-07
8.28177e-07
-2.24767e-08
-1.22502e-08
4.13817e-09
6.64264e-08
0.00024539
7.00841e-08
-0.000250097
-1.90494e-07
4.76709e-09
0.000250211
9.92288e-11
8.54001e-10
-1.31569e-08
0.000229268
-0.000193569
3.30996e-09
0.000193602
-3.76346e-09
0.000193549
-1.22112e-10
-0.000229288
2.26918e-09
3.20266e-08
0.000229323
9.29578e-10
-1.10498e-08
0.000229302
6.93996e-09
0.000193639
-0.000193605
3.22097e-09
-5.1599e-09
-3.60748e-09
0.000193586
-0.000229321
2.14561e-09
2.9918e-08
0.000229359
9.7971e-05
-9.79873e-05
9.80083e-05
-9.79815e-05
9.79753e-05
-9.79916e-05
9.80126e-05
-9.79858e-05
0.000268072
-1.98167e-07
-2.0346e-07
1.99066e-08
-5.08795e-08
-0.000278202
9.96207e-09
1.98172e-08
-4.85787e-08
-0.000278149
1.06007e-08
-1.1222e-08
-6.96293e-09
2.48399e-08
0.000278176
-1.11735e-08
-7.46619e-09
2.2542e-08
0.000278124
9.80292e-05
-9.80025e-05
9.7992e-05
9.80335e-05
-9.80067e-05
9.79963e-05
1.00863e-06
-7.56811e-07
8.30995e-07
-9.36049e-07
3.59712e-10
-1.45917e-07
-2.25281e-08
6.40047e-08
4.1009e-09
0.000245413
-2.85802e-08
0.000250088
1.29588e-07
2.85049e-09
-1.54518e-10
-5.03261e-09
-3.81473e-09
0.000193585
0.000229314
-1.31856e-08
8.68432e-10
3.60715e-11
-2.24995e-08
6.63997e-08
0.000245428
4.07981e-09
-5.10241e-09
0.000193625
-3.67361e-09
9.80129e-05
9.80172e-05
-7.75998e-10
1.44016e-08
0.000143282
-3.03915e-10
-0.000143295
-0.000171014
-3.23723e-10
-8.56934e-12
0.000171047
-0.000223249
3.09264e-08
4.3735e-09
0.000223285
-6.91982e-08
-1.31977e-08
9.31627e-10
-0.000229274
-4.1223e-11
2.86837e-08
-0.000171028
-2.69583e-11
8.42539e-10
-0.000223265
3.05497e-08
1.63993e-09
0.000143311
-2.65717e-08
-7.92065e-05
7.92347e-05
-1.62622e-09
3.30485e-09
0.000193558
6.83062e-09
-4.36876e-08
0.000263067
-1.90892e-08
-8.25698e-10
3.06491e-08
-0.000263082
0.000263108
-4.36539e-09
-5.92315e-08
3.28054e-10
-7.92259e-05
1.91063e-08
7.92153e-05
-0.000263093
2.65298e-08
0.000263134
-5.91917e-08
-3.65846e-09
-5.13528e-09
2.2461e-08
3.06488e-08
7.92434e-05
3.28129e-10
-3.09416e-08
-0.000143266
3.21529e-08
2.18418e-09
8.24754e-12
-7.01961e-08
0.000170996
7.67428e-10
-1.81911e-11
-0.00017101
0.000223229
-1.4417e-08
3.05986e-08
-0.000223245
2.38669e-13
-6.92173e-08
-0.000143279
9.80071e-05
-6.73575e-09
-2.01209e-08
5.12576e-09
1.12139e-08
1.24127e-08
-7.06456e-10
0.000143351
-1.67797e-10
-0.000143363
-0.000223332
2.89544e-08
4.25832e-09
0.00022337
-6.93681e-08
-0.000171047
-3.55455e-10
-2.19467e-11
0.000171077
6.33578e-10
-1.11338e-08
-0.000229304
9.52893e-11
3.11883e-08
8.28891e-10
-0.000223353
3.3109e-08
-0.000171059
6.67749e-11
1.38358e-09
0.000143378
-2.45162e-08
-7.92523e-05
7.92782e-05
-1.3684e-09
3.98828e-09
0.000193581
6.75205e-09
-4.6005e-08
0.000263177
-1.6899e-08
-8.08741e-10
3.31457e-08
-0.000263196
0.000263222
-4.24653e-09
-6.18552e-08
1.90133e-10
-7.92694e-05
1.69131e-08
7.92611e-05
-0.000263203
2.44759e-08
0.000263248
-6.18123e-08
-4.15401e-09
-5.15542e-09
2.46753e-08
3.31392e-08
7.92869e-05
-2.89682e-08
3.61921e-10
-0.000143335
2.39179e-09
3.00927e-08
-5.69239e-11
-7.27099e-08
0.000223312
-1.24315e-08
3.0752e-08
-0.00022333
0.000171028
6.99117e-10
7.28868e-11
-0.00017104
-7.17936e-08
-1.76451e-11
-0.000143347
9.79906e-05
-6.78674e-09
-2.23482e-08
5.1578e-09
1.34613e-08
-6.97486e-09
-7.01281e-09
0.000213708
1.01373e-08
1.2208e-08
-0.000213716
-8.05257e-05
-1.23595e-08
-1.20139e-08
8.05501e-05
-8.05145e-05
-1.23018e-08
-1.20919e-08
8.05389e-05
9.47031e-09
-8.05422e-05
9.45215e-09
-8.05309e-05
-2.5018e-08
-2.7226e-08
0.000213736
-3.60612e-08
3.33833e-08
-0.000221862
0.000221899
2.50428e-08
-5.98912e-08
0.000250636
-1.58092e-08
5.86433e-08
2.95386e-08
-0.000250684
-5.10487e-08
9.89134e-09
0.00027817
2.00656e-08
-2.31389e-08
0.00018299
1.61587e-08
-9.48335e-09
-0.000183004
0.000250699
-9.74949e-08
-5.23277e-08
0.000183022
1.20196e-08
-1.01364e-08
3.10818e-08
-0.000221882
-3.6176e-08
3.13934e-08
-0.000221801
0.000221839
2.72495e-08
-6.00961e-08
0.000250541
-1.58209e-08
6.35441e-08
2.95553e-08
-0.000250596
-4.87422e-08
1.05212e-08
0.000278114
1.99764e-08
-2.32456e-08
0.000182945
1.42211e-08
-9.46796e-09
-0.000182958
0.000250611
-1.02387e-07
-5.2447e-08
0.000182975
1.20898e-08
-1.22073e-08
3.13061e-08
-0.000221822
1.57985e-08
-1.61779e-08
0.000221879
3.10838e-08
-0.000183008
-3.33267e-08
0.000183039
2.48235e-08
-7.00147e-09
-1.11906e-08
1.22655e-08
-0.000250652
3.6048e-08
0.000250714
-9.74345e-08
-5.23325e-08
5.86303e-08
2.95057e-08
0.000221916
-5.98263e-08
1.58022e-08
-1.42348e-08
0.000221818
3.13073e-08
-0.000182963
-3.13457e-08
0.000182993
2.25238e-08
-7.49967e-09
-1.11437e-08
1.22804e-08
-0.000250556
3.61665e-08
0.000250626
-1.02327e-07
-5.24536e-08
6.35179e-08
2.95308e-08
0.000221856
-6.00336e-08
1.23768e-08
1.23267e-08
-0.000213689
8.05178e-05
6.96988e-09
-8.05342e-05
8.05065e-05
7.00616e-09
-8.0523e-05
-0.000213697
-0.00022193
-3.59952e-08
3.31757e-08
2.49289e-08
-5.96244e-08
-1.57841e-08
0.000250698
-0.000250745
5.86304e-08
2.94232e-08
1.62398e-08
0.00018306
-9.42856e-09
-0.000183074
-5.0822e-08
9.98126e-09
1.98531e-08
-2.31609e-08
-1.01609e-08
-0.00022195
3.11315e-08
-9.72498e-08
-5.2334e-08
1.20062e-08
-0.000221869
-3.61186e-08
3.11976e-08
2.71393e-08
-5.98308e-08
-1.57853e-08
0.000250602
-0.000250657
6.35155e-08
2.94534e-08
1.43023e-08
0.000183015
-9.41519e-09
-0.000183028
-4.85185e-08
1.06203e-08
1.97627e-08
-2.32735e-08
-1.22282e-08
-0.00022189
3.13564e-08
-1.02142e-07
-5.24628e-08
1.20895e-08
-0.000213766
1.22977e-08
1.2238e-08
6.99497e-09
8.05495e-05
-8.05659e-05
7.03314e-09
8.05382e-05
-8.05547e-05
-0.000213774
9.80051e-05
-1.99836e-08
1.11647e-08
9.80043e-05
-2.00719e-08
1.11491e-08
-7.01962e-09
-6.97949e-09
0.000213709
1.2181e-08
1.01763e-08
-0.000213717
-8.05261e-05
-1.23514e-08
-1.20274e-08
8.05505e-05
-8.05126e-05
-1.2335e-08
-1.20609e-08
8.0537e-05
9.43111e-09
-8.05425e-05
9.48813e-09
-8.0529e-05
-2.71303e-08
-2.51396e-08
0.000213736
3.14148e-08
-3.61249e-08
-0.000221862
0.0002219
2.71568e-08
-6.00593e-08
0.000250635
-1.57878e-08
6.36757e-08
2.69425e-08
-0.000250687
1.04273e-08
-4.87187e-08
0.000278163
-2.08247e-08
0.000182991
1.42477e-08
-9.44563e-09
-0.000183003
0.000183021
1.20257e-08
0.000250702
-1.02478e-07
-4.98268e-08
-1.21789e-08
3.13093e-08
-0.000221883
3.14373e-08
-3.61673e-08
-0.000221797
0.000221839
2.5166e-08
-6.23265e-08
0.000250544
-1.58468e-08
6.35775e-08
3.21015e-08
-0.000250601
1.04471e-08
-4.88111e-08
0.000278122
-2.31918e-08
0.000182941
1.42098e-08
-9.50181e-09
-0.000182953
0.000182971
1.20579e-08
0.000250617
-1.02508e-07
-5.49645e-08
-1.01726e-08
3.34838e-08
-0.000221822
-1.42659e-08
0.000221879
1.57755e-08
3.13153e-08
-0.000183009
-3.13654e-08
0.000183038
-7.43642e-09
2.25549e-08
9.84005e-09
3.61152e-08
-0.00025065
0.000250718
-1.02423e-07
-4.98316e-08
0.000221917
-5.99975e-08
6.36628e-08
2.69098e-08
-1.42249e-08
0.000221814
1.58339e-08
3.34881e-08
-0.000182959
-3.13897e-08
0.000182989
-7.54495e-09
2.25193e-08
1.23112e-08
3.61573e-08
-0.000250559
0.000250632
-1.02454e-07
-5.49699e-08
0.000221856
-6.22662e-08
6.35571e-08
3.20739e-08
1.23751e-08
1.23592e-08
-0.000213689
8.05181e-05
7.01274e-09
-8.05346e-05
8.05046e-05
6.97393e-09
-8.05211e-05
-0.000213698
-9.8026e-05
1.12242e-08
5.07736e-09
-1.98804e-08
-6.8748e-09
-9.80252e-05
1.12054e-08
5.10023e-09
-1.99643e-08
-6.80363e-09
-0.000213728
1.23365e-08
1.23137e-08
-2.71064e-08
-2.5112e-08
0.000213755
7.0277e-09
8.0534e-05
9.41195e-09
6.98643e-09
8.05205e-05
9.47152e-09
1.21853e-08
1.0182e-08
-1.20211e-08
8.05584e-05
-1.20622e-08
8.05449e-05
-1.43003e-08
1.57612e-08
0.000221913
-0.000221934
-1.2195e-08
3.13432e-08
-0.000250681
3.60798e-08
-1.02293e-07
-4.98388e-08
0.000250748
-7.36298e-09
2.25874e-08
-0.000278214
9.78453e-09
-0.000183044
-3.12576e-08
1.20168e-08
0.000183073
-0.000183056
-9.39756e-09
-0.000250733
6.36536e-08
2.68556e-08
2.70758e-08
-5.98609e-08
0.000221951
-1.42639e-08
1.58185e-08
0.000221848
-0.000221873
-1.0186e-08
3.35119e-08
-0.00025059
3.61259e-08
-1.02331e-07
-5.49739e-08
0.000250662
-7.47395e-09
2.25524e-08
-0.000278173
1.22549e-08
-0.000182994
-3.12946e-08
1.20631e-08
0.000183024
-0.000183006
-9.45547e-09
-0.000250647
6.35483e-08
3.20217e-08
2.50856e-08
-6.21358e-08
0.00022189
-0.000221896
3.13147e-08
-3.60976e-08
-5.99309e-08
1.42773e-08
0.000183026
-1.57633e-08
0.000250665
6.36478e-08
2.68856e-08
1.04747e-08
-4.86144e-08
-2.08376e-08
3.13244e-08
-1.02357e-07
-4.98373e-08
-0.000221831
3.13475e-08
-3.61402e-08
-6.22033e-08
1.424e-08
0.000182976
-1.58293e-08
0.000250575
6.35535e-08
3.20464e-08
1.05004e-08
-4.87094e-08
-2.32031e-08
3.34942e-08
-1.02391e-07
-5.49728e-08
-7.03326e-09
-6.9945e-09
0.000213747
-8.05419e-05
-1.23149e-08
8.05663e-05
-8.05284e-05
-1.22894e-08
8.05528e-05
0.000213775
-7.13503e-10
1.24212e-08
0.000143352
-1.50831e-10
-0.000143364
-0.000171049
-3.23082e-10
0.000171081
-0.000223333
2.89519e-08
4.34391e-09
0.000223374
-7.17639e-08
-1.32182e-08
6.23259e-10
-0.00022931
2.87121e-08
-0.000171063
7.87532e-10
-0.000223354
3.30876e-08
1.41832e-09
0.000143379
-2.44807e-08
-7.9251e-05
7.92769e-05
-1.40426e-09
3.50709e-09
0.000193593
-4.38298e-08
0.000263174
-1.69249e-08
-7.71948e-10
3.31693e-08
-0.000263193
0.000263219
-4.33338e-09
-6.17994e-08
1.74187e-10
-7.92681e-05
1.69418e-08
7.92598e-05
-0.0002632
2.44396e-08
0.000263245
-6.17587e-08
-3.73055e-09
2.25536e-08
3.31669e-08
7.92856e-05
3.2908e-10
-2.89675e-08
-0.000143336
3.21661e-08
2.41674e-09
-7.02127e-08
0.00017103
7.04256e-10
-0.000171044
0.000223313
-1.24346e-08
3.31391e-08
-0.000223334
-7.17673e-08
-0.000143348
-0.000143297
3.17943e-10
-3.09052e-08
1.65494e-09
0.000143326
7.85254e-10
0.000171033
-1.62187e-11
-1.43947e-08
0.000223269
8.58128e-10
3.05191e-08
3.2112e-08
2.1916e-09
0.000229313
9.66353e-12
-7.01726e-08
-2.82825e-10
0.000171065
3.43444e-12
4.38392e-09
0.000223305
-6.91839e-08
7.92328e-05
1.91413e-08
-7.92522e-05
2.61155e-10
-3.72348e-09
-0.000193598
2.24776e-08
2.64399e-08
-0.000263145
-4.39677e-09
-5.90961e-08
0.000263185
-1.67019e-09
7.92609e-05
-0.00026316
-8.74692e-10
3.06569e-08
-7.9224e-05
-2.64825e-08
-1.91257e-08
0.000263119
3.06513e-08
3.24215e-09
-4.36147e-08
-5.91467e-08
0.000143313
-7.94398e-10
1.43843e-08
-1.31829e-08
9.46693e-10
-3.82736e-11
2.85971e-08
-3.09095e-10
-0.000171051
-5.96759e-12
0.000171084
3.08866e-08
-0.000223289
-6.91607e-08
0.000223326
0.000143342
-2.41874e-11
3.04806e-08
-0.000143368
3.14694e-10
-2.89288e-08
1.43508e-09
0.000143395
7.24038e-10
0.000171067
-1.24099e-08
0.000223353
8.04081e-10
3.30569e-08
3.21247e-08
2.42433e-09
0.000229349
-7.0189e-08
-1.27315e-10
0.0001711
4.3557e-09
0.000223394
-7.17421e-08
1.69819e-08
7.92773e-05
-7.92944e-05
9.87034e-11
-3.79608e-09
-0.000193633
-5.0689e-09
2.25708e-08
-0.000263252
2.43554e-08
-4.37411e-09
-6.16665e-08
0.000263297
-0.000263271
-8.20043e-10
3.3178e-08
-1.44186e-09
7.93031e-05
-7.92685e-05
-2.43901e-08
-1.69619e-08
0.000263226
3.31709e-08
3.44373e-09
6.78118e-09
-4.37569e-08
-6.17126e-08
-7.35963e-10
1.23871e-08
0.000143383
-1.32031e-08
6.43602e-10
2.86265e-08
-0.000171086
-3.04277e-10
0.000171118
-0.000223374
2.8894e-08
-7.1723e-08
0.000223414
3.30125e-08
0.00014341
-6.98861e-09
-7.04951e-09
0.000213715
1.23048e-08
1.01101e-08
-0.000213723
-8.0515e-05
-1.2405e-08
-1.19881e-08
8.05394e-05
-8.05286e-05
-1.23194e-08
-1.20721e-08
8.0553e-05
9.4747e-09
-8.05315e-05
9.41181e-09
-8.05451e-05
-2.71821e-08
-2.5145e-08
0.000213742
3.16872e-08
-3.85329e-08