/*--------------------------------*- C++ -*----------------------------------*\
| =========                 |                                                 |
| \\      /  F ield         | OpenFOAM: The Open Source CFD Toolbox           |
|  \\    /   O peration     | Version:  v1912                                 |
|   \\  /    A nd           | Website:  www.openfoam.com                      |
|    \\/     M anipulation  |                                                 |
\*---------------------------------------------------------------------------*/
FoamFile
{
    version     2.0;
    format      ascii;
    class       volScalarField;
    location    "1.75";
    object      nut;
}
// * * * * * * * * * * * * * * * * * * * * * * * * * * * * * * * * * * * * * //

dimensions      [0 2 -1 0 0 0 0];


internalField   nonuniform List<scalar> 
171728
(
1.42187e-06
1.43227e-06
1.43294e-06
6.0004e-07
9.69598e-08
1.11041e-07
1.11215e-07
1.16655e-07
7.57697e-09
8.80977e-09
8.81572e-09
1.13585e-07
2.36646e-09
4.74167e-09
4.71279e-09
1.13787e-07
2.50589e-09
4.45483e-09
4.45844e-09
1.13791e-07
2.50813e-09
4.44514e-09
4.45037e-09
1.13792e-07
2.49893e-09
4.45042e-09
4.44178e-09
1.13792e-07
2.51465e-09
4.45803e-09
4.45311e-09
1.1379e-07
2.51438e-09
4.45287e-09
4.444e-09
1.13794e-07
2.51245e-09
4.453e-09
4.4458e-09
1.13792e-07
2.50698e-09
4.45196e-09
4.44911e-09
1.13793e-07
2.51532e-09
4.45019e-09
4.44891e-09
1.13792e-07
2.51711e-09
4.48437e-09
4.45164e-09
1.13792e-07
2.52254e-09
4.47768e-09
4.44549e-09
1.13792e-07
2.50438e-09
4.4399e-09
4.45088e-09
1.13792e-07
2.50641e-09
4.43792e-09
4.44643e-09
1.13793e-07
2.51611e-09
4.45528e-09
4.449e-09
1.13794e-07
2.50935e-09
4.44274e-09
4.44725e-09
1.13793e-07
2.51946e-09
4.42941e-09
4.44979e-09
1.13791e-07
2.50283e-09
4.47018e-09
4.44592e-09
1.13784e-07
2.62481e-09
4.44552e-09
4.44833e-09
1.13795e-07
2.50745e-09
4.45443e-09
4.44774e-09
1.13795e-07
2.51323e-09
4.45298e-09
4.44861e-09
1.13795e-07
2.51162e-09
4.45425e-09
4.45043e-09
1.13795e-07
2.51405e-09
4.451e-09
4.44744e-09
1.13796e-07
2.51079e-09
4.45176e-09
4.4474e-09
1.13795e-07
2.5142e-09
4.45492e-09
4.45081e-09
1.13796e-07
2.5124e-09
4.45273e-09
4.44861e-09
1.13796e-07
2.51212e-09
4.45137e-09
4.44726e-09
1.13795e-07
2.5131e-09
4.45376e-09
4.44981e-09
1.13794e-07
2.51289e-09
4.45369e-09
4.44886e-09
1.13795e-07
2.51322e-09
4.45147e-09
4.44803e-09
1.13796e-07
2.51274e-09
4.45472e-09
4.44874e-09
1.13796e-07
2.51183e-09
4.45428e-09
4.44851e-09
1.13795e-07
2.51379e-09
4.45559e-09
4.44943e-09
1.13796e-07
2.51232e-09
4.45157e-09
4.44613e-09
1.13795e-07
2.51383e-09
4.45437e-09
4.44897e-09
1.13796e-07
2.51311e-09
4.454e-09
4.44861e-09
1.13796e-07
2.51321e-09
4.45588e-09
4.45557e-09
1.13796e-07
2.53042e-09
4.46139e-09
4.45407e-09
1.13782e-07
2.67568e-09
4.44009e-09
4.44936e-09
1.13794e-07
2.51113e-09
4.43956e-09
4.44502e-09
1.13795e-07
2.51366e-09
4.45226e-09
4.44323e-09
1.13797e-07
2.51438e-09
4.44929e-09
4.44274e-09
1.13796e-07
2.51706e-09
4.45058e-09
4.44767e-09
1.13796e-07
2.5156e-09
4.44844e-09
4.44285e-09
1.13796e-07
2.51384e-09
4.44758e-09
4.44618e-09
1.13798e-07
2.51569e-09
4.45031e-09
4.45174e-09
1.13797e-07
2.51522e-09
4.451e-09
4.45268e-09
1.13796e-07
2.5156e-09
4.44933e-09
4.45101e-09
1.13797e-07
2.5136e-09
4.44729e-09
4.44927e-09
1.13796e-07
2.51584e-09
4.44938e-09
4.45016e-09
1.13796e-07
2.51601e-09
4.45005e-09
4.45088e-09
1.13796e-07
2.51748e-09
4.45903e-09
4.45104e-09
1.13796e-07
2.51848e-09
4.4547e-09
4.45117e-09
1.13795e-07
2.513e-09
4.44908e-09
4.45217e-09
1.13791e-07
2.50997e-09
4.45481e-09
4.45322e-09
1.13781e-07
2.51012e-09
4.45385e-09
4.45168e-09
1.13781e-07
2.51058e-09
4.45638e-09
4.45435e-09
1.1378e-07
2.51181e-09
4.45464e-09
4.45152e-09
1.13781e-07
2.51159e-09
4.45657e-09
4.45471e-09
1.1378e-07
2.50995e-09
4.45414e-09
4.45176e-09
1.13781e-07
2.50981e-09
4.45634e-09
4.45405e-09
1.13779e-07
2.51125e-09
4.45594e-09
4.45402e-09
1.1378e-07
2.51055e-09
4.45589e-09
4.45382e-09
1.1378e-07
2.51013e-09
4.45495e-09
4.45281e-09
1.1378e-07
2.51031e-09
4.45416e-09
4.45204e-09
1.13779e-07
2.5104e-09
4.45508e-09
4.45347e-09
1.1378e-07
2.50589e-09
4.4538e-09
4.4526e-09
1.13781e-07
2.5032e-09
4.45447e-09
4.43441e-09
1.13782e-07
2.50762e-09
4.45895e-09
4.45239e-09
1.13778e-07
2.51151e-09
4.45534e-09
4.45329e-09
1.1378e-07
2.50966e-09
4.45422e-09
4.45174e-09
1.1378e-07
2.50945e-09
4.45533e-09
4.45287e-09
1.13778e-07
2.5123e-09
4.45605e-09
4.45368e-09
1.13778e-07
2.50885e-09
4.45484e-09
4.45252e-09
1.13779e-07
2.51002e-09
4.45497e-09
4.45247e-09
1.13779e-07
2.51136e-09
4.45545e-09
4.45311e-09
1.13779e-07
2.51087e-09
4.4542e-09
4.45198e-09
1.13779e-07
2.51003e-09
4.45598e-09
4.45386e-09
1.1378e-07
2.50951e-09
4.4543e-09
4.45226e-09
1.13778e-07
2.51056e-09
4.45537e-09
4.45317e-09
1.13779e-07
2.51123e-09
4.45613e-09
4.45397e-09
1.13779e-07
2.51292e-09
4.45496e-09
4.4529e-09
1.13779e-07
2.51322e-09
4.4556e-09
4.45344e-09
1.13779e-07
2.51385e-09
4.4549e-09
4.45317e-09
1.13778e-07
2.51353e-09
4.45749e-09
4.45567e-09
1.13779e-07
2.5111e-09
4.4533e-09
4.45171e-09
1.13778e-07
2.51266e-09
4.4541e-09
4.4514e-09
1.13779e-07
2.51416e-09
4.45652e-09
4.45403e-09
1.13779e-07
2.51566e-09
4.45179e-09
4.44739e-09
1.13782e-07
2.57802e-09
4.47191e-09
4.47582e-09
1.1378e-07
5.05918e-09
5.38393e-09
5.43545e-09
1.13668e-07
5.52503e-08
4.92028e-08
4.91698e-08
1.11981e-07
5.57163e-07
2.42828e-07
2.42862e-07
5.81746e-07
5.0985e-07
8.2696e-07
8.27272e-07
5.09966e-07
8.27043e-07
8.27005e-07
2.32609e-06
2.32613e-06
2.3261e-06
2.32613e-06
8.26914e-07
8.26758e-07
5.09685e-07
8.26701e-07
8.27053e-07
5.0959e-07
6.00117e-07
2.97664e-07
1.43289e-06
1.43294e-06
2.44923e-07
2.44939e-07
6.00084e-07
2.97621e-07
1.43282e-06
1.43346e-06
2.45112e-07
2.45005e-07
1.43313e-06
2.44979e-07
2.44827e-07
6.00024e-07
2.97687e-07
1.43317e-06
2.44969e-07
2.44989e-07
2.97704e-07
1.16706e-07
2.88467e-07
1.11121e-07
1.11148e-07
1.40116e-08
1.41051e-08
1.16701e-07
2.88524e-07
1.11142e-07
1.11113e-07
1.39613e-08
1.40148e-08
1.11079e-07
1.38988e-08
1.39996e-08
1.16734e-07
2.88474e-07
1.11256e-07
1.39771e-08
1.39174e-08
2.88464e-07
1.135e-07
2.87744e-07
8.86481e-09
8.85722e-09
5.03417e-09
5.02509e-09
1.1351e-07
2.87758e-07
8.8764e-09
8.86501e-09
4.99412e-09
5.03538e-09
8.87505e-09
5.00185e-09
5.05255e-09
1.13565e-07
2.87777e-07
8.87797e-09
4.96314e-09
4.94791e-09
2.87734e-07
1.13771e-07
2.87709e-07
4.76501e-09
4.80252e-09
4.51775e-09
4.52896e-09
1.13744e-07
2.87712e-07
4.70092e-09
4.76268e-09
4.46408e-09
4.52548e-09
4.78083e-09
4.4636e-09
4.51183e-09
1.13795e-07
2.87741e-07
4.71622e-09
4.44643e-09
4.45279e-09
2.87685e-07
1.13771e-07
2.87703e-07
4.51555e-09
4.52198e-09
4.50512e-09
4.52112e-09
1.1375e-07
2.87704e-07
4.44826e-09
4.51637e-09
4.46569e-09
4.50906e-09
4.50041e-09
4.44368e-09
4.49371e-09
1.13791e-07
2.87733e-07
4.44427e-09
4.43004e-09
4.43546e-09
2.87678e-07
1.13771e-07
2.87713e-07
4.51169e-09
4.53016e-09
4.48559e-09
4.54546e-09
1.13753e-07
2.87716e-07
4.43314e-09
4.50797e-09
4.45429e-09
4.50033e-09
4.49247e-09
4.45455e-09
4.48475e-09
1.13792e-07
2.87747e-07
4.43653e-09
4.42112e-09
4.42666e-09
2.87691e-07
1.13774e-07
2.87712e-07
4.46261e-09
4.53617e-09
4.52328e-09
4.52708e-09
1.13748e-07
2.87712e-07
4.42003e-09
4.50021e-09
4.45971e-09
4.50463e-09
4.48371e-09
4.45541e-09
4.49055e-09
1.13792e-07
2.87741e-07
4.42801e-09
4.42671e-09
4.43235e-09
2.87683e-07
1.13775e-07
2.87708e-07
4.5134e-09
4.53227e-09
4.50918e-09
4.52968e-09
1.13743e-07
2.87707e-07
4.43946e-09
4.50945e-09
4.46751e-09
4.50717e-09
4.49388e-09
4.45616e-09
4.49262e-09
1.1379e-07
2.87736e-07
4.4387e-09
4.42975e-09
4.43473e-09
2.87678e-07
1.13755e-07
2.87715e-07
4.50615e-09
4.52719e-09
4.47813e-09
4.51203e-09
1.13746e-07
2.87731e-07
4.43373e-09
4.50606e-09
4.44596e-09
4.502e-09
4.48944e-09
4.4489e-09
4.48613e-09
1.13793e-07
2.87748e-07
4.43171e-09
4.42153e-09
4.42792e-09
2.87691e-07
1.13765e-07
2.87703e-07
4.49222e-09
4.48821e-09
4.51021e-09
4.46294e-09
1.13739e-07
2.87713e-07
4.43858e-09
4.50488e-09
4.43817e-09
4.50631e-09
4.48683e-09
4.45311e-09
4.49071e-09
1.13792e-07
2.8774e-07
4.43159e-09
4.42724e-09
4.43317e-09
2.87682e-07
1.13778e-07
2.87712e-07
4.55966e-09
4.49164e-09
4.50869e-09
4.46902e-09
1.13746e-07
2.87714e-07
4.44362e-09
4.50572e-09
4.45179e-09
4.50482e-09
4.48819e-09
4.45198e-09
4.48849e-09
1.13792e-07
2.87743e-07
4.43333e-09
4.42579e-09
4.42962e-09
2.87687e-07
1.13764e-07
2.87702e-07
4.50868e-09
4.46298e-09
4.50759e-09
4.45426e-09
1.13747e-07
2.87741e-07
4.44779e-09
4.50553e-09
4.44501e-09
4.50471e-09
4.48937e-09
4.47035e-09
4.49654e-09
1.13792e-07
2.8774e-07
4.43147e-09
4.42868e-09
4.42923e-09
2.87684e-07
1.13766e-07
2.877e-07
4.51082e-09
4.47457e-09
4.4939e-09
4.52396e-09
1.13739e-07
2.87738e-07
4.44333e-09
4.50604e-09
4.43319e-09
4.49993e-09
4.49728e-09
4.47085e-09
4.49219e-09
1.13793e-07
2.87745e-07
4.43298e-09
4.42362e-09
4.42769e-09
2.87693e-07
1.1377e-07
2.877e-07
4.49698e-09
4.53147e-09
4.51315e-09
4.52007e-09
1.13746e-07
2.87719e-07
4.43256e-09
4.5008e-09
4.42805e-09
4.50585e-09
4.4901e-09
4.4464e-09
4.49286e-09
1.13794e-07
2.87742e-07
4.43028e-09
4.42676e-09
4.43438e-09
2.87684e-07
1.13766e-07
2.87709e-07
4.5279e-09
4.5108e-09
4.50786e-09
4.57016e-09
1.13755e-07
2.87701e-07
4.45294e-09
4.50827e-09
4.45126e-09
4.50243e-09
4.49361e-09
4.44276e-09
4.4877e-09
1.13792e-07
2.87748e-07
4.43767e-09
4.42373e-09
4.42976e-09
2.87691e-07
1.13764e-07
2.87697e-07
4.50843e-09
4.53917e-09
4.51606e-09
4.52883e-09
1.13773e-07
2.8769e-07
4.45041e-09
4.50381e-09
4.45279e-09
4.50654e-09
4.48588e-09
4.45019e-09
4.49309e-09
1.13793e-07
2.87741e-07
4.4308e-09
4.42695e-09
4.4343e-09
2.87683e-07
1.13766e-07
2.87707e-07
4.49794e-09
4.52713e-09
4.51079e-09
4.50903e-09
1.13767e-07
2.87738e-07
4.45321e-09
4.50682e-09
4.44866e-09
4.50168e-09
4.49074e-09
4.44959e-09
4.48858e-09
1.13794e-07
2.8775e-07
4.43463e-09
4.4225e-09
4.42954e-09
2.8769e-07
1.13762e-07
2.87719e-07
4.49211e-09
4.49906e-09
4.48909e-09
4.49092e-09
1.13779e-07
2.87735e-07
4.44936e-09
4.50573e-09
4.44406e-09
4.50664e-09
4.49078e-09
4.42503e-09
4.48861e-09
1.13793e-07
2.87746e-07
4.43404e-09
4.42674e-09
4.42726e-09
2.87693e-07
1.13764e-07
2.87697e-07
4.48825e-09
4.52219e-09
4.54174e-09
4.61098e-09
1.13811e-07
2.87771e-07
4.4424e-09
4.50725e-09
4.45452e-09
4.50077e-09
4.48751e-09
4.472e-09
4.50441e-09
1.13793e-07
2.87746e-07
4.42488e-09
4.42542e-09
4.41912e-09
2.87703e-07
1.13801e-07
2.87768e-07
4.52411e-09
4.55007e-09
4.47752e-09
4.58203e-09
1.1375e-07
2.8774e-07
4.46375e-09
4.50142e-09
4.28901e-09
4.50611e-09
4.51729e-09
4.44011e-09
4.49241e-09
1.13796e-07
2.87751e-07
4.43778e-09
4.42187e-09
4.43042e-09
2.87694e-07
1.13756e-07
2.87728e-07
4.55868e-09
4.57066e-09
4.52777e-09
4.52364e-09
1.13752e-07
2.87723e-07
4.36504e-09
4.50342e-09
4.46347e-09
4.50289e-09
4.49005e-09
4.45915e-09
4.48884e-09
1.13794e-07
2.8775e-07
4.43114e-09
4.42518e-09
4.43167e-09
2.87693e-07
1.13784e-07
2.87727e-07
4.51964e-09
4.52707e-09
4.50871e-09
4.52975e-09
1.13763e-07
2.87723e-07
4.44875e-09
4.50415e-09
4.45313e-09
4.50443e-09
4.48875e-09
4.4538e-09
4.49016e-09
1.13795e-07
2.8775e-07
4.43324e-09
4.42562e-09
4.43181e-09
2.87691e-07
1.13783e-07
2.87723e-07
4.51333e-09
4.53135e-09
4.50691e-09
4.53158e-09
1.13762e-07
2.87719e-07
4.45026e-09
4.50564e-09
4.45278e-09
4.50614e-09
4.49039e-09
4.45589e-09
4.49087e-09
1.13795e-07
2.87746e-07
4.43489e-09
4.42801e-09
4.43987e-09
2.87689e-07
1.13784e-07
2.87726e-07
4.5121e-09
4.53177e-09
4.50323e-09
4.52842e-09
1.13763e-07
2.87723e-07
4.4483e-09
4.506e-09
4.44914e-09
4.50293e-09
4.49154e-09
4.45222e-09
4.48831e-09
1.13795e-07
2.8775e-07
4.4436e-09
4.4246e-09
4.43534e-09
2.87692e-07
1.13783e-07
2.8773e-07
4.51321e-09
4.53047e-09
4.50268e-09
4.52843e-09
1.13762e-07
2.87723e-07
4.44945e-09
4.50466e-09
4.44859e-09
4.50319e-09
4.48711e-09
4.4539e-09
4.49017e-09
1.13795e-07
2.8775e-07
4.4377e-09
4.42514e-09
4.43459e-09
2.87691e-07
1.13784e-07
2.87722e-07
4.50876e-09
4.52844e-09
4.5076e-09
4.53248e-09
1.13762e-07
2.87719e-07
4.44503e-09
4.50284e-09
4.45348e-09
4.50707e-09
4.49004e-09
4.45584e-09
4.49093e-09
1.13795e-07
2.87745e-07
4.438e-09
4.42773e-09
4.43685e-09
2.87689e-07
1.13783e-07
2.87727e-07
4.51588e-09
4.53361e-09
4.50271e-09
4.52843e-09
1.13762e-07
2.87722e-07
4.45209e-09
4.50792e-09
4.44861e-09
4.50304e-09
4.48958e-09
4.45361e-09
4.49108e-09
1.13795e-07
2.87748e-07
4.43816e-09
4.42558e-09
4.43703e-09
2.87688e-07
1.13784e-07
2.87727e-07
4.51119e-09
4.5305e-09
4.50422e-09
4.52915e-09
1.13763e-07
2.87723e-07
4.44743e-09
4.5048e-09
4.45012e-09
4.50376e-09
4.49079e-09
4.45285e-09
4.48825e-09
1.13795e-07
2.8775e-07
4.43937e-09
4.42482e-09
4.43424e-09
2.87693e-07
1.13784e-07
2.87726e-07
4.51112e-09
4.52924e-09
4.50423e-09
4.52962e-09
1.13763e-07
2.87722e-07
4.44738e-09
4.50354e-09
4.45009e-09
4.50421e-09
4.48914e-09
4.45363e-09
4.48903e-09
1.13795e-07
2.87749e-07
4.43773e-09
4.42564e-09
4.43497e-09
2.87692e-07
1.13783e-07
2.87726e-07
4.51271e-09
4.53186e-09
4.50557e-09
4.53035e-09
1.13762e-07
2.87723e-07
4.44897e-09
4.50582e-09
4.45104e-09
4.50482e-09
4.49138e-09
4.45403e-09
4.48981e-09
1.13794e-07
2.87749e-07
4.43989e-09
4.4262e-09
4.43582e-09
2.87691e-07
1.13784e-07
2.87724e-07
4.51275e-09
4.51592e-09
4.50407e-09
4.52828e-09
1.13763e-07
2.87712e-07
4.44876e-09
4.50522e-09
4.45007e-09
4.50401e-09
4.48968e-09
4.45648e-09
4.48914e-09
1.13795e-07
2.87747e-07
4.43823e-09
4.42561e-09
4.4351e-09
2.87691e-07
1.13784e-07
2.87728e-07
4.51342e-09
4.53834e-09
4.50217e-09
4.53753e-09
1.13763e-07
2.8773e-07
4.44938e-09
4.50454e-09
4.44815e-09
4.50368e-09
4.48808e-09
4.45578e-09
4.49083e-09
1.13795e-07
2.87748e-07
4.43665e-09
4.42615e-09
4.43682e-09
2.8769e-07
1.13783e-07
2.87728e-07
4.51126e-09
4.53763e-09
4.50426e-09
4.5359e-09
1.13759e-07
2.87732e-07
4.44755e-09
4.50506e-09
4.45017e-09
4.50327e-09
4.4884e-09
4.4543e-09
4.48794e-09
1.13795e-07
2.8775e-07
4.43697e-09
4.4252e-09
4.43439e-09
2.87694e-07
1.13784e-07
2.87725e-07
4.51063e-09
4.53707e-09
4.50521e-09
4.53716e-09
1.13758e-07
2.8773e-07
4.44694e-09
4.5041e-09
4.45113e-09
4.50542e-09
4.48809e-09
4.45511e-09
4.48996e-09
1.13795e-07
2.87749e-07
4.43677e-09
4.42301e-09
4.43255e-09
2.87693e-07
1.13783e-07
2.87726e-07
4.5145e-09
4.53992e-09
4.50389e-09
4.53556e-09
1.13759e-07
2.87733e-07
4.45075e-09
4.50695e-09
4.4498e-09
4.50346e-09
4.48868e-09
4.45288e-09
4.48644e-09
1.13795e-07
2.87751e-07
4.43713e-09
4.42316e-09
4.43176e-09
2.87697e-07
1.13784e-07
2.87727e-07
4.51127e-09
4.53577e-09
4.50357e-09
4.53669e-09
1.13759e-07
2.87731e-07
4.44753e-09
4.5026e-09
4.44949e-09
4.50453e-09
4.48623e-09
4.455e-09
4.48928e-09
1.13796e-07
2.87749e-07
4.43556e-09
4.42536e-09
4.43469e-09
2.87693e-07
1.13783e-07
2.87726e-07
4.51266e-09
4.53842e-09
4.5047e-09
4.53721e-09
1.13758e-07
2.87731e-07
4.44893e-09
4.50519e-09
4.45057e-09
4.50505e-09
4.48788e-09
4.4556e-09
4.49178e-09
1.13795e-07
2.87749e-07
4.43727e-09
4.42599e-09
4.43719e-09
2.8769e-07
1.13784e-07
2.87727e-07
4.51194e-09
4.5371e-09
4.50406e-09
4.53701e-09
1.13759e-07
2.8773e-07
4.4482e-09
4.50382e-09
4.44987e-09
4.50459e-09
4.48981e-09
4.45648e-09
4.49184e-09
1.13796e-07
2.87748e-07
4.43925e-09
4.42695e-09
4.4382e-09
2.87689e-07
1.13783e-07
2.87725e-07
4.51371e-09
4.53823e-09
4.51272e-09
4.52945e-09
1.13759e-07
2.87729e-07
4.4495e-09
4.50456e-09
4.44549e-09
4.50169e-09
4.48731e-09
4.45603e-09
4.46389e-09
1.13795e-07
2.87751e-07
4.43943e-09
4.42096e-09
4.41991e-09
2.87695e-07
1.13777e-07
2.87723e-07
4.50429e-09
4.53559e-09
4.45374e-09
4.53244e-09
1.13764e-07
2.8775e-07
4.43174e-09
4.50093e-09
4.42108e-09
4.51079e-09
4.45956e-09
4.45118e-09
4.53384e-09
1.13794e-07
2.87751e-07
4.34767e-09
4.42439e-09
4.4183e-09
2.87698e-07
1.13784e-07
2.87715e-07
4.47715e-09
4.49074e-09
4.51157e-09
4.5346e-09
1.13767e-07
2.87748e-07
4.33503e-09
4.51384e-09
4.46754e-09
4.50655e-09
4.50631e-09
4.44726e-09
4.49133e-09
1.13794e-07
2.87749e-07
4.45733e-09
4.43373e-09
4.43735e-09
2.87692e-07
1.13775e-07
2.87713e-07
4.50308e-09
4.52396e-09
4.49567e-09
4.54304e-09
1.1381e-07
2.87746e-07
4.43103e-09
4.50666e-09
4.46313e-09
4.50539e-09
4.49173e-09
4.45463e-09
4.49101e-09
1.13795e-07
2.87748e-07
4.44075e-09
4.43333e-09
4.43606e-09
2.8769e-07
1.13772e-07
2.8771e-07
4.50025e-09
4.53512e-09
4.4965e-09
4.52932e-09
1.13781e-07
2.87748e-07
4.43174e-09
4.5058e-09
4.46524e-09
4.50589e-09
4.48898e-09
4.44995e-09
4.49015e-09
1.13795e-07
2.87749e-07
4.43772e-09
4.43331e-09
4.43518e-09
2.87693e-07
1.13773e-07
2.87711e-07
4.49952e-09
4.52846e-09
4.49576e-09
4.52853e-09
1.13779e-07
2.87748e-07
4.43193e-09
4.50554e-09
4.46216e-09
4.50585e-09
4.48832e-09
4.45129e-09
4.49098e-09
1.13795e-07
2.87748e-07
4.43695e-09
4.43233e-09
4.43632e-09
2.87691e-07
1.13772e-07
2.87711e-07
4.5005e-09
4.52905e-09
4.49502e-09
4.5283e-09
1.13779e-07
2.87748e-07
4.43142e-09
4.50674e-09
4.46519e-09
4.50557e-09
4.49052e-09
4.44994e-09
4.49052e-09
1.13795e-07
2.87749e-07
4.43951e-09
4.43377e-09
4.43821e-09
2.8769e-07
1.13772e-07
2.87711e-07
4.49979e-09
4.52718e-09
4.49508e-09
4.52767e-09
1.1378e-07
2.87748e-07
4.43252e-09
4.50519e-09
4.46543e-09
4.50568e-09
4.4897e-09
4.45028e-09
4.49035e-09
1.13795e-07
2.87749e-07
4.43668e-09
4.43462e-09
4.43727e-09
2.87693e-07
1.13773e-07
2.8771e-07
4.49874e-09
4.52637e-09
4.4957e-09
4.52845e-09
1.1378e-07
2.87748e-07
4.43094e-09
4.50477e-09
4.46566e-09
4.50636e-09
4.48506e-09
4.44994e-09
4.49008e-09
1.13796e-07
2.8775e-07
4.4397e-09
4.42561e-09
4.43578e-09
2.87694e-07
1.13772e-07
2.87711e-07
4.50142e-09
4.52877e-09
4.4951e-09
4.52835e-09
1.13779e-07
2.87748e-07
4.43402e-09
4.50678e-09
4.46497e-09
4.50593e-09
4.48852e-09
4.45003e-09
4.49139e-09
1.13795e-07
2.87749e-07
4.43615e-09
4.42635e-09
4.4378e-09
2.87691e-07
1.13772e-07
2.87712e-07
4.50048e-09
4.52931e-09
4.49437e-09
4.52744e-09
1.13779e-07
2.87749e-07
4.43297e-09
4.50712e-09
4.46422e-09
4.50496e-09
4.49105e-09
4.44892e-09
4.48984e-09
1.13795e-07
2.87751e-07
4.43885e-09
4.42518e-09
4.43635e-09
2.87694e-07
1.13772e-07
2.87715e-07
4.50008e-09
4.52821e-09
4.49355e-09
4.52737e-09
1.13779e-07
2.8775e-07
4.43255e-09
4.50596e-09
4.46344e-09
4.50487e-09
4.48738e-09
4.44913e-09
4.48971e-09
1.13795e-07
2.87751e-07
4.43533e-09
4.42576e-09
4.43621e-09
2.87695e-07
1.13773e-07
2.87711e-07
4.49705e-09
4.5263e-09
4.49651e-09
4.52906e-09
1.1378e-07
2.87749e-07
4.42958e-09
4.50401e-09
4.46646e-09
4.50665e-09
4.4879e-09
4.45074e-09
4.4898e-09
1.13796e-07
2.8775e-07
4.43891e-09
4.427e-09
4.43575e-09
2.87693e-07
1.13772e-07
2.87711e-07
4.5008e-09
4.52856e-09
4.49495e-09
4.52925e-09
1.13779e-07
2.87748e-07
4.4334e-09
4.5065e-09
4.46506e-09
4.50636e-09
4.49022e-09
4.45082e-09
4.49078e-09
1.13795e-07
2.87748e-07
4.43759e-09
4.42738e-09
4.43801e-09
2.8769e-07
1.13772e-07
2.87711e-07
4.49898e-09
4.52889e-09
4.4942e-09
4.53371e-09
1.13779e-07
2.87752e-07
4.43182e-09
4.50627e-09
4.45542e-09
4.50494e-09
4.4897e-09
4.45397e-09
4.48825e-09
1.13795e-07
2.87749e-07
4.43819e-09
4.42645e-09
4.43668e-09
2.87694e-07
1.13773e-07
2.87712e-07
4.49994e-09
4.54266e-09
4.48988e-09
4.51932e-09
1.13777e-07
2.8776e-07
4.45159e-09
4.50683e-09
4.44842e-09
4.50388e-09
4.48772e-09
4.46015e-09
4.48777e-09
1.13795e-07
2.87752e-07
4.43666e-09
4.4252e-09
4.43531e-09
2.87695e-07
1.13774e-07
2.87714e-07
4.49697e-09
4.48266e-09
4.49391e-09
4.51868e-09
1.13764e-07
2.87751e-07
4.44747e-09
4.50541e-09
4.44907e-09
4.50628e-09
4.49033e-09
4.44764e-09
4.48755e-09
1.13795e-07
2.87749e-07
4.43767e-09
4.42892e-09
4.42781e-09
2.87696e-07
1.13773e-07
2.87712e-07
4.49938e-09
4.52059e-09
4.49603e-09
4.52372e-09
1.13777e-07
2.87751e-07
4.44646e-09
4.50794e-09
4.44682e-09
4.50065e-09
4.4818e-09
4.45606e-09
4.5128e-09
1.13795e-07
2.87744e-07
4.41381e-09
4.43117e-09
4.42809e-09
2.87701e-07
1.13774e-07
2.87711e-07
4.4995e-09
4.5234e-09
4.49709e-09
4.52533e-09
1.13777e-07
2.87752e-07
4.44314e-09
4.50036e-09
4.44714e-09
4.49954e-09
4.51379e-09
4.45699e-09
4.5151e-09
1.13797e-07
2.87743e-07
4.42506e-09
4.43084e-09
4.43008e-09
2.87704e-07
1.13774e-07
2.87709e-07
4.50086e-09
4.52334e-09
4.49699e-09
4.5251e-09
1.13778e-07
2.87752e-07
4.44409e-09
4.4989e-09
4.44695e-09
4.4991e-09
4.51283e-09
4.45651e-09
4.5126e-09
1.13799e-07
2.87743e-07
4.42417e-09
4.43032e-09
4.4276e-09
2.87709e-07
1.13773e-07
2.87709e-07
4.5019e-09
4.52542e-09
4.49695e-09
4.5245e-09
1.13776e-07
2.87753e-07
4.44506e-09
4.50084e-09
4.4469e-09
4.49855e-09
4.51424e-09
4.45494e-09
4.51046e-09
1.13797e-07
2.87744e-07
4.42566e-09
4.42802e-09
4.42596e-09
2.87712e-07
1.13773e-07
2.87706e-07
4.50197e-09
4.52451e-09
4.49727e-09
4.52491e-09
1.13777e-07
2.87751e-07
4.44514e-09
4.50001e-09
4.44722e-09
4.49906e-09
4.51078e-09
4.45585e-09
4.51167e-09
1.13798e-07
2.87742e-07
4.42213e-09
4.42882e-09
4.42467e-09
2.87709e-07
1.13773e-07
2.87709e-07
4.50376e-09
4.52566e-09
4.49654e-09
4.52537e-09
1.13776e-07
2.8775e-07
4.44687e-09
4.50116e-09
4.44648e-09
4.49949e-09
4.51387e-09
4.45625e-09
4.51378e-09
1.13797e-07
2.87741e-07
4.42696e-09
4.42974e-09
4.42805e-09
2.87705e-07
1.13774e-07
2.87711e-07
4.50093e-09
4.52387e-09
4.49549e-09
4.52375e-09
1.13777e-07
2.87752e-07
4.44403e-09
4.49942e-09
4.44547e-09
4.49775e-09
4.51292e-09
4.45523e-09
4.51206e-09
1.13798e-07
2.87744e-07
4.42398e-09
4.42893e-09
4.42683e-09
2.87707e-07
1.13773e-07
2.8771e-07
4.50107e-09
4.52496e-09
4.49623e-09
4.52354e-09
1.13776e-07
2.87753e-07
4.44421e-09
4.50044e-09
4.44619e-09
4.49763e-09
4.51575e-09
4.45553e-09
4.51266e-09
1.13797e-07
2.87745e-07
4.42687e-09
4.42921e-09
4.42665e-09
2.87708e-07
1.13773e-07
2.87709e-07
4.50252e-09
4.52492e-09
4.49594e-09
4.52485e-09
1.13776e-07
2.8775e-07
4.44565e-09
4.50037e-09
4.44577e-09
4.49887e-09
4.51437e-09
4.45629e-09
4.51423e-09
1.13797e-07
2.87741e-07
4.42684e-09
4.43024e-09
4.43053e-09
2.87702e-07
1.13773e-07
2.87714e-07
4.50159e-09
4.52502e-09
4.49344e-09
4.52285e-09
1.13777e-07
2.87754e-07
4.44515e-09
4.50056e-09
4.43987e-09
4.49674e-09
4.51524e-09
4.45486e-09
4.51082e-09
1.13798e-07
2.87746e-07
4.42789e-09
4.42869e-09
4.42708e-09
2.8771e-07
1.13773e-07
2.8771e-07
4.49908e-09
4.52295e-09
4.49713e-09
4.52532e-09
1.13777e-07
2.87752e-07
4.44289e-09
4.49836e-09
4.44343e-09
4.4992e-09
4.51336e-09
4.4564e-09
4.51116e-09
1.13798e-07
2.87744e-07
4.42594e-09
4.43022e-09
4.4274e-09
2.87711e-07
1.13774e-07
2.87707e-07
4.50085e-09
4.52358e-09
4.4972e-09
4.52539e-09
1.13777e-07
2.87751e-07
4.44455e-09
4.49899e-09
4.44333e-09
4.49957e-09
4.51335e-09
4.45622e-09
4.51373e-09
1.13798e-07
2.87743e-07
4.42585e-09
4.43001e-09
4.42971e-09
2.87707e-07
1.13773e-07
2.87709e-07
4.50211e-09
4.52529e-09
4.49689e-09
4.52409e-09
1.13777e-07
2.87752e-07
4.44554e-09
4.50125e-09
4.44241e-09
4.50046e-09
4.51392e-09
4.45573e-09
4.51244e-09
1.13798e-07
2.87745e-07
4.42619e-09
4.43149e-09
4.42646e-09
2.87712e-07
1.13774e-07
2.87713e-07
4.5009e-09
4.52283e-09
4.49418e-09
4.52384e-09
1.13777e-07
2.87753e-07
4.44373e-09
4.50183e-09
4.43958e-09
4.50142e-09
4.5127e-09
4.4554e-09
4.51749e-09
1.13798e-07
2.87739e-07
4.42108e-09
4.38939e-09
4.41062e-09
2.87701e-07
1.13773e-07
2.87703e-07
4.50043e-09
4.52437e-09
4.50114e-09
4.52754e-09
1.13776e-07
2.87748e-07
4.44353e-09
4.50135e-09
4.44688e-09
4.49887e-09
4.51614e-09
4.45909e-09
4.51322e-09
1.138e-07
2.87739e-07
4.40834e-09
4.42963e-09
4.43161e-09
2.87702e-07
1.13773e-07
2.87707e-07
4.50555e-09
4.52714e-09
4.4966e-09
4.52529e-09
1.13776e-07
2.8775e-07
4.44888e-09
4.4997e-09
4.44273e-09
4.49802e-09
4.51604e-09
4.45515e-09
4.51016e-09
1.13796e-07
2.87742e-07
4.42485e-09
4.42605e-09
4.41089e-09
2.87713e-07
1.13772e-07
2.87709e-07
4.50375e-09
4.52587e-09
4.49489e-09
4.52383e-09
1.13775e-07
2.8775e-07
4.44736e-09
4.50028e-09
4.44118e-09
4.49736e-09
4.50922e-09
4.45552e-09
4.51343e-09
1.13796e-07
2.87742e-07
4.43157e-09
4.42886e-09
4.41823e-09
2.87707e-07
1.13772e-07
2.87706e-07
4.49894e-09
4.52257e-09
4.49766e-09
4.52563e-09
1.13776e-07
2.87749e-07
4.44266e-09
4.49776e-09
4.44399e-09
4.49934e-09
4.51115e-09
4.4559e-09
4.51093e-09
1.13796e-07
2.8774e-07
4.43916e-09
4.43005e-09
4.42679e-09
2.87706e-07
1.13773e-07
2.87706e-07
4.5001e-09
4.52488e-09
4.49739e-09
4.52601e-09
1.13775e-07
2.87748e-07
4.44383e-09
4.50037e-09
4.44377e-09
4.49976e-09
4.51378e-09
4.45614e-09
4.5134e-09
1.13796e-07
2.87739e-07
4.42525e-09
4.43044e-09
4.42932e-09
2.87703e-07
1.13772e-07
2.87708e-07
4.50384e-09
4.52633e-09
4.49566e-09
4.5238e-09
1.13775e-07
2.87749e-07
4.44757e-09
4.50187e-09
4.44203e-09
4.49745e-09
4.51604e-09
4.4557e-09
4.51156e-09
1.13796e-07
2.8774e-07
4.42767e-09
4.4301e-09
4.42786e-09
2.87705e-07
1.13773e-07
2.87708e-07
4.49841e-09
4.52307e-09
4.4969e-09
4.52617e-09
1.13776e-07
2.87749e-07
4.44217e-09
4.49852e-09
4.44328e-09
4.49984e-09
4.51347e-09
4.45597e-09
4.51249e-09
1.13797e-07
2.87741e-07
4.42546e-09
4.43053e-09
4.42781e-09
2.87704e-07
1.13772e-07
2.87709e-07
4.50165e-09
4.52387e-09
4.49496e-09
4.52389e-09
1.13776e-07
2.8775e-07
4.44541e-09
4.49937e-09
4.44134e-09
4.49755e-09
4.51328e-09
4.45546e-09
4.51287e-09
1.13796e-07
2.87741e-07
4.42436e-09
4.4317e-09
4.42939e-09
2.87704e-07
1.13772e-07
2.87705e-07
4.50097e-09
4.5253e-09
4.49751e-09
4.52357e-09
1.13775e-07
2.87751e-07
4.44476e-09
4.50066e-09
4.44385e-09
4.49749e-09
4.51571e-09
4.45417e-09
4.5102e-09
1.13796e-07
2.87742e-07
4.42776e-09
4.42787e-09
4.42589e-09
2.87708e-07
1.13773e-07
2.87706e-07
4.50093e-09
4.52376e-09
4.49638e-09
4.5264e-09
1.13776e-07
2.87746e-07
4.4447e-09
4.49909e-09
4.44275e-09
4.50023e-09
4.51327e-09
4.45786e-09
4.51415e-09
1.13797e-07
2.87737e-07
4.42531e-09
4.43176e-09
4.42995e-09
2.877e-07
1.13773e-07
2.87709e-07
4.50108e-09
4.52474e-09
4.49552e-09
4.52325e-09
1.13776e-07
2.8775e-07
4.44483e-09
4.50007e-09
4.44185e-09
4.49706e-09
4.51407e-09
4.4545e-09
4.51088e-09
1.13797e-07
2.87742e-07
4.42621e-09
4.42844e-09
4.42673e-09
2.87706e-07
1.13772e-07
2.8771e-07
4.49966e-09
4.52381e-09
4.49588e-09
4.52408e-09
1.13776e-07
2.87751e-07
4.44337e-09
4.49914e-09
4.44227e-09
4.49788e-09
4.51356e-09
4.45627e-09
4.51208e-09
1.13797e-07
2.87742e-07
4.42566e-09
4.43019e-09
4.42792e-09
2.87706e-07
1.13772e-07
2.87705e-07
4.50069e-09
4.52347e-09
4.4969e-09
4.5247e-09
1.13775e-07
2.87748e-07
4.44449e-09
4.49872e-09
4.44327e-09
4.49852e-09
4.51199e-09
4.45705e-09
4.51336e-09
1.13796e-07
2.87739e-07
4.42413e-09
4.43089e-09
4.42916e-09
2.87703e-07
1.13772e-07
2.87707e-07
4.50179e-09
4.5249e-09
4.49481e-09
4.52329e-09
1.13776e-07
2.8775e-07
4.44947e-09
4.50037e-09
4.4565e-09
4.49705e-09
4.51426e-09
4.4545e-09
4.51169e-09
1.13797e-07
2.87741e-07
4.42639e-09
4.42849e-09
4.42751e-09
2.87705e-07
1.13771e-07
2.87706e-07
4.50131e-09
4.52516e-09
4.49603e-09
4.52457e-09
1.13775e-07
2.87749e-07
4.42971e-09
4.50035e-09
4.45792e-09
4.49844e-09
4.51307e-09
4.45627e-09
4.51193e-09
1.13796e-07
2.87741e-07
4.42523e-09
4.43018e-09
4.4278e-09
2.87706e-07
1.13771e-07
2.87705e-07
4.50288e-09
4.52447e-09
4.49629e-09
4.52407e-09
1.13775e-07
2.87751e-07
4.43146e-09
4.49977e-09
4.45812e-09
4.49767e-09
4.51134e-09
4.45479e-09
4.51089e-09
1.13796e-07
2.87742e-07
4.42346e-09
4.42871e-09
4.42674e-09
2.87708e-07
1.13771e-07
2.87702e-07
4.50261e-09
4.52324e-09
4.49827e-09
4.52591e-09
1.13775e-07
2.87747e-07
4.43125e-09
4.5012e-09
4.46011e-09
4.50594e-09
4.51422e-09
4.45745e-09
4.51385e-09
1.13796e-07
2.87767e-07
4.42632e-09
4.43041e-09
4.4296e-09
2.87701e-07
1.13771e-07
2.87708e-07
4.50407e-09
4.52631e-09
4.4944e-09
4.52377e-09
1.13776e-07
2.8775e-07
4.43277e-09
4.4955e-09
4.45622e-09
4.50419e-09
4.51595e-09
4.45496e-09
4.51016e-09
1.13802e-07
2.87771e-07
4.42802e-09
4.42825e-09
4.42605e-09
2.87707e-07
1.13772e-07
2.87711e-07
4.49904e-09
4.5234e-09
4.49421e-09
4.52331e-09
1.13776e-07
2.87752e-07
4.42779e-09
4.49283e-09
4.45601e-09
4.50367e-09
4.51289e-09
4.45497e-09
4.51069e-09
1.13802e-07
2.87773e-07
4.42506e-09
4.42833e-09
4.42671e-09
2.87707e-07
1.13771e-07
2.87705e-07
4.50073e-09
4.52347e-09
4.49659e-09
4.52636e-09
1.13775e-07
2.87746e-07
4.42937e-09
4.49308e-09
4.45853e-09
4.50939e-09
4.51331e-09
4.45746e-09
4.51456e-09
1.13802e-07
2.87773e-07
4.4254e-09
4.43067e-09
4.43035e-09
2.87702e-07
1.13771e-07
2.87705e-07
4.50278e-09
4.52597e-09
4.49474e-09
4.52673e-09
1.13776e-07
2.87748e-07
4.43171e-09
4.49489e-09
4.45792e-09
4.49877e-09
4.51556e-09
4.45445e-09
4.51205e-09
1.13802e-07
2.8775e-07
4.42807e-09
4.42675e-09
4.43454e-09
2.87705e-07
1.13771e-07
2.87712e-07
4.50138e-09
4.52692e-09
4.49769e-09
4.53121e-09
1.13776e-07
2.87747e-07
4.43253e-09
4.49981e-09
4.4588e-09
4.52077e-09
4.51946e-09
4.46022e-09
4.50144e-09
1.13798e-07
2.87747e-07
4.44283e-09
4.44001e-09
4.44378e-09
2.87693e-07
1.13762e-07
2.87714e-07
4.50986e-09
4.51699e-09
4.92647e-09
4.89423e-09
1.1377e-07
2.87727e-07
4.42949e-09
4.52872e-09
4.90034e-09
4.9411e-09
4.48543e-09
4.75514e-09
4.8282e-09
1.13789e-07
2.87748e-07
4.41684e-09
4.79847e-09
4.81107e-09
2.87692e-07
1.13715e-07
2.87009e-07
5.47711e-09
5.5328e-09
2.49864e-08
2.50584e-08
1.1367e-07
2.87031e-07
5.45992e-09
5.43968e-09
2.50173e-08
2.50599e-08
5.42979e-09
2.48795e-08
2.49789e-08
1.13726e-07
2.86984e-07
5.36945e-09
2.48883e-08
2.48559e-08
2.8702e-07
1.12022e-07
9.96388e-08
4.93156e-08
4.9346e-08
2.52818e-07
2.52385e-07
1.12009e-07
9.96613e-08
4.9184e-08
4.94074e-08
2.52414e-07
2.52262e-07
4.938e-08
2.52921e-07
2.52673e-07
1.12028e-07
9.9563e-08
4.92033e-08
2.52577e-07
2.52366e-07
9.95898e-08
5.8177e-07
2.4253e-07
2.42288e-07
5.81638e-07
2.42686e-07
2.42388e-07
5.57158e-07
5.57248e-07
5.57182e-07
2.42561e-07
5.81642e-07
2.42682e-07
5.259e-08
2.3258e-07
1.56457e-07
1.56475e-07
5.50231e-07
3.23989e-07
6.84693e-07
2.11812e-07
5.50169e-07
3.24025e-07
2.11821e-07
6.84507e-07
4.26537e-07
4.72009e-07
4.7192e-07
3.74308e-06
0.000119984
3.59075e-06
0.000121471
0.000240026
0.00024649
3.74367e-06
0.000120001
3.59207e-06
0.000121489
1.42209e-06
1.42137e-06
1.42172e-06
2.00881e-07
2.00806e-07
2.00844e-07
2.00912e-07
3.15901e-07
5.96322e-06
1.00334e-06
8.88494e-07
1.85275e-07
4.35122e-06
6.80548e-07
0.000240018
0.000246476
3.15044e-07
1.00246e-06
5.96195e-06
8.88354e-07
1.85188e-07
6.80229e-07
4.35035e-06
8.38255e-06
8.38356e-06
2.9343e-07
9.43096e-06
9.43278e-06
3.59582e-06
0.000120654
3.58673e-06
0.000120643
0.000247319
0.00024731
3.59632e-06
0.00012067
3.58717e-06
0.000120659
9.69412e-08
9.69346e-08
9.69802e-08
1.35387e-08