/*--------------------------------*- C++ -*----------------------------------*\
| =========                 |                                                 |
| \\      /  F ield         | OpenFOAM: The Open Source CFD Toolbox           |
|  \\    /   O peration     | Version:  v1906                                 |
|   \\  /    A nd           | Web:      www.OpenFOAM.com                      |
|    \\/     M anipulation  |                                                 |
\*---------------------------------------------------------------------------*/
FoamFile
{
    version     2.0;
    format      ascii;
    class       volScalarField;
    location    "750";
    object      epsilon;
}
// * * * * * * * * * * * * * * * * * * * * * * * * * * * * * * * * * * * * * //

dimensions      [0 2 -3 0 0 0 0];


internalField   nonuniform List<scalar> 
43024
(
6.63549e-07
1.18843e-06
1.18849e-06
1.42057e-06
6.68516e-07
1.19043e-06
1.19049e-06
1.42261e-06
6.72915e-07
1.19194e-06
1.192e-06
1.42423e-06
6.76764e-07
1.19297e-06
1.19303e-06
1.42545e-06
6.80082e-07
1.19355e-06
1.19361e-06
1.42628e-06
6.82892e-07
1.19369e-06
1.19375e-06
1.42674e-06
6.85219e-07
1.19345e-06
1.19351e-06
1.42685e-06
6.87085e-07
1.19283e-06
1.19289e-06
1.42661e-06
6.88511e-07
1.19185e-06
1.19191e-06
1.42605e-06
6.89521e-07
1.19052e-06
1.19059e-06
1.42517e-06
6.90136e-07
1.18889e-06
1.18895e-06
1.42401e-06
6.90383e-07
1.18696e-06
1.18702e-06
1.42258e-06
6.90303e-07
1.18476e-06
1.18483e-06
1.4209e-06
6.89925e-07
1.18233e-06
1.18239e-06
1.41898e-06
6.89261e-07
1.17966e-06
1.17972e-06
1.41688e-06
6.88332e-07
1.1768e-06
1.17686e-06
1.41452e-06
6.8716e-07
1.17377e-06
1.17384e-06
1.41196e-06
6.85766e-07
1.1706e-06
1.17066e-06
1.40925e-06
6.84172e-07
1.16725e-06
1.16733e-06
1.40637e-06
6.82149e-07
1.16354e-06
1.1636e-06
1.403e-06
6.63172e-07
1.10622e-06
1.10619e-06
1.35974e-06
1.41845e-06
1.18791e-06
1.18793e-06
1.41841e-06
1.18782e-06
1.18795e-06
1.18783e-06
1.18796e-06
1.41848e-06
1.18789e-06
1.18787e-06
1.41851e-06
1.42054e-06
1.42056e-06
1.1885e-06
1.18853e-06
1.19003e-06
1.19006e-06
1.42048e-06
1.42051e-06
1.18842e-06
1.18854e-06
1.18995e-06
1.19007e-06
1.18856e-06
1.18996e-06
1.19009e-06
1.42055e-06
1.42058e-06
1.18847e-06
1.19002e-06
1.19e-06
1.42059e-06
1.42258e-06
1.42226e-06
1.1905e-06
1.19053e-06
1.19166e-06
1.19168e-06
1.42252e-06
1.4222e-06
1.19042e-06
1.19054e-06
1.19157e-06
1.19169e-06
1.19056e-06
1.19158e-06
1.19171e-06
1.42259e-06
1.42227e-06
1.19047e-06
1.19164e-06
1.19162e-06
1.42229e-06
1.42421e-06
1.42361e-06
1.19201e-06
1.19204e-06
1.1928e-06
1.19283e-06
1.42414e-06
1.42358e-06
1.19193e-06
1.19205e-06
1.19272e-06
1.19284e-06
1.19207e-06
1.19273e-06
1.19286e-06
1.4242e-06
1.42365e-06
1.19198e-06
1.19278e-06
1.19277e-06
1.42369e-06
1.42543e-06
1.42457e-06
1.19305e-06
1.19307e-06
1.1935e-06
1.19352e-06
1.42535e-06
1.42452e-06
1.19297e-06
1.19309e-06
1.19342e-06
1.19354e-06
1.19311e-06
1.19342e-06
1.19356e-06
1.42542e-06
1.42459e-06
1.19302e-06
1.19348e-06
1.19347e-06
1.42462e-06
1.42623e-06
1.42508e-06
1.19363e-06
1.19365e-06
1.19377e-06
1.19379e-06
1.42618e-06
1.42503e-06
1.19355e-06
1.19367e-06
1.19368e-06
1.19381e-06
1.19369e-06
1.19369e-06
1.19383e-06
1.42624e-06
1.4251e-06
1.1936e-06
1.19375e-06
1.19374e-06
1.42513e-06
1.4267e-06
1.42523e-06
1.19376e-06
1.19379e-06
1.1936e-06
1.19363e-06
1.42665e-06
1.42517e-06
1.19368e-06
1.19381e-06
1.19352e-06
1.19365e-06
1.19383e-06
1.19353e-06
1.19367e-06
1.42671e-06
1.42525e-06
1.19374e-06
1.19358e-06
1.19358e-06
1.42528e-06
1.4268e-06
1.42503e-06
1.19353e-06
1.19356e-06
1.19305e-06
1.19307e-06
1.42675e-06
1.42502e-06
1.19345e-06
1.19357e-06
1.19296e-06
1.19309e-06
1.19359e-06
1.19297e-06
1.19311e-06
1.42682e-06
1.42505e-06
1.19351e-06
1.19303e-06
1.19303e-06
1.42508e-06
1.42656e-06
1.4245e-06
1.19291e-06
1.19294e-06
1.19212e-06
1.19215e-06
1.42665e-06
1.42417e-06
1.19282e-06
1.19296e-06
1.19204e-06
1.19217e-06
1.19297e-06
1.19204e-06
1.19219e-06
1.42658e-06
1.42452e-06
1.19289e-06
1.1921e-06
1.1921e-06
1.42455e-06
1.426e-06
1.42367e-06
1.19193e-06
1.19195e-06
1.19085e-06
1.19088e-06
1.42621e-06
1.42333e-06
1.19184e-06
1.19197e-06
1.19077e-06
1.1909e-06
1.19199e-06
1.19077e-06
1.19092e-06
1.42603e-06
1.42338e-06
1.19191e-06
1.19083e-06
1.19084e-06
1.42372e-06
1.42512e-06
1.42253e-06
1.19061e-06
1.19063e-06
1.18927e-06
1.1893e-06
1.42534e-06
1.42219e-06
1.19052e-06
1.19065e-06
1.18918e-06
1.18932e-06
1.19067e-06
1.18919e-06
1.18933e-06
1.42542e-06
1.42227e-06
1.19059e-06
1.18924e-06
1.18925e-06
1.42258e-06
1.42396e-06
1.42114e-06
1.18897e-06
1.189e-06
1.18738e-06
1.18741e-06
1.42417e-06
1.4208e-06
1.18889e-06
1.18902e-06
1.1873e-06
1.18743e-06
1.18903e-06
1.1873e-06
1.18745e-06
1.42424e-06
1.42087e-06
1.18895e-06
1.18736e-06
1.18737e-06
1.42119e-06
1.42253e-06
1.41948e-06
1.18704e-06
1.18707e-06
1.18523e-06
1.18525e-06
1.42274e-06
1.41914e-06
1.18696e-06
1.18709e-06
1.18514e-06
1.18528e-06
1.1871e-06
1.18515e-06
1.1853e-06
1.42281e-06
1.41923e-06
1.18702e-06
1.1852e-06
1.18521e-06
1.41953e-06
1.42087e-06
1.41754e-06
1.18484e-06
1.18488e-06
1.18282e-06
1.18284e-06
1.42104e-06
1.41733e-06
1.18477e-06
1.18489e-06
1.18273e-06
1.18287e-06
1.1849e-06
1.18273e-06
1.18289e-06
1.4211e-06
1.41743e-06
1.18482e-06
1.18279e-06
1.1828e-06
1.41762e-06
1.41902e-06
1.4153e-06
1.18239e-06
1.18243e-06
1.18018e-06
1.18019e-06
1.41898e-06
1.41522e-06
1.18233e-06
1.18244e-06
1.18008e-06
1.18024e-06
1.18246e-06
1.18008e-06
1.18025e-06
1.41904e-06
1.4153e-06
1.18237e-06
1.18014e-06
1.18017e-06
1.4154e-06
1.41682e-06
1.41292e-06
1.17971e-06
1.17977e-06
1.17734e-06
1.17733e-06
1.41678e-06
1.41286e-06
1.17966e-06
1.17977e-06
1.17722e-06
1.17739e-06
1.17978e-06
1.17722e-06
1.17741e-06
1.41685e-06
1.41294e-06
1.1797e-06
1.17728e-06
1.17732e-06
1.41299e-06
1.41445e-06
1.41038e-06
1.17684e-06
1.17691e-06
1.17432e-06
1.17433e-06
1.4144e-06
1.41032e-06
1.17681e-06
1.17689e-06
1.17418e-06
1.17437e-06
1.17691e-06
1.17417e-06
1.17439e-06
1.41447e-06
1.4104e-06
1.17682e-06
1.17423e-06
1.1743e-06
1.41043e-06
1.41191e-06
1.40767e-06
1.17379e-06
1.17382e-06
1.17113e-06
1.17116e-06
1.41186e-06
1.40762e-06
1.17378e-06
1.17384e-06
1.17096e-06
1.17118e-06
1.17385e-06
1.17096e-06
1.1712e-06
1.41192e-06
1.4077e-06
1.17377e-06
1.17101e-06
1.17111e-06
1.40773e-06
1.4092e-06
1.40482e-06
1.17058e-06
1.17061e-06
1.16779e-06
1.16783e-06
1.40915e-06
1.40477e-06
1.17061e-06
1.17066e-06
1.16762e-06
1.16781e-06
1.17065e-06
1.16763e-06
1.16786e-06
1.40922e-06
1.40485e-06
1.17057e-06
1.16768e-06
1.16778e-06
1.40488e-06
1.40632e-06
1.40152e-06
1.16727e-06
1.1673e-06
1.1639e-06
1.16393e-06
1.40627e-06
1.40147e-06
1.16728e-06
1.16738e-06
1.16375e-06
1.16389e-06
1.16733e-06
1.16377e-06
1.16396e-06
1.40635e-06
1.40155e-06
1.16725e-06
1.16381e-06
1.16387e-06
1.40158e-06
1.40295e-06
1.38024e-06
1.16359e-06
1.16362e-06
1.14122e-06
1.14124e-06
1.40291e-06
1.38019e-06
1.16356e-06
1.16369e-06
1.14118e-06
1.14117e-06
1.16366e-06
1.14115e-06
1.14127e-06
1.40297e-06
1.38024e-06
1.16356e-06
1.14113e-06
1.14124e-06
1.37996e-06
1.35963e-06
1.10617e-06
1.1062e-06
1.35969e-06
1.10617e-06
1.10614e-06
6.6322e-07
6.63187e-07
6.632e-07
1.1062e-06
1.35969e-06
1.10619e-06
4.23883e-06
9.5657e-06
1.90934e-05
4.239e-06
9.56773e-06
6.62202e-07
6.62206e-07
6.62301e-07
6.62296e-07
2.29553e-06
1.18658e-06
3.64736e-06
9.35046e-07
1.90943e-05
2.29548e-06
1.18664e-06
9.351e-07
3.64741e-06
1.4173e-06
5.65054e-06
5.65248e-06
4.24107e-06
9.57186e-06
4.24068e-06
9.57661e-06
1.91047e-05
1.91146e-05
4.24124e-06
9.57389e-06
4.24076e-06
9.57864e-06
6.63553e-07
6.63648e-07
6.63636e-07
6.6731e-07
6.67314e-07
6.67408e-07
6.67407e-07
2.29664e-06
3.64926e-06
9.37692e-07
1.18896e-06
2.29656e-06
3.64949e-06
9.38475e-07
1.91055e-05
1.91155e-05
2.2966e-06
9.37745e-07
3.64926e-06
1.18902e-06
2.29656e-06
9.38527e-07
3.64953e-06
5.65364e-06
5.65558e-06
1.4196e-06
5.65455e-06
5.65649e-06
4.24302e-06
9.58246e-06
4.24272e-06
9.58699e-06
1.91255e-05
1.91351e-05
4.2432e-06
9.58449e-06
4.24281e-06
9.58902e-06
6.6852e-07
6.68614e-07
6.686e-07
6.71846e-07
6.71849e-07
6.71942e-07
6.7194e-07
2.29739e-06
3.65118e-06
9.40671e-07
1.19083e-06
2.29747e-06
3.6513e-06
9.413e-07
1.91263e-05
1.9136e-05
2.29736e-06
9.40724e-07
3.65119e-06
1.19089e-06
2.29747e-06
9.41353e-07
3.65135e-06
5.65745e-06
5.65938e-06
1.42149e-06
5.65826e-06
5.66021e-06
4.2447e-06
9.59253e-06
4.24449e-06
9.59683e-06
1.91455e-05
1.91548e-05
4.24486e-06
9.59455e-06
4.24458e-06
9.59885e-06
6.72918e-07
6.73011e-07
6.72998e-07
6.75826e-07
6.75828e-07
6.7592e-07
6.7592e-07
2.29775e-06
3.65281e-06
9.43067e-07
1.19221e-06
2.29807e-06
3.65281e-06
9.43549e-07
1.91464e-05
1.91558e-05
2.2977e-06
9.4312e-07
3.65281e-06
1.19227e-06
2.29805e-06
9.43602e-07
3.65285e-06
5.66099e-06
5.66291e-06
1.42301e-06
5.66168e-06
5.66363e-06
4.24607e-06
9.60204e-06
4.24596e-06
9.60611e-06
1.91648e-05
1.91738e-05
4.24623e-06
9.60406e-06
4.24606e-06
9.60813e-06
6.76766e-07
6.76858e-07
6.76846e-07
6.7927e-07
6.79272e-07
6.79363e-07
6.79363e-07
2.2978e-06
3.65415e-06
9.44909e-07
1.19313e-06
2.29824e-06
3.65403e-06
9.45252e-07
1.91657e-05
1.91747e-05
2.29773e-06
9.4496e-07
3.65415e-06
1.19319e-06
2.2982e-06
9.45301e-07
3.65407e-06
5.66423e-06
5.66616e-06
1.42421e-06
5.66481e-06
5.66676e-06
4.24717e-06
9.611e-06
4.24717e-06
9.61485e-06
1.91833e-05
1.91919e-05
4.24732e-06
9.61301e-06
4.24726e-06
9.61685e-06
6.80084e-07
6.80175e-07
6.80163e-07
6.82198e-07
6.82201e-07
6.82291e-07
6.82292e-07
2.29752e-06
3.65519e-06
9.46222e-07
1.19361e-06
2.29809e-06
3.65496e-06
9.46434e-07
1.91842e-05
1.91929e-05
2.29744e-06
9.4627e-07
3.65518e-06
1.19366e-06
2.29804e-06
9.46481e-07
3.655e-06
5.66718e-06
5.66913e-06
1.42489e-06
5.66766e-06
5.66962e-06
4.24801e-06
9.6194e-06
4.24811e-06
9.62303e-06
1.9201e-05
1.92093e-05
4.24814e-06
9.6214e-06
4.24818e-06
9.62501e-06
6.82895e-07
6.82985e-07
6.82974e-07
6.84634e-07
6.84637e-07
6.84726e-07
6.84728e-07
2.29693e-06
3.65595e-06
9.47033e-07
1.19366e-06
2.29763e-06
3.65561e-06
9.47127e-07
1.92019e-05
1.92102e-05
2.29684e-06
9.47078e-07
3.65594e-06
1.19372e-06
2.29756e-06
9.47171e-07
3.65565e-06
5.66987e-06
5.67182e-06
1.42522e-06
5.67024e-06
5.67219e-06
4.24857e-06
9.62725e-06
4.24877e-06
9.63065e-06
1.92178e-05
1.92258e-05
4.2487e-06
9.62924e-06
4.24885e-06
9.63263e-06
6.85222e-07
6.85311e-07
6.85302e-07
6.86602e-07
6.86605e-07
6.86693e-07
6.86696e-07
2.2961e-06
3.65643e-06
9.47367e-07
1.1933e-06
2.29682e-06
3.65599e-06
9.47365e-07
1.92187e-05
1.92267e-05
2.29597e-06
9.47409e-07
3.65643e-06
1.19335e-06
2.29673e-06
9.47407e-07
3.65603e-06
5.67228e-06
5.67423e-06
1.42519e-06
5.67254e-06
5.67449e-06
4.24888e-06
9.63454e-06
4.24919e-06
9.63773e-06
1.92338e-05
1.92414e-05
4.24901e-06
9.63652e-06
4.24925e-06
9.63969e-06
6.87087e-07
6.87176e-07
6.87168e-07
6.88128e-07
6.88131e-07
6.88218e-07
6.88221e-07
2.29489e-06
3.65665e-06
9.47261e-07
1.19255e-06
2.29574e-06
3.6561e-06
9.47149e-07
1.92346e-05
1.92424e-05
2.29484e-06
9.47302e-07
3.65666e-06
1.19261e-06
2.29564e-06
9.47189e-07
3.65616e-06
5.6744e-06
5.67636e-06
1.42483e-06
5.67454e-06
5.67651e-06
4.24895e-06
9.64128e-06
4.24935e-06
9.64425e-06
1.92489e-05
1.92562e-05
4.24909e-06
9.64326e-06
4.24942e-06
9.64629e-06
6.88514e-07
6.88601e-07
6.88595e-07
6.89239e-07
6.89241e-07
6.89328e-07
6.8933e-07
2.29343e-06
3.65662e-06
9.46764e-07
1.19145e-06
2.2944e-06
3.65597e-06
9.46524e-07
1.92497e-05
1.92571e-05
2.29339e-06
9.46807e-07
3.65663e-06
1.19151e-06
2.2943e-06
9.46562e-07
3.65603e-06
5.67625e-06
5.67821e-06
1.42415e-06
5.67627e-06
5.67823e-06
4.2488e-06
9.64745e-06
4.24928e-06
9.65023e-06
1.92631e-05
1.92702e-05
4.24894e-06
9.64951e-06
4.24936e-06
9.6523e-06
6.89524e-07
6.89611e-07
6.89606e-07
6.89963e-07
6.89965e-07
6.90052e-07
6.90052e-07
2.29173e-06
3.65634e-06
9.45885e-07
1.19002e-06
2.29281e-06
3.65559e-06
9.45523e-07
1.92639e-05
1.92711e-05
2.29171e-06
9.45932e-07
3.65636e-06
1.19007e-06
2.2927e-06
9.45558e-07
3.65564e-06
5.67783e-06
5.67979e-06
1.42316e-06
5.67771e-06
5.67968e-06
4.24843e-06
9.65306e-06
4.249e-06
9.65567e-06
1.92764e-05
1.92833e-05
4.24858e-06
9.65515e-06
4.24908e-06
9.65777e-06
6.90138e-07
6.90225e-07
6.90222e-07
6.90329e-07
6.90328e-07
6.90415e-07
6.90417e-07
2.28982e-06
3.65583e-06
9.44653e-07
1.18828e-06
2.29099e-06
3.65497e-06
9.44178e-07
1.92772e-05
1.92842e-05
2.28981e-06
9.44699e-07
3.65585e-06
1.18834e-06
2.29088e-06
9.44215e-07
3.65502e-06
5.67915e-06
5.6811e-06
1.4219e-06
5.67888e-06
5.68085e-06
4.24788e-06
9.65816e-06
4.24852e-06
9.66051e-06
1.92888e-05
1.92956e-05
4.24803e-06
9.66027e-06
4.24861e-06
9.66263e-06
6.90386e-07
6.90472e-07
6.90469e-07
6.90334e-07
6.90336e-07
6.90422e-07
6.90422e-07
2.28771e-06
3.6551e-06
9.43095e-07
1.18626e-06
2.28897e-06
3.65411e-06
9.42517e-07
1.92896e-05
1.92965e-05
2.2877e-06
9.43141e-07
3.65511e-06
1.18631e-06
2.28886e-06
9.42552e-07
3.65417e-06
5.68023e-06
5.68218e-06
1.42037e-06
5.67979e-06
5.68176e-06
4.24713e-06
9.6628e-06
4.24785e-06
9.66482e-06
1.93003e-05
1.93071e-05
4.24728e-06
9.66492e-06
4.24794e-06
9.66695e-06
6.90304e-07
6.90391e-07
6.90388e-07
6.90014e-07
6.90013e-07
6.90097e-07
6.90102e-07
2.28544e-06
3.65416e-06
9.41238e-07
1.18397e-06
2.28673e-06
3.65303e-06
9.40565e-07
1.93011e-05
1.9308e-05
2.28539e-06
9.41286e-07
3.65417e-06
1.18402e-06
2.28663e-06
9.40598e-07
3.65308e-06
5.68109e-06
5.68304e-06
1.41859e-06
5.68042e-06
5.68239e-06
4.24619e-06
9.66688e-06
4.24699e-06
9.66871e-06
1.93108e-05
1.93179e-05
4.24635e-06
9.66901e-06
4.24708e-06
9.67084e-06
6.89931e-07
6.90023e-07
6.9001e-07
6.89402e-07
6.89401e-07
6.89476e-07
6.89488e-07
2.28297e-06
3.65303e-06
9.39119e-07
1.18143e-06
2.2843e-06
3.6517e-06
9.38343e-07
1.93116e-05
1.93188e-05
2.2829e-06
9.39161e-07
3.65304e-06
1.18149e-06
2.28422e-06
9.3838e-07
3.65176e-06
5.68175e-06
5.6837e-06
1.41654e-06
5.68075e-06
5.68272e-06
4.24507e-06
9.67034e-06
4.24595e-06
9.67211e-06
1.93202e-05
1.93281e-05
4.24523e-06
9.67248e-06
4.24605e-06
9.67426e-06
6.89263e-07
6.89361e-07
6.89345e-07
6.88516e-07
6.88517e-07
6.88588e-07
6.88602e-07
2.2803e-06
3.65172e-06
9.36752e-07
1.17867e-06
2.28169e-06
3.65012e-06
9.35878e-07
1.9321e-05
1.9329e-05
2.28024e-06
9.36791e-07
3.65174e-06
1.17874e-06
2.28163e-06
9.35917e-07
3.65018e-06
5.68224e-06
5.68419e-06
1.4142e-06
5.68076e-06
5.68272e-06
4.2438e-06
9.67325e-06
4.24474e-06
9.67517e-06
1.93285e-05
1.93378e-05
4.24395e-06
9.67539e-06
4.24484e-06
9.67732e-06
6.88334e-07
6.88433e-07
6.88415e-07
6.87383e-07
6.87384e-07
6.87451e-07
6.87468e-07
2.27747e-06
3.65029e-06
9.34163e-07
1.17572e-06
2.27893e-06
3.64824e-06
9.33199e-07
1.93293e-05
1.93387e-05
2.2774e-06
9.34202e-07
3.65031e-06
1.17578e-06
2.27886e-06
9.33239e-07
3.6483e-06
5.6826e-06
5.68455e-06
1.41173e-06
5.68039e-06
5.68236e-06
4.24244e-06
9.67561e-06
4.24342e-06
9.678e-06
1.93356e-05
1.93473e-05
4.24258e-06
9.67776e-06
4.24351e-06
9.68016e-06
6.87161e-07
6.87264e-07
6.87242e-07
6.86025e-07
6.86027e-07
6.86088e-07
6.86109e-07
2.27449e-06
3.64878e-06
9.31382e-07
1.17259e-06
2.27602e-06
3.64595e-06
9.3033e-07
1.93364e-05
1.93482e-05
2.27443e-06
9.31422e-07
3.6488e-06
1.17265e-06
2.27596e-06
9.30364e-07
3.646e-06
5.68289e-06
5.68484e-06
1.4091e-06
5.67962e-06
5.68158e-06
4.24112e-06
9.67745e-06
4.24206e-06
9.68097e-06
1.93415e-05
1.93567e-05
4.24126e-06
9.67955e-06
4.24215e-06
9.68306e-06
6.85768e-07
6.85877e-07
6.85847e-07
6.84462e-07
6.84465e-07
6.84518e-07
6.84548e-07
2.27134e-06
3.64728e-06
9.28383e-07
1.16931e-06
2.27304e-06
3.64296e-06
9.27334e-07
1.93423e-05
1.93577e-05
2.27129e-06
9.28476e-07
3.6473e-06
1.16937e-06
2.27298e-06
9.27322e-07
3.64301e-06
5.68312e-06
5.68507e-06
1.40632e-06
5.67835e-06
5.68032e-06
4.24019e-06
9.67871e-06
4.2409e-06
9.68467e-06
1.93464e-05
1.93663e-05
4.24033e-06
9.68075e-06
4.24099e-06
9.68671e-06
6.84176e-07
6.84294e-07
6.84254e-07
6.82349e-07
6.82363e-07
6.82384e-07
6.82438e-07
2.26789e-06
3.64644e-06
9.25258e-07
1.16585e-06
2.26993e-06
3.64004e-06
9.24117e-07
1.93473e-05
1.93672e-05
2.26784e-06
9.25396e-07
3.64654e-06
1.1659e-06
2.26987e-06
9.24067e-07
3.64018e-06
5.68318e-06
5.68511e-06
1.40338e-06
5.67747e-06
5.67941e-06
4.23571e-06
9.67809e-06
4.23984e-06
9.68557e-06
1.93496e-05
1.93686e-05
4.23584e-06
9.68016e-06
4.23996e-06
9.68751e-06
6.82146e-07
6.82288e-07
6.82213e-07
6.7164e-07
6.71665e-07
6.71665e-07
6.71683e-07
2.26039e-06
3.64899e-06
9.21639e-07
1.15926e-06
2.26649e-06
3.63478e-06
9.19801e-07
1.93507e-05
1.93697e-05
2.26034e-06
9.21678e-07
3.64911e-06
1.15929e-06
2.26645e-06
9.19829e-07
3.63484e-06
5.68575e-06
5.68768e-06
1.39731e-06
5.68205e-06
5.68388e-06
3.44402e-06
8.89442e-06
4.17918e-06
5.85821e-06
1.71529e-05
8.58226e-06
3.44418e-06
8.89597e-06
4.17955e-06
5.85521e-06
3.18956e-07
4.84053e-07
4.84009e-07
7.09933e-07
3.25397e-07
5.05515e-07
5.05486e-07
2.16654e-06
3.538e-06
8.94456e-07
1.05222e-06
2.23132e-06
3.65251e-06
8.33287e-07
1.7153e-05
8.58088e-06
2.16648e-06
8.94458e-07
3.5399e-06
1.0522e-06
2.23136e-06
8.33288e-07
3.65218e-06
5.59245e-06
5.59407e-06
1.3059e-06
5.25666e-06
5.25794e-06
1.90918e-05
1.90942e-05
1.41726e-06
5.65048e-06
5.65238e-06
1.91025e-05
1.90924e-05
1.91049e-05
1.90948e-05
1.41936e-06
5.65252e-06
5.65441e-06
5.65153e-06
5.65346e-06
4.23894e-06
9.56673e-06
2.29542e-06
1.18665e-06
3.64719e-06
9.34981e-07
2.29549e-06
1.18668e-06
3.64773e-06
9.35021e-07
4.23955e-06
9.57123e-06
9.56636e-06
4.23998e-06
4.23967e-06
9.57225e-06
9.56775e-06
4.2401e-06
2.29593e-06
1.18731e-06
3.64829e-06
9.36773e-07
3.64795e-06
9.35911e-07
2.29602e-06
2.296e-06
1.18734e-06
3.64883e-06
9.36813e-07
3.64851e-06
9.35951e-07
2.29609e-06
1.4172e-06
5.65227e-06
5.65049e-06
1.90912e-05
1.91041e-05
1.9094e-05
1.41931e-06
5.6543e-06
5.65252e-06
5.65336e-06
5.65172e-06
1.91019e-05
1.90917e-05
2.29557e-06
1.18657e-06
3.64793e-06
9.3507e-07
4.23891e-06
9.56689e-06
2.29549e-06
1.18669e-06
9.35069e-07
3.64774e-06
4.23964e-06
9.57326e-06
9.56839e-06
4.24016e-06
2.29607e-06
1.18723e-06
3.64904e-06
9.36862e-07
3.64874e-06
9.3598e-07
2.29618e-06
4.23954e-06
9.57243e-06
9.56795e-06
4.24006e-06
2.29599e-06
1.18735e-06
9.36862e-07
3.64885e-06
9.36e-07
3.64856e-06
2.29609e-06
4.23899e-06
9.56673e-06
2.29545e-06
1.18671e-06
9.35059e-07
3.64728e-06
4.23889e-06
9.56656e-06
2.29599e-06
1.18724e-06
3.64847e-06
9.36836e-07
3.64818e-06
9.35976e-07
2.29613e-06
4.23969e-06
9.57224e-06
9.56775e-06
4.24015e-06
2.29595e-06
1.18737e-06
9.36854e-07
3.64839e-06
9.35993e-07
3.64806e-06
2.29605e-06
4.2396e-06
9.5721e-06
9.5676e-06
4.24004e-06
1.41727e-06
5.65226e-06
5.6506e-06
1.9093e-05
1.9105e-05
1.90949e-05
1.41937e-06
5.6543e-06
5.65264e-06
5.65348e-06
5.65169e-06
1.91037e-05
1.90936e-05
2.29552e-06
1.18662e-06
9.35111e-07
3.64791e-06
4.2389e-06
9.56689e-06
4.23895e-06
9.56777e-06
2.29599e-06
1.1873e-06
9.3689e-07
3.64851e-06
9.3603e-07
3.64818e-06
2.29608e-06
2.29603e-06
1.18728e-06
9.36902e-07
3.64901e-06
9.36044e-07
3.64868e-06
2.29613e-06
4.23971e-06
9.57241e-06
9.56792e-06
4.24009e-06
4.2397e-06
9.57329e-06
9.56843e-06
4.24014e-06
1.90928e-05
1.90947e-05
1.41939e-06
5.65258e-06
5.65452e-06
5.65163e-06
5.65357e-06
1.91035e-05
1.90934e-05
1.91054e-05
1.90953e-05
1.91031e-05
1.9113e-05
1.91055e-05
1.91154e-05
5.65355e-06
5.65547e-06
1.41955e-06
5.65448e-06
5.65638e-06
1.91233e-05
1.91136e-05
1.91258e-05
1.9116e-05
1.42161e-06
5.65638e-06
5.65828e-06
5.65549e-06
5.65741e-06
4.24118e-06
9.57323e-06
4.24079e-06
9.57763e-06
2.29654e-06
3.64903e-06
9.37627e-07
1.18903e-06
2.2965e-06
3.64932e-06
9.38412e-07
2.29661e-06
3.64959e-06
9.37668e-07
1.18906e-06
2.29657e-06
3.64985e-06
9.38452e-07
4.24173e-06
9.58188e-06
9.57723e-06
4.24208e-06
4.24185e-06
9.5829e-06
9.57861e-06
4.24219e-06
2.29698e-06
1.18956e-06
3.65026e-06
9.399e-07
3.65004e-06
9.39194e-07
2.29697e-06
2.29705e-06
1.18959e-06
3.6508e-06
9.39941e-07
3.65059e-06
9.39234e-07
2.29704e-06
5.65537e-06
5.65373e-06
1.41951e-06
5.65627e-06
5.65449e-06
1.91024e-05
1.91124e-05
1.91249e-05
1.91152e-05
1.42156e-06
5.65816e-06
5.65638e-06
5.65732e-06
5.65567e-06
1.91227e-05
1.91129e-05
2.2967e-06
3.64982e-06
9.37697e-07
1.18895e-06
2.29664e-06
3.65006e-06
9.38501e-07
4.24114e-06
9.57342e-06
4.24066e-06
9.57781e-06
2.29661e-06
9.37717e-07
3.64964e-06
1.18907e-06
2.29656e-06
9.38502e-07
3.64987e-06
4.24182e-06
9.58391e-06
9.57926e-06
4.24225e-06
2.29712e-06
1.18949e-06
3.65101e-06
9.39989e-07
3.65082e-06
9.39263e-07
2.29712e-06
4.24172e-06
9.58307e-06
9.5788e-06
4.24215e-06
2.29704e-06
1.18961e-06
9.39989e-07
3.65082e-06
9.39283e-07
3.65065e-06
2.29704e-06
4.24123e-06
9.57323e-06
4.24081e-06
9.57762e-06
2.29657e-06
9.3771e-07
3.64914e-06
1.18909e-06
2.29651e-06
9.38492e-07
3.64941e-06
4.24112e-06
9.57308e-06
4.24072e-06
9.57748e-06
2.29705e-06
1.18949e-06
3.65043e-06
9.3996e-07
3.65026e-06
9.39256e-07
2.29705e-06
4.24187e-06
9.58287e-06
9.5786e-06
4.24223e-06
2.297e-06
1.18963e-06
9.39979e-07
3.65036e-06
9.39275e-07
3.65015e-06
2.29699e-06
4.24177e-06
9.58274e-06
9.57845e-06
4.24213e-06
5.65549e-06
5.65369e-06
1.41958e-06
5.65626e-06
5.65461e-06
1.91043e-05
1.91142e-05
1.91259e-05
1.9116e-05
1.42163e-06
5.65816e-06
5.6565e-06
5.65743e-06
5.65563e-06
1.91246e-05
1.91148e-05
2.29665e-06
9.37759e-07
3.64977e-06
1.189e-06
2.2966e-06
9.3854e-07
3.65004e-06
4.24119e-06
9.57339e-06
4.24086e-06
9.57779e-06
4.24123e-06
9.57393e-06
4.24085e-06
9.57869e-06
2.29705e-06
1.18955e-06
9.40013e-07
3.65048e-06
9.39309e-07
3.65026e-06
2.29702e-06
2.29708e-06
1.18954e-06
9.40027e-07
3.65099e-06
9.39324e-07
3.65077e-06
2.29707e-06
4.24192e-06
9.58305e-06
9.57877e-06
4.2422e-06
4.24191e-06
9.58394e-06
9.5793e-06
4.24224e-06
1.91041e-05
1.9114e-05
1.9106e-05
1.91159e-05
1.42164e-06
5.65644e-06
5.65839e-06
5.65558e-06
5.65752e-06
1.91244e-05
1.91146e-05
1.91262e-05
1.91165e-05
1.91239e-05
1.91335e-05
1.91263e-05
1.91359e-05
5.65737e-06
5.65928e-06
1.42146e-06
5.6582e-06
5.6601e-06
1.91435e-05
1.9134e-05
1.91459e-05
1.91364e-05
1.42345e-06
5.65994e-06
5.66184e-06
5.65917e-06
5.66108e-06
4.24314e-06
9.58383e-06
4.24284e-06
9.58801e-06
2.29731e-06
3.65097e-06
9.40611e-07
1.1909e-06
2.2974e-06
3.65113e-06
9.41242e-07
2.29738e-06
3.65152e-06
9.40651e-07
1.19093e-06
2.29748e-06
3.65167e-06
9.41282e-07
4.24364e-06
9.59199e-06
9.58756e-06
4.2439e-06
4.24375e-06
9.593e-06
9.58894e-06
4.24401e-06
2.29781e-06
1.19132e-06
3.65193e-06
9.42438e-07
3.65182e-06
9.41882e-07
2.29752e-06
2.29789e-06
1.19134e-06
3.65246e-06
9.42478e-07
3.65237e-06
9.41922e-07
2.29759e-06
5.65918e-06
5.65753e-06
1.42141e-06
5.65998e-06
5.6582e-06
1.91232e-05
1.91329e-05
1.9145e-05
1.91356e-05
1.42338e-06
5.66172e-06
5.65995e-06
5.66098e-06
5.65933e-06
1.91428e-05
1.91333e-05
2.29747e-06
3.65175e-06
9.4068e-07
1.19082e-06
2.29756e-06
3.65187e-06
9.41331e-07
4.24309e-06
9.58402e-06
4.24271e-06
9.58819e-06
2.29738e-06
9.407e-07
3.65158e-06
1.19094e-06
2.29746e-06
9.41331e-07
3.65169e-06
4.24372e-06
9.59402e-06
9.5896e-06
4.24406e-06
2.29795e-06
1.19124e-06
3.65267e-06
9.42527e-07
3.6526e-06
9.41951e-07
2.29768e-06
4.24363e-06
9.59318e-06
9.58913e-06
4.24396e-06
2.29787e-06
1.19136e-06
9.42527e-07
3.65248e-06
9.41971e-07
3.65243e-06
2.2976e-06
4.24317e-06
9.58382e-06
4.24285e-06
9.58798e-06
2.29733e-06
9.4069e-07
3.65107e-06
1.19096e-06
2.29741e-06
9.4132e-07
3.65123e-06
4.24307e-06
9.58367e-06
4.24276e-06
9.58786e-06
2.29788e-06
1.19124e-06
3.65209e-06
9.42493e-07
3.65203e-06
9.4194e-07
2.29758e-06
4.24377e-06
9.59297e-06
9.58892e-06
4.24404e-06
2.29782e-06
1.19138e-06
9.42515e-07
3.65202e-06
9.41961e-07
3.65193e-06
2.29754e-06
4.24368e-06
9.59285e-06
9.58878e-06
4.24394e-06
5.6593e-06
5.6575e-06
1.42148e-06
5.65998e-06
5.65831e-06
1.91251e-05
1.91347e-05
1.9146e-05
1.91365e-05
1.42345e-06
5.66172e-06
5.66005e-06
5.6611e-06
5.6593e-06
1.91447e-05
1.91352e-05
2.2974e-06
9.4074e-07
3.6517e-06
1.19087e-06
2.2975e-06
9.41367e-07
3.65186e-06
4.24313e-06
9.58399e-06
4.2429e-06
9.58816e-06
4.24318e-06
9.58453e-06
4.24289e-06
9.58907e-06
2.29787e-06
1.1913e-06
9.42547e-07
3.65214e-06
9.41993e-07
3.65204e-06
2.29752e-06
2.29791e-06
1.19129e-06
9.42562e-07
3.65265e-06
9.4201e-07
3.65256e-06
2.29761e-06
4.24381e-06
9.59315e-06
9.58909e-06
4.244e-06
4.2438e-06
9.59406e-06
9.58963e-06
4.24405e-06
1.91249e-05
1.91345e-05
1.91268e-05
1.91364e-05
1.42347e-06
5.66e-06
5.66195e-06
5.65925e-06
5.66118e-06
1.91445e-05
1.9135e-05
1.91464e-05
1.91369e-05
1.91439e-05
1.91533e-05
1.91464e-05
1.91557e-05
5.6609e-06
5.66281e-06
1.42295e-06
5.66162e-06
5.66351e-06
1.91628e-05
1.91537e-05
1.91653e-05
1.91561e-05
1.42489e-06
5.66322e-06
5.66511e-06
5.66256e-06
5.66446e-06
4.24481e-06
9.59388e-06
4.2446e-06
9.59784e-06
2.29769e-06
3.6526e-06
9.43011e-07
1.19229e-06
2.29801e-06
3.65265e-06
9.43495e-07
2.29775e-06
3.65315e-06
9.43051e-07
1.19231e-06
2.29808e-06
3.65318e-06
9.43535e-07
4.24526e-06
9.60155e-06
9.59735e-06
4.24542e-06
4.24537e-06
9.60255e-06
9.59872e-06
4.24553e-06
2.29815e-06
1.19259e-06
3.6533e-06
9.44413e-07
3.65331e-06
9.44001e-07
2.29773e-06
2.29822e-06
1.19261e-06
3.65383e-06
9.44452e-07
3.65385e-06
9.4404e-07
2.2978e-06
5.6627e-06
5.66105e-06
1.42291e-06
5.66339e-06
5.66163e-06
1.91432e-05
1.91526e-05
1.91644e-05
1.91553e-05
1.4248e-06
5.66499e-06
5.66323e-06
5.66435e-06
5.6627e-06
1.91622e-05
1.9153e-05
2.29784e-06
3.65338e-06
9.4308e-07
1.19221e-06
2.29815e-06
3.65339e-06
9.43583e-07
4.24476e-06
9.59408e-06
4.24448e-06
9.59803e-06
2.29776e-06
9.431e-07
3.65321e-06
1.19233e-06
2.29807e-06
9.43583e-07
3.6532e-06
4.24535e-06
9.60357e-06
9.59938e-06
4.24558e-06
2.29828e-06
1.19251e-06
3.65403e-06
9.445e-07
3.65408e-06
9.44069e-07
2.29789e-06
4.24525e-06
9.60274e-06
9.59892e-06
4.24548e-06
2.2982e-06
1.19263e-06
9.44501e-07
3.65385e-06
9.44089e-07
3.65391e-06
2.2978e-06
4.24484e-06
9.59387e-06
4.24461e-06
9.59781e-06
2.29771e-06
9.43089e-07
3.65271e-06
1.19234e-06
2.29802e-06
9.43571e-07
3.65274e-06
4.24474e-06
9.59373e-06
4.24453e-06
9.59769e-06
2.2982e-06
1.19251e-06
3.65346e-06
9.44466e-07
3.65351e-06
9.44057e-07
2.29777e-06
4.24539e-06
9.60252e-06
9.5987e-06
4.24556e-06
2.29816e-06
1.19265e-06
9.44488e-07
3.65339e-06
9.44078e-07
3.65341e-06
2.29775e-06
4.2453e-06
9.6024e-06
9.59857e-06
4.24547e-06
5.66282e-06
5.66102e-06
1.42298e-06
5.6634e-06
5.66172e-06
1.91452e-05
1.91544e-05
1.91654e-05
1.91561e-05
1.42486e-06
5.66501e-06
5.66332e-06
5.66447e-06
5.66268e-06
1.9164e-05
1.91549e-05
2.29777e-06
9.43137e-07
3.65334e-06
1.19225e-06
2.29811e-06
9.43618e-07
3.65337e-06
4.24479e-06
9.59404e-06
4.24465e-06
9.59799e-06
4.24488e-06
9.5946e-06
4.24472e-06
9.59891e-06
2.29817e-06
1.19257e-06
9.44517e-07
3.6535e-06
9.44107e-07
3.65352e-06
2.29771e-06
2.29824e-06
1.19256e-06
9.44534e-07
3.65402e-06
9.44126e-07
3.65404e-06
2.29781e-06
4.24542e-06
9.6027e-06
9.59887e-06
4.24551e-06
4.24552e-06
9.60362e-06
9.59943e-06
4.24561e-06
1.9145e-05
1.91543e-05
1.91468e-05
1.91562e-05
1.4249e-06
5.66328e-06
5.66524e-06
5.66264e-06
5.66458e-06
1.91638e-05
1.91547e-05
1.91657e-05
1.91566e-05
1.91632e-05
1.91722e-05
1.91656e-05
1.91746e-05
5.66414e-06
5.66605e-06
1.42418e-06
5.66475e-06
5.66664e-06
1.91814e-05
1.91726e-05
1.91838e-05
1.9175e-05
1.42586e-06
5.66621e-06
5.6681e-06
5.66566e-06
5.66756e-06
4.24618e-06
9.60339e-06
4.24607e-06
9.60712e-06
2.29773e-06
3.65394e-06
9.44854e-07
1.19321e-06
2.29819e-06
3.65387e-06
9.45198e-07
2.2978e-06
3.65448e-06
9.44893e-07
1.19323e-06
2.29826e-06
3.6544e-06
9.45237e-07
4.2466e-06
9.61056e-06
9.60659e-06
4.24666e-06
4.2467e-06
9.61155e-06
9.60795e-06
4.24676e-06
2.29816e-06
1.19339e-06
3.65438e-06
9.45851e-07
3.6545e-06
9.45575e-07
2.29761e-06
2.29823e-06
1.19342e-06
3.6549e-06
9.4589e-07
3.65504e-06
9.45614e-07
2.29768e-06
5.66593e-06
5.66428e-06
1.42411e-06
5.66652e-06
5.66476e-06
1.91625e-05
1.91715e-05
1.9183e-05
1.91741e-05
1.4258e-06
5.66798e-06
5.66622e-06
5.66745e-06
5.66578e-06
1.91807e-05
1.91718e-05
2.29789e-06
3.65471e-06
9.44922e-07
1.19312e-06
2.29832e-06
3.6546e-06
9.45284e-07
4.24613e-06
9.60359e-06
4.24596e-06
9.60731e-06
2.2978e-06
9.44942e-07
3.65454e-06
1.19325e-06
2.29824e-06
9.45285e-07
3.65442e-06
4.24669e-06
9.61257e-06
9.60861e-06
4.24681e-06
2.29829e-06
1.19331e-06
3.65511e-06
9.45937e-07
3.65527e-06
9.45643e-07
2.29776e-06
4.24659e-06
9.61175e-06
9.60815e-06
4.24671e-06
2.29821e-06
1.19343e-06
9.45939e-07
3.65492e-06
9.45663e-07
3.6551e-06
2.29768e-06
4.24621e-06
9.60337e-06
4.24609e-06
9.60708e-06
2.29776e-06
9.44931e-07
3.65404e-06
1.19326e-06
2.2982e-06
9.45273e-07
3.65396e-06
4.24612e-06
9.60324e-06
4.24601e-06
9.60697e-06
2.29821e-06
1.19332e-06
3.65453e-06
9.45905e-07
3.6547e-06
9.4563e-07
2.29766e-06
4.24673e-06
9.61151e-06
9.60792e-06
4.2468e-06
2.29817e-06
1.19345e-06
9.45927e-07
3.65447e-06
9.45652e-07
3.6546e-06
2.29764e-06
4.24664e-06
9.6114e-06
9.6078e-06
4.24671e-06
5.66605e-06
5.66426e-06
1.42418e-06
5.66654e-06
5.66485e-06
1.91644e-05
1.91734e-05
1.91839e-05
1.9175e-05
1.42587e-06
5.668e-06
5.66631e-06
5.66756e-06
5.66577e-06
1.91826e-05
1.91738e-05
2.29781e-06
9.44978e-07
3.65468e-06
1.19318e-06
2.29828e-06
9.45319e-07
3.6546e-06
4.24615e-06
9.60353e-06
4.24611e-06
9.60726e-06
4.24625e-06
9.60411e-06
4.24622e-06
9.6082e-06
2.29817e-06
1.19337e-06
9.45953e-07
3.65457e-06
9.45679e-07
3.6547e-06
2.29758e-06
2.29824e-06
1.19336e-06
9.45971e-07
3.6551e-06
9.45698e-07
3.65524e-06
2.29768e-06
4.24674e-06
9.61169e-06
9.60809e-06
4.24673e-06
4.24685e-06
9.61263e-06
9.60866e-06
4.24683e-06
1.91643e-05
1.91732e-05
1.91661e-05
1.91751e-05
1.42589e-06
5.66627e-06
5.66822e-06
5.66574e-06
5.66768e-06
1.91824e-05
1.91736e-05
1.91843e-05
1.91755e-05
1.91817e-05
1.91904e-05
1.91841e-05
1.91928e-05
5.6671e-06
5.669e-06
1.42486e-06
5.6676e-06
5.66949e-06
1.91992e-05
1.91907e-05
1.92015e-05
1.91931e-05
1.42651e-06
5.66892e-06
5.6708e-06
5.66847e-06
5.67037e-06
4.24728e-06
9.61234e-06
4.24727e-06
9.61584e-06
2.29745e-06
3.65499e-06
9.46167e-07
1.19368e-06
2.29804e-06
3.65481e-06
9.4638e-07
2.29751e-06
3.65553e-06
9.46206e-07
1.19371e-06
2.2981e-06
3.65533e-06
9.46419e-07
4.24767e-06
9.61902e-06
9.61527e-06
4.24762e-06
4.24777e-06
9.62e-06
9.61662e-06
4.24772e-06
2.29785e-06
1.19375e-06
3.65517e-06
9.46785e-07
3.6554e-06
9.46634e-07
2.29717e-06
2.29791e-06
1.19378e-06
3.6557e-06
9.46823e-07
3.65594e-06
9.46672e-07
2.29723e-06
5.6689e-06
5.66723e-06
1.42481e-06
5.66937e-06