/*--------------------------------*- C++ -*----------------------------------*\
| =========                 |                                                 |
| \\      /  F ield         | OpenFOAM: The Open Source CFD Toolbox           |
|  \\    /   O peration     | Version:  v1906                                 |
|   \\  /    A nd           | Web:      www.OpenFOAM.com                      |
|    \\/     M anipulation  |                                                 |
\*---------------------------------------------------------------------------*/
FoamFile
{
    version     2.0;
    format      ascii;
    class       volScalarField;
    location    "750";
    object      k;
}
// * * * * * * * * * * * * * * * * * * * * * * * * * * * * * * * * * * * * * //

dimensions      [0 2 -2 0 0 0 0];


internalField   nonuniform List<scalar> 
43024
(
3.91924e-05
5.15793e-05
5.15797e-05
5.36719e-05
3.95552e-05
5.17817e-05
5.1782e-05
5.38254e-05
3.98908e-05
5.19632e-05
5.19634e-05
5.39698e-05
4.01997e-05
5.21243e-05
5.21245e-05
5.40985e-05
4.04823e-05
5.22656e-05
5.22657e-05
5.42102e-05
4.07395e-05
5.23876e-05
5.23877e-05
5.43063e-05
4.09718e-05
5.2491e-05
5.2491e-05
5.43875e-05
4.11802e-05
5.25765e-05
5.25765e-05
5.44541e-05
4.13655e-05
5.26447e-05
5.26448e-05
5.45067e-05
4.15285e-05
5.26963e-05
5.26964e-05
5.45457e-05
4.16701e-05
5.27319e-05
5.2732e-05
5.45723e-05
4.17912e-05
5.27525e-05
5.27526e-05
5.45915e-05
4.18928e-05
5.27587e-05
5.27589e-05
5.45951e-05
4.19756e-05
5.27526e-05
5.27528e-05
5.45841e-05
4.20404e-05
5.27342e-05
5.27344e-05
5.45614e-05
4.20885e-05
5.2704e-05
5.27042e-05
5.45293e-05
4.21212e-05
5.2663e-05
5.26631e-05
5.44893e-05
4.21398e-05
5.2612e-05
5.26121e-05
5.44419e-05
4.21436e-05
5.25522e-05
5.25524e-05
5.43861e-05
4.21269e-05
5.2465e-05
5.2465e-05
5.43156e-05
4.17294e-05
5.13119e-05
5.13159e-05
5.39545e-05
5.3616e-05
5.15223e-05
5.15228e-05
5.36141e-05
5.15225e-05
5.15217e-05
5.15247e-05
5.15244e-05
5.36132e-05
5.15251e-05
5.15243e-05
5.36131e-05
5.36658e-05
5.37823e-05
5.15769e-05
5.15774e-05
5.17297e-05
5.17303e-05
5.36681e-05
5.37818e-05
5.15773e-05
5.15764e-05
5.173e-05
5.17292e-05
5.15791e-05
5.17321e-05
5.17318e-05
5.36674e-05
5.37815e-05
5.15791e-05
5.17325e-05
5.17318e-05
5.3782e-05
5.38247e-05
5.39302e-05
5.17793e-05
5.17798e-05
5.19163e-05
5.19166e-05
5.38265e-05
5.3929e-05
5.17798e-05
5.17788e-05
5.19166e-05
5.19155e-05
5.17814e-05
5.19185e-05
5.19181e-05
5.3826e-05
5.39285e-05
5.17814e-05
5.19187e-05
5.19182e-05
5.39297e-05
5.39696e-05
5.40602e-05
5.1961e-05
5.19613e-05
5.2082e-05
5.20823e-05
5.39699e-05
5.40598e-05
5.19615e-05
5.19602e-05
5.20823e-05
5.20812e-05
5.19629e-05
5.20842e-05
5.20839e-05
5.39692e-05
5.40592e-05
5.1963e-05
5.20844e-05
5.2084e-05
5.40606e-05
5.40973e-05
5.41747e-05
5.21221e-05
5.21224e-05
5.22276e-05
5.2228e-05
5.40975e-05
5.41748e-05
5.21226e-05
5.21213e-05
5.22279e-05
5.22268e-05
5.21241e-05
5.22299e-05
5.22296e-05
5.40969e-05
5.41742e-05
5.21243e-05
5.223e-05
5.22298e-05
5.41756e-05
5.42088e-05
5.42739e-05
5.22633e-05
5.22637e-05
5.23539e-05
5.23543e-05
5.4209e-05
5.42741e-05
5.22637e-05
5.22626e-05
5.23541e-05
5.23532e-05
5.22654e-05
5.23562e-05
5.23559e-05
5.42084e-05
5.42735e-05
5.22656e-05
5.23563e-05
5.23562e-05
5.42751e-05
5.43047e-05
5.4358e-05
5.23853e-05
5.23857e-05
5.24616e-05
5.24619e-05
5.43049e-05
5.43582e-05
5.23857e-05
5.23846e-05
5.24618e-05
5.24608e-05
5.23875e-05
5.24639e-05
5.24637e-05
5.43044e-05
5.43577e-05
5.23877e-05
5.24639e-05
5.2464e-05
5.43595e-05
5.43858e-05
5.44275e-05
5.24887e-05
5.24891e-05
5.25511e-05
5.25515e-05
5.43859e-05
5.44277e-05
5.24891e-05
5.2488e-05
5.25514e-05
5.25504e-05
5.24909e-05
5.25534e-05
5.25534e-05
5.43855e-05
5.44272e-05
5.24912e-05
5.25535e-05
5.25536e-05
5.4429e-05
5.44524e-05
5.44828e-05
5.25742e-05
5.25745e-05
5.26233e-05
5.26236e-05
5.44525e-05
5.44831e-05
5.25746e-05
5.25735e-05
5.26236e-05
5.26226e-05
5.25765e-05
5.26256e-05
5.26256e-05
5.44521e-05
5.44825e-05
5.25767e-05
5.26257e-05
5.26258e-05
5.44844e-05
5.4505e-05
5.45245e-05
5.26424e-05
5.26428e-05
5.2679e-05
5.26793e-05
5.4505e-05
5.45247e-05
5.26428e-05
5.26418e-05
5.26793e-05
5.26783e-05
5.26448e-05
5.26812e-05
5.26813e-05
5.45046e-05
5.45243e-05
5.2645e-05
5.26813e-05
5.26815e-05
5.4526e-05
5.45441e-05
5.4553e-05
5.26941e-05
5.26944e-05
5.27191e-05
5.27194e-05
5.4544e-05
5.45536e-05
5.26944e-05
5.26934e-05
5.27194e-05
5.27184e-05
5.26964e-05
5.27214e-05
5.27214e-05
5.45435e-05
5.45531e-05
5.26966e-05
5.27214e-05
5.27216e-05
5.45545e-05
5.45707e-05
5.45674e-05
5.27296e-05
5.27299e-05
5.27444e-05
5.27449e-05
5.45702e-05
5.45724e-05
5.273e-05
5.27289e-05
5.27448e-05
5.27439e-05
5.27319e-05
5.27468e-05
5.27467e-05
5.45697e-05
5.45721e-05
5.27322e-05
5.27469e-05
5.2747e-05
5.45708e-05
5.45919e-05
5.45702e-05
5.27504e-05
5.27505e-05
5.27555e-05
5.27559e-05
5.45858e-05
5.45767e-05
5.27508e-05
5.27495e-05
5.2756e-05
5.27549e-05
5.27527e-05
5.27579e-05
5.27578e-05
5.4585e-05
5.4577e-05
5.2753e-05
5.2758e-05
5.27581e-05
5.4575e-05
5.45948e-05
5.45625e-05
5.27565e-05
5.27567e-05
5.27518e-05
5.2752e-05
5.45892e-05
5.45681e-05
5.2757e-05
5.27558e-05
5.27522e-05
5.27511e-05
5.27588e-05
5.27541e-05
5.27541e-05
5.45879e-05
5.45681e-05
5.27591e-05
5.27542e-05
5.27543e-05
5.45642e-05
5.45829e-05
5.45438e-05
5.27503e-05
5.27505e-05
5.27352e-05
5.27353e-05
5.45786e-05
5.45481e-05
5.27507e-05
5.27496e-05
5.27357e-05
5.27345e-05
5.27526e-05
5.27374e-05
5.27375e-05
5.45779e-05
5.45476e-05
5.27528e-05
5.27376e-05
5.27377e-05
5.45444e-05
5.45601e-05
5.45156e-05
5.27319e-05
5.27321e-05
5.27065e-05
5.27066e-05
5.4557e-05
5.45185e-05
5.27323e-05
5.27312e-05
5.2707e-05
5.27058e-05
5.27341e-05
5.27088e-05
5.27088e-05
5.45564e-05
5.45177e-05
5.27344e-05
5.2709e-05
5.2709e-05
5.45192e-05
5.4528e-05
5.44781e-05
5.27016e-05
5.27019e-05
5.26666e-05
5.26667e-05
5.45279e-05
5.44788e-05
5.27022e-05
5.2701e-05
5.26671e-05
5.26659e-05
5.2704e-05
5.26689e-05
5.26688e-05
5.4527e-05
5.44783e-05
5.27042e-05
5.26691e-05
5.2669e-05
5.44796e-05
5.44889e-05
5.44312e-05
5.26606e-05
5.26609e-05
5.26163e-05
5.26165e-05
5.44889e-05
5.44314e-05
5.26611e-05
5.26599e-05
5.26169e-05
5.26156e-05
5.26629e-05
5.26187e-05
5.26185e-05
5.44884e-05
5.4431e-05
5.26631e-05
5.26189e-05
5.26187e-05
5.44323e-05
5.44413e-05
5.4376e-05
5.26096e-05
5.26099e-05
5.25567e-05
5.25569e-05
5.44414e-05
5.43762e-05
5.26101e-05
5.26089e-05
5.25573e-05
5.25561e-05
5.26118e-05
5.25592e-05
5.25589e-05
5.44409e-05
5.43758e-05
5.2612e-05
5.25594e-05
5.25591e-05
5.43771e-05
5.43854e-05
5.43111e-05
5.25498e-05
5.25501e-05
5.24946e-05
5.2495e-05
5.43855e-05
5.43113e-05
5.25503e-05
5.25491e-05
5.24951e-05
5.24939e-05
5.2552e-05
5.24971e-05
5.24968e-05
5.4385e-05
5.43108e-05
5.25522e-05
5.24972e-05
5.24969e-05
5.43124e-05
5.4314e-05
5.41033e-05
5.24624e-05
5.24627e-05
5.22733e-05
5.22742e-05
5.43143e-05
5.41046e-05
5.24629e-05
5.24617e-05
5.22752e-05
5.22718e-05
5.24647e-05
5.22783e-05
5.22755e-05
5.43141e-05
5.40912e-05
5.24648e-05
5.22758e-05
5.22769e-05
5.40882e-05
5.39385e-05
5.13073e-05
5.13081e-05
5.39415e-05
5.13092e-05
5.13109e-05
4.17308e-05
4.17294e-05
4.17311e-05
5.13142e-05
5.39499e-05
5.13158e-05
6.8571e-05
7.34381e-05
7.11956e-05
6.85747e-05
7.34437e-05
3.90968e-05
3.90974e-05
3.91003e-05
3.91008e-05
6.06295e-05
5.14129e-05
6.47933e-05
4.67112e-05
7.11942e-05
6.06278e-05
5.14133e-05
4.67125e-05
6.47942e-05
5.3526e-05
6.99345e-05
6.9946e-05
6.86243e-05
7.34715e-05
6.86019e-05
7.34939e-05
7.12236e-05
7.12483e-05
6.86276e-05
7.34771e-05
6.86069e-05
7.34995e-05
3.9193e-05
3.91959e-05
3.91962e-05
3.94662e-05
3.94668e-05
3.94696e-05
3.94702e-05
6.07226e-05
6.48304e-05
4.69222e-05
5.16311e-05
6.0684e-05
6.48548e-05
4.69882e-05
7.12219e-05
7.12469e-05
6.07208e-05
4.69233e-05
6.48309e-05
5.16315e-05
6.06825e-05
4.69894e-05
6.48557e-05
6.99675e-05
6.99789e-05
5.37001e-05
6.99833e-05
6.99948e-05
6.86708e-05
7.35257e-05
6.86512e-05
7.3547e-05
7.12753e-05
7.12993e-05
6.8674e-05
7.35314e-05
6.86562e-05
7.35525e-05
3.95557e-05
3.95585e-05
3.95588e-05
3.98083e-05
3.98089e-05
3.98116e-05
3.98122e-05
6.08032e-05
6.48874e-05
4.71801e-05
5.18279e-05
6.07699e-05
6.49087e-05
4.72394e-05
7.12736e-05
7.12978e-05
6.0801e-05
4.71812e-05
6.48881e-05
5.18282e-05
6.07682e-05
4.72405e-05
6.49096e-05
7.00129e-05
7.00247e-05
5.38582e-05
7.00271e-05
7.0038e-05
6.87103e-05
7.35772e-05
6.86936e-05
7.35973e-05
7.13251e-05
7.13483e-05
6.87136e-05
7.35828e-05
6.86985e-05
7.36028e-05
3.98913e-05
3.9894e-05
3.98943e-05
4.01236e-05
4.01241e-05
4.01267e-05
4.01274e-05
6.08723e-05
6.4937e-05
4.74128e-05
5.20039e-05
6.08437e-05
6.49552e-05
4.74657e-05
7.13234e-05
7.13468e-05
6.08697e-05
4.74139e-05
6.49376e-05
5.20041e-05
6.08416e-05
4.74667e-05
6.49559e-05
7.00535e-05
7.00656e-05
5.39971e-05
7.00662e-05
7.00771e-05
6.87432e-05
7.36259e-05
6.87293e-05
7.36448e-05
7.1373e-05
7.13953e-05
6.87464e-05
7.36314e-05
6.8734e-05
7.36502e-05
4.02002e-05
4.02028e-05
4.02032e-05
4.04124e-05
4.04129e-05
4.04155e-05
4.04162e-05
6.09302e-05
6.49792e-05
4.76213e-05
5.21595e-05
6.09061e-05
6.49944e-05
4.76677e-05
7.13713e-05
7.13939e-05
6.09272e-05
4.76223e-05
6.49797e-05
5.21596e-05
6.09035e-05
4.76686e-05
6.49953e-05
7.00894e-05
7.01015e-05
5.41198e-05
7.00996e-05
7.01119e-05
6.87697e-05
7.36716e-05
6.87584e-05
7.36894e-05
7.14189e-05
7.14404e-05
6.87727e-05
7.36771e-05
6.87629e-05
7.36948e-05
4.04828e-05
4.04854e-05
4.04858e-05
4.06756e-05
4.06761e-05
4.06786e-05
4.06794e-05
6.0976e-05
6.50144e-05
4.78062e-05
5.22954e-05
6.09572e-05
6.50267e-05
4.78463e-05
7.14172e-05
7.1439e-05
6.09729e-05
4.7807e-05
6.50149e-05
5.22955e-05
6.09542e-05
4.7847e-05
6.50272e-05
7.01211e-05
7.01321e-05
5.42271e-05
7.01293e-05
7.01417e-05
6.87895e-05
7.37146e-05
6.87811e-05
7.37312e-05
7.14627e-05
7.14834e-05
6.87925e-05
7.372e-05
6.87849e-05
7.37365e-05
4.074e-05
4.07425e-05
4.07429e-05
4.09137e-05
4.09143e-05
4.09167e-05
4.09175e-05
6.10108e-05
6.50427e-05
4.79684e-05
5.24124e-05
6.09973e-05
6.50521e-05
4.80022e-05
7.14611e-05
7.1482e-05
6.10072e-05
4.7969e-05
6.50432e-05
5.24124e-05
6.09941e-05
4.80028e-05
6.50527e-05
7.0148e-05
7.01589e-05
5.4319e-05
7.01545e-05
7.01669e-05
6.8803e-05
7.37547e-05
6.87975e-05
7.37701e-05
7.15045e-05
7.15244e-05
6.88064e-05
7.376e-05
6.88008e-05
7.37754e-05
4.09724e-05
4.09748e-05
4.09753e-05
4.11276e-05
4.11281e-05
4.11305e-05
4.11314e-05
6.1036e-05
6.50643e-05
4.81085e-05
5.25109e-05
6.10265e-05
6.50709e-05
4.81364e-05
7.15029e-05
7.15229e-05
6.10322e-05
4.8109e-05
6.50649e-05
5.25109e-05
6.1023e-05
4.81369e-05
6.50717e-05
7.01704e-05
7.01813e-05
5.4396e-05
7.01753e-05
7.01877e-05
6.88111e-05
7.37919e-05
6.88079e-05
7.38063e-05
7.15442e-05
7.15632e-05
6.88146e-05
7.37972e-05
6.88111e-05
7.38115e-05
4.11808e-05
4.11832e-05
4.11837e-05
4.1318e-05
4.13185e-05
4.13208e-05
4.13218e-05
6.10514e-05
6.50795e-05
4.82274e-05
5.25916e-05
6.1045e-05
6.50832e-05
4.82499e-05
7.15424e-05
7.15616e-05
6.10478e-05
4.82279e-05
6.50802e-05
5.25917e-05
6.10414e-05
4.82503e-05
6.50843e-05
7.0188e-05
7.01993e-05
5.44584e-05
7.01919e-05
7.02039e-05
6.88136e-05
7.38263e-05
6.88124e-05
7.38395e-05
7.15817e-05
7.15999e-05
6.88172e-05
7.38317e-05
6.88157e-05
7.38449e-05
4.1366e-05
4.13683e-05
4.13689e-05
4.14857e-05
4.14863e-05
4.14885e-05
4.14895e-05
6.10572e-05
6.50885e-05
4.83262e-05
5.26554e-05
6.10542e-05
6.50896e-05
4.83434e-05
7.15798e-05
7.15982e-05
6.10536e-05
4.83267e-05
6.5089e-05
5.26555e-05
6.10508e-05
4.83439e-05
6.50907e-05
7.02013e-05
7.02129e-05
5.45068e-05
7.02039e-05
7.02157e-05
6.88111e-05
7.38579e-05
6.88118e-05
7.387e-05
7.16169e-05
7.16344e-05
6.88148e-05
7.38633e-05
6.88152e-05
7.38755e-05
4.1529e-05
4.15313e-05
4.15319e-05
4.16318e-05
4.16324e-05
4.16346e-05
4.16356e-05
6.10542e-05
6.50911e-05
4.84057e-05
5.27032e-05
6.10544e-05
6.509e-05
4.84181e-05
7.16149e-05
7.16328e-05
6.10507e-05
4.84062e-05
6.50916e-05
5.27032e-05
6.10511e-05
4.84185e-05
6.50908e-05
7.02105e-05
7.02222e-05
5.45418e-05
7.02116e-05
7.02234e-05
6.88038e-05
7.38866e-05
6.88064e-05
7.38977e-05
7.16499e-05
7.16669e-05
6.88076e-05
7.38922e-05
6.88098e-05
7.39033e-05
4.16706e-05
4.16728e-05
4.16734e-05
4.17572e-05
4.17577e-05
4.176e-05
4.17609e-05
6.10429e-05
6.5088e-05
4.84669e-05
5.27359e-05
6.10462e-05
6.50844e-05
4.84751e-05
7.16479e-05
7.16653e-05
6.10395e-05
4.84672e-05
6.50886e-05
5.2736e-05
6.1043e-05
4.84755e-05
6.50853e-05
7.0216e-05
7.02277e-05
5.45624e-05
7.02153e-05
7.0227e-05
6.87923e-05
7.39125e-05
6.87964e-05
7.39227e-05
7.16806e-05
7.16973e-05
6.8796e-05
7.39181e-05
6.88e-05
7.39284e-05
4.17917e-05
4.17939e-05
4.17946e-05
4.18631e-05
4.18636e-05
4.18658e-05
4.18667e-05
6.10234e-05
6.50795e-05
4.85103e-05
5.27541e-05
6.10306e-05
6.50734e-05
4.85155e-05
7.16786e-05
7.16957e-05
6.102e-05
4.85107e-05
6.50801e-05
5.27542e-05
6.10275e-05
4.85157e-05
6.50742e-05
7.0218e-05
7.02296e-05
5.45732e-05
7.02152e-05
7.02269e-05
6.87765e-05
7.39355e-05
6.87818e-05
7.39452e-05
7.1709e-05
7.17258e-05
6.87799e-05
7.39412e-05
6.87856e-05
7.3951e-05
4.18933e-05
4.18955e-05
4.18962e-05
4.19502e-05
4.19507e-05
4.19529e-05
4.19538e-05
6.09965e-05
6.50658e-05
4.85373e-05
5.27576e-05
6.10066e-05
6.50569e-05
4.85397e-05
7.1707e-05
7.17242e-05
6.09931e-05
4.85378e-05
6.50664e-05
5.27577e-05
6.10035e-05
4.85399e-05
6.50577e-05
7.02167e-05
7.02283e-05
5.45689e-05
7.02114e-05
7.0223e-05
6.87556e-05
7.3956e-05
6.87625e-05
7.39653e-05
7.17349e-05
7.17526e-05
6.8759e-05
7.39618e-05
6.87668e-05
7.39711e-05
4.19761e-05
4.19783e-05
4.1979e-05
4.20203e-05
4.20206e-05
4.20229e-05
4.20236e-05
6.09616e-05
6.5047e-05
4.85487e-05
5.27473e-05
6.09746e-05
6.50351e-05
4.85481e-05
7.17331e-05
7.1751e-05
6.09585e-05
4.85492e-05
6.50477e-05
5.27475e-05
6.09716e-05
4.85486e-05
6.5036e-05
7.02123e-05
7.02239e-05
5.4555e-05
7.02036e-05
7.02153e-05
6.87306e-05
7.39736e-05
6.8739e-05
7.39827e-05
7.17584e-05
7.17778e-05
6.87339e-05
7.39794e-05
6.87434e-05
7.39885e-05
4.2041e-05
4.2043e-05
4.20439e-05
4.20739e-05
4.2074e-05
4.20765e-05
4.20769e-05
6.09193e-05
6.50241e-05
4.85455e-05
5.27246e-05
6.09356e-05
6.50082e-05
4.85412e-05
7.17565e-05
7.17762e-05
6.09162e-05
4.8546e-05
6.50248e-05
5.27248e-05
6.09326e-05
4.85417e-05
6.50092e-05
7.02053e-05
7.0217e-05
5.45314e-05
7.0192e-05
7.02037e-05
6.87009e-05
7.39884e-05
6.87115e-05
7.39982e-05
7.17789e-05
7.18019e-05
6.87045e-05
7.39943e-05
6.87155e-05
7.40041e-05
4.20894e-05
4.20911e-05
4.20922e-05
4.21116e-05
4.21114e-05
4.21142e-05
4.21143e-05
6.08706e-05
6.49982e-05
4.853e-05
5.26902e-05
6.08895e-05
6.49758e-05
4.8521e-05
7.17771e-05
7.18003e-05
6.08677e-05
4.85306e-05
6.4999e-05
5.26904e-05
6.08865e-05
4.85215e-05
6.49768e-05
7.01965e-05
7.02081e-05
5.45002e-05
7.01765e-05
7.01881e-05
6.86673e-05
7.40005e-05
6.86796e-05
7.40127e-05
7.17965e-05
7.18254e-05
6.8671e-05
7.40064e-05
6.86833e-05
7.40186e-05
4.21223e-05
4.21238e-05
4.21252e-05
4.21342e-05
4.21344e-05
4.21368e-05
4.21372e-05
6.08163e-05
6.49705e-05
4.85021e-05
5.2645e-05
6.08372e-05
6.49374e-05
4.84885e-05
7.17947e-05
7.18238e-05
6.08135e-05
4.85026e-05
6.49713e-05
5.26452e-05
6.08343e-05
4.8489e-05
6.49383e-05
7.01868e-05
7.01984e-05
5.44569e-05
7.01571e-05
7.01687e-05
6.86301e-05
7.40098e-05
6.86431e-05
7.40278e-05
7.1811e-05
7.18488e-05
6.86341e-05
7.40157e-05
6.86468e-05
7.40336e-05
4.21406e-05
4.21423e-05
4.21434e-05
4.21421e-05
4.21426e-05
4.21446e-05
4.21453e-05
6.07537e-05
6.49447e-05
4.84627e-05
5.25901e-05
6.07817e-05
6.48918e-05
4.84447e-05
7.18092e-05
7.18472e-05
6.07511e-05
4.84631e-05
6.49454e-05
5.25902e-05
6.07789e-05
4.84452e-05
6.48926e-05
7.01777e-05
7.01893e-05
5.44057e-05
7.01349e-05
7.01465e-05
6.8587e-05
7.40163e-05
6.85994e-05
7.40467e-05
7.18231e-05
7.18724e-05
6.85907e-05
7.40221e-05
6.86031e-05
7.40524e-05
4.21442e-05
4.21461e-05
4.21468e-05
4.21275e-05
4.21281e-05
4.21298e-05
4.21306e-05
6.06819e-05
6.49289e-05
4.84129e-05
5.25255e-05
6.07184e-05
6.48351e-05
4.83894e-05
7.18214e-05
7.18708e-05
6.06795e-05
4.84132e-05
6.49294e-05
5.25256e-05
6.07157e-05
4.83898e-05
6.48354e-05
7.01722e-05
7.01838e-05
5.43465e-05
7.01129e-05
7.01245e-05
6.85204e-05
7.40168e-05
6.85418e-05
7.40748e-05
7.18346e-05
7.1899e-05
6.85235e-05
7.40224e-05
6.85452e-05
7.40804e-05
4.21276e-05
4.21292e-05
4.213e-05
4.17639e-05
4.17648e-05
4.17645e-05
4.17656e-05
6.05666e-05
6.49327e-05
4.83473e-05
5.24538e-05
6.06532e-05
6.47339e-05
4.82767e-05
7.18331e-05
7.18977e-05
6.05643e-05
4.8348e-05
6.49325e-05
5.24528e-05
6.06509e-05
4.82768e-05
6.47334e-05
7.01626e-05
7.01741e-05
5.42637e-05
7.00442e-05
7.00557e-05
6.45942e-05
7.37844e-05
6.82878e-05
7.4547e-05
7.17769e-05
6.6153e-05
6.45958e-05
7.37888e-05
6.82899e-05
7.45901e-05
2.98288e-05
3.6203e-05
3.62018e-05
4.31119e-05
3.01222e-05
3.70598e-05
3.70591e-05
6.02635e-05
6.45649e-05
4.80789e-05
5.00935e-05
6.03449e-05
6.6333e-05
4.6255e-05
7.17748e-05
6.61611e-05
6.02612e-05
4.80786e-05
6.45637e-05
5.00589e-05
6.03418e-05
4.62617e-05
6.63379e-05
6.94293e-05
6.94404e-05
5.34669e-05
7.07866e-05
7.0796e-05
7.11935e-05
7.11961e-05
5.35257e-05
6.99347e-05
6.99451e-05
7.12201e-05
7.11951e-05
7.12227e-05
7.11976e-05
5.35846e-05
6.99596e-05
6.997e-05
6.99442e-05
6.99537e-05
6.85732e-05
7.34439e-05
6.0627e-05
5.14105e-05
6.47918e-05
4.67081e-05
6.06286e-05
5.1411e-05
6.47962e-05
4.67094e-05
6.85745e-05
7.34664e-05
7.34434e-05
6.85988e-05
6.85765e-05
7.34722e-05
7.34473e-05
6.86008e-05
6.06339e-05
5.14677e-05
6.48236e-05
4.68498e-05
6.47973e-05
4.67804e-05
6.06751e-05
6.06355e-05
5.14682e-05
6.48279e-05
4.68511e-05
6.48015e-05
4.67817e-05
6.06767e-05
5.35251e-05
6.99443e-05
6.99328e-05
7.11923e-05
7.12222e-05
7.11971e-05
5.35854e-05
6.99692e-05
6.99576e-05
6.99536e-05
6.99409e-05
7.12189e-05
7.11936e-05
6.06299e-05
5.14107e-05
6.47963e-05
4.67104e-05
6.85725e-05
7.34391e-05
6.06279e-05
5.14099e-05
4.67102e-05
6.47901e-05
6.85795e-05
7.3472e-05
7.3449e-05
6.8602e-05
6.06366e-05
5.14681e-05
6.4828e-05
4.68522e-05
6.48018e-05
4.67827e-05
6.0678e-05
6.85774e-05
7.34673e-05
7.34425e-05
6.85997e-05
6.06346e-05
5.14671e-05
4.68519e-05
6.48218e-05
4.67826e-05
6.47961e-05
6.0676e-05
6.85729e-05
7.34433e-05
6.0628e-05
5.14126e-05
4.67112e-05
6.47919e-05
6.85718e-05
7.34402e-05
6.06366e-05
5.14701e-05
6.4825e-05
4.6853e-05
6.47991e-05
4.67836e-05
6.06777e-05
6.85779e-05
7.34716e-05
7.34467e-05
6.86002e-05
6.06348e-05
5.14698e-05
4.68529e-05
6.48238e-05
4.67835e-05
6.47974e-05
6.0676e-05
6.85752e-05
7.34684e-05
7.34435e-05
6.85993e-05
5.35245e-05
6.99384e-05
6.99356e-05
7.11946e-05
7.12208e-05
7.11954e-05
5.3584e-05
6.99632e-05
6.99606e-05
6.99465e-05
6.99441e-05
7.12211e-05
7.1196e-05
6.06291e-05
5.14126e-05
4.67127e-05
6.47972e-05
6.8571e-05
7.34414e-05
6.85736e-05
7.34434e-05
6.06349e-05
5.14704e-05
4.68541e-05
6.48259e-05
4.67848e-05
6.47995e-05
6.06759e-05
6.0636e-05
5.14698e-05
4.68544e-05
6.4829e-05
4.67851e-05
6.48027e-05
6.06771e-05
6.85749e-05
7.34697e-05
7.34447e-05
6.85984e-05
6.85772e-05
7.34717e-05
7.34486e-05
6.86009e-05
7.11937e-05
7.11965e-05
5.35847e-05
6.99594e-05
6.9971e-05
6.99429e-05
6.99543e-05
7.12203e-05
7.11952e-05
7.12231e-05
7.11981e-05
7.12216e-05
7.12463e-05
7.12242e-05
7.12489e-05
6.99686e-05
6.99783e-05
5.37021e-05
6.99834e-05
6.99939e-05
7.1272e-05
7.12477e-05
7.12746e-05
7.12503e-05
5.37462e-05
7.0006e-05
7.00165e-05
6.9992e-05
7.00016e-05
6.86266e-05
7.34754e-05
6.86039e-05
7.34998e-05
6.07203e-05
6.48288e-05
4.69191e-05
5.16287e-05
6.06816e-05
6.48535e-05
4.69852e-05
6.0722e-05
6.48332e-05
4.69204e-05
5.16292e-05
6.06832e-05
6.48574e-05
4.69865e-05
6.86273e-05
7.35209e-05
7.34989e-05
6.86487e-05
6.86294e-05
7.35267e-05
7.35029e-05
6.86507e-05
6.07262e-05
5.16807e-05
6.48815e-05
4.71141e-05
6.48583e-05
4.70514e-05
6.07622e-05
6.07279e-05
5.16813e-05
6.48854e-05
4.71153e-05
6.48628e-05
4.70527e-05
6.07639e-05
6.99781e-05
6.99655e-05
5.3701e-05
6.9993e-05
6.99813e-05
7.12201e-05
7.12451e-05
7.12741e-05
7.12497e-05
5.37493e-05
7.00159e-05
7.00038e-05
7.00015e-05
6.99888e-05
7.12708e-05
7.12462e-05
6.07232e-05
6.48332e-05
4.69214e-05
5.16289e-05
6.06843e-05
6.48579e-05
4.69875e-05
6.86255e-05
7.34706e-05
6.86046e-05
7.34949e-05
6.07212e-05
4.69213e-05
6.48276e-05
5.16282e-05
6.06823e-05
4.69873e-05
6.48517e-05
6.86322e-05
7.35265e-05
7.35045e-05
6.86519e-05
6.07289e-05
5.16811e-05
6.48858e-05
4.71164e-05
6.48628e-05
4.70536e-05
6.0765e-05
6.86301e-05
7.35218e-05
7.34981e-05
6.86495e-05
6.07269e-05
5.16802e-05
4.71161e-05
6.48797e-05
4.70535e-05
6.48571e-05
6.07631e-05
6.8626e-05
7.34748e-05
6.86051e-05
7.34992e-05
6.07212e-05
4.69222e-05
6.4829e-05
5.16308e-05
6.06824e-05
4.69882e-05
6.48538e-05
6.86251e-05
7.34717e-05
6.86025e-05
7.3496e-05
6.07285e-05
5.16831e-05
6.48826e-05
4.7117e-05
6.48599e-05
4.70543e-05
6.07647e-05
6.86305e-05
7.3526e-05
7.35023e-05
6.86499e-05
6.0727e-05
5.16829e-05
4.71171e-05
6.48817e-05
4.70544e-05
6.48585e-05
6.07631e-05
6.8628e-05
7.35229e-05
7.34991e-05
6.86491e-05
6.99712e-05
6.99686e-05
5.37007e-05
6.9987e-05
6.99844e-05
7.12226e-05
7.12473e-05
7.12726e-05
7.1248e-05
5.3749e-05
7.00095e-05
7.00069e-05
6.99945e-05
6.99919e-05
7.1273e-05
7.12486e-05
6.07222e-05
4.69238e-05
6.48343e-05
5.16308e-05
6.06836e-05
4.69897e-05
6.48589e-05
6.86238e-05
7.34729e-05
6.86019e-05
7.34972e-05
6.86263e-05
7.34767e-05
6.86043e-05
7.34992e-05
6.07269e-05
5.16835e-05
4.71181e-05
6.48836e-05
4.70555e-05
6.48605e-05
6.07627e-05
6.07281e-05
5.16829e-05
4.71185e-05
6.48869e-05
4.70559e-05
6.48637e-05
6.07639e-05
6.86271e-05
7.35241e-05
7.35003e-05
6.86474e-05
6.86294e-05
7.35262e-05
7.35042e-05
6.86499e-05
7.12217e-05
7.12465e-05
7.12246e-05
7.12493e-05
5.37492e-05
7.00058e-05
7.00168e-05
6.99909e-05
7.00024e-05
7.12722e-05
7.12478e-05
7.1275e-05
7.12507e-05
7.12734e-05
7.12972e-05
7.12759e-05
7.12998e-05
7.00141e-05
7.00237e-05
5.38585e-05
7.00273e-05
7.00378e-05
7.1322e-05
7.12986e-05
7.13246e-05
7.1301e-05
5.38993e-05
7.00475e-05
7.00579e-05
7.00351e-05
7.00446e-05
6.8673e-05
7.35296e-05
6.86532e-05
7.35529e-05
6.08011e-05
6.48859e-05
4.71772e-05
5.18256e-05
6.07676e-05
6.49075e-05
4.72366e-05
6.08027e-05
6.48904e-05
4.71785e-05
5.18261e-05
6.07692e-05
6.49114e-05
4.72379e-05
6.86731e-05
7.35726e-05
7.35518e-05
6.86917e-05
6.86752e-05
7.35783e-05
7.35557e-05
6.86936e-05
6.08059e-05
5.18728e-05
6.49318e-05
4.73529e-05
6.49117e-05
4.72968e-05
6.0837e-05
6.08075e-05
5.18732e-05
6.49357e-05
4.73541e-05
6.49161e-05
4.7298e-05
6.08386e-05
7.00231e-05
7.00109e-05
5.38574e-05
7.00372e-05
7.0025e-05
7.12718e-05
7.1296e-05
7.1324e-05
7.13005e-05
5.39002e-05
7.00572e-05
7.00451e-05
7.0044e-05
7.00317e-05
7.13207e-05
7.12969e-05
6.08039e-05
6.48904e-05
4.71795e-05
5.18259e-05
6.07702e-05
6.49118e-05
4.72389e-05
6.86719e-05
7.35249e-05
6.86539e-05
7.3548e-05
6.08019e-05
4.71793e-05
6.48847e-05
5.1825e-05
6.07682e-05
4.72387e-05
6.49057e-05
6.8678e-05
7.35782e-05
7.35574e-05
6.86949e-05
6.08085e-05
5.18732e-05
6.4936e-05
4.73552e-05
6.49161e-05
4.7299e-05
6.08398e-05
6.86758e-05
7.35735e-05
7.35509e-05
6.86925e-05
6.08065e-05
5.18721e-05
4.73549e-05
6.49299e-05
4.72989e-05
6.49104e-05
6.08378e-05
6.86723e-05
7.3529e-05
6.86543e-05
7.35522e-05
6.08022e-05
4.71802e-05
6.48861e-05
5.18275e-05
6.07684e-05
4.72396e-05
6.49077e-05
6.86715e-05
7.35259e-05
6.86517e-05
7.35491e-05
6.0808e-05
5.1875e-05
6.49329e-05
4.73556e-05
6.49131e-05
4.72995e-05
6.08396e-05
6.86762e-05
7.35776e-05
7.3555e-05
6.86929e-05
6.08069e-05
5.18747e-05
4.73558e-05
6.49319e-05
4.72998e-05
6.49118e-05
6.08381e-05
6.86738e-05
7.35746e-05
7.35519e-05
6.86922e-05
7.00166e-05
7.0014e-05
5.3857e-05
7.00307e-05
7.00281e-05
7.12743e-05
7.12982e-05
7.13226e-05
7.12988e-05
5.38996e-05
7.00508e-05
7.00481e-05
7.00374e-05
7.00348e-05
7.1323e-05
7.12994e-05
6.08026e-05
4.71817e-05
6.48913e-05
5.18276e-05
6.07693e-05
4.7241e-05
6.49129e-05
6.86694e-05
7.35271e-05
6.86504e-05
7.35503e-05
6.86718e-05
7.35309e-05
6.86528e-05
7.35523e-05
6.08061e-05
5.18753e-05
4.73567e-05
6.49337e-05
4.73006e-05
6.49137e-05
6.08372e-05
6.08074e-05
5.18748e-05
4.73572e-05
6.49372e-05
4.73012e-05
6.49172e-05
6.08382e-05
6.86722e-05
7.35757e-05
7.35531e-05
6.86897e-05
6.86746e-05
7.35779e-05
7.35571e-05
6.8692e-05
7.12734e-05
7.12974e-05
7.12763e-05
7.13002e-05
5.38992e-05
7.00472e-05
7.00581e-05
7.00339e-05
7.00458e-05
7.13222e-05
7.12986e-05
7.1325e-05
7.13015e-05
7.13232e-05
7.13463e-05
7.13257e-05
7.13489e-05
7.00548e-05
7.00642e-05
5.39974e-05
7.00664e-05
7.00768e-05
7.13701e-05
7.13475e-05
7.13726e-05
7.13499e-05
5.40353e-05
7.0084e-05
7.00944e-05
7.00734e-05
7.00827e-05
6.87125e-05
7.35811e-05
6.86956e-05
7.36031e-05
6.08699e-05
6.49357e-05
4.74102e-05
5.20017e-05
6.08412e-05
6.49542e-05
4.7463e-05
6.08715e-05
6.49398e-05
4.74114e-05
5.2002e-05
6.08428e-05
6.4958e-05
4.74642e-05
6.87121e-05
7.36215e-05
7.36018e-05
6.87279e-05
6.87141e-05
7.36272e-05
7.36057e-05
6.87298e-05
6.08736e-05
5.20441e-05
6.49748e-05
4.7567e-05
6.49578e-05
4.75174e-05
6.09001e-05
6.08751e-05
5.20444e-05
6.49787e-05
4.75682e-05
6.49618e-05
4.75186e-05
6.09017e-05
7.00636e-05
7.00515e-05
5.39963e-05
7.00761e-05
7.00639e-05
7.13216e-05
7.1345e-05
7.13721e-05
7.13493e-05
5.40358e-05
7.00938e-05
7.00816e-05
7.0082e-05
7.00699e-05
7.13687e-05
7.13458e-05
6.08726e-05
6.494e-05
4.74124e-05
5.2002e-05
6.08438e-05
6.49582e-05
4.74652e-05
6.87114e-05
7.35763e-05
6.86962e-05
7.35983e-05
6.08707e-05
4.74122e-05
6.49343e-05
5.20009e-05
6.08418e-05
4.7465e-05
6.49522e-05
6.87169e-05
7.3627e-05
7.36074e-05
6.87311e-05
6.08761e-05
5.20445e-05
6.49787e-05
4.75692e-05
6.49621e-05
4.75196e-05
6.09028e-05
6.87147e-05
7.36224e-05
7.3601e-05
6.87288e-05
6.08741e-05
5.20433e-05
4.7569e-05
6.49728e-05
4.75194e-05
6.49563e-05
6.09009e-05
6.87118e-05
7.35804e-05
6.86966e-05
7.36024e-05
6.08711e-05
4.74131e-05
6.49357e-05
5.20035e-05
6.08422e-05
4.74659e-05
6.49542e-05
6.87111e-05
7.35773e-05
6.86942e-05
7.35994e-05
6.08761e-05
5.20463e-05
6.49757e-05
4.75697e-05
6.4959e-05
4.75201e-05
6.09031e-05
6.87152e-05
7.36264e-05
7.3605e-05
6.87292e-05
6.08747e-05
5.2046e-05
4.75699e-05
6.49747e-05
4.75204e-05
6.49577e-05
6.09014e-05
6.87129e-05
7.36234e-05
7.3602e-05
6.87285e-05
7.00571e-05
7.00545e-05
5.39957e-05
7.00696e-05
7.0067e-05
7.13241e-05
7.13472e-05
7.13706e-05
7.13476e-05
5.40351e-05
7.00873e-05
7.00846e-05
7.00755e-05
7.00729e-05
7.1371e-05
7.13482e-05
6.0871e-05
4.74145e-05
6.49411e-05
5.20036e-05
6.08426e-05
4.74672e-05
6.49595e-05
6.87084e-05
7.35785e-05
6.86922e-05
7.36005e-05
6.87105e-05
7.35824e-05
6.86946e-05
7.36027e-05
6.08737e-05
5.20465e-05
4.75706e-05
6.49765e-05
4.75211e-05
6.49595e-05
6.09003e-05
6.08748e-05
5.20462e-05
4.75712e-05
6.49802e-05
4.75217e-05
6.49631e-05
6.09011e-05
6.87106e-05
7.36245e-05
7.36031e-05
6.87254e-05
6.87127e-05
7.36268e-05
7.36071e-05
6.87272e-05
7.13233e-05
7.13464e-05
7.13262e-05
7.13492e-05
5.40363e-05
7.00838e-05
7.00948e-05
7.00721e-05
7.00841e-05
7.13702e-05
7.13474e-05
7.1373e-05
7.13504e-05
7.13711e-05
7.13934e-05
7.13736e-05
7.13959e-05
7.00907e-05
7.01e-05
5.41192e-05
7.01005e-05
7.01109e-05
7.14162e-05
7.13944e-05
7.14187e-05
7.13968e-05
5.41553e-05
7.01159e-05
7.01263e-05
7.01068e-05
7.01161e-05
6.87453e-05
7.36297e-05
6.87311e-05
7.36506e-05
6.09273e-05
6.4978e-05
4.76187e-05
5.21573e-05
6.09032e-05
6.49935e-05
4.76651e-05
6.09288e-05
6.4982e-05
4.76198e-05
5.21576e-05
6.09047e-05
6.49975e-05
4.76662e-05
6.87445e-05
7.36676e-05
7.36491e-05
6.87576e-05
6.87464e-05
7.36732e-05
7.36529e-05
6.87594e-05
6.09299e-05
5.21952e-05
6.50106e-05
4.77572e-05
6.49965e-05
4.7714e-05
6.09518e-05
6.09314e-05
5.21955e-05
6.50146e-05
4.77584e-05
6.50005e-05
4.77152e-05
6.09532e-05
7.00994e-05
7.00872e-05
5.41191e-05
7.01103e-05
7.00981e-05
7.13694e-05
7.1392e-05
7.14181e-05
7.13962e-05
5.41554e-05
7.01258e-05
7.01135e-05
7.01156e-05
7.01033e-05
7.14148e-05
7.13926e-05
6.09298e-05
6.49824e-05
4.76208e-05
5.21576e-05
6.09057e-05
6.49974e-05
4.76673e-05
6.87444e-05
7.36249e-05
6.87318e-05
7.36458e-05
6.0928e-05
4.76207e-05
6.49766e-05
5.21565e-05
6.09038e-05
4.7667e-05
6.49916e-05
6.87491e-05
7.3673e-05
7.36546e-05
6.87606e-05
6.09325e-05
5.21956e-05
6.50144e-05
4.77594e-05
6.50008e-05
4.77161e-05
6.09538e-05
6.8747e-05
7.36684e-05
7.36482e-05
6.87584e-05
6.09306e-05
5.21944e-05
4.77591e-05
6.50086e-05
4.7716e-05
6.49951e-05
6.09521e-05
6.87449e-05
7.36289e-05
6.87323e-05
7.36498e-05
6.09287e-05
4.76216e-05
6.49781e-05
5.21592e-05
6.09044e-05
4.76679e-05
6.49935e-05
6.87441e-05
7.36259e-05
6.87299e-05
7.36468e-05
6.09328e-05
5.21974e-05
6.50114e-05
4.77599e-05
6.49977e-05
4.77167e-05
6.09549e-05
6.87476e-05
7.36724e-05
7.36522e-05
6.8759e-05
6.09311e-05
5.21972e-05
4.77601e-05
6.50105e-05
4.77169e-05
6.49965e-05
6.09532e-05
6.87453e-05
7.36694e-05
7.36492e-05
6.87582e-05
7.00929e-05
7.00902e-05
5.41185e-05
7.01038e-05
7.01012e-05
7.13719e-05
7.13943e-05
7.14167e-05
7.13945e-05
5.41548e-05
7.01193e-05
7.01166e-05
7.0109e-05
7.01063e-05
7.1417e-05
7.13951e-05
6.09281e-05
4.76229e-05
6.49835e-05
5.21594e-05
6.09043e-05
4.76691e-05
6.49989e-05
6.87408e-05
7.3627e-05
6.87273e-05
7.36479e-05
6.87424e-05
7.3631e-05
6.87292e-05
7.36501e-05
6.093e-05
5.21975e-05
4.77607e-05
6.5012e-05
4.77175e-05
6.49981e-05
6.0952e-05
6.09308e-05
5.21974e-05
4.77612e-05
6.5016e-05
4.77182e-05
6.5002e-05
6.09526e-05
6.87425e-05
7.36705e-05
7.36502e-05
6.87547e-05
6.87441e-05
7.36728e-05
7.36543e-05
6.87561e-05
7.13712e-05
7.13935e-05
7.13741e-05
7.13963e-05
5.41566e-05
7.0115e-05
7.01273e-05
7.01059e-05
7.01172e-05
7.14162e-05
7.13944e-05
7.14191e-05
7.13973e-05
7.1417e-05
7.14385e-05
7.14195e-05
7.1441e-05
7.01219e-05
7.01311e-05
5.42261e-05
7.01301e-05
7.01405e-05
7.14602e-05
7.14392e-05
7.14627e-05
7.14417e-05
5.42587e-05
7.01433e-05
7.01536e-05
7.01358e-05
7.01449e-05
6.87717e-05
7.36754e-05
6.87601e-05
7.36951e-05
6.09728e-05
6.50133e-05
4.78036e-05
5.22931e-05
6.09541e-05
6.50259e-05
4.78436e-05
6.09742e-05
6.50172e-05
4.78047e-05
5.22935e-05
6.09555e-05
6.50299e-05
4.78447e-05
6.87704e-05
7.37108e-05
7.36934e-05
6.87807e-05
6.87722e-05
7.37163e-05
7.36972e-05
6.87824e-05
6.09754e-05
5.23267e-05
6.50395e-05
4.79243e-05
6.50283e-05
4.78874e-05
6.09915e-05
6.09768e-05
5.23271e-05
6.50435e-05
4.79254e-05
6.50322e-05
4.78885e-05
6.09929e-05
7.01306e-05
7.01184e-05