/*--------------------------------*- C++ -*----------------------------------*\
| =========                 |                                                 |
| \\      /  F ield         | OpenFOAM: The Open Source CFD Toolbox           |
|  \\    /   O peration     | Version:  v1906                                 |
|   \\  /    A nd           | Web:      www.OpenFOAM.com                      |
|    \\/     M anipulation  |                                                 |
\*---------------------------------------------------------------------------*/
FoamFile
{
    version     2.0;
    format      ascii;
    class       volScalarField;
    location    "750";
    object      nut;
}
// * * * * * * * * * * * * * * * * * * * * * * * * * * * * * * * * * * * * * //

dimensions      [0 2 -1 0 0 0 0];


internalField   nonuniform List<scalar> 
43024
(
0.000208341
0.000201474
0.000201467
0.000182504
0.000210638
0.000202717
0.00020271
0.000183287
0.000212827
0.000203883
0.000203875
0.000184061
0.000214907
0.000204971
0.000204963
0.000184782
0.000216876
0.000205984
0.000205975
0.000185439
0.000218736
0.000206923
0.000206914
0.000186036
0.000220488
0.000207782
0.000207772
0.000186579
0.000222132
0.000208567
0.000208558
0.000187068
0.00022367
0.000209282
0.000209272
0.000187503
0.000225106
0.000209925
0.000209915
0.000187887
0.000226442
0.000210498
0.000210488
0.000188224
0.000227679
0.000211006
0.000210995
0.000188545
0.000228814
0.000211448
0.000211436
0.000188794
0.000229845
0.000211833
0.000211823
0.000188972
0.000230777
0.000212163
0.000212153
0.000189095
0.000231618
0.000212435
0.000212426
0.000189188
0.000232374
0.000212652
0.000212642
0.000189252
0.000233051
0.000212817
0.000212805
0.000189287
0.000233637
0.000212941
0.000212928
0.000189286
0.000234144
0.000212912
0.000212901
0.000189249
0.000236321
0.000214209
0.000214248
0.000192682
0.000182396
0.000201118
0.000201117
0.000182389
0.000201134
0.000201107
0.000201149
0.000201124
0.000182373
0.000201142
0.000201139
0.00018237
0.000182467
0.000183258
0.000201443
0.000201443
0.000202379
0.000202379
0.00018249
0.00018326
0.00020146
0.000201432
0.000202395
0.000202368
0.00020145
0.00020241
0.000202385
0.000182476
0.000183249
0.000201466
0.000202403
0.000202401
0.000183251
0.000183285
0.000184046
0.000202687
0.000202686
0.000203563
0.000203561
0.000183305
0.000184046
0.000202704
0.000202675
0.000203579
0.00020355
0.000202692
0.000203593
0.000203568
0.000183294
0.000184034
0.000202708
0.000203585
0.000203584
0.000184039
0.000184063
0.000184759
0.000203853
0.000203851
0.000204668
0.000204666
0.000184074
0.000184761
0.00020387
0.00020384
0.000204684
0.000204654
0.000203858
0.000204698
0.000204673
0.000184061
0.000184748
0.000203874
0.00020469
0.000204689
0.000184753
0.000184778
0.000185417
0.000204941
0.000204939
0.000205694
0.000205692
0.000184788
0.000185425
0.000204958
0.000204928
0.00020571
0.000205681
0.000204947
0.000205725
0.000205699
0.000184776
0.000185412
0.000204963
0.000205716
0.000205716
0.000185418
0.000185435
0.000186031
0.000205953
0.000205951
0.000206643
0.000206641
0.000185443
0.000186039
0.00020597
0.00020594
0.000206659
0.00020663
0.000205959
0.000206675
0.000206649
0.000185431
0.000186026
0.000205976
0.000206665
0.000206665
0.000186033
0.000186032
0.000186589
0.000206891
0.00020689
0.000207522
0.000207521
0.000186039
0.000186597
0.000206909
0.000206878
0.000207539
0.000207509
0.000206898
0.000207554
0.000207529
0.000186027
0.000186584
0.000206915
0.000207545
0.000207545
0.000186592
0.000186574
0.000187092
0.00020775
0.000207748
0.000208329
0.000208327
0.000186581
0.000187095
0.000207768
0.000207737
0.000208345
0.000208315
0.000207757
0.00020836
0.000208335
0.000186569
0.000187087
0.000207774
0.000208351
0.000208352
0.000187096
0.000187063
0.000187542
0.000208536
0.000208534
0.000209064
0.000209061
0.000187051
0.000187588
0.000208553
0.000208522
0.00020908
0.00020905
0.000208543
0.000209095
0.00020907
0.000187058
0.000187537
0.000208559
0.000209086
0.000209087
0.000187546
0.000187498
0.000187939
0.00020925
0.000209248
0.000209729
0.000209727
0.00018747
0.000187986
0.000209268
0.000209236
0.000209746
0.000209715
0.000209257
0.000209761
0.000209736
0.000187491
0.000187976
0.000209274
0.000209752
0.000209753
0.000187943
0.000187882
0.000188286
0.000209893
0.000209891
0.000210329
0.000210327
0.000187853
0.000188335
0.00020991
0.000209879
0.000210347
0.000210315
0.0002099
0.000210361
0.000210335
0.000187839
0.000188321
0.000209917
0.000210352
0.000210353
0.00018829
0.000188219
0.000188571
0.000210466
0.000210463
0.000210865
0.000210864
0.000188188
0.00018865
0.000210484
0.000210452
0.000210883
0.000210852
0.000210473
0.000210898
0.000210871
0.000188175
0.000188637
0.00021049
0.000210889
0.000210889
0.000188587
0.000188555
0.000188809
0.000210974
0.000210969
0.000211338
0.000211336
0.000188484
0.0001889
0.000210992
0.000210959
0.000211356
0.000211323
0.000210981
0.000211371
0.000211344
0.000188469
0.00018889
0.000210998
0.000211362
0.000211361
0.000188837
0.000188796
0.000189014
0.000211415
0.00021141
0.000211738
0.000211736
0.000188735
0.000189081
0.000211432
0.0002114
0.000211758
0.000211723
0.000211422
0.000211773
0.000211744
0.000188717
0.000189068
0.000211439
0.000211763
0.000211761
0.000189017
0.000188959
0.000189184
0.000211803
0.000211797
0.000212077
0.000212078
0.000188934
0.000189224
0.000211818
0.000211788
0.0002121
0.000212062
0.000211809
0.000212115
0.000212083
0.000188921
0.00018921
0.000211826
0.000212105
0.000212101
0.000189175
0.000189094
0.000189306
0.000212135
0.000212126
0.000212358
0.000212361
0.000189078
0.000189335
0.000212148
0.00021212
0.000212384
0.000212342
0.000212141
0.000212399
0.000212364
0.000189065
0.000189319
0.000212158
0.000212389
0.000212381
0.000189323
0.000189188
0.000189388
0.00021241
0.000212399
0.000212583
0.000212582
0.000189194
0.0001894
0.00021242
0.000212395
0.000212612
0.000212567
0.000212416
0.000212628
0.000212588
0.000189178
0.000189386
0.000212433
0.000212619
0.000212605
0.00018939
0.000189257
0.000189424
0.00021263
0.000212626
0.000212754
0.00021275
0.000189264
0.000189434
0.000212635
0.000212615
0.000212789
0.00021274
0.000212636
0.000212805
0.000212759
0.000189251
0.00018942
0.000212654
0.000212796
0.000212776
0.000189425
0.00018929
0.000189425
0.000212799
0.000212796
0.000212879
0.000212875
0.000189297
0.000189433
0.000212799
0.00021278
0.000212916
0.000212871
0.000212805
0.000212929
0.000212884
0.000189284
0.000189419
0.000212822
0.000212922
0.000212902
0.000189425
0.000189287
0.000189418
0.000212919
0.000212916
0.000213087
0.000213084
0.000189295
0.000189426
0.00021292
0.000212893
0.000213119
0.000213082
0.000212925
0.000213131
0.000213093
0.000189281
0.000189412
0.000212942
0.000213125
0.00021311
0.000189419
0.000189245
0.000190869
0.000212882
0.000212879
0.000215493
0.000215497
0.000189253
0.000190884
0.000212892
0.000212859
0.000215517
0.000215489
0.000212888
0.000215548
0.000215502
0.000189242
0.000190784
0.000212907
0.000215531
0.000215519
0.000190801
0.000192583
0.000214179
0.00021418
0.000192596
0.000214197
0.000214217
0.000236319
0.000236315
0.000236329
0.000214232
0.000192656
0.000214247
9.98338e-05
5.07421e-05
2.38927e-05
9.98404e-05
5.07391e-05
0.000207747
0.000207752
0.000207752
0.00020776
0.000144121
0.000200488
0.000103591
0.000210016
2.38906e-05
0.000144116
0.000200481
0.000210015
0.000103593
0.000181932
7.78996e-05
7.78985e-05
9.99364e-05
5.07556e-05
9.98801e-05
5.07614e-05
2.38974e-05
2.39016e-05
9.99417e-05
5.07526e-05
9.98928e-05
5.07583e-05
0.000208346
0.000208346
0.000208354
0.00021007
0.000210076
0.000210076
0.000210083
0.000144494
0.000103656
0.000211319
0.000201789
0.000144315
0.000103728
0.000211738
2.38952e-05
2.38994e-05
0.000144488
0.000211317
0.000103658
0.000201782
0.000144308
0.000211736
0.000103729
7.79303e-05
7.79292e-05
0.000182821
7.79531e-05
7.79519e-05
0.000100026
5.07743e-05
9.99756e-05
5.07797e-05
2.39061e-05
2.39102e-05
0.000100031
5.07713e-05
9.99881e-05
5.07766e-05
0.000210643
0.000210643
0.000210651
0.000212286
0.00021229
0.00021229
0.000212297
0.000144831
0.000103784
0.000212972
0.000203012
0.000144667
0.000103849
0.000213365
2.39039e-05
2.3908e-05
0.000144823
0.00021297
0.000103786
0.000203004
0.000144659
0.000213363
0.00010385
7.7979e-05
7.79787e-05
0.000183655
7.79996e-05
7.7997e-05
0.000100101
5.07921e-05
0.000100058
5.07971e-05
2.39144e-05
2.39184e-05
0.000100107
5.07891e-05
0.00010007
5.0794e-05
0.000212832
0.000212831
0.000212839
0.000214391
0.000214396
0.000214395
0.000214402
0.000145137
0.000103896
0.000214532
0.000204155
0.000144981
0.000103955
0.0002149
2.39122e-05
2.39162e-05
0.000145128
0.00021453
0.000103898
0.000204147
0.000144972
0.000214898
0.000103956
7.80208e-05
7.8021e-05
0.000184406
7.80394e-05
7.80368e-05
0.000100165
5.08089e-05
0.000100127
5.08135e-05
2.39225e-05
2.39263e-05
0.00010017
5.08059e-05
0.000100138
5.08103e-05
0.000214911
0.00021491
0.000214918
0.000216387
0.000216391
0.00021639
0.000216397
0.00014541
0.000103993
0.000216001
0.000205221
0.000145268
0.000104045
0.000216343
2.39202e-05
2.39241e-05
0.0001454
0.000215998
0.000103995
0.000205212
0.000145257
0.00021634
0.000104047
7.80561e-05
7.80563e-05
0.00018509
7.80708e-05
7.80712e-05
0.000100216
5.08247e-05
0.000100183
5.08289e-05
2.39302e-05
2.39338e-05
0.000100221
5.08216e-05
0.000100194
5.08257e-05
0.000216881
0.00021688
0.000216888
0.000218273
0.000218278
0.000218275
0.000218283
0.000145647
0.000104076
0.000217379
0.000206209
0.000145521
0.000104122
0.000217695
2.39279e-05
2.39316e-05
0.000145637
0.000217376
0.000104078
0.0002062
0.00014551
0.000217691
0.000104123
7.8086e-05
7.80837e-05
0.000185735
7.80976e-05
7.80982e-05
0.000100254
5.08395e-05
0.000100227
5.08433e-05
2.39375e-05
2.3941e-05
0.00010026
5.08364e-05
0.000100236
5.08401e-05
0.000218741
0.000218739
0.000218747
0.00022005
0.000220055
0.000220053
0.000220061
0.000145851
0.000104145
0.000218669
0.000207124
0.000145742
0.000104185
0.000218956
2.39353e-05
2.39388e-05
0.000145839
0.000218664
0.000104147
0.000207114
0.000145731
0.000218951
0.000104186
7.81088e-05
7.81064e-05
0.000186322
7.81183e-05
7.81189e-05
0.00010028
5.08533e-05
0.000100259
5.08567e-05
2.39445e-05
2.39479e-05
0.000100287
5.08502e-05
0.000100267
5.08535e-05
0.000220493
0.00022049
0.000220498
0.000221719
0.000221724
0.000221721
0.00022173
0.000146024
0.000104201
0.000219871
0.000207966
0.000145933
0.000104234
0.000220126
2.39423e-05
2.39457e-05
0.000146014
0.000219866
0.000104203
0.000207957
0.000145921
0.000220121
0.000104236
7.81255e-05
7.8123e-05
0.000186854
7.81329e-05
7.81336e-05
0.000100296
5.08662e-05
0.00010028
5.08691e-05
2.39511e-05
2.39544e-05
0.000100303
5.0863e-05
0.000100288
5.08659e-05
0.000222137
0.000222133
0.000222142
0.000223281
0.000223286
0.000223282
0.000223291
0.000146175
0.000104243
0.000220984
0.000208737
0.00014609
0.000104271
0.000221216
2.39489e-05
2.39521e-05
0.000146161
0.000220979
0.000104245
0.000208727
0.000146079
0.000221211
0.000104273
7.81354e-05
7.81337e-05
0.00018733
7.81423e-05
7.81418e-05
0.000100302
5.08781e-05
0.000100289
5.08806e-05
2.39574e-05
2.39605e-05
0.000100309
5.08749e-05
0.000100297
5.08771e-05
0.000223675
0.000223672
0.00022368
0.000224735
0.00022474
0.000224736
0.000224746
0.000146295
0.000104273
0.000222007
0.000209437
0.000146219
0.000104295
0.000222221
2.39552e-05
2.39583e-05
0.000146281
0.000222001
0.000104274
0.000209427
0.000146209
0.000222217
0.000104297
7.81396e-05
7.81385e-05
0.000187754
7.81453e-05
7.81444e-05
0.000100298
5.0889e-05
0.000100289
5.0891e-05
2.39633e-05
2.39663e-05
0.000100306
5.08856e-05
0.000100297
5.08876e-05
0.000225111
0.000225107
0.000225115
0.000226083
0.000226088
0.000226084
0.000226094
0.000146389
0.000104289
0.000222945
0.000210069
0.000146322
0.000104307
0.000223145
2.39611e-05
2.39641e-05
0.000146374
0.000222938
0.00010429
0.00021006
0.000146313
0.00022314
0.000104308
7.81384e-05
7.81376e-05
0.000188125
7.81425e-05
7.81415e-05
0.000100286
5.0899e-05
0.00010028
5.09005e-05
2.39688e-05
2.39717e-05
0.000100293
5.08956e-05
0.000100288
5.08972e-05
0.000226447
0.000226442
0.00022645
0.000227326
0.000227332
0.000227328
0.000227338
0.000146458
0.000104294
0.0002238
0.000210638
0.000146399
0.000104307
0.000223989
2.39666e-05
2.39695e-05
0.000146442
0.000223792
0.000104295
0.000210629
0.00014639
0.000223983
0.000104308
7.81325e-05
7.81316e-05
0.000188435
7.81345e-05
7.81335e-05
0.000100265
5.09077e-05
0.000100262
5.09094e-05
2.3974e-05
2.39768e-05
0.000100272
5.09044e-05
0.000100271
5.09062e-05
0.000227683
0.000227679
0.000227687
0.000228478
0.000228483
0.000228479
0.000228489
0.000146499
0.000104287
0.000224572
0.000211143
0.000146453
0.000104296
0.000224758
2.39717e-05
2.39746e-05
0.000146484
0.000224565
0.000104289
0.000211134
0.000146445
0.000224751
0.000104297
7.8122e-05
7.81211e-05
0.000188712
7.81219e-05
7.81209e-05
0.000100237
5.09149e-05
0.000100235
5.09177e-05
2.39787e-05
2.39815e-05
0.000100243
5.09116e-05
0.000100244
5.09145e-05
0.000228819
0.000228814
0.000228822
0.000229537
0.000229543
0.000229539
0.000229547
0.000146515
0.00010427
0.000225265
0.000211578
0.000146481
0.000104274
0.000225449
2.39765e-05
2.39793e-05
0.000146502
0.000225259
0.000104272
0.00021157
0.000146472
0.000225443
0.000104275
7.81072e-05
7.81063e-05
0.000188919
7.81046e-05
7.81036e-05
0.000100198
5.09217e-05
0.000100199
5.09248e-05
2.39831e-05
2.3986e-05
0.000100204
5.09184e-05
0.00010021
5.09216e-05
0.000229848
0.000229842
0.000229854
0.000230509
0.000230513
0.000230513
0.000230517
0.000146506
0.000104243
0.00022588
0.000211951
0.000146483
0.000104242
0.000226061
2.39808e-05
2.39838e-05
0.000146495
0.000225874
0.000104244
0.000211942
0.000146473
0.000226056
0.000104243
7.80884e-05
7.80875e-05
0.000189096
7.80829e-05
7.80819e-05
0.000100152
5.09277e-05
0.000100155
5.09308e-05
2.3987e-05
2.39902e-05
0.000100157
5.09245e-05
0.000100166
5.09276e-05
0.000230782
0.000230772
0.000230787
0.000231395
0.000231396
0.0002314
0.000231399
0.000146474
0.000104206
0.000226421
0.000212263
0.000146463
0.000104201
0.000226591
2.39847e-05
2.3988e-05
0.000146463
0.000226416
0.000104208
0.000212254
0.000146452
0.000226587
0.000104202
7.80662e-05
7.80653e-05
0.000189245
7.8057e-05
7.8056e-05
0.000100095
5.09328e-05
0.000100104
5.09362e-05
2.39904e-05
2.39943e-05
0.000100102
5.09296e-05
0.000100113
5.0933e-05
0.000231627
0.000231613
0.000231631
0.000232193
0.00023219
0.000232198
0.000232193
0.000146422
0.000104164
0.000226904
0.000212519
0.000146419
0.000104151
0.000227053
2.39882e-05
2.39921e-05
0.000146412
0.000226899
0.000104166
0.00021251
0.000146409
0.000227049
0.000104152
7.80416e-05
7.80407e-05
0.000189359
7.80274e-05
7.80264e-05
0.000100029
5.0937e-05
0.000100042
5.09412e-05
2.39934e-05
2.39982e-05
0.000100037
5.09337e-05
0.000100051
5.09379e-05
0.000232386
0.000232367
0.000232389
0.000232902
0.000232903
0.000232908
0.000232906
0.000146352
0.000104118
0.000227319
0.000212721
0.000146354
0.000104093
0.000227449
2.39911e-05
2.3996e-05
0.000146343
0.000227314
0.00010412
0.000212712
0.000146344
0.000227445
0.000104094
7.8016e-05
7.8015e-05
0.000189412
7.79949e-05
7.79938e-05
9.9952e-05
5.09402e-05
9.99677e-05
5.09464e-05
2.39958e-05
2.40021e-05
9.99601e-05
5.09372e-05
9.99763e-05
5.09434e-05
0.000233059
0.000233041
0.000233063
0.00023352
0.000233526
0.00023353
0.000233527
0.000146253
0.000104078
0.000227683
0.000212872
0.000146279
0.000104032
0.000227772
2.39935e-05
2.39999e-05
0.000146244
0.000227664
0.00010408
0.000212864
0.000146269
0.000227779
0.000104033
7.79927e-05
7.79917e-05
0.000189429
7.7963e-05
7.79618e-05
9.98483e-05
5.09424e-05
9.98678e-05
5.09529e-05
2.39978e-05
2.4006e-05
9.98558e-05
5.09397e-05
9.98765e-05
5.09501e-05
0.000233641
0.000233622
0.000233644
0.000234081
0.000234084
0.000234096
0.000234086
0.00014613
0.000104052
0.000227982
0.00021298
0.000146174
0.000103934
0.000228043
2.39956e-05
2.40038e-05
0.000146121
0.000227952
0.000104051
0.000212973
0.000146165
0.000228058
0.000103931
7.79797e-05
7.79789e-05
0.000189413
7.79262e-05
7.79254e-05
9.976e-05
5.09464e-05
9.9725e-05
5.09869e-05
2.40015e-05
2.40209e-05
9.97659e-05
5.09432e-05
9.97321e-05
5.09844e-05
0.000234152
0.000234122
0.000234156
0.000233726
0.000233728
0.000233724
0.000233731
0.000146058
0.000103991
0.000228258
0.000213608
0.000146082
0.00010376
0.000228046
2.39992e-05
2.40188e-05
0.00014605
0.000228255
0.000103987
0.000213595
0.000146073
0.00022804
0.000103756
7.7923e-05
7.79223e-05
0.000189657
7.7711e-05
7.77115e-05
0.000109034
5.50876e-05
0.000100424
8.53764e-05
2.70318e-05
4.58923e-05
0.000109035
5.50845e-05
0.000100421
8.55188e-05
0.000251063
0.000243691
0.000243697
0.000235624
0.00025096
0.00024452
0.000244525
0.000150863
0.000106042
0.000232591
0.000214635
0.00014688
0.00010842
0.000231082
2.70301e-05
4.59109e-05
0.000150856
0.000232587
0.000105981
0.000214341
0.000146862
0.000231148
0.000108446
7.75758e-05
7.75782e-05
0.000197017
8.57895e-05
8.57916e-05
2.38933e-05
2.38921e-05
0.000181935
7.79008e-05
7.78979e-05
2.38978e-05
2.38937e-05
2.38965e-05
2.38923e-05
0.000182067
7.79283e-05
7.79254e-05
7.79075e-05
7.79023e-05
9.98375e-05
5.07447e-05
0.000144116
0.000200458
0.000103591
0.000210002
0.00014412
0.000200457
0.00010359
0.000210005
9.98268e-05
5.07519e-05
5.07459e-05
9.98875e-05
9.98302e-05
5.07545e-05
5.07439e-05
9.98907e-05
0.000144117
0.000200793
0.000103662
0.000210875
0.000103588
0.000210444
0.000144307
0.00014412
0.000200792
0.00010366
0.000210877
0.000103585
0.000210447
0.00014431
0.000181939
7.78978e-05
7.78965e-05
2.38933e-05
2.38972e-05
2.3893e-05
0.000182078
7.79252e-05
7.79237e-05
7.79033e-05
7.78976e-05
2.38978e-05
2.38935e-05
0.00014412
0.000200474
0.000103585
0.000210003
9.98363e-05
5.07372e-05
0.000144116
0.000200447
0.000210001
0.00010357
9.98395e-05
5.07489e-05
5.07429e-05
9.98927e-05
0.000144121
0.000200809
0.000103655
0.000210875
0.00010358
0.000210449
0.000144311
9.98356e-05
5.07468e-05
5.07363e-05
9.98883e-05
0.000144116
0.000200781
0.000210873
0.00010364
0.000210443
0.000103566
0.000144307
9.98355e-05
5.07439e-05
0.000144119
0.000200465
0.000210012
0.000103589
9.98348e-05
5.07404e-05
0.000144126
0.000200823
0.000103661
0.000210889
0.000103587
0.000210458
0.000144313
9.98337e-05
5.07537e-05
5.07431e-05
9.98878e-05
0.00014412
0.000200799
0.000210884
0.00010366
0.000210453
0.000103585
0.000144309
9.98281e-05
5.07501e-05
5.07395e-05
9.98879e-05
0.000181926
7.78846e-05
7.79012e-05
2.38925e-05
2.38951e-05
2.38907e-05
0.000182062
7.79118e-05
7.79288e-05
7.78858e-05
7.79053e-05
2.3897e-05
2.38927e-05
0.000144119
0.00020048
0.000210015
0.000103588
9.98322e-05
5.07403e-05
9.98385e-05
5.07385e-05
0.000144118
0.000200816
0.000210887
0.000103663
0.000210456
0.000103588
0.000144307
0.000144121
0.000200814
0.000210887
0.000103659
0.000210456
0.000103584
0.00014431
9.98246e-05
5.07501e-05
5.07395e-05
9.98837e-05
9.98316e-05
5.07483e-05
5.07422e-05
9.98899e-05
2.38922e-05
2.38918e-05
0.000182064
7.79271e-05
7.7926e-05
7.79034e-05
7.79021e-05
2.38967e-05
2.38924e-05
2.38962e-05
2.3892e-05
2.38981e-05
2.39022e-05
2.38968e-05
2.39009e-05
7.79343e-05
7.79292e-05
0.000182842
7.79541e-05
7.79514e-05
2.39065e-05
2.39025e-05
2.39052e-05
2.39012e-05
0.000182876
7.79784e-05
7.79755e-05
7.79595e-05
7.79543e-05
9.99403e-05
5.07538e-05
9.98833e-05
5.07641e-05
0.000144489
0.000103657
0.000211306
0.000201758
0.000144308
0.000103728
0.000211724
0.000144493
0.000103656
0.000211309
0.000201758
0.000144311
0.000103726
0.000211727
9.99292e-05
5.07708e-05
5.0765e-05
9.99835e-05
9.99328e-05
5.07733e-05
5.07632e-05
9.99866e-05
0.00014449
0.000202074
0.000103791
0.00021255
0.000103723
0.000212145
0.000144662
0.000144493
0.000202074
0.000103788
0.000212553
0.000103722
0.000212147
0.000144665
7.79302e-05
7.79249e-05
0.000182839
7.79509e-05
7.79495e-05
2.38979e-05
2.39022e-05
2.39059e-05
2.39018e-05
0.000182905
7.7976e-05
7.79735e-05
7.79555e-05
7.795e-05
2.39065e-05
2.39023e-05
0.000144493
0.000103649
0.000211311
0.000201774
0.000144312
0.000103721
0.000211725
9.99379e-05
5.07462e-05
9.98885e-05
5.07564e-05
0.000144489
0.000211305
0.000103636
0.000201747
0.000144307
0.000211723
0.000103707
9.99417e-05
5.07677e-05
5.0762e-05
9.99886e-05
0.000144494
0.000202091
0.000103784
0.000212551
0.000103715
0.000212149
0.000144666
9.99377e-05
5.07657e-05
5.07556e-05
9.99842e-05
0.000144489
0.000202064
0.000212549
0.000103769
0.000212144
0.000103702
0.000144662
9.99374e-05
5.07529e-05
9.98864e-05
5.07633e-05
0.000144492
0.000211315
0.000103655
0.000201765
0.000144311
0.000211734
0.000103727
9.99374e-05
5.07494e-05
9.9881e-05
5.07597e-05
0.000144496
0.000202105
0.00010379
0.000212563
0.000103722
0.000212157
0.000144669
9.99356e-05
5.07725e-05
5.07623e-05
9.99835e-05
0.000144493
0.000202081
0.00021256
0.000103789
0.000212154
0.000103721
0.000144665
9.99304e-05
5.07689e-05
5.07588e-05
9.99836e-05
7.79131e-05
7.79321e-05
0.000182828
7.79376e-05
7.79547e-05
2.38972e-05
2.39014e-05
2.39038e-05
2.38996e-05
0.000182893
7.79616e-05
7.79787e-05
7.79382e-05
7.79573e-05
2.39057e-05
2.39015e-05
0.000144492
0.000211318
0.000103654
0.00020178
0.000144311
0.000211736
0.000103725
9.99319e-05
5.07494e-05
9.9876e-05
5.07597e-05
9.99381e-05
5.07518e-05
9.98831e-05
5.07577e-05
0.000144489
0.000202098
0.000212561
0.000103792
0.000212156
0.000103724
0.000144661
0.000144492
0.000202097
0.000212562
0.000103788
0.000212156
0.00010372
0.000144663
9.99242e-05
5.07689e-05
5.07588e-05
9.9977e-05
9.99314e-05
5.07671e-05
5.07613e-05
9.9983e-05
2.38968e-05
2.39011e-05
2.38965e-05
2.39006e-05
0.000182893
7.7977e-05
7.79747e-05
7.79557e-05
7.79547e-05
2.39054e-05
2.39012e-05
2.39049e-05
2.39008e-05
2.39068e-05
2.39108e-05
2.39055e-05
2.39095e-05
7.7983e-05
7.79778e-05
0.00018366
7.80009e-05
7.79981e-05
2.39149e-05
2.3911e-05
2.39136e-05
2.39097e-05
0.000183682
7.80217e-05
7.80187e-05
7.80049e-05
7.79995e-05
0.000100029
5.07725e-05
9.99787e-05
5.07824e-05
0.000144826
0.000103785
0.00021296
0.000202981
0.00014466
0.00010385
0.000213353
0.000144829
0.000103784
0.000212962
0.00020298
0.000144663
0.000103847
0.000213355
0.000100018
5.07886e-05
5.07833e-05
0.000100066
0.000100021
5.07912e-05
5.07814e-05
0.000100069
0.000144817
0.000203279
0.000103905
0.000214133
0.000103843
0.000213752
0.000144983
0.00014482
0.000203278
0.000103902
0.000214135
0.000103842
0.000213754
0.000144987
7.79779e-05
7.79735e-05
0.00018366
7.79983e-05
7.79957e-05
2.39066e-05
2.39107e-05
2.39143e-05
2.39103e-05
0.000183697
7.80188e-05
7.80164e-05
7.79996e-05
7.79951e-05
2.39149e-05
2.39108e-05
0.000144829
0.000103777
0.000212964
0.000202997
0.000144663
0.000103842
0.000213353
0.000100027
5.07649e-05
9.99837e-05
5.07748e-05
0.000144825
0.000212958
0.000103764
0.000202969
0.00014466
0.000213351
0.000103828
0.00010003
5.07855e-05
5.07803e-05
0.000100071
0.000144821
0.000203296
0.000103897
0.000214133
0.000103835
0.000213756
0.000144987
0.000100026
5.07835e-05
5.07738e-05
0.000100067
0.000144816
0.000203267
0.000214131
0.000103883
0.00021375
0.000103822
0.000144983
0.000100026
5.07716e-05
9.99816e-05
5.07816e-05
0.00014483
0.000212969
0.000103783
0.000202986
0.000144664
0.000213362
0.000103848
0.000100027
5.07681e-05
9.99763e-05
5.0778e-05
0.000144823
0.00020331
0.000103903
0.000214145
0.000103842
0.000213763
0.000144993
0.000100024
5.07903e-05
5.07806e-05
0.000100066
0.000144821
0.000203285
0.000214141
0.000103902
0.000213761
0.000103841
0.000144987
0.000100019
5.07868e-05
5.0777e-05
0.000100066
7.79618e-05
7.79807e-05
0.000183648
7.79839e-05
7.80011e-05
2.39058e-05
2.39099e-05
2.39121e-05
2.39081e-05
0.000183684
7.80045e-05
7.80217e-05
7.79834e-05
7.80024e-05
2.39141e-05
2.39101e-05
0.000144827
0.000212971
0.000103782
0.000203002
0.000144662
0.000213364
0.000103846
0.000100019
5.07681e-05
9.99691e-05
5.0778e-05
0.000100025
5.07705e-05
9.99764e-05
5.07761e-05
0.000144814
0.000203302
0.000214142
0.000103905
0.000213761
0.000103844
0.000144984
0.000144818
0.0002033
0.000214143
0.000103901
0.000213762
0.00010384
0.000144984
0.000100011
5.07867e-05
5.0777e-05
0.000100058
0.000100018
5.07849e-05
5.07796e-05
0.000100063
2.39055e-05
2.39096e-05
2.39052e-05
2.39091e-05
0.000183679
7.80203e-05
7.80177e-05
7.80009e-05
7.80009e-05
2.39137e-05
2.39097e-05
2.39133e-05
2.39094e-05
2.39152e-05
2.3919e-05
2.39138e-05
2.39177e-05
7.80249e-05
7.80196e-05
0.000184416
7.80407e-05
7.80378e-05
2.3923e-05
2.39192e-05
2.39217e-05
2.39179e-05
0.000184423
7.8058e-05
7.8055e-05
7.80434e-05
7.80379e-05
0.000100105
5.07902e-05
0.000100061
5.07997e-05
0.00014513
0.000103898
0.00021452
0.000204125
0.000144973
0.000103956
0.000214889
0.000145133
0.000103896
0.000214522
0.000204123
0.000144976
0.000103953
0.000214891
0.000100093
5.08055e-05
5.08005e-05
0.000100136
0.000100097
5.0808e-05
5.07987e-05
0.000100138
0.000145118
0.000204407
0.000104003
0.000215622
0.000103949
0.000215266
0.000145271
0.000145121
0.000204405
0.000104001
0.000215624
0.000103946
0.000215268
0.000145275
7.80196e-05
7.80153e-05
0.000184413
7.80379e-05
7.80352e-05
2.39149e-05
2.39189e-05
2.39224e-05
2.39185e-05
0.000184438
7.80552e-05
7.80525e-05
7.80379e-05
7.80336e-05
2.39229e-05
2.3919e-05
0.000145133
0.00010389
0.000214525
0.000204141
0.000144976
0.000103948
0.000214889
0.000100103
5.07826e-05
0.000100065
5.07921e-05
0.000145129
0.000214519
0.000103876
0.000204112
0.000144972
0.000214886
0.000103934
0.000100105
5.08024e-05
5.07975e-05
0.000100141
0.000145122
0.000204424
0.000103995
0.000215622
0.00010394
0.00021527
0.000145274
0.000100101
5.08004e-05
5.07911e-05
0.000100137
0.000145118
0.000204393
0.000215619
0.000103981
0.000215264
0.000103927
0.000145271
0.000100102
5.07894e-05
0.000100063
5.07989e-05
0.000145134
0.000214529
0.000103895
0.00020413
0.000144977
0.000214897
0.000103953
0.000100103
5.07859e-05
0.000100058
5.07954e-05
0.000145127
0.000204437
0.000104002
0.000215634
0.000103947
0.000215277
0.000145283
0.000100099
5.08072e-05
5.07978e-05
0.000100136
0.000145123
0.000204412
0.000215631
0.000104001
0.000215275
0.000103945
0.000145276
0.000100095
5.08036e-05
5.07943e-05
0.000100136
7.80036e-05
7.80224e-05
0.000184401
7.80233e-05
7.80406e-05
2.39142e-05
2.39181e-05
2.39202e-05
2.39163e-05
0.000184426
7.80406e-05
7.80579e-05
7.80219e-05
7.80407e-05
2.39221e-05
2.39182e-05
0.00014513
0.000214531
0.000103894
0.000204146
0.000144973
0.000214899
0.000103952
0.000100093
5.07858e-05
0.00010005
5.07953e-05
0.000100097
5.07883e-05
0.000100055
5.07934e-05
0.000145117
0.000204428
0.000215631
0.000104003
0.000215275
0.000103948
0.000145273
0.000145119
0.000204428
0.000215632
0.000104
0.000215276
0.000103945
0.000145271
0.000100085
5.08036e-05
5.07943e-05
0.000100126
0.000100089
5.08018e-05
5.07969e-05
0.000100129
2.39139e-05
2.39178e-05
2.39135e-05
2.39173e-05
0.000184429
7.80567e-05
7.80542e-05
7.80393e-05
7.80395e-05
2.39218e-05
2.39179e-05
2.39213e-05
2.39176e-05
2.39232e-05
2.39269e-05
2.39218e-05
2.39256e-05
7.80601e-05
7.80545e-05
0.000185089
7.80736e-05
7.80707e-05
2.39307e-05
2.39271e-05
2.39294e-05
2.39257e-05
0.000185117
7.80878e-05
7.80848e-05
7.80752e-05
7.80696e-05
0.000100168
5.0807e-05
0.00010013
5.08161e-05
0.000145401
0.000103995
0.000215989
0.000205191
0.000145257
0.000104047
0.000216332
0.000145404
0.000103993
0.000215991
0.000205189
0.00014526
0.000104045
0.000216333
0.000100156
5.08214e-05
5.08168e-05
0.000100193
0.000100159
5.08239e-05
5.0815e-05
0.000100196
0.000145386
0.000205457
0.000104087
0.000217019
0.000104039
0.00021669
0.000145526
0.000145389
0.000205455
0.000104085
0.00021702
0.000104036
0.000216691
0.000145528
7.80547e-05
7.80505e-05
0.000185097
7.8071e-05
7.8068e-05
2.3923e-05
2.39268e-05
2.39301e-05
2.39263e-05
0.000185126
7.80852e-05
7.80823e-05
7.80699e-05
7.80656e-05
2.39306e-05
2.39268e-05
0.000145403
0.000103987
0.000215993
0.000205207
0.000145261
0.000104039
0.000216332
0.000100167
5.07994e-05
0.000100134
5.08085e-05
0.0001454
0.000215987
0.000103974
0.000205177
0.000145257
0.000216329
0.000104025
0.000100167
5.08182e-05
5.08138e-05
0.000100198
0.00014539
0.000205474
0.000104079
0.000217019
0.000104031
0.000216693
0.000145525
0.000100163
5.08163e-05
5.08074e-05
0.000100194
0.000145386
0.000205443
0.000217016
0.000104065
0.000216687
0.000104017
0.000145523
0.000100166
5.08061e-05
0.000100132
5.08153e-05
0.000145406
0.000215998
0.000103993
0.000205196
0.000145262
0.00021634
0.000104044
0.000100166
5.08026e-05
0.000100127
5.08117e-05
0.000145397
0.000205487
0.000104085
0.000217031
0.000104037
0.000216701
0.000145538
0.000100162
5.0823e-05
5.08141e-05
0.000100194
0.000145391
0.000205462
0.000217028
0.000104084
0.000216699
0.000104036
0.000145531
0.000100157
5.08195e-05
5.08106e-05
0.000100193
7.80388e-05
7.80574e-05
0.000185084
7.80563e-05
7.80737e-05
2.39222e-05
2.3926e-05
2.39279e-05
2.39241e-05
0.000185113
7.80706e-05
7.80878e-05
7.80539e-05
7.80725e-05
2.39298e-05
2.39261e-05
0.0001454
0.000215999
0.000103992
0.000205212
0.000145257
0.000216341
0.000104044
0.000100156
5.08026e-05
0.000100118
5.08117e-05
0.000100158
5.08051e-05
0.00010012
5.08098e-05
0.000145386
0.000205478
0.000217027
0.000104086
0.000216698
0.000104038
0.000145528
0.000145385
0.000205479
0.000217028
0.000104084
0.000216699
0.000104035
0.000145525
0.000100147
5.08194e-05
5.08106e-05
0.000100183
0.000100149
5.08177e-05
5.08132e-05
0.000100184
2.39219e-05
2.39257e-05
2.39216e-05
2.39253e-05
0.000185123
7.80849e-05
7.80854e-05
7.8072e-05
7.80704e-05
2.39295e-05
2.39258e-05
2.39291e-05
2.39254e-05
2.39309e-05
2.39344e-05
2.39295e-05
2.39331e-05
7.80888e-05
7.80831e-05
0.000185732
7.81003e-05
7.80974e-05
2.39381e-05
2.39346e-05
2.39368e-05
2.39332e-05
0.000185741
7.81115e-05
7.81084e-05
7.81008e-05
7.8095e-05
0.000100219
5.08228e-05
0.000100186
5.08315e-05
0.000145636
0.000104078
0.000217368
0.000206178
0.000145509
0.000104124
0.000217683
0.000145639
0.000104076
0.000217369
0.000206176
0.000145512
0.000104122
0.000217684
0.000100206
5.08363e-05
5.08321e-05
0.000100237
0.000100209
5.08388e-05
5.08303e-05
0.00010024
0.000145623
0.000206431
0.000104157
0.000218325
0.000104115
0.000218023
0.000145743
0.000145626
0.00020643
0.000104155
0.000218326
0.000104112
0.000218025
0.000145746