/*--------------------------------*- C++ -*----------------------------------*\
| =========                 |                                                 |
| \\      /  F ield         | OpenFOAM: The Open Source CFD Toolbox           |
|  \\    /   O peration     | Version:  v1906                                 |
|   \\  /    A nd           | Web:      www.OpenFOAM.com                      |
|    \\/     M anipulation  |                                                 |
\*---------------------------------------------------------------------------*/
FoamFile
{
    version     2.0;
    format      ascii;
    class       volVectorField;
    location    "750";
    object      U;
}
// * * * * * * * * * * * * * * * * * * * * * * * * * * * * * * * * * * * * * //

dimensions      [0 1 -1 0 0 0 0];


internalField   nonuniform List<vector> 
43024
(
(-1.02788e-05 -1.02752e-05 0.112443)
(1.13986e-05 -6.19651e-06 0.107484)
(-6.1977e-06 1.14062e-05 0.107483)
(-2.37814e-05 -2.37727e-05 0.104205)
(-1.0528e-05 -1.05251e-05 0.112408)
(1.14697e-05 -6.27077e-06 0.107476)
(-6.27214e-06 1.14756e-05 0.107475)
(-2.37184e-05 -2.37118e-05 0.10421)
(-1.07232e-05 -1.07199e-05 0.112373)
(1.14976e-05 -6.31949e-06 0.10747)
(-6.32012e-06 1.15034e-05 0.107469)
(-2.36865e-05 -2.36828e-05 0.104215)
(-1.08669e-05 -1.08638e-05 0.112338)
(1.14886e-05 -6.34444e-06 0.107464)
(-6.34404e-06 1.14921e-05 0.107463)
(-2.3685e-05 -2.36813e-05 0.104221)
(-1.09609e-05 -1.09571e-05 0.112305)
(1.14385e-05 -6.34495e-06 0.107459)
(-6.34474e-06 1.14426e-05 0.107459)
(-2.37118e-05 -2.37081e-05 0.104228)
(-1.10078e-05 -1.1003e-05 0.112271)
(1.13524e-05 -6.32154e-06 0.107455)
(-6.32208e-06 1.13563e-05 0.107454)
(-2.37648e-05 -2.37615e-05 0.104235)
(-1.10113e-05 -1.10057e-05 0.112239)
(1.12374e-05 -6.28004e-06 0.107452)
(-6.28075e-06 1.12417e-05 0.107451)
(-2.3844e-05 -2.38408e-05 0.104243)
(-1.09746e-05 -1.09686e-05 0.112207)
(1.10911e-05 -6.21852e-06 0.107449)
(-6.21973e-06 1.10958e-05 0.107448)
(-2.39484e-05 -2.39457e-05 0.104251)
(-1.09013e-05 -1.08951e-05 0.112177)
(1.09177e-05 -6.13909e-06 0.107447)
(-6.14057e-06 1.09229e-05 0.107446)
(-2.40762e-05 -2.40743e-05 0.10426)
(-1.07951e-05 -1.07893e-05 0.112147)
(1.07223e-05 -6.04551e-06 0.107445)
(-6.04488e-06 1.07264e-05 0.107444)
(-2.42245e-05 -2.42231e-05 0.104269)
(-1.06601e-05 -1.06548e-05 0.112118)
(1.05072e-05 -5.93932e-06 0.107444)
(-5.93901e-06 1.05132e-05 0.107443)
(-2.439e-05 -2.43891e-05 0.104278)
(-1.05008e-05 -1.04965e-05 0.11209)
(1.02788e-05 -5.82496e-06 0.107443)
(-5.82423e-06 1.02852e-05 0.107443)
(-2.45763e-05 -2.45762e-05 0.104287)
(-1.03282e-05 -1.03239e-05 0.112063)
(1.00484e-05 -5.70591e-06 0.107443)
(-5.70408e-06 1.00548e-05 0.107442)
(-2.47721e-05 -2.47721e-05 0.104296)
(-1.01589e-05 -1.01545e-05 0.112038)
(9.81788e-06 -5.58238e-06 0.107444)
(-5.58078e-06 9.82461e-06 0.107443)
(-2.49693e-05 -2.49686e-05 0.104306)
(-1.00155e-05 -1.00106e-05 0.112014)
(9.60803e-06 -5.46291e-06 0.107445)
(-5.46197e-06 9.61504e-06 0.107444)
(-2.51533e-05 -2.51526e-05 0.104315)
(-9.95197e-06 -9.94606e-06 0.111992)
(9.43681e-06 -5.34069e-06 0.107447)
(-5.33994e-06 9.44408e-06 0.107446)
(-2.52623e-05 -2.52625e-05 0.104325)
(-1.00877e-05 -1.008e-05 0.111973)
(9.31235e-06 -5.1687e-06 0.10745)
(-5.16778e-06 9.31962e-06 0.107449)
(-2.51355e-05 -2.51371e-05 0.104335)
(-1.07151e-05 -1.07037e-05 0.111956)
(9.17074e-06 -4.78659e-06 0.107455)
(-4.78967e-06 9.18007e-06 0.107454)
(-2.41321e-05 -2.41377e-05 0.104348)
(-1.25086e-05 -1.249e-05 0.111943)
(8.65444e-06 -3.58536e-06 0.107461)
(-3.60224e-06 8.67189e-06 0.10746)
(-1.9981e-05 -1.99965e-05 0.104368)
(-2.16732e-05 -2.16097e-05 0.111931)
(1.05685e-05 -2.07011e-06 0.107472)
(-2.14919e-06 1.06522e-05 0.107471)
(-4.93355e-06 -4.89597e-06 0.104422)
(-2.50175e-05 -2.48661e-05 0.112034)
(0.000121512 -5.98693e-05 0.10773)
(-5.99691e-05 0.000121502 0.10773)
(4.09064e-05 4.09438e-05 0.10478)
(-4.15633e-05 -4.15621e-05 0.104319)
(-6.15198e-06 -1.13454e-05 0.107484)
(6.15052e-06 -1.13427e-05 0.107483)
(4.15649e-05 -4.15528e-05 0.104319)
(-1.13695e-05 -6.17342e-06 0.107485)
(-1.13402e-05 6.15708e-06 0.107482)
(1.13686e-05 -6.16939e-06 0.107485)
(1.1341e-05 6.15531e-06 0.107483)
(-4.15425e-05 4.157e-05 0.104318)
(-6.17066e-06 1.13773e-05 0.107485)
(6.17152e-06 1.13778e-05 0.107484)
(4.15606e-05 4.15582e-05 0.104318)
(2.37645e-05 2.37578e-05 0.104205)
(-4.14314e-05 -4.14299e-05 0.104322)
(-6.17979e-06 -1.13763e-05 0.107482)
(6.17645e-06 -1.13732e-05 0.107481)
(-6.23252e-06 -1.14242e-05 0.107476)
(6.23138e-06 -1.14211e-05 0.107475)
(-2.37625e-05 2.37349e-05 0.104205)
(4.14346e-05 -4.14216e-05 0.104323)
(-1.14001e-05 -6.20189e-06 0.107483)
(-1.13711e-05 6.18277e-06 0.10748)
(-1.14484e-05 -6.25334e-06 0.107477)
(-1.14183e-05 6.23519e-06 0.107475)
(1.13713e-05 6.17951e-06 0.107481)
(1.1447e-05 -6.24775e-06 0.107478)
(1.14193e-05 6.23416e-06 0.107475)
(2.37413e-05 -2.37819e-05 0.104205)
(-4.14133e-05 4.14397e-05 0.104322)
(6.19638e-06 1.14085e-05 0.107482)
(-6.24952e-06 1.14539e-05 0.107477)
(6.25202e-06 1.14547e-05 0.107477)
(4.14314e-05 4.1427e-05 0.104322)
(2.37074e-05 2.37012e-05 0.10421)
(-4.12983e-05 -4.12953e-05 0.104327)
(-6.25558e-06 -1.14474e-05 0.107474)
(6.25352e-06 -1.14441e-05 0.107474)
(-6.28376e-06 -1.14582e-05 0.107469)
(6.28313e-06 -1.14557e-05 0.107469)
(-2.37061e-05 2.36792e-05 0.10421)
(4.12991e-05 -4.12876e-05 0.104327)
(-1.1471e-05 -6.27716e-06 0.107476)
(-1.1442e-05 6.25785e-06 0.107473)
(-1.14821e-05 -6.30421e-06 0.107471)
(-1.14533e-05 6.28562e-06 0.107468)
(1.14428e-05 6.25633e-06 0.107474)
(1.14818e-05 -6.30008e-06 0.107471)
(1.14555e-05 6.28555e-06 0.107469)
(2.36845e-05 -2.37258e-05 0.10421)
(-4.12791e-05 4.13029e-05 0.104326)
(6.27444e-06 1.14779e-05 0.107475)
(-6.30089e-06 1.14883e-05 0.10747)
(6.30427e-06 1.1489e-05 0.10747)
(4.12963e-05 4.12888e-05 0.104326)
(2.3674e-05 2.36694e-05 0.104215)
(-4.11559e-05 -4.11526e-05 0.104332)
(-6.3028e-06 -1.14741e-05 0.107468)
(6.30176e-06 -1.14722e-05 0.107467)
(-6.30994e-06 -1.14506e-05 0.107463)
(6.30922e-06 -1.14505e-05 0.107463)
(-2.36757e-05 2.36476e-05 0.104215)
(4.11571e-05 -4.11459e-05 0.104332)
(-1.14978e-05 -6.32386e-06 0.107469)
(-1.14702e-05 6.30444e-06 0.107466)
(-1.14752e-05 -6.32983e-06 0.107465)
(-1.14475e-05 6.31087e-06 0.107462)
(1.14726e-05 6.30376e-06 0.107467)
(1.1477e-05 -6.32667e-06 0.107465)
(1.14504e-05 6.31142e-06 0.107463)
(2.36532e-05 -2.36968e-05 0.104215)
(-4.11372e-05 4.11597e-05 0.104332)
(6.32273e-06 1.15056e-05 0.107469)
(-6.32775e-06 1.14817e-05 0.107465)
(6.33052e-06 1.14819e-05 0.107464)
(4.11556e-05 4.11482e-05 0.104332)
(2.36757e-05 2.36712e-05 0.104221)
(-4.09962e-05 -4.09922e-05 0.104338)
(-6.32611e-06 -1.14617e-05 0.107462)
(6.32437e-06 -1.14621e-05 0.107462)
(-6.31191e-06 -1.14048e-05 0.107458)
(6.31033e-06 -1.14054e-05 0.107458)
(-2.36754e-05 2.36468e-05 0.104221)
(4.09987e-05 -4.09873e-05 0.104338)
(-1.14858e-05 -6.34635e-06 0.107464)
(-1.14595e-05 6.32665e-06 0.107461)
(-1.14299e-05 -6.33066e-06 0.10746)
(-1.14028e-05 6.31188e-06 0.107457)
(1.14621e-05 6.32716e-06 0.107462)
(1.14319e-05 -6.33025e-06 0.10746)
(1.14058e-05 6.31293e-06 0.107458)
(2.36526e-05 -2.36975e-05 0.104221)
(-4.09791e-05 4.10006e-05 0.104338)
(6.34594e-06 1.14935e-05 0.107463)
(-6.32988e-06 1.14366e-05 0.107459)
(6.33218e-06 1.14366e-05 0.107459)
(4.09965e-05 4.09891e-05 0.104337)
(2.3703e-05 2.36993e-05 0.104228)
(-4.08338e-05 -4.08288e-05 0.104345)
(-6.32694e-06 -1.14117e-05 0.107457)
(6.3243e-06 -1.14124e-05 0.107457)
(-6.29207e-06 -1.1324e-05 0.107454)
(6.28984e-06 -1.13249e-05 0.107453)
(-2.37022e-05 2.36741e-05 0.104228)
(4.08359e-05 -4.08239e-05 0.104345)
(-1.14364e-05 -6.34598e-06 0.107459)
(-1.14101e-05 6.3263e-06 0.107456)
(-1.13496e-05 -6.30988e-06 0.107455)
(-1.13224e-05 6.29129e-06 0.107453)
(1.14132e-05 6.32732e-06 0.107457)
(1.13514e-05 -6.3093e-06 0.107456)
(1.13261e-05 6.29218e-06 0.107453)
(2.36792e-05 -2.37247e-05 0.104228)
(-4.08163e-05 4.0838e-05 0.104344)
(6.34651e-06 1.1444e-05 0.107458)
(-6.30975e-06 1.13562e-05 0.107455)
(6.31156e-06 1.13566e-05 0.107455)
(4.08343e-05 4.08267e-05 0.104344)
(2.37568e-05 2.37537e-05 0.104235)
(-4.06636e-05 -4.0658e-05 0.104352)
(-6.30444e-06 -1.13251e-05 0.107453)
(6.30135e-06 -1.13261e-05 0.107453)
(-6.24915e-06 -1.12076e-05 0.10745)
(6.24694e-06 -1.12091e-05 0.10745)
(-2.37564e-05 2.3729e-05 0.104235)
(4.0665e-05 -4.06529e-05 0.104352)
(-1.135e-05 -6.32248e-06 0.107455)
(-1.1324e-05 6.30336e-06 0.107452)
(-1.12342e-05 -6.26614e-06 0.107452)
(-1.1207e-05 6.24868e-06 0.107449)
(1.13273e-05 6.30393e-06 0.107453)
(1.12354e-05 -6.26636e-06 0.107452)
(1.12103e-05 6.24875e-06 0.10745)
(2.37334e-05 -2.37785e-05 0.104235)
(-4.06461e-05 4.0668e-05 0.104351)
(6.32319e-06 1.13579e-05 0.107454)
(-6.2672e-06 1.12401e-05 0.107451)
(6.2682e-06 1.12406e-05 0.107451)
(4.06639e-05 4.06563e-05 0.104351)
(2.38364e-05 2.38336e-05 0.104243)
(-4.04842e-05 -4.04783e-05 0.104359)
(-6.26293e-06 -1.12098e-05 0.10745)
(6.25985e-06 -1.12112e-05 0.107449)
(-6.18324e-06 -1.10567e-05 0.107447)
(6.18117e-06 -1.10579e-05 0.107446)
(-2.38356e-05 2.38086e-05 0.104243)
(4.04807e-05 -4.04686e-05 0.104359)
(-1.12354e-05 -6.28048e-06 0.107451)
(-1.12096e-05 6.26225e-06 0.107449)
(-1.10836e-05 -6.20013e-06 0.107448)
(-1.10563e-05 6.18305e-06 0.107446)
(1.12123e-05 6.26174e-06 0.107449)
(1.10844e-05 -6.20064e-06 0.107449)
(1.10593e-05 6.18257e-06 0.107446)
(2.38125e-05 -2.38574e-05 0.104243)
(-4.04666e-05 4.04891e-05 0.104359)
(6.28117e-06 1.12429e-05 0.107451)
(-6.20161e-06 1.10899e-05 0.107448)
(6.20264e-06 1.10895e-05 0.107448)
(4.04844e-05 4.04765e-05 0.104359)
(2.39411e-05 2.39383e-05 0.104251)
(-4.02958e-05 -4.02901e-05 0.104367)
(-6.2013e-06 -1.10636e-05 0.107447)
(6.19821e-06 -1.1065e-05 0.107446)
(-6.09543e-06 -1.08729e-05 0.107444)
(6.0931e-06 -1.08737e-05 0.107444)
(-2.39384e-05 2.39114e-05 0.104251)
(4.02989e-05 -4.02864e-05 0.104367)
(-1.10891e-05 -6.21847e-06 0.107448)
(-1.10635e-05 6.20089e-06 0.107446)
(-1.08998e-05 -6.11234e-06 0.107446)
(-1.08723e-05 6.09584e-06 0.107443)
(1.10661e-05 6.19997e-06 0.107446)
(1.09004e-05 -6.11261e-06 0.107446)
(1.08753e-05 6.09433e-06 0.107444)
(2.39171e-05 -2.39613e-05 0.104251)
(-4.02792e-05 4.03025e-05 0.104367)
(6.22019e-06 1.10964e-05 0.107448)
(-6.11391e-06 1.09058e-05 0.107446)
(6.11534e-06 1.09051e-05 0.107445)
(4.02963e-05 4.02879e-05 0.104366)
(2.40696e-05 2.40662e-05 0.10426)
(-4.00986e-05 -4.00938e-05 0.104375)
(-6.12178e-06 -1.08903e-05 0.107445)
(6.11877e-06 -1.08912e-05 0.107444)
(-5.98662e-06 -1.06579e-05 0.107442)
(5.98515e-06 -1.06589e-05 0.107442)
(-2.40672e-05 2.40406e-05 0.10426)
(4.01023e-05 -4.00896e-05 0.104376)
(-1.09152e-05 -6.13971e-06 0.107446)
(-1.08899e-05 6.12208e-06 0.107443)
(-1.06845e-05 -6.00373e-06 0.107443)
(-1.06564e-05 5.987e-06 0.107441)
(1.08925e-05 6.12005e-06 0.107444)
(1.0686e-05 -6.00441e-06 0.107444)
(1.0661e-05 5.98568e-06 0.107442)
(2.40454e-05 -2.40886e-05 0.10426)
(-4.00817e-05 4.01066e-05 0.104375)
(6.14144e-06 1.09224e-05 0.107446)
(-6.00556e-06 1.06905e-05 0.107443)
(6.00722e-06 1.06898e-05 0.107443)
(4.00998e-05 4.00908e-05 0.104375)
(2.42187e-05 2.42143e-05 0.104269)
(-3.98907e-05 -3.98861e-05 0.104384)
(-6.0274e-06 -1.06943e-05 0.107443)
(6.02523e-06 -1.06955e-05 0.107442)
(-5.85576e-06 -1.04095e-05 0.10744)
(5.85504e-06 -1.04096e-05 0.10744)
(-2.42158e-05 2.41892e-05 0.104269)
(3.98937e-05 -3.9882e-05 0.104384)
(-1.0718e-05 -6.04442e-06 0.107444)
(-1.06932e-05 6.02771e-06 0.107442)
(-1.04354e-05 -5.87411e-06 0.107442)
(-1.04083e-05 5.85875e-06 0.107439)
(1.06972e-05 6.02603e-06 0.107443)
(1.04372e-05 -5.87461e-06 0.107442)
(1.04129e-05 5.85565e-06 0.10744)
(2.41946e-05 -2.4236e-05 0.104269)
(-3.98737e-05 3.98992e-05 0.104384)
(6.04777e-06 1.07262e-05 0.107444)
(-5.87402e-06 1.04436e-05 0.107442)
(5.87829e-06 1.04413e-05 0.107441)
(3.98924e-05 3.98833e-05 0.104383)
(2.43848e-05 2.438e-05 0.104278)
(-3.96693e-05 -3.96658e-05 0.104393)
(-5.91999e-06 -1.04794e-05 0.107442)
(5.91858e-06 -1.04799e-05 0.107441)
(-5.70218e-06 -1.0124e-05 0.107439)
(5.7016e-06 -1.01239e-05 0.107438)
(-2.4381e-05 2.43537e-05 0.104278)
(3.96721e-05 -3.96611e-05 0.104393)
(-1.0503e-05 -5.93906e-06 0.107443)
(-1.04789e-05 5.92257e-06 0.107441)
(-1.01495e-05 -5.72152e-06 0.10744)
(-1.01224e-05 5.70583e-06 0.107438)
(1.0483e-05 5.91951e-06 0.107441)
(1.01511e-05 -5.72185e-06 0.107441)
(1.0128e-05 5.70288e-06 0.107438)
(2.43585e-05 -2.44004e-05 0.104278)
(-3.96533e-05 3.96794e-05 0.104392)
(5.94219e-06 1.05114e-05 0.107443)
(-5.72158e-06 1.01579e-05 0.10744)
(5.72614e-06 1.01558e-05 0.10744)
(3.9672e-05 3.96623e-05 0.104392)
(2.45715e-05 2.45656e-05 0.104287)
(-3.94336e-05 -3.943e-05 0.104402)
(-5.80494e-06 -1.02518e-05 0.107441)
(5.80345e-06 -1.0252e-05 0.107441)
(-5.52248e-06 -9.79961e-06 0.107438)
(5.52178e-06 -9.7991e-06 0.107437)
(-2.45673e-05 2.45389e-05 0.104287)
(3.94408e-05 -3.94308e-05 0.104402)
(-1.02749e-05 -5.82473e-06 0.107443)
(-1.02508e-05 5.80715e-06 0.10744)
(-9.82445e-06 -5.54251e-06 0.107439)
(-9.79775e-06 5.5265e-06 0.107436)
(1.02557e-05 5.8049e-06 0.107441)
(9.82563e-06 -5.54317e-06 0.10744)
(9.80318e-06 5.52324e-06 0.107437)
(2.45451e-05 -2.45875e-05 0.104287)
(-3.94196e-05 3.94457e-05 0.104401)
(5.82829e-06 1.02836e-05 0.107442)
(-5.54208e-06 9.83262e-06 0.107439)
(5.54691e-06 9.83064e-06 0.107438)
(3.94384e-05 3.94289e-05 0.104401)
(2.47651e-05 2.47593e-05 0.104297)
(-3.91752e-05 -3.9171e-05 0.104411)
(-5.68471e-06 -1.00224e-05 0.107441)
(5.68128e-06 -1.0022e-05 0.107441)
(-5.31778e-06 -9.43231e-06 0.107437)
(5.31436e-06 -9.43298e-06 0.107436)
(-2.47646e-05 2.47349e-05 0.104297)
(3.91821e-05 -3.91708e-05 0.104411)
(-1.00449e-05 -5.70476e-06 0.107443)
(-1.00213e-05 5.68664e-06 0.10744)
(-9.45705e-06 -5.33728e-06 0.107438)
(-9.43053e-06 5.32055e-06 0.107435)
(1.00258e-05 5.68494e-06 0.107441)
(9.45592e-06 -5.33707e-06 0.107439)
(9.43516e-06 5.31686e-06 0.107436)
(2.47386e-05 -2.47802e-05 0.104296)
(-3.91619e-05 3.9188e-05 0.104411)
(5.70842e-06 1.00535e-05 0.107442)
(-5.33632e-06 9.46424e-06 0.107438)
(5.34032e-06 9.46279e-06 0.107437)
(3.9178e-05 3.91696e-05 0.10441)
(2.49636e-05 2.49578e-05 0.104306)
(-3.88749e-05 -3.88696e-05 0.10442)
(-5.56253e-06 -9.793e-06 0.107442)
(5.55777e-06 -9.7947e-06 0.107441)
(-5.09072e-06 -9.01711e-06 0.107436)
(5.08902e-06 -9.01999e-06 0.107435)
(-2.49643e-05 2.49351e-05 0.104306)
(3.88768e-05 -3.8869e-05 0.104421)
(-9.81547e-06 -5.58141e-06 0.107443)
(-9.79207e-06 5.56264e-06 0.107441)
(-9.04179e-06 -5.10916e-06 0.107437)
(-9.01529e-06 5.09273e-06 0.107434)
(9.79532e-06 5.56058e-06 0.107441)
(9.0413e-06 -5.10965e-06 0.107438)
(9.01893e-06 5.08877e-06 0.107435)
(2.4938e-05 -2.49793e-05 0.104306)
(-3.8859e-05 3.88846e-05 0.10442)
(5.58371e-06 9.82319e-06 0.107443)
(-5.10839e-06 9.0482e-06 0.107437)
(5.11147e-06 9.0468e-06 0.107436)
(3.88746e-05 3.88676e-05 0.10442)
(2.51452e-05 2.51406e-05 0.104316)
(-3.84817e-05 -3.84744e-05 0.10443)
(-5.44387e-06 -9.5833e-06 0.107443)
(5.44008e-06 -9.58637e-06 0.107442)
(-4.84814e-06 -8.54386e-06 0.107435)
(4.84683e-06 -8.54758e-06 0.107434)
(-2.51447e-05 2.51136e-05 0.104316)
(3.84843e-05 -3.8477e-05 0.10443)
(-9.60603e-06 -5.46147e-06 0.107444)
(-9.58301e-06 5.44323e-06 0.107442)
(-8.56849e-06 -4.86551e-06 0.107436)
(-8.54277e-06 4.85109e-06 0.107433)
(9.58484e-06 5.44064e-06 0.107443)
(8.56818e-06 -4.86719e-06 0.107436)
(8.54698e-06 4.84772e-06 0.107434)
(2.51211e-05 -2.51623e-05 0.104315)
(-3.8467e-05 3.84914e-05 0.104429)
(5.4634e-06 9.61285e-06 0.107444)
(-4.86541e-06 8.57484e-06 0.107436)
(4.86973e-06 8.57475e-06 0.107435)
(3.84819e-05 3.8476e-05 0.104429)
(2.52568e-05 2.52535e-05 0.104325)
(-3.78604e-05 -3.78513e-05 0.104438)
(-5.32089e-06 -9.41124e-06 0.107445)
(5.31567e-06 -9.41411e-06 0.107445)
(-4.62718e-06 -8.0131e-06 0.107433)
(4.62569e-06 -8.01841e-06 0.107432)
(-2.52578e-05 2.52269e-05 0.104325)
(3.78613e-05 -3.78553e-05 0.104439)
(-9.434e-06 -5.33686e-06 0.107446)
(-9.41222e-06 5.3208e-06 0.107444)
(-8.03855e-06 -4.64244e-06 0.107434)
(-8.01207e-06 4.63075e-06 0.107432)
(9.4141e-06 5.31795e-06 0.107445)
(8.03832e-06 -4.64666e-06 0.107435)
(8.01685e-06 4.62662e-06 0.107433)
(2.52355e-05 -2.52746e-05 0.104325)
(-3.78478e-05 3.7867e-05 0.104438)
(5.34033e-06 9.44171e-06 0.107446)
(-4.64341e-06 8.04426e-06 0.107434)
(4.6473e-06 8.04517e-06 0.107434)
(3.7858e-05 3.78554e-05 0.104438)
(2.5127e-05 2.5126e-05 0.104336)
(-3.64963e-05 -3.64846e-05 0.104446)
(-5.14851e-06 -9.2847e-06 0.107448)
(5.14037e-06 -9.28749e-06 0.107448)
(-4.56873e-06 -7.47353e-06 0.107431)
(4.56612e-06 -7.47899e-06 0.10743)
(-2.51291e-05 2.50994e-05 0.104336)
(3.64953e-05 -3.64936e-05 0.104446)
(-9.30918e-06 -5.16269e-06 0.10745)
(-9.28675e-06 5.14731e-06 0.107447)
(-7.50102e-06 -4.57927e-06 0.107432)
(-7.47249e-06 4.5723e-06 0.10743)
(9.28905e-06 5.14667e-06 0.107448)
(7.49948e-06 -4.58622e-06 0.107433)
(7.47731e-06 4.56881e-06 0.107431)
(2.51082e-05 -2.5142e-05 0.104335)
(-3.64906e-05 3.64991e-05 0.104445)
(5.16815e-06 9.31726e-06 0.107449)
(-4.58315e-06 7.50599e-06 0.107432)
(4.58534e-06 7.50692e-06 0.107432)
(3.64907e-05 3.64966e-05 0.104445)
(2.41227e-05 2.41272e-05 0.104348)
(-3.26058e-05 -3.258e-05 0.104446)
(-4.76952e-06 -9.1403e-06 0.107453)
(4.75576e-06 -9.14363e-06 0.107452)
(-5.0786e-06 -7.0929e-06 0.107428)
(5.07719e-06 -7.10249e-06 0.107427)
(-2.41267e-05 2.41027e-05 0.104348)
(3.25854e-05 -3.2601e-05 0.104447)
(-9.17259e-06 -4.78074e-06 0.107454)
(-9.14571e-06 4.76616e-06 0.107451)
(-7.12855e-06 -5.07678e-06 0.107429)
(-7.10433e-06 5.08629e-06 0.107427)
(9.15017e-06 4.76931e-06 0.107452)
(7.11936e-06 -5.08979e-06 0.10743)
(7.10165e-06 5.07817e-06 0.107428)
(2.41133e-05 -2.41351e-05 0.104348)
(-3.26022e-05 3.25903e-05 0.104446)
(4.78845e-06 9.18145e-06 0.107453)
(-5.08824e-06 7.13121e-06 0.107429)
(5.08121e-06 7.13019e-06 0.107429)
(3.25826e-05 3.25952e-05 0.104446)
(1.99738e-05 1.99914e-05 0.104368)
(-2.21945e-05 -2.22026e-05 0.104422)
(-3.57691e-06 -8.62586e-06 0.107459)
(3.55138e-06 -8.62667e-06 0.107458)
(-8.10658e-06 -9.1479e-06 0.107424)
(8.08102e-06 -9.14548e-06 0.107423)
(-1.99734e-05 1.99749e-05 0.104368)
(2.21324e-05 -2.22114e-05 0.104423)
(-8.65962e-06 -3.58924e-06 0.10746)
(-8.64153e-06 3.57189e-06 0.107458)
(-9.17248e-06 -8.05273e-06 0.107425)
(-9.1797e-06 8.11025e-06 0.107423)
(8.64291e-06 3.58164e-06 0.107458)
(9.12851e-06 -8.04741e-06 0.107426)
(9.16733e-06 8.08872e-06 0.107424)
(1.99887e-05 -1.99743e-05 0.104368)
(-2.22371e-05 2.21678e-05 0.104422)
(3.59148e-06 8.66399e-06 0.10746)
(-8.07954e-06 9.16391e-06 0.107425)
(8.05737e-06 9.14435e-06 0.107425)
(2.21951e-05 2.21683e-05 0.104422)
(4.87377e-06 4.95112e-06 0.104423)
(-4.13172e-05 -4.11733e-05 0.104382)
(-2.13854e-06 -1.05606e-05 0.10747)
(2.07092e-06 -1.05373e-05 0.107469)
(-3.76401e-05 -5.55062e-05 0.107479)
(3.76204e-05 -5.55345e-05 0.107479)
(-4.91142e-06 4.9584e-06 0.104423)
(4.12652e-05 -4.11954e-05 0.104382)
(-1.06519e-05 -2.09556e-06 0.107471)
(-1.06375e-05 2.12273e-06 0.107469)
(-5.56649e-05 -3.7481e-05 0.107481)
(-5.56089e-05 3.76363e-05 0.107479)
(1.06189e-05 2.14162e-06 0.107469)
(5.56133e-05 -3.74833e-05 0.107481)
(5.56035e-05 3.7635e-05 0.107479)
(4.91266e-06 -4.88868e-06 0.104423)
(-4.12798e-05 4.12687e-05 0.104381)
(2.11395e-06 1.06275e-05 0.107471)
(-3.75779e-05 5.56219e-05 0.107481)
(3.75745e-05 5.56151e-05 0.10748)
(4.12735e-05 4.12886e-05 0.104381)
(-4.10025e-05 -4.0825e-05 0.104781)
(-6.00621e-05 -0.000121358 0.107729)
(6.0044e-05 -0.000121415 0.107728)
(4.09573e-05 -4.08355e-05 0.10478)
(-0.000121602 -5.98869e-05 0.10773)
(-0.000121508 6.00505e-05 0.107728)
(2.5001e-05 -2.48478e-05 0.112034)
(-2.49812e-05 2.50588e-05 0.112034)
(2.49969e-05 2.50509e-05 0.112034)
(0.000121475 6.00351e-05 0.107729)
(-4.09639e-05 4.09473e-05 0.10478)
(5.9973e-05 0.000121552 0.10773)
(-2.99299e-07 -1.65738e-05 0.0914273)
(-1.2515e-06 -1.20102e-05 0.0822863)
(3.33904e-06 -5.88898e-06 0.0716037)
(-1.66003e-05 -2.99291e-07 0.0914268)
(-1.20344e-05 -1.20125e-06 0.0822867)
(-1.02023e-05 -1.01961e-05 0.112452)
(1.02011e-05 -1.01897e-05 0.112452)
(-1.01892e-05 1.02069e-05 0.112451)
(1.01924e-05 1.02069e-05 0.112452)
(2.72675e-05 -6.81801e-07 0.0985809)
(1.13134e-05 -6.11978e-06 0.10749)
(2.03789e-05 -7.76365e-06 0.0930683)
(1.44021e-05 -2.60346e-06 0.109908)
(-5.83053e-06 3.30812e-06 0.071605)
(-7.01176e-07 2.72328e-05 0.098581)
(-6.12018e-06 1.13217e-05 0.107489)
(-2.60536e-06 1.44131e-05 0.109907)
(-7.79627e-06 2.04241e-05 0.093068)
(4.16243e-05 4.16213e-05 0.104317)
(9.88073e-06 6.92665e-06 0.0876075)
(6.96448e-06 9.86979e-06 0.0876057)
(-2.97255e-07 -1.65127e-05 0.0914585)
(6.35103e-07 7.17105e-06 0.0822603)
(-2.48895e-07 4.97265e-06 0.091406)
(-1.28237e-06 -1.19487e-05 0.0823196)
(-2.52694e-06 4.37607e-06 0.0715725)
(3.3822e-06 -5.83717e-06 0.0716337)
(-1.65407e-05 -2.96788e-07 0.0914579)
(7.17727e-06 5.88907e-07 0.0822595)
(5.00799e-06 -2.36671e-07 0.0914064)
(-1.19725e-05 -1.23314e-06 0.08232)
(1.02779e-05 -1.02675e-05 0.112444)
(-1.02674e-05 1.02835e-05 0.112442)
(1.02685e-05 1.02842e-05 0.112443)
(-1.0466e-05 -1.04612e-05 0.112417)
(1.04676e-05 -1.04537e-05 0.112417)
(-1.04547e-05 1.04728e-05 0.112416)
(1.04605e-05 1.04727e-05 0.112416)
(2.72359e-05 -6.77722e-07 0.0986024)
(-8.76398e-06 3.0637e-06 0.0930328)
(1.46346e-05 -2.65787e-06 0.109894)
(1.14118e-05 -6.21015e-06 0.107482)
(-7.99218e-06 -4.33561e-07 0.098541)
(2.03128e-05 -7.75771e-06 0.0930972)
(1.46914e-05 -2.67144e-06 0.109889)
(4.31226e-06 -2.49192e-06 0.0715699)
(-5.77898e-06 3.34868e-06 0.071635)
(-6.9969e-07 2.71979e-05 0.0986025)
(-2.65805e-06 1.46439e-05 0.109893)
(3.09052e-06 -8.80689e-06 0.0930335)
(-6.21182e-06 1.14198e-05 0.107481)
(-4.21876e-07 -7.95419e-06 0.0985409)
(-2.67115e-06 1.47023e-05 0.109889)
(-7.79146e-06 2.03572e-05 0.0930969)
(-3.62416e-06 -3.44806e-06 0.0875817)
(-3.45338e-06 -3.61667e-06 0.0875804)
(4.14987e-05 4.14945e-05 0.10432)
(9.8051e-06 6.93794e-06 0.0876391)
(6.97727e-06 9.79156e-06 0.0876373)
(-2.98869e-07 -1.64417e-05 0.0914897)
(5.95011e-07 7.20779e-06 0.0822935)
(-2.50756e-07 4.98795e-06 0.0914373)
(-1.31418e-06 -1.18789e-05 0.0823525)
(-2.47738e-06 4.40267e-06 0.0716023)
(3.42358e-06 -5.78486e-06 0.0716632)
(-1.64696e-05 -2.97341e-07 0.0914891)
(7.21635e-06 5.50272e-07 0.0822926)
(5.02334e-06 -2.38248e-07 0.0914377)
(-1.19031e-05 -1.26336e-06 0.0823529)
(1.0531e-05 -1.05178e-05 0.112408)
(-1.0519e-05 1.05362e-05 0.112407)
(1.05224e-05 1.05363e-05 0.112407)
(-1.06724e-05 -1.06672e-05 0.112381)
(1.0675e-05 -1.06615e-05 0.112381)
(-1.0662e-05 1.0679e-05 0.11238)
(1.06687e-05 1.06786e-05 0.112381)
(2.71827e-05 -6.76854e-07 0.0986243)
(-8.8087e-06 3.0492e-06 0.0930619)
(1.48724e-05 -2.71632e-06 0.109876)
(1.14692e-05 -6.27592e-06 0.107474)
(-7.96311e-06 -4.35257e-07 0.0985629)
(2.02351e-05 -7.74279e-06 0.0931261)
(1.49092e-05 -2.72524e-06 0.109872)
(4.33757e-06 -2.44396e-06 0.0715996)
(-5.7273e-06 3.38923e-06 0.0716645)
(-7.01892e-07 2.71427e-05 0.0986245)
(-2.71626e-06 1.4881e-05 0.109875)
(3.07388e-06 -8.85239e-06 0.0930626)
(-6.27697e-06 1.14761e-05 0.107474)
(-4.20723e-07 -7.9255e-06 0.0985629)
(-2.7248e-06 1.49189e-05 0.109871)
(-7.77743e-06 2.0278e-05 0.0931257)
(-3.68078e-06 -3.42607e-06 0.0876133)
(-3.43121e-06 -3.67428e-06 0.087612)
(4.13641e-05 4.13584e-05 0.104324)
(9.72066e-06 6.94479e-06 0.0876705)
(6.98653e-06 9.70611e-06 0.0876687)
(-2.96078e-07 -1.63572e-05 0.0915207)
(5.62916e-07 7.25539e-06 0.0823262)
(-2.53151e-07 5.02286e-06 0.0914685)
(-1.33694e-06 -1.18065e-05 0.082385)
(-2.43228e-06 4.43052e-06 0.0716315)
(3.46096e-06 -5.73448e-06 0.0716922)
(-1.63854e-05 -2.94214e-07 0.0915202)
(7.26313e-06 5.17749e-07 0.0823253)
(5.05792e-06 -2.39851e-07 0.091469)
(-1.18317e-05 -1.28637e-06 0.0823854)
(1.07273e-05 -1.07141e-05 0.112373)
(-1.07145e-05 1.0731e-05 0.112372)
(1.07189e-05 1.0731e-05 0.112372)
(-1.08256e-05 -1.08208e-05 0.112347)
(1.08292e-05 -1.0816e-05 0.112347)
(-1.08152e-05 1.08319e-05 0.112346)
(1.08223e-05 1.0832e-05 0.112346)
(2.71018e-05 -6.73377e-07 0.0986465)
(-8.86935e-06 3.04658e-06 0.0930909)
(1.50411e-05 -2.76058e-06 0.109859)
(1.14833e-05 -6.31544e-06 0.107468)
(-7.96829e-06 -4.37389e-07 0.0985853)
(2.01458e-05 -7.72051e-06 0.0931549)
(1.50563e-05 -2.7667e-06 0.109855)
(4.36585e-06 -2.39867e-06 0.0716288)
(-5.67678e-06 3.42722e-06 0.0716935)
(-6.98878e-07 2.70616e-05 0.0986467)
(-2.75993e-06 1.50496e-05 0.109858)
(3.06768e-06 -8.91521e-06 0.0930916)
(-6.31608e-06 1.14893e-05 0.107467)
(-4.17792e-07 -7.93401e-06 0.0985853)
(-2.76503e-06 1.50652e-05 0.109854)
(-7.75708e-06 2.0187e-05 0.0931546)
(-3.74467e-06 -3.40814e-06 0.0876446)
(-3.41161e-06 -3.73984e-06 0.0876433)
(4.1227e-05 4.12197e-05 0.104329)
(9.63474e-06 6.94365e-06 0.0877016)
(6.98767e-06 9.61903e-06 0.0876998)
(-2.905e-07 -1.62604e-05 0.0915516)
(5.34188e-07 7.30727e-06 0.0823584)
(-2.51239e-07 5.07545e-06 0.0914996)
(-1.35832e-06 -1.17331e-05 0.0824169)
(-2.39135e-06 4.46014e-06 0.0716601)
(3.49532e-06 -5.68442e-06 0.0717205)
(-1.62884e-05 -2.89189e-07 0.091551)
(7.31616e-06 4.8761e-07 0.0823575)
(5.11028e-06 -2.37069e-07 0.0915)
(-1.17573e-05 -1.30935e-06 0.0824173)
(1.08707e-05 -1.08587e-05 0.112339)
(-1.08577e-05 1.08735e-05 0.112337)
(1.08627e-05 1.08745e-05 0.112338)
(-1.0928e-05 -1.09229e-05 0.112313)
(1.09312e-05 -1.09181e-05 0.112313)
(-1.09171e-05 1.09331e-05 0.112312)
(1.09248e-05 1.0934e-05 0.112312)
(2.69983e-05 -6.69072e-07 0.098669)
(-8.94678e-06 3.05165e-06 0.0931197)
(1.51449e-05 -2.79372e-06 0.109842)
(1.1459e-05 -6.33151e-06 0.107463)
(-8.00455e-06 -4.3769e-07 0.0986079)
(2.00447e-05 -7.69377e-06 0.0931835)
(1.51369e-05 -2.79512e-06 0.109838)
(4.39528e-06 -2.35766e-06 0.0716574)
(-5.62695e-06 3.46118e-06 0.0717219)
(-6.93541e-07 2.69578e-05 0.0986691)
(-2.79235e-06 1.51524e-05 0.109842)
(3.06963e-06 -8.99367e-06 0.0931204)
(-6.33066e-06 1.14631e-05 0.107462)
(-4.13929e-07 -7.97323e-06 0.098608)
(-2.7936e-06 1.51448e-05 0.109837)
(-7.73256e-06 2.0085e-05 0.0931832)
(-3.81131e-06 -3.40529e-06 0.0876756)
(-3.40708e-06 -3.80661e-06 0.0876743)
(4.10755e-05 4.1068e-05 0.104334)
(9.54726e-06 6.93402e-06 0.0877324)
(6.97886e-06 9.53053e-06 0.0877306)
(-2.8655e-07 -1.61529e-05 0.0915822)
(5.04982e-07 7.36569e-06 0.08239)
(-2.50407e-07 5.14387e-06 0.0915304)
(-1.37897e-06 -1.16569e-05 0.0824483)
(-2.35553e-06 4.49063e-06 0.071688)
(3.5245e-06 -5.63634e-06 0.0717483)
(-1.61814e-05 -2.8618e-07 0.0915816)
(7.37535e-06 4.57864e-07 0.0823891)
(5.17865e-06 -2.35277e-07 0.0915308)
(-1.16821e-05 -1.33025e-06 0.0824486)
(1.09648e-05 -1.09523e-05 0.112305)
(-1.09514e-05 1.09667e-05 0.112304)
(1.09567e-05 1.09682e-05 0.112304)
(-1.09807e-05 -1.09746e-05 0.112279)
(1.09841e-05 -1.09709e-05 0.112279)
(-1.09699e-05 1.09854e-05 0.112278)
(1.09771e-05 1.09863e-05 0.112278)
(2.68717e-05 -6.58552e-07 0.0986917)
(-9.03889e-06 3.06098e-06 0.0931483)
(1.51844e-05 -2.81523e-06 0.109827)
(1.1395e-05 -6.32163e-06 0.107458)
(-8.07182e-06 -4.31283e-07 0.0986307)
(1.99333e-05 -7.66431e-06 0.093212)
(1.51533e-05 -2.81259e-06 0.109823)
(4.4256e-06 -2.32182e-06 0.0716854)
(-5.57858e-06 3.49066e-06 0.0717496)
(-6.85703e-07 2.68319e-05 0.0986918)
(-2.81396e-06 1.51922e-05 0.109826)
(3.0811e-06 -9.08646e-06 0.093149)
(-6.32176e-06 1.13998e-05 0.107457)
(-4.10481e-07 -8.04033e-06 0.0986308)
(-2.81102e-06 1.51613e-05 0.109822)
(-7.70116e-06 1.9973e-05 0.0932116)
(-3.88386e-06 -3.40781e-06 0.0877061)
(-3.40849e-06 -3.88029e-06 0.0877048)
(4.09148e-05 4.09074e-05 0.104341)
(9.45294e-06 6.92152e-06 0.0877627)
(6.96668e-06 9.43629e-06 0.0877609)
(-2.81279e-07 -1.60359e-05 0.0916124)
(4.77614e-07 7.42869e-06 0.0824209)
(-2.48066e-07 5.22614e-06 0.0915608)
(-1.39522e-06 -1.15803e-05 0.082479)
(-2.32482e-06 4.52083e-06 0.0717152)
(3.54777e-06 -5.59027e-06 0.0717754)
(-1.60649e-05 -2.80458e-07 0.0916118)
(7.43882e-06 4.30713e-07 0.0824201)
(5.26088e-06 -2.33753e-07 0.0915613)
(-1.16056e-05 -1.34581e-06 0.0824793)
(1.10118e-05 -1.09994e-05 0.112272)
(-1.09985e-05 1.10133e-05 0.112271)
(1.10031e-05 1.10145e-05 0.112271)
(-1.09866e-05 -1.09794e-05 0.112246)
(1.09898e-05 -1.0977e-05 0.112246)
(-1.09762e-05 1.09911e-05 0.112245)
(1.09825e-05 1.09917e-05 0.112246)
(2.67242e-05 -6.48385e-07 0.0987144)
(-9.14517e-06 3.07874e-06 0.0931767)
(1.51662e-05 -2.82535e-06 0.109812)
(1.12975e-05 -6.29013e-06 0.107454)
(-8.16847e-06 -4.24619e-07 0.0986536)
(1.98111e-05 -7.62801e-06 0.0932401)
(1.51114e-05 -2.8185e-06 0.109808)
(4.45581e-06 -2.29062e-06 0.0717126)
(-5.53177e-06 3.51527e-06 0.0717767)
(-6.75927e-07 2.66848e-05 0.0987145)
(-2.82396e-06 1.51738e-05 0.109811)
(3.09931e-06 -9.19254e-06 0.0931773)
(-6.29079e-06 1.13026e-05 0.107453)
(-4.04575e-07 -8.13568e-06 0.0986538)
(-2.81689e-06 1.51195e-05 0.109807)
(-7.66415e-06 1.98513e-05 0.0932398)
(-3.96193e-06 -3.41493e-06 0.0877362)
(-3.4154e-06 -3.95876e-06 0.0877349)
(4.07487e-05 4.07412e-05 0.104347)
(9.35675e-06 6.90369e-06 0.0877926)
(6.94859e-06 9.33955e-06 0.0877907)
(-2.73292e-07 -1.59088e-05 0.0916422)
(4.52049e-07 7.4953e-06 0.0824511)
(-2.44597e-07 5.32312e-06 0.0915909)
(-1.40596e-06 -1.15023e-05 0.0825091)
(-2.29998e-06 4.55052e-06 0.0717416)
(3.56569e-06 -5.54619e-06 0.0718018)
(-1.59391e-05 -2.74524e-07 0.0916417)
(7.50564e-06 4.04713e-07 0.0824503)
(5.35751e-06 -2.32304e-07 0.0915913)
(-1.15296e-05 -1.35472e-06 0.0825094)
(1.10151e-05 -1.1003e-05 0.112239)
(-1.10024e-05 1.10168e-05 0.112238)
(1.10063e-05 1.10176e-05 0.112238)
(-1.09487e-05 -1.09414e-05 0.112214)
(1.09516e-05 -1.0939e-05 0.112214)
(-1.09383e-05 1.0953e-05 0.112213)
(1.09445e-05 1.09534e-05 0.112213)
(2.65575e-05 -6.36652e-07 0.0987371)
(-9.26419e-06 3.1032e-06 0.0932046)
(1.50921e-05 -2.82445e-06 0.109797)
(1.11638e-05 -6.23554e-06 0.10745)
(-8.29382e-06 -4.16733e-07 0.0986765)
(1.96775e-05 -7.58649e-06 0.093268)
(1.5014e-05 -2.81347e-06 0.109793)
(4.48745e-06 -2.2654e-06 0.0717389)
(-5.4874e-06 3.53268e-06 0.0718032)
(-6.64434e-07 2.65222e-05 0.0987372)
(-2.82288e-06 1.51006e-05 0.109796)
(3.12382e-06 -9.31098e-06 0.0932053)
(-6.23641e-06 1.11691e-05 0.10745)
(-3.96418e-07 -8.26128e-06 0.0986767)
(-2.81168e-06 1.50232e-05 0.109792)
(-7.62178e-06 1.97189e-05 0.0932676)