/*--------------------------------*- C++ -*----------------------------------*\
| =========                 |                                                 |
| \\      /  F ield         | OpenFOAM: The Open Source CFD Toolbox           |
|  \\    /   O peration     | Version:  v1906                                 |
|   \\  /    A nd           | Web:      www.OpenFOAM.com                      |
|    \\/     M anipulation  |                                                 |
\*---------------------------------------------------------------------------*/
FoamFile
{
    version     2.0;
    format      ascii;
    class       volScalarField;
    location    "50";
    object      k;
}
// * * * * * * * * * * * * * * * * * * * * * * * * * * * * * * * * * * * * * //

dimensions      [0 2 -2 0 0 0 0];


internalField   nonuniform List<scalar> 
171728
(
2.016e-05
2.03783e-05
2.03809e-05
2.01685e-05
2.03805e-05
2.03787e-05
2.03848e-05
2.03784e-05
2.0194e-05
2.03771e-05
2.03806e-05
2.01988e-05
2.1026e-05
2.10265e-05
2.10241e-05
2.10261e-05
7.25558e-05
7.2547e-05
4.12563e-05
4.12933e-05
3.01233e-05
6.87718e-05
3.01178e-05
3.01063e-05
6.87522e-05
6.87562e-05
3.00979e-05
2.0609e-05
2.90483e-05
2.06794e-05
2.06805e-05
2.06094e-05
2.05965e-05
2.03815e-05
2.90494e-05
2.06791e-05
2.90535e-05
2.06796e-05
2.05969e-05
7.25607e-05
7.25541e-05
2.01631e-05
4.13232e-05
4.11849e-05
4.12796e-05
4.11394e-05
7.25444e-05
7.25398e-05
6.87642e-05
3.0066e-05
2.90404e-05
2.06838e-05
2.05914e-05
6.89287e-05
3.01023e-05
2.06814e-05
2.91386e-05
2.06019e-05
2.06005e-05
2.03848e-05
2.9037e-05
2.06799e-05
2.90443e-05
2.06805e-05
2.06145e-05
3.00025e-05
6.87652e-05
6.8766e-05
3.0049e-05
2.0629e-05
2.03794e-05
2.06774e-05
2.90272e-05
2.06771e-05
2.9039e-05
2.0591e-05
3.00895e-05
6.87457e-05
6.87531e-05
3.0086e-05
7.26368e-05
4.16958e-05
4.12726e-05
7.25478e-05
2.05624e-05
2.06773e-05
2.9039e-05
2.06775e-05
2.05704e-05
2.05778e-05
2.03815e-05
2.06799e-05
2.90492e-05
2.06812e-05
2.90632e-05
2.05621e-05
2.9968e-05
6.87499e-05
2.99753e-05
3.0077e-05
6.87633e-05
6.87763e-05
3.00692e-05
2.01636e-05
4.10499e-05
4.11221e-05
4.11256e-05
4.12115e-05
7.25368e-05
7.25371e-05
7.2552e-05
7.25529e-05
7.25525e-05
7.2546e-05
3.2794e-05
2.32681e-05
4.1186e-05
6.73737e-05
6.73698e-05
2.32686e-05
3.27655e-05
3.28129e-05
2.32729e-05
4.12962e-05
6.73666e-05
6.73706e-05
2.32822e-05
3.27958e-05
6.02832e-05
7.2645e-05
7.26389e-05
7.2637e-05
7.26312e-05
6.02903e-05
7.41337e-05
7.54233e-05
3.40393e-05
3.01178e-05
7.41339e-05
7.54222e-05
3.40334e-05
7.15812e-05
6.87728e-05
5.27787e-05
5.27685e-05
7.15892e-05
7.41344e-05
3.01229e-05
7.54222e-05
3.40345e-05
7.54234e-05
3.40401e-05
7.41341e-05
7.41319e-05
7.54222e-05
3.4013e-05
3.01e-05
7.41319e-05
7.54209e-05
3.40082e-05
7.15346e-05
6.87534e-05
5.25135e-05
5.24041e-05
7.15427e-05
7.15417e-05
5.25177e-05
6.87529e-05
7.15344e-05
5.24677e-05
7.41325e-05
3.01043e-05
7.54207e-05
3.40099e-05
7.5422e-05
3.40146e-05
7.41322e-05
7.25575e-05
7.25581e-05
5.99279e-05
7.26068e-05
7.26099e-05
5.99718e-05
7.26111e-05
7.26142e-05
3.27826e-05
2.32825e-05
4.13155e-05
6.73716e-05
2.32865e-05
6.73728e-05
3.27731e-05
3.27667e-05
2.32831e-05
4.118e-05
6.73587e-05
6.73597e-05
2.32857e-05
3.27573e-05
3.27754e-05
6.73711e-05
2.3284e-05
4.12933e-05
2.32817e-05
3.27863e-05
6.73705e-05
3.27596e-05
6.73597e-05
2.32834e-05
4.10987e-05
3.27704e-05
6.73576e-05
2.32804e-05
5.99255e-05
7.26095e-05
7.26125e-05
7.26035e-05
7.26065e-05
5.99119e-05
7.2541e-05
7.25419e-05
7.15495e-05
6.87672e-05
5.26521e-05
5.26027e-05
7.15602e-05
7.41776e-05
3.00733e-05
3.36747e-05
7.54238e-05
3.36621e-05
7.54253e-05
7.41632e-05
7.18115e-05
6.89354e-05
5.36456e-05
5.36511e-05
7.1813e-05
7.41621e-05
3.01085e-05
7.54241e-05
3.41933e-05
7.54252e-05
3.42023e-05
7.41615e-05
7.41228e-05
3.36505e-05
7.54225e-05
3.0003e-05
7.41341e-05
3.3603e-05
7.54215e-05
7.15517e-05
6.87678e-05
5.27966e-05
5.28146e-05
7.15535e-05
7.15624e-05
5.2811e-05
6.87652e-05
7.15566e-05
5.28628e-05
7.41198e-05
3.00144e-05
3.35114e-05
7.54222e-05
3.35285e-05
7.54229e-05
7.41251e-05
7.41476e-05
7.5422e-05
3.37229e-05
3.0085e-05
7.41431e-05
7.54208e-05
3.37048e-05
7.14977e-05
6.87541e-05
5.23389e-05
5.23904e-05
7.1505e-05
7.15036e-05
5.24912e-05
6.87557e-05
7.14975e-05
5.2379e-05
7.41494e-05
3.00907e-05
7.54208e-05
3.36764e-05
7.54221e-05
3.36932e-05
7.41503e-05
7.26356e-05
3.27987e-05
2.33476e-05
4.17705e-05
6.74287e-05
2.33524e-05
6.74304e-05
3.27946e-05
3.27688e-05
2.32737e-05
4.11911e-05
6.73582e-05
6.73588e-05
2.3275e-05
3.27647e-05
6.02652e-05
7.26449e-05
7.26408e-05
7.26351e-05
7.26309e-05
6.02775e-05
7.25439e-05
7.41671e-05
3.37501e-05
7.54227e-05
2.99761e-05
7.41639e-05
3.37585e-05
7.54219e-05
7.15468e-05
6.87511e-05
5.25551e-05
5.25175e-05
7.15544e-05
7.15526e-05
5.26155e-05
7.41706e-05
2.99915e-05
3.37967e-05
7.54218e-05
3.3725e-05
7.54232e-05
7.41565e-05
7.41314e-05
3.40152e-05
7.5422e-05
3.00712e-05
7.41325e-05
3.40049e-05
7.5421e-05
7.15215e-05
6.87681e-05
5.24361e-05
5.23834e-05
7.15235e-05
7.15356e-05
5.24814e-05
6.87695e-05
7.15351e-05
5.2473e-05
7.41313e-05
3.00755e-05
3.39965e-05
7.54209e-05
3.40068e-05
7.5422e-05
7.41299e-05
5.98745e-05
7.2595e-05
7.25921e-05
5.98491e-05
7.25975e-05
7.25948e-05
3.27491e-05
2.32677e-05
4.10937e-05
6.73495e-05
2.32718e-05
6.73534e-05
3.27367e-05
3.27726e-05
2.32664e-05
4.1151e-05
6.73656e-05
2.32714e-05
6.73682e-05
3.27601e-05
3.27443e-05
6.73648e-05
2.32741e-05
4.11026e-05
3.2757e-05
2.32688e-05
6.73553e-05
3.27681e-05
6.73708e-05
2.3276e-05
4.11427e-05
3.27811e-05
2.32696e-05
6.73681e-05
5.99042e-05
7.2591e-05
7.25885e-05
7.25876e-05
7.25851e-05
5.98976e-05
7.25358e-05
7.25386e-05
7.2551e-05
7.25539e-05
2.23791e-05
2.01295e-05
2.04001e-05
2.04273e-05
2.03936e-05
2.04367e-05
2.2372e-05
2.23924e-05
2.01598e-05
2.04554e-05
2.04764e-05
2.04898e-05
2.04672e-05
2.2388e-05
2.23719e-05
2.01699e-05
2.04346e-05
2.04478e-05
2.04483e-05
2.0427e-05
2.2369e-05
2.2361e-05
2.01695e-05
2.03991e-05
2.04202e-05
2.03997e-05
2.04521e-05
2.23544e-05
2.13225e-05
2.13233e-05
2.13227e-05
2.1561e-05
2.1561e-05
2.10268e-05
2.13223e-05
2.13224e-05
2.13224e-05
2.13226e-05
2.15609e-05
2.15609e-05
2.13222e-05
2.13216e-05
2.13218e-05
2.15607e-05
2.15607e-05
2.10263e-05
2.13217e-05
2.13225e-05
2.13217e-05
2.13226e-05
2.15607e-05
2.15607e-05
1.99707e-05
2.12446e-05
1.99952e-05
2.05965e-05
1.99678e-05
2.12354e-05
1.9955e-05
2.01478e-05
2.08869e-05
2.90541e-05
2.39061e-05
2.08858e-05
2.39107e-05
2.0148e-05
1.99683e-05
2.06041e-05
2.12425e-05
1.99741e-05
2.1245e-05
1.99823e-05
2.00041e-05
1.99862e-05
2.12571e-05
1.9991e-05
2.05962e-05
1.99948e-05
2.12592e-05
1.99503e-05
2.01606e-05
2.08953e-05
2.90569e-05
2.38698e-05
2.38731e-05
2.09248e-05
2.01623e-05
2.016e-05
2.38696e-05
2.09152e-05
2.90469e-05
2.016e-05
2.38663e-05
2.09117e-05
2.0013e-05
2.06153e-05
2.12585e-05
1.99433e-05
2.12643e-05
1.99519e-05
1.99835e-05
2.2387e-05
2.01627e-05
2.04673e-05
2.04683e-05
2.04701e-05
2.23904e-05
2.04742e-05
2.01762e-05
2.09018e-05
2.90496e-05
2.38812e-05
2.09301e-05
2.38856e-05
2.01444e-05
1.99838e-05
2.05949e-05
2.12241e-05
1.99724e-05
2.12357e-05
1.99576e-05
1.99818e-05
2.01424e-05
2.09402e-05
2.9148e-05
2.40579e-05
2.4065e-05
2.09692e-05
2.01659e-05
1.9994e-05
2.05996e-05
2.00416e-05
2.12757e-05
1.99861e-05
2.12805e-05
2.00017e-05
2.00072e-05
2.12032e-05
1.9965e-05
2.06088e-05
1.99713e-05
2.12054e-05
1.99667e-05
2.01588e-05
2.08982e-05
2.9045e-05
2.38863e-05
2.08988e-05
2.38944e-05
2.01747e-05
2.01464e-05
2.38964e-05
2.09017e-05
2.90357e-05
2.01523e-05
2.08933e-05
2.38906e-05
1.99821e-05
2.06316e-05
2.12025e-05
1.99935e-05
2.12169e-05
1.99589e-05
1.9978e-05
1.99856e-05
1.99767e-05
2.12068e-05
2.06036e-05
1.99485e-05
1.99743e-05
2.1208e-05
2.01321e-05
2.0888e-05
2.90364e-05
2.38332e-05
2.38398e-05
2.0891e-05
2.0117e-05
2.01322e-05
2.3844e-05
2.09048e-05
2.90292e-05
2.01421e-05
2.38365e-05
2.08896e-05
2.00361e-05
2.06036e-05
1.9968e-05
2.12104e-05
2.00036e-05
2.1213e-05
2.00072e-05
1.99845e-05
1.9926e-05
2.12282e-05
2.05585e-05
1.99576e-05
1.99808e-05
2.12405e-05
2.0144e-05
2.09223e-05
2.90457e-05
2.38782e-05
2.09004e-05
2.38826e-05
2.01113e-05
2.01204e-05
2.38759e-05
1.99791e-05
2.05711e-05
1.99982e-05
2.12416e-05
1.99797e-05
2.12436e-05
1.9997e-05
2.00233e-05
1.99955e-05
2.12516e-05
2.05771e-05
2.0008e-05
1.99557e-05
2.12515e-05
2.01607e-05
2.08651e-05
2.90592e-05
2.38766e-05
2.38876e-05
2.08731e-05
2.01227e-05
2.01452e-05
2.38961e-05
2.09077e-05
2.90527e-05
2.01448e-05
2.3886e-05
2.08786e-05
1.99784e-05
2.05906e-05
1.99339e-05
2.12412e-05
1.99443e-05
2.12588e-05
1.99868e-05
2.23587e-05
2.01905e-05
2.04358e-05
2.04209e-05
2.23661e-05
2.03971e-05
2.04296e-05
2.10258e-05
2.03805e-05
2.03765e-05
2.01342e-05
2.01748e-05
2.01623e-05
2.01247e-05
2.03769e-05
2.03805e-05
2.03761e-05
2.03803e-05
2.0145e-05
2.01448e-05
2.03806e-05
2.0382e-05
2.03784e-05
2.03817e-05
2.03775e-05
2.03807e-05
2.03804e-05
2.01279e-05
2.01972e-05
2.03772e-05
2.03768e-05
2.03777e-05
2.01858e-05
2.03794e-05
2.03773e-05
3.01364e-05
6.87499e-05
6.87531e-05
3.0142e-05
7.25373e-05
7.25421e-05
2.99582e-05
6.87707e-05
6.87561e-05
3.00227e-05
2.10261e-05
2.10256e-05
2.10253e-05
2.10255e-05
2.10261e-05
2.10254e-05
2.10254e-05
2.05823e-05
2.90481e-05
2.06804e-05
2.03802e-05
2.90392e-05
2.06819e-05
2.05844e-05
7.26413e-05
7.26425e-05
2.05986e-05
2.06776e-05
2.90456e-05
2.03765e-05
2.06779e-05
2.90326e-05
2.06045e-05
4.11822e-05
4.11784e-05
2.01339e-05
4.11725e-05
4.12196e-05
4.11123e-05
4.12877e-05
7.25403e-05
7.25437e-05
7.25442e-05
7.25461e-05
4.11669e-05
4.11774e-05
2.0134e-05
4.11849e-05
4.12022e-05
7.25483e-05
7.25421e-05
7.2547e-05
7.25443e-05
2.0129e-05
4.12158e-05
4.11653e-05
4.11895e-05
4.12106e-05
3.01306e-05
6.87516e-05
6.87485e-05
3.01397e-05
2.06386e-05
2.90351e-05
2.06802e-05
2.0376e-05
2.90246e-05
2.06801e-05
2.06186e-05
2.06067e-05
2.90375e-05
2.06844e-05
2.03804e-05
2.90303e-05
2.06837e-05
2.06457e-05
3.01417e-05
6.87615e-05
6.87571e-05
3.01351e-05
3.01343e-05
6.87589e-05
6.87572e-05
3.01193e-05
2.06429e-05
2.03758e-05
2.90267e-05
2.06811e-05
2.90328e-05
2.06804e-05
2.0615e-05
2.06028e-05
2.03805e-05
2.90322e-05
2.06817e-05
2.90389e-05
2.06825e-05
2.05933e-05
4.11191e-05
4.1137e-05
2.0141e-05
4.11666e-05
4.10642e-05
7.25482e-05
7.25493e-05
7.25452e-05
7.2541e-05
2.01813e-05
4.11555e-05
4.1176e-05
4.11522e-05
4.11437e-05
7.25545e-05
7.25483e-05
2.06383e-05
2.90471e-05
2.06851e-05
2.038e-05
2.90364e-05
2.06854e-05
2.06417e-05
3.01139e-05
6.89201e-05
6.89106e-05
3.01191e-05
2.06344e-05
2.06859e-05
2.91583e-05
2.03819e-05
2.06856e-05
2.91491e-05
2.06121e-05
2.9954e-05
6.87682e-05
6.87605e-05
2.99096e-05
2.06252e-05
2.03787e-05
2.90351e-05
2.06857e-05
2.90447e-05
2.06857e-05
2.06257e-05
3.01189e-05
6.89018e-05
6.8909e-05
3.01134e-05
2.06349e-05
2.03815e-05
2.06854e-05
2.91446e-05
2.06852e-05
2.91574e-05
2.06149e-05
3.00573e-05
6.88002e-05
6.87863e-05
3.00135e-05
2.05884e-05
2.06817e-05
2.90433e-05
2.03779e-05
2.06822e-05
2.90366e-05
2.0587e-05
3.01071e-05
6.87907e-05
6.87859e-05
3.01122e-05
2.05876e-05
2.03801e-05
2.90446e-05
2.06831e-05
2.90487e-05
2.06814e-05
2.05921e-05
3.00857e-05
6.87758e-05
6.87854e-05
3.01e-05
2.06004e-05
2.03781e-05
2.06832e-05
2.9038e-05
2.06825e-05
2.90454e-05
2.06149e-05
3.01125e-05
6.87742e-05
6.87838e-05
3.01056e-05
4.18688e-05
4.11633e-05
2.01762e-05
4.1837e-05
4.11753e-05
7.25431e-05
7.25416e-05
7.26396e-05
7.26399e-05
2.01667e-05
4.17538e-05
4.10109e-05
4.18405e-05
4.11916e-05
7.25356e-05
7.25389e-05
2.05766e-05
2.06799e-05
2.90659e-05
2.03771e-05
2.06797e-05
2.90558e-05
2.05837e-05
3.0091e-05
6.87385e-05
6.87376e-05
3.00924e-05
2.99931e-05
6.87976e-05
6.8798e-05
3.00098e-05
2.05887e-05
2.03765e-05
2.06782e-05
2.90246e-05
2.06779e-05
2.90396e-05
2.05796e-05
2.05826e-05
2.03773e-05
2.06789e-05
2.90559e-05
2.06792e-05
2.90646e-05
2.05754e-05
3.00976e-05
6.87488e-05
6.87434e-05
3.00959e-05
2.99954e-05
6.87895e-05
6.87966e-05
2.99814e-05
7.25492e-05
7.25539e-05
7.25666e-05
7.25695e-05
2.01692e-05
4.11342e-05
4.126e-05
4.11825e-05
4.13253e-05
7.25516e-05
7.25515e-05
7.25726e-05
7.25689e-05
2.06838e-05
2.9047e-05
2.06228e-05
6.87773e-05
3.011e-05
2.90647e-05
6.87897e-05
7.2549e-05
7.25709e-05
7.41311e-05
7.54257e-05
3.40102e-05
3.0142e-05
7.54269e-05
3.40142e-05
7.41309e-05
7.15476e-05
6.87481e-05
5.2599e-05
5.25111e-05
7.15385e-05
7.15451e-05
5.2577e-05
6.87541e-05
5.26474e-05
7.15552e-05
7.41301e-05
3.01367e-05
7.54269e-05
3.40107e-05
7.54258e-05
3.40058e-05
7.41302e-05
7.25399e-05
7.25388e-05
7.41327e-05
3.37098e-05
7.54207e-05
2.99848e-05
3.37129e-05
7.54216e-05
7.41316e-05
7.15388e-05
6.87582e-05
5.23714e-05
5.23881e-05
7.15305e-05
7.15362e-05
5.2528e-05
6.8758e-05
5.23987e-05
7.15492e-05
7.41247e-05
2.99695e-05
3.37156e-05
7.54216e-05
3.37052e-05
7.54204e-05
7.41253e-05
7.26435e-05
7.26408e-05
5.97976e-05
7.26011e-05
7.25989e-05
7.25936e-05
7.25915e-05
5.9714e-05
3.27284e-05
2.32623e-05
4.11827e-05
6.73521e-05
2.32596e-05
6.73512e-05
3.27393e-05
3.27622e-05
2.32905e-05
4.12289e-05
6.73755e-05
2.32882e-05
6.73738e-05
3.27732e-05
3.27369e-05
6.73519e-05
4.11981e-05
2.32631e-05
2.32651e-05
6.7353e-05
3.2729e-05
3.27705e-05
6.73736e-05
4.12455e-05
2.32913e-05
2.32933e-05
6.73752e-05
3.27627e-05
5.98177e-05
7.25948e-05
7.25929e-05
7.26001e-05
7.25981e-05
5.98785e-05
3.27475e-05
2.32773e-05
6.73548e-05
4.11927e-05
3.27526e-05
2.32758e-05
6.73544e-05
3.27814e-05
2.33115e-05
6.73899e-05
4.13303e-05
3.27863e-05
2.33108e-05
6.73833e-05
6.00213e-05
7.26099e-05
7.26081e-05
5.98566e-05
7.26192e-05
7.26175e-05
7.25428e-05
7.25413e-05
7.2546e-05
7.25439e-05
5.98843e-05
7.2616e-05
7.26119e-05
7.26074e-05
7.26034e-05
5.98751e-05
3.27479e-05
2.32713e-05
4.12103e-05
6.73589e-05
6.73575e-05
2.32669e-05
3.27561e-05
3.2779e-05
2.32848e-05
4.1183e-05
6.73685e-05
6.73671e-05
2.32792e-05
3.27877e-05
3.27567e-05
6.73572e-05
4.12168e-05
2.32644e-05
6.73588e-05
3.27498e-05
2.32695e-05
3.27873e-05
6.73672e-05
4.1203e-05
2.32751e-05
6.73685e-05
3.278e-05
2.32809e-05
5.98918e-05
7.26057e-05
7.26017e-05
7.26131e-05
7.26091e-05
5.98441e-05
7.25434e-05
7.2546e-05
7.25444e-05
7.25459e-05
5.99939e-05
7.26108e-05
7.26067e-05
5.98182e-05
7.26213e-05
7.2617e-05
3.27623e-05
2.32638e-05
4.1148e-05
6.73619e-05
6.73625e-05
2.32672e-05
3.27525e-05
3.27908e-05
2.32673e-05
4.11808e-05
6.73681e-05
6.7369e-05
2.32732e-05
3.27804e-05
3.27534e-05
6.73628e-05
2.32677e-05
4.11739e-05
3.27598e-05
6.73617e-05
2.32635e-05
3.27824e-05
6.73688e-05
2.32772e-05
4.11426e-05
3.27893e-05
6.73672e-05
2.32712e-05
5.99207e-05
7.26204e-05
7.2616e-05
7.26154e-05
7.26111e-05
5.97462e-05
7.41338e-05
7.54257e-05
3.39288e-05
3.01376e-05
7.5427e-05
3.39621e-05
7.41334e-05
7.15253e-05
6.87476e-05
5.25644e-05
5.25345e-05
7.15174e-05
7.1521e-05
5.25806e-05
6.87491e-05
5.24782e-05
7.15315e-05
7.41336e-05
3.01333e-05
7.54272e-05
3.40156e-05
7.5426e-05
3.39315e-05
7.41344e-05
7.41316e-05
7.54267e-05
3.40196e-05
3.0136e-05
7.41317e-05
7.54255e-05
3.40158e-05
7.15601e-05
6.87625e-05
5.26926e-05
7.15693e-05
5.2709e-05
7.15643e-05
5.27142e-05
6.87568e-05
7.15535e-05
5.26909e-05
7.41325e-05
3.0141e-05
7.54256e-05
3.40209e-05
7.41323e-05
7.54266e-05
3.40247e-05
7.41371e-05
7.54267e-05
3.39307e-05
3.01265e-05
7.41367e-05
7.54255e-05
3.38451e-05
7.15392e-05
6.87612e-05
5.26132e-05
5.2704e-05
7.15467e-05
7.15399e-05
5.25915e-05
6.87519e-05
7.15298e-05
5.25452e-05
7.41599e-05
3.01291e-05
7.54258e-05
3.36931e-05
7.54268e-05
3.38152e-05
7.41517e-05
6.00687e-05
7.26295e-05
7.26344e-05
7.26197e-05
7.26246e-05
6.01459e-05
3.27853e-05
2.32653e-05
4.11186e-05
6.73605e-05
6.73596e-05
2.32617e-05
3.27906e-05
3.27642e-05
2.32763e-05
4.10857e-05
6.73585e-05
2.3271e-05
6.73569e-05
3.27698e-05
3.27965e-05
6.73617e-05
4.11534e-05
2.32677e-05
6.73621e-05
2.32686e-05
3.2792e-05
3.27749e-05
6.73575e-05
4.11023e-05
2.32689e-05
2.32735e-05
6.73588e-05
3.27698e-05
6.00805e-05
7.2614e-05
7.26188e-05
7.26244e-05
7.26292e-05
5.99539e-05
7.25499e-05
7.25477e-05
7.2542e-05
7.25431e-05
6.01229e-05
7.26241e-05
7.26292e-05
6.01162e-05
7.26308e-05
7.2636e-05
3.28043e-05
2.32804e-05
4.11555e-05
6.73646e-05
2.328e-05
6.73652e-05
3.27956e-05
3.278e-05
2.32715e-05
4.11751e-05
6.73668e-05
6.73674e-05
2.3274e-05
3.27704e-05
3.27954e-05
6.7364e-05
2.32653e-05
4.10926e-05
2.32655e-05
3.28028e-05
6.73628e-05
3.27719e-05
6.73649e-05
2.32726e-05
4.11475e-05
3.278e-05
6.73648e-05
2.32689e-05
5.99925e-05
7.26266e-05
7.2632e-05
7.26215e-05
7.26268e-05
6.00069e-05
7.25507e-05
7.25515e-05
7.41612e-05
7.5425e-05
3.41817e-05
3.01191e-05
7.5426e-05
3.41907e-05
7.41605e-05
7.17912e-05
6.89158e-05
5.36897e-05
5.36248e-05
7.17882e-05
7.17794e-05
5.35251e-05
6.89158e-05
5.36168e-05
7.17808e-05
7.41609e-05
3.01138e-05
7.5426e-05
3.41947e-05
7.5425e-05
3.41864e-05
7.41615e-05
7.41637e-05
3.37225e-05
7.54219e-05
2.99342e-05
7.4145e-05
3.36951e-05
7.54209e-05
7.15654e-05
6.87705e-05
5.27771e-05
7.15804e-05
5.26368e-05
7.1567e-05
5.26108e-05
6.87605e-05
7.15506e-05
5.26424e-05
7.41617e-05
2.99476e-05
3.36771e-05
7.54208e-05
7.41516e-05
3.36878e-05
7.5422e-05
7.41599e-05
7.5426e-05
3.41837e-05
3.01137e-05
7.41606e-05
7.5425e-05
3.41731e-05
7.17491e-05
6.89037e-05
5.33437e-05
5.33412e-05
7.17508e-05
7.17635e-05
5.33278e-05
6.8904e-05
7.17644e-05
5.33161e-05
7.41599e-05
3.01187e-05
7.54253e-05
3.41658e-05
7.54262e-05
3.41757e-05
7.4159e-05
7.41521e-05
3.40419e-05
7.5424e-05
3.00206e-05
3.40514e-05
7.54247e-05
7.41535e-05
7.15847e-05
6.8798e-05
5.27253e-05
5.268e-05
7.15878e-05
7.15674e-05
5.26545e-05
6.87958e-05
5.26768e-05
7.15663e-05
7.41524e-05
3.0011e-05
3.40587e-05
7.54243e-05
3.4049e-05
7.54234e-05
7.415e-05
7.41775e-05
7.54238e-05
3.4023e-05
3.01126e-05
7.54249e-05
3.40309e-05
7.41681e-05
7.15618e-05
6.87847e-05
5.26089e-05
5.25198e-05
7.1562e-05
7.15526e-05
5.26475e-05
6.87851e-05
5.26362e-05
7.15568e-05
7.41477e-05
3.01072e-05
7.54246e-05
3.40362e-05
7.54236e-05
3.40268e-05
7.41526e-05
7.41473e-05
3.4044e-05
7.54255e-05
3.00903e-05
7.41525e-05
3.40346e-05
7.54246e-05
7.15421e-05
6.87879e-05
5.2569e-05
5.25861e-05
7.15467e-05
7.1551e-05
5.25761e-05
6.87813e-05
7.15516e-05
5.2477e-05
7.41769e-05
3.01018e-05
3.40307e-05
7.5425e-05
3.40387e-05
7.5426e-05
7.41718e-05
7.41598e-05
7.54248e-05
3.40277e-05
3.01067e-05
7.41696e-05
7.54234e-05
3.40206e-05
7.1548e-05
6.87773e-05
5.26456e-05
5.26936e-05
7.15531e-05
7.1555e-05
5.26783e-05
6.87772e-05
7.15495e-05
5.26796e-05
7.41765e-05
3.01116e-05
7.54231e-05
3.40188e-05
7.54244e-05
3.40259e-05
7.41658e-05
6.01073e-05
7.26555e-05
7.26507e-05
7.26439e-05
7.26392e-05
6.02823e-05
3.28071e-05
2.33557e-05
4.18645e-05
6.74385e-05
6.74376e-05
2.33515e-05
3.28123e-05
3.27771e-05
2.327e-05
4.10959e-05
6.73626e-05
2.32652e-05
6.73602e-05
3.2782e-05
3.28187e-05
6.7438e-05
4.18408e-05
2.33493e-05
6.74391e-05
2.33544e-05
3.28133e-05
3.27889e-05
6.736e-05
4.1161e-05
2.32652e-05
2.3269e-05
6.73614e-05
3.27839e-05
6.01365e-05
7.26358e-05
7.26312e-05
7.26475e-05
7.26428e-05
6.00626e-05
7.25432e-05
7.25402e-05
7.26383e-05
7.26415e-05
6.03552e-05
7.26511e-05
7.26463e-05
6.03291e-05
7.26593e-05
7.26543e-05
3.28266e-05
2.33429e-05
4.17944e-05
6.74413e-05
2.33486e-05
6.74413e-05
3.28139e-05
3.27981e-05
2.3262e-05
4.10935e-05
6.73668e-05
6.73594e-05
2.32675e-05
3.27858e-05
3.28174e-05
6.74396e-05
2.33521e-05
4.17889e-05
2.33459e-05
3.28245e-05
6.74381e-05
3.27886e-05
6.73613e-05
2.32692e-05
4.11403e-05
3.27954e-05
6.73593e-05
2.3265e-05
6.03624e-05
7.26542e-05
7.26492e-05
7.26514e-05
7.26464e-05
6.01347e-05
7.25357e-05
7.25397e-05
7.41571e-05
3.37489e-05
7.54219e-05
3.00954e-05
3.37661e-05
7.54234e-05
7.41465e-05
7.15025e-05
6.87358e-05
5.23942e-05
5.23934e-05
7.14919e-05
7.14977e-05
5.24915e-05
6.8738e-05
5.23576e-05
7.15119e-05
7.41557e-05
3.00885e-05
3.36571e-05
7.54239e-05
3.37381e-05
7.54225e-05
7.41617e-05
7.41715e-05
3.35792e-05
7.54267e-05
3.0002e-05
3.35873e-05
7.5428e-05
7.41678e-05
7.15538e-05
6.87953e-05
5.26516e-05
5.26632e-05
7.15471e-05
7.1546e-05
5.26887e-05
6.87969e-05
5.26884e-05
7.15518e-05
7.41785e-05
2.99996e-05
3.36055e-05
7.54289e-05
3.35405e-05
7.54275e-05
7.41745e-05
7.41382e-05
3.37819e-05
7.54228e-05
3.00932e-05
7.41472e-05
3.37904e-05
7.54216e-05
7.15299e-05
6.87492e-05
5.25785e-05
5.2636e-05
7.15433e-05
7.15262e-05
5.25278e-05
6.87427e-05
7.15124e-05
5.25011e-05
7.41415e-05
3.00999e-05
3.38177e-05
7.54334e-05
3.37561e-05
7.54475e-05
7.41481e-05
7.4186e-05
3.35788e-05
7.54274e-05
2.99884e-05
7.4173e-05
3.35624e-05
7.54263e-05
7.15447e-05
6.87931e-05
5.27504e-05
5.27574e-05
7.15516e-05
7.15519e-05
5.27293e-05
6.87921e-05
7.15445e-05
5.27385e-05
7.41661e-05
2.99923e-05
3.35788e-05
7.54264e-05
3.361e-05
7.54273e-05
7.41675e-05
7.25527e-05
7.25513e-05
7.25689e-05
7.25675e-05
6.00352e-05
7.25997e-05
7.25977e-05
5.99637e-05
7.26118e-05
7.26097e-05
3.27479e-05
2.32714e-05
4.11502e-05
6.73532e-05
3.27413e-05
2.32729e-05
6.73541e-05
3.27814e-05
2.33039e-05
4.13294e-05
6.73776e-05
3.27749e-05
2.33052e-05
6.73784e-05
3.27366e-05
6.73535e-05
2.32689e-05
4.11777e-05
3.27415e-05
2.3267e-05
6.73526e-05
3.27701e-05
6.73762e-05
2.32987e-05
4.13188e-05
3.2775e-05
2.32977e-05
6.7376e-05
5.99351e-05
7.2616e-05
7.26141e-05
5.99145e-05
7.26077e-05
7.26058e-05
7.25501e-05
7.25533e-05
7.25706e-05
7.25722e-05
7.15518e-05
5.25514e-05
6.87755e-05
7.15444e-05
5.26253e-05
7.41715e-05
3.00648e-05
7.5424e-05
3.40237e-05
7.41692e-05
7.54223e-05
3.40178e-05
6.87852e-05
7.25516e-05
7.25735e-05
2.13224e-05
2.13233e-05
2.10256e-05
2.13223e-05
2.13234e-05
2.1561e-05
2.1561e-05
2.23398e-05
2.04376e-05
2.04376e-05
2.01667e-05
2.04022e-05
2.04148e-05
2.23456e-05
2.23606e-05
2.04804e-05
2.04583e-05
2.02151e-05
2.23631e-05
2.04538e-05
2.04349e-05
2.23801e-05
2.0421e-05
2.04352e-05
2.0163e-05
2.04183e-05
2.0447e-05
2.23841e-05
2.23805e-05
2.01251e-05
2.04571e-05
2.03982e-05
2.04541e-05
2.04089e-05
2.23746e-05
2.23771e-05
2.0437e-05
2.04057e-05
2.01383e-05
2.03986e-05
2.0433e-05
2.23807e-05
2.23841e-05
2.01527e-05
2.04281e-05
2.04421e-05
2.04679e-05
2.04151e-05
2.23789e-05
2.23766e-05
2.04184e-05
2.04007e-05
2.01255e-05
2.04001e-05
2.04512e-05
2.23813e-05
2.23808e-05
2.02003e-05
2.044e-05
2.04679e-05
2.04416e-05
2.04438e-05
2.23768e-05
2.2357e-05
2.0216e-05
2.04598e-05
2.04393e-05
2.23555e-05
2.04616e-05
2.04375e-05
2.1323e-05
2.13229e-05
2.10264e-05
2.1323e-05
2.13229e-05
2.15611e-05
2.15611e-05
2.13231e-05
2.1322e-05
2.10255e-05
2.13231e-05
2.1322e-05
2.15609e-05
2.15609e-05
2.13227e-05
2.13224e-05
2.10254e-05
2.13227e-05
2.13224e-05
2.1561e-05
2.1561e-05
2.10254e-05
2.13222e-05
2.13234e-05
2.13222e-05
2.13234e-05
2.1561e-05
2.1561e-05
2.10262e-05
2.1323e-05
2.13229e-05
2.13228e-05
2.13229e-05
2.1561e-05
2.1561e-05
2.10255e-05
2.13231e-05
2.1322e-05
2.13231e-05
2.1322e-05
2.15609e-05
2.15609e-05
2.10254e-05
2.13228e-05
2.13225e-05
2.13227e-05
2.13223e-05
2.15609e-05
2.15609e-05
2.00623e-05
2.12659e-05
1.99652e-05
2.05905e-05
2.12703e-05
2.00008e-05
2.00599e-05
2.01481e-05
2.09015e-05
2.90392e-05
2.39184e-05
2.08959e-05
2.39071e-05
2.0154e-05
2.01468e-05
2.38979e-05
2.90476e-05
2.09096e-05
2.08958e-05
2.3909e-05
2.01445e-05
2.00215e-05
2.05844e-05
2.12748e-05
1.99627e-05
2.12694e-05
1.99688e-05
2.0004e-05
1.99948e-05
2.00151e-05
2.12304e-05
2.06072e-05
1.9998e-05
2.1214e-05
2.0009e-05
2.01137e-05
2.0903e-05
2.90354e-05
2.3845e-05
2.08947e-05
2.38388e-05
2.01052e-05
2.01096e-05
2.384e-05
2.90423e-05
2.08969e-05
2.09133e-05
2.38439e-05
2.01046e-05
2.00022e-05
2.05879e-05
1.9982e-05
2.12144e-05
2.00025e-05
2.12086e-05
1.9979e-05
2.23455e-05
2.01408e-05
2.04538e-05
2.04347e-05
2.0421e-05
2.04398e-05
2.23431e-05
2.2384e-05
2.01389e-05
2.04234e-05
2.04053e-05
2.23786e-05
2.04077e-05
2.04158e-05
2.2377e-05
2.01278e-05
2.04653e-05
2.04058e-05
2.23825e-05
2.04589e-05
2.04039e-05
2.00056e-05
2.12362e-05
1.99804e-05
2.06373e-05
2.12384e-05
1.99824e-05
2.0034e-05
2.01594e-05
2.08986e-05
2.90261e-05
2.38479e-05
2.38245e-05
2.08912e-05
2.01192e-05
2.01635e-05
2.38225e-05
2.90337e-05
2.08808e-05
2.38379e-05
2.08936e-05
2.01829e-05
1.99915e-05
2.06367e-05
2.12394e-05
1.99847e-05
2.12359e-05
1.99753e-05
2.00301e-05
2.00117e-05
2.12379e-05
1.99806e-05
2.06169e-05
2.12437e-05
1.99871e-05
2.00047e-05
2.01437e-05
2.08906e-05
2.90292e-05
2.38677e-05
2.38608e-05
2.08989e-05
2.01391e-05
2.01354e-05
2.38591e-05
2.90382e-05
2.08908e-05
2.38649e-05
2.01295e-05
2.09202e-05
2.00542e-05
2.06174e-05
2.12524e-05
2.00091e-05
2.12517e-05
1.99903e-05
2.0036e-05
2.00264e-05
2.12396e-05
2.00247e-05
2.06372e-05
2.00429e-05
2.12377e-05
2.00356e-05
2.0151e-05
2.08798e-05
2.90336e-05
2.3857e-05
2.08845e-05
2.38549e-05
2.01403e-05
2.01448e-05
2.38381e-05
2.08829e-05
2.90244e-05
2.08779e-05
2.0154e-05
2.38224e-05
2.00418e-05
2.06368e-05
2.12386e-05
2.00298e-05
2.12415e-05
2.00302e-05
1.99973e-05
2.00107e-05
2.1243e-05
1.99832e-05
2.06023e-05
2.00117e-05
2.12259e-05
1.99942e-05
2.0144e-05
2.08915e-05
2.904e-05
2.38593e-05
2.38661e-05
2.08995e-05
2.0157e-05
2.01664e-05
2.38652e-05
2.08958e-05
2.90307e-05
2.01402e-05
2.38599e-05
2.08931e-05
1.99755e-05
2.06156e-05
2.12169e-05
1.99664e-05
2.12253e-05
2.00133e-05
2.00014e-05
2.23827e-05
2.01308e-05
2.04535e-05
2.04024e-05
2.0396e-05
2.04415e-05
2.23792e-05
2.23796e-05
2.01523e-05
2.04676e-05
2.04025e-05
2.04564e-05
2.23843e-05
2.04008e-05
1.999e-05
2.12313e-05
1.99894e-05
2.06264e-05
2.12331e-05
2.0025e-05
2.00255e-05
2.0164e-05
2.0884e-05
2.90378e-05
2.38708e-05
2.38656e-05
2.08944e-05
2.01507e-05
2.01317e-05
2.3868e-05
2.90456e-05
2.08741e-05
2.38715e-05
2.08811e-05
2.01299e-05
1.99825e-05
2.06301e-05
2.12253e-05
2.00309e-05
2.12218e-05
1.99975e-05
1.9996e-05
2.00013e-05
1.99784e-05
2.13035e-05
2.06402e-05
2.00034e-05
2.13122e-05
2.00335e-05
2.01782e-05
2.09198e-05
2.91499e-05
2.40677e-05
2.4059e-05
2.09325e-05
2.01817e-05
2.01667e-05
2.40516e-05
2.91582e-05
2.09131e-05
2.40617e-05
2.01651e-05
2.09252e-05
2.00143e-05
2.06125e-05
1.99776e-05
2.13093e-05
1.99711e-05
2.13115e-05
2.00185e-05
1.99938e-05
2.12425e-05
1.9994e-05
2.06135e-05
2.00004e-05
2.12296e-05
2.00314e-05
2.01128e-05
2.0873e-05
2.90438e-05
2.38831e-05
2.08743e-05
2.38841e-05
2.01407e-05
2.01164e-05
2.3877e-05
2.0881e-05
2.90354e-05
2.08737e-05
2.01216e-05
2.38745e-05
1.99851e-05
2.06356e-05
2.12322e-05
1.99988e-05
2.12402e-05
2.00055e-05
1.99806e-05
2.00438e-05
1.99761e-05
2.13039e-05
2.06212e-05
2.00011e-05
1.99626e-05
2.12992e-05
2.01612e-05
2.09143e-05
2.91551e-05
2.40107e-05
2.40409e-05
2.09104e-05
2.01659e-05
2.01774e-05
2.40525e-05
2.09136e-05
2.91474e-05
2.01546e-05
2.40392e-05
2.09092e-05
2.00308e-05
2.06196e-05
2.00077e-05
2.12923e-05
2.00162e-05
2.13018e-05
2.00242e-05
2.00089e-05
1.99662e-05
2.12372e-05
2.06006e-05
1.99999e-05
2.12477e-05
2.0013e-05
2.01856e-05
2.0877e-05
2.90356e-05
2.3891e-05
2.08767e-05
2.38825e-05
2.01988e-05
2.02047e-05
2.38796e-05
2.90447e-05
2.0883e-05
2.08873e-05
2.38867e-05
2.01971e-05
2.00196e-05
2.06114e-05
1.99579e-05
2.1236e-05
1.99699e-05
2.12364e-05
2.00601e-05
2.00666e-05
2.12677e-05
1.99695e-05
2.05839e-05
2.00502e-05
2.12643e-05
1.99927e-05
2.01597e-05
2.09244e-05
2.90515e-05
2.38878e-05
2.01927e-05
2.0942e-05
2.38942e-05
2.01774e-05
2.38995e-05
2.08967e-05
2.90411e-05
2.01478e-05
2.09094e-05
2.38901e-05
2.00319e-05
2.05858e-05
2.1262e-05
1.99881e-05
2.00634e-05
2.12657e-05
2.00257e-05
2.00375e-05
1.99669e-05
2.12476e-05
2.06024e-05
2.00323e-05
1.99591e-05
2.12621e-05
2.01686e-05
2.09161e-05
2.90458e-05
2.38761e-05
2.38826e-05
2.08959e-05
2.01649e-05
2.0169e-05
2.38842e-05
2.08842e-05
2.90371e-05
2.021e-05
2.38778e-05
2.08788e-05
2.00542e-05
2.06043e-05
1.99765e-05
2.12625e-05
1.99971e-05
2.12669e-05
2.00125e-05
2.23812e-05
2.0167e-05
2.04454e-05
2.0444e-05
2.04354e-05
2.04455e-05
2.23767e-05
2.23765e-05
2.01609e-05
2.04585e-05
2.04642e-05
2.04215e-05
2.23814e-05
2.04783e-05
2.00093e-05
1.99814e-05
2.12155e-05
2.05841e-05
1.99579e-05
2.12053e-05
2.00087e-05
2.01383e-05
2.09012e-05
2.90566e-05
2.38826e-05
2.08941e-05
2.38757e-05
2.0126e-05
2.01472e-05
2.38743e-05
2.90643e-05
2.09063e-05
2.08985e-05
2.38804e-05
2.01598e-05
2.00172e-05
2.06031e-05
1.99698e-05
2.12143e-05
1.99975e-05
2.1196e-05
2.002e-05
2.00174e-05
1.99709e-05
2.12351e-05
2.05857e-05
2.00163e-05
1.99729e-05
2.12327e-05
2.01453e-05
2.08917e-05
2.90357e-05
2.38526e-05
2.01603e-05
2.09227e-05
2.38548e-05
2.0138e-05
2.38475e-05
2.09038e-05
2.90295e-05
2.01401e-05
2.09056e-05
2.38444e-05
2.00083e-05
2.06016e-05
2.00078e-05
2.12345e-05
2.00218e-05
1.99665e-05
2.12359e-05
1.99876e-05
2.00036e-05
2.12123e-05
2.05766e-05
2.00277e-05
1.99916e-05
2.12242e-05
2.01272e-05
2.08868e-05
2.90646e-05
2.38749e-05
2.38804e-05
2.08824e-05
2.0143e-05
2.01451e-05
2.38803e-05
2.08884e-05
2.90561e-05
2.01783e-05
2.38749e-05
2.08851e-05
1.99836e-05
2.05777e-05
1.99953e-05
2.12212e-05
1.99739e-05
2.12263e-05
1.99714e-05
2.2349e-05
2.01791e-05
2.04596e-05
2.04652e-05
2.23507e-05
2.04571e-05
2.04401e-05
2.01655e-05
2.09224e-05
2.38807e-05
2.904e-05
2.09301e-05
2.01673e-05
2.38757e-05
2.00286e-05
2.06221e-05
1.99804e-05
2.12647e-05
1.99703e-05
2.00376e-05
2.12594e-05
2.09126e-05
2.90577e-05
2.08993e-05
2.10266e-05
2.03855e-05
2.03772e-05
2.01693e-05
2.10265e-05
2.03827e-05
2.03791e-05
2.01886e-05
2.10271e-05
2.03813e-05
2.03811e-05
2.01418e-05
2.10266e-05
2.03794e-05
2.03805e-05
2.01377e-05
2.10264e-05
2.03783e-05
2.03822e-05
2.01555e-05
2.10261e-05
2.03792e-05
2.03826e-05
2.01818e-05
2.10256e-05
2.03811e-05
2.03782e-05
2.01982e-05
2.10235e-05
2.03795e-05
2.03773e-05
2.02027e-05
2.10194e-05
2.03771e-05
2.03744e-05
2.01753e-05
2.10155e-05
2.03732e-05
2.03727e-05
2.01741e-05
2.10153e-05
2.03721e-05
2.03756e-05
2.0158e-05
2.10186e-05
2.03753e-05
2.03769e-05
2.01339e-05
2.10237e-05
2.03829e-05
2.03776e-05
2.0139e-05
2.10258e-05
2.03833e-05
2.03812e-05
2.01246e-05
2.10269e-05
2.03845e-05
2.03818e-05
2.01676e-05
2.10262e-05
2.03837e-05
2.03799e-05
2.01779e-05
2.10257e-05
2.03843e-05
2.038e-05
2.02005e-05
2.10256e-05
2.03829e-05
2.03829e-05
2.0177e-05
2.10259e-05
2.03839e-05
2.03848e-05
2.01433e-05
2.10264e-05
2.03812e-05
2.03852e-05
2.01681e-05
2.1027e-05
2.03794e-05
2.03842e-05
2.01595e-05
2.10269e-05
2.03786e-05
2.03832e-05
2.01219e-05
2.10269e-05
2.03784e-05
2.03798e-05
2.01431e-05
2.10265e-05
2.03808e-05