/*--------------------------------*- C++ -*----------------------------------*\
| =========                 |                                                 |
| \\      /  F ield         | OpenFOAM: The Open Source CFD Toolbox           |
|  \\    /   O peration     | Version:  v1912                                 |
|   \\  /    A nd           | Website:  www.openfoam.com                      |
|    \\/     M anipulation  |                                                 |
\*---------------------------------------------------------------------------*/
FoamFile
{
    version     2.0;
    format      ascii;
    class       volScalarField;
    location    "0.35";
    object      nut;
}
// * * * * * * * * * * * * * * * * * * * * * * * * * * * * * * * * * * * * * //

dimensions      [0 2 -1 0 0 0 0];


internalField   nonuniform List<scalar> 
171728
(
3.81333e-07
4.53027e-07
4.52951e-07
1.83461e-07
2.41866e-08
3.07755e-08
3.09371e-08
4.19457e-08
1.60676e-09
2.59971e-09
2.59133e-09
4.07499e-08
3.09227e-10
1.59083e-09
1.5872e-09
4.07741e-08
2.56861e-10
1.51534e-09
1.52622e-09
4.07776e-08
2.54759e-10
1.52452e-09
1.52351e-09
4.07776e-08
2.46058e-10
1.52709e-09
1.52173e-09
4.07786e-08
2.5475e-10
1.52365e-09
1.5239e-09
4.07783e-08
2.55757e-10
1.52338e-09
1.5188e-09
4.07793e-08
2.45993e-10
1.52101e-09
1.52257e-09
4.07788e-08
2.70034e-10
1.51943e-09
1.5231e-09
4.0779e-08
2.59811e-10
1.51846e-09
1.52278e-09
4.07797e-08
2.65799e-10
1.53113e-09
1.52472e-09
4.07794e-08
2.66217e-10
1.5336e-09
1.5241e-09
4.07798e-08
2.50156e-10
1.51073e-09
1.52435e-09
4.07796e-08
2.56311e-10
1.52993e-09
1.5232e-09
4.078e-08
2.6087e-10
1.52308e-09
1.5244e-09
4.078e-08
2.53371e-10
1.51475e-09
1.52323e-09
4.07801e-08
2.84e-10
1.51094e-09
1.52202e-09
4.07795e-08
2.5602e-10
1.53443e-09
1.51859e-09
4.07787e-08
3.13643e-10
1.52893e-09
1.52342e-09
4.07814e-08
2.5678e-10
1.52513e-09
1.52434e-09
4.07816e-08
2.57782e-10
1.52345e-09
1.52398e-09
4.07822e-08
2.58269e-10
1.52424e-09
1.52497e-09
4.07818e-08
2.59099e-10
1.5239e-09
1.52493e-09
4.07819e-08
2.58653e-10
1.52396e-09
1.52452e-09
4.07819e-08
2.58791e-10
1.52422e-09
1.52482e-09
4.07819e-08
2.59232e-10
1.52384e-09
1.52444e-09
4.07818e-08
2.58708e-10
1.52432e-09
1.52492e-09
4.07817e-08
2.58622e-10
1.52422e-09
1.52492e-09
4.07818e-08
2.58373e-10
1.52461e-09
1.52474e-09
4.07816e-08
2.58848e-10
1.52175e-09
1.52459e-09
4.07818e-08
2.59113e-10
1.52479e-09
1.52496e-09
4.07818e-08
2.58944e-10
1.52457e-09
1.52601e-09
4.07819e-08
2.58666e-10
1.5245e-09
1.5257e-09
4.07818e-08
2.58759e-10
1.52451e-09
1.52623e-09
4.07819e-08
2.5907e-10
1.52444e-09
1.52615e-09
4.07819e-08
2.59269e-10
1.52417e-09
1.52588e-09
4.0782e-08
2.59956e-10
1.52477e-09
1.53015e-09
4.07821e-08
2.68375e-10
1.52882e-09
1.52868e-09
4.0774e-08
3.44677e-10
1.50662e-09
1.52597e-09
4.07818e-08
2.55614e-10
1.52986e-09
1.52264e-09
4.07817e-08
2.58189e-10
1.52596e-09
1.52337e-09
4.07821e-08
2.59542e-10
1.52318e-09
1.52329e-09
4.07824e-08
2.60104e-10
1.52313e-09
1.52577e-09
4.07825e-08
2.59748e-10
1.52308e-09
1.52456e-09
4.07825e-08
2.59685e-10
1.52319e-09
1.52538e-09
4.07825e-08
2.59676e-10
1.52304e-09
1.52661e-09
4.07827e-08
2.59775e-10
1.52342e-09
1.527e-09
4.07827e-08
2.5974e-10
1.52291e-09
1.52652e-09
4.07826e-08
2.60056e-10
1.52289e-09
1.52769e-09
4.07829e-08
2.60229e-10
1.52329e-09
1.52578e-09
4.07825e-08
2.60708e-10
1.52394e-09
1.52636e-09
4.07824e-08
2.61861e-10
1.53092e-09
1.5263e-09
4.07827e-08
2.65027e-10
1.51657e-09
1.52722e-09
4.07828e-08
2.60723e-10
1.52159e-09
1.52294e-09
4.07812e-08
2.60793e-10
1.52326e-09
1.52366e-09
4.07784e-08
2.60594e-10
1.52319e-09
1.52338e-09
4.07782e-08
2.60817e-10
1.52346e-09
1.52376e-09
4.07783e-08
2.60476e-10
1.52317e-09
1.52289e-09
4.07784e-08
2.60392e-10
1.52333e-09
1.52393e-09
4.07782e-08
2.60659e-10
1.52344e-09
1.52358e-09
4.07787e-08
2.6073e-10
1.52361e-09
1.52376e-09
4.07785e-08
2.6061e-10
1.52296e-09
1.52324e-09
4.07785e-08
2.6014e-10
1.52385e-09
1.524e-09
4.07784e-08
2.60237e-10
1.52365e-09
1.52382e-09
4.07782e-08
2.59651e-10
1.52322e-09
1.52343e-09
4.07785e-08
2.58343e-10
1.52275e-09
1.52324e-09
4.07781e-08
2.5226e-10
1.52196e-09
1.52525e-09
4.07787e-08
2.48728e-10
1.52274e-09
1.50712e-09
4.07808e-08
2.54424e-10
1.52419e-09
1.5174e-09
4.07773e-08
2.59131e-10
1.52405e-09
1.52399e-09
4.07778e-08
2.60113e-10
1.5234e-09
1.524e-09
4.07781e-08
2.60072e-10
1.52289e-09
1.52289e-09
4.07775e-08
2.60503e-10
1.52294e-09
1.52242e-09
4.07775e-08
2.60429e-10
1.52331e-09
1.52288e-09
4.07774e-08
2.60281e-10
1.52301e-09
1.52247e-09
4.07774e-08
2.60447e-10
1.52371e-09
1.52328e-09
4.07774e-08
2.60343e-10
1.52344e-09
1.52355e-09
4.07772e-08
2.60398e-10
1.5232e-09
1.52333e-09
4.07775e-08
2.60557e-10
1.52351e-09
1.52364e-09
4.07774e-08
2.60317e-10
1.5232e-09
1.52333e-09
4.07773e-08
2.60024e-10
1.52354e-09
1.52366e-09
4.07774e-08
2.60768e-10
1.52335e-09
1.5235e-09
4.07775e-08
2.60878e-10
1.52342e-09
1.52354e-09
4.07772e-08
2.60765e-10
1.52361e-09
1.52414e-09
4.07773e-08
2.60932e-10
1.52357e-09
1.52357e-09
4.07773e-08
2.60409e-10
1.52318e-09
1.52323e-09
4.07772e-08
2.60032e-10
1.52337e-09
1.52322e-09
4.07772e-08
2.61256e-10
1.52326e-09
1.52353e-09
4.07773e-08
2.66104e-10
1.5234e-09
1.52338e-09
4.07777e-08
3.494e-10
1.56496e-09
1.57042e-09
4.07783e-08
2.2059e-09
2.66095e-09
2.70971e-09
4.0826e-08
3.43783e-08
3.40086e-08
3.41585e-08
4.16908e-08
2.23381e-07
1.18633e-07
1.18688e-07
1.47787e-07
1.56297e-07
2.66879e-07
2.66915e-07
1.56225e-07
2.66889e-07
2.66968e-07
5.91149e-07
5.91155e-07
5.91144e-07
5.91159e-07
2.66808e-07
2.66891e-07
1.56175e-07
2.66846e-07
2.66868e-07
1.56149e-07
1.83521e-07
1.09898e-07
4.52811e-07
4.5289e-07
6.81395e-08
6.80193e-08
1.8346e-07
1.09691e-07
4.53071e-07
4.52962e-07
6.8227e-08
6.81477e-08
4.52945e-07
6.82343e-08
6.81447e-08
1.83505e-07
1.09947e-07
4.53031e-07
6.82832e-08
6.82842e-08
1.09863e-07
4.19663e-08
1.06066e-07
3.08197e-08
3.08356e-08
3.9201e-09
3.97508e-09
4.18774e-08
1.06137e-07
3.0853e-08
3.08606e-08
3.91001e-09
3.96169e-09
3.0881e-08
3.8728e-09
3.93133e-09
4.20271e-08
1.0613e-07
3.10169e-08
3.9309e-09
3.93076e-09
1.0612e-07
4.06894e-08
1.05993e-07
2.59264e-09
2.59942e-09
1.66052e-09
1.66184e-09
4.06917e-08
1.05985e-07
2.61629e-09
2.60848e-09
1.64872e-09
1.66576e-09
2.641e-09
1.64772e-09
1.66652e-09
4.07187e-08
1.05998e-07
2.64366e-09
1.63103e-09
1.63895e-09
1.05978e-07
4.07536e-08
1.05985e-07
1.60268e-09
1.6137e-09
1.54823e-09
1.53104e-09
4.0748e-08
1.0597e-07
1.58212e-09
1.60799e-09
1.52853e-09
1.55154e-09
1.60576e-09
1.52023e-09
1.54435e-09
4.07637e-08
1.05986e-07
1.58641e-09
1.52017e-09
1.52146e-09
1.05964e-07
4.0759e-08
1.05982e-07
1.54514e-09
1.52026e-09
1.54431e-09
1.52289e-09
4.07552e-08
1.05965e-07
1.51819e-09
1.54743e-09
1.52609e-09
1.54524e-09
1.54124e-09
1.51175e-09
1.53952e-09
4.07666e-08
1.05986e-07
1.51872e-09
1.51315e-09
1.51396e-09
1.05964e-07
4.07602e-08
1.05981e-07
1.54347e-09
1.53945e-09
1.53013e-09
1.56968e-09
4.07588e-08
1.05972e-07
1.51262e-09
1.54486e-09
1.52239e-09
1.54507e-09
1.53936e-09
1.53192e-09
1.53727e-09
4.07665e-08
1.05987e-07
1.51582e-09
1.51181e-09
1.51371e-09
1.05964e-07
4.07634e-08
1.05982e-07
1.4971e-09
1.5608e-09
1.56188e-09
1.5511e-09
4.07531e-08
1.05976e-07
1.50749e-09
1.54495e-09
1.53392e-09
1.54464e-09
1.5363e-09
1.52365e-09
1.53595e-09
4.07671e-08
1.05988e-07
1.51524e-09
1.51192e-09
1.51452e-09
1.05966e-07
4.07636e-08
1.05987e-07
1.53945e-09
1.55175e-09
1.54557e-09
1.55175e-09
4.07516e-08
1.05974e-07
1.52073e-09
1.54458e-09
1.53218e-09
1.54641e-09
1.53616e-09
1.5238e-09
1.5375e-09
4.07672e-08
1.05987e-07
1.51735e-09
1.51066e-09
1.51623e-09
1.05964e-07
4.07555e-08
1.05981e-07
1.5443e-09
1.55147e-09
1.53132e-09
1.54227e-09
4.07524e-08
1.0598e-07
1.51698e-09
1.54628e-09
1.52031e-09
1.54584e-09
1.53697e-09
1.52082e-09
1.53565e-09
4.0768e-08
1.05989e-07
1.51603e-09
1.51155e-09
1.51461e-09
1.05966e-07
4.07563e-08
1.0597e-07
1.52325e-09
1.52675e-09
1.56162e-09
1.52409e-09
4.07484e-08
1.05981e-07
1.51391e-09
1.54643e-09
1.53341e-09
1.54754e-09
1.53597e-09
1.51843e-09
1.53704e-09
4.07677e-08
1.05989e-07
1.5169e-09
1.51242e-09
1.51604e-09
1.05966e-07
4.07647e-08
1.0598e-07
1.58317e-09
1.5361e-09
1.54515e-09
1.53044e-09
4.07512e-08
1.05977e-07
1.53419e-09
1.54635e-09
1.52645e-09
1.54454e-09
1.53676e-09
1.52014e-09
1.53548e-09
4.07679e-08
1.05989e-07
1.51774e-09
1.51196e-09
1.5146e-09
1.05967e-07
4.07571e-08
1.0598e-07
1.54243e-09
1.52153e-09
1.5404e-09
1.52715e-09
4.07515e-08
1.05988e-07
1.52275e-09
1.54408e-09
1.5234e-09
1.54457e-09
1.53544e-09
1.52529e-09
1.53709e-09
4.07686e-08
1.0599e-07
1.51653e-09
1.51335e-09
1.51625e-09
1.05968e-07
4.07563e-08
1.05986e-07
1.54138e-09
1.52566e-09
1.53823e-09
1.55352e-09
4.07519e-08
1.05989e-07
1.52188e-09
1.54499e-09
1.51791e-09
1.54527e-09
1.53772e-09
1.53007e-09
1.53775e-09
4.07683e-08
1.05988e-07
1.51879e-09
1.51376e-09
1.5164e-09
1.05966e-07
4.07459e-08
1.05975e-07
1.53757e-09
1.55651e-09
1.56455e-09
1.54103e-09
4.07555e-08
1.05982e-07
1.51118e-09
1.54475e-09
1.50823e-09
1.54483e-09
1.53743e-09
1.51779e-09
1.53876e-09
4.07686e-08
1.0599e-07
1.51763e-09
1.51356e-09
1.51538e-09
1.05967e-07
4.07615e-08
1.05976e-07
1.53991e-09
1.52382e-09
1.54666e-09
1.59065e-09
4.07587e-08
1.05975e-07
1.52061e-09
1.54496e-09
1.52454e-09
1.54439e-09
1.53929e-09
1.53559e-09
1.53806e-09
4.07684e-08
1.0599e-07
1.51705e-09
1.5129e-09
1.51388e-09
1.05968e-07
4.07609e-08
1.05975e-07
1.54441e-09
1.57561e-09
1.54831e-09
1.55088e-09
4.077e-08
1.05961e-07
1.52279e-09
1.54397e-09
1.52348e-09
1.54456e-09
1.53686e-09
1.52036e-09
1.53741e-09
4.07687e-08
1.05991e-07
1.51534e-09
1.51289e-09
1.51493e-09
1.05968e-07
4.07626e-08
1.05973e-07
1.53986e-09
1.55134e-09
1.55146e-09
1.54335e-09
4.07685e-08
1.0599e-07
1.52318e-09
1.5453e-09
1.52388e-09
1.54611e-09
1.53811e-09
1.52112e-09
1.5384e-09
4.07687e-08
1.05991e-07
1.51769e-09
1.513e-09
1.51509e-09
1.05969e-07
4.07609e-08
1.05989e-07
1.53247e-09
1.53381e-09
1.49218e-09
1.51053e-09
4.07718e-08
1.05994e-07
1.51907e-09
1.5462e-09
1.50766e-09
1.5484e-09
1.53888e-09
1.50318e-09
1.53987e-09
4.0769e-08
1.05992e-07
1.5167e-09
1.5117e-09
1.5136e-09
1.05969e-07
4.07599e-08
1.05967e-07
1.49284e-09
1.52253e-09
1.5786e-09
1.64118e-09
4.07929e-08
1.06024e-07
1.51228e-09
1.54802e-09
1.54364e-09
1.5452e-09
1.53803e-09
1.56438e-09
1.53744e-09
4.07688e-08
1.05995e-07
1.51389e-09
1.50804e-09
1.51503e-09
1.05978e-07
4.07887e-08
1.06011e-07
1.53321e-09
1.58137e-09
1.52651e-09
1.59079e-09
4.07509e-08
1.05965e-07
1.53991e-09
1.54414e-09
1.46772e-09
1.54761e-09
1.54245e-09
1.50797e-09
1.53697e-09
4.07697e-08
1.05994e-07
1.52228e-09
1.51121e-09
1.51631e-09
1.05972e-07
4.07512e-08
1.05988e-07
1.55639e-09
1.56249e-09
1.55623e-09
1.54829e-09
4.07726e-08
1.05986e-07
1.50504e-09
1.54604e-09
1.531e-09
1.5448e-09
1.53655e-09
1.52758e-09
1.53601e-09
4.07703e-08
1.05994e-07
1.51811e-09
1.51297e-09
1.51565e-09
1.05972e-07
4.07739e-08
1.05988e-07
1.55122e-09
1.55323e-09
1.5427e-09
1.55005e-09
4.07622e-08
1.05987e-07
1.52652e-09
1.54479e-09
1.52551e-09
1.54472e-09
1.53637e-09
1.52436e-09
1.53651e-09
4.07706e-08
1.05995e-07
1.51794e-09
1.51367e-09
1.51607e-09
1.05972e-07
4.07734e-08
1.05988e-07
1.54519e-09
1.55249e-09
1.54275e-09
1.55036e-09
4.07625e-08
1.05986e-07
1.5213e-09
1.54372e-09
1.52568e-09
1.54501e-09
1.53602e-09
1.52481e-09
1.5361e-09
4.07709e-08
1.05994e-07
1.51717e-09
1.51423e-09
1.52583e-09
1.05971e-07
4.07732e-08
1.05991e-07
1.54543e-09
1.5528e-09
1.54152e-09
1.54963e-09
4.07624e-08
1.05987e-07
1.52208e-09
1.54393e-09
1.5245e-09
1.54429e-09
1.5359e-09
1.52434e-09
1.53668e-09
4.07708e-08
1.05995e-07
1.52385e-09
1.51393e-09
1.51934e-09
1.05972e-07
4.0773e-08
1.0599e-07
1.54505e-09
1.5528e-09
1.54242e-09
1.55024e-09
4.07623e-08
1.05987e-07
1.52174e-09
1.54397e-09
1.52537e-09
1.54499e-09
1.53667e-09
1.52479e-09
1.53677e-09
4.07707e-08
1.05995e-07
1.52164e-09
1.51397e-09
1.51823e-09
1.05972e-07
4.07731e-08
1.05989e-07
1.54518e-09
1.55279e-09
1.54276e-09
1.55037e-09
4.07624e-08
1.05986e-07
1.52185e-09
1.54401e-09
1.52572e-09
1.54507e-09
1.53673e-09
1.52459e-09
1.53685e-09
4.07708e-08
1.05994e-07
1.52039e-09
1.5139e-09
1.51871e-09
1.05972e-07
4.07731e-08
1.0599e-07
1.54571e-09
1.55327e-09
1.54194e-09
1.54979e-09
4.07623e-08
1.05988e-07
1.52238e-09
1.54446e-09
1.52491e-09
1.5445e-09
1.53684e-09
1.5243e-09
1.53628e-09
4.07707e-08
1.05996e-07
1.52061e-09
1.51362e-09
1.51816e-09
1.05974e-07
4.07729e-08
1.05989e-07
1.54534e-09
1.55285e-09
1.54265e-09
1.55028e-09
4.07623e-08
1.05986e-07
1.52202e-09
1.54404e-09
1.52559e-09
1.54499e-09
1.53628e-09
1.52474e-09
1.53674e-09
4.07707e-08
1.05995e-07
1.52005e-09
1.51407e-09
1.51861e-09
1.05972e-07
4.07729e-08
1.0599e-07
1.54556e-09
1.55298e-09
1.54275e-09
1.55046e-09
4.07622e-08
1.05987e-07
1.52221e-09
1.54418e-09
1.52568e-09
1.54511e-09
1.53684e-09
1.52494e-09
1.53672e-09
4.07706e-08
1.05995e-07
1.52061e-09
1.51429e-09
1.51858e-09
1.05972e-07
4.07732e-08
1.0599e-07
1.54558e-09
1.55323e-09
1.54247e-09
1.54791e-09
4.07624e-08
1.05987e-07
1.52222e-09
1.5442e-09
1.52515e-09
1.54467e-09
1.53665e-09
1.52441e-09
1.53632e-09
4.07708e-08
1.05995e-07
1.5204e-09
1.51384e-09
1.51818e-09
1.05973e-07
4.0773e-08
1.05989e-07
1.54521e-09
1.53384e-09
1.54265e-09
1.55951e-09
4.07629e-08
1.05987e-07
1.52189e-09
1.54399e-09
1.52547e-09
1.54506e-09
1.53661e-09
1.52683e-09
1.53658e-09
4.07707e-08
1.05995e-07
1.52041e-09
1.51403e-09
1.51837e-09
1.05973e-07
4.0773e-08
1.05989e-07
1.54578e-09
1.54596e-09
1.54268e-09
1.55264e-09
4.07633e-08
1.0599e-07
1.52231e-09
1.5442e-09
1.52563e-09
1.54505e-09
1.53629e-09
1.52519e-09
1.53699e-09
4.07707e-08
1.05995e-07
1.5201e-09
1.51414e-09
1.51879e-09
1.05972e-07
4.07729e-08
1.05989e-07
1.54582e-09
1.5557e-09
1.54245e-09
1.55237e-09
4.07591e-08
1.0599e-07
1.52247e-09
1.54458e-09
1.52539e-09
1.54466e-09
1.53676e-09
1.52484e-09
1.53619e-09
4.07706e-08
1.05995e-07
1.52058e-09
1.51429e-09
1.51859e-09
1.05973e-07
4.07732e-08
1.0599e-07
1.54556e-09
1.55526e-09
1.54232e-09
1.5523e-09
4.07592e-08
1.0599e-07
1.52222e-09
1.54398e-09
1.52526e-09
1.54525e-09
1.53616e-09
1.5248e-09
1.53706e-09
4.07708e-08
1.05995e-07
1.52142e-09
1.51028e-09
1.51483e-09
1.05972e-07
4.0773e-08
1.05989e-07
1.54548e-09
1.55525e-09
1.54224e-09
1.55241e-09
4.0759e-08
1.0599e-07
1.52215e-09
1.54424e-09
1.52519e-09
1.54494e-09
1.53651e-09
1.52493e-09
1.53693e-09
4.07707e-08
1.05995e-07
1.52125e-09
1.51236e-09
1.51706e-09
1.05972e-07
4.0773e-08
1.05989e-07
1.54533e-09
1.55523e-09
1.54247e-09
1.55251e-09
4.07591e-08
1.0599e-07
1.522e-09
1.54401e-09
1.52542e-09
1.54503e-09
1.53662e-09
1.52487e-09
1.53645e-09
4.07708e-08
1.05995e-07
1.52208e-09
1.51231e-09
1.51661e-09
1.05973e-07
4.0773e-08
1.0599e-07
1.54566e-09
1.55531e-09
1.54185e-09
1.55221e-09
4.07591e-08
1.0599e-07
1.52233e-09
1.54408e-09
1.5248e-09
1.54474e-09
1.53614e-09
1.52478e-09
1.53677e-09
4.07709e-08
1.05995e-07
1.52161e-09
1.51222e-09
1.51693e-09
1.05973e-07
4.07728e-08
1.0599e-07
1.54525e-09
1.55488e-09
1.54243e-09
1.5521e-09
4.07591e-08
1.0599e-07
1.52191e-09
1.54364e-09
1.5253e-09
1.54446e-09
1.5359e-09
1.5252e-09
1.53691e-09
4.07708e-08
1.05995e-07
1.52137e-09
1.51324e-09
1.51731e-09
1.05972e-07
4.07729e-08
1.0599e-07
1.54584e-09
1.55446e-09
1.55348e-09
1.54476e-09
4.07592e-08
1.0599e-07
1.52222e-09
1.54322e-09
1.52434e-09
1.54499e-09
1.53582e-09
1.52692e-09
1.52184e-09
4.07708e-08
1.05996e-07
1.52196e-09
1.51034e-09
1.50312e-09
1.05974e-07
4.07715e-08
1.05999e-07
1.55635e-09
1.55344e-09
1.48851e-09
1.5584e-09
4.07584e-08
1.06009e-07
1.51551e-09
1.54399e-09
1.49858e-09
1.54848e-09
1.52214e-09
1.50865e-09
1.55681e-09
4.07703e-08
1.05997e-07
1.47103e-09
1.51272e-09
1.52357e-09
1.05975e-07
4.07649e-08
1.05991e-07
1.54746e-09
1.52764e-09
1.54086e-09
1.52015e-09
4.07672e-08
1.06019e-07
1.48214e-09
1.54792e-09
1.53424e-09
1.54533e-09
1.54405e-09
1.5102e-09
1.53932e-09
4.077e-08
1.05998e-07
1.53163e-09
1.51456e-09
1.51643e-09
1.05974e-07
4.07653e-08
1.05987e-07
1.54674e-09
1.5645e-09
1.53765e-09
1.56209e-09
4.07901e-08
1.06006e-07
1.51525e-09
1.54403e-09
1.52909e-09
1.54491e-09
1.53838e-09
1.52901e-09
1.53736e-09
4.07701e-08
1.05997e-07
1.52008e-09
1.51415e-09
1.51563e-09
1.05973e-07
4.07637e-08
1.05987e-07
1.54592e-09
1.55598e-09
1.53646e-09
1.55101e-09
4.07705e-08
1.06007e-07
1.51468e-09
1.54387e-09
1.5299e-09
1.54496e-09
1.53678e-09
1.52371e-09
1.53729e-09
4.07702e-08
1.05998e-07
1.52054e-09
1.51432e-09
1.51672e-09
1.05973e-07
4.07639e-08
1.05987e-07
1.54462e-09
1.55043e-09
1.53648e-09
1.55057e-09
4.07695e-08
1.06007e-07
1.51511e-09
1.54391e-09
1.52967e-09
1.54509e-09
1.53673e-09
1.52357e-09
1.53698e-09
4.07705e-08
1.05998e-07
1.52139e-09
1.51272e-09
1.5167e-09
1.05973e-07
4.07641e-08
1.05987e-07
1.54451e-09
1.5503e-09
1.5361e-09
1.55039e-09
4.07693e-08
1.06008e-07
1.5161e-09
1.54403e-09
1.53085e-09
1.54512e-09
1.53641e-09
1.52337e-09
1.53658e-09
4.07706e-08
1.05998e-07
1.52123e-09
1.51538e-09
1.5188e-09
1.05974e-07
4.0764e-08
1.05987e-07
1.54468e-09
1.55039e-09
1.53592e-09
1.55022e-09
4.07693e-08
1.06008e-07
1.51577e-09
1.54437e-09
1.53197e-09
1.54561e-09
1.53611e-09
1.5232e-09
1.5372e-09
4.07706e-08
1.05998e-07
1.52303e-09
1.51345e-09
1.51443e-09
1.05974e-07
4.07637e-08
1.05987e-07
1.54459e-09
1.55026e-09
1.53632e-09
1.55032e-09
4.07691e-08
1.06008e-07
1.51635e-09
1.54475e-09
1.53106e-09
1.54529e-09
1.53678e-09
1.52333e-09
1.53694e-09
4.07705e-08
1.05998e-07
1.52237e-09
1.51187e-09
1.51641e-09
1.05974e-07
4.07641e-08
1.05987e-07
1.54469e-09
1.55005e-09
1.53634e-09
1.55048e-09
4.07693e-08
1.06007e-07
1.5158e-09
1.54415e-09
1.53099e-09
1.54534e-09
1.53603e-09
1.52362e-09
1.53734e-09
4.07708e-08
1.05998e-07
1.52155e-09
1.51226e-09
1.51723e-09
1.05974e-07
4.07641e-08
1.05987e-07
1.54487e-09
1.55042e-09
1.53602e-09
1.5501e-09
4.07693e-08
1.06008e-07
1.51596e-09
1.54445e-09
1.53064e-09
1.54492e-09
1.53643e-09
1.52331e-09
1.53683e-09
4.07707e-08
1.05998e-07
1.52201e-09
1.51196e-09
1.51677e-09
1.05974e-07
4.07641e-08
1.05987e-07
1.54414e-09
1.54983e-09
1.53647e-09
1.55052e-09
4.07693e-08
1.06007e-07
1.51523e-09
1.54384e-09
1.53116e-09
1.54525e-09
1.53624e-09
1.52349e-09
1.53667e-09
4.07707e-08
1.05998e-07
1.52193e-09
1.51297e-09
1.51862e-09
1.05973e-07
4.07641e-08
1.05986e-07
1.54444e-09
1.54997e-09
1.53611e-09
1.55039e-09
4.07694e-08
1.06007e-07
1.5156e-09
1.54393e-09
1.53094e-09
1.54529e-09
1.53614e-09
1.52344e-09
1.53681e-09
4.07708e-08
1.05997e-07
1.52634e-09
1.51275e-09
1.51704e-09
1.05973e-07
4.07639e-08
1.05986e-07
1.54472e-09
1.5504e-09
1.53577e-09
1.55044e-09
4.07693e-08
1.06007e-07
1.51609e-09
1.54447e-09
1.53124e-09
1.54504e-09
1.53654e-09
1.52369e-09
1.53602e-09
4.07707e-08
1.05997e-07
1.52098e-09
1.51326e-09
1.5178e-09
1.05974e-07
4.0764e-08
1.05986e-07
1.54437e-09
1.55063e-09
1.53375e-09
1.55483e-09
4.07691e-08
1.06009e-07
1.51659e-09
1.54436e-09
1.52769e-09
1.54472e-09
1.53612e-09
1.52713e-09
1.53478e-09
4.07707e-08
1.05997e-07
1.52247e-09
1.51321e-09
1.51901e-09
1.05973e-07
4.07643e-08
1.05984e-07
1.54156e-09
1.56363e-09
1.53142e-09
1.5263e-09
4.07678e-08
1.06022e-07
1.52409e-09
1.54427e-09
1.52628e-09
1.5454e-09
1.53424e-09
1.51827e-09
1.53522e-09
4.07708e-08
1.05996e-07
1.52245e-09
1.51426e-09
1.51972e-09
1.05972e-07
4.07646e-08
1.05985e-07
1.54112e-09
1.50792e-09
1.53457e-09
1.54431e-09
4.07583e-08
1.06007e-07
1.52354e-09
1.54456e-09
1.52611e-09
1.54594e-09
1.53547e-09
1.52106e-09
1.53474e-09
4.0771e-08
1.05996e-07
1.52323e-09
1.51308e-09
1.5166e-09
1.05972e-07
4.07637e-08
1.05985e-07
1.5431e-09
1.54681e-09
1.53546e-09
1.5503e-09
4.07679e-08
1.06006e-07
1.52248e-09
1.54506e-09
1.52488e-09
1.54454e-09
1.53084e-09
1.52369e-09
1.54172e-09
4.07704e-08
1.05995e-07
1.51217e-09
1.51404e-09
1.5206e-09
1.05977e-07
4.07634e-08
1.05985e-07
1.54419e-09
1.55044e-09
1.53582e-09
1.5508e-09
4.07686e-08
1.06006e-07
1.522e-09
1.54387e-09
1.52479e-09
1.54444e-09
1.54202e-09
1.52376e-09
1.54197e-09
4.07701e-08
1.05995e-07
1.52038e-09
1.51373e-09
1.52064e-09
1.05977e-07
4.07636e-08
1.05984e-07
1.54413e-09
1.55051e-09
1.53571e-09
1.55079e-09
4.07688e-08
1.06006e-07
1.52166e-09
1.54364e-09
1.52459e-09
1.54433e-09
1.5424e-09
1.52349e-09
1.54179e-09
4.07701e-08
1.05995e-07
1.52067e-09
1.51343e-09
1.52044e-09
1.05977e-07
4.07635e-08
1.05985e-07
1.54445e-09
1.55087e-09
1.5359e-09
1.55076e-09
4.07687e-08
1.06007e-07
1.52191e-09
1.54392e-09
1.52476e-09
1.54438e-09
1.54221e-09
1.52365e-09
1.54188e-09
4.077e-08
1.05996e-07
1.52056e-09
1.51346e-09
1.52075e-09
1.05978e-07
4.07636e-08
1.05985e-07
1.54433e-09
1.5505e-09
1.5355e-09
1.55051e-09
4.07688e-08
1.06007e-07
1.52179e-09
1.54368e-09
1.52435e-09
1.54412e-09
1.54178e-09
1.52353e-09
1.54196e-09
4.07701e-08
1.05996e-07
1.52015e-09
1.5131e-09
1.5198e-09
1.05977e-07
4.07636e-08
1.05985e-07
1.54409e-09
1.55057e-09
1.53618e-09
1.55107e-09
4.07687e-08
1.06006e-07
1.52153e-09
1.54367e-09
1.52504e-09
1.54466e-09
1.54225e-09
1.52409e-09
1.54247e-09
4.077e-08
1.05995e-07
1.52189e-09
1.51388e-09
1.52097e-09
1.05977e-07
4.07637e-08
1.05985e-07
1.54459e-09
1.55075e-09
1.53584e-09
1.55091e-09
4.0769e-08
1.06006e-07
1.52203e-09
1.54384e-09
1.5247e-09
1.54446e-09
1.54185e-09
1.52382e-09
1.54246e-09
4.07703e-08
1.05995e-07
1.52006e-09
1.51368e-09
1.52108e-09
1.05977e-07
4.07634e-08
1.05985e-07
1.54465e-09
1.55114e-09
1.53589e-09
1.55071e-09
4.07687e-08
1.06007e-07
1.52211e-09
1.54421e-09
1.52478e-09
1.54421e-09
1.54233e-09
1.52358e-09
1.54169e-09
4.077e-08
1.05996e-07
1.52055e-09
1.5134e-09
1.51978e-09
1.05978e-07
4.07637e-08
1.05984e-07
1.54405e-09
1.55032e-09
1.5362e-09
1.55103e-09
4.0769e-08
1.06006e-07
1.52153e-09
1.54334e-09
1.52549e-09
1.54464e-09
1.54155e-09
1.52407e-09
1.54256e-09
4.07703e-08
1.05995e-07
1.52055e-09
1.51394e-09
1.52161e-09
1.05977e-07
4.07634e-08
1.05986e-07
1.54451e-09
1.55106e-09
1.53577e-09
1.55064e-09
4.07689e-08
1.06006e-07
1.52221e-09
1.54416e-09
1.52467e-09
1.54416e-09
1.54281e-09
1.52388e-09
1.54224e-09
4.07702e-08
1.05995e-07
1.52142e-09
1.51374e-09
1.52124e-09
1.05977e-07
4.07635e-08
1.05986e-07
1.54409e-09
1.55065e-09
1.53604e-09
1.5509e-09
4.07688e-08
1.06006e-07
1.52152e-09
1.54382e-09
1.52485e-09
1.54452e-09
1.54278e-09
1.52414e-09
1.54255e-09
4.07701e-08
1.05995e-07
1.52139e-09
1.51403e-09
1.5215e-09
1.05976e-07
4.07637e-08
1.05986e-07
1.54416e-09
1.55044e-09
1.53583e-09
1.55026e-09
4.0769e-08
1.06006e-07
1.52144e-09
1.54376e-09
1.52414e-09
1.54441e-09
1.54267e-09
1.52281e-09
1.54206e-09
4.07703e-08
1.05995e-07
1.5212e-09
1.51261e-09
1.5208e-09
1.05977e-07
4.07636e-08
1.05984e-07
1.5444e-09
1.55048e-09
1.53753e-09
1.55027e-09
4.07688e-08
1.06005e-07
1.52098e-09
1.54463e-09
1.52413e-09
1.54787e-09
1.5437e-09
1.52248e-09
1.54385e-09
4.07699e-08
1.05996e-07
1.52201e-09
1.51427e-09
1.52119e-09
1.05978e-07
4.07638e-08
1.05983e-07
1.54603e-09
1.54981e-09
1.53678e-09
1.55018e-09
4.07689e-08
1.06004e-07
1.52078e-09
1.54837e-09
1.52363e-09
1.54762e-09
1.54448e-09
1.52271e-09
1.54558e-09
4.07702e-08
1.05989e-07
1.52009e-09
1.48992e-09
1.51158e-09
1.05973e-07
4.0764e-08
1.05982e-07
1.54572e-09
1.55041e-09
1.53778e-09
1.55149e-09
4.07689e-08
1.06003e-07
1.52133e-09
1.546e-09
1.52513e-09
1.54587e-09
1.54463e-09
1.52505e-09
1.54381e-09
4.07724e-08
1.05991e-07
1.51095e-09
1.50545e-09
1.51244e-09
1.05972e-07
4.07635e-08
1.05982e-07
1.54567e-09
1.55073e-09
1.53672e-09
1.5509e-09
4.07685e-08
1.06003e-07
1.52152e-09
1.54483e-09
1.52482e-09
1.54449e-09
1.54354e-09
1.52393e-09
1.54197e-09
4.07691e-08
1.05992e-07
1.51623e-09
1.51032e-09
1.50903e-09
1.05974e-07
4.07625e-08
1.05983e-07
1.54526e-09
1.55102e-09
1.53573e-09
1.55084e-09
4.07677e-08
1.06003e-07
1.52213e-09
1.54406e-09
1.52444e-09
1.54424e-09
1.54231e-09
1.5239e-09
1.54174e-09
4.07686e-08
1.05992e-07
1.5265e-09
1.51356e-09
1.51664e-09
1.05974e-07
4.07622e-08
1.05983e-07
1.54427e-09
1.55069e-09
1.53581e-09
1.5505e-09
4.07677e-08
1.06003e-07
1.5216e-09
1.54368e-09
1.5247e-09
1.54401e-09
1.54209e-09
1.52334e-09
1.54169e-09
4.07689e-08
1.05992e-07
1.5328e-09
1.51396e-09
1.52029e-09
1.05974e-07
4.07624e-08
1.05983e-07
1.54374e-09
1.55023e-09
1.53612e-09
1.55101e-09
4.07677e-08
1.06003e-07
1.52119e-09
1.54338e-09
1.52508e-09
1.54452e-09
1.54184e-09
1.52357e-09
1.54221e-09
4.0769e-08
1.05992e-07
1.52043e-09
1.51394e-09
1.52113e-09
1.05974e-07
4.07622e-08
1.05983e-07
1.54431e-09
1.55072e-09
1.5356e-09
1.55067e-09
4.07677e-08
1.06004e-07
1.5218e-09
1.54386e-09
1.52458e-09
1.54413e-09
1.54204e-09
1.52358e-09
1.54167e-09
4.0769e-08
1.05993e-07
1.52017e-09
1.51411e-09
1.52084e-09
1.05974e-07
4.07623e-08
1.05983e-07
1.54393e-09
1.55058e-09
1.53579e-09
1.55067e-09
4.07677e-08
1.06003e-07
1.52143e-09
1.54369e-09
1.52474e-09
1.54415e-09
1.54233e-09
1.52342e-09
1.54203e-09
4.0769e-08
1.05992e-07
1.52063e-09
1.51405e-09
1.52113e-09
1.05974e-07
4.07623e-08
1.05984e-07
1.54402e-09
1.55024e-09
1.53584e-09
1.55071e-09
4.07677e-08
1.06004e-07
1.52151e-09
1.54342e-09
1.52479e-09
1.54416e-09
1.54204e-09
1.52394e-09
1.54221e-09
4.0769e-08
1.05992e-07
1.51983e-09
1.51541e-09
1.52169e-09
1.05974e-07
4.07622e-08
1.05983e-07
1.54436e-09
1.5508e-09
1.53578e-09
1.55047e-09
4.07676e-08
1.06004e-07
1.52186e-09
1.544e-09
1.52472e-09
1.54397e-09
1.54245e-09
1.52346e-09
1.54175e-09
4.07689e-08
1.05993e-07
1.52082e-09
1.5133e-09
1.52064e-09
1.05974e-07
4.07622e-08
1.05984e-07
1.54422e-09
1.55059e-09
1.53564e-09
1.55084e-09
4.07674e-08
1.06004e-07
1.52171e-09
1.5437e-09
1.52461e-09
1.54433e-09
1.54255e-09
1.52365e-09
1.5416e-09
4.07688e-08
1.05993e-07
1.52108e-09
1.51355e-09
1.52048e-09
1.05974e-07
4.07621e-08
1.05983e-07
1.54401e-09
1.55057e-09
1.53619e-09
1.55088e-09
4.07677e-08
1.06003e-07
1.52153e-09
1.54371e-09
1.52515e-09
1.54434e-09
1.54179e-09
1.52371e-09
1.54203e-09
4.0769e-08
1.05992e-07
1.52027e-09
1.5136e-09
1.52091e-09
1.05974e-07
4.07623e-08
1.05983e-07
1.54416e-09
1.55088e-09
1.53588e-09
1.55058e-09
4.07676e-08
1.06004e-07
1.52166e-09
1.54397e-09
1.52484e-09
1.54407e-09
1.54246e-09
1.52352e-09
1.54173e-09
4.0769e-08
1.05993e-07
1.52097e-09
1.51342e-09
1.52063e-09
1.05974e-07
4.07621e-08
1.05983e-07
1.544e-09
1.55037e-09
1.5357e-09
1.55042e-09
4.07675e-08
1.06003e-07
1.5215e-09
1.5435e-09
1.52496e-09
1.54395e-09
1.5418e-09
1.52374e-09
1.54183e-09
4.07689e-08
1.05992e-07
1.5203e-09
1.51362e-09
1.5207e-09
1.05973e-07
4.07623e-08
1.05983e-07
1.54429e-09
1.55062e-09
1.53589e-09
1.55078e-09
4.07677e-08
1.06004e-07
1.52182e-09
1.5438e-09
1.53083e-09
1.54423e-09
1.54232e-09
1.52378e-09
1.54246e-09
4.0769e-08
1.05992e-07
1.52081e-09
1.51368e-09
1.52139e-09
1.05974e-07
4.07622e-08
1.05983e-07
1.54405e-09
1.55062e-09
1.53553e-09
1.5503e-09
4.07676e-08
1.06003e-07
1.51551e-09
1.54371e-09
1.53066e-09
1.54384e-09
1.54222e-09
1.52328e-09
1.54143e-09
4.0769e-08
1.05992e-07
1.52077e-09
1.51317e-09
1.52029e-09
1.05973e-07
4.07619e-08
1.05983e-07
1.54431e-09
1.55072e-09
1.53626e-09
1.55122e-09
4.07673e-08
1.06003e-07
1.51582e-09
1.54386e-09
1.53136e-09
1.54517e-09
1.5417e-09
1.5239e-09
1.54253e-09
4.07687e-08
1.05992e-07
1.52015e-09
1.51384e-09
1.52141e-09
1.05974e-07
4.0762e-08
1.05983e-07
1.54481e-09
1.55106e-09
1.53639e-09
1.55089e-09
4.07675e-08
1.06004e-07
1.51631e-09
1.54635e-09
1.53149e-09
1.54893e-09
1.54261e-09
1.524e-09
1.54192e-09
4.07684e-08
1.06021e-07
1.52111e-09
1.51403e-09
1.52084e-09
1.05975e-07
4.07621e-08
1.05983e-07
1.54451e-09
1.55074e-09
1.53591e-09
1.55078e-09
4.07676e-08
1.06003e-07
1.51607e-09
1.53917e-09
1.53097e-09
1.54889e-09
1.54234e-09
1.52354e-09
1.5417e-09
4.07631e-08
1.06019e-07
1.52089e-09
1.51358e-09
1.52059e-09
1.05973e-07
4.07622e-08
1.05984e-07
1.54409e-09
1.55051e-09
1.53572e-09
1.55046e-09
4.07676e-08
1.06004e-07
1.51564e-09
1.53897e-09
1.53074e-09
1.54863e-09
1.54197e-09
1.5238e-09
1.54203e-09
4.07631e-08
1.0602e-07
1.52046e-09
1.51372e-09
1.52094e-09
1.05974e-07
4.07622e-08
1.05984e-07
1.54383e-09
1.55042e-09
1.53599e-09
1.55095e-09
4.07675e-08
1.06004e-07
1.51535e-09
1.53895e-09
1.53093e-09
1.5513e-09
1.54243e-09
1.52417e-09
1.54263e-09
4.0763e-08
1.06018e-07
1.52079e-09
1.5144e-09
1.52143e-09
1.05974e-07
4.0762e-08
1.05984e-07
1.54426e-09
1.55034e-09
1.53594e-09
1.55044e-09
4.07676e-08
1.06004e-07
1.5156e-09
1.54049e-09
1.5306e-09
1.54378e-09
1.54248e-09
1.52299e-09
1.54283e-09
4.07676e-08
1.06002e-07
1.52096e-09
1.51287e-09
1.52207e-09
1.05974e-07
4.07615e-08
1.05983e-07
1.54546e-09
1.55094e-09
1.55102e-09
1.56488e-09
4.07671e-08
1.06001e-07
1.51653e-09
1.54354e-09
1.54283e-09
1.56632e-09
1.54763e-09
1.54008e-09
1.55538e-09
4.07686e-08
1.05989e-07
1.52691e-09
1.53249e-09
1.53484e-09
1.05968e-07
4.07623e-08
1.05946e-07
1.58187e-09
1.57326e-09
2.05123e-09
2.04749e-09
4.07676e-08
1.05943e-07
1.52958e-09
1.5869e-09
2.08136e-09
2.08583e-09
1.5705e-09
2.0157e-09
1.99662e-09
4.07691e-08
1.05934e-07
1.54613e-09
2.04971e-09
1.99538e-09
1.05888e-07
4.08544e-08
1.04667e-07
2.68401e-09
2.72155e-09
1.57474e-08
1.56781e-08
4.08471e-08
1.04673e-07
2.71586e-09
2.67153e-09
1.58142e-08
1.57916e-08
2.66984e-09
1.56692e-08
1.57632e-08
4.08471e-08
1.04697e-07
2.68986e-09
1.57846e-08
1.57141e-08
1.04638e-07
4.16562e-08
1.42845e-07
3.39078e-08
3.38906e-08
1.7785e-07
1.7799e-07
4.16986e-08
1.42833e-07
3.40582e-08
3.40367e-08
1.78382e-07
1.78158e-07
3.41037e-08
1.78233e-07
1.78093e-07
4.17074e-08
1.42861e-07
3.4159e-08
1.78293e-07
1.78421e-07
1.42824e-07
1.47801e-07
1.18593e-07
1.18562e-07
1.47746e-07
1.18642e-07
1.18611e-07
2.23374e-07
2.23477e-07
2.23495e-07
1.18622e-07
1.47795e-07
1.1867e-07
9.09025e-08
2.41067e-07
1.65521e-07
1.65588e-07
3.63224e-07
2.9658e-07
1.70722e-07
2.04779e-07
3.63148e-07
2.96604e-07
2.04771e-07
1.70663e-07
3.53849e-07
1.95942e-07
1.95942e-07
7.32317e-07
0.000118042
7.51237e-07
0.000121865
0.00024768
0.000255566
7.32683e-07
0.000118061
7.50315e-07
0.000121884
3.81382e-07
3.8126e-07
3.81362e-07
5.16641e-08
5.16028e-08
5.16336e-08
5.16946e-08
1.09744e-07
7.12228e-07
3.92085e-07
2.35751e-07
1.03984e-07
1.00894e-06
2.17461e-07
0.000247672
0.000255551
1.09896e-07
3.91989e-07
7.11914e-07
2.35497e-07
1.03983e-07
2.17346e-07
1.00884e-06
2.25513e-06
2.2548e-06
1.09357e-07
2.14073e-06
2.14164e-06
7.29045e-07
0.000121817
7.26768e-07
0.000121818
0.000255541
0.000255537
7.29148e-07
0.000121835
7.26889e-07
0.000121836
2.41656e-08
2.41572e-08
2.41848e-08
2.96387e-09
2.96139e-09