/*--------------------------------*- C++ -*----------------------------------*\
| =========                 |                                                 |
| \\      /  F ield         | OpenFOAM: The Open Source CFD Toolbox           |
|  \\    /   O peration     | Version:  v1912                                 |
|   \\  /    A nd           | Website:  www.openfoam.com                      |
|    \\/     M anipulation  |                                                 |
\*---------------------------------------------------------------------------*/
FoamFile
{
    version     2.0;
    format      ascii;
    class       volScalarField;
    location    "0.35";
    object      p;
}
// * * * * * * * * * * * * * * * * * * * * * * * * * * * * * * * * * * * * * //

dimensions      [0 2 -2 0 0 0 0];


internalField   nonuniform List<scalar> 
171728
(
0.0219108
0.0219143
0.0219143
0.0219312
0.0216779
0.021678
0.021678
0.0216923
0.0214459
0.0214459
0.0214459
0.0214602
0.0212138
0.0212138
0.0212138
0.0212281
0.0209817
0.0209817
0.0209817
0.020996
0.0207496
0.0207496
0.0207496
0.0207639
0.0205176
0.0205175
0.0205175
0.0205318
0.0202855
0.0202854
0.0202854
0.0202997
0.0200534
0.0200533
0.0200533
0.0200677
0.0198213
0.0198212
0.0198212
0.0198356
0.0195892
0.0195891
0.0195891
0.0196035
0.0193571
0.019357
0.019357
0.0193714
0.019125
0.0191249
0.019125
0.0191393
0.0188929
0.0188929
0.0188929
0.0189072
0.0186608
0.0186608
0.0186608
0.0186751
0.0184287
0.0184287
0.0184287
0.018443
0.0181966
0.0181966
0.0181966
0.0182109
0.0179645
0.0179645
0.0179645
0.0179788
0.0177325
0.0177324
0.0177324
0.0177467
0.0175004
0.0175003
0.0175003
0.0175147
0.0172683
0.0172683
0.0172683
0.0172826
0.0170362
0.0170362
0.0170362
0.0170505
0.0168041
0.0168041
0.0168041
0.0168184
0.016572
0.016572
0.016572
0.0165863
0.0163399
0.0163399
0.0163399
0.0163542
0.0161078
0.0161078
0.0161078
0.0161221
0.0158758
0.0158757
0.0158757
0.01589
0.0156437
0.0156436
0.0156436
0.0156579
0.0154116
0.0154115
0.0154115
0.0154259
0.0151795
0.0151794
0.0151794
0.0151938
0.0149474
0.0149474
0.0149474
0.0149617
0.0147153
0.0147153
0.0147153
0.0147296
0.0144832
0.0144832
0.0144832
0.0144975
0.0142511
0.0142511
0.0142511
0.0142654
0.014019
0.014019
0.014019
0.0140333
0.013787
0.0137869
0.0137869
0.0138013
0.0135549
0.0135548
0.0135548
0.0135692
0.0133228
0.0133228
0.0133228
0.0133371
0.0130907
0.0130907
0.0130907
0.013105
0.0128586
0.0128586
0.0128586
0.0128729
0.0126265
0.0126265
0.0126265
0.0126408
0.0123945
0.0123944
0.0123944
0.0124087
0.0121624
0.0121623
0.0121623
0.0121767
0.0119303
0.0119302
0.0119302
0.0119446
0.0116982
0.0116982
0.0116982
0.0117125
0.0114661
0.0114661
0.0114661
0.0114804
0.011234
0.011234
0.011234
0.0112483
0.0110019
0.0110019
0.0110019
0.0110162
0.0107698
0.0107698
0.0107698
0.0107841
0.0105377
0.0105377
0.0105377
0.010552
0.0103056
0.0103056
0.0103056
0.0103199
0.0100736
0.0100735
0.0100735
0.0100878
0.00984148
0.00984144
0.00984145
0.00985577
0.00960939
0.00960936
0.00960936
0.00962368
0.00937731
0.00937728
0.00937728
0.0093916
0.00914522
0.00914519
0.0091452
0.00915952
0.00891314
0.00891311
0.00891311
0.00892743
0.00868105
0.00868102
0.00868102
0.00869534
0.00844896
0.00844893
0.00844893
0.00846325
0.00821687
0.00821684
0.00821684
0.00823116
0.00798478
0.00798474
0.00798475
0.00799907
0.00775268
0.00775265
0.00775265
0.00776697
0.00752059
0.00752055
0.00752056
0.00753488
0.00728849
0.00728846
0.00728846
0.00730278
0.0070564
0.00705636
0.00705637
0.00707069
0.0068243
0.00682427
0.00682427
0.00683859
0.00659221
0.00659218
0.00659218
0.0066065
0.00636012
0.00636009
0.00636009
0.00637441
0.00612804
0.006128
0.00612801
0.00614232
0.00589595
0.00589592
0.00589592
0.00591024
0.00566386
0.00566383
0.00566384
0.00567815
0.00543178
0.00543175
0.00543175
0.00544607
0.00519969
0.00519966
0.00519966
0.00521398
0.00496761
0.00496757
0.00496758
0.0049819
0.00473552
0.00473549
0.00473549
0.00474981
0.00450343
0.00450339
0.0045034
0.00451772
0.00427133
0.0042713
0.0042713
0.00428562
0.00403924
0.00403921
0.00403921
0.00405353
0.00380714
0.00380711
0.00380711
0.00382143
0.00357505
0.00357502
0.00357502
0.00358934
0.00334295
0.00334292
0.00334292
0.00335724
0.00311086
0.00311082
0.00311083
0.00312515
0.00287876
0.00287873
0.00287873
0.00289305
0.00264667
0.00264664
0.00264664
0.00266096
0.00241458
0.00241455
0.00241455
0.00242887
0.0021825
0.00218247
0.00218247
0.00219679
0.00195041
0.00195038
0.00195038
0.0019647
0.00171833
0.0017183
0.0017183
0.00173262
0.00148624
0.00148621
0.00148622
0.00150053
0.00125416
0.00125413
0.00125413
0.00126845
0.00102207
0.00102204
0.00102204
0.00103636
0.000789987
0.000789958
0.000789959
0.00080428
0.000557917
0.000557879
0.000557882
0.000572197
0.000326357
0.000325998
0.000326016
0.000340187
0.00010201
0.000113285
0.0001133
0.000114485
0.0219648
0.0219608
0.0219608
0.0219648
0.0219608
0.0219608
0.0219671
0.0219671
0.0219671
0.0219671
0.0219608
0.0219608
0.0219648
0.0219608
0.0219608
0.0219648
0.0219312
0.0217217
0.0219143
0.0219143
0.021736
0.021736
0.0219312
0.0217217
0.0219143
0.0219143
0.021736
0.021736
0.0219143
0.021736
0.021736
0.0219312
0.0217217
0.0219143
0.021736
0.021736
0.0217217
0.0216923
0.0214896
0.021678
0.021678
0.0215039
0.0215039
0.0216923
0.0214896
0.021678
0.021678
0.0215039
0.0215039
0.021678
0.0215039
0.0215039
0.0216923
0.0214896
0.021678
0.0215039
0.0215039
0.0214896
0.0214602
0.0212575
0.0214459
0.0214459
0.0212718
0.0212718
0.0214602
0.0212575
0.0214459
0.0214459
0.0212718
0.0212718
0.0214459
0.0212718
0.0212718
0.0214602
0.0212575
0.0214459
0.0212718
0.0212718
0.0212575
0.0212281
0.0210254
0.0212138
0.0212138
0.0210397
0.0210397
0.0212281
0.0210254
0.0212138
0.0212138
0.0210397
0.0210397
0.0212138
0.0210397
0.0210397
0.0212281
0.0210254
0.0212138
0.0210397
0.0210397
0.0210254
0.020996
0.0207933
0.0209817
0.0209817
0.0208076
0.0208076
0.020996
0.0207933
0.0209817
0.0209817
0.0208076
0.0208076
0.0209817
0.0208076
0.0208076
0.020996
0.0207933
0.0209817
0.0208076
0.0208076
0.0207933
0.0207639
0.0205612
0.0207496
0.0207496
0.0205755
0.0205755
0.0207639
0.0205612
0.0207496
0.0207496
0.0205755
0.0205755
0.0207496
0.0205755
0.0205755
0.0207639
0.0205612
0.0207496
0.0205755
0.0205755
0.0205612
0.0205318
0.0203292
0.0205175
0.0205175
0.0203434
0.0203434
0.0205318
0.0203292
0.0205175
0.0205175
0.0203434
0.0203434
0.0205175
0.0203434
0.0203434
0.0205318
0.0203292
0.0205175
0.0203434
0.0203434
0.0203292
0.0202997
0.0200971
0.0202854
0.0202854
0.0201114
0.0201114
0.0202997
0.0200971
0.0202854
0.0202854
0.0201114
0.0201114
0.0202854
0.0201114
0.0201114
0.0202997
0.0200971
0.0202854
0.0201114
0.0201114
0.0200971
0.0200677
0.019865
0.0200533
0.0200533
0.0198793
0.0198793
0.0200677
0.019865
0.0200533
0.0200533
0.0198793
0.0198793
0.0200533
0.0198793
0.0198793
0.0200677
0.019865
0.0200533
0.0198793
0.0198793
0.019865
0.0198356
0.0196329
0.0198212
0.0198212
0.0196472
0.0196472
0.0198356
0.0196329
0.0198212
0.0198212
0.0196472
0.0196472
0.0198212
0.0196472
0.0196472
0.0198356
0.0196329
0.0198212
0.0196472
0.0196472
0.0196329
0.0196035
0.0194008
0.0195891
0.0195891
0.0194151
0.0194151
0.0196035
0.0194008
0.0195891
0.0195891
0.0194151
0.0194151
0.0195891
0.0194151
0.0194151
0.0196035
0.0194008
0.0195891
0.0194151
0.0194151
0.0194008
0.0193714
0.0191687
0.019357
0.019357
0.019183
0.019183
0.0193714
0.0191687
0.019357
0.019357
0.019183
0.019183
0.019357
0.019183
0.019183
0.0193714
0.0191687
0.019357
0.019183
0.019183
0.0191687
0.0191393
0.0189366
0.0191249
0.0191249
0.0189509
0.0189509
0.0191393
0.0189366
0.0191249
0.0191249
0.0189509
0.0189509
0.0191249
0.0189509
0.0189509
0.0191393
0.0189366
0.0191249
0.0189509
0.0189509
0.0189366
0.0189072
0.0187045
0.0188929
0.0188929
0.0187188
0.0187188
0.0189072
0.0187045
0.0188929
0.0188929
0.0187188
0.0187188
0.0188929
0.0187188
0.0187188
0.0189072
0.0187045
0.0188929
0.0187188
0.0187188
0.0187045
0.0186751
0.0184724
0.0186608
0.0186608
0.0184867
0.0184867
0.0186751
0.0184724
0.0186608
0.0186608
0.0184867
0.0184867
0.0186608
0.0184867
0.0184867
0.0186751
0.0184724
0.0186608
0.0184867
0.0184867
0.0184724
0.018443
0.0182403
0.0184287
0.0184287
0.0182546
0.0182546
0.018443
0.0182403
0.0184287
0.0184287
0.0182546
0.0182546
0.0184287
0.0182546
0.0182546
0.018443
0.0182403
0.0184287
0.0182546
0.0182546
0.0182403
0.0182109
0.0180082
0.0181966
0.0181966
0.0180225
0.0180225
0.0182109
0.0180082
0.0181966
0.0181966
0.0180225
0.0180225
0.0181966
0.0180225
0.0180225
0.0182109
0.0180082
0.0181966
0.0180225
0.0180225
0.0180082
0.0179788
0.0177761
0.0179645
0.0179645
0.0177904
0.0177904
0.0179788
0.0177761
0.0179645
0.0179645
0.0177904
0.0177904
0.0179645
0.0177904
0.0177904
0.0179788
0.0177761
0.0179645
0.0177904
0.0177904
0.0177761
0.0177467
0.0175441
0.0177324
0.0177324
0.0175584
0.0175584
0.0177467
0.0175441
0.0177324
0.0177324
0.0175584
0.0175584
0.0177324
0.0175584
0.0175584
0.0177467
0.0175441
0.0177324
0.0175584
0.0175584
0.0175441
0.0175147
0.017312
0.0175003
0.0175003
0.0173263
0.0173263
0.0175147
0.017312
0.0175003
0.0175003
0.0173263
0.0173263
0.0175003
0.0173263
0.0173263
0.0175147
0.017312
0.0175003
0.0173263
0.0173263
0.017312
0.0172826
0.0170799
0.0172683
0.0172683
0.0170942
0.0170942
0.0172826
0.0170799
0.0172683
0.0172683
0.0170942
0.0170942
0.0172683
0.0170942
0.0170942
0.0172826
0.0170799
0.0172683
0.0170942
0.0170942
0.0170799
0.0170505
0.0168478
0.0170362
0.0170362
0.0168621
0.0168621
0.0170505
0.0168478
0.0170362
0.0170362
0.0168621
0.0168621
0.0170362
0.0168621
0.0168621
0.0170505
0.0168478
0.0170362
0.0168621
0.0168621
0.0168478
0.0168184
0.0166157
0.0168041
0.0168041
0.01663
0.01663
0.0168184
0.0166157
0.0168041
0.0168041
0.01663
0.01663
0.0168041
0.01663
0.01663
0.0168184
0.0166157
0.0168041
0.01663
0.01663
0.0166157
0.0165863
0.0163836
0.016572
0.016572
0.0163979
0.0163979
0.0165863
0.0163836
0.016572
0.016572
0.0163979
0.0163979
0.016572
0.0163979
0.0163979
0.0165863
0.0163836
0.016572
0.0163979
0.0163979
0.0163836
0.0163542
0.0161515
0.0163399
0.0163399
0.0161658
0.0161658
0.0163542
0.0161515
0.0163399
0.0163399
0.0161658
0.0161658
0.0163399
0.0161658
0.0161658
0.0163542
0.0161515
0.0163399
0.0161658
0.0161658
0.0161515
0.0161221
0.0159194
0.0161078
0.0161078
0.0159337
0.0159337
0.0161221
0.0159194
0.0161078
0.0161078
0.0159337
0.0159337
0.0161078
0.0159337
0.0159337
0.0161221
0.0159194
0.0161078
0.0159337
0.0159337
0.0159194
0.01589
0.0156874
0.0158757
0.0158757
0.0157016
0.0157016
0.01589
0.0156874
0.0158757
0.0158757
0.0157016
0.0157017
0.0158757
0.0157016
0.0157016
0.01589
0.0156874
0.0158757
0.0157016
0.0157017
0.0156874
0.0156579
0.0154553
0.0156436
0.0156436
0.0154696
0.0154696
0.0156579
0.0154553
0.0156436
0.0156436
0.0154696
0.0154696
0.0156436
0.0154696
0.0154696
0.0156579
0.0154553
0.0156436
0.0154696
0.0154696
0.0154553
0.0154259
0.0152232
0.0154115
0.0154115
0.0152375
0.0152375
0.0154259
0.0152232
0.0154115
0.0154115
0.0152375
0.0152375
0.0154115
0.0152375
0.0152375
0.0154259
0.0152232
0.0154115
0.0152375
0.0152375
0.0152232
0.0151938
0.0149911
0.0151794
0.0151794
0.0150054
0.0150054
0.0151938
0.0149911
0.0151794
0.0151794
0.0150054
0.0150054
0.0151794
0.0150054
0.0150054
0.0151938
0.0149911
0.0151794
0.0150054
0.0150054
0.0149911
0.0149617
0.014759
0.0149474
0.0149474
0.0147733
0.0147733
0.0149617
0.014759
0.0149474
0.0149474
0.0147733
0.0147733
0.0149474
0.0147733
0.0147733
0.0149617
0.014759
0.0149474
0.0147733
0.0147733
0.014759
0.0147296
0.0145269
0.0147153
0.0147153
0.0145412
0.0145412
0.0147296
0.0145269
0.0147153
0.0147153
0.0145412
0.0145412
0.0147153
0.0145412
0.0145412
0.0147296
0.0145269
0.0147153
0.0145412
0.0145412
0.0145269
0.0144975
0.0142948
0.0144832
0.0144832
0.0143091
0.0143091
0.0144975
0.0142948
0.0144832
0.0144832
0.0143091
0.0143091
0.0144832
0.0143091
0.0143091
0.0144975
0.0142948
0.0144832
0.0143091
0.0143091
0.0142948
0.0142654
0.0140627
0.0142511
0.0142511
0.014077
0.014077
0.0142654
0.0140627
0.0142511
0.0142511
0.014077
0.014077
0.0142511
0.014077
0.014077
0.0142654
0.0140627
0.0142511
0.014077
0.014077
0.0140627
0.0140333
0.0138307
0.014019
0.014019
0.0138449
0.0138449
0.0140333
0.0138307
0.014019
0.014019
0.0138449
0.013845
0.014019
0.0138449
0.0138449
0.0140333
0.0138307
0.014019
0.0138449
0.013845
0.0138307
0.0138013
0.0135986
0.0137869
0.0137869
0.0136129
0.0136129
0.0138013
0.0135986
0.0137869
0.0137869
0.0136129
0.0136129
0.0137869
0.0136129
0.0136129
0.0138013
0.0135986
0.0137869
0.0136129
0.0136129
0.0135986
0.0135692
0.0133665
0.0135548
0.0135548
0.0133808
0.0133808
0.0135692
0.0133665
0.0135548
0.0135548
0.0133808
0.0133808
0.0135548
0.0133808
0.0133808
0.0135692
0.0133665
0.0135548
0.0133808
0.0133808
0.0133665
0.0133371
0.0131344
0.0133228
0.0133228
0.0131487
0.0131487
0.0133371
0.0131344
0.0133228
0.0133228
0.0131487
0.0131487
0.0133228
0.0131487
0.0131487
0.0133371
0.0131344
0.0133228
0.0131487
0.0131487
0.0131344
0.013105
0.0129023
0.0130907
0.0130907
0.0129166
0.0129166
0.013105
0.0129023
0.0130907
0.0130907
0.0129166
0.0129166
0.0130907
0.0129166
0.0129166
0.013105
0.0129023
0.0130907
0.0129166
0.0129166
0.0129023
0.0128729
0.0126702
0.0128586
0.0128586
0.0126845
0.0126845
0.0128729
0.0126702
0.0128586
0.0128586
0.0126845
0.0126845
0.0128586
0.0126845
0.0126845
0.0128729
0.0126702
0.0128586
0.0126845
0.0126845
0.0126702
0.0126408
0.0124381
0.0126265
0.0126265
0.0124524
0.0124524
0.0126408
0.0124381
0.0126265
0.0126265
0.0124524
0.0124524
0.0126265
0.0124524
0.0124524
0.0126408
0.0124382
0.0126265
0.0124524
0.0124524
0.0124381
0.0124087
0.0122061
0.0123944
0.0123944
0.0122204
0.0122204
0.0124087
0.0122061
0.0123944
0.0123944
0.0122204
0.0122204
0.0123944
0.0122204
0.0122204
0.0124087
0.0122061
0.0123944
0.0122204
0.0122204
0.0122061
0.0121767
0.011974
0.0121623
0.0121623
0.0119883
0.0119883
0.0121767
0.011974
0.0121623
0.0121623
0.0119883
0.0119883
0.0121623
0.0119883
0.0119883
0.0121767
0.011974
0.0121623
0.0119883
0.0119883
0.011974
0.0119446
0.0117419
0.0119302
0.0119302
0.0117562
0.0117562
0.0119446
0.0117419
0.0119302
0.0119302
0.0117562
0.0117562
0.0119302
0.0117562
0.0117562
0.0119446
0.0117419
0.0119302
0.0117562
0.0117562
0.0117419
0.0117125
0.0115098
0.0116982
0.0116982
0.0115241
0.0115241
0.0117125
0.0115098
0.0116982
0.0116982
0.0115241
0.0115241
0.0116982
0.0115241
0.0115241
0.0117125
0.0115098
0.0116982
0.0115241
0.0115241
0.0115098
0.0114804
0.0112777
0.0114661
0.0114661
0.011292
0.011292
0.0114804
0.0112777
0.0114661
0.0114661
0.011292
0.011292
0.0114661
0.011292
0.011292
0.0114804
0.0112777
0.0114661
0.011292
0.011292
0.0112777
0.0112483
0.0110456
0.011234
0.011234
0.0110599
0.0110599
0.0112483
0.0110456
0.011234
0.011234
0.0110599
0.0110599
0.011234
0.0110599
0.0110599
0.0112483
0.0110456
0.011234
0.0110599
0.0110599
0.0110456
0.0110162
0.0108135
0.0110019
0.0110019
0.0108278
0.0108278
0.0110162
0.0108135
0.0110019
0.0110019
0.0108278
0.0108278
0.0110019
0.0108278
0.0108278
0.0110162
0.0108135
0.0110019
0.0108278
0.0108278
0.0108135
0.0107841
0.0105814
0.0107698
0.0107698
0.0105957
0.0105957
0.0107841
0.0105814
0.0107698
0.0107698
0.0105957
0.0105957
0.0107698
0.0105957
0.0105957
0.0107841
0.0105814
0.0107698
0.0105957
0.0105957
0.0105814
0.010552
0.0103493
0.0105377
0.0105377
0.0103636
0.0103636
0.010552
0.0103493
0.0105377
0.0105377
0.0103636
0.0103636
0.0105377
0.0103636
0.0103636
0.010552
0.0103493
0.0105377
0.0103636
0.0103636
0.0103493
0.0103199
0.0101173
0.0103056
0.0103056
0.0101315
0.0101315
0.0103199
0.0101173
0.0103056
0.0103056
0.0101315
0.0101315
0.0103056
0.0101315
0.0101315
0.0103199
0.0101173
0.0103056
0.0101315
0.0101315
0.0101173
0.0100879
0.00988517
0.0100735
0.0100735
0.00989947
0.00989947
0.0100879
0.00988517
0.0100735
0.0100735
0.00989947
0.00989947
0.0100735
0.00989947
0.00989947
0.0100879
0.00988517
0.0100735
0.00989947
0.00989947
0.00988517
0.00985577
0.00965309
0.00984145
0.00984144
0.00966738
0.00966738
0.00985577
0.00965308
0.00984145
0.00984145
0.00966738
0.00966738
0.00984145
0.00966738
0.00966738
0.00985577
0.00965309
0.00984145
0.00966738
0.00966738
0.00965309
0.00962368
0.009421
0.00960936
0.00960936
0.0094353
0.0094353
0.00962368
0.009421
0.00960936
0.00960936
0.0094353
0.0094353
0.00960936
0.0094353
0.0094353
0.00962368
0.009421
0.00960936
0.0094353
0.0094353
0.009421
0.0093916
0.00918892
0.00937728
0.00937728
0.00920322
0.00920322
0.0093916
0.00918892
0.00937728
0.00937728
0.00920322
0.00920322
0.00937728
0.00920322
0.00920322
0.0093916
0.00918892
0.00937728
0.00920322
0.00920322
0.00918892
0.00915952
0.00895683
0.00914519
0.00914519
0.00897113
0.00897113
0.00915952
0.00895683
0.00914519
0.00914519
0.00897113
0.00897113
0.00914519
0.00897113
0.00897113
0.00915952
0.00895683
0.00914519
0.00897113
0.00897113
0.00895683
0.00892743
0.00872475
0.00891311
0.00891311
0.00873904
0.00873904
0.00892743
0.00872474
0.00891311
0.00891311
0.00873904
0.00873904
0.00891311
0.00873904
0.00873904
0.00892743
0.00872475
0.00891311
0.00873904
0.00873904
0.00872475
0.00869534
0.00849266
0.00868102
0.00868102
0.00850695
0.00850695
0.00869534
0.00849265
0.00868102
0.00868102
0.00850695
0.00850695
0.00868102
0.00850695
0.00850695
0.00869534
0.00849266
0.00868102
0.00850695
0.00850695
0.00849266
0.00846325
0.00826056
0.00844893
0.00844893
0.00827486
0.00827486
0.00846325
0.00826056
0.00844893
0.00844893
0.00827486
0.00827486
0.00844893
0.00827486
0.00827486
0.00846325
0.00826056
0.00844893
0.00827486
0.00827486
0.00826056
0.00823116
0.00802847
0.00821684
0.00821684
0.00804277
0.00804277
0.00823116
0.00802847
0.00821684
0.00821684
0.00804277
0.00804277
0.00821684
0.00804277
0.00804277
0.00823116
0.00802847
0.00821684
0.00804277
0.00804277
0.00802847
0.00799907
0.00779638
0.00798475
0.00798474
0.00781067
0.00781067
0.00799907
0.00779637
0.00798474
0.00798475
0.00781067
0.00781067
0.00798474
0.00781067
0.00781067
0.00799907
0.00779638
0.00798474
0.00781067
0.00781067
0.00779638
0.00776697
0.00756428
0.00775265
0.00775265
0.00757858
0.00757858
0.00776697
0.00756428
0.00775265
0.00775265
0.00757858
0.00757858
0.00775265
0.00757858
0.00757858
0.00776697
0.00756428
0.00775265
0.00757858
0.00757858
0.00756428
0.00753488
0.00733219
0.00752055
0.00752055
0.00734648
0.00734648
0.00753488
0.00733218
0.00752055
0.00752056
0.00734648
0.00734648
0.00752055
0.00734648
0.00734648
0.00753488
0.00733219
0.00752055
0.00734648
0.00734648
0.00733218
0.00730278
0.00710009
0.00728846
0.00728846
0.00711439
0.00711439
0.00730278
0.00710009
0.00728846
0.00728846
0.00711439
0.00711439
0.00728846
0.00711439
0.00711439
0.00730278
0.00710009
0.00728846
0.00711439
0.00711439
0.00710009
0.00707069
0.006868
0.00705637
0.00705636
0.0068823
0.00688229
0.00707069
0.006868
0.00705637
0.00705637
0.0068823
0.0068823
0.00705636
0.0068823
0.00688229
0.00707069
0.006868
0.00705636
0.0068823
0.00688229
0.006868
0.0068386
0.00663591
0.00682427
0.00682427
0.0066502
0.0066502
0.00683859
0.0066359
0.00682427
0.00682427
0.0066502
0.0066502
0.00682427
0.0066502
0.0066502
0.0068386
0.00663591
0.00682427
0.0066502
0.0066502
0.00663591
0.0066065
0.00640382
0.00659218
0.00659218
0.00641811
0.00641811
0.0066065
0.00640382
0.00659218
0.00659218
0.00641811
0.00641811
0.00659218
0.00641811
0.00641811
0.0066065
0.00640382
0.00659218
0.00641811
0.00641811
0.00640382
0.00637441
0.00617173
0.00636009
0.00636009
0.00618603
0.00618603
0.00637441
0.00617173
0.00636009
0.00636009
0.00618603
0.00618603
0.00636009
0.00618603
0.00618603
0.00637441
0.00617173
0.00636009
0.00618603
0.00618602
0.00617173
0.00614233
0.00593964
0.00612801
0.006128
0.00595394
0.00595394
0.00614233
0.00593964
0.00612801
0.00612801
0.00595394
0.00595394
0.006128
0.00595394
0.00595394
0.00614233
0.00593964
0.006128
0.00595394
0.00595394
0.00593964
0.00591024
0.00570756
0.00589592
0.00589592
0.00572186
0.00572185
0.00591024
0.00570756
0.00589592
0.00589592
0.00572186
0.00572186
0.00589592
0.00572185
0.00572185
0.00591024
0.00570756
0.00589592
0.00572186
0.00572185
0.00570756
0.00567816
0.00547547
0.00566383
0.00566383
0.00548977
0.00548977
0.00567816
0.00547547
0.00566383
0.00566383
0.00548977
0.00548977
0.00566383
0.00548977
0.00548977
0.00567816
0.00547547
0.00566383
0.00548977
0.00548977
0.00547547
0.00544607
0.00524339
0.00543175
0.00543175
0.00525768
0.00525768
0.00544607
0.00524339
0.00543175
0.00543175
0.00525768
0.00525769
0.00543175
0.00525768
0.00525768
0.00544607
0.00524339
0.00543175
0.00525768
0.00525768
0.00524339
0.00521399
0.0050113
0.00519966
0.00519966
0.0050256
0.0050256
0.00521398
0.0050113
0.00519966
0.00519966
0.0050256
0.0050256
0.00519966
0.0050256
0.0050256
0.00521399
0.0050113
0.00519966
0.0050256
0.0050256
0.0050113
0.0049819
0.00477921
0.00496758
0.00496757
0.00479351
0.00479351
0.0049819
0.00477921
0.00496758
0.00496758
0.00479351
0.00479351
0.00496757
0.00479351
0.00479351
0.0049819
0.00477921
0.00496757
0.00479351
0.00479351
0.00477921
0.00474981
0.00454712
0.00473549
0.00473549
0.00456142
0.00456142
0.00474981
0.00454712
0.00473549
0.00473549
0.00456142
0.00456142
0.00473549
0.00456142
0.00456142
0.00474981
0.00454712
0.00473549
0.00456142
0.00456142
0.00454712
0.00451772
0.00431503
0.0045034
0.00450339
0.00432933
0.00432932
0.00451772
0.00431503
0.0045034
0.0045034
0.00432933
0.00432933
0.00450339
0.00432933
0.00432933
0.00451772
0.00431503
0.00450339
0.00432933
0.00432932
0.00431503
0.00428562
0.00408293
0.0042713
0.0042713
0.00409723
0.00409723
0.00428562
0.00408293
0.0042713
0.0042713
0.00409723
0.00409723
0.0042713
0.00409723
0.00409723
0.00428563
0.00408293
0.0042713
0.00409723
0.00409723
0.00408293
0.00405353
0.00385084
0.00403921
0.00403921
0.00386514
0.00386514
0.00405353
0.00385084
0.00403921
0.00403921
0.00386514
0.00386514
0.00403921
0.00386514
0.00386514
0.00405353
0.00385084
0.00403921
0.00386514
0.00386514
0.00385084
0.00382143
0.00361874
0.00380711
0.00380711
0.00363304
0.00363304
0.00382143
0.00361874
0.00380711
0.00380711
0.00363304
0.00363304
0.00380711
0.00363304
0.00363304
0.00382144
0.00361874
0.00380711
0.00363304
0.00363304
0.00361874
0.00358934
0.00338665
0.00357502
0.00357502
0.00340095
0.00340094
0.00358934
0.00338665
0.00357502
0.00357502
0.00340094
0.00340095
0.00357502
0.00340094
0.00340094
0.00358934
0.00338665
0.00357502
0.00340095
0.00340094
0.00338665
0.00335724
0.00315455
0.00334292
0.00334292
0.00316885
0.00316885
0.00335724
0.00315455
0.00334292
0.00334292
0.00316885
0.00316885
0.00334292
0.00316885
0.00316885
0.00335724
0.00315455
0.00334292
0.00316885
0.00316885
0.00315455
0.00312515
0.00292246
0.00311083
0.00311082
0.00293676
0.00293675
0.00312515
0.00292246
0.00311083
0.00311083
0.00293676
0.00293676
0.00311082
0.00293676
0.00293676
0.00312515
0.00292246
0.00311082
0.00293676
0.00293675
0.00292246
0.00289306
0.00269037
0.00287873
0.00287873
0.00270466
0.00270466
0.00289305
0.00269037
0.00287873
0.00287873
0.00270466
0.00270466
0.00287873
0.00270466
0.00270466
0.00289306
0.00269037
0.00287873
0.00270466
0.00270466
0.00269037
0.00266096
0.00245828
0.00264664
0.00264664
0.00247257
0.00247257
0.00266096
0.00245828
0.00264664
0.00264664
0.00247257
0.00247257
0.00264664
0.00247257
0.00247257
0.00266096
0.00245828
0.00264664
0.00247257
0.00247257
0.00245828
0.00242887
0.00222619
0.00241455
0.00241455
0.00224049
0.00224049
0.00242887
0.00222619
0.00241455
0.00241455
0.00224049
0.00224049
0.00241455
0.00224049
0.00224049
0.00242887
0.00222619
0.00241455
0.00224049
0.00224049
0.00222619
0.00219679
0.0019941
0.00218247
0.00218247
0.0020084
0.0020084
0.00219679
0.0019941
0.00218247
0.00218247
0.0020084
0.0020084
0.00218247
0.0020084
0.0020084
0.00219679
0.00199411
0.00218247
0.0020084
0.0020084
0.0019941
0.0019647
0.00176202
0.00195038
0.00195038
0.00177632
0.00177632
0.0019647
0.00176202
0.00195038
0.00195038
0.00177632
0.00177632
0.00195038
0.00177632
0.00177632
0.0019647
0.00176202
0.00195038
0.00177632
0.00177632
0.00176202
0.00173262
0.00152994
0.0017183
0.0017183
0.00154423
0.00154423
0.00173262
0.00152994
0.0017183
0.0017183
0.00154423
0.00154424
0.0017183
0.00154423
0.00154423
0.00173262
0.00152994
0.0017183
0.00154423
0.00154423
0.00152994
0.00150054
0.00129786
0.00148621
0.00148621
0.00131215
0.00131215
0.00150054
0.00129785
0.00148621
0.00148621
0.00131215
0.00131215
0.00148621
0.00131215
0.00131215
0.00150054
0.00129786
0.00148621
0.00131215
0.00131215
0.00129785
0.00126845
0.00106577
0.00125413
0.00125413
0.00108007
0.00108006
0.00126845
0.00106577
0.00125413
0.00125413
0.00108007
0.00108007
0.00125413
0.00108007
0.00108007
0.00126845
0.00106577
0.00125413
0.00108007
0.00108006
0.00106577
0.00103637
0.000833683
0.00102204
0.00102204
0.00084798
0.000847979
0.00103637
0.000833681
0.00102204
0.00102204
0.00084798
0.00084798
0.00102204
0.000847979
0.00084798
0.00103637
0.000833683
0.00102204
0.00084798
0.00084798
0.000833683
0.000804281
0.000601599
0.000789959
0.000789958
0.000615897
0.000615896
0.00080428
0.000601597
0.00078996
0.000789959
0.000615898
0.000615899
0.000789959
0.000615897
0.000615898
0.000804281
0.000601601
0.000789959
0.000615899
0.000615899
0.0006016
0.000572198
0.000369574
0.000557879
0.000557878
0.000383891
0.000383888
0.000572196
0.000369568
0.000557881
0.000557882
0.000383897
0.000383894
0.000557879
0.000383889
0.000383886
0.000572199
0.000369575
0.00055788
0.000383896
0.00038389
0.000369565
0.000340201
0.000141095
0.000326002
0.000325997
0.000154908
0.000154902
0.00034019
0.00014109
0.000326009
0.000326
0.000154896
0.000154904
0.000325999
0.000154897
0.000154906
0.000340197
0.000141104
0.000326004
0.000154913
0.000154903
0.000141097
0.000114483
0.000113294
0.000113288
0.000114478
0.000113289
0.000113298
0.000102008
0.000102014
0.000102012
0.000113295
0.000114492
0.000113292
0.0219955
0.0220355
0.0220136
0.0220136
0.0220953
0.0220509
0.0221649
0.0220264
0.0220953
0.022051
0.0220264
0.0221649
0.0220685
0.0221841
0.0221841
0.0218385
0.0219435
0.0219401
0.0218381
0.0218453
0.0218349
0.0218384
0.0219435
0.0219401
0.0218381
0.0219108
0.0219108
0.0219108
0.021736
0.021736
0.021736
0.021736
0.0218388
0.021937
0.0219128
0.0218528
0.0219337
0.0218385
0.0218527
0.0218454
0.0218349
0.0218388
0.0219128
0.021937
0.0218528
0.0219337
0.0218527
0.0218385
0.0219378
0.0219378
0.0218389
0.0218377
0.0218377
0.0216055
0.0216926
0.0216926
0.0216055
0.0216925
0.0216055
0.0216055
0.0216925
0.0216926
0.0216055
0.0216779
0.0216779
0.0216779
0.0215039
0.0215039
0.0215039
0.0215039
0.0216059
0.0216923
0.0216779
0.02162
0.0216922
0.0216059
0.0216199
0.0216925
0.0216055
0.0216059
0.021678
0.0216923
0.02162
0.0216922
0.0216199
0.0216059
0.0216926
0.0216926
0.0216056
0.0216055
0.0216055
0.0213734
0.0214604
0.0214604
0.0213734
0.0214604
0.0213734
0.0213734
0.0214604
0.0214604
0.0213734
0.0214459
0.0214459
0.0214459
0.0212718
0.0212718
0.0212718
0.0212718
0.0213738
0.02146
0.0214459
0.0213879
0.02146
0.0213737
0.0213879
0.0214604
0.0213734
0.0213738
0.0214459
0.02146
0.0213879
0.02146
0.0213879
0.0213737
0.0214604
0.0214604
0.0213736
0.0213734
0.0213734
0.0211413
0.0212283
0.0212283
0.0211413
0.0212283
0.0211413
0.0211413
0.0212283
0.0212283
0.0211413
0.0212138
0.0212138
0.0212138
0.0210398
0.0210398
0.0210398
0.0210398
0.0211417
0.0212279
0.0212138
0.0211558
0.0212279
0.0211417
0.0211558
0.0212283
0.0211413
0.0211417
0.0212138
0.0212279
0.0211558
0.0212279
0.0211558
0.0211417
0.0212283
0.0212283
0.0211415
0.0211413
0.0211413
0.0209092
0.0209962
0.0209962
0.0209092
0.0209962
0.0209092
0.0209092
0.0209962
0.0209962
0.0209092
0.0209817
0.0209817
0.0209817
0.0208077
0.0208077
0.0208077
0.0208077
0.0209096
0.0209958
0.0209817
0.0209237
0.0209958
0.0209096
0.0209237
0.0209962
0.0209092
0.0209096
0.0209817
0.0209958
0.0209237
0.0209958
0.0209237
0.0209096
0.0209962
0.0209962
0.0209094
0.0209092
0.0209092
0.0206771
0.0207641
0.0207641
0.0206771
0.0207641
0.0206771
0.0206771
0.0207641
0.0207641
0.0206771
0.0207496
0.0207496
0.0207496
0.0205756
0.0205756
0.0205756
0.0205756
0.0206775
0.0207638
0.0207496
0.0206916
0.0207638
0.0206775
0.0206916
0.0207641
0.0206771
0.0206775
0.0207496
0.0207638
0.0206916
0.0207638
0.0206916
0.0206775
0.0207641
0.0207641
0.0206773
0.0206771
0.0206771
0.020445
0.020532
0.020532
0.020445
0.020532
0.020445
0.020445
0.020532
0.020532
0.020445
0.0205175
0.0205176
0.0205175
0.0203435
0.0203435
0.0203435
0.0203435
0.0204454
0.0205317
0.0205175
0.0204595
0.0205317
0.0204454
0.0204595
0.020532
0.020445
0.0204454
0.0205175
0.0205317
0.0204595
0.0205317
0.0204595
0.0204454
0.020532
0.020532
0.0204452
0.0204451
0.0204451
0.020213
0.0202999
0.0202999
0.0202129
0.0202999
0.020213
0.020213
0.0202999
0.0202999
0.0202129
0.0202855
0.0202855
0.0202855
0.0201114
0.0201114
0.0201114
0.0201114
0.0202133
0.0202996
0.0202854
0.0202274
0.0202996
0.0202133
0.0202274
0.0202999
0.0202129
0.0202133
0.0202854
0.0202996
0.0202274
0.0202996
0.0202274
0.0202133
0.0202999
0.0202999
0.0202131
0.020213
0.020213
0.0199809
0.0200678
0.0200678
0.0199808
0.0200678
0.0199809
0.0199809
0.0200678
0.0200678
0.0199808
0.0200534
0.0200534
0.0200534
0.0198793
0.0198793
0.0198793
0.0198793
0.0199812
0.0200675
0.0200533
0.0199953
0.0200675
0.0199812
0.0199953
0.0200678
0.0199809
0.0199812
0.0200533
0.0200675
0.0199953
0.0200675
0.0199953
0.0199812
0.0200678
0.0200678
0.019981
0.0199809
0.0199809
0.0197488
0.0198357
0.0198357
0.0197488
0.0198357
0.0197488
0.0197488
0.0198357
0.0198357
0.0197487
0.0198213
0.0198213
0.0198213
0.0196472
0.0196472
0.0196472
0.0196472
0.0197491
0.0198354
0.0198212
0.0197632
0.0198354
0.0197491
0.0197632
0.0198357
0.0197488
0.0197491
0.0198212
0.0198354
0.0197632
0.0198354
0.0197632
0.0197491
0.0198357
0.0198357
0.0197489
0.0197488
0.0197488
0.0195167
0.0196036
0.0196036
0.0195167
0.0196036
0.0195167
0.0195167
0.0196036
0.0196036
0.0195167
0.0195892
0.0195892
0.0195892
0.0194151
0.0194151
0.0194151
0.0194151
0.019517
0.0196033
0.0195891
0.0195311
0.0196033
0.019517
0.0195311
0.0196036
0.0195167
0.019517
0.0195891
0.0196033
0.0195311
0.0196033
0.0195311
0.019517
0.0196036
0.0196036
0.0195168
0.0195167
0.0195167
0.0192846
0.0193715
0.0193715
0.0192846
0.0193715
0.0192846
0.0192846
0.0193715
0.0193715
0.0192846
0.0193571
0.0193571