/*--------------------------------*- C++ -*----------------------------------*\
| =========                 |                                                 |
| \\      /  F ield         | OpenFOAM: The Open Source CFD Toolbox           |
|  \\    /   O peration     | Version:  v1906                                 |
|   \\  /    A nd           | Web:      www.OpenFOAM.com                      |
|    \\/     M anipulation  |                                                 |
\*---------------------------------------------------------------------------*/
FoamFile
{
    version     2.0;
    format      ascii;
    class       volScalarField;
    location    "1000";
    object      k;
}
// * * * * * * * * * * * * * * * * * * * * * * * * * * * * * * * * * * * * * //

dimensions      [0 2 -2 0 0 0 0];


internalField   nonuniform List<scalar> 
42840
(
3.84993e-05
5.12286e-05
5.12354e-05
5.33975e-05
5.37202e-05
5.33675e-05
5.36784e-05
5.12081e-05
5.12226e-05
5.15418e-05
5.15452e-05
5.33848e-05
5.36774e-05
5.12114e-05
5.12299e-05
5.154e-05
5.15322e-05
5.12348e-05
5.15484e-05
5.15445e-05
5.33965e-05
5.36634e-05
5.12374e-05
5.15365e-05
5.15432e-05
5.36705e-05
5.16246e-05
5.16229e-05
6.85848e-05
7.34028e-05
7.34321e-05
6.84858e-05
7.11546e-05
7.11735e-05
6.8583e-05
7.34067e-05
7.34371e-05
6.84916e-05
3.85138e-05
3.85246e-05
3.85231e-05
3.88886e-05
3.88989e-05
3.8893e-05
3.89024e-05
6.06302e-05
6.4757e-05
4.64421e-05
5.13346e-05
6.48539e-05
4.65418e-05
6.05133e-05
7.11506e-05
7.11709e-05
6.06256e-05
4.64514e-05
6.47476e-05
5.13315e-05
4.6546e-05
6.4844e-05
6.0518e-05
6.9939e-05
6.99491e-05
5.35124e-05
6.99953e-05
7.00054e-05
6.99808e-05
6.99933e-05
7.11524e-05
7.11733e-05
7.11546e-05
7.11758e-05
6.9926e-05
6.99344e-05
5.34942e-05
6.99973e-05
7.00057e-05
7.1186e-05
7.11736e-05
7.11888e-05
7.11762e-05
5.35882e-05
7.00121e-05
7.00217e-05
7.00067e-05
7.00154e-05
6.85866e-05
7.34082e-05
7.34349e-05
6.84885e-05
6.06213e-05
6.47368e-05
4.64268e-05
5.13154e-05
6.48469e-05
4.65257e-05
6.05016e-05
6.06237e-05
6.47538e-05
4.64334e-05
5.13288e-05
6.48563e-05
4.65322e-05
6.05044e-05
6.85982e-05
7.34418e-05
7.34342e-05
6.86376e-05
6.85998e-05
7.34432e-05
7.34365e-05
6.86392e-05
6.06483e-05
5.14341e-05
6.48916e-05
4.67807e-05
6.4862e-05
4.66518e-05
6.07427e-05
6.06504e-05
5.14432e-05
6.48902e-05
4.67846e-05
6.48686e-05
4.66574e-05
6.07436e-05
6.99497e-05
6.99415e-05
5.35104e-05
7.00116e-05
6.99985e-05
7.11506e-05
7.11691e-05
7.11854e-05
7.11736e-05
5.35999e-05
7.00133e-05
6.99945e-05
7.00179e-05
7.00044e-05
7.11812e-05
7.11689e-05
6.06204e-05
6.47406e-05
4.64345e-05
5.13164e-05
6.48492e-05
4.65312e-05
6.05089e-05
6.85809e-05
7.3401e-05
7.34291e-05
6.84919e-05
6.06191e-05
4.64428e-05
6.47458e-05
5.13257e-05
4.65365e-05
6.48417e-05
6.05102e-05
6.85967e-05
7.34476e-05
7.34394e-05
6.864e-05
6.06457e-05
5.14334e-05
6.48951e-05
4.67786e-05
6.48647e-05
4.6653e-05
6.07416e-05
6.85942e-05
7.34385e-05
7.34311e-05
6.86368e-05
6.06439e-05
5.14329e-05
4.67772e-05
6.48801e-05
4.66549e-05
6.48554e-05
6.07381e-05
6.85885e-05
7.34072e-05
7.34328e-05
6.8495e-05
6.06283e-05
4.64443e-05
6.4754e-05
5.13366e-05
4.65432e-05
6.48489e-05
6.05125e-05
6.85866e-05
7.34025e-05
7.34282e-05
6.84937e-05
6.06548e-05
5.1448e-05
6.48842e-05
4.67908e-05
6.48658e-05
4.66662e-05
6.07407e-05
6.86006e-05
7.34411e-05
7.34344e-05
6.86363e-05
6.06528e-05
5.14465e-05
4.679e-05
6.48791e-05
4.66664e-05
6.48599e-05
6.07386e-05
6.85987e-05
7.34374e-05
7.34299e-05
6.86341e-05
6.99356e-05
6.99315e-05
5.35016e-05
6.99949e-05
6.99911e-05
7.11504e-05
7.11706e-05
7.11842e-05
7.1171e-05
5.35854e-05
7.00034e-05
6.99995e-05
7.00031e-05
6.99983e-05
7.11842e-05
7.11711e-05
6.06284e-05
4.64519e-05
6.47599e-05
5.1338e-05
4.65486e-05
6.48536e-05
6.05193e-05
6.85828e-05
7.34011e-05
7.34295e-05
6.84963e-05
6.8586e-05
7.34079e-05
7.34328e-05
6.84992e-05
6.06491e-05
5.14382e-05
4.67838e-05
6.48803e-05
4.66637e-05
6.48561e-05
6.0735e-05
6.06516e-05
5.14464e-05
4.67877e-05
6.48841e-05
4.66677e-05
6.48646e-05
6.07366e-05
6.85953e-05
7.34399e-05
7.34315e-05
6.86326e-05
6.85983e-05
7.34409e-05
7.34343e-05
6.86351e-05
7.11506e-05
7.11695e-05
7.11533e-05
7.11723e-05
5.35973e-05
6.99956e-05
7.00077e-05
7.00009e-05
7.00112e-05
7.11823e-05
7.11697e-05
7.11853e-05
7.11726e-05
4.6904e-05
6.48771e-05
6.07443e-05
7.34385e-05
6.86337e-05
6.4882e-05
7.34417e-05
7.1183e-05
7.1186e-05
7.18221e-05
7.16015e-05
7.16143e-05
6.85443e-05
7.15911e-05
7.15781e-05
7.18323e-05
7.1659e-05
7.3418e-05
7.97286e-05
7.97609e-05
7.16444e-05
7.16591e-05
7.97965e-05
7.34229e-05
7.9777e-05
7.16706e-05
7.18182e-05
6.85246e-05
7.1573e-05
7.15206e-05
7.15864e-05
7.15606e-05
7.18049e-05
7.11651e-05
7.11661e-05
7.18239e-05
7.16161e-05
7.16027e-05
6.85445e-05
7.15803e-05
7.15922e-05
7.18342e-05
7.16598e-05
7.34223e-05
7.97369e-05
7.97741e-05
7.1645e-05
7.16607e-05
7.98125e-05
7.34275e-05
7.97886e-05
7.16723e-05
7.18198e-05
6.85269e-05
7.15261e-05
7.15744e-05
7.15637e-05
7.15875e-05
7.18068e-05
7.11616e-05
7.11627e-05
9.50583e-05
7.34797e-05
7.34732e-05
7.34727e-05
7.34661e-05
9.50636e-05
7.41905e-05
6.51982e-05
6.99653e-05
7.32446e-05
6.52508e-05
7.32553e-05
7.41511e-05
7.42375e-05
6.52071e-05
6.99753e-05
7.32547e-05
6.52596e-05
7.32652e-05
7.41986e-05
7.42102e-05
7.32614e-05
6.99822e-05
6.53147e-05
6.52766e-05
7.32571e-05
7.42332e-05
7.4257e-05
7.32716e-05
6.9992e-05
6.53228e-05
6.52847e-05
7.32672e-05
7.42799e-05
9.50423e-05
7.34645e-05
7.34579e-05
7.34735e-05
7.34669e-05
9.5022e-05
7.42286e-05
6.53588e-05
7.32627e-05
6.99725e-05
7.42366e-05
6.53579e-05
7.32649e-05
7.4277e-05
6.53671e-05
7.32733e-05
6.99854e-05
7.42848e-05
6.53665e-05
7.32756e-05
9.4993e-05
7.3487e-05
7.34808e-05
9.5011e-05
7.34954e-05
7.34894e-05
7.11637e-05
7.11652e-05
7.11661e-05
7.11676e-05
9.5055e-05
7.34845e-05
7.34776e-05
7.34769e-05
7.34699e-05
9.50665e-05
7.41777e-05
6.51734e-05
6.99578e-05
7.32464e-05
7.326e-05
6.52334e-05
7.41309e-05
7.42228e-05
6.51817e-05
6.9966e-05
7.32552e-05
7.32689e-05
6.52406e-05
7.41755e-05
7.42033e-05
7.32697e-05
6.99791e-05
6.53107e-05
7.32632e-05
7.42335e-05
6.52648e-05
7.42473e-05
7.32787e-05
6.99872e-05
6.53171e-05
7.32721e-05
7.42781e-05
6.52716e-05
9.50316e-05
7.34665e-05
7.34595e-05
7.34771e-05
7.347e-05
9.50044e-05
7.118e-05
7.11801e-05
7.11827e-05
7.11827e-05
9.50734e-05
7.34831e-05
7.34762e-05
9.50734e-05
7.34895e-05
7.34828e-05
7.42621e-05
6.53771e-05
7.00133e-05
7.32729e-05
7.32716e-05
6.5366e-05
7.42634e-05
7.43066e-05
6.53841e-05
7.00227e-05
7.32824e-05
7.32809e-05
6.53727e-05
7.43085e-05
7.42597e-05
7.327e-05
6.533e-05
7.00127e-05
7.42461e-05
7.32722e-05
6.53582e-05
7.43044e-05
7.32792e-05
6.53364e-05
7.00218e-05
7.42902e-05
7.32815e-05
6.53646e-05
9.50704e-05
7.34935e-05
7.34869e-05
7.34873e-05
7.34807e-05
9.50545e-05
7.18238e-05
7.16019e-05
7.1621e-05
6.85464e-05
7.15916e-05
7.1586e-05
7.18336e-05
7.16598e-05
7.34224e-05
7.97477e-05
7.97837e-05
7.16456e-05
7.16604e-05
7.98172e-05
7.34267e-05
7.97966e-05
7.16715e-05
7.18199e-05
6.85271e-05
7.15737e-05
7.15296e-05
7.1587e-05
7.15692e-05
7.18069e-05
7.18427e-05
7.16047e-05
7.16245e-05
6.86227e-05
7.18349e-05
7.16125e-05
7.16436e-05
7.16785e-05
7.34393e-05
7.98119e-05
7.16886e-05
7.98115e-05
7.16801e-05
7.98035e-05
7.34387e-05
7.16697e-05
7.98109e-05
7.18448e-05
6.86278e-05
7.16222e-05
7.16514e-05
7.18522e-05
7.1615e-05
7.16457e-05
7.18439e-05
7.16051e-05
7.16307e-05
6.86242e-05
7.18362e-05
7.16129e-05
7.16496e-05
7.16804e-05
7.34408e-05
7.98296e-05
7.98283e-05
7.16903e-05
7.16812e-05
7.98218e-05
7.34403e-05
7.16711e-05
7.9829e-05
7.18461e-05
6.86293e-05
7.16226e-05
7.16577e-05
7.16155e-05
7.16515e-05
7.18535e-05
9.50638e-05
7.34752e-05
7.34805e-05
7.34684e-05
7.34739e-05
9.50697e-05
7.4239e-05
6.52004e-05
6.99786e-05
7.32579e-05
7.32689e-05
6.52567e-05
7.41968e-05
7.41939e-05
6.51977e-05
6.99676e-05
7.32477e-05
6.52527e-05
7.32581e-05
7.41518e-05
7.42615e-05
7.32749e-05
6.99968e-05
6.53263e-05
7.32708e-05
6.52858e-05
7.42861e-05
7.42159e-05
7.32635e-05
6.99862e-05
6.53207e-05
6.52815e-05
7.32599e-05
7.42401e-05
9.50467e-05
7.34604e-05
7.34661e-05
7.34694e-05
7.34749e-05
9.5024e-05
7.11609e-05
7.11616e-05
7.11794e-05
7.11797e-05
9.50657e-05
7.34728e-05
7.34781e-05
9.50713e-05
7.34786e-05
7.34838e-05
7.43033e-05
6.53767e-05
7.00193e-05
7.32756e-05
6.53705e-05
7.32747e-05
7.43014e-05
7.42561e-05
6.53683e-05
7.00037e-05
7.32638e-05
7.32629e-05
6.53628e-05
7.4254e-05
7.43034e-05
7.32744e-05
6.53427e-05
7.00207e-05
6.53656e-05
7.42953e-05
7.32759e-05
7.42565e-05
7.32629e-05
6.53367e-05
7.00057e-05
7.42488e-05
7.32642e-05
6.53583e-05
9.5052e-05
7.34821e-05
7.34873e-05
7.34758e-05
7.34811e-05
9.50299e-05
7.11748e-05
7.11753e-05
7.18214e-05
7.16017e-05
7.16093e-05
6.85435e-05
7.15913e-05
7.1576e-05
7.18314e-05
7.16567e-05
7.34157e-05
7.97279e-05
7.97592e-05
7.16425e-05
7.16568e-05
7.97923e-05
7.34203e-05
7.97734e-05
7.16685e-05
7.18175e-05
6.85264e-05
7.15737e-05
7.15254e-05
7.15867e-05
7.15605e-05
7.18047e-05
7.1845e-05
7.16268e-05
7.1606e-05
6.86233e-05
7.1837e-05
7.16479e-05
7.1614e-05
7.16814e-05
7.34449e-05
7.98298e-05
7.16912e-05
7.98277e-05
7.16822e-05
7.98184e-05
7.34441e-05
7.1672e-05
7.98278e-05
7.18472e-05
6.86289e-05
7.16577e-05
7.16239e-05
7.18547e-05
7.16505e-05
7.16167e-05
7.18419e-05
7.16051e-05
7.16193e-05
6.86203e-05
7.18341e-05
7.16131e-05
7.16388e-05
7.16768e-05
7.34361e-05
7.98063e-05
7.98058e-05
7.16872e-05
7.16783e-05
7.97984e-05
7.34354e-05
7.16676e-05
7.98056e-05
7.1844e-05
6.86258e-05
7.16229e-05
7.16475e-05
7.16157e-05
7.16412e-05
7.18515e-05
7.18228e-05
7.1621e-05
7.16009e-05
6.8551e-05
7.15881e-05
7.15909e-05
7.18325e-05
7.16588e-05
7.3421e-05
7.97481e-05
7.97828e-05
7.16449e-05
7.16593e-05
7.98136e-05
7.3425e-05
7.97944e-05
7.16704e-05
7.1819e-05
6.85328e-05
7.15337e-05
7.15737e-05
7.15724e-05
7.15865e-05
7.18065e-05
7.18211e-05
7.16002e-05
7.16149e-05
6.85492e-05
7.15902e-05
7.15824e-05
7.18308e-05
7.16569e-05
7.34162e-05
7.97292e-05
7.9763e-05
7.1643e-05
7.16574e-05
7.97935e-05
7.34203e-05
7.97747e-05
7.16684e-05
7.18173e-05
6.85312e-05
7.15731e-05
7.15293e-05
7.15858e-05
7.1567e-05
7.18049e-05
7.18429e-05
7.16296e-05
7.16041e-05
6.86231e-05
7.18351e-05
7.16466e-05
7.16119e-05
7.16794e-05
7.34386e-05
7.98237e-05
7.98223e-05
7.16894e-05
7.16801e-05
7.98173e-05
7.3438e-05
7.167e-05
7.98233e-05
7.18452e-05
6.86275e-05
7.16538e-05
7.16221e-05
7.16479e-05
7.16146e-05
7.18531e-05
7.18414e-05
7.16034e-05
7.16234e-05
6.86211e-05
7.18335e-05
7.16113e-05
7.16403e-05
7.16774e-05
7.34345e-05
7.98036e-05
7.98024e-05
7.16874e-05
7.16781e-05
7.97974e-05
7.34338e-05
7.1668e-05
7.98034e-05
7.18438e-05
6.86254e-05
7.16216e-05
7.1647e-05
7.1614e-05
7.16414e-05
7.18518e-05
9.50558e-05
7.34745e-05
7.34808e-05
7.34671e-05
7.34735e-05
9.50636e-05
7.4228e-05
6.51949e-05
6.99613e-05
7.32511e-05
7.32631e-05
6.52456e-05
7.41878e-05
7.41839e-05
6.51913e-05
6.99585e-05
7.32434e-05
6.52433e-05
7.32552e-05
7.41446e-05
7.42482e-05
7.3271e-05
6.99807e-05
6.53111e-05
7.32656e-05
6.52719e-05
7.42736e-05
7.42044e-05
7.32629e-05
6.99761e-05
6.53081e-05
6.52684e-05
7.32576e-05
7.4229e-05
9.50371e-05
7.34578e-05
7.34644e-05
7.34676e-05
7.34741e-05
9.50149e-05
7.11612e-05
7.11626e-05
7.11776e-05
7.11778e-05
9.50652e-05
7.34727e-05
7.3479e-05
9.50673e-05
7.34791e-05
7.34853e-05
7.42942e-05
6.53668e-05
7.00068e-05
7.32742e-05
6.53583e-05
7.32727e-05
7.42943e-05
7.42491e-05
6.53622e-05
7.00022e-05
7.32661e-05
7.32646e-05
6.53538e-05
7.42489e-05
7.42934e-05
7.32711e-05
6.53277e-05
7.00066e-05
6.53519e-05
7.42829e-05
7.32733e-05
7.42483e-05
7.32631e-05
6.53237e-05
7.00023e-05
7.42384e-05
7.32652e-05
6.5348e-05
9.50573e-05
7.34831e-05
7.34892e-05
7.34767e-05
7.34829e-05
9.50365e-05
7.11778e-05
7.11777e-05
7.18205e-05
7.16098e-05
7.16001e-05
6.85469e-05
7.15778e-05
7.15899e-05
7.18305e-05
7.1657e-05
7.34158e-05
7.97253e-05
7.97584e-05
7.1643e-05
7.16577e-05
7.97916e-05
7.34204e-05
7.9771e-05
7.1669e-05
7.18167e-05
6.853e-05
7.15285e-05
7.15729e-05
7.15628e-05
7.15855e-05
7.18042e-05
7.18217e-05
7.16177e-05
7.16007e-05
6.85503e-05
7.15862e-05
7.15906e-05
7.18314e-05
7.16579e-05
7.34212e-05
7.97525e-05
7.97812e-05
7.16441e-05
7.16578e-05
7.98104e-05
7.34252e-05
7.97943e-05
7.16693e-05
7.18181e-05
6.85336e-05
7.15353e-05
7.15738e-05
7.15711e-05
7.15863e-05
7.18057e-05
7.18412e-05
7.16189e-05
7.16033e-05
6.8618e-05
7.18332e-05
7.16368e-05
7.16113e-05
7.16783e-05
7.3437e-05
7.98044e-05
7.98028e-05
7.16884e-05
7.16789e-05
7.97962e-05
7.34361e-05
7.16687e-05
7.98035e-05
7.18435e-05
6.8623e-05
7.16447e-05
7.16216e-05
7.16388e-05
7.1614e-05
7.18514e-05
7.18417e-05
7.16264e-05
7.16039e-05
6.86211e-05
7.18339e-05
7.1643e-05
7.16118e-05
7.16775e-05
7.34385e-05
7.98198e-05
7.98203e-05
7.1688e-05
7.1679e-05
7.98154e-05
7.34379e-05
7.16683e-05
7.98205e-05
7.18439e-05
6.86258e-05
7.16495e-05
7.16221e-05
7.16446e-05
7.16145e-05
7.18518e-05
7.11608e-05
7.11619e-05
7.11636e-05
7.11647e-05
9.50598e-05
7.34777e-05
7.34712e-05
9.50652e-05
7.34838e-05
7.34774e-05
7.42483e-05
6.5361e-05
7.00017e-05
7.32635e-05
7.42466e-05
6.53552e-05
7.32621e-05
7.42954e-05
6.53693e-05
7.00128e-05
7.3274e-05
7.42939e-05
6.53634e-05
7.32726e-05
7.42486e-05
7.32612e-05
6.53295e-05
7.00031e-05
7.4241e-05
6.5351e-05
7.3263e-05
7.42956e-05
7.32714e-05
6.53372e-05
7.00139e-05
7.42878e-05
6.53591e-05
7.32733e-05
9.50476e-05
7.3488e-05
7.34818e-05
9.50255e-05
7.34814e-05
7.34752e-05
7.1176e-05
7.1176e-05
7.1179e-05
7.11789e-05
7.16972e-05
7.98009e-05
7.34427e-05
7.16868e-05
7.98001e-05
7.18635e-05
6.86372e-05
7.16247e-05
7.16458e-05
7.18547e-05
7.16332e-05
7.16495e-05
7.34456e-05
7.11915e-05
7.11945e-05
3.14114e-05
3.14123e-05
3.86094e-05
3.15213e-05
3.15228e-05
2.24171e-05
2.22923e-05
6.59374e-05
5.93993e-05
5.94016e-05
5.34102e-05
5.94234e-05
5.94251e-05
6.58922e-05
6.6059e-05
5.96455e-05
5.96462e-05
5.37152e-05
6.60612e-05
5.96445e-05
5.96452e-05
6.59177e-05
5.93711e-05
5.93732e-05
5.33822e-05
5.93985e-05
5.94e-05
6.58657e-05
6.60664e-05
5.36767e-05
5.96344e-05
5.96349e-05
5.96287e-05
5.96293e-05
6.60777e-05
6.59362e-05
5.93892e-05
5.93926e-05
5.34e-05
5.94198e-05
5.94163e-05
6.58866e-05
6.60642e-05
5.36779e-05
5.96306e-05
5.96321e-05
5.96276e-05
5.96291e-05
6.60701e-05
6.59284e-05
5.93945e-05
5.93978e-05
5.34062e-05
5.94191e-05
5.94155e-05
6.58849e-05
6.60515e-05
5.36633e-05
5.96171e-05
5.96199e-05
5.96131e-05
5.96159e-05
6.60603e-05
6.60551e-05
5.36713e-05
5.96229e-05
5.96235e-05
6.60611e-05
5.96201e-05
5.96209e-05
3.14172e-05
3.14189e-05
3.86241e-05
3.15273e-05
3.15301e-05
2.24199e-05
2.2295e-05
3.14256e-05
3.14275e-05
3.86302e-05
3.15358e-05
3.15386e-05
2.24256e-05
2.22989e-05
3.14249e-05
3.14259e-05
3.8633e-05
3.15368e-05
3.15383e-05
2.24252e-05
2.22986e-05
3.87438e-05
3.18053e-05
3.18032e-05
3.16537e-05
3.16537e-05
2.25469e-05
2.26914e-05
3.87572e-05
3.18108e-05
3.18137e-05
3.16598e-05
3.16631e-05
2.25503e-05
2.26954e-05
3.87568e-05
3.18112e-05
3.18142e-05
3.16648e-05
3.16682e-05
2.25561e-05
2.26996e-05
3.87639e-05
3.18196e-05
3.18173e-05
3.16697e-05
3.16698e-05
2.25566e-05
2.27016e-05
5.62582e-05
6.23398e-05
5.49711e-05
6.05775e-05
6.22892e-05
5.49565e-05
5.62645e-05
5.73078e-05
6.03078e-05
6.48007e-05
6.41288e-05
6.03348e-05
6.41799e-05
5.72932e-05
5.73815e-05
6.42507e-05
6.48245e-05
6.04217e-05
6.03994e-05
6.42072e-05
5.73974e-05
5.61872e-05
6.05523e-05
6.22212e-05
5.48888e-05
6.22644e-05
5.48925e-05
5.61891e-05
5.62567e-05
5.49717e-05
6.23293e-05
6.05772e-05
5.49591e-05
6.22826e-05
5.62606e-05
5.73067e-05
6.03083e-05
6.47908e-05
6.41238e-05
6.03307e-05
6.41666e-05
5.72959e-05
5.73732e-05
6.42348e-05
6.48123e-05
6.04085e-05
6.03876e-05
6.41906e-05
5.73871e-05
5.61896e-05
6.05541e-05
5.48937e-05
6.2222e-05
5.48971e-05
6.22602e-05
5.61922e-05
6.59706e-05
5.34983e-05
5.95126e-05
5.95135e-05
5.94921e-05
5.94934e-05
6.60047e-05
6.59579e-05
5.34758e-05
5.95012e-05
5.95015e-05
6.59994e-05
5.94752e-05
5.9476e-05
6.60526e-05
5.36e-05
5.95669e-05
5.95675e-05
6.60266e-05
5.95823e-05
5.95827e-05
5.62419e-05
6.23279e-05
5.49585e-05
6.0566e-05
6.22741e-05
5.49431e-05
5.62497e-05
5.72882e-05
6.02862e-05
6.47851e-05
6.4108e-05
6.41589e-05
6.03139e-05
5.72737e-05
5.73623e-05
6.42375e-05
6.48114e-05
6.04073e-05
6.41885e-05
6.0381e-05
5.73807e-05
5.61713e-05
6.054e-05
6.22055e-05
5.48768e-05
6.22483e-05
5.48798e-05
5.61734e-05
5.62502e-05
6.23355e-05
5.49614e-05
6.05687e-05
6.22828e-05
5.49462e-05
5.62573e-05
5.73009e-05
6.03029e-05
6.48003e-05
6.41231e-05
6.41748e-05
6.03301e-05
5.72863e-05
5.73749e-05
6.42495e-05
6.48243e-05
6.04188e-05
6.42033e-05
5.73918e-05
6.03957e-05
5.61797e-05
6.05428e-05
6.22143e-05
5.48799e-05
6.22572e-05
5.48828e-05
5.61818e-05
5.63412e-05
6.23514e-05
5.50413e-05
6.06973e-05
5.63353e-05
6.23949e-05
5.50573e-05
5.75223e-05
6.05208e-05
6.48856e-05
6.43062e-05
6.05149e-05
6.42952e-05
5.75229e-05
5.74666e-05
6.4257e-05
6.04629e-05
6.48812e-05
6.04786e-05
5.74556e-05
6.42869e-05
5.6414e-05
6.07141e-05
6.24298e-05
5.51399e-05
6.2408e-05
5.51336e-05
5.64116e-05
5.63458e-05
6.23582e-05
5.50438e-05
6.06988e-05
5.63412e-05
6.23998e-05
5.50593e-05
5.75235e-05
6.05192e-05
6.48867e-05
6.43091e-05
6.43007e-05
6.05155e-05
5.75229e-05
5.74722e-05
6.4267e-05
6.04706e-05
6.48842e-05
5.74635e-05
6.42939e-05
6.04833e-05
5.64162e-05
6.07154e-05
6.24325e-05
5.51408e-05
6.2412e-05
5.51349e-05
5.64133e-05
6.59737e-05
5.34938e-05
5.95141e-05
5.95171e-05
5.94947e-05
5.94915e-05
6.60101e-05
6.60543e-05
5.36084e-05
5.95747e-05
5.95769e-05
5.95867e-05
6.60336e-05
5.95888e-05
5.6247e-05
6.23293e-05
5.49618e-05
6.05693e-05
6.2278e-05
5.4948e-05
5.62534e-05
5.72928e-05
6.02916e-05
6.47879e-05
6.41157e-05
6.4164e-05
6.0318e-05
5.72792e-05
5.73654e-05
6.42416e-05
6.48139e-05
6.04083e-05
6.41925e-05
6.03832e-05
5.73828e-05
5.61775e-05
6.05453e-05
6.22128e-05
5.4883e-05
6.22535e-05
5.48859e-05
5.61799e-05
5.62491e-05
5.49621e-05
6.23249e-05
6.05692e-05
5.49491e-05
6.22769e-05
5.62534e-05
5.73e-05
6.03033e-05
6.47875e-05
6.41187e-05
6.41623e-05
6.03255e-05
5.7289e-05
5.73667e-05
6.42325e-05
6.48107e-05
6.04037e-05
6.41873e-05
5.73811e-05
6.03826e-05
5.61822e-05
6.0546e-05
5.48852e-05
6.22157e-05
5.48879e-05
6.22542e-05
5.61851e-05
5.63415e-05
6.23522e-05
5.5041e-05
6.06938e-05
5.63365e-05
6.23951e-05
5.50557e-05
5.75226e-05
6.05224e-05
6.48889e-05
6.43119e-05
6.05166e-05
6.43003e-05
5.75232e-05
5.74671e-05
6.42611e-05
6.04644e-05
6.48841e-05
6.04797e-05
5.74566e-05
6.42915e-05
5.64133e-05
6.07114e-05
6.24322e-05
5.51369e-05
6.24088e-05
5.51304e-05
5.6411e-05
5.63359e-05
5.50399e-05
6.23464e-05
6.0691e-05
5.63324e-05
5.5054e-05
6.23871e-05
5.75097e-05
6.05068e-05
6.48756e-05
6.42954e-05
6.42856e-05
6.05023e-05
5.75095e-05
5.74578e-05
6.42502e-05
6.04547e-05
6.48718e-05
5.74493e-05
6.4278e-05
6.04682e-05
5.64052e-05
6.07083e-05
5.51337e-05
6.24223e-05
5.51276e-05
6.24e-05
5.64025e-05
5.6256e-05
5.49701e-05
6.23344e-05
6.0576e-05
5.49557e-05
6.2285e-05
5.62618e-05
5.73072e-05
6.03095e-05
6.47973e-05
6.41244e-05
6.03342e-05
6.41723e-05
5.7294e-05
5.73777e-05
6.42413e-05
6.48192e-05
6.04161e-05
6.03947e-05
6.41983e-05
5.73927e-05
5.61864e-05
6.05512e-05
5.48884e-05
6.22191e-05
5.48921e-05
6.22609e-05
5.61884e-05
5.63492e-05
6.2361e-05
5.50512e-05
6.07001e-05
5.63462e-05
6.23994e-05
5.5065e-05
5.75229e-05
6.05171e-05
6.48817e-05
6.43047e-05
5.75219e-05
6.0514e-05
6.42974e-05
5.74742e-05
6.42669e-05
6.04716e-05
6.48796e-05
5.74669e-05
6.04835e-05
6.42916e-05
5.64164e-05
6.07152e-05
6.24288e-05
5.51409e-05
5.64127e-05
6.24104e-05
5.51367e-05
5.6345e-05
5.50497e-05
6.23553e-05
6.06979e-05
5.63421e-05
5.50634e-05
6.23936e-05
5.75159e-05
6.05101e-05
6.48762e-05
6.42954e-05
6.42879e-05
6.05069e-05
5.75149e-05
5.74676e-05
6.42573e-05
6.04649e-05
6.48742e-05
5.74604e-05
6.4282e-05
6.04767e-05
5.64118e-05
6.0713e-05
5.5139e-05
6.24231e-05
5.51348e-05
6.24046e-05
5.64082e-05
6.59607e-05
5.34888e-05
5.94998e-05
5.95033e-05
5.94833e-05
5.94798e-05
6.59958e-05
6.60405e-05
5.35934e-05
5.95582e-05
5.95615e-05
5.95709e-05
6.60183e-05
5.9574e-05
5.62616e-05
5.49737e-05
6.23374e-05
6.05795e-05
5.49607e-05
6.22903e-05
5.62663e-05
5.7313e-05
6.03158e-05
6.48028e-05
6.41343e-05
6.03398e-05
6.41813e-05
5.73001e-05
5.73827e-05
6.42478e-05
6.48241e-05
6.04196e-05
6.0399e-05
6.42067e-05
5.73967e-05
5.61925e-05
6.05564e-05
5.4894e-05
6.22265e-05
5.48979e-05
6.22673e-05
5.61944e-05
5.63403e-05
5.50476e-05
6.23498e-05
6.06928e-05
5.6338e-05
5.50601e-05
6.2388e-05
5.75119e-05
6.05086e-05
6.48758e-05
6.42951e-05
5.75114e-05
6.05042e-05
6.42858e-05
5.74618e-05
6.42518e-05
6.04585e-05
6.48728e-05
5.74541e-05
6.04715e-05
6.42789e-05
5.6407e-05
6.07084e-05
5.51343e-05
6.24204e-05
5.64037e-05
5.51299e-05
6.24e-05
5.63457e-05
5.50499e-05
6.23574e-05
6.06951e-05
5.63439e-05
5.50623e-05
6.23941e-05
5.75165e-05
6.05126e-05
6.4881e-05
6.43e-05
6.42929e-05
6.05095e-05
5.75153e-05
5.74692e-05
6.42633e-05
6.0468e-05
6.4879e-05
5.74627e-05
6.4287e-05
6.04795e-05
5.6411e-05
6.07104e-05
5.51358e-05
6.24238e-05
5.51317e-05
6.24051e-05
5.64073e-05
6.6046e-05
5.36044e-05
5.957e-05
5.9571e-05
6.60261e-05
5.95813e-05
5.9582e-05
5.75438e-05
6.05242e-05
6.4295e-05
6.4876e-05
6.05232e-05
5.75478e-05
6.42988e-05
5.64513e-05
6.07539e-05
5.51891e-05
6.24243e-05
5.51867e-05
5.64592e-05
6.24323e-05
6.05269e-05
6.4881e-05
6.05259e-05
1.82948e-05
3.10253e-05
4.3851e-05
3.87795e-05
2.59368e-05
3.1293e-05
3.04546e-05
3.75615e-05
2.42244e-05
3.95885e-05
3.42501e-05
4.37607e-05
1.8705e-05
4.54342e-05
4.46375e-05
4.88124e-05
1.98999e-05
4.45477e-05
4.24689e-05
4.60649e-05
2.82582e-05
3.87029e-05
4.07936e-05
4.46296e-05
3.12921e-05
3.85936e-05
4.24987e-05
4.39625e-05
3.10353e-05
4.32398e-05
4.35804e-05
4.63356e-05
2.75082e-05
4.50589e-05
4.37437e-05
4.91593e-05
2.64219e-05
4.42965e-05
4.31545e-05
4.78756e-05
2.76844e-05
4.47954e-05
4.49708e-05
4.89907e-05
3.11258e-05
4.62051e-05
4.65181e-05
4.95609e-05
3.15938e-05
4.58706e-05
4.5944e-05
4.87203e-05
3.12705e-05
4.57333e-05
4.57586e-05
4.88485e-05
3.13721e-05
4.68486e-05
4.68639e-05
5.01669e-05
3.29301e-05
4.76994e-05
4.77186e-05
5.06468e-05
3.37012e-05
4.80074e-05
4.79788e-05
5.07919e-05
3.41422e-05
4.84536e-05
4.84586e-05
5.12161e-05
3.48126e-05
4.88989e-05
4.88968e-05
5.15804e-05
3.54675e-05
4.93741e-05
4.93752e-05
5.18845e-05
3.61091e-05
4.97481e-05
4.97742e-05
5.22909e-05
3.66584e-05
5.0138e-05
5.00916e-05
5.25018e-05
3.71283e-05
5.03807e-05
5.04062e-05
5.27231e-05
3.76922e-05
5.07914e-05
5.08032e-05
5.30841e-05
3.81837e-05
5.106e-05
5.10467e-05
5.32439e-05
4.20526e-05
5.09701e-05
3.44235e-05
3.08283e-05
4.31909e-05
3.0938e-05
3.49924e-05
3.52845e-05
3.56871e-05
4.33192e-05
4.32804e-05
3.23663e-05
3.35593e-05
3.09641e-05
3.33366e-05
4.91223e-05
3.11456e-05
3.42274e-05
3.22417e-05
3.35546e-05
3.75443e-05
5.1141e-05
4.19729e-05
4.36214e-05
3.16592e-05
4.0838e-05
3.81372e-05
3.64652e-05
4.3806e-05
4.3537e-05
3.07218e-05
4.01036e-05
3.11438e-05
3.33388e-05
3.71577e-05
3.5767e-05
2.99742e-05
3.86992e-05
3.35016e-05
3.07493e-05
3.47686e-05
4.21438e-05
3.96076e-05
3.3205e-05
3.68169e-05
4.00183e-05
3.21985e-05
4.40453e-05
4.50761e-05
5.01617e-05
3.62765e-05
3.46517e-05
3.2174e-05
4.31394e-05
3.83793e-05
4.48278e-05
4.30254e-05
4.18155e-05
4.99267e-05
3.7437e-05
4.3924e-05
4.30522e-05
4.86526e-05
3.35619e-05
4.25832e-05
3.21732e-05
4.46101e-05
3.65237e-05
4.47947e-05
5.05384e-05
4.92338e-05
3.21603e-05
4.38114e-05
3.6517e-05
4.33482e-05
4.34543e-05
4.54999e-05
4.32777e-05
5.00918e-05
4.61651e-05
4.35552e-05
4.39473e-05
4.32944e-05
4.64371e-05
4.36891e-05
4.77451e-05
3.86651e-05
4.40803e-05
4.30482e-05
3.93365e-05
4.81547e-05
4.2012e-05
3.85895e-05
4.21458e-05
4.30443e-05
4.08614e-05
4.24973e-05
3.92758e-05
4.07727e-05
4.54845e-05
4.42349e-05
4.24154e-05
4.07906e-05
4.08135e-05
4.46278e-05
4.8596e-05
5.10895e-05
4.42574e-05
3.88439e-05
4.62134e-05
3.86878e-05
4.18959e-05
4.28341e-05
4.43278e-05
4.08754e-05
4.64184e-05
4.24224e-05
4.04414e-05
3.84559e-05
3.99798e-05
4.46874e-05
4.69492e-05
4.05581e-05
4.20527e-05
4.01981e-05
4.3964e-05
5.11952e-05
4.93686e-05
4.63455e-05
3.89255e-05
4.60066e-05
4.24958e-05
4.32461e-05
4.68501e-05
4.65547e-05
4.2988e-05
4.61975e-05
4.37737e-05
3.99656e-05
4.19516e-05
4.04958e-05
4.7208e-05
4.75935e-05
4.01851e-05
4.3337e-05
4.06995e-05
4.52276e-05
4.90065e-05
4.57993e-05
4.52193e-05
4.35768e-05
4.28133e-05
4.48623e-05
4.75828e-05
4.89922e-05
4.53542e-05
4.38709e-05
4.27417e-05
4.38667e-05
4.19596e-05
4.50195e-05
4.49657e-05
4.76856e-05
4.74992e-05
4.20914e-05
4.38215e-05
4.48572e-05
4.91338e-05
4.56078e-05
4.48642e-05
4.22974e-05
4.4869e-05
4.18035e-05
4.41916e-05
4.89901e-05
4.75266e-05
4.21998e-05
4.35994e-05
4.16946e-05
4.29157e-05
4.51055e-05
4.44325e-05
4.47223e-05
4.73392e-05
4.62475e-05
4.49749e-05
4.31768e-05
4.46008e-05
4.78827e-05
4.49783e-05
4.83103e-05
4.18065e-05
4.40841e-05
4.37377e-05
4.42198e-05
4.75137e-05
4.83048e-05
4.16979e-05
4.28955e-05
4.37037e-05
4.3872e-05
4.46092e-05
4.43795e-05
4.47008e-05
4.62657e-05
4.84197e-05
4.45075e-05
4.39939e-05
4.46366e-05
4.86458e-05
4.89662e-05
5.01528e-05
4.48506e-05
4.47327e-05
4.6532e-05
4.61615e-05
4.87368e-05
4.97581e-05
4.48637e-05
4.49435e-05
4.65762e-05
4.65122e-05
4.50644e-05
4.61053e-05
4.59793e-05
4.90366e-05
5.01325e-05
4.50582e-05
4.6444e-05
4.60197e-05
4.95761e-05
5.01683e-05
4.93578e-05
4.66491e-05
4.62686e-05
4.64919e-05
4.6114e-05
4.97775e-05
4.89694e-05
4.66889e-05
4.65899e-05
4.65079e-05
4.62377e-05
4.60289e-05
4.60452e-05
4.58118e-05
5.01262e-05
4.90095e-05
4.60671e-05
4.61711e-05
4.58287e-05
4.87328e-05
4.93042e-05
4.89887e-05
4.62462e-05
4.59305e-05
4.59573e-05
4.57707e-05
4.89346e-05
4.87836e-05
4.62535e-05
4.59998e-05
4.59588e-05
4.57917e-05
4.56957e-05
4.5728e-05
4.56189e-05
4.89666e-05
4.8805e-05
4.57069e-05
4.57544e-05
4.56259e-05
4.87137e-05
4.90306e-05
4.9606e-05
4.5945e-05
4.57736e-05
4.62198e-05
4.64172e-05
4.88805e-05
4.98123e-05
4.59463e-05
4.57938e-05
4.62177e-05
4.64346e-05
4.56409e-05
4.64519e-05
4.65703e-05
4.89057e-05
4.98352e-05
4.56471e-05
4.64689e-05
4.65672e-05
4.9941e-05
4.98722e-05
5.06433e-05
4.66495e-05
4.681e-05
4.76095e-05
4.75697e-05
5.00606e-05
5.05564e-05
4.66466e-05
4.68246e-05
4.76092e-05
4.75882e-05
4.69419e-05
4.75815e-05
4.76213e-05
5.00807e-05
5.0571e-05
4.69386e-05
4.76034e-05
4.7622e-05
5.05843e-05
5.07345e-05
5.08503e-05
4.77836e-05
4.7698e-05
4.80272e-05
4.79404e-05
5.06251e-05
5.07618e-05
4.77843e-05
4.77137e-05
4.80243e-05
4.79178e-05
4.77336e-05
4.79243e-05
4.79091e-05
5.06369e-05
5.07412e-05
4.77353e-05
4.79033e-05
4.79063e-05
5.07381e-05
5.08861e-05
5.10281e-05
4.80692e-05
4.80234e-05
4.82684e-05
4.83323e-05
5.08289e-05
5.11077e-05
4.8065e-05
4.79937e-05
4.82663e-05
4.83278e-05
4.79704e-05
4.83347e-05
4.83193e-05
5.08017e-05
5.11066e-05
4.79659e-05
4.83322e-05
4.83175e-05
5.11012e-05
5.1116e-05
5.14813e-05
4.83806e-05
4.8444e-05
4.87871e-05
4.87762e-05
5.11966e-05
5.14626e-05
4.83797e-05
4.84466e-05
4.87869e-05
4.87721e-05
4.84692e-05
4.87877e-05
4.88356e-05
5.12032e-05
5.14601e-05
4.84686e-05
4.87852e-05
4.88356e-05
5.15151e-05
5.15767e-05
5.1824e-05
4.8913e-05
4.88923e-05
4.92331e-05
4.92628e-05
5.15467e-05
5.18567e-05
4.89133e-05
4.8889e-05
4.92321e-05
4.92652e-05
4.89251e-05
4.9259e-05
4.92114e-05
5.15406e-05
5.1861e-05
4.89255e-05
4.9263e-05
4.92107e-05
5.17941e-05
5.19003e-05
5.21897e-05
4.93394e-05
4.93778e-05
4.96771e-05
4.96565e-05
5.19438e-05
5.21622e-05
4.93371e-05
4.93768e-05
4.96774e-05
4.96718e-05
4.93288e-05
4.96579e-05
4.96928e-05
5.195e-05
5.218e-05
4.93268e-05
4.96747e-05
4.96934e-05
5.22122e-05
5.22705e-05
5.24448e-05
4.97826e-05
4.97453e-05
5.00349e-05
5.00465e-05
5.22287e-05
5.24637e-05
4.97862e-05
4.97704e-05
5.0036e-05
5.00252e-05
4.98001e-05
5.00492e-05
5.00476e-05
5.22491e-05
5.24328e-05
4.98038e-05
5.00299e-05
5.0049e-05
5.24551e-05
5.24933e-05
5.26461e-05
5.00987e-05
5.01363e-05
5.02994e-05
5.03174e-05
5.25314e-05
5.26684e-05
5.00945e-05
5.00874e-05
5.0292e-05
5.03028e-05
5.01084e-05
5.03182e-05
5.03027e-05
5.24861e-05
5.26587e-05
5.01041e-05
5.03051e-05
5.02955e-05
5.26477e-05
5.27231e-05
5.30261e-05
5.03899e-05
5.03795e-05
5.07066e-05
5.06762e-05
5.27207e-05
5.29877e-05
5.03889e-05
5.04041e-05
5.07141e-05
5.07135e-05
5.03917e-05
5.0677e-05
5.06987e-05
5.27404e-05
5.30208e-05
5.03907e-05
5.0715e-05
5.07073e-05
5.3016e-05
5.30952e-05
5.32133e-05
5.08099e-05
5.07912e-05
5.10224e-05
5.10327e-05
5.3074e-05
5.32266e-05
5.08142e-05
5.08018e-05
5.10177e-05
5.10072e-05
5.07992e-05
5.10318e-05
5.10191e-05
5.30817e-05
5.32029e-05
5.08041e-05
5.10087e-05
5.10145e-05
5.32113e-05
5.32411e-05
5.32981e-05
5.10474e-05
5.10612e-05
5.11242e-05
5.11376e-05
5.32563e-05
5.33135e-05
5.10425e-05
5.10448e-05
5.11292e-05
5.11539e-05
5.10507e-05
5.11426e-05
5.11528e-05
5.32386e-05
5.33311e-05
5.10465e-05
5.11586e-05
5.11552e-05
5.33272e-05
6.5219e-05
7.24337e-05
7.23896e-05
6.43628e-05
6.89146e-05
6.92507e-05
6.44523e-05
7.20215e-05
7.19503e-05
6.47321e-05
1.66021e-05
2.66791e-05
1.82587e-05
2.50341e-05
1.64963e-05
2.1522e-05
1.83383e-05
5.18298e-05
5.69214e-05
2.62219e-05
3.09276e-05
5.6751e-05
2.62006e-05
5.20321e-05
6.76509e-05
6.77924e-05
5.16832e-05
3.26773e-05
5.99269e-05
4.11218e-05
3.23783e-05
5.55163e-05
5.44902e-05
6.45792e-05
6.41314e-05
3.79371e-05
6.43841e-05
6.32888e-05
6.49814e-05
7.10131e-05
6.57956e-05
7.0168e-05
6.95861e-05
6.98687e-05
6.41651e-05
7.09683e-05
6.42445e-05
7.03491e-05
1.65452e-05
1.94345e-05
1.83763e-05
2.57713e-05
2.00614e-05
1.78082e-05
1.92592e-05
5.25223e-05
5.83778e-05
2.62478e-05
3.24855e-05
5.19226e-05
5.93403e-05
2.64476e-05
6.90999e-05
6.99501e-05
4.9824e-05
2.70853e-05
5.34625e-05
2.99089e-05
4.96029e-05
2.63804e-05
5.62403e-05
6.46338e-05
6.34618e-05
3.81079e-05
6.61282e-05
6.57305e-05
6.38499e-05
7.01886e-05
6.37627e-05
7.08398e-05
7.0502e-05
7.07018e-05
6.46292e-05
7.03174e-05
6.41379e-05
7.08038e-05
2.24831e-05
1.80373e-05
2.09631e-05
1.91641e-05
2.81171e-05
2.53812e-05
2.61258e-05
5.56904e-05
6.16518e-05
3.03242e-05
4.18496e-05
5.42188e-05
6.33994e-05
3.21976e-05
7.05414e-05
7.04838e-05
5.63347e-05
2.66554e-05
6.20426e-05
3.90801e-05
5.4237e-05
2.8432e-05
6.39473e-05
6.88809e-05
6.92909e-05
4.68219e-05
6.99063e-05
7.03616e-05
6.61398e-05
7.16089e-05
6.56893e-05
7.17461e-05
7.02934e-05
6.9735e-05