/*--------------------------------*- C++ -*----------------------------------*\
| =========                 |                                                 |
| \\      /  F ield         | OpenFOAM: The Open Source CFD Toolbox           |
|  \\    /   O peration     | Version:  v1906                                 |
|   \\  /    A nd           | Web:      www.OpenFOAM.com                      |
|    \\/     M anipulation  |                                                 |
\*---------------------------------------------------------------------------*/
FoamFile
{
    version     2.0;
    format      ascii;
    class       volScalarField;
    location    "1000";
    object      k;
}
// * * * * * * * * * * * * * * * * * * * * * * * * * * * * * * * * * * * * * //

dimensions      [0 2 -2 0 0 0 0];


internalField   nonuniform List<scalar> 
43024
(
3.58932e-05
3.58912e-05
3.58912e-05
3.59957e-05
3.39296e-05
3.3889e-05
3.3889e-05
3.39622e-05
3.21578e-05
3.20081e-05
3.20081e-05
3.19522e-05
3.05346e-05
3.02293e-05
3.02292e-05
2.99884e-05
2.90329e-05
2.8554e-05
2.85539e-05
2.81226e-05
2.76353e-05
2.69872e-05
2.69871e-05
2.63907e-05
2.63308e-05
2.5531e-05
2.55309e-05
2.48073e-05
2.51112e-05
2.4185e-05
2.41848e-05
2.33782e-05
2.39709e-05
2.29506e-05
2.29504e-05
2.21047e-05
2.29058e-05
2.18269e-05
2.18267e-05
2.0986e-05
2.1912e-05
2.08114e-05
2.08112e-05
2.00133e-05
2.09864e-05
1.99012e-05
1.99011e-05
1.91814e-05
2.01241e-05
1.90946e-05
1.90945e-05
1.84895e-05
1.93238e-05
1.83885e-05
1.83883e-05
1.7933e-05
1.85847e-05
1.77792e-05
1.77791e-05
1.75062e-05
1.79042e-05
1.72656e-05
1.72658e-05
1.72003e-05
1.72799e-05
1.68467e-05
1.68468e-05
1.70233e-05
1.67097e-05
1.65212e-05
1.65214e-05
1.69823e-05
1.61924e-05
1.62897e-05
1.62899e-05
1.70797e-05
1.57255e-05
1.6152e-05
1.61523e-05
1.73054e-05
1.53073e-05
1.61073e-05
1.61079e-05
1.76565e-05
3.63068e-05
3.6291e-05
3.6291e-05
3.63068e-05
3.6291e-05
3.6291e-05
3.6423e-05
3.6423e-05
3.6423e-05
3.6423e-05
3.6291e-05
3.6291e-05
3.63068e-05
3.6291e-05
3.6291e-05
3.63068e-05
3.59957e-05
3.42687e-05
3.58912e-05
3.58912e-05
3.43767e-05
3.43766e-05
3.59957e-05
3.42687e-05
3.58911e-05
3.58912e-05
3.43767e-05
3.43766e-05
3.58912e-05
3.43767e-05
3.43767e-05
3.59957e-05
3.42687e-05
3.58912e-05
3.43767e-05
3.43767e-05
3.42687e-05
3.39623e-05
3.22635e-05
3.38889e-05
3.38889e-05
3.24684e-05
3.24683e-05
3.39623e-05
3.22635e-05
3.38889e-05
3.38889e-05
3.24684e-05
3.24683e-05
3.38889e-05
3.24685e-05
3.24684e-05
3.39623e-05
3.22634e-05
3.38889e-05
3.24685e-05
3.24684e-05
3.22634e-05
3.19522e-05
3.02993e-05
3.20079e-05
3.20078e-05
3.06643e-05
3.06642e-05
3.19522e-05
3.02994e-05
3.2008e-05
3.20078e-05
3.06644e-05
3.06641e-05
3.20079e-05
3.06646e-05
3.06643e-05
3.19522e-05
3.02992e-05
3.2008e-05
3.06645e-05
3.06644e-05
3.02992e-05
2.99885e-05
2.84253e-05
3.0229e-05
3.02288e-05
2.89624e-05
2.89622e-05
2.99886e-05
2.84255e-05
3.02291e-05
3.02287e-05
2.89626e-05
2.89621e-05
3.02289e-05
2.89628e-05
2.89623e-05
2.99884e-05
2.84252e-05
3.02291e-05
2.89627e-05
2.89626e-05
2.84252e-05
2.81227e-05
2.6674e-05
2.85536e-05
2.85534e-05
2.7368e-05
2.73678e-05
2.81228e-05
2.66742e-05
2.85538e-05
2.85533e-05
2.73683e-05
2.73676e-05
2.85535e-05
2.73685e-05
2.73679e-05
2.81226e-05
2.66739e-05
2.85538e-05
2.73684e-05
2.73683e-05
2.66738e-05
2.63908e-05
2.50663e-05
2.69866e-05
2.69864e-05
2.58841e-05
2.58838e-05
2.6391e-05
2.50665e-05
2.69869e-05
2.69862e-05
2.58845e-05
2.58836e-05
2.69865e-05
2.58848e-05
2.5884e-05
2.63907e-05
2.50661e-05
2.69869e-05
2.58846e-05
2.58844e-05
2.50661e-05
2.48075e-05
2.36125e-05
2.55303e-05
2.553e-05
2.45103e-05
2.45099e-05
2.48077e-05
2.36127e-05
2.55308e-05
2.55299e-05
2.45107e-05
2.45097e-05
2.55302e-05
2.45111e-05
2.45102e-05
2.48074e-05
2.36123e-05
2.55307e-05
2.45108e-05
2.45107e-05
2.36123e-05
2.33784e-05
2.23124e-05
2.41842e-05
2.41838e-05
2.32478e-05
2.32475e-05
2.33786e-05
2.23126e-05
2.41847e-05
2.41836e-05
2.32484e-05
2.32473e-05
2.41841e-05
2.32488e-05
2.32478e-05
2.33782e-05
2.23122e-05
2.41846e-05
2.32485e-05
2.32484e-05
2.23122e-05
2.21049e-05
2.11681e-05
2.29497e-05
2.29494e-05
2.20966e-05
2.20962e-05
2.21051e-05
2.11683e-05
2.29503e-05
2.29491e-05
2.20972e-05
2.2096e-05
2.29496e-05
2.20976e-05
2.20965e-05
2.21047e-05
2.11678e-05
2.29503e-05
2.20973e-05
2.20972e-05
2.11678e-05
2.09863e-05
2.01707e-05
2.18259e-05
2.18255e-05
2.10542e-05
2.10538e-05
2.09865e-05
2.01709e-05
2.18266e-05
2.18253e-05
2.10549e-05
2.10536e-05
2.18258e-05
2.10552e-05
2.10541e-05
2.09861e-05
2.01705e-05
2.18266e-05
2.1055e-05
2.10549e-05
2.01704e-05
2.00137e-05
1.93146e-05
2.08103e-05
2.081e-05
2.0118e-05
2.01177e-05
2.00138e-05
1.93148e-05
2.08111e-05
2.08097e-05
2.01188e-05
2.01174e-05
2.08102e-05
2.01191e-05
2.01179e-05
2.00134e-05
1.93144e-05
2.0811e-05
2.01189e-05
2.01188e-05
1.93143e-05
1.91817e-05
1.85904e-05
1.99001e-05
1.98998e-05
1.92855e-05
1.92853e-05
1.91818e-05
1.85906e-05
1.9901e-05
1.98996e-05
1.92864e-05
1.92851e-05
1.99001e-05
1.92867e-05
1.92855e-05
1.91815e-05
1.85902e-05
1.9901e-05
1.92865e-05
1.92864e-05
1.859e-05
1.84898e-05
1.79976e-05
1.90936e-05
1.90932e-05
1.85545e-05
1.85542e-05
1.84899e-05
1.79978e-05
1.90945e-05
1.90931e-05
1.85553e-05
1.8554e-05
1.90935e-05
1.85555e-05
1.85545e-05
1.84897e-05
1.79975e-05
1.90944e-05
1.85554e-05
1.85553e-05
1.79974e-05
1.79332e-05
1.75393e-05
1.83874e-05
1.83872e-05
1.79215e-05
1.79211e-05
1.79333e-05
1.75393e-05
1.83882e-05
1.83869e-05
1.79223e-05
1.7921e-05
1.83873e-05
1.79224e-05
1.79214e-05
1.79331e-05
1.75391e-05
1.83882e-05
1.79223e-05
1.79223e-05
1.7539e-05
1.75066e-05
1.72178e-05
1.77782e-05
1.7778e-05
1.73839e-05
1.73837e-05
1.75065e-05
1.72177e-05
1.7779e-05
1.77779e-05
1.73846e-05
1.73834e-05
1.77781e-05
1.73848e-05
1.73839e-05
1.75063e-05
1.72176e-05
1.7779e-05
1.73846e-05
1.73848e-05
1.72175e-05
1.72005e-05
1.70268e-05
1.72648e-05
1.72646e-05
1.69413e-05
1.69411e-05
1.72004e-05
1.70266e-05
1.72656e-05
1.72646e-05
1.6942e-05
1.69413e-05
1.72648e-05
1.6942e-05
1.69413e-05
1.72003e-05
1.70267e-05
1.72656e-05
1.69422e-05
1.6942e-05
1.70266e-05
1.70235e-05
1.69731e-05
1.6846e-05
1.68458e-05
1.65922e-05
1.65921e-05
1.70233e-05
1.69729e-05
1.68467e-05
1.68459e-05
1.65929e-05
1.65921e-05
1.68461e-05
1.65928e-05
1.65922e-05
1.70235e-05
1.69732e-05
1.68468e-05
1.65929e-05
1.65929e-05
1.69729e-05
1.69825e-05
1.70442e-05
1.65209e-05
1.65206e-05
1.6337e-05
1.63369e-05
1.69822e-05
1.70437e-05
1.65215e-05
1.65206e-05
1.63377e-05
1.6337e-05
1.65206e-05
1.63372e-05
1.6337e-05
1.69825e-05
1.70442e-05
1.65213e-05
1.63375e-05
1.63377e-05
1.70443e-05
1.70799e-05
1.72448e-05
1.62896e-05
1.62894e-05
1.61757e-05
1.61755e-05
1.70791e-05
1.72441e-05
1.62901e-05
1.62895e-05
1.61762e-05
1.61756e-05
1.62894e-05
1.61757e-05
1.61757e-05
1.70797e-05
1.72444e-05
1.62901e-05
1.61759e-05
1.61762e-05
1.72451e-05
1.73054e-05
1.75719e-05
1.61521e-05
1.61519e-05
1.6107e-05
1.61073e-05
1.73043e-05
1.75716e-05
1.61525e-05
1.6152e-05
1.61076e-05
1.61075e-05
1.6152e-05
1.61072e-05
1.61071e-05
1.73046e-05
1.75728e-05
1.61526e-05
1.61078e-05
1.61077e-05
1.7572e-05
1.76562e-05
1.6107e-05
1.61074e-05
1.76563e-05
1.61076e-05
1.61076e-05
1.61072e-05
1.76572e-05
1.61077e-05
3.73773e-05
3.73765e-05
3.7377e-05
3.7377e-05
3.73701e-05
3.73777e-05
3.73043e-05
3.73768e-05
3.73702e-05
3.73777e-05
3.73768e-05
3.73043e-05
3.73741e-05
3.72959e-05
3.72959e-05
3.58798e-05
4.08722e-05
3.66033e-05
4.51466e-05
5.51147e-05
6.48951e-05
3.58803e-05
4.08713e-05
3.66034e-05
4.51465e-05
3.58932e-05
3.58933e-05
3.58932e-05
3.44005e-05
3.44005e-05
3.44005e-05
3.44005e-05
3.52758e-05
3.56384e-05
3.58929e-05
3.53771e-05
3.60475e-05
3.42365e-05
3.53822e-05
5.51168e-05
6.48993e-05
3.52758e-05
3.58929e-05
3.56381e-05
3.53771e-05
3.60475e-05
3.53822e-05
3.42375e-05
3.65971e-05
3.65977e-05
3.5279e-05
3.40642e-05
3.40633e-05
3.39657e-05
5.13536e-05
3.46793e-05
5.46247e-05
7.65448e-05
8.08614e-05
3.39682e-05
5.13545e-05
3.46788e-05
5.46253e-05
3.39296e-05
3.39297e-05
3.39297e-05
3.25855e-05
3.25854e-05
3.25855e-05
3.25855e-05
3.30541e-05
3.24749e-05
3.39295e-05
3.34087e-05
3.38961e-05
3.15754e-05
3.34678e-05
7.65459e-05
8.08655e-05
3.30541e-05
3.39295e-05
3.24739e-05
3.34087e-05
3.38958e-05
3.34678e-05
3.15773e-05
3.17169e-05
3.17163e-05
3.32638e-05
3.09255e-05
3.09239e-05
3.22498e-05
5.91696e-05
3.29238e-05
6.14408e-05
8.43919e-05
8.50677e-05
3.2252e-05
5.91714e-05
3.29217e-05
6.14427e-05
3.21578e-05
3.21578e-05
3.21578e-05
3.09282e-05
3.09282e-05
3.09281e-05
3.09282e-05
3.07893e-05
3.05138e-05
3.21376e-05
3.15541e-05
3.16368e-05
2.98864e-05
3.17101e-05
8.43937e-05
8.50702e-05
3.07892e-05
3.21376e-05
3.05135e-05
3.1554e-05
3.16363e-05
3.17101e-05
2.98874e-05
3.02179e-05
3.02169e-05
3.12731e-05
3.00048e-05
3.00034e-05
3.0753e-05
6.4351e-05
3.13503e-05
6.57272e-05
8.46111e-05
8.39116e-05
3.07539e-05
6.43529e-05
3.13504e-05
6.57308e-05
3.05346e-05
3.05346e-05
3.05346e-05
2.9398e-05
2.9398e-05
2.93979e-05
2.9398e-05
2.86006e-05
2.91415e-05
3.04694e-05
2.98005e-05
2.94131e-05
2.86746e-05
3.00687e-05
8.4611e-05
8.39146e-05
2.86005e-05
3.04694e-05
2.91421e-05
2.98004e-05
2.94126e-05
3.00687e-05
2.86756e-05
2.99417e-05
2.99406e-05
2.93483e-05
3.00363e-05
3.00353e-05
2.95178e-05
6.7319e-05
3.00007e-05
6.80341e-05
8.2213e-05
8.12213e-05
2.95188e-05
6.73213e-05
3.0001e-05
6.80384e-05
2.90329e-05
2.90328e-05
2.90328e-05
2.79756e-05
2.79756e-05
2.79756e-05
2.79756e-05
2.65675e-05
2.8123e-05
2.89027e-05
2.8152e-05
2.73172e-05
2.7781e-05
2.85257e-05
8.22117e-05
8.12238e-05
2.65676e-05
2.89027e-05
2.81234e-05
2.81519e-05
2.73167e-05
2.85256e-05
2.77821e-05
3.04479e-05
3.04471e-05
2.7533e-05
3.0791e-05
3.07897e-05
2.86039e-05
6.87422e-05
2.89474e-05
6.90369e-05
7.94345e-05
7.85338e-05
2.86048e-05
6.8745e-05
2.89476e-05
6.90408e-05
2.76353e-05
2.76353e-05
2.76353e-05
2.66486e-05
2.66487e-05
2.66486e-05
2.66486e-05
2.47435e-05
2.74059e-05
2.74287e-05
2.66128e-05
2.54142e-05
2.71907e-05
2.70743e-05
7.94326e-05
7.85362e-05
2.47437e-05
2.74286e-05
2.74065e-05
2.66126e-05
2.54136e-05
2.70741e-05
2.71919e-05
3.15654e-05
3.15658e-05
2.58511e-05
3.2137e-05
3.21376e-05
2.80582e-05
6.92513e-05
2.82445e-05
6.93115e-05
7.70046e-05
7.62887e-05
2.8059e-05
6.9255e-05
2.82446e-05
6.93152e-05
2.63308e-05
2.63307e-05
2.63307e-05
2.54084e-05
2.54084e-05
2.54083e-05
2.54084e-05
2.31635e-05
2.70012e-05
2.60445e-05
2.51841e-05
2.37464e-05
2.69207e-05
2.57123e-05
7.70029e-05
7.62905e-05
2.31638e-05
2.60444e-05
2.70016e-05
2.51839e-05
2.37457e-05
2.57121e-05
2.69216e-05
3.31939e-05
3.31957e-05
2.432e-05
3.3928e-05
3.39294e-05
2.79138e-05
6.92996e-05
2.79275e-05
6.92723e-05
7.50727e-05
7.45361e-05
2.79141e-05
6.93032e-05
2.79276e-05
6.92759e-05
2.51112e-05
2.51111e-05
2.51111e-05
2.42488e-05
2.42488e-05
2.42486e-05
2.42487e-05
2.18463e-05
2.69344e-05
2.47489e-05
2.38659e-05
2.23369e-05
2.69821e-05
2.44388e-05
7.50717e-05
7.45368e-05
2.18468e-05
2.47488e-05
2.69345e-05
2.38657e-05
2.23365e-05
2.44386e-05
2.69828e-05
3.51958e-05
3.51983e-05
2.29424e-05
3.60357e-05
3.60384e-05
2.81584e-05
6.91971e-05
2.80318e-05
6.91654e-05
7.36076e-05
7.32125e-05
2.81587e-05
6.92014e-05
2.80315e-05
6.91692e-05
2.3971e-05
2.39708e-05
2.39709e-05
2.31652e-05
2.31652e-05
2.3165e-05
2.31651e-05
2.08003e-05
2.72002e-05
2.3541e-05
2.26594e-05
2.1195e-05
2.7355e-05
2.32523e-05
7.36076e-05
7.32128e-05
2.08006e-05
2.35409e-05
2.72003e-05
2.26592e-05
2.11946e-05
2.3252e-05
2.7356e-05
3.74405e-05
3.7444e-05
2.1721e-05
3.83492e-05
3.8354e-05
2.88219e-05
6.9114e-05
2.85543e-05
6.91041e-05
7.25282e-05
7.22428e-05
2.88268e-05
6.91193e-05
2.85547e-05
6.91083e-05
2.29058e-05
2.29056e-05
2.29057e-05
2.21538e-05
2.21538e-05
2.21536e-05
2.21538e-05
2.00274e-05
2.77799e-05
2.24171e-05
2.15629e-05
2.03182e-05
2.80347e-05
2.21492e-05
7.25285e-05
7.22434e-05
2.00274e-05
2.2417e-05
2.77803e-05
2.15627e-05
2.03181e-05
2.2149e-05
2.80357e-05
3.98234e-05
3.98281e-05
2.06511e-05
4.07599e-05
4.07665e-05
2.99355e-05
6.91011e-05
2.94758e-05
6.91171e-05
7.17508e-05
7.15498e-05
2.99343e-05
6.91061e-05
2.94713e-05
6.91203e-05
2.1912e-05
2.19118e-05
2.19119e-05
2.12115e-05
2.12115e-05
2.12113e-05
2.12114e-05
1.95214e-05
2.86493e-05
2.13769e-05
2.05741e-05
1.97026e-05
2.89934e-05
2.113e-05
7.17513e-05
7.15503e-05
1.95213e-05
2.13768e-05
2.86499e-05
2.05739e-05
1.97026e-05
2.11298e-05
2.89948e-05
4.22445e-05
4.22505e-05
1.97251e-05
4.31765e-05
4.31849e-05
3.14392e-05
6.91519e-05
3.08012e-05
6.91873e-05
7.12024e-05
7.1063e-05
3.14413e-05
6.91556e-05
3.08024e-05
6.91931e-05
2.09865e-05
2.09862e-05
2.09864e-05
2.0334e-05
2.0334e-05
2.03338e-05
2.03339e-05
1.928e-05
2.9774e-05
2.042e-05
1.969e-05
1.93514e-05
3.01944e-05
2.01934e-05
7.12029e-05
7.10636e-05
1.92801e-05
2.04198e-05
2.97747e-05
1.96898e-05
1.93512e-05
2.01932e-05
3.01958e-05
4.46176e-05
4.46249e-05
1.89357e-05
4.55217e-05
4.55321e-05
3.33334e-05
6.92453e-05
3.25199e-05
6.92929e-05
7.08195e-05
7.07233e-05
3.3326e-05
6.92514e-05
3.25262e-05
6.92975e-05
2.01241e-05
2.01239e-05
2.0124e-05
1.9518e-05
1.9518e-05
1.95178e-05
1.95179e-05
1.9297e-05
3.11129e-05
1.95433e-05
1.89088e-05
1.92664e-05
3.15948e-05
1.93364e-05
7.082e-05
7.07237e-05
1.92974e-05
1.95432e-05
3.11138e-05
1.89086e-05
1.92664e-05
1.93362e-05
3.15961e-05
4.68759e-05
4.68852e-05
1.82772e-05
4.77313e-05
4.77421e-05
3.55342e-05
6.93575e-05
3.46116e-05
6.94041e-05
7.05508e-05
7.04831e-05
3.55312e-05
6.93627e-05
3.46077e-05
6.94098e-05
1.93239e-05
1.93236e-05
1.93238e-05
1.87639e-05
1.87638e-05
1.87636e-05
1.87638e-05
1.95668e-05
3.26192e-05
1.87441e-05
1.82269e-05
1.94484e-05
3.31453e-05
1.8556e-05
7.05511e-05
7.04835e-05
1.9567e-05
1.87439e-05
3.26201e-05
1.82269e-05
1.94489e-05
1.85559e-05
3.31471e-05
4.89693e-05
4.89781e-05
1.77511e-05
4.97535e-05
4.97661e-05
3.79655e-05
6.94662e-05
3.69646e-05
6.95107e-05
7.03563e-05
7.03067e-05
3.79683e-05
6.94719e-05
3.69643e-05
6.95157e-05
1.85847e-05
1.85845e-05
1.85846e-05
1.80688e-05
1.80688e-05
1.80685e-05
1.80687e-05
2.00911e-05
3.42409e-05
1.80196e-05
1.76417e-05
1.98894e-05
3.47947e-05
1.785e-05
7.03566e-05
7.0307e-05
2.00908e-05
1.80195e-05
3.4242e-05
1.76416e-05
1.989e-05
1.78498e-05
3.47964e-05
5.086e-05
5.087e-05
1.73616e-05
5.15737e-05
5.15867e-05
4.05414e-05
6.95658e-05
3.94992e-05
6.96066e-05
7.02071e-05
7.01682e-05
4.05391e-05
6.95722e-05
3.95009e-05
6.96122e-05
1.79042e-05
1.7904e-05
1.79041e-05
1.74306e-05
1.74306e-05
1.74305e-05
1.74305e-05
2.08648e-05
3.5927e-05
1.73678e-05
1.71516e-05
2.05813e-05
3.64919e-05
1.7216e-05
7.02073e-05
7.01688e-05
2.08656e-05
1.73678e-05
3.59288e-05
1.71516e-05
2.05816e-05
1.72159e-05
3.64934e-05
5.25491e-05
5.25611e-05
1.71057e-05
5.31739e-05
5.31855e-05
4.31534e-05
6.96575e-05
4.20974e-05
6.96942e-05
7.00849e-05
7.00519e-05
4.31586e-05
6.96633e-05
4.20954e-05
6.96998e-05
1.72799e-05
1.72797e-05
1.72799e-05
1.6847e-05
1.6847e-05
1.68468e-05
1.6847e-05
2.18736e-05
3.76295e-05
1.67877e-05
1.67557e-05
2.15145e-05
3.8189e-05
1.66535e-05
7.00851e-05
7.00521e-05
2.18734e-05
1.67876e-05
3.76304e-05
1.67559e-05
2.15146e-05
1.66535e-05
3.81908e-05
5.40206e-05
5.40318e-05
1.69826e-05
5.4577e-05
5.45897e-05
4.5671e-05
6.97418e-05
4.4664e-05
6.97748e-05
6.99782e-05
6.99485e-05
4.56722e-05
6.9747e-05
4.46656e-05
6.97808e-05
1.67097e-05
1.67095e-05
1.67096e-05
1.63166e-05
1.63165e-05
1.63164e-05
1.63165e-05
2.30954e-05
3.93035e-05
1.6277e-05
1.64534e-05
2.26683e-05
3.98482e-05
1.61598e-05
6.99782e-05
6.9949e-05
2.30967e-05
1.62771e-05
3.93054e-05
1.64536e-05
2.26687e-05
1.61598e-05
3.98495e-05
5.53106e-05
5.5324e-05
1.69919e-05
5.57989e-05
5.58101e-05
4.80279e-05
6.98221e-05
4.70798e-05
6.9853e-05
6.9881e-05
6.9854e-05
4.80214e-05
6.9827e-05
4.70881e-05
6.98586e-05
1.61924e-05
1.61923e-05
1.61924e-05
1.58373e-05
1.58373e-05
1.58372e-05
1.58373e-05
2.45011e-05
4.09198e-05
1.58344e-05
1.62448e-05
2.40184e-05
4.14394e-05
1.57341e-05
6.98814e-05
6.98543e-05
2.45016e-05
1.58344e-05
4.0921e-05
1.6245e-05
2.40186e-05
1.57341e-05
4.14404e-05
5.64299e-05
5.64434e-05
1.71279e-05
5.68591e-05
5.687e-05
5.0121e-05
6.98958e-05
4.93036e-05
6.99261e-05
6.97911e-05
6.97663e-05
5.01363e-05
6.99015e-05
4.92913e-05
6.9932e-05
1.57254e-05
1.57253e-05
1.57255e-05
1.54072e-05
1.54072e-05
1.54072e-05
1.54072e-05
2.60499e-05
4.24535e-05
1.54593e-05
1.61297e-05
2.55232e-05
4.29398e-05
1.53759e-05
6.97913e-05
6.97662e-05
2.60496e-05
1.54594e-05
4.24532e-05
1.61301e-05
2.55243e-05
1.53759e-05
4.29438e-05
5.74073e-05
5.74201e-05
1.73929e-05
5.77793e-05
5.77917e-05
5.1964e-05
6.99671e-05
5.12489e-05
6.99959e-05
6.97068e-05
6.9684e-05
5.19736e-05
6.99724e-05
5.12466e-05
7.00016e-05
1.53073e-05
1.53072e-05
1.53073e-05
2.76948e-05
4.38874e-05
1.51516e-05
1.61103e-05
2.7143e-05
4.43406e-05
1.50851e-05
6.97074e-05
6.96842e-05
2.76961e-05
1.51519e-05
4.38823e-05
1.61109e-05
2.7142e-05
1.50851e-05
4.43483e-05
5.82635e-05
5.82747e-05
1.77826e-05
5.85854e-05
5.8598e-05
3.73741e-05
3.72958e-05
3.72959e-05
5.3112e-05
3.71932e-05
5.31139e-05
3.71932e-05
3.7093e-05
3.72394e-05
3.72406e-05
3.71762e-05
3.71762e-05
3.73701e-05
3.73777e-05
3.73043e-05
3.73768e-05
3.73701e-05
3.73777e-05
3.73043e-05
3.73768e-05
3.71732e-05
3.9412e-05
3.7168e-05
3.67256e-05
3.71732e-05
3.94119e-05
3.7168e-05
3.67257e-05
3.70959e-05
3.71022e-05
3.60247e-05
3.64211e-05
3.71636e-05
3.71109e-05
3.63055e-05
3.70958e-05
3.71022e-05
3.60252e-05
3.64211e-05
3.71636e-05
3.71109e-05
3.63055e-05
3.73741e-05
3.72958e-05
3.72958e-05
5.31122e-05
3.71933e-05
3.7093e-05
3.7241e-05
3.72387e-05
3.71762e-05
3.71762e-05
5.31138e-05
3.71933e-05
3.73701e-05
3.73777e-05
3.73043e-05
3.73768e-05
3.73701e-05
3.73777e-05
3.73768e-05
3.73043e-05
3.71732e-05
3.94125e-05
3.7168e-05
3.67258e-05
3.70958e-05
3.71022e-05
3.60249e-05
3.64211e-05
3.71636e-05
3.71109e-05
3.63055e-05
3.71732e-05
3.94127e-05
3.7168e-05
3.67256e-05
3.70959e-05
3.71022e-05
3.64211e-05
3.60248e-05
3.71109e-05
3.71636e-05
3.63055e-05
3.73773e-05
3.73765e-05
3.7377e-05
3.7377e-05
3.73773e-05
3.73765e-05
3.7377e-05
3.7377e-05
3.73773e-05
3.73765e-05
3.7377e-05
3.7377e-05
3.71133e-05
3.71099e-05
3.64241e-05
3.64241e-05
3.71125e-05
3.71125e-05
3.64261e-05
3.71133e-05
3.71099e-05
3.64241e-05
3.64241e-05
3.71125e-05
3.71125e-05
3.64261e-05
3.71133e-05
3.71099e-05
3.64241e-05
3.64241e-05
3.71125e-05
3.71125e-05
3.64261e-05
3.71133e-05
3.71099e-05
3.64241e-05
3.64241e-05
3.71125e-05
3.71125e-05
3.64261e-05
3.73701e-05
3.73777e-05
3.73768e-05
3.73043e-05
3.70958e-05
3.71022e-05
3.60245e-05
3.64211e-05
3.71636e-05
3.71109e-05
3.63055e-05
3.71732e-05
3.94121e-05
3.7168e-05
3.67258e-05
3.70958e-05
3.71022e-05
3.64211e-05
3.60252e-05
3.71109e-05
3.71636e-05
3.63055e-05
3.71732e-05
3.94127e-05
3.7168e-05
3.67255e-05
3.73741e-05
3.72959e-05
3.72959e-05
5.31144e-05
3.71933e-05
3.7093e-05
3.72396e-05
3.72408e-05
3.71762e-05
3.71762e-05
5.31145e-05
3.71933e-05
3.73702e-05
3.73777e-05
3.73768e-05
3.73043e-05
3.70958e-05
3.71022e-05
3.64211e-05
3.60252e-05
3.71109e-05
3.71636e-05
3.63056e-05
3.70958e-05
3.71022e-05
3.64211e-05
3.60252e-05
3.71109e-05
3.71636e-05
3.63056e-05
3.71732e-05
3.94126e-05
3.7168e-05
3.67256e-05
3.71732e-05
3.94126e-05
3.7168e-05
3.67258e-05
3.7093e-05
3.72406e-05
3.72412e-05
3.71762e-05
3.71762e-05
5.31143e-05
3.71933e-05
5.31142e-05
3.71933e-05
5.51147e-05
6.48949e-05
5.51165e-05
6.48979e-05
3.65983e-05
3.65984e-05
3.5279e-05
3.40626e-05
3.40629e-05
7.47296e-05
6.76705e-05
7.47334e-05
6.76744e-05
3.49729e-05
3.20402e-05
3.20402e-05
3.34711e-05
3.34701e-05
3.58797e-05
4.08716e-05
3.66035e-05
4.51449e-05
3.52756e-05
3.56385e-05
3.58929e-05
3.53771e-05
3.60476e-05
3.4237e-05
3.53822e-05
3.52757e-05
3.5638e-05
3.58929e-05
3.5377e-05
3.60475e-05
3.42378e-05
3.53822e-05
3.56332e-05
5.02152e-05
4.64545e-05
3.48928e-05
3.56336e-05
5.02141e-05
4.64542e-05
3.48934e-05
3.49993e-05
3.48726e-05
3.2731e-05
3.44018e-05
3.38643e-05
3.48857e-05
3.41796e-05
3.49994e-05
3.48725e-05
3.27319e-05
3.44018e-05
3.38633e-05
3.48857e-05
3.41798e-05
3.65974e-05
3.65996e-05
3.5279e-05
3.40641e-05
3.40604e-05
5.51159e-05
6.48975e-05
7.47303e-05
6.76729e-05
3.49729e-05
3.20413e-05
3.20376e-05
3.34693e-05
3.34728e-05
7.47324e-05
6.7672e-05
3.52759e-05
3.56383e-05
3.58929e-05
3.5377e-05
3.60475e-05
3.42371e-05
3.53822e-05
3.588e-05
4.08723e-05
3.66031e-05
4.51479e-05
3.52758e-05
3.58929e-05
3.56385e-05
3.5377e-05
3.60475e-05
3.53822e-05
3.42369e-05
3.56329e-05
5.02151e-05
4.64541e-05
3.48941e-05
3.49992e-05
3.48726e-05
3.27308e-05
3.44018e-05
3.38635e-05
3.48857e-05
3.41799e-05
3.56329e-05
5.02173e-05
4.64557e-05
3.48936e-05
3.49992e-05
3.48725e-05
3.44018e-05
3.27306e-05
3.48857e-05
3.38639e-05
3.41798e-05
3.58799e-05
4.087e-05
3.66034e-05
4.5147e-05
3.52757e-05
3.58929e-05
3.56381e-05
3.53771e-05
3.60475e-05
3.53822e-05
3.42378e-05
3.58799e-05
4.08731e-05
3.6603e-05
4.51467e-05
3.49994e-05
3.48726e-05
3.27301e-05
3.44018e-05
3.3864e-05
3.48857e-05
3.41798e-05
3.56335e-05
5.0215e-05
4.6452e-05
3.48934e-05
3.49993e-05
3.48726e-05
3.44018e-05
3.27318e-05
3.48857e-05
3.38631e-05
3.41797e-05
3.5633e-05
5.02154e-05
4.64564e-05
3.48932e-05
3.65988e-05
3.65973e-05
3.5279e-05
3.40615e-05
3.40634e-05
5.51169e-05
6.48965e-05
7.47348e-05
6.76735e-05
3.49729e-05
3.20386e-05
3.2042e-05
3.34713e-05
3.34696e-05
7.47318e-05
6.76745e-05
3.52759e-05
3.58929e-05
3.5638e-05
3.5377e-05
3.60475e-05
3.53822e-05
3.42376e-05
3.58806e-05
4.08725e-05
3.66029e-05
4.51474e-05
3.58809e-05
4.08715e-05
3.66032e-05
4.51461e-05
3.49992e-05
3.48726e-05
3.44018e-05
3.27316e-05
3.48857e-05
3.38633e-05
3.41799e-05
3.49992e-05
3.48726e-05
3.44018e-05
3.27316e-05
3.48857e-05
3.38629e-05
3.418e-05
3.56322e-05
5.02162e-05
4.6456e-05
3.48939e-05
3.56325e-05
5.02159e-05
4.64541e-05
3.48942e-05
5.51164e-05
6.48964e-05
5.51165e-05
6.4897e-05
3.49729e-05
3.20418e-05
3.20405e-05
3.3469e-05
3.34693e-05
7.47309e-05
6.76737e-05
7.47324e-05
6.76753e-05
7.65422e-05
8.08604e-05
7.65464e-05
8.08647e-05
3.1719e-05
3.17167e-05
3.32638e-05
3.09229e-05
3.09232e-05
8.40052e-05
8.18479e-05
8.40088e-05
8.18514e-05
3.29546e-05
3.03085e-05
3.03089e-05
3.07486e-05
3.07449e-05
3.39662e-05
5.13532e-05
3.46794e-05
5.46245e-05
3.30538e-05
3.2475e-05
3.39295e-05
3.34086e-05
3.3896e-05
3.15762e-05
3.34678e-05
3.3054e-05
3.24738e-05
3.39294e-05
3.34086e-05
3.38961e-05
3.15773e-05
3.34678e-05
3.37799e-05
5.8369e-05
5.55976e-05
3.30821e-05
3.37801e-05
5.8369e-05
5.55968e-05
3.30825e-05
3.27692e-05
3.29353e-05
3.06508e-05
3.25726e-05
3.13931e-05
3.30158e-05
3.19181e-05
3.27693e-05
3.29352e-05
3.06515e-05
3.25726e-05
3.13914e-05
3.30158e-05
3.19183e-05
3.17164e-05
3.17201e-05
3.32638e-05
3.09242e-05
3.09195e-05
7.65436e-05
8.08626e-05
8.40061e-05
8.18499e-05
3.29546e-05
3.03096e-05
3.03059e-05
3.07453e-05
3.07496e-05
8.40071e-05
8.18491e-05
3.30542e-05
3.24742e-05
3.39295e-05
3.34087e-05
3.38959e-05
3.15766e-05
3.34678e-05
3.39677e-05
5.13551e-05
3.46788e-05
5.4628e-05
3.3054e-05
3.39295e-05
3.24749e-05
3.34086e-05
3.38958e-05
3.34678e-05
3.15757e-05
3.37779e-05
5.83701e-05
5.5599e-05
3.30848e-05
3.2769e-05
3.29353e-05
3.06506e-05
3.25726e-05
3.13915e-05
3.30158e-05
3.19185e-05
3.37778e-05
5.8373e-05
5.55993e-05
3.30843e-05
3.27689e-05
3.29351e-05
3.25726e-05
3.06502e-05
3.30158e-05
3.13929e-05
3.19182e-05
3.39666e-05
5.13521e-05
3.46793e-05
5.46248e-05
3.30539e-05
3.39295e-05
3.2474e-05
3.34086e-05
3.3896e-05
3.34678e-05
3.15777e-05
3.39659e-05
5.13552e-05
3.46794e-05
5.46258e-05
3.27693e-05
3.29354e-05
3.065e-05
3.25726e-05
3.13927e-05
3.30158e-05
3.19183e-05
3.37795e-05
5.83694e-05
5.5596e-05
3.30826e-05
3.27692e-05
3.29352e-05
3.25726e-05
3.06517e-05
3.30158e-05
3.13917e-05
3.19181e-05
3.37794e-05
5.83709e-05
5.55989e-05
3.30823e-05
3.17191e-05
3.17167e-05
3.32638e-05
3.09211e-05
3.09243e-05
7.65458e-05
8.08622e-05
8.40097e-05
8.18517e-05
3.29546e-05
3.03072e-05
3.03102e-05
3.07482e-05
3.07466e-05
8.40067e-05
8.18509e-05
3.30543e-05
3.39295e-05
3.24733e-05
3.34086e-05
3.38959e-05
3.34678e-05
3.15772e-05
3.39678e-05
5.13552e-05
3.46786e-05
5.46266e-05
3.39677e-05
5.13539e-05
3.46789e-05
5.46258e-05
3.27689e-05
3.29353e-05
3.25726e-05
3.06514e-05
3.30158e-05
3.13917e-05
3.19183e-05
3.2769e-05
3.29353e-05
3.25726e-05
3.06513e-05
3.30158e-05
3.13912e-05
3.19185e-05
3.37776e-05
5.83714e-05
5.55993e-05
3.30845e-05
3.3778e-05
5.83706e-05
5.55984e-05
3.30849e-05
7.65456e-05
8.08622e-05
7.65474e-05
8.08637e-05
3.29546e-05
3.03107e-05
3.03091e-05
3.07457e-05
3.07449e-05
8.40069e-05
8.18508e-05
8.40081e-05
8.18524e-05
8.43911e-05
8.50673e-05
8.43932e-05
8.50696e-05
3.02204e-05
3.02169e-05
3.12731e-05
3.00038e-05
3.00033e-05
8.48431e-05
8.50718e-05
8.48444e-05
8.50733e-05
3.09612e-05
2.99305e-05
2.99294e-05
2.99713e-05
2.99692e-05
3.22502e-05
5.9169e-05
3.2924e-05
6.14413e-05
3.07891e-05
3.05146e-05
3.21375e-05
3.15539e-05
3.16366e-05
2.98871e-05
3.17101e-05
3.07893e-05
3.05132e-05
3.21375e-05
3.15537e-05
3.16368e-05
2.98872e-05
3.17101e-05
3.21138e-05
6.38727e-05
6.2074e-05
3.14721e-05
3.21141e-05
6.3874e-05
6.20734e-05
3.14724e-05
3.05138e-05
3.1106e-05
2.9237e-05
3.08764e-05
2.97757e-05
3.12898e-05
2.96796e-05
3.0514e-05
3.11059e-05
2.92372e-05
3.08764e-05
2.97754e-05
3.12898e-05
2.96799e-05
3.02175e-05
3.02198e-05
3.12732e-05
3.0004e-05
3.00016e-05
8.43915e-05
8.50682e-05
8.48433e-05
8.50719e-05
3.09612e-05
2.993e-05
2.99285e-05
2.99697e-05
2.99701e-05
8.48434e-05
8.50722e-05
3.07894e-05
3.05133e-05
3.21376e-05
3.15539e-05
3.16365e-05
2.98866e-05
3.17101e-05
3.22516e-05
5.91714e-05
3.29215e-05
6.14453e-05
3.07891e-05
3.21375e-05
3.05138e-05
3.15537e-05
3.16363e-05
3.17101e-05
2.98865e-05
3.21126e-05
6.38757e-05
6.20757e-05
3.14731e-05
3.05137e-05
3.11061e-05
2.92371e-05
3.08763e-05
2.97752e-05
3.12899e-05
2.96799e-05
3.21123e-05
6.38772e-05
6.2075e-05
3.14728e-05
3.05135e-05
3.11058e-05
3.08763e-05
2.92364e-05
3.12898e-05
2.97751e-05
2.96797e-05
3.22502e-05
5.91684e-05
3.2924e-05
6.14418e-05
3.07891e-05
3.21375e-05
3.05134e-05
3.15538e-05
3.16366e-05
3.17101e-05
2.98873e-05
3.22499e-05
5.91707e-05
3.29237e-05
6.14427e-05
3.0514e-05
3.11062e-05
2.92364e-05
3.08764e-05
2.9775e-05
3.12899e-05
2.96799e-05
3.21141e-05
6.38748e-05
6.2073e-05
3.14724e-05
3.05138e-05
3.1106e-05
3.08764e-05
2.92373e-05
3.12898e-05
2.97755e-05
2.96796e-05
3.21137e-05
6.3875e-05
6.20748e-05
3.1472e-05
3.02191e-05
3.02184e-05
3.12731e-05
3.00026e-05
3.00051e-05
8.43927e-05
8.50683e-05
8.48446e-05
8.50738e-05
3.09611e-05
2.99294e-05
2.99309e-05
2.99702e-05
2.99706e-05
8.48439e-05
8.50726e-05
3.07895e-05
3.21375e-05
3.05129e-05
3.15539e-05
3.16365e-05
3.17101e-05
2.98869e-05
3.22516e-05
5.91708e-05
3.29214e-05
6.14432e-05
3.2252e-05
5.91706e-05
3.29218e-05
6.14428e-05
3.05135e-05
3.11062e-05
3.08763e-05
2.92374e-05
3.12899e-05
2.97756e-05
2.96797e-05
3.05137e-05
3.11061e-05
3.08763e-05
2.92369e-05
3.12898e-05
2.97751e-05
2.968e-05
3.21123e-05
6.38754e-05
6.20748e-05
3.14728e-05
3.21126e-05
6.38756e-05
6.20752e-05
3.14732e-05
8.43929e-05
8.50685e-05
8.43941e-05
8.50693e-05
3.09611e-05
2.99306e-05
2.99294e-05
2.99703e-05
2.99692e-05
8.48441e-05
8.50728e-05
8.48445e-05
8.50734e-05
8.46113e-05
8.39125e-05
8.46111e-05
8.39136e-05
2.99422e-05
2.99405e-05
2.93484e-05
3.00362e-05
3.00352e-05
8.26242e-05
8.35484e-05
8.26251e-05
8.35479e-05
2.90407e-05
3.03217e-05
3.03195e-05
3.01089e-05
3.0108e-05
3.07533e-05
6.43509e-05
3.13506e-05
6.57289e-05
2.86003e-05
2.91421e-05
3.04694e-05
2.98002e-05
2.94129e-05
2.86753e-05
3.00687e-05
2.86006e-05
2.9142e-05
3.04694e-05
2.98e-05
2.9413e-05
2.86756e-05
3.00687e-05
3.06424e-05
6.7085e-05
6.60716e-05
3.00989e-05
3.06427e-05
6.70872e-05
6.60722e-05
3.00992e-05
2.83443e-05
2.9378e-05
2.81913e-05
2.92854e-05
2.85942e-05
2.96741e-05
2.75607e-05
2.83444e-05
2.93778e-05
2.81916e-05
2.92854e-05
2.85944e-05
2.96741e-05
2.75609e-05
2.99411e-05
2.99409e-05
2.93486e-05
3.00357e-05
3.00344e-05
8.46103e-05
8.39134e-05
8.26233e-05
8.35484e-05
2.90407e-05
3.03218e-05
3.03184e-05
3.01085e-05
3.01082e-05
8.26254e-05
8.35475e-05
2.86006e-05
2.91418e-05
3.04694e-05
2.98003e-05
2.94128e-05
2.86753e-05
3.00687e-05
3.07535e-05
6.43519e-05
3.135e-05
6.57311e-05
2.86004e-05
3.04693e-05
2.91417e-05
2.97999e-05
2.94126e-05
3.00686e-05
2.86747e-05
3.06427e-05
6.70893e-05
6.60738e-05
3.00998e-05
2.83442e-05
2.93781e-05
2.81912e-05
2.92854e-05
2.85942e-05
2.96741e-05
2.7561e-05
3.06423e-05
6.70885e-05
6.60729e-05
3.00994e-05
2.83439e-05
2.93777e-05
2.92853e-05
2.81907e-05
2.9674e-05
2.85941e-05
2.75607e-05
3.07533e-05
6.43506e-05
3.13506e-05
6.57297e-05
2.86003e-05
3.04694e-05
2.9142e-05
2.98001e-05
2.94129e-05
3.00687e-05
2.86755e-05
3.07529e-05
6.43522e-05
3.13502e-05
6.57294e-05
2.83445e-05
2.93783e-05
2.81905e-05
2.92855e-05
2.85939e-05
2.96741e-05
2.75608e-05
3.06426e-05
6.7088e-05
6.60719e-05
3.00991e-05
2.83442e-05
2.93779e-05
2.92854e-05
2.81914e-05
2.96741e-05
2.85943e-05
2.75606e-05
3.06422e-05
6.70872e-05
6.60732e-05
3.00987e-05
2.99413e-05
2.9942e-05
2.93483e-05
3.00354e-05
3.00367e-05
8.46118e-05
8.39119e-05
8.2626e-05
8.35476e-05
2.90406e-05
3.03197e-05
3.03248e-05
3.01089e-05
3.01094e-05
8.26237e-05
8.35491e-05
2.86007e-05
3.04694e-05
2.91416e-05
2.98003e-05
2.94128e-05
3.00687e-05
2.86752e-05
3.07536e-05
6.43522e-05
3.13501e-05
6.57297e-05
3.07539e-05
6.43528e-05
3.13505e-05
6.57303e-05
2.8344e-05
2.93782e-05
2.92854e-05
2.81915e-05
2.96741e-05
2.85944e-05
2.75608e-05
2.83441e-05
2.93781e-05
2.92854e-05
2.81912e-05
2.96741e-05
2.8594e-05
2.75611e-05
3.06424e-05
6.70876e-05
6.60731e-05
3.00995e-05
3.06427e-05
6.70884e-05
6.60742e-05
3.00998e-05
8.46119e-05
8.39122e-05
8.46124e-05
8.3912e-05
2.90406e-05
3.03224e-05
3.03204e-05
3.0109e-05
3.01081e-05
8.2624e-05
8.35492e-05
8.26234e-05
8.35492e-05
8.22134e-05
8.12221e-05
8.22121e-05
8.12227e-05
3.04416e-05
3.04468e-05
2.75331e-05
3.07844e-05
3.07815e-05
7.98363e-05
8.08053e-05
7.98366e-05
8.08033e-05
2.72388e-05
3.13938e-05
3.13923e-05
3.09304e-05
3.09316e-05
2.95181e-05
6.73202e-05
3.0001e-05
6.80367e-05
2.65674e-05
2.81234e-05
2.89026e-05
2.81515e-05
2.7317e-05
2.7782e-05
2.85256e-05
2.65676e-05
2.81235e-05
2.89026e-05
2.81513e-05
2.73172e-05
2.77823e-05
2.85256e-05
2.94332e-05
6.86593e-05
6.81813e-05
2.90173e-05
2.94336e-05
6.86617e-05
6.81828e-05
2.90176e-05
2.63383e-05
2.77563e-05
2.74481e-05
2.77886e-05