/*--------------------------------*- C++ -*----------------------------------*\
| =========                 |                                                 |
| \\      /  F ield         | OpenFOAM: The Open Source CFD Toolbox           |
|  \\    /   O peration     | Version:  v1906                                 |
|   \\  /    A nd           | Web:      www.OpenFOAM.com                      |
|    \\/     M anipulation  |                                                 |
\*---------------------------------------------------------------------------*/
FoamFile
{
    version     2.0;
    format      ascii;
    class       volScalarField;
    location    "1000";
    object      k;
}
// * * * * * * * * * * * * * * * * * * * * * * * * * * * * * * * * * * * * * //

dimensions      [0 2 -2 0 0 0 0];


internalField   nonuniform List<scalar> 
42840
(
3.84999e-05
5.12286e-05
5.12357e-05
5.33983e-05
5.37201e-05
5.33682e-05
5.36794e-05
5.12088e-05
5.12225e-05
5.15429e-05
5.15463e-05
5.33847e-05
5.36787e-05
5.12122e-05
5.12302e-05
5.15407e-05
5.15326e-05
5.12355e-05
5.15491e-05
5.15445e-05
5.33968e-05
5.3664e-05
5.12384e-05
5.1537e-05
5.15434e-05
5.36704e-05
5.16245e-05
5.16229e-05
6.85857e-05
7.34032e-05
7.34326e-05
6.84862e-05
7.11549e-05
7.11738e-05
6.85832e-05
7.34068e-05
7.34372e-05
6.8492e-05
3.85136e-05
3.85247e-05
3.85241e-05
3.88894e-05
3.88995e-05
3.88934e-05
3.89028e-05
6.06302e-05
6.47569e-05
4.64423e-05
5.13347e-05
6.48543e-05
4.6542e-05
6.05134e-05
7.11507e-05
7.1171e-05
6.0626e-05
4.6452e-05
6.47477e-05
5.13318e-05
4.65465e-05
6.48442e-05
6.05186e-05
6.99392e-05
6.99495e-05
5.35129e-05
6.99954e-05
7.00057e-05
6.99808e-05
6.99933e-05
7.11526e-05
7.11735e-05
7.11547e-05
7.11759e-05
6.99264e-05
6.99346e-05
5.34949e-05
6.99979e-05
7.00061e-05
7.11862e-05
7.11738e-05
7.11889e-05
7.11763e-05
5.3589e-05
7.0013e-05
7.00222e-05
7.00075e-05
7.00158e-05
6.85874e-05
7.34086e-05
7.34354e-05
6.84888e-05
6.06223e-05
6.47372e-05
4.64271e-05
5.13161e-05
6.48477e-05
4.65263e-05
6.05019e-05
6.06247e-05
6.47539e-05
4.64334e-05
5.13291e-05
6.4857e-05
4.65325e-05
6.05046e-05
6.85991e-05
7.34421e-05
7.34347e-05
6.86385e-05
6.86007e-05
7.34437e-05
7.34371e-05
6.86401e-05
6.06496e-05
5.1435e-05
6.48927e-05
4.67818e-05
6.48628e-05
4.66526e-05
6.07439e-05
6.06516e-05
5.14439e-05
6.48914e-05
4.67856e-05
6.48694e-05
4.6658e-05
6.07448e-05
6.99498e-05
6.99415e-05
5.35108e-05
7.00122e-05
6.99989e-05
7.11508e-05
7.11693e-05
7.11856e-05
7.11739e-05
5.36006e-05
7.00144e-05
6.99954e-05
7.00186e-05
7.00049e-05
7.11814e-05
7.11691e-05
6.06207e-05
6.4741e-05
4.64353e-05
5.13171e-05
6.48496e-05
4.65319e-05
6.05096e-05
6.85811e-05
7.34011e-05
7.34293e-05
6.84923e-05
6.06194e-05
4.64434e-05
6.47459e-05
5.1326e-05
4.6537e-05
6.48419e-05
6.05108e-05
6.85969e-05
7.34477e-05
7.34396e-05
6.86403e-05
6.0646e-05
5.14341e-05
6.48956e-05
4.67791e-05
6.48651e-05
4.66536e-05
6.07419e-05
6.85944e-05
7.34387e-05
7.34313e-05
6.8637e-05
6.06441e-05
5.14332e-05
4.67777e-05
6.48805e-05
4.66554e-05
6.48556e-05
6.07384e-05
6.85886e-05
7.34074e-05
7.34331e-05
6.8495e-05
6.06284e-05
4.64448e-05
6.47541e-05
5.1337e-05
4.65435e-05
6.4849e-05
6.05127e-05
6.85867e-05
7.34025e-05
7.34282e-05
6.84938e-05
6.0655e-05
5.14485e-05
6.4885e-05
4.67912e-05
6.48663e-05
4.66664e-05
6.07411e-05
6.86008e-05
7.34414e-05
7.34347e-05
6.86365e-05
6.06529e-05
5.14468e-05
4.67901e-05
6.48792e-05
4.66666e-05
6.486e-05
6.07388e-05
6.85988e-05
7.34373e-05
7.34299e-05
6.86342e-05
6.99356e-05
6.99315e-05
5.35019e-05
6.9995e-05
6.99913e-05
7.11505e-05
7.11708e-05
7.11843e-05
7.11711e-05
5.35858e-05
7.00038e-05
6.99999e-05
7.00033e-05
6.99985e-05
7.11843e-05
7.11712e-05
6.06288e-05
4.64529e-05
6.47605e-05
5.13388e-05
4.65495e-05
6.48539e-05
6.052e-05
6.8583e-05
7.34012e-05
7.34297e-05
6.84967e-05
6.85862e-05
7.34079e-05
7.34327e-05
6.84997e-05
6.06494e-05
5.14386e-05
4.67843e-05
6.48808e-05
4.66642e-05
6.48564e-05
6.07352e-05
6.0652e-05
5.14469e-05
4.67881e-05
6.48841e-05
4.66683e-05
6.48648e-05
6.07367e-05
6.85955e-05
7.34401e-05
7.34317e-05
6.86327e-05
6.85985e-05
7.34407e-05
7.34342e-05
6.86351e-05
7.11506e-05
7.11694e-05
7.11533e-05
7.11722e-05
5.35976e-05
6.99957e-05
7.00078e-05
7.00011e-05
7.00115e-05
7.11822e-05
7.11696e-05
7.11852e-05
7.11724e-05
4.69041e-05
6.48771e-05
6.07445e-05
7.34384e-05
6.86339e-05
6.4882e-05
7.34415e-05
7.11828e-05
7.11858e-05
7.18224e-05
7.16018e-05
7.16151e-05
6.85451e-05
7.15914e-05
7.15788e-05
7.18326e-05
7.16592e-05
7.34184e-05
7.9729e-05
7.97614e-05
7.16447e-05
7.16593e-05
7.97973e-05
7.34233e-05
7.97777e-05
7.16709e-05
7.18185e-05
6.85253e-05
7.15734e-05
7.1521e-05
7.15868e-05
7.15612e-05
7.18052e-05
7.11654e-05
7.11664e-05
7.1824e-05
7.16163e-05
7.16027e-05
6.85448e-05
7.15806e-05
7.15922e-05
7.18343e-05
7.16599e-05
7.34225e-05
7.97372e-05
7.97744e-05
7.1645e-05
7.16608e-05
7.98128e-05
7.34276e-05
7.97888e-05
7.16724e-05
7.18199e-05
6.85272e-05
7.15266e-05
7.15744e-05
7.1564e-05
7.15875e-05
7.18069e-05
7.11617e-05
7.11628e-05
9.50587e-05
7.34797e-05
7.34731e-05
7.34727e-05
7.34661e-05
9.50639e-05
7.41908e-05
6.51985e-05
6.99654e-05
7.32446e-05
6.5251e-05
7.32553e-05
7.41514e-05
7.42379e-05
6.52077e-05
6.99757e-05
7.32547e-05
6.52601e-05
7.32652e-05
7.4199e-05
7.42104e-05
7.32613e-05
6.99824e-05
6.53149e-05
6.52769e-05
7.32571e-05
7.42334e-05
7.42573e-05
7.32715e-05
6.99922e-05
6.53231e-05
6.52851e-05
7.32672e-05
7.42802e-05
9.50427e-05
7.34646e-05
7.34579e-05
7.34735e-05
7.34669e-05
9.50224e-05
7.42287e-05
6.53588e-05
7.32626e-05
6.99724e-05
7.42367e-05
6.53579e-05
7.32647e-05
7.4277e-05
6.53671e-05
7.32731e-05
6.99853e-05
7.42849e-05
6.53665e-05
7.32753e-05
9.4993e-05
7.34868e-05
7.34807e-05
9.50111e-05
7.34953e-05
7.34892e-05
7.1164e-05
7.11654e-05
7.11662e-05
7.11677e-05
9.50554e-05
7.34847e-05
7.34777e-05
7.34771e-05
7.34701e-05
9.5067e-05
7.41781e-05
6.51739e-05
6.99582e-05
7.32468e-05
7.32603e-05
6.52339e-05
7.41313e-05
7.42231e-05
6.51821e-05
6.99662e-05
7.32554e-05
7.32691e-05
6.5241e-05
7.41758e-05
7.42039e-05
7.32701e-05
6.99796e-05
6.53115e-05
7.32636e-05
7.42341e-05
6.52654e-05
7.42477e-05
7.3279e-05
6.99875e-05
6.53176e-05
7.32723e-05
7.42786e-05
6.5272e-05
9.50319e-05
7.34667e-05
7.34596e-05
7.34773e-05
7.34702e-05
9.50046e-05
7.11802e-05
7.11802e-05
7.11827e-05
7.11828e-05
9.50741e-05
7.34832e-05
7.34763e-05
9.5074e-05
7.34897e-05
7.34829e-05
7.42629e-05
6.53782e-05
7.00142e-05
7.32733e-05
7.32719e-05
6.53669e-05
7.42643e-05
7.43072e-05
6.53848e-05
7.00231e-05
7.32826e-05
7.32812e-05
6.53733e-05
7.43092e-05
7.42605e-05
7.32704e-05
6.53308e-05
7.00135e-05
7.42468e-05
7.32726e-05
6.53591e-05
7.4305e-05
7.32794e-05
6.53369e-05
7.00222e-05
7.42907e-05
7.32817e-05
6.53652e-05
9.50711e-05
7.34936e-05
7.3487e-05
7.34875e-05
7.34808e-05
9.50554e-05
7.18241e-05
7.16022e-05
7.16218e-05
6.85471e-05
7.1592e-05
7.15865e-05
7.1834e-05
7.166e-05
7.34229e-05
7.97478e-05
7.97841e-05
7.16458e-05
7.16606e-05
7.9818e-05
7.34272e-05
7.97971e-05
7.16717e-05
7.18202e-05
6.85277e-05
7.1574e-05
7.15298e-05
7.15873e-05
7.15697e-05
7.18072e-05
7.18428e-05
7.16049e-05
7.16254e-05
6.86235e-05
7.18351e-05
7.16127e-05
7.16445e-05
7.16787e-05
7.34397e-05
7.9813e-05
7.16887e-05
7.98125e-05
7.16803e-05
7.98044e-05
7.34391e-05
7.16699e-05
7.98119e-05
7.18449e-05
6.86286e-05
7.16223e-05
7.16522e-05
7.18523e-05
7.16152e-05
7.16466e-05
7.18441e-05
7.16054e-05
7.16315e-05
6.86251e-05
7.18365e-05
7.16131e-05
7.16505e-05
7.16806e-05
7.34413e-05
7.98307e-05
7.98293e-05
7.16904e-05
7.16814e-05
7.98226e-05
7.34408e-05
7.16713e-05
7.983e-05
7.18463e-05
6.86301e-05
7.16227e-05
7.16586e-05
7.16156e-05
7.16523e-05
7.18536e-05
9.5064e-05
7.34754e-05
7.34808e-05
7.34686e-05
7.34741e-05
9.50701e-05
7.42392e-05
6.52004e-05
6.99789e-05
7.32583e-05
7.32693e-05
6.52569e-05
7.41967e-05
7.4194e-05
6.51975e-05
6.99677e-05
7.3248e-05
6.52527e-05
7.32585e-05
7.41517e-05
7.42619e-05
7.32754e-05
6.99973e-05
6.53269e-05
7.32713e-05
6.52862e-05
7.42866e-05
7.42161e-05
7.3264e-05
6.99864e-05
6.53212e-05
6.52818e-05
7.32603e-05
7.42405e-05
9.50468e-05
7.34607e-05
7.34663e-05
7.34696e-05
7.34751e-05
9.50239e-05
7.11611e-05
7.11618e-05
7.11797e-05
7.11799e-05
9.50665e-05
7.34731e-05
7.34783e-05
9.50718e-05
7.34789e-05
7.3484e-05
7.43043e-05
6.53781e-05
7.00202e-05
7.32762e-05
6.53717e-05
7.32752e-05
7.43025e-05
7.4257e-05
6.53694e-05
7.00044e-05
7.32642e-05
7.32634e-05
6.53637e-05
7.4255e-05
7.43043e-05
7.3275e-05
6.53436e-05
7.00215e-05
6.53666e-05
7.4296e-05
7.32764e-05
7.42573e-05
7.32634e-05
6.53373e-05
7.00063e-05
7.42494e-05
7.32647e-05
6.53592e-05
9.50531e-05
7.34823e-05
7.34875e-05
7.34761e-05
7.34813e-05
9.50311e-05
7.1175e-05
7.11755e-05
7.18214e-05
7.16018e-05
7.16095e-05
6.85437e-05
7.15914e-05
7.15762e-05
7.18315e-05
7.16568e-05
7.34158e-05
7.9728e-05
7.97593e-05
7.16425e-05
7.16569e-05
7.97925e-05
7.34205e-05
7.97735e-05
7.16685e-05
7.18176e-05
6.85266e-05
7.15738e-05
7.15256e-05
7.15867e-05
7.15607e-05
7.18048e-05
7.1845e-05
7.1627e-05
7.16061e-05
6.86235e-05
7.18371e-05
7.16482e-05
7.16141e-05
7.16814e-05
7.34451e-05
7.98302e-05
7.16912e-05
7.98281e-05
7.16822e-05
7.98187e-05
7.34442e-05
7.1672e-05
7.98282e-05
7.18472e-05
6.86291e-05
7.16579e-05
7.16239e-05
7.18547e-05
7.16508e-05
7.16167e-05
7.1842e-05
7.16051e-05
7.16195e-05
6.86205e-05
7.18341e-05
7.16131e-05
7.16391e-05
7.16769e-05
7.34363e-05
7.98066e-05
7.98061e-05
7.16873e-05
7.16783e-05
7.97986e-05
7.34356e-05
7.16677e-05
7.98059e-05
7.18441e-05
6.8626e-05
7.16229e-05
7.16478e-05
7.16158e-05
7.16415e-05
7.18515e-05
7.18229e-05
7.16212e-05
7.1601e-05
6.8551e-05
7.15881e-05
7.1591e-05
7.18326e-05
7.1659e-05
7.34212e-05
7.9748e-05
7.97829e-05
7.1645e-05
7.16594e-05
7.98139e-05
7.34253e-05
7.97946e-05
7.16705e-05
7.18192e-05
6.85328e-05
7.15336e-05
7.15738e-05
7.15724e-05
7.15866e-05
7.18066e-05
7.18211e-05
7.16003e-05
7.1615e-05
6.85493e-05
7.15903e-05
7.15825e-05
7.18308e-05
7.16569e-05
7.34162e-05
7.97293e-05
7.97631e-05
7.16431e-05
7.16574e-05
7.97937e-05
7.34203e-05
7.97748e-05
7.16684e-05
7.18173e-05
6.85313e-05
7.15731e-05
7.15294e-05
7.15858e-05
7.15671e-05
7.18049e-05
7.1843e-05
7.16298e-05
7.16042e-05
6.86233e-05
7.18352e-05
7.1647e-05
7.1612e-05
7.16795e-05
7.3439e-05
7.98243e-05
7.98228e-05
7.16895e-05
7.16802e-05
7.98177e-05
7.34383e-05
7.16701e-05
7.98238e-05
7.18453e-05
6.86277e-05
7.16542e-05
7.16222e-05
7.16483e-05
7.16147e-05
7.18531e-05
7.18414e-05
7.16034e-05
7.16236e-05
6.86212e-05
7.18335e-05
7.16113e-05
7.16404e-05
7.16774e-05
7.34345e-05
7.98039e-05
7.98026e-05
7.16873e-05
7.16781e-05
7.97975e-05
7.34338e-05
7.1668e-05
7.98036e-05
7.18438e-05
6.86255e-05
7.16216e-05
7.16472e-05
7.16141e-05
7.16416e-05
7.18517e-05
9.50558e-05
7.34746e-05
7.34809e-05
7.34672e-05
7.34736e-05
9.50637e-05
7.4228e-05
6.5195e-05
6.99613e-05
7.32513e-05
7.32633e-05
6.52458e-05
7.41878e-05
7.4184e-05
6.51915e-05
6.99586e-05
7.32436e-05
6.52434e-05
7.32554e-05
7.41447e-05
7.42483e-05
7.32712e-05
6.99808e-05
6.53113e-05
7.32658e-05
6.5272e-05
7.42738e-05
7.42045e-05
7.32632e-05
6.99762e-05
6.53084e-05
6.52686e-05
7.32578e-05
7.42292e-05
9.5037e-05
7.34579e-05
7.34645e-05
7.34677e-05
7.34742e-05
9.50147e-05
7.11613e-05
7.11627e-05
7.11777e-05
7.11779e-05
9.50654e-05
7.34729e-05
7.34791e-05
9.50674e-05
7.34792e-05
7.34854e-05
7.42946e-05
6.53673e-05
7.00071e-05
7.32745e-05
6.53587e-05
7.3273e-05
7.42947e-05
7.42494e-05
6.53627e-05
7.00025e-05
7.32664e-05
7.32649e-05
6.53543e-05
7.42493e-05
7.42937e-05
7.32714e-05
6.5328e-05
7.00069e-05
6.53523e-05
7.42831e-05
7.32736e-05
7.42487e-05
7.32633e-05
6.5324e-05
7.00026e-05
7.42387e-05
7.32654e-05
6.53484e-05
9.50577e-05
7.34832e-05
7.34893e-05
7.34769e-05
7.3483e-05
9.50371e-05
7.11779e-05
7.11778e-05
7.18206e-05
7.161e-05
7.16001e-05
6.85472e-05
7.15779e-05
7.159e-05
7.18305e-05
7.1657e-05
7.3416e-05
7.97253e-05
7.97585e-05
7.1643e-05
7.16577e-05
7.97918e-05
7.34206e-05
7.97711e-05
7.1669e-05
7.18168e-05
6.85303e-05
7.15287e-05
7.1573e-05
7.1563e-05
7.15856e-05
7.18043e-05
7.18217e-05
7.16179e-05
7.16007e-05
6.85507e-05
7.15866e-05
7.15906e-05
7.18313e-05
7.16579e-05
7.34212e-05
7.9753e-05
7.97815e-05
7.16441e-05
7.16578e-05
7.98107e-05
7.34251e-05
7.97946e-05
7.16693e-05
7.18181e-05
6.8534e-05
7.15359e-05
7.15738e-05
7.15715e-05
7.15863e-05
7.18057e-05
7.18412e-05
7.16191e-05
7.16033e-05
6.86182e-05
7.18332e-05
7.1637e-05
7.16113e-05
7.16783e-05
7.34372e-05
7.98048e-05
7.98031e-05
7.16884e-05
7.16789e-05
7.97964e-05
7.34363e-05
7.16687e-05
7.98038e-05
7.18435e-05
6.86232e-05
7.1645e-05
7.16215e-05
7.1639e-05
7.1614e-05
7.18514e-05
7.18416e-05
7.16266e-05
7.16038e-05
6.86213e-05
7.18338e-05
7.16431e-05
7.16118e-05
7.16774e-05
7.34383e-05
7.982e-05
7.98204e-05
7.16879e-05
7.16789e-05
7.98156e-05
7.34378e-05
7.16682e-05
7.98207e-05
7.18438e-05
6.86259e-05
7.16496e-05
7.1622e-05
7.16446e-05
7.16145e-05
7.18517e-05
7.11608e-05
7.11619e-05
7.11635e-05
7.11646e-05
9.50602e-05
7.34776e-05
7.34712e-05
9.50655e-05
7.34837e-05
7.34773e-05
7.42484e-05
6.5361e-05
7.00019e-05
7.32634e-05
7.42468e-05
6.53553e-05
7.3262e-05
7.42956e-05
6.53693e-05
7.00129e-05
7.32738e-05
7.4294e-05
6.53634e-05
7.32724e-05
7.42488e-05
7.32611e-05
6.53296e-05
7.00033e-05
7.42412e-05
6.53511e-05
7.32629e-05
7.42958e-05
7.32713e-05
6.53375e-05
7.00141e-05
7.42881e-05
6.53592e-05
7.32732e-05
9.50479e-05
7.34879e-05
7.34817e-05
9.50257e-05
7.34814e-05
7.34751e-05
7.11759e-05
7.11759e-05
7.11788e-05
7.11788e-05
7.16971e-05
7.98011e-05
7.34426e-05
7.16867e-05
7.98002e-05
7.18634e-05
6.86374e-05
7.16247e-05
7.16459e-05
7.18546e-05
7.16331e-05
7.16496e-05
7.34453e-05
7.11914e-05
7.11943e-05
3.14115e-05
3.14128e-05
3.86101e-05
3.15216e-05
3.15234e-05
2.24171e-05
2.22921e-05
6.59378e-05
5.93999e-05
5.94023e-05
5.34109e-05
5.94239e-05
5.94258e-05
6.58927e-05
6.60589e-05
5.96454e-05
5.96461e-05
5.3715e-05
6.60612e-05
5.96444e-05
5.96451e-05
6.59182e-05
5.93716e-05
5.93737e-05
5.33828e-05
5.9399e-05
5.94006e-05
6.58661e-05
6.60672e-05
5.36776e-05
5.96355e-05
5.96358e-05
5.96297e-05
5.96301e-05
6.60787e-05
6.59363e-05
5.93891e-05
5.93925e-05
5.34e-05
5.94198e-05
5.94164e-05
6.58865e-05
6.60653e-05
5.3679e-05
5.9632e-05
5.96333e-05
5.96288e-05
5.96302e-05
6.60714e-05
6.59285e-05
5.93947e-05
5.93981e-05
5.34065e-05
5.94193e-05
5.94158e-05
6.58851e-05
6.6052e-05
5.36639e-05
5.96177e-05
5.96205e-05
5.96136e-05
5.96164e-05
6.60609e-05
6.60552e-05
5.36713e-05
5.96229e-05
5.96235e-05
6.60611e-05
5.96201e-05
5.96209e-05
3.14169e-05
3.14189e-05
3.86241e-05
3.15273e-05
3.15302e-05
2.24198e-05
2.22947e-05
3.14257e-05
3.14277e-05
3.86305e-05
3.15361e-05
3.1539e-05
2.24257e-05
2.22988e-05
3.14254e-05
3.14266e-05
3.86338e-05
3.15373e-05
3.1539e-05
2.24255e-05
2.22987e-05
3.87446e-05
3.1806e-05
3.18039e-05
3.16542e-05
3.16543e-05
2.25472e-05
2.26919e-05
3.87575e-05
3.18113e-05
3.1814e-05
3.166e-05
3.16633e-05
2.25504e-05
2.26957e-05
3.87571e-05
3.18117e-05
3.18146e-05
3.16653e-05
3.16686e-05
2.25563e-05
2.27e-05
3.87645e-05
3.18199e-05
3.18179e-05
3.16701e-05
3.16705e-05
2.2557e-05
2.2702e-05
5.62583e-05
6.23399e-05
5.49712e-05
6.05775e-05
6.22892e-05
5.49566e-05
5.62647e-05
5.73079e-05
6.03077e-05
6.48007e-05
6.41287e-05
6.03348e-05
6.41799e-05
5.72932e-05
5.73816e-05
6.4251e-05
6.48247e-05
6.0422e-05
6.03995e-05
6.42073e-05
5.73976e-05
5.61873e-05
6.05523e-05
6.22212e-05
5.4889e-05
6.22644e-05
5.48926e-05
5.61891e-05
5.62572e-05
5.49722e-05
6.23296e-05
6.05777e-05
5.49597e-05
6.2283e-05
5.62611e-05
5.73071e-05
6.03086e-05
6.47909e-05
6.41241e-05
6.03309e-05
6.41669e-05
5.72962e-05
5.73736e-05
6.42351e-05
6.48125e-05
6.04088e-05
6.03878e-05
6.41908e-05
5.73875e-05
5.61901e-05
6.05546e-05
5.48943e-05
6.22225e-05
5.48978e-05
6.22606e-05
5.61927e-05
6.59709e-05
5.34989e-05
5.95129e-05
5.95139e-05
5.94924e-05
5.94938e-05
6.6005e-05
6.59585e-05
5.34765e-05
5.95019e-05
5.95021e-05
6.6e-05
5.94758e-05
5.94765e-05
6.60534e-05
5.36008e-05
5.95677e-05
5.95682e-05
6.60273e-05
5.95831e-05
5.95834e-05
5.62426e-05
6.23289e-05
5.49594e-05
6.05668e-05
6.22749e-05
5.49438e-05
5.62506e-05
5.72887e-05
6.02866e-05
6.47856e-05
6.41085e-05
6.41595e-05
6.03144e-05
5.72742e-05
5.73631e-05
6.42385e-05
6.4812e-05
6.04081e-05
6.41893e-05
6.03817e-05
5.73816e-05
5.61717e-05
6.05406e-05
6.22059e-05
5.4877e-05
6.22489e-05
5.48801e-05
5.61737e-05
5.62507e-05
6.23364e-05
5.49622e-05
6.05694e-05
6.22834e-05
5.49468e-05
5.62579e-05
5.7301e-05
6.03029e-05
6.48006e-05
6.41233e-05
6.41752e-05
6.03303e-05
5.72864e-05
5.73754e-05
6.42503e-05
6.48248e-05
6.04195e-05
6.42039e-05
5.73925e-05
6.03961e-05
5.61798e-05
6.05433e-05
6.22145e-05
5.48799e-05
6.22577e-05
5.48831e-05
5.61818e-05
5.63424e-05
6.23525e-05
5.50425e-05
6.06985e-05
5.63364e-05
6.23961e-05
5.50585e-05
5.75235e-05
6.0522e-05
6.48866e-05
6.43074e-05
6.05161e-05
6.42964e-05
5.75242e-05
5.74678e-05
6.42581e-05
6.04638e-05
6.48821e-05
6.04796e-05
5.74566e-05
6.4288e-05
5.64153e-05
6.07153e-05
6.2431e-05
5.51412e-05
6.24092e-05
5.5135e-05
5.6413e-05
5.6347e-05
6.23592e-05
5.50449e-05
6.07001e-05
5.63422e-05
6.2401e-05
5.50605e-05
5.75249e-05
6.05206e-05
6.48878e-05
6.43105e-05
6.4302e-05
6.05168e-05
5.75244e-05
5.74734e-05
6.42681e-05
6.04715e-05
6.48853e-05
5.74645e-05
6.42951e-05
6.04844e-05
5.64176e-05
6.07166e-05
6.24338e-05
5.51422e-05
6.24133e-05
5.51363e-05
5.64147e-05
6.5974e-05
5.3494e-05
5.95146e-05
5.95175e-05
5.9495e-05
5.94919e-05
6.60107e-05
6.60553e-05
5.36092e-05
5.95755e-05
5.95776e-05
5.95877e-05
6.60343e-05
5.95897e-05
5.62476e-05
6.23296e-05
5.49623e-05
6.05697e-05
6.22784e-05
5.49485e-05
5.62539e-05
5.72934e-05
6.02922e-05
6.47882e-05
6.41162e-05
6.41644e-05
6.03185e-05
5.72799e-05
5.73659e-05
6.42419e-05
6.48142e-05
6.04087e-05
6.41928e-05
6.03837e-05
5.73833e-05
5.61783e-05
6.05459e-05
6.22135e-05
5.48838e-05
6.22541e-05
5.48867e-05
5.61807e-05
5.62495e-05
5.49626e-05
6.23251e-05
6.05697e-05
5.49496e-05
6.22772e-05
5.62538e-05
5.73004e-05
6.03035e-05
6.47876e-05
6.4119e-05
6.41625e-05
6.03257e-05
5.72894e-05
5.7367e-05
6.42328e-05
6.48108e-05
6.04039e-05
6.41875e-05
5.73814e-05
6.03828e-05
5.61827e-05
6.05465e-05
5.48859e-05
6.22162e-05
5.48885e-05
6.22546e-05
5.61856e-05
5.63418e-05
6.23525e-05
5.50414e-05
6.06941e-05
5.63369e-05
6.23954e-05
5.50561e-05
5.75231e-05
6.0523e-05
6.48894e-05
6.43124e-05
6.05172e-05
6.43007e-05
5.75237e-05
5.74676e-05
6.42615e-05
6.04649e-05
6.48845e-05
6.04802e-05
5.7457e-05
6.42919e-05
5.64137e-05
6.07117e-05
6.24325e-05
5.51372e-05
6.24091e-05
5.51308e-05
5.64114e-05
5.63363e-05
5.50402e-05
6.23467e-05
6.06913e-05
5.63328e-05
5.50543e-05
6.23874e-05
5.75101e-05
6.05073e-05
6.4876e-05
6.42959e-05
6.4286e-05
6.05028e-05
5.751e-05
5.74582e-05
6.42505e-05
6.0455e-05
6.48722e-05
5.74496e-05
6.42784e-05
6.04686e-05
5.64056e-05
6.07086e-05
5.51341e-05
6.24227e-05
5.5128e-05
6.24004e-05
5.64029e-05
5.62562e-05
5.49702e-05
6.23345e-05
6.05761e-05
5.49559e-05
6.22851e-05
5.62619e-05
5.73075e-05
6.03098e-05
6.47974e-05
6.41246e-05
6.03345e-05
6.41724e-05
5.72944e-05
5.73778e-05
6.42414e-05
6.48193e-05
6.04162e-05
6.03948e-05
6.41984e-05
5.73928e-05
5.61867e-05
6.05513e-05
5.48887e-05
6.22193e-05
5.48923e-05
6.2261e-05
5.61887e-05
5.63495e-05
6.23612e-05
5.50514e-05
6.07003e-05
5.63465e-05
6.23998e-05
5.50652e-05
5.75237e-05
6.0518e-05
6.48824e-05
6.43055e-05
5.75227e-05
6.05148e-05
6.42981e-05
5.74748e-05
6.42673e-05
6.04722e-05
6.48802e-05
5.74673e-05
6.04842e-05
6.42922e-05
5.64169e-05
6.07155e-05
6.24293e-05
5.51412e-05
5.64133e-05
6.24109e-05
5.5137e-05
5.6345e-05
5.50498e-05
6.23554e-05
6.06981e-05
5.63421e-05
5.50635e-05
6.23937e-05
5.75159e-05
6.05101e-05
6.48763e-05
6.42955e-05
6.4288e-05
6.05069e-05
5.75149e-05
5.74677e-05
6.42574e-05
6.0465e-05
6.48743e-05
5.74605e-05
6.42821e-05
6.04768e-05
5.64118e-05
6.07132e-05
5.51392e-05
6.24232e-05
5.51349e-05
6.24047e-05
5.64082e-05
6.59609e-05
5.34891e-05
5.95001e-05
5.95036e-05
5.94836e-05
5.94801e-05
6.59961e-05
6.60409e-05
5.35939e-05
5.95586e-05
5.95619e-05
5.95713e-05
6.60186e-05
5.95745e-05
5.62623e-05
5.49743e-05
6.23378e-05
6.05801e-05
5.49615e-05
6.22909e-05
5.62669e-05
5.73139e-05
6.03166e-05
6.48033e-05
6.4135e-05
6.03405e-05
6.41819e-05
5.7301e-05
5.73833e-05
6.42481e-05
6.48245e-05
6.042e-05
6.03996e-05
6.42072e-05
5.73972e-05
5.61934e-05
6.0557e-05
5.48949e-05
6.22273e-05
5.48987e-05
6.2268e-05
5.61953e-05
5.63407e-05
5.50481e-05
6.23502e-05
6.06931e-05
5.63384e-05
5.50605e-05
6.23884e-05
5.75124e-05
6.05092e-05
6.48762e-05
6.42956e-05
5.75119e-05
6.05047e-05
6.42862e-05
5.74622e-05
6.42521e-05
6.04588e-05
6.48731e-05
5.74545e-05
6.04719e-05
6.42793e-05
5.64074e-05
6.07087e-05
5.51346e-05
6.24207e-05
5.64041e-05
5.51303e-05
6.24003e-05
5.6346e-05
5.50503e-05
6.23577e-05
6.06954e-05
5.63443e-05
5.50627e-05
6.23943e-05
5.75165e-05
6.05126e-05
6.48811e-05
6.42999e-05
6.42929e-05
6.05095e-05
5.75153e-05
5.74694e-05
6.42636e-05
6.04683e-05
6.48791e-05
5.7463e-05
6.42871e-05
6.04797e-05
5.64111e-05
6.07106e-05
5.5136e-05
6.24238e-05
5.5132e-05
6.24052e-05
5.64074e-05
6.60462e-05
5.36046e-05
5.95702e-05
5.95712e-05
6.60263e-05
5.95814e-05
5.95822e-05
5.75437e-05
6.05242e-05
6.4295e-05
6.4876e-05
6.05231e-05
5.75478e-05
6.42988e-05
5.64513e-05
6.07541e-05
5.51893e-05
6.24244e-05
5.51869e-05
5.64593e-05
6.24324e-05
6.05268e-05
6.4881e-05
6.05258e-05
1.82947e-05
3.10255e-05
4.38502e-05
3.87786e-05
2.59369e-05
3.1293e-05
3.04549e-05
3.75615e-05
2.4225e-05
3.95877e-05
3.42489e-05
4.37622e-05
1.87052e-05
4.54347e-05
4.46376e-05
4.8813e-05
1.98995e-05
4.45491e-05
4.247e-05
4.60646e-05
2.82582e-05
3.87028e-05
4.07937e-05
4.46281e-05
3.12924e-05
3.85928e-05
4.24973e-05
4.39622e-05
3.10356e-05
4.32396e-05
4.35804e-05
4.63373e-05
2.75083e-05
4.50593e-05
4.37446e-05
4.91601e-05
2.64218e-05
4.42968e-05
4.31555e-05
4.7875e-05
2.7684e-05
4.47958e-05
4.49702e-05
4.89903e-05
3.11257e-05
4.62053e-05
4.6517e-05
4.95614e-05
3.15934e-05
4.58703e-05
4.59438e-05
4.87203e-05
3.12699e-05
4.57326e-05
4.57588e-05
4.88479e-05
3.13717e-05
4.68481e-05
4.68646e-05
5.01668e-05
3.29307e-05
4.76996e-05
4.77197e-05
5.06475e-05
3.37031e-05
4.80079e-05
4.79798e-05
5.07923e-05
3.41423e-05
4.84539e-05
4.84572e-05
5.12148e-05
3.48105e-05
4.88994e-05
4.88948e-05
5.15802e-05
3.54665e-05
4.9374e-05
4.93747e-05
5.18852e-05
3.61105e-05
4.97492e-05
4.97752e-05
5.22916e-05
3.66593e-05
5.01376e-05
5.00925e-05
5.25015e-05
3.71279e-05
5.03804e-05
5.04073e-05
5.27222e-05
3.76912e-05
5.07908e-05
5.08028e-05
5.30841e-05
3.81833e-05
5.10597e-05
5.10462e-05
5.32448e-05
4.20521e-05
5.09699e-05
3.44233e-05
3.08283e-05
4.31912e-05
3.0938e-05
3.49926e-05
3.52845e-05
3.56864e-05
4.33183e-05
4.32802e-05
3.23664e-05
3.35582e-05
3.09643e-05
3.3336e-05
4.91216e-05
3.11465e-05
3.42264e-05
3.22421e-05
3.35544e-05
3.75442e-05
5.11408e-05
4.19737e-05
4.36216e-05
3.1659e-05
4.08387e-05
3.81365e-05
3.64648e-05
4.38052e-05
4.35368e-05
3.07219e-05
4.01041e-05
3.11432e-05
3.33383e-05
3.71567e-05
3.57692e-05
2.99753e-05
3.86976e-05
3.35015e-05
3.07491e-05
3.47698e-05
4.21454e-05
3.96084e-05
3.32053e-05
3.68177e-05
4.00178e-05
3.21988e-05
4.40456e-05
4.50755e-05
5.01621e-05
3.6277e-05
3.46499e-05
3.21741e-05
4.31387e-05
3.83812e-05
4.48281e-05
4.30262e-05
4.18139e-05
4.99262e-05
3.74388e-05
4.39239e-05
4.30531e-05
4.86532e-05
3.3562e-05
4.25826e-05
3.21734e-05
4.46106e-05
3.65231e-05
4.47952e-05
5.05388e-05
4.92349e-05
3.21604e-05
4.38111e-05
3.65163e-05
4.3349e-05
4.34548e-05
4.55007e-05
4.32779e-05
5.00914e-05
4.61663e-05
4.35559e-05
4.39485e-05
4.3295e-05
4.6437e-05
4.36887e-05
4.77454e-05
3.86645e-05
4.40811e-05
4.30481e-05
3.93367e-05
4.81559e-05
4.20121e-05
3.8589e-05
4.21469e-05
4.30448e-05
4.08623e-05
4.24969e-05
3.9276e-05
4.07714e-05
4.54857e-05
4.42355e-05
4.24156e-05
4.07908e-05
4.08121e-05
4.46263e-05
4.85964e-05
5.10899e-05
4.42573e-05
3.88438e-05
4.62136e-05
3.86874e-05
4.18959e-05
4.28332e-05
4.43285e-05
4.08763e-05
4.6419e-05
4.24221e-05
4.04401e-05
3.84553e-05
3.99792e-05
4.46876e-05
4.69483e-05
4.05566e-05
4.20514e-05
4.01971e-05
4.39635e-05
5.11956e-05
4.93687e-05
4.63457e-05
3.89249e-05
4.60068e-05
4.24953e-05
4.32451e-05
4.68497e-05
4.65552e-05
4.29875e-05
4.61978e-05
4.37732e-05
3.99651e-05
4.19509e-05
4.04965e-05
4.72071e-05
4.75931e-05
4.01841e-05
4.33366e-05
4.06997e-05
4.52292e-05
4.90066e-05
4.57993e-05
4.52195e-05
4.35765e-05
4.28136e-05
4.48626e-05
4.75827e-05
4.89925e-05
4.53541e-05
4.38705e-05
4.27413e-05
4.38665e-05
4.19617e-05
4.50198e-05
4.49666e-05
4.76854e-05
4.74999e-05
4.20931e-05
4.38222e-05
4.48582e-05
4.91347e-05
4.56077e-05
4.4864e-05
4.22975e-05
4.48693e-05
4.18035e-05
4.4192e-05
4.89904e-05
4.7527e-05
4.21994e-05
4.35999e-05
4.16943e-05
4.29164e-05
4.51061e-05
4.44329e-05
4.4722e-05
4.73401e-05
4.62486e-05
4.49757e-05
4.31778e-05
4.46008e-05
4.78822e-05
4.49781e-05
4.83101e-05
4.18064e-05
4.40845e-05
4.37371e-05
4.42202e-05
4.7514e-05
4.83051e-05
4.16976e-05
4.28962e-05
4.37038e-05
4.3872e-05
4.46087e-05
4.43798e-05
4.47002e-05
4.62667e-05
4.84192e-05
4.45073e-05
4.39937e-05
4.46362e-05
4.86452e-05
4.8966e-05
5.01528e-05
4.48502e-05
4.4733e-05
4.65319e-05
4.61618e-05
4.87372e-05
4.97584e-05
4.48639e-05
4.49433e-05
4.65762e-05
4.65117e-05
4.50638e-05
4.61056e-05
4.59797e-05
4.9036e-05
5.01316e-05
4.50576e-05
4.6443e-05
4.60197e-05
4.95765e-05
5.01683e-05
4.93572e-05
4.66491e-05
4.62688e-05
4.64918e-05
4.6114e-05
4.97778e-05
4.89691e-05
4.66888e-05
4.65894e-05
4.65072e-05
4.62371e-05
4.60294e-05
4.60452e-05
4.58121e-05
5.01253e-05
4.90091e-05
4.60672e-05
4.61704e-05
4.58288e-05
4.87328e-05
4.93036e-05
4.89881e-05
4.62458e-05
4.59301e-05
4.59567e-05
4.577e-05
4.89342e-05
4.87828e-05
4.62527e-05
4.59994e-05
4.59582e-05
4.57914e-05
4.56957e-05
4.57274e-05
4.56187e-05
4.89664e-05
4.8805e-05
4.57069e-05
4.57546e-05
4.56258e-05
4.87132e-05
4.903e-05
4.96059e-05
4.59444e-05
4.57729e-05
4.62191e-05
4.64161e-05
4.88796e-05
4.98115e-05
4.59457e-05
4.57935e-05
4.62179e-05
4.64347e-05
4.56405e-05
4.6451e-05
4.65694e-05
4.89057e-05
4.98356e-05
4.5647e-05
4.64696e-05
4.65671e-05
4.99407e-05
4.98722e-05
5.06442e-05
4.66489e-05
4.68091e-05
4.76097e-05
4.75692e-05
5.006e-05
5.05563e-05
4.6647e-05
4.68251e-05
4.76101e-05
4.75895e-05
4.69415e-05
4.75816e-05
4.76219e-05
5.00812e-05
5.05721e-05
4.69387e-05
4.76043e-05
4.76228e-05
5.0585e-05
5.07356e-05
5.08521e-05
4.77842e-05
4.76975e-05
4.80292e-05
4.79409e-05
5.06251e-05
5.07622e-05
4.77855e-05
4.77152e-05
4.80263e-05
4.79193e-05
4.77344e-05
4.79249e-05
4.791e-05
5.06381e-05
5.07424e-05
4.77361e-05
4.79045e-05
4.7907e-05
5.07387e-05
5.08879e-05
5.10278e-05
4.80712e-05
4.80242e-05
4.82688e-05
4.83333e-05
5.08294e-05
5.11082e-05
4.80668e-05
4.79949e-05
4.82659e-05
4.83269e-05
4.79709e-05
4.83349e-05
4.83183e-05
5.08028e-05
5.11055e-05
4.79663e-05
4.83315e-05
4.83164e-05
5.11e-05
5.11149e-05
5.14789e-05
4.83802e-05
4.84449e-05
4.87852e-05
4.87765e-05
5.11972e-05
5.1463e-05
4.83785e-05
4.8445e-05
4.87843e-05
4.87699e-05
4.84681e-05
4.87884e-05
4.88352e-05
5.12016e-05
5.1458e-05
4.84672e-05
4.87829e-05
4.88345e-05
5.15147e-05
5.15744e-05
5.18236e-05
4.8911e-05
4.88921e-05
4.92323e-05
4.92621e-05
5.1547e-05
5.18563e-05
4.89107e-05
4.88871e-05
4.92312e-05
4.92645e-05
4.89251e-05
4.92589e-05
4.9212e-05
5.15386e-05
5.18606e-05
4.89248e-05
4.92622e-05
4.9211e-05
5.17947e-05
5.19004e-05
5.21915e-05
4.93392e-05
4.93774e-05
4.96785e-05
4.96578e-05
5.19436e-05
5.21634e-05
4.93371e-05
4.93766e-05
4.96792e-05
4.96729e-05
4.93295e-05
4.96589e-05
4.96936e-05
5.19499e-05
5.21809e-05
4.93273e-05
4.96754e-05
4.96944e-05
5.2213e-05
5.22722e-05
5.24453e-05
4.97842e-05
4.97469e-05
5.00357e-05
5.0047e-05
5.22301e-05
5.24637e-05
4.97881e-05
4.97716e-05
5.00368e-05
5.00261e-05
4.98008e-05
5.00492e-05
5.00475e-05
5.22501e-05
5.24337e-05
4.98047e-05
5.00309e-05
5.00491e-05
5.24549e-05
5.24935e-05
5.26454e-05
5.00991e-05
5.01363e-05
5.02989e-05
5.03171e-05
5.25309e-05
5.26679e-05
5.00948e-05
5.00882e-05
5.02914e-05
5.03037e-05
5.0108e-05
5.03178e-05
5.03019e-05
5.24869e-05
5.26598e-05
5.01038e-05
5.03061e-05
5.02948e-05
5.26468e-05
5.27223e-05
5.30251e-05
5.03893e-05
5.03793e-05
5.07055e-05
5.06758e-05
5.27203e-05
5.29873e-05
5.03881e-05
5.0405e-05
5.0713e-05
5.07133e-05
5.03909e-05
5.06765e-05
5.06983e-05
5.27415e-05
5.30205e-05
5.03901e-05
5.07151e-05
5.0707e-05
5.30158e-05
5.30944e-05
5.32133e-05
5.08088e-05
5.07906e-05
5.10219e-05
5.1032e-05
5.30735e-05
5.32261e-05
5.08133e-05
5.08012e-05
5.10177e-05
5.10062e-05
5.07989e-05
5.10314e-05
5.10197e-05
5.30811e-05
5.32021e-05
5.08039e-05
5.10079e-05
5.1015e-05
5.3212e-05
5.32412e-05
5.32988e-05
5.10471e-05
5.10605e-05
5.11248e-05
5.11372e-05
5.32558e-05
5.33133e-05
5.10429e-05
5.10441e-05
5.11301e-05
5.1154e-05
5.10515e-05
5.11425e-05
5.11536e-05
5.32379e-05
5.33312e-05
5.10473e-05
5.11588e-05
5.11564e-05
5.33282e-05
6.52194e-05
7.24339e-05
7.23898e-05
6.43632e-05
6.89146e-05
6.92506e-05
6.44521e-05
7.20214e-05
7.19503e-05
6.47318e-05
1.66021e-05
2.66783e-05
1.82579e-05
2.50341e-05
1.64965e-05
2.15221e-05
1.83376e-05
5.18299e-05
5.69218e-05
2.62216e-05
3.09278e-05
5.67513e-05
2.62004e-05
5.2032e-05
6.76508e-05
6.77923e-05
5.16831e-05
3.26764e-05
5.9927e-05
4.11218e-05
3.23775e-05
5.55167e-05
5.44898e-05
6.45789e-05
6.41311e-05
3.79367e-05
6.43839e-05
6.32888e-05
6.49813e-05
7.10131e-05
6.57958e-05
7.0168e-05
6.95861e-05
6.98687e-05
6.41648e-05
7.09683e-05
6.42443e-05
7.03491e-05
1.65454e-05
1.94346e-05
1.83756e-05
2.57716e-05
2.00606e-05
1.78081e-05
1.92598e-05
5.25224e-05
5.83775e-05
2.62476e-05
3.24849e-05
5.19225e-05
5.93399e-05
2.64476e-05
6.90997e-05
6.99499e-05
4.9824e-05
2.70853e-05
5.3463e-05
2.99093e-05
4.96029e-05
2.63804e-05
5.62402e-05
6.46345e-05
6.34626e-05
3.81087e-05
6.61289e-05
6.57312e-05
6.38502e-05
7.01886e-05
6.37629e-05
7.08398e-05
7.05021e-05
7.07019e-05
6.4629e-05
7.03173e-05
6.41375e-05
7.08038e-05
2.24824e-05
1.80371e-05
2.09649e-05
1.91643e-05
2.81171e-05
2.53802e-05
2.61269e-05
5.5691e-05
6.16518e-05
3.03243e-05
4.18491e-05
5.42193e-05
6.33995e-05
3.21978e-05
7.05414e-05
7.0484e-05
5.63352e-05
2.66555e-05
6.20422e-05
3.9079e-05
5.42372e-05
2.84318e-05
6.39471e-05
6.88816e-05
6.92915e-05
4.6823e-05
6.99069e-05
7.0362e-05
6.61399e-05
7.16088e-05
6.56895e-05
7.1746e-05
7.02935e-05
6.9735e-05