/*--------------------------------*- C++ -*----------------------------------*\
| =========                 |                                                 |
| \\      /  F ield         | OpenFOAM: The Open Source CFD Toolbox           |
|  \\    /   O peration     | Version:  v1906                                 |
|   \\  /    A nd           | Web:      www.OpenFOAM.com                      |
|    \\/     M anipulation  |                                                 |
\*---------------------------------------------------------------------------*/
FoamFile
{
    version     2.0;
    format      ascii;
    class       volScalarField;
    location    "1000";
    object      nut;
}
// * * * * * * * * * * * * * * * * * * * * * * * * * * * * * * * * * * * * * //

dimensions      [0 2 -1 0 0 0 0];


internalField   nonuniform List<scalar> 
43024
(
0.000233973
0.000233116
0.000233116
0.000233423
0.000232532
0.000227802
0.000227801
0.000223866
0.000230516
0.00022032
0.000220318
0.000209109
0.000227799
0.000211665
0.000211661
0.000193785
0.000224433
0.00020265
0.000202644
0.000179709
0.000220552
0.000193772
0.000193765
0.000167339
0.000216304
0.000185275
0.000185267
0.000156587
0.00021182
0.000177234
0.000177226
0.000147206
0.000207207
0.000169688
0.00016968
0.00013895
0.000202545
0.000162611
0.000162603
0.000131615
0.000197889
0.000155949
0.000155941
0.000124953
0.000193275
0.000149646
0.000149637
0.000118816
0.000188683
0.000143664
0.000143657
0.000113168
0.00018415
0.000137952
0.000137942
0.000107931
0.000179704
0.000132459
0.00013245
0.000103053
0.000175337
0.000127187
0.00012718
9.84291e-05
0.000171035
0.000122151
0.000122141
9.42523e-05
0.000166784
0.00011737
0.00011736
9.06564e-05
0.000162587
0.000112888
0.000112877
8.77292e-05
0.000158416
0.00010876
0.000108747
8.54031e-05
0.000154264
0.000105036
0.000105023
8.36768e-05
0.000234266
0.000234448
0.000234449
0.000234267
0.000234448
0.000234449
0.000234274
0.000234274
0.000234274
0.000234274
0.000234448
0.000234448
0.000234266
0.000234448
0.000234448
0.000234266
0.000233423
0.000226204
0.000233116
0.000233114
0.000229361
0.000229357
0.000233423
0.000226205
0.000233114
0.000233114
0.000229359
0.000229356
0.000233116
0.000229364
0.000229361
0.000233423
0.000226202
0.000233114
0.000229363
0.000229359
0.000226203
0.000223867
0.00021223
0.000227799
0.000227794
0.000222332
0.000222326
0.000223868
0.000212234
0.000227797
0.000227792
0.000222332
0.000222323
0.000227798
0.000222339
0.000222331
0.000223866
0.000212227
0.000227797
0.000222336
0.000222331
0.000212228
0.000209111
0.000197061
0.000220313
0.000220307
0.000213879
0.000213874
0.000209112
0.000197066
0.000220314
0.000220304
0.000213883
0.000213869
0.000220311
0.00021389
0.000213877
0.000209107
0.000197057
0.000220313
0.000213886
0.000213882
0.000197058
0.000193788
0.000182876
0.000211654
0.000211648
0.00020489
0.000204884
0.000193792
0.000182883
0.000211658
0.000211643
0.000204898
0.000204879
0.000211651
0.000204905
0.000204887
0.000193784
0.000182872
0.000211657
0.000204899
0.000204896
0.000182872
0.000179713
0.000170268
0.000202634
0.000202628
0.000195943
0.000195937
0.000179717
0.000170274
0.000202643
0.000202622
0.000195954
0.000195931
0.000202631
0.000195962
0.00019594
0.000179708
0.000170263
0.000202641
0.000195955
0.000195953
0.000170263
0.000167344
0.000159242
0.000193753
0.000193747
0.000187336
0.000187331
0.000167349
0.000159249
0.000193765
0.000193741
0.000187351
0.000187324
0.000193749
0.000187359
0.000187333
0.000167339
0.000159238
0.000193764
0.000187351
0.00018735
0.000159238
0.000156592
0.000149614
0.000185253
0.000185247
0.000179173
0.000179168
0.000156597
0.00014962
0.000185268
0.00018524
0.000179191
0.00017916
0.000185249
0.000179198
0.00017917
0.000156587
0.000149608
0.000185267
0.00017919
0.00017919
0.000149608
0.000147212
0.000141107
0.000177208
0.000177203
0.000171501
0.000171496
0.000147217
0.000141114
0.000177227
0.000177195
0.000171521
0.000171488
0.000177205
0.000171529
0.000171498
0.000147206
0.000141101
0.000177225
0.00017152
0.000171521
0.000141101
0.000138956
0.000133548
0.00016966
0.000169655
0.000164309
0.000164304
0.000138961
0.000133554
0.000169681
0.000169647
0.000164332
0.000164296
0.000169657
0.000164339
0.000164307
0.000138951
0.000133542
0.00016968
0.000164331
0.000164332
0.000133541
0.000131622
0.000126686
0.000162581
0.000162576
0.000157546
0.000157541
0.000131627
0.000126693
0.000162604
0.000162567
0.000157572
0.000157533
0.000162579
0.000157579
0.000157545
0.000131615
0.00012668
0.000162604
0.00015757
0.000157572
0.000126679
0.00012496
0.000120362
0.000155916
0.000155912
0.000151158
0.000151153
0.000124966
0.000120369
0.000155942
0.000155903
0.000151185
0.000151144
0.000155914
0.000151192
0.000151156
0.000124954
0.000120355
0.000155941
0.000151183
0.000151184
0.000120355
0.000118822
0.000114426
0.000149611
0.000149606
0.000145096
0.000145091
0.000118827
0.000114434
0.000149639
0.000149598
0.000145124
0.000145083
0.000149611
0.000145133
0.000145096
0.000118816
0.00011442
0.000149639
0.000145124
0.000145125
0.000114418
0.000113175
0.000108833
0.00014363
0.000143623
0.000139318
0.000139313
0.000113181
0.000108841
0.000143658
0.000143616
0.000139348
0.000139306
0.000143628
0.000139356
0.000139319
0.000113169
0.000108828
0.000143657
0.000139348
0.000139348
0.000108827
0.000107937
0.000103701
0.000137915
0.000137909
0.000133778
0.000133769
0.000107943
0.000103706
0.000137943
0.0001379
0.000133806
0.000133762
0.000137914
0.000133814
0.000133777
0.000107932
0.000103693
0.000137943
0.000133805
0.000133806
0.000103692
0.00010306
9.91212e-05
0.000132422
0.000132415
0.000128445
0.000128437
0.000103066
9.91263e-05
0.00013245
0.000132408
0.000128471
0.000128426
0.000132421
0.000128483
0.000128447
0.000103054
9.91138e-05
0.00013245
0.000128471
0.000128476
9.91135e-05
9.84357e-05
9.49895e-05
0.000127149
0.00012714
0.000123344
0.000123337
9.84407e-05
9.49952e-05
0.000127176
0.000127133
0.000123371
0.000123332
0.000127151
0.000123385
0.000123348
9.8429e-05
9.49831e-05
0.00012718
0.000123376
0.000123375
9.49832e-05
9.42577e-05
9.1432e-05
0.00012211
0.000122103
0.000118475
0.000118469
9.42633e-05
9.14389e-05
0.000122137
0.000122097
0.0001185
0.00011846
0.000122115
0.000118517
0.000118478
9.42533e-05
9.14298e-05
0.000122142
0.000118506
0.000118505
9.14261e-05
9.0662e-05
8.83771e-05
0.000117331
0.000117322
0.000113918
0.000113915
9.06684e-05
8.83802e-05
0.000117355
0.000117313
0.000113943
0.000113903
0.00011733
0.000113959
0.000113922
9.06598e-05
8.83729e-05
0.000117357
0.00011395
0.000113949
8.83725e-05
8.77364e-05
8.59221e-05
0.000112848
0.000112843
0.000109695
0.000109687
8.77397e-05
8.5926e-05
0.00011287
0.000112831
0.000109718
0.000109676
0.000112851
0.000109733
0.000109702
8.77319e-05
8.59094e-05
0.000112877
0.00010972
0.000109724
8.59209e-05
8.54074e-05
8.40798e-05
0.000108725
0.000108714
0.000105852
0.000105845
8.54049e-05
8.4085e-05
0.000108744
0.000108704
0.000105874
0.000105834
0.000108729
0.000105893
0.000105856
8.539e-05
8.40773e-05
0.000108753
0.000105882
0.00010588
8.4076e-05
8.36798e-05
0.000104991
0.000104987
8.36881e-05
0.000105013
0.000104975
0.000104997
8.36787e-05
0.00010502
0.00023473
0.000234746
0.000234729
0.000234729
0.000235118
0.000234798
0.000234701
0.000234727
0.000235118
0.000234798
0.000234727
0.000234701
0.000234867
0.000233566
0.000233566
0.000104651
3.87411e-05
0.000129118
3.98249e-05
2.16834e-05
2.28313e-05
0.000104643
3.87372e-05
0.000129114
3.98215e-05
0.000233973
0.000233973
0.000233973
0.000232935
0.000232935
0.000232935
0.000232935
0.000206196
9.36753e-05
0.000233969
0.000231994
0.000222614
8.72226e-05
0.000233611
2.16823e-05
2.28307e-05
0.00020619
0.000233969
9.36749e-05
0.000231994
0.000222622
0.000233611
8.72283e-05
4.78012e-05
4.77894e-05
0.000231345
4.40185e-05
4.40089e-05
7.25678e-05
4.24341e-05
8.14026e-05
4.37634e-05
2.47749e-05
2.54634e-05
7.25581e-05
4.24305e-05
8.13971e-05
4.37596e-05
0.000232532
0.000232532
0.000232532
0.000231084
0.000231084
0.000231083
0.000231084
0.000167491
7.94388e-05
0.000232081
0.000226097
0.000180211
7.45076e-05
0.000231376
2.47731e-05
2.54619e-05
0.000167487
0.000232081
7.94329e-05
0.000226096
0.000180204
0.000231375
7.45112e-05
3.91644e-05
3.91542e-05
0.000219593
3.65759e-05
3.65651e-05
5.62774e-05
4.55467e-05
6.11325e-05
4.64126e-05
2.60134e-05
2.61173e-05
5.62815e-05
4.5544e-05
6.11277e-05
4.64097e-05
0.000230516
0.000230515
0.000230515
0.000228543
0.000228543
0.000228541
0.000228542
0.000138601
6.74261e-05
0.000228643
0.000218231
0.000148065
6.35184e-05
0.000227537
2.60111e-05
2.61152e-05
0.000138596
0.000228643
6.742e-05
0.000218228
0.000148057
0.000227534
6.35147e-05
3.32183e-05
3.32097e-05
0.000204613
3.19921e-05
3.19831e-05
4.69657e-05
4.74991e-05
4.9909e-05
4.80043e-05
2.60471e-05
2.59392e-05
4.69648e-05
4.74958e-05
4.99095e-05
4.80016e-05
0.000227799
0.000227797
0.000227798
0.000225328
0.000225329
0.000225326
0.000225327
0.000117548
5.82053e-05
0.000223721
0.00020942
0.000124602
5.5486e-05
0.00022231
2.60446e-05
2.59372e-05
0.000117545
0.000223719
5.82035e-05
0.000209415
0.000124596
0.000222306
5.54828e-05
3.06179e-05
3.061e-05
0.000189779
3.03048e-05
3.0297e-05
4.14286e-05
4.85823e-05
4.32437e-05
4.88397e-05
2.56753e-05
2.55199e-05
4.14276e-05
4.85789e-05
4.32442e-05
4.88369e-05
0.000224433
0.000224431
0.000224432
0.000221562
0.000221563
0.000221559
0.000221561
0.000102112
5.18775e-05
0.000217771
0.000200404
0.000107381
5.00765e-05
0.000216181
2.56727e-05
2.5518e-05
0.000102111
0.000217769
5.18758e-05
0.000200398
0.000107374
0.000216177
5.00744e-05
3.01918e-05
3.01845e-05
0.000176369
3.04157e-05
3.04073e-05
3.81561e-05
4.90932e-05
3.92422e-05
4.91983e-05
2.52376e-05
2.5094e-05
3.8155e-05
4.90899e-05
3.92423e-05
4.91954e-05
0.000220552
0.000220549
0.00022055
0.000217392
0.000217393
0.000217389
0.000217391
9.04956e-05
4.77374e-05
0.000211269
0.000191607
9.44609e-05
4.66134e-05
0.000209603
2.5235e-05
2.50922e-05
9.04949e-05
0.000211267
4.77369e-05
0.0001916
9.44546e-05
0.000209598
4.66112e-05
3.09732e-05
3.09679e-05
0.000164561
3.15763e-05
3.15706e-05
3.63746e-05
4.92746e-05
3.69398e-05
4.92961e-05
2.48485e-05
2.47327e-05
3.63734e-05
4.92716e-05
3.69396e-05
4.9293e-05
0.000216305
0.0002163
0.000216302
0.000212957
0.000212958
0.000212952
0.000212955
8.15888e-05
4.51671e-05
0.000204579
0.00018322
8.46726e-05
4.45536e-05
0.000202907
2.48461e-05
2.47309e-05
8.15885e-05
0.000204576
4.51664e-05
0.000183211
8.46662e-05
0.000202902
4.45509e-05
3.25254e-05
3.25214e-05
0.000154267
3.33502e-05
3.33445e-05
3.56769e-05
4.92918e-05
3.58214e-05
4.92821e-05
2.45348e-05
2.44469e-05
3.56746e-05
4.92888e-05
3.58209e-05
4.9279e-05
0.000211821
0.000211816
0.000211818
0.000208367
0.000208368
0.000208362
0.000208365
7.46438e-05
4.37713e-05
0.000197938
0.000175301
7.71189e-05
4.3524e-05
0.000196304
2.45325e-05
2.4445e-05
7.46449e-05
0.000197935
4.37696e-05
0.000175292
7.71142e-05
0.000196298
4.3521e-05
3.45599e-05
3.45559e-05
0.00014522
3.55036e-05
3.54989e-05
3.57599e-05
4.92554e-05
3.56385e-05
4.92441e-05
2.42942e-05
2.42289e-05
3.57578e-05
4.92526e-05
3.56378e-05
4.92411e-05
0.000207208
0.000207201
0.000207204
0.000203711
0.000203712
0.000203705
0.000203708
6.91756e-05
4.32446e-05
0.000191483
0.000167877
7.12024e-05
4.32347e-05
0.000189901
2.42921e-05
2.42269e-05
6.91755e-05
0.00019148
4.3242e-05
0.000167869
7.11972e-05
0.000189895
4.32338e-05
3.68746e-05
3.68712e-05
0.000137218
3.78957e-05
3.78925e-05
3.65548e-05
4.9226e-05
3.62059e-05
4.92225e-05
2.41154e-05
2.40679e-05
3.6564e-05
4.92236e-05
3.62068e-05
4.92196e-05
0.000202546
0.000202539
0.000202542
0.000199049
0.00019905
0.000199043
0.000199047
6.48673e-05
4.33834e-05
0.00018524
0.000160909
6.65088e-05
4.35663e-05
0.000183717
2.41134e-05
2.4066e-05
6.48651e-05
0.000185237
4.33827e-05
0.0001609
6.65062e-05
0.000183711
4.35651e-05
3.93487e-05
3.93459e-05
0.000130035
4.03985e-05
4.03965e-05
3.806e-05
4.92217e-05
3.73788e-05
4.92274e-05
2.39858e-05
2.39522e-05
3.80559e-05
4.92189e-05
3.7366e-05
4.92239e-05
0.000197891
0.000197883
0.000197886
0.000194422
0.000194423
0.000194415
0.000194418
6.15085e-05
4.40646e-05
0.000179254
0.000154342
6.27537e-05
4.44054e-05
0.000177803
2.39839e-05
2.39503e-05
6.15064e-05
0.000179251
4.40644e-05
0.000154333
6.27516e-05
0.000177796
4.4405e-05
4.18736e-05
4.18718e-05
0.000123457
4.29195e-05
4.29189e-05
4.00955e-05
4.92397e-05
3.91172e-05
4.92523e-05
2.3894e-05
2.38706e-05
4.00986e-05
4.92365e-05
3.91178e-05
4.92498e-05
0.000193276
0.000193268
0.000193273
0.00018983
0.000189832
0.000189823
0.000189828
5.90068e-05
4.51938e-05
0.000173549
0.000148123
5.9854e-05
4.56673e-05
0.000172164
2.3892e-05
2.38686e-05
5.90062e-05
0.000173547
4.51943e-05
0.000148113
5.98501e-05
0.000172158
4.56666e-05
4.43627e-05
4.43618e-05
0.000117344
4.53858e-05
4.53871e-05
4.26697e-05
4.9273e-05
4.13967e-05
4.929e-05
2.38296e-05
2.38134e-05
4.26389e-05
4.92706e-05
4.14103e-05
4.9287e-05
0.000188684
0.000188676
0.00018868
0.000185274
0.000185275
0.000185267
0.000185271
5.72022e-05
4.66962e-05
0.000168096
0.000142214
5.77239e-05
4.72772e-05
0.00016677
2.38277e-05
2.38115e-05
5.72009e-05
0.000168094
4.6697e-05
0.000142204
5.7722e-05
0.000166763
4.7276e-05
4.67561e-05
4.67574e-05
0.000111572
4.77376e-05
4.7738e-05
4.55989e-05
4.93129e-05
4.42146e-05
4.93295e-05
2.37844e-05
2.3773e-05
4.55838e-05
4.93101e-05
4.42073e-05
4.93269e-05
0.000184152
0.000184142
0.000184147
0.000180809
0.00018081
0.000180801
0.000180806
5.6039e-05
4.84969e-05
0.000162861
0.000136558
5.63227e-05
4.91585e-05
0.000161582
2.37824e-05
2.3771e-05
5.60373e-05
0.000162859
4.8497e-05
0.000136551
5.63222e-05
0.000161577
4.91592e-05
4.90071e-05
4.90061e-05
0.000106192
4.99228e-05
4.99255e-05
4.88282e-05
4.93515e-05
4.73514e-05
4.93673e-05
2.37516e-05
2.37432e-05
4.88232e-05
4.9349e-05
4.73581e-05
4.93645e-05
0.000179705
0.000179697
0.000179701
0.000176421
0.000176423
0.000176412
0.000176419
5.5519e-05
5.05192e-05
0.000157809
0.000131122
5.56025e-05
5.12393e-05
0.000156575
2.37496e-05
2.37413e-05
5.55141e-05
0.000157807
5.05186e-05
0.000131112
5.56027e-05
0.000156568
5.12392e-05
5.10777e-05
5.10785e-05
0.000101346
5.19343e-05
5.19372e-05
5.22467e-05
4.93869e-05
5.07338e-05
4.94014e-05
2.37262e-05
2.37196e-05
5.22308e-05
4.93846e-05
5.07404e-05
4.93988e-05
0.000175339
0.00017533
0.000175336
0.000172103
0.000172106
0.000172098
0.000172102
5.56494e-05
5.26907e-05
0.000152914
0.000125904
5.55147e-05
5.34483e-05
0.000151716
2.37244e-05
2.37179e-05
5.56507e-05
0.000152914
5.26932e-05
0.000125894
5.55131e-05
0.00015171
5.34477e-05
5.29796e-05
5.2983e-05
9.69876e-05
5.37443e-05
5.37443e-05
5.57298e-05
4.94194e-05
5.4192e-05
4.94325e-05
2.37056e-05
2.37e-05
5.57315e-05
4.94169e-05
5.41926e-05
4.94298e-05
0.000171037
0.000171028
0.000171034
0.000167838
0.000167841
0.000167831
0.000167836
5.6386e-05
5.49492e-05
0.000148169
0.000120926
5.60605e-05
5.57177e-05
0.000147005
2.37038e-05
2.36982e-05
5.63811e-05
0.000148167
5.49488e-05
0.000120915
5.60572e-05
0.000146999
5.57175e-05
5.46763e-05
5.46782e-05
9.31307e-05
5.53901e-05
5.53919e-05
5.90919e-05
4.94493e-05
5.76342e-05
4.9461e-05
2.36875e-05
2.36828e-05
5.90875e-05
4.94466e-05
5.76394e-05
4.94585e-05
0.000166785
0.000166776
0.000166781
0.000163625
0.000163629
0.000163618
0.000163624
5.76903e-05
5.72233e-05
0.000143539
0.000116207
5.71794e-05
5.79934e-05
0.0001424
2.36857e-05
2.36807e-05
5.76949e-05
0.000143539
5.7226e-05
0.000116197
5.71782e-05
0.000142397
5.79923e-05
5.62247e-05
5.62302e-05
8.98236e-05
5.68737e-05
5.68726e-05
6.22985e-05
4.94781e-05
6.08834e-05
4.9489e-05
2.36712e-05
2.36664e-05
6.22677e-05
4.94749e-05
6.09117e-05
4.94861e-05
0.00016259
0.000162579
0.000162585
0.000159451
0.000159453
0.000159443
0.000159451
5.95031e-05
5.9479e-05
0.000139012
0.000111801
5.88424e-05
6.02313e-05
0.000137902
2.36693e-05
2.36647e-05
5.95061e-05
0.000139012
5.94794e-05
0.000111789
5.88392e-05
0.000137898
6.02309e-05
5.76146e-05
5.76204e-05
8.70617e-05
5.82112e-05
5.82096e-05
6.5159e-05
4.95039e-05
6.39521e-05
4.95144e-05
2.36558e-05
2.36517e-05
6.51848e-05
4.95013e-05
6.39255e-05
4.95121e-05
0.000158419
0.000158408
0.000158417
0.000155297
0.000155301
0.000155289
0.000155296
6.17462e-05
6.16781e-05
0.000134592
0.00010776
6.09423e-05
6.23995e-05
0.000133517
2.3654e-05
2.36498e-05
6.17394e-05
0.000134592
6.16739e-05
0.000107748
6.09471e-05
0.000133512
6.24051e-05
5.88806e-05
5.88843e-05
8.49226e-05
5.94156e-05
5.94169e-05
6.77607e-05
4.95288e-05
6.6672e-05
4.95388e-05
2.36418e-05
2.36381e-05
6.77733e-05
4.95266e-05
6.66683e-05
4.9537e-05
0.000154271
0.000154257
0.000154265
6.43111e-05
6.37884e-05
0.000130302
0.000104166
6.342e-05
6.44838e-05
0.000129268
2.36398e-05
2.36359e-05
6.43119e-05
0.000130301
6.37729e-05
0.000104155
6.34091e-05
0.000129263
6.44998e-05
6.00317e-05
6.00328e-05
8.33884e-05
6.05139e-05
6.05153e-05
0.000234867
0.000233564
0.000233566
2.32575e-05
0.000214159
2.32564e-05
0.000214162
0.000234435
5.13349e-05
5.13185e-05
0.00022999
0.000229991
0.000235117
0.000234798
0.000234701
0.000234727
0.000235117
0.000234798
0.000234701
0.000234727
0.000234477
4.02624e-05
0.000218814
0.000147835
0.000234477
4.02619e-05
0.000218814
0.000147842
0.000233889
0.000234474
0.000100094
0.000234271
0.000233358
0.000234597
0.000228477
0.000233889
0.000234474
0.000100084
0.000234271
0.000233359
0.000234597
0.000228476
0.000234867
0.000233565
0.000233565
2.32572e-05
0.000214167
0.000234435
5.13294e-05
5.13201e-05
0.000229989
0.000229991
2.32571e-05
0.000214169
0.000235118
0.000234798
0.000234701
0.000234727
0.000235117
0.000234798
0.000234727
0.000234701
0.000234477
4.02592e-05
0.000218815
0.000147811
0.000233889
0.000234474
0.000100072
0.00023427
0.000233359
0.000234597
0.000228474
0.000234477
4.02587e-05
0.000218815
0.000147826
0.000233889
0.000234474
0.000234271
0.00010008
0.000234597
0.000233359
0.000228476
0.00023473
0.000234746
0.000234729
0.000234729
0.00023473
0.000234746
0.000234729
0.000234729
0.00023473
0.000234746
0.000234729
0.000234729
0.000234591
0.000234574
0.000234253
0.000234253
0.000234592
0.000234592
0.000234252
0.000234591
0.000234574
0.000234253
0.000234253
0.000234592
0.000234592
0.000234253
0.000234591
0.000234574
0.000234253
0.000234253
0.000234592
0.000234592
0.000234252
0.000234591
0.000234574
0.000234253
0.000234253
0.000234592
0.000234592
0.000234253
0.000235117
0.000234798
0.000234727
0.000234701
0.000233889
0.000234474
0.000100075
0.000234271
0.000233359
0.000234597
0.000228475
0.000234477
4.02599e-05
0.000218817
0.000147827
0.000233889
0.000234474
0.000234271
0.00010009
0.000234597
0.000233359
0.000228477
0.000234477
4.02595e-05
0.000218816
0.000147834
0.000234867
0.000233566
0.000233566
2.32565e-05
0.000214163
0.000234435
5.13198e-05
5.13262e-05
0.000229991
0.000229993
2.32569e-05
0.000214171
0.000235118
0.000234798
0.000234727
0.000234701
0.000233888
0.000234474
0.00023427
0.000100084
0.000234596
0.00023336
0.000228476
0.000233888
0.000234474
0.00023427
0.000100074
0.000234597
0.000233359
0.000228475
0.000234477
4.0259e-05
0.000218818
0.000147812
0.000234477
4.02589e-05
0.000218813
0.000147799
0.000234435
5.13299e-05
5.13174e-05
0.000229992
0.000229992
2.3257e-05
0.00021417
2.32564e-05
0.000214164
2.16838e-05
2.28324e-05
2.16825e-05
2.28308e-05
4.78053e-05
4.77913e-05
0.000231346
4.40209e-05
4.4008e-05
2.44812e-05
2.33048e-05
2.44796e-05
2.33036e-05
0.000229667
4.00646e-05
4.00532e-05
4.31026e-05
4.30864e-05
0.000104665
3.87403e-05
0.000129104
3.98229e-05
0.0002062
9.36855e-05
0.000233969
0.000231993
0.000222609
8.72303e-05
0.000233611
0.000206202
9.36687e-05
0.000233969
0.000231989
0.000222605
8.72172e-05
0.000233611
9.84249e-05
4.19625e-05
4.03774e-05
8.55717e-05
9.84178e-05
4.1961e-05
4.03764e-05
8.55737e-05
0.000200084
0.000230759
8.08051e-05
0.000232683
8.56699e-05
0.000233189
0.000185633
0.000200083
0.000230754
8.07973e-05
0.000232682
8.56529e-05
0.000233188
0.000185637
4.77939e-05
4.78042e-05
0.000231346
4.40133e-05
4.40131e-05
2.16834e-05
2.28325e-05
2.44802e-05
2.33042e-05
0.000229667
4.00583e-05
4.00541e-05
4.30884e-05
4.31006e-05
2.44815e-05
2.33049e-05
0.000206191
9.36637e-05
0.000233969
0.000231991
0.000222608
8.72111e-05
0.000233611
0.000104646
3.87366e-05
0.000129133
3.98208e-05
0.000206191
0.000233969
9.36679e-05
0.000231989
0.000222612
0.000233611
8.72103e-05
9.84214e-05
4.19588e-05
4.03739e-05
8.55671e-05
0.000200082
0.000230756
8.07912e-05
0.000232682
8.56531e-05
0.000233189
0.000185632
9.84227e-05
4.19581e-05
4.03731e-05
8.55652e-05
0.000200082
0.000230753
0.000232682
8.07865e-05
0.000233188
8.56518e-05
0.000185628
0.000104651
3.87375e-05
0.000129123
3.98237e-05
0.000206196
0.000233969
9.36761e-05
0.000231993
0.000222618
0.000233611
8.72255e-05
0.000104649
3.87383e-05
0.000129142
3.98219e-05
0.000200085
0.00023076
8.08006e-05
0.000232683
8.56684e-05
0.000233189
0.000185635
9.84234e-05
4.19612e-05
4.0375e-05
8.55678e-05
0.000200085
0.000230758
0.000232683
8.08052e-05
0.000233189
8.56647e-05
0.000185634
9.84287e-05
4.19598e-05
4.03754e-05
8.55689e-05
4.77938e-05
4.77996e-05
0.000231345
4.40044e-05
4.40234e-05
2.16828e-05
2.28314e-05
2.44791e-05
2.33026e-05
0.000229667
4.00481e-05
4.00662e-05
4.30906e-05
4.30952e-05
2.44802e-05
2.33042e-05
0.000206188
0.000233969
9.36626e-05
0.00023199
0.000222617
0.000233611
8.72143e-05
0.00010463
3.87374e-05
0.00012915
3.98221e-05
0.000104626
3.87368e-05
0.000129136
3.9821e-05
0.000200083
0.00023076
0.000232682
8.08049e-05
0.000233189
8.56605e-05
0.000185631
0.000200084
0.000230756
0.000232682
8.07962e-05
0.000233189
8.5652e-05
0.00018563
9.84375e-05
4.19594e-05
4.0375e-05
8.55646e-05
9.84368e-05
4.19588e-05
4.03737e-05
8.55642e-05
2.16832e-05
2.28314e-05
2.16823e-05
2.28308e-05
0.000229667
4.00664e-05
4.00544e-05
4.30992e-05
4.3085e-05
2.44804e-05
2.33044e-05
2.44795e-05
2.33038e-05
2.47755e-05
2.54645e-05
2.47738e-05
2.54627e-05
3.91721e-05
3.91548e-05
0.000219595
3.65739e-05
3.65653e-05
2.59544e-05
2.56194e-05
2.59529e-05
2.56176e-05
0.000216776
3.38485e-05
3.38412e-05
3.57367e-05
3.57196e-05
7.25705e-05
4.24329e-05
8.14047e-05
4.37621e-05
0.000167489
7.94403e-05
0.00023208
0.000226092
0.00018021
7.451e-05
0.000231376
0.000167492
7.94239e-05
0.00023208
0.000226087
0.000180212
7.45044e-05
0.000231375
6.9629e-05
4.52375e-05
4.41511e-05
6.32359e-05
6.96313e-05
4.52371e-05
4.41497e-05
6.32388e-05
0.000162884
0.000224265
6.86682e-05
0.000229654
7.31611e-05
0.000230567
0.000151898
0.000162888
0.000224259
6.86648e-05
0.000229654
7.31442e-05
0.000230566
0.000151902
3.91576e-05
3.91717e-05
0.000219598
3.65701e-05
3.65642e-05
2.47756e-05
2.54647e-05
2.59538e-05
2.56186e-05
0.000216777
3.38448e-05
3.38437e-05
3.57228e-05
3.57335e-05
2.59548e-05
2.56193e-05
0.000167488
7.94222e-05
0.00023208
0.000226091
0.000180203
7.45008e-05
0.000231375
7.25561e-05
4.24293e-05
8.13967e-05
4.37587e-05
0.000167485
0.000232079
7.94243e-05
0.000226085
0.000180202
0.000231375
7.44921e-05
6.96324e-05
4.52346e-05
4.41478e-05
6.32358e-05
0.000162878
0.000224263
6.86602e-05
0.000229653
7.31441e-05
0.000230567
0.000151898
6.96319e-05
4.52335e-05
4.41457e-05
6.32333e-05
0.000162875
0.000224257
0.000229653
6.86548e-05
0.000230565
7.31427e-05
0.000151894
7.25632e-05
4.24322e-05
8.14052e-05
4.37621e-05
0.000167488
0.00023208
7.94326e-05
0.000226091
0.000180209
0.000231375
7.45107e-05
7.25663e-05
4.24319e-05
8.13993e-05
4.37604e-05
0.000162887
0.000224269
6.86691e-05
0.000229655
7.31586e-05
0.000230567
0.0001519
6.96335e-05
4.52369e-05
4.41491e-05
6.32361e-05
0.000162884
0.000224263
0.000229654
6.86697e-05
0.000230566
7.31497e-05
0.000151897
6.96314e-05
4.52352e-05
4.41482e-05
6.32343e-05
3.91597e-05
3.91677e-05
0.000219593
3.65587e-05
3.65751e-05
2.4775e-05
2.54631e-05
2.59519e-05
2.56164e-05
0.000216774
3.38366e-05
3.38505e-05
3.57213e-05
3.57296e-05
2.59535e-05
2.56183e-05
0.000167489
0.00023208
7.94226e-05
0.00022609
0.000180206
0.000231375
7.45025e-05
7.25567e-05
4.24314e-05
8.13967e-05
4.37605e-05
7.25629e-05
4.24302e-05
8.13983e-05
4.37593e-05
0.000162877
0.000224268
0.000229654
6.86698e-05
0.000230567
7.31516e-05
0.000151896
0.00016288
0.000224263
0.000229654
6.86621e-05
0.000230566
7.31417e-05
0.000151898
6.96324e-05
4.52355e-05
4.41483e-05
6.32343e-05
6.96329e-05
4.52341e-05
4.41469e-05
6.32353e-05
2.4775e-05
2.54629e-05
2.47742e-05
2.54622e-05
0.000216774
3.38504e-05
3.38404e-05
3.57267e-05
3.5718e-05
2.59533e-05
2.56181e-05
2.59525e-05
2.56174e-05
2.60139e-05
2.61179e-05
2.60122e-05
2.61162e-05
3.32228e-05
3.32116e-05
0.000204616
3.19928e-05
3.19839e-05
2.60836e-05
2.61186e-05
2.60816e-05
2.61168e-05
0.000201349
3.08804e-05
3.0871e-05
3.15697e-05
3.15614e-05
5.62797e-05
4.5546e-05
6.11344e-05
4.64123e-05
0.000138599
6.74255e-05
0.000228642
0.000218222
0.000148064
6.35177e-05
0.000227536
0.000138603
6.74158e-05
0.000228642
0.000218217
0.000148066
6.35111e-05
0.000227535
5.47708e-05
4.73223e-05
4.66512e-05
5.10056e-05
5.47727e-05
4.73222e-05
4.66505e-05
5.10074e-05
0.000135411
0.000216074
5.91336e-05
0.000225066
6.24209e-05
0.000226341
0.00012725
0.000135414
0.000216068
5.91271e-05
0.000225066
6.24154e-05
0.000226341
0.000127252
3.32138e-05
3.32218e-05
0.000204621
3.19867e-05
3.19895e-05
2.60141e-05
2.61182e-05
2.60828e-05
2.6118e-05
0.000201351
3.08731e-05
3.08784e-05
3.15633e-05
3.1568e-05
2.60837e-05
2.61188e-05
0.000138597
6.74157e-05
0.000228642
0.000218224
0.000148057
6.35078e-05
0.000227534
5.62801e-05
4.55418e-05
6.11272e-05
4.64086e-05
0.000138594
0.00022864
6.74112e-05
0.000218213
0.000148056
0.000227533
6.35048e-05
5.47674e-05
4.73194e-05
4.66481e-05
5.10054e-05
0.000135406
0.000216077
5.91245e-05
0.000225065
6.24107e-05
0.000226341
0.000127247
5.47663e-05
4.73181e-05
4.66458e-05
5.10042e-05
0.000135404
0.000216064
0.000225063
5.91213e-05
0.000226339
6.24076e-05
0.000127245
5.62773e-05
4.55454e-05
6.11317e-05
4.64122e-05
0.000138598
0.000228642
6.74206e-05
0.00021822
0.000148063
0.000227535
6.35153e-05
5.62759e-05
4.55441e-05
6.11302e-05
4.64103e-05
0.000135413
0.000216083
5.91338e-05
0.000225068
6.24211e-05
0.000226343
0.000127251
5.47703e-05
4.73222e-05
4.665e-05
5.10053e-05
0.000135411
0.000216071
0.000225066
5.91307e-05
0.000226341
6.24194e-05
0.000127248
5.4769e-05
4.73199e-05
4.66484e-05
5.10041e-05
3.32108e-05
3.32198e-05
0.000204612
3.19816e-05
3.19931e-05
2.6013e-05
2.61169e-05
2.60805e-05
2.61157e-05
0.000201345
3.08704e-05
3.08793e-05
3.1559e-05
3.15693e-05
2.60825e-05
2.61176e-05
0.000138599
0.000228641
6.74129e-05
0.000218223
0.000148058
0.000227534
6.35086e-05
5.62806e-05
4.5544e-05
6.11271e-05
4.64101e-05
5.62815e-05
4.5543e-05
6.11279e-05
4.64092e-05
0.000135406
0.00021608
0.000225065
5.91304e-05
0.000226342
6.24195e-05
0.000127247
0.000135407
0.000216075
0.000225065
5.91247e-05
0.00022634
6.24125e-05
0.000127249
5.47666e-05
4.73197e-05
4.6648e-05
5.10046e-05
5.47674e-05
4.73191e-05
4.66475e-05
5.10054e-05
2.60128e-05
2.61168e-05
2.60121e-05
2.61159e-05
0.000201346
3.08784e-05
3.08701e-05
3.15683e-05
3.156e-05
2.60823e-05
2.61174e-05
2.60814e-05
2.61165e-05
2.6048e-05
2.59402e-05
2.60457e-05
2.59382e-05
3.06186e-05
3.06112e-05
0.000189782
3.03065e-05
3.02977e-05
2.57406e-05
2.58842e-05
2.57382e-05
2.58816e-05
0.00018655
3.01749e-05
3.01637e-05
3.02081e-05
3.01994e-05
4.69672e-05
4.74986e-05
4.99107e-05
4.80044e-05
0.000117547
5.82048e-05
0.000223719
0.000209407
0.000124601
5.54864e-05
0.000222308
0.000117549
5.81999e-05
0.000223718
0.000209402
0.000124603
5.548e-05
0.000222307
4.6155e-05
4.84979e-05
4.81301e-05
4.38441e-05
4.61565e-05
4.84979e-05
4.81297e-05
4.38454e-05
0.00011537
0.00020715
5.2498e-05
0.000219325
5.47239e-05
0.000220841
0.00010927
0.000115372
0.000207145
5.24915e-05
0.000219324
5.47171e-05
0.00022084
0.000109272
3.06129e-05
3.0617e-05
0.000189788
3.02996e-05
3.03053e-05
2.60478e-05
2.59403e-05
2.57393e-05
2.5883e-05
0.000186554
3.01693e-05
3.0171e-05
3.02009e-05
3.0205e-05
2.57405e-05
2.58837e-05
0.000117544
5.81975e-05
0.000223719
0.000209413
0.000124596
5.54775e-05
0.000222306
4.69638e-05
4.74936e-05
4.99084e-05
4.79999e-05
0.000117542
0.000223716
5.81924e-05
0.000209396
0.000124594
0.000222304
5.54747e-05
4.61558e-05
4.84951e-05
4.81267e-05
4.38431e-05
0.000115364
0.000207157
5.2489e-05
0.000219323
5.47146e-05
0.000220841
0.000109267
4.61549e-05
4.84929e-05
4.81244e-05
4.38422e-05
0.000115362
0.000207139
0.000219321
5.24864e-05
0.000220837
5.47098e-05
0.000109266
4.69653e-05
4.74981e-05
4.99086e-05
4.80044e-05
0.000117545
0.000223719
5.82033e-05
0.000209405
0.0001246
0.000222307
5.5483e-05
4.69644e-05
4.74964e-05
4.99076e-05
4.80019e-05
0.00011537
0.000207164
5.24968e-05
0.000219327
5.47219e-05
0.000220842
0.00010927
4.61547e-05
4.84978e-05
4.81292e-05
4.38436e-05
0.000115369
0.000207147
0.000219324
5.2494e-05
0.00022084
5.472e-05
0.000109268
4.61538e-05
4.84952e-05
4.81273e-05
4.38429e-05
3.06087e-05
3.06189e-05
0.000189778
3.02975e-05
3.03057e-05
2.60468e-05
2.59388e-05
2.57373e-05
2.58804e-05
0.000186546
3.01636e-05
3.01795e-05
3.01971e-05
3.02069e-05
2.57389e-05
2.58827e-05
0.000117546
0.000223718
5.81971e-05
0.000209412
0.000124596
0.000222307
5.54775e-05
4.69642e-05
4.7496e-05
4.99088e-05
4.80017e-05
4.69649e-05
4.74955e-05
4.99096e-05
4.80011e-05
0.000115364
0.000207159
0.000219323
5.2494e-05
0.000220841
5.472e-05
0.000109268
0.000115365
0.000207155
0.000219324
5.24889e-05
0.00022084
5.47142e-05
0.000109269
4.61552e-05
4.84949e-05
4.81269e-05
4.38426e-05
4.61559e-05
4.84945e-05
4.81266e-05
4.38432e-05
2.60466e-05
2.59387e-05
2.60457e-05
2.59377e-05
0.000186546
3.01746e-05
3.01649e-05
3.02059e-05
3.01984e-05
2.57388e-05
2.58825e-05
2.57377e-05
2.58815e-05
2.56765e-05
2.55213e-05
2.56738e-05
2.55189e-05
3.01819e-05
3.01849e-05
0.000176373
3.04045e-05
3.03921e-05
2.53026e-05
2.54557e-05
2.53002e-05
2.54529e-05
0.000173313
3.08885e-05
3.08783e-05
3.04573e-05
3.04535e-05
4.14297e-05
4.85821e-05
4.3245e-05
4.88399e-05
0.000102112
5.18791e-05
0.000217769
0.000200387
0.00010738
5.00779e-05
0.000216179
0.000102114
5.18734e-05
0.000217768
0.000200382
0.000107382
5.0072e-05
0.000216177
4.09848e-05
4.90636e-05
4.88925e-05
3.9569e-05
4.09857e-05
4.90637e-05
4.88924e-05
3.95699e-05