/*--------------------------------*- C++ -*----------------------------------*\
| =========                 |                                                 |
| \\      /  F ield         | OpenFOAM: The Open Source CFD Toolbox           |
|  \\    /   O peration     | Version:  v1906                                 |
|   \\  /    A nd           | Web:      www.OpenFOAM.com                      |
|    \\/     M anipulation  |                                                 |
\*---------------------------------------------------------------------------*/
FoamFile
{
    version     2.0;
    format      ascii;
    class       volScalarField;
    location    "1000";
    object      p;
}
// * * * * * * * * * * * * * * * * * * * * * * * * * * * * * * * * * * * * * //

dimensions      [0 2 -2 0 0 0 0];


internalField   nonuniform List<scalar> 
42840
(
0.000785514
0.000785444
0.000785438
0.000787451
0.000751901
0.000787464
0.000756723
0.000785453
0.000785447
0.000758779
0.000758777
0.000787459
0.000756723
0.000785451
0.000785441
0.00075878
0.000758781
0.000785439
0.000758775
0.000758775
0.000787453
0.000756726
0.000785437
0.000758779
0.000758776
0.000756723
0.000749895
0.000749896
0.000774314
0.000787622
0.000774308
0.000787634
0.000787606
0.000774307
0.000774317
0.000787622
0.00077431
0.000787632
0.00078551
0.000785504
0.000785505
0.00075889
0.000758884
0.000758885
0.000758881
0.000774376
0.00078758
0.000785465
0.000776562
0.000774328
0.000776596
0.00078758
0.00078761
0.000774311
0.000774378
0.00078546
0.000787581
0.000776561
0.000776592
0.000774332
0.000787575
0.000787598
0.000787597
0.0007745
0.000774293
0.000774293
0.0007521
0.000752101
0.000787612
0.000774308
0.000787612
0.000774309
0.00078761
0.000787609
0.000774514
0.000774297
0.000774297
0.000756557
0.000769841
0.000756558
0.000769843
0.000769683
0.000756542
0.000756543
0.000769837
0.000769838
0.000774314
0.000787618
0.000774307
0.000787634
0.000774385
0.000787591
0.000785472
0.000776573
0.000774335
0.000776605
0.000787589
0.000774384
0.000787585
0.00078547
0.000776566
0.000774333
0.000776602
0.000787588
0.000769835
0.00075655
0.000769842
0.000756542
0.000769835
0.000756554
0.000769843
0.000756543
0.000769796
0.000767677
0.000756568
0.000758822
0.000769804
0.000767719
0.000756598
0.000769795
0.000767671
0.000756572
0.000758821
0.000769804
0.000767717
0.000756598
0.000787602
0.000787599
0.000774506
0.000774295
0.000774294
0.000787603
0.000774305
0.000756564
0.000769843
0.000769677
0.000756549
0.00075655
0.000769838
0.000769836
0.000756566
0.000769841
0.000774386
0.000787589
0.000785468
0.000776572
0.000774336
0.000776601
0.000787584
0.000774318
0.000787619
0.000774311
0.000787631
0.000774385
0.000785465
0.000787585
0.000776564
0.000776598
0.000774337
0.000787583
0.000769839
0.000756553
0.000769844
0.000756545
0.000769799
0.000767677
0.00075657
0.000758823
0.000769806
0.000767718
0.000756601
0.000769839
0.000756557
0.000769846
0.000756545
0.000769799
0.000767674
0.000758823
0.000756575
0.000767716
0.000769807
0.000756602
0.000774308
0.000787612
0.000774304
0.000787625
0.000774376
0.000785463
0.000787579
0.000776558
0.000776594
0.000774328
0.000787579
0.000774308
0.000787611
0.000774303
0.000787624
0.00076979
0.000767668
0.000756573
0.000758817
0.000769798
0.000767711
0.000756598
0.000769831
0.000756556
0.00076984
0.000756545
0.00076979
0.000767666
0.000758816
0.000756573
0.000767709
0.0007698
0.000756598
0.00076983
0.000756556
0.00076984
0.000756545
0.000787606
0.000787604
0.000774507
0.0007743
0.000774298
0.000787607
0.000774309
0.000756564
0.000769846
0.00076968
0.00075655
0.00075655
0.000769841
0.00076984
0.000756565
0.000769844
0.000774377
0.00078546
0.000787576
0.000776557
0.000776591
0.000774328
0.000787575
0.000774311
0.000787614
0.000774307
0.000787622
0.00077431
0.000787609
0.000774305
0.000787622
0.000769792
0.000767671
0.000758819
0.000756574
0.00076771
0.000769803
0.000756602
0.000769792
0.000767666
0.000758817
0.000756575
0.000767708
0.000769801
0.000756601
0.000769834
0.000756557
0.000769842
0.000756547
0.000769834
0.000756558
0.000769841
0.000756547
0.000787601
0.000774304
0.000787601
0.000774305
0.000769674
0.00075655
0.000756551
0.000769836
0.000769836
0.000756566
0.000769841
0.000756567
0.000769842
0.000749928
0.000752054
0.000752025
0.000752101
0.000752081
0.000752056
0.000752102
0.000752109
0.000752109
0.000778738
0.000774307
0.000774312
0.000778734
0.000778739
0.000778732
0.000774308
0.000783206
0.000783199
0.000787622
0.000783194
0.000787623
0.000778727
0.000774301
0.000778729
0.000778726
0.000774314
0.000783206
0.000783216
0.000787638
0.000787632
0.000783205
0.000783213
0.000787637
0.00078319
0.000778721
0.00077874
0.000774315
0.00077431
0.000778736
0.000778734
0.000778741
0.000774311
0.000783206
0.0007832
0.000787622
0.000783194
0.000787622
0.000778728
0.000774302
0.00077873
0.000778727
0.000774315
0.000783206
0.000783216
0.00078763
0.000787637
0.000783212
0.000783206
0.000787636
0.000783194
0.000778726
0.000778716
0.000774306
0.000774307
0.000778719
0.000778719
0.000774293
0.000783189
0.000787606
0.000783174
0.000787598
0.000783197
0.00078318
0.00078759
0.000783189
0.000787606
0.000783173
0.000787597
0.000783196
0.000783179
0.00078759
0.000778705
0.000774301
0.000778714
0.000774307
0.000778716
0.000778716
0.000774306
0.000778705
0.000774302
0.000778714
0.000774307
0.000778716
0.000778717
0.000774306
0.000783169
0.000787597
0.000787597
0.000783182
0.000783182
0.000787595
0.000747697
0.000752078
0.000752107
0.00074769
0.000752084
0.000747683
0.000747701
0.000747697
0.000752079
0.000752108
0.00074769
0.000752085
0.000747683
0.000747701
0.000747695
0.000752114
0.000752114
0.000752109
0.000747709
0.000747709
0.000783194
0.000778724
0.000783195
0.000778725
0.000778722
0.000774308
0.000774309
0.000778723
0.000778724
0.000774296
0.000783201
0.000787622
0.000783183
0.000787609
0.000783188
0.00078321
0.000787604
0.0007832
0.000787621
0.000783183
0.000787608
0.000783188
0.00078321
0.000787604
0.000778714
0.000774303
0.000778721
0.000774316
0.000778722
0.000774312
0.000778727
0.000778714
0.000774305
0.000778721
0.000774316
0.000778723
0.000774312
0.000778727
0.000783178
0.000787607
0.000787607
0.000783189
0.00078319
0.000787606
0.000760965
0.000765429
0.000760966
0.00076543
0.000765417
0.000769844
0.000769845
0.000769842
0.000765431
0.000765431
0.000760946
0.000756544
0.00076096
0.000756551
0.000760964
0.000760948
0.00075655
0.000760947
0.000756545
0.000760961
0.000756553
0.000760965
0.000760949
0.000756551
0.000765428
0.00076984
0.000769834
0.000765416
0.000769827
0.000765424
0.000765426
0.000765429
0.000769842
0.000769835
0.000765417
0.000769828
0.000765426
0.000765427
0.000760965
0.000756559
0.000756559
0.000760969
0.00076097
0.000756543
0.000778737
0.000774307
0.000774311
0.000778733
0.000778738
0.000778731
0.000774308
0.000783202
0.000783196
0.000787618
0.000783189
0.000787618
0.000778724
0.000774299
0.000778726
0.000778723
0.000774312
0.000783204
0.000783216
0.000787638
0.00078763
0.000783204
0.000783211
0.000787635
0.000765422
0.000769846
0.000769835
0.000765421
0.000769846
0.000765421
0.000765421
0.000760963
0.000760963
0.000756544
0.000756559
0.000760959
0.000765432
0.000769837
0.000765425
0.00076984
0.000765418
0.000760965
0.000760949
0.000756545
0.000756543
0.000756546
0.000760966
0.000760951
0.000765423
0.000769846
0.000769835
0.000765421
0.000769846
0.000765421
0.000765421
0.000760963
0.000760966
0.000756546
0.00076096
0.000756561
0.000765432
0.000769837
0.000765427
0.000769839
0.000765418
0.000760967
0.000760949
0.000756546
0.000756545
0.000760966
0.000760952
0.000756548
0.000778718
0.000774308
0.000774308
0.000778722
0.000778721
0.000774294
0.000783193
0.000787613
0.000783178
0.000787602
0.000783184
0.000783202
0.000787595
0.000783191
0.00078761
0.000783175
0.0007876
0.0007832
0.000783181
0.000787593
0.000778708
0.000774304
0.000778717
0.000774311
0.00077872
0.00077872
0.000774308
0.000778707
0.000774302
0.000778715
0.000774309
0.000778718
0.000778718
0.000774307
0.000783171
0.000787601
0.0007876
0.000783185
0.000783184
0.000787598
0.000783186
0.000778719
0.00076097
0.000765431
0.000765421
0.000769847
0.000769846
0.000769843
0.000765436
0.000765436
0.00076095
0.000756548
0.000760964
0.00075656
0.000760949
0.00076097
0.000756557
0.00076095
0.000756548
0.000760964
0.00075656
0.00076097
0.000760949
0.000756558
0.000765429
0.000769843
0.000769831
0.000765419
0.000765426
0.000769826
0.000765429
0.000765429
0.000769841
0.00076983
0.000765419
0.000769825
0.000765428
0.000765425
0.000760971
0.000756568
0.000756569
0.000760977
0.000760977
0.000756553
0.000760972
0.000765431
0.00077874
0.000774311
0.000774315
0.000778736
0.000778741
0.000778733
0.000774312
0.000783206
0.000783199
0.000787619
0.000783194
0.00078762
0.000778729
0.000774304
0.00077873
0.000778727
0.000774317
0.000783206
0.000783215
0.000787636
0.000787628
0.000783206
0.000783212
0.000787634
0.000765425
0.000769839
0.000769849
0.000765425
0.000769849
0.000765424
0.000765423
0.000760964
0.000760965
0.000756545
0.00075656
0.000760961
0.000765434
0.000769839
0.000765427
0.000769842
0.00076542
0.000760968
0.000760953
0.000756545
0.000756548
0.000756548
0.000760954
0.000760968
0.000765426
0.00076985
0.000769839
0.000765425
0.00076985
0.000765424
0.000765426
0.000760967
0.000760969
0.000756549
0.000760963
0.000756563
0.000765436
0.000769841
0.00076543
0.000769844
0.000765422
0.00076097
0.000760953
0.000756548
0.000756548
0.000760969
0.000760955
0.00075655
0.000778731
0.000774306
0.000774302
0.000778726
0.000778724
0.000778732
0.000774303
0.000783197
0.00078319
0.000787612
0.000783185
0.000787612
0.000778721
0.000774297
0.000778722
0.000778719
0.000774309
0.000783197
0.000783207
0.000787622
0.000787629
0.000783203
0.000783197
0.000787628
0.000778731
0.000774302
0.000774306
0.000778726
0.000778732
0.000778724
0.000774303
0.000783196
0.00078319
0.000787611
0.000783184
0.000787612
0.00077872
0.000774296
0.000778721
0.000778718
0.000774309
0.000783197
0.000783207
0.000787629
0.000787622
0.000783197
0.000783203
0.000787627
0.000765421
0.000769831
0.000769843
0.000765419
0.000769843
0.000765419
0.000765419
0.000760965
0.000760966
0.000756548
0.000760961
0.000756564
0.000765432
0.000769835
0.000765426
0.000769838
0.000765418
0.000760966
0.000760949
0.000756546
0.000756548
0.000760952
0.000760966
0.000756549
0.000765421
0.000769843
0.000769831
0.000765419
0.000769843
0.000765419
0.000765419
0.000760965
0.000760966
0.000756549
0.000760962
0.000756564
0.000765432
0.000769835
0.000765425
0.000769837
0.000765418
0.000760966
0.000760949
0.000756548
0.000756546
0.000760966
0.000760952
0.000756549
0.000778722
0.000774312
0.000774311
0.000778726
0.000778725
0.000774298
0.000783198
0.000787614
0.000783183
0.000787606
0.000783188
0.000783205
0.000787598
0.000783197
0.000787612
0.00078318
0.000787604
0.000783203
0.000783185
0.000787598
0.000778713
0.000774308
0.000778722
0.000774315
0.000778724
0.000778724
0.000774313
0.000778712
0.000774305
0.00077872
0.000774313
0.000778723
0.000778722
0.000774312
0.000783176
0.000787605
0.000787604
0.000783189
0.000783188
0.000787602
0.00078319
0.000778723
0.000760972
0.000765434
0.000765423
0.000769849
0.000769849
0.000769846
0.000765437
0.000765437
0.000760952
0.00075655
0.000760966
0.000756561
0.000760952
0.000760972
0.000756559
0.000760952
0.00075655
0.000760966
0.00075656
0.000760971
0.000760953
0.000756559
0.000765433
0.000769846
0.000769835
0.000765422
0.000765429
0.00076983
0.000765431
0.000765432
0.000769844
0.000769834
0.000765421
0.000769829
0.00076543
0.000765429
0.000760972
0.000756569
0.000756569
0.000760978
0.000760978
0.000756553
0.000760972
0.000765433
0.000778733
0.000774309
0.000774305
0.000778727
0.000778726
0.000778734
0.000774306
0.0007832
0.000783193
0.000787615
0.000783189
0.000787615
0.000778724
0.0007743
0.000778725
0.000778723
0.000774313
0.000783198
0.000783207
0.000787621
0.000787628
0.000783204
0.000783198
0.000787627
0.000778732
0.000774308
0.000774304
0.000778727
0.000778724
0.000778733
0.000774305
0.000783196
0.00078319
0.000787608
0.000783183
0.00078761
0.000778721
0.000774297
0.000778722
0.000778718
0.00077431
0.000783196
0.000783206
0.000787618
0.000787627
0.000783201
0.000783197
0.000787625
0.000765424
0.000769835
0.000769846
0.000765423
0.000769846
0.000765423
0.000765422
0.000760967
0.000760968
0.000756549
0.000760963
0.000756565
0.000765435
0.000769839
0.000765428
0.000769841
0.000765421
0.000760969
0.000760952
0.000756548
0.00075655
0.000760954
0.000760969
0.000756552
0.000765424
0.000769834
0.000769845
0.000765422
0.000769845
0.000765422
0.000765422
0.000760967
0.000760968
0.000756551
0.000760963
0.000756566
0.000765434
0.000769836
0.000765428
0.000769839
0.00076542
0.000760969
0.000760952
0.000756549
0.000756551
0.000760954
0.000760969
0.000756552
0.000783185
0.000778718
0.000783185
0.000778718
0.00076542
0.000769845
0.000769846
0.000769841
0.000765435
0.000765435
0.00076095
0.000756549
0.000760965
0.000756561
0.000756558
0.000760949
0.00076097
0.000760951
0.000756549
0.000760965
0.000756562
0.000756559
0.00076095
0.000760971
0.000765428
0.00076984
0.000769829
0.000765418
0.000769824
0.000765424
0.000765427
0.000765429
0.000769841
0.00076983
0.000765419
0.000769825
0.000765425
0.000765429
0.000760971
0.00075657
0.00075657
0.000756554
0.000760977
0.000760977
0.000760971
0.000765431
0.000760972
0.000765432
0.000747703
0.000752096
0.000747694
0.0007521
0.000747686
0.000747686
0.000747682
0.0007521
0.000752084
0.000752099
0.000747686
0.000747682
0.000747695
0.000747705
0.000747705
0.000785525
0.000785524
0.000776652
0.000776668
0.000776665
0.000776693
0.000785556
0.00078328
0.000787547
0.000787546
0.000783389
0.000783294
0.000783293
0.000787512
0.000747771
0.00075201
0.000752011
0.000747849
0.000751991
0.00074777
0.00074777
0.000783294
0.000787562
0.000787562
0.000783404
0.00078331
0.000783309
0.000787527
0.000760861
0.000760786
0.000756636
0.000756635
0.000760884
0.000760885
0.000756634
0.000783284
0.000787554
0.000787553
0.000783398
0.0007833
0.000783301
0.000787517
0.000760862
0.000760783
0.000756639
0.000756638
0.000760885
0.000760884
0.000756637
0.000783288
0.000787551
0.000787551
0.000783393
0.0007833
0.000783301
0.000787518
0.000760865
0.000760787
0.000756642
0.00075664
0.000760888
0.000760888
0.00075664
0.000760862
0.000760783
0.000756639
0.000756639
0.000756638
0.000760884
0.000760885
0.000785523
0.000785521
0.000776646
0.000776666
0.000776663
0.000776692
0.000785555
0.000785521
0.000785519
0.000776641
0.000776662
0.000776659
0.000776691
0.000785555
0.00078552
0.000785519
0.000776639
0.000776661
0.000776659
0.000776691
0.000785554
0.000767776
0.000758926
0.000758925
0.000767802
0.0007678
0.00076783
0.000758964
0.000767769
0.000758925
0.000758922
0.0007678
0.000767797
0.000767829
0.000758963
0.000767767
0.000758923
0.000758921
0.000767797
0.000767794
0.000767828
0.000758962
0.000767764
0.000758921
0.00075892
0.000767795
0.000767793
0.000767827
0.000758961
0.000778669
0.00077437
0.000774432
0.000778689
0.000778687
0.000778677
0.000774438
0.000783294
0.000787614
0.000783219
0.00078758
0.000783241
0.000783248
0.000787556
0.000778669
0.000774352
0.000778687
0.000774345
0.00077872
0.000778684
0.000774399
0.00078333
0.000783274
0.00078758
0.000787557
0.000783268
0.00078332
0.000787553
0.000778668
0.000774431
0.000774373
0.000778688
0.000778675
0.000778688
0.000774439
0.000783292
0.00078761
0.000783222
0.000787578
0.000783241
0.000783249
0.000787553
0.00077867
0.000774356
0.000778692
0.000774349
0.000778723
0.000778687
0.000774403
0.000783326
0.000783271
0.000787554
0.000787576
0.000783317
0.000783266
0.000787549
0.000778623
0.000778568
0.000774404
0.000774403
0.000778658
0.000778657
0.000774393
0.000778634
0.000778582
0.000774415
0.000774415
0.000774402
0.000778671
0.000778671
0.000765515
0.000765616
0.000769775
0.000769775
0.000769745
0.000765522
0.000765521
0.000778679
0.000774379
0.000774441
0.000778698
0.000778697
0.000778685
0.000774448
0.000783303
0.000787625
0.000783229
0.00078759
0.000783258
0.000783252
0.000787566
0.00077868
0.000774359
0.000778696
0.000774354
0.000778693
0.000778731
0.000774408
0.000783339
0.000783283
0.00078759
0.000787564
0.000783278
0.000783329
0.000787561
0.000778676
0.000774377
0.000774439
0.000778697
0.000778694
0.000778684
0.000774445
0.000783298
0.000787617
0.000783224
0.000787586
0.000783254
0.000783245
0.000787561
0.000778674
0.000774356
0.000778692
0.000774349
0.000778689
0.000774404
0.000778723
0.000783336
0.000783283
0.000787587
0.000787563
0.000783276
0.000783328
0.000787559
0.000765547
0.000769795
0.000769789
0.000765485
0.000769781
0.00076548
0.000765541
0.000760886
0.000756572
0.00076092
0.000756584
0.000760941
0.000760909
0.00075662
0.00076551
0.000769795
0.000769832
0.000765447
0.000765458
0.000769781
0.000765466
0.000760882
0.000760902
0.000756595
0.000756646
0.000760903
0.00076089
0.000756652
0.000765545
0.000769794
0.000769788
0.000765485
0.000769778
0.00076548
0.00076554
0.000760885
0.000756575
0.000760923
0.000756586
0.000760909
0.00076094
0.000756621
0.000765508
0.000769793
0.000769827
0.000765448
0.000769777
0.000765465
0.000765457
0.000760881
0.000760902
0.000756596
0.000756646
0.000760904
0.000760889
0.000756653
0.000778626
0.000778574
0.000774408
0.000774407
0.000778662
0.000778663
0.000774396
0.000765514
0.000765611
0.000769771
0.000769769
0.00076552
0.000769741
0.000765518
0.000778677
0.00077438
0.00077444
0.000778697
0.000778697
0.000778684
0.000774447
0.000783302
0.000787622
0.000783229
0.000787588
0.000783258
0.00078325
0.000787563
0.000778678
0.00077436
0.000778696
0.000774355
0.000778694
0.000778731
0.000774409
0.000783336
0.00078328
0.000787586
0.000787562
0.000783276
0.000783326
0.000787558
0.000778674
0.000774439
0.000774379
0.000778696
0.000778682
0.000778695
0.000774445
0.000783296
0.000787614
0.000783227
0.000787584
0.000783255
0.000783245
0.000787556
0.000778674
0.00077436
0.000778696
0.000774352
0.000778692
0.000774406
0.000778726
0.000783333
0.000783279
0.00078756
0.000787583
0.000783324
0.000783273
0.000787554
0.000765549
0.000769798
0.000769792
0.000765489
0.000769782
0.000765484
0.000765544
0.000760887
0.000756574
0.000760923
0.000756587
0.000760943
0.000760911
0.000756623
0.000765512
0.000769797
0.000769833
0.000765449
0.000765461
0.000769782
0.000765468
0.000760884
0.000760906
0.000756598
0.000756649
0.000760907
0.000760894
0.000756655
0.000765549
0.00076979
0.000769798
0.000765489
0.000769781
0.000765543
0.000765485
0.000760889
0.000756578
0.000760926
0.000756589
0.000760913
0.000760945
0.000756625
0.000765511
0.000769798
0.000769832
0.000765452
0.00076978
0.000765469
0.000765461
0.000760886
0.000760906
0.00075665
0.0007566
0.000760894
0.000760908
0.000756657
0.000778668
0.000774431
0.00077437
0.000778688
0.000778676
0.000778686
0.000774437
0.00078329
0.00078761
0.000783218
0.000787578
0.000783237
0.000783246
0.000787553
0.000778667
0.00077435
0.000778687
0.000774343
0.000778717
0.000778683
0.000774397
0.000783328
0.000783273
0.000787556
0.000787579
0.000783319
0.000783267
0.000787551
0.000765541
0.00076979
0.000769782
0.000765481
0.000769773
0.000765477
0.000765535
0.000760883
0.000756574
0.000760922
0.000756587
0.000756622
0.000760941
0.000760909
0.000765506
0.000769792
0.000769825
0.000765446
0.000769774
0.000765454
0.000765464
0.000760878
0.0007609
0.000756596
0.000756645
0.000756652
0.000760902
0.000760887
0.000765541
0.000769782
0.000769789
0.000765481
0.000769773
0.000765535
0.000765477
0.000760884
0.000756575
0.000760923
0.000756587
0.000760909
0.00076094
0.000756621
0.000765504
0.000769789
0.000769824
0.000765446
0.000769772
0.000765463
0.000765454
0.000760879
0.0007609
0.000756645
0.000756597
0.000760887
0.000760903
0.000756652
0.000778631
0.000778572
0.000774412
0.00077441
0.000778665
0.000778665
0.000774401
0.000765518
0.000765614
0.000769775
0.000769774
0.000765524
0.000769745
0.000765522
0.000778666
0.00077443
0.00077437
0.000778687
0.000778674
0.000778685
0.000774435
0.000783288
0.000787607
0.000783217
0.000787575
0.000783235
0.000783244
0.000787551
0.000778666
0.00077435
0.000778686
0.000774343
0.000778716
0.000778681
0.000774397
0.000783324
0.00078327
0.000787553
0.000787575
0.000783316
0.000783264
0.000787548
0.000765544
0.000769784
0.000769793
0.000765484
0.000769776
0.000765538
0.000765481
0.000760887
0.000756578
0.000760925
0.000756589
0.000756625
0.000760945
0.000760912
0.00076551
0.000769795
0.000769829
0.000765449
0.000769778
0.000765459
0.000765467
0.000760882
0.000760904
0.000756648
0.000756599
0.000756655
0.000760891
0.000760906
0.000765541
0.000769783
0.00076979
0.000765484
0.000769773
0.000765537
0.000765479
0.000760885
0.000756577
0.000760924
0.000756589
0.000760911
0.000760941
0.000756623
0.000765506
0.00076979
0.000769824
0.000765447
0.000769773
0.000765465
0.000765455
0.000760881
0.000760903
0.000756648
0.000756599
0.00076089
0.000760905
0.000756654
0.000765513
0.000765608
0.000769768
0.000769768
0.000769739
0.000765518
0.000765517
0.000747751
0.000752068
0.000752037
0.000747709
0.000747707
0.000752008
0.00074772
0.00074778
0.000747728
0.000752005
0.000752028
0.00074777
0.000751999
0.000747727
0.000752069
0.00074771
0.000747709
0.00167512
0.00167351
0.00166735
0.00167308
0.00163528
0.00163895
0.00164103
0.00164095
0.00160288
0.00160404
0.00160616
0.00160718
0.00156921
0.00156733
0.00156571
0.00156902
0.00153318
0.00153077
0.00153202
0.00153353
0.00149637
0.00149704
0.00149714
0.00149857
0.00145956
0.00146113
0.00146009
0.00146302
0.00142359
0.00142409
0.00142401
0.00142668
0.00138795
0.001387
0.00138756
0.00138903
0.00135296
0.00135261
0.00135293
0.00135456
0.00131766
0.00131747
0.00131723
0.00131938
0.00128096
0.00128085
0.00128066
0.00128289
0.0012453
0.00124538
0.00124542
0.00124745
0.00120999
0.00121015
0.00121017
0.00121225
0.00117492
0.00117456
0.00117457
0.00117652
0.00113943
0.00113924
0.00113923
0.0011412
0.00110404
0.001104
0.00110401
0.00110603
0.00106876
0.00106864
0.00106864
0.00107065
0.00103339
0.00103328
0.00103328
0.00103526
0.000998029
0.000997918
0.000997921
0.00099994
0.000962629
0.000962542
0.000962527
0.000964524
0.000927211
0.000927114
0.000927131
0.000929132
0.000891846
0.000891758
0.00089176
0.000893769
0.000856388
0.000856293
0.000856284
0.000858292
0.000820911
0.000820842
0.000820847
0.000822856
0.00167644
0.00164068
0.00167559
0.00167425
0.0016429
0.00164733
0.00167596
0.00164558
0.00167449
0.00166829
0.00164268
0.00164709
0.00167173
0.00164768
0.00164683
0.00167026
0.0016461
0.00167061
0.00164774
0.00164662
0.00164494
0.00163678
0.0016098
0.00163396
0.00163818
0.00160991
0.0016117
0.00164063
0.00160996
0.00163392
0.0016402
0.0016108
0.00161561
0.00163894
0.00161278
0.00161409
0.00164191
0.00161304
0.00163908
0.00161664
0.00161509
0.00161224
0.00160616
0.00157845
0.00160347
0.00160338
0.00158055
0.0015773
0.00160543
0.00157481
0.0016041
0.00160542
0.00158033
0.0015756
0.00160484
0.00157661
0.0015764
0.00160734
0.00157331
0.00160575
0.00157494
0.00157622
0.00157402
0.00157362
0.00153895
0.00157169
0.00156823
0.00154183
0.00154007
0.00157004
0.00153779
0.0015713
0.0015667
0.00154174
0.00154065
0.0015671
0.00153942
0.00154011
0.00156866
0.00153883
0.00156676
0.0015401
0.00154008
0.00153818
0.00153388
0.00150258
0.00153193
0.00153107
0.00150455
0.00150569
0.00153314
0.00150375
0.00153196
0.00153221
0.00150465
0.00150605
0.00153148
0.00150583
0.00150518
0.00153425
0.00150411
0.00153158
0.00150636
0.00150526
0.00150328
0.00149778
0.00146639
0.0014956
0.00149683
0.00146848
0.00146982
0.00149893
0.00146784
0.00149565
0.00149689
0.00146833
0.00146894
0.00149623
0.00147007
0.00146981
0.00149913
0.00146681
0.00149626
0.00146923
0.00146962
0.00146781
0.00146153
0.00143057
0.00145949
0.00146082
0.00143257
0.00143319
0.00146297
0.00143103
0.00145929
0.00145974
0.00143245
0.00143275
0.00146118
0.0014336
0.00143445
0.00146193
0.00143082
0.00146087
0.00143311
0.0014343
0.0014319
0.00142583
0.00139518
0.00142372
0.0014238
0.00139712
0.00139627
0.00142601
0.0013941
0.00142368
0.00142378
0.00139725
0.00139674
0.00142478
0.00139604
0.00139598
0.00142598
0.0013946
0.00142472
0.00139655
0.00139607
0.00139391
0.00139036
0.00136003
0.00138828
0.00138728
0.00136191
0.0013614
0.00138923
0.00135937
0.00138843
0.00138786
0.00136202
0.0013618
0.00138688
0.00136116
0.00136104
0.0013898
0.00135973
0.00138701
0.00136155
0.00136114
0.00135918
0.00135539
0.00132404
0.00135325
0.0013528
0.00132636
0.00132654
0.00135472
0.00132437
0.00135334
0.00135315
0.00132635
0.0013265
0.00135251
0.00132651
0.0013264
0.00135507
0.00132417
0.00135259
0.00132647
0.0013264
0.00132427
0.00131909
0.00128749
0.00131707
0.00131743
0.00128963
0.00128981
0.00131944
0.00128773
0.00131702
0.00131717
0.00128955
0.00128955
0.00131738
0.00128993
0.00128997
0.00131919
0.00128749
0.00131733
0.00128966
0.00128989
0.00128779
0.00128261
0.00125208
0.00128065
0.00128075
0.00125407
0.00125413
0.00128282
0.00125216
0.00128059
0.00128056
0.00125406
0.00125413
0.00128092
0.00125417
0.00125425
0.00128261
0.00125219
0.00128085
0.00125417
0.00125423
0.00125222
0.00124734
0.00121694
0.00124529
0.00124535
0.0012189
0.00121895
0.0012474
0.00121699
0.0012453
0.00124539
0.00121891
0.00121899
0.00124544
0.00121897
0.00121899
0.00124744
0.00121702
0.00124541
0.00121901
0.001219
0.00121702
0.00121219
0.00118153
0.0012101
0.00121013
0.00118364
0.00118355
0.00121222
0.0011814
0.00121011
0.00121016
0.00118364
0.00118355
0.00121016
0.00118348
0.00118344
0.00121225
0.0011814
0.00121016
0.0011835
0.00118343
0.00118133
0.0011767
0.00114597
0.00117474
0.00117463
0.00114805
0.00114805
0.00117658
0.00114598
0.00117474
0.00117462
0.00114804
0.00114804
0.00117453
0.00114803
0.00114801
0.00117658
0.00114597
0.00117453
0.00114802
0.00114801
0.00114596
0.00114119
0.00111074
0.00113921
0.00113924
0.00111277
0.00111281
0.00114121
0.00111077
0.00113921
0.00113923
0.00111277
0.00111281
0.00113922
0.00111282
0.00111284
0.00114121
0.00111078
0.00113922
0.00111283
0.00111284
0.0011108
0.00110597
0.00107547
0.00110396
0.00110399
0.00107751
0.00107749
0.001106
0.00107544
0.00110396
0.00110399
0.00107751
0.00107749
0.00110402
0.00107749
0.00107751
0.001106
0.00107545
0.00110403
0.00107749
0.00107751
0.00107545
0.00107067
0.00104007
0.00106867
0.00106865
0.00104212
0.00104213
0.00107065
0.00104007
0.00106867
0.00106865
0.00104212
0.00104213
0.00106865
0.00104212
0.00104209
0.00107066
0.00104007
0.00106865
0.00104212
0.00104209
0.00104005
0.00103528
0.00100472
0.00103328
0.00103329
0.00100676
0.00100676
0.00103528
0.00100471
0.00103328
0.00103329
0.00100676
0.00100676
0.00103326
0.00100676
0.00100678
0.00103528
0.00100471
0.00103326
0.00100676
0.00100678
0.00100473
0.000999922
0.000969327
0.000997924
0.000997914
0.000971379
0.000971389
0.000999919
0.000969344
0.000997925
0.000997916
0.000971378
0.000971379
0.000997943
0.000971391
0.00097138
0.000999922
0.00096933
0.000997944
0.00097138
0.000971379
0.000969326
0.000964527
0.000933931
0.000962524
0.000962542
0.00093597
0.000935971
0.000964543
0.000933924
0.00096252
0.000962527
0.000935969
0.000935974
0.000962521
0.000935969
0.000935967
0.000964529
0.000933934
0.000962517
0.000935973
0.000935966
0.000933928
0.000929134
0.000898573
0.000927127
0.000927115
0.000900609
0.000900595
0.000929123
0.000898562
0.000927129
0.000927132
0.000900615
0.000900611
0.000927124
0.000900595
0.000900607
0.000929138
0.000898569
0.000927127
0.00090061
0.000900613
0.00089857
0.000893771
0.000863103
0.000891764
0.000891758
0.000865162
0.000865178
0.000893765
0.000863119
0.000891766
0.00089176
0.000865155
0.000865156
0.000891762
0.000865178
0.000865167
0.000893766
0.000863105
0.000891764
0.000865157
0.00086516
0.000863109
0.000858285
0.000827655
0.000856281
0.000856292
0.000829688
0.000829687
0.000858297
0.000827653
0.000856277
0.000856283
0.000829691
0.000829697
0.000856288
0.000829689
0.000829695
0.000858289
0.00082766
0.000856284
0.000829699
0.000829699
0.00082766
0.000822853
0.000792277
0.000820842
0.000820841
0.000794312
0.000794308
0.000822849
0.000792273
0.000820845
0.000820847
0.00079431
0.000794302
0.000820846
0.000794306
0.000794302
0.000822856
0.000792266
0.000820849
0.0007943
0.000794301
0.000792265
0.00166139
0.0016758
0.00165978
0.00167668
0.0016769
0.00166273
0.00166013
0.00167403
0.00165894
0.00167378
0.00167352
0.00166943
0.00167145
0.0016444
0.00164665
0.00164592
0.00164675
0.00166208
0.00167573
0.00167297
0.00166482
0.00166273
0.00166429
0.00167488
0.00167426
0.00166359
0.00166056
0.00166916
0.00167195
0.00165998
0.00166086
0.00166238
0.00167117
0.00167392
0.00167333
0.00166073
0.00166124
0.00166097
0.00162471
0.00163569
0.00163704
0.00162475
0.00163917
0.00162611
0.00162707
0.00163677
0.00163885
0.00162614
0.00163813
0.00163893
0.00163882
0.00161046
0.00161352
0.00161481
0.00161471
0.00162807
0.00164037
0.00163862
0.00163019
0.00164062
0.00162746
0.00163027
0.00164308
0.00162915
0.00163102
0.00163971
0.0016442
0.00163397
0.00164253
0.00163209
0.00163111
0.00164117
0.0016416
0.00162978
0.00162865
0.00162912
0.00159459
0.00160748
0.00160635
0.00159565
0.00160511
0.00159209
0.00159382
0.00160787
0.00160689
0.00159522
0.00160507
0.0016063
0.001606
0.00157896
0.00157781
0.00157691
0.00157717
0.00159267
0.00160553
0.00160476
0.00159515
0.0016062
0.00159205
0.00159579
0.0016051
0.0015909
0.00159221
0.00160647
0.00160621
0.00159518
0.00160731
0.00159664
0.00159121
0.00160585
0.00160603
0.00159304
0.00159188
0.00159178
0.00155716
0.00157214
0.00157158
0.00155751
0.0015695
0.00155617
0.00155685
0.00157168
0.00157078
0.00155729
0.0015682
0.00156732
0.00156763
0.00154243
0.00154038
0.0015405
0.00154044
0.0015556
0.00156898
0.00156761
0.00155811
0.00156928
0.00155539
0.00155825
0.00156895
0.00155647
0.00155514
0.00156665
0.00156779
0.00155679
0.00156812
0.00155743
0.00155551
0.00156915
0.00156898
0.00155544
0.00155614
0.0015561
0.00152055
0.00153375
0.00153382
0.00152019
0.00153477
0.00152167
0.00152092
0.00153396
0.00153418
0.0015204
0.00153115
0.00153186
0.00153156
0.00150557
0.00150495
0.00150547
0.00150486
0.00152117
0.00153432
0.00153097
0.00152257
0.00153385
0.00152162