/*--------------------------------*- C++ -*----------------------------------*\
| =========                 |                                                 |
| \\      /  F ield         | OpenFOAM: The Open Source CFD Toolbox           |
|  \\    /   O peration     | Version:  v1906                                 |
|   \\  /    A nd           | Web:      www.OpenFOAM.com                      |
|    \\/     M anipulation  |                                                 |
\*---------------------------------------------------------------------------*/
FoamFile
{
    version     2.0;
    format      ascii;
    class       volScalarField;
    location    "1000";
    object      p;
}
// * * * * * * * * * * * * * * * * * * * * * * * * * * * * * * * * * * * * * //

dimensions      [0 2 -2 0 0 0 0];


internalField   nonuniform List<scalar> 
43024
(
0.0036047
0.00360503
0.00360503
0.00360808
0.00354934
0.00354976
0.00354976
0.00355275
0.00349859
0.00349856
0.00349856
0.00350132
0.0034462
0.00344622
0.00344622
0.00344899
0.00339485
0.00339486
0.00339486
0.00339761
0.00334488
0.00334489
0.00334489
0.00334761
0.00329635
0.00329637
0.00329637
0.00329905
0.00324913
0.00324915
0.00324915
0.00325179
0.003203
0.00320302
0.00320302
0.00320564
0.00315776
0.00315778
0.00315778
0.00316038
0.00311326
0.00311328
0.00311328
0.00311585
0.00306935
0.00306937
0.00306937
0.00307191
0.00302595
0.00302597
0.00302597
0.00302848
0.00298302
0.00298304
0.00298304
0.00298555
0.00294053
0.00294054
0.00294054
0.00294304
0.00289844
0.00289844
0.00289844
0.00290093
0.00285673
0.00285673
0.00285673
0.00285921
0.00281538
0.00281538
0.00281538
0.00281784
0.00277437
0.00277435
0.00277436
0.00277682
0.00273367
0.00273364
0.00273364
0.0027361
0.00269326
0.00269322
0.00269322
0.00269567
0.0036181
0.00361833
0.00361833
0.0036181
0.00361833
0.00361833
0.00361909
0.00361909
0.0036191
0.0036191
0.00361833
0.00361833
0.0036181
0.00361833
0.00361833
0.00361811
0.00360808
0.00355932
0.00360502
0.00360502
0.0035616
0.0035616
0.00360808
0.00355932
0.00360503
0.00360502
0.0035616
0.0035616
0.00360502
0.0035616
0.0035616
0.00360808
0.00355932
0.00360503
0.0035616
0.0035616
0.00355932
0.00355275
0.00350824
0.00354976
0.00354976
0.00351169
0.00351169
0.00355275
0.00350824
0.00354976
0.00354976
0.00351169
0.00351169
0.00354976
0.00351169
0.00351169
0.00355275
0.00350824
0.00354976
0.00351169
0.00351169
0.00350824
0.00350132
0.00345587
0.00349856
0.00349856
0.00345923
0.00345923
0.00350132
0.00345587
0.00349856
0.00349856
0.00345923
0.00345923
0.00349856
0.00345923
0.00345923
0.00350132
0.00345587
0.00349856
0.00345923
0.00345923
0.00345587
0.00344899
0.00340432
0.00344622
0.00344622
0.00340758
0.00340759
0.00344899
0.00340432
0.00344622
0.00344622
0.00340758
0.00340758
0.00344622
0.00340758
0.00340758
0.00344899
0.00340432
0.00344622
0.00340758
0.00340758
0.00340432
0.00339761
0.00335411
0.00339486
0.00339486
0.00335724
0.00335724
0.00339761
0.00335411
0.00339486
0.00339486
0.00335724
0.00335724
0.00339486
0.00335724
0.00335724
0.00339761
0.00335411
0.00339486
0.00335724
0.00335724
0.00335411
0.00334761
0.00330535
0.00334489
0.00334489
0.00330837
0.00330837
0.00334761
0.00330535
0.00334489
0.00334489
0.00330837
0.00330837
0.00334489
0.00330837
0.00330837
0.00334761
0.00330535
0.00334489
0.00330837
0.00330837
0.00330535
0.00329905
0.00325793
0.00329637
0.00329637
0.00326084
0.00326084
0.00329905
0.00325793
0.00329637
0.00329637
0.00326084
0.00326084
0.00329637
0.00326084
0.00326084
0.00329905
0.00325793
0.00329637
0.00326084
0.00326084
0.00325792
0.0032518
0.00321163
0.00324914
0.00324914
0.00321446
0.00321446
0.0032518
0.00321163
0.00324915
0.00324915
0.00321446
0.00321445
0.00324914
0.00321446
0.00321446
0.0032518
0.00321163
0.00324915
0.00321446
0.00321446
0.00321163
0.00320564
0.00316625
0.00320302
0.00320301
0.00316902
0.00316902
0.00320564
0.00316625
0.00320301
0.00320302
0.00316903
0.00316902
0.00320301
0.00316902
0.00316902
0.00320564
0.00316625
0.00320301
0.00316902
0.00316902
0.00316625
0.00316038
0.00312163
0.00315778
0.00315778
0.00312435
0.00312435
0.00316038
0.00312162
0.00315778
0.00315779
0.00312435
0.00312435
0.00315779
0.00312435
0.00312434
0.00316038
0.00312162
0.00315779
0.00312435
0.00312434
0.00312163
0.00311584
0.00307761
0.00311328
0.00311328
0.00308029
0.00308029
0.00311584
0.00307761
0.00311328
0.00311327
0.00308029
0.00308029
0.00311328
0.00308029
0.00308029
0.00311584
0.00307761
0.00311328
0.00308029
0.00308029
0.00307761
0.00307191
0.00303412
0.00306937
0.00306937
0.00303677
0.00303677
0.00307191
0.00303412
0.00306937
0.00306937
0.00303677
0.00303677
0.00306936
0.00303677
0.00303678
0.00307191
0.00303412
0.00306937
0.00303677
0.00303678
0.00303412
0.00302849
0.00299111
0.00302597
0.00302597
0.00299373
0.00299373
0.00302848
0.00299111
0.00302597
0.00302597
0.00299373
0.00299373
0.00302597
0.00299373
0.00299373
0.00302849
0.0029911
0.00302597
0.00299373
0.00299373
0.00299111
0.00298554
0.00294855
0.00298304
0.00298304
0.00295112
0.00295113
0.00298555
0.00294855
0.00298304
0.00298304
0.00295112
0.00295113
0.00298304
0.00295113
0.00295113
0.00298554
0.00294855
0.00298304
0.00295113
0.00295113
0.00294855
0.00294304
0.00290639
0.00294054
0.00294054
0.00290893
0.00290893
0.00294304
0.00290639
0.00294054
0.00294054
0.00290893
0.00290893
0.00294054
0.00290893
0.00290893
0.00294304
0.00290639
0.00294054
0.00290893
0.00290893
0.00290639
0.00290093
0.00286462
0.00289844
0.00289844
0.00286712
0.00286712
0.00290093
0.00286462
0.00289844
0.00289844
0.00286712
0.00286712
0.00289844
0.00286712
0.00286712
0.00290093
0.00286462
0.00289844
0.00286712
0.00286712
0.00286462
0.00285921
0.00282322
0.00285673
0.00285673
0.00282568
0.00282568
0.00285921
0.00282322
0.00285673
0.00285673
0.00282568
0.00282568
0.00285673
0.00282568
0.00282568
0.00285921
0.00282322
0.00285673
0.00282568
0.00282568
0.00282322
0.00281785
0.00278215
0.00281538
0.00281538
0.00278458
0.00278458
0.00281785
0.00278215
0.00281538
0.00281537
0.00278458
0.00278458
0.00281537
0.00278458
0.00278458
0.00281784
0.00278215
0.00281537
0.00278458
0.00278458
0.00278215
0.00277682
0.00274139
0.00277435
0.00277436
0.00274379
0.00274379
0.00277682
0.00274139
0.00277435
0.00277435
0.00274379
0.00274379
0.00277435
0.00274379
0.00274379
0.00277682
0.00274139
0.00277436
0.00274379
0.00274379
0.00274139
0.0027361
0.00270093
0.00273364
0.00273364
0.0027033
0.0027033
0.0027361
0.00270093
0.00273364
0.00273364
0.0027033
0.0027033
0.00273364
0.0027033
0.0027033
0.0027361
0.00270093
0.00273364
0.0027033
0.0027033
0.00270093
0.00269567
0.00269322
0.00269322
0.00269567
0.00269322
0.00269322
0.00269322
0.00269567
0.00269322
0.00362648
0.00363624
0.00363104
0.00363104
0.00365342
0.00364021
0.00366881
0.00363425
0.00365342
0.00364021
0.00363425
0.00366881
0.00364478
0.00367255
0.00367256
0.00358184
0.00360099
0.00361018
0.00357392
0.00357466
0.00357743
0.00358182
0.00360096
0.00361017
0.0035739
0.0036047
0.0036047
0.0036047
0.00356129
0.00356129
0.00356129
0.00356129
0.00357934
0.00360516
0.0036051
0.00358817
0.00360819
0.00357824
0.00358905
0.00357476
0.00357742
0.00357935
0.0036051
0.00360518
0.00358817
0.00360818
0.00358905
0.00357824
0.00361104
0.00361102
0.00358257
0.00357788
0.00357788
0.00353521
0.00355449
0.00355585
0.00353374
0.00355339
0.0035333
0.0035352
0.00355448
0.00355585
0.00353374
0.00354934
0.00354934
0.00354934
0.00351175
0.00351175
0.00351175
0.00351175
0.00353379
0.00355456
0.00354934
0.00353747
0.00355335
0.00353433
0.0035372
0.00355339
0.00353329
0.00353379
0.00354934
0.00355456
0.00353747
0.00355335
0.0035372
0.00353433
0.00355558
0.00355558
0.00353402
0.00353467
0.00353467
0.00348295
0.00350175
0.00350282
0.00348192
0.00350138
0.00348164
0.00348294
0.00350175
0.00350282
0.00348192
0.00349859
0.00349859
0.00349859
0.00345921
0.00345921
0.00345921
0.00345921
0.00348205
0.00350215
0.00349847
0.00348542
0.00350159
0.00348241
0.00348533
0.00350138
0.00348164
0.00348204
0.00349847
0.00350215
0.00348542
0.00350159
0.00348533
0.00348241
0.00350239
0.00350239
0.00348204
0.00348247
0.00348247
0.00343042
0.00344907
0.00344993
0.00342965
0.00344887
0.00342947
0.00343042
0.00344907
0.00344993
0.00342965
0.0034462
0.0034462
0.0034462
0.00340758
0.00340758
0.00340758
0.00340758
0.00342991
0.00344948
0.00344617
0.00343327
0.0034492
0.0034301
0.00343323
0.00344887
0.00342947
0.00342991
0.00344617
0.00344948
0.00343327
0.0034492
0.00343323
0.0034301
0.00344952
0.00344952
0.00342995
0.00343003
0.00343003
0.00337922
0.00339758
0.00339821
0.00337867
0.00339744
0.00337853
0.00337922
0.00339758
0.00339821
0.00337867
0.00339485
0.00339485
0.00339485
0.00335723
0.00335723
0.00335723
0.00335723
0.00337895
0.00339793
0.00339483
0.00338223
0.00339776
0.00337906
0.0033822
0.00339743
0.00337853
0.00337895
0.00339483
0.00339793
0.00338223
0.00339776
0.0033822
0.00337906
0.00339791
0.00339791
0.00337903
0.00337897
0.00337897
0.00332958
0.00334753
0.00334798
0.00332918
0.00334742
0.00332906
0.00332958
0.00334753
0.00334798
0.00332918
0.00334488
0.00334488
0.00334488
0.00330836
0.00330836
0.00330836
0.00330836
0.00332946
0.00334783
0.00334486
0.00333263
0.00334771
0.00332953
0.0033326
0.00334741
0.00332907
0.00332946
0.00334486
0.00334783
0.00333263
0.00334771
0.0033326
0.00332953
0.00334781
0.00334781
0.00332955
0.00332944
0.00332944
0.00328141
0.00329896
0.00329928
0.00328113
0.00329886
0.00328103
0.00328141
0.00329896
0.00329928
0.00328113
0.00329635
0.00329635
0.00329635
0.00326082
0.00326082
0.00326082
0.00326082
0.00328139
0.00329922
0.00329634
0.00328445
0.00329912
0.00328144
0.00328442
0.00329885
0.00328103
0.00328139
0.00329634
0.00329922
0.00328445
0.00329912
0.00328442
0.00328144
0.00329921
0.00329921
0.00328148
0.00328136
0.00328136
0.00323452
0.0032517
0.00325193
0.00323431
0.00325161
0.00323422
0.00323452
0.0032517
0.00325193
0.00323431
0.00324913
0.00324913
0.00324913
0.00321444
0.00321444
0.00321444
0.00321444
0.00323455
0.00325193
0.00324911
0.00323752
0.00325185
0.0032346
0.00323748
0.00325161
0.00323422
0.00323455
0.00324911
0.00325193
0.00323752
0.00325185
0.00323749
0.00323461
0.00325193
0.00325193
0.00323465
0.00323453
0.00323453
0.00318868
0.00320555
0.00320573
0.00318852
0.00320546
0.00318843
0.00318868
0.00320555
0.00320572
0.00318852
0.003203
0.003203
0.003203
0.003169
0.003169
0.003169
0.003169
0.00318876
0.00320576
0.00320299
0.00319163
0.00320569
0.0031888
0.0031916
0.00320546
0.00318843
0.00318876
0.00320298
0.00320576
0.00319163
0.00320569
0.0031916
0.0031888
0.00320576
0.00320576
0.00318884
0.00318872
0.00318872
0.00314369
0.00316029
0.00316044
0.00314356
0.00316021
0.00314347
0.00314369
0.00316029
0.00316044
0.00314355
0.00315776
0.00315776
0.00315776
0.00312432
0.00312432
0.00312432
0.00312432
0.00314379
0.00316049
0.00315776
0.0031466
0.00316043
0.00314383
0.00314657
0.00316021
0.00314347
0.00314379
0.00315776
0.00316049
0.0031466
0.00316043
0.00314657
0.00314383
0.00316049
0.00316049
0.00314386
0.00314373
0.00314373
0.00309939
0.00311576
0.00311589
0.00309926
0.00311568
0.00309918
0.00309939
0.00311576
0.0031159
0.00309926
0.00311326
0.00311325
0.00311326
0.00308027
0.00308027
0.00308027
0.00308027
0.0030995
0.00311595
0.00311325
0.00310225
0.00311591
0.00309954
0.00310222
0.00311568
0.00309918
0.00309951
0.00311325
0.00311596
0.00310225
0.00311591
0.00310222
0.00309953
0.00311594
0.00311594
0.00309955
0.00309942
0.00309942
0.00305565
0.00307183
0.00307195
0.00305552
0.00307175
0.00305544
0.00305565
0.00307182
0.00307195
0.00305552
0.00306935
0.00306935
0.00306935
0.00303676
0.00303676
0.00303676
0.00303676
0.00305579
0.00307202
0.00306934
0.00305847
0.00307198
0.0030558
0.00305846
0.00307175
0.00305544
0.00305579
0.00306935
0.00307202
0.00305847
0.00307199
0.00305846
0.0030558
0.00307199
0.00307199
0.0030558
0.00305567
0.00305567
0.0030124
0.0030284
0.00302853
0.00301228
0.00302833
0.0030122
0.0030124
0.0030284
0.00302853
0.00301228
0.00302595
0.00302595
0.00302595
0.00299372
0.00299372
0.00299372
0.00299371
0.00301257
0.00302859
0.00302596
0.0030152
0.00302858
0.00301255
0.00301518
0.00302833
0.0030122
0.00301257
0.00302596
0.00302858
0.00301519
0.00302858
0.00301518
0.00301255
0.00302855
0.00302855
0.00301255
0.00301241
0.00301241
0.00296961
0.00298544
0.00298557
0.00296948
0.00298538
0.00296942
0.00296961
0.00298544
0.00298557
0.00296948
0.00298303
0.00298302
0.00298303
0.00295111
0.00295111
0.00295111
0.00295111
0.00296979
0.00298562
0.00298303
0.00297237
0.00298564
0.00296975
0.00297237
0.00298538
0.00296942
0.00296979
0.00298303
0.00298562
0.00297238
0.00298564
0.00297237
0.00296975
0.00298558
0.00298558
0.00296978
0.0029696
0.0029696
0.00292724
0.00294292
0.00294304
0.00292711
0.00294286
0.00292706
0.00292724
0.00294292
0.00294304
0.00292711
0.00294053
0.00294053
0.00294053
0.00290892
0.00290892
0.00290892
0.00290892
0.00292745
0.00294309
0.00294054
0.00292998
0.00294313
0.00292738
0.00292998
0.00294286
0.00292706
0.00292745
0.00294054
0.00294309
0.00292997
0.00294313
0.00292998
0.00292738
0.00294304
0.00294304
0.00292742
0.00292723
0.00292722
0.00288527
0.0029008
0.00290092
0.00288514
0.00290074
0.0028851
0.00288527
0.0029008
0.00290092
0.00288514
0.00289844
0.00289844
0.00289844
0.00286712
0.00286712
0.00286712
0.00286712
0.0028855
0.00290096
0.00289845
0.00288798
0.00290103
0.0028854
0.00288799
0.00290075
0.0028851
0.0028855
0.00289845
0.00290096
0.00288798
0.00290103
0.00288799
0.0028854
0.00290091
0.00290091
0.00288546
0.00288525
0.00288525
0.00284367
0.00285907
0.00285919
0.00284355
0.00285903
0.00284351
0.00284367
0.00285907
0.00285919
0.00284355
0.00285673
0.00285673
0.00285673
0.00282569
0.00282569
0.00282569
0.00282569
0.00284392
0.00285922
0.00285674
0.00284636
0.00285931
0.0028438
0.00284638
0.00285903
0.00284351
0.00284392
0.00285675
0.00285922
0.00284635
0.00285931
0.00284638
0.00284379
0.00285917
0.00285917
0.00284388
0.00284364
0.00284364
0.00280242
0.0028177
0.00281781
0.00280231
0.00281766
0.00280228
0.00280242
0.0028177
0.00281781
0.00280231
0.00281538
0.00281538
0.00281538
0.00278459
0.00278459
0.00278459
0.00278459
0.00280269
0.00281783
0.0028154
0.00280509
0.00281795
0.00280255
0.00280511
0.00281766
0.00280228
0.00280269
0.0028154
0.00281783
0.00280509
0.00281795
0.00280512
0.00280254
0.0028178
0.0028178
0.00280264
0.00280239
0.00280239
0.0027615
0.00277667
0.00277677
0.0027614
0.00277664
0.00276137
0.0027615
0.00277667
0.00277677
0.0027614
0.00277437
0.00277437
0.00277437
0.00274381
0.00274381
0.00274381
0.00274381
0.00276178
0.00277679
0.00277438
0.00276414
0.00277691
0.00276162
0.00276418
0.00277664
0.00276137
0.00276178
0.00277439
0.00277679
0.00276415
0.00277691
0.00276418
0.00276162
0.00277675
0.00277675
0.00276173
0.00276147
0.00276147
0.00272089
0.00273595
0.00273604
0.00272079
0.00273591
0.00272077
0.00272088
0.00273595
0.00273604
0.00272079
0.00273367
0.00273367
0.00273367
0.00270333
0.00270333
0.00270333
0.00270333
0.00272116
0.00273605
0.00273367
0.00272351
0.00273618
0.00272099
0.00272354
0.00273592
0.00272076
0.00272116
0.00273367
0.00273605
0.00272351
0.00273618
0.00272354
0.00272099
0.00273602
0.00273602
0.00272113
0.00272085
0.00272085
0.00268055
0.00269552
0.0026956
0.00268046
0.00269548
0.00268045
0.00268055
0.00269552
0.00269561
0.00268046
0.00269326
0.00269326
0.00269326
0.00268082
0.00269561
0.00269325
0.00268316
0.00269574
0.00268065
0.00268319
0.00269549
0.00268044
0.00268082
0.00269325
0.00269561
0.00268316
0.00269574
0.00268319
0.00268065
0.00269559
0.00269559
0.00268081
0.00268052
0.00268052
0.00364477
0.00367254
0.00367256
0.00363691
0.00367208
0.00363688
0.0036721
0.00364163
0.00362869
0.00362869
0.00366736
0.00366737
0.00365341
0.00364021
0.0036688
0.00363425
0.00365341
0.0036402
0.0036688
0.00363425
0.00365793
0.00362898
0.00366921
0.00362378
0.00365793
0.00362896
0.00366921
0.00362379
0.00364901
0.00363773
0.00362015
0.00362055
0.00366408
0.00363269
0.00362078
0.00364901
0.00363773
0.00362015
0.00362055
0.00366408
0.00363269
0.00362078
0.00364477
0.00367254
0.00367255
0.00363687
0.00367208
0.00364163
0.00362867
0.0036287
0.00366736
0.00366736
0.0036369
0.00367208
0.00365342
0.00364021
0.00366882
0.00363425
0.00365342
0.00364021
0.00363425
0.00366882
0.00365795
0.00362896
0.00366923
0.0036238
0.00364903
0.00363773
0.00362015
0.00362056
0.00366409
0.00363269
0.00362079
0.00365795
0.00362898
0.00366922
0.00362379
0.00364903
0.00363774
0.00362056
0.00362015
0.00363269
0.00366409
0.00362079
0.00362648
0.00363624
0.00363104
0.00363104
0.00362648
0.00363625
0.00363105
0.00363105
0.00362648
0.00363625
0.00363104
0.00363105
0.00362524
0.00363433
0.00361721
0.00361721
0.00362961
0.00362961
0.00361539
0.00362524
0.00363433
0.00361721
0.00361721
0.00362961
0.00362961
0.00361539
0.00362525
0.00363433
0.00361721
0.00361722
0.00362961
0.00362961
0.00361539
0.00362525
0.00363433
0.00361721
0.00361721
0.00362961
0.00362961
0.00361539
0.00365342
0.00364021
0.00363425
0.00366881
0.00364903
0.00363773
0.00362015
0.00362056
0.00366408
0.00363269
0.00362079
0.00365795
0.00362897
0.00366922
0.00362379
0.00364902
0.00363773
0.00362056
0.00362016
0.00363269
0.00366408
0.00362078
0.00365795
0.00362897
0.00366922
0.00362378
0.00364478
0.00367256
0.00367255
0.00363685
0.00367208
0.00364163
0.00362869
0.00362869
0.00366736
0.00366737
0.00363685
0.00367209
0.00365343
0.00364021
0.00363425
0.00366882
0.00364903
0.00363774
0.00362056
0.00362016
0.0036327
0.00366409
0.00362079
0.00364903
0.00363774
0.00362056
0.00362015
0.00363269
0.00366409
0.00362079
0.00365795
0.00362897
0.00366922
0.00362378
0.00365795
0.00362898
0.00366922
0.00362379
0.00364163
0.00362869
0.00362869
0.00366736
0.00366737
0.00363685
0.00367208
0.00363688
0.00367209
0.00357465
0.00357742
0.00357475
0.0035774
0.003611
0.00361103
0.00358258
0.00357788
0.00357788
0.00356017
0.00357707
0.00356017
0.00357708
0.00357592
0.00356277
0.00356277
0.00357603
0.00357603
0.00358183
0.00360097
0.00361018
0.00357392
0.00357936
0.00360516
0.0036051
0.00358816
0.00360819
0.00357825
0.00358905
0.00357935
0.00360516
0.0036051
0.00358816
0.00360819
0.00357825
0.00358905
0.00357729
0.0035619
0.00357481
0.00356265
0.00357729
0.0035619
0.00357482
0.00356265
0.00357433
0.00357386
0.00356158
0.00356133
0.0035754
0.00357427
0.00355992
0.00357433
0.00357386
0.00356159
0.00356133
0.00357541
0.00357427
0.00355992
0.00361099
0.00361104
0.00358259
0.00357788
0.00357788
0.0035748
0.00357741
0.00356016
0.00357707
0.00357592
0.00356277
0.00356277
0.00357603
0.00357602
0.00356016
0.00357708
0.00357934
0.00360517
0.0036051
0.00358817
0.00360819
0.00357824
0.00358905
0.00358182
0.00360097
0.00361016
0.00357392
0.00357935
0.0036051
0.00360517
0.00358816
0.00360819
0.00358905
0.00357824
0.00357728
0.0035619
0.00357481
0.00356265
0.00357432
0.00357386
0.00356158
0.00356133
0.0035754
0.00357427
0.00355993
0.00357729
0.00356189
0.00357483
0.00356264
0.00357433
0.00357386
0.00356133
0.00356158
0.00357427
0.0035754
0.00355992
0.00358182
0.00360097
0.00361016
0.00357391
0.00357935
0.0036051
0.00360518
0.00358816
0.00360819
0.00358905
0.00357824
0.00358182
0.00360099
0.00361016
0.00357391
0.00357432
0.00357386
0.00356158
0.00356133
0.0035754
0.00357427
0.00355993
0.00357728
0.0035619
0.00357481
0.00356265
0.00357432
0.00357386
0.00356133
0.00356158
0.00357427
0.0035754
0.00355993
0.00357729
0.0035619
0.0035748
0.00356265
0.00361103
0.00361104
0.00358257
0.00357788
0.00357787
0.00357477
0.0035774
0.00356016
0.00357709
0.00357592
0.00356277
0.00356277
0.00357603
0.00357602
0.00356017
0.00357705
0.00357934
0.0036051
0.00360517
0.00358817
0.00360819
0.00358905
0.00357824
0.00358182
0.00360098
0.00361015
0.0035739
0.00358182
0.00360098
0.00361016
0.00357391
0.00357432
0.00357386
0.00356133
0.00356158
0.00357426
0.0035754
0.00355992
0.00357432
0.00357386
0.00356133
0.00356158
0.00357427
0.0035754
0.00355992
0.00357728
0.0035619
0.00357481
0.00356264
0.00357728
0.00356189
0.00357481
0.00356264
0.00357479
0.0035774
0.00357478
0.0035774
0.00357592
0.00356277
0.00356277
0.00357602
0.00357602
0.00356017
0.00357705
0.00356016
0.00357707
0.0035534
0.0035333
0.00355339
0.0035333
0.00355558
0.00355558
0.00353402
0.00353467
0.00353467
0.00350791
0.00352687
0.00350791
0.00352687
0.00352722
0.00350899
0.00350899
0.00352821
0.00352821
0.00353521
0.00355448
0.00355585
0.00353374
0.00353379
0.00355456
0.00354934
0.00353747
0.00355335
0.00353433
0.0035372
0.00353379
0.00355456
0.00354934
0.00353747
0.00355335
0.00353434
0.0035372
0.00352868
0.00350832
0.00352737
0.00350942
0.00352868
0.00350832
0.00352737
0.00350942
0.00352726
0.00352471
0.00350879
0.00351159
0.00352788
0.00352457
0.00350825
0.00352726
0.00352471
0.00350879
0.00351159
0.00352789
0.00352457
0.00350825
0.00355558
0.00355558
0.00353402
0.00353467
0.00353467
0.0035534
0.00353331
0.00350791
0.00352687
0.00352723
0.00350899
0.00350899
0.00352821
0.00352821
0.00350791
0.00352688
0.00353379
0.00355456
0.00354934
0.00353747
0.00355335
0.00353433
0.0035372
0.00353521
0.00355448
0.00355585
0.00353374
0.00353379
0.00354934
0.00355456
0.00353747
0.00355335
0.0035372
0.00353433
0.00352868
0.00350832
0.00352736
0.00350942
0.00352726
0.00352471
0.00350879
0.00351159
0.00352788
0.00352457
0.00350825
0.00352868
0.00350832
0.00352736
0.00350942
0.00352726
0.00352471
0.00351159
0.00350879
0.00352457
0.00352788
0.00350825
0.00353521
0.00355449
0.00355585
0.00353375
0.00353379
0.00354934
0.00355456
0.00353747
0.00355335
0.0035372
0.00353433
0.00353521
0.00355449
0.00355585
0.00353374
0.00352726
0.00352471
0.00350879
0.00351159
0.00352788
0.00352457
0.00350825
0.00352868
0.00350832
0.00352737
0.00350942
0.00352726
0.00352471
0.00351159
0.00350879
0.00352457
0.00352788
0.00350825
0.00352868
0.00350832
0.00352736
0.00350942
0.00355558
0.00355558
0.00353402
0.00353466
0.00353467
0.00355339
0.0035333
0.00350791
0.00352687
0.00352722
0.00350899
0.00350899
0.0035282
0.00352821
0.00350791
0.00352687
0.00353379
0.00354934
0.00355456
0.00353747
0.00355335
0.0035372
0.00353433
0.00353521
0.00355448
0.00355585
0.00353374
0.00353521
0.00355448
0.00355585
0.00353374
0.00352726
0.00352471
0.00351159
0.00350879
0.00352457
0.00352788
0.00350825
0.00352726
0.00352471
0.00351159
0.00350879
0.00352457
0.00352788
0.00350825
0.00352868
0.00350832
0.00352737
0.00350942
0.00352868
0.00350832
0.00352737
0.00350942
0.0035534
0.0035333
0.00355338
0.0035333
0.00352722
0.00350899
0.00350899
0.00352821
0.00352821
0.00350791
0.00352687
0.00350791
0.00352688
0.00350138
0.00348164
0.00350138
0.00348164
0.00350239
0.00350239
0.00348204
0.00348247
0.00348247
0.00345541
0.00347501
0.00345541
0.00347501
0.00347509
0.00345608
0.00345608
0.00347581
0.00347581
0.00348295
0.00350175
0.00350282
0.00348192
0.00348205
0.00350215
0.00349846
0.00348542
0.00350159
0.00348241
0.00348533
0.00348205
0.00350215
0.00349847
0.00348542
0.00350159
0.00348241
0.00348533
0.00347627
0.00345563
0.00347528
0.00345652
0.00347627
0.00345563
0.00347527
0.00345652
0.00347533
0.0034723
0.0034561
0.00345917
0.0034757
0.00347222
0.00345585
0.00347533
0.0034723
0.00345611
0.00345917
0.0034757
0.00347222
0.00345585
0.00350239
0.00350239
0.00348204
0.00348247
0.00348247
0.00350139
0.00348164
0.00345541
0.00347501
0.00347509
0.00345608
0.00345608
0.00347581
0.00347581
0.00345541
0.00347501
0.00348204
0.00350215
0.00349847
0.00348542
0.00350159
0.00348241
0.00348533
0.00348294
0.00350175
0.00350282
0.00348192
0.00348204
0.00349846
0.00350215
0.00348542
0.00350159
0.00348533
0.00348241
0.00347627
0.00345563
0.00347527
0.00345652
0.00347533
0.0034723
0.0034561
0.00345917
0.0034757
0.00347222
0.00345585
0.00347627
0.00345563
0.00347527
0.00345652
0.00347533
0.0034723
0.00345917
0.0034561
0.00347222
0.0034757
0.00345585
0.00348295
0.00350175
0.00350282
0.00348192
0.00348204
0.00349846
0.00350215
0.00348542
0.00350159
0.00348533
0.00348241
0.00348295
0.00350175
0.00350282
0.00348192
0.00347533
0.0034723
0.0034561
0.00345917
0.0034757
0.00347222
0.00345585
0.00347627
0.00345563
0.00347527
0.00345652
0.00347533
0.0034723
0.00345917
0.0034561
0.00347222
0.0034757
0.00345585
0.00347627
0.00345563
0.00347527
0.00345652
0.00350239
0.00350239
0.00348204
0.00348247
0.00348247
0.00350138
0.00348164
0.00345541
0.00347501
0.00347509
0.00345608
0.00345608
0.00347581
0.00347581
0.00345541
0.00347501
0.00348204
0.00349847
0.00350215
0.00348542
0.00350159
0.00348533
0.00348241
0.00348295
0.00350175
0.00350282
0.00348192
0.00348295
0.00350175
0.00350282
0.00348192
0.00347533
0.0034723
0.00345917
0.0034561
0.00347222
0.0034757
0.00345585
0.00347533
0.0034723
0.00345917
0.0034561
0.00347222
0.0034757
0.00345585
0.00347627
0.00345563
0.00347527
0.00345652
0.00347627
0.00345563
0.00347527
0.00345652
0.00350138
0.00348164
0.00350138
0.00348164
0.00347509
0.00345608
0.00345608
0.00347581
0.00347581
0.00345541
0.00347501
0.00345541
0.00347501
0.00344887
0.00342947
0.00344887
0.00342947
0.00344952
0.00344952
0.00342995
0.00343003
0.00343003
0.00340382
0.00342299
0.00340382
0.00342299
0.00342315
0.00340431
0.00340431
0.00342354
0.00342354
0.00343042
0.00344907
0.00344993
0.00342965
0.00342991
0.00344948
0.00344617
0.00343327
0.0034492
0.0034301
0.00343323
0.00342991
0.00344948
0.00344617
0.00343327
0.0034492
0.0034301
0.00343323
0.0034239
0.00340398
0.00342316
0.00340463
0.0034239
0.00340398
0.00342316
0.00340463
0.00342333
0.00342039
0.00340439
0.00340755
0.00342354
0.00342035
0.00340426
0.00342333
0.00342039
0.0034044
0.00340755
0.00342354
0.00342035
0.00340426
0.00344952
0.00344952
0.00342995
0.00343003
0.00343003
0.00344887
0.00342947
0.00340382
0.00342299
0.00342315
0.00340431
0.00340431
0.00342354
0.00342354
0.00340382
0.00342299
0.00342991
0.00344948
0.00344617
0.00343327
0.0034492
0.0034301
0.00343323
0.00343042
0.00344907
0.00344993
0.00342965
0.00342991
0.00344617
0.00344948
0.00343327
0.0034492
0.00343323
0.0034301
0.0034239
0.00340398
0.00342316
0.00340463
0.00342333
0.00342039
0.00340439
0.00340755
0.00342354
0.00342036
0.00340426
0.0034239
0.00340398
0.00342316
0.00340463
0.00342333
0.00342039
0.00340755
0.0034044
0.00342035
0.00342354
0.00340426
0.00343042
0.00344907
0.00344993
0.00342965
0.00342991
0.00344617
0.00344948
0.00343327
0.0034492
0.00343323
0.0034301
0.00343042
0.00344907
0.00344993
0.00342965
0.00342333
0.00342039
0.00340439
0.00340755
0.00342354
0.00342036
0.00340426
0.0034239
0.00340398
0.00342316
0.00340463
0.00342333
0.00342039
0.00340755
0.00340439
0.00342035
0.00342354
0.00340426
0.0034239
0.00340398
0.00342316
0.00340463
0.00344952
0.00344952
0.00342995
0.00343003
0.00343003
0.00344887
0.00342947
0.00340382
0.00342299
0.00342315
0.00340431
0.00340431
0.00342354
0.00342354
0.00340382
0.00342299
0.00342991
0.00344617
0.00344948
0.00343327
0.0034492
0.00343323
0.0034301
0.00343042
0.00344907
0.00344993
0.00342965
0.00343042
0.00344907
0.00344993
0.00342965
0.00342333
0.00342039
0.00340755
0.00340439
0.00342036
0.00342354
0.00340426
0.00342333
0.00342039
0.00340755
0.00340439
0.00342036
0.00342354
0.00340426
0.0034239
0.00340398
0.00342316
0.00340463
0.0034239
0.00340398
0.00342316
0.00340463
0.00344887
0.00342947
0.00344887
0.00342947
0.00342315
0.00340431
0.00340431
0.00342354
0.00342354
0.00340382
0.00342299
0.00340382
0.00342299
0.00339743
0.00337853
0.00339743
0.00337853
0.00339791
0.00339791
0.00337903
0.00337897
0.00337897
0.00335361
0.00337223
0.00335362
0.00337223
0.00337243
0.00335402
0.00335402
0.00337267
0.00337267
0.00337922
0.00339758
0.00339821
0.00337867
0.00337895
0.00339793
0.00339483
0.00338223
0.00339776
0.00337906
0.0033822
0.00337895
0.00339793
0.00339483
0.00338223
0.00339776
0.00337906
0.0033822
0.0033729
0.00335374
0.00337236
0.00335421
0.0033729
0.00335374
0.00337236
0.00335421
0.00337255
0.00336969
0.00335411
0.00335722
0.00337269
0.00336966
0.00335402
0.00337255
0.00336969
0.00335411
0.00335722
0.00337269
0.00336966
0.00335402
0.00339792
0.00339792
0.00337903
0.00337897
0.00337897
0.00339743
0.00337853
0.00335362
0.00337223
0.00337243
0.00335402
0.00335402
0.00337267
0.00337267
0.00335362
0.00337223
0.00337895
0.00339793
0.00339483
0.00338223
0.00339776
0.00337906
0.0033822
0.00337922
0.00339758
0.00339821
0.00337867
0.00337895
0.00339483
0.00339793
0.00338223
0.00339776
0.0033822
0.00337906
0.0033729
0.00335374
0.00337236
0.00335421
0.00337255
0.00336969
0.0033541
0.00335722
0.00337269
0.00336966
0.00335402
0.0033729
0.00335374
0.00337236
0.00335421
0.00337255
0.00336969
0.00335722
0.00335411
0.00336966
0.00337269
0.00335402
0.00337922
0.00339758
0.00339821
0.00337867
0.00337895
0.00339483
0.00339793
0.00338223
0.00339776
0.0033822
0.00337906
0.00337922
0.00339758
0.00339821
0.00337867
0.00337255
0.00336969
0.0033541
0.00335722
0.00337269
0.00336966
0.00335402
0.0033729
0.00335374
0.00337236
0.00335421
0.00337255
0.00336969
0.00335722
0.00335411
0.00336966
0.00337269
0.00335402
0.0033729
0.00335374
0.00337236
0.00335421
0.00339791
0.00339791
0.00337903
0.00337897
0.00337897
0.00339743
0.00337853
0.00335362
0.00337223
0.00337243
0.00335401
0.00335402
0.00337267
0.00337267
0.00335362
0.00337223
0.00337895
0.00339483
0.00339793
0.00338223
0.00339776
0.0033822
0.00337906
0.00337922
0.00339758
0.00339821
0.00337867
0.00337922
0.00339758
0.00339821
0.00337867
0.00337255
0.00336969
0.00335722
0.0033541
0.00336966
0.00337269
0.00335402
0.00337255
0.00336969
0.00335722
0.00335411
0.00336966
0.00337269
0.00335402
0.0033729
0.00335374
0.00337236
0.00335421
0.0033729
0.00335374
0.00337236
0.00335421
0.00339743
0.00337853
0.00339743
0.00337853
0.00337243
0.00335402
0.00335402
0.00337267
0.00337267
0.00335361
0.00337223
0.00335361
0.00337223
0.00334741
0.00332907
0.00334741
0.00332907
0.00334781
0.00334781
0.00332955
0.00332944
0.00332944
0.00330488
0.00332296
0.00330488
0.00332296
0.00332316
0.00330523
0.00330523
0.00332333
0.00332333
0.00332958
0.00334753
0.00334798
0.00332918
0.00332946
0.00334783
0.00334486
0.00333263
0.00334771
0.00332953
0.0033326
0.00332946
0.00334783
0.00334486
0.00333263
0.00334771
0.00332953
0.0033326
0.00332345
0.00330499
0.00332306
0.00330532
0.00332345
0.00330499
0.00332306
0.00330532
0.00332324
0.00332046
0.00330532
0.00330834
0.00332334