/*--------------------------------*- C++ -*----------------------------------*\
| =========                 |                                                 |
| \\      /  F ield         | OpenFOAM: The Open Source CFD Toolbox           |
|  \\    /   O peration     | Version:  v1906                                 |
|   \\  /    A nd           | Web:      www.OpenFOAM.com                      |
|    \\/     M anipulation  |                                                 |
\*---------------------------------------------------------------------------*/
FoamFile
{
    version     2.0;
    format      ascii;
    class       surfaceScalarField;
    location    "1000";
    object      phi;
}
// * * * * * * * * * * * * * * * * * * * * * * * * * * * * * * * * * * * * * //

dimensions      [0 3 -1 0 0 0 0];
oriented        oriented;


internalField   nonuniform List<scalar> 
124908
(
-0.00104221
-1.45815e-05
-1.44777e-05
9.34771e-06
9.17762e-06
0.00105274
-0.00026146
-5.64183e-06
1.44583e-05
6.83957e-06
0.00105941
-4.53274e-06
-1.62486e-06
-2.21805e-06
-2.57554e-06
-6.59144e-06
-7.04427e-06
-3.16375e-06
-0.000263303
-0.000259727
-0.000262829
-0.000261437
-5.64682e-06
1.44873e-05
6.9291e-06
0.0010592
-4.53785e-06
-1.63504e-06
-2.22565e-06
-2.57985e-06
-6.58553e-06
-7.04033e-06
-3.16593e-06
-0.000259699
-0.000263274
-0.000262793
-0.000260564
5.61732e-06
5.65742e-06
-4.87815e-06
-4.87221e-06
0.00025904
-1.63187e-06
-1.63377e-06
-0.00106073
8.98538e-07
8.99308e-07
0.0010622
-0.00106267
-1.60665e-06
1.62783e-06
8.28419e-07
0.00106395
-6.53889e-07
7.84504e-07
-1.48152e-07
3.78006e-07
-8.00661e-07
-1.39484e-06
-2.90561e-07
-0.00106235
-1.60156e-06
1.63834e-06
8.23607e-07
0.00106363
-6.53863e-07
7.79016e-07
-1.482e-07
3.75397e-07
-8.03199e-07
-1.39453e-06
-2.88004e-07
-0.000261533
1.63928e-06
1.60171e-06
-7.13272e-07
-7.16422e-07
0.000259722
-1.36113e-06
-1.36255e-06
-0.0010664
6.82251e-07
6.83061e-07
0.00106775
-0.0010679
-1.55714e-06
1.3673e-06
6.90353e-07
0.00106925
-6.21815e-07
8.38627e-07
-1.06569e-07
4.24403e-07
-7.80416e-07
-1.35997e-06
-2.45155e-07
-0.00106758
-1.55189e-06
1.36211e-06
6.95676e-07
0.00106892
-6.21818e-07
8.33209e-07
-1.06547e-07
4.2434e-07
-7.80328e-07
-1.35442e-06
-2.42615e-07
-0.000262766
1.58732e-06
1.55204e-06
-6.74946e-07
-6.83122e-07
0.000260984
-1.34099e-06
-1.34229e-06
-0.00107186
6.64412e-07
6.65263e-07
0.00107322
-0.00107326
-1.55555e-06
1.34196e-06
6.67269e-07
0.00107457
-6.1991e-07
8.63784e-07
-8.16006e-08
4.38217e-07
-7.79421e-07
-1.36932e-06
-2.20266e-07
-0.00107292
-1.55023e-06
1.34186e-06
6.67353e-07
0.00107424
-6.17211e-07
8.5837e-07
-8.40412e-08
4.38155e-07
-7.81919e-07
-1.36911e-06
-2.17709e-07
-0.000264044
1.58325e-06
1.55043e-06
-6.64609e-07
-6.70263e-07
0.000262245
-1.29597e-06
-1.29715e-06
-0.00107721
6.42275e-07
6.43166e-07
0.00107852
-0.00107844
-1.54743e-06
1.29688e-06
6.34131e-07
0.00107969
-6.07404e-07
8.91625e-07
-5.62694e-08
4.60193e-07
-7.68213e-07
-1.3718e-06
-1.89051e-07
-0.0010781
-1.54204e-06
1.29671e-06
6.34138e-07
0.00107936
-6.04661e-07
8.86207e-07
-5.86809e-08
4.60074e-07
-7.70702e-07
-1.37157e-06
-1.86409e-07
-0.000265263
1.57522e-06
1.54222e-06
-6.47609e-07
-6.53281e-07
0.000263446
-1.24843e-06
-1.24952e-06
-0.00108237
6.2038e-07
6.21294e-07
0.00108362
-0.00108337
-1.53909e-06
1.24927e-06
6.04497e-07
0.00108457
-5.95267e-07
9.17283e-07
-3.39345e-08
4.84564e-07
-7.54045e-07
-1.3692e-06
-1.58555e-07
-0.00108303
-1.53369e-06
1.24906e-06
6.04454e-07
0.00108423
-5.92511e-07
9.11846e-07
-3.62791e-08
4.84301e-07
-7.56424e-07
-1.36899e-06
-1.55875e-07
-0.000266408
1.56695e-06
1.53379e-06
-6.30639e-07
-6.36314e-07
0.000264575
-1.20438e-06
-1.20528e-06
-0.00108732
6.00863e-07
6.01754e-07
0.00108852
-0.00108806
-1.53251e-06
1.20498e-06
5.80591e-07
0.00108919
-5.85756e-07
9.40175e-07
-1.53399e-08
5.09191e-07
-7.40268e-07
-1.36486e-06
-1.30583e-07
-0.00108772
-1.52711e-06
1.20475e-06
5.80626e-07
0.00108885
-5.83009e-07
9.34705e-07
-1.76009e-08
5.08993e-07
-7.42699e-07
-1.3648e-06
-1.27947e-07
-0.00026748
1.56053e-06
1.5272e-06
-6.16091e-07
-6.21791e-07
0.00026563
-1.16566e-06
-1.16691e-06
-0.00109208
5.84422e-07
5.85367e-07
0.00109324
-0.00109251
-1.52811e-06
1.16667e-06
5.62562e-07
0.00109359
-5.79315e-07
9.60159e-07
-1.20078e-09
5.33232e-07
-7.28038e-07
-1.36088e-06
-1.05765e-07
-0.00109217
-1.52269e-06
1.16649e-06
5.62724e-07
0.00109325
-5.76599e-07
9.54665e-07
-3.11707e-09
5.32966e-07
-7.30516e-07
-1.36064e-06
-1.03121e-07
-0.000268483
1.55626e-06
1.52275e-06
-6.0411e-07
-6.09876e-07
0.000266618
-1.13199e-06
-1.13324e-06
-0.00109667
5.70353e-07
5.71028e-07
0.00109779
-0.00109676
-1.52679e-06
1.13307e-06
5.48853e-07
0.00109779
-5.75823e-07
9.76685e-07
1.63443e-08
5.55837e-07
-7.1756e-07
-1.35798e-06
-8.40213e-08
-0.00109641
-1.52133e-06
1.13305e-06
5.48961e-07
0.00109744
-5.73179e-07
9.71283e-07
1.33413e-08
5.55606e-07
-7.20061e-07
-1.35745e-06
-8.14761e-08
-0.000269423
1.55478e-06
1.52115e-06
-5.95515e-07
-6.01186e-07
0.000267544
-1.10339e-06
-1.10442e-06
-0.00110111
5.58634e-07
5.59311e-07
0.0011022
-0.00110081
-1.52702e-06
1.10433e-06
5.38123e-07
0.0011018
-5.7372e-07
9.91866e-07
3.08743e-08
5.77039e-07
-7.08174e-07
-1.35536e-06
-6.52011e-08
-0.00110046
-1.52152e-06
1.10419e-06
5.38199e-07
0.00110145
-5.71063e-07
9.86345e-07
2.78099e-08
5.77114e-07
-7.10587e-07
-1.35484e-06
-6.2648e-08
-0.000270305
1.5554e-06
1.52163e-06
-5.8941e-07
-5.95145e-07
0.000268412
-1.07836e-06
-1.07926e-06
-0.00110542
5.48659e-07
5.49356e-07
0.00110648
-0.0011047
-1.52817e-06
1.0792e-06
5.28774e-07
0.00110564
-5.7037e-07
1.00635e-06
4.14175e-08
5.97013e-07
-6.98687e-07
-1.35244e-06
-4.89196e-08
-0.00110435
-1.52262e-06
1.07911e-06
5.28823e-07
0.0011053
-5.70213e-07
1.00072e-06
4.0966e-08
5.97145e-07
-7.01263e-07
-1.35218e-06
-4.63968e-08
-0.000271132
1.55695e-06
1.52306e-06
-5.8464e-07
-5.90394e-07
0.000269227
-1.05582e-06
-1.05688e-06
-0.00110962
5.39709e-07
5.40363e-07
0.00111065
-0.00110843
-1.53003e-06
1.05663e-06
5.19997e-07
0.00110934
-5.71183e-07
1.02005e-06
5.22288e-08
6.16069e-07
-6.88678e-07
-1.34859e-06
-3.45768e-08
-0.00110808
-1.52433e-06
1.05637e-06
5.19766e-07
0.00110899
-5.70541e-07
1.01452e-06
5.2479e-08
6.15964e-07
-6.91189e-07
-1.3485e-06
-3.2165e-08
-0.000271907
1.55849e-06
1.52449e-06
-5.79457e-07
-5.85232e-07
0.000269989
-1.0343e-06
-1.03518e-06
-0.00111371
5.30898e-07
5.31604e-07
0.00111472
-0.001112
-1.53134e-06
1.03497e-06
5.10846e-07
0.00111288
-5.69244e-07
1.03314e-06
6.166e-08
6.33304e-07
-6.77869e-07
-1.34422e-06
-2.25788e-08
-0.00111165
-1.52582e-06
1.03475e-06
5.10769e-07
0.00111253
-5.69568e-07
1.02778e-06
6.19002e-08
6.33284e-07
-6.80286e-07
-1.34392e-06
-1.98641e-08
-0.00027263
1.5599e-06
1.52575e-06
-5.74585e-07
-5.8045e-07
0.0002707
-1.01311e-06
-1.01409e-06
-0.0011177
5.22254e-07
5.22952e-07
0.00111868
-0.00111543
-1.53286e-06
1.01394e-06
5.00345e-07
0.00111627
-5.6666e-07
1.0461e-06
7.1717e-08
6.4876e-07
-6.65058e-07
-1.338e-06
-1.18337e-08
-0.00111508
-1.52709e-06
1.01396e-06
5.00565e-07
0.00111592
-5.65965e-07
1.04035e-06
7.10822e-08
6.48486e-07
-6.67973e-07
-1.33809e-06
-9.6375e-09
-0.000273299
1.56167e-06
1.52753e-06
-5.6996e-07
-5.75541e-07
0.000271356
-9.92611e-07
-9.93281e-07
-0.00112159
5.13383e-07
5.14164e-07
0.00112255
-0.00111871
-1.5333e-06
9.93239e-07
4.90371e-07
0.00111951
-5.62286e-07
1.05874e-06
7.98198e-08
6.62371e-07
-6.51291e-07
-1.33044e-06
-3.27136e-09
-0.00111836
-1.52765e-06
9.92837e-07
4.89926e-07
0.00111915
-5.6258e-07
1.05349e-06
8.08073e-08
6.62733e-07
-6.53321e-07
-1.32971e-06
-1.0846e-09
-0.000273915
1.56212e-06
1.52787e-06
-5.62481e-07
-5.68195e-07
0.000271956
-9.71357e-07
-9.72253e-07
-0.00112539
5.04308e-07
5.04961e-07
0.00112633
-0.00112184
-1.53336e-06
9.72281e-07
4.7839e-07
0.00112259
-5.57781e-07
1.07097e-06
8.73895e-08
6.74844e-07
-6.35831e-07
-1.32123e-06
7.52833e-09
-0.00112148
-1.52771e-06
9.71937e-07
4.77833e-07
0.00112224
-5.57103e-07
1.06529e-06
8.73267e-08
6.74652e-07
-6.38704e-07
-1.32123e-06
1.09442e-08
-0.000274471
1.562e-06
1.52766e-06
-5.54783e-07
-5.60508e-07
0.000272497
-9.49954e-07
-9.50468e-07
-0.00112909
4.94482e-07
4.9536e-07
0.00113
-0.0011248
-1.53208e-06
9.50747e-07
4.66347e-07
0.00112552
-5.49451e-07
1.08246e-06
9.4724e-08
6.85002e-07
-6.20106e-07
-1.31095e-06
1.72423e-08
-0.00112445
-1.52656e-06
9.50232e-07
4.65557e-07
0.00112516
-5.49646e-07
1.07704e-06
9.55843e-08
6.85118e-07
-6.2236e-07
-1.31032e-06
2.02922e-08
-0.000274965
1.56099e-06
1.52653e-06
-5.46385e-07
-5.5217e-07
0.000272976
-9.27892e-07
-9.28648e-07
-0.0011327
4.84204e-07
4.84912e-07
0.00113359
-0.0011276
-1.53038e-06
9.28919e-07
4.55251e-07
0.00112828
-5.41489e-07
1.09299e-06
1.01057e-07
6.94744e-07
-6.03062e-07
-1.2993e-06
2.64603e-08
-0.00112725
-1.52454e-06
9.29217e-07
4.54978e-07
0.00112792
-5.40388e-07
1.08729e-06
1.01436e-07
6.93899e-07
-6.06141e-07
-1.29945e-06
2.90054e-08
-0.000275394
1.55926e-06
1.52477e-06
-5.37279e-07
-5.42978e-07
0.00027339
-9.06937e-07
-9.07634e-07
-0.00113622
4.74553e-07
4.75237e-07
0.00113708
-0.00113024
-1.52751e-06
9.07355e-07
4.44828e-07
0.00113087
-5.30674e-07
1.1025e-06
1.0797e-07
7.02965e-07
-5.8588e-07
-1.28544e-06
3.35016e-08
-0.00112988
-1.52175e-06
9.07425e-07
4.44516e-07
0.00113051
-5.30233e-07
1.09684e-06
1.07874e-07
7.02767e-07
-5.88704e-07
-1.28577e-06
3.67585e-08
-0.000275755
1.55653e-06
1.522e-06
-5.27687e-07
-5.33361e-07
0.000273738
-8.85176e-07
-8.86418e-07
-0.00113964
4.64888e-07
4.65287e-07
0.00114048
-0.00113269
-1.52275e-06
8.86492e-07
4.34289e-07
0.00113328
-5.18047e-07
1.11131e-06
1.13672e-07
7.09749e-07
-5.69505e-07
-1.27156e-06
4.01186e-08
-0.00113234
-1.51754e-06
8.8672e-07
4.34495e-07
0.00113292
-5.1866e-07
1.10541e-06
1.13511e-07
7.1005e-07
-5.71792e-07
-1.27119e-06
4.34942e-08
-0.000276047
1.552e-06
1.51728e-06
-5.16225e-07
-5.22063e-07
0.000274016
-8.65031e-07
-8.66575e-07
-0.00114296
4.56313e-07
4.56415e-07
0.00114378
-0.00113497
-1.51748e-06
8.65807e-07
4.24945e-07
0.00113551
-5.09428e-07
1.1187e-06
1.21209e-07
7.17369e-07
-5.52227e-07
-1.25569e-06
4.70254e-08
-0.00113461
-1.51204e-06
8.65247e-07
4.24492e-07
0.00113515
-5.0647e-07
1.11307e-06
1.18918e-07
7.17136e-07
-5.5452e-07
-1.25523e-06
5.00685e-08
-0.000276268
1.54661e-06
1.51204e-06
-5.04553e-07
-5.10091e-07
0.000274224
5.22146e-06
5.23231e-06
0.000260567
-0.000259171
-5.93189e-06
-5.91777e-06
5.08158e-06
0.000261409
-0.000258686
-5.96204e-06
3.37916e-06
-5.22153e-06
5.07656e-06
0.000261442
-0.000258702
-5.97005e-06
3.37432e-06
5.22214e-06
0.000260579
-0.000259173
-5.90328e-06
-5.94651e-06
5.07467e-06
0.000261473
-0.000258717
-5.96755e-06
3.369e-06
5.0814e-06
-5.22378e-06
0.000261417
-0.000258686
3.38421e-06
-5.97225e-06
1.07111e-05
1.06174e-05
-0.000252649
-0.000256079
-0.000255118
-0.000255118
-6.41734e-06
-4.12515e-06
-6.6623e-06
-6.41771e-06
-4.12609e-06
-6.66784e-06
-5.06963e-06
0.00104223
1.06707e-05
1.06227e-05
-0.000252651
-0.000256076
-0.000255121
-0.000255121
-6.41996e-06
-4.12544e-06
-6.66504e-06
-6.41517e-06
-4.12087e-06
-6.66025e-06
-5.06928e-06
0.00104211
1.0731e-05
1.06833e-05
-0.000252643
-0.000256071
-0.000255118
-0.000255113
-6.41981e-06
-4.13282e-06
-6.66497e-06
-6.42001e-06
-4.12309e-06
-6.66258e-06
-5.08397e-06
-5.07209e-06
0.00104217
1.07263e-05
1.06276e-05
-0.000252646
-0.000256074
-0.000255118
-0.000255118
-6.4147e-06
-4.12777e-06
-6.65997e-06
-6.42014e-06
-4.12593e-06
-6.6653e-06
-0.000258712
-5.95991e-06
3.36395e-06
-5.22138e-06
0.000261404
-0.000258684
3.37919e-06
-5.96198e-06
5.22453e-06
0.000260559
-0.000259158
-5.9056e-06
-5.94373e-06
-0.000258697
3.37148e-06
-5.95704e-06
-5.23228e-06
0.000261471
-0.000258712
3.36649e-06
-5.96502e-06
-0.000259168
-5.93177e-06
-5.9178e-06
5.61757e-06
5.65479e-06
-4.87838e-06
-4.87223e-06
0.000259045
-7.8048e-07
-7.44601e-07
0.000261544
-0.000259462
-2.82248e-07
-2.74854e-07
7.09202e-06
0.00105882
-4.53008e-06
-1.57833e-06
-2.21273e-06
-2.57667e-06
-6.60588e-06
-7.05009e-06
-3.17074e-06
-0.000263264
-0.000259684
-0.000262793
-5.62803e-06
1.4555e-05
7.03143e-06
0.00105919
-4.54921e-06
-1.57071e-06
-2.21587e-06
-2.58757e-06
-6.6374e-06
-7.067e-06
-3.18641e-06
-0.000263338
-0.000259715
-0.000262834
0.00106192
2.02401e-06
-0.00106086
9.73754e-07
-1.71809e-06
-1.69109e-07
-6.92239e-07
-1.46543e-06
-3.07558e-07
-8.28053e-07
3.43221e-07
7.88564e-07
0.00106234
2.02438e-06
-0.00106128
9.6869e-07
-1.72851e-06
-1.61611e-07
-6.97739e-07
-1.47115e-06
-3.07707e-07
-8.28424e-07
3.48639e-07
-4.87646e-06
-4.86912e-06
0.000259055
-7.47278e-07
0.000261569
-0.000259482
-2.79597e-07
-2.71983e-07
6.81326e-06
0.00105966
-4.55437e-06
-1.63766e-06
-2.22893e-06
-2.58587e-06
-6.61991e-06
-7.06238e-06
-3.18164e-06
-0.000263359
-0.000259742
-0.000262847
-5.62773e-06
1.45894e-05
7.12547e-06
0.00105896
-4.54903e-06
-1.58079e-06
-2.2209e-06
-2.58953e-06
-6.6367e-06
-7.06587e-06
-3.18603e-06
-0.000259684
-0.000263315
-0.000262806
0.00106294
2.03159e-06
-0.00106187
9.62251e-07
-1.68817e-06
-1.71619e-07
-6.92517e-07
-1.46847e-06
-3.07668e-07
-8.25819e-07
3.45596e-07
7.77942e-07
0.00106203
2.0346e-06
-0.00106099
9.84065e-07
-1.71815e-06
-1.66658e-07
-6.92435e-07
-1.46825e-06
-3.05087e-07
-8.30812e-07
3.43169e-07
1.45864e-05
7.11279e-06
0.00105877
-4.53002e-06
-1.57822e-06
-2.2101e-06
-2.57669e-06
-6.60589e-06
-3.17079e-06
-7.04777e-06
-0.000259679
-0.000263259
-0.000262788
2.03091e-06
-0.00106161
9.67486e-07
-1.68807e-06
-1.68942e-07
-6.89598e-07
-1.46576e-06
-3.10039e-07
3.40408e-07
-8.25548e-07
7.77919e-07
0.00106182
2.03422e-06
-0.00106078
9.84099e-07
-1.71807e-06
-1.66539e-07
-6.92198e-07
-1.46811e-06
-3.07528e-07
-8.28009e-07
3.45757e-07
-4.88128e-06
-4.8689e-06
0.000259035
-7.39133e-07
0.000261521
-0.000259444
-2.82646e-07
-2.77213e-07
1.44875e-05
6.83175e-06
0.00105961
-4.55451e-06
-1.63767e-06
-2.22898e-06
-2.5857e-06
-6.61978e-06
-3.18154e-06
-7.05965e-06
-0.000259732
-0.000263356
-0.000262842
2.03595e-06
-0.00106131
9.83008e-07
-1.68559e-06
-1.71493e-07
-6.9227e-07
-1.46262e-06
-3.05021e-07
3.40448e-07
-8.28064e-07
7.3923e-07
0.00106284
2.03659e-06
-0.00106179
9.72565e-07
-1.68314e-06
-1.71643e-07
-6.89941e-07
-1.4657e-06
-3.07504e-07
-8.28238e-07
3.40608e-07
-0.000259459
-2.79775e-07
-2.77423e-07
1.63935e-06
1.60415e-06
-7.10559e-07
-7.19031e-07
0.00025973
-8.6633e-07
-8.27638e-07
0.000262778
-0.000260667
-2.12626e-07
-2.05054e-07
8.29639e-07
0.00106319
-6.56442e-07
8.17757e-07
-1.43302e-07
3.78166e-07
-8.00554e-07
-1.39714e-06
-2.90473e-07
-1.64463e-06
1.63227e-06
8.24417e-07
0.00106362
-6.59297e-07
8.2583e-07
-1.4331e-07
3.83587e-07
-8.03526e-07
-1.40283e-06
-2.88171e-07
0.00106713
1.38301e-06
-0.0010658
7.02153e-07
-1.59182e-06
-1.03502e-07
-6.28661e-07
-1.35465e-06
-2.49031e-07
-7.76778e-07
4.22399e-07
8.71692e-07
0.00106757
1.38328e-06
-0.00106623
6.97075e-07
-1.59715e-06
-1.03622e-07
-6.28888e-07
-1.35763e-06
-2.49146e-07
-7.77124e-07
4.252e-07
-7.11053e-07
-7.18361e-07
0.000259748
-8.3289e-07
0.000262804
-0.000260679
-2.12673e-07
-2.07559e-07
8.23146e-07
0.00106421
-6.54078e-07
7.81856e-07
-1.45757e-07
3.80614e-07
-8.036e-07
-1.40028e-06
-2.88115e-07
-1.63935e-06
1.63749e-06
8.297e-07
0.0010633
-6.59282e-07
8.17861e-07
-1.43345e-07
3.78181e-07
-8.03266e-07
-1.39733e-06
-2.87991e-07
0.00106816
1.38438e-06
-0.00106684
7.01112e-07
-1.55391e-06
-1.08434e-07
-6.23659e-07
-1.35235e-06
-2.46604e-07
-7.77121e-07
4.25055e-07
8.61118e-07
0.00106725
1.38304e-06
-0.00106591
7.02237e-07
-1.58922e-06
-1.06077e-07
-6.28807e-07
-1.35478e-06
-2.48999e-07
-7.76843e-07
4.2517e-07
1.63205e-06
8.29733e-07
0.0010631
-6.59069e-07
8.15186e-07
-1.45741e-07
3.78102e-07
-8.03181e-07
-2.88028e-07
-1.39723e-06
1.38399e-06
-0.00106657
7.06469e-07
-1.56169e-06
-1.10858e-07
-6.23503e-07
-1.35226e-06
-2.46625e-07
4.2492e-07
-7.7692e-07
8.63708e-07
0.00106704
1.37772e-06
-0.0010657
7.02252e-07
-1.58914e-06
-1.05962e-07
-6.2863e-07
-1.35472e-06
-2.49056e-07
-7.76774e-07
4.22416e-07
-7.13822e-07
-7.15803e-07
0.000259709
-8.24831e-07
0.000262753
-0.000260646
-2.12852e-07
-2.07502e-07
1.63355e-06
8.18033e-07
0.00106413
-6.54139e-07
7.76439e-07
-1.5087e-07
3.75478e-07
-8.00813e-07
-2.92947e-07
-1.39476e-06
1.38398e-06
-0.00106625
7.01389e-07
-1.55117e-06
-1.10853e-07
-6.23459e-07
-1.3467e-06
-2.49028e-07
4.16867e-07
-7.76864e-07
8.27501e-07
0.00106807
1.38438e-06
-0.00106674
7.0119e-07
-1.55136e-06
-1.11009e-07
-6.23727e-07
-1.35492e-06
-2.49049e-07
-7.79705e-07
4.22395e-07
-0.000260654
-2.12732e-07
-2.07647e-07
1.58995e-06
1.55721e-06
-6.72234e-07
-6.80567e-07
0.000260984
-8.90491e-07
-8.54278e-07
0.00026406
-0.000261937
-1.91616e-07
-1.8655e-07
6.91215e-07
0.00106848
-6.29686e-07
8.72073e-07
-9.9249e-08
4.2455e-07
-7.77659e-07
-1.35446e-06
-2.47553e-07
-1.59532e-06
1.36145e-06
7.01844e-07
0.00106891
-6.299e-07
8.77483e-07
-9.93112e-08
4.30079e-07
-7.80623e-07
-1.36007e-06
-2.42694e-07
0.00107249
1.34952e-06
-0.00107117
6.75825e-07
-1.58991e-06
-8.55322e-08
-6.24923e-07
-1.36701e-06
-2.29924e-07
-7.78128e-07
4.33845e-07
8.95939e-07
0.00107292
1.34983e-06
-0.00107159
6.76046e-07
-1.59527e-06
-8.3106e-08
-6.27791e-07
-1.37531e-06
-2.25034e-07
-7.83695e-07
4.42089e-07
-6.75278e-07
-6.77489e-07
0.000261005
-8.56954e-07
0.000264088
-0.000261963
-1.89003e-07
-1.83807e-07
6.90227e-07
0.00106952
-6.27346e-07
8.35991e-07
-1.04176e-07
4.27159e-07
-7.80588e-07
-1.36004e-06
-2.42653e-07
-1.58735e-06
1.36127e-06
6.96569e-07
0.00106859
-6.29853e-07
8.69494e-07
-9.92931e-08
4.27291e-07
-7.80284e-07
-1.35719e-06
-2.42541e-07
0.00107352
1.35085e-06
-0.0010722
6.74837e-07
-1.55438e-06
-8.7968e-08
-6.22528e-07
-1.36994e-06
-2.24994e-07
-7.83697e-07
4.36499e-07
8.90564e-07
0.0010726
1.34961e-06
-0.00107127
6.75979e-07
-1.58992e-06
-8.30772e-08
-6.2771e-07
-1.36968e-06
-2.24843e-07
-7.83375e-07
4.36633e-07
1.36625e-06
6.91329e-07
0.00106839
-6.27004e-07
8.66808e-07
-1.04153e-07
4.27181e-07
-7.80256e-07
-2.45099e-07
-1.35716e-06
1.35052e-06
-0.00107193
6.74961e-07
-1.55697e-06
-8.78495e-08
-6.22368e-07
-1.36724e-06
-2.27531e-07
4.33707e-07
-7.80941e-07
8.85171e-07
0.0010724
1.34944e-06
-0.00107107
6.75941e-07
-1.58463e-06
-8.79641e-08
-6.22206e-07
-1.36705e-06
-2.27464e-07
-7.80701e-07
4.3383e-07
-6.75368e-07
-6.80012e-07
0.000260969
-8.51521e-07
0.000264039
-0.000261921
-1.91701e-07
-1.83823e-07
1.36252e-06
6.95524e-07
0.00106942
-6.22098e-07
8.27957e-07
-1.09162e-07
4.2457e-07
-7.77919e-07
-2.45113e-07
-1.35476e-06
1.35041e-06
-0.0010716
6.75031e-07
-1.55164e-06
-9.03172e-08
-6.19658e-07
-1.36694e-06
-2.24967e-07
4.33721e-07
-7.83406e-07
8.51511e-07
0.00107344
1.35086e-06
-0.00107211
6.74886e-07
-1.55186e-06
-9.04742e-08
-6.19949e-07
-1.36467e-06
-2.27476e-07
-7.80993e-07
4.31205e-07
-0.000261934
-1.89134e-07
-1.8394e-07
1.58854e-06
1.55298e-06
-6.61908e-07
-6.67641e-07
0.000262248
-9.18478e-07
-8.82129e-07
0.000265279
-0.000263155
-1.63943e-07
-1.58829e-07
6.68151e-07
0.00107381
-6.22484e-07
8.97368e-07
-7.92724e-08
4.38306e-07
-7.76643e-07
-1.3691e-06
-2.22715e-07
-1.5939e-06
1.34128e-06
6.68349e-07
0.00107423
-6.25337e-07
9.02815e-07
-7.68568e-08
4.46597e-07
-7.82189e-07
-1.37742e-06
-2.17767e-07
0.00107767
1.30796e-06
-0.0010764
6.43169e-07
-1.58273e-06
-6.00955e-08
-6.13225e-07
-1.37178e-06
-1.99306e-07
-7.68795e-07
4.54454e-07
9.2398e-07
0.00107809
1.30829e-06
-0.00107682
6.43423e-07
-1.58812e-06
-5.76655e-08
-6.16091e-07
-1.38012e-06
-1.94351e-07
-7.74413e-07
4.6265e-07
-6.65018e-07
-6.69711e-07
0.000262274
-8.84806e-07
0.000265307
-0.000263181
-1.61316e-07
-1.5603e-07
6.67162e-07
0.00107484
-6.20078e-07
8.61114e-07
-8.17083e-08
4.40999e-07
-7.82198e-07
-1.37204e-06
-2.17761e-07
-1.58857e-06
1.34109e-06
6.68302e-07
0.00107391
-6.25287e-07
8.97466e-07
-7.67904e-08
4.41069e-07
-7.81929e-07
-1.3718e-06
-2.17642e-07
0.0010787
1.30918e-06
-0.00107743
6.42202e-07
-1.54704e-06
-6.24948e-08
-6.10805e-07
-1.37473e-06
-1.94327e-07
-7.74387e-07
4.57118e-07
9.1854e-07
0.00107777
1.30803e-06
-0.0010765
6.43316e-07
-1.58276e-06
-5.76677e-08
-6.16027e-07
-1.37439e-06
-1.94229e-07
-7.74045e-07
4.57262e-07
1.3409e-06
6.68233e-07
0.00107371
-6.19726e-07
8.92042e-07
-8.16757e-08
4.3833e-07
-7.79245e-07
-2.20195e-07
-1.36919e-06
1.3089e-06
-0.00107716
6.42331e-07
-1.54964e-06
-6.23973e-08
-6.10649e-07
-1.37199e-06
-1.96834e-07
4.54291e-07
-7.71661e-07
9.13125e-07
0.00107757
1.30791e-06
-0.0010763
6.43281e-07
-1.57746e-06
-6.24788e-08
-6.10532e-07
-1.37178e-06
-1.96886e-07
-7.71411e-07
4.54312e-07
-6.62453e-07
-6.69682e-07
0.000262232
-8.79379e-07
0.000265258
-0.00026314
-1.6398e-07
-1.56127e-07
1.34229e-06
6.6719e-07
0.00107475
-6.1746e-07
8.58355e-07
-8.41751e-08
4.35702e-07
-7.79533e-07
-2.20205e-07
-1.3668e-06
1.30874e-06
-0.00107683
6.42346e-07
-1.54427e-06
-6.48313e-08
-6.07925e-07
-1.3717e-06
-1.94336e-07
4.54297e-07
-7.74115e-07
8.79353e-07
0.00107861
1.30918e-06
-0.00107734
6.42239e-07
-1.5445e-06
-6.49453e-08
-6.08237e-07
-1.36937e-06
-1.96889e-07
-7.71696e-07
4.51689e-07
-0.000263153
-1.61491e-07
-1.56235e-07
1.58054e-06
1.54482e-06
-6.44953e-07
-6.50647e-07
0.000263449
-9.44975e-07
-9.08469e-07
0.000266424
-0.000264302
-1.36909e-07
-1.31662e-07
6.34959e-07
0.00107892
-6.09957e-07
9.25382e-07
-5.39475e-08
4.60169e-07
-7.65453e-07
-1.37161e-06
-1.91428e-07
-1.58595e-06
1.2963e-06
6.35195e-07
0.00107935
-6.12844e-07
9.30807e-07
-5.15744e-08
4.68592e-07
-7.70965e-07
-1.37993e-06
-1.86521e-07
0.0010826
1.26013e-06
-0.00108139
6.12136e-07
-1.57421e-06
-3.68519e-08
-6.00465e-07
-1.37009e-06
-1.68334e-07
-7.54755e-07
4.78378e-07
9.50477e-07
0.00108302
1.26052e-06
-0.00108182
6.12441e-07
-1.57957e-06
-3.44925e-08
-6.03324e-07
-1.37851e-06
-1.63312e-07
-7.60398e-07
4.86583e-07
-6.4809e-07
-6.52793e-07
0.000263475
-9.11123e-07
0.000266453
-0.000264328
-1.34276e-07
-1.28916e-07
6.33983e-07
0.00107996
-6.07551e-07
8.88959e-07
-5.63697e-08
4.62941e-07
-7.70989e-07
-1.37446e-06
-1.8647e-07
-1.58056e-06
1.29606e-06
6.35102e-07
0.00107903
-6.12755e-07
9.25486e-07
-5.14741e-08
4.62941e-07
-7.70734e-07
-1.37433e-06
-1.86341e-07
0.00108364
1.26123e-06
-0.00108243
6.11206e-07
-1.53834e-06
-3.92264e-08
-5.98015e-07
-1.37307e-06
-1.6329e-07
-7.60362e-07
4.81122e-07
9.44999e-07
0.0010827
1.26019e-06
-0.00108149
6.12288e-07
-1.57425e-06
-3.45244e-08
-6.03277e-07
-1.37266e-06
-1.63172e-07
-7.59974e-07
4.81334e-07
1.29585e-06
6.34995e-07
0.00107883
-6.07149e-07
9.2e-07
-5.63757e-08
4.60368e-07
-7.67997e-07
-1.88854e-07
-1.37171e-06
1.26099e-06
-0.00108216
6.11376e-07
-1.54097e-06
-3.91834e-08
-5.979e-07
-1.37032e-06
-1.65745e-07
4.78167e-07
-7.5753e-07
9.39603e-07
0.0010825
1.26009e-06
-0.00108129
6.12262e-07
-1.56898e-06
-3.91598e-08
-5.9787e-07
-1.3701e-06
-1.65858e-07
-7.57438e-07
4.78248e-07
-6.45472e-07
-6.52691e-07
0.000263433
-9.05722e-07
0.000266403
-0.000264286
-1.36886e-07
-1.29027e-07
1.29708e-06
6.33969e-07
0.00107987
-6.04843e-07
8.86204e-07
-5.88332e-08
4.57756e-07
-7.68277e-07
-1.88837e-07
-1.36932e-06
1.26077e-06
-0.00108182
6.11318e-07
-1.53552e-06
-4.15723e-08
-5.95119e-07
-1.37007e-06
-1.63295e-07
4.78343e-07
-7.6011e-07
9.05726e-07
0.00108355
1.26122e-06
-0.00108234
6.11249e-07
-1.53586e-06
-4.1571e-08
-5.95548e-07
-1.36765e-06
-1.65849e-07
-7.57733e-07
4.75587e-07
-0.0002643
-1.34381e-07
-1.29074e-07
1.57232e-06
1.53647e-06
-6.28136e-07
-6.33785e-07
0.000264577
-9.68621e-07
-9.31996e-07
0.000267496
-0.000265375
-1.12488e-07
-1.07224e-07
6.05267e-07
0.00108379
-5.9781e-07
9.51149e-07
-3.16756e-08
4.84488e-07
-7.5116e-07
-1.36913e-06
-1.60842e-07
-1.57783e-06
1.24882e-06
6.05546e-07
0.00108422
-6.00727e-07
9.56608e-07
-2.93184e-08
4.92945e-07
-7.56714e-07
-1.37743e-06
-1.5597e-07
0.00108728
1.21476e-06
-0.00108613
5.86812e-07
-1.56722e-06
-1.74009e-08
-5.90065e-07
-1.36606e-06
-1.39616e-07
-7.4064e-07
5.03191e-07
9.74155e-07
0.00108771
1.21511e-06
-0.00108656
5.86985e-07
-1.57259e-06
-1.51094e-08
-5.92876e-07
-1.37461e-06
-1.34545e-07
-7.46249e-07
5.11458e-07
-6.31254e-07
-6.36119e-07
0.000264603
-9.34687e-07
0.000267525
-0.000265402
-1.09822e-07
-1.04514e-07
6.04321e-07
0.00108483
-5.95405e-07
9.14611e-07
-3.40384e-08
4.87224e-07
-7.56717e-07
-1.37193e-06
-1.55896e-07
-1.57234e-06
1.24856e-06
6.05431e-07
0.0010839
-6.00603e-07
9.51273e-07
-2.91865e-08
4.87218e-07
-7.56506e-07
-1.37187e-06
-1.55777e-07
0.00108833
1.21574e-06
-0.00108718
5.85817e-07
-1.5312e-06
-1.96989e-08
-5.87605e-07
-1.36908e-06
-1.34612e-07
-7.46239e-07
5.0596e-07
9.68652e-07
0.00108739
1.21488e-06
-0.00108624
5.86929e-07
-1.56726e-06
-1.5172e-08
-5.92876e-07
-1.36865e-06
-1.34509e-07
-7.45916e-07
5.06046e-07
1.24831e-06
6.05292e-07
0.00108369
-5.94867e-07
9.45679e-07
-3.4127e-08
4.84635e-07
-7.53695e-07
-1.58357e-07
-1.36916e-06
1.2155e-06
-0.00108691
5.85944e-07
-1.5338e-06
-1.96427e-08
-5.87433e-07
-1.36651e-06
-1.37065e-07
5.03013e-07
-7.43403e-07
9.63246e-07
0.00108718
1.21472e-06
-0.00108603
5.86905e-07
-1.56203e-06
-1.95825e-08
-5.87606e-07
-1.36621e-06
-1.37127e-07
-7.43327e-07
5.03038e-07
-6.28694e-07
-6.35834e-07
0.000264562
-9.29199e-07
0.000267475
-0.00026536
-1.12555e-07
-1.04601e-07
1.2494e-06
6.0429e-07
0.00108474
-5.92532e-07
9.11768e-07
-3.65331e-08
4.82053e-07
-7.53954e-07
-1.5833e-07
-1.36678e-06
1.21526e-06
-0.00108657
5.85923e-07
-1.52837e-06
-2.20283e-08
-5.84688e-07
-1.36611e-06
-1.34612e-07
5.03109e-07
-7.46022e-07
9.29275e-07
0.00108824
1.21574e-06
-0.00108709
5.85877e-07
-1.52875e-06
-2.19034e-08
-5.8525e-07
-1.3638e-06
-1.37107e-07
-7.43624e-07
5.00365e-07
-0.000265373
-1.09921e-07
-1.04571e-07
1.56593e-06
1.52992e-06
-6.13632e-07
-6.19345e-07
0.000265633
-9.92283e-07
-9.52877e-07
0.000268501
-0.00026638
-9.07927e-08
-8.55113e-08
5.8162e-07
0.00108841
-5.8832e-07
9.76839e-07
-1.09226e-08
5.09212e-07
-7.37377e-07
-1.36498e-06
-1.32897e-07
-1.57141e-06
1.2046e-06
5.8164e-07
0.00108884
-5.91213e-07
9.79649e-07
-1.0918e-08
5.1773e-07
-7.42892e-07
-1.37315e-06
-1.27944e-07
0.00109173
1.17484e-06
-0.00109063
5.67315e-07
-1.56506e-06
2.16849e-10
-5.85351e-07
-1.36183e-06
-1.14021e-07
-7.2811e-07
5.27403e-07
9.95112e-07
0.00109216
1.17508e-06
-0.00109107
5.67365e-07
-1.56779e-06
1.74671e-10
-5.85451e-07
-1.3677e-06
-1.08996e-07
-7.33685e-07
5.32892e-07
-6.1672e-07
-6.21562e-07
0.000265659
-9.55534e-07
0.000268528
-0.000266406
-8.82197e-08
-8.28258e-08
5.80524e-07
0.00108946
-5.85911e-07
9.37462e-07
-1.54648e-08
5.11925e-07
-7.43006e-07
-1.36778e-06
-1.27944e-07
-1.56594e-06
1.20445e-06
5.81645e-07
0.00108852
-5.9111e-07
9.74269e-07
-1.0802e-08
5.12022e-07
-7.427e-07
-1.36772e-06
-1.27778e-07
0.00109278
1.17582e-06
-0.00109169
5.66449e-07
-1.52612e-06
-4.09697e-09
-5.8014e-07
-1.36489e-06
-1.09017e-07
-7.3368e-07
5.30169e-07
9.89551e-07
0.00109184
1.17487e-06
-0.00109074
5.67383e-07
-1.56244e-06
7.04118e-11
-5.85418e-07
-1.36451e-06
-1.08889e-07
-7.33421e-07
5.30251e-07
1.20415e-06
5.81497e-07
0.00108832
-5.85243e-07
9.68555e-07
-1.56346e-08
5.09316e-07
-7.39975e-07
-1.30437e-07
-1.36493e-06
1.17559e-06
-0.00109142
5.66534e-07
-1.52872e-06
-4.05298e-09
-5.7992e-07
-1.36227e-06
-1.11498e-07
5.27253e-07
-7.30892e-07
9.84119e-07
0.00109163
1.17484e-06
-0.00109054
5.67615e-07
-1.55729e-06
-4.09874e-09
-5.80428e-07
-1.36199e-06
-1.11531e-07
-7.30677e-07
5.27381e-07
-6.14151e-07
-6.21406e-07
0.000265617
-9.50009e-07
0.000268478
-0.000266364
-9.09452e-08
-8.30167e-08
1.20513e-06
5.80477e-07
0.00108937
-5.82879e-07
9.34537e-07
-1.79452e-08
5.06705e-07
-7.4024e-07
-1.30416e-07
-1.36252e-06
1.17534e-06
-0.00109108
5.66549e-07
-1.52329e-06
-6.2298e-09
-5.7716e-07
-1.362e-06
-1.09052e-07
5.27384e-07
-7.33469e-07
9.5004e-07
0.00109269
1.17577e-06
-0.0010916
5.66553e-07
-1.52385e-06
-6.1794e-09
-5.78047e-07
-1.35955e-06
-1.11516e-07
-7.30964e-07
5.24697e-07
-0.000266377
-8.84289e-08
-8.30301e-08
1.56447e-06
1.52544e-06
-6.01857e-07
-6.07496e-07
0.000266621
-1.00988e-06
-9.70346e-07
0.000269441
-0.000267321
-7.28455e-08
-6.73977e-08
5.63197e-07
0.0010928
-5.84724e-07
9.96925e-07
5.24643e-09
5.3319e-07
-7.25181e-07
-1.36094e-06
-1.05635e-07
-1.56729e-06
1.16581e-06
5.63188e-07
0.00109324
-5.84937e-07
9.99717e-07
5.22037e-09
5.3911e-07
-7.30791e-07
-1.36646e-06
-1.03169e-07
0.00109596
1.13961e-06
-0.00109492
5.52512e-07
-1.56315e-06
1.93693e-08
-5.81636e-07
-1.35842e-06
-8.93111e-08
-7.20111e-07
5.5026e-07
1.01275e-06
0.0010964
1.13988e-06
-0.00109536
5.52542e-07
-1.56591e-06
1.93769e-08
-5.81639e-07
-1.36451e-06
-8.67542e-08
-7.23051e-07
5.55689e-07
-6.05037e-07
-6.09722e-07
0.000266647
-9.72986e-07
0.000269468
-0.000267347
-7.02351e-08
-6.46651e-08
5.62522e-07
0.00109386
-5.79432e-07
9.57456e-07
-1.36518e-09
5.36028e-07
-7.30823e-07
-1.36368e-06
-1.0313e-07
-1.56189e-06
1.16564e-06
5.63199e-07
0.00109292
-5.84914e-07
9.94331e-07
5.43348e-09
5.35994e-07
-7.3051e-07
-1.36366e-06
-1.03074e-07
0.00109703
1.14102e-06
-0.00109598
5.51636e-07
-1.52411e-06
1.3298e-08
-5.76257e-07
-1.3615e-06
-8.667e-08
-7.22935e-07
5.53099e-07
1.00725e-06
0.00109608
1.13955e-06
-0.00109504
5.52475e-07
-1.56039e-06
1.92212e-08
-5.81502e-07
-1.36112e-06
-8.66966e-08
-7.22811e-07
5.53081e-07
1.16564e-06
5.63364e-07
0.00109271
-5.78486e-07
9.88781e-07
-1.24309e-09
5.33264e-07
-7.2788e-07
-1.05615e-07
-1.36084e-06
1.14079e-06
-0.00109571
5.51688e-07
-1.52673e-06
1.33761e-08
-5.75993e-07
-1.3586e-06
-8.91862e-08
5.50111e-07
-7.20204e-07
1.0018e-06
0.00109587
1.13995e-06
-0.00109483
5.52662e-07
-1.55508e-06
1.25223e-08
-5.76584e-07
-1.3586e-06
-8.9124e-08
-7.19834e-07
5.50363e-07
-6.02438e-07
-6.09694e-07
0.000266605
-9.67531e-07
0.000269417
-0.000267305
-7.29505e-08
-6.46836e-08
1.16663e-06
5.62428e-07
0.00109377
-5.76075e-07
9.54688e-07
-3.1806e-09
5.30662e-07
-7.2814e-07
-1.05583e-07
-1.35843e-06
1.14074e-06
-0.00109537
5.51754e-07
-1.52116e-06
1.01234e-08
-5.73016e-07
-1.35844e-06
-8.65622e-08
5.50436e-07
-7.22605e-07
9.67606e-07
0.00109694
1.14119e-06
-0.00109589
5.51759e-07
-1.5215e-06
9.40572e-09
-5.74092e-07
-1.35608e-06
-8.90184e-08
-7.20057e-07
5.47767e-07
-0.000267318
-7.05304e-08
-6.49637e-08
1.56316e-06
1.52411e-06
-5.93347e-07
-5.98989e-07
0.000267546
-1.02544e-06
-9.85853e-07
0.000270323
-0.000268203
-5.718e-08
-5.1751e-08
5.4973e-07
0.001097
-5.81209e-07
1.01364e-06
2.23099e-08
5.55576e-07
-7.1754e-07
-1.35796e-06
-8.40339e-08
-1.56603e-06
1.13217e-06
5.49812e-07
0.00109743