/*--------------------------------*- C++ -*----------------------------------*\
| =========                 |                                                 |
| \\      /  F ield         | OpenFOAM: The Open Source CFD Toolbox           |
|  \\    /   O peration     | Version:  v1906                                 |
|   \\  /    A nd           | Web:      www.OpenFOAM.com                      |
|    \\/     M anipulation  |                                                 |
\*---------------------------------------------------------------------------*/
FoamFile
{
    version     2.0;
    format      ascii;
    class       volVectorField;
    location    "1000";
    object      U;
}
// * * * * * * * * * * * * * * * * * * * * * * * * * * * * * * * * * * * * * //

dimensions      [0 1 -1 0 0 0 0];


internalField   nonuniform List<vector> 
43024
(
(0.000107958 0.000107892 0.100299)
(-0.000190195 0.00011927 0.100385)
(0.000119341 -0.000190187 0.100385)
(-0.000239594 -0.000239612 0.100397)
(9.42793e-05 9.42319e-05 0.10086)
(-0.000158939 9.68066e-05 0.100942)
(9.68113e-05 -0.000158935 0.100942)
(-0.000201048 -0.0002011 0.100968)
(9.54244e-05 9.54124e-05 0.10137)
(-0.000155796 9.34669e-05 0.101449)
(9.34563e-05 -0.000155804 0.101449)
(-0.000201988 -0.000202039 0.101471)
(9.38834e-05 9.38741e-05 0.101892)
(-0.000152047 9.0088e-05 0.101957)
(9.00998e-05 -0.00015205 0.101957)
(-0.000198934 -0.000198979 0.101964)
(9.11293e-05 9.11282e-05 0.102398)
(-0.000146289 8.55712e-05 0.102446)
(8.55843e-05 -0.000146293 0.102446)
(-0.000193539 -0.000193588 0.102432)
(8.81517e-05 8.81567e-05 0.102885)
(-0.000140622 8.15971e-05 0.102912)
(8.16132e-05 -0.000140629 0.102912)
(-0.00018814 -0.00018819 0.10287)
(8.53217e-05 8.53368e-05 0.103353)
(-0.000135489 7.83844e-05 0.103354)
(7.84178e-05 -0.000135498 0.103354)
(-0.000183631 -0.000183688 0.103281)
(8.28472e-05 8.28601e-05 0.103803)
(-0.000131054 7.59266e-05 0.103774)
(7.59702e-05 -0.000131061 0.103774)
(-0.0001801 -0.000180186 0.103664)
(8.06388e-05 8.06026e-05 0.104237)
(-0.000127325 7.42376e-05 0.104174)
(7.4231e-05 -0.000127317 0.104174)
(-0.000177969 -0.00017801 0.104023)
(7.87247e-05 7.87041e-05 0.104658)
(-0.000124095 7.28997e-05 0.104557)
(7.29037e-05 -0.00012409 0.104557)
(-0.00017689 -0.000176949 0.104359)
(7.70683e-05 7.70568e-05 0.105066)
(-0.000121268 7.17477e-05 0.104924)
(7.17585e-05 -0.000121265 0.104924)
(-0.000176354 -0.000176414 0.104673)
(7.55951e-05 7.55752e-05 0.105464)
(-0.000118704 7.06201e-05 0.105277)
(7.06293e-05 -0.0001187 0.105277)
(-0.000175838 -0.000175901 0.104966)
(7.41467e-05 7.41405e-05 0.105851)
(-0.000116262 6.94589e-05 0.105615)
(6.94615e-05 -0.000116243 0.105615)
(-0.000175409 -0.000175512 0.10524)
(7.27293e-05 7.2718e-05 0.106229)
(-0.000113878 6.82216e-05 0.105938)
(6.82188e-05 -0.000113865 0.105938)
(-0.0001753 -0.000175296 0.105491)
(7.13431e-05 7.13441e-05 0.106597)
(-0.000111592 6.71791e-05 0.106248)
(6.71377e-05 -0.000111576 0.106248)
(-0.000174378 -0.000174402 0.10572)
(6.99143e-05 6.99091e-05 0.106957)
(-0.000109458 6.62031e-05 0.106543)
(6.6183e-05 -0.000109478 0.106543)
(-0.000173345 -0.000173379 0.105926)
(6.83313e-05 6.8359e-05 0.107308)
(-0.000107404 6.50987e-05 0.106822)
(6.50438e-05 -0.00010744 0.106822)
(-0.000171975 -0.00017203 0.106108)
(6.68083e-05 6.6819e-05 0.107649)
(-0.000105372 6.39517e-05 0.107086)
(6.3998e-05 -0.000105446 0.107086)
(-0.000170386 -0.000170411 0.106264)
(6.53457e-05 6.53638e-05 0.107982)
(-0.000103523 6.29517e-05 0.107334)
(6.29242e-05 -0.000103553 0.107334)
(-0.000168331 -0.00016836 0.106394)
(6.37955e-05 6.37797e-05 0.108306)
(-0.000101581 6.18442e-05 0.107565)
(6.18704e-05 -0.000101622 0.107565)
(-0.000165442 -0.000165534 0.106497)
(6.23306e-05 6.22855e-05 0.108622)
(-9.95626e-05 6.09008e-05 0.107779)
(6.08223e-05 -9.95191e-05 0.107779)
(-0.000162252 -0.000162232 0.106573)
(0.000134959 0.000134949 0.100282)
(0.000124248 0.000152867 0.100229)
(-0.000124241 0.000152848 0.100229)
(-0.000134956 0.000134917 0.100282)
(0.000152896 0.0001242 0.100229)
(0.000152868 -0.000124217 0.100229)
(9.08046e-05 9.0753e-05 0.100151)
(-9.07949e-05 9.07504e-05 0.100151)
(9.07789e-05 -9.07989e-05 0.100151)
(-9.07765e-05 -9.07968e-05 0.100151)
(-0.000152892 0.000124197 0.100229)
(-0.000152878 -0.000124213 0.100229)
(0.000134949 -0.000134968 0.100282)
(0.000124201 -0.000152897 0.100229)
(-0.000124198 -0.00015288 0.100229)
(-0.000134957 -0.000134941 0.100282)
(0.000239636 0.000239615 0.100397)
(0.000111305 0.000111178 0.100892)
(0.000119392 0.000190088 0.100385)
(-0.000119343 0.000190129 0.100385)
(8.91025e-05 0.000147213 0.100823)
(-8.90639e-05 0.00014721 0.100823)
(-0.000239646 0.000239563 0.100397)
(-0.000111265 0.000111145 0.100892)
(0.000190232 0.000119289 0.100385)
(0.000190169 -0.000119349 0.100385)
(0.00014719 8.90739e-05 0.100823)
(0.000147222 -8.90949e-05 0.100823)
(-0.000190151 -0.000119353 0.100385)
(-0.000147158 8.90751e-05 0.100823)
(-0.000147179 -8.90889e-05 0.100823)
(0.000239566 -0.000239657 0.100397)
(0.000111257 -0.00011127 0.100892)
(-0.000119321 -0.000190216 0.100385)
(8.90761e-05 -0.000147148 0.100823)
(-8.90553e-05 -0.000147173 0.100823)
(-0.000111253 -0.000111271 0.100892)
(0.000201135 0.000200969 0.100968)
(0.000105725 0.000105644 0.101395)
(9.68199e-05 0.000158993 0.100941)
(-9.67929e-05 0.00015899 0.100941)
(9.41996e-05 0.000156671 0.10132)
(-9.41997e-05 0.000156672 0.10132)
(-0.000201098 0.000200936 0.100967)
(-0.000105716 0.00010564 0.101395)
(0.000158972 9.68004e-05 0.100942)
(0.00015899 -9.68128e-05 0.100942)
(0.000156627 9.42038e-05 0.10132)
(0.000156667 -9.42068e-05 0.10132)
(-0.000158967 -9.68078e-05 0.100942)
(-0.000156623 9.42126e-05 0.10132)
(-0.000156645 -9.41974e-05 0.10132)
(0.000201044 -0.000201108 0.100968)
(0.000105687 -0.000105698 0.101395)
(-9.67931e-05 -0.000158961 0.100942)
(9.42006e-05 -0.000156624 0.10132)
(-9.42069e-05 -0.000156644 0.10132)
(-0.000105705 -0.000105711 0.101395)
(0.000202053 0.000201926 0.101471)
(9.66109e-05 9.65516e-05 0.101893)
(9.34491e-05 0.000155854 0.101449)
(-9.3454e-05 0.00015585 0.101449)
(9.11464e-05 0.000153335 0.101832)
(-9.11348e-05 0.000153325 0.101832)
(-0.000202042 0.000201909 0.101471)
(-9.65952e-05 9.65453e-05 0.101893)
(0.000155803 9.34627e-05 0.101449)
(0.000155845 -9.34583e-05 0.101449)
(0.000153277 9.11492e-05 0.101832)
(0.00015331 -9.11346e-05 0.101832)
(-0.000155827 -9.34516e-05 0.101449)
(-0.000153272 9.11409e-05 0.101832)
(-0.00015331 -9.11381e-05 0.101832)
(0.000201967 -0.000202045 0.101471)
(9.65689e-05 -9.6605e-05 0.101893)
(-9.34641e-05 -0.000155826 0.101449)
(9.11492e-05 -0.000153275 0.101832)
(-9.11385e-05 -0.000153284 0.101832)
(-9.66277e-05 -9.66298e-05 0.101893)
(0.000198971 0.000198867 0.101964)
(8.60657e-05 8.60141e-05 0.102366)
(9.00957e-05 0.00015211 0.101957)
(-9.00838e-05 0.0001521 0.101957)
(8.66928e-05 0.000147832 0.102326)
(-8.66803e-05 0.000147825 0.102326)
(-0.000198952 0.000198846 0.101964)
(-8.60344e-05 8.60122e-05 0.102366)
(0.000152054 9.00973e-05 0.101957)
(0.000152084 -9.00804e-05 0.101957)
(0.000147775 8.66924e-05 0.102326)
(0.000147807 -8.66732e-05 0.102326)
(-0.000152086 -9.00861e-05 0.101957)
(-0.00014777 8.66846e-05 0.102326)
(-0.000147813 -8.66808e-05 0.102326)
(0.000198877 -0.000198978 0.101964)
(8.60173e-05 -8.60695e-05 0.102366)
(-9.00856e-05 -0.000152056 0.101957)
(8.66971e-05 -0.000147774 0.102326)
(-8.66768e-05 -0.000147773 0.102326)
(-8.60911e-05 -8.60927e-05 0.102366)
(0.000193577 0.000193495 0.102432)
(7.60412e-05 7.60097e-05 0.102812)
(8.55768e-05 0.000146351 0.102446)
(-8.55685e-05 0.000146348 0.102446)
(8.25244e-05 0.000142062 0.102797)
(-8.25155e-05 0.000142065 0.102797)
(-0.000193575 0.000193481 0.102432)
(-7.60207e-05 7.60205e-05 0.102812)
(0.000146296 8.55772e-05 0.102446)
(0.000146325 -8.55553e-05 0.102446)
(0.000142004 8.25257e-05 0.102798)
(0.000142037 -8.25013e-05 0.102798)
(-0.000146334 -8.55672e-05 0.102446)
(-0.000142001 8.25241e-05 0.102798)
(-0.000142045 -8.25112e-05 0.102798)
(0.000193491 -0.000193585 0.102432)
(7.60018e-05 -7.60687e-05 0.102812)
(-8.55646e-05 -0.00014629 0.102446)
(8.25347e-05 -0.000142003 0.102798)
(-8.25069e-05 -0.000141996 0.102798)
(-7.60693e-05 -7.60733e-05 0.102812)
(0.000188199 0.000188138 0.10287)
(6.70754e-05 6.70399e-05 0.103229)
(8.16017e-05 0.000140684 0.102912)
(-8.15932e-05 0.000140691 0.102912)
(7.91292e-05 0.000136774 0.103245)
(-7.91056e-05 0.00013677 0.103245)
(-0.000188238 0.000188124 0.10287)
(-6.70572e-05 6.70418e-05 0.103229)
(0.00014063 8.16018e-05 0.102912)
(0.000140658 -8.15739e-05 0.102912)
(0.000136721 7.91329e-05 0.103245)
(0.00013675 -7.90963e-05 0.103245)
(-0.000140674 -8.15949e-05 0.102912)
(-0.000136712 7.91227e-05 0.103245)
(-0.000136761 -7.91163e-05 0.103245)
(0.000188141 -0.00018821 0.10287)
(6.70518e-05 -6.71052e-05 0.103229)
(-8.15937e-05 -0.000140623 0.102912)
(7.91457e-05 -0.000136719 0.103245)
(-7.91112e-05 -0.000136708 0.103245)
(-6.70913e-05 -6.71016e-05 0.103229)
(0.000183713 0.000183646 0.103281)
(5.90941e-05 5.90392e-05 0.10362)
(7.8396e-05 0.000135549 0.103354)
(-7.8373e-05 0.000135547 0.103354)
(7.64739e-05 0.00013216 0.103671)
(-7.64555e-05 0.000132157 0.103671)
(-0.000183725 0.000183618 0.103281)
(-5.90891e-05 5.90749e-05 0.10362)
(0.0001355 7.84003e-05 0.103354)
(0.000135524 -7.83617e-05 0.103354)
(0.000132111 7.65082e-05 0.103671)
(0.000132136 -7.64484e-05 0.103671)
(-0.000135548 -7.83972e-05 0.103354)
(-0.0001321 7.64903e-05 0.103671)
(-0.000132142 -7.64794e-05 0.103671)
(0.000183639 -0.000183721 0.103281)
(5.90866e-05 -5.91606e-05 0.10362)
(-7.83986e-05 -0.000135495 0.103354)
(7.65243e-05 -0.00013211 0.103671)
(-7.64786e-05 -0.000132087 0.103671)
(-5.91625e-05 -5.91751e-05 0.103621)
(0.000180237 0.000180112 0.103664)
(5.25218e-05 5.25268e-05 0.103987)
(7.59494e-05 0.000131115 0.103774)
(-7.5934e-05 0.000131116 0.103774)
(7.47037e-05 0.000128269 0.104076)
(-7.46889e-05 0.000128273 0.104076)
(-0.000180253 0.000180131 0.103664)
(-5.24961e-05 5.25739e-05 0.103987)
(0.000131064 7.59502e-05 0.103774)
(0.000131093 -7.59223e-05 0.103774)
(0.000128214 7.46351e-05 0.104076)
(0.000128253 -7.46883e-05 0.104076)
(-0.000131105 -7.59314e-05 0.103774)
(-0.000128206 7.46144e-05 0.104076)
(-0.000128241 -7.46306e-05 0.104076)
(0.000180153 -0.0001803 0.103664)
(5.25486e-05 -5.25014e-05 0.103987)
(-7.59435e-05 -0.00013105 0.103774)
(7.46138e-05 -0.000128201 0.104076)
(-7.45844e-05 -0.000128175 0.104076)
(-5.25957e-05 -5.25646e-05 0.103988)
(0.000178141 0.000178094 0.104022)
(4.68027e-05 4.67645e-05 0.104333)
(7.43288e-05 0.00012739 0.104174)
(-7.43188e-05 0.000127397 0.104174)
(7.32905e-05 0.00012492 0.104463)
(-7.32669e-05 0.000124926 0.104463)
(-0.000178177 0.000178119 0.104022)
(-4.67275e-05 4.68248e-05 0.104333)
(0.000127339 7.42646e-05 0.104174)
(0.000127368 -7.43045e-05 0.104174)
(0.000124861 7.32258e-05 0.104463)
(0.000124911 -7.32781e-05 0.104463)
(-0.000127375 -7.42711e-05 0.104174)
(-0.000124854 7.32036e-05 0.104463)
(-0.000124911 -7.32407e-05 0.104463)
(0.000178148 -0.000178177 0.104022)
(4.67484e-05 -4.6758e-05 0.104332)
(-7.42214e-05 -0.000127309 0.104174)
(7.32007e-05 -0.000124849 0.104463)
(-7.31894e-05 -0.000124841 0.104463)
(-4.69194e-05 -4.69073e-05 0.104332)
(0.000176904 0.000176833 0.104358)
(4.15491e-05 4.15452e-05 0.104657)
(7.29869e-05 0.000124166 0.104557)
(-7.29788e-05 0.000124175 0.104557)
(7.21138e-05 0.000122009 0.104834)
(-7.2082e-05 0.000122003 0.104834)
(-0.000176915 0.000176871 0.104358)
(-4.15104e-05 4.15703e-05 0.104657)
(0.000124111 7.29388e-05 0.104557)
(0.000124148 -7.29601e-05 0.104557)
(0.000121937 7.20466e-05 0.104834)
(0.000121988 -7.20827e-05 0.104834)
(-0.000124146 -7.29278e-05 0.104557)
(-0.000121927 7.20102e-05 0.104834)
(-0.000122008 -7.20685e-05 0.104834)
(0.00017688 -0.000176961 0.104358)
(4.14734e-05 -4.14256e-05 0.104657)
(-7.28795e-05 -0.000124077 0.104557)
(7.2011e-05 -0.000121922 0.104834)
(-7.2021e-05 -0.000121935 0.104834)
(-4.15464e-05 -4.15342e-05 0.104657)
(0.000176255 0.000176135 0.104673)
(3.64489e-05 3.64801e-05 0.104961)
(7.18513e-05 0.000121352 0.104924)
(-7.18264e-05 0.000121342 0.104924)
(7.10064e-05 0.000119407 0.10519)
(-7.09906e-05 0.000119401 0.10519)
(-0.000176185 0.00017615 0.104673)
(-3.65052e-05 3.65502e-05 0.104961)
(0.000121288 7.18056e-05 0.104924)
(0.000121331 -7.18273e-05 0.104924)
(0.000119346 7.09621e-05 0.10519)
(0.000119381 -7.09706e-05 0.10519)
(-0.00012131 -7.17687e-05 0.104924)
(-0.000119329 7.09189e-05 0.10519)
(-0.0001194 -7.09501e-05 0.10519)
(0.000176137 -0.000176254 0.104673)
(3.64668e-05 -3.64316e-05 0.104961)
(-7.17159e-05 -0.000121235 0.104924)
(7.09225e-05 -0.00011931 0.10519)
(-7.09074e-05 -0.00011932 0.10519)
(-3.62646e-05 -3.62604e-05 0.104961)
(0.000175999 0.000175932 0.104966)
(3.13436e-05 3.1294e-05 0.105246)
(7.0718e-05 0.000118767 0.105277)
(-7.06964e-05 0.000118769 0.105276)
(6.98569e-05 0.000116942 0.105531)
(-6.98248e-05 0.000116939 0.105531)
(-0.000175956 0.000175908 0.104967)
(-3.13723e-05 3.13656e-05 0.105246)
(0.000118705 7.06647e-05 0.105277)
(0.000118768 -7.07023e-05 0.105276)
(0.000116881 6.98047e-05 0.105531)
(0.000116933 -6.98297e-05 0.105531)
(-0.000118768 -7.06704e-05 0.105276)
(-0.000116861 6.97467e-05 0.105531)
(-0.000116923 -6.97672e-05 0.105531)
(0.000175816 -0.000175882 0.104967)
(3.13897e-05 -3.14223e-05 0.105246)
(-7.06128e-05 -0.00011869 0.105277)
(6.97647e-05 -0.000116857 0.105531)
(-6.97223e-05 -0.000116836 0.105531)
(-3.13285e-05 -3.13659e-05 0.105246)
(0.0001756 0.000175485 0.105239)
(2.65094e-05 2.65201e-05 0.105511)
(6.95212e-05 0.000116326 0.105614)
(-6.95019e-05 0.000116337 0.105614)
(6.85879e-05 0.000114552 0.105859)
(-6.85989e-05 0.000114545 0.105859)
(-0.000175605 0.0001755 0.105239)
(-2.64796e-05 2.66371e-05 0.105511)
(0.000116263 6.94909e-05 0.105615)
(0.000116316 -6.94912e-05 0.105614)
(0.000114485 6.85602e-05 0.105859)
(0.000114553 -6.85959e-05 0.105858)
(-0.000116348 -6.94993e-05 0.105614)
(-0.000114477 6.85145e-05 0.105859)
(-0.000114566 -6.8574e-05 0.105858)
(0.000175529 -0.00017566 0.105239)
(2.64427e-05 -2.63198e-05 0.105511)
(-6.94559e-05 -0.000116256 0.105615)
(6.85255e-05 -0.000114467 0.105859)
(-6.85088e-05 -0.000114478 0.105859)
(-2.65704e-05 -2.64963e-05 0.105511)
(0.000175179 0.000175128 0.105491)
(2.12505e-05 2.1303e-05 0.105755)
(6.83471e-05 0.000113981 0.105938)
(-6.83419e-05 0.000113968 0.105938)
(6.7509e-05 0.000112214 0.106172)
(-6.75246e-05 0.000112226 0.106172)
(-0.0001752 0.000175209 0.105491)
(-2.11989e-05 2.13308e-05 0.105756)
(0.000113911 6.82732e-05 0.105938)
(0.000113962 -6.8336e-05 0.105938)
(0.000112138 6.74354e-05 0.106172)
(0.000112197 -6.75274e-05 0.106171)
(-0.000113963 -6.82949e-05 0.105938)
(-0.000112173 6.74275e-05 0.106172)
(-0.000112243 -6.7513e-05 0.106172)
(0.00017516 -0.000175197 0.105491)
(2.14786e-05 -2.13851e-05 0.105755)
(-6.82032e-05 -0.000113849 0.105938)
(6.7397e-05 -0.00011212 0.106172)
(-6.74205e-05 -0.000112157 0.106172)
(-2.13937e-05 -2.13096e-05 0.105755)
(0.000174377 0.000174345 0.10572)
(1.64409e-05 1.65031e-05 0.105977)
(6.72685e-05 0.00011166 0.106247)
(-6.72901e-05 0.000111675 0.106247)
(6.65253e-05 0.000110039 0.10647)
(-6.65758e-05 0.000110102 0.10647)
(-0.000174312 0.000174346 0.10572)
(-1.64477e-05 1.65737e-05 0.105977)
(0.000111593 6.72074e-05 0.106248)
(0.000111639 -6.72476e-05 0.106247)
(0.000110019 6.64471e-05 0.10647)
(0.000110089 -6.65232e-05 0.10647)
(-0.000111679 -6.7257e-05 0.106248)
(-0.000109975 6.64547e-05 0.10647)
(-0.000110017 -6.64866e-05 0.10647)
(0.000174346 -0.000174375 0.10572)
(1.65272e-05 -1.63771e-05 0.105977)
(-6.71619e-05 -0.000111597 0.106248)
(6.64251e-05 -0.00011 0.10647)
(-6.63951e-05 -0.000109915 0.10647)
(-1.64328e-05 -1.63869e-05 0.105977)
(0.000173453 0.000173436 0.105926)
(1.1732e-05 1.18038e-05 0.106176)
(6.62805e-05 0.000109536 0.106542)
(-6.6317e-05 0.000109593 0.106542)
(6.54271e-05 0.000108007 0.106753)
(-6.54332e-05 0.000108029 0.106753)
(-0.000173465 0.000173443 0.105926)
(-1.17017e-05 1.1766e-05 0.106176)
(0.000109505 6.62012e-05 0.106543)
(0.000109596 -6.62995e-05 0.106542)
(0.000107967 6.538e-05 0.106754)
(0.000108036 -6.54703e-05 0.106753)
(-0.00010953 -6.62512e-05 0.106542)
(-0.000107899 6.53375e-05 0.106754)
(-0.000107946 -6.53938e-05 0.106753)
(0.000173437 -0.000173421 0.105926)
(1.19206e-05 -1.18397e-05 0.106176)
(-6.61593e-05 -0.000109413 0.106543)
(6.53537e-05 -0.000107957 0.106754)
(-6.52937e-05 -0.000107865 0.106754)
(-1.17655e-05 -1.1724e-05 0.106176)
(0.00017204 0.00017203 0.106108)
(7.60515e-06 7.71286e-06 0.10635)
(6.514e-05 0.000107494 0.106822)
(-6.51978e-05 0.000107541 0.106822)
(6.44199e-05 0.000105978 0.107021)
(-6.43839e-05 0.000105976 0.107021)
(-0.000171999 0.000171984 0.106108)
(-7.5756e-06 7.66517e-06 0.10635)
(0.000107442 6.50919e-05 0.106822)
(0.000107507 -6.51563e-05 0.106822)
(0.000105956 6.43681e-05 0.107022)
(0.000106005 -6.43763e-05 0.107021)
(-0.000107472 -6.513e-05 0.106822)
(-0.000105842 6.42553e-05 0.107022)
(-0.000105994 -6.43893e-05 0.107021)
(0.000172061 -0.000172154 0.106108)
(7.54901e-06 -7.46155e-06 0.10635)
(-6.50308e-05 -0.00010738 0.106822)
(6.42433e-05 -0.000105925 0.107022)
(-6.4307e-05 -0.000105887 0.107022)
(-7.53633e-06 -7.47813e-06 0.10635)
(0.000170474 0.000170468 0.106264)
(3.59833e-06 3.65453e-06 0.106498)
(6.41015e-05 0.000105473 0.107086)
(-6.408e-05 0.000105481 0.107086)
(6.33144e-05 0.00010415 0.107273)
(-6.33764e-05 0.000104098 0.107273)
(-0.000170546 0.000170482 0.106264)
(-3.88116e-06 3.86722e-06 0.106498)
(0.000105417 6.40363e-05 0.107086)
(0.000105527 -6.41521e-05 0.107086)
(0.000104097 6.32635e-05 0.107274)
(0.000104111 -6.32968e-05 0.107273)
(-0.000105455 -6.40824e-05 0.107086)
(-0.000104031 6.32652e-05 0.107274)
(-0.000104156 -6.33156e-05 0.107273)
(0.000170327 -0.000170376 0.106264)
(3.72864e-06 -3.64327e-06 0.106498)
(-6.39731e-05 -0.000105371 0.107086)
(6.31368e-05 -0.000103971 0.107274)
(-6.32228e-05 -0.000104001 0.107273)
(-3.5861e-06 -3.49681e-06 0.106498)
(0.000168152 0.000168091 0.106394)
(1.49524e-08 5.32211e-08 0.106619)
(6.3066e-05 0.000103641 0.107334)
(-6.30226e-05 0.000103596 0.107334)
(6.21943e-05 0.000102131 0.107509)
(-6.22014e-05 0.00010213 0.107508)
(-0.000168439 0.000168353 0.106394)
(5.55328e-08 8.36367e-08 0.10662)
(0.000103611 6.304e-05 0.107334)
(0.000103626 -6.30226e-05 0.107334)
(0.000102091 6.21338e-05 0.107509)
(0.000102192 -6.22751e-05 0.107508)
(-0.00010364 -6.30883e-05 0.107334)
(-0.000102089 6.21444e-05 0.107509)
(-0.000102143 -6.22424e-05 0.107509)
(0.000168307 -0.000168402 0.106394)
(2.58844e-07 -2.45533e-07 0.106619)
(-6.30065e-05 -0.000103525 0.107334)
(6.21261e-05 -0.000102045 0.107509)
(-6.20989e-05 -0.000102045 0.107509)
(-8.38828e-08 -8.54139e-08 0.106619)
(0.000165398 0.000165375 0.106496)
(-3.00158e-06 -2.86938e-06 0.106713)
(6.19108e-05 0.000101544 0.107565)
(-6.19588e-05 0.000101619 0.107565)
(6.11194e-05 0.000100207 0.107727)
(-6.12156e-05 0.000100231 0.107726)
(-0.000165329 0.000165396 0.106497)
(3.23274e-06 -3.09952e-06 0.106713)
(0.000101606 6.18606e-05 0.107565)
(0.000101633 -6.19738e-05 0.107564)
(0.000100104 6.10956e-05 0.107727)
(0.000100249 -6.1135e-05 0.107726)
(-0.000101606 -6.18922e-05 0.107565)
(-0.000100069 6.11609e-05 0.107727)
(-0.000100169 -6.11651e-05 0.107727)
(0.000165628 -0.000165731 0.106497)
(-2.94924e-06 3.03047e-06 0.106713)
(-6.17788e-05 -0.00010153 0.107565)
(6.106e-05 -9.99829e-05 0.107727)
(-6.10914e-05 -0.000100078 0.107727)
(3.06413e-06 3.12458e-06 0.106713)
(0.000162386 0.000162421 0.106572)
(6.09614e-05 9.95844e-05 0.107778)
(-6.09873e-05 9.96282e-05 0.107778)
(-0.000162226 0.000162219 0.106572)
(9.96768e-05 6.09182e-05 0.107779)
(9.96746e-05 -6.08857e-05 0.107778)
(-9.96858e-05 -6.10242e-05 0.107778)
(0.000162369 -0.000162324 0.106572)
(-6.09144e-05 -9.9593e-05 0.107779)
(-3.34126e-07 -3.36783e-07 0.0999988)
(1.68283e-05 1.68229e-05 0.100003)
(-4.50612e-07 1.39328e-05 0.1)
(1.39404e-05 -4.53155e-07 0.1)
(-4.66042e-05 5.72851e-06 0.100009)
(-1.52709e-05 1.55874e-05 0.0999999)
(-0.000127914 6.04504e-05 0.100058)
(-1.31109e-05 -8.63775e-07 0.0999958)
(5.72252e-06 -4.65881e-05 0.100009)
(1.5591e-05 -1.52709e-05 0.0999999)
(-8.61897e-07 -1.31089e-05 0.0999958)
(6.04613e-05 -0.000127843 0.100058)
(-1.87246e-05 -1.87278e-05 0.100003)
(-0.000134955 -8.10572e-05 0.100055)
(-8.10648e-05 -0.000134935 0.100055)
(-3.47653e-05 0.000136051 0.100724)
(0.000177047 0.000388492 0.0994165)
(2.38455e-06 0.000305451 0.100516)
(-8.40121e-05 0.000243379 0.0991476)
(-0.000303486 0.000837903 0.0977722)
(-0.000129192 0.000304519 0.0957183)
(0.000135779 -3.49109e-05 0.100724)
(0.000389121 0.000176005 0.0994172)
(0.000306207 2.25017e-06 0.100517)
(0.000243506 -8.38983e-05 0.099148)
(-0.000107942 0.000107894 0.100299)
(0.000107929 -0.000107939 0.100299)
(-0.00010792 -0.000107948 0.100299)
(9.17525e-05 9.16835e-05 0.100739)
(-9.17084e-05 9.17009e-05 0.100739)
(9.17377e-05 -9.1751e-05 0.100739)
(-9.17168e-05 -9.17612e-05 0.100739)
(-0.000280711 6.40101e-06 0.100754)
(-0.000399062 0.000229231 0.100526)
(-0.000175287 3.73829e-05 0.100332)
(-0.000153241 9.45077e-05 0.100558)
(-0.000358991 1.56374e-05 0.100479)
(-0.000148849 0.000198772 0.100739)
(-0.000152721 3.32783e-05 0.100497)
(0.000836866 -0.000301611 0.0977703)
(0.000304526 -0.000128797 0.0957195)
(6.35067e-06 -0.000280625 0.100754)
(3.74179e-05 -0.000175261 0.100332)
(0.000229339 -0.000399035 0.100526)
(9.44672e-05 -0.00015323 0.100558)
(1.56332e-05 -0.000358868 0.100479)
(3.33271e-05 -0.000152706 0.100497)
(0.000198825 -0.000148832 0.100739)
(-0.000372642 -0.000141966 0.100361)
(-0.00014217 -0.000372889 0.100361)
(-0.000111978 -0.000112053 0.100655)
(1.10711e-05 -7.89043e-05 0.10059)
(-7.91591e-05 1.10898e-05 0.10059)
(-1.65358e-05 0.000198351 0.100868)
(-5.4912e-05 0.000288086 0.0983198)
(-2.02808e-05 0.00020874 0.100777)
(-4.4796e-05 0.000271106 0.0979454)
(-0.000150382 0.000313464 0.0926213)
(-0.000137207 0.000273096 0.0909996)
(0.000198272 -1.66911e-05 0.100867)
(0.00028836 -5.48052e-05 0.0983202)
(0.000208786 -2.042e-05 0.100778)
(0.000271254 -4.47327e-05 0.0979456)
(-9.42336e-05 9.42496e-05 0.10086)
(9.42899e-05 -9.42835e-05 0.10086)
(-9.42675e-05 -9.4282e-05 0.10086)
(9.61985e-05 9.61821e-05 0.101239)
(-9.61702e-05 9.61983e-05 0.101239)
(9.62121e-05 -9.62079e-05 0.101239)
(-9.62057e-05 -9.6202e-05 0.101239)
(-0.000263623 1.32833e-05 0.101153)
(-0.000219009 0.000214171 0.100818)
(-0.000164512 3.10416e-05 0.100897)
(-0.000160205 9.74314e-05 0.101064)
(-0.000297969 1.41199e-05 0.100977)
(-0.000183295 0.000197911 0.100945)
(-0.000168725 3.24796e-05 0.101019)
(0.000313439 -0.000150091 0.0926195)
(0.000273207 -0.000137051 0.0910012)
(1.33617e-05 -0.000263605 0.101153)
(3.11142e-05 -0.000164509 0.100897)
(0.00021423 -0.000219101 0.100819)
(9.74274e-05 -0.000160204 0.101064)
(1.42139e-05 -0.000297939 0.100977)
(3.25466e-05 -0.000168722 0.101019)
(0.000197845 -0.000183262 0.100945)
(-8.38743e-05 -9.71688e-05 0.100438)
(-9.72727e-05 -8.38957e-05 0.100438)
(-0.000112482 -0.000112481 0.101144)
(-8.6648e-05 -8.26191e-05 0.10043)
(-8.27507e-05 -8.67004e-05 0.10043)
(-9.35919e-06 0.000210798 0.100957)
(-2.19359e-05 0.000281549 0.0971362)
(-1.1605e-05 0.000230431 0.100902)
(-1.22609e-05 0.000257014 0.0967129)
(-0.000117403 0.000225933 0.0883852)
(-9.69188e-05 0.000187287 0.0870652)
(0.000210729 -9.48063e-06 0.100956)
(0.000281683 -2.18725e-05 0.0971363)
(0.000230484 -1.17222e-05 0.100903)
(0.000257127 -1.21908e-05 0.0967131)
(-9.53968e-05 9.54286e-05 0.10137)
(9.54379e-05 -9.54339e-05 0.10137)
(-9.54302e-05 -9.54289e-05 0.10137)
(9.43487e-05 9.43387e-05 0.101763)
(-9.43275e-05 9.43619e-05 0.101763)
(9.43738e-05 -9.43537e-05 0.101763)
(-9.43563e-05 -9.43567e-05 0.101763)
(-0.000251012 1.22091e-05 0.10158)
(-0.000222545 0.000190493 0.101028)
(-0.000167313 3.27721e-05 0.101407)
(-0.000155159 9.28657e-05 0.101577)
(-0.00029018 1.20952e-05 0.101414)
(-0.000182309 0.000169363 0.101124)
(-0.000167151 3.27083e-05 0.101537)
(0.000225772 -0.000117152 0.0883823)
(0.000187348 -9.685e-05 0.0870667)
(1.22546e-05 -0.000250993 0.10158)
(3.28135e-05 -0.000167324 0.101407)
(0.000190544 -0.000222572 0.101028)
(9.28615e-05 -0.000155165 0.101577)
(1.21464e-05 -0.000290184 0.101414)
(3.2744e-05 -0.000167149 0.101537)
(0.000169331 -0.00018222 0.101123)
(-0.000116096 -9.151e-05 0.100182)
(-9.16079e-05 -0.000116169 0.100182)
(-0.00010149 -0.000101495 0.101646)
(-0.000111962 -7.23221e-05 0.100086)
(-7.23977e-05 -0.000112041 0.100086)
(-6.98324e-06 0.000210206 0.100953)
(5.5047e-06 0.000258109 0.0958569)
(-7.89394e-06 0.000236268 0.100926)
(1.02305e-05 0.000229518 0.0954234)
(-7.73534e-05 0.000150041 0.084977)
(-5.91774e-05 0.000118915 0.083966)
(0.000210125 -7.03185e-06 0.100952)
(0.000258145 5.57569e-06 0.0958567)
(0.000236346 -7.96315e-06 0.100928)
(0.000229608 1.03217e-05 0.0954236)
(-9.38638e-05 9.38986e-05 0.101892)
(9.39128e-05 -9.38876e-05 0.101892)
(-9.38917e-05 -9.38922e-05 0.101892)
(9.18694e-05 9.18658e-05 0.102273)
(-9.18557e-05 9.18948e-05 0.102273)
(9.19058e-05 -9.18711e-05 0.102273)
(-9.18839e-05 -9.18823e-05 0.102273)
(-0.000238548 1.11578e-05 0.101978)
(-0.000219825 0.000162778 0.101141)
(-0.000165097 3.20931e-05 0.101923)
(-0.000150695 8.89751e-05 0.102081)
(-0.000282652 1.10122e-05 0.101822)
(-0.000175014 0.000141206 0.101214)
(-0.000163802 3.17585e-05 0.10205)
(0.000149903 -7.71405e-05 0.0849738)
(0.000119043 -5.9113e-05 0.0839675)
(1.11933e-05 -0.000238537 0.101978)
(3.21134e-05 -0.000165095 0.101923)
(0.00016283 -0.000219913 0.101142)
(8.89878e-05 -0.000150699 0.102081)
(1.10524e-05 -0.000282665 0.101822)
(3.17739e-05 -0.000163787 0.10205)
(0.000141209 -0.000174938 0.101213)
(-0.000133125 -7.94326e-05 0.0997189)
(-7.94989e-05 -0.000133186 0.0997187)
(-9.13911e-05 -9.13942e-05 0.102133)
(-0.000123823 -6.02169e-05 0.0995708)
(-6.02674e-05 -0.000123889 0.09957)
(-6.45961e-06 0.000202311 0.100852)
(1.90318e-05 0.000226932 0.0945602)
(-6.83241e-06 0.00023123 0.100852)
(1.8722e-05 0.000197416 0.0941435)
(-4.54458e-05 9.53778e-05 0.0823424)
(-3.13642e-05 7.20864e-05 0.0815916)
(0.000202224 -6.4769e-06 0.100851)
(0.000226883 1.90905e-05 0.0945595)
(0.00023133 -6.93309e-06 0.100853)
(0.0001974 1.88193e-05 0.0941441)
(-9.11168e-05 9.11572e-05 0.102398)
(9.11691e-05 -9.11294e-05 0.102398)
(-9.11409e-05 -9.11377e-05 0.102398)
(8.88922e-05 8.88967e-05 0.102765)
(-8.88846e-05 8.89307e-05 0.102765)
(8.89369e-05 -8.8889e-05 0.102765)
(-8.89121e-05 -8.89061e-05 0.102765)
(-0.00022356 1.02622e-05 0.102335)
(-0.000210879 0.000137544 0.101161)
(-0.000159035 3.06791e-05 0.102424)
(-0.000144832 8.4507e-05 0.102565)
(-0.000271027 9.90716e-06 0.102189)
(-0.000164157 0.000116955 0.101214)
(-0.00015734 3.03232e-05 0.102546)
(9.51652e-05 -4.53065e-05 0.0823391)
(7.20851e-05 -3.12221e-05 0.0815934)
(1.02748e-05 -0.000223538 0.102335)
(3.06844e-05 -0.000159026 0.102424)
(0.000137547 -0.000210996 0.101162)
(8.45165e-05 -0.000144835 0.102565)
(9.93388e-06 -0.000271045 0.102189)
(3.03243e-05 -0.00015732 0.102546)
(0.000117128 -0.000164144 0.101212)
(-0.000137821 -6.86556e-05 0.0991146)
(-6.87181e-05 -0.00013789 0.0991142)
(-8.09554e-05 -8.09566e-05 0.102593)
(-0.000125845 -5.09066e-05 0.0989319)
(-5.0943e-05 -0.000125885 0.0989308)
(-6.13598e-06 0.000190629 0.100665)
(2.06328e-05 0.000194516 0.0933111)
(-6.60751e-06 0.000220967 0.100688)
(1.72413e-05 0.000165645 0.0929273)
(-2.42298e-05 6.0091e-05 0.0803358)
(-1.3568e-05 4.24334e-05 0.0797849)
(0.00019055 -6.19522e-06 0.100664)
(0.000194537 2.06904e-05 0.09331)
(0.000221077 -6.72657e-06 0.100689)
(0.000165632 1.73572e-05 0.0929281)
(-8.81444e-05 8.81902e-05 0.102885)
(8.82013e-05 -8.81473e-05 0.102885)
(-8.81677e-05 -8.81595e-05 0.102885)
(8.59936e-05 8.60049e-05 0.103238)
(-8.5985e-05 8.60357e-05 0.103238)
(8.6051e-05 -8.5985e-05 0.103238)
(-8.6017e-05 -8.60077e-05 0.103238)
(-0.000207831 9.70491e-06 0.10265)
(-0.000199393 0.000116975 0.101096)
(-0.000152216 2.93396e-05 0.102904)
(-0.000139282 8.07296e-05 0.103024)
(-0.000257471 9.16468e-06 0.102513)
(-0.000152012 9.75042e-05 0.101132)
(-0.000150517 2.90327e-05 0.10302)
(5.97173e-05 -2.40766e-05 0.0803326)
(4.23325e-05 -1.34419e-05 0.0797871)
(9.71138e-06 -0.000207812 0.10265)
(2.93352e-05 -0.000152204 0.102904)
(0.00011669 -0.00019951 0.101097)
(8.07409e-05 -0.000139286 0.103024)
(9.19849e-06 -0.000257499 0.102513)
(2.90271e-05 -0.000150495 0.103021)
(9.75705e-05 -0.0001521 0.101131)
(-0.00013502 -6.07696e-05 0.0984177)
(-6.08203e-05 -0.000135037 0.0984171)
(-7.14443e-05 -7.14521e-05 0.103024)
(-0.000121535 -4.44221e-05 0.0982135)
(-4.44691e-05 -0.000121584 0.098212)
(-4.97615e-06 0.000176949 0.100405)
(1.56375e-05 0.000164629 0.0921466)
(-5.77981e-06 0.000207964 0.100447)
(1.09221e-05 0.00013707 0.0918034)
(-1.14097e-05 3.85444e-05 0.0788054)
(-2.9813e-06 2.4562e-05 0.078401)
(0.000176868 -5.07731e-06 0.100404)
(0.000164695 1.56548e-05 0.0921453)
(0.000208093 -5.91841e-06 0.100449)
(0.000137044 1.09861e-05 0.0918044)
(-8.53088e-05 8.53597e-05 0.103353)
(8.53803e-05 -8.5308e-05 0.103353)
(-8.53386e-05 -8.53265e-05 0.103353)
(8.34216e-05 8.34499e-05 0.103692)
(-8.34138e-05 8.34687e-05 0.103692)
(8.3489e-05 -8.34091e-05 0.103692)
(-8.34516e-05 -8.34364e-05 0.103692)
(-0.000192488 9.52942e-06 0.102924)
(-0.000187179 0.000100282 0.100958)
(-0.000145577 2.82416e-05 0.103363)
(-0.000134317 7.77189e-05 0.103461)
(-0.000243625 8.7719e-06 0.102795)
(-0.000139975 8.19803e-05 0.100981)
(-0.00014401 2.80107e-05 0.103474)
(3.82589e-05 -1.13602e-05 0.0788018)
(2.4589e-05 -3.03331e-06 0.0784036)
(9.55212e-06 -0.000192473 0.102923)
(2.82364e-05 -0.000145565 0.103363)
(0.000100021 -0.000187281 0.100959)
(7.77481e-05 -0.000134326 0.103461)
(8.8445e-06 -0.000243666 0.102795)
(2.80044e-05 -0.00014399 0.103474)
(8.20001e-05 -0.000139999 0.100979)
(-0.000128353 -5.51494e-05 0.0976632)
(-5.51867e-05 -0.000128364 0.0976624)
(-6.30016e-05 -6.30112e-05 0.103428)
(-0.000114166 -3.96424e-05 0.0974485)
(-3.96788e-05 -0.000114217 0.0974467)
(-3.31282e-06 0.000162589 0.100087)
(8.0267e-06 0.00013891 0.0910832)
(-4.1949e-06 0.000193591 0.100145)
(3.03747e-06 0.000112961 0.0907812)