/*--------------------------------*- C++ -*----------------------------------*\
| =========                 |                                                 |
| \\      /  F ield         | OpenFOAM: The Open Source CFD Toolbox           |
|  \\    /   O peration     | Version:  v1906                                 |
|   \\  /    A nd           | Web:      www.OpenFOAM.com                      |
|    \\/     M anipulation  |                                                 |
\*---------------------------------------------------------------------------*/
FoamFile
{
    version     2.0;
    format      ascii;
    class       volScalarField;
    location    "0.06";
    object      p;
}
// * * * * * * * * * * * * * * * * * * * * * * * * * * * * * * * * * * * * * //

dimensions      [0 2 -2 0 0 0 0];


internalField   nonuniform List<scalar> 
247104
(
-8.17321e-14
1.33541e-09
1.04423e-09
7.89317e-10
4.21049e-10
8.43438e-10
1.08421e-09
1.23128e-09
1.3051e-09
1.43448e-09
1.47286e-09
1.20324e-09
9.97617e-10
1.24682e-09
1.49254e-09
1.40626e-09
1.03422e-09
1.46934e-09
1.23427e-09
8.16614e-10
6.35376e-10
8.63987e-10
1.28642e-09
1.46609e-09
9.55078e-10
7.79909e-10
1.19866e-09
8.15168e-10
3.33898e-10
1.50153e-10
3.83467e-10
8.80652e-10
1.20946e-09
6.39142e-10
-2.32123e-11
4.13793e-10
9.94266e-10
6.3417e-10
1.49886e-10
-3.32089e-11
1.98765e-10
6.97923e-10
9.89799e-10
2.52565e-10
8.42757e-10
1.24721e-09
8.64267e-10
3.83603e-10
1.98788e-10
4.32011e-10
9.2651e-10
1.25317e-09
6.98003e-10
1.09376e-09
1.4969e-09
1.2882e-09
8.81262e-10
6.97857e-10
9.2622e-10
1.33256e-09
1.48104e-09
1.00544e-09
1.23929e-09
1.41076e-09
1.46846e-09
1.21037e-09
9.89329e-10
1.25208e-09
1.48044e-09
1.37173e-09
9.57604e-10
6.41362e-10
2.51717e-10
6.94464e-10
1.00593e-09
-3.3015e-08
-3.55184e-08
-3.34241e-08
-3.5135e-08
-3.6377e-08
-3.62159e-08
-3.63432e-08
-3.24016e-08
-3.28552e-08
-3.34483e-08
-3.64006e-08
-4.07928e-08
-4.11844e-08
-4.11857e-08
-4.07958e-08
-3.617e-08
-3.5594e-08
-3.51746e-08
-4.08017e-08
-4.09533e-08
-4.10084e-08
-4.10073e-08
-4.09492e-08
-4.07875e-08
-3.54117e-08
-3.21502e-08
-3.29874e-08
-3.63985e-08
-4.1188e-08
-4.10091e-08
-4.08614e-08
-4.08599e-08
-4.1004e-08
-4.11765e-08
-3.63181e-08
-3.26876e-08
-3.54667e-08
-3.6221e-08
-4.1187e-08
-4.10082e-08
-4.08605e-08
-4.08592e-08
-4.10033e-08
-4.11758e-08
-3.61554e-08
-3.65685e-08
-3.63245e-08
-4.07977e-08
-4.09509e-08
-4.10055e-08
-4.10049e-08
-4.09475e-08
-4.07854e-08
-3.61162e-08
-3.4261e-08
-3.24008e-08
-3.61798e-08
-4.07916e-08
-4.11801e-08
-4.11827e-08
-4.07967e-08
-3.64609e-08
-3.53245e-08
-3.18629e-08
-3.28184e-08
-3.5594e-08
-3.5418e-08
-3.63164e-08
-3.61637e-08
-3.61377e-08
-3.53268e-08
-3.04648e-08
-3.21886e-08
-3.27189e-08
-3.65801e-08
-3.42592e-08
-3.18808e-08
-5.33694e-08
-5.34426e-08
-5.39002e-08
-5.61367e-08
-5.61806e-08
-5.62233e-08
-5.61354e-08
-5.32515e-08
-5.33607e-08
-5.38999e-08
-5.64552e-08
-5.96771e-08
-5.99065e-08
-5.99109e-08
-5.96847e-08
-5.49151e-08
-5.5574e-08
-5.61418e-08
-5.96945e-08
-6.02441e-08
-6.0296e-08
-6.02955e-08
-6.02382e-08
-5.96674e-08
-5.43182e-08
-5.25889e-08
-5.33459e-08
-5.61768e-08
-5.99134e-08
-6.03005e-08
-6.03574e-08
-6.03549e-08
-6.0291e-08
-5.98946e-08
-5.47271e-08
-5.34929e-08
-5.34377e-08
-5.62176e-08
-5.99144e-08
-6.03017e-08
-6.03581e-08
-6.03552e-08
-6.02911e-08
-5.98973e-08
-5.50075e-08
-5.60039e-08
-5.61349e-08
-5.9695e-08
-6.02474e-08
-6.02979e-08
-6.02964e-08
-6.02382e-08
-5.9677e-08
-5.44515e-08
-5.29614e-08
-5.32594e-08
-5.4925e-08
-5.96861e-08
-5.99063e-08
-5.99115e-08
-5.96807e-08
-5.43975e-08
-5.48588e-08
-5.28953e-08
-5.33663e-08
-5.55869e-08
-5.43311e-08
-5.47375e-08
-5.50177e-08
-5.44598e-08
-5.4858e-08
-5.26547e-08
-5.25828e-08
-5.34954e-08
-5.6012e-08
-5.29653e-08
-5.29058e-08
-7.54415e-08
-7.55082e-08
-7.55107e-08
-7.78775e-08
-7.7928e-08
-7.80756e-08
-7.77867e-08
-7.47872e-08
-7.4926e-08
-7.54982e-08
-7.84964e-08
-8.17312e-08
-8.18174e-08
-8.18208e-08
-8.17308e-08
-7.63636e-08
-7.69966e-08
-7.78774e-08
-8.17263e-08
-8.18821e-08
-8.18984e-08
-8.18994e-08
-8.1883e-08
-8.17335e-08
-7.55296e-08
-7.43126e-08
-7.54243e-08
-7.79162e-08
-8.1816e-08
-8.18985e-08
-8.1909e-08
-8.19089e-08
-8.18973e-08
-8.18137e-08
-7.56957e-08
-7.54422e-08
-7.54945e-08
-7.80616e-08
-8.18161e-08
-8.18979e-08
-8.19083e-08
-8.19082e-08
-8.18969e-08
-8.18171e-08
-7.595e-08
-7.77984e-08
-7.77808e-08
-8.17269e-08
-8.18804e-08
-8.18962e-08
-8.18969e-08
-8.18796e-08
-8.17277e-08
-7.54994e-08
-7.48902e-08
-7.4765e-08
-7.63702e-08
-8.17307e-08
-8.18119e-08
-8.1815e-08
-8.17222e-08
-7.51486e-08
-7.61487e-08
-7.44771e-08
-7.494e-08
-7.69848e-08
-7.55243e-08
-7.5692e-08
-7.59481e-08
-7.55097e-08
-7.61661e-08
-7.44557e-08
-7.43099e-08
-7.54447e-08
-7.78034e-08
-7.48922e-08
-7.44832e-08
-9.67808e-08
-9.68253e-08
-9.69756e-08
-9.94638e-08
-9.94875e-08
-9.96983e-08
-9.93261e-08
-9.62302e-08
-9.64341e-08
-9.69794e-08
-1.00693e-07
-1.03794e-07
-1.03807e-07
-1.03808e-07
-1.03797e-07
-9.82279e-08
-9.84465e-08
-9.94669e-08
-1.038e-07
-1.03824e-07
-1.03822e-07
-1.03822e-07
-1.03825e-07
-1.03797e-07
-9.68885e-08
-9.56845e-08
-9.67488e-08
-9.9489e-08
-1.03808e-07
-1.03822e-07
-1.0382e-07
-1.0382e-07
-1.03823e-07
-1.03811e-07
-9.67497e-08
-9.67723e-08
-9.68351e-08
-9.97e-08
-1.03806e-07
-1.03821e-07
-1.03819e-07
-1.0382e-07
-1.03822e-07
-1.03808e-07
-9.69784e-08
-9.9092e-08
-9.93197e-08
-1.03794e-07
-1.03822e-07
-1.03821e-07
-1.03822e-07
-1.03824e-07
-1.03796e-07
-9.67014e-08
-9.62138e-08
-9.62342e-08
-9.82247e-08
-1.03792e-07
-1.03807e-07
-1.03809e-07
-1.03796e-07
-9.64972e-08
-9.7598e-08
-9.58861e-08
-9.64341e-08
-9.84393e-08
-9.68856e-08
-9.67497e-08
-9.69738e-08
-9.6699e-08
-9.76049e-08
-9.59225e-08
-9.56789e-08
-9.67704e-08
-9.9085e-08
-9.62091e-08
-9.58849e-08
-1.18354e-07
-1.18381e-07
-1.18626e-07
-1.21145e-07
-1.21172e-07
-1.21419e-07
-1.20994e-07
-1.17865e-07
-1.18065e-07
-1.18616e-07
-1.22596e-07
-1.25668e-07
-1.2567e-07
-1.2567e-07
-1.25669e-07
-1.20049e-07
-1.20074e-07
-1.21153e-07
-1.25662e-07
-1.25672e-07
-1.2567e-07
-1.25671e-07
-1.25672e-07
-1.25665e-07
-1.18514e-07
-1.17277e-07
-1.18315e-07
-1.21169e-07
-1.2567e-07
-1.2567e-07
-1.25669e-07
-1.25669e-07
-1.2567e-07
-1.25669e-07
-1.18271e-07
-1.18339e-07
-1.18374e-07
-1.21422e-07
-1.25669e-07
-1.2567e-07
-1.25669e-07
-1.25669e-07
-1.2567e-07
-1.25668e-07
-1.18505e-07
-1.20624e-07
-1.20985e-07
-1.25664e-07
-1.25671e-07
-1.2567e-07
-1.25671e-07
-1.25673e-07
-1.25668e-07
-1.18262e-07
-1.17783e-07
-1.1786e-07
-1.20052e-07
-1.25664e-07
-1.25669e-07
-1.25669e-07
-1.25667e-07
-1.18116e-07
-1.19225e-07
-1.17492e-07
-1.18061e-07
-1.20062e-07
-1.18504e-07
-1.18256e-07
-1.18494e-07
-1.18259e-07
-1.19234e-07
-1.1755e-07
-1.17271e-07
-1.18329e-07
-1.20611e-07
-1.17778e-07
-1.175e-07
-1.40067e-07
-1.40084e-07
-1.40369e-07
-1.42897e-07
-1.42916e-07
-1.43189e-07
-1.42738e-07
-1.39598e-07
-1.39804e-07
-1.40355e-07
-1.44396e-07
-1.47473e-07
-1.47472e-07
-1.47473e-07
-1.47474e-07
-1.41841e-07
-1.41803e-07
-1.42907e-07
-1.47473e-07
-1.47473e-07
-1.47473e-07
-1.47473e-07
-1.47473e-07
-1.47471e-07
-1.40245e-07
-1.39e-07
-1.40034e-07
-1.42919e-07
-1.47471e-07
-1.47472e-07
-1.47472e-07
-1.47472e-07
-1.47473e-07
-1.47473e-07
-1.39955e-07
-1.40051e-07
-1.40087e-07
-1.43188e-07
-1.47471e-07
-1.47473e-07
-1.47472e-07
-1.47473e-07
-1.47474e-07
-1.47474e-07
-1.40198e-07
-1.42324e-07
-1.42737e-07
-1.47475e-07
-1.47474e-07
-1.47473e-07
-1.47474e-07
-1.47474e-07
-1.47471e-07
-1.3999e-07
-1.39504e-07
-1.39597e-07
-1.4185e-07
-1.47473e-07
-1.47473e-07
-1.47474e-07
-1.47475e-07
-1.39851e-07
-1.40963e-07
-1.3923e-07
-1.39798e-07
-1.41808e-07
-1.4024e-07
-1.39965e-07
-1.40207e-07
-1.39981e-07
-1.4097e-07
-1.39291e-07
-1.39005e-07
-1.40049e-07
-1.42324e-07
-1.39505e-07
-1.39231e-07
-1.61828e-07
-1.61846e-07
-1.62138e-07
-1.64669e-07
-1.64688e-07
-1.64963e-07
-1.64514e-07
-1.61365e-07
-1.61571e-07
-1.62119e-07
-1.66193e-07
-1.69258e-07
-1.69261e-07
-1.69261e-07
-1.69261e-07
-1.63632e-07
-1.6357e-07
-1.64677e-07
-1.69261e-07
-1.69262e-07
-1.69261e-07
-1.69262e-07
-1.69263e-07
-1.69264e-07
-1.62019e-07
-1.60765e-07
-1.61795e-07
-1.64688e-07
-1.69263e-07
-1.69262e-07
-1.69262e-07
-1.69262e-07
-1.69262e-07
-1.69263e-07
-1.61718e-07
-1.61819e-07
-1.61849e-07
-1.64957e-07
-1.69263e-07
-1.69262e-07
-1.69262e-07
-1.69262e-07
-1.69263e-07
-1.69264e-07
-1.61962e-07
-1.64086e-07
-1.6451e-07
-1.6926e-07
-1.69262e-07
-1.69263e-07
-1.69263e-07
-1.69263e-07
-1.69264e-07
-1.61756e-07
-1.61269e-07
-1.61359e-07
-1.63625e-07
-1.6926e-07
-1.69265e-07
-1.69263e-07
-1.69262e-07
-1.61609e-07
-1.62739e-07
-1.60996e-07
-1.61586e-07
-1.63574e-07
-1.62014e-07
-1.61711e-07
-1.61956e-07
-1.61741e-07
-1.62736e-07
-1.61058e-07
-1.60766e-07
-1.61811e-07
-1.64082e-07
-1.61266e-07
-1.60992e-07
-1.83602e-07
-1.83619e-07
-1.83918e-07
-1.86451e-07
-1.86465e-07
-1.86741e-07
-1.86289e-07
-1.83143e-07
-1.8335e-07
-1.83896e-07
-1.87982e-07
-1.91046e-07
-1.91047e-07
-1.91047e-07
-1.91046e-07
-1.85415e-07
-1.85348e-07
-1.86457e-07
-1.91045e-07
-1.91046e-07
-1.91046e-07
-1.91047e-07
-1.91046e-07
-1.91046e-07
-1.83795e-07
-1.82546e-07
-1.83571e-07
-1.8646e-07
-1.91045e-07
-1.91046e-07
-1.91046e-07
-1.91046e-07
-1.91047e-07
-1.91048e-07
-1.83496e-07
-1.83597e-07
-1.83625e-07
-1.86736e-07
-1.91046e-07
-1.91046e-07
-1.91046e-07
-1.91046e-07
-1.91047e-07
-1.91048e-07
-1.83733e-07
-1.85867e-07
-1.86284e-07
-1.91046e-07
-1.91046e-07
-1.91046e-07
-1.91046e-07
-1.91047e-07
-1.91048e-07
-1.8353e-07
-1.83046e-07
-1.83137e-07
-1.85421e-07
-1.91046e-07
-1.91044e-07
-1.91044e-07
-1.91046e-07
-1.83384e-07
-1.84507e-07
-1.82772e-07
-1.83361e-07
-1.85356e-07
-1.83794e-07
-1.83491e-07
-1.83735e-07
-1.83518e-07
-1.84515e-07
-1.82832e-07
-1.82548e-07
-1.83591e-07
-1.85859e-07
-1.83042e-07
-1.82769e-07
-2.05385e-07
-2.05402e-07
-2.05717e-07
-2.08231e-07
-2.0825e-07
-2.08523e-07
-2.08071e-07
-2.04922e-07
-2.05131e-07
-2.05678e-07
-2.09756e-07
-2.12828e-07
-2.12829e-07
-2.12828e-07
-2.12829e-07
-2.07196e-07
-2.07127e-07
-2.08239e-07
-2.12828e-07
-2.12829e-07
-2.12829e-07
-2.12829e-07
-2.1283e-07
-2.1283e-07
-2.05574e-07
-2.04326e-07
-2.05351e-07
-2.08243e-07
-2.12828e-07
-2.1283e-07
-2.12829e-07
-2.1283e-07
-2.1283e-07
-2.1283e-07
-2.05274e-07
-2.05376e-07
-2.05404e-07
-2.08522e-07
-2.12828e-07
-2.1283e-07
-2.12829e-07
-2.1283e-07
-2.1283e-07
-2.1283e-07
-2.05514e-07
-2.07649e-07
-2.08067e-07
-2.12829e-07
-2.1283e-07
-2.1283e-07
-2.1283e-07
-2.1283e-07
-2.1283e-07
-2.05314e-07
-2.04827e-07
-2.0492e-07
-2.07201e-07
-2.12828e-07
-2.12829e-07
-2.12829e-07
-2.1283e-07
-2.05163e-07
-2.06289e-07
-2.04553e-07
-2.05144e-07
-2.07138e-07
-2.05572e-07
-2.05266e-07
-2.05506e-07
-2.05295e-07
-2.06296e-07
-2.04613e-07
-2.04327e-07
-2.05369e-07
-2.07631e-07
-2.04821e-07
-2.04549e-07
-2.2717e-07
-2.27185e-07
-2.275e-07
-2.30022e-07
-2.30034e-07
-2.30308e-07
-2.29855e-07
-2.26708e-07
-2.2691e-07
-2.27465e-07
-2.31549e-07
-2.34616e-07
-2.34611e-07
-2.34612e-07
-2.34614e-07
-2.28977e-07
-2.28911e-07
-2.30021e-07
-2.34613e-07
-2.34614e-07
-2.34614e-07
-2.34614e-07
-2.34613e-07
-2.34613e-07
-2.27357e-07
-2.26108e-07
-2.27133e-07
-2.30025e-07
-2.34613e-07
-2.34613e-07
-2.34613e-07
-2.34613e-07
-2.34614e-07
-2.34613e-07
-2.27057e-07
-2.27158e-07
-2.27185e-07
-2.30306e-07
-2.34613e-07
-2.34614e-07
-2.34613e-07
-2.34613e-07
-2.34613e-07
-2.34613e-07
-2.27297e-07
-2.29431e-07
-2.2985e-07
-2.34613e-07
-2.34614e-07
-2.34613e-07
-2.34613e-07
-2.34613e-07
-2.34613e-07
-2.27097e-07
-2.26609e-07
-2.26702e-07
-2.28985e-07
-2.34614e-07
-2.34613e-07
-2.34613e-07
-2.34613e-07
-2.26946e-07
-2.28072e-07
-2.26336e-07
-2.26927e-07
-2.28921e-07
-2.27354e-07
-2.27046e-07
-2.2729e-07
-2.27081e-07
-2.28079e-07
-2.26396e-07
-2.2611e-07
-2.27151e-07
-2.29414e-07
-2.26604e-07
-2.26332e-07
-2.48952e-07
-2.48968e-07
-2.49263e-07
-2.518e-07
-2.51815e-07
-2.5209e-07
-2.51639e-07
-2.48493e-07
-2.48694e-07
-2.49246e-07
-2.53334e-07
-2.56398e-07
-2.56398e-07
-2.56396e-07
-2.56398e-07
-2.50762e-07
-2.50696e-07
-2.51807e-07
-2.56398e-07
-2.56398e-07
-2.56398e-07
-2.56398e-07
-2.56398e-07
-2.56397e-07
-2.49142e-07
-2.47892e-07
-2.48917e-07
-2.51811e-07
-2.56398e-07
-2.56398e-07
-2.56398e-07
-2.56397e-07
-2.56398e-07
-2.56397e-07
-2.48841e-07
-2.48942e-07
-2.48969e-07
-2.5209e-07
-2.56398e-07
-2.56398e-07
-2.56397e-07
-2.56397e-07
-2.56397e-07
-2.56397e-07
-2.49081e-07
-2.51215e-07
-2.51635e-07
-2.56398e-07
-2.56398e-07
-2.56398e-07
-2.56398e-07
-2.56398e-07
-2.56397e-07
-2.48881e-07
-2.48394e-07
-2.48487e-07
-2.5077e-07
-2.56397e-07
-2.56396e-07
-2.56396e-07
-2.56397e-07
-2.48731e-07
-2.49856e-07
-2.4812e-07
-2.48712e-07
-2.50705e-07
-2.49139e-07
-2.4883e-07
-2.49074e-07
-2.48865e-07
-2.49863e-07
-2.4818e-07
-2.47894e-07
-2.48936e-07
-2.51199e-07
-2.48388e-07
-2.48116e-07
-2.70737e-07
-2.70753e-07
-2.71053e-07
-2.73585e-07
-2.73601e-07
-2.73876e-07
-2.73423e-07
-2.70274e-07
-2.70488e-07
-2.71035e-07
-2.7512e-07
-2.78182e-07
-2.78183e-07
-2.78184e-07
-2.78183e-07
-2.72546e-07
-2.72485e-07
-2.73591e-07
-2.78182e-07
-2.78182e-07
-2.78182e-07
-2.78181e-07
-2.78181e-07
-2.78182e-07
-2.70927e-07
-2.69677e-07
-2.70702e-07
-2.73595e-07
-2.78182e-07
-2.78182e-07
-2.78182e-07
-2.78182e-07
-2.78182e-07
-2.78182e-07
-2.70626e-07
-2.70727e-07
-2.70754e-07
-2.73875e-07
-2.78182e-07
-2.78182e-07
-2.78181e-07
-2.78181e-07
-2.78181e-07
-2.78182e-07
-2.70866e-07
-2.73e-07
-2.73419e-07
-2.78182e-07
-2.78181e-07
-2.78181e-07
-2.78181e-07
-2.78181e-07
-2.78181e-07
-2.70666e-07
-2.70178e-07
-2.70272e-07
-2.72554e-07
-2.78181e-07
-2.78181e-07
-2.78181e-07
-2.78181e-07
-2.70515e-07
-2.7164e-07
-2.69905e-07
-2.70496e-07
-2.72489e-07
-2.70923e-07
-2.70614e-07
-2.70855e-07
-2.70649e-07
-2.71648e-07
-2.69965e-07
-2.69679e-07
-2.7072e-07
-2.72983e-07
-2.70172e-07
-2.69901e-07
-2.9252e-07
-2.92536e-07
-2.92836e-07
-2.95367e-07
-2.95384e-07
-2.95659e-07
-2.95209e-07
-2.92058e-07
-2.92272e-07
-2.92817e-07
-2.96902e-07
-2.99964e-07
-2.99964e-07
-2.99964e-07
-2.99964e-07
-2.94327e-07
-2.94268e-07
-2.95373e-07
-2.99964e-07
-2.99964e-07
-2.99964e-07
-2.99964e-07
-2.99964e-07
-2.99964e-07
-2.9271e-07
-2.9146e-07
-2.92485e-07
-2.95378e-07
-2.99964e-07
-2.99964e-07
-2.99964e-07
-2.99964e-07
-2.99964e-07
-2.99964e-07
-2.92408e-07
-2.9251e-07
-2.92536e-07
-2.95658e-07
-2.99964e-07
-2.99964e-07
-2.99964e-07
-2.99964e-07
-2.99964e-07
-2.99964e-07
-2.92648e-07
-2.94783e-07
-2.95202e-07
-2.99964e-07
-2.99964e-07
-2.99964e-07
-2.99964e-07
-2.99964e-07
-2.99964e-07
-2.92448e-07
-2.91961e-07
-2.92054e-07
-2.94337e-07
-2.99964e-07
-2.99964e-07
-2.99964e-07
-2.99964e-07
-2.92298e-07
-2.93423e-07
-2.91687e-07
-2.92279e-07
-2.94272e-07
-2.92705e-07
-2.92397e-07
-2.92638e-07
-2.92431e-07
-2.9343e-07
-2.91747e-07
-2.91462e-07
-2.92503e-07
-2.94765e-07
-2.91955e-07
-2.91683e-07
-3.14302e-07
-3.14318e-07
-3.14617e-07
-3.1715e-07
-3.17166e-07
-3.17441e-07
-3.16986e-07
-3.13844e-07
-3.14056e-07
-3.14597e-07
-3.18684e-07
-3.21747e-07
-3.21747e-07
-3.21747e-07
-3.21747e-07
-3.1611e-07
-3.16051e-07
-3.17156e-07
-3.21747e-07
-3.21747e-07
-3.21747e-07
-3.21747e-07
-3.21747e-07
-3.21747e-07
-3.14493e-07
-3.13244e-07
-3.14267e-07
-3.1716e-07
-3.21747e-07
-3.21747e-07
-3.21747e-07
-3.21747e-07
-3.21747e-07
-3.21747e-07
-3.14191e-07
-3.14293e-07
-3.14319e-07
-3.1744e-07
-3.21747e-07
-3.21747e-07
-3.21747e-07
-3.21747e-07
-3.21747e-07
-3.21747e-07
-3.14431e-07
-3.16566e-07
-3.16984e-07
-3.21747e-07
-3.21747e-07
-3.21747e-07
-3.21747e-07
-3.21747e-07
-3.21747e-07
-3.14231e-07
-3.13743e-07
-3.13837e-07
-3.16119e-07
-3.21747e-07
-3.21747e-07
-3.21747e-07
-3.21747e-07
-3.1408e-07
-3.15205e-07
-3.13469e-07
-3.14061e-07
-3.16054e-07
-3.14487e-07
-3.14179e-07
-3.1442e-07
-3.14213e-07
-3.15213e-07
-3.1353e-07
-3.13244e-07
-3.14285e-07
-3.16548e-07
-3.13735e-07
-3.13465e-07
-3.36086e-07
-3.36102e-07
-3.36403e-07
-3.38933e-07
-3.3895e-07
-3.39226e-07
-3.3877e-07
-3.35625e-07
-3.35839e-07
-3.36381e-07
-3.40468e-07
-3.43534e-07
-3.4353e-07
-3.43531e-07
-3.43531e-07
-3.37897e-07
-3.37835e-07
-3.3894e-07
-3.4353e-07
-3.43531e-07
-3.43531e-07
-3.43531e-07
-3.43531e-07
-3.43531e-07
-3.36276e-07
-3.35027e-07
-3.36051e-07
-3.38945e-07
-3.43531e-07
-3.43531e-07
-3.43531e-07
-3.43531e-07
-3.43531e-07
-3.43531e-07
-3.35975e-07
-3.36077e-07
-3.36102e-07
-3.39224e-07
-3.4353e-07
-3.43531e-07
-3.43531e-07
-3.43531e-07
-3.43531e-07
-3.43531e-07
-3.36215e-07
-3.3835e-07
-3.38768e-07
-3.4353e-07
-3.43531e-07
-3.43531e-07
-3.43531e-07
-3.43531e-07
-3.43531e-07
-3.36014e-07
-3.35527e-07
-3.3562e-07
-3.37903e-07
-3.43531e-07
-3.43531e-07
-3.43532e-07
-3.43531e-07
-3.35864e-07
-3.36989e-07
-3.35252e-07
-3.35845e-07
-3.37838e-07
-3.36271e-07
-3.35962e-07
-3.36204e-07
-3.35998e-07
-3.36997e-07
-3.35314e-07
-3.35027e-07
-3.36068e-07
-3.38343e-07
-3.3552e-07
-3.3525e-07
-3.5787e-07
-3.57886e-07
-3.58179e-07
-3.60711e-07
-3.60734e-07
-3.61008e-07
-3.60553e-07
-3.57409e-07
-3.57624e-07
-3.58163e-07
-3.62249e-07
-3.65313e-07
-3.65314e-07
-3.65314e-07
-3.65314e-07
-3.5968e-07
-3.59618e-07
-3.60724e-07
-3.65313e-07
-3.65313e-07
-3.65314e-07
-3.65314e-07
-3.65314e-07
-3.65314e-07
-3.5806e-07
-3.56811e-07
-3.57834e-07
-3.60728e-07
-3.65313e-07
-3.65314e-07
-3.65314e-07
-3.65314e-07
-3.65314e-07
-3.65314e-07
-3.57758e-07
-3.5786e-07
-3.57885e-07
-3.61007e-07
-3.65313e-07
-3.65313e-07
-3.65314e-07
-3.65314e-07
-3.65314e-07
-3.65314e-07
-3.57998e-07
-3.60132e-07
-3.60551e-07
-3.65313e-07
-3.65313e-07
-3.65314e-07
-3.65314e-07
-3.65314e-07
-3.65314e-07
-3.57797e-07
-3.5731e-07
-3.57403e-07
-3.59686e-07
-3.65313e-07
-3.65314e-07
-3.65314e-07
-3.65314e-07
-3.57647e-07
-3.58772e-07
-3.57036e-07
-3.57628e-07
-3.59621e-07
-3.58054e-07
-3.57746e-07
-3.57987e-07
-3.57781e-07
-3.5878e-07
-3.57098e-07
-3.56811e-07
-3.57852e-07
-3.60115e-07
-3.57304e-07
-3.57034e-07
-3.79652e-07
-3.79668e-07
-3.79968e-07
-3.82495e-07
-3.82516e-07
-3.82791e-07
-3.82336e-07
-3.79194e-07
-3.79405e-07
-3.79948e-07
-3.84033e-07
-3.87097e-07
-3.87099e-07
-3.87097e-07
-3.87097e-07
-3.81461e-07
-3.814e-07
-3.82507e-07
-3.87096e-07
-3.87096e-07
-3.87096e-07
-3.87096e-07
-3.87097e-07
-3.87097e-07
-3.79842e-07
-3.78593e-07
-3.79617e-07
-3.82511e-07
-3.87096e-07
-3.87097e-07
-3.87097e-07
-3.87097e-07
-3.87096e-07
-3.87096e-07
-3.7954e-07
-3.79642e-07
-3.79668e-07
-3.8279e-07
-3.87096e-07
-3.87097e-07
-3.87097e-07
-3.87097e-07
-3.87096e-07
-3.87096e-07
-3.7978e-07
-3.81915e-07
-3.82334e-07
-3.87096e-07
-3.87097e-07
-3.87097e-07
-3.87097e-07
-3.87096e-07
-3.87096e-07
-3.7958e-07
-3.79092e-07
-3.79186e-07
-3.81469e-07
-3.87097e-07
-3.87097e-07
-3.87097e-07
-3.87096e-07
-3.7943e-07
-3.80555e-07
-3.78818e-07
-3.7941e-07
-3.81403e-07
-3.79837e-07
-3.79529e-07
-3.79772e-07
-3.79564e-07
-3.80563e-07
-3.7888e-07
-3.78593e-07
-3.79635e-07
-3.81901e-07
-3.79086e-07
-3.78816e-07
-4.01435e-07
-4.01452e-07
-4.01751e-07
-4.0428e-07
-4.043e-07
-4.04575e-07
-4.04119e-07
-4.00976e-07
-4.01188e-07
-4.01732e-07
-4.05816e-07
-4.0888e-07
-4.0888e-07
-4.08879e-07
-4.08879e-07
-4.03244e-07
-4.03183e-07
-4.0429e-07
-4.0888e-07
-4.08879e-07
-4.08879e-07
-4.08879e-07
-4.08879e-07
-4.08879e-07
-4.01625e-07
-4.00375e-07
-4.01401e-07
-4.04295e-07
-4.0888e-07
-4.0888e-07
-4.0888e-07
-4.08879e-07
-4.08879e-07
-4.08879e-07
-4.01323e-07
-4.01425e-07
-4.01452e-07
-4.04573e-07
-4.08879e-07
-4.08879e-07
-4.0888e-07
-4.08879e-07
-4.08879e-07
-4.08879e-07
-4.01563e-07
-4.03698e-07
-4.04117e-07
-4.08879e-07
-4.08879e-07
-4.0888e-07
-4.0888e-07
-4.08879e-07
-4.08879e-07
-4.01363e-07
-4.00876e-07
-4.00969e-07
-4.03252e-07
-4.08879e-07
-4.0888e-07
-4.0888e-07
-4.08879e-07
-4.01213e-07
-4.02338e-07
-4.00601e-07
-4.01194e-07
-4.03187e-07
-4.01622e-07
-4.01313e-07
-4.01556e-07
-4.01347e-07
-4.02346e-07
-4.00663e-07
-4.00377e-07
-4.01418e-07
-4.03683e-07
-4.00869e-07
-4.006e-07
-4.23217e-07
-4.23234e-07
-4.23533e-07
-4.26064e-07
-4.26081e-07
-4.26356e-07
-4.259e-07
-4.2276e-07
-4.22972e-07
-4.23514e-07
-4.27598e-07
-4.30661e-07
-4.30661e-07
-4.30661e-07
-4.30661e-07
-4.25027e-07
-4.24964e-07
-4.26072e-07
-4.30661e-07
-4.30661e-07
-4.30661e-07
-4.30661e-07
-4.30661e-07
-4.30661e-07
-4.23407e-07
-4.22157e-07
-4.23183e-07
-4.26076e-07
-4.30661e-07
-4.30661e-07
-4.30661e-07
-4.30661e-07
-4.30661e-07
-4.30661e-07
-4.23105e-07
-4.23207e-07
-4.23234e-07
-4.26355e-07
-4.30661e-07
-4.30661e-07
-4.30661e-07
-4.30661e-07
-4.30661e-07
-4.30661e-07
-4.23346e-07
-4.2548e-07
-4.25899e-07
-4.30661e-07
-4.30661e-07
-4.30661e-07
-4.30661e-07
-4.30661e-07
-4.30661e-07
-4.23146e-07
-4.22658e-07
-4.22752e-07
-4.25034e-07
-4.30661e-07
-4.30661e-07
-4.30661e-07
-4.30661e-07
-4.22995e-07
-4.2412e-07
-4.22384e-07
-4.22976e-07
-4.24969e-07
-4.23404e-07
-4.23096e-07
-4.23339e-07
-4.2313e-07
-4.24128e-07
-4.22445e-07
-4.22159e-07
-4.23201e-07
-4.25465e-07
-4.22652e-07
-4.22382e-07
-4.45e-07
-4.45016e-07
-4.45316e-07
-4.47848e-07
-4.47865e-07
-4.48139e-07
-4.47682e-07
-4.44542e-07
-4.4475e-07
-4.45295e-07
-4.49379e-07
-4.52443e-07
-4.52443e-07
-4.52443e-07
-4.52443e-07
-4.46808e-07
-4.46745e-07
-4.47854e-07
-4.52443e-07
-4.52443e-07
-4.52443e-07
-4.52443e-07
-4.52443e-07
-4.52443e-07
-4.45188e-07
-4.43939e-07
-4.44965e-07
-4.47858e-07
-4.52443e-07
-4.52443e-07
-4.52443e-07
-4.52443e-07
-4.52443e-07
-4.52443e-07
-4.44887e-07
-4.44991e-07
-4.45016e-07
-4.48137e-07
-4.52443e-07
-4.52443e-07
-4.52443e-07
-4.52443e-07
-4.52443e-07
-4.52443e-07
-4.45127e-07
-4.47262e-07
-4.47681e-07
-4.52443e-07
-4.52443e-07
-4.52443e-07
-4.52443e-07
-4.52443e-07
-4.52443e-07
-4.44927e-07
-4.4444e-07
-4.44534e-07
-4.46816e-07
-4.52443e-07
-4.52443e-07
-4.52443e-07
-4.52443e-07
-4.44777e-07
-4.45902e-07
-4.44166e-07
-4.44758e-07
-4.46751e-07
-4.45185e-07
-4.44878e-07
-4.45121e-07
-4.44911e-07
-4.4591e-07
-4.44227e-07
-4.43941e-07
-4.44983e-07
-4.47249e-07
-4.44434e-07
-4.44164e-07
-4.66783e-07
-4.66799e-07
-4.67092e-07
-4.69631e-07
-4.69647e-07
-4.69922e-07
-4.69465e-07
-4.66327e-07
-4.66533e-07
-4.67076e-07
-4.71161e-07
-4.74226e-07
-4.74226e-07
-4.74226e-07
-4.74226e-07
-4.6859e-07
-4.68527e-07
-4.69636e-07
-4.74225e-07
-4.74226e-07
-4.74226e-07
-4.74226e-07
-4.74226e-07
-4.74226e-07
-4.66971e-07
-4.65721e-07
-4.66747e-07
-4.6964e-07
-4.74226e-07
-4.74226e-07
-4.74226e-07
-4.74226e-07
-4.74226e-07
-4.74226e-07
-4.66669e-07
-4.66773e-07
-4.66798e-07
-4.69919e-07
-4.74226e-07
-4.74226e-07
-4.74226e-07
-4.74226e-07
-4.74226e-07
-4.74226e-07
-4.6691e-07
-4.69044e-07
-4.69463e-07
-4.74226e-07
-4.74226e-07
-4.74226e-07
-4.74226e-07
-4.74226e-07
-4.74226e-07
-4.6671e-07
-4.66222e-07
-4.66316e-07
-4.68598e-07
-4.74226e-07
-4.74226e-07
-4.74226e-07
-4.74226e-07
-4.66559e-07
-4.67685e-07
-4.65949e-07
-4.66541e-07
-4.68534e-07
-4.66968e-07
-4.6666e-07
-4.66903e-07
-4.66693e-07
-4.67692e-07
-4.6601e-07
-4.65723e-07
-4.66765e-07
-4.69031e-07
-4.66216e-07
-4.65946e-07
-4.88564e-07
-4.8858e-07
-4.88874e-07
-4.91412e-07
-4.91428e-07
-4.91704e-07
-4.91247e-07
-4.88109e-07
-4.88315e-07
-4.8886e-07
-4.92943e-07
-4.96008e-07
-4.96008e-07
-4.96008e-07
-4.96008e-07
-4.90372e-07
-4.9031e-07
-4.91418e-07
-4.96008e-07
-4.96008e-07
-4.96008e-07
-4.96008e-07
-4.96008e-07
-4.96008e-07
-4.88753e-07
-4.87503e-07
-4.88529e-07
-4.91422e-07
-4.96008e-07
-4.96008e-07
-4.96008e-07
-4.96008e-07
-4.96008e-07
-4.96008e-07
-4.88451e-07
-4.88555e-07
-4.8858e-07
-4.91701e-07
-4.96008e-07
-4.96008e-07
-4.96008e-07
-4.96008e-07
-4.96008e-07
-4.96008e-07
-4.88692e-07
-4.90826e-07
-4.91245e-07
-4.96008e-07
-4.96008e-07
-4.96008e-07
-4.96008e-07
-4.96008e-07
-4.96008e-07
-4.88492e-07
-4.88004e-07
-4.88098e-07
-4.9038e-07
-4.96008e-07
-4.96008e-07
-4.96008e-07
-4.96008e-07
-4.88341e-07
-4.89466e-07
-4.8773e-07
-4.88322e-07
-4.90315e-07
-4.88749e-07
-4.88442e-07
-4.88685e-07
-4.88475e-07
-4.89474e-07
-4.87791e-07
-4.87505e-07
-4.88547e-07
-4.90813e-07
-4.87998e-07
-4.87728e-07
-5.10347e-07
-5.10363e-07
-5.10657e-07
-5.13195e-07
-5.13211e-07
-5.13486e-07
-5.13029e-07
-5.09888e-07
-5.10097e-07
-5.10642e-07
-5.14726e-07
-5.1779e-07
-5.1779e-07
-5.1779e-07
-5.1779e-07
-5.12156e-07
-5.12092e-07
-5.132e-07
-5.1779e-07
-5.1779e-07
-5.1779e-07
-5.1779e-07
-5.1779e-07
-5.1779e-07
-5.10536e-07
-5.09286e-07
-5.10311e-07
-5.13204e-07
-5.1779e-07
-5.1779e-07
-5.1779e-07
-5.1779e-07
-5.1779e-07
-5.1779e-07
-5.10234e-07
-5.10338e-07
-5.10362e-07
-5.13484e-07
-5.1779e-07
-5.1779e-07
-5.1779e-07
-5.1779e-07
-5.1779e-07
-5.1779e-07
-5.10474e-07
-5.12609e-07
-5.13028e-07
-5.1779e-07
-5.1779e-07
-5.1779e-07
-5.1779e-07
-5.1779e-07
-5.1779e-07
-5.10274e-07
-5.09787e-07
-5.0988e-07
-5.12163e-07
-5.1779e-07
-5.1779e-07
-5.1779e-07
-5.1779e-07
-5.10124e-07
-5.11249e-07
-5.09513e-07
-5.10105e-07
-5.12098e-07
-5.10532e-07
-5.10225e-07
-5.10468e-07
-5.10258e-07
-5.11257e-07
-5.09574e-07
-5.09288e-07
-5.10329e-07
-5.12595e-07
-5.09781e-07
-5.0951e-07
-5.32129e-07
-5.32143e-07
-5.3244e-07
-5.34976e-07
-5.34993e-07
-5.35268e-07
-5.34814e-07
-5.31678e-07
-5.31898e-07
-5.32425e-07
-5.36509e-07
-5.39573e-07
-5.39573e-07
-5.39573e-07
-5.39573e-07
-5.33937e-07
-5.33876e-07
-5.34984e-07
-5.39573e-07
-5.39573e-07
-5.39573e-07
-5.39573e-07
-5.39573e-07
-5.39573e-07
-5.32318e-07
-5.3107e-07
-5.32094e-07
-5.34987e-07
-5.39573e-07
-5.39573e-07
-5.39573e-07
-5.39573e-07
-5.39573e-07
-5.39573e-07
-5.32017e-07
-5.32121e-07
-5.32145e-07
-5.35267e-07
-5.39573e-07
-5.39573e-07
-5.39573e-07
-5.39573e-07
-5.39573e-07
-5.39573e-07
-5.32257e-07
-5.34392e-07
-5.34811e-07
-5.39573e-07
-5.39573e-07
-5.39573e-07
-5.39573e-07
-5.39573e-07
-5.39573e-07
-5.32057e-07
-5.3157e-07
-5.31663e-07
-5.33946e-07
-5.39573e-07
-5.39573e-07
-5.39573e-07
-5.39573e-07
-5.31906e-07
-5.33032e-07
-5.31296e-07
-5.31888e-07
-5.33881e-07
-5.32315e-07
-5.32007e-07
-5.32251e-07
-5.32041e-07
-5.3304e-07
-5.31357e-07
-5.31071e-07
-5.32112e-07
-5.34378e-07
-5.31564e-07
-5.31293e-07
-5.53912e-07
-5.53929e-07
-5.54223e-07
-5.56757e-07
-5.56777e-07
-5.57052e-07
-5.56596e-07
-5.53453e-07
-5.53663e-07
-5.5421e-07
-5.58292e-07
-5.61356e-07
-5.61356e-07
-5.61356e-07
-5.61356e-07
-5.55722e-07
-5.55658e-07
-5.56765e-07
-5.61356e-07
-5.61356e-07
-5.61356e-07
-5.61356e-07
-5.61356e-07
-5.61356e-07
-5.54101e-07
-5.52851e-07
-5.53875e-07
-5.5677e-07
-5.61356e-07
-5.61356e-07
-5.61356e-07
-5.61356e-07
-5.61356e-07
-5.61356e-07
-5.53799e-07
-5.53903e-07
-5.53928e-07
-5.5705e-07
-5.61356e-07
-5.61356e-07
-5.61356e-07
-5.61356e-07
-5.61356e-07
-5.61356e-07
-5.54039e-07
-5.56174e-07
-5.56594e-07
-5.61356e-07
-5.61356e-07
-5.61356e-07
-5.61356e-07
-5.61356e-07
-5.61356e-07
-5.5384e-07
-5.53352e-07
-5.53446e-07
-5.55729e-07
-5.61356e-07
-5.61356e-07
-5.61356e-07
-5.61356e-07
-5.53689e-07
-5.54815e-07
-5.53079e-07
-5.53671e-07
-5.55664e-07
-5.54098e-07
-5.5379e-07
-5.54033e-07
-5.53823e-07
-5.54822e-07
-5.53139e-07
-5.52853e-07
-5.53895e-07
-5.56161e-07
-5.53346e-07
-5.53076e-07
-5.75696e-07
-5.75712e-07
-5.76006e-07
-5.78541e-07
-5.7856e-07
-5.78835e-07
-5.78379e-07
-5.75236e-07
-5.75446e-07
-5.75992e-07
-5.80076e-07
-5.8314e-07
-5.8314e-07
-5.83139e-07
-5.83139e-07
-5.77505e-07
-5.77442e-07
-5.7855e-07
-5.8314e-07
-5.8314e-07
-5.83139e-07
-5.83139e-07
-5.83139e-07
-5.83139e-07
-5.75885e-07
-5.74635e-07
-5.75661e-07
-5.78553e-07
-5.83139e-07
-5.83139e-07
-5.83139e-07
-5.83139e-07
-5.83139e-07
-5.83139e-07
-5.75583e-07
-5.75686e-07
-5.75712e-07
-5.78833e-07
-5.83139e-07
-5.83139e-07
-5.83139e-07
-5.83139e-07
-5.83139e-07
-5.83139e-07
-5.75823e-07
-5.77958e-07
-5.78377e-07
-5.83139e-07
-5.83139e-07
-5.83139e-07
-5.83139e-07
-5.83139e-07
-5.83139e-07
-5.75623e-07
-5.75136e-07
-5.75229e-07
-5.77512e-07
-5.83139e-07
-5.83139e-07
-5.83139e-07
-5.83139e-07
-5.75472e-07
-5.76598e-07
-5.74862e-07
-5.75454e-07
-5.77447e-07
-5.75881e-07
-5.75573e-07
-5.75816e-07
-5.75606e-07
-5.76605e-07
-5.74922e-07
-5.74637e-07
-5.75678e-07
-5.77944e-07
-5.75129e-07
-5.74859e-07
-5.97479e-07
-5.97495e-07
-5.9779e-07
-6.00324e-07
-6.00343e-07
-6.00619e-07
-6.00163e-07
-5.9702e-07
-5.97229e-07
-5.97778e-07
-6.01861e-07
-6.04924e-07
-6.04922e-07
-6.04923e-07
-6.04923e-07
-5.99288e-07
-5.99225e-07
-6.00332e-07
-6.04922e-07
-6.04922e-07
-6.04922e-07
-6.04922e-07
-6.04922e-07
-6.04922e-07
-5.97668e-07
-5.96417e-07
-5.97444e-07
-6.00335e-07
-6.04922e-07
-6.04923e-07
-6.04923e-07
-6.04923e-07
-6.04923e-07
-6.04923e-07
-5.97366e-07
-5.97469e-07
-5.97496e-07
-6.00617e-07
-6.04922e-07
-6.04922e-07
-6.04923e-07
-6.04923e-07
-6.04923e-07
-6.04923e-07
-5.97606e-07
-5.99741e-07
-6.0016e-07
-6.04923e-07
-6.04923e-07
-6.04923e-07
-6.04923e-07
-6.04923e-07
-6.04922e-07
-5.97406e-07
-5.96919e-07
-5.97012e-07
-5.99295e-07
-6.04923e-07
-6.04923e-07
-6.04923e-07
-6.04923e-07
-5.97255e-07
-5.98381e-07
-5.96645e-07
-5.97237e-07
-5.9923e-07
-5.97664e-07
-5.97356e-07
-5.97599e-07
-5.97389e-07
-5.98388e-07
-5.96706e-07
-5.9642e-07
-5.97461e-07
-5.99728e-07
-5.96913e-07
-5.96642e-07
-6.19262e-07
-6.19277e-07
-6.19573e-07
-6.22106e-07
-6.22126e-07
-6.22402e-07
-6.21944e-07
-6.18798e-07
-6.19014e-07
-6.19559e-07
-6.23644e-07
-6.26709e-07
-6.26707e-07
-6.26709e-07
-6.26706e-07
-6.21073e-07
-6.21009e-07
-6.22117e-07
-6.26706e-07
-6.26705e-07
-6.26705e-07
-6.26705e-07
-6.26706e-07
-6.26706e-07
-6.19451e-07
-6.18201e-07
-6.19227e-07
-6.2212e-07
-6.26707e-07
-6.26707e-07
-6.26706e-07
-6.26707e-07
-6.26706e-07
-6.26706e-07
-6.19148e-07
-6.19252e-07
-6.19278e-07
-6.224e-07
-6.26706e-07
-6.26706e-07
-6.26706e-07
-6.26706e-07
-6.26706e-07
-6.26706e-07
-6.19389e-07
-6.21524e-07
-6.21944e-07
-6.26706e-07
-6.26706e-07
-6.26706e-07
-6.26706e-07
-6.26706e-07
-6.26706e-07
-6.19189e-07
-6.18702e-07
-6.18796e-07
-6.21078e-07
-6.26706e-07
-6.26706e-07
-6.26706e-07
-6.26706e-07
-6.19038e-07
-6.20164e-07
-6.18428e-07
-6.1902e-07
-6.21014e-07
-6.19447e-07
-6.19139e-07
-6.19383e-07
-6.19172e-07
-6.20172e-07
-6.18489e-07
-6.18203e-07
-6.19245e-07
-6.21511e-07
-6.18696e-07
-6.18425e-07
-6.41047e-07
-6.41062e-07
-6.41356e-07
-6.43893e-07
-6.43911e-07
-6.44185e-07
-6.43728e-07
-6.40582e-07
-6.40797e-07
-6.41341e-07
-6.45426e-07
-6.4849e-07
-6.48489e-07
-6.48489e-07
-6.48489e-07
-6.42856e-07
-6.42791e-07
-6.439e-07
-6.48489e-07
-6.48489e-07
-6.48489e-07
-6.48489e-07
-6.48489e-07
-6.48489e-07
-6.41235e-07
-6.39981e-07
-6.4101e-07
-6.43903e-07
-6.4849e-07
-6.48489e-07
-6.48489e-07
-6.48489e-07
-6.48489e-07
-6.48489e-07
-6.4093e-07
-6.41035e-07