/*--------------------------------*- C++ -*----------------------------------*\
| =========                 |                                                 |
| \\      /  F ield         | OpenFOAM: The Open Source CFD Toolbox           |
|  \\    /   O peration     | Version:  v1912                                 |
|   \\  /    A nd           | Website:  www.openfoam.com                      |
|    \\/     M anipulation  |                                                 |
\*---------------------------------------------------------------------------*/
FoamFile
{
    version     2.0;
    format      ascii;
    class       volScalarField;
    location    "1.2";
    object      nut;
}
// * * * * * * * * * * * * * * * * * * * * * * * * * * * * * * * * * * * * * //

dimensions      [0 2 -1 0 0 0 0];


internalField   nonuniform List<scalar> 
171728
(
8.75052e-07
8.99716e-07
9.00191e-07
3.6093e-07
5.83848e-08
6.80626e-08
6.82397e-08
8.76247e-08
4.60635e-09
5.82523e-09
5.8206e-09
8.55534e-08
1.29838e-09
3.43047e-09
3.40435e-09
8.56647e-08
1.35157e-09
3.2379e-09
3.24236e-09
8.56688e-08
1.35205e-09
3.23136e-09
3.23655e-09
8.5669e-08
1.34274e-09
3.23911e-09
3.23271e-09
8.56693e-08
1.35439e-09
3.24117e-09
3.23834e-09
8.56687e-08
1.35767e-09
3.23898e-09
3.23187e-09
8.56709e-08
1.35471e-09
3.23819e-09
3.23409e-09
8.56696e-08
1.35436e-09
3.23787e-09
3.23765e-09
8.56702e-08
1.36202e-09
3.23456e-09
3.23624e-09
8.56705e-08
1.3663e-09
3.26256e-09
3.23757e-09
8.56702e-08
1.37094e-09
3.26318e-09
3.23459e-09
8.56699e-08
1.34875e-09
3.2286e-09
3.23844e-09
8.56703e-08
1.35141e-09
3.22869e-09
3.23393e-09
8.56708e-08
1.36042e-09
3.23961e-09
3.23648e-09
8.56717e-08
1.35364e-09
3.23101e-09
3.23634e-09
8.56708e-08
1.35052e-09
3.2223e-09
3.23646e-09
8.56697e-08
1.34174e-09
3.2529e-09
3.23115e-09
8.56634e-08
1.44764e-09
3.23758e-09
3.23669e-09
8.56728e-08
1.35389e-09
3.2408e-09
3.23628e-09
8.56727e-08
1.35766e-09
3.23937e-09
3.23708e-09
8.56731e-08
1.35688e-09
3.23913e-09
3.23724e-09
8.5673e-08
1.3587e-09
3.23831e-09
3.23674e-09
8.56734e-08
1.3573e-09
3.23894e-09
3.23663e-09
8.56731e-08
1.35798e-09
3.23967e-09
3.23754e-09
8.56734e-08
1.35791e-09
3.23886e-09
3.23672e-09
8.56734e-08
1.3574e-09
3.23802e-09
3.23589e-09
8.56729e-08
1.35828e-09
3.23967e-09
3.23768e-09
8.56727e-08
1.35724e-09
3.23905e-09
3.23673e-09
8.56732e-08
1.35813e-09
3.23685e-09
3.23667e-09
8.56734e-08
1.35823e-09
3.24073e-09
3.2374e-09
8.56732e-08
1.35704e-09
3.24027e-09
3.23754e-09
8.56731e-08
1.35779e-09
3.24034e-09
3.23765e-09
8.56735e-08
1.35774e-09
3.23883e-09
3.23693e-09
8.56729e-08
1.3586e-09
3.24063e-09
3.23875e-09
8.56732e-08
1.35834e-09
3.23978e-09
3.23789e-09
8.56738e-08
1.35802e-09
3.24081e-09
3.24451e-09
8.56739e-08
1.37535e-09
3.24711e-09
3.24321e-09
8.56586e-08
1.51752e-09
3.22219e-09
3.23877e-09
8.56722e-08
1.357e-09
3.23181e-09
3.2319e-09
8.56734e-08
1.35936e-09
3.23862e-09
3.23101e-09
8.5674e-08
1.36051e-09
3.23697e-09
3.2316e-09
8.56739e-08
1.36273e-09
3.23738e-09
3.23566e-09
8.56737e-08
1.36111e-09
3.23639e-09
3.23214e-09
8.56742e-08
1.36039e-09
3.23582e-09
3.23544e-09
8.56751e-08
1.36074e-09
3.23669e-09
3.23906e-09
8.56745e-08
1.36102e-09
3.23761e-09
3.24014e-09
8.5674e-08
1.36096e-09
3.23656e-09
3.23912e-09
8.56742e-08
1.36073e-09
3.23604e-09
3.23908e-09
8.5674e-08
1.36159e-09
3.23671e-09
3.23817e-09
8.56739e-08
1.36226e-09
3.23791e-09
3.23941e-09
8.56741e-08
1.36274e-09
3.24488e-09
3.23835e-09
8.56741e-08
1.36439e-09
3.23833e-09
3.23978e-09
8.56734e-08
1.35998e-09
3.23567e-09
3.23812e-09
8.56696e-08
1.35867e-09
3.24049e-09
3.23808e-09
8.56609e-08
1.35857e-09
3.23988e-09
3.23689e-09
8.56608e-08
1.35896e-09
3.24104e-09
3.2382e-09
8.56605e-08
1.3593e-09
3.24038e-09
3.2367e-09
8.56605e-08
1.35928e-09
3.24089e-09
3.23842e-09
8.56603e-08
1.35828e-09
3.23992e-09
3.23683e-09
8.56608e-08
1.35816e-09
3.24112e-09
3.23808e-09
8.56599e-08
1.35944e-09
3.24099e-09
3.23823e-09
8.566e-08
1.35887e-09
3.24126e-09
3.2383e-09
8.56604e-08
1.35832e-09
3.24091e-09
3.23793e-09
8.56599e-08
1.35839e-09
3.23946e-09
3.23649e-09
8.566e-08
1.35773e-09
3.23989e-09
3.23734e-09
8.56602e-08
1.35382e-09
3.23902e-09
3.23744e-09
8.56605e-08
1.35042e-09
3.2406e-09
3.21965e-09
8.5662e-08
1.35483e-09
3.24221e-09
3.234e-09
8.5658e-08
1.35911e-09
3.24091e-09
3.23815e-09
8.56598e-08
1.3581e-09
3.24016e-09
3.23673e-09
8.566e-08
1.35794e-09
3.24029e-09
3.2366e-09
8.56589e-08
1.35941e-09
3.24066e-09
3.23677e-09
8.56586e-08
1.35817e-09
3.24028e-09
3.23653e-09
8.56586e-08
1.35863e-09
3.24058e-09
3.23665e-09
8.56589e-08
1.35897e-09
3.24058e-09
3.23691e-09
8.56588e-08
1.35909e-09
3.23996e-09
3.2369e-09
8.56585e-08
1.3587e-09
3.24146e-09
3.23846e-09
8.56591e-08
1.35811e-09
3.24047e-09
3.23751e-09
8.56587e-08
1.35857e-09
3.24044e-09
3.23739e-09
8.56589e-08
1.35882e-09
3.24072e-09
3.23771e-09
8.56588e-08
1.36076e-09
3.24073e-09
3.23776e-09
8.5659e-08
1.36069e-09
3.24055e-09
3.23754e-09
8.56588e-08
1.36086e-09
3.24059e-09
3.23808e-09
8.56581e-08
1.36082e-09
3.24154e-09
3.2388e-09
8.5659e-08
1.35965e-09
3.23966e-09
3.23709e-09
8.56585e-08
1.36032e-09
3.23979e-09
3.23662e-09
8.56584e-08
1.36138e-09
3.24089e-09
3.23763e-09
8.56587e-08
1.36369e-09
3.23948e-09
3.23448e-09
8.5661e-08
1.43335e-09
3.26232e-09
3.26811e-09
8.56599e-08
3.6785e-09
4.24718e-09
4.30438e-09
8.55908e-08
4.61857e-08
4.17555e-08
4.17145e-08
8.47686e-08
3.82692e-07
2.10213e-07
2.10248e-07
4.14412e-07
2.94434e-07
5.78981e-07
5.79266e-07
2.94496e-07
5.79044e-07
5.79148e-07
1.63283e-06
1.63287e-06
1.63283e-06
1.63286e-06
5.78856e-07
5.78903e-07
2.94263e-07
5.78763e-07
5.79049e-07
2.94217e-07
3.61006e-07
2.24613e-07
9.00273e-07
9.00225e-07
1.49353e-07
1.49334e-07
3.6093e-07
2.24504e-07
9.00141e-07
9.00777e-07
1.49522e-07
1.49419e-07
9.00495e-07
1.49394e-07
1.49286e-07
3.60938e-07
2.24604e-07
9.00261e-07
1.49431e-07
1.49414e-07
2.24614e-07
8.76797e-08
2.19013e-07
6.81378e-08
6.81592e-08
8.89783e-09
8.97968e-09
8.76509e-08
2.19087e-07
6.81636e-08
6.81464e-08
8.85637e-09
8.91216e-09
6.81375e-08
8.79832e-09
8.88753e-09
8.76927e-08
2.19041e-07
6.82802e-08
8.87789e-09
8.83078e-09
2.19039e-07
8.54718e-08
2.18664e-07
5.86253e-09
5.84936e-09
3.60896e-09
3.60342e-09
8.54756e-08
2.18671e-07
5.87914e-09
5.85819e-09
3.58347e-09
3.61247e-09
5.87281e-09
3.58631e-09
3.62492e-09
8.55261e-08
2.18687e-07
5.88483e-09
3.55578e-09
3.54778e-09
2.18649e-07
8.56444e-08
2.18644e-07
3.44033e-09
3.47667e-09
3.28745e-09
3.28743e-09
8.56228e-08
2.18639e-07
3.39181e-09
3.44517e-09
3.24652e-09
3.29316e-09
3.45974e-09
3.24354e-09
3.28159e-09
8.56632e-08
2.18664e-07
3.41241e-09
3.23241e-09
3.2367e-09
2.18615e-07
8.56479e-08
2.18642e-07
3.28488e-09
3.28476e-09
3.27911e-09
3.28833e-09
8.56304e-08
2.18632e-07
3.23003e-09
3.28801e-09
3.25115e-09
3.28181e-09
3.2742e-09
3.2304e-09
3.26941e-09
8.56615e-08
2.1866e-07
3.23115e-09
3.2212e-09
3.22442e-09
2.18613e-07
8.56478e-08
2.18645e-07
3.28217e-09
3.2971e-09
3.26409e-09
3.31503e-09
8.56343e-08
2.18641e-07
3.21852e-09
3.28192e-09
3.245e-09
3.27857e-09
3.26881e-09
3.24289e-09
3.26509e-09
8.56619e-08
2.18666e-07
3.22555e-09
3.21727e-09
3.22095e-09
2.18617e-07
8.56517e-08
2.18648e-07
3.2369e-09
3.30641e-09
3.29933e-09
3.2944e-09
8.56267e-08
2.18642e-07
3.21109e-09
3.27932e-09
3.2496e-09
3.27999e-09
3.26445e-09
3.24086e-09
3.26692e-09
8.56619e-08
2.18665e-07
3.22229e-09
3.21953e-09
3.22358e-09
2.18615e-07
8.56524e-08
2.18648e-07
3.28312e-09
3.29758e-09
3.28077e-09
3.29623e-09
8.56235e-08
2.18639e-07
3.22445e-09
3.28293e-09
3.25422e-09
3.28185e-09
3.26845e-09
3.24152e-09
3.2685e-09
8.56612e-08
2.18661e-07
3.22754e-09
3.22139e-09
3.22533e-09
2.18611e-07
8.56311e-08
2.18648e-07
3.28063e-09
3.29528e-09
3.25526e-09
3.27707e-09
8.56255e-08
2.18656e-07
3.22141e-09
3.28244e-09
3.23676e-09
3.2786e-09
3.26717e-09
3.23546e-09
3.26385e-09
8.56632e-08
2.1867e-07
3.22373e-09
3.21657e-09
3.2206e-09
2.18621e-07
8.56397e-08
2.18631e-07
3.26432e-09
3.24231e-09
3.29546e-09
3.23037e-09
8.56184e-08
2.1864e-07
3.22661e-09
3.28083e-09
3.23464e-09
3.28237e-09
3.26441e-09
3.2384e-09
3.26799e-09
8.56621e-08
2.18664e-07
3.22341e-09
3.22096e-09
3.22514e-09
2.18613e-07
8.56519e-08
2.18643e-07
3.32836e-09
3.25305e-09
3.28012e-09
3.23547e-09
8.56242e-08
2.18639e-07
3.23491e-09
3.28316e-09
3.24116e-09
3.28044e-09
3.26743e-09
3.23783e-09
3.2656e-09
8.56621e-08
2.18666e-07
3.22661e-09
3.21947e-09
3.22216e-09
2.18617e-07
8.56397e-08
2.18639e-07
3.27991e-09
3.22466e-09
3.27769e-09
3.22749e-09
8.5625e-08
2.18667e-07
3.23544e-09
3.28146e-09
3.23564e-09
3.27979e-09
3.26596e-09
3.25018e-09
3.2708e-09
8.56632e-08
2.18665e-07
3.22363e-09
3.22097e-09
3.2226e-09
2.18617e-07
8.56415e-08
2.18643e-07
3.28028e-09
3.24034e-09
3.26791e-09
3.3002e-09
8.56207e-08
2.18667e-07
3.23059e-09
3.28124e-09
3.22467e-09
3.27729e-09
3.27154e-09
3.25575e-09
3.26858e-09
8.56636e-08
2.18668e-07
3.22547e-09
3.21808e-09
3.22163e-09
2.18622e-07
8.56374e-08
2.18632e-07
3.2706e-09
3.30864e-09
3.29728e-09
3.28935e-09
8.56267e-08
2.18648e-07
3.22154e-09
3.27874e-09
3.22005e-09
3.28192e-09
3.268e-09
3.23604e-09
3.27033e-09
8.56633e-08
2.18664e-07
3.22411e-09
3.22157e-09
3.22622e-09
2.18614e-07
8.56447e-08
2.1864e-07
3.29143e-09
3.27875e-09
3.28277e-09
3.34328e-09
8.56366e-08
2.18636e-07
3.23792e-09
3.28361e-09
3.24003e-09
3.27798e-09
3.2707e-09
3.23651e-09
3.26472e-09
8.56632e-08
2.1867e-07
3.22822e-09
3.21764e-09
3.22062e-09
2.18622e-07
8.56421e-08
2.18634e-07
3.28208e-09
3.3119e-09
3.28881e-09
3.29544e-09
8.56534e-08
2.18619e-07
3.23645e-09
3.27922e-09
3.24028e-09
3.28099e-09
3.26387e-09
3.23643e-09
3.26856e-09
8.56635e-08
2.18666e-07
3.22211e-09
3.22023e-09
3.22458e-09
2.18616e-07
8.56438e-08
2.18636e-07
3.27306e-09
3.29402e-09
3.29009e-09
3.28275e-09
8.56467e-08
2.18663e-07
3.23802e-09
3.282e-09
3.23984e-09
3.27979e-09
3.26797e-09
3.23872e-09
3.2675e-09
8.5664e-08
2.1867e-07
3.22603e-09
3.21868e-09
3.22313e-09
2.18619e-07
8.56408e-08
2.18654e-07
3.26681e-09
3.27338e-09
3.25987e-09
3.26858e-09
8.56569e-08
2.18664e-07
3.23655e-09
3.28279e-09
3.23326e-09
3.28243e-09
3.26905e-09
3.21626e-09
3.26688e-09
8.56632e-08
2.18668e-07
3.22615e-09
3.2198e-09
3.21998e-09
2.18621e-07
8.56449e-08
2.18624e-07
3.26062e-09
3.29537e-09
3.32319e-09
3.37533e-09
8.56884e-08
2.18704e-07
3.22762e-09
3.28335e-09
3.25254e-09
3.27748e-09
3.2651e-09
3.26191e-09
3.27683e-09
8.56639e-08
2.18669e-07
3.21784e-09
3.2167e-09
3.218e-09
2.18634e-07
8.56833e-08
2.18693e-07
3.28563e-09
3.31221e-09
3.2711e-09
3.34265e-09
8.56288e-08
2.18662e-07
3.2528e-09
3.27748e-09
3.09065e-09
3.28256e-09
3.29041e-09
3.22504e-09
3.26898e-09
8.56659e-08
2.18673e-07
3.23619e-09
3.21648e-09
3.2237e-09
2.18624e-07
8.56369e-08
2.18659e-07
3.3244e-09
3.33141e-09
3.29896e-09
3.29036e-09
8.56407e-08
2.18654e-07
3.17118e-09
3.28047e-09
3.25168e-09
3.27933e-09
3.26778e-09
3.24564e-09
3.26621e-09
8.56648e-08
2.18671e-07
3.22461e-09
3.21957e-09
3.22386e-09
2.18622e-07
8.56648e-08
2.18658e-07
3.29167e-09
3.29604e-09
3.28021e-09
3.29638e-09
8.56426e-08
2.18654e-07
3.23754e-09
3.28054e-09
3.24251e-09
3.281e-09
3.26632e-09
3.24112e-09
3.2674e-09
8.56655e-08
2.18671e-07
3.2254e-09
3.2205e-09
3.22439e-09
2.18622e-07
8.56645e-08
2.18657e-07
3.28596e-09
3.29918e-09
3.2782e-09
3.29568e-09
8.56426e-08
2.18654e-07
3.23579e-09
3.28167e-09
3.24057e-09
3.28021e-09
3.26755e-09
3.2408e-09
3.26616e-09
8.56655e-08
2.18671e-07
3.2264e-09
3.22042e-09
3.23263e-09
2.18622e-07
8.56646e-08
2.18658e-07
3.28387e-09
3.29824e-09
3.27711e-09
3.29524e-09
8.56427e-08
2.18654e-07
3.234e-09
3.28065e-09
3.23949e-09
3.27971e-09
3.26686e-09
3.24004e-09
3.26634e-09
8.56656e-08
2.18671e-07
3.23367e-09
3.21993e-09
3.2283e-09
2.18622e-07
8.56638e-08
2.18659e-07
3.28521e-09
3.29852e-09
3.27667e-09
3.29507e-09
8.56426e-08
2.18654e-07
3.23535e-09
3.28091e-09
3.23904e-09
3.27974e-09
3.26554e-09
3.24065e-09
3.26751e-09
8.56655e-08
2.18671e-07
3.23037e-09
3.21963e-09
3.22717e-09
2.18621e-07
8.56643e-08
2.18655e-07
3.28319e-09
3.29779e-09
3.27953e-09
3.29702e-09
8.56427e-08
2.18652e-07
3.23336e-09
3.28032e-09
3.24188e-09
3.28156e-09
3.26756e-09
3.2416e-09
3.2668e-09
8.56656e-08
2.18669e-07
3.22992e-09
3.22106e-09
3.22762e-09
2.18621e-07
8.56645e-08
2.18658e-07
3.28572e-09
3.29929e-09
3.27662e-09
3.29485e-09
8.56428e-08
2.18655e-07
3.23584e-09
3.28177e-09
3.239e-09
3.2794e-09
3.26655e-09
3.2402e-09
3.26674e-09
8.56658e-08
2.18672e-07
3.22934e-09
3.21969e-09
3.22759e-09
2.18622e-07
8.56641e-08
2.18659e-07
3.28436e-09
3.29846e-09
3.2773e-09
3.29514e-09
8.56427e-08
2.18655e-07
3.2345e-09
3.28093e-09
3.23967e-09
3.2797e-09
3.26673e-09
3.24009e-09
3.26622e-09
8.56656e-08
2.18672e-07
3.22951e-09
3.21958e-09
3.22707e-09
2.18623e-07
8.56641e-08
2.18658e-07
3.2836e-09
3.29735e-09
3.2782e-09
3.29617e-09
8.56426e-08
2.18654e-07
3.23375e-09
3.27982e-09
3.24054e-09
3.28069e-09
3.26652e-09
3.24105e-09
3.26709e-09
8.56655e-08
2.18671e-07
3.22931e-09
3.22058e-09
3.22794e-09
2.18622e-07
8.56639e-08
2.18659e-07
3.28515e-09
3.29941e-09
3.27782e-09
3.29454e-09
8.56423e-08
2.18655e-07
3.23529e-09
3.28158e-09
3.23979e-09
3.28017e-09
3.26765e-09
3.24093e-09
3.26713e-09
8.56652e-08
2.18672e-07
3.23043e-09
3.22028e-09
3.22803e-09
2.18621e-07
8.56644e-08
2.18657e-07
3.28401e-09
3.2803e-09
3.27799e-09
3.2988e-09
8.56437e-08
2.18647e-07
3.23402e-09
3.28068e-09
3.24034e-09
3.28011e-09
3.2668e-09
3.24394e-09
3.2664e-09
8.56657e-08
2.18671e-07
3.22952e-09
3.22007e-09
3.22725e-09
2.18622e-07
8.56642e-08
2.18658e-07
3.28569e-09
3.2998e-09
3.27682e-09
3.30124e-09
8.56451e-08
2.18661e-07
3.23554e-09
3.28072e-09
3.23922e-09
3.28015e-09
3.26626e-09
3.24211e-09
3.26727e-09
8.56658e-08
2.18671e-07
3.22904e-09
3.22049e-09
3.22813e-09
2.1862e-07
8.56638e-08
2.18658e-07
3.28479e-09
3.30376e-09
3.27783e-09
3.30046e-09
8.56387e-08
2.18662e-07
3.23494e-09
3.28139e-09
3.24018e-09
3.27991e-09
3.26669e-09
3.24157e-09
3.26605e-09
8.56654e-08
2.18672e-07
3.22942e-09
3.22053e-09
3.22742e-09
2.18623e-07
8.56647e-08
2.18657e-07
3.28349e-09
3.30297e-09
3.27836e-09
3.30082e-09
8.5639e-08
2.18662e-07
3.23365e-09
3.2803e-09
3.24073e-09
3.28116e-09
3.26663e-09
3.24134e-09
3.26676e-09
8.56657e-08
2.18672e-07
3.22996e-09
3.2165e-09
3.22338e-09
2.18623e-07
8.56643e-08
2.18658e-07
3.2851e-09
3.30408e-09
3.27741e-09
3.29988e-09
8.56389e-08
2.18663e-07
3.23524e-09
3.28153e-09
3.23977e-09
3.27981e-09
3.26652e-09
3.23997e-09
3.26508e-09
8.5666e-08
2.18673e-07
3.22993e-09
3.21733e-09
3.22432e-09
2.18625e-07
8.56641e-08
2.18658e-07
3.28415e-09
3.3026e-09
3.27733e-09
3.30059e-09
8.56386e-08
2.18662e-07
3.23429e-09
3.27978e-09
3.23972e-09
3.28046e-09
3.26587e-09
3.24126e-09
3.26614e-09
8.56658e-08
2.18672e-07
3.23026e-09
3.21867e-09
3.22545e-09
2.18623e-07
8.56636e-08
2.18657e-07
3.28523e-09
3.30416e-09
3.27781e-09
3.30081e-09
8.56383e-08
2.18662e-07
3.23538e-09
3.28131e-09
3.24016e-09
3.28066e-09
3.26647e-09
3.24151e-09
3.26823e-09
8.56655e-08
2.18672e-07
3.2309e-09
3.21893e-09
3.22757e-09
2.18622e-07
8.56641e-08
2.18658e-07
3.28474e-09
3.30313e-09
3.27747e-09
3.30025e-09
8.56389e-08
2.18661e-07
3.23489e-09
3.28024e-09
3.23976e-09
3.2798e-09
3.26623e-09
3.24205e-09
3.26719e-09
8.5666e-08
2.18671e-07
3.23072e-09
3.2199e-09
3.22728e-09
2.18622e-07
8.56641e-08
2.18657e-07
3.28528e-09
3.30295e-09
3.28894e-09
3.29335e-09
8.56389e-08
2.18661e-07
3.235e-09
3.27971e-09
3.23567e-09
3.27878e-09
3.26457e-09
3.24299e-09
3.23942e-09
8.56656e-08
2.18672e-07
3.23124e-09
3.21571e-09
3.20873e-09
2.18624e-07
8.56596e-08
2.18659e-07
3.28093e-09
3.30261e-09
3.22871e-09
3.2965e-09
8.5641e-08
2.18682e-07
3.21807e-09
3.27848e-09
3.20831e-09
3.28679e-09
3.24258e-09
3.23032e-09
3.30938e-09
8.5665e-08
2.18674e-07
3.13422e-09
3.21822e-09
3.21841e-09
2.18629e-07
8.56561e-08
2.18652e-07
3.26546e-09
3.26047e-09
3.28265e-09
3.29779e-09
8.56479e-08
2.18688e-07
3.11914e-09
3.28839e-09
3.2568e-09
3.28197e-09
3.2826e-09
3.23497e-09
3.26926e-09
8.56649e-08
2.18673e-07
3.24965e-09
3.22609e-09
3.22827e-09
2.18623e-07
8.56534e-08
2.18647e-07
3.27751e-09
3.30367e-09
3.27188e-09
3.30764e-09
8.56895e-08
2.18681e-07
3.21819e-09
3.28134e-09
3.2518e-09
3.28045e-09
3.26807e-09
3.2414e-09
3.2674e-09
8.56654e-08
2.18673e-07
3.23102e-09
3.22505e-09
3.2259e-09
2.18623e-07
8.56498e-08
2.18645e-07
3.27523e-09
3.30056e-09
3.27186e-09
3.29583e-09
8.56585e-08
2.18682e-07
3.21837e-09
3.28036e-09
3.25342e-09
3.28114e-09
3.26592e-09
3.23826e-09
3.26775e-09
8.56654e-08
2.18673e-07
3.22932e-09
3.2258e-09
3.22666e-09
2.18623e-07
8.56503e-08
2.18644e-07
3.27473e-09
3.29555e-09
3.27199e-09
3.29509e-09
8.56571e-08
2.18681e-07
3.21903e-09
3.28108e-09
3.2509e-09
3.28111e-09
3.26687e-09
3.23852e-09
3.26712e-09
8.56655e-08
2.18672e-07
3.2305e-09
3.2237e-09
3.22629e-09
2.18623e-07
8.56499e-08
2.18644e-07
3.27551e-09
3.29558e-09
3.27143e-09
3.29519e-09
8.5657e-08
2.18681e-07
3.21902e-09
3.28152e-09
3.25449e-09
3.28125e-09
3.26701e-09
3.23823e-09
3.26783e-09
8.56654e-08
2.18672e-07
3.23099e-09
3.22682e-09
3.22954e-09
2.18622e-07
8.56503e-08
2.18645e-07
3.27513e-09
3.29475e-09
3.27103e-09
3.29419e-09
8.56575e-08
2.18681e-07
3.21968e-09
3.28104e-09
3.25452e-09
3.28098e-09
3.26683e-09
3.23758e-09
3.26707e-09
8.56657e-08
2.18673e-07
3.22946e-09
3.22585e-09
3.22708e-09
2.18624e-07
8.56503e-08
2.18645e-07
3.27473e-09
3.29412e-09
3.27178e-09
3.29524e-09
8.56574e-08
2.18682e-07
3.21935e-09
3.28094e-09
3.25461e-09
3.28184e-09
3.26467e-09
3.23787e-09
3.26782e-09
8.5666e-08
2.18674e-07
3.23287e-09
3.21843e-09
3.22617e-09
2.18624e-07
8.56505e-08
2.18645e-07
3.27497e-09
3.29478e-09
3.27157e-09
3.29543e-09
8.56572e-08
2.18682e-07
3.21947e-09
3.28114e-09
3.2543e-09
3.28178e-09
3.26597e-09
3.23835e-09
3.26819e-09
8.5666e-08
2.18673e-07
3.23002e-09
3.21918e-09
3.2275e-09
2.18624e-07
8.565e-08
2.18646e-07
3.27527e-09
3.29568e-09
3.27047e-09
3.29427e-09
8.56568e-08
2.18682e-07
3.21969e-09
3.2819e-09
3.2532e-09
3.28057e-09
3.267e-09
3.23731e-09
3.26708e-09
8.56656e-08
2.18674e-07
3.23135e-09
3.21813e-09
3.22643e-09
2.18625e-07
8.56499e-08
2.18647e-07
3.27483e-09
3.29486e-09
3.27054e-09
3.29452e-09
8.56569e-08
2.18682e-07
3.21924e-09
3.28103e-09
3.25331e-09
3.28076e-09
3.26549e-09
3.23758e-09
3.26678e-09
8.56657e-08
2.18674e-07
3.22993e-09
3.21891e-09
3.22677e-09
2.18625e-07
8.56501e-08
2.18645e-07
3.27414e-09
3.29459e-09
3.27169e-09
3.29525e-09
8.56571e-08
2.18682e-07
3.21861e-09
3.2807e-09
3.25453e-09
3.28161e-09
3.26628e-09
3.23848e-09
3.26739e-09
8.56659e-08
2.18673e-07
3.23391e-09
3.21947e-09
3.22707e-09
2.18624e-07
8.56499e-08
2.18644e-07
3.27522e-09
3.29523e-09
3.27138e-09
3.29579e-09
8.56571e-08
2.18681e-07
3.21979e-09
3.28158e-09
3.25451e-09
3.28169e-09
3.26713e-09
3.23879e-09
3.26764e-09
8.56657e-08
2.18672e-07
3.22971e-09
3.22012e-09
3.22886e-09
2.18622e-07
8.565e-08
2.18645e-07
3.27521e-09
3.29623e-09
3.26916e-09
3.29973e-09
8.56569e-08
2.18684e-07
3.22017e-09
3.28206e-09
3.24448e-09
3.28019e-09
3.26693e-09
3.2414e-09
3.26496e-09
8.56657e-08
2.18673e-07
3.23089e-09
3.21893e-09
3.22763e-09
2.18625e-07
8.56508e-08
2.18644e-07
3.27332e-09
3.30906e-09
3.26646e-09
3.2797e-09
8.56553e-08
2.18698e-07
3.2365e-09
3.2814e-09
3.24018e-09
3.28086e-09
3.26436e-09
3.24298e-09
3.26558e-09
8.56658e-08
2.18673e-07
3.22926e-09
3.21955e-09
3.22844e-09
2.18624e-07
8.56513e-08
2.18646e-07
3.27195e-09
3.25296e-09
3.26955e-09
3.28657e-09
8.5643e-08
2.18684e-07
3.23504e-09
3.2819e-09
3.23968e-09
3.28192e-09
3.26679e-09
3.23524e-09
3.26342e-09
8.56654e-08
2.18672e-07
3.23109e-09
3.22106e-09
3.2208e-09
2.18626e-07
8.56502e-08
2.18645e-07
3.27375e-09
3.28919e-09
3.27106e-09
3.29284e-09
8.56551e-08
2.18684e-07
3.23322e-09
3.28343e-09
3.23807e-09
3.27756e-09
3.25636e-09
3.24216e-09
3.28397e-09
8.56651e-08
2.18668e-07
3.20799e-09
3.22246e-09
3.22813e-09
2.18635e-07
8.56503e-08
2.18644e-07
3.27425e-09
3.29298e-09
3.27162e-09
3.29365e-09
8.56554e-08
2.18684e-07
3.23139e-09
3.27737e-09
3.23808e-09
3.27619e-09
3.28509e-09
3.2421e-09
3.28486e-09
8.56669e-08
2.18668e-07
3.2265e-09
3.22116e-09
3.22851e-09
2.18637e-07
8.56504e-08
2.18643e-07
3.27497e-09
3.29313e-09
3.27187e-09
3.29407e-09
8.56557e-08
2.18683e-07
3.23179e-09
3.27645e-09
3.23827e-09
3.27647e-09
3.28461e-09
3.24228e-09
3.28464e-09
8.56673e-08
2.18668e-07
3.22576e-09
3.22133e-09
3.22832e-09
2.18639e-07
8.565e-08
2.18644e-07
3.27576e-09
3.29434e-09
3.27161e-09
3.29366e-09
8.56553e-08
2.18685e-07
3.23254e-09
3.27756e-09
3.23801e-09
3.27611e-09
3.28489e-09
3.24121e-09
3.28341e-09
8.56668e-08
2.18669e-07
3.22621e-09
3.2198e-09
3.22744e-09
2.1864e-07
8.565e-08
2.18642e-07
3.2761e-09
3.29424e-09
3.27151e-09
3.2937e-09
8.56553e-08
2.18683e-07
3.23289e-09
3.2776e-09
3.23791e-09
3.27624e-09
3.28417e-09
3.24143e-09
3.28399e-09
8.56669e-08
2.18667e-07
3.22545e-09
3.21977e-09
3.22568e-09
2.18638e-07
8.56501e-08
2.18643e-07
3.27622e-09
3.29435e-09
3.27139e-09
3.29387e-09
8.56552e-08
2.18683e-07
3.23297e-09
3.27765e-09
3.23777e-09
3.27638e-09
3.2852e-09
3.24202e-09
3.28537e-09
8.56668e-08
2.18667e-07
3.22858e-09
3.22084e-09
3.22849e-09
2.18636e-07
8.56506e-08
2.18644e-07
3.27494e-09
3.29341e-09
3.27115e-09
3.29306e-09
8.56557e-08
2.18685e-07
3.23168e-09
3.27674e-09
3.23756e-09
3.27548e-09
3.28473e-09
3.24158e-09
3.28434e-09
8.56673e-08
2.18669e-07
3.22574e-09
3.22056e-09
3.22789e-09
2.18638e-07
8.565e-08
2.18644e-07
3.27527e-09
3.29377e-09
3.27118e-09
3.2928e-09
8.56549e-08
2.18685e-07
3.23203e-09
3.27705e-09
3.2376e-09
3.27525e-09
3.28605e-09
3.24144e-09
3.28418e-09
8.56665e-08
2.1867e-07
3.22713e-09
3.22035e-09
3.22705e-09
2.18639e-07
8.56497e-08
2.18643e-07
3.27629e-09
3.29422e-09
3.27153e-09
3.29404e-09
8.56549e-08
2.18683e-07
3.23307e-09
3.27745e-09
3.23761e-09
3.27647e-09
3.28512e-09
3.24262e-09
3.28605e-09
8.56665e-08
2.18667e-07
3.22773e-09
3.22172e-09
3.2306e-09
2.18634e-07
8.56499e-08
2.18645e-07
3.27584e-09
3.2943e-09
3.27041e-09
3.29323e-09
8.56552e-08
2.18685e-07
3.23333e-09
3.27763e-09
3.23543e-09
3.27561e-09
3.28629e-09
3.24177e-09
3.28355e-09
8.56668e-08
2.18669e-07
3.22835e-09
3.22078e-09
3.22803e-09
2.18639e-07
8.565e-08
2.18644e-07
3.27491e-09
3.29352e-09
3.27134e-09
3.29378e-09
8.56553e-08
2.18685e-07
3.23208e-09
3.27679e-09
3.23628e-09
3.27615e-09
3.28572e-09
3.24174e-09
3.28341e-09
8.56669e-08
2.18669e-07
3.22771e-09
3.22076e-09
3.22785e-09
2.1864e-07
8.565e-08
2.18643e-07
3.27524e-09
3.29311e-09
3.27137e-09
3.29383e-09
8.56555e-08
2.18684e-07
3.23232e-09
3.27639e-09
3.23603e-09
3.27643e-09
3.28448e-09
3.24137e-09
3.2843e-09
8.5667e-08
2.18669e-07
3.2264e-09
3.22029e-09
3.22838e-09
2.18639e-07
8.56501e-08
2.18643e-07
3.2753e-09
3.29411e-09
3.27197e-09
3.29387e-09
8.56553e-08
2.18684e-07
3.23197e-09
3.27784e-09
3.23573e-09
3.27854e-09
3.28506e-09
3.24135e-09
3.28545e-09
8.56667e-08
2.18669e-07
3.2265e-09
3.22211e-09
3.22667e-09
2.18641e-07
8.56502e-08
2.18644e-07
3.2762e-09
3.2934e-09
3.27153e-09
3.29474e-09
8.56556e-08
2.18683e-07
3.2319e-09
3.28004e-09
3.23475e-09
3.28088e-09
3.28551e-09
3.24175e-09
3.2906e-09
8.56672e-08
2.18662e-07
3.2219e-09
3.18458e-09
3.21017e-09
2.18631e-07
8.56499e-08
2.1864e-07
3.27644e-09
3.29547e-09
3.27453e-09
3.29598e-09
8.56551e-08
2.18682e-07
3.23207e-09
3.28007e-09
3.23839e-09
3.27613e-09
3.28988e-09
3.24333e-09
3.28455e-09
8.56694e-08
2.18665e-07
3.20817e-09
3.21665e-09
3.22394e-09
2.18635e-07
8.56494e-08
2.18642e-07
3.27788e-09
3.29569e-09
3.27179e-09
3.2945e-09
8.56545e-08
2.18682e-07
3.23416e-09
3.27654e-09
3.23633e-09
3.27589e-09
3.28557e-09
3.24158e-09
3.28395e-09
8.56655e-08
2.18667e-07
3.22201e-09
3.21743e-09
3.21193e-09
2.1864e-07
8.56483e-08
2.18642e-07
3.27732e-09
3.29518e-09
3.27026e-09
3.29341e-09
8.56539e-08
2.18682e-07
3.23416e-09
3.27754e-09
3.23513e-09
3.27549e-09
3.28337e-09
3.24172e-09
3.28466e-09
8.56651e-08
2.18666e-07
3.23494e-09
3.22067e-09
3.21844e-09
2.18637e-07
8.56487e-08
2.18641e-07
3.27419e-09
3.29289e-09
3.2717e-09
3.29405e-09
8.5654e-08
2.18682e-07
3.23126e-09
3.2759e-09
3.23666e-09
3.27632e-09
3.28348e-09
3.2416e-09
3.28364e-09
8.56654e-08
2.18666e-07
3.24097e-09
3.22147e-09
3.22769e-09
2.18636e-07
8.5649e-08
2.18642e-07
3.27446e-09
3.29369e-09
3.27131e-09
3.29401e-09
8.56539e-08
2.18682e-07
3.23158e-09
3.27702e-09
3.23634e-09
3.27633e-09
3.2851e-09
3.24151e-09
3.28444e-09
8.56653e-08
2.18666e-07
3.22634e-09
3.22131e-09
3.22876e-09
2.18636e-07
8.56481e-08
2.18642e-07
3.2762e-09
3.29443e-09
3.27091e-09
3.29331e-09
8.56537e-08
2.18682e-07
3.23336e-09
3.2778e-09
3.23591e-09
3.27552e-09
3.28626e-09
3.24151e-09
3.28347e-09
8.56651e-08
2.18666e-07
3.22745e-09
3.22153e-09
3.22823e-09
2.18637e-07
8.56487e-08
2.18642e-07
3.27422e-09
3.29305e-09
3.27157e-09
3.29426e-09
8.5654e-08
2.18682e-07
3.23139e-09
3.27634e-09
3.2366e-09
3.27649e-09
3.28536e-09
3.24172e-09
3.28453e-09
8.56654e-08
2.18666e-07
3.2269e-09
3.22189e-09
3.22866e-09
2.18635e-07
8.56482e-08
2.18643e-07
3.27599e-09
3.29384e-09
3.27022e-09
3.29286e-09
8.56537e-08
2.18683e-07
3.23316e-09
3.27717e-09
3.23526e-09
3.27505e-09
3.28515e-09
3.24146e-09
3.28448e-09
8.56651e-08
2.18667e-07
3.22599e-09
3.22317e-09
3.2295e-09
2.18636e-07
8.56481e-08
2.18642e-07
3.275e-09
3.29411e-09
3.27135e-09
3.29284e-09
8.56535e-08
2.18684e-07
3.23219e-09
3.2774e-09
3.23637e-09
3.27524e-09
3.28578e-09
3.24075e-09
3.2833e-09
8.56651e-08
2.18668e-07
3.22739e-09
3.21969e-09
3.22744e-09
2.18638e-07
8.56486e-08
2.18641e-07
3.27521e-09
3.29329e-09
3.27174e-09
3.29489e-09
8.56537e-08
2.1868e-07
3.23238e-09
3.27652e-09
3.23673e-09
3.27722e-09
3.2854e-09
3.24326e-09
3.28526e-09
8.56653e-08
2.18664e-07
3.22716e-09
3.22231e-09
3.22946e-09
2.18634e-07
8.56485e-08
2.18642e-07
3.27579e-09
3.29437e-09
3.27081e-09
3.29297e-09
8.5654e-08
2.18682e-07
3.23294e-09
3.27759e-09
3.23579e-09
3.2753e-09
3.28547e-09
3.24151e-09
3.28378e-09
8.56656e-08
2.18666e-07
3.22727e-09
3.2206e-09
3.22804e-09
2.18636e-07
8.56485e-08
2.18644e-07
3.27469e-09
3.29349e-09
3.27068e-09
3.29268e-09
8.56538e-08
2.18684e-07
3.23181e-09
3.2767e-09
3.23571e-09
3.27499e-09
3.2853e-09
3.24177e-09
3.28343e-09
8.56654e-08
2.18668e-07
3.22709e-09
3.22083e-09
3.22768e-09
2.18637e-07
8.56482e-08
2.18641e-07
3.27495e-09
3.2929e-09
3.27107e-09
3.29333e-09
8.56536e-08
2.18682e-07
3.23215e-09
3.27608e-09
3.23665e-09
3.27569e-09
3.28385e-09
3.24206e-09
3.28413e-09
8.56652e-08
2.18666e-07
3.22566e-09
3.22109e-09
3.22835e-09
2.18635e-07
8.56482e-08
2.18642e-07
3.27537e-09
3.2939e-09
3.27083e-09
3.29351e-09
8.56538e-08
2.18682e-07
3.23538e-09
3.27725e-09
3.2501e-09
3.27581e-09
3.28523e-09
3.24172e-09
3.2849e-09
8.56654e-08
2.18666e-07
3.22702e-09
3.22083e-09
3.22913e-09
2.18636e-07
8.56473e-08
2.18642e-07
3.27563e-09
3.29455e-09
3.27103e-09
3.29359e-09
8.56534e-08
2.18683e-07
3.2184e-09
3.27767e-09
3.25055e-09
3.27597e-09
3.28484e-09
3.24176e-09
3.28346e-09
8.5665e-08
2.18667e-07
3.22665e-09
3.22082e-09
3.2277e-09
2.18637e-07
8.56473e-08
2.18641e-07
3.27606e-09
3.29372e-09
3.27174e-09
3.29364e-09
8.56537e-08
2.18683e-07
3.21895e-09
3.2769e-09
3.25123e-09
3.27619e-09
3.28367e-09
3.24154e-09
3.28403e-09
8.56652e-08
2.18666e-07
3.22547e-09
3.22063e-09
3.22826e-09
2.18638e-07
8.56476e-08
2.1864e-07
3.2762e-09
3.29354e-09
3.27227e-09
3.29425e-09
8.56535e-08
2.18681e-07
3.21916e-09
3.27936e-09
3.25172e-09
3.2826e-09
3.28605e-09
3.24258e-09
3.28481e-09
8.56649e-08
2.187e-07
3.22783e-09
3.22096e-09
3.22901e-09
2.18634e-07
8.56477e-08
2.18642e-07
3.27665e-09
3.29455e-09
3.27054e-09
3.29357e-09
8.56538e-08
2.18683e-07
3.21962e-09
3.27144e-09
3.24998e-09
3.28218e-09
3.28581e-09
3.24156e-09
3.28339e-09
8.56661e-08
2.18702e-07
3.22758e-09
3.22019e-09
3.22769e-09
2.18637e-07
8.56477e-08
2.18645e-07
3.27457e-09
3.29313e-09
3.26999e-09
3.29317e-09
8.56537e-08
2.18685e-07
3.21759e-09
3.27013e-09
3.24944e-09
3.28176e-09
3.28485e-09
3.24126e-09
3.28332e-09
8.5666e-08
2.18704e-07
3.22669e-09
3.21979e-09
3.22774e-09
2.18638e-07
8.56471e-08
2.18642e-07
3.27536e-09
3.29324e-09
3.27137e-09
3.29433e-09
8.56535e-08
2.18682e-07
3.21831e-09
3.27039e-09
3.25084e-09
3.28562e-09
3.2848e-09
3.24284e-09
3.28532e-09
8.56658e-08
2.18703e-07
3.22653e-09
3.22154e-09
3.22933e-09
2.18635e-07
8.56474e-08
2.18641e-07
3.27607e-09
3.29408e-09
3.27073e-09
3.29457e-09
8.56539e-08
2.18682e-07
3.21905e-09
3.27147e-09
3.25071e-09
3.27535e-09
3.28618e-09
3.24098e-09
3.28579e-09
8.56675e-08
2.18677e-07
3.22798e-09
3.2188e-09
3.23367e-09
2.18635e-07
8.5647e-08
2.18645e-07
3.27592e-09
3.29574e-09
3.27547e-09
3.30091e-09
8.56535e-08
2.18681e-07
3.22006e-09
3.27651e-09
3.25364e-09
3.29882e-09
3.29547e-09
3.24921e-09
3.28087e-09
8.56653e-08
2.18671e-07
3.24346e-09
3.23451e-09
3.23824e-09
2.18625e-07
8.56413e-08
2.18656e-07
3.28816e-09
3.28533e-09
3.70526e-09
3.69334e-09
8.56488e-08
2.18661e-07
3.21829e-09
3.30766e-09
3.72341e-09
3.72616e-09
3.2678e-09
3.59426e-09
3.63148e-09
8.56597e-08
2.1867e-07
3.21737e-09
3.62032e-09
3.59255e-09
2.18613e-07
8.5644e-08
2.18565e-07
4.33195e-09
4.3737e-09
2.05406e-08
2.05967e-08
8.56093e-08
2.18559e-07
4.32675e-09
4.29443e-09
2.06167e-08
2.06472e-08
4.28753e-09
2.04718e-08
2.05635e-08
8.56409e-08
2.18561e-07
4.26272e-09
2.05122e-08
2.04539e-08
2.18553e-07
8.47996e-08
1.45787e-07
4.18356e-08
4.18731e-08
1.3989e-07
1.39671e-07
8.48037e-08
1.45799e-07
4.17525e-08
4.19267e-08
1.39814e-07
1.39618e-07
4.19042e-08
1.40127e-07
1.39897e-07
8.48729e-08
1.45734e-07
4.17463e-08
1.39894e-07
1.39762e-07
1.45725e-07
4.14435e-07
2.09972e-07
2.09801e-07
4.14367e-07
2.101e-07
2.09857e-07
3.82684e-07
3.82773e-07
3.8276e-07
2.0999e-07
4.14351e-07
2.10106e-07
6.73327e-08
2.82232e-07
1.83186e-07
1.8321e-07
4.97888e-07
3.72067e-07
4.09076e-07
2.42983e-07
4.97827e-07
3.72056e-07
2.42968e-07
4.08981e-07
4.94486e-07
4.12197e-07
4.12145e-07
2.59406e-06
0.000119863
2.68554e-06
0.000121491
0.000242343
0.000249874
2.59448e-06
0.000119879
2.68508e-06
0.00012151
8.75229e-07
8.74796e-07
8.75041e-07
1.20796e-07
1.20719e-07
1.20759e-07
1.20821e-07
1.94111e-07
4.02518e-06
7.47883e-07
5.16763e-07
1.44037e-07
3.17416e-06
4.66247e-07
0.000242336
0.000249859
1.93969e-07
7.47163e-07
4.02458e-06
5.16618e-07
1.43519e-07
4.6587e-07
3.17351e-06
6.81745e-06
6.81775e-06
2.15512e-07
6.80393e-06
6.80569e-06
2.48187e-06
0.000121138
2.47607e-06
0.000121135
0.000250304
0.000250298
2.48223e-06
0.000121155
2.47641e-06
0.000121152
5.83737e-08
5.83578e-08
5.83957e-08
8.12575e-09