/*--------------------------------*- C++ -*----------------------------------*\
| =========                 |                                                 |
| \\      /  F ield         | OpenFOAM: The Open Source CFD Toolbox           |
|  \\    /   O peration     | Version:  v1906                                 |
|   \\  /    A nd           | Web:      www.OpenFOAM.com                      |
|    \\/     M anipulation  |                                                 |
\*---------------------------------------------------------------------------*/
FoamFile
{
    version     2.0;
    format      ascii;
    class       volScalarField;
    location    "50";
    object      p;
}
// * * * * * * * * * * * * * * * * * * * * * * * * * * * * * * * * * * * * * //

dimensions      [0 2 -2 0 0 0 0];


internalField   nonuniform List<scalar> 
171728
(
0.00180075
0.00180255
0.00180254
0.00180075
0.00180255
0.00180254
0.00180254
0.00180254
0.00180075
0.00180255
0.00180254
0.00180074
0.00180256
0.00180257
0.00180257
0.00180256
0.00180025
0.00180026
0.00180027
0.00180027
0.00181439
0.00180027
0.00180028
0.00181439
0.00180026
0.0018144
0.00180028
0.00181431
0.00180035
0.00180255
0.0018121
0.00180036
0.00181431
0.00181209
0.00180033
0.00180255
0.00181432
0.0018121
0.00180036
0.00180026
0.0018144
0.00181389
0.00180026
0.00180025
0.00181439
0.00181439
0.00180024
0.00181439
0.00180027
0.00180027
0.00180034
0.00180255
0.00180036
0.00180028
0.00180028
0.00180255
0.00180035
0.00180036
0.0018143
0.00181209
0.00180033
0.00180255
0.00181431
0.0018121
0.00180034
0.00181439
0.00180026
0.00181439
0.00180027
0.0018143
0.00181209
0.00180254
0.00180032
0.00181209
0.00181431
0.00180034
0.00181438
0.00180024
0.00181438
0.00180026
0.00180027
0.00180028
0.00180027
0.00180027
0.0018143
0.00180255
0.00180034
0.0018121
0.00180036
0.0018143
0.00181208
0.00180254
0.00180032
0.00181209
0.00181431
0.00180035
0.00181439
0.00180027
0.00180027
0.00181439
0.00180024
0.00181439
0.00180026
0.00181388
0.00180025
0.00180025
0.00181438
0.00181438
0.00180023
0.00181439
0.00180022
0.0018144
0.00180484
0.00180486
0.00180482
0.00180031
0.00180484
0.00180027
0.00180483
0.0018048
0.00180028
0.00180482
0.00180031
0.00180484
0.00180027
0.00180483
0.0018048
0.00180029
0.00180487
0.00180025
0.00180025
0.00180485
0.00180485
0.00180024
0.00180982
0.00181441
0.00181439
0.00180983
0.00181441
0.00180981
0.00180983
0.00180487
0.00180484
0.00180026
0.00180486
0.00180027
0.00180487
0.00180484
0.00180027
0.00180028
0.00180486
0.00180484
0.00180026
0.00180981
0.00181441
0.00181439
0.00180983
0.0018144
0.00180981
0.00180982
0.00180485
0.00180483
0.00180026
0.00180485
0.00180026
0.0018098
0.00181441
0.00180982
0.00181442
0.00180981
0.00180486
0.00180484
0.00180027
0.00180027
0.00180486
0.00180484
0.00180026
0.00180484
0.00180981
0.00180979
0.00181441
0.00181441
0.0018144
0.0018098
0.0018098
0.00180481
0.0018003
0.00180483
0.00180026
0.00180479
0.00180481
0.00180029
0.00180481
0.0018003
0.00180482
0.00180025
0.00180481
0.00180479
0.00180029
0.00180984
0.00181438
0.00181435
0.00180982
0.00180986
0.00181435
0.00180982
0.00180984
0.00181438
0.00181434
0.00180981
0.00181435
0.00180982
0.00180986
0.00180485
0.00180021
0.00180021
0.00180484
0.00180484
0.00180022
0.00180483
0.00180979
0.00180488
0.00180485
0.00180027
0.00180487
0.00180026
0.00180487
0.00180484
0.00180028
0.00180026
0.00180485
0.00180486
0.00180026
0.0018049
0.00180485
0.00180026
0.00180487
0.00180026
0.00180487
0.00180484
0.00180026
0.00180027
0.00180486
0.00180484
0.00180026
0.00180982
0.00181439
0.00181439
0.00180982
0.0018144
0.00180982
0.0018098
0.00180487
0.00180483
0.00180025
0.00180485
0.00180026
0.00180983
0.00181441
0.00180981
0.00181441
0.00180981
0.00180487
0.00180483
0.00180026
0.00180025
0.00180483
0.00180485
0.00180026
0.00180979
0.0018144
0.00181438
0.00180982
0.00181439
0.0018098
0.00180981
0.00180482
0.00180481
0.00180023
0.00180482
0.00180021
0.0018098
0.00181439
0.0018098
0.0018144
0.00180979
0.00180483
0.00180483
0.00180025
0.00180026
0.00180484
0.00180482
0.00180023
0.00180486
0.00180483
0.00180031
0.00180485
0.00180028
0.0018048
0.00180484
0.00180029
0.00180483
0.0018003
0.00180484
0.00180028
0.00180484
0.0018048
0.00180029
0.00180487
0.00180025
0.00180025
0.00180486
0.00180486
0.00180024
0.00180485
0.00180982
0.00181439
0.0018144
0.00180982
0.0018144
0.00180981
0.0018098
0.00180487
0.00180484
0.00180025
0.00180485
0.00180023
0.00180982
0.00180981
0.00180485
0.00180483
0.00180027
0.00180024
0.00180483
0.00180484
0.00180024
0.0018098
0.00181438
0.0018144
0.00180982
0.0018144
0.00180981
0.0018098
0.00180484
0.00180481
0.00180023
0.00180483
0.00180023
0.00180981
0.0018144
0.00180981
0.00181441
0.0018098
0.00180484
0.00180483
0.00180026
0.00180025
0.00180482
0.00180484
0.00180024
0.00180979
0.00181438
0.00181438
0.00181439
0.00180978
0.00180979
0.0018048
0.00180029
0.00180481
0.00180025
0.00180478
0.0018048
0.00180027
0.0018048
0.00180029
0.00180481
0.00180025
0.00180478
0.00180481
0.00180027
0.00180983
0.00181437
0.00181434
0.0018098
0.00181436
0.00180985
0.00180981
0.00180984
0.00181437
0.00181434
0.00180981
0.00181436
0.00180984
0.00180982
0.00180484
0.00180022
0.00180022
0.00180484
0.00180484
0.00180022
0.00180481
0.00180979
0.00180482
0.0018098
0.0018047
0.00180434
0.00180053
0.00180054
0.00180457
0.00180458
0.00180041
0.00180469
0.00180434
0.00180053
0.00180053
0.00180457
0.00180457
0.00180041
0.0018047
0.00180434
0.00180054
0.00180053
0.00180457
0.00180457
0.00180041
0.00180468
0.00180433
0.00180052
0.00180052
0.00180456
0.00180456
0.00180039
0.00180256
0.00180256
0.00181211
0.00181211
0.00180256
0.00181212
0.00180256
0.00180256
0.00181211
0.00181211
0.0018121
0.00180256
0.00180256
0.00180256
0.00181211
0.0018121
0.00180256
0.00181211
0.00180256
0.00180256
0.00181211
0.00181211
0.0018121
0.00180256
0.00181008
0.00181431
0.00181412
0.00180991
0.00181413
0.00180991
0.00181009
0.00180459
0.00180045
0.00180477
0.00180035
0.00180465
0.00180476
0.00180052
0.00180457
0.00180475
0.00180036
0.00180053
0.00180475
0.00180457
0.00180053
0.00181008
0.00181431
0.00181412
0.00180991
0.00181413
0.00180991
0.00181008
0.00180458
0.00180045
0.00180476
0.00180035
0.00180476
0.00180464
0.00180051
0.00181006
0.00181431
0.0018142
0.00180989
0.00181415
0.00180991
0.00181
0.00180457
0.00180475
0.00180036
0.00180053
0.00180475
0.00180457
0.00180053
0.00180996
0.0018103
0.00181412
0.00181412
0.00181008
0.00181424
0.00181008
0.00180458
0.00180045
0.00180477
0.00180035
0.00180465
0.00180476
0.00180051
0.00180457
0.00180475
0.00180036
0.00180053
0.00180475
0.00180457
0.00180053
0.00180458
0.00180045
0.00180477
0.00180035
0.00180475
0.00180465
0.00180052
0.00180457
0.00180475
0.00180053
0.00180036
0.00180457
0.00180475
0.00180053
0.00181007
0.0018143
0.00181412
0.0018099
0.00181412
0.0018099
0.00181008
0.00180458
0.00180044
0.00180475
0.00180034
0.00180464
0.00180474
0.0018005
0.00181005
0.0018143
0.00181419
0.00180989
0.00181414
0.00180999
0.00180989
0.00180456
0.00180474
0.00180034
0.00180052
0.00180473
0.00180456
0.00180052
0.00181006
0.00181411
0.00181429
0.0018099
0.00181412
0.00181007
0.0018099
0.00180457
0.00180044
0.00180475
0.00180035
0.00180474
0.00180463
0.0018005
0.00181004
0.0018143
0.00181418
0.00180988
0.00181413
0.00180988
0.00180999
0.00180456
0.00180474
0.00180052
0.00180035
0.00180456
0.00180475
0.00180052
0.00181007
0.00181412
0.0018143
0.0018099
0.00181412
0.00181008
0.0018099
0.00180458
0.00180045
0.00180477
0.00180036
0.00180465
0.00180475
0.00180051
0.00181005
0.0018099
0.00180457
0.00180475
0.00180052
0.00180036
0.00180456
0.00180475
0.00180053
0.00181006
0.00181411
0.0018143
0.0018099
0.00181412
0.00181007
0.0018099
0.00180457
0.00180044
0.00180474
0.00180033
0.00180474
0.00180463
0.0018005
0.00181004
0.0018143
0.00181419
0.00180988
0.00181413
0.00180989
0.00180999
0.00180456
0.00180474
0.00180052
0.00180034
0.00180456
0.00180474
0.00180052
0.00180995
0.00181029
0.00181411
0.00181411
0.00181424
0.00181007
0.00181007
0.000837782
0.000837754
0.000837755
0.000839545
0.00080134
0.000839551
0.000807304
0.000837757
0.000837757
0.000809103
0.0008091
0.000839552
0.000807301
0.000837754
0.000837755
0.000809105
0.000809102
0.00083775
0.0008091
0.000809098
0.000839553
0.000807301
0.000837751
0.0008091
0.000809099
0.000807298
0.00079955
0.000799553
0.000825943
0.000840055
0.000825946
0.00084005
0.000840059
0.000825944
0.000825937
0.000840044
0.000825944
0.000840043
0.000837783
0.000837781
0.000837778
0.000809128
0.000809126
0.000809125
0.000809123
0.000826011
0.000839978
0.00083776
0.000828205
0.000826006
0.00082821
0.000839966
0.000840067
0.000825941
0.000826015
0.000837759
0.000839973
0.000828208
0.000828211
0.000826014
0.000839957
0.000840043
0.000840038
0.000826405
0.000825932
0.000825933
0.000801844
0.000801843
0.000840062
0.000825939
0.000840055
0.000825934
0.00084005
0.000840045
0.000826408
0.000825945
0.000825944
0.000806837
0.00082096
0.000806827
0.000820958
0.000820463
0.000806848
0.000806846
0.000820944
0.000820945
0.000825944
0.000840056
0.000825951
0.000840052
0.000826021
0.000839979
0.000837762
0.000828208
0.000826014
0.000828214
0.000839969
0.000826022
0.00083998
0.000837761
0.000828208
0.000826018
0.000828213
0.000839967
0.000820951
0.000806844
0.000820947
0.000806852
0.000820952
0.000806844
0.00082095
0.000806851
0.000820868
0.000818659
0.000806915
0.000809107
0.000820873
0.000818662
0.000806914
0.000820871
0.000818657
0.000806911
0.000809105
0.000820877
0.00081866
0.000806913
0.000840053
0.00084005
0.000826406
0.00082595
0.00082594
0.000840059
0.000825919
0.000806826
0.000820963
0.000820458
0.000806842
0.000806836
0.000820947
0.000820934
0.00080681
0.000820946
0.000826016
0.000839972
0.00083776
0.000828208
0.000826011
0.000828212
0.000839963
0.00082594
0.000840058
0.000825954
0.000840046
0.00082602
0.00083776
0.000839979
0.000828207
0.000828212
0.000826018
0.000839966
0.000820946
0.000806841
0.000820945
0.000806849
0.000820865
0.000818658
0.000806914
0.000809108
0.000820874
0.000818662
0.000806913
0.00082095
0.000806845
0.000820955
0.000806849
0.000820868
0.000818655
0.000809107
0.000806907
0.000818661
0.000820873
0.00080691
0.00082593
0.000840053
0.000825936
0.000840046
0.000826011
0.000837758
0.000839969
0.000828203
0.000828208
0.000826002
0.000839963
0.000825929
0.000840046
0.000825934
0.000840043
0.000820857
0.000818653
0.000806901
0.000809103
0.000820865
0.000818656
0.000806903
0.000820934
0.000806828
0.000820933
0.000806839
0.000820858
0.000818652
0.000809102
0.0008069
0.000818656
0.000820862
0.000806902
0.000820932
0.00080683
0.000820933
0.00080684
0.000840053
0.000840048
0.000826407
0.000825955
0.00082595
0.00084007
0.000825933
0.00080684
0.000820974
0.000820458
0.000806847
0.000806843
0.000820951
0.000820949
0.000806837
0.000820961
0.000826013
0.000837757
0.000839967
0.000828204
0.000828209
0.000826008
0.000839958
0.000825929
0.00084005
0.000825942
0.000840039
0.000825928
0.000840039
0.00082593
0.000840037
0.000820862
0.000818656
0.000809105
0.000806907
0.000818659
0.000820874
0.000806911
0.000820862
0.000818653
0.000809105
0.000806899
0.000818658
0.000820865
0.000806906
0.000820938
0.000806839
0.000820943
0.000806846
0.000820937
0.000806834
0.000820933
0.000806842
0.000840055
0.000825923
0.000840046
0.000825906
0.000820456
0.000806834
0.000806835
0.000820932
0.000820934
0.000806817
0.000820943
0.00080683
0.000820944
0.000799556
0.000801768
0.000801748
0.000801841
0.000801835
0.000801766
0.000801841
0.000801849
0.000801845
0.000830512
0.000825929
0.000825943
0.000830492
0.000830505
0.000830496
0.000825927
0.000835471
0.000835477
0.000840068
0.00083547
0.000840066
0.000830512
0.000825936
0.000830502
0.000830511
0.00082592
0.000835476
0.000835488
0.000840066
0.00084005
0.000835476
0.000835489
0.000840065
0.000835469
0.000830507
0.000830506
0.000825939
0.00082593
0.000830489
0.000830494
0.000830506
0.000825927
0.000835424
0.000835467
0.000840044
0.000835453
0.000840023
0.000830504
0.000825931
0.000830495
0.000830503
0.000825918
0.000835459
0.000835485
0.000840041
0.000840058
0.000835484
0.00083547
0.000840046
0.00083548
0.000830521
0.0008305
0.000825887
0.000825885
0.000830476
0.000830474
0.000825897
0.000835495
0.000839998
0.000835469
0.000840031
0.000835512
0.000835471
0.000840003
0.000835494
0.000839998
0.000835465
0.000840027
0.000835513
0.000835468
0.000840002
0.000830469
0.000825935
0.000830484
0.000825962
0.000830448
0.00083047
0.000825956
0.000830469
0.00082593
0.000830482
0.000825973
0.000830454
0.000830465
0.000825957
0.000835445
0.000840069
0.000840067
0.000835445
0.000835444
0.000840052
0.000797291
0.000801802
0.000801834
0.000797256
0.000801824
0.000797309
0.000797265
0.00079729
0.000801804
0.000801834
0.000797256
0.000801824
0.00079731
0.000797263
0.000797244
0.000801843
0.000801842
0.000801863
0.000797243
0.000797243
0.000835467
0.000830515
0.000835461
0.000830504
0.000830512
0.000825894
0.000825895
0.0008305
0.000830498
0.000825911
0.000835504
0.000840008
0.000835478
0.000840038
0.000835485
0.000835521
0.000840028
0.000835504
0.000840006
0.000835475
0.000840035
0.000835483
0.000835521
0.000840028
0.000830474
0.000825947
0.000830495
0.000825973
0.000830484
0.000825971
0.000830456
0.000830474
0.000825946
0.000830494
0.000825974
0.000830481
0.00082597
0.000830459
0.00083546
0.000840049
0.000840047
0.000835465
0.000835464
0.000840064
0.000811409
0.00081637
0.000811424
0.000816375
0.000816378
0.000820964
0.000820965
0.000820972
0.000816385
0.000816385
0.000811374
0.000806869
0.000811408
0.000806856
0.000811402
0.000811362
0.000806849
0.000811374
0.000806872
0.000811407
0.000806854
0.000811405
0.000811357
0.000806849
0.000816414
0.000820941
0.000820908
0.000816385
0.000820931
0.000816402
0.000816423
0.000816415
0.000820942
0.00082091
0.000816387
0.000820931
0.000816402
0.000816422
0.000811429
0.000806844
0.000806843
0.000811442
0.000811443
0.000806816
0.00083052
0.000825931
0.000825945
0.000830493
0.000830507
0.000830497
0.000825936
0.000835467
0.000835481
0.000840067
0.000835469
0.00084008
0.000830503
0.00082594
0.000830504
0.000830514
0.00082592
0.000835481
0.00083549
0.000840067
0.000840051
0.000835478
0.000835491
0.000840068
0.000816382
0.000820965
0.000820949
0.000816393
0.000820967
0.000816382
0.00081639
0.000811427
0.000811407
0.000806828
0.000806806
0.000811417
0.000816384
0.000820961
0.000816381
0.000820976
0.000816376
0.000811421
0.000811406
0.000806846
0.000806848
0.000806825
0.000811425
0.000811404
0.0008164
0.000820967
0.000820957
0.000816395
0.00082097
0.000816387
0.000816396
0.000811459
0.000811413
0.000806847
0.000811441
0.00080686
0.000816389
0.000820967
0.000816387
0.00082096
0.000816389
0.000811461
0.000811406
0.000806851
0.000806848
0.000811432
0.000811407
0.00080686
0.000830521
0.000825911
0.000825906
0.000830511
0.000830509
0.000825915
0.000835507
0.000840013
0.000835483
0.000840044
0.000835491
0.000835525
0.000840028
0.000835506
0.000840009
0.000835477
0.000840045
0.00083552
0.000835491
0.000840028
0.000830477
0.000825954
0.000830503
0.000825976
0.000830489
0.000830465
0.000825966
0.000830475
0.000825944
0.000830492
0.000825974
0.000830457
0.000830486
0.000825965
0.000835468
0.000840067
0.000840067
0.000835477
0.000835476
0.000840073
0.000835468
0.000830503
0.000811419
0.000816371
0.000816371
0.000820983
0.000820978
0.00082097
0.000816368
0.000816367
0.000811376
0.000806872
0.000811404
0.000806847
0.00081136
0.000811393
0.000806853
0.000811375
0.00080687
0.000811394
0.000806842
0.000811387
0.000811354
0.000806852
0.000816417
0.000820945
0.000820909
0.000816389
0.000816429
0.00082092
0.000816395
0.000816413
0.000820937
0.000820904
0.000816377
0.000820918
0.000816391
0.000816419
0.000811417
0.000806822
0.000806819
0.000811412
0.00081141
0.00080681
0.000811402
0.000816359
0.000830518
0.000825929
0.000825943
0.000830491
0.000830506
0.000830498
0.000825934
0.000835484
0.000835485
0.000840067
0.000835474
0.000840077
0.000830527
0.000825943
0.000830509
0.000830518
0.000825952
0.000835479
0.000835487
0.000840061
0.000840049
0.000835474
0.000835489
0.000840066
0.000816376
0.000820949
0.000820964
0.000816389
0.000820962
0.000816394
0.000816375
0.000811398
0.000811407
0.000806837
0.000806824
0.000811423
0.000816353
0.000820957
0.000816382
0.000820953
0.000816375
0.000811418
0.000811402
0.000806846
0.000806845
0.000806837
0.000811406
0.000811416
0.000816379
0.000820966
0.000820947
0.000816391
0.000820968
0.00081638
0.000816386
0.000811421
0.000811406
0.000806836
0.000811417
0.000806857
0.000816388
0.000820966
0.000816386
0.000820996
0.000816376
0.000811418
0.000811403
0.000806845
0.000806846
0.000811419
0.000811401
0.000806834
0.000830501
0.000825927
0.000825913
0.000830485
0.000830486
0.000830492
0.000825914
0.000835473
0.000835475
0.000840062
0.00083546
0.000840076
0.00083051
0.00082592
0.000830494
0.000830499
0.000825932
0.000835466
0.000835483
0.000840045
0.000840055
0.00083548
0.000835464
0.000840059
0.000830494
0.000825913
0.000825931
0.000830483
0.000830491
0.000830489
0.000825909
0.000835437
0.000835466
0.00084005
0.000835452
0.000840058
0.000830493
0.00082592
0.000830489
0.000830497
0.000825914
0.000835457
0.00083548
0.000840057
0.000840041
0.000835464
0.000835479
0.000840053
0.000816354
0.000820931
0.000820946
0.000816376
0.000820942
0.000816374
0.00081636
0.000811404
0.000811391
0.000806812
0.0008114
0.000806808
0.000816336
0.000820937
0.000816365
0.00082095
0.000816352
0.000811397
0.00081139
0.000806835
0.000806829
0.000811392
0.000811404
0.00080681
0.000816366
0.000820945
0.000820932
0.000816373
0.000820946
0.000816361
0.00081637
0.000811422
0.000811393
0.000806817
0.000811405
0.000806816
0.000816363
0.000820943
0.000816368
0.000820946
0.00081636
0.000811408
0.00081139
0.000806831
0.000806837
0.000811407
0.000811389
0.000806814
0.000830527
0.000825935
0.000825933
0.000830525
0.000830522
0.000825926
0.000835518
0.000840009
0.000835485
0.000840045
0.000835496
0.000835523
0.000840032
0.000835517
0.000840002
0.000835477
0.000840044
0.000835524
0.000835492
0.000840031
0.000830478
0.000825962
0.000830503
0.000825979
0.000830499
0.00083046
0.000825966
0.000830477
0.00082596
0.000830497
0.000825974
0.00083046
0.000830493
0.000825964
0.000835473
0.000840059
0.000840058
0.000835466
0.000835463
0.000840072
0.000835463
0.000830503
0.000811416
0.000816378
0.00081638
0.000820982
0.00082098
0.00082098
0.000816381
0.00081638
0.000811365
0.000806862
0.000811405
0.000806856
0.000811351
0.000811406
0.000806841
0.000811365
0.00080686
0.000811405
0.000806855
0.000811408
0.00081135
0.00080684
0.000816417
0.00082095
0.000820908
0.000816386
0.000816421
0.000820928
0.000816404
0.000816417
0.000820947
0.00082091
0.000816386
0.000820927
0.000816403
0.00081642
0.000811431
0.00080685
0.00080685
0.000811459
0.000811459
0.000806813
0.000811424
0.000816379
0.000830503
0.00082593
0.000825913
0.000830479
0.000830483
0.00083049
0.000825918
0.000835441
0.000835471
0.00084005
0.000835454
0.000840048
0.000830484
0.000825926
0.000830495
0.000830503
0.000825916
0.000835455
0.000835478
0.000840042
0.000840048
0.00083548
0.000835459
0.000840036
0.000830503
0.000825928
0.000825912
0.00083048
0.000830476
0.000830491
0.000825905
0.000835449
0.000835462
0.000840048
0.000835454
0.000840043
0.000830501
0.000825917
0.000830485
0.000830497
0.0008259
0.000835456
0.000835478
0.00084004
0.000840049
0.000835478
0.00083546
0.000840041
0.000816365
0.000820939
0.000820946
0.000816381
0.000820947
0.000816383
0.000816366
0.000811402
0.000811405
0.000806827
0.000811414
0.000806806
0.000816347
0.000820949
0.00081638
0.000820947
0.000816369
0.000811405
0.000811397
0.000806842
0.000806834
0.0008114
0.00081141
0.000806819
0.000816361
0.000820938
0.000820946
0.000816381
0.000820931
0.000816376
0.000816365
0.000811419
0.000811397
0.000806821
0.000811409
0.00080682
0.00081636
0.00082094
0.000816372
0.000820933
0.000816362
0.000811407
0.000811396
0.00080684
0.000806837
0.000811393
0.000811411
0.000806817
0.000835458
0.000830502
0.00083545
0.000830486
0.000816369
0.000820953
0.000820953
0.000820964
0.000816371
0.000816373
0.00081136
0.000806867
0.000811389
0.00080684
0.000806853
0.000811351
0.000811385
0.000811361
0.000806863
0.000811392
0.000806844
0.000806853
0.000811349
0.000811389
0.000816405
0.00082093
0.0008209
0.000816371
0.000820922
0.000816413
0.000816388
0.000816405
0.000820929
0.000820904
0.000816374
0.000820922
0.000816413
0.00081639
0.000811413
0.000806811
0.000806812
0.000806807
0.000811429
0.000811431
0.000811396
0.000816356
0.000811407
0.000816365
0.000797234
0.000801848
0.000797248
0.000801844
0.000797236
0.000797244
0.000797255
0.00080185
0.000801837
0.000801849
0.000797231
0.000797252
0.000797248
0.000797238
0.000797235
0.000837773
0.000837773
0.000828235
0.000828225
0.000828225
0.000828218
0.000837767
0.000835618
0.000839776
0.000839776
0.00083596
0.000835743
0.000835742
0.000839898
0.000797417
0.000801573
0.000801574
0.000797762
0.000801706
0.000797543
0.000797543
0.000835627
0.000839784
0.000839783
0.000835964
0.000835749
0.000835748
0.000839911
0.000811254
0.000810899
0.00080709
0.000807089
0.000811131
0.000811131
0.000806969
0.000835627
0.000839787
0.000839785
0.000835966
0.00083575
0.000835753
0.000839912
0.000811255
0.000810897
0.000807089
0.000807087
0.00081113
0.000811129
0.000806968
0.00083563
0.000839785
0.000839785
0.000835967
0.000835752
0.000835752
0.000839912
0.000811246
0.000810896
0.000807086
0.000807085
0.000811126
0.000811126
0.000806963
0.000811247
0.000810898
0.000807085
0.000807085
0.000806969
0.000811128
0.000811128
0.000837773
0.000837773
0.000828235
0.000828225
0.000828224
0.000828217
0.000837767
0.000837773
0.000837771
0.000828234
0.000828225
0.000828224
0.000828217
0.000837766
0.000837773
0.000837769
0.00082823
0.000828223
0.000828222
0.000828216
0.000837765
0.000818682
0.000809118
0.000809118
0.000818672
0.000818672
0.000818667
0.000809113
0.000818681
0.000809117
0.000809116
0.000818671
0.00081867
0.000818666
0.000809111
0.00081868
0.000809118
0.000809116
0.000818672
0.00081867
0.000818666
0.000809112
0.000818676
0.000809116
0.000809116
0.00081867
0.000818669
0.000818665
0.000809111
0.000830231
0.000826011
0.000826184
0.000830412
0.000830408
0.000830232
0.000826182
0.000835716
0.00083986
0.000835547
0.000839961
0.000835662
0.000835553
0.000839804
0.000830248
0.000826004
0.000830421
0.000826109
0.000830308
0.000830411
0.000826165
0.000835732
0.000835567
0.000839962
0.000839783
0.000835563
0.00083574
0.000839787
0.000830234
0.000826186
0.000826019
0.000830411
0.000830233
0.000830409
0.000826187
0.000835717
0.000839856
0.000835551
0.000839963
0.000835664
0.000835563
0.000839801
0.000830253
0.00082602
0.000830428
0.000826114
0.000830312
0.000830428
0.000826171
0.000835732
0.000835563
0.000839776
0.000839963
0.000835736
0.000835564
0.000839784
0.00083035
0.000830002
0.000826188
0.000826189
0.000830229
0.00083023
0.000826067
0.000830357
0.000830003
0.000826194
0.000826193
0.000826077
0.000830232
0.000830233
0.000816524
0.000816865
0.000820692
0.000820692
0.000820813
0.000816649
0.000816647
0.000830238
0.000826024
0.00082619
0.00083042
0.000830417
0.000830238
0.000826189
0.000835721
0.00083986
0.000835552
0.000839972
0.000835561
0.000835663
0.000839807
0.000830255
0.000826026
0.000830428
0.000826112
0.000830421
0.00083031
0.000826173
0.000835738
0.000835573
0.000839967
0.000839784
0.000835571
0.000835745
0.000839791
0.000830237
0.000826025
0.000826191
0.00083042
0.000830416
0.000830237
0.00082619
0.000835723
0.000839863
0.000835556
0.000839967
0.000835569
0.000835668
0.000839806
0.000830257
0.000826033
0.000830435
0.000826116
0.000830434
0.000826177
0.000830314
0.000835736
0.000835573
0.000839965
0.000839782
0.00083557
0.000835742
0.000839789
0.000816634
0.000820866
0.000820686
0.00081647
0.00082069
0.000816471
0.00081664
0.000811152
0.000807012
0.000811335
0.000806932
0.000811211
0.000811324
0.000807074
0.000816616
0.000820867
0.000820763
0.000816455
0.000816563
0.000820707
0.000816462
0.000811134
0.000811316
0.000806924
0.000807077
0.000811321
0.000811126
0.000807085
0.000816631
0.000820869
0.000820686
0.000816473
0.00082069
0.000816467
0.000816639
0.000811147
0.00080701
0.000811333
0.000806911
0.000811321
0.000811208
0.000807068
0.000816615
0.00082088
0.000820765
0.000816459
0.00082071
0.000816471
0.000816565
0.000811129
0.000811313
0.000806905
0.000807076
0.000811301
0.000811124
0.000807081
0.000830358
0.000830004
0.000826193
0.000826192
0.000830233
0.000830235
0.000826075
0.000816526
0.000816862
0.00082069
0.000820687
0.000816648
0.000820809
0.000816645
0.000830235
0.000826023
0.000826188
0.000830415
0.000830415
0.000830234
0.000826188
0.000835718
0.000839857
0.000835549
0.000839975
0.000835575
0.000835662
0.000839804
0.000830252
0.000826026
0.000830424
0.000826113
0.000830422
0.000830309
0.000826173
0.000835733
0.000835567
0.000839963
0.00083978
0.000835569
0.000835738
0.000839785
0.000830235
0.00082619
0.000826022
0.000830419
0.000830236
0.000830417
0.000826188
0.00083572
0.000839861
0.000835555
0.000839967
0.000835563
0.000835667
0.000839804
0.000830254
0.000826018
0.00083043
0.000826115
0.000830422
0.000826171
0.000830313
0.000835735
0.00083557
0.000839781
0.000839964
0.000835741
0.000835571
0.000839788
0.000816634
0.000820866
0.000820685
0.000816471
0.000820689
0.00081647
0.00081664
0.000811153
0.000807013
0.000811334
0.000806926
0.00081121
0.000811339
0.000807073
0.000816617
0.000820875
0.000820763
0.000816459
0.000816563
0.000820707
0.000816477
0.000811136
0.000811318
0.000806918
0.000807077
0.000811319
0.000811128
0.000807086
0.000816632
0.000820684
0.000820863
0.000816468
0.000820688
0.000816638
0.000816467
0.000811147
0.000807006
0.000811329
0.000806904
0.000811318
0.000811206
0.000807065
0.000816613
0.000820859
0.000820761
0.000816454
0.000820703
0.000816457
0.000816561
0.000811131
0.000811313
0.000807077
0.000806914
0.000811127
0.000811313
0.000807082
0.00083023
0.000826183
0.000826013
0.000830412
0.000830231
0.000830409
0.000826181
0.000835716
0.000839852
0.000835542
0.000839959
0.000835656
0.000835561
0.000839801
0.000830247
0.000826011
0.000830416
0.000826104
0.000830303
0.000830415
0.000826164
0.000835731
0.000835566
0.000839781
0.000839962
0.000835738
0.000835566
0.000839785
0.000816625
0.000820856
0.000820678
0.00081646
0.000820682
0.000816462
0.000816632
0.000811142
0.000807006
0.000811319
0.000806906
0.000807065
0.000811203
0.000811311
0.000816609
0.000820853
0.000820757
0.000816445
0.000820699
0.000816556
0.00081646
0.000811126
0.000811305
0.000806909
0.000807069
0.000807078
0.000811306
0.000811119
0.000816626
0.000820679
0.000820856
0.000816462
0.000820683
0.000816633
0.000816459
0.00081114
0.000807004
0.000811318
0.000806905
0.000811306
0.000811202
0.000807063
0.000816605
0.000820859
0.000820755
0.000816441
0.000820698
0.000816452
0.000816555
0.000811126
0.000811305
0.000807068
0.000806909
0.000811118
0.000811306
0.000807077
0.000830357
0.000830005
0.000826193
0.000826193
0.000830236
0.000830234
0.000826077
0.000816525
0.00081686
0.000820689
0.000820691
0.000816645
0.000820816
0.000816644
0.000830231
0.000826185
0.000826021
0.00083041
0.00083023
0.000830407
0.000826184
0.000835713
0.000839851
0.00083554
0.000839963
0.000835655
0.000835555
0.000839797
0.000830248
0.000826018
0.000830418
0.000826108
0.000830304
0.000830412
0.000826168
0.000835729
0.000835564
0.000839776
0.000839957
0.000835734
0.00083556
0.000839781
0.000816631
0.00082068
0.000820865
0.000816465
0.000820688
0.000816635
0.000816471
0.000811147
0.000807006
0.000811331
0.000806923
0.000807068
0.000811206
0.000811328
0.000816614
0.000820869
0.00082076
0.000816455
0.000820704
0.00081656
0.000816472
0.000811131
0.000811311
0.000807073
0.000806919
0.000807082
0.000811123
0.000811319
0.000816628
0.000820681
0.000820868
0.000816464
0.000820685
0.000816635
0.000816466
0.000811142
0.000807005
0.000811321
0.000806905
0.000811311
0.000811202
0.000807064
0.000816608
0.000820865
0.000820756
0.000816445
0.000820701
0.000816458
0.000816556
0.000811128
0.000811311
0.000807073
0.000806913
0.000811122
0.000811312
0.000807079
0.000816515
0.000816859
0.000820684
0.000820685
0.000820804
0.000816641
0.00081664
0.000797507
0.00080165
0.000801759
0.00079733
0.000797451
0.000801594
0.000797345
0.000797526
0.000797356
0.000801568
0.000801747
0.000797539
0.000801573
0.000797351
0.00080165
0.000797328
0.000797452
0.00179302
0.00179299
0.00179299
0.00179478
0.0017548
0.00175478
0.00175478
0.00175658
0.00171659
0.00171657
0.00171656
0.00171837
0.00167838
0.00167834
0.00167834
0.00168014
0.00164016
0.00164013
0.00164013
0.00164193
0.00160196
0.00160194
0.00160194
0.00160373
0.00156376
0.00156374
0.00156373
0.00156554
0.00152556
0.00152553
0.00152554
0.00152733
0.00148735
0.00148732
0.00148732
0.00148912
0.00144914
0.00144911
0.00144911
0.00145091
0.00141094
0.00141091
0.00141091
0.00141271
0.00137272
0.0013727
0.0013727
0.00137449
0.0013345
0.00133447
0.00133448
0.00133627
0.00129629
0.00129626
0.00129626
0.00129806
0.00125808
0.00125805
0.00125805
0.00125985
0.00121987
0.00121985
0.00121984
0.00122164
0.00118167
0.00118164
0.00118164
0.00118343
0.00114346
0.00114344
0.00114344
0.00114524
0.00110526
0.00110523
0.00110523
0.00110703
0.00106705
0.00106702
0.00106702
0.00106882
0.00102884
0.00102881
0.00102881
0.00103061
0.000990635
0.000990604
0.000990602
0.000992403
0.000952423
0.000952399
0.000952404
0.000954197
0.000914209
0.000914185
0.000914187
0.000915984
0.000875995
0.00087597
0.000875962
0.000877762
0.0017948
0.00176253
0.001793
0.00179299
0.00176433
0.00176433
0.00179479
0.00176253
0.001793
0.00179299
0.00176433
0.00176433
0.00179299
0.00176433
0.00176433
0.0017948
0.00176253
0.00179298
0.00176433
0.00176433
0.00176254
0.00175657
0.00172431
0.00175477
0.00175478
0.00172611
0.00172612
0.00175658
0.00172432
0.00175477
0.00175478
0.00172611
0.00172612
0.00175478
0.00172612
0.00172613
0.00175658
0.00172432
0.00175478
0.00172612
0.00172612
0.00172433
0.00171836
0.00168611
0.00171656
0.00171657
0.0016879
0.0016879
0.00171837
0.0016861
0.00171656
0.00171656
0.0016879
0.0016879
0.00171657
0.0016879
0.0016879
0.00171836
0.0016861