/*--------------------------------*- C++ -*----------------------------------*\
| =========                 |                                                 |
| \\      /  F ield         | OpenFOAM: The Open Source CFD Toolbox           |
|  \\    /   O peration     | Version:  v1906                                 |
|   \\  /    A nd           | Web:      www.OpenFOAM.com                      |
|    \\/     M anipulation  |                                                 |
\*---------------------------------------------------------------------------*/
FoamFile
{
    version     2.0;
    format      ascii;
    class       volScalarField;
    location    "350";
    object      k;
}
// * * * * * * * * * * * * * * * * * * * * * * * * * * * * * * * * * * * * * //

dimensions      [0 2 -2 0 0 0 0];


internalField   nonuniform List<scalar> 
42840
(
3.85999e-05
5.14074e-05
5.14107e-05
5.36221e-05
5.38535e-05
5.36212e-05
5.37927e-05
5.14097e-05
5.14104e-05
5.16308e-05
5.16319e-05
5.36204e-05
5.37936e-05
5.14098e-05
5.14086e-05
5.16312e-05
5.16299e-05
5.14099e-05
5.16293e-05
5.16321e-05
5.36193e-05
5.37929e-05
5.14115e-05
5.16322e-05
5.16334e-05
5.37998e-05
5.17107e-05
5.1712e-05
6.87562e-05
7.34375e-05
7.34654e-05
6.87131e-05
7.11627e-05
7.11881e-05
6.87593e-05
7.34447e-05
7.34732e-05
6.87171e-05
3.85989e-05
3.86028e-05
3.86013e-05
3.89402e-05
3.89395e-05
3.89431e-05
3.89422e-05
6.08641e-05
6.49424e-05
4.66074e-05
5.14802e-05
6.49858e-05
4.66957e-05
6.07968e-05
7.11611e-05
7.11869e-05
6.08656e-05
4.66131e-05
6.4943e-05
5.14835e-05
4.67014e-05
6.49871e-05
6.07991e-05
7.00436e-05
7.00569e-05
5.36733e-05
7.00699e-05
7.00829e-05
7.012e-05
7.01321e-05
7.11606e-05
7.11863e-05
7.11638e-05
7.11893e-05
7.00419e-05
7.00544e-05
5.36718e-05
7.00684e-05
7.00808e-05
7.12128e-05
7.11879e-05
7.12156e-05
7.11908e-05
5.37473e-05
7.01069e-05
7.01193e-05
7.00822e-05
7.00946e-05
6.87597e-05
7.34433e-05
7.34699e-05
6.87175e-05
6.08594e-05
6.49403e-05
4.66095e-05
5.14825e-05
6.49841e-05
4.66981e-05
6.07919e-05
6.08611e-05
6.49469e-05
4.6611e-05
5.14833e-05
6.49907e-05
4.66994e-05
6.07942e-05
6.87641e-05
7.34967e-05
7.34711e-05
6.88035e-05
6.87664e-05
7.3501e-05
7.34757e-05
6.88059e-05
6.08719e-05
5.15622e-05
6.50365e-05
4.68774e-05
6.49938e-05
4.67936e-05
6.09346e-05
6.08733e-05
5.15631e-05
6.50429e-05
4.68788e-05
6.50002e-05
4.67951e-05
6.09377e-05
7.00554e-05
7.00405e-05
5.3671e-05
7.00816e-05
7.00667e-05
7.11598e-05
7.11853e-05
7.12143e-05
7.11896e-05
5.37471e-05
7.01202e-05
7.01046e-05
7.00955e-05
7.00805e-05
7.12114e-05
7.11866e-05
6.08645e-05
6.49487e-05
4.66103e-05
5.14827e-05
6.49923e-05
4.66992e-05
6.07978e-05
6.87589e-05
7.34389e-05
7.34668e-05
6.8717e-05
6.08627e-05
4.66099e-05
6.49428e-05
5.14814e-05
4.66984e-05
6.49861e-05
6.07961e-05
6.87671e-05
7.35038e-05
7.34771e-05
6.88072e-05
6.08793e-05
5.15627e-05
6.50443e-05
4.6879e-05
6.50023e-05
4.6795e-05
6.09416e-05
6.87665e-05
7.34984e-05
7.34709e-05
6.88053e-05
6.08775e-05
5.15613e-05
4.68782e-05
6.50387e-05
4.67944e-05
6.49971e-05
6.09398e-05
6.87611e-05
7.34445e-05
7.34707e-05
6.87187e-05
6.0864e-05
4.66098e-05
6.49444e-05
5.1483e-05
4.66983e-05
6.4988e-05
6.07966e-05
6.87606e-05
7.34407e-05
7.34674e-05
6.87183e-05
6.08766e-05
5.15606e-05
6.50386e-05
4.68757e-05
6.49966e-05
4.67923e-05
6.09386e-05
6.87678e-05
7.35016e-05
7.34765e-05
6.88063e-05
6.08761e-05
5.15633e-05
4.68784e-05
6.50397e-05
4.67947e-05
6.49979e-05
6.0939e-05
6.87669e-05
7.34978e-05
7.3473e-05
6.88065e-05
7.00476e-05
7.00429e-05
5.36705e-05
7.00741e-05
7.00692e-05
7.11611e-05
7.11866e-05
7.12132e-05
7.11881e-05
5.37463e-05
7.01127e-05
7.01075e-05
7.00878e-05
7.00829e-05
7.12129e-05
7.11881e-05
6.08687e-05
4.66147e-05
6.49508e-05
5.14846e-05
4.67031e-05
6.49944e-05
6.08016e-05
6.87592e-05
7.34409e-05
7.34679e-05
6.87173e-05
6.87641e-05
7.34444e-05
7.34703e-05
6.87211e-05
6.08789e-05
5.15637e-05
4.68813e-05
6.50386e-05
4.67979e-05
6.49964e-05
6.09404e-05
6.08812e-05
5.15647e-05
4.6883e-05
6.50459e-05
4.67994e-05
6.50039e-05
6.0942e-05
6.87663e-05
7.34986e-05
7.34734e-05
6.8805e-05
6.87707e-05
7.35008e-05
7.3476e-05
6.88083e-05
7.11607e-05
7.11857e-05
7.11631e-05
7.11881e-05
5.37427e-05
7.01081e-05
7.01203e-05
7.00837e-05
7.00964e-05
7.12114e-05
7.11871e-05
7.12138e-05
7.11895e-05
4.69728e-05
6.5048e-05
6.09505e-05
7.35034e-05
6.88123e-05
6.50538e-05
7.35064e-05
7.12126e-05
7.12151e-05
7.18383e-05
7.16152e-05
7.17606e-05
6.87391e-05
7.16055e-05
7.17456e-05
7.18477e-05
7.16689e-05
7.34499e-05
7.98499e-05
7.98557e-05
7.1654e-05
7.16672e-05
7.98738e-05
7.34551e-05
7.98688e-05
7.1682e-05
7.18332e-05
6.87313e-05
7.159e-05
7.17224e-05
7.16006e-05
7.17379e-05
7.18235e-05
7.11747e-05
7.11763e-05
7.18406e-05
7.17701e-05
7.1619e-05
6.87422e-05
7.1753e-05
7.16066e-05
7.18525e-05
7.16719e-05
7.3457e-05
7.98697e-05
7.98821e-05
7.16575e-05
7.16706e-05
7.98994e-05
7.34611e-05
7.9888e-05
7.1685e-05
7.18375e-05
6.87345e-05
7.17307e-05
7.15914e-05
7.17478e-05
7.16041e-05
7.1827e-05
7.11735e-05
7.11748e-05
9.50972e-05
7.34955e-05
7.34894e-05
7.34822e-05
7.3476e-05
9.51005e-05
7.43229e-05
6.54171e-05
7.00503e-05
7.32802e-05
6.5438e-05
7.32934e-05
7.43156e-05
7.43721e-05
6.54265e-05
7.00636e-05
7.32902e-05
6.54481e-05
7.33037e-05
7.4365e-05
7.43404e-05
7.3309e-05
7.00641e-05
6.54698e-05
6.54521e-05
7.32958e-05
7.43479e-05
7.43897e-05
7.33189e-05
7.00771e-05
6.54795e-05
6.54613e-05
7.33061e-05
7.4397e-05
9.50802e-05
7.347e-05
7.34638e-05
7.34834e-05
7.34772e-05
9.50785e-05
7.44201e-05
6.55471e-05
7.33414e-05
7.01273e-05
7.44128e-05
6.55686e-05
7.33534e-05
7.44687e-05
6.55555e-05
7.33531e-05
7.01393e-05
7.44617e-05
6.55775e-05
7.33625e-05
9.51567e-05
7.35176e-05
7.35115e-05
9.51528e-05
7.35306e-05
7.35245e-05
7.11727e-05
7.11744e-05
7.11759e-05
7.11774e-05
9.50946e-05
7.34975e-05
7.34906e-05
7.3484e-05
7.34772e-05
9.50966e-05
7.43228e-05
6.54154e-05
7.00488e-05
7.32809e-05
7.32945e-05
6.54374e-05
7.43157e-05
7.43699e-05
6.54256e-05
7.00613e-05
7.32908e-05
7.33045e-05
6.54473e-05
7.43626e-05
7.43405e-05
7.33098e-05
7.00625e-05
6.54688e-05
7.32969e-05
7.43477e-05
6.54496e-05
7.43873e-05
7.33199e-05
7.0075e-05
6.54789e-05
7.3307e-05
7.43948e-05
6.54602e-05
9.50767e-05
7.34715e-05
7.34647e-05
7.34851e-05
7.34783e-05
9.50755e-05
7.12012e-05
7.11996e-05
7.1204e-05
7.12026e-05
9.51156e-05
7.34963e-05
7.34895e-05
9.51139e-05
7.35097e-05
7.35028e-05
7.43874e-05
6.55339e-05
7.01009e-05
7.33396e-05
7.33297e-05
6.55138e-05
7.43955e-05
7.44342e-05
6.55453e-05
7.01133e-05
7.33496e-05
7.33397e-05
6.55248e-05
7.44428e-05
7.43713e-05
7.33137e-05
6.54825e-05
7.00881e-05
7.43652e-05
7.33249e-05
6.55026e-05
7.44184e-05
7.33236e-05
6.54931e-05
7.01005e-05
7.44121e-05
7.3335e-05
6.55131e-05
9.5133e-05
7.35218e-05
7.35149e-05
7.35085e-05
7.35016e-05
9.5135e-05
7.18406e-05
7.16174e-05
7.17709e-05
6.8743e-05
7.16047e-05
7.17564e-05
7.18498e-05
7.16716e-05
7.34543e-05
7.98718e-05
7.98839e-05
7.16571e-05
7.16702e-05
7.99009e-05
7.34598e-05
7.989e-05
7.16845e-05
7.18355e-05
6.87353e-05
7.15902e-05
7.17338e-05
7.16021e-05
7.17489e-05
7.18259e-05
7.18619e-05
7.16206e-05
7.17684e-05
6.87808e-05
7.18527e-05
7.16298e-05
7.17833e-05
7.16932e-05
7.34869e-05
7.99094e-05
7.17079e-05
7.99042e-05
7.1695e-05
7.98869e-05
7.34811e-05
7.16804e-05
7.98919e-05
7.18668e-05
6.87886e-05
7.16442e-05
7.18046e-05
7.18762e-05
7.16351e-05
7.17911e-05
7.18639e-05
7.16196e-05
7.17779e-05
6.87835e-05
7.18547e-05
7.16319e-05
7.17928e-05
7.16957e-05
7.34913e-05
7.99356e-05
7.99247e-05
7.17098e-05
7.16972e-05
7.99074e-05
7.34856e-05
7.1683e-05
7.99189e-05
7.18686e-05
6.8789e-05
7.16461e-05
7.1813e-05
7.16339e-05
7.17976e-05
7.18777e-05
9.50925e-05
7.34908e-05
7.34961e-05
7.34773e-05
7.34827e-05
9.50981e-05
7.43698e-05
6.54252e-05
7.0062e-05
7.32923e-05
7.33025e-05
6.54463e-05
7.43628e-05
7.43213e-05
6.54164e-05
7.00472e-05
7.32801e-05
6.54367e-05
7.32938e-05
7.4314e-05
7.43875e-05
7.33182e-05
7.00758e-05
6.54785e-05
7.33082e-05
6.54603e-05
7.43947e-05
7.43388e-05
7.33086e-05
7.00606e-05
6.5469e-05
6.54516e-05
7.32959e-05
7.43463e-05
9.5079e-05
7.34649e-05
7.34703e-05
7.34785e-05
7.34838e-05
9.50733e-05
7.11719e-05
7.11733e-05
7.12027e-05
7.12013e-05
9.51172e-05
7.34894e-05
7.34948e-05
9.51118e-05
7.35028e-05
7.35081e-05
7.44346e-05
6.55454e-05
7.01142e-05
7.33489e-05
6.55254e-05
7.33391e-05
7.44425e-05
7.43864e-05
6.55368e-05
7.00991e-05
7.33384e-05
7.33287e-05
6.55171e-05
7.43946e-05
7.44184e-05
7.33238e-05
6.54937e-05
7.01013e-05
6.55131e-05
7.44123e-05
7.33335e-05
7.43702e-05
7.33134e-05
6.54852e-05
7.00863e-05
7.43638e-05
7.33233e-05
6.55041e-05
9.51309e-05
7.35147e-05
7.35201e-05
7.35014e-05
7.35069e-05
9.51361e-05
7.11997e-05
7.11985e-05
7.18388e-05
7.16184e-05
7.17655e-05
6.87423e-05
7.1606e-05
7.17508e-05
7.18502e-05
7.16698e-05
7.34512e-05
7.98529e-05
7.9859e-05
7.1655e-05
7.16681e-05
7.98769e-05
7.3456e-05
7.98717e-05
7.16828e-05
7.18353e-05
6.87342e-05
7.15907e-05
7.17279e-05
7.16035e-05
7.17432e-05
7.18248e-05
7.18666e-05
7.17754e-05
7.16213e-05
6.87839e-05
7.18545e-05
7.17915e-05
7.16335e-05
7.16964e-05
7.34935e-05
7.99347e-05
7.17105e-05
7.99236e-05
7.16979e-05
7.99059e-05
7.3489e-05
7.16836e-05
7.99178e-05
7.18694e-05
6.87918e-05
7.18116e-05
7.1648e-05
7.18801e-05
7.17978e-05
7.16359e-05
7.18645e-05
7.16206e-05
7.17731e-05
6.8783e-05
7.18527e-05
7.16328e-05
7.17876e-05
7.16937e-05
7.34867e-05
7.99123e-05
7.99068e-05
7.17082e-05
7.16956e-05
7.98898e-05
7.3483e-05
7.1681e-05
7.98949e-05
7.1867e-05
6.87891e-05
7.16471e-05
7.18084e-05
7.16351e-05
7.17952e-05
7.18782e-05
7.18402e-05
7.17725e-05
7.16182e-05
6.87441e-05
7.17546e-05
7.16089e-05
7.18538e-05
7.16715e-05
7.34548e-05
7.9868e-05
7.98805e-05
7.16571e-05
7.16701e-05
7.98975e-05
7.34608e-05
7.98863e-05
7.16844e-05
7.18398e-05
6.87374e-05
7.17311e-05
7.15941e-05
7.175e-05
7.16035e-05
7.18256e-05
7.18404e-05
7.1619e-05
7.17674e-05
6.87434e-05
7.16067e-05
7.175e-05
7.18496e-05
7.16707e-05
7.34521e-05
7.98534e-05
7.98656e-05
7.16565e-05
7.16692e-05
7.98824e-05
7.34575e-05
7.98714e-05
7.16834e-05
7.18359e-05
6.87368e-05
7.15917e-05
7.17271e-05
7.16045e-05
7.17451e-05
7.18262e-05
7.1868e-05
7.17767e-05
7.16234e-05
6.87845e-05
7.18542e-05
7.17948e-05
7.16324e-05
7.16955e-05
7.34919e-05
7.99323e-05
7.99212e-05
7.17097e-05
7.16971e-05
7.99039e-05
7.34862e-05
7.16829e-05
7.99156e-05
7.18683e-05
6.87908e-05
7.18148e-05
7.16465e-05
7.17982e-05
7.16375e-05
7.18816e-05
7.18641e-05
7.1621e-05
7.17721e-05
6.87844e-05
7.18542e-05
7.16331e-05
7.17901e-05
7.16943e-05
7.34883e-05
7.99169e-05
7.99061e-05
7.17082e-05
7.16959e-05
7.98889e-05
7.34827e-05
7.16819e-05
7.99003e-05
7.18672e-05
6.87897e-05
7.16471e-05
7.18113e-05
7.16351e-05
7.17938e-05
7.18785e-05
9.50966e-05
7.34902e-05
7.34964e-05
7.34767e-05
7.34829e-05
9.50991e-05
7.43682e-05
6.5424e-05
7.00542e-05
7.32883e-05
7.33019e-05
6.54434e-05
7.4361e-05
7.43228e-05
6.5418e-05
7.00497e-05
7.32801e-05
6.54397e-05
7.32938e-05
7.43156e-05
7.43858e-05
7.33177e-05
7.00678e-05
6.54755e-05
7.33043e-05
6.54588e-05
7.43931e-05
7.43403e-05
7.33096e-05
7.00634e-05
6.5471e-05
6.54524e-05
7.32963e-05
7.43476e-05
9.5079e-05
7.34643e-05
7.34704e-05
7.34779e-05
7.3484e-05
9.50777e-05
7.11731e-05
7.11747e-05
7.12013e-05
7.12002e-05
9.51185e-05
7.34889e-05
7.34952e-05
9.51155e-05
7.35023e-05
7.35086e-05
7.44328e-05
6.55424e-05
7.01068e-05
7.33485e-05
6.55232e-05
7.33355e-05
7.44409e-05
7.43873e-05
6.5537e-05
7.01015e-05
7.33393e-05
7.33283e-05
6.55166e-05
7.43953e-05
7.44167e-05
7.33199e-05
6.54919e-05
7.0094e-05
6.55101e-05
7.44105e-05
7.33333e-05
7.43712e-05
7.33119e-05
6.54852e-05
7.00888e-05
7.4365e-05
7.33249e-05
6.5505e-05
9.51343e-05
7.35143e-05
7.35206e-05
7.3501e-05
7.35073e-05
9.5138e-05
7.12013e-05
7.11998e-05
7.18399e-05
7.17649e-05
7.16179e-05
6.87423e-05
7.17505e-05
7.16054e-05
7.18493e-05
7.167e-05
7.34519e-05
7.98503e-05
7.98626e-05
7.16555e-05
7.16687e-05
7.98796e-05
7.34564e-05
7.98685e-05
7.1683e-05
7.1835e-05
6.87351e-05
7.17277e-05
7.15901e-05
7.17431e-05
7.16032e-05
7.18251e-05
7.18376e-05
7.17745e-05
7.1618e-05
6.87466e-05
7.1758e-05
7.16058e-05
7.18515e-05
7.16705e-05
7.34546e-05
7.98715e-05
7.98771e-05
7.16557e-05
7.16685e-05
7.98946e-05
7.34604e-05
7.98897e-05
7.16832e-05
7.18373e-05
6.87399e-05
7.17351e-05
7.15905e-05
7.17525e-05
7.16035e-05
7.18243e-05
7.1864e-05
7.17723e-05
7.162e-05
6.8783e-05
7.18541e-05
7.17865e-05
7.16319e-05
7.16944e-05
7.34889e-05
7.99143e-05
7.99034e-05
7.17085e-05
7.16959e-05
7.98861e-05
7.34833e-05
7.16816e-05
7.98976e-05
7.18679e-05
6.87899e-05
7.18072e-05
7.16456e-05
7.17939e-05
7.16354e-05
7.1878e-05
7.18651e-05
7.17797e-05
7.16211e-05
6.87878e-05
7.18525e-05
7.1796e-05
7.16318e-05
7.16936e-05
7.34913e-05
7.99286e-05
7.99238e-05
7.17081e-05
7.16958e-05
7.99073e-05
7.34857e-05
7.16812e-05
7.9912e-05
7.18672e-05
6.87935e-05
7.18155e-05
7.16453e-05
7.18002e-05
7.16363e-05
7.18783e-05
7.11725e-05
7.1174e-05
7.11748e-05
7.11764e-05
9.51195e-05
7.34942e-05
7.3488e-05
9.5116e-05
7.35074e-05
7.35013e-05
7.43878e-05
6.5536e-05
7.01025e-05
7.33392e-05
7.43956e-05
6.55173e-05
7.33265e-05
7.44368e-05
6.55448e-05
7.01149e-05
7.33479e-05
7.44443e-05
6.55256e-05
7.33382e-05
7.43716e-05
7.33111e-05
6.54854e-05
7.00895e-05
7.43651e-05
6.55038e-05
7.33243e-05
7.44205e-05
7.33222e-05
6.5494e-05
7.01021e-05
7.44142e-05
6.5513e-05
7.33337e-05
9.51347e-05
7.35191e-05
7.3513e-05
9.51385e-05
7.3506e-05
7.34998e-05
7.12e-05
7.11986e-05
7.12024e-05
7.1201e-05
7.17203e-05
7.99227e-05
7.35127e-05
7.17065e-05
7.9935e-05
7.18925e-05
6.88324e-05
7.16492e-05
7.18154e-05
7.18804e-05
7.16605e-05
7.18349e-05
7.35158e-05
7.12237e-05
7.12262e-05
3.14215e-05
3.14194e-05
3.87116e-05
3.15538e-05
3.15518e-05
2.23212e-05
2.21689e-05
6.61345e-05
5.96409e-05
5.96428e-05
5.36103e-05
5.96448e-05
5.96466e-05
6.61255e-05
6.62728e-05
5.98253e-05
5.98244e-05
5.38573e-05
6.62633e-05
5.98317e-05
5.98338e-05
6.61343e-05
5.96404e-05
5.96417e-05
5.36101e-05
5.96445e-05
5.96456e-05
6.61252e-05
6.62282e-05
5.38057e-05
5.97839e-05
5.97874e-05
5.97819e-05
5.97849e-05
6.62382e-05
6.61334e-05
5.96404e-05
5.9641e-05
5.36091e-05
5.96448e-05
5.9644e-05
6.61246e-05
6.62281e-05
5.38065e-05
5.97867e-05
5.97875e-05
5.97845e-05
5.97851e-05
6.62381e-05
6.61325e-05
5.96384e-05
5.96399e-05
5.3609e-05
5.96441e-05
5.96421e-05
6.61235e-05
6.62266e-05
5.38057e-05
5.97844e-05
5.97865e-05
5.97821e-05
5.97841e-05
6.62367e-05
6.62282e-05
5.37972e-05
5.97863e-05
5.97891e-05
6.62381e-05
5.97835e-05
5.97791e-05
3.14217e-05
3.14173e-05
3.87107e-05
3.15537e-05
3.15491e-05
2.23167e-05
2.21703e-05
3.14246e-05
3.14234e-05
3.87145e-05
3.15565e-05
3.15551e-05
2.2321e-05
2.21747e-05
3.14223e-05
3.14227e-05
3.87132e-05
3.15541e-05
3.15544e-05
2.23187e-05
2.2174e-05
3.88334e-05
3.18249e-05
3.18229e-05
3.16973e-05
3.16952e-05
2.24781e-05
2.26288e-05
3.88324e-05
3.18246e-05
3.18204e-05
3.16973e-05
3.16932e-05
2.24797e-05
2.26238e-05
3.88362e-05
3.18274e-05
3.18263e-05
3.17001e-05
3.16992e-05
2.2484e-05
2.2628e-05
3.88352e-05
3.18255e-05
3.18256e-05
3.16982e-05
3.16986e-05
2.24834e-05
2.26256e-05
5.64838e-05
6.25578e-05
5.52014e-05
6.08378e-05
6.25314e-05
5.52058e-05
5.64795e-05
5.75425e-05
6.05446e-05
6.49606e-05
6.43763e-05
6.05522e-05
6.43976e-05
5.75377e-05
5.75859e-05
6.44285e-05
6.49698e-05
6.05939e-05
6.05877e-05
6.44088e-05
5.75896e-05
5.64259e-05
6.08248e-05
6.24932e-05
5.51483e-05
6.25211e-05
5.51451e-05
5.64297e-05
5.64904e-05
5.52054e-05
6.25543e-05
6.08397e-05
5.5209e-05
6.25313e-05
5.64862e-05
5.75441e-05
6.05491e-05
6.49619e-05
6.43718e-05
6.05604e-05
6.43932e-05
5.7543e-05
5.75937e-05
6.44237e-05
6.49702e-05
6.06016e-05
6.05908e-05
6.44043e-05
5.75916e-05
5.64347e-05
6.08268e-05
5.51494e-05
6.24952e-05
5.51485e-05
6.25203e-05
5.64368e-05
6.61608e-05
5.3685e-05
5.96922e-05
5.96939e-05
5.96895e-05
5.9689e-05
6.617e-05
6.61607e-05
5.36848e-05
5.96917e-05
5.96933e-05
6.61699e-05
5.96887e-05
5.96906e-05
6.62035e-05
5.37338e-05
5.97363e-05
5.97391e-05
6.61958e-05
5.97386e-05
5.97413e-05
5.64812e-05
6.25466e-05
5.52032e-05
6.08329e-05
6.25228e-05
5.52003e-05
5.6476e-05
5.75397e-05
6.05441e-05
6.4959e-05
6.43685e-05
6.43891e-05
6.05531e-05
5.75413e-05
5.75891e-05
6.44199e-05
6.49674e-05
6.05946e-05
6.44006e-05
6.05852e-05
5.7587e-05
5.64229e-05
6.08197e-05
6.2485e-05
5.51448e-05
6.25096e-05
5.51468e-05
5.64277e-05
5.64849e-05
6.25526e-05
5.52048e-05
6.08349e-05
6.25269e-05
5.52019e-05
5.64807e-05
5.75461e-05
6.05479e-05
6.49655e-05
6.43776e-05
6.43985e-05
6.0559e-05
5.75421e-05
5.75891e-05
6.44291e-05
6.49739e-05
6.06017e-05
6.44096e-05
5.75938e-05
6.05904e-05
5.64276e-05
6.08219e-05
6.24896e-05
5.51468e-05
6.2516e-05
5.51487e-05
5.64318e-05
5.65289e-05
6.25599e-05
5.52545e-05
6.08987e-05
5.65339e-05
6.25832e-05
5.5259e-05
5.76841e-05
6.06757e-05
6.50197e-05
6.44825e-05
6.0667e-05
6.44636e-05
5.76812e-05
5.76336e-05
6.44323e-05
6.06265e-05
6.50114e-05
6.06365e-05
5.76372e-05
6.44521e-05
5.6586e-05
6.09101e-05
6.26184e-05
5.53136e-05
6.25967e-05
5.53089e-05
5.65808e-05
5.65336e-05
6.25631e-05
5.5256e-05
6.09003e-05
5.65374e-05
6.25896e-05
5.52605e-05
5.7683e-05
6.06841e-05
6.50261e-05
6.44915e-05
6.44718e-05
6.06734e-05
5.76881e-05
5.76418e-05
6.44409e-05
6.06325e-05
6.50178e-05
5.76366e-05
6.44611e-05
6.06442e-05
5.65892e-05
6.09111e-05
6.26258e-05
5.53151e-05
6.2599e-05
5.53102e-05
5.65855e-05
6.61601e-05
5.36841e-05
5.96918e-05
5.96925e-05
5.96899e-05
5.96893e-05
6.61691e-05
6.6203e-05
5.37333e-05
5.97379e-05
5.97385e-05
5.974e-05
6.61954e-05
5.97408e-05
5.64981e-05
6.25591e-05
5.52024e-05
6.08391e-05
6.25364e-05
5.52092e-05
5.64892e-05
5.75446e-05
6.0556e-05
6.49672e-05
6.43793e-05
6.44004e-05
6.05617e-05
5.75496e-05
5.7598e-05
6.44317e-05
6.49759e-05
6.06022e-05
6.44124e-05
6.05954e-05
5.7595e-05
5.6433e-05
6.08243e-05
6.24986e-05
5.51508e-05
6.25223e-05
5.51445e-05
5.645e-05
5.64938e-05
5.52005e-05
6.25536e-05
6.08374e-05
5.52075e-05
6.2531e-05
5.64847e-05
5.75385e-05
6.05509e-05
6.49609e-05
6.43703e-05
6.43912e-05
6.0556e-05
5.75439e-05
5.75934e-05
6.44223e-05
6.49704e-05
6.05966e-05
6.44032e-05
5.75876e-05
6.05926e-05
5.64287e-05
6.08226e-05
5.51492e-05
6.2493e-05
5.51428e-05
6.25167e-05
5.64456e-05
5.65406e-05
6.25712e-05
5.52665e-05
6.09041e-05
5.65477e-05
6.25941e-05
5.52596e-05
5.76874e-05
6.06832e-05
6.50277e-05
6.44942e-05
6.06731e-05
6.4475e-05
5.76906e-05
5.7644e-05
6.4444e-05
6.06335e-05
6.50194e-05
6.06428e-05
5.76425e-05
6.4464e-05
5.65973e-05
6.09186e-05
6.26274e-05
5.53155e-05
6.26039e-05
5.53215e-05
5.65915e-05
5.65362e-05
5.52648e-05
6.25671e-05
6.09023e-05
5.65437e-05
5.52577e-05
6.25893e-05
5.76884e-05
6.06783e-05
6.50223e-05
6.44848e-05
6.44663e-05
6.06744e-05
5.76828e-05
5.76347e-05
6.4435e-05
6.06346e-05
6.50136e-05
5.76415e-05
6.44546e-05
6.06383e-05
5.6594e-05
6.09168e-05
5.53132e-05
6.2624e-05
5.53204e-05
6.2603e-05
5.65872e-05
5.64871e-05
5.52073e-05
6.25567e-05
6.08373e-05
5.52056e-05
6.25307e-05
5.64826e-05
5.75425e-05
6.05522e-05
6.49629e-05
6.43736e-05
6.05579e-05
6.43947e-05
5.7545e-05
5.75938e-05
6.44255e-05
6.49716e-05
6.05986e-05
6.0594e-05
6.44062e-05
5.75916e-05
5.64298e-05
6.08247e-05
5.51485e-05
6.24936e-05
5.5148e-05
6.25208e-05
5.64335e-05
5.65325e-05
6.25677e-05
5.52616e-05
6.09028e-05
5.6537e-05
6.25939e-05
5.52586e-05
5.76844e-05
6.0678e-05
6.50221e-05
6.44905e-05
5.76831e-05
6.06732e-05
6.44715e-05
5.76355e-05
6.44405e-05
6.06313e-05
6.50134e-05
5.76358e-05
6.06362e-05
6.44604e-05
5.65894e-05
6.09142e-05
6.26271e-05
5.53148e-05
5.65846e-05
6.26027e-05
5.5314e-05
5.65354e-05
5.52596e-05
6.25665e-05
6.09028e-05
5.65396e-05
5.52626e-05
6.25925e-05
5.76841e-05
6.06799e-05
6.50234e-05
6.44873e-05
6.44682e-05
6.06753e-05
5.76867e-05
5.76403e-05
6.44375e-05
6.06357e-05
6.50151e-05
5.76393e-05
6.44573e-05
6.06399e-05
5.65912e-05
6.09136e-05
5.53172e-05
6.26272e-05
5.53132e-05
6.26011e-05
5.6587e-05
6.61589e-05
5.36832e-05
5.96898e-05
5.96918e-05
5.9689e-05
5.96872e-05
6.6168e-05
6.62017e-05
5.37326e-05
5.97357e-05
5.97376e-05
5.97379e-05
6.6194e-05
5.97399e-05
5.64927e-05
5.52072e-05
6.25636e-05
6.08423e-05
5.52089e-05
6.25377e-05
5.64896e-05
5.755e-05
6.05529e-05
6.49694e-05
6.43822e-05
6.05645e-05
6.44033e-05
5.75442e-05
5.75929e-05
6.44341e-05
6.49778e-05
6.06062e-05
6.05949e-05
6.44146e-05
5.75986e-05
5.6437e-05
6.08302e-05
5.51482e-05
6.25006e-05
5.51498e-05
6.25278e-05
5.6439e-05
5.65373e-05
5.52668e-05
6.25666e-05
6.09038e-05
5.65427e-05
5.52615e-05
6.25892e-05
5.76892e-05
6.06803e-05
6.5022e-05
6.44847e-05
5.76851e-05
6.06714e-05
6.44661e-05
5.76379e-05
6.44356e-05
6.06318e-05
6.50139e-05
5.76423e-05
6.06423e-05
6.4455e-05
5.65943e-05
6.09173e-05
5.5316e-05
6.26239e-05
5.65882e-05
5.53223e-05
6.26023e-05
5.65415e-05
5.52669e-05
6.25734e-05
6.09068e-05
5.65452e-05
5.52629e-05
6.25991e-05
5.76874e-05
6.0687e-05
6.50294e-05
6.44958e-05
6.44767e-05
6.06763e-05
5.76928e-05
5.76466e-05
6.44461e-05
6.06361e-05
6.50212e-05
5.76408e-05
6.44659e-05
6.06477e-05
5.65968e-05
6.09185e-05
5.5317e-05
6.26331e-05
5.53224e-05
6.26077e-05
5.65926e-05
6.62037e-05
5.3738e-05
5.97375e-05
5.97331e-05
6.61955e-05
5.97398e-05
5.9742e-05
5.77332e-05
6.07124e-05
6.44977e-05
6.50663e-05
6.07197e-05
5.77296e-05
6.45197e-05
5.66379e-05
6.09803e-05
5.53664e-05
6.26362e-05
5.53702e-05
5.6642e-05
6.26649e-05
6.07156e-05
6.50724e-05
6.07261e-05
2.10365e-05
3.66865e-05
3.66893e-05
4.19405e-05
2.17949e-05
3.75923e-05
3.75954e-05
4.26598e-05
2.25716e-05
3.84722e-05
3.84754e-05
4.33582e-05
2.33627e-05
3.93249e-05
3.93285e-05
4.40247e-05
2.41643e-05
4.01502e-05
4.01536e-05
4.46897e-05
2.49726e-05
4.09474e-05
4.09499e-05
4.53188e-05
2.57838e-05
4.17155e-05
4.17177e-05
4.59162e-05
2.65945e-05
4.24546e-05
4.24567e-05
4.64948e-05
2.74012e-05
4.3165e-05
4.31669e-05
4.70503e-05
2.82008e-05
4.38466e-05
4.38485e-05
4.75823e-05
2.89906e-05
4.45002e-05
4.45019e-05
4.80892e-05
2.97679e-05
4.51259e-05
4.51274e-05
4.85879e-05
3.05306e-05
4.57244e-05
4.57259e-05
4.9059e-05
3.12765e-05
4.62963e-05
4.62975e-05
4.95047e-05
3.20043e-05
4.68424e-05
4.68432e-05
4.99341e-05
3.27126e-05
4.73634e-05
4.7364e-05
5.03439e-05
3.34003e-05
4.78601e-05
4.78606e-05
5.07377e-05
3.40668e-05
4.83338e-05
4.83344e-05
5.11146e-05
3.47117e-05
4.87856e-05
4.87863e-05
5.14809e-05
3.53347e-05
4.92165e-05
4.92175e-05
5.18268e-05
3.59356e-05
4.96273e-05
4.96291e-05
5.2157e-05
3.65142e-05
5.0019e-05
5.00216e-05
5.24744e-05
3.70705e-05
5.03927e-05
5.03958e-05
5.27784e-05
3.7604e-05
5.0749e-05
5.07522e-05
5.30729e-05
3.81141e-05
5.10875e-05
5.10908e-05
5.33583e-05
4.19363e-05
4.25048e-05
3.66893e-05
3.66892e-05
3.73706e-05
3.73707e-05
4.1934e-05
4.25055e-05
3.6688e-05
3.66902e-05
3.73698e-05
3.73717e-05
3.66944e-05
3.73684e-05
3.73757e-05
4.19493e-05
4.24909e-05
3.66924e-05
3.73714e-05
3.73739e-05
4.25076e-05
4.26576e-05
4.32011e-05
3.75947e-05
3.75946e-05
3.82571e-05
3.82568e-05
4.26569e-05
4.32104e-05
3.7594e-05
3.75959e-05
3.82562e-05
3.82581e-05
3.75998e-05
3.82549e-05
3.82615e-05
4.26756e-05
4.32142e-05
3.75981e-05
3.8258e-05
3.82601e-05
4.32076e-05
4.33634e-05
4.38766e-05
3.84745e-05
3.84741e-05
3.91164e-05
3.91159e-05
4.33532e-05
4.38822e-05
3.84738e-05
3.84758e-05
3.91157e-05
3.91178e-05
3.84789e-05
3.91144e-05
3.91206e-05
4.33673e-05
4.38939e-05
3.84776e-05
3.9118e-05
3.91195e-05
4.38895e-05
4.4048e-05
4.45241e-05
3.9327e-05
3.93265e-05
3.99481e-05
3.99478e-05
4.40192e-05
4.45358e-05
3.93265e-05
3.93285e-05
3.99474e-05
3.99498e-05
3.93311e-05
3.99468e-05
3.99522e-05
4.4032e-05
4.45437e-05
3.93301e-05
3.99503e-05
3.99513e-05
4.45352e-05
4.46921e-05
4.51603e-05
4.01515e-05
4.01515e-05
4.07515e-05
4.07519e-05
4.46799e-05
4.51764e-05
4.01512e-05
4.01535e-05
4.0751e-05
4.07533e-05
4.01557e-05
4.07511e-05
4.07556e-05
4.46802e-05
4.51706e-05
4.01548e-05
4.07539e-05
4.07546e-05
4.51582e-05
4.53141e-05
4.57663e-05
4.09478e-05
4.09484e-05
4.15263e-05
4.15272e-05
4.53048e-05
4.57773e-05
4.09475e-05
4.09497e-05
4.1526e-05
4.15281e-05
4.0952e-05
4.15266e-05
4.15304e-05
4.53038e-05
4.57795e-05
4.09511e-05
4.15289e-05
4.15295e-05
4.57711e-05
4.59155e-05
4.63482e-05
4.17154e-05
4.17164e-05
4.22722e-05
4.22733e-05
4.59047e-05
4.63613e-05
4.17153e-05
4.17172e-05
4.2272e-05
4.2274e-05
4.17196e-05
4.2273e-05
4.22765e-05
4.59081e-05
4.63523e-05
4.17187e-05
4.22751e-05
4.22757e-05
4.63558e-05
4.64938e-05
4.69089e-05
4.24541e-05
4.24552e-05
4.29894e-05
4.29906e-05
4.64791e-05
4.69216e-05
4.24542e-05
4.2456e-05
4.29893e-05
4.29912e-05
4.24584e-05
4.29906e-05
4.29937e-05
4.64973e-05
4.69163e-05
4.24576e-05
4.29926e-05
4.2993e-05
4.69184e-05
4.70508e-05
4.74515e-05
4.31641e-05
4.31653e-05
4.36782e-05
4.36794e-05
4.704e-05
4.74573e-05
4.31642e-05
4.3166e-05
4.36781e-05
4.36798e-05
4.31684e-05
4.36795e-05
4.36822e-05
4.70544e-05
4.74614e-05
4.31678e-05
4.36814e-05
4.36815e-05
4.74643e-05
4.75827e-05
4.79795e-05
4.38457e-05
4.38469e-05
4.43387e-05
4.43398e-05
4.75729e-05
4.79769e-05
4.38458e-05
4.38474e-05
4.43385e-05
4.434e-05
4.38499e-05
4.43401e-05
4.43426e-05
4.75765e-05
4.79778e-05
4.38492e-05
4.43419e-05
4.43418e-05
4.79818e-05
4.80913e-05
4.84671e-05
4.44991e-05
4.45004e-05
4.49712e-05
4.49723e-05
4.80844e-05
4.84691e-05
4.44991e-05
4.45006e-05
4.4971e-05
4.49724e-05
4.45031e-05
4.49729e-05
4.49749e-05
4.80862e-05
4.84717e-05
4.45023e-05
4.49745e-05
4.4974e-05
4.84629e-05
4.85821e-05
4.89387e-05
4.51248e-05
4.51259e-05
4.55766e-05
4.55775e-05
4.85727e-05
4.89384e-05
4.51247e-05
4.51259e-05
4.55763e-05
4.55774e-05
4.51286e-05
4.55782e-05
4.55801e-05
4.8576e-05
4.89344e-05
4.51277e-05
4.55798e-05
4.55792e-05
4.89387e-05
4.90515e-05
4.94002e-05
4.57233e-05
4.57244e-05
4.61553e-05
4.61562e-05
4.90516e-05
4.93911e-05
4.57231e-05
4.57242e-05
4.6155e-05
4.61557e-05
4.57268e-05
4.61571e-05
4.61582e-05
4.90579e-05
4.93916e-05
4.5726e-05
4.61583e-05
4.61574e-05
4.93889e-05
4.94981e-05
4.9835e-05
4.62953e-05
4.62963e-05
4.67083e-05
4.6709e-05
4.95046e-05
4.98222e-05
4.62952e-05
4.62958e-05
4.6708e-05
4.6708e-05
4.62983e-05
4.67099e-05
4.67105e-05
4.95028e-05
4.98249e-05
4.62975e-05
4.67107e-05
4.67097e-05
4.98259e-05
4.99288e-05
5.02444e-05
4.68417e-05
4.68425e-05
4.7236e-05
4.72365e-05
4.9938e-05
5.02429e-05
4.68415e-05
4.68415e-05
4.72356e-05
4.72354e-05
4.68439e-05
4.72374e-05
4.72374e-05
4.99328e-05
5.02439e-05
4.68432e-05
4.72381e-05
4.72367e-05
5.02439e-05
5.0348e-05
5.06407e-05
4.7363e-05
4.73636e-05
4.77395e-05
4.77396e-05
5.03456e-05
5.06475e-05
4.73628e-05
4.73625e-05
4.77391e-05
4.77385e-05
4.73644e-05
4.77404e-05
4.774e-05
5.03502e-05
5.06412e-05
4.73637e-05
4.7741e-05
4.77394e-05
5.06432e-05
5.07444e-05
5.103e-05
4.78604e-05
4.78606e-05
4.82197e-05
4.82194e-05
5.07365e-05
5.10301e-05
4.78602e-05
4.78596e-05
4.82193e-05
4.82185e-05
4.78609e-05
4.822e-05
4.82193e-05
5.07408e-05
5.10322e-05
4.78603e-05
4.82204e-05
4.82187e-05
5.10307e-05
5.11186e-05
5.13953e-05
4.83348e-05
4.83347e-05
4.86777e-05
4.8677e-05
5.11144e-05
5.13955e-05
4.83346e-05
4.8334e-05
4.86772e-05
4.86765e-05
4.83344e-05
4.86773e-05
4.86762e-05
5.11156e-05
5.1396e-05
4.83339e-05
4.86779e-05
4.86758e-05
5.13913e-05
5.14857e-05
5.17456e-05
4.87875e-05
4.8787e-05
4.91146e-05
4.91135e-05
5.14764e-05
5.17446e-05
4.87871e-05
4.87865e-05
4.9114e-05
4.91131e-05
4.87859e-05
4.91133e-05
4.9112e-05
5.14781e-05
5.17434e-05
4.87856e-05
4.91142e-05
4.9112e-05
5.17425e-05
5.18318e-05
5.208e-05
4.92193e-05
4.92184e-05
4.9531e-05
4.95296e-05
5.18236e-05
5.20803e-05
4.92188e-05
4.92182e-05
4.95302e-05
4.95296e-05
4.92167e-05
4.95287e-05
4.95275e-05
5.18331e-05
5.20804e-05
4.92169e-05
4.95304e-05
4.9528e-05
5.20766e-05
5.2164e-05
5.24007e-05
4.9631e-05
4.96299e-05
4.99278e-05
4.99265e-05
5.21557e-05
5.24021e-05
4.96303e-05
4.96299e-05
4.99269e-05
4.99264e-05
4.96276e-05
4.99247e-05
4.99241e-05
5.21632e-05
5.2401e-05
4.96283e-05
4.99272e-05
4.99251e-05
5.24044e-05
5.24826e-05
5.2715e-05
5.00235e-05
5.00224e-05
5.03058e-05
5.03046e-05
5.24735e-05
5.27104e-05
5.00227e-05
5.00223e-05
5.03047e-05
5.03041e-05
5.00199e-05
5.0302e-05
5.03022e-05
5.24817e-05
5.27141e-05
5.00211e-05
5.03051e-05
5.03036e-05
5.27119e-05
5.2784e-05
5.30097e-05
5.03976e-05
5.03967e-05
5.06653e-05
5.06646e-05
5.27799e-05
5.30078e-05
5.03966e-05
5.0396e-05
5.06643e-05
5.06637e-05
5.03942e-05
5.06615e-05
5.06622e-05
5.27827e-05
5.30089e-05
5.03957e-05
5.06647e-05
5.06639e-05
5.30028e-05
5.3073e-05
5.32866e-05
5.07535e-05
5.07531e-05
5.10065e-05
5.10065e-05
5.30716e-05
5.32854e-05
5.07527e-05
5.07521e-05
5.10058e-05
5.10051e-05
5.07507e-05
5.10029e-05
5.10043e-05
5.30722e-05
5.32892e-05
5.07525e-05
5.10063e-05
5.10062e-05
5.32797e-05
5.33514e-05
5.35449e-05
5.10913e-05
5.10916e-05
5.13287e-05
5.13293e-05
5.33503e-05
5.35438e-05
5.10909e-05
5.10902e-05
5.13284e-05
5.13275e-05
5.10896e-05
5.13257e-05
5.13282e-05
5.33486e-05
5.35442e-05
5.10916e-05
5.1329e-05
5.133e-05
5.35454e-05
6.48241e-05
7.13591e-05
7.13955e-05
6.47272e-05
6.95346e-05
6.9561e-05
6.4829e-05
7.13653e-05
7.14018e-05
6.47312e-05
2.10349e-05
2.10388e-05
2.10411e-05
2.16032e-05
2.16017e-05
2.16058e-05
2.16081e-05
5.35353e-05
6.0216e-05
2.90739e-05
3.69154e-05
6.03322e-05
2.93186e-05
5.33397e-05
6.95335e-05
6.95601e-05
5.35369e-05
2.90796e-05
6.02142e-05
3.69182e-05
2.93242e-05
6.03349e-05
5.334e-05
6.69241e-05
6.69344e-05
4.21479e-05
6.69836e-05
6.69966e-05
6.50508e-05
7.14428e-05
6.49558e-05
7.14797e-05
6.95905e-05
6.96177e-05
6.50553e-05
7.14494e-05
6.49599e-05
7.14864e-05
2.17932e-05
2.17973e-05
2.17997e-05
2.23758e-05
2.23741e-05
2.23784e-05
2.23806e-05
5.3998e-05
6.05048e-05
3.00517e-05
3.78149e-05
5.38116e-05
6.06169e-05
3.02951e-05
6.95895e-05
6.96169e-05
5.39992e-05
3.00573e-05
6.05025e-05
3.78179e-05
5.38099e-05
3.03007e-05
6.06188e-05
6.71004e-05
6.71108e-05
4.28613e-05
6.71577e-05
6.71704e-05
6.527e-05
7.15276e-05
6.51775e-05
7.15647e-05
6.96484e-05
6.96765e-05
6.52745e-05
7.15345e-05
6.51839e-05
7.15718e-05
2.25697e-05
2.25742e-05
2.25764e-05
2.31637e-05
2.31619e-05
2.31666e-05
2.31686e-05
5.44418e-05
6.07823e-05
3.10225e-05
3.8688e-05
5.42609e-05
6.08904e-05
3.12635e-05
6.96475e-05
6.96757e-05
5.44418e-05
3.10281e-05
6.07803e-05
3.86914e-05
5.42609e-05
3.12693e-05
6.08925e-05
6.72713e-05
6.7282e-05
4.35514e-05
6.7327e-05
6.73392e-05
6.54812e-05
7.16147e-05
6.53927e-05
7.165e-05
6.97083e-05
6.9737e-05