/*--------------------------------*- C++ -*----------------------------------*\
| =========                 |                                                 |
| \\      /  F ield         | OpenFOAM: The Open Source CFD Toolbox           |
|  \\    /   O peration     | Version:  v1906                                 |
|   \\  /    A nd           | Web:      www.OpenFOAM.com                      |
|    \\/     M anipulation  |                                                 |
\*---------------------------------------------------------------------------*/
FoamFile
{
    version     2.0;
    format      ascii;
    class       volScalarField;
    location    "200";
    object      epsilon;
}
// * * * * * * * * * * * * * * * * * * * * * * * * * * * * * * * * * * * * * //

dimensions      [0 2 -3 0 0 0 0];


internalField   nonuniform List<scalar> 
42840
(
2.86706e-07
8.05148e-07
8.04673e-07
1.0941e-06
1.09415e-06
1.09392e-06
1.09128e-06
8.04989e-07
8.04728e-07
8.05196e-07
8.05049e-07
1.0934e-06
1.09076e-06
8.05143e-07
8.05024e-07
8.05412e-07
8.05349e-07
8.0558e-07
8.05283e-07
8.05647e-07
1.09351e-06
1.09142e-06
8.0489e-07
8.04726e-07
8.05138e-07
1.09194e-06
8.05749e-07
8.05146e-07
4.0836e-06
9.0614e-06
9.06196e-06
4.08382e-06
1.82414e-05
1.82442e-05
4.08034e-06
9.06585e-06
9.06586e-06
4.08056e-06
2.86878e-07
2.86213e-07
2.8606e-07
2.86758e-07
2.86988e-07
2.86341e-07
2.86219e-07
2.06807e-06
3.44099e-06
5.07404e-07
8.0527e-07
3.44023e-06
5.07547e-07
2.0687e-06
1.82428e-05
1.8245e-05
2.06963e-06
5.06708e-07
3.44443e-06
8.04753e-07
5.06845e-07
3.44367e-06
2.06868e-06
5.43189e-06
5.43447e-06
1.09232e-06
5.43134e-06
5.43405e-06
5.43227e-06
5.43497e-06
1.82374e-05
1.82405e-05
1.82433e-05
1.82459e-05
5.42853e-06
5.4303e-06
1.09196e-06
5.42812e-06
5.42966e-06
1.82413e-05
1.82383e-05
1.82462e-05
1.82435e-05
1.0934e-06
5.42849e-06
5.42978e-06
5.42879e-06
5.43021e-06
4.08279e-06
9.06351e-06
9.06387e-06
4.08319e-06
2.06865e-06
3.44257e-06
5.06606e-07
8.05166e-07
3.44219e-06
5.06909e-07
2.06814e-06
2.06815e-06
3.44255e-06
5.06512e-07
8.05098e-07
3.44188e-06
5.06872e-07
2.06792e-06
4.08388e-06
9.06256e-06
9.06182e-06
4.08326e-06
4.08306e-06
9.06419e-06
9.06364e-06
4.08256e-06
2.06866e-06
8.0517e-07
3.44251e-06
5.06834e-07
3.4426e-06
5.06877e-07
2.06769e-06
2.06872e-06
8.04944e-07
3.44199e-06
5.06845e-07
3.4422e-06
5.06847e-07
2.06823e-06
5.43053e-06
5.42753e-06
1.09136e-06
5.42976e-06
5.42684e-06
1.82454e-05
1.82483e-05
1.82452e-05
1.8242e-05
1.09288e-06
5.43005e-06
5.42695e-06
5.43037e-06
5.42753e-06
1.82487e-05
1.82459e-05
2.06668e-06
3.44292e-06
5.07813e-07
8.05388e-07
3.44214e-06
5.08067e-07
2.0673e-06
4.08047e-06
9.06457e-06
9.06495e-06
4.08035e-06
2.06783e-06
5.07631e-07
3.4434e-06
8.05425e-07
5.07966e-07
3.44282e-06
2.06723e-06
4.08063e-06
9.06578e-06
9.06553e-06
4.08008e-06
2.06701e-06
8.05418e-07
3.44212e-06
5.07991e-07
3.44247e-06
5.08052e-07
2.0671e-06
4.08088e-06
9.06496e-06
9.06468e-06
4.08057e-06
2.06802e-06
8.05263e-07
5.07835e-07
3.44269e-06
5.07837e-07
3.44318e-06
2.0674e-06
4.08445e-06
9.0661e-06
9.06629e-06
4.08496e-06
2.0703e-06
5.06879e-07
3.44498e-06
8.05613e-07
5.07008e-07
3.44416e-06
2.06988e-06
4.08479e-06
9.06605e-06
9.06638e-06
4.08485e-06
2.06876e-06
8.05271e-07
3.43991e-06
5.07461e-07
3.44046e-06
5.07551e-07
2.06786e-06
4.08474e-06
9.0661e-06
9.06592e-06
4.08429e-06
2.06948e-06
8.05632e-07
5.06976e-07
3.44405e-06
5.07041e-07
3.44439e-06
2.06902e-06
4.08522e-06
9.06647e-06
9.0661e-06
4.08503e-06
5.43094e-06
5.43029e-06
1.09134e-06
5.43003e-06
5.42967e-06
1.82406e-05
1.82432e-05
1.82446e-05
1.82423e-05
1.09427e-06
5.42991e-06
5.4295e-06
5.43063e-06
5.43015e-06
1.82432e-05
1.82407e-05
2.06988e-06
5.06373e-07
3.44643e-06
8.05179e-07
5.06623e-07
3.44582e-06
2.0706e-06
4.0838e-06
9.06493e-06
9.0653e-06
4.08392e-06
4.0842e-06
9.06585e-06
9.06613e-06
4.08451e-06
2.06983e-06
8.04699e-07
5.06778e-07
3.44361e-06
5.06831e-07
3.44397e-06
2.07043e-06
2.0704e-06
8.05131e-07
5.06591e-07
3.44571e-06
5.06651e-07
3.44614e-06
2.07025e-06
4.08423e-06
9.06539e-06
9.06505e-06
4.08428e-06
4.0845e-06
9.06624e-06
9.06585e-06
4.0843e-06
1.82444e-05
1.82471e-05
1.82441e-05
1.8247e-05
1.09468e-06
5.43143e-06
5.43422e-06
5.43191e-06
5.43461e-06
1.82474e-05
1.82448e-05
1.82475e-05
1.82447e-05
5.06945e-07
3.44454e-06
2.06975e-06
9.06621e-06
4.08544e-06
3.44617e-06
9.06602e-06
1.82451e-05
1.82451e-05
1.20878e-05
1.0718e-05
4.73917e-06
4.08397e-06
1.07174e-05
4.73969e-06
1.20887e-05
2.1874e-05
9.06174e-06
7.0779e-06
7.07676e-06
2.18689e-05
2.18692e-05
7.0768e-06
9.06156e-06
7.07789e-06
2.18744e-05
1.20888e-05
4.08341e-06
1.07173e-05
4.73984e-06
1.07179e-05
4.73926e-06
1.2088e-05
1.8244e-05
1.82416e-05
1.20952e-05
4.73578e-06
1.07261e-05
4.08063e-06
4.73632e-06
1.07256e-05
1.20959e-05
2.1885e-05
9.06604e-06
7.07796e-06
7.07683e-06
2.18805e-05
2.188e-05
7.07655e-06
9.06567e-06
7.07765e-06
2.18846e-05
1.20963e-05
4.08011e-06
4.73668e-06
1.07256e-05
4.73603e-06
1.07261e-05
1.20957e-05
1.82453e-05
1.82425e-05
9.70697e-06
2.1556e-05
2.1555e-05
2.15516e-05
2.15505e-05
9.70537e-06
4.51227e-06
2.77857e-06
5.4312e-06
9.38934e-06
2.77851e-06
9.38978e-06
4.51308e-06
4.51854e-06
2.77926e-06
5.43384e-06
9.39371e-06
2.77909e-06
9.39426e-06
4.5192e-06
4.51269e-06
9.38978e-06
5.43197e-06
2.77871e-06
2.77889e-06
9.3893e-06
4.51195e-06
4.51908e-06
9.39444e-06
5.43458e-06
2.77949e-06
2.77956e-06
9.39388e-06
4.51842e-06
9.70542e-06
2.15515e-05
2.15503e-05
2.15559e-05
2.15548e-05
9.70693e-06
4.51216e-06
2.77834e-06
9.38952e-06
5.43154e-06
4.5128e-06
2.77822e-06
9.39005e-06
4.51854e-06
2.7796e-06
9.39424e-06
5.43425e-06
4.51921e-06
2.77952e-06
9.39474e-06
9.70537e-06
2.15519e-05
2.15509e-05
9.70689e-06
2.15564e-05
2.15553e-05
1.824e-05
1.82378e-05
1.82458e-05
1.82434e-05
9.70035e-06
2.15487e-05
2.15483e-05
2.15442e-05
2.15438e-05
9.69882e-06
4.50841e-06
2.77629e-06
5.42789e-06
9.38497e-06
9.38556e-06
2.77604e-06
4.50904e-06
4.51431e-06
2.77749e-06
5.42959e-06
9.39008e-06
9.3906e-06
2.7772e-06
4.51498e-06
4.50896e-06
9.38587e-06
5.4287e-06
2.77596e-06
9.38525e-06
4.50837e-06
2.77623e-06
4.51481e-06
9.39074e-06
5.43032e-06
2.77738e-06
9.39022e-06
4.51409e-06
2.77755e-06
9.69872e-06
2.15438e-05
2.15434e-05
2.15484e-05
2.15479e-05
9.70017e-06
1.82387e-05
1.82409e-05
1.82437e-05
1.8246e-05
9.69896e-06
2.15446e-05
2.15442e-05
9.70043e-06
2.15491e-05
2.15487e-05
4.50939e-06
2.7752e-06
5.42906e-06
9.38639e-06
9.38585e-06
2.77539e-06
4.50855e-06
4.51504e-06
2.77668e-06
5.43039e-06
9.39109e-06
9.39056e-06
2.77685e-06
4.51424e-06
4.50858e-06
9.38558e-06
2.77511e-06
5.42826e-06
4.50923e-06
9.38618e-06
2.77494e-06
4.51426e-06
9.3904e-06
2.77653e-06
5.4296e-06
4.51496e-06
9.39094e-06
2.77638e-06
9.70045e-06
2.15494e-05
2.1549e-05
2.15449e-05
2.15445e-05
9.69898e-06
1.20881e-05
1.07181e-05
4.73809e-06
4.08321e-06
1.07175e-05
4.73852e-06
1.2089e-05
2.18793e-05
9.06379e-06
7.08067e-06
7.07969e-06
2.18744e-05
2.18746e-05
7.0797e-06
9.06355e-06
7.08067e-06
2.18795e-05
1.2089e-05
4.08276e-06
1.07175e-05
4.73857e-06
1.0718e-05
4.73811e-06
1.20882e-05
1.20886e-05
1.07174e-05
4.73948e-06
4.08342e-06
1.20877e-05
1.0718e-05
4.73898e-06
2.187e-05
9.0621e-06
7.07709e-06
2.18753e-05
7.07813e-06
2.18748e-05
7.07791e-06
9.06225e-06
2.18695e-05
7.07691e-06
1.20876e-05
4.08378e-06
1.07179e-05
4.73891e-06
1.20885e-05
1.07174e-05
4.73943e-06
1.20889e-05
1.07176e-05
4.73831e-06
4.08257e-06
1.20881e-05
1.07181e-05
4.73785e-06
2.1875e-05
9.0638e-06
7.07961e-06
7.0806e-06
2.18799e-05
2.18797e-05
7.08061e-06
9.064e-06
2.18748e-05
7.07963e-06
1.20881e-05
4.08298e-06
1.07182e-05
4.7377e-06
1.07176e-05
4.73819e-06
1.20889e-05
9.69803e-06
2.15522e-05
2.15551e-05
2.15475e-05
2.15504e-05
9.69662e-06
4.51195e-06
2.77615e-06
5.42975e-06
9.3904e-06
9.39097e-06
2.77593e-06
4.51257e-06
4.50511e-06
2.7737e-06
5.42674e-06
9.38687e-06
2.77345e-06
9.38741e-06
4.50581e-06
4.51263e-06
9.39127e-06
5.43045e-06
2.77608e-06
9.39067e-06
2.77629e-06
4.51203e-06
4.50567e-06
9.38762e-06
5.42755e-06
2.77359e-06
2.77373e-06
9.38705e-06
4.50499e-06
9.69635e-06
2.15469e-05
2.15499e-05
2.15515e-05
2.15545e-05
9.6978e-06
1.82481e-05
1.82456e-05
1.82425e-05
1.82447e-05
9.69693e-06
2.15481e-05
2.1551e-05
9.69832e-06
2.15526e-05
2.15555e-05
4.51307e-06
2.77535e-06
5.43062e-06
9.3919e-06
2.77554e-06
9.39128e-06
4.51228e-06
4.50616e-06
2.77306e-06
5.42768e-06
9.38816e-06
9.38758e-06
2.77323e-06
4.50545e-06
4.5122e-06
9.39097e-06
2.77533e-06
5.4298e-06
2.77513e-06
4.51292e-06
9.39157e-06
4.50526e-06
9.38729e-06
2.77285e-06
5.42683e-06
4.50583e-06
9.3879e-06
2.77254e-06
9.69848e-06
2.1553e-05
2.15559e-05
2.15485e-05
2.15513e-05
9.69708e-06
1.82461e-05
1.82485e-05
1.20935e-05
1.07254e-05
4.73538e-06
4.08065e-06
1.07248e-05
4.73587e-06
1.20944e-05
2.18823e-05
9.06488e-06
7.07582e-06
7.07478e-06
2.18771e-05
2.18774e-05
7.07509e-06
9.06461e-06
7.07602e-06
2.18826e-05
1.20945e-05
4.08004e-06
1.07247e-05
4.73604e-06
1.07253e-05
4.73546e-06
1.20937e-05
1.20956e-05
4.73589e-06
1.07255e-05
4.08017e-06
1.20949e-05
4.73535e-06
1.0726e-05
2.18795e-05
9.06549e-06
7.076e-06
2.18843e-05
7.07706e-06
2.18844e-05
7.07731e-06
9.06577e-06
2.18797e-05
7.07623e-06
1.20946e-05
4.08052e-06
4.73515e-06
1.07258e-05
1.20954e-05
4.73566e-06
1.07253e-05
1.20944e-05
1.07249e-05
4.73571e-06
4.0806e-06
1.20935e-05
1.07254e-05
4.73528e-06
2.18778e-05
9.06469e-06
7.07562e-06
7.07658e-06
2.1883e-05
2.18828e-05
7.07629e-06
9.06495e-06
2.18777e-05
7.07532e-06
1.20936e-05
4.08103e-06
1.07253e-05
4.73558e-06
1.07248e-05
4.73592e-06
1.20946e-05
1.20942e-05
4.73837e-06
1.07244e-05
4.08491e-06
4.73904e-06
1.07239e-05
1.20949e-05
2.18857e-05
9.06641e-06
7.07968e-06
7.07867e-06
2.1881e-05
2.18807e-05
7.07857e-06
9.06606e-06
7.07955e-06
2.18854e-05
1.20952e-05
4.08444e-06
4.73926e-06
1.07239e-05
4.73874e-06
1.07244e-05
1.20944e-05
1.20923e-05
1.07231e-05
4.74027e-06
4.08508e-06
1.07224e-05
4.74059e-06
1.20932e-05
2.1883e-05
9.06634e-06
7.08e-06
7.07913e-06
2.1878e-05
2.18784e-05
7.07927e-06
9.06607e-06
7.08018e-06
2.18833e-05
1.2093e-05
4.08444e-06
1.07222e-05
4.74034e-06
1.07229e-05
4.74003e-06
1.2092e-05
1.20946e-05
4.73846e-06
1.07238e-05
4.08432e-06
1.20939e-05
4.73787e-06
1.07244e-05
2.18802e-05
9.06582e-06
7.07827e-06
7.07931e-06
2.1885e-05
2.18851e-05
7.07942e-06
9.06615e-06
2.18804e-05
7.07841e-06
1.20936e-05
4.08476e-06
4.73771e-06
1.07243e-05
4.73819e-06
1.07238e-05
1.20944e-05
1.20933e-05
1.07226e-05
4.74066e-06
4.08489e-06
1.20924e-05
1.07232e-05
4.74031e-06
2.18786e-05
9.06616e-06
7.07929e-06
7.08027e-06
2.18834e-05
2.18835e-05
7.08025e-06
9.06641e-06
2.18786e-05
7.07932e-06
1.20924e-05
4.08543e-06
1.07233e-05
4.74034e-06
1.07227e-05
4.74076e-06
1.20932e-05
9.70159e-06
2.15475e-05
2.1548e-05
2.15431e-05
2.15437e-05
9.69998e-06
4.51539e-06
2.77808e-06
5.43006e-06
9.38977e-06
9.39022e-06
2.7777e-06
4.51613e-06
4.50998e-06
2.77752e-06
5.42962e-06
9.38579e-06
2.77717e-06
9.38628e-06
4.51073e-06
4.5159e-06
9.39015e-06
5.43082e-06
2.77707e-06
9.38972e-06
2.77734e-06
4.51513e-06
4.51058e-06
9.38637e-06
5.43037e-06
2.77767e-06
2.77781e-06
9.38587e-06
4.5099e-06
9.70008e-06
2.15432e-05
2.15437e-05
2.15475e-05
2.15481e-05
9.70166e-06
1.82431e-05
1.82407e-05
1.82421e-05
1.82447e-05
9.70004e-06
2.15432e-05
2.15437e-05
9.70154e-06
2.15476e-05
2.15481e-05
4.51615e-06
2.77686e-06
5.43069e-06
9.39017e-06
2.77699e-06
9.38969e-06
4.51534e-06
4.51073e-06
2.77695e-06
5.43014e-06
9.38645e-06
9.38592e-06
2.77715e-06
4.50996e-06
4.5153e-06
9.38969e-06
2.77666e-06
5.42988e-06
2.77641e-06
4.51601e-06
9.39015e-06
4.50994e-06
9.38591e-06
2.77703e-06
5.42943e-06
4.51071e-06
9.38637e-06
2.77676e-06
9.70153e-06
2.15478e-05
2.15483e-05
2.15433e-05
2.15439e-05
9.70006e-06
1.82407e-05
1.82431e-05
1.20925e-05
4.73971e-06
1.07226e-05
4.08413e-06
4.74005e-06
1.07219e-05
1.20935e-05
2.1883e-05
9.06527e-06
7.07878e-06
7.07797e-06
2.1878e-05
2.18783e-05
7.07821e-06
9.06501e-06
7.07906e-06
2.18831e-05
1.20932e-05
4.0835e-06
4.73966e-06
1.07216e-05
4.73938e-06
1.07223e-05
1.20922e-05
1.20907e-05
4.74034e-06
1.07224e-05
4.08455e-06
4.74075e-06
1.07217e-05
1.20918e-05
2.18794e-05
9.06614e-06
7.08227e-06
7.08106e-06
2.18743e-05
2.18743e-05
7.08095e-06
9.06583e-06
7.08211e-06
2.18796e-05
1.20915e-05
4.08405e-06
4.74067e-06
1.07216e-05
4.74014e-06
1.07222e-05
1.20904e-05
1.20934e-05
4.74009e-06
1.07221e-05
4.08397e-06
1.20926e-05
4.7396e-06
1.07229e-05
2.18782e-05
9.0651e-06
7.07838e-06
7.07933e-06
2.18829e-05
2.1883e-05
7.07921e-06
9.06534e-06
2.18783e-05
7.07833e-06
1.20925e-05
4.08461e-06
4.73942e-06
1.07231e-05
4.73999e-06
1.07224e-05
1.20933e-05
1.20921e-05
4.74081e-06
1.07219e-05
4.0842e-06
1.20911e-05
4.7404e-06
1.07226e-05
2.18747e-05
9.06591e-06
7.08061e-06
7.08182e-06
2.188e-05
2.18797e-05
7.08194e-06
9.06616e-06
2.18745e-05
7.08075e-06
1.20913e-05
4.08467e-06
4.74052e-06
1.07228e-05
4.74097e-06
1.07222e-05
1.20923e-05
1.82469e-05
1.82446e-05
1.82467e-05
1.82444e-05
9.7054e-06
2.15517e-05
2.15506e-05
9.70692e-06
2.1556e-05
2.15551e-05
4.5127e-06
2.77784e-06
5.43207e-06
9.3899e-06
4.51193e-06
2.77805e-06
9.38937e-06
4.51933e-06
2.77913e-06
5.43485e-06
9.39467e-06
4.51846e-06
2.7793e-06
9.3942e-06
4.51194e-06
9.38933e-06
2.77801e-06
5.43128e-06
4.51272e-06
2.77772e-06
9.38981e-06
4.51855e-06
9.39405e-06
2.77888e-06
5.43407e-06
4.51924e-06
2.77885e-06
9.3946e-06
9.70684e-06
2.15562e-05
2.15552e-05
9.70533e-06
2.15517e-05
2.15508e-05
1.82449e-05
1.82473e-05
1.82449e-05
1.82473e-05
2.18834e-05
7.08021e-06
9.06656e-06
2.18786e-05
7.0792e-06
1.20931e-05
4.08503e-06
1.07228e-05
4.74066e-06
1.20923e-05
1.07234e-05
4.7402e-06
9.06644e-06
1.82476e-05
1.82476e-05
1.4875e-07
1.48925e-07
2.86827e-07
1.48794e-07
1.48982e-07
7.28696e-08
7.28693e-08
2.63381e-06
1.72274e-06
1.72283e-06
1.09243e-06
1.72192e-06
1.72201e-06
2.63419e-06
2.63372e-06
1.72264e-06
1.72276e-06
1.09196e-06
2.63408e-06
1.72185e-06
1.72188e-06
2.63132e-06
1.7221e-06
1.72229e-06
1.09191e-06
1.72109e-06
1.72129e-06
2.63162e-06
2.63135e-06
1.09344e-06
1.71995e-06
1.72009e-06
1.72077e-06
1.72092e-06
2.63088e-06
2.62878e-06
1.72092e-06
1.7204e-06
1.0911e-06
1.71943e-06
1.71995e-06
2.62909e-06
2.62911e-06
1.09263e-06
1.71895e-06
1.71841e-06
1.71976e-06
1.71921e-06
2.6288e-06
2.63244e-06
1.72274e-06
1.72292e-06
1.09111e-06
1.72194e-06
1.72173e-06
2.6327e-06
2.63264e-06
1.09357e-06
1.72057e-06
1.72079e-06
1.72139e-06
1.7216e-06
2.63225e-06
2.63363e-06
1.09425e-06
1.72136e-06
1.72152e-06
2.63339e-06
1.72213e-06
1.7223e-06
1.48718e-07
1.48718e-07
2.87043e-07
1.48815e-07
1.48805e-07
7.28473e-08
7.28478e-08
1.4885e-07
1.48353e-07
2.86382e-07
1.4893e-07
1.48464e-07
7.28112e-08
7.2811e-08
1.48367e-07
1.48241e-07
2.86229e-07
1.48475e-07
1.48333e-07
7.27182e-08
7.27171e-08
2.86797e-07
1.48747e-07
1.49003e-07
1.48792e-07
1.49008e-07
7.28889e-08
7.28894e-08
2.86926e-07
1.48778e-07
1.48796e-07
1.48784e-07
1.48809e-07
7.28557e-08
7.28568e-08
2.86323e-07
1.48943e-07
1.48463e-07
1.48938e-07
1.48475e-07
7.28142e-08
7.2817e-08
2.86219e-07
1.48416e-07
1.48321e-07
1.48469e-07
1.48329e-07
7.27285e-08
7.27249e-08
1.36171e-06
2.33174e-06
1.2196e-06
2.06877e-06
2.33195e-06
1.2207e-06
1.35977e-06
1.5645e-06
1.98742e-06
3.44037e-06
2.82815e-06
1.98647e-06
2.82728e-06
1.56623e-06
1.56625e-06
2.82718e-06
3.44088e-06
1.98668e-06
1.98741e-06
2.82842e-06
1.56452e-06
1.35943e-06
2.0684e-06
2.33258e-06
1.22018e-06
2.33244e-06
1.21905e-06
1.36169e-06
1.36248e-06
1.22048e-06
2.3343e-06
2.0693e-06
1.22158e-06
2.33351e-06
1.36025e-06
1.56605e-06
1.99062e-06
3.44375e-06
2.83076e-06
1.98964e-06
2.83048e-06
1.56765e-06
1.56719e-06
2.83081e-06
3.44427e-06
1.98983e-06
1.99056e-06
2.8311e-06
1.56588e-06
1.36022e-06
2.06797e-06
1.22082e-06
2.33381e-06
1.21973e-06
2.33386e-06
1.36231e-06
2.63309e-06
1.09439e-06
1.72236e-06
1.72247e-06
1.72312e-06
1.72324e-06
2.63257e-06
2.63083e-06
1.0939e-06
1.72116e-06
1.72138e-06
2.63051e-06
1.72202e-06
1.72224e-06
2.63079e-06
1.0915e-06
1.72082e-06
1.72104e-06
2.63113e-06
1.71966e-06
1.71983e-06
1.36141e-06
2.33194e-06
1.22034e-06
2.06864e-06
2.33159e-06
1.22158e-06
1.35923e-06
1.56513e-06
1.98937e-06
3.44194e-06
2.83081e-06
2.83035e-06
1.98841e-06
1.56689e-06
1.56658e-06
2.83031e-06
3.44262e-06
1.98861e-06
2.83089e-06
1.98933e-06
1.5652e-06
1.35942e-06
2.0677e-06
2.33192e-06
1.22156e-06
2.33187e-06
1.22025e-06
1.36125e-06
1.36142e-06
2.33206e-06
1.22032e-06
2.06777e-06
2.33182e-06
1.22157e-06
1.35947e-06
1.56492e-06
1.98878e-06
3.44183e-06
2.83079e-06
2.83001e-06
1.98778e-06
1.56662e-06
1.56603e-06
2.82994e-06
3.44244e-06
1.98798e-06
2.83017e-06
1.56462e-06
1.98872e-06
1.35905e-06
2.06799e-06
2.33231e-06
1.2215e-06
2.33241e-06
1.22024e-06
1.36122e-06
1.3595e-06
2.33253e-06
1.22002e-06
2.06878e-06
1.36175e-06
2.33271e-06
1.21819e-06
1.56676e-06
1.98867e-06
3.44287e-06
2.82999e-06
1.98934e-06
2.83032e-06
1.56508e-06
1.5651e-06
2.83106e-06
1.98907e-06
3.44218e-06
1.98838e-06
1.56683e-06
2.83062e-06
1.36192e-06
2.06837e-06
2.33242e-06
1.21849e-06
2.33274e-06
1.21972e-06
1.35916e-06
1.35948e-06
2.33179e-06
1.22e-06
2.06793e-06
1.36138e-06
2.33133e-06
1.21814e-06
1.56653e-06
1.98803e-06
3.4424e-06
2.83028e-06
2.83062e-06
1.98873e-06
1.56454e-06
1.56474e-06
2.83057e-06
1.98847e-06
3.44172e-06
1.56617e-06
2.83e-06
1.98776e-06
1.36105e-06
2.0688e-06
2.33114e-06
1.21847e-06
2.33065e-06
1.21967e-06
1.35926e-06
2.62826e-06
1.09327e-06
1.72006e-06
1.71952e-06
1.72036e-06
1.72091e-06
2.62784e-06
2.6284e-06
1.09078e-06
1.71977e-06
1.71919e-06
1.71862e-06
2.62868e-06
1.71807e-06
1.36188e-06
2.33105e-06
1.22117e-06
2.06674e-06
2.3316e-06
1.22245e-06
1.35965e-06
1.5658e-06
1.98957e-06
3.44221e-06
2.83066e-06
2.83028e-06
1.98856e-06
1.56763e-06
1.56666e-06
2.82953e-06
3.44278e-06
1.98869e-06
2.8301e-06
1.98947e-06
1.56443e-06
1.35968e-06
2.06666e-06
2.33166e-06
1.22244e-06
2.33175e-06
1.22116e-06
1.36205e-06
1.36173e-06
1.22112e-06
2.33139e-06
2.06712e-06
1.22238e-06
2.33082e-06
1.35985e-06
1.56599e-06
1.99e-06
3.44273e-06
2.82996e-06
2.82968e-06
1.989e-06
1.56778e-06
1.56691e-06
2.82957e-06
3.44336e-06
1.98913e-06
2.83031e-06
1.56472e-06
1.9899e-06
1.35941e-06
2.06749e-06
1.22233e-06
2.33133e-06
1.22107e-06
2.33118e-06
1.36156e-06
1.35966e-06
2.33049e-06
1.22083e-06
2.0675e-06
1.36157e-06
2.33082e-06
1.2189e-06
1.56685e-06
1.98863e-06
3.44264e-06
2.82905e-06
1.98935e-06
2.83013e-06
1.56565e-06
1.56504e-06
2.83043e-06
1.98917e-06
3.44193e-06
1.98841e-06
1.56654e-06
2.83011e-06
1.36123e-06
2.06695e-06
2.33016e-06
1.21913e-06
2.33085e-06
1.22035e-06
1.35941e-06
1.35991e-06
1.22083e-06
2.33156e-06
2.06807e-06
1.36178e-06
1.21895e-06
2.33101e-06
1.56681e-06
1.98906e-06
3.4433e-06
2.82898e-06
2.82931e-06
1.98979e-06
1.56557e-06
1.56511e-06
2.82937e-06
1.98961e-06
3.44259e-06
1.56675e-06
2.82944e-06
1.98885e-06
1.36176e-06
2.06805e-06
1.21919e-06
2.33133e-06
1.22043e-06
2.33177e-06
1.35945e-06
1.36317e-06
1.2215e-06
2.33431e-06
2.07021e-06
1.22281e-06
2.33385e-06
1.3611e-06
1.5661e-06
1.99137e-06
3.44424e-06
2.83248e-06
1.99033e-06
2.83245e-06
1.56932e-06
1.56766e-06
2.83193e-06
3.44475e-06
1.99042e-06
1.9912e-06
2.83238e-06
1.56544e-06
1.36118e-06
2.06953e-06
1.22284e-06
2.33435e-06
1.22156e-06
2.33431e-06
1.36321e-06
1.35975e-06
2.33118e-06
1.21928e-06
2.06864e-06
1.36168e-06
2.33171e-06
1.21765e-06
1.56579e-06
1.98663e-06
3.44045e-06
2.8273e-06
1.56399e-06
1.98735e-06
2.82804e-06
1.56427e-06
2.8284e-06
1.98715e-06
3.43982e-06
1.566e-06
1.98641e-06
2.82689e-06
1.36121e-06
2.06832e-06
2.33143e-06
1.2181e-06
1.35932e-06
2.3311e-06
1.21926e-06
1.36113e-06
1.22115e-06
2.3344e-06
2.06957e-06
1.363e-06
1.21919e-06
2.33452e-06
1.56764e-06
1.99023e-06
3.44453e-06
2.83232e-06
2.83282e-06
1.99098e-06
1.56604e-06
1.56587e-06
2.83274e-06
1.99087e-06
3.44386e-06
1.5672e-06
2.83179e-06
1.99009e-06
1.36271e-06
2.06985e-06
1.21941e-06
2.33396e-06
1.22066e-06
2.33445e-06
1.36059e-06
2.63186e-06
1.09425e-06
1.72179e-06
1.72202e-06
1.72287e-06
1.72267e-06
2.63155e-06
2.63197e-06
1.09156e-06
1.72145e-06
1.72165e-06
1.72026e-06
2.63226e-06
1.72049e-06
1.3632e-06
1.22154e-06
2.33396e-06
2.07059e-06
1.22281e-06
2.3346e-06
1.36121e-06
1.56785e-06
1.99182e-06
3.44582e-06
2.83307e-06
1.99083e-06
2.83264e-06
1.56945e-06
1.569e-06
2.83283e-06
3.44636e-06
1.99099e-06
1.99175e-06
2.83272e-06
1.56733e-06
1.36092e-06
2.0706e-06
1.22279e-06
2.33435e-06
1.22152e-06
2.33455e-06
1.36314e-06
1.36041e-06
1.22019e-06
2.33447e-06
2.06922e-06
1.36231e-06
1.21836e-06
2.33458e-06
1.56796e-06
1.98978e-06
3.44412e-06
2.83094e-06
1.56625e-06
1.99051e-06
2.83182e-06
1.56581e-06
2.83141e-06
1.9903e-06
3.44346e-06
1.56743e-06
1.98957e-06
2.83117e-06
1.36197e-06
2.07026e-06
1.21874e-06
2.33397e-06
1.35994e-06
1.21991e-06
2.33418e-06
1.36123e-06
1.22118e-06
2.33476e-06
2.07053e-06
1.36313e-06
1.21934e-06
2.33427e-06
1.56852e-06
1.9909e-06
3.44622e-06
2.83249e-06
2.83296e-06
1.99163e-06
1.56671e-06
1.56699e-06
2.83345e-06
1.99145e-06
3.44562e-06
1.5688e-06
2.83314e-06
1.9907e-06
1.36273e-06
2.06994e-06
1.21963e-06
2.33517e-06
1.22084e-06
2.33502e-06
1.36085e-06
2.63289e-06
1.09186e-06
1.72204e-06
1.72216e-06
2.63323e-06
1.72098e-06
1.72112e-06
1.56688e-06
1.99084e-06
2.8322e-06
3.44411e-06
1.99009e-06
1.56815e-06
2.83218e-06
1.36096e-06
2.0696e-06
1.22117e-06
2.33357e-06
1.21968e-06
1.36286e-06
2.33408e-06
1.99154e-06
3.44575e-06
1.9908e-06
2.69074e-07
7.79237e-07
7.78751e-07
1.07212e-06
2.73472e-07
7.86294e-07
7.86192e-07
1.07785e-06
2.76999e-07
7.92021e-07
7.92074e-07
1.08296e-06
2.79657e-07
7.96241e-07
7.9629e-07
1.08634e-06
2.81558e-07
7.99113e-07
7.99081e-07
1.08804e-06
2.82873e-07
8.00962e-07
8.00828e-07
1.09047e-06
2.83637e-07
8.02142e-07
8.01986e-07
1.09228e-06
2.84167e-07
8.03052e-07
8.02731e-07
1.09241e-06
2.84518e-07
8.03344e-07
8.03369e-07
1.0925e-06
2.84654e-07
8.03298e-07
8.03594e-07
1.09286e-06
2.84955e-07
8.03177e-07
8.03762e-07
1.09242e-06
2.85122e-07
8.03167e-07
8.04238e-07
1.09161e-06
2.85381e-07
8.03181e-07
8.04295e-07
1.09129e-06
2.85576e-07
8.03359e-07
8.04252e-07
1.09188e-06
2.85695e-07
8.03642e-07
8.04194e-07
1.09248e-06
2.85835e-07
8.0366e-07
8.04116e-07
1.09213e-06
2.85865e-07
8.03683e-07
8.04012e-07
1.0926e-06
2.85916e-07
8.03701e-07
8.03967e-07
1.09213e-06
2.85996e-07
8.03768e-07
8.0393e-07
1.09286e-06
2.86134e-07
8.03969e-07
8.03971e-07
1.09269e-06
2.86231e-07
8.04156e-07
8.04063e-07
1.09313e-06
2.86359e-07
8.04251e-07
8.04128e-07
1.09364e-06
2.86409e-07
8.04698e-07
8.04238e-07
1.09365e-06
2.86478e-07
8.04881e-07
8.04279e-07
1.0939e-06
2.86544e-07
8.0495e-07
8.04527e-07
1.09419e-06
1.07019e-06
1.07258e-06
7.78539e-07
7.78909e-07
7.85138e-07
7.85388e-07
1.07115e-06
1.0737e-06
7.786e-07
7.79851e-07
7.85093e-07
7.86196e-07
7.80197e-07
7.85047e-07
7.86327e-07
1.07133e-06
1.07353e-06
7.79585e-07
7.84901e-07
7.85697e-07
1.07517e-06
1.07671e-06
1.07844e-06
7.86752e-07
7.86949e-07
7.91378e-07
7.914e-07
1.07745e-06
1.07875e-06
7.86649e-07
7.87712e-07
7.91024e-07
7.91856e-07
7.8784e-07
7.91043e-07
7.91766e-07
1.07746e-06
1.08007e-06
7.87228e-07
7.91065e-07
7.91294e-07
1.08006e-06
1.08227e-06
1.08321e-06
7.93083e-07
7.93097e-07
7.96326e-07
7.96311e-07
1.08242e-06
1.08347e-06
7.92755e-07
7.9361e-07
7.95945e-07
7.96679e-07
7.93442e-07
7.95547e-07
7.96212e-07
1.0828e-06
1.08388e-06
7.92919e-07
7.956e-07
7.95968e-07
1.08343e-06
1.08671e-06
1.08646e-06
7.97584e-07
7.97589e-07
7.99431e-07
7.99331e-07
1.08667e-06
1.08655e-06
7.97203e-07
7.97864e-07
7.99186e-07
7.99553e-07
7.97335e-07
7.9861e-07
7.98997e-07
1.08608e-06
1.08636e-06
7.97134e-07
7.98603e-07
7.98933e-07
1.08576e-06
1.08962e-06
1.08824e-06
8.00277e-07
8.00128e-07
8.01304e-07
8.01364e-07
1.08843e-06
1.08733e-06
8.00033e-07
8.00346e-07
8.01331e-07
8.01182e-07
7.99701e-07
8.00706e-07
8.01046e-07
1.08834e-06
1.08753e-06
7.99701e-07
8.00552e-07
8.01193e-07
1.088e-06
1.0901e-06
1.08871e-06
8.01989e-07
8.02224e-07
8.02578e-07
8.02769e-07
1.08922e-06
1.08874e-06
8.02134e-07
8.01847e-07
8.02603e-07
8.02508e-07
8.01884e-07
8.01889e-07
8.02677e-07
1.08943e-06
1.08838e-06
8.02091e-07
8.01782e-07
8.02928e-07
1.08961e-06
1.09038e-06
1.08885e-06
8.03231e-07
8.03234e-07
8.03201e-07
8.03313e-07
1.09072e-06
1.08937e-06
8.03261e-07
8.03057e-07
8.03307e-07
8.03303e-07
8.02935e-07
8.0299e-07
8.03459e-07
1.0903e-06
1.08917e-06
8.03196e-07
8.02667e-07
8.03769e-07
1.09053e-06
1.09195e-06
1.08921e-06
8.03369e-07
8.03807e-07
8.03243e-07
8.03621e-07
1.09264e-06
1.08974e-06
8.03597e-07
8.03782e-07
8.03429e-07
8.03981e-07
8.03507e-07
8.03334e-07
8.03803e-07
1.09106e-06
1.08986e-06
8.03847e-07
8.03333e-07
8.04174e-07
1.09047e-06
1.092e-06
1.08886e-06
8.03419e-07
8.03799e-07
8.03218e-07
8.03974e-07
1.09138e-06
1.0892e-06
8.03562e-07
8.04314e-07
8.03388e-07
8.04276e-07
8.04201e-07
8.03378e-07
8.04462e-07
1.09172e-06
1.0895e-06
8.04619e-07
8.03431e-07
8.04628e-07
1.09093e-06
1.09055e-06
1.08831e-06
8.03482e-07
8.04106e-07
8.03307e-07
8.04396e-07
1.09079e-06
1.08798e-06
8.03502e-07
8.04512e-07
8.03403e-07
8.04294e-07
8.05068e-07
8.03231e-07
8.04816e-07
1.0912e-06
1.08921e-06
8.05157e-07
8.03755e-07
8.04962e-07
1.0904e-06
1.09004e-06
1.08803e-06
8.03584e-07
8.04639e-07
8.03379e-07
8.04508e-07
1.09112e-06
1.0885e-06
8.03557e-07
8.04596e-07
8.03562e-07
8.04374e-07
8.04949e-07
8.03169e-07
8.04648e-07
1.09105e-06
1.08943e-06
8.05111e-07
8.04224e-07
8.04923e-07
1.08925e-06
1.08985e-06
1.08791e-06
8.03762e-07
8.04533e-07
8.03575e-07
8.04411e-07
1.09137e-06
1.08861e-06
8.03746e-07
8.04544e-07
8.03612e-07
8.04389e-07
8.04752e-07
8.03195e-07
8.04436e-07
1.09102e-06
1.08904e-06
8.05077e-07
8.04318e-07
8.04826e-07
1.08882e-06
1.08968e-06
1.08786e-06
8.03854e-07
8.04531e-07
8.0349e-07
8.04293e-07
1.09025e-06
1.0885e-06
8.03893e-07
8.04535e-07
8.03741e-07
8.04259e-07
8.04574e-07
8.03338e-07
8.0434e-07
1.09224e-06
1.08932e-06
8.04992e-07
8.0429e-07
8.04764e-07
1.08943e-06
1.08966e-06
1.08737e-06
8.03732e-07
8.04432e-07
8.0347e-07
8.04145e-07
1.09027e-06
1.08802e-06
8.04024e-07
8.04479e-07
8.037e-07
8.04212e-07
8.04629e-07
8.03631e-07
8.04401e-07
1.09237e-06
1.08935e-06
8.04882e-07
8.04248e-07
8.04791e-07
1.08982e-06
1.09039e-06
1.08751e-06
8.0378e-07
8.04256e-07
8.03534e-07
8.04029e-07
1.08977e-06
1.08797e-06
8.03934e-07
8.04515e-07
8.03668e-07
8.04275e-07
8.046e-07
8.03695e-07
8.04473e-07
1.09243e-06
1.08969e-06
8.04975e-07
8.04186e-07
8.04795e-07
1.0902e-06
1.09044e-06
1.08799e-06
8.03658e-07
8.04121e-07
8.03438e-07
8.03885e-07
1.08986e-06
1.08782e-06
8.03816e-07
8.04426e-07
8.03636e-07
8.04224e-07
8.04783e-07
8.037e-07
8.04631e-07
1.09263e-06
1.0899e-06
8.04951e-07
8.04093e-07
8.04778e-07
1.09008e-06
1.08964e-06
1.08794e-06
8.03599e-07
8.03997e-07
8.03471e-07
8.03772e-07
1.09075e-06
1.0882e-06
8.03702e-07
8.04452e-07
8.03532e-07
8.04253e-07
8.04924e-07
8.03664e-07
8.04725e-07
1.09278e-06
1.0899e-06
8.04886e-07
8.03986e-07
8.0465e-07
1.09017e-06
1.09085e-06
1.08855e-06
8.0365e-07
8.04016e-07
8.03619e-07
8.03846e-07
1.09116e-06
1.0885e-06
8.03824e-07
8.04555e-07
8.03577e-07
8.04293e-07
8.04904e-07
8.03743e-07
8.04848e-07
1.09208e-06
1.09013e-06
8.04805e-07
8.03927e-07
8.04609e-07
1.09095e-06
1.09151e-06
1.08898e-06
8.03848e-07
8.04112e-07
8.03937e-07
8.03967e-07
1.0915e-06
1.08883e-06
8.03947e-07
8.04449e-07
8.03849e-07
8.04242e-07
8.04911e-07
8.03955e-07
8.0493e-07
1.09194e-06
1.09036e-06
8.04892e-07
8.03792e-07
8.04707e-07
1.09034e-06
1.09217e-06
1.08927e-06
8.04041e-07
8.04066e-07
8.04099e-07
8.04075e-07
1.09189e-06
1.08921e-06
8.04035e-07
8.04483e-07
8.03971e-07
8.04253e-07
8.05063e-07
8.04138e-07
8.05014e-07
1.09206e-06
1.08997e-06
8.05032e-07
8.04063e-07
8.04838e-07
1.0906e-06
1.0926e-06
1.08968e-06
8.04155e-07
8.04223e-07
8.0427e-07
8.04208e-07
1.09207e-06
1.08957e-06
8.04165e-07
8.04532e-07
8.04142e-07
8.04412e-07
8.05172e-07
8.04235e-07
8.05107e-07
1.09175e-06
1.09016e-06
8.04975e-07
8.04127e-07
8.04856e-07
1.09109e-06
1.09307e-06
1.09003e-06
8.04397e-07
8.0437e-07
8.0442e-07
8.04298e-07
1.09239e-06
1.09e-06
8.04239e-07
8.04525e-07
8.04303e-07
8.04501e-07
8.05321e-07
8.04682e-07
8.05323e-07
1.09195e-06
1.0905e-06
8.05117e-07
8.04225e-07
8.04893e-07
1.09133e-06
1.0934e-06
1.09039e-06
8.04673e-07
8.04447e-07
8.04697e-07
8.04407e-07
1.09277e-06
1.09051e-06
8.04514e-07
8.04539e-07
8.04523e-07
8.04575e-07
8.0543e-07
8.0487e-07
8.05339e-07
1.09231e-06
1.09084e-06
8.05037e-07
8.04127e-07
8.04908e-07
1.09135e-06
1.0929e-06
1.09089e-06
8.04818e-07
8.0444e-07
8.04842e-07
8.04428e-07
1.09231e-06
1.09069e-06
8.04823e-07
8.04628e-07
8.04822e-07
8.04566e-07
8.05614e-07
8.04932e-07
8.05464e-07
1.09272e-06
1.0912e-06
8.05064e-07
8.04516e-07
8.04852e-07
1.09174e-06
1.09396e-06
1.09135e-06
8.04961e-07
8.04834e-07
8.04939e-07
8.04727e-07
1.09262e-06
1.09079e-06
8.05086e-07
8.0488e-07
8.05078e-07
8.05004e-07
8.05613e-07
8.05117e-07
8.05578e-07
1.0931e-06
1.09158e-06
8.05124e-07
8.0466e-07
8.04877e-07
1.09182e-06
4.06784e-06
9.02916e-06
9.03349e-06
4.06661e-06
1.81944e-05
1.82017e-05
4.06944e-06
9.03134e-06
9.03532e-06
4.06828e-06
2.69708e-07
2.69735e-07
2.70093e-07
2.72713e-07
2.73341e-07
2.73406e-07
2.73665e-07
2.05062e-06
3.42484e-06
4.80014e-07
7.82475e-07
3.42577e-06
4.83257e-07
2.04882e-06
1.81949e-05
1.82014e-05
2.05083e-06
4.79371e-07
3.42429e-06
7.82106e-07
4.82638e-07
3.42558e-06
2.04908e-06
5.41176e-06
5.41197e-06
1.07255e-06
5.41304e-06
5.41297e-06
4.0723e-06
9.03893e-06
4.07133e-06
9.04233e-06
1.82069e-05
1.82133e-05
4.07331e-06
9.04089e-06
4.07215e-06
9.04487e-06
2.74254e-07
2.74316e-07
2.74538e-07
2.76402e-07
2.76642e-07
2.76797e-07
2.76889e-07
2.05643e-06
3.43005e-06
4.87245e-07
7.89134e-07
2.05464e-06
3.43168e-06
4.90066e-07
1.82056e-05
1.8212e-05
2.05727e-06
4.8681e-07
3.42946e-06
7.89088e-07
2.05519e-06
4.89719e-07
3.4308e-06
5.41721e-06
5.41626e-06
1.0778e-06
5.41831e-06
5.41761e-06
4.0771e-06
9.04687e-06
4.07566e-06
9.04996e-06
1.82166e-05
1.82218e-05
4.0782e-06
9.049e-06
4.07661e-06
9.05225e-06
2.77745e-07
2.7779e-07
2.77835e-07
2.79201e-07
2.79657e-07
2.79644e-07
2.79637e-07
2.06301e-06
3.43658e-06
4.93018e-07
7.94387e-07
2.06067e-06
3.43853e-06
4.95439e-07
1.82155e-05
1.82212e-05
2.06228e-06
4.92766e-07
3.43577e-06
7.94405e-07
2.0603e-06
4.95212e-07
3.43759e-06
5.42155e-06
5.42164e-06
1.08215e-06
5.4221e-06
5.42274e-06
4.08254e-06
9.05327e-06
4.08108e-06
9.05585e-06
1.82228e-05
1.82271e-05