/*--------------------------------*- C++ -*----------------------------------*\
| =========                 |                                                 |
| \\      /  F ield         | OpenFOAM: The Open Source CFD Toolbox           |
|  \\    /   O peration     | Version:  v1906                                 |
|   \\  /    A nd           | Web:      www.OpenFOAM.com                      |
|    \\/     M anipulation  |                                                 |
\*---------------------------------------------------------------------------*/
FoamFile
{
    version     2.0;
    format      ascii;
    class       surfaceScalarField;
    location    "200";
    object      phi;
}
// * * * * * * * * * * * * * * * * * * * * * * * * * * * * * * * * * * * * * //

dimensions      [0 3 -1 0 0 0 0];
oriented        oriented;


internalField   nonuniform List<scalar> 
123680
(
9.53755e-10
-3.17027e-09
3.76267e-09
-1.23894e-09
0.00119159
-0.00119159
-1.24895e-06
-5.07051e-09
1.11036e-08
0.00114231
-2.73612e-07
1.25086e-06
2.69736e-07
9.09327e-07
-2.60157e-07
2.57282e-07
-9.07855e-07
-0.00114231
-1.24416e-06
-2.66361e-09
1.41187e-08
0.00114209
-2.74431e-07
1.24498e-06
2.69134e-07
9.08839e-07
-2.63407e-07
2.5963e-07
-9.08415e-07
-0.00114209
1.2768e-06
1.24179e-06
-2.38255e-07
-2.44354e-07
0.000269938
-0.000271974
-0.000271974
1.27675e-06
1.24194e-06
-2.38512e-07
-2.44165e-07
0.000269938
1.28328e-06
1.24526e-06
-2.36355e-07
-2.45298e-07
0.000269924
-0.000271971
-1.28529e-06
-1.24894e-06
-0.000269922
2.4023e-07
2.47787e-07
0.000271969
9.39927e-09
0.0011415
-2.79105e-07
1.28521e-06
2.75411e-07
9.08293e-07
-2.61141e-07
2.56436e-07
-9.08899e-07
-0.0011415
-1.28702e-06
2.9338e-09
4.87227e-09
0.00114196
-2.8041e-07
1.29242e-06
2.79602e-07
9.13472e-07
-2.64575e-07
2.58539e-07
-9.14762e-07
-0.00114196
-9.65323e-10
-0.0011415
8.27024e-09
-1.28306e-06
2.75433e-07
-2.78968e-07
-9.08684e-07
2.56491e-07
-2.61036e-07
9.08805e-07
0.0011415
1.29176e-06
2.41177e-09
-0.00114195
5.73154e-09
-1.28743e-06
2.79127e-07
-2.80812e-07
-9.14151e-07
2.58874e-07
-2.64208e-07
9.14185e-07
0.00114194
-2.39961e-07
-2.40658e-07
0.000269948
-0.000272004
-1.25065e-06
-0.000269945
2.42467e-07
2.45914e-07
0.000271999
5.08965e-09
0.00114259
-2.75456e-07
1.2494e-06
2.7379e-07
9.10495e-07
-2.64671e-07
2.58405e-07
-9.12114e-07
-0.0011426
-1.28201e-06
5.235e-09
6.28953e-09
0.00114165
-2.80827e-07
1.28669e-06
2.79317e-07
9.09986e-07
-2.64863e-07
2.58058e-07
-9.12344e-07
-0.00114165
1.88877e-09
-0.00114259
4.87278e-09
-1.2455e-06
2.73549e-07
-2.75628e-07
-9.1184e-07
2.58694e-07
-2.64467e-07
9.11122e-07
0.00114259
1.28624e-06
4.22784e-09
-0.00114164
7.09636e-09
-1.28242e-06
2.79082e-07
-2.81097e-07
-9.12231e-07
2.58271e-07
-2.64766e-07
9.10409e-07
0.00114163
-5.30385e-09
6.13205e-09
0.00114149
-2.7541e-07
1.28067e-06
2.73128e-07
9.0913e-07
-2.60422e-07
2.56938e-07
-9.07953e-07
-0.00114149
-5.62305e-09
-0.0011423
1.00637e-08
-1.24898e-06
2.69732e-07
-2.7362e-07
-9.0736e-07
2.57243e-07
9.09888e-07
-2.60235e-07
0.0011423
1.28038e-06
0.00114149
-5.72703e-09
-0.00114149
6.53103e-09
-1.27715e-06
2.73063e-07
-2.75625e-07
-9.07876e-07
2.56987e-07
-2.60486e-07
9.12149e-07
-2.37815e-07
-2.4384e-07
0.000269921
-0.000271965
-1.24475e-06
-0.000269918
2.39262e-07
2.48355e-07
0.000271962
-3.82739e-09
1.5342e-09
0.00114265
-2.71964e-07
1.24741e-06
2.71553e-07
9.0914e-07
-2.63643e-07
2.59406e-07
-9.08362e-07
-0.00114265
-3.0276e-09
-0.00114208
1.23811e-08
-1.24432e-06
2.69351e-07
-2.7424e-07
-9.08161e-07
2.59433e-07
9.09292e-07
-2.63696e-07
0.00114208
1.24702e-06
0.00114265
-3.58437e-09
-0.00114265
3.36712e-09
-1.24223e-06
2.71344e-07
-2.7247e-07
-9.08376e-07
2.59758e-07
-2.63396e-07
9.09479e-07
-0.000269938
2.43382e-07
2.48249e-07
5.84146e-09
-2.75247e-07
1.28066e-06
2.73161e-07
9.11805e-07
-2.60393e-07
2.56771e-07
-9.10599e-07
-5.44727e-09
-2.71919e-07
1.24707e-06
2.71268e-07
-2.63318e-07
2.59456e-07
-3.44235e-09
2.96415e-09
9.09098e-07
-9.08279e-07
1.25934e-10
-6.16748e-08
0.000228054
2.93582e-08
1.95243e-09
-0.000228024
-5.91746e-09
4.11932e-08
0.000191563
-6.78346e-09
-0.000191591
8.34603e-09
-3.82117e-08
0.000191592
1.06178e-09
-0.000191563
7.25829e-10
5.93009e-08
0.000228025
-2.80178e-08
-7.61158e-10
-0.000228056
5.96266e-09
2.13066e-08
9.67947e-05
-9.68219e-05
-8.16701e-09
-1.94984e-08
9.68226e-05
-9.67949e-05
-6.09971e-08
-4.57838e-10
0.000228127
2.38682e-09
2.70083e-08
-0.000228095
-5.37937e-09
4.38166e-08
0.000191615
-8.0458e-09
-0.000191645
8.89903e-09
-3.99427e-08
0.000191644
1.07871e-09
-0.000191614
5.98099e-08
-3.85411e-10
0.000228096
-1.15053e-10
-2.63177e-08
-0.000228129
-3.61456e-09
3.56596e-09
0.00119157
-0.00119158
-2.10073e-09
7.21547e-09
0.00119127
-0.00119127
-3.9395e-09
-6.29707e-09
0.00119154
-0.00119154
-0.00119159
2.89418e-09
-9.60558e-10
0.00119159
-0.00119157
-3.19693e-09
3.30986e-09
0.00119157
-0.00119126
-1.57359e-09
6.08779e-09
0.00119126
-0.00119154
-3.11304e-09
-5.34774e-09
0.00119154
6.20288e-08
-1.81548e-09
0.000250431
2.77787e-09
-1.85844e-07
-0.000250308
-1.93142e-08
-4.30557e-08
1.01046e-07
0.000244278
1.34643e-08
-0.00024433
0.00116362
6.07895e-09
-3.60942e-09
1.00535e-06
-8.21864e-07
8.26865e-07
-1.00052e-06
-0.00116362
1.07207e-08
1.25057e-06
0.00114231
-5.6316e-09
-9.07057e-07
2.57282e-07
-2.60046e-07
9.10048e-07
-1.24887e-06
2.69533e-07
-2.73607e-07
2.03405e-08
4.05916e-08
0.000244331
-1.56021e-08
-0.000244279
-9.81527e-08
-1.23115e-09
0.00116362
-3.59709e-09
-1.00019e-06
8.26861e-07
-8.21919e-07
1.00565e-06
-5.8346e-08
1.60778e-09
0.000250308
-1.69345e-09
1.80874e-07
-0.00025043
6.11464e-09
2.37848e-08
9.67747e-05
-9.68046e-05
-8.39561e-09
-2.09773e-08
9.68034e-05
-9.67741e-05
8.08281e-11
6.20001e-08
0.000250396
-1.8531e-07
1.64174e-09
-0.000250274
0.00116342
9.72892e-09
-1.87643e-09
9.99741e-07
-8.16977e-07
8.20605e-07
-9.95005e-07
-0.00116342
-2.02252e-08
-4.05549e-08
1.01178e-07
0.000244186
1.43001e-08
-0.00024424
1.42164e-08
1.2447e-06
0.00114209
-3.27924e-09
-9.08122e-07
2.59421e-07
-2.63474e-07
9.0916e-07
-1.2442e-06
2.68959e-07
-2.74466e-07
2.16356e-09
0.00116342
-2.08889e-09
-9.95097e-07
8.20849e-07
-8.17173e-07
9.998e-07
1.99439e-08
3.86276e-08
0.000244241
-1.52104e-08
-0.000244186
-9.80835e-08
2.95179e-09
-5.85596e-08
0.000250275
1.81339e-07
-3.61705e-09
-0.000250397
2.17485e-08
-2.08453e-08
4.60564e-08
0.000275934
-1.02969e-08
-0.000275971
2.14275e-08
-2.0962e-08
4.40204e-08
0.000275871
-1.08122e-08
-0.000275905
-1.28041e-06
-1.24711e-06
0.000271974
-0.000269939
2.43487e-07
2.48176e-07
-2.25122e-08
1.94417e-08
0.000275971
1.10849e-08
-0.000275934
-4.49655e-08
-2.27755e-08
1.96378e-08
0.000275907
1.12162e-08
-0.000275872
-4.27468e-08
-0.000275971
2.16722e-08
-2.09686e-08
4.60226e-08
-1.00448e-08
0.000275934
-0.000275909
2.20218e-08
-2.02641e-08
4.33755e-08
-1.13708e-08
0.000275875
2.12201e-08
9.67851e-05
-9.68122e-05
-1.93296e-08
9.68132e-05
-9.67856e-05
2.19617e-08
9.67936e-05
-9.68209e-05
-1.8556e-08
9.68211e-05
-9.67936e-05
1.92844e-08
4.41496e-08
0.000275909
-1.06617e-08
-0.000275941
2.05855e-08
4.48282e-08
0.000275884
-9.36253e-09
-0.000275918
0.00027197
-1.28495e-06
-1.24912e-06
-0.000269924
2.40451e-07
2.47397e-07
0.000275942
-2.03659e-08
1.17258e-08
-0.00027591
-4.27701e-08
0.000275918
-2.35184e-08
1.25892e-08
-0.000275884
-4.19485e-08
-1.90233e-08
-8.57135e-09
-9.67865e-05
9.68141e-05
2.10864e-08
6.08389e-09
9.67861e-05
-1.90292e-08
-8.50689e-09
-9.67938e-05
9.68214e-05
2.17172e-08
5.64906e-09
9.67937e-05
1.28295e-06
1.24513e-06
0.000269923
-2.36362e-07
-2.45093e-07
-2.07315e-08
-4.25048e-08
-0.000275911
1.18171e-08
0.000275943
-2.30895e-08
-4.21952e-08
-0.000275884
1.19578e-08
0.000275919
1.91555e-08
-1.04924e-08
4.41131e-08
0.00027591
2.09345e-08
-9.89368e-09
4.48046e-08
0.000275884
-6.16762e-08
0.000228097
2.93162e-08
2.35567e-09
-0.000228067
4.13575e-08
0.000191611
-6.70075e-09
-0.00019164
-3.83879e-08
0.00019164
1.52939e-09
-0.000191611
5.95463e-08
0.000228067
-2.82379e-08
-5.69177e-11
-0.000228098
-1.01228e-09
0.000250386
2.04284e-09
-1.87827e-07
-0.000250261
9.94015e-08
0.00024418
1.33523e-08
-0.000244232
0.00116372
4.54169e-09
1.36417e-09
1.00443e-06
-8.23286e-07
8.25752e-07
-1.00155e-06
-0.00116372
9.30343e-09
0.0011415
-1.71188e-09
-1.28314e-06
2.75202e-07
-2.79045e-07
-9.08557e-07
2.56524e-07
-2.60958e-07
9.08568e-07
0.000244233
-1.57042e-08
-0.00024418
-9.52125e-08
-2.96048e-09
0.00116372
1.09786e-09
-1.00132e-06
8.25885e-07
-8.23206e-07
1.00479e-06
1.80432e-09
0.000250261
-1.52527e-09
1.84609e-07
-0.000250387
0.000250417
3.64336e-09
-1.8777e-07
-0.000250295
-2.10875e-08
1.02043e-07
0.00024421
1.25632e-08
-0.000244263
0.00116388
3.65478e-09
1.00692e-06
-8.23785e-07
8.2552e-07
-1.00499e-06
-0.00116388
5.48995e-09
0.00114195
1.292e-06
2.41235e-09
-9.14426e-07
2.58744e-07
9.13737e-07
-2.64307e-07
-1.28696e-06
2.79296e-07
-2.80488e-07
0.000244263
2.28671e-08
-1.60506e-08
-0.000244211
-9.75727e-08
0.00116388
3.36028e-09
-1.0046e-06
8.25714e-07
-8.23646e-07
1.00738e-06
0.000250296
-1.76884e-09
1.84994e-07
-0.000250418
2.67499e-10
5.9214e-08
-2.82267e-08
-6.23304e-10
0.000228023
-3.83432e-08
-0.000191564
8.38017e-10
0.000191593
4.11455e-08
-6.6943e-09
0.000191563
-3.36664e-10
-6.20152e-08
-0.000228023
2.94346e-08
2.18679e-09
0.000228054
5.9292e-08
-2.82999e-08
-4.83884e-10
0.000228067
-3.87438e-08
7.96875e-09
-0.000191612
1.73587e-09
0.000191641
4.11374e-08
-6.26595e-09
-6.43145e-09
0.000191611
-6.19886e-08
-0.000228067
2.95501e-08
2.06759e-09
0.000228097
1.75311e-09
-1.70433e-09
1.84566e-07
0.000250261
8.51631e-09
-6.72322e-10
1.28516e-06
-2.7897e-07
2.75244e-07
9.08229e-07
-2.61032e-07
2.56345e-07
-9.08912e-07
-9.5411e-08
-0.000244181
-1.59751e-08
0.000244233
-0.00116372
-3.27326e-09
2.073e-09
-1.00133e-06
8.25416e-07
-8.23629e-07
1.00471e-06
0.00116372
1.3297e-08
9.9247e-08
0.00024418
4.3236e-09
1.73565e-09
1.00438e-06
-8.23417e-07
-1.00137e-06
8.25451e-07
-1.32808e-09
-0.000250261
2.1268e-09
-1.87875e-07
0.000250386
-2.12041e-09
1.84699e-07
0.000250295
5.37339e-09
-1.28709e-06
2.89634e-09
9.13496e-07
-2.64312e-07
-9.14583e-07
2.58615e-07
1.29185e-06
-2.80575e-07
2.79164e-07
2.2603e-08
-9.77707e-08
-0.000244211
-1.57719e-08
0.000244263
-0.00116388
3.97026e-09
-1.00438e-06
8.25443e-07
-8.23819e-07
1.00745e-06
0.00116387
-2.14521e-08
1.29114e-08
1.01859e-07
0.000244211
4.00039e-09
1.00703e-06
-8.23731e-07
-1.00451e-06
8.25337e-07
-0.000250295
3.27251e-09
-1.87931e-07
0.000250417
4.44305e-08
0.000275881
-1.29529e-08
-0.000275912
-2.3439e-08
4.34983e-08
0.000276018
-1.30165e-08
-0.000276044
0.000272002
-0.000269948
2.42335e-07
2.46116e-07
0.000275913
1.39783e-08
-0.000275881
-4.25872e-08
2.113e-08
0.000276045
1.46954e-08
-0.000276018
-4.25254e-08
6.03121e-09
9.68132e-05
-9.68427e-05
9.68433e-05
-8.68477e-09
-9.68135e-05
-1.97955e-08
-9.67961e-05
9.68238e-05
2.08888e-08
9.67954e-05
1.24881e-06
0.000269947
-2.39836e-07
-2.40933e-07
-4.28865e-08
-0.000275883
1.36209e-08
0.000275915
2.12381e-08
-2.04757e-08
-4.25739e-08
-0.00027602
1.47367e-08
0.000276047
-1.35467e-08
4.42366e-08
0.000275882
-2.37781e-08
1.8911e-08
-1.25506e-08
4.3968e-08
0.000276019
-8.52554e-09
-9.68141e-05
9.68439e-05
5.68968e-09
9.68138e-05
-2.4253e-09
0.00025041
3.39049e-09
-1.81744e-07
-0.00025029
9.98786e-08
0.000244216
1.22058e-08
-0.000244264
0.00116351
1.81757e-09
6.97466e-09
1.00365e-06
-8.21552e-07
8.24566e-07
-9.99295e-07
-0.00116352
5.1536e-09
0.00114259
2.46142e-09
-1.24519e-06
2.73625e-07
-2.75476e-07
-9.1198e-07
2.58552e-07
-2.64505e-07
9.10795e-07
0.000244264
-1.64015e-08
-0.000244216
-9.45978e-08
-5.51251e-09
0.00116351
6.55635e-09
-1.00205e-06
8.22075e-07
-8.24126e-07
1.00106e-06
1.22925e-09
0.00025029
-1.27329e-09
1.80257e-07
-0.000250411
-6.09417e-08
0.000228088
2.70118e-08
1.78016e-09
-0.000228056
4.3666e-08
0.000191554
-6.59192e-09
-0.000191585
-3.98732e-08
0.000191584
1.26298e-09
-0.000191554
5.95772e-08
0.000228058
-2.61056e-08
-6.69216e-10
-0.000228091
0.000250378
-1.84178e-07
2.43967e-09
-0.00025026
0.00116351
8.17479e-09
1.00322e-06
-8.24335e-07
8.24553e-07
-1.00265e-06
-0.00116351
-2.13203e-08
9.99237e-08
0.000244139
1.5603e-08
-0.00024419
6.84859e-09
0.00114164
1.28637e-06
4.79669e-09
-9.12385e-07
2.58087e-07
9.1007e-07
-2.64781e-07
-1.28208e-06
2.79076e-07
-2.80942e-07
0.0011635
7.88486e-09
-1.00255e-06
8.24693e-07
-8.24326e-07
1.00338e-06
0.000244188
2.28843e-08
-1.80214e-08
-0.000244138
-9.4369e-08
0.000250261
1.82671e-07
-2.61401e-09
-0.00025038
5.99502e-08
1.30277e-10
-2.32153e-10
-2.64147e-08
0.000228094
-4.02846e-08
-0.000191614
1.65781e-09
0.000191644
4.38855e-08
-7.70338e-09
0.000191614
-6.11855e-08
-3.03352e-10
-0.000228093
2.18542e-09
2.70091e-08
0.000228125
1.1418e-09
-1.31394e-09
1.8004e-07
0.00025029
4.59301e-09
2.76695e-09
1.24906e-06
-2.75438e-07
2.7356e-07
9.10514e-07
-2.64559e-07
2.58392e-07
-9.12179e-07
-9.47346e-08
-0.000244216
-1.59829e-08
0.000244263
-0.0011635
-5.30116e-09
6.26906e-09
-1.00203e-06
8.2187e-07
-8.24207e-07
1.00101e-06
0.00116351
1.25713e-08
9.99326e-08
0.000244216
1.9235e-09
6.89796e-09
1.00331e-06
-8.21384e-07
-9.99454e-07
8.24514e-07
-2.20926e-09
-0.00025029
3.009e-09
-1.81808e-07
0.00025041
6.02647e-08
-2.65363e-08
-6.47791e-10
0.000228055
-3.99782e-08
8.56215e-09
-0.000191552
1.23196e-09
0.000191582
4.38482e-08
-5.93684e-09
-6.76593e-09
0.000191553
-6.12235e-08
-0.000228054
2.70014e-08
1.85055e-09
0.000228086
1.83143e-07
-2.54675e-09
0.000250259
6.97301e-09
-1.28212e-06
5.21019e-09
9.09777e-07
-2.64831e-07
-9.12648e-07
2.57953e-07
1.28628e-06
-2.8093e-07
2.79029e-07
-0.0011635
7.27103e-09
-1.00222e-06
8.24572e-07
-8.24569e-07
1.00363e-06
0.00116349
2.2939e-08
-9.45297e-08
-0.000244137
-1.82265e-08
0.000244187
8.05056e-09
1.00318e-06
-8.24481e-07
-1.00245e-06
8.24362e-07
-2.11621e-08
1.54711e-08
9.99432e-08
0.000244138
-0.000250259
-1.84405e-07
2.43355e-09
0.000250377
-3.61466e-10
0.00022812
2.11886e-09
2.94902e-08
-0.000228089
0.00019164
-6.74956e-09
-0.00019167
0.000191671
1.28642e-09
-0.00019164
2.45466e-10
0.000228088
-6.30523e-10
-2.76869e-08
-0.000228119
6.20445e-08
0.000250395
-1.83336e-07
2.69973e-09
-0.000250278
0.00116365
-3.17242e-09
1.00265e-06
-8.22297e-07
8.2677e-07
-9.97945e-07
-0.00116364
-4.06787e-08
9.865e-08
0.000244188
1.3341e-08
-0.000244238
6.51228e-09
0.00114149
-5.85605e-09
-1.27668e-06
2.72884e-07
-2.75486e-07
-9.07681e-07
2.5692e-07
-2.60411e-07
9.09556e-07
0.00116365
-3.67228e-09
-9.97662e-07
8.26959e-07
-8.22101e-07
1.00295e-06
3.85368e-08
0.000244239
-1.56582e-08
-0.000244189
-9.5556e-08
-5.85338e-08
0.000250278
1.78602e-07
-2.30686e-09
-0.000250394
0.000228074
2.95879e-08
1.99366e-09
-0.000228043
-6.40101e-09
0.000191557
-5.93732e-09
-0.000191586
0.000191586
8.05684e-09
1.76245e-09
-0.000191557
0.000228044
-2.76878e-08
-5.77587e-10
-0.000228074
-5.89833e-08
1.40663e-09
-1.86473e-09
1.81237e-07
0.000250309
1.00677e-08
-5.09994e-09
1.25059e-06
-2.73502e-07
2.69597e-07
9.095e-07
-2.60159e-07
-9.07384e-07
2.57076e-07
4.07199e-08
-9.81268e-08
-0.00024428
-1.56165e-08
0.000244332
-0.00116362
-3.03683e-09
-3.17371e-09
-9.99938e-07
8.26445e-07
1.00589e-06
-8.22383e-07
0.00116363
-4.31984e-08
1.31451e-08
1.01026e-07
0.000244279
5.60195e-09
-3.24129e-09
1.00553e-06
-8.22152e-07
-1.00001e-06
8.26439e-07
6.19667e-08
-2.10706e-09
-0.000250311
2.69094e-09
-1.85659e-07
0.000250434
6.65851e-11
-6.56597e-10
-2.80977e-08
0.000228089
-0.00019164
1.48963e-09
0.000191671
-6.82712e-09
0.00019164
-1.92905e-10
-0.00022809
1.71539e-09
2.94225e-08
0.000228121
-5.90906e-08
1.78811e-07
-2.41002e-09
0.000250279
6.37614e-09
-1.27676e-06
-5.01118e-09
9.09018e-07
-2.6049e-07
-9.07958e-07
2.56765e-07
1.28041e-06
-2.75483e-07
2.72974e-07
-0.00116365
0.00116365
-3.26915e-09
-9.97435e-07
8.26544e-07
-8.22511e-07
1.00584e-06
3.85419e-08
2.25239e-08
0.00024424
-9.55176e-08
-0.00024419
-1.54712e-08
-3.17339e-09
1.00267e-06
-8.22334e-07
-9.97615e-07
8.26465e-07
-4.09524e-08
-2.16803e-08
1.33376e-08
9.89268e-08
0.00024419
6.18802e-08
0.000250396
-0.00025028
-1.83078e-07
2.89784e-09
-2.81192e-08
-8.62833e-10
0.000228044
8.1198e-09
0.000191587
-0.000191558
1.57411e-09
-6.23984e-09
-6.33048e-09
0.000191558
0.000228074
-0.000228044
2.9344e-08
1.80414e-09
4.69864e-08
0.000275825
-9.3374e-09
-0.00027586
-2.04844e-08
4.59231e-08
0.000275916
-1.09261e-08
-0.00027595
0.000271964
-0.00026992
2.39192e-07
2.48373e-07
0.000275858
1.19522e-08
-0.000275824
-4.40324e-08
1.9309e-08
0.00027595
1.08796e-08
-0.000275915
-4.4952e-08
6.79746e-09
9.67799e-05
-9.68072e-05
9.68075e-05
-8.10846e-09
-9.678e-05
-2.09893e-08
-9.67731e-05
9.68026e-05
2.40061e-08
9.67735e-05
1.24416e-06
0.00026992
-2.37936e-07
-2.44114e-07
-4.41241e-08
-0.000275823
1.1695e-08
0.000275857
1.88808e-08
-2.04512e-08
-4.47626e-08
-0.000275916
1.17542e-08
0.00027595
-9.50532e-09
4.72147e-08
0.000275823
-2.13522e-08
1.95069e-08
-1.01226e-08
4.64721e-08
0.000275916
-8.6773e-09
-9.678e-05
9.68076e-05
6.1534e-09
9.678e-05
6.22425e-08
0.000250418
-1.83028e-07
4.32695e-09
-0.000250301
0.00116359
-2.38047e-09
1.00234e-06
-8.19791e-07
8.2371e-07
-9.98172e-07
-0.00116358
-4.09331e-08
1.01576e-07
0.000244199
1.2734e-08
-0.000244251
1.9706e-09
0.00114265
-4.56744e-09
-1.24172e-06
2.71312e-07
-2.72053e-07
-9.07777e-07
2.59526e-07
-2.63547e-07
9.09626e-07
0.00116359
-2.60154e-09
-9.98164e-07
8.23787e-07
-8.19872e-07
1.00258e-06
3.88279e-08
0.000244253
-1.62407e-08
-0.0002442
-9.81186e-08
-5.86203e-08
0.000250301
1.7867e-07
-1.24363e-09
-0.000250416
1.26286e-10
0.000228072
1.58231e-09
2.95344e-08
-0.000228042
0.000191554
-5.44158e-09
-0.000191583
0.000191583
1.81724e-09
-0.000191555
7.01796e-10
0.000228041
-1.40875e-09
-2.77045e-08
-0.000228071
0.000228103
2.27929e-09
2.76605e-08
-0.000228071
-6.15723e-09
0.000191588
-6.63575e-09
-0.000191616
0.000191617
8.1202e-09
1.77243e-09
-0.000191588
0.000228071
-4.15415e-11
-2.56031e-08
-0.000228103
2.56232e-09
-5.86684e-08
1.81376e-07
-2.60876e-09
0.000250273
1.33559e-08
-2.29666e-09
1.24469e-06
-2.74341e-07
2.69066e-07
9.09075e-07
-2.63683e-07
-9.08035e-07
2.59223e-07
-0.00116342
1.06685e-09
-1.29084e-09
-9.95487e-07
8.20537e-07
9.9954e-07
-8.17495e-07
0.00116343
3.83692e-08
-9.78329e-08
-0.000244186
-1.573e-08
0.000244241
8.69663e-09
-1.35463e-09
9.99211e-07
-8.16878e-07
-9.95432e-07
8.20872e-07
-4.09844e-08
1.35437e-08
1.01525e-07
0.000244186
-9.0744e-10
6.20747e-08
-0.000250272
-1.85571e-07
2.46602e-09
0.000250394
-5.8709e-08
1.78971e-07
-1.8585e-09
0.000250302
2.45725e-09
-1.24183e-06
-3.0667e-09
9.08891e-07
-2.6347e-07
-9.08533e-07
2.59503e-07
1.24711e-06
-2.72158e-07
2.71295e-07
-0.00116359
-1.60926e-09
-9.97928e-07
8.23442e-07
-8.20491e-07
1.00282e-06
0.00116359
3.90354e-08
2.24307e-08
0.000244254
-9.82375e-08
-0.000244202
-1.57943e-08
-1.55443e-09
1.00227e-06
-8.20156e-07
-9.9818e-07
8.23307e-07
-4.066e-08
-2.17588e-08
1.29829e-08
1.01267e-07
0.000244201
6.19466e-08
-0.000250302
-1.82851e-07
3.80667e-09
0.000250419
3.96543e-10
-1.03249e-09
-2.78666e-08
0.000228042
-0.000191555
9.467e-10
0.000191584
-6.42569e-09
0.000191555
-8.81777e-11
-0.000228042
2.14618e-09
2.95669e-08
0.000228073
-3.53632e-10
-2.56498e-08
0.000228071
7.73746e-09
0.000191619
-0.000191589
2.19812e-09
-6.62972e-09
-5.67408e-09
0.000191589
-0.000228071
1.75909e-09
2.74595e-08
0.000228104
9.67865e-05
-9.68137e-05
9.68143e-05
-9.67868e-05
9.67855e-05
-9.68127e-05
9.68139e-05
-9.67861e-05
0.000269939
-2.38465e-07
-2.44451e-07
1.94425e-08
-4.51115e-08
-0.000275934
1.11911e-08
1.99259e-08
-4.30511e-08
-0.000275874
1.09311e-08
-2.10702e-08
-1.00917e-08
4.64062e-08
0.000275934
-2.06187e-08
-1.12904e-08
4.39837e-08
0.000275873
9.68148e-05
-9.67872e-05
9.6787e-05
9.68147e-05
-9.67871e-05
9.67866e-05
1.00552e-06
-8.22092e-07
8.26667e-07
-1.00038e-06
-1.37506e-09
-3.54637e-09
-4.08583e-08
9.88035e-08
1.3454e-08
0.00024419
-5.86468e-08
0.000250277
1.78422e-07
-1.12903e-09
-1.27938e-10
-6.23461e-09
-6.46632e-09
0.000191559
0.000228045
-2.80128e-08
-7.43605e-10
-7.49154e-11
-4.04426e-08
1.01099e-07
0.000244203
1.33008e-08
-6.89838e-09
0.000191591
-5.56356e-09
9.67876e-05
9.67876e-05
-7.57577e-10
2.79212e-08
0.000141665
-6.62677e-10
-0.000141691
-0.000169156
6.04963e-10
2.19356e-11
0.000169185
-0.00022176
2.87222e-08
4.68183e-09
0.00022179
-6.15003e-08
-2.80706e-08
-5.99238e-10
-0.000228054
3.72756e-10
5.9081e-08
-0.000169185
9.22077e-11
-1.06445e-09
-0.00022179
5.87019e-08
3.32604e-09
0.000141691
-2.68797e-08
-7.82277e-05
7.82577e-05
-3.16869e-09
1.06798e-09
0.000191591
8.43204e-09
-3.81152e-08
0.000260705
-2.92001e-08
1.209e-09
5.33162e-08
-0.000260737
0.000260737
-4.58899e-09
-5.28607e-08
8.30175e-10
-7.82577e-05
2.9329e-08
7.82277e-05
-0.000260705
2.68207e-08
0.000260737
-5.30487e-08
-6.64641e-09
-6.13305e-09
4.11617e-08
5.33441e-08
7.82579e-05
-4.4252e-10
-2.87301e-08
-0.000141665
2.93958e-08
1.86709e-09
5.63588e-10
-6.15672e-08
0.000169156
5.88731e-10
3.26472e-10
-0.000169185
0.00022176
-2.789e-08
5.88843e-08
-0.000221791
2.29679e-10
-6.13548e-08
-0.000141692
9.68222e-05
-8.28436e-09
-1.92133e-08
6.18411e-09
2.10717e-08
2.61717e-08
-6.13063e-10
0.000141776
-5.21229e-10
-0.000141801
-0.00022189
2.64926e-08
4.93342e-09
0.000221922
-6.08993e-08
-0.00016924
3.96252e-10
5.7696e-11
0.000169267
-4.01304e-10
-2.63521e-08
-0.00022813
-3.1743e-10
6.23306e-08
-5.5866e-10
-0.000221925
6.1904e-08
-0.000169267
7.54836e-11
2.98396e-09
0.0001418
-2.44957e-08
-7.82937e-05
7.83212e-05
-2.9983e-09
9.45507e-10
0.000191645
8.99993e-09
-3.98694e-08
0.000260872
-2.74515e-08
4.95812e-10
5.61772e-08
-0.000260909
0.000260908
-5.01346e-09
-5.50436e-08
4.89588e-10
-7.83216e-05
2.74484e-08
7.82932e-05
-0.000260871
2.45102e-08
0.000260907
-5.5134e-08
-7.90591e-09
-5.45802e-09
4.38932e-08
5.632e-08
7.83207e-05
-2.65271e-08
-4.39462e-10
-0.000141777
2.738e-09
2.70205e-08
-5.79475e-10
-6.34599e-08
0.000221891
-2.61481e-08
5.92898e-08
-0.000221924
0.000169241
7.10789e-10
-3.13318e-12
-0.000169268
-6.33584e-08
-3.6206e-11
-0.000141802
9.68041e-05
-8.34707e-09
-2.10345e-08
6.09387e-09
2.39025e-08
-1.26439e-08
-1.21715e-08
0.000211972
2.19346e-08
2.41664e-08
-0.000211993
-7.96964e-05
-1.2058e-08
-1.4156e-08
7.97226e-05
-7.96841e-05
-1.26117e-08
-1.36484e-08
7.97104e-05
1.34301e-08
-7.97225e-05
1.39499e-08
-7.97102e-05
-2.20819e-08
-2.41319e-08
0.000211993
-2.93592e-08
3.11096e-08
-0.000220727
0.000220761
2.21661e-08
-5.77189e-08
0.000250147
-3.09705e-08
9.06298e-08
4.66846e-08
-0.000250207
-4.5012e-08
1.0888e-08
0.000275971
1.95555e-08
-2.23919e-08
0.000181305
3.06796e-08
-1.34714e-08
-0.000181333
0.000250207
-9.18235e-08
-4.32033e-08
0.000181333
1.41081e-08
-2.2001e-08
5.53447e-08
-0.00022076
-2.9844e-08
2.90026e-08
-0.000220664
0.000220698
2.43158e-08
-5.73484e-08
0.000250051
-3.05399e-08
9.60801e-08
4.58916e-08
-0.000250119
-4.25594e-08
1.13551e-08
0.000275906
1.94061e-08
-2.27838e-08
0.000181255
2.89872e-08
-1.36928e-08
-0.000181281
0.000250119
-9.61578e-08
-4.4045e-08
0.000181282
1.38093e-08
-2.39528e-08
5.61994e-08
-0.000220698
3.0947e-08
-3.08944e-08
0.000220727
5.55624e-08
-0.000181306
-3.09411e-08
0.000181334
4.61785e-08
-1.01421e-08
-2.09292e-08
2.17964e-08
-0.000250147
2.95309e-08
0.000250208
-9.17509e-08
-4.33669e-08
9.05824e-08
4.66045e-08
0.000220761
-5.74411e-08
3.06921e-08
-2.90182e-08
0.000220664
5.62448e-08
-0.000181256
-2.90574e-08
0.000181282
4.40285e-08
-1.10712e-08
-2.07939e-08
2.15936e-08
-0.000250052
2.99751e-08
0.00025012
-9.63113e-08
-4.41266e-08
9.60035e-08
4.60643e-08
0.000220698
-5.72631e-08
1.22227e-08
1.25363e-08
-0.000211971
7.96962e-05
1.24949e-08
-7.97221e-05
7.96839e-05
1.23311e-08
-7.97099e-05
-0.000211992
-0.000220728
-2.95985e-08
3.10021e-08
2.22962e-08
-5.74893e-08
-3.0684e-08
0.000250148
-0.000250209
9.0667e-08
4.64126e-08
3.08581e-08
0.000181307
-1.3389e-08
-0.000181334
-4.51537e-08
1.10223e-08
1.9432e-08
-2.25856e-08
-2.17328e-08
-0.000220761
5.55941e-08
-9.17243e-08
-4.34592e-08
1.40667e-08
-0.000220665
-2.96765e-08
2.9391e-08
2.41542e-08
-5.77714e-08
-3.06715e-08
0.000250053
-0.00025012
9.55237e-08
4.61052e-08
2.86072e-08
0.000181257
-1.39338e-08
-0.000181283
-4.31782e-08
1.08498e-08
1.99922e-08
-2.23773e-08
-2.41175e-08
-0.000220699
5.5842e-08
-9.66244e-08
-4.38869e-08
1.36607e-08
-0.000211973
1.21515e-08
1.25962e-08
1.26119e-08
7.96969e-05
-7.97229e-05
1.20779e-08
7.96847e-05
-7.97107e-05
-0.000211994
9.68127e-05
-1.92193e-08
2.10378e-08
9.6821e-05
-1.84217e-08
2.1927e-08
-1.22451e-08
-1.30043e-08
0.00021196
2.45634e-08
2.17582e-08
-0.000211981
-7.96913e-05
-1.24978e-08
-1.38741e-08
7.97177e-05
-7.96787e-05
-1.18493e-08
-1.44817e-08
7.9705e-05
1.37682e-08
-7.97173e-05
1.30775e-08
-7.97048e-05
-2.37049e-08
-2.24897e-08
0.000211982
2.90222e-08
-2.92937e-08
-0.000220708
0.000220742
2.37167e-08
-5.75239e-08
0.000250125
-3.12272e-08
9.61671e-08
4.43535e-08
-0.00025019
1.15367e-08
-4.25974e-08
0.000275941
-2.01585e-08
0.000181292
2.90184e-08
-1.38255e-08
-0.000181318
0.000181319
1.37533e-08
0.00025019
-9.66129e-08
-4.06864e-08
-2.45534e-08
5.59522e-08
-0.000220742
2.82992e-08
-3.03255e-08
-0.000220646
0.000220684
2.26345e-08
-5.90159e-08
0.000250039
-3.01664e-08
9.68832e-08
4.83269e-08
-0.00025011
1.279e-08
-4.17938e-08
0.000275918
-2.35964e-08
0.000181249
2.96547e-08
-1.28976e-08
-0.000181276
0.000181276
1.4669e-08
0.00025011
-9.56435e-08
-4.67183e-08
-2.15535e-08
5.89275e-08
-0.000220684
-2.90924e-08
0.000220709
3.10762e-08
5.61793e-08
-0.000181293
-2.90388e-08
0.00018132
-1.05214e-08
4.39364e-08
1.9318e-08
2.94489e-08
-0.000250125
0.00025019
-9.65408e-08
-4.1042e-08
0.000220743
-5.74239e-08
9.59003e-08
4.3968e-08
-2.97784e-08
0.000220647
3.02243e-08
5.90538e-08
-0.00018125
-2.83546e-08
0.000181276
-9.58816e-09
4.48513e-08
2.07355e-08
3.03085e-08
-0.00025004
0.00025011
-9.56716e-08
-4.67275e-08
0.000220685
-5.8951e-08
9.67432e-08
4.84725e-08
1.26948e-08
1.17376e-08
-0.000211959
7.96909e-05
1.21084e-08
-7.97168e-05
7.96784e-05
1.30836e-08
-7.97044e-05
-0.00021198
-9.68136e-05
2.11743e-08
5.95322e-09
-1.90894e-08
-8.48399e-09
-9.68211e-05
2.1444e-08
5.82595e-09
-1.87414e-08
-8.65402e-09
-0.000211961
1.23875e-08
1.20443e-08
-2.38522e-08
-2.24251e-08
0.000211983
1.23695e-08
7.96917e-05
1.35819e-08
1.27929e-08
7.9679e-05
1.3247e-08
2.43648e-08
2.18051e-08
-1.39425e-08
7.97181e-05
-1.42588e-08
7.97053e-05
-2.90095e-08
3.07891e-08
0.00022071
-0.000220743
-2.42412e-08
5.59802e-08
-0.000250126
2.97719e-08
-9.61994e-08
-4.13377e-08
0.000250191
-1.03825e-08
4.3999e-08
-0.000275942
1.8888e-08
-0.000181295
-2.89194e-08
1.40385e-08
0.000181321
-0.00018132
-1.35389e-08
-0.000250191
9.61933e-08
4.36098e-08
2.3984e-08
-5.74359e-08
0.000220744
-2.94659e-08
3.04771e-08
0.000220647
-0.000220685
-2.19126e-08
5.88051e-08
-0.00025004
3.00942e-08
-9.59068e-08
-4.6592e-08
0.00025011
-1.02222e-08
4.45341e-08
-0.000275918
2.10301e-08
-0.00018125
-2.86006e-08
1.40998e-08
0.000181276
-0.000181276
-1.34731e-08
-0.00025011
9.66404e-08
4.85204e-08
2.23066e-08
-5.91552e-08
0.000220686
-0.000220709
2.90033e-08
-2.93495e-08
-5.75185e-08
2.89895e-08
0.000181294
-3.11148e-08
0.000250126
9.62084e-08
4.38666e-08
1.16913e-08
-4.24598e-08
-2.05732e-08
5.60076e-08
-9.62182e-08
-4.10036e-08
-0.000220647
2.8489e-08
-2.99917e-08
-5.91126e-08
2.96521e-08
0.00018125
-3.05319e-08
0.00025004
9.6844e-08
4.85259e-08
1.2169e-08
-4.19332e-08
-2.33471e-08
5.90222e-08
-9.56504e-08
-4.65616e-08
-1.24472e-08
-1.25865e-08
0.000211962
-7.96921e-05
-1.23355e-08
7.97184e-05
-7.96793e-05
-1.22654e-08
7.97056e-05
0.000211983
-7.94092e-10
2.60097e-08
0.000141742
-6.39263e-10
-0.000141767
-0.000169194
5.5685e-10
0.000169223
-0.000221857
2.67091e-08
4.63113e-09
0.000221891
-6.37332e-08
-2.8206e-08
-4.752e-10
-0.000228097
5.92836e-08
-0.000169223
-1.05901e-09
-0.000221892
6.16037e-08
2.86681e-09
0.000141767
-2.49426e-08
-7.8279e-05
7.83068e-05
-2.89052e-09
1.42456e-09
0.000191639
-3.81415e-08
0.00026083
-2.7059e-08
9.95444e-10
5.59866e-08
-0.000260866
0.000260866
-4.71233e-09
-5.53552e-08
6.25337e-10
-7.83067e-05
2.70251e-08
7.82792e-05
-0.00026083
2.49588e-08
0.000260866
-5.56221e-08
-6.6123e-09
4.12788e-08
5.58146e-08
7.8307e-05
-6.93661e-10
-2.66394e-08
-0.000141743
2.92806e-08
2.77656e-09
-6.14059e-08
0.000169194
9.32111e-10
-0.000169223
0.000221857
-2.61445e-08
6.19139e-08
-0.000221892
-6.34265e-08
-0.000141767
-0.000141664
-7.96645e-10
-2.86406e-08
3.38266e-09
0.00014169
9.43232e-10
0.000169156
-2.75031e-11
-2.8036e-08
0.00022176
-1.05118e-09
5.87611e-08
2.92442e-08
1.95128e-09
0.000228054
1.90409e-10
-6.16856e-08
-5.838e-10
0.000169184
-5.85495e-11
4.69502e-09
0.00022179
-6.14809e-08
7.82283e-05
2.94119e-08
-7.82582e-05
4.93491e-10
-6.82648e-09
-0.000191592
4.09323e-08
2.67439e-08
-0.000260706
-4.77741e-09
-5.32327e-08
0.000260738
-3.43871e-09
7.82584e-05
-0.000260737
9.66995e-10
5.31209e-08
-7.8228e-05
-2.68158e-08
-2.93424e-08
0.000260705
5.34026e-08
1.00617e-09
-3.8276e-08
-5.3048e-08
0.000141664
-1.06176e-09
2.80141e-08
-2.81853e-08
-5.7491e-10
-8.54152e-11
5.89561e-08
8.94298e-10
-0.000169155
-2.32674e-10
0.000169184
2.87234e-08
-0.00022176
-6.1669e-08
0.00022179
0.00014169
-1.39419e-10
5.85253e-08
-0.000141742
-4.99014e-10
-2.66692e-08
2.7714e-09
0.000141767
7.28664e-10
0.000169194
-2.60814e-08
0.000221857
-1.26404e-09
6.15172e-08
2.91913e-08
2.33882e-09
0.000228097
-6.15475e-08
-7.11663e-10
0.000169222
4.4287e-09
0.000221892
-6.3808e-08
2.68027e-08
7.82796e-05
-7.83072e-05
7.62248e-10
-6.29726e-09
-0.00019164
-6.38609e-09
4.07975e-08
-0.000260831
2.52361e-08
-4.44409e-09
-5.60497e-08
0.000260868
-0.000260867
1.42411e-09
5.52946e-08
-2.68178e-09
7.83076e-05
-7.82794e-05
-2.50863e-08
-2.69294e-08
0.00026083
5.56993e-08
1.66574e-09
8.07762e-09
-3.85563e-08
-5.57794e-08
-6.32545e-10
2.6e-08
0.000141742
-2.81323e-08
-7.52236e-10
5.89544e-08
-0.000169193
2.86487e-10
0.000169222
-0.000221857
2.68951e-08
-6.41221e-08
0.000221892
6.13182e-08
0.000141767
-1.22403e-08
-1.28464e-08
0.000211999
2.42319e-08
2.20355e-08
-0.00021202
-7.96915e-05
-1.26035e-08
-1.37422e-08
7.97179e-05
-7.97091e-05
-1.19201e-08
-1.44261e-08
7.97355e-05
1.37926e-08
-7.97176e-05
1.3152e-08
-7.97351e-05
-2.40596e-08
-2.21468e-08
0.00021202
2.89892e-08
-3.24014e-08
-0.000220672
0.000220708
2.43201e-08
-5.70596e-08
0.00025004
-3.27977e-08