/*--------------------------------*- C++ -*----------------------------------*\
| =========                 |                                                 |
| \\      /  F ield         | OpenFOAM: The Open Source CFD Toolbox           |
|  \\    /   O peration     | Version:  v1906                                 |
|   \\  /    A nd           | Web:      www.OpenFOAM.com                      |
|    \\/     M anipulation  |                                                 |
\*---------------------------------------------------------------------------*/
FoamFile
{
    version     2.0;
    format      ascii;
    class       surfaceScalarField;
    location    "250";
    object      phi;
}
// * * * * * * * * * * * * * * * * * * * * * * * * * * * * * * * * * * * * * //

dimensions      [0 3 -1 0 0 0 0];
oriented        oriented;


internalField   nonuniform List<scalar> 
123680
(
5.90675e-09
2.55835e-09
-6.82122e-10
-2.84886e-09
0.0011915
-0.0011915
-1.22794e-06
-4.61379e-09
2.21071e-10
0.00113603
-2.60557e-07
1.23335e-06
2.61567e-07
8.92391e-07
-2.48937e-07
2.46355e-07
-8.91797e-07
-0.00113603
-1.22294e-06
-3.98381e-09
2.93355e-09
0.0011356
-2.61113e-07
1.22707e-06
2.60759e-07
8.92383e-07
-2.51726e-07
2.48871e-07
-8.91651e-07
-0.0011356
1.25741e-06
1.22329e-06
-2.26533e-07
-2.31835e-07
0.000268416
-0.000270438
-0.000270438
1.25737e-06
1.22368e-06
-2.26856e-07
-2.31805e-07
0.000268416
1.26312e-06
1.22578e-06
-2.23408e-07
-2.32006e-07
0.00026844
-0.000270474
-1.26633e-06
-1.23003e-06
-0.00026844
2.27743e-07
2.35311e-07
0.000270473
5.08127e-09
0.0011352
-2.67217e-07
1.26624e-06
2.65766e-07
8.93208e-07
-2.47999e-07
2.47188e-07
-8.90993e-07
-0.0011352
-1.26821e-06
-6.56362e-09
1.25771e-09
0.00113562
-2.69725e-07
1.27217e-06
2.68942e-07
8.98681e-07
-2.50933e-07
2.49885e-07
-8.9662e-07
-0.00113562
-4.80354e-09
-0.00113519
5.24385e-09
-1.26297e-06
2.65782e-07
-2.67191e-07
-8.9127e-07
2.46821e-07
-2.48306e-07
8.92978e-07
0.00113519
1.27206e-06
-6.39096e-09
-0.00113562
1.63718e-09
-1.26826e-06
2.69034e-07
-2.6969e-07
-8.96585e-07
2.49748e-07
-2.51062e-07
8.98754e-07
0.00113562
-2.25828e-07
-2.29079e-07
0.000268462
-0.000270503
-1.23314e-06
-0.000268463
2.30993e-07
2.32706e-07
0.000270504
2.10439e-09
0.0011363
-2.63858e-07
1.23016e-06
2.64066e-07
8.95267e-07
-2.51722e-07
2.49072e-07
-8.94489e-07
-0.0011363
-1.26283e-06
-4.58701e-09
2.80154e-09
0.00113524
-2.69484e-07
1.26636e-06
2.69027e-07
8.95249e-07
-2.51478e-07
2.4907e-07
-8.94166e-07
-0.00113524
-2.02879e-09
-0.00113629
2.52113e-09
-1.22586e-06
2.63997e-07
-2.63891e-07
-8.948e-07
2.48964e-07
-2.51791e-07
8.95055e-07
0.00113629
1.26652e-06
-3.29476e-09
-0.00113524
2.06637e-09
-1.26269e-06
2.69087e-07
-2.69485e-07
-8.94389e-07
2.48835e-07
-2.51718e-07
8.95192e-07
0.00113524
-4.61951e-09
4.24637e-09
0.001135
-2.64107e-07
1.26073e-06
2.6312e-07
8.9258e-07
-2.4875e-07
2.46221e-07
-8.91413e-07
-0.001135
-3.8586e-09
-0.00113603
4.63309e-10
-1.22805e-06
2.61444e-07
-2.60616e-07
-8.91724e-07
2.46523e-07
8.92533e-07
-2.4876e-07
0.00113602
1.26077e-06
0.001135
-3.39726e-09
-0.001135
3.68924e-09
-1.25751e-06
2.63246e-07
-2.64139e-07
-8.91626e-07
2.46126e-07
-2.48886e-07
8.95026e-07
-2.2367e-07
-2.31746e-07
0.000268405
-0.000270436
-1.22672e-06
-0.000268406
2.27429e-07
2.35194e-07
0.000270436
-2.87312e-09
2.36379e-09
0.00113609
-2.61549e-07
1.22687e-06
2.60544e-07
8.92465e-07
-2.51543e-07
2.49032e-07
-8.91708e-07
-0.00113609
-4.57556e-09
-0.0011356
2.88812e-09
-1.22333e-06
2.60518e-07
-2.61519e-07
-8.91637e-07
2.49027e-07
8.92524e-07
-2.51616e-07
0.0011356
1.2266e-06
0.00113609
-3.00514e-09
-0.00113609
3.74125e-09
-1.22371e-06
2.60193e-07
-2.62002e-07
-8.91727e-07
2.48962e-07
-2.51657e-07
8.92507e-07
-0.000268416
2.29722e-07
2.35178e-07
3.29295e-09
-2.64081e-07
1.26096e-06
2.63207e-07
8.94931e-07
-2.48987e-07
2.46017e-07
-8.94454e-07
-3.39897e-09
-2.61947e-07
1.22664e-06
2.60229e-07
-2.51678e-07
2.4891e-07
-3.79743e-09
4.14597e-09
8.92442e-07
-8.91867e-07
-3.22711e-10
-5.54571e-08
0.00022798
2.57687e-08
1.37967e-09
-0.000227951
-6.2386e-09
3.6285e-08
0.000192021
-4.75346e-09
-0.000192046
6.95672e-09
-3.5393e-08
0.000192048
2.38685e-09
-0.000192022
1.46562e-10
5.24664e-08
0.00022795
-2.47465e-08
-5.70038e-10
-0.000227977
6.17013e-09
1.80027e-08
9.71392e-05
-9.71634e-05
-7.09135e-09
-1.71464e-08
9.71635e-05
-9.71392e-05
-5.51824e-08
3.55422e-10
0.000228009
8.37141e-10
2.39052e-08
-0.000227979
-5.97309e-09
3.87993e-08
0.000192044
-5.62205e-09
-0.000192071
6.91726e-09
-3.75102e-08
0.000192072
3.05638e-09
-0.000192044
5.28513e-08
4.4531e-10
0.000227979
-5.77675e-10
-2.24996e-08
-0.000228009
-3.80578e-09
-4.33849e-09
0.00119148
-0.00119148
-3.24056e-09
-3.05754e-09
0.00119104
-0.00119104
-1.58322e-09
-2.85988e-09
0.00119122
-0.00119122
-0.00119149
-2.96013e-10
-2.52362e-09
0.00119149
-0.00119147
-3.40747e-09
-4.41146e-09
0.00119147
-0.00119104
-3.99667e-09
-2.80504e-09
0.00119104
-0.00119121
-1.87023e-09
-2.23495e-09
0.00119121
5.50536e-08
-1.94822e-09
0.000249539
2.37791e-09
-1.72704e-07
-0.000249422
-1.60942e-08
-3.92037e-08
9.27864e-08
0.000244126
1.04602e-08
-0.000244174
0.00115798
1.16599e-09
-3.71882e-09
9.86295e-07
-8.04267e-07
8.08203e-07
-9.82669e-07
-0.00115798
3.34397e-10
1.23326e-06
0.00113603
-4.32915e-09
-8.91664e-07
2.464e-07
-2.48922e-07
8.92509e-07
-1.22797e-06
2.61532e-07
-2.6055e-07
1.77952e-08
3.72008e-08
0.000244175
-1.34681e-08
-0.000244127
-9.01849e-08
-5.81703e-09
0.00115798
-3.18648e-09
-9.82651e-07
8.0797e-07
-8.04411e-07
9.86324e-07
-5.28123e-08
1.22064e-09
0.000249422
-4.76881e-10
1.69344e-07
-0.000249539
5.75984e-09
2.05122e-08
9.71194e-05
-9.71457e-05
-7.45986e-09
-1.92559e-08
9.71466e-05
-9.71199e-05
-1.27246e-09
5.50615e-08
0.000249495
-1.72508e-07
1.8833e-09
-0.000249378
0.00115764
2.83073e-09
-1.99024e-09
9.80474e-07
-7.99366e-07
8.02126e-07
-9.77333e-07
-0.00115764
-1.6561e-08
-3.68386e-08
9.26674e-08
0.000244059
1.09363e-08
-0.000244109
2.8598e-09
1.22692e-06
0.0011356
-4.13839e-09
-8.9159e-07
2.48887e-07
-2.51744e-07
8.92504e-07
-1.22311e-06
2.60635e-07
-2.61337e-07
-4.77621e-09
0.00115764
-1.96947e-09
-9.77594e-07
8.02181e-07
-7.99664e-07
9.80286e-07
1.76777e-08
3.50762e-08
0.00024411
-1.31606e-08
-0.000244059
-9.02068e-08
1.3148e-09
-5.27431e-08
0.000249378
1.69595e-07
-1.35048e-09
-0.000249495
1.91442e-08
-1.85021e-08
4.15865e-08
0.000276252
-8.7828e-09
-0.000276286
1.98678e-08
-1.75542e-08
3.88488e-08
0.0002762
-1.02146e-08
-0.000276231
-1.26068e-06
-1.22674e-06
0.000270438
-0.000268416
2.2974e-07
2.35176e-07
-2.00168e-08
1.66871e-08
0.000276286
1.0045e-08
-0.000276253
-4.05092e-08
-1.92479e-08
1.74902e-08
0.000276231
9.60149e-09
-0.0002762
-3.87572e-08
-0.000276287
1.88164e-08
-1.84161e-08
4.16233e-08
-8.57568e-09
0.000276253
-0.000276231
1.96699e-08
-1.78749e-08
3.90147e-08
-1.00075e-08
0.0002762
1.77795e-08
9.71389e-05
-9.71629e-05
-1.72484e-08
9.71632e-05
-9.7139e-05
1.80586e-08
9.71383e-05
-9.71623e-05
-1.73756e-08
9.71629e-05
-9.71386e-05
1.72111e-08
3.86764e-08
0.000276251
-9.95605e-09
-0.000276279
1.87469e-08
3.93134e-08
0.000276207
-9.45694e-09
-0.000276238
0.000270473
-1.26631e-06
-1.23015e-06
-0.00026844
2.2797e-07
2.3527e-07
0.00027628
-1.71527e-08
9.87711e-09
-0.000276251
-3.89107e-08
0.000276239
-2.0042e-08
1.00781e-08
-0.000276208
-3.85368e-08
-1.70296e-08
-7.08719e-09
-9.7139e-05
9.71632e-05
1.80014e-08
6.15774e-09
9.71391e-05
-1.76144e-08
-6.7417e-09
-9.71392e-05
9.71635e-05
1.78015e-08
6.25519e-09
9.71388e-05
1.26296e-06
1.22579e-06
0.00026844
-2.23529e-07
-2.31802e-07
-1.73047e-08
-3.87805e-08
-0.000276253
1.02284e-08
0.000276282
-1.96275e-08
-3.882e-08
-0.000276209
9.65974e-09
0.00027624
1.7051e-08
-9.66757e-09
3.8846e-08
0.000276252
1.91258e-08
-9.79379e-09
3.9116e-08
0.000276208
-5.54948e-08
0.000228013
2.58548e-08
1.35909e-09
-0.000227985
3.66234e-08
0.000192051
-5.05137e-09
-0.000192077
-3.53185e-08
0.000192078
2.13861e-09
-0.000192052
5.25334e-08
0.000227984
-2.46981e-08
-4.63882e-10
-0.000228011
-1.08464e-09
0.000249518
8.64584e-10
-1.75722e-07
-0.000249398
8.94396e-08
0.000244073
1.17751e-08
-0.000244121
0.0011581
6.05432e-09
-3.98271e-09
9.86822e-07
-8.04157e-07
8.08387e-07
-9.82233e-07
-0.00115811
5.19178e-09
0.0011352
-5.51362e-09
-1.26305e-06
2.65792e-07
-2.67197e-07
-8.91053e-07
2.47081e-07
-2.48087e-07
8.93123e-07
0.000244122
-1.25328e-08
-0.000244074
-8.84844e-08
-1.04796e-09
0.0011581
-3.29228e-09
-9.82424e-07
8.08256e-07
-8.04259e-07
9.86773e-07
1.79303e-09
0.000249397
-1.33884e-09
1.7155e-07
-0.000249516
0.000249542
2.36417e-09
-1.75901e-07
-0.000249425
-1.93911e-08
9.21782e-08
0.000244079
1.14652e-08
-0.000244127
0.00115824
-4.98024e-09
9.8983e-07
-8.04305e-07
8.08525e-07
-9.85122e-07
-0.00115824
1.28436e-09
0.00113562
1.27212e-06
-6.50897e-09
-8.96736e-07
2.49803e-07
8.98775e-07
-2.50977e-07
-1.26819e-06
2.6898e-07
-2.69716e-07
0.000244129
1.96824e-08
-1.27994e-08
-0.00024408
-9.07608e-08
0.00115824
-4.65604e-09
-9.85167e-07
8.08531e-07
-8.04285e-07
9.8993e-07
0.000249423
-1.80936e-09
1.71657e-07
-0.000249539
-8.12761e-11
5.257e-08
-2.47751e-08
-4.33159e-10
0.000227953
-3.51679e-08
-0.000192023
2.13229e-09
0.000192049
3.64128e-08
-4.89356e-09
0.000192022
-2.53311e-10
-5.51894e-08
-0.000227954
2.57494e-08
1.40371e-09
0.000227982
5.25851e-08
-2.47291e-08
-5.23488e-10
0.000227985
-3.5188e-08
7.4059e-09
-0.000192053
1.80999e-09
0.000192079
3.67225e-08
-5.90428e-09
-5.4573e-09
0.000192053
-5.52419e-08
-0.000227986
2.57564e-08
1.34493e-09
0.000228014
1.79063e-09
-1.32225e-09
1.7175e-07
0.000249398
5.19977e-09
-5.36021e-09
1.26632e-06
-2.67214e-07
2.6581e-07
8.9308e-07
-2.48216e-07
2.46982e-07
-8.91118e-07
-8.82121e-08
-0.000244075
-1.26292e-08
0.000244123
-0.0011581
-1.3337e-09
-2.79327e-09
-9.82621e-07
8.08097e-07
-8.04493e-07
9.86579e-07
0.0011581
1.16428e-08
8.95706e-08
0.000244074
6.04183e-09
-3.23777e-09
9.86659e-07
-8.04379e-07
-9.82482e-07
8.08246e-07
-1.18296e-09
-0.000249399
1.015e-09
-1.7552e-07
0.00024952
-1.75543e-09
1.71684e-07
0.000249426
1.37935e-09
-1.26824e-06
-6.54454e-09
8.98977e-07
-2.511e-07
-8.96432e-07
2.4976e-07
1.27208e-06
-2.69686e-07
2.69011e-07
1.99963e-08
-9.06944e-08
-0.000244082
-1.29654e-08
0.000244131
-0.00115824
-4.47008e-09
-9.8527e-07
8.08373e-07
-8.04472e-07
9.89843e-07
0.00115824
-1.91227e-08
1.12126e-08
9.22429e-08
0.000244081
-4.69764e-09
9.89883e-07
-8.04366e-07
-9.8523e-07
8.08508e-07
-0.000249427
2.3304e-09
-1.75674e-07
0.000249544
3.88168e-08
0.000276192
-1.22706e-08
-0.00027622
-2.06621e-08
3.93357e-08
0.000276296
-1.18444e-08
-0.000276319
0.000270504
-0.000268462
2.31105e-07
2.32689e-07
0.000276221
1.27764e-08
-0.000276193
-3.9007e-08
1.93778e-08
0.000276321
1.27519e-08
-0.000276297
-3.84202e-08
5.62084e-09
9.71423e-05
-9.71686e-05
9.71693e-05
-7.3026e-09
-9.71426e-05
-1.68806e-08
-9.71393e-05
9.71636e-05
1.8321e-08
9.71392e-05
1.22802e-06
0.000268462
-2.25839e-07
-2.29036e-07
-3.88329e-08
-0.000276195
1.31516e-08
0.000276224
1.96801e-08
-1.75529e-08
-3.86397e-08
-0.000276299
1.24552e-08
0.000276323
-1.19651e-08
3.89518e-08
0.000276194
-2.03704e-08
1.62383e-08
-1.2223e-08
3.91275e-08
0.000276298
-7.09473e-09
-9.71437e-05
9.71705e-05
5.83386e-09
9.71431e-05
-1.39644e-09
0.000249528
1.56473e-09
-1.69948e-07
-0.000249414
9.01647e-08
0.000244087
1.06944e-08
-0.00024413
0.00115796
2.88098e-09
-2.10309e-09
9.864e-07
-8.02207e-07
8.07782e-07
-9.80284e-07
-0.00115797
2.23034e-09
0.0011363
-2.31138e-09
-1.22578e-06
2.63963e-07
-2.63891e-07
-8.94629e-07
2.49089e-07
-2.51728e-07
8.95222e-07
0.000244131
-1.31557e-08
-0.000244087
-8.78925e-08
-4.16466e-09
0.00115797
-1.45893e-09
-9.82852e-07
8.04921e-07
-8.05035e-07
9.83772e-07
2.04544e-09
0.000249414
-1.32753e-09
1.67137e-07
-0.000249529
-5.52142e-08
0.000227972
2.37673e-08
1.81591e-09
-0.000227942
3.89368e-08
0.000191984
-5.85687e-09
-0.000192011
-3.72361e-08
0.000192013
1.71092e-09
-0.000191985
5.29759e-08
0.000227942
-2.26262e-08
-1.45402e-10
-0.000227972
0.000249498
-1.72607e-07
2.36511e-09
-0.000249384
0.00115792
-2.45846e-09
9.86309e-07
-8.04945e-07
8.07751e-07
-9.8285e-07
-0.00115792
-1.88987e-08
9.0035e-08
0.000244012
1.33433e-08
-0.000244058
2.397e-09
0.00113524
1.26642e-06
-4.12611e-09
-8.94423e-07
2.49076e-07
8.95156e-07
-2.51526e-07
-1.2628e-06
2.69045e-07
-2.69566e-07
0.00115792
-1.70248e-09
-9.83007e-07
8.07737e-07
-8.05048e-07
9.86148e-07
0.000244059
2.00597e-08
-1.56387e-08
-0.000244013
-8.79077e-08
0.000249384
1.6977e-07
-1.26194e-09
-0.000249498
5.30953e-08
8.79918e-10
-1.1757e-09
-2.26386e-08
0.000227979
-3.76259e-08
-0.000192045
3.31006e-09
0.000192072
3.87528e-08
-5.27308e-09
0.000192044
-5.50169e-08
5.48096e-10
-0.000227979
4.87964e-10
2.36421e-08
0.00022801
2.15802e-09
-1.53901e-09
1.67388e-07
0.000249413
2.2219e-09
-2.18152e-09
1.23009e-06
-2.63875e-07
2.64e-07
8.95164e-07
-2.51773e-07
2.49051e-07
-8.94704e-07
-8.79413e-08
-0.000244087
-1.27647e-08
0.000244131
-0.00115796
-3.24359e-09
-6.62649e-10
-9.83133e-07
8.04602e-07
-8.05481e-07
9.83355e-07
0.00115797
1.10468e-08
9.01694e-08
0.000244087
3.61236e-09
-1.28425e-09
9.8631e-07
-8.02622e-07
-9.80242e-07
8.07347e-07
-1.39889e-09
-0.000249413
1.40773e-09
-1.69788e-07
0.000249528
5.29591e-08
-2.27043e-08
2.28982e-10
0.000227942
-3.71757e-08
7.51388e-09
-0.000191986
1.54043e-09
0.000192014
3.89662e-08
-5.67209e-09
-5.84443e-09
0.000191986
-5.50807e-08
-0.000227943
2.35647e-08
1.8693e-09
0.000227973
1.69866e-07
-1.1876e-09
0.000249384
2.14492e-09
-1.26277e-06
-3.82962e-09
8.95074e-07
-2.51618e-07
-8.9453e-07
2.48972e-07
1.26652e-06
-2.69532e-07
2.69088e-07
-0.00115792
-5.59285e-10
-9.83176e-07
8.07485e-07
-8.05439e-07
9.86042e-07
0.00115791
2.01184e-08
-8.77174e-08
-0.000244014
-1.56706e-08
0.00024406
-1.28402e-09
9.86147e-07
-8.05235e-07
-9.83111e-07
8.07459e-07
-1.87333e-08
1.32308e-08
9.00562e-08
0.000244013
-0.000249384
-1.72451e-07
2.31717e-09
0.000249498
-5.73163e-10
0.000228013
1.89712e-09
2.58307e-08
-0.000227985
0.00019205
-6.1627e-09
-0.000192078
0.000192079
1.79471e-09
-0.000192051
-1.57011e-10
0.000227985
7.61101e-11
-2.46804e-08
-0.000228013
5.49453e-08
0.000249506
-1.70083e-07
1.85224e-09
-0.000249394
0.00115788
-3.35758e-09
9.83667e-07
-8.04556e-07
8.07968e-07
-9.7993e-07
-0.00115788
-3.68987e-08
9.00998e-08
0.000244059
1.14462e-08
-0.000244104
4.18288e-09
0.001135
-4.26633e-09
-1.25753e-06
2.631e-07
-2.64253e-07
-8.913e-07
2.4618e-07
-2.48827e-07
8.92686e-07
0.00115788
-3.06621e-09
-9.7984e-07
8.07951e-07
-8.04508e-07
9.83632e-07
3.48689e-08
0.000244105
-1.29791e-08
-0.000244059
-8.77074e-08
-5.3056e-08
0.000249394
1.67034e-07
-1.82021e-09
-0.000249505
0.000227974
2.57389e-08
1.15933e-09
-0.000227947
-5.62239e-09
0.000191999
-5.54309e-09
-0.000192025
0.000192024
7.51375e-09
1.81306e-09
-0.000191999
0.000227947
-2.48688e-08
-7.73995e-10
-0.000227975
-5.29046e-08
1.33398e-09
-7.21133e-10
1.6956e-07
0.000249422
2.20128e-10
-4.21918e-09
1.23324e-06
-2.6063e-07
2.61567e-07
8.92549e-07
-2.48888e-07
-8.917e-07
2.46497e-07
3.74876e-08
-9.04597e-08
-0.000244128
-1.32462e-08
0.000244177
-0.00115798
-5.96089e-09
-2.03254e-09
-9.82805e-07
8.07606e-07
9.86203e-07
-8.0486e-07
0.00115798
-3.89388e-08
1.05445e-08
9.24984e-08
0.000244128
1.98838e-09
-2.87978e-09
9.86324e-07
-8.0467e-07
-9.82751e-07
8.07738e-07
5.51189e-08
-2.19392e-09
-0.000249422
2.33243e-09
-1.72581e-07
0.000249539
-2.80438e-10
-1.30209e-11
-2.46933e-08
0.000227985
-0.000192052
2.299e-09
0.000192081
-5.74122e-09
0.000192052
-5.17963e-10
-0.000227985
1.78586e-09
2.58282e-08
0.000228013
-5.2882e-08
1.66898e-07
-1.75941e-09
0.000249395
3.78578e-09
-1.25751e-06
-4.01989e-09
8.9249e-07
-2.48893e-07
-8.91495e-07
2.4618e-07
1.26073e-06
-2.64217e-07
2.63223e-07
-0.00115788
0.00115787
-2.56768e-09
-9.80089e-07
8.07875e-07
-8.04725e-07
9.8633e-07
3.48898e-08
2.00355e-08
0.000244105
-8.76715e-08
-0.00024406
-1.3057e-08
-3.06925e-09
9.83636e-07
-8.04614e-07
-9.79892e-07
8.07892e-07
-3.69325e-08
-1.88911e-08
1.11775e-08
9.02008e-08
0.000244059
5.5158e-08
0.000249505
-0.000249395
-1.70169e-07
2.14083e-09
-2.47185e-08
-7.35297e-10
0.000227947
7.32856e-09
0.000192024
-0.000191998
1.93825e-09
-5.53741e-09
-5.61452e-09
0.000191999
0.000227974
-0.000227946
2.58235e-08
1.3131e-09
4.11598e-08
0.00027615
-8.92225e-09
-0.000276181
-1.82155e-08
4.14642e-08
0.000276243
-9.09381e-09
-0.000276274
0.000270436
-0.000268405
2.27667e-07
2.35094e-07
0.000276183
1.00225e-08
-0.000276151
-4.07803e-08
1.71236e-08
0.000276276
9.53878e-09
-0.000276244
-4.07601e-08
5.78138e-09
9.71284e-05
-9.71524e-05
9.71533e-05
-7.3075e-09
-9.71289e-05
-1.91648e-08
-9.71208e-05
9.71475e-05
2.05631e-08
9.71203e-05
1.22321e-06
0.000268406
-2.23936e-07
-2.31643e-07
-4.07043e-08
-0.000276153
1.01529e-08
0.000276184
1.7052e-08
-1.76698e-08
-4.07759e-08
-0.000276246
9.61611e-09
0.000276278
-8.92e-09
4.14561e-08
0.000276152
-1.81469e-08
1.66144e-08
-9.12487e-09
4.14845e-08
0.000276245
-7.30891e-09
-9.71297e-05
9.71541e-05
5.82077e-09
9.71293e-05
5.48029e-08
0.000249522
-1.69559e-07
2.2129e-09
-0.000249411
0.00115775
-8.46525e-10
9.82968e-07
-8.02516e-07
8.046e-07
-9.80521e-07
-0.00115775
-3.65105e-08
9.23911e-08
0.000244074
1.18386e-08
-0.000244122
2.89252e-09
0.00113609
-2.79339e-09
-1.22352e-06
2.60381e-07
-2.61785e-07
-8.91834e-07
2.48977e-07
-2.51591e-07
8.92673e-07
0.00115775
-4.9526e-10
-9.80575e-07
8.04535e-07
-8.02578e-07
9.82989e-07
3.53345e-08
0.000244123
-1.24052e-08
-0.000244075
-9.04014e-08
-5.31208e-08
0.00024941
1.67439e-07
-2.23832e-09
-0.000249521
-6.32987e-11
0.000227966
1.60291e-09
2.55979e-08
-0.000227938
0.000191997
-5.69701e-09
-0.000192023
0.000192024
1.71248e-09
-0.000191998
3.94261e-10
0.000227938
-6.16685e-10
-2.4789e-08
-0.000227965
0.000228002
1.11102e-09
2.33659e-08
-0.000227972
-6.66542e-09
0.000192039
-4.21265e-09
-0.000192065
0.000192065
6.73036e-09
2.75971e-09
-0.000192039
0.000227971
-5.35398e-10
-2.29464e-08
-0.000228
1.29683e-09
-5.27986e-08
1.69746e-07
-1.17889e-09
0.000249378
2.80865e-09
-4.45119e-09
1.22684e-06
-2.61418e-07
2.60619e-07
8.92597e-07
-2.51719e-07
-8.91491e-07
2.48977e-07
-0.00115764
-4.83374e-09
-2.04959e-09
-9.77807e-07
8.01889e-07
9.80327e-07
-7.99767e-07
0.00115764
3.51544e-08
-9.04026e-08
-0.00024406
-1.31756e-08
0.000244111
2.58705e-09
-2.00729e-09
9.80277e-07
-7.9941e-07
-9.77797e-07
8.02151e-07
-3.67914e-08
1.10135e-08
9.26721e-08
0.00024406
-1.52677e-09
5.47908e-08
-0.000249378
-1.72232e-07
1.88293e-09
0.000249495
-5.30984e-08
1.67488e-07
-2.41089e-09
0.000249411
3.18405e-09
-1.22363e-06
-2.90599e-09
8.92676e-07
-2.51698e-07
-8.91525e-07
2.48943e-07
1.22663e-06
-2.61863e-07
2.60372e-07
-0.00115775
-8.40537e-10
-9.80572e-07
8.04562e-07
-8.02671e-07
9.82985e-07
0.00115774
3.52234e-08
1.93878e-08
0.000244124
-9.0374e-08
-0.000244075
-1.24456e-08
-9.29008e-10
9.83129e-07
-8.02606e-07
-9.80541e-07
8.0467e-07
-3.65135e-08
-1.97639e-08
1.17533e-08
9.24048e-08
0.000244075
5.46407e-08
-0.000249412
-1.69505e-07
2.10329e-09
0.000249523
2.90526e-11
-2.94493e-10
-2.48589e-08
0.000227938
-0.000191999
1.97121e-09
0.000192025
-5.68754e-09
0.000191999
-4.56146e-10
-0.000227938
1.81885e-09
2.55812e-08
0.000227966
-7.1804e-10
-2.28766e-08
0.000227973
6.96457e-09
0.000192066
-0.00019204
2.57811e-09
-6.49028e-09
-4.48142e-09
0.00019204
-0.000227973
9.3584e-10
2.33339e-08
0.000228003
9.71334e-05
-9.71575e-05
9.71577e-05
-9.71335e-05
9.71372e-05
-9.71614e-05
9.71614e-05
-9.71372e-05
0.000268416
-2.26788e-07
-2.31895e-07
1.68361e-08
-4.05787e-08
-0.000276253
1.00832e-08
1.72844e-08
-3.856e-08
-0.0002762
9.682e-09
-1.85739e-08
-8.64667e-09
4.18259e-08
0.000276253
-1.76917e-08
-1.02438e-08
3.89538e-08
0.0002762
9.71578e-05
-9.71336e-05
9.71335e-05
9.71615e-05
-9.71373e-05
9.71372e-05
9.86152e-07
-8.04783e-07
8.07932e-07
-9.82937e-07
1.06803e-09
-2.60299e-09
-3.69068e-08
9.01933e-08
1.10653e-08
0.00024406
-5.26121e-08
0.000249392
1.66835e-07
-4.22647e-10
2.74096e-11
-5.73304e-09
-5.57098e-09
0.000191998
0.000227946
-2.46107e-08
-5.21423e-10
3.02113e-10
-3.66603e-08
9.24364e-08
0.000244076
1.17517e-08
-6.23654e-09
0.00019204
-4.66951e-09
9.71336e-05
9.71374e-05
-8.76356e-10
2.48914e-08
0.00014208
-8.70378e-10
-0.000142103
-0.000169611
1.67439e-10
-1.80901e-10
0.000169637
-0.00022185
2.53765e-08
2.9769e-09
0.000221879
-5.54895e-08
-2.47903e-08
-4.95088e-10
-0.000227978
-1.57832e-10
5.24778e-08
-0.000169636
-1.90516e-10
-1.56041e-09
-0.000221877
5.2839e-08
2.06292e-09
0.000142104
-2.46686e-08
-7.85167e-05
7.85434e-05
-2.03435e-09
2.47106e-09
0.000192047
6.92243e-09
-3.54523e-08
0.000261155
-2.56801e-08
1.53013e-09
4.78804e-08
-0.000261183
0.000261184
-2.96689e-09
-4.88859e-08
9.05025e-10
-7.85433e-05
2.57004e-08
7.85168e-05
-0.000261156
2.46176e-08
0.000261185
-4.88577e-08
-4.81047e-09
-6.19478e-09
3.63232e-08
4.79138e-08
7.85435e-05
-1.4176e-10
-2.54287e-08
-0.00014208
2.57836e-08
1.31243e-09
-3.62795e-11
-5.55171e-08
0.000169611
7.95281e-10
-1.3562e-10
-0.000169636
0.000221849
-2.48035e-08
5.2766e-08
-0.000221876
-1.79522e-10
-5.55207e-08
-0.000142103
9.71634e-05
-6.94772e-09
-1.7281e-08
6.02409e-09
1.81634e-08
2.24952e-08
-3.2308e-10
0.000142153
-8.98514e-10
-0.000142174
-0.000221935
2.38937e-08
2.97192e-09
0.000221964
-5.5594e-08
-0.000169645
-4.44114e-10
4.32504e-10
0.000169669
-1.09946e-09
-2.24916e-08
-0.000228011
5.5848e-10
5.52906e-08
-1.39272e-09
-0.000221967
5.54862e-08
-0.000169668
5.04326e-10
1.59591e-09
0.000142174
-2.28432e-08
-7.85647e-05
7.85892e-05
-1.66377e-09
2.87122e-09
0.000192071
7.02845e-09
-3.74604e-08
0.000261268
-2.33835e-08
1.27114e-09
5.05241e-08
-0.000261302
0.000261302
-3.07492e-09
-5.13921e-08
7.87269e-10
-7.85889e-05
2.32364e-08
7.85651e-05
-0.000261268
2.2976e-08
0.000261302
-5.13624e-08
-5.3919e-09
-6.13795e-09
3.87677e-08
5.05356e-08
7.85896e-05
-2.37629e-08
2.87436e-10
-0.000142152
1.37836e-09
2.3978e-08
2.65561e-10
-5.7701e-08
0.000221935
-2.25811e-08
5.3122e-08
-0.000221965
0.000169644
4.24216e-10
4.8173e-10
-0.000169668
-5.79217e-08
4.13364e-10
-0.000142173
9.71461e-05
-7.37871e-09
-1.92837e-08
5.68514e-09
2.0538e-08
-1.12158e-08
-1.08024e-08
0.00021223
1.93133e-08
2.18255e-08
-0.00021225
-7.98911e-05
-1.0634e-08
-1.24493e-08
7.99142e-05
-7.98794e-05
-1.10721e-08
-1.20206e-08
7.99025e-05
1.1757e-08
-7.99141e-05
1.22117e-08
-7.99024e-05
-1.97681e-08
-2.14535e-08
0.00021225
-2.75854e-08
2.73177e-08
-0.000220676
0.000220707
1.97305e-08
-5.04919e-08
0.000249704
-2.80968e-08
8.30911e-08
4.39079e-08
-0.000249761
-4.0602e-08
9.91693e-09
0.000276286
1.67371e-08
-1.9837e-08
0.000181649
2.74198e-08
-1.17927e-08
-0.000181674
0.000249761
-8.37311e-08
-4.16827e-08
0.000181674
1.2384e-08
-1.93469e-08
4.94451e-08
-0.000220707
-2.73056e-08
2.57735e-08
-0.000220615
0.000220646
2.15317e-08
-5.10232e-08
0.000249608
-2.84624e-08
8.77311e-08
4.38546e-08
-0.000249672
-3.87724e-08
9.56655e-09
0.000276231
1.75546e-08
-1.92005e-08
0.000181603
2.51054e-08
-1.21994e-08
-0.000181626
0.000249672
-8.88827e-08
-4.17909e-08
0.000181627
1.20365e-08
-2.17418e-08
4.94061e-08
-0.000220646
2.80316e-08
-2.74921e-08
0.000220677
4.95672e-08
-0.00018165
-2.72451e-08
0.000181674
4.17114e-08
-8.67362e-09
-1.8578e-08
1.89878e-08
-0.000249703
2.7653e-08
0.000249761
-8.3619e-08
-4.17848e-08
8.32668e-08
4.37947e-08
0.000220708
-5.04167e-08
2.85089e-08
-2.51281e-08
0.000220615
4.94405e-08
-0.000181604
-2.57286e-08
0.000181627
3.89457e-08
-1.02185e-08
-1.76234e-08
1.98479e-08
-0.000249608
2.72449e-08
0.000249673
-8.87962e-08
-4.17802e-08
8.78559e-08
4.39372e-08
0.000220646
-5.09888e-08
1.07242e-08
1.10856e-08
-0.00021223
7.9891e-05
1.11527e-08
-7.9914e-05
7.98793e-05
1.07894e-08
-7.99023e-05
-0.000212249
-0.000220677
-2.77694e-08
2.72231e-08
1.98073e-08
-5.0279e-08
-2.78545e-08
0.000249704
-0.000249761
8.32758e-08
4.34381e-08
2.75046e-08
0.000181651
-1.16656e-08
-0.000181675
-4.05547e-08
9.98155e-09
1.68455e-08
-2.01136e-08
-1.91769e-08
-0.000220708
4.96376e-08
-8.35375e-08
-4.21302e-08
1.24576e-08
-0.000220616
-2.72415e-08
2.56618e-08
2.13988e-08
-5.10118e-08
-2.85582e-08
0.000249609
-0.000249673
8.77789e-08
4.41954e-08
2.52083e-08
0.000181604
-1.21799e-08
-0.000181627
-3.8564e-08
9.73623e-09
1.72359e-08
-1.94131e-08
-2.19079e-08
-0.000220646
4.94186e-08
-8.88491e-08
-4.14702e-08
1.20866e-08
-0.000212232
1.0676e-08
1.10896e-08
1.12569e-08
7.98917e-05
-7.99146e-05
1.07661e-08
7.98799e-05
-7.99029e-05
-0.000212251
9.71631e-05
-1.73397e-08
1.78948e-08
9.71626e-05
-1.72548e-08
1.78989e-08
-1.08387e-08
-1.09811e-08
0.000212227
2.16615e-08
1.92084e-08
-0.000212246
-7.98887e-05
-1.10135e-08
-1.21346e-08
7.99118e-05
-7.98747e-05
-1.09265e-08
-1.22223e-08
7.98979e-05
1.20572e-08
-7.99116e-05
1.19627e-08
-7.98977e-05
-2.15225e-08
-1.99047e-08
0.000212246
2.58758e-08
-2.72034e-08
-0.000220677
0.000220708
2.1454e-08
-5.13157e-08
0.000249708
-2.84651e-08
8.74915e-08
4.13193e-08
-0.00024977
9.75965e-09
-3.89922e-08
0.00027628
-1.70889e-08
0.000181646
2.49748e-08
-1.21232e-08
-0.000181669
0.00018167
1.2048e-08
0.000249771
-8.94389e-08
-3.91736e-08
-2.17356e-08
4.90539e-08
-0.000220708
2.54709e-08
-2.80703e-08
-0.000220611
0.000220647
2.00741e-08
-5.28464e-08
0.000249618
-2.76641e-08
8.82375e-08
4.55965e-08
-0.000249684
1.02462e-08
-3.85226e-08
0.000276239
-2.01837e-08
0.000181595
2.54216e-08
-1.18574e-08
-0.000181618
0.000181619
1.23381e-08
0.000249685
-8.87434e-08
-4.51362e-08
-1.9103e-08
5.19851e-08
-0.000220646
-2.50754e-08
0.000220677
2.84542e-08
4.91002e-08
-0.000181647
-2.5744e-08
0.00018167
-9.86621e-09
3.88062e-08
1.71229e-08
2.73362e-08
-0.000249709
0.000249772
-8.94627e-08
-3.92631e-08
0.000220709
-5.1188e-08
8.75893e-08
4.13009e-08
-2.54369e-08
0.000220611
2.78456e-08
5.20143e-08
-0.000181595
-2.54477e-08
0.000181619
-9.60427e-09
3.92369e-08
1.89629e-08
2.79631e-08
-0.000249618
0.000249685
-8.88261e-08
-4.49609e-08
0.000220647
-5.28253e-08
8.81558e-08
4.57142e-08
1.11361e-08
1.08465e-08
-0.000212226
7.98884e-05
1.07556e-08
-7.99113e-05
7.98745e-05
1.10497e-08
-7.98974e-05
-0.000212245
-9.71632e-05
1.80833e-08
6.10907e-09
-1.71387e-08
-7.00817e-09
-9.71631e-05
1.76747e-08
6.28002e-09
-1.74994e-08
-6.82115e-09
-0.000212227
1.08543e-08
1.10458e-08
-2.15967e-08
-1.97652e-08
0.000212246
1.09803e-08
7.98889e-05
1.19527e-08
1.09025e-08
7.98749e-05
1.20701e-08
2.16243e-08
1.93864e-08
-1.22745e-08
7.9912e-05
-1.20889e-08
7.9898e-05
-2.52626e-08
2.82796e-08
0.000220678
-0.000220709
-2.14825e-08
4.9249e-08
-0.000249711
2.75053e-08
-8.93299e-08
-3.93877e-08
0.000249773
-9.51573e-09
3.88793e-08
-0.000276281
1.69576e-08
-0.000181648
-2.56042e-08
1.24274e-08
0.000181671
-0.000181671
-1.17865e-08
-0.000249773
8.7645e-08
4.1114e-08
2.17456e-08
-5.11512e-08
0.00022071
-2.52885e-08
2.79945e-08
0.000220612
-0.000220647
-1.94885e-08
5.1825e-08
-0.000249618
2.7762e-08
-8.89968e-08
-4.45343e-08
0.000249685
-1.006e-08
3.90267e-08
-0.000276239
1.92989e-08
-0.000181596
-2.56294e-08
1.19101e-08
0.000181619
-0.000181619
-1.22485e-08
-0.000249686
8.79837e-08
4.61613e-08
1.96688e-08
-5.30288e-08
0.000220648
-0.000220678
2.56636e-08
-2.74029e-08
-5.11164e-08
2.52149e-08
0.000181648
-2.83428e-08
0.00024971
8.75557e-08
4.11987e-08
1.00484e-08
-3.88442e-08
-1.72404e-08
4.92675e-08
-8.93893e-08
-3.93562e-08
-0.000220612
2.55323e-08
-2.78781e-08
-5.28934e-08
2.54153e-08
0.000181596
-2.78841e-08
0.000249618
8.79606e-08
4.59332e-08
9.8556e-09
-3.86724e-08
-1.98266e-08
5.1983e-08
-8.89083e-08
-4.47494e-08
-1.11602e-08
-1.07366e-08
0.000212227
-7.98891e-05
-1.06776e-08
7.99122e-05
-7.9875e-05
-1.12099e-08
7.98982e-05
0.000212247
-7.7491e-10
2.28056e-08
0.000142151
-5.92592e-10
-0.000142173
-0.000169645
8.08865e-11
0.00016967
-0.000221929
2.35955e-08
3.26403e-09
0.000221962
-5.81316e-08
-2.47363e-08
-7.38721e-10
-0.000228012
5.25016e-08
-0.000169671
-1.32982e-09
-0.000221961
5.53492e-08
1.99154e-09
0.000142173
-2.2472e-08
-7.85622e-05
7.85866e-05
-1.90673e-09
2.38086e-09
0.000192077
-3.53479e-08
0.000261254
-2.3635e-08
1.45813e-09
5.065e-08
-0.000261288
0.000261288
-3.13118e-09
-5.12116e-08
6.82174e-10
-7.85865e-05
2.37283e-08
7.85623e-05
-0.000261255
2.23656e-08
0.000261289
-5.12506e-08
-5.24435e-09
3.66608e-08
5.06793e-08
7.85866e-05
-1.13001e-10
-2.35272e-08
-0.000142151
2.5895e-08
1.65611e-09
-5.55649e-08
0.000169645
7.74866e-10
-0.000169671
0.000221928
-2.28489e-08
5.54134e-08
-0.00022196
-5.80085e-08
-0.000142172
-0.000142081
-1.10671e-10
-2.53984e-08
2.09937e-09
0.000142104
8.35395e-10
0.000169611
-1.51973e-10
-2.48892e-08
0.000221852
-1.46022e-09
5.28532e-08
2.57747e-08
1.42805e-09
0.000227981
-1.85054e-10
-5.53699e-08
-8.39785e-10
0.000169637
-1.539e-10
3.10198e-09
0.00022188
-5.5458e-08
7.85169e-05
2.58166e-08
-7.85435e-05
8.16169e-10
-5.04044e-09
-0.000192048
3.65185e-08
2.45207e-08
-0.000261158
-3.18393e-09
-4.8675e-08
0.000261187
-2.12766e-09
7.85435e-05
-0.000261186
1.35404e-09
4.81032e-08
-7.85169e-05
-2.45287e-08
-2.58082e-08
0.000261157
4.80073e-08
2.27851e-09
-3.52842e-08
-4.87641e-08
0.000142081
-7.65069e-10
2.48708e-08
-2.47894e-08
-3.89576e-10
-1.87561e-10
5.27144e-08
3.04073e-11
-0.000169612
-8.86441e-11
0.000169637
2.542e-08
-0.000221853
-5.53695e-08
0.000221881
0.000142104
-1.35997e-10
5.2951e-08
-0.000142151
-5.0001e-11
-2.3591e-08
2.0181e-09
0.000142173
7.48621e-10
0.000169645
-2.27764e-08
0.00022193
-1.20922e-09
5.5362e-08
2.58478e-08
1.59256e-09
0.000228013
-5.54284e-08
-5.14606e-10
0.00016967
3.35484e-09
0.000221963
-5.8046e-08
2.38276e-08
7.85622e-05
-7.85866e-05
5.33583e-10
-5.62577e-09
-0.000192079
-5.72217e-09
3.67668e-08
-0.000261256
2.23017e-08
-3.4019e-09
-5.11341e-08
0.00026129
-0.00026129
1.12003e-09
5.07229e-08
-1.99644e-09
7.85865e-05
-7.85623e-05
-2.23217e-08
-2.38404e-08
0.000261256
5.06181e-08
1.96438e-09
7.23569e-09
-3.52621e-08
-5.126e-08
-7.00255e-10
2.28057e-08
0.000142152
-2.47938e-08
-7.42888e-10
5.27252e-08
-0.000169645
9.11615e-12
0.00016967
-0.00022193
2.35503e-08
-5.79383e-08
0.000221963
5.54814e-08
0.000142173
-1.11481e-08
-1.09163e-08
0.000212232
2.17332e-08
1.93482e-08
-0.000212251
-7.9877e-05
-1.07153e-08
-1.24589e-08
7.99002e-05
-7.98905e-05
-1.1087e-08
-1.20792e-08
7.99136e-05
1.17926e-08
-7.98999e-05
1.20218e-08
-7.99134e-05
-2.17374e-08
-1.97499e-08
0.000212251
2.60578e-08
-2.99031e-08
-0.000220614
0.000220648