/*--------------------------------*- C++ -*----------------------------------*\
| =========                 |                                                 |
| \\      /  F ield         | OpenFOAM: The Open Source CFD Toolbox           |
|  \\    /   O peration     | Version:  v1906                                 |
|   \\  /    A nd           | Web:      www.OpenFOAM.com                      |
|    \\/     M anipulation  |                                                 |
\*---------------------------------------------------------------------------*/
FoamFile
{
    version     2.0;
    format      ascii;
    class       volScalarField;
    location    "100";
    object      epsilon;
}
// * * * * * * * * * * * * * * * * * * * * * * * * * * * * * * * * * * * * * //

dimensions      [0 2 -3 0 0 0 0];


internalField   nonuniform List<scalar> 
43024
(
1.23099e-07
2.21323e-07
2.20788e-07
3.37285e-07
1.23118e-07
2.2134e-07
2.20964e-07
3.38325e-07
1.23134e-07
2.2136e-07
2.21148e-07
3.39091e-07
1.23148e-07
2.21391e-07
2.21352e-07
3.39094e-07
1.2317e-07
2.21394e-07
2.21516e-07
3.38958e-07
1.23181e-07
2.21388e-07
2.2161e-07
3.38728e-07
1.23189e-07
2.21265e-07
2.21636e-07
3.38359e-07
1.23185e-07
2.21139e-07
2.21568e-07
3.37765e-07
1.2317e-07
2.21029e-07
2.21362e-07
3.37169e-07
1.23151e-07
2.2096e-07
2.2117e-07
3.36799e-07
1.23125e-07
2.20911e-07
2.20984e-07
3.36391e-07
1.23104e-07
2.20889e-07
2.20784e-07
3.35973e-07
1.23089e-07
2.20883e-07
2.20626e-07
3.35333e-07
1.23073e-07
2.20818e-07
2.20484e-07
3.34959e-07
1.2306e-07
2.20706e-07
2.20383e-07
3.35131e-07
1.23054e-07
2.2063e-07
2.20306e-07
3.35208e-07
1.23055e-07
2.20545e-07
2.20169e-07
3.35367e-07
1.23055e-07
2.20423e-07
2.20067e-07
3.35913e-07
1.23053e-07
2.20295e-07
2.20033e-07
3.36327e-07
1.22959e-07
2.20215e-07
2.20008e-07
3.34483e-07
1.20237e-07
2.06321e-07
2.06226e-07
3.11111e-07
3.3602e-07
2.20631e-07
2.2127e-07
3.36995e-07
2.21187e-07
2.21556e-07
2.21307e-07
2.21447e-07
3.36582e-07
2.2072e-07
2.2145e-07
3.3617e-07
3.3691e-07
3.3644e-07
2.20627e-07
2.21289e-07
2.20742e-07
2.21422e-07
3.38171e-07
3.37543e-07
2.21212e-07
2.21571e-07
2.21338e-07
2.21635e-07
2.21438e-07
2.21333e-07
2.21504e-07
3.37868e-07
3.37356e-07
2.21427e-07
2.2089e-07
2.21482e-07
3.37166e-07
3.37584e-07
3.36868e-07
2.20767e-07
2.2141e-07
2.20884e-07
2.21469e-07
3.38505e-07
3.37694e-07
2.21327e-07
2.21625e-07
2.21382e-07
2.21701e-07
2.21507e-07
2.21353e-07
2.21571e-07
3.38341e-07
3.37744e-07
2.21477e-07
2.21067e-07
2.21503e-07
3.37849e-07
3.38014e-07
3.37412e-07
2.20885e-07
2.21462e-07
2.21032e-07
2.21453e-07
3.38885e-07
3.37843e-07
2.21363e-07
2.21703e-07
2.21397e-07
2.21754e-07
2.21563e-07
2.21382e-07
2.21619e-07
3.38699e-07
3.38156e-07
2.21483e-07
2.21276e-07
2.21459e-07
3.38177e-07
3.38382e-07
3.37449e-07
2.21055e-07
2.2144e-07
2.21152e-07
2.21418e-07
3.38815e-07
3.37886e-07
2.21393e-07
2.21754e-07
2.21399e-07
2.2179e-07
2.21612e-07
2.2139e-07
2.21625e-07
3.39099e-07
3.38356e-07
2.21447e-07
2.21442e-07
2.21382e-07
3.38041e-07
3.38592e-07
3.3732e-07
2.21152e-07
2.21411e-07
2.21201e-07
2.2143e-07
3.38805e-07
3.37913e-07
2.2138e-07
2.21785e-07
2.21351e-07
2.21818e-07
2.21614e-07
2.21406e-07
2.21597e-07
3.39553e-07
3.38423e-07
2.21347e-07
2.21578e-07
2.21327e-07
3.37838e-07
3.38558e-07
3.37184e-07
2.21193e-07
2.21434e-07
2.21201e-07
2.21442e-07
3.3881e-07
3.3784e-07
2.2134e-07
2.21812e-07
2.21365e-07
2.21809e-07
2.21587e-07
2.21292e-07
2.21504e-07
3.39683e-07
3.38222e-07
2.21297e-07
2.21635e-07
2.21276e-07
3.37496e-07
3.38406e-07
3.36936e-07
2.21201e-07
2.2144e-07
2.21206e-07
2.21413e-07
3.38723e-07
3.37549e-07
2.21351e-07
2.21805e-07
2.21361e-07
2.21705e-07
2.21437e-07
2.21162e-07
2.21357e-07
3.39425e-07
3.37684e-07
2.21252e-07
2.21602e-07
2.21221e-07
3.36925e-07
3.37992e-07
3.36776e-07
2.21195e-07
2.21392e-07
2.2115e-07
2.21318e-07
3.38712e-07
3.37212e-07
2.21361e-07
2.21635e-07
2.21332e-07
2.21492e-07
2.21294e-07
2.21049e-07
2.21225e-07
3.3873e-07
3.36734e-07
2.21197e-07
2.21402e-07
2.2117e-07
3.36318e-07
3.37622e-07
3.36369e-07
2.2113e-07
2.21256e-07
2.21031e-07
2.21166e-07
3.38043e-07
3.36626e-07
2.2128e-07
2.21441e-07
2.21233e-07
2.2123e-07
2.21187e-07
2.20963e-07
2.21084e-07
3.37858e-07
3.36053e-07
2.21118e-07
2.21204e-07
2.21079e-07
3.35785e-07
3.37325e-07
3.35734e-07
2.20995e-07
2.21109e-07
2.20888e-07
2.21025e-07
3.37576e-07
3.35928e-07
2.21209e-07
2.21156e-07
2.21109e-07
2.21042e-07
2.21046e-07
2.20916e-07
2.20943e-07
3.37054e-07
3.35528e-07
2.21035e-07
2.21019e-07
2.20983e-07
3.35261e-07
3.36912e-07
3.35311e-07
2.20826e-07
2.2097e-07
2.20747e-07
2.20912e-07
3.37094e-07
3.35525e-07
2.21094e-07
2.20987e-07
2.21004e-07
2.20886e-07
2.20917e-07
2.20885e-07
2.20815e-07
3.36558e-07
3.34929e-07
2.20943e-07
2.20815e-07
2.20853e-07
3.34865e-07
3.36507e-07
3.35084e-07
2.20679e-07
2.20869e-07
2.20607e-07
2.20795e-07
3.36728e-07
3.35291e-07
2.20954e-07
2.20838e-07
2.20908e-07
2.20765e-07
2.20778e-07
2.20884e-07
2.2063e-07
3.36085e-07
3.34714e-07
2.20841e-07
2.20647e-07
2.20745e-07
3.34478e-07
3.36287e-07
3.34825e-07
2.20614e-07
2.20757e-07
2.20562e-07
2.20632e-07
3.362e-07
3.34817e-07
2.20854e-07
2.20708e-07
2.20812e-07
2.20672e-07
2.20595e-07
2.20836e-07
2.20453e-07
3.35783e-07
3.34528e-07
2.20694e-07
2.20503e-07
2.20617e-07
3.34062e-07
3.35917e-07
3.34689e-07
2.20511e-07
2.20584e-07
2.20481e-07
2.20461e-07
3.35642e-07
3.34359e-07
2.20805e-07
2.20666e-07
2.20779e-07
2.20649e-07
2.20412e-07
2.20712e-07
2.20365e-07
3.35615e-07
3.34603e-07
2.20553e-07
2.20392e-07
2.20487e-07
3.3396e-07
3.35835e-07
3.34841e-07
2.20463e-07
2.20395e-07
2.20473e-07
2.20328e-07
3.35476e-07
3.34379e-07
2.20764e-07
2.20625e-07
2.20757e-07
2.20604e-07
2.20326e-07
2.20632e-07
2.20307e-07
3.35477e-07
3.34499e-07
2.20482e-07
2.20316e-07
2.20389e-07
3.34014e-07
3.35753e-07
3.34664e-07
2.20491e-07
2.2032e-07
2.20557e-07
2.20227e-07
3.353e-07
3.34223e-07
2.20763e-07
2.20605e-07
2.20744e-07
2.20549e-07
2.20312e-07
2.20554e-07
2.20363e-07
3.35348e-07
3.3428e-07
2.20362e-07
2.20188e-07
2.20387e-07
3.34418e-07
3.35821e-07
3.34875e-07
2.20581e-07
2.20213e-07
2.20643e-07
2.2008e-07
3.35421e-07
3.3403e-07
2.20747e-07
2.20522e-07
2.20719e-07
2.20401e-07
2.20399e-07
2.20436e-07
2.20506e-07
3.35166e-07
3.34053e-07
2.20411e-07
2.20062e-07
2.2047e-07
3.34649e-07
3.35841e-07
3.34946e-07
2.20645e-07
2.20059e-07
2.2064e-07
2.19879e-07
3.35295e-07
3.33782e-07
2.20723e-07
2.20366e-07
2.2068e-07
2.20175e-07
2.20533e-07
2.20292e-07
2.20621e-07
3.348e-07
3.33836e-07
2.20486e-07
2.20023e-07
2.20513e-07
3.34923e-07
3.36074e-07
3.33676e-07
2.20647e-07
2.19875e-07
2.20367e-07
2.1961e-07
3.34861e-07
3.3314e-07
2.20682e-07
2.20133e-07
2.20395e-07
2.19771e-07
2.20634e-07
2.20045e-07
2.20478e-07
3.34651e-07
3.327e-07
2.20539e-07
2.19826e-07
2.20363e-07
3.34872e-07
3.33237e-07
3.21715e-07
2.20525e-07
2.19781e-07
2.13796e-07
2.13079e-07
3.33908e-07
3.20614e-07
2.20553e-07
2.19933e-07
2.13748e-07
2.13156e-07
2.20662e-07
2.13428e-07
2.13909e-07
3.32611e-07
3.20755e-07
2.2054e-07
2.13263e-07
2.13782e-07
3.21774e-07
3.10222e-07
2.06472e-07
2.05896e-07
3.09295e-07
2.06481e-07
2.05939e-07
1.20186e-07
1.2017e-07
1.20269e-07
2.068e-07
3.0941e-07
2.0655e-07
3.37975e-06
8.75821e-06
1.82866e-05
3.38692e-06
8.76195e-06
1.23095e-07
1.23161e-07
1.23139e-07
1.23184e-07
1.02931e-06
2.21278e-07
2.67158e-06
1.50553e-07
1.83103e-05
1.02429e-06
2.20668e-07
1.50311e-07
2.67206e-06
3.37957e-07
4.98559e-06
4.98625e-06
3.37906e-06
8.75797e-06
3.38369e-06
8.75795e-06
1.82873e-05
1.82931e-05
3.38581e-06
8.76187e-06
3.38646e-06
8.76346e-06
1.2316e-07
1.23145e-07
1.23186e-07
1.23116e-07
1.23161e-07
1.23158e-07
1.23187e-07
1.03017e-06
2.67196e-06
1.50541e-07
2.21317e-07
1.03035e-06
2.67061e-06
1.50522e-07
1.83071e-05
1.83117e-05
1.02315e-06
1.50303e-07
2.6726e-06
2.20795e-07
1.02157e-06
1.50301e-07
2.67146e-06
4.98766e-06
4.98604e-06
3.36556e-07
4.9883e-06
4.98548e-06
3.38512e-06
8.7582e-06
3.38693e-06
8.75896e-06
1.82919e-05
1.82943e-05
3.38468e-06
8.76337e-06
3.38601e-06
8.76373e-06
1.23176e-07
1.23165e-07
1.23194e-07
1.23131e-07
1.23178e-07
1.23185e-07
1.23201e-07
1.03127e-06
2.672e-06
1.5052e-07
2.21341e-07
1.03179e-06
2.67094e-06
1.50512e-07
1.83112e-05
1.83146e-05
1.02643e-06
1.50313e-07
2.67295e-06
2.2098e-07
1.0264e-06
1.50318e-07
2.67188e-06
4.9915e-06
4.98834e-06
3.37573e-07
4.98893e-06
4.98763e-06
3.38844e-06
8.76e-06
3.38737e-06
8.75919e-06
1.829e-05
1.82929e-05
3.38747e-06
8.76419e-06
3.38709e-06
8.76476e-06
1.23183e-07
1.232e-07
1.23203e-07
1.23142e-07
1.23182e-07
1.23215e-07
1.23201e-07
1.03023e-06
2.6721e-06
1.50513e-07
2.21363e-07
1.03131e-06
2.67079e-06
1.50511e-07
1.83118e-05
1.83156e-05
1.02778e-06
1.50347e-07
2.67308e-06
2.21174e-07
1.02812e-06
1.50352e-07
2.67175e-06
4.98671e-06
4.98868e-06
3.38063e-07
4.98499e-06
4.98905e-06
3.38877e-06
8.75652e-06
3.38971e-06
8.75637e-06
1.82906e-05
1.82941e-05
3.38549e-06
8.7652e-06
3.38606e-06
8.76575e-06
1.23184e-07
1.23224e-07
1.23201e-07
1.23165e-07
1.23181e-07
1.23246e-07
1.23193e-07
1.02972e-06
2.67193e-06
1.50511e-07
2.21386e-07
1.03038e-06
2.6707e-06
1.5051e-07
1.83135e-05
1.83173e-05
1.02876e-06
1.50378e-07
2.67273e-06
2.21352e-07
1.02896e-06
1.50379e-07
2.67159e-06
4.98441e-06
4.99258e-06
3.38077e-07
4.98362e-06
4.99272e-06
3.39002e-06
8.75541e-06
3.39126e-06
8.75593e-06
1.82944e-05
1.83e-05
3.3911e-06
8.76605e-06
3.3867e-06
8.76626e-06
1.23183e-07
1.23259e-07
1.23192e-07
1.23181e-07
1.2318e-07
1.23271e-07
1.23186e-07
1.03005e-06
2.67194e-06
1.50521e-07
2.21388e-07
1.03076e-06
2.67057e-06
1.5052e-07
1.83128e-05
1.83153e-05
1.02969e-06
1.50402e-07
2.67289e-06
2.21532e-07
1.03002e-06
1.50404e-07
2.67186e-06
4.98457e-06
4.99413e-06
3.37926e-07
4.98427e-06
4.99331e-06
3.38585e-06
8.7568e-06
3.39041e-06
8.75773e-06
1.82991e-05
1.83025e-05
3.38976e-06
8.7652e-06
3.39255e-06
8.76518e-06
1.23179e-07
1.23276e-07
1.23186e-07
1.23187e-07
1.23173e-07
1.23282e-07
1.23181e-07
1.02928e-06
2.67117e-06
1.50529e-07
2.21295e-07
1.03025e-06
2.66959e-06
1.50521e-07
1.83102e-05
1.83096e-05
1.02951e-06
1.50414e-07
2.67331e-06
2.21623e-07
1.03072e-06
1.50415e-07
2.67228e-06
4.98687e-06
4.99191e-06
3.37635e-07
4.98658e-06
4.98961e-06
3.38277e-06
8.7578e-06
3.38557e-06
8.75798e-06
1.82977e-05
1.83012e-05
3.37487e-06
8.76474e-06
3.37964e-06
8.76473e-06
1.23171e-07
1.23284e-07
1.23179e-07
1.23189e-07
1.23161e-07
1.23273e-07
1.23174e-07
1.02853e-06
2.67061e-06
1.50513e-07
2.21159e-07
1.02933e-06
2.66937e-06
1.5049e-07
1.82982e-05
1.82975e-05
1.02819e-06
1.5042e-07
2.67375e-06
2.21615e-07
1.02911e-06
1.50417e-07
2.67265e-06
4.98805e-06
4.98808e-06
3.37192e-07
4.98714e-06
4.98464e-06
3.38248e-06
8.75856e-06
3.38228e-06
8.75998e-06
1.82964e-05
1.82985e-05
3.38453e-06
8.76398e-06
3.38398e-06
8.76417e-06
1.23161e-07
1.2327e-07
1.23174e-07
1.23176e-07
1.23151e-07
1.23243e-07
1.23167e-07
1.02846e-06
2.6705e-06
1.50474e-07
2.21064e-07
1.0293e-06
2.66906e-06
1.50447e-07
1.82883e-05
1.82898e-05
1.02796e-06
1.50415e-07
2.67404e-06
2.21441e-07
1.02877e-06
1.50404e-07
2.67279e-06
4.98895e-06
4.98434e-06
3.36567e-07
4.98811e-06
4.98409e-06
3.38465e-06
8.75875e-06
3.38567e-06
8.75883e-06
1.82925e-05
1.82954e-05
3.38635e-06
8.76428e-06
3.3869e-06
8.76473e-06
1.2315e-07
1.23242e-07
1.23168e-07
1.23161e-07
1.2314e-07
1.23212e-07
1.23152e-07
1.02762e-06
2.66993e-06
1.50428e-07
2.20982e-07
1.02851e-06
2.66858e-06
1.50406e-07
1.82853e-05
1.82895e-05
1.02692e-06
1.50394e-07
2.6737e-06
2.21221e-07
1.02792e-06
1.5037e-07
2.67144e-06
4.98879e-06
4.98678e-06
3.36009e-07
4.98741e-06
4.98671e-06
3.38642e-06
8.75911e-06
3.38594e-06
8.75992e-06
1.8292e-05
1.82971e-05
3.38658e-06
8.76347e-06
3.38832e-06
8.76314e-06
1.23143e-07
1.23202e-07
1.23152e-07
1.23134e-07
1.23135e-07
1.23168e-07
1.23134e-07
1.02781e-06
2.6698e-06
1.50396e-07
2.20931e-07
1.02827e-06
2.6687e-06
1.50386e-07
1.82879e-05
1.82932e-05
1.0263e-06
1.50346e-07
2.66939e-06
2.21047e-07
1.02725e-06
1.50316e-07
2.66642e-06
4.99001e-06
4.98882e-06
3.35443e-07
4.99047e-06
4.98925e-06
3.38668e-06
8.76005e-06
3.38706e-06
8.76023e-06
1.82942e-05
1.82972e-05
3.38255e-06
8.76181e-06
3.38408e-06
8.76178e-06
1.23138e-07
1.23172e-07
1.23137e-07
1.23113e-07
1.23129e-07
1.2314e-07
1.23118e-07
1.02755e-06
2.67054e-06
1.50385e-07
2.20889e-07
1.02834e-06
2.66965e-06
1.50382e-07
1.82904e-05
1.82953e-05
1.02533e-06
1.50281e-07
2.66699e-06
2.20856e-07
1.02636e-06
1.50248e-07
2.666e-06
4.99271e-06
4.99265e-06
3.35042e-07
4.99147e-06
4.99179e-06
3.38086e-06
8.75913e-06
3.38621e-06
8.76027e-06
1.82897e-05
1.82941e-05
3.38316e-06
8.76138e-06
3.38357e-06
8.76198e-06
1.23128e-07
1.23132e-07
1.23118e-07
1.23097e-07
1.23116e-07
1.23101e-07
1.23092e-07
1.02727e-06
2.67162e-06
1.5038e-07
2.20878e-07
1.02803e-06
2.67071e-06
1.5037e-07
1.82905e-05
1.8295e-05
1.02521e-06
1.50231e-07
2.66817e-06
2.2067e-07
1.02592e-06
1.50214e-07
2.66748e-06
4.99385e-06
4.99321e-06
3.34705e-07
4.99325e-06
4.99219e-06
3.38816e-06
8.76106e-06
3.38965e-06
8.76207e-06
1.82894e-05
1.82951e-05
3.38581e-06
8.7624e-06
3.38147e-06
8.76326e-06
1.23113e-07
1.231e-07
1.23092e-07
1.2308e-07
1.2309e-07
1.23072e-07
1.23069e-07
1.02694e-06
2.67296e-06
1.5036e-07
2.2083e-07
1.02774e-06
2.67208e-06
1.50341e-07
1.82924e-05
1.82993e-05
1.02439e-06
1.50204e-07
2.66943e-06
2.20526e-07
1.02537e-06
1.50192e-07
2.66775e-06
4.99571e-06
4.99594e-06
3.34205e-07
4.99403e-06
4.99526e-06
3.39195e-06
8.76202e-06
3.39e-06
8.76386e-06
1.82891e-05
1.82946e-05
3.38483e-06
8.76358e-06
3.3873e-06
8.76562e-06
1.23087e-07
1.2308e-07
1.23063e-07
1.23065e-07
1.23058e-07
1.23052e-07
1.23041e-07
1.02688e-06
2.67411e-06
1.50322e-07
2.20731e-07
1.02753e-06
2.67272e-06
1.50298e-07
1.82954e-05
1.83026e-05
1.02384e-06
1.50184e-07
2.66823e-06
2.20394e-07
1.02469e-06
1.50173e-07
2.66612e-06
4.99812e-06
4.99871e-06
3.33868e-07
4.99815e-06
4.99674e-06
3.392e-06
8.76578e-06
3.39424e-06
8.76735e-06
1.82894e-05
1.82985e-05
3.3794e-06
8.76802e-06
3.38313e-06
8.76964e-06
1.23066e-07
1.23053e-07
1.23042e-07
1.23056e-07
1.23036e-07
1.23037e-07
1.23023e-07
1.0272e-06
2.67462e-06
1.50276e-07
2.20656e-07
1.02768e-06
2.67313e-06
1.50256e-07
1.82975e-05
1.83049e-05
1.02397e-06
1.50165e-07
2.66713e-06
2.20331e-07
1.02451e-06
1.50156e-07
2.66509e-06
5.00013e-06
4.99694e-06
3.33865e-07
4.99809e-06
4.99407e-06
3.38928e-06
8.76756e-06
3.39193e-06
8.7698e-06
1.82967e-05
1.83084e-05
3.38908e-06
8.77001e-06
3.38953e-06
8.77246e-06
1.23039e-07
1.23036e-07
1.23026e-07
1.23055e-07
1.23016e-07
1.23013e-07
1.23026e-07
1.02852e-06
2.67525e-06
1.50248e-07
2.20583e-07
1.02866e-06
2.67334e-06
1.50242e-07
1.82971e-05
1.83073e-05
1.02506e-06
1.50154e-07
2.66569e-06
2.20227e-07
1.02525e-06
1.50151e-07
2.6614e-06
5.00121e-06
5.00078e-06
3.34212e-07
4.999e-06
4.99855e-06
3.40099e-06
8.77027e-06
3.39922e-06
8.77359e-06
1.82962e-05
1.83054e-05
3.39033e-06
8.77306e-06
3.39242e-06
8.77643e-06
1.23017e-07
1.23012e-07
1.23027e-07
1.23056e-07
1.22993e-07
1.22992e-07
1.23036e-07
1.02843e-06
2.6757e-06
1.50245e-07
2.20478e-07
1.02959e-06
2.67274e-06
1.50238e-07
1.82995e-05
1.83122e-05
1.02661e-06
1.50168e-07
2.66181e-06
2.20091e-07
1.02696e-06
1.5017e-07
2.65898e-06
5.00261e-06
5.00019e-06
3.34401e-07
4.99921e-06
4.99701e-06
3.40501e-06
8.77295e-06
3.40478e-06
8.77745e-06
1.82913e-05
1.83095e-05
3.39235e-06
8.77625e-06
3.39165e-06
8.78132e-06
1.22991e-07
1.22992e-07
1.23037e-07
1.23057e-07
1.22975e-07
1.22972e-07
1.23054e-07
1.0278e-06
2.67528e-06
1.50243e-07
2.20341e-07
1.02884e-06
2.67118e-06
1.50237e-07
1.83007e-05
1.83176e-05
1.02797e-06
1.50196e-07
2.66256e-06
2.20041e-07
1.02837e-06
1.50198e-07
2.65925e-06
5.00361e-06
5.00439e-06
3.35015e-07
4.99929e-06
5.00204e-06
3.40529e-06
8.7743e-06
3.40696e-06
8.78156e-06
1.83014e-05
1.8325e-05
3.39441e-06
8.77903e-06
3.39521e-06
8.78642e-06
1.22973e-07
1.22969e-07
1.23064e-07
1.23028e-07
1.22964e-07
1.22956e-07
1.23065e-07
1.02869e-06
2.67603e-06
1.50251e-07
2.2023e-07
1.02962e-06
2.67148e-06
1.50241e-07
1.8305e-05
1.83264e-05
1.02945e-06
1.50226e-07
2.66481e-06
2.19985e-07
1.0303e-06
1.50222e-07
2.66041e-06
5.00543e-06
5.00969e-06
3.34029e-07
5.00163e-06
5.00603e-06
3.39748e-06
8.77398e-06
3.40726e-06
8.78306e-06
1.83101e-05
1.83301e-05
3.38365e-06
8.77833e-06
3.39808e-06
8.78673e-06
1.22903e-07
1.22892e-07
1.23007e-07
1.2226e-07
1.22193e-07
1.22176e-07
1.22292e-07
1.02685e-06
2.68113e-06
1.50074e-07
2.19081e-07
1.03129e-06
2.67046e-06
1.50269e-07
1.83096e-05
1.83291e-05
1.02659e-06
1.50065e-07
2.67083e-06
2.18903e-07
1.03142e-06
1.5026e-07
2.66164e-06
5.01091e-06
5.01498e-06
3.30313e-07
5.00896e-06
5.01316e-06
2.51893e-06
7.92704e-06
3.32411e-06
4.98231e-06
1.61581e-05
7.97281e-06
2.51276e-06
7.92916e-06
3.31594e-06
4.98328e-06
9.73682e-08
1.04607e-07
1.04594e-07
1.25601e-07
9.72214e-08
1.06511e-07
1.06528e-07
9.34099e-07
2.5582e-06
1.45685e-07
1.95464e-07
9.89683e-07
2.54407e-06
1.39605e-07
1.61578e-05
7.97201e-06
9.34904e-07
1.45676e-07
2.55307e-06
1.95422e-07
9.89811e-07
1.39535e-07
2.54293e-06
4.89075e-06
4.89482e-06
2.90241e-07
4.39518e-06
4.39966e-06
1.82824e-05
1.83028e-05
3.35928e-07
4.98179e-06
4.99294e-06
1.82849e-05
1.828e-05
1.83027e-05
1.83001e-05
3.36935e-07
4.9828e-06
4.99028e-06
4.98263e-06
4.9933e-06
3.38009e-06
8.76021e-06
1.02831e-06
2.20588e-07
2.6703e-06
1.50523e-07
1.02454e-06
2.21191e-07
2.67056e-06
1.50539e-07
3.38033e-06
8.75815e-06
8.75797e-06
3.38181e-06
3.37793e-06
8.76023e-06
8.75984e-06
3.38205e-06
1.02803e-06
2.20614e-07
2.66969e-06
1.50522e-07
2.67061e-06
1.50522e-07
1.02637e-06
1.02484e-06
2.21243e-07
2.67003e-06
1.50544e-07
2.67088e-06
1.50541e-07
1.02379e-06
3.37009e-07
4.98263e-06
4.98917e-06
1.82944e-05
1.82894e-05
1.8284e-05
3.38115e-07
4.98324e-06
4.98884e-06
4.98321e-06
4.98967e-06
1.82942e-05
1.8291e-05
1.02537e-06
2.21151e-07
2.67226e-06
1.5034e-07
3.38389e-06
8.76331e-06
1.02233e-06
2.21511e-07
1.50277e-07
2.67112e-06
3.38756e-06
8.76226e-06
8.76185e-06
3.3859e-06
1.02496e-06
2.2116e-07
2.67191e-06
1.50349e-07
2.67271e-06
1.5034e-07
1.02386e-06
3.38667e-06
8.76323e-06
8.76305e-06
3.38529e-06
1.0211e-06
2.21523e-07
1.50266e-07
2.67076e-06
1.50268e-07
2.67159e-06
1.02011e-06
3.3881e-06
8.76205e-06
1.03043e-06
2.21494e-07
1.50635e-07
2.67105e-06
3.38311e-06
8.76396e-06
1.03056e-06
2.21293e-07
2.67075e-06
1.50545e-07
2.67189e-06
1.5055e-07
1.02913e-06
3.3897e-06
8.76132e-06
8.76162e-06
3.38848e-06
1.02743e-06
2.2145e-07
1.50629e-07
2.67061e-06
1.50633e-07
2.67142e-06
1.02626e-06
3.38458e-06
8.763e-06
8.76348e-06
3.38467e-06
3.36907e-07
4.99027e-06
4.98644e-06
1.82891e-05
1.83103e-05
1.83072e-05
3.37431e-07
4.98886e-06
4.98553e-06
4.99076e-06
4.9872e-06
1.82912e-05
1.82867e-05
1.02306e-06
2.21411e-07
1.50501e-07
2.67053e-06
3.37743e-06
8.76072e-06
3.38332e-06
8.76386e-06
1.02365e-06
2.20672e-07
1.50305e-07
2.67139e-06
1.50306e-07
2.67238e-06
1.01762e-06
1.02438e-06
2.2145e-07
1.50492e-07
2.66984e-06
1.50497e-07
2.67085e-06
1.02157e-06
3.3777e-06
8.76057e-06
8.76045e-06
3.37566e-06
3.38592e-06
8.76237e-06
8.7631e-06
3.38175e-06
1.82973e-05
1.82972e-05
3.37554e-07
4.98608e-06
4.98514e-06
4.98606e-06
4.98538e-06
1.82981e-05
1.82945e-05
1.82967e-05
1.82943e-05
1.82826e-05
1.82878e-05
1.8299e-05
1.82997e-05
4.98389e-06
4.99029e-06
3.36211e-07
4.98441e-06
4.98764e-06
1.82909e-05
1.82855e-05
1.82962e-05
1.82954e-05
3.37201e-07
4.98621e-06
4.98507e-06
4.98565e-06
4.98742e-06
3.38405e-06
8.76033e-06
3.38312e-06
8.76125e-06
1.02408e-06
2.67051e-06
1.50515e-07
2.20654e-07
1.0252e-06
2.66969e-06
1.50515e-07
1.02507e-06
2.67089e-06
1.50544e-07
2.21312e-07
1.02427e-06
2.67021e-06
1.50547e-07
3.38431e-06
8.75822e-06
8.75755e-06
3.38533e-06
3.38537e-06
8.7628e-06
8.76179e-06
3.38388e-06
1.02479e-06
2.20679e-07
2.67001e-06
1.5052e-07
2.67085e-06
1.50517e-07
1.02476e-06
1.02654e-06
2.21387e-07
2.67083e-06
1.5056e-07
2.67146e-06
1.50554e-07
1.02762e-06
4.98428e-06
4.98955e-06
3.37243e-07
4.98405e-06
4.98806e-06
1.8291e-05
1.82942e-05
1.8295e-05
1.82908e-05
3.38238e-07
4.98519e-06
4.98762e-06
4.98433e-06
4.98902e-06
1.82949e-05
1.82912e-05
1.0229e-06
2.67277e-06
1.50351e-07
2.21237e-07
1.02406e-06
2.67188e-06
1.50359e-07
3.38578e-06
8.76262e-06
3.38551e-06
8.76338e-06
1.022e-06
1.50258e-07
2.67166e-06
2.21588e-07
1.02088e-06
1.50258e-07
2.67095e-06
3.38697e-06
8.76356e-06
8.76332e-06
3.38561e-06
1.02336e-06
2.21294e-07
2.67203e-06
1.50376e-07
2.67305e-06
1.50365e-07
1.02281e-06
3.38625e-06
8.76342e-06
8.76338e-06
3.38481e-06
1.02345e-06
2.21606e-07
1.50264e-07
2.67154e-06
1.5026e-07
2.67225e-06
1.02413e-06
3.38824e-06
8.76087e-06
3.38856e-06
8.76101e-06
1.02763e-06
1.50616e-07
2.67151e-06
2.21441e-07
1.02693e-06
1.50604e-07
2.67095e-06
3.38539e-06
8.76256e-06
3.38575e-06
8.76334e-06
1.03121e-06
2.21322e-07
2.67072e-06
1.50521e-07
2.67174e-06
1.50522e-07
1.03102e-06
3.38957e-06
8.76187e-06
8.76079e-06
3.38803e-06
1.02948e-06
2.21464e-07
1.50605e-07
2.6716e-06
1.50604e-07
2.67222e-06
1.03029e-06
3.38706e-06
8.76373e-06
8.76334e-06
3.38731e-06
4.98951e-06
4.98607e-06
3.36903e-07
4.98939e-06
4.98557e-06
1.82887e-05
1.82942e-05
1.8314e-05
1.8309e-05
3.38031e-07
4.99132e-06
4.98466e-06
4.99073e-06
4.98634e-06
1.82955e-05
1.82917e-05
1.02308e-06
1.50478e-07
2.67063e-06
2.21435e-07
1.02273e-06
1.50469e-07
2.66963e-06
3.37879e-06
8.76022e-06
3.3771e-06
8.76043e-06
3.3799e-06
8.76059e-06
3.38133e-06
8.75756e-06
1.02487e-06
2.20826e-07
1.50307e-07
2.67171e-06
1.50303e-07
2.67261e-06
1.02543e-06
1.02382e-06
2.21467e-07
1.50467e-07
2.66982e-06
1.50468e-07
2.67077e-06
1.01963e-06
3.37793e-06
8.76117e-06
8.76037e-06
3.3786e-06
3.38042e-06
8.75498e-06
8.75603e-06
3.37208e-06
1.82953e-05
1.82989e-05
1.82934e-05
1.82959e-05
3.37799e-07
4.99034e-06
4.98716e-06
4.98976e-06
4.98682e-06
1.82992e-05
1.8296e-05
1.82964e-05
1.82929e-05
1.82886e-05
1.82933e-05
1.82927e-05
1.82955e-05
4.98758e-06
4.98569e-06
3.36731e-07
4.98775e-06
4.985e-06
1.82934e-05
1.82905e-05
1.82959e-05
1.82927e-05
3.37941e-07
4.98641e-06
4.98572e-06
4.98861e-06
4.98638e-06
3.38361e-06
8.76278e-06
3.3853e-06
8.7634e-06
1.02945e-06
2.67116e-06
1.50525e-07
2.20773e-07
1.02753e-06
2.67032e-06
1.50528e-07
1.02967e-06
2.67204e-06
1.50565e-07
2.21428e-07
1.02897e-06
2.67133e-06
1.50573e-07
3.38583e-06
8.76074e-06
8.75882e-06
3.38457e-06
3.38295e-06
8.76359e-06
8.7633e-06
3.3867e-06
1.03068e-06
2.20846e-07
2.67051e-06
1.5055e-07
2.67144e-06
1.50542e-07
1.03091e-06
1.03057e-06
2.21451e-07
2.67171e-06
1.50598e-07
2.6725e-06
1.50586e-07
1.03068e-06
4.98626e-06
4.98881e-06
3.3759e-07
4.98575e-06
4.98772e-06
1.82921e-05
1.82954e-05
1.82932e-05
1.82908e-05
3.38778e-07
4.98595e-06
4.98589e-06
4.98651e-06
4.98827e-06
1.82932e-05
1.82917e-05
1.02241e-06
2.67317e-06
1.50378e-07
2.21333e-07
1.02334e-06
2.67222e-06
1.50382e-07
3.38911e-06
8.76361e-06
3.3874e-06
8.76479e-06
1.02539e-06
1.50268e-07
2.67275e-06
2.21629e-07
1.02515e-06
1.50277e-07
2.67176e-06
3.38546e-06
8.76417e-06
8.76362e-06
3.38581e-06
1.02288e-06
2.21371e-07
2.6725e-06
1.50403e-07
2.6734e-06
1.50393e-07
1.01331e-06
3.39036e-06
8.76519e-06
8.76478e-06
3.38989e-06
1.02609e-06
2.21666e-07
1.503e-07
2.67166e-06
1.50288e-07
2.67287e-06
1.02578e-06
3.38445e-06
8.76184e-06
3.38897e-06
8.76216e-06
1.03097e-06
1.50602e-07
2.67278e-06
2.21512e-07
1.0312e-06
1.50603e-07
2.67183e-06
3.38703e-06
8.76346e-06
3.38839e-06
8.76336e-06
1.03169e-06
2.21344e-07
2.6709e-06
1.50513e-07
2.67206e-06
1.50512e-07
1.03077e-06
3.38631e-06
8.76243e-06
8.76189e-06
3.38334e-06
1.03145e-06
2.21544e-07
1.5061e-07
2.67173e-06
1.50606e-07
2.6729e-06
1.03072e-06
3.38705e-06
8.76299e-06
8.76304e-06
3.38554e-06
4.99267e-06
4.98524e-06
3.3756e-07
4.99121e-06
4.98285e-06
1.82923e-05
1.82938e-05
1.83149e-05
1.83115e-05
3.38484e-07
4.99081e-06
4.98213e-06
4.99216e-06
4.98353e-06
1.82915e-05
1.82902e-05
1.02069e-06
1.5046e-07
2.67096e-06
2.2148e-07
1.02197e-06
1.50459e-07
2.67014e-06
3.37595e-06
8.76125e-06
3.38087e-06
8.76203e-06
3.37487e-06
8.75462e-06
3.37793e-06
8.75471e-06
1.02731e-06
2.21026e-07
1.50338e-07
2.67191e-06
1.50325e-07
2.67296e-06
1.02733e-06
1.02145e-06
2.21506e-07
1.50463e-07
2.67063e-06
1.50461e-07
2.67132e-06
1.02123e-06
3.38381e-06
8.76329e-06
8.76242e-06
3.3856e-06
3.37616e-06
8.75496e-06
8.75453e-06
3.3814e-06
1.8296e-05
1.82973e-05
1.82934e-05
1.82966e-05
3.38704e-07
4.98678e-06
4.98759e-06
4.98921e-06
4.98862e-06
1.82952e-05
1.82936e-05
1.82973e-05
1.82938e-05
1.82899e-05
1.82912e-05
1.82927e-05
1.82949e-05
4.98651e-06
4.98655e-06
3.37036e-07
4.98344e-06
4.98475e-06
1.82897e-05
1.82875e-05
1.82944e-05
1.82915e-05
3.38357e-07
4.98233e-06
4.98383e-06
4.98375e-06
4.98522e-06
3.38812e-06
8.76335e-06
3.38798e-06
8.7635e-06
1.03153e-06
2.67159e-06
1.50552e-07
2.20926e-07
1.03169e-06
2.67023e-06
1.50558e-07
1.03114e-06
2.67289e-06
1.50602e-07
2.21455e-07
1.03134e-06
2.67208e-06
1.50609e-07
3.38993e-06
8.75705e-06
8.75811e-06
3.38881e-06
3.38958e-06
8.76344e-06
8.76324e-06
3.38947e-06
1.03211e-06
2.20965e-07
2.66969e-06
1.50578e-07
2.67117e-06
1.5057e-07
1.03169e-06
1.03173e-06
2.21453e-07
2.67235e-06
1.50624e-07
2.67325e-06
1.50619e-07
1.03139e-06
4.98706e-06
4.98677e-06
3.37686e-07
4.98708e-06
4.98601e-06
1.82897e-05
1.82927e-05
1.82936e-05
1.829e-05
3.38955e-07
4.98855e-06
4.98648e-06
4.98838e-06
4.98717e-06
1.82927e-05
1.82895e-05
1.01719e-06
2.67364e-06
1.50405e-07
2.21382e-07
1.01616e-06
2.67255e-06
1.5041e-07
3.39051e-06
8.76494e-06
3.39053e-06
8.76475e-06
1.02618e-06
1.50309e-07
2.67272e-06
2.21713e-07
1.02634e-06
1.50315e-07
2.6715e-06
3.38841e-06
8.76531e-06
8.76467e-06
3.38412e-06
1.01948e-06
2.2139e-07
2.67256e-06
1.50441e-07
2.67364e-06
1.50425e-07
1.02299e-06
3.39142e-06
8.76474e-06
8.7645e-06
3.38965e-06
1.02682e-06
2.21727e-07
1.50351e-07
2.6714e-06
1.50333e-07
2.67257e-06
1.02665e-06
3.38335e-06
8.76232e-06
3.38443e-06
8.7628e-06
1.03085e-06
1.50614e-07
2.67272e-06
2.21577e-07
1.03119e-06
1.50617e-07
2.67147e-06
3.38693e-06
8.76276e-06
3.38675e-06
8.76283e-06
1.03057e-06
2.21375e-07
2.67072e-06
1.50511e-07
2.67187e-06
1.50511e-07
1.02978e-06
3.38374e-06
8.76302e-06
8.76271e-06
3.38229e-06
1.03141e-06
2.21598e-07
1.50636e-07
2.67118e-06
1.50629e-07
2.67247e-06
1.03115e-06
3.38786e-06
8.76271e-06
8.76254e-06
3.38599e-06
4.99156e-06
4.98284e-06
3.37982e-07
4.99072e-06
4.98141e-06
1.82879e-05
1.829e-05
1.83164e-05
1.83126e-05
3.38917e-07
4.99114e-06
4.98218e-06
4.9918e-06
4.98224e-06
1.82914e-05
1.82869e-05
1.02139e-06
1.50463e-07
2.67186e-06
2.21466e-07
1.02203e-06
1.50464e-07
2.6713e-06
3.38626e-06
8.76316e-06
3.38681e-06
8.76337e-06
3.38157e-06
8.75492e-06
3.38256e-06
8.75552e-06
1.02835e-06
2.2121e-07
1.50369e-07
2.67156e-06
1.50357e-07
2.67275e-06
1.02816e-06
1.02068e-06
2.21462e-07
1.50466e-07
2.6721e-06
1.50465e-07
2.67257e-06
1.02541e-06
3.38704e-06
8.76339e-06
8.76313e-06
3.38613e-06
3.38264e-06
8.75711e-06
8.75554e-06
3.38166e-06
1.82913e-05
1.8293e-05
1.82945e-05
1.82985e-05
3.3906e-07
4.98343e-06
4.99095e-06
4.98563e-06
4.9902e-06
1.82909e-05
1.82894e-05
1.82999e-05
1.82956e-05
1.82865e-05
1.82901e-05
1.82915e-05
1.82956e-05
4.98321e-06
4.9848e-06
3.37538e-07
4.9833e-06
4.98514e-06
1.82891e-05
1.82867e-05
1.82953e-05
1.82925e-05
3.38456e-07
4.98236e-06
4.98596e-06
4.98386e-06
4.98615e-06
3.38827e-06
8.76317e-06
3.38956e-06
8.76304e-06
1.03168e-06
2.67065e-06
1.50579e-07
2.21064e-07
1.03218e-06
2.66932e-06
1.50581e-07
1.03117e-06
2.67345e-06
1.50622e-07
2.21423e-07
1.03185e-06
2.67227e-06
1.50617e-07
3.39014e-06
8.75607e-06
8.75609e-06
3.3904e-06
3.38916e-06
8.76234e-06
8.76266e-06
3.38728e-06
1.03221e-06
2.21112e-07
2.669e-06
1.50586e-07
2.67031e-06
1.50583e-07
1.03179e-06
1.0316e-06
2.21419e-07
2.67213e-06
1.50615e-07
2.6733e-06
1.50619e-07
1.03087e-06
4.98951e-06
4.98738e-06
3.3777e-07
4.98779e-06
4.98662e-06
1.82893e-05
1.82925e-05
1.82968e-05
1.82914e-05
3.38846e-07
4.98799e-06
4.98685e-06
4.98852e-06
4.98764e-06
1.8293e-05
1.82893e-05
1.0257e-06
2.67371e-06
1.50446e-07
2.21386e-07
1.02498e-06
2.67285e-06
1.50458e-07
3.38823e-06
8.76509e-06
3.39005e-06
8.76562e-06
1.02685e-06
1.50363e-07
2.67251e-06
2.21755e-07
1.02724e-06
1.50378e-07
2.6714e-06
3.38666e-06
8.76619e-06
8.76568e-06
3.38674e-06
1.02656e-06
2.21391e-07
2.67319e-06
1.50495e-07
2.67404e-06
1.50476e-07
1.0261e-06
3.38874e-06
8.76562e-06
8.76543e-06
3.38406e-06
1.02734e-06
2.21775e-07
1.5042e-07
2.67132e-06
1.50402e-07
2.67251e-06
1.02654e-06
3.38106e-06
8.76278e-06
3.38255e-06
8.76312e-06
1.03138e-06
1.50637e-07
2.67219e-06
2.21611e-07
1.03171e-06
1.50643e-07
2.67098e-06
3.38527e-06
8.76254e-06
3.38649e-06
8.76298e-06
1.03026e-06
2.21387e-07
2.67071e-06
1.50516e-07
2.67182e-06
1.50512e-07
1.03004e-06
3.38171e-06
8.76328e-06
8.76298e-06
3.37928e-06
1.03183e-06
2.21621e-07
1.50664e-07
2.67091e-06
1.50653e-07
2.67202e-06
1.031e-06
3.38634e-06
8.76353e-06
8.76293e-06
3.38534e-06
4.99242e-06
4.98347e-06
3.38331e-07
4.99222e-06
4.98419e-06
1.8289e-05
1.82947e-05
1.83166e-05
1.83141e-05
3.39251e-07
4.99115e-06
4.98498e-06
4.99326e-06
4.98537e-06
1.8297e-05
1.82922e-05
1.02782e-06
1.50464e-07
2.67339e-06
2.21381e-07
1.02695e-06
1.50457e-07
2.67285e-06
3.38837e-06
8.76324e-06
3.3874e-06
8.76365e-06
3.38141e-06
8.75714e-06
3.38253e-06
8.75778e-06
1.02942e-06
2.21389e-07
1.50396e-07
2.67167e-06
1.50387e-07
2.67267e-06
1.02925e-06
1.02885e-06
2.21387e-07
1.50456e-07
2.67339e-06
1.50457e-07
2.6741e-06
1.0288e-06
3.38977e-06
8.76365e-06
8.76348e-06
3.38378e-06
3.38105e-06
8.75899e-06
8.75814e-06
3.38678e-06
1.82877e-05
1.82904e-05
1.82972e-05
1.83011e-05
3.38961e-07
4.98357e-06
4.99331e-06
4.98447e-06
4.99411e-06
1.82907e-05
1.82872e-05
1.8302e-05
1.82984e-05
1.82859e-05
1.82897e-05
1.8292e-05
1.82936e-05
4.98315e-06
4.98716e-06
3.37437e-07
4.98303e-06
4.98512e-06
1.8291e-05
1.82869e-05
1.82924e-05
1.829e-05
3.3858e-07
4.9828e-06
4.98387e-06
4.98424e-06
4.98562e-06
3.38232e-06
8.76196e-06
3.38776e-06
8.76204e-06
1.03163e-06
2.66999e-06
1.50586e-07
2.21165e-07
1.03225e-06
2.66878e-06
1.50584e-07
1.0305e-06
2.6732e-06
1.50604e-07
2.21414e-07
1.03129e-06
2.67218e-06
1.50588e-07
3.39043e-06
8.75643e-06
8.75535e-06
3.38903e-06
3.38581e-06
8.76249e-06
8.76186e-06
3.38864e-06
1.03203e-06
2.21188e-07
2.66871e-06
1.50585e-07
2.66983e-06
1.50585e-07
1.03123e-06
1.03094e-06
2.21417e-07
2.67235e-06
1.50575e-07
2.6733e-06
1.50587e-07
1.03022e-06
4.9891e-06