/*--------------------------------*- C++ -*----------------------------------*\
| =========                 |                                                 |
| \\      /  F ield         | OpenFOAM: The Open Source CFD Toolbox           |
|  \\    /   O peration     | Version:  v1906                                 |
|   \\  /    A nd           | Web:      www.OpenFOAM.com                      |
|    \\/     M anipulation  |                                                 |
\*---------------------------------------------------------------------------*/
FoamFile
{
    version     2.0;
    format      ascii;
    class       volScalarField;
    location    "100";
    object      k;
}
// * * * * * * * * * * * * * * * * * * * * * * * * * * * * * * * * * * * * * //

dimensions      [0 2 -2 0 0 0 0];


internalField   nonuniform List<scalar> 
43024
(
1.42621e-05
1.58579e-05
1.58345e-05
1.77434e-05
1.42627e-05
1.58599e-05
1.5843e-05
1.77637e-05
1.42639e-05
1.5861e-05
1.5851e-05
1.77703e-05
1.42645e-05
1.58623e-05
1.58585e-05
1.77327e-05
1.4265e-05
1.58622e-05
1.58651e-05
1.77436e-05
1.42651e-05
1.586e-05
1.58693e-05
1.77118e-05
1.42652e-05
1.58554e-05
1.58698e-05
1.76992e-05
1.42652e-05
1.58517e-05
1.5865e-05
1.76708e-05
1.42649e-05
1.58481e-05
1.58571e-05
1.76612e-05
1.42637e-05
1.58458e-05
1.58502e-05
1.76552e-05
1.42625e-05
1.58444e-05
1.5843e-05
1.76441e-05
1.42614e-05
1.58438e-05
1.58351e-05
1.76329e-05
1.42608e-05
1.58422e-05
1.58295e-05
1.76139e-05
1.42604e-05
1.58393e-05
1.58257e-05
1.76077e-05
1.42596e-05
1.58356e-05
1.5824e-05
1.76258e-05
1.42589e-05
1.58329e-05
1.58221e-05
1.76333e-05
1.42584e-05
1.58302e-05
1.58177e-05
1.7637e-05
1.42583e-05
1.58273e-05
1.58161e-05
1.76162e-05
1.42579e-05
1.58258e-05
1.58168e-05
1.76229e-05
1.42568e-05
1.58241e-05
1.58178e-05
1.76161e-05
1.42367e-05
1.55256e-05
1.55229e-05
1.73359e-05
1.76829e-05
1.58295e-05
1.58517e-05
1.77159e-05
1.58515e-05
1.58609e-05
1.58571e-05
1.58596e-05
1.76962e-05
1.58324e-05
1.58595e-05
1.77197e-05
1.76998e-05
1.7695e-05
1.58308e-05
1.58531e-05
1.58344e-05
1.5858e-05
1.7731e-05
1.77333e-05
1.58532e-05
1.5862e-05
1.58578e-05
1.58648e-05
1.58605e-05
1.58595e-05
1.58637e-05
1.77271e-05
1.77259e-05
1.58604e-05
1.5841e-05
1.58633e-05
1.77475e-05
1.77164e-05
1.77122e-05
1.58364e-05
1.58597e-05
1.58408e-05
1.58618e-05
1.77516e-05
1.77444e-05
1.58593e-05
1.58659e-05
1.58614e-05
1.58684e-05
1.58647e-05
1.58608e-05
1.5867e-05
1.77495e-05
1.77343e-05
1.58644e-05
1.58491e-05
1.58654e-05
1.77568e-05
1.77312e-05
1.77241e-05
1.58425e-05
1.58619e-05
1.58463e-05
1.58607e-05
1.77573e-05
1.77228e-05
1.58619e-05
1.58692e-05
1.58629e-05
1.58709e-05
1.58675e-05
1.5862e-05
1.58687e-05
1.77513e-05
1.77534e-05
1.5865e-05
1.58568e-05
1.58627e-05
1.77386e-05
1.77425e-05
1.77074e-05
1.58477e-05
1.58601e-05
1.5851e-05
1.58584e-05
1.77487e-05
1.77122e-05
1.58631e-05
1.58713e-05
1.58621e-05
1.58715e-05
1.58689e-05
1.58622e-05
1.58688e-05
1.77667e-05
1.77628e-05
1.58614e-05
1.58638e-05
1.58578e-05
1.77258e-05
1.77064e-05
1.771e-05
1.58518e-05
1.58584e-05
1.58528e-05
1.58589e-05
1.77294e-05
1.77257e-05
1.58614e-05
1.58717e-05
1.586e-05
1.58719e-05
1.58687e-05
1.58608e-05
1.58669e-05
1.77557e-05
1.77466e-05
1.58572e-05
1.58685e-05
1.58556e-05
1.77176e-05
1.77264e-05
1.76959e-05
1.58532e-05
1.58594e-05
1.58531e-05
1.58598e-05
1.77494e-05
1.77288e-05
1.586e-05
1.58718e-05
1.58603e-05
1.58706e-05
1.58661e-05
1.58564e-05
1.58625e-05
1.77425e-05
1.77173e-05
1.58553e-05
1.587e-05
1.58539e-05
1.77087e-05
1.77102e-05
1.76866e-05
1.5853e-05
1.58598e-05
1.58525e-05
1.58582e-05
1.77509e-05
1.77024e-05
1.58606e-05
1.587e-05
1.58604e-05
1.58652e-05
1.58617e-05
1.58524e-05
1.5857e-05
1.77338e-05
1.77024e-05
1.58535e-05
1.58664e-05
1.58515e-05
1.76553e-05
1.77077e-05
1.76918e-05
1.58524e-05
1.58577e-05
1.58505e-05
1.58542e-05
1.77115e-05
1.76866e-05
1.58603e-05
1.58639e-05
1.58588e-05
1.58568e-05
1.58559e-05
1.58488e-05
1.58514e-05
1.77204e-05
1.76844e-05
1.58513e-05
1.58586e-05
1.58497e-05
1.76437e-05
1.76875e-05
1.76829e-05
1.58498e-05
1.58534e-05
1.58461e-05
1.58488e-05
1.76828e-05
1.76817e-05
1.58584e-05
1.58552e-05
1.58557e-05
1.58478e-05
1.58505e-05
1.5846e-05
1.58465e-05
1.76775e-05
1.76423e-05
1.58494e-05
1.58513e-05
1.58473e-05
1.76388e-05
1.76764e-05
1.7651e-05
1.58451e-05
1.58479e-05
1.58413e-05
1.5843e-05
1.76929e-05
1.76579e-05
1.58551e-05
1.58464e-05
1.58515e-05
1.58404e-05
1.58458e-05
1.58445e-05
1.5842e-05
1.76583e-05
1.76147e-05
1.58469e-05
1.58444e-05
1.58442e-05
1.76283e-05
1.76718e-05
1.76648e-05
1.58407e-05
1.58425e-05
1.58367e-05
1.58393e-05
1.76794e-05
1.76492e-05
1.58509e-05
1.58395e-05
1.58477e-05
1.58346e-05
1.58413e-05
1.58439e-05
1.58366e-05
1.76337e-05
1.76166e-05
1.58437e-05
1.58362e-05
1.58397e-05
1.76167e-05
1.76769e-05
1.76617e-05
1.58361e-05
1.58389e-05
1.58334e-05
1.58355e-05
1.76443e-05
1.76359e-05
1.58473e-05
1.58339e-05
1.58448e-05
1.58306e-05
1.58357e-05
1.58425e-05
1.58286e-05
1.76314e-05
1.76187e-05
1.58391e-05
1.58302e-05
1.5835e-05
1.75869e-05
1.76535e-05
1.76274e-05
1.58331e-05
1.58347e-05
1.58304e-05
1.58295e-05
1.76317e-05
1.76305e-05
1.58444e-05
1.58303e-05
1.58421e-05
1.58287e-05
1.58275e-05
1.58398e-05
1.58215e-05
1.76414e-05
1.76262e-05
1.58345e-05
1.58259e-05
1.58307e-05
1.75923e-05
1.76436e-05
1.76434e-05
1.58302e-05
1.58284e-05
1.58283e-05
1.5823e-05
1.76354e-05
1.76156e-05
1.5842e-05
1.58287e-05
1.58411e-05
1.58281e-05
1.5821e-05
1.5836e-05
1.5819e-05
1.76397e-05
1.76306e-05
1.58304e-05
1.58239e-05
1.58272e-05
1.76004e-05
1.76585e-05
1.76431e-05
1.58285e-05
1.58226e-05
1.58284e-05
1.58181e-05
1.76336e-05
1.75921e-05
1.58413e-05
1.58282e-05
1.58409e-05
1.58273e-05
1.58192e-05
1.58329e-05
1.58191e-05
1.76451e-05
1.76098e-05
1.5827e-05
1.58223e-05
1.58242e-05
1.76147e-05
1.76636e-05
1.76475e-05
1.58291e-05
1.58178e-05
1.58301e-05
1.58142e-05
1.76091e-05
1.75984e-05
1.58412e-05
1.58274e-05
1.58403e-05
1.58249e-05
1.58199e-05
1.58303e-05
1.58214e-05
1.76318e-05
1.76093e-05
1.58244e-05
1.5818e-05
1.58243e-05
1.76212e-05
1.7645e-05
1.76318e-05
1.58318e-05
1.58141e-05
1.58338e-05
1.58099e-05
1.76193e-05
1.75982e-05
1.58406e-05
1.58246e-05
1.58394e-05
1.582e-05
1.58233e-05
1.58272e-05
1.58264e-05
1.76213e-05
1.75817e-05
1.58254e-05
1.58154e-05
1.58271e-05
1.75926e-05
1.76498e-05
1.76267e-05
1.58353e-05
1.58096e-05
1.58358e-05
1.58061e-05
1.76169e-05
1.75927e-05
1.584e-05
1.58196e-05
1.58392e-05
1.58138e-05
1.58289e-05
1.58251e-05
1.58331e-05
1.75745e-05
1.75755e-05
1.58287e-05
1.58155e-05
1.58309e-05
1.7606e-05
1.76197e-05
1.75656e-05
1.5837e-05
1.58066e-05
1.58336e-05
1.58033e-05
1.75846e-05
1.75558e-05
1.58402e-05
1.58138e-05
1.5836e-05
1.58086e-05
1.58359e-05
1.58211e-05
1.5837e-05
1.75807e-05
1.7553e-05
1.58329e-05
1.58145e-05
1.58326e-05
1.76118e-05
1.75894e-05
1.74995e-05
1.58365e-05
1.58064e-05
1.57071e-05
1.56797e-05
1.75584e-05
1.7459e-05
1.58388e-05
1.58114e-05
1.57102e-05
1.56825e-05
1.58405e-05
1.56958e-05
1.57134e-05
1.75451e-05
1.74569e-05
1.5836e-05
1.56906e-05
1.57094e-05
1.75156e-05
1.73437e-05
1.55378e-05
1.55144e-05
1.72942e-05
1.55385e-05
1.55139e-05
1.4233e-05
1.42331e-05
1.42349e-05
1.55422e-05
1.72903e-05
1.55399e-05
4.90885e-05
6.9265e-05
6.91613e-05
4.92199e-05
6.92806e-05
1.42617e-05
1.42636e-05
1.42625e-05
1.42631e-05
2.73161e-05
1.58556e-05
4.36462e-05
1.45101e-05
6.92157e-05
2.71389e-05
1.58286e-05
1.44994e-05
4.36261e-05
1.7704e-05
5.73035e-05
5.73014e-05
4.91271e-05
6.9264e-05
4.91609e-05
6.92644e-05
6.91614e-05
6.91761e-05
4.91401e-05
6.92812e-05
4.91824e-05
6.92873e-05
1.42631e-05
1.42621e-05
1.42625e-05
1.42623e-05
1.42634e-05
1.42635e-05
1.42629e-05
2.73122e-05
4.36484e-05
1.451e-05
1.58587e-05
2.73223e-05
4.36395e-05
1.451e-05
6.92078e-05
6.92185e-05
2.71736e-05
1.45011e-05
4.36364e-05
1.58368e-05
2.71689e-05
1.4501e-05
4.36331e-05
5.73356e-05
5.72954e-05
1.77401e-05
5.73695e-05
5.72859e-05
4.92469e-05
6.92643e-05
4.92225e-05
6.92683e-05
6.91749e-05
6.91823e-05
4.91516e-05
6.92881e-05
4.91463e-05
6.92894e-05
1.42635e-05
1.42638e-05
1.42631e-05
1.42634e-05
1.42639e-05
1.42655e-05
1.42637e-05
2.73093e-05
4.36453e-05
1.45107e-05
1.58604e-05
2.732e-05
4.36398e-05
1.45106e-05
6.92173e-05
6.92269e-05
2.7214e-05
1.45026e-05
4.36455e-05
1.58449e-05
2.72108e-05
1.45025e-05
4.36403e-05
5.74022e-05
5.7343e-05
1.77565e-05
5.73402e-05
5.73334e-05
4.9209e-05
6.92755e-05
4.92283e-05
6.92712e-05
6.91709e-05
6.91783e-05
4.92292e-05
6.92905e-05
4.91949e-05
6.92946e-05
1.42639e-05
1.4265e-05
1.42636e-05
1.42641e-05
1.42641e-05
1.42666e-05
1.42639e-05
2.72741e-05
4.36431e-05
1.45108e-05
1.58614e-05
2.72927e-05
4.36345e-05
1.45107e-05
6.92197e-05
6.9229e-05
2.72197e-05
1.45043e-05
4.36478e-05
1.5853e-05
2.72271e-05
1.45044e-05
4.36399e-05
5.72776e-05
5.73192e-05
1.7759e-05
5.72832e-05
5.73166e-05
4.92416e-05
6.92573e-05
4.92164e-05
6.92552e-05
6.91726e-05
6.91814e-05
4.92764e-05
6.92973e-05
4.92773e-05
6.93001e-05
1.4264e-05
1.42667e-05
1.42638e-05
1.42648e-05
1.42638e-05
1.42674e-05
1.42638e-05
2.7261e-05
4.36401e-05
1.45107e-05
1.58624e-05
2.72695e-05
4.36324e-05
1.45103e-05
6.92228e-05
6.92328e-05
2.72182e-05
1.45052e-05
4.36463e-05
1.58605e-05
2.7223e-05
1.4505e-05
4.36428e-05
5.72693e-05
5.73655e-05
1.77213e-05
5.72929e-05
5.73669e-05
4.91944e-05
6.92517e-05
4.92542e-05
6.92528e-05
6.918e-05
6.91934e-05
4.92967e-05
6.93021e-05
4.92282e-05
6.93035e-05
1.42638e-05
1.42674e-05
1.42637e-05
1.42649e-05
1.42637e-05
1.42681e-05
1.42635e-05
2.72632e-05
4.3629e-05
1.45106e-05
1.58619e-05
2.72773e-05
4.36103e-05
1.45102e-05
6.92227e-05
6.92285e-05
2.72343e-05
1.45057e-05
4.36541e-05
1.58665e-05
2.72374e-05
1.45057e-05
4.36509e-05
5.72996e-05
5.73706e-05
1.77074e-05
5.72955e-05
5.7383e-05
4.92414e-05
6.92517e-05
4.91945e-05
6.92609e-05
6.91922e-05
6.92012e-05
4.92449e-05
6.92979e-05
4.93071e-05
6.92969e-05
1.42636e-05
1.42681e-05
1.42629e-05
1.42652e-05
1.42636e-05
1.42682e-05
1.42631e-05
2.72346e-05
4.35964e-05
1.45102e-05
1.5859e-05
2.72548e-05
4.35808e-05
1.451e-05
6.92166e-05
6.92172e-05
2.71345e-05
1.45058e-05
4.36627e-05
1.58698e-05
2.72422e-05
1.45058e-05
4.36576e-05
5.73257e-05
5.73438e-05
1.76971e-05
5.72915e-05
5.73266e-05
4.90641e-05
6.9262e-05
4.91417e-05
6.92635e-05
6.91893e-05
6.91975e-05
4.90899e-05
6.92952e-05
4.90855e-05
6.92956e-05
1.42632e-05
1.42682e-05
1.42631e-05
1.42652e-05
1.42632e-05
1.42679e-05
1.42629e-05
2.71995e-05
4.35831e-05
1.45093e-05
1.58542e-05
2.72135e-05
4.35772e-05
1.45084e-05
6.91896e-05
6.91885e-05
2.71259e-05
1.45058e-05
4.3666e-05
1.58691e-05
2.71331e-05
1.45055e-05
4.36577e-05
5.73035e-05
5.72965e-05
1.76662e-05
5.73096e-05
5.72596e-05
4.90336e-05
6.92661e-05
4.90351e-05
6.92729e-05
6.91876e-05
6.91933e-05
4.91936e-05
6.92918e-05
4.91523e-05
6.92922e-05
1.42631e-05
1.42677e-05
1.42628e-05
1.42651e-05
1.42629e-05
1.4267e-05
1.42628e-05
2.71928e-05
4.35838e-05
1.45075e-05
1.58505e-05
2.72059e-05
4.3574e-05
1.45065e-05
6.9165e-05
6.91677e-05
2.71377e-05
1.45052e-05
4.36622e-05
1.58627e-05
2.71435e-05
1.45047e-05
4.3652e-05
5.73367e-05
5.7237e-05
1.76594e-05
5.73351e-05
5.72486e-05
4.91071e-05
6.92683e-05
4.915e-05
6.92684e-05
6.9178e-05
6.91844e-05
4.91704e-05
6.92919e-05
4.92085e-05
6.92942e-05
1.42626e-05
1.42669e-05
1.42628e-05
1.4264e-05
1.42624e-05
1.42653e-05
1.42624e-05
2.71766e-05
4.35752e-05
1.45058e-05
1.58471e-05
2.71879e-05
4.35667e-05
1.45049e-05
6.91547e-05
6.91645e-05
2.71213e-05
1.45037e-05
4.3649e-05
1.58547e-05
2.71349e-05
1.45031e-05
4.35631e-05
5.7332e-05
5.72974e-05
1.76554e-05
5.72868e-05
5.73017e-05
4.91342e-05
6.9269e-05
4.91246e-05
6.92733e-05
6.9175e-05
6.91866e-05
4.9208e-05
6.92887e-05
4.921e-05
6.92872e-05
1.42624e-05
1.42644e-05
1.42623e-05
1.42627e-05
1.4262e-05
1.42633e-05
1.42618e-05
2.71771e-05
4.35741e-05
1.45045e-05
1.58453e-05
2.71844e-05
4.35678e-05
1.45041e-05
6.916e-05
6.91733e-05
2.71031e-05
1.45014e-05
4.34658e-05
1.58481e-05
2.71214e-05
1.45001e-05
4.34508e-05
5.73272e-05
5.73088e-05
1.76478e-05
5.73225e-05
5.73201e-05
4.91393e-05
6.92749e-05
4.9158e-05
6.92768e-05
6.91811e-05
6.91898e-05
4.91055e-05
6.92801e-05
4.90262e-05
6.92797e-05
1.42617e-05
1.4263e-05
1.42618e-05
1.42615e-05
1.42616e-05
1.42612e-05
1.4261e-05
2.71639e-05
4.35821e-05
1.45041e-05
1.58441e-05
2.71762e-05
4.35789e-05
1.45039e-05
6.9167e-05
6.91791e-05
2.70762e-05
1.4498e-05
4.34776e-05
1.58404e-05
2.70926e-05
1.44966e-05
4.34885e-05
5.73905e-05
5.73775e-05
1.76351e-05
5.73839e-05
5.7378e-05
4.91879e-05
6.92707e-05
4.92281e-05
6.92749e-05
6.91701e-05
6.91803e-05
4.90938e-05
6.92771e-05
4.9102e-05
6.92797e-05
1.42616e-05
1.42608e-05
1.42609e-05
1.42607e-05
1.4261e-05
1.42595e-05
1.426e-05
2.71566e-05
4.3595e-05
1.45038e-05
1.58433e-05
2.71665e-05
4.35926e-05
1.45035e-05
6.91689e-05
6.91796e-05
2.70774e-05
1.44956e-05
4.35246e-05
1.5833e-05
2.70854e-05
1.44949e-05
4.35312e-05
5.73846e-05
5.73778e-05
1.7596e-05
5.73643e-05
5.73623e-05
4.91984e-05
6.92787e-05
4.92696e-05
6.92845e-05
6.91687e-05
6.91824e-05
4.9206e-05
6.92819e-05
4.92351e-05
6.92869e-05
1.42609e-05
1.42589e-05
1.42599e-05
1.42605e-05
1.42603e-05
1.4258e-05
1.42587e-05
2.71506e-05
4.36174e-05
1.4503e-05
1.58412e-05
2.71609e-05
4.3622e-05
1.4502e-05
6.91717e-05
6.91887e-05
2.70644e-05
1.44945e-05
4.35478e-05
1.58279e-05
2.70763e-05
1.44944e-05
4.35264e-05
5.73898e-05
5.73955e-05
1.75852e-05
5.73606e-05
5.73889e-05
4.93141e-05
6.92851e-05
4.92631e-05
6.92907e-05
6.91699e-05
6.91835e-05
4.91019e-05
6.92874e-05
4.91672e-05
6.92954e-05
1.42598e-05
1.42578e-05
1.42581e-05
1.42597e-05
1.42588e-05
1.42572e-05
1.42572e-05
2.71485e-05
4.365e-05
1.45009e-05
1.58379e-05
2.71573e-05
4.36439e-05
1.44999e-05
6.91797e-05
6.91971e-05
2.70543e-05
1.44942e-05
4.35132e-05
1.58246e-05
2.70644e-05
1.4494e-05
4.34927e-05
5.73652e-05
5.74523e-05
1.75894e-05
5.74263e-05
5.74504e-05
4.92672e-05
6.93029e-05
4.92689e-05
6.93124e-05
6.91686e-05
6.91898e-05
4.91829e-05
6.93103e-05
4.9143e-05
6.93202e-05
1.42585e-05
1.42568e-05
1.42571e-05
1.4259e-05
1.42575e-05
1.42564e-05
1.42562e-05
2.71599e-05
4.36608e-05
1.4499e-05
1.58343e-05
2.7162e-05
4.36518e-05
1.44983e-05
6.91854e-05
6.92049e-05
2.70654e-05
1.44941e-05
4.35012e-05
1.58234e-05
2.70677e-05
1.44939e-05
4.34872e-05
5.7471e-05
5.74324e-05
1.76163e-05
5.74692e-05
5.73896e-05
4.93549e-05
6.93135e-05
4.92821e-05
6.93248e-05
6.91838e-05
6.92156e-05
4.92675e-05
6.93222e-05
4.92855e-05
6.93347e-05
1.42571e-05
1.42565e-05
1.4256e-05
1.42584e-05
1.42561e-05
1.42559e-05
1.4256e-05
2.71899e-05
4.36711e-05
1.44983e-05
1.58316e-05
2.71879e-05
4.36555e-05
1.4498e-05
6.91857e-05
6.92107e-05
2.7092e-05
1.44944e-05
4.34362e-05
1.58203e-05
2.70875e-05
1.44944e-05
4.33735e-05
5.75043e-05
5.74595e-05
1.76161e-05
5.74985e-05
5.74454e-05
4.946e-05
6.9327e-05
4.94523e-05
6.93445e-05
6.91898e-05
6.92133e-05
4.91911e-05
6.93378e-05
4.92881e-05
6.93554e-05
1.42558e-05
1.42551e-05
1.42561e-05
1.42583e-05
1.42547e-05
1.42544e-05
1.42564e-05
2.71877e-05
4.36773e-05
1.44984e-05
1.58287e-05
2.72067e-05
4.36467e-05
1.44981e-05
6.91908e-05
6.92231e-05
2.71377e-05
1.44955e-05
4.33846e-05
1.58162e-05
2.71343e-05
1.44955e-05
4.33685e-05
5.75346e-05
5.74601e-05
1.7613e-05
5.75168e-05
5.74509e-05
4.95398e-05
6.93422e-05
4.94983e-05
6.93664e-05
6.91754e-05
6.92186e-05
4.92588e-05
6.93545e-05
4.92216e-05
6.93809e-05
1.42544e-05
1.42542e-05
1.42565e-05
1.42581e-05
1.42535e-05
1.4253e-05
1.42567e-05
2.71742e-05
4.36723e-05
1.44986e-05
1.58259e-05
2.71904e-05
4.36293e-05
1.44982e-05
6.91941e-05
6.92364e-05
2.71824e-05
1.4497e-05
4.34312e-05
1.58152e-05
2.7178e-05
1.44969e-05
4.34096e-05
5.75646e-05
5.75457e-05
1.76126e-05
5.75442e-05
5.7548e-05
4.95907e-05
6.93498e-05
4.95626e-05
6.93873e-05
6.91965e-05
6.92563e-05
4.93052e-05
6.93689e-05
4.92709e-05
6.94076e-05
1.4253e-05
1.42521e-05
1.42567e-05
1.42564e-05
1.42515e-05
1.42506e-05
1.4256e-05
2.72021e-05
4.36845e-05
1.4499e-05
1.58239e-05
2.72103e-05
4.36228e-05
1.44985e-05
6.92044e-05
6.92581e-05
2.7222e-05
1.44983e-05
4.34875e-05
1.58157e-05
2.72342e-05
1.44978e-05
4.34328e-05
5.76203e-05
5.76386e-05
1.76005e-05
5.75933e-05
5.76131e-05
4.93797e-05
6.93495e-05
4.94738e-05
6.94154e-05
6.92229e-05
6.92901e-05
4.93635e-05
6.93679e-05
4.9385e-05
6.94312e-05
1.42518e-05
1.42508e-05
1.42564e-05
1.42527e-05
1.42464e-05
1.42454e-05
1.42513e-05
2.72051e-05
4.3737e-05
1.44989e-05
1.5805e-05
2.7264e-05
4.3609e-05
1.44947e-05
6.92186e-05
6.92844e-05
2.71912e-05
1.44983e-05
4.35592e-05
1.57998e-05
2.72601e-05
1.44936e-05
4.34545e-05
5.7664e-05
5.76896e-05
1.76082e-05
5.75734e-05
5.76081e-05
4.17118e-05
6.83615e-05
4.8833e-05
7.0703e-05
6.90067e-05
5.95446e-05
4.16417e-05
6.83705e-05
4.89325e-05
7.07095e-05
1.43776e-05
1.41873e-05
1.41867e-05
1.43731e-05
1.43659e-05
1.42012e-05
1.42002e-05
2.57543e-05
4.26754e-05
1.44526e-05
1.52907e-05
2.66779e-05
4.45478e-05
1.43781e-05
6.90014e-05
5.94924e-05
2.57638e-05
1.44518e-05
4.25708e-05
1.52723e-05
2.66718e-05
1.43702e-05
4.45342e-05
5.71501e-05
5.72013e-05
1.69563e-05
5.50307e-05
5.50866e-05
6.91515e-05
6.92006e-05
1.76779e-05
5.71768e-05
5.74135e-05
6.91577e-05
6.91452e-05
6.92026e-05
6.91942e-05
1.76956e-05
5.72343e-05
5.73635e-05
5.72211e-05
5.74123e-05
4.90532e-05
6.92758e-05
2.71815e-05
1.58275e-05
4.3593e-05
1.45078e-05
2.68954e-05
1.58488e-05
4.36231e-05
1.45082e-05
4.90492e-05
6.92648e-05
6.92638e-05
4.9133e-05
4.90433e-05
6.92717e-05
6.92715e-05
4.9114e-05
2.7192e-05
1.58286e-05
4.35916e-05
1.45087e-05
4.35973e-05
1.45085e-05
2.72072e-05
2.68753e-05
1.58503e-05
4.36254e-05
1.45095e-05
4.36281e-05
1.45091e-05
2.68966e-05
1.7715e-05
5.7246e-05
5.73805e-05
6.91866e-05
6.91673e-05
6.91545e-05
1.77295e-05
5.72555e-05
5.73863e-05
5.72509e-05
5.7372e-05
6.91853e-05
6.91776e-05
2.71144e-05
1.58482e-05
4.36542e-05
1.4502e-05
4.91849e-05
6.92849e-05
2.68474e-05
1.58588e-05
1.44978e-05
4.36288e-05
4.92436e-05
6.92821e-05
6.928e-05
4.91842e-05
2.71194e-05
1.58498e-05
4.36595e-05
1.45044e-05
4.36609e-05
1.45031e-05
2.71468e-05
4.92051e-05
6.92843e-05
6.92834e-05
4.91657e-05
2.68716e-05
1.58599e-05
1.44997e-05
4.36315e-05
1.44991e-05
4.36349e-05
2.68498e-05
4.93247e-05
6.92852e-05
2.72996e-05
1.5858e-05
1.45108e-05
4.36423e-05
4.92238e-05
6.92922e-05
2.73219e-05
1.58564e-05
4.36418e-05
1.45099e-05
4.36498e-05
1.45099e-05
2.73153e-05
4.93304e-05
6.92806e-05
6.92812e-05
4.92126e-05
2.73072e-05
1.58587e-05
1.45111e-05
4.36467e-05
1.45109e-05
4.36481e-05
2.73082e-05
4.92282e-05
6.92875e-05
6.929e-05
4.92424e-05
1.76992e-05
5.73544e-05
5.72755e-05
6.9167e-05
6.92158e-05
6.92082e-05
1.77155e-05
5.73174e-05
5.72488e-05
5.73724e-05
5.72984e-05
6.91719e-05
6.91609e-05
2.7168e-05
1.58579e-05
1.45062e-05
4.36183e-05
4.90223e-05
6.92747e-05
4.91654e-05
6.92888e-05
2.71468e-05
1.58304e-05
1.45007e-05
4.36291e-05
1.45002e-05
4.36323e-05
2.71557e-05
2.71769e-05
1.58586e-05
1.45059e-05
4.36192e-05
1.4506e-05
4.36237e-05
2.71059e-05
4.90464e-05
6.9274e-05
6.92733e-05
4.8984e-05
4.92497e-05
6.92824e-05
6.92861e-05
4.90489e-05
6.91886e-05
6.91865e-05
1.77236e-05
5.73308e-05
5.72877e-05
5.73252e-05
5.73421e-05
6.91906e-05
6.91814e-05
6.91858e-05
6.91791e-05
6.91516e-05
6.91642e-05
6.91933e-05
6.91959e-05
5.72435e-05
5.73639e-05
1.76862e-05
5.72315e-05
5.73521e-05
6.91725e-05
6.91585e-05
6.91861e-05
6.91854e-05
1.7702e-05
5.72967e-05
5.72777e-05
5.72663e-05
5.73086e-05
4.91531e-05
6.92728e-05
4.91287e-05
6.92769e-05
2.72531e-05
4.35968e-05
1.45084e-05
1.5832e-05
2.72311e-05
4.35927e-05
1.45086e-05
2.70159e-05
4.36317e-05
1.45094e-05
1.5855e-05
2.69839e-05
4.3632e-05
1.45096e-05
4.91858e-05
6.92646e-05
6.92629e-05
4.9184e-05
4.91665e-05
6.92865e-05
6.92775e-05
4.91994e-05
2.72726e-05
1.58333e-05
4.35967e-05
1.45093e-05
4.35994e-05
1.45089e-05
2.7281e-05
2.70239e-05
1.58564e-05
4.36401e-05
1.45105e-05
4.36401e-05
1.45099e-05
2.70763e-05
5.72525e-05
5.73954e-05
1.77202e-05
5.72829e-05
5.73763e-05
6.91773e-05
6.91851e-05
6.91828e-05
6.91704e-05
1.77408e-05
5.72952e-05
5.73381e-05
5.7289e-05
5.73778e-05
6.91858e-05
6.91772e-05
2.70809e-05
4.3665e-05
1.45052e-05
1.58551e-05
2.71706e-05
4.36598e-05
1.45056e-05
4.92545e-05
6.92822e-05
4.92393e-05
6.92828e-05
2.69655e-05
1.44999e-05
4.36375e-05
1.58631e-05
2.68956e-05
1.45001e-05
4.36361e-05
4.91998e-05
6.92892e-05
6.92871e-05
4.91283e-05
2.70178e-05
1.58565e-05
4.36569e-05
1.45078e-05
4.36651e-05
1.4507e-05
2.698e-05
4.92571e-05
6.92834e-05
6.92837e-05
4.91949e-05
2.69523e-05
1.5864e-05
1.4502e-05
4.36392e-05
1.4501e-05
4.36432e-05
2.69652e-05
4.91815e-05
6.92787e-05
4.92025e-05
6.92787e-05
2.7318e-05
1.45116e-05
4.36532e-05
1.58619e-05
2.73185e-05
1.45118e-05
4.36536e-05
4.92599e-05
6.92854e-05
4.92154e-05
6.92869e-05
2.73202e-05
1.58593e-05
4.36381e-05
1.45104e-05
4.36452e-05
1.45101e-05
2.73123e-05
4.92784e-05
6.92815e-05
6.92775e-05
4.9255e-05
2.73261e-05
1.58626e-05
1.45132e-05
4.36606e-05
1.45127e-05
4.36614e-05
2.73214e-05
4.92867e-05
6.92897e-05
6.92868e-05
4.93019e-05
5.73256e-05
5.7241e-05
1.77195e-05
5.73548e-05
5.72885e-05
6.91649e-05
6.91785e-05
6.92238e-05
6.92117e-05
1.77382e-05
5.73595e-05
5.72951e-05
5.73645e-05
5.72947e-05
6.91833e-05
6.91725e-05
2.71103e-05
1.45059e-05
4.36243e-05
1.58619e-05
2.71027e-05
1.45062e-05
4.36194e-05
4.90717e-05
6.92727e-05
4.9051e-05
6.92733e-05
4.91007e-05
6.92751e-05
4.90834e-05
6.92598e-05
2.71883e-05
1.5839e-05
1.45021e-05
4.36378e-05
1.45014e-05
4.36402e-05
2.71968e-05
2.71232e-05
1.58625e-05
1.45071e-05
4.36229e-05
1.45065e-05
4.36257e-05
2.71238e-05
4.91194e-05
6.92735e-05
6.92726e-05
4.9222e-05
4.91026e-05
6.92449e-05
6.92509e-05
4.91395e-05
6.91833e-05
6.91931e-05
6.91772e-05
6.91831e-05
1.77553e-05
5.73646e-05
5.73333e-05
5.73667e-05
5.72814e-05
6.91943e-05
6.91857e-05
6.91841e-05
6.91749e-05
6.91666e-05
6.91792e-05
6.91769e-05
6.91822e-05
5.72927e-05
5.72801e-05
1.77041e-05
5.73186e-05
5.72436e-05
6.91812e-05
6.91727e-05
6.91831e-05
6.9175e-05
1.77268e-05
5.72877e-05
5.72483e-05
5.73291e-05
5.72848e-05
4.92724e-05
6.92869e-05
4.92557e-05
6.92908e-05
2.72941e-05
4.36044e-05
1.45098e-05
1.58379e-05
2.72932e-05
4.36019e-05
1.45102e-05
2.72343e-05
4.36478e-05
1.45115e-05
1.58608e-05
2.71473e-05
4.36448e-05
1.45117e-05
4.92582e-05
6.92773e-05
6.92682e-05
4.92737e-05
4.92248e-05
6.92925e-05
6.92904e-05
4.92253e-05
2.73042e-05
1.58395e-05
4.36045e-05
1.45114e-05
4.36094e-05
1.45107e-05
2.73013e-05
2.72661e-05
1.58615e-05
4.36468e-05
1.45135e-05
4.36515e-05
1.45128e-05
2.72778e-05
5.7278e-05
5.73508e-05
1.77379e-05
5.7293e-05
5.73447e-05
6.91784e-05
6.91877e-05
6.9179e-05
6.91733e-05
1.7757e-05
5.72621e-05
5.73154e-05
5.72682e-05
5.73408e-05
6.91831e-05
6.91787e-05
2.70267e-05
4.36632e-05
1.45077e-05
1.58604e-05
2.7068e-05
4.36563e-05
1.45081e-05
4.92388e-05
6.92842e-05
4.9214e-05
6.92902e-05
2.71138e-05
1.45023e-05
4.36466e-05
1.58668e-05
2.70608e-05
1.45028e-05
4.36385e-05
4.91478e-05
6.9289e-05
6.92868e-05
4.91306e-05
2.7079e-05
1.58609e-05
4.36578e-05
1.45092e-05
4.36634e-05
1.45086e-05
2.70019e-05
4.91997e-05
6.9294e-05
6.92909e-05
4.926e-05
2.7129e-05
1.58675e-05
1.4504e-05
4.36331e-05
1.45035e-05
4.36439e-05
2.71319e-05
4.92196e-05
6.92819e-05
4.92345e-05
6.92846e-05
2.73216e-05
1.45134e-05
4.36686e-05
1.58659e-05
2.73296e-05
1.45133e-05
4.36626e-05
4.92189e-05
6.92886e-05
4.93066e-05
6.92887e-05
2.73131e-05
1.58607e-05
4.36371e-05
1.45108e-05
4.36459e-05
1.45108e-05
2.72885e-05
4.91357e-05
6.9286e-05
6.92835e-05
4.91116e-05
2.73286e-05
1.58664e-05
1.45143e-05
4.36591e-05
1.45141e-05
4.36682e-05
2.73259e-05
4.91873e-05
6.92867e-05
6.9287e-05
4.91903e-05
5.74009e-05
5.72974e-05
1.77226e-05
5.73761e-05
5.723e-05
6.91758e-05
6.91802e-05
6.92278e-05
6.92188e-05
1.77489e-05
5.738e-05
5.72609e-05
5.73641e-05
5.72579e-05
6.91758e-05
6.91714e-05
2.7136e-05
1.45071e-05
4.36307e-05
1.58651e-05
2.7137e-05
1.45071e-05
4.36281e-05
4.92261e-05
6.92754e-05
4.92468e-05
6.92791e-05
4.9153e-05
6.92426e-05
4.91723e-05
6.92422e-05
2.72247e-05
1.58472e-05
1.45036e-05
4.36414e-05
1.4503e-05
4.36469e-05
2.72189e-05
2.71199e-05
1.58654e-05
1.45076e-05
4.36339e-05
1.45073e-05
4.36357e-05
2.71294e-05
4.92491e-05
6.92864e-05
6.92787e-05
4.91275e-05
4.91127e-05
6.92433e-05
6.92411e-05
4.91315e-05
6.91868e-05
6.9191e-05
6.91768e-05
6.91849e-05
1.77747e-05
5.72906e-05
5.73225e-05
5.73381e-05
5.7319e-05
6.91853e-05
6.91816e-05
6.91863e-05
6.91773e-05
6.91725e-05
6.9176e-05
6.91753e-05
6.91816e-05
5.72835e-05
5.72765e-05
1.77054e-05
5.72368e-05
5.72505e-05
6.91717e-05
6.91666e-05
6.91792e-05
6.9173e-05
1.77342e-05
5.72487e-05
5.72252e-05
5.72472e-05
5.72677e-05
4.91484e-05
6.92914e-05
4.9231e-05
6.92922e-05
2.73009e-05
4.36085e-05
1.45115e-05
1.58439e-05
2.73096e-05
4.35935e-05
1.45116e-05
2.72805e-05
4.36538e-05
1.45134e-05
1.58617e-05
2.72877e-05
4.36492e-05
1.45136e-05
4.92685e-05
6.92605e-05
6.92673e-05
4.92685e-05
4.9194e-05
6.92919e-05
6.92909e-05
4.91848e-05
2.73079e-05
1.58452e-05
4.35851e-05
1.45121e-05
4.35972e-05
1.4512e-05
2.72951e-05
2.72877e-05
1.58613e-05
4.36473e-05
1.45139e-05
4.36552e-05
1.45138e-05
2.72772e-05
5.72897e-05
5.73061e-05
1.77187e-05
5.72873e-05
5.73203e-05
6.91737e-05
6.91806e-05
6.918e-05
6.91703e-05
1.77359e-05
5.73299e-05
5.73436e-05
5.72782e-05
5.73172e-05
6.91811e-05
6.91724e-05
2.70278e-05
4.36644e-05
1.45095e-05
1.58623e-05
2.70271e-05
4.36568e-05
1.45095e-05
4.92164e-05
6.92929e-05
4.9261e-05
6.92926e-05
2.71354e-05
1.45044e-05
4.36381e-05
1.58702e-05
2.71416e-05
1.45047e-05
4.3627e-05
4.92572e-05
6.92977e-05
6.92942e-05
4.92138e-05
2.70415e-05
1.58625e-05
4.36544e-05
1.45106e-05
4.36626e-05
1.451e-05
2.70248e-05
4.92962e-05
6.92901e-05
6.92893e-05
4.9296e-05
2.71444e-05
1.58705e-05
1.45059e-05
4.3622e-05
1.45051e-05
4.36323e-05
2.71403e-05
4.91563e-05
6.92851e-05
4.91475e-05
6.92871e-05
2.73459e-05
1.45143e-05
4.36638e-05
1.58683e-05
2.73383e-05
1.45142e-05
4.36536e-05
4.91541e-05
6.92854e-05
4.91742e-05
6.92856e-05
2.72779e-05
1.58617e-05
4.36335e-05
1.45108e-05
4.36406e-05
1.45107e-05
2.72626e-05
4.90892e-05
6.92887e-05
6.92866e-05
4.91394e-05
2.73601e-05
1.58684e-05
1.45152e-05
4.36486e-05
1.45149e-05
4.36589e-05
2.7359e-05
4.92379e-05
6.92842e-05
6.92839e-05
4.91776e-05
5.73819e-05
5.72638e-05
1.77427e-05
5.73756e-05
5.72533e-05
6.91666e-05
6.91715e-05
6.92306e-05
6.92212e-05
1.77613e-05
5.73714e-05
5.72573e-05
5.73813e-05
5.72401e-05
6.9173e-05
6.91631e-05
2.71987e-05
1.45077e-05
4.36417e-05
1.58646e-05
2.71348e-05
1.45073e-05
4.36404e-05
4.91182e-05
6.92862e-05
4.91497e-05
6.92882e-05
4.91301e-05
6.92431e-05
4.91454e-05
6.92445e-05
2.7226e-05
1.5855e-05
1.45048e-05
4.36391e-05
1.45045e-05
4.36454e-05
2.72147e-05
2.72218e-05
1.58637e-05
1.45076e-05
4.3648e-05
1.45078e-05
4.36484e-05
2.72251e-05
4.91487e-05
6.92881e-05
6.9287e-05
4.9135e-05
4.91218e-05
6.92502e-05
6.92458e-05
4.91418e-05
6.91754e-05
6.91789e-05
6.91788e-05
6.91884e-05
1.77517e-05
5.72495e-05
5.73457e-05
5.72955e-05
5.73289e-05
6.91739e-05
6.91702e-05
6.91918e-05
6.91812e-05
6.91634e-05
6.91716e-05
6.91717e-05
6.91818e-05
5.72536e-05
5.72515e-05
1.77312e-05
5.72665e-05
5.7257e-05
6.917e-05
6.91634e-05
6.91818e-05
6.91741e-05
1.77456e-05
5.72427e-05
5.72558e-05
5.7236e-05
5.72548e-05
4.9189e-05
6.92905e-05
4.91983e-05
6.92903e-05
2.72874e-05
4.35902e-05
1.45121e-05
1.58491e-05
2.73003e-05
4.35816e-05
1.45122e-05
2.72674e-05
4.36529e-05
1.45139e-05
1.58595e-05
2.72824e-05
4.36426e-05
1.45136e-05
4.92672e-05
6.9254e-05
6.92538e-05
4.92256e-05
4.92567e-05
6.92868e-05
6.92883e-05
4.92954e-05
2.72944e-05
1.585e-05
4.35769e-05
1.45123e-05
4.3587e-05
1.45123e-05
2.72843e-05
2.72732e-05
1.58588e-05
4.36392e-05
1.45133e-05
4.36477e-05
1.45135e-05
2.72603e-05
5.73391e-05
5.73515e-05
1.7697e-05
5.73168e-05
5.73552e-05
6.91728e-05
6.91809e-05
6.9186e-05
6.9174e-05
1.77091e-05
5.73212e-05
5.73257e-05
5.73185e-05
5.7358e-05
6.91813e-05
6.91727e-05
2.71133e-05
4.3661e-05
1.4511e-05
1.5863e-05
2.70866e-05
4.36561e-05
1.45112e-05
4.92684e-05
6.92879e-05
4.93002e-05
6.92948e-05
2.71435e-05
1.45061e-05
4.36276e-05
1.58714e-05
2.71503e-05
1.45064e-05
4.36189e-05
4.92137e-05
6.93028e-05
6.92997e-05
4.91585e-05
2.71271e-05
1.58627e-05
4.36577e-05
1.45128e-05
4.3663e-05
1.4512e-05
2.71235e-05
4.9268e-05
6.92952e-05
6.9294e-05
4.90925e-05
2.7149e-05
1.58714e-05
1.45072e-05
4.36148e-05
1.45068e-05
4.3625e-05
2.7127e-05
4.90954e-05
6.92875e-05
4.91436e-05
6.92889e-05
2.73601e-05
1.45151e-05
4.3654e-05
1.58689e-05
2.73673e-05
1.45152e-05
4.36458e-05
4.92168e-05
6.92833e-05
4.92114e-05
6.92855e-05
2.72696e-05
1.58624e-05
4.36245e-05
1.45107e-05
4.3638e-05
1.45106e-05
2.72692e-05
4.91344e-05
6.92895e-05
6.92881e-05
4.92302e-05
2.73693e-05
1.58689e-05
1.45159e-05
4.36439e-05
1.45156e-05
4.36514e-05
2.73662e-05
4.92317e-05
6.92884e-05
6.92852e-05
4.91739e-05
5.73697e-05
5.72703e-05
1.77482e-05
5.73928e-05
5.72969e-05
6.91667e-05
6.91805e-05
6.92321e-05
6.92253e-05
1.77705e-05
5.73576e-05
5.73037e-05
5.74121e-05
5.73125e-05
6.91869e-05
6.91746e-05
2.72239e-05
1.45072e-05
4.36567e-05
1.58604e-05
2.72323e-05
1.45066e-05
4.36562e-05
4.91596e-05
6.92873e-05
4.91666e-05
6.92896e-05
4.91626e-05
6.92534e-05
4.90969e-05
6.92577e-05
2.7228e-05
1.58622e-05
1.45056e-05
4.36466e-05
1.45055e-05
4.36502e-05
2.72271e-05
2.72327e-05
1.5859e-05
1.45065e-05
4.3662e-05
1.45068e-05
4.36644e-05
2.72282e-05
4.92347e-05
6.92901e-05
6.92888e-05
4.92695e-05
4.91725e-05
6.92614e-05
6.92557e-05
4.92606e-05
6.91653e-05
6.91725e-05
6.91851e-05
6.91955e-05
1.77397e-05
5.72793e-05
5.73558e-05
5.72777e-05
5.73838e-05
6.91726e-05
6.91641e-05
6.91976e-05
6.91884e-05
6.91618e-05
6.91702e-05
6.91735e-05
6.91792e-05
5.72473e-05
5.72606e-05
1.7701e-05
5.72386e-05
5.72526e-05
6.91739e-05
6.91629e-05
6.91752e-05
6.91698e-05
1.77178e-05
5.72668e-05
5.72367e-05
5.72402e-05
5.72561e-05
4.92539e-05
6.92847e-05
4.93067e-05
6.92842e-05
2.72761e-05
4.35818e-05
1.45124e-05
1.58524e-05
2.72904e-05
4.35713e-05
1.45123e-05
2.72476e-05
4.36456e-05
1.45131e-05
1.58585e-05
2.72659e-05
4.36402e-05
1.4512e-05
4.92202e-05
6.92543e-05
6.92512e-05
4.92031e-05
4.93082e-05
6.92854e-05
6.9283e-05
4.92067e-05
2.72811e-05
1.58526e-05
4.35649e-05
1.45124e-05
4.35756e-05
1.45124e-05
2.72626e-05
2.72519e-05
1.58587e-05
4.36425e-05
1.45116e-05
4.36472e-05
1.45122e-05
2.72286e-05
5.73292e-05
5.73396e-05
1.7714e-05