/*--------------------------------*- C++ -*----------------------------------*\
| =========                 |                                                 |
| \\      /  F ield         | OpenFOAM: The Open Source CFD Toolbox           |
|  \\    /   O peration     | Version:  v1906                                 |
|   \\  /    A nd           | Web:      www.OpenFOAM.com                      |
|    \\/     M anipulation  |                                                 |
\*---------------------------------------------------------------------------*/
FoamFile
{
    version     2.0;
    format      ascii;
    class       surfaceScalarField;
    location    "900";
    object      phi;
}
// * * * * * * * * * * * * * * * * * * * * * * * * * * * * * * * * * * * * * //

dimensions      [0 3 -1 0 0 0 0];
oriented        oriented;


internalField   nonuniform List<scalar> 
124860
(
-1.2563e-06
-1.24619e-06
-0.000269536
2.65016e-07
1.9994e-07
1.80178e-07
8.45089e-08
-1.29971e-06
2.49318e-07
-2.95135e-07
-9.36993e-07
2.04981e-07
-2.93559e-07
8.77822e-07
-0.00113979
1.26965e-06
2.19327e-07
-0.00114023
7.83914e-08
-1.30003e-06
2.65777e-07
-2.89972e-07
-9.34706e-07
2.35362e-07
-2.83036e-07
8.8592e-07
-1.23005e-06
-0.000269555
2.31212e-07
2.36115e-07
2.29738e-07
1.10698e-07
-1.2496e-06
2.76958e-07
-2.76045e-07
-9.23962e-07
2.65625e-07
-2.66756e-07
8.88579e-07
-0.00114087
1.26419e-06
2.24752e-07
7.26824e-08
-1.29448e-06
2.65866e-07
-2.89895e-07
-9.31897e-07
2.35391e-07
-2.82865e-07
8.83097e-07
-0.00113989
2.19407e-07
-0.00114063
7.76836e-08
-1.2602e-06
2.57617e-07
-2.81476e-07
-9.2918e-07
2.3263e-07
-2.80141e-07
8.80401e-07
1.25876e-06
2.24617e-07
-0.00113968
7.81702e-08
-1.28895e-06
2.60253e-07
-2.84231e-07
-9.31786e-07
2.32658e-07
-2.82807e-07
8.83092e-07
-1.22453e-06
-0.000269514
2.31112e-07
2.36123e-07
2.1923e-07
8.86536e-08
-1.25464e-06
2.57668e-07
-2.81451e-07
-9.28941e-07
2.35437e-07
-2.82839e-07
8.80295e-07
-0.00114027
1.22193e-06
2.19069e-07
-0.0011408
8.32322e-08
-1.25748e-06
2.5774e-07
-2.84317e-07
-9.29147e-07
2.35518e-07
-2.82839e-07
8.80545e-07
-0.00026953
2.31004e-07
2.36322e-07
1.88698e-07
2.18747e-07
-0.00119084
-0.00119085
1.89062e-07
1.89305e-07
1.82841e-07
2.12644e-07
-0.00119045
-0.00119066
1.88645e-07
2.00799e-07
-2.15132e-08
-5.79716e-09
-9.70804e-05
-2.38237e-08
-5.82812e-09
-9.70821e-05
-1.76248e-08
-9.37799e-09
-0.000276412
8.23916e-09
-2.20382e-08
-7.18138e-08
-0.000276391
1.12648e-08
1.41891e-10
6.17653e-08
-2.5975e-08
3.29827e-10
0.000228353
-0.000228389
-3.51509e-08
-0.000192043
3.92572e-09
-1.19848e-10
-5.4274e-08
-0.00022834
2.82495e-08
2.52597e-09
6.18037e-08
-2.6003e-08
4.7114e-10
0.000228389
-0.000228425
-3.52212e-08
5.72333e-09
-0.000192082
1.60834e-09
4.14763e-08
-7.90251e-09
-6.36842e-09
0.000192081
-0.000192108
-5.42947e-08
-0.000228377
2.82597e-08
2.54509e-09
1.51009e-09
-1.71265e-09
2.003e-07
0.000250187
-0.000250325
-7.45955e-08
-0.000244407
-1.13984e-08
-0.00116202
-3.30775e-09
3.30138e-07
-1.04002e-06
7.8357e-07
-8.64544e-07
9.62039e-07
4.02168e-09
3.42852e-07
9.61111e-07
-8.63842e-07
-1.03937e-06
7.82563e-07
-0.00116212
-8.1419e-08
-1.39903e-09
-0.00025016
1.75423e-09
-1.59496e-07
-1.99944e-09
2.00358e-07
0.000250218
-0.000250353
8.12599e-08
-1.30142e-06
2.25339e-07
8.85281e-07
-2.8447e-07
-9.36376e-07
2.34556e-07
1.26928e-06
-2.91097e-07
2.65335e-07
-0.00114038
1.97647e-08
-8.6878e-08
-0.000244423
-1.37128e-08
-0.00116217
3.36052e-07
-1.03771e-06
7.8363e-07
-8.61971e-07
9.64964e-07
-2.22185e-08
1.28274e-08
1.08249e-07
0.000244434
-0.000244492
3.42904e-07
9.63991e-07
-8.63963e-07
-1.03951e-06
7.82643e-07
-0.00116228
-0.000250191
2.43547e-09
-1.62106e-07
-2.15766e-08
-9.70849e-05
1.63653e-08
9.70817e-05
-9.7106e-05
1.26158e-06
0.000269593
-2.43619e-07
-2.48672e-07
-0.000271664
-4.16356e-08
-0.000276366
1.0909e-08
2.37352e-08
-1.74205e-08
-4.14414e-08
-0.000276472
1.11014e-08
-1.52137e-08
4.2024e-08
0.00027637
-0.000276403
-1.86436e-08
1.96617e-08
-1.51104e-08
4.19155e-08
0.000276475
-0.000276503
-5.78726e-09
-9.70876e-05
7.8639e-09
9.70844e-05
-9.71109e-05
-3.7476e-08
-0.000192069
1.73439e-09
-5.43666e-08
-1.56602e-10
-0.000228368
2.44954e-09
2.62019e-08
-9.68067e-08
-0.000244432
-1.60523e-08
8.1409e-10
3.35422e-07
-1.03213e-06
7.80886e-07
-8.56441e-07
9.62024e-07
-0.00116191
-1.67321e-09
-0.000250174
1.91566e-09
-1.64731e-07
-3.73518e-08
5.7827e-09
-0.000192015
1.62584e-09
-5.43634e-08
-0.00022833
2.61789e-08
2.44589e-09
3.41558e-07
-1.03484e-06
7.80939e-07
-8.56469e-07
9.62168e-07
-0.00116188
1.98129e-08
-8.20427e-08
-0.000244359
-1.60985e-08
-0.00025015
-1.62135e-07
2.18028e-09
-6.18569e-08
1.56744e-09
-1.37731e-09
1.97777e-07
0.000250214
-0.00025035
8.05014e-08
2.31096e-07
1.22966e-06
-2.82603e-07
2.57167e-07
8.79806e-07
-2.81648e-07
-9.30833e-07
2.31829e-07
-0.00114078
3.73438e-08
-8.68004e-08
-0.000244466
-1.37235e-08
-0.00116195
-3.93495e-09
3.359e-07
-1.03487e-06
7.80747e-07
-8.59143e-07
9.61898e-07
-4.35648e-08
1.27152e-08
1.08104e-07
0.000244478
-0.000244535
3.50891e-09
3.48621e-07
9.61028e-07
-8.61182e-07
-1.03674e-06
7.79707e-07
-0.00116207
5.42262e-08
-1.67955e-09
-0.000250186
1.48537e-09
-1.62023e-07
9.54311e-11
5.55204e-10
-2.60301e-08
0.000228386
-0.000228422
-0.000192078
1.66344e-09
-6.44836e-09
0.000192078
-0.000192107
-1.92975e-10
-0.000228373
2.31644e-09
2.82179e-08
-6.18317e-08
1.95177e-07
-2.28354e-09
0.00025019
-0.00025032
8.10055e-08
-1.2904e-06
2.30659e-07
8.82491e-07
-2.84305e-07
-9.33447e-07
2.34578e-07
1.25841e-06
-2.85396e-07
2.59774e-07
-0.00113984
-0.00116189
3.35777e-07
-1.03481e-06
7.8084e-07
-8.59163e-07
9.62029e-07
3.52047e-08
1.98044e-08
-8.44811e-08
-0.000244402
-1.37266e-08
3.48517e-07
9.61097e-07
-8.61204e-07
-1.0366e-06
7.79788e-07
-0.00116199
-4.13584e-08
-2.22519e-08
1.29082e-08
1.05705e-07
0.000244414
-0.000244469
5.42158e-08
-0.000250162
-1.59455e-07
2.15647e-09
-2.59967e-08
1.49837e-10
0.00022835
-0.000228386
5.70774e-09
-0.000192027
1.66451e-09
-7.93513e-09
-6.24443e-09
0.000192026
-0.000192053
-0.000228338
2.82087e-08
2.4965e-09
-2.37948e-08
-9.70667e-05
-4.15257e-08
-0.000276335
8.02774e-09
2.15368e-08
-1.98771e-08
-4.39061e-08
-0.00027643
1.04943e-08
-5.74184e-09
-9.70767e-05
1.16829e-09
-6.43837e-08
2.00383e-07
-1.71981e-09
0.000250176
-0.000250312
-0.00116161
-9.68442e-09
3.35347e-07
-1.03193e-06
7.75211e-07
-8.56406e-07
9.56414e-07
3.52447e-08
-8.69396e-08
-0.000244409
-1.37693e-08
-1.11452e-08
3.42319e-07
9.58112e-07
-8.55638e-07
-1.03105e-06
7.76987e-07
-0.0011617
-9.15183e-08
-1.43283e-09
5.67167e-08
-0.000250149
-1.64574e-07
1.98456e-09
-6.4366e-08
2.00387e-07
-2.92355e-09
0.000250208
-0.00025034
8.04733e-08
-1.25621e-06
2.25078e-07
8.79927e-07
-2.8427e-07
-9.30795e-07
2.34674e-07
1.2243e-06
-2.82729e-07
2.57266e-07
-0.00114095
-0.00116177
3.35294e-07
-1.02914e-06
7.75289e-07
-8.53678e-07
9.56435e-07
3.52349e-08
1.99202e-08
-8.6955e-08
-0.000244417
-1.37845e-08
3.42163e-07
9.55492e-07
-8.55717e-07
-1.03121e-06
7.7429e-07
-0.00116188
-4.13547e-08
-2.22904e-08
1.29422e-08
1.08091e-07
0.000244429
-0.000244486
5.66855e-08
-0.00025018
-1.64592e-07
2.62023e-09
1.50977e-10
2.26119e-10
-2.39995e-08
0.000228341
-0.000228381
-0.000192032
1.65263e-09
-2.11221e-10
-0.000228328
2.54329e-09
2.61784e-08
3.36474e-10
-2.3996e-08
0.000228377
-0.000228417
5.81419e-09
-0.000192068
1.53819e-09
-7.99296e-09
-6.1606e-09
0.000192067
-0.000192094
-0.000228364
2.37522e-09
2.61605e-08
0.00026957
-2.43396e-07
-2.48758e-07
-0.000271625
2.15576e-08
-4.38864e-08
-0.000276424
7.87411e-09
2.14859e-08
-4.16023e-08
-0.000276372
8.49791e-09
-1.63112e-08
-1.21314e-08
4.42177e-08
0.000276427
-0.000276465
-1.62619e-08
-1.26558e-08
4.19093e-08
0.000276375
-0.00027641
-9.70758e-05
9.70726e-05
-9.70969e-05
-9.70802e-05
9.7077e-05
-9.71013e-05
1.84485e-08
7.97276e-09
-9.71068e-05
1.60844e-08
8.01782e-09
-9.71062e-05
-3.01633e-08
4.78308e-08
0.000220929
-3.06833e-08
6.19644e-08
-0.000220978
-0.000250162
-1.8151e-08
4.16416e-08
-2.4829e-08
-1.68221e-08
4.84085e-08
2.43042e-08
-0.000276449
-0.000181688
-1.05996e-08
9.36775e-09
-1.48249e-08
-0.00018172
1.21161e-07
6.14505e-08
-0.000250248
-3.64413e-08
-9.68462e-09
-2.116e-08
2.10356e-08
0.000220896
-1.43896e-08
3.86445e-08
-0.00022092
-0.000250109
7.13826e-08
-2.23489e-07
-4.76168e-08
-1.08836e-08
3.21875e-08
1.98227e-08
-0.000276416
-0.000181656
-4.9045e-08
1.73852e-08
-1.31175e-08
-0.000181675
6.33084e-08
4.85792e-08
-0.000250167
8.14208e-08
-1.04349e-07
-1.07862e-08
-1.06877e-08
0.000212361
-0.000212385
-7.98913e-05
-1.41472e-08
-7.98814e-05
-1.08954e-08
-7.99169e-05
-7.99052e-05
-0.00014209
-8.35162e-10
-2.66928e-08
0.000142115
2.18667e-09
1.44298e-09
0.00016966
-8.61334e-12
-0.000169687
-2.68946e-08
0.000222144
6.16191e-08
-0.000222178
-3.31632e-10
2.81226e-08
2.54379e-09
0.000228376
5.25655e-11
-5.39083e-08
-0.000142115
-1.00529e-09
0.000169687
5.83247e-12
0.000222169
-5.38139e-08
4.61532e-09
2.60085e-08
7.84791e-05
1.01952e-09
-7.85062e-05
-6.15381e-09
4.31338e-08
-0.000192072
-0.000261306
2.70169e-08
-4.61544e-09
-5.31051e-08
3.99639e-10
5.41639e-08
-0.000261341
-2.14773e-09
-1.41719e-09
2.66216e-08
0.000142091
-2.56976e-08
5.9323e-11
5.87011e-12
6.11093e-08
-0.00016966
8.01477e-10
-4.81892e-12
-0.000222133
2.68075e-08
-5.65685e-08
-1.40527e-11
6.33621e-08
-0.00014216
-8.27554e-10
-2.47579e-08
1.97107e-09
0.000142184
1.3736e-09
0.000169694
-0.000169722
-2.48958e-08
0.000222228
-3.96362e-10
6.41468e-08
-0.000222267
2.81372e-08
2.55764e-09
0.000228412
-5.3926e-08
-8.32536e-10
-0.000142183
0.000169721
4.58559e-09
0.000222258
-5.63744e-08
2.38804e-08
7.85236e-05
-7.85483e-05
8.59194e-10
-6.22379e-09
-0.000192109
-7.92982e-09
4.1065e-08
-0.000261418
2.4941e-08
-4.56121e-09
-5.31291e-08
-0.000261455
4.21517e-10
5.43318e-08
-1.93487e-09
-7.85215e-05
-2.48783e-08
-2.40618e-08
0.000261421
5.47978e-08
-0.000261459
1.4981e-09
5.78115e-09
-3.49978e-08
-7.85464e-05
-5.28978e-08
-1.35607e-09
2.46666e-08
0.000142161
-2.57333e-08
2.37117e-10
6.11518e-08
-0.000169694
7.96757e-10
-0.00022222
2.48654e-08
-5.67246e-08
6.35702e-08
-9.7109e-05
1.61653e-08
-2.14921e-08
-0.00021237
1.25533e-08
1.24313e-08
-2.33883e-08
-2.14094e-08
0.00021239
1.08104e-08
7.98811e-05
1.32149e-08
-7.99051e-05
1.09061e-08
7.98946e-05
1.31196e-08
-7.99186e-05
2.2919e-08
2.06717e-08
-0.000212392
-1.24621e-08
7.99061e-05
-1.25792e-08
7.99196e-05
3.56925e-08
-2.55472e-08
0.000220882
-0.000220921
-2.26508e-08
5.15859e-08
-0.000250077
2.78686e-08
-9.10916e-08
-3.74149e-08
4.15185e-08
-1.52097e-08
-0.000276399
2.20842e-08
-0.00018165
-2.97023e-08
1.24476e-08
-0.000250153
9.59636e-08
5.63704e-08
-0.000181678
-1.31591e-08
2.35279e-08
-5.68866e-08
-2.55868e-08
3.55e-08
0.000220953
-0.000220997
-2.03961e-08
5.38052e-08
-0.000250231
2.80102e-08
-9.0935e-08
-3.24812e-08
-1.51022e-08
4.13957e-08
-0.000276499
-1.84337e-08
1.95145e-08
-0.000181702
-2.96107e-08
1.2552e-08
-0.00018173
-1.30672e-08
-0.000250301
9.59416e-08
5.10844e-08
2.15472e-08
-5.88866e-08
-2.76074e-08
-0.00022089
2.95389e-08
-5.66332e-08
2.58963e-08
0.00018165
-0.000181677
0.000250094
-3.60556e-08
5.68269e-08
9.67971e-08
-0.000250169
-4.13658e-08
1.09587e-08
-1.97402e-08
-3.70643e-08
-9.06514e-08
5.22043e-08
-0.000220929
-0.000220961
2.94508e-08
-2.77577e-08
-5.86366e-08
2.59342e-08
0.000181702
-0.00018173
-3.5874e-08
0.000250247
9.67747e-08
5.15541e-08
-0.000250318
1.11513e-08
-4.1165e-08
2.3646e-08
-1.74146e-08
5.44222e-08
-0.000221005
-9.0487e-08
-3.21501e-08
-1.07047e-08
-1.0795e-08
0.000212368
-7.98823e-05
-1.25883e-08
-7.98958e-05
-1.24777e-08
-9.71139e-05
7.89566e-09
-5.84774e-09
2.37667e-08
7.85245e-05
9.35194e-10
-7.85492e-05
-6.07063e-09
4.09546e-08
-0.000192096
-0.000261423
2.49761e-08
-4.42363e-09
-5.08014e-08
4.95906e-10
5.1921e-08
-0.000261457
-1.87263e-09
2.46605e-08
-1.3045e-09
0.00014216
-0.000142182
1.70238e-10
-2.36764e-08
1.45085e-10
6.12339e-08
-0.000228406
-0.00022222
2.48531e-08
-5.43011e-08
-0.000169692
7.42691e-10
-9.27283e-12
6.11906e-08
-0.000222256
9.91839e-11
-0.000169717
2.60511e-08
7.84772e-05
9.9049e-10
-7.85042e-05
-6.25491e-09
-7.93791e-09
4.31153e-08
-0.000192044
-0.000261301
2.71107e-08
-4.47913e-09
-5.06373e-08
2.21358e-10
5.1875e-08
-0.000261334
-2.09156e-09
-1.49881e-09
2.66905e-08
0.000142087
-0.000142111
-2.36759e-08
4.69569e-10
6.12221e-08
-0.000228368
-0.000169657
7.3811e-10
-0.000222126
2.68531e-08
-5.423e-08
-0.000169682
6.1078e-08
-0.000222159
-0.00014216
-2.4752e-08
-8.10044e-10
1.95055e-09
0.000142184
-2.49441e-08
0.000222232
-3.35612e-10
6.4247e-08
-0.000222271
1.42287e-09
0.00016969
-5.20904e-11
-0.000169717
2.54975e-09
2.80991e-08
0.000228409
-4.99452e-11
-5.38578e-08
-8.26747e-10
-0.000142183
4.56438e-09
0.000222262
-5.63572e-08
0.000169717
-1.34776e-11
2.38883e-08
7.85263e-05
-7.85511e-05
8.51535e-10
-6.28796e-09
-0.000192107
4.31301e-08
-0.000261434
2.49618e-08
-4.53019e-09
-5.31033e-08
-0.000261471
3.67979e-10
5.43491e-08
-1.90892e-09
-7.85242e-05
-2.49021e-08
-2.4075e-08
0.000261437
5.48149e-08
-0.000261475
1.54009e-09
-3.71208e-08
-7.85491e-05
-5.28969e-08
2.47016e-08
-1.3952e-09
0.000142162
3.14206e-10
-2.57549e-08
-4.74831e-11
6.1183e-08
-0.000222224
2.48534e-08
-5.66786e-08
-0.00016969
7.74269e-10
-1.82801e-11
6.36417e-08
-4.8957e-11
-0.00014209
-7.92892e-10
-2.47273e-08
1.93676e-09
0.000142113
1.32974e-09
0.000169656
-0.000169683
-2.48632e-08
0.00022214
-5.09713e-10
6.41074e-08
-0.000222179
2.80847e-08
2.72177e-09
0.000228373
-5.38348e-08
-8.76306e-10
-0.000142112
0.000169683
4.51708e-09
0.00022217
-5.63049e-08
2.38043e-08
7.84825e-05
-7.85072e-05
9.00146e-10
-6.10219e-09
-0.000192054
-7.95396e-09
4.09253e-08
-0.000261311
2.49353e-08
-4.49813e-09
-5.30913e-08
-0.000261348
5.24445e-10
5.42498e-08
-1.90338e-09
-7.84804e-05
-2.48782e-08
-2.39861e-08
0.000261314
5.47165e-08
-0.000261351
1.54686e-09
5.76545e-09
-3.49776e-08
-7.85052e-05
-5.28762e-08
-1.31485e-09
2.46394e-08
0.000142091
-2.57228e-08
-7.17178e-11
6.11566e-08
-0.000169656
7.65799e-10
-0.000222131
2.48364e-08
-5.66404e-08
6.35312e-08
1.8389e-08
-9.7093e-05
3.31974e-08
-2.72317e-08
0.000220865
-2.05568e-08
5.36581e-08
-0.000220904
-0.000250043
2.55044e-08
-9.10162e-08
-3.74789e-08
4.13702e-08
-1.22317e-08
2.20328e-08
-0.000276368
-0.00018164
-3.13873e-08
1.25717e-08
9.58581e-08
5.63044e-08
-0.00025012
-1.32166e-08
-0.000181667
2.15393e-08
-5.8967e-08
-2.75494e-08
3.54786e-08
0.000220941
-2.24256e-08
4.92681e-08
-0.000220976
-0.000250193
2.79495e-08
-8.84902e-08
-3.50539e-08
-1.45571e-08
4.37787e-08
-1.61737e-08
2.20043e-08
-0.000276465
-0.000181699
-3.16287e-08
1.24775e-08
-1.30426e-08
-0.000181728
9.34307e-08
5.36675e-08
-0.000250261
2.35194e-08
-5.44121e-08
-1.06682e-08
-1.07885e-08
0.000212355
-0.000212376
-7.98765e-05
-1.24991e-08
-7.98945e-05
-1.25362e-08
-7.99004e-05
-7.99184e-05
7.90703e-09
-9.71008e-05
-0.00014209
-2.47199e-08
-8.26054e-10
1.95355e-09
0.000142114
-2.49401e-08
0.000222136
6.42161e-08
-0.000222174
-3.98967e-10
1.35406e-09
0.000169657
5.46311e-11
-0.000169683
2.78244e-09
2.60606e-08
0.000228368
-6.88925e-11
-5.63586e-08
-0.000142113
-8.89031e-10
4.56836e-09
0.000222168
-5.87337e-08
0.000169683
-4.40211e-11
2.38016e-08
7.84831e-05
-7.85078e-05
8.98781e-10
-6.1901e-09
4.09717e-08
-0.000192059
-0.00026131
2.49097e-08
-4.51324e-09
-5.07572e-08
-0.000261348
4.48621e-10
5.43214e-08
-1.92439e-09
-2.48482e-08
-7.8481e-05
-5.28932e-08
-0.000261313
-1.53086e-09
2.46808e-08
-1.33424e-09
0.000142091
-2.19002e-11
-2.3717e-08
1.02448e-11
6.37233e-08
-0.000222127
2.4848e-08
-5.66903e-08
-0.000169657
7.83362e-10
-5.29819e-11
6.60086e-08
3.96526e-11
-0.000142159
-2.67585e-08
-7.02766e-10
2.08605e-09
0.000142184
-2.69942e-08
0.000222226
-4.0855e-10
6.41371e-08
-0.000222262
1.45521e-09
0.000169691
-0.000169716
2.38572e-09
2.60421e-08
0.000228405
-5.63284e-08
-1.05506e-09
-0.000142183
4.47721e-09
0.000222253
-5.62313e-08
0.000169716
2.60361e-08
7.85231e-05
-7.85502e-05
1.07262e-09
-6.02363e-09
-0.000192095
-8.019e-09
4.09423e-08
-0.000261421
2.71518e-08
-4.45107e-09
-5.06591e-08
-0.000261453
4.01451e-10
5.18288e-08
-2.05157e-09
-7.8521e-05
-2.70862e-08
-2.62167e-08
0.000261424
5.23004e-08
-0.000261456
1.41715e-09
5.86629e-09
-3.49941e-08
-7.85483e-05
-5.04505e-08
2.67376e-08
-1.42934e-09
0.00014216
3.36718e-10
-2.3716e-08
6.36772e-08
-0.000222217
2.68774e-08
-5.65725e-08
-0.000169691
6.64015e-10
6.34744e-08
-0.000212363
1.25008e-08
1.24443e-08
-2.1276e-08
-2.34651e-08
0.000212383
1.08152e-08
7.98919e-05
1.31784e-08
-7.99159e-05
1.08316e-08
7.98807e-05
1.31907e-08
-7.99047e-05
2.06996e-08
2.27918e-08
-0.000212385
-1.24848e-08
7.99169e-05
-1.25737e-08
7.99057e-05
3.313e-08
-2.72195e-08
0.000220942
-0.000220979
-2.04281e-08
5.1323e-08
-0.000250183
2.54114e-08
-8.60752e-08
-3.49002e-08
4.36964e-08
-1.21294e-08
-0.000276461
-1.6105e-08
2.21081e-08
-0.000181697
-3.14007e-08
1.24761e-08
-0.000250253
9.33849e-08
5.37548e-08
-0.000181723
-1.31284e-08
2.14178e-08
-5.66403e-08
3.31336e-08
-2.52944e-08
0.000220881
-0.000220918
-2.25157e-08
5.15724e-08
-0.000250087
2.55533e-08
-9.09722e-08
-3.50586e-08
4.13894e-08
-1.26466e-08
-0.000276406
-1.60675e-08
2.21494e-08
-0.000181652
-2.94448e-08
1.2558e-08
-0.000250162
9.57908e-08
5.37625e-08
-0.000181677
-1.31321e-08
2.36086e-08
-5.68392e-08
-0.00022095
-2.51492e-08
3.12097e-08
-5.63714e-08
2.75712e-08
0.000181696
-0.000181723
-3.35053e-08
0.0002502
5.42127e-08
9.4229e-08
-0.00025027
-4.36041e-08
7.91759e-09
2.14729e-08
-1.97892e-08
5.19562e-08
-0.000220987
-3.45706e-08
-8.81008e-08
-0.000220889
-2.52936e-08
2.92779e-08
-5.6578e-08
2.5644e-08
0.000181652
-0.000181677
-3.35015e-08
0.000250104
5.42197e-08
9.66337e-08
-0.000250179
-4.13253e-08
8.54227e-09
2.14006e-08
-1.98838e-08
5.22008e-08
-0.000220926
-3.47094e-08
-9.0543e-08
-1.07009e-08
-1.07273e-08
0.000212362
-7.9893e-05
-1.25381e-08
-7.98819e-05
-1.24853e-08
-9.70999e-05
-9.71043e-05
1.20102e-07
9.19622e-08
0.000242592
-0.000242703
-2.37251e-07
-2.47699e-07
-0.000271601
-0.000261325
2.6048e-08
-0.000261664
1.80697e-07
-0.000261616
-0.000262032
1.09997e-07
1.07171e-07
0.000242605
-0.000242717
-2.42571e-07
-2.47622e-07
-0.000271625
-0.000261694
1.06406e-07
-0.000261339
1.03873e-07
-0.00026202
-0.000261665
1.07452e-07
1.07019e-07
0.000242578
-0.000242689
-2.42455e-07
-2.47577e-07
-0.000271573
-0.000261657
1.03947e-07
-0.0002613
1.03725e-07
-0.000261986
-0.000261629
1.07096e-07
1.07286e-07
0.000242588
-0.000242699
-2.42326e-07
-2.47685e-07
-0.000271587
-0.00026128
1.0371e-07
-0.000261703
1.03976e-07
-0.000261606
-0.000262032
-0.00121473
2.53279e-07
-2.06731e-09
2.59135e-07
4.57283e-09
-0.0012152
2.62111e-07
-1.70829e-09
-0.00121445
-1.98022e-07
0.00123679
-1.87436e-08
-1.26686e-09
-0.00123623
-2.7413e-07
-7.8881e-09
1.21815e-09
1.92424e-07
1.92662e-07
-0.00119078
-0.00121478
2.53368e-07
-0.0012153
2.59378e-07
-5.59867e-10
2.56288e-07
-0.0012145
2.62245e-07
7.12033e-10
-0.00121502
0.00123684
3.75095e-10
-0.00123634
3.07451e-10
2.76837e-07
-0.00121436
-0.00121478
2.52949e-07
-2.48803e-08
2.55746e-07
-1.21725e-07
-0.00121427
-3.04653e-07
0.00123611
-1.27664e-07
-0.00123536
-3.69789e-07
-2.59326e-08
1.91977e-07
2.10027e-07
-0.0011906
-0.00121444
2.64928e-07
-0.0012149
2.52892e-07
2.79727e-07
-0.00121418
2.5577e-07
-0.00121472
0.00123622
-0.00123582
-0.000266538
1.79397e-07
3.63462e-10
0.000267317
2.26813e-09
2.12456e-07
0.000249314
-0.000249459
-6.98328e-09
-5.29461e-09
0.00026698
4.95521e-09
-0.000267644
2.7038e-09
-1.61419e-07
0.000250292
5.23216e-12
-0.000267351
-1.85741e-08
0.000249436
6.30091e-09
0.000267604
-1.88255e-09
-3.06807e-08
-1.90718e-07
0.000264512
2.08128e-08
-0.000265249
-0.000260358
-1.08227e-08
1.12173e-07
1.50134e-08
-0.000244466
-0.000250098
-1.65107e-07
-6.35373e-09
-0.000260508
6.85292e-09
-0.000250227
-2.518e-09
-2.13719e-07
8.45614e-09
0.000266503
-3.3587e-09
1.96394e-07
1.95597e-10
-0.000249289
-1.77479e-07
-0.000266942
-2.77476e-09
-4.77805e-09
2.23608e-09
-0.000266588
1.79494e-07
1.16591e-09
2.17838e-09
0.000267369
2.12479e-07
0.000249379
-6.99321e-09
-0.000249522
-6.06658e-09
0.000267008
-0.000267661
2.654e-09
-1.61433e-07
0.000250323
-1.86094e-08
-0.000267402
6.20777e-09
0.000249498
0.000267629
-1.85841e-07
-2.83368e-08
0.000264558
-0.000265297
1.83248e-08
-0.000260372
-1.29858e-08
1.26896e-08
1.07367e-07
-0.00024448
-0.000250159
-1.67735e-07
-6.30608e-09
-0.000250284
6.89927e-09
-0.00026052
-2.42653e-09
-0.000264589
1.67295e-07
1.27261e-08
1.86852e-07
0.000250178
-0.000250304
2.86848e-08
0.000260396
-0.000260544
-1.36924e-08
-8.64301e-08
-0.000265329
-2.11334e-07
6.69662e-09
0.000266554
-2.62219e-09
1.9645e-07
-0.000249355
-1.80162e-07
-0.000266972
-1.55635e-09
-1.06079e-07
-0.000242622
-1.03545e-07
2.30776e-07
2.35679e-07
0.000261721
-1.10849e-07
-0.000262048
-1.08022e-07
0.000261366
-0.000261693
-0.000242734
-2.85908e-08
-1.83244e-07
0.000264581
2.85974e-08
-0.000265322
-0.000260401
-1.79396e-08
9.9844e-08
1.28379e-08
-0.000244484
-0.000250167
-1.72806e-07
-6.23256e-09
-0.000260548
6.98872e-09
-0.000250293
-1.00124e-08
-2.11371e-07
1.00397e-08
0.000266548
-0.00026735
-3.16777e-09
1.99061e-07
4.56484e-10
-0.000250309
-0.000249348
-1.82736e-07
-0.000266955
-8.58524e-10
-6.79781e-09
-0.000249495
4.44543e-09
-0.000267607
-1.857e-07
-3.08599e-08
0.000264492
1.56398e-08
-0.000265223
-0.000260309
-1.56669e-08
1.50663e-08
1.02367e-07
-0.000244411
-0.000250073
-1.67588e-07
-6.28031e-09
6.79887e-09
-0.000250199
-0.000260464
4.70271e-11
6.06662e-09
-2.11288e-07
0.000266485
-0.000267299
1.96473e-07
-2.25003e-09
-0.000250282
-0.00026694
-2.04139e-09
-0.000249267
-1.80114e-07
-0.000267589
-0.000249413
-0.000266591
1.81964e-07
-1.94991e-09
1.24976e-08
0.00026736
2.1512e-07
0.000249386
-9.28856e-09
-0.000249529
-6.42908e-09
0.000266995
6.3719e-09
-0.000267658
3.12974e-09
-1.61321e-07
0.000250319
-3.21283e-10
-2.87519e-08
-0.00026739
8.63714e-09
0.000249506
0.000267615
-3.70668e-09
-3.08156e-08
-1.8827e-07
0.000264593
-0.000265332
2.84474e-08
-0.000260434
-1.5746e-08
1.07179e-07
1.26022e-08
-0.000244523
-0.000250187
-1.70119e-07
-8.69503e-09
-0.000260587
-0.000250318
9.19117e-09
-1.27278e-08
-0.000264625
1.55086e-08
1.69707e-07
1.89274e-07
0.000250206
-0.000250337
3.11783e-08
0.000260458
-0.000260611
-8.63471e-08
-1.37309e-08
-0.000265364
-2.13902e-07
9.6153e-09
0.000266558
-2.97803e-09
1.96457e-07
2.17108e-10
-0.000249362
-1.82592e-07
-0.000266958
-1.28322e-09
-6.49169e-09
3.58129e-09
-0.000266529
1.6922e-09
1.79404e-07
-3.87191e-10
0.00026731
-5.84221e-09
0.000266979
-0.000267633
2.12406e-07
0.000249308
-7.05685e-09
-0.000249452
-1.58747e-07
2.59172e-09
0.000250292
-1.60246e-08
-0.000267343
0.000267599
6.16684e-09
0.000249428
-1.85712e-07
-2.83527e-08
0.000264507
-0.00026524
1.57383e-08
-0.000260353
-1.30862e-08
1.27948e-08
1.04781e-07
-0.000244457
-0.000250095
-1.67693e-07
-6.24637e-09
-0.000250221
6.96821e-09
-0.000260506
1.00909e-10
-0.000264538
1.67276e-07
1.28078e-08
1.86716e-07
0.000250114
-0.00025024
2.87151e-08
0.000260377
-0.00026053
-1.37329e-08
-8.40393e-08
-0.000265272
6.21137e-09
-2.11274e-07
0.000266496
1.93845e-07
-2.64806e-09
-0.000266943
-2.07069e-09
-0.000249284
-1.80028e-07
-0.000266528
-1.42594e-09
1.81913e-07
1.50163e-08
0.00026729
-6.19482e-09
0.000266964
2.76081e-09
-0.000267616
2.15059e-07
0.000249304
-0.000249448
-9.3983e-09
-1.61328e-07
3.17799e-09
0.000250278
-4.66894e-11
-0.000267319
-3.13051e-08
0.00026758
-1.17558e-09
8.66135e-09
0.000249422
-3.07937e-08
-1.88262e-07
0.000264521
-0.000265262
3.10176e-08
-0.000260373
-1.57127e-08
1.07236e-07
1.26956e-08
-0.000244466
-0.000250099
-1.70236e-07
-6.34842e-09
-0.000260525
-0.00025023
9.30085e-09
-1.01052e-08
1.69725e-07
-8.7963e-07
-0.000264552
1.54432e-08
-0.000250118
1.37559e-08
9.40413e-09
-2.1386e-07
0.000266494
1.9649e-07
-3.32165e-09
-1.50021e-10
-0.000266929
-1.29121e-09
-4.07214e-09
-0.00024928
-1.82651e-07
6.59602e-10
-0.000266575
-8.31141e-10
1.81847e-07
1.49907e-08
0.000267334
-8.84258e-09
0.000266994
-0.000267638
2.15025e-07
0.000249369
-9.45766e-09
-0.000249513
-1.61291e-07
2.82124e-09
0.00025031
-3.14007e-08
-0.000267368
0.000267605
8.57468e-09
0.000249489
-1.8817e-07
-2.82901e-08
0.000264567
-0.000265311
3.10854e-08
-0.000260389
-1.30778e-08
1.2791e-08
1.07211e-07
-0.000244474
-0.000250155
-1.7016e-07
-8.66646e-09
-0.000250288
9.29335e-09
-0.00026054
-1.5213e-08
-0.000264599
1.69743e-07
1.2825e-08
1.89194e-07
0.000250174
-0.000250307
2.86561e-08
0.000260413
-0.000260564
-1.37577e-08
-8.64797e-08
-0.000265343
8.93922e-09
-2.13715e-07
0.000266541
1.9646e-07
-2.87989e-09
-0.000266957
1.6115e-10
-0.000249345
-1.82508e-07
-0.000242605
-1.03368e-07
-1.03648e-07
2.30568e-07
2.35905e-07
-1.07969e-07
0.000261307
-0.000261634
-1.0815e-07
0.000261733
-0.00026206
-0.000242717
-8.38275e-07
-8.38398e-07
-0.00114599
4.41025e-07
4.46997e-07
0.00114678
-0.00113696
-1.51028e-06
8.38372e-07
4.14379e-07
0.00113746
-5.10094e-07
1.12358e-06
1.40876e-07
7.39725e-07
-5.57171e-07
-1.24471e-06
7.30635e-08
-0.0011366
-1.50488e-06
8.38235e-07
4.14479e-07
0.0011371
-5.07423e-07
1.11785e-06
1.37708e-07
7.39573e-07
-5.59929e-07
-1.24458e-06
7.65183e-08
-0.000276455
1.53924e-06
1.50481e-06
-4.88312e-07
-4.94035e-07
0.000274393
-1.1591e-06
-1.11908e-06
0.000276471
-0.000274367
8.36044e-08
9.09081e-08
0.00113613
8.4209e-07
-0.00113563
4.18913e-07
-1.54929e-06
1.4506e-07
-5.18603e-07
-1.25111e-06
6.7586e-08
-5.58277e-07
7.40668e-07
1.16492e-06
0.0011366
8.42219e-07
-0.00113609
4.17828e-07
-1.55492e-06
1.47929e-07
-5.21462e-07
-1.25709e-06
7.42677e-08
-5.64073e-07
7.46264e-07
-1.12203e-06
0.0002765
-0.00027439
8.62182e-08
9.13394e-08
0.00113725
8.44146e-07
-0.00113675
4.17537e-07
-1.50958e-06
1.38995e-07
-5.13306e-07
-1.25418e-06
7.4186e-08
-5.64026e-07
7.40581e-07
1.15665e-06
0.00113625
8.48147e-07
-0.00113575
4.17759e-07
-1.54669e-06
1.45022e-07
-5.18647e-07
-1.25131e-06
7.41877e-08
-5.63848e-07
7.405e-07
8.48752e-07
-0.00113646
4.16594e-07
-1.51194e-06
1.39292e-07
-5.12913e-07
-1.25116e-06
7.09e-08
7.37876e-07
-5.61099e-07
1.15126e-06
0.00113605
8.48008e-07
-0.00113554
4.17775e-07
-1.54098e-06
1.39154e-07
-5.12847e-07
-1.25127e-06
7.10189e-08
-5.63703e-07
7.40545e-07
-1.11629e-06
0.000276447
-0.000274351
8.59364e-08
9.14257e-08
8.42952e-07
-0.00113611
4.28182e-07
-1.50656e-06
1.36233e-07
-5.10187e-07
-1.2483e-06
7.43774e-08
7.37723e-07
-5.63781e-07
1.11387e-06
0.00113715
8.42604e-07
-0.00113665
4.22082e-07
-1.50925e-06
1.36338e-07
-5.1293e-07
-1.2457e-06
7.12822e-08
-5.60948e-07
7.35475e-07
-0.000274367
8.61992e-08
9.15606e-08
1.54762e-06
1.50779e-06
-4.85997e-07
-4.94113e-07
0.000274396
-1.15469e-06
-1.13863e-06
-0.000274463
1.29287e-07
6.41812e-08
0.000276563
4.15861e-07
0.00113662
-5.15873e-07
1.16066e-06
1.46682e-07
7.42417e-07
-5.54482e-07
-1.2474e-06
6.95967e-08
-1.55327e-06
8.37472e-07
4.15514e-07
0.00113709
-5.18626e-07
1.16647e-06
1.49551e-07
7.48118e-07
-5.60282e-07
-1.25332e-06
7.63921e-08
7.93463e-07
-0.00113758
4.1349e-07
-1.54473e-06
1.36166e-07
-5.16497e-07
-1.24102e-06
4.556e-08
-5.61542e-07
7.40356e-07
0.00113816
1.17105e-06
8.23307e-07
-0.00113803
4.08273e-07
-1.54774e-06
1.54247e-07
-5.10263e-07
-1.23919e-06
8.25675e-08
-5.48911e-07
7.50938e-07
0.00113849
-4.88884e-07
-4.93724e-07
0.000274419
-1.12812e-06
-0.000274479
9.60445e-08
1.01181e-07
0.000276581
4.19596e-07
0.00113774
-5.10428e-07
1.12075e-06
1.40771e-07
7.45229e-07
-5.60181e-07
-1.24769e-06
7.63827e-08
-1.54499e-06
8.37786e-07
4.15435e-07
0.00113674
-5.15822e-07
1.15825e-06
1.46657e-07
7.42319e-07
-5.60046e-07
-1.24763e-06
7.62298e-08
8.33983e-07
-0.00113867
4.36833e-07
-1.4913e-06
1.59836e-07
-4.91568e-07
-1.22829e-06
1.16668e-07
-5.32921e-07
7.53381e-07
0.00113897
1.16283e-06
8.23435e-07
-0.00113769
4.02735e-07
-1.53952e-06
1.5135e-07
-5.07427e-07
-1.23624e-06
8.24374e-08
-5.48687e-07
7.47956e-07
0.00113815
8.3764e-07
4.15477e-07
0.00113654
-5.09963e-07
1.15281e-06
1.40764e-07
7.42426e-07
-5.57177e-07
7.31088e-08
-1.24751e-06
8.24049e-07
-0.00113841
4.07099e-07
-1.50477e-06
1.4565e-07
-5.01728e-07
-1.2333e-06
7.93147e-08
-5.45895e-07
7.45285e-07
0.00113886
1.1574e-06
8.23287e-07
-0.00113748
4.08171e-07
-1.53369e-06
1.455e-07
-5.01626e-07
-1.23337e-06
7.9383e-08
-5.45858e-07
7.45267e-07
0.00113794
-4.88887e-07
-4.93801e-07
0.000274379
-1.12244e-06
-0.000274439
9.31886e-08
1.01248e-07
0.00027653
8.37745e-07
4.1979e-07
0.00113764
-5.07264e-07
1.11818e-06
1.38001e-07
7.37339e-07
-5.57116e-07
7.33997e-08
-1.24195e-06
8.23749e-07
-0.00113805
4.07645e-07
-1.49932e-06
1.42577e-07
-4.98975e-07
-1.23321e-06
8.2659e-08
-5.48614e-07
7.45118e-07
0.0011385
1.12273e-06
8.23572e-07
-0.00113859
4.06946e-07
-1.49928e-06
1.42699e-07
-4.98939e-07
-1.23058e-06
7.96852e-08
-5.45801e-07
7.42946e-07
0.00113904
-0.000274453
9.60426e-08
1.01422e-07
0.000276536
-0.00114519
4.42917e-07
4.43375e-07
0.001146
-0.00114519
4.42433e-07
4.42944e-07
0.0011456
-0.00114482
4.42499e-07
4.65713e-07
0.00114581
-0.00114502
4.42235e-07
4.5962e-07
-1.87117e-10
6.25499e-08
0.000235846
-0.000235903
-1.12662e-10
-5.02413e-09
-0.000196886
-5.41359e-09
1.32902e-07
-1.63968e-08
0.000196775
-0.000236249
-2.80258e-11
2.39521e-07
0.000236104
-8.50715e-08
-9.67659e-09
1.34711e-08
1.37824e-08
0.000196616
-2.93451e-09
-0.00019664
-9.89438e-05
5.5169e-09
5.9661e-08
9.88786e-05
-1.32757e-08
1.79146e-09
9.88368e-05
-9.88253e-05
6.00796e-08
-7.49973e-11
0.000235878
-0.000235931
-5.21619e-09
-2.28141e-09
-0.000196917
-5.4488e-09
1.30842e-07
-1.62284e-08
0.000196807
-0.000236279
2.39764e-07
4.63777e-10
0.000236132
-1.02727e-08
-8.31161e-08
1.33224e-08
1.57306e-08
0.000196646
-2.54361e-09
-0.000196672
4.40622e-07
4.41076e-07
0.00114679
4.40626e-07
4.41516e-07
0.00114639
4.40378e-07
4.41099e-07
0.0011466
-0.00114835
4.36169e-07
4.64183e-07
0.00114907
-0.00114837
4.35168e-07
4.3565e-07
0.00114915
-0.00114796
4.29532e-07
4.35864e-07
0.00114875
-0.00114818
4.34903e-07
4.35568e-07
0.00114895
-6.26894e-08
-1.63602e-09
0.000260056
-0.000259994
-1.78409e-08
1.9985e-08
-0.000252843
-6.1172e-08
-1.32782e-07
3.07015e-07
6.29896e-08
0.000252667
0.00113889
-0.00113821
3.19106e-09
8.99548e-07
7.92371e-07
-1.1945e-06
-1.36367e-06
5.9567e-07
4.11907e-07
1.12511e-06
0.00113794
8.33625e-07
-1.24096e-06
7.51515e-08
-5.5345e-07
7.41596e-07