/*--------------------------------*- C++ -*----------------------------------*\
| =========                 |                                                 |
| \\      /  F ield         | OpenFOAM: The Open Source CFD Toolbox           |
|  \\    /   O peration     | Version:  v1906                                 |
|   \\  /    A nd           | Web:      www.OpenFOAM.com                      |
|    \\/     M anipulation  |                                                 |
\*---------------------------------------------------------------------------*/
FoamFile
{
    version     2.0;
    format      ascii;
    class       volScalarField;
    location    "900";
    object      k;
}
// * * * * * * * * * * * * * * * * * * * * * * * * * * * * * * * * * * * * * //

dimensions      [0 2 -2 0 0 0 0];


internalField   nonuniform List<scalar> 
171728
(
4.17856e-05
3.64594e-05
3.64592e-05
4.17663e-05
3.6456e-05
3.64596e-05
3.64571e-05
3.64623e-05
4.17859e-05
3.64596e-05
3.64612e-05
4.17877e-05
2.08487e-05
2.08483e-05
2.08516e-05
2.08523e-05
6.95312e-05
6.95337e-05
6.68953e-05
6.6905e-05
6.46118e-05
7.1353e-05
6.47094e-05
6.46141e-05
7.13573e-05
7.13236e-05
6.47117e-05
5.30916e-05
6.01865e-05
2.88271e-05
2.85819e-05
5.32941e-05
5.30937e-05
3.62272e-05
6.01919e-05
2.88282e-05
6.00689e-05
2.85831e-05
5.3296e-05
6.95336e-05
6.95076e-05
4.15864e-05
6.69064e-05
6.689e-05
6.6842e-05
6.68305e-05
6.95297e-05
6.95037e-05
7.13581e-05
6.47141e-05
6.0191e-05
2.88298e-05
5.32952e-05
7.13532e-05
6.47099e-05
2.88303e-05
6.0184e-05
5.32925e-05
5.30966e-05
3.62252e-05
6.01856e-05
2.88277e-05
6.0068e-05
2.85828e-05
5.32976e-05
6.46146e-05
7.1356e-05
7.13227e-05
6.47119e-05
5.30942e-05
3.62302e-05
2.88298e-05
6.01867e-05
2.85847e-05
6.00652e-05
5.32966e-05
6.46126e-05
7.13534e-05
7.13196e-05
6.47114e-05
6.95322e-05
6.68968e-05
6.68948e-05
6.95324e-05
5.30963e-05
2.88332e-05
6.01889e-05
2.8588e-05
5.3296e-05
5.30972e-05
3.62293e-05
2.8834e-05
6.01933e-05
2.85892e-05
6.00704e-05
5.32983e-05
6.46143e-05
7.13559e-05
6.47132e-05
6.46159e-05
7.13596e-05
7.13231e-05
6.47143e-05
4.15736e-05
6.68942e-05
6.69076e-05
6.68337e-05
6.68442e-05
6.95316e-05
6.95057e-05
6.95347e-05
6.95086e-05
6.95187e-05
6.95213e-05
7.0029e-05
5.93327e-05
6.6878e-05
7.11353e-05
7.11205e-05
5.92679e-05
7.00691e-05
7.00896e-05
5.93261e-05
6.68862e-05
7.11467e-05
7.1129e-05
5.92865e-05
7.00993e-05
9.23418e-05
7.20371e-05
7.20303e-05
7.2023e-05
7.20166e-05
9.2349e-05
7.01258e-05
6.98225e-05
6.8118e-05
6.46508e-05
7.01149e-05
6.98313e-05
6.81531e-05
7.01845e-05
7.13376e-05
7.73861e-05
7.73669e-05
7.01991e-05
7.01275e-05
6.46698e-05
6.98448e-05
6.82025e-05
6.98361e-05
6.81682e-05
7.01396e-05
7.01275e-05
6.98232e-05
6.81276e-05
6.4653e-05
7.01179e-05
6.98318e-05
6.816e-05
7.01874e-05
7.13444e-05
7.74077e-05
7.73895e-05
7.02014e-05
7.01916e-05
7.736e-05
7.13368e-05
7.01777e-05
7.73788e-05
7.01309e-05
6.46723e-05
6.98455e-05
6.82104e-05
6.98367e-05
6.81758e-05
7.01417e-05
6.95211e-05
6.952e-05
9.23132e-05
7.20056e-05
7.2011e-05
9.23043e-05
7.20195e-05
7.20248e-05
7.00851e-05
5.93324e-05
6.68871e-05
7.11472e-05
5.92816e-05
7.11289e-05
7.0106e-05
7.00335e-05
5.93219e-05
6.68754e-05
7.11338e-05
7.11192e-05
5.92734e-05
7.00545e-05
7.00406e-05
7.11056e-05
5.91828e-05
6.68615e-05
5.92342e-05
7.00194e-05
7.11236e-05
6.99891e-05
7.10956e-05
5.91746e-05
6.68451e-05
6.99678e-05
7.11106e-05
5.9224e-05
9.23392e-05
7.20306e-05
7.2036e-05
7.20167e-05
7.20221e-05
9.23477e-05
6.95172e-05
6.95162e-05
7.01872e-05
7.13443e-05
7.74078e-05
7.7386e-05
7.02012e-05
7.01299e-05
6.46729e-05
6.82117e-05
6.98488e-05
6.81742e-05
6.98358e-05
7.0142e-05
7.01844e-05
7.13396e-05
7.73849e-05
7.73663e-05
7.0199e-05
7.01288e-05
6.46737e-05
6.98458e-05
6.82013e-05
6.98372e-05
6.81694e-05
7.01398e-05
7.01268e-05
6.81273e-05
6.9823e-05
6.46541e-05
7.01172e-05
6.81584e-05
6.98317e-05
7.01865e-05
7.13434e-05
7.74046e-05
7.73873e-05
7.02005e-05
7.01907e-05
7.7358e-05
7.13356e-05
7.01768e-05
7.73758e-05
7.01303e-05
6.46741e-05
6.82073e-05
6.98453e-05
6.81774e-05
6.98366e-05
7.01397e-05
7.01265e-05
6.98205e-05
6.8119e-05
6.46531e-05
7.0115e-05
6.98331e-05
6.81566e-05
7.01853e-05
7.13403e-05
7.73874e-05
7.73688e-05
7.01993e-05
7.01894e-05
7.73396e-05
7.13329e-05
7.01755e-05
7.73584e-05
7.01279e-05
6.46713e-05
6.98471e-05
6.82065e-05
6.98341e-05
6.81691e-05
7.01398e-05
6.95196e-05
7.00853e-05
5.93293e-05
6.68825e-05
7.11438e-05
5.92812e-05
7.11292e-05
7.01068e-05
7.00362e-05
5.93257e-05
6.68774e-05
7.11353e-05
7.11208e-05
5.92738e-05
7.00574e-05
9.23424e-05
7.2031e-05
7.20374e-05
7.2017e-05
7.20234e-05
9.23552e-05
6.952e-05
7.01275e-05
6.81191e-05
6.98223e-05
6.46549e-05
7.0116e-05
6.81557e-05
6.98348e-05
7.01865e-05
7.134e-05
7.73886e-05
7.73668e-05
7.02005e-05
7.01906e-05
7.73589e-05
7.01289e-05
6.46725e-05
6.82054e-05
6.98488e-05
6.81692e-05
6.98359e-05
7.01408e-05
7.01283e-05
6.81241e-05
6.98226e-05
6.46562e-05
7.01171e-05
6.81604e-05
6.98351e-05
7.01868e-05
7.13438e-05
7.74048e-05
7.7385e-05
7.02014e-05
7.01917e-05
7.73561e-05
7.13386e-05
7.01771e-05
7.73757e-05
7.01301e-05
6.46749e-05
6.82099e-05
6.98491e-05
6.81741e-05
6.98362e-05
7.01417e-05
9.2319e-05
7.20123e-05
7.20063e-05
9.23073e-05
7.20262e-05
7.20202e-05
7.00355e-05
5.9325e-05
6.68791e-05
7.11367e-05
5.9274e-05
7.11184e-05
7.00569e-05
7.00882e-05
5.9337e-05
6.68893e-05
7.11483e-05
5.92845e-05
7.113e-05
7.01096e-05
6.99913e-05
7.10967e-05
5.91751e-05
6.68492e-05
6.99697e-05
5.92265e-05
7.11123e-05
7.0044e-05
7.11067e-05
5.91857e-05
6.68628e-05
7.00225e-05
5.92386e-05
7.11246e-05
9.23427e-05
7.20374e-05
7.20313e-05
7.20234e-05
7.20174e-05
9.23514e-05
6.95192e-05
6.95181e-05
6.95222e-05
6.95211e-05
5.95184e-05
4.17626e-05
5.0511e-05
5.04966e-05
5.04625e-05
5.04724e-05
5.95516e-05
5.95182e-05
4.17728e-05
5.0503e-05
5.04991e-05
5.0472e-05
5.04716e-05
5.95497e-05
5.95173e-05
4.17623e-05
5.05136e-05
5.05133e-05
5.04622e-05
5.04623e-05
5.95509e-05
5.95197e-05
4.17645e-05
5.05137e-05
5.05124e-05
5.04648e-05
5.04726e-05
5.95544e-05
1.49195e-05
1.49188e-05
1.48081e-05
1.07943e-05
1.08212e-05
2.06634e-05
1.49194e-05
1.49174e-05
1.4808e-05
1.48061e-05
1.0794e-05
1.08209e-05
1.49216e-05
1.49213e-05
1.48098e-05
1.07953e-05
1.08223e-05
2.06673e-05
1.4921e-05
1.49212e-05
1.48095e-05
1.48098e-05
1.07952e-05
1.08221e-05
4.55328e-05
5.5416e-05
4.35605e-05
5.31722e-05
4.55281e-05
5.54874e-05
4.36102e-05
4.80462e-05
5.25178e-05
6.01388e-05
5.85124e-05
5.24772e-05
5.84539e-05
4.80858e-05
4.57033e-05
5.32136e-05
5.55987e-05
4.37971e-05
5.55268e-05
4.37445e-05
4.57217e-05
4.55506e-05
5.54219e-05
4.3563e-05
5.31743e-05
4.55255e-05
5.54945e-05
4.36134e-05
4.80481e-05
5.25284e-05
6.01434e-05
5.85216e-05
5.84629e-05
5.24794e-05
4.80952e-05
4.79361e-05
5.83695e-05
5.23483e-05
6.0118e-05
4.78963e-05
5.84288e-05
5.23941e-05
4.56979e-05
5.3216e-05
5.56059e-05
4.37994e-05
5.55322e-05
4.37471e-05
4.57288e-05
5.94442e-05
4.1582e-05
5.03249e-05
5.03237e-05
5.03571e-05
5.94127e-05
5.0354e-05
4.80487e-05
5.25141e-05
6.01442e-05
5.85206e-05
5.24842e-05
5.8462e-05
4.8093e-05
4.5704e-05
5.32184e-05
5.56064e-05
4.37739e-05
5.5532e-05
4.37539e-05
4.57323e-05
4.80446e-05
5.25129e-05
6.01418e-05
5.85116e-05
5.84527e-05
5.24793e-05
4.80892e-05
4.57022e-05
5.32174e-05
4.37726e-05
5.55999e-05
4.37518e-05
5.55266e-05
4.57291e-05
4.55434e-05
5.54216e-05
4.35805e-05
5.31756e-05
4.55419e-05
5.54942e-05
4.35998e-05
4.80612e-05
5.25131e-05
6.01423e-05
5.85195e-05
5.24851e-05
5.84617e-05
4.80722e-05
4.79226e-05
5.83684e-05
5.23535e-05
6.01117e-05
4.79081e-05
5.2384e-05
5.8427e-05
4.57094e-05
5.32176e-05
5.56044e-05
4.38002e-05
5.55337e-05
4.3757e-05
4.5705e-05
4.55519e-05
4.35642e-05
5.54169e-05
5.31746e-05
4.55259e-05
4.36144e-05
5.54917e-05
4.80453e-05
5.25127e-05
6.01399e-05
5.85144e-05
5.84554e-05
5.24806e-05
4.80914e-05
4.79324e-05
5.83621e-05
5.23469e-05
6.01128e-05
4.78931e-05
5.84214e-05
5.23871e-05
4.56969e-05
5.32161e-05
4.3801e-05
5.5603e-05
4.37482e-05
5.55283e-05
4.57269e-05
4.55496e-05
4.35683e-05
5.54185e-05
5.31758e-05
4.55267e-05
4.36143e-05
5.54907e-05
4.80448e-05
5.25256e-05
6.014e-05
5.85146e-05
5.24764e-05
5.84549e-05
4.80905e-05
4.79323e-05
5.84214e-05
4.56975e-05
5.32186e-05
4.3777e-05
5.56014e-05
4.37558e-05
5.553e-05
4.57249e-05
4.55472e-05
4.35692e-05
5.54232e-05
5.31767e-05
4.55435e-05
4.36151e-05
5.54944e-05
4.80636e-05
5.25266e-05
6.01451e-05
5.85205e-05
5.84632e-05
5.24877e-05
4.80743e-05
4.79245e-05
5.83698e-05
5.23568e-05
6.0119e-05
4.79103e-05
5.84281e-05
5.23887e-05
4.57117e-05
5.32187e-05
4.38013e-05
5.56046e-05
4.375e-05
5.55347e-05
4.57296e-05
5.94478e-05
4.15972e-05
5.03189e-05
5.03265e-05
5.94141e-05
5.03636e-05
5.03645e-05
3.83837e-05
5.11091e-05
5.11093e-05
5.33006e-05
5.34983e-05
5.32893e-05
5.34416e-05
5.11063e-05
5.11072e-05
5.12926e-05
5.12933e-05
5.33009e-05
5.34317e-05
5.11063e-05
5.11061e-05
5.12924e-05
5.12922e-05
5.11089e-05
5.12952e-05
5.1295e-05
5.33002e-05
5.34312e-05
5.11088e-05
5.12955e-05
5.12949e-05
5.34333e-05
5.13549e-05
5.13548e-05
6.85094e-05
7.33551e-05
7.33796e-05
6.84831e-05
7.1115e-05
7.11411e-05
6.8514e-05
7.33606e-05
7.3385e-05
6.84878e-05
3.8385e-05
3.83877e-05
3.83883e-05
3.86994e-05
3.87006e-05
3.87032e-05
3.87038e-05
6.05237e-05
6.46924e-05
4.63279e-05
5.11723e-05
6.47234e-05
4.64076e-05
6.0475e-05
7.11134e-05
7.11396e-05
6.05217e-05
4.6329e-05
6.46929e-05
5.11725e-05
4.64086e-05
6.47241e-05
6.04732e-05
6.98623e-05
6.98736e-05
5.33348e-05
6.98802e-05
6.98919e-05
6.99176e-05
6.99288e-05
7.11131e-05
7.11391e-05
7.11156e-05
7.11416e-05
6.98627e-05
6.98726e-05
5.33438e-05
6.98815e-05
6.98907e-05
7.11665e-05
7.11408e-05
7.1169e-05
7.11433e-05
5.33879e-05
6.9909e-05
6.99182e-05
6.98906e-05
6.99009e-05
6.85122e-05
7.33598e-05
7.33844e-05
6.8484e-05
6.05191e-05
6.46912e-05
4.63245e-05
5.11696e-05
6.47219e-05
4.64042e-05
6.04741e-05
6.05221e-05
6.46947e-05
4.63258e-05
5.11704e-05
6.47259e-05
4.64055e-05
6.04735e-05
6.85152e-05
7.34096e-05
7.3385e-05
6.85402e-05
6.85162e-05
7.3414e-05
7.33899e-05
6.85427e-05
6.05307e-05
5.12321e-05
6.47577e-05
4.65592e-05
6.47285e-05
4.6483e-05
6.05728e-05
6.05299e-05
5.12329e-05
6.47617e-05
4.65605e-05
6.4732e-05
4.64843e-05
6.05741e-05
6.9872e-05
6.98595e-05
5.33345e-05
6.98904e-05
6.98788e-05
7.11115e-05
7.11379e-05
7.11685e-05
7.11428e-05
5.33992e-05
6.99178e-05
6.9906e-05
6.99e-05
6.98878e-05
7.11653e-05
7.11392e-05
6.05223e-05
6.46949e-05
4.63265e-05
5.11694e-05
6.4726e-05
4.64062e-05
6.04772e-05
6.85117e-05
7.33552e-05
7.33796e-05
6.84855e-05
6.05203e-05
4.63267e-05
6.46898e-05
5.11693e-05
4.64063e-05
6.47201e-05
6.04753e-05
6.85199e-05
7.34151e-05
7.33906e-05
6.85449e-05
6.0534e-05
5.12321e-05
6.47617e-05
4.65613e-05
6.47323e-05
4.64851e-05
6.05763e-05
6.85177e-05
7.34093e-05
7.33852e-05
6.85427e-05
6.05321e-05
5.12319e-05
4.65614e-05
6.47559e-05
4.64852e-05
6.4727e-05
6.05743e-05
6.85131e-05
7.33583e-05
7.33848e-05
6.84849e-05
6.05204e-05
4.63281e-05
6.46915e-05
5.11721e-05
4.64077e-05
6.47221e-05
6.04753e-05
6.85112e-05
7.33562e-05
7.33808e-05
6.8483e-05
6.05318e-05
5.12348e-05
6.47591e-05
4.65626e-05
6.47297e-05
4.64864e-05
6.05778e-05
6.85171e-05
7.34142e-05
7.33884e-05
6.85441e-05
6.05319e-05
5.12347e-05
4.65626e-05
6.4758e-05
4.64865e-05
6.47286e-05
6.05743e-05
6.85153e-05
7.34104e-05
7.33863e-05
6.85421e-05
6.98659e-05
6.98626e-05
5.33339e-05
6.98835e-05
6.98817e-05
7.11139e-05
7.11399e-05
7.1167e-05
7.11411e-05
5.33985e-05
6.99106e-05
6.99091e-05
6.98942e-05
6.98908e-05
7.11674e-05
7.11416e-05
6.05213e-05
4.63294e-05
6.46967e-05
5.1172e-05
4.6409e-05
6.47272e-05
6.04761e-05
6.85107e-05
7.33572e-05
7.33818e-05
6.84828e-05
6.85123e-05
7.33604e-05
7.33849e-05
6.8486e-05
6.053e-05
5.12351e-05
4.65636e-05
6.476e-05
4.64874e-05
6.47303e-05
6.05757e-05
6.05328e-05
5.12346e-05
4.6564e-05
6.47631e-05
4.64879e-05
6.47339e-05
6.05752e-05
6.8515e-05
7.34114e-05
7.33873e-05
6.85416e-05
6.85181e-05
7.34149e-05
7.33903e-05
6.85432e-05
7.11132e-05
7.11392e-05
7.11161e-05
7.11421e-05
5.3399e-05
6.99077e-05
6.99194e-05
6.98906e-05
6.99019e-05
7.11667e-05
7.1141e-05
7.11695e-05
7.11438e-05
4.66382e-05
6.47639e-05
6.05859e-05
7.34158e-05
6.85468e-05
6.47691e-05
7.34187e-05
7.11684e-05
7.11712e-05
7.17876e-05
7.15692e-05
7.15372e-05
6.84994e-05
7.15566e-05
7.15282e-05
7.18017e-05
7.16285e-05
7.33647e-05
7.96986e-05
7.97019e-05
7.16135e-05
7.16271e-05
7.9715e-05
7.33701e-05
7.97119e-05
7.1642e-05
7.17871e-05
6.84934e-05
7.15419e-05
7.15133e-05
7.15543e-05
7.15227e-05
7.17729e-05
7.11272e-05
7.11289e-05
7.17929e-05
7.1545e-05
7.15699e-05
6.85041e-05
7.1536e-05
7.15605e-05
7.18024e-05
7.16305e-05
7.33702e-05
7.97156e-05
7.97238e-05
7.1616e-05
7.16295e-05
7.97369e-05
7.33756e-05
7.97288e-05
7.1644e-05
7.17878e-05
6.8498e-05
7.15212e-05
7.15456e-05
7.15304e-05
7.15551e-05
7.17782e-05
7.11257e-05
7.11273e-05
9.49276e-05
7.34527e-05
7.34463e-05
7.3439e-05
7.34327e-05
9.49295e-05
7.40743e-05
6.51191e-05
6.9866e-05
7.319e-05
6.51327e-05
7.31993e-05
7.40696e-05
7.41223e-05
6.51278e-05
6.98777e-05
7.32005e-05
6.51423e-05
7.32098e-05
7.41177e-05
7.40867e-05
7.32137e-05
6.98766e-05
6.51558e-05
6.51425e-05
7.32045e-05
7.40912e-05
7.41348e-05
7.32242e-05
6.98879e-05
6.51654e-05
6.51512e-05
7.3215e-05
7.41392e-05
9.49148e-05
7.34262e-05
7.34199e-05
7.34399e-05
7.34336e-05
9.49129e-05
7.41407e-05
6.52091e-05
7.32473e-05
6.99208e-05
7.41359e-05
6.52213e-05
7.3256e-05
7.41885e-05
6.52178e-05
7.32578e-05
6.99326e-05
7.41839e-05
6.52307e-05
7.32665e-05
9.49723e-05
7.34769e-05
7.34705e-05
9.49703e-05
7.34904e-05
7.3484e-05
7.11252e-05
7.1127e-05
7.11277e-05
7.11295e-05
9.49268e-05
7.34529e-05
7.34461e-05
7.34392e-05
7.34325e-05
9.49289e-05
7.40755e-05
6.51188e-05
6.98671e-05
7.31907e-05
7.32002e-05
6.51336e-05
7.40703e-05
7.41209e-05
6.51268e-05
6.98765e-05
7.32001e-05
7.32094e-05
6.51413e-05
7.41166e-05
7.40875e-05
7.32152e-05
6.98766e-05
6.51568e-05
7.32043e-05
7.40926e-05
6.51422e-05
7.41337e-05
7.32238e-05
6.98869e-05
6.51644e-05
7.32146e-05
7.41381e-05
6.51502e-05
9.49143e-05
7.34265e-05
7.34197e-05
7.34401e-05
7.34334e-05
9.49121e-05
7.11545e-05
7.11528e-05
7.1157e-05
7.11553e-05
9.49435e-05
7.34519e-05
7.34452e-05
9.49413e-05
7.34656e-05
7.34588e-05
7.41207e-05
6.52009e-05
6.99042e-05
7.32446e-05
7.32322e-05
6.51872e-05
7.41257e-05
7.41669e-05
6.52086e-05
6.99145e-05
7.32525e-05
7.32434e-05
6.51952e-05
7.41711e-05
7.41093e-05
7.3218e-05
6.5165e-05
6.98952e-05
7.41043e-05
7.32301e-05
6.51791e-05
7.41546e-05
7.32292e-05
6.5173e-05
6.99047e-05
7.41505e-05
7.32385e-05
6.51867e-05
9.49555e-05
7.34781e-05
7.34714e-05
7.34646e-05
7.34578e-05
9.49577e-05
7.17923e-05
7.15684e-05
7.1546e-05
6.85001e-05
7.15589e-05
7.15337e-05
7.18017e-05
7.16302e-05
7.33695e-05
7.97166e-05
7.97252e-05
7.16157e-05
7.16292e-05
7.97384e-05
7.33748e-05
7.97298e-05
7.16437e-05
7.17872e-05
6.84962e-05
7.1544e-05
7.15191e-05
7.15536e-05
7.15313e-05
7.17776e-05
7.18163e-05
7.15717e-05
7.15427e-05
6.85251e-05
7.18023e-05
7.15842e-05
7.15517e-05
7.16539e-05
7.33998e-05
7.97405e-05
7.16688e-05
7.97377e-05
7.16555e-05
7.97249e-05
7.33947e-05
7.16406e-05
7.9728e-05
7.18167e-05
6.85307e-05
7.15989e-05
7.15657e-05
7.18307e-05
7.15864e-05
7.15569e-05
7.18162e-05
7.15737e-05
7.15485e-05
6.85278e-05
7.18067e-05
7.15834e-05
7.15605e-05
7.16561e-05
7.34047e-05
7.97639e-05
7.97557e-05
7.16705e-05
7.16572e-05
7.97429e-05
7.33994e-05
7.16427e-05
7.97512e-05
7.18213e-05
6.8532e-05
7.15981e-05
7.15745e-05
7.15886e-05
7.15627e-05
7.18307e-05
9.4925e-05
7.34461e-05
7.34519e-05
7.34324e-05
7.34382e-05
9.49272e-05
7.41205e-05
6.51261e-05
6.98761e-05
7.31998e-05
7.32091e-05
6.51395e-05
7.41163e-05
7.40748e-05
6.51203e-05
6.98646e-05
7.31879e-05
6.51325e-05
7.32004e-05
7.40691e-05
7.41335e-05
7.32237e-05
6.9886e-05
6.51627e-05
7.32142e-05
6.51495e-05
7.41375e-05
7.40864e-05
7.32148e-05
6.98739e-05
6.51556e-05
6.51437e-05
7.32025e-05
7.40918e-05
9.49124e-05
7.34196e-05
7.34254e-05
7.34334e-05
7.34392e-05
9.49103e-05
7.1124e-05
7.11254e-05
7.11565e-05
7.11548e-05
9.49418e-05
7.34452e-05
7.34509e-05
9.49394e-05
7.34588e-05
7.34646e-05
7.41662e-05
6.52069e-05
6.99136e-05
7.32533e-05
6.51945e-05
7.32412e-05
7.41707e-05
7.41196e-05
6.51998e-05
6.99014e-05
7.32432e-05
7.3231e-05
6.51886e-05
7.41246e-05
7.41546e-05
7.32286e-05
6.51723e-05
6.99043e-05
6.5185e-05
7.41503e-05
7.32387e-05
7.41086e-05
7.3217e-05
6.51665e-05
6.98924e-05
7.41032e-05
7.32291e-05
6.5178e-05
9.49537e-05
7.34714e-05
7.34772e-05
7.34578e-05
7.34636e-05
9.4956e-05
7.1153e-05
7.11516e-05
7.17906e-05
7.1569e-05
7.1537e-05
6.85018e-05
7.15596e-05
7.15281e-05
7.18e-05
7.16279e-05
7.33647e-05
7.96968e-05
7.97003e-05
7.16129e-05
7.16264e-05
7.97136e-05
7.33702e-05
7.971e-05
7.16414e-05
7.17856e-05
6.84958e-05
7.15447e-05
7.15131e-05
7.15543e-05
7.15225e-05
7.17759e-05
7.18169e-05
7.15505e-05
7.15753e-05
6.85298e-05
7.18074e-05
7.15595e-05
7.15849e-05
7.16564e-05
7.34052e-05
7.97626e-05
7.16708e-05
7.97546e-05
7.16575e-05
7.97419e-05
7.34002e-05
7.1643e-05
7.97498e-05
7.18221e-05
6.85355e-05
7.15736e-05
7.15995e-05
7.18314e-05
7.15648e-05
7.15902e-05
7.18145e-05
7.15745e-05
7.15426e-05
6.85276e-05
7.1805e-05
7.15841e-05
7.15516e-05
7.16533e-05
7.34e-05
7.97393e-05
7.97358e-05
7.16682e-05
7.16548e-05
7.97231e-05
7.33947e-05
7.16399e-05
7.97266e-05
7.18197e-05
6.85333e-05
7.15987e-05
7.15656e-05
7.15894e-05
7.15569e-05
7.1829e-05
7.17903e-05
7.1546e-05
7.15705e-05
6.8501e-05
7.15337e-05
7.15579e-05
7.18042e-05
7.16302e-05
7.33699e-05
7.97147e-05
7.97235e-05
7.16156e-05
7.16292e-05
7.97366e-05
7.33734e-05
7.9728e-05
7.16438e-05
7.17896e-05
6.8497e-05
7.15191e-05
7.15433e-05
7.15314e-05
7.15556e-05
7.17754e-05
7.17913e-05
7.15699e-05
7.15391e-05
6.84992e-05
7.15574e-05
7.15301e-05
7.18007e-05
7.16288e-05
7.33659e-05
7.96965e-05
7.97049e-05
7.16143e-05
7.16278e-05
7.9718e-05
7.33712e-05
7.97098e-05
7.16423e-05
7.17862e-05
6.84951e-05
7.15427e-05
7.15152e-05
7.1555e-05
7.15245e-05
7.17766e-05
7.18187e-05
7.15485e-05
7.15731e-05
6.85288e-05
7.1805e-05
7.15605e-05
7.15855e-05
7.16561e-05
7.34031e-05
7.97621e-05
7.97538e-05
7.16705e-05
7.16572e-05
7.9741e-05
7.33995e-05
7.16427e-05
7.97495e-05
7.18194e-05
6.85327e-05
7.15748e-05
7.16005e-05
7.15628e-05
7.1588e-05
7.18332e-05
7.18152e-05
7.15725e-05
7.15446e-05
6.85269e-05
7.18057e-05
7.15849e-05
7.15536e-05
7.16547e-05
7.34011e-05
7.97436e-05
7.97356e-05
7.16691e-05
7.16558e-05
7.97228e-05
7.33959e-05
7.16413e-05
7.9731e-05
7.18204e-05
6.8531e-05
7.15999e-05
7.15676e-05
7.15874e-05
7.15589e-05
7.18297e-05
9.4929e-05
7.34461e-05
7.34527e-05
7.34323e-05
7.3439e-05
9.49315e-05
7.41204e-05
6.51252e-05
6.98692e-05
7.3198e-05
7.32073e-05
6.51365e-05
7.41157e-05
7.40759e-05
6.51203e-05
6.98674e-05
7.31904e-05
6.51347e-05
7.31999e-05
7.40715e-05
7.41329e-05
7.32217e-05
6.98802e-05
6.51596e-05
7.32125e-05
6.51485e-05
7.41373e-05
7.40887e-05
7.32148e-05
6.98768e-05
6.51578e-05
6.51438e-05
7.32043e-05
7.40929e-05
9.49168e-05
7.34196e-05
7.34262e-05
7.34333e-05
7.344e-05
9.49142e-05
7.1126e-05
7.11278e-05
7.11548e-05
7.11534e-05
9.49459e-05
7.34451e-05
7.34517e-05
9.49435e-05
7.34587e-05
7.34654e-05
7.41663e-05
6.52039e-05
6.99079e-05
7.32504e-05
6.51936e-05
7.32413e-05
7.41701e-05
7.4122e-05
6.52021e-05
6.99045e-05
7.32442e-05
7.32318e-05
6.51888e-05
7.41259e-05
7.41539e-05
7.32271e-05
6.51713e-05
6.98974e-05
6.51821e-05
7.41498e-05
7.32364e-05
7.41095e-05
7.32181e-05
6.51665e-05
6.98954e-05
7.41055e-05
7.32298e-05
6.51802e-05
9.49578e-05
7.34713e-05
7.3478e-05
7.34577e-05
7.34644e-05
9.49602e-05
7.11554e-05
7.11537e-05
7.17886e-05
7.15389e-05
7.15701e-05
6.8499e-05
7.1527e-05
7.15573e-05
7.18027e-05
7.16297e-05
7.33669e-05
7.96973e-05
7.97059e-05
7.16151e-05
7.16287e-05
7.9719e-05
7.33722e-05
7.97105e-05
7.16432e-05
7.17881e-05
6.84946e-05
7.15123e-05
7.15427e-05
7.15241e-05
7.15552e-05
7.17738e-05
7.17893e-05
7.15416e-05
7.15707e-05
6.85023e-05
7.15326e-05
7.1558e-05
7.18034e-05
7.16294e-05
7.337e-05
7.97144e-05
7.97177e-05
7.16143e-05
7.16278e-05
7.97307e-05
7.33754e-05
7.97277e-05
7.16429e-05
7.17888e-05
6.84963e-05
7.15177e-05
7.15434e-05
7.1527e-05
7.15558e-05
7.17746e-05
7.18172e-05
7.15418e-05
7.15724e-05
6.85263e-05
7.18032e-05
7.15534e-05
7.15852e-05
7.16556e-05
7.34021e-05
7.97446e-05
7.97364e-05
7.167e-05
7.16567e-05
7.97236e-05
7.33969e-05
7.16422e-05
7.97319e-05
7.18176e-05
6.85305e-05
7.15674e-05
7.15998e-05
7.1556e-05
7.15872e-05
7.18317e-05
7.1818e-05
7.15471e-05
7.15731e-05
6.85281e-05
7.18039e-05
7.15561e-05
7.15857e-05
7.16547e-05
7.34051e-05
7.97564e-05
7.97534e-05
7.16696e-05
7.16563e-05
7.97407e-05
7.34e-05
7.16413e-05
7.97438e-05
7.18182e-05
6.85336e-05
7.157e-05
7.16004e-05
7.15613e-05
7.15879e-05
7.18323e-05
7.11254e-05
7.11272e-05
7.11282e-05
7.113e-05
9.4944e-05
7.34517e-05
7.34454e-05
9.4942e-05
7.34654e-05
7.3459e-05
7.412e-05
6.52e-05
6.99043e-05
7.32424e-05
7.41241e-05
6.51875e-05
7.32332e-05
7.41681e-05
6.52095e-05
6.99156e-05
7.32528e-05
7.4172e-05
6.51962e-05
7.32437e-05
7.41078e-05
7.3219e-05
6.51652e-05
6.98942e-05
7.41036e-05
6.51782e-05
7.32284e-05
7.41557e-05
7.32295e-05
6.51739e-05
6.99057e-05
7.41516e-05
6.51877e-05
7.32388e-05
9.49563e-05
7.34779e-05
7.34715e-05
9.49583e-05
7.34643e-05
7.3458e-05
7.11547e-05
7.1153e-05
7.11575e-05
7.11558e-05
7.16824e-05
7.97482e-05
7.34247e-05
7.1668e-05
7.97559e-05
7.18451e-05
6.8556e-05
7.16019e-05
7.1573e-05
7.18345e-05
7.16147e-05
7.1581e-05
7.34299e-05
7.11802e-05
7.11831e-05
3.12669e-05
3.12654e-05
3.84904e-05
3.13973e-05
3.13959e-05
2.22592e-05
2.21079e-05
6.58139e-05
5.93059e-05
5.93069e-05
5.32849e-05
5.93052e-05
5.93066e-05
6.58079e-05
6.59099e-05
5.94452e-05
5.94464e-05
5.34772e-05
6.59047e-05
5.94423e-05
5.94426e-05
6.58144e-05
5.93023e-05
5.93037e-05
5.32941e-05
5.93081e-05
5.93094e-05
6.58076e-05
6.58815e-05
5.34376e-05
5.94129e-05
5.94136e-05
5.9408e-05
5.94097e-05
6.58877e-05
6.58135e-05
5.93053e-05
5.9307e-05
5.3285e-05
5.93068e-05
5.93052e-05
6.58084e-05
6.58819e-05
5.34491e-05
5.94094e-05
5.94115e-05
5.94097e-05
5.94119e-05
6.58863e-05
6.58134e-05
5.93052e-05
5.93064e-05
5.32843e-05
5.9306e-05
5.93047e-05
6.58072e-05
6.58811e-05
5.34484e-05
5.94082e-05
5.94121e-05
5.94084e-05
5.94123e-05
6.5886e-05
6.58816e-05
5.3449e-05
5.94115e-05
5.94119e-05
6.5887e-05
5.94115e-05
5.94118e-05
3.12675e-05
3.12665e-05
3.84917e-05
3.13979e-05
3.13969e-05
2.22596e-05
2.21082e-05
3.12708e-05
3.12699e-05
3.84943e-05
3.14011e-05
3.14002e-05
2.22631e-05
2.21118e-05
3.12714e-05
3.12699e-05
3.84949e-05
3.14018e-05
3.14002e-05
2.22632e-05
2.21119e-05
3.85962e-05
3.16536e-05
3.16523e-05
3.15267e-05
3.15253e-05
2.24104e-05
2.256e-05
3.85975e-05
3.16542e-05
3.16532e-05
3.15274e-05
3.15263e-05
2.24107e-05
2.25604e-05
3.86001e-05
3.16575e-05
3.16565e-05
3.15306e-05
3.15297e-05
2.24142e-05
2.25639e-05
3.86007e-05
3.16582e-05
3.16566e-05
3.15312e-05
3.15297e-05
2.24143e-05
2.2564e-05
5.61408e-05
6.2228e-05
5.48504e-05
6.05037e-05
6.22087e-05
5.48464e-05
5.61354e-05
5.72155e-05
6.02249e-05
6.47048e-05
6.40862e-05
6.0234e-05
6.41003e-05
5.72119e-05
5.72485e-05
6.41226e-05
6.47113e-05
6.02642e-05
6.02557e-05
6.41088e-05
5.72517e-05
5.60934e-05
6.04954e-05
6.21831e-05
5.48e-05
6.22023e-05
5.48043e-05
5.60987e-05
5.61379e-05
5.48494e-05
6.22233e-05
6.05019e-05
5.48454e-05
6.22039e-05
5.61324e-05
5.72131e-05
6.02248e-05
6.47055e-05
6.40802e-05
6.02338e-05
6.40947e-05
5.72095e-05
5.72461e-05
6.4117e-05
6.47119e-05
6.02641e-05
6.02556e-05
6.41027e-05
5.72493e-05
5.60903e-05
6.04933e-05
5.47993e-05
6.21782e-05
5.48034e-05
6.21974e-05
5.60959e-05
6.58331e-05
5.33505e-05
5.93411e-05
5.93428e-05
5.93419e-05
5.93427e-05
6.58388e-05
6.5833e-05
5.33398e-05
5.93435e-05
5.93458e-05
6.58393e-05
5.93384e-05
5.93387e-05
6.58636e-05
5.3392e-05
5.93731e-05
5.93736e-05
6.58574e-05
5.93777e-05
5.93794e-05
5.61375e-05
6.22195e-05
5.48391e-05
6.0503e-05
6.22052e-05
5.48517e-05
5.61257e-05
5.72036e-05
6.0226e-05
6.47033e-05
6.40793e-05
6.40913e-05
6.02274e-05
5.72138e-05
5.72499e-05
6.41137e-05
6.47101e-05
6.02579e-05
6.41018e-05
6.02565e-05
5.724e-05
5.60839e-05
6.04909e-05
6.21793e-05
5.48048e-05
6.21939e-05
5.47938e-05
5.60958e-05
5.61387e-05
6.22267e-05
5.48471e-05
6.0502e-05
6.22073e-05
5.48444e-05
5.61325e-05
5.72133e-05
6.02247e-05
6.47073e-05
6.40857e-05
6.40998e-05
6.02337e-05
5.72097e-05
5.72463e-05
6.41221e-05
6.47135e-05
6.02639e-05
6.41081e-05
5.72495e-05
6.02555e-05
5.60906e-05
6.04937e-05
6.21816e-05
5.47989e-05
6.22009e-05
5.48018e-05
5.60968e-05
5.61674e-05
6.22307e-05
5.48949e-05
6.05465e-05
5.61786e-05
6.22448e-05
5.48822e-05
5.73214e-05
6.03157e-05
6.47464e-05
6.4157e-05
6.03155e-05
6.41455e-05
5.7311e-05
5.72752e-05
6.4124e-05
6.02859e-05
6.474e-05
6.02874e-05
5.7286e-05
6.41357e-05
5.62187e-05
6.05578e-05
6.22692e-05
5.49237e-05
6.22555e-05
5.4938e-05
5.62075e-05
5.61731e-05
6.2233e-05
5.4887e-05
6.05491e-05
5.61796e-05
6.2252e-05
5.4887e-05
5.73179e-05
6.03221e-05
6.47499e-05
6.41655e-05
6.41519e-05
6.03144e-05
5.73209e-05
5.72857e-05
6.41305e-05
6.0285e-05
6.4744e-05
5.72828e-05
6.41441e-05
6.02928e-05
5.62195e-05
6.05584e-05
6.22763e-05
5.49268e-05
6.22578e-05
5.49341e-05
5.62126e-05
6.58335e-05
5.33505e-05
5.93414e-05
5.93429e-05
5.93427e-05
5.9341e-05
6.58386e-05
6.58628e-05
5.33843e-05
5.93754e-05
5.93772e-05
5.93762e-05
6.58581e-05
5.93779e-05
5.61416e-05
6.2225e-05
5.48423e-05
6.05062e-05
6.22107e-05
5.4855e-05
5.61315e-05
5.72064e-05
6.02256e-05
6.47074e-05
6.40867e-05
6.40986e-05
6.02342e-05
5.72169e-05
5.72531e-05
6.41211e-05
6.47138e-05
6.02644e-05
6.41092e-05
6.02564e-05
5.72431e-05
5.60898e-05
6.0494e-05
6.21847e-05
5.4808e-05
6.21993e-05
5.47964e-05
5.60996e-05
5.61381e-05
5.48406e-05
6.22194e-05
6.05042e-05
5.48535e-05
6.22051e-05
5.6128e-05
5.72019e-05
6.02249e-05
6.47015e-05
6.40767e-05
6.40899e-05
6.02257e-05
5.72123e-05
5.72484e-05
6.41122e-05
6.47086e-05
6.02562e-05
6.40996e-05
5.72383e-05
6.02555e-05
5.60864e-05
6.04921e-05
5.48067e-05
6.2179e-05
5.4795e-05
6.21938e-05
5.60962e-05
5.61724e-05
6.22363e-05
5.48979e-05
6.05498e-05
5.61826e-05
6.22504e-05
5.48853e-05
5.73248e-05
6.03226e-05
6.47503e-05
6.41645e-05
6.03149e-05
6.41531e-05
5.73141e-05
5.72782e-05
6.41315e-05
6.02856e-05
6.47441e-05
6.02933e-05
5.72893e-05
6.41431e-05
5.62226e-05
6.05611e-05
6.22749e-05
5.49268e-05
6.22611e-05
5.4941e-05
5.62123e-05
5.61689e-05
5.48966e-05
6.22306e-05
6.05479e-05
5.61791e-05
5.48838e-05
6.22448e-05
5.73201e-05
6.03141e-05
6.47451e-05
6.41555e-05
6.41433e-05
6.03147e-05
5.73092e-05
5.72735e-05
6.41214e-05
6.02849e-05
6.47382e-05
5.72846e-05
6.41342e-05
6.02856e-05
5.62191e-05
6.05592e-05
5.49252e-05
6.22693e-05
5.49394e-05
6.22555e-05
5.62087e-05
5.61402e-05
5.48408e-05
6.22212e-05
6.05041e-05
5.48531e-05
6.22071e-05
5.61274e-05
5.72053e-05
6.02266e-05
6.47034e-05
6.408e-05
6.02278e-05
6.40929e-05
5.72157e-05
5.72516e-05
6.41152e-05
6.47103e-05
6.02583e-05
6.02571e-05
6.41028e-05
5.72415e-05
5.6086e-05
6.04922e-05
5.48062e-05
6.21812e-05
5.47959e-05
6.21957e-05
5.60987e-05
5.61759e-05
6.22345e-05
5.48896e-05
6.05512e-05
5.61816e-05
6.22532e-05
5.48935e-05
5.73199e-05
6.03222e-05
6.47476e-05
6.41657e-05
5.73228e-05
6.03145e-05
6.41526e-05
5.72877e-05
6.4131e-05
6.02851e-05
6.47414e-05
5.72849e-05
6.02929e-05
6.41444e-05
5.62213e-05
6.0559e-05
6.22779e-05
5.49363e-05
5.62154e-05
6.22594e-05
5.49329e-05
5.61693e-05
5.48965e-05
6.22325e-05
6.05479e-05
5.6181e-05
5.48843e-05
6.22466e-05
5.7323e-05
6.03161e-05
6.47465e-05
6.41582e-05
6.41468e-05
6.0316e-05
5.73122e-05
5.72766e-05
6.41246e-05
6.02864e-05
6.47403e-05
5.72876e-05
6.41372e-05
6.02878e-05
5.62211e-05
6.0559e-05
5.49261e-05
6.2271e-05
5.49393e-05
6.22573e-05
5.62095e-05
6.58325e-05
5.33498e-05
5.93392e-05
5.93415e-05
5.93422e-05
5.93392e-05
6.58383e-05
6.58626e-05
5.33837e-05
5.93741e-05
5.93777e-05
5.93746e-05
6.58571e-05
5.93773e-05
5.61413e-05
5.48419e-05
6.22237e-05
6.0505e-05
5.48528e-05
6.22094e-05
5.61316e-05
5.72072e-05
6.02305e-05
6.47086e-05
6.40858e-05
6.02315e-05
6.40978e-05
5.72177e-05
5.72539e-05
6.41203e-05
6.47155e-05
6.0262e-05
6.0261e-05
6.41084e-05
5.72437e-05
5.60901e-05
6.04931e-05
5.48058e-05
6.21834e-05
5.47973e-05
6.21982e-05
5.60994e-05
5.61732e-05
5.48887e-05
6.22298e-05
6.05492e-05
5.61789e-05
5.48926e-05
6.22485e-05
5.73176e-05
6.03222e-05
6.47483e-05
6.41603e-05
5.73207e-05
6.03145e-05
6.41465e-05
5.72854e-05
6.41249e-05
6.02851e-05
6.47422e-05
5.72825e-05
6.02929e-05
6.41389e-05
5.62187e-05
6.05572e-05
5.49354e-05
6.22731e-05
5.62129e-05
5.49319e-05
6.22546e-05
5.61725e-05
5.48967e-05
6.2235e-05
6.05489e-05
5.61823e-05
5.48855e-05
6.22491e-05
5.73255e-05
6.032e-05
6.47517e-05
6.41636e-05
6.41521e-05
6.03202e-05
5.73147e-05
5.72789e-05
6.41305e-05
6.02904e-05
6.47454e-05
5.72901e-05
6.41423e-05
6.02915e-05
5.62224e-05
6.056e-05
5.49272e-05
6.22735e-05
5.49398e-05
6.22598e-05
5.62123e-05
6.58633e-05
5.33849e-05
5.93771e-05
5.93771e-05
6.58577e-05
5.93767e-05
5.93779e-05
5.73452e-05
6.03444e-05
6.41677e-05
6.47752e-05
6.03457e-05
5.73582e-05
6.41785e-05
5.62474e-05
6.06e-05
5.49832e-05
6.22818e-05
5.4967e-05
5.62596e-05
6.22943e-05
6.03483e-05
6.47802e-05
6.035e-05
2.10351e-05
3.66875e-05
3.669e-05
4.19427e-05
2.17936e-05
3.75935e-05
3.75956e-05
4.26624e-05
2.25704e-05
3.84733e-05
3.84753e-05
4.33618e-05
2.33617e-05
3.93262e-05
3.93281e-05
4.40352e-05
2.41635e-05
4.01511e-05
4.0153e-05
4.46836e-05
2.49719e-05
4.09477e-05
4.09497e-05
4.53082e-05
2.57833e-05
4.17155e-05
4.17174e-05
4.5915e-05
2.6594e-05
4.24547e-05
4.24565e-05
4.64897e-05
2.74007e-05
4.3165e-05
4.31667e-05
4.70449e-05
2.82003e-05
4.38467e-05
4.38482e-05
4.75765e-05
2.899e-05
4.44997e-05
4.45012e-05
4.80885e-05
2.97671e-05
4.51246e-05
4.5126e-05
4.85721e-05
3.05293e-05
4.57214e-05
4.57228e-05
4.90507e-05
3.12742e-05
4.62908e-05
4.6292e-05
4.94984e-05
3.20002e-05
4.68329e-05
4.68341e-05
4.9919e-05
3.27056e-05
4.73482e-05
4.73493e-05
5.03234e-05
3.33887e-05
4.78371e-05
4.78379e-05
5.07083e-05
3.40483e-05
4.82999e-05
4.83005e-05
5.1071e-05
3.46835e-05
4.87368e-05
4.87373e-05
5.14143e-05
3.52932e-05
4.91483e-05
4.91488e-05
5.17387e-05
3.58767e-05
4.95349e-05
4.95353e-05
5.20446e-05
3.64332e-05
4.9897e-05
4.98974e-05
5.2334e-05
3.69625e-05
5.0235e-05
5.02354e-05
5.2605e-05
3.74641e-05
5.05494e-05