/*--------------------------------*- C++ -*----------------------------------*\
| =========                 |                                                 |
| \\      /  F ield         | OpenFOAM: The Open Source CFD Toolbox           |
|  \\    /   O peration     | Version:  v1906                                 |
|   \\  /    A nd           | Web:      www.OpenFOAM.com                      |
|    \\/     M anipulation  |                                                 |
\*---------------------------------------------------------------------------*/
FoamFile
{
    version     2.0;
    format      ascii;
    class       volScalarField;
    location    "900";
    object      nut;
}
// * * * * * * * * * * * * * * * * * * * * * * * * * * * * * * * * * * * * * //

dimensions      [0 2 -1 0 0 0 0];


internalField   nonuniform List<scalar> 
171728
(
0.000136835
0.000138624
0.000138625
0.000136673
0.000138639
0.000138622
0.000138638
0.000138642
0.00013685
0.000138641
0.000138652
0.000136876
0.00012237
0.000122367
0.000122375
0.000122385
2.36122e-05
2.36118e-05
7.37302e-05
7.37358e-05
9.1829e-05
5.0017e-05
9.20557e-05
9.18335e-05
5.00163e-05
5.00071e-05
9.2058e-05
0.000120673
9.38211e-05
0.000133984
0.000133121
0.000121331
0.000120678
0.000137837
9.38191e-05
0.000133984
9.35402e-05
0.00013312
0.000121336
2.3612e-05
2.36076e-05
0.00013606
7.37383e-05
7.37247e-05
7.3629e-05
7.36289e-05
2.36126e-05
2.36083e-05
5.00143e-05
9.20652e-05
9.38199e-05
0.000133992
0.000121324
5.00099e-05
9.20544e-05
0.000133992
9.3797e-05
0.000121318
0.000120685
0.00013785
9.38138e-05
0.000133985
9.35412e-05
0.000133123
0.000121334
9.18308e-05
5.00151e-05
5.00065e-05
9.2058e-05
0.00012068
0.000137854
0.000133994
9.38142e-05
0.00013313
9.35337e-05
0.000121337
9.1826e-05
5.00121e-05
5.00025e-05
9.20633e-05
2.361e-05
7.37152e-05
7.37325e-05
2.3612e-05
0.000120684
0.000134009
9.38266e-05
0.000133148
0.000121331
0.000120686
0.000137864
0.000134014
9.38339e-05
0.000133152
9.353e-05
0.000121338
9.1828e-05
5.00153e-05
9.20648e-05
9.18329e-05
5.00159e-05
5.00001e-05
9.20691e-05
0.000135898
7.37312e-05
7.37369e-05
7.36351e-05
7.36314e-05
2.36116e-05
2.36073e-05
2.36113e-05
2.36068e-05
2.36104e-05
2.36094e-05
9.72613e-05
0.00011267
7.37031e-05
4.79344e-05
4.79367e-05
0.000112502
9.73104e-05
9.72923e-05
0.000112675
7.36958e-05
4.79362e-05
4.79245e-05
0.00011249
9.73499e-05
7.88227e-05
2.14921e-05
2.14902e-05
2.14904e-05
2.14878e-05
7.88388e-05
3.62679e-05
4.05368e-05
8.80226e-05
9.19317e-05
3.62646e-05
4.05359e-05
8.81137e-05
2.0102e-05
5.00102e-05
7.60361e-05
7.59926e-05
2.01041e-05
3.62675e-05
9.19531e-05
4.05395e-05
8.82109e-05
4.05407e-05
8.81221e-05
3.62722e-05
3.62685e-05
4.0537e-05
8.8045e-05
9.19336e-05
3.62676e-05
4.0536e-05
8.81224e-05
2.01031e-05
5.00147e-05
7.60596e-05
7.60199e-05
2.01051e-05
2.01037e-05
7.59726e-05
5.00096e-05
2.01017e-05
7.60137e-05
3.62713e-05
9.19566e-05
4.05396e-05
8.82239e-05
4.05408e-05
8.81384e-05
3.62724e-05
2.36099e-05
2.36097e-05
7.87959e-05
2.14865e-05
2.1489e-05
7.87777e-05
2.14885e-05
2.1491e-05
9.72742e-05
0.00011265
7.36946e-05
4.79347e-05
0.0001125
4.79247e-05
9.73318e-05
9.72638e-05
0.000112657
7.36965e-05
4.79381e-05
4.79369e-05
0.000112517
9.73116e-05
9.72048e-05
4.79172e-05
0.000112254
7.3672e-05
0.000112409
9.71477e-05
4.79262e-05
9.71864e-05
4.79286e-05
0.000112271
7.36574e-05
9.71373e-05
4.79308e-05
0.000112417
7.88213e-05
2.14902e-05
2.14927e-05
2.14881e-05
2.14906e-05
7.88386e-05
2.36105e-05
2.36103e-05
2.01033e-05
5.00104e-05
7.60611e-05
7.60146e-05
2.01053e-05
3.62689e-05
9.19511e-05
8.82296e-05
4.05437e-05
8.8134e-05
4.05361e-05
3.62738e-05
2.01016e-05
5.00069e-05
7.60313e-05
7.59895e-05
2.01037e-05
3.62683e-05
9.19611e-05
4.0539e-05
8.82042e-05
4.05404e-05
8.81246e-05
3.62698e-05
3.62689e-05
8.80455e-05
4.05362e-05
9.19358e-05
3.6268e-05
8.81213e-05
4.05353e-05
2.01038e-05
5.0014e-05
7.60589e-05
7.60211e-05
2.01057e-05
2.01043e-05
7.59742e-05
5.00084e-05
2.01024e-05
7.6013e-05
3.62717e-05
9.19584e-05
8.82182e-05
4.05389e-05
8.81464e-05
4.05402e-05
3.62717e-05
3.62684e-05
4.05321e-05
8.80256e-05
9.19403e-05
3.6264e-05
4.05392e-05
8.81224e-05
2.01025e-05
5.001e-05
7.60404e-05
7.59999e-05
2.01045e-05
2.01031e-05
7.59531e-05
5.00053e-05
2.01011e-05
7.59942e-05
3.62673e-05
9.19501e-05
4.05436e-05
8.8222e-05
4.05361e-05
8.81253e-05
3.62719e-05
2.36079e-05
9.72671e-05
0.000112649
7.36878e-05
4.79276e-05
0.000112485
4.79265e-05
9.73286e-05
9.72589e-05
0.000112678
7.37006e-05
4.79393e-05
4.79383e-05
0.000112501
9.73159e-05
7.88191e-05
2.14892e-05
2.14926e-05
2.14871e-05
2.14905e-05
7.88442e-05
2.36098e-05
3.62689e-05
8.80264e-05
4.05324e-05
9.1945e-05
3.62645e-05
8.81219e-05
4.05394e-05
2.01028e-05
5.00067e-05
7.60422e-05
7.59956e-05
2.01048e-05
2.01034e-05
7.59949e-05
3.62677e-05
9.19521e-05
8.82239e-05
4.05438e-05
8.8126e-05
4.05364e-05
3.62724e-05
3.62701e-05
8.8033e-05
4.05325e-05
9.19459e-05
3.62662e-05
8.81268e-05
4.05395e-05
2.01034e-05
5.00073e-05
7.6056e-05
7.60115e-05
2.01055e-05
2.01041e-05
7.59653e-05
5.0008e-05
2.0102e-05
7.60095e-05
3.62696e-05
9.19585e-05
8.82255e-05
4.05439e-05
8.81322e-05
4.05365e-05
3.62731e-05
7.88008e-05
2.1489e-05
2.14861e-05
7.87775e-05
2.14911e-05
2.14882e-05
9.72588e-05
0.000112664
7.37034e-05
4.79426e-05
0.000112506
4.7933e-05
9.73173e-05
9.72803e-05
0.00011266
7.36972e-05
4.79342e-05
0.000112499
4.79243e-05
9.73299e-05
9.71904e-05
4.79293e-05
0.000112256
7.36636e-05
9.71323e-05
0.000112429
4.79321e-05
9.72045e-05
4.79168e-05
0.000112249
7.36713e-05
9.71537e-05
0.000112424
4.79257e-05
7.88218e-05
2.14928e-05
2.14899e-05
2.14907e-05
2.14878e-05
7.88398e-05
2.36095e-05
2.36093e-05
2.36091e-05
2.3609e-05
0.000119502
0.000136575
0.000129817
0.000129822
0.00012968
0.000129683
0.000119605
0.000119502
0.000136679
0.000129814
0.000129805
0.000129694
0.000129703
0.000119598
0.000119479
0.000136553
0.000129917
0.000129915
0.000129615
0.000129619
0.000119622
0.000119487
0.000136565
0.000129929
0.000129904
0.000129644
0.000129665
0.000119631
0.000120253
0.000120257
0.000119985
0.000132087
0.000131847
0.000121706
0.00012025
0.000120254
0.000119983
0.000119986
0.000132086
0.000131846
0.000120257
0.000120267
0.00012
0.000132085
0.000131844
0.000121724
0.000120259
0.00012027
0.000119991
0.000120002
0.000132086
0.000131846
0.000132388
0.000117036
0.000134018
0.000120986
0.000132113
0.000117297
0.000134463
0.000128397
0.000122127
9.36807e-05
0.000107743
0.000122001
0.000107536
0.000128795
0.000132646
0.000121017
0.0001176
0.000135075
0.000117335
0.000134576
0.000133037
0.000132475
0.000117046
0.000134019
0.000120991
0.000132071
0.000117312
0.000134471
0.000128364
0.000122169
9.36907e-05
0.000107751
0.000107541
0.000121979
0.00012882
0.000128299
0.00010731
0.000121627
9.36673e-05
0.000127943
0.000107519
0.000121787
0.000132592
0.000121024
0.000117617
0.000135081
0.000117345
0.000134582
0.000133055
0.000119322
0.000136072
0.000129245
0.00012925
0.000129381
0.000119237
0.000129376
0.000128491
0.000122109
9.3686e-05
0.000107736
0.000122004
0.00010755
0.000128706
0.000132765
0.000121031
0.000117617
0.000134768
0.000117346
0.000134712
0.000132937
0.000128479
0.000122098
9.36841e-05
0.000107735
0.000107527
0.000121982
0.000128694
0.00013279
0.00012103
0.000134767
0.000117599
0.000134706
0.000117333
0.000132942
0.000132289
0.000117044
0.000134232
0.000120991
0.000132291
0.000117311
0.00013427
0.000128546
0.000122125
9.36973e-05
0.000107753
0.000122037
0.000107548
0.000128585
0.000128147
0.000107319
0.000121673
9.36627e-05
0.000128104
0.000121773
0.000107513
0.000132794
0.000121026
0.00011761
0.000134945
0.000117351
0.00013476
0.000132759
0.00013236
0.000134112
0.000117033
0.000120991
0.000132223
0.000134398
0.000117308
0.000128471
0.000122132
9.36928e-05
0.000107731
0.000107543
0.000121988
0.000128697
0.000128211
0.000107311
0.000121608
9.36654e-05
0.000128034
0.000107503
0.000121796
0.00013274
0.000121023
0.000135031
0.000117612
0.000134665
0.000117338
0.000132903
0.000132391
0.000134082
0.000117039
0.000120994
0.000132199
0.000134454
0.000117306
0.000128377
0.00012221
9.3679e-05
0.000107734
0.000121968
0.000107537
0.000128811
0.000128311
0.000107514
0.000132694
0.00012103
0.000134928
0.000117606
0.000134642
0.000117342
0.000132972
0.000132315
0.000134146
0.000117048
0.000120995
0.000132308
0.00013441
0.00011731
0.000128549
0.000122157
9.36763e-05
0.000107748
0.000107542
0.000122011
0.000128587
0.000128149
0.00010731
0.000121666
9.36782e-05
0.000128107
0.000107516
0.000121746
0.000132811
0.000121028
0.000135056
0.000117608
0.000134648
0.000117353
0.000132904
0.000119348
0.000136197
0.000129208
0.000129228
0.000119218
0.000129444
0.00012943
0.000203424
0.000198751
0.000198742
0.000180673
0.000181641
0.000180599
0.000181541
0.000198718
0.00019872
0.000199776
0.000199777
0.000180686
0.000181477
0.000198732
0.000198708
0.00019979
0.000199765
0.000198727
0.000199809
0.000199784
0.000180672
0.000181464
0.000198741
0.0001998
0.000199799
0.000181475
0.000200128
0.000200143
9.9714e-05
5.07154e-05
5.07219e-05
9.96511e-05
2.38792e-05
2.38836e-05
9.97229e-05
5.07124e-05
5.07188e-05
9.96624e-05
0.000203433
0.000203431
0.00020344
0.000205315
0.000205324
0.000205322
0.000205331
0.000143714
0.000103351
0.000207735
0.000199107
0.000103438
0.000208202
0.000143499
2.3877e-05
2.38814e-05
0.000143706
0.000207732
0.000103353
0.000199098
0.000208199
0.000103439
0.000143492
7.7813e-05
7.78115e-05
0.000180991
7.78377e-05
7.7837e-05
7.78757e-05
7.78742e-05
2.38799e-05
2.38842e-05
2.38786e-05
2.38829e-05
7.7815e-05
7.7811e-05
0.000181063
7.78415e-05
7.78359e-05
2.38889e-05
2.38845e-05
2.38875e-05
2.38832e-05
0.000181073
7.78728e-05
7.78672e-05
7.78464e-05
7.78434e-05
9.97199e-05
5.07158e-05
5.07222e-05
9.96514e-05
0.000143696
0.000103353
0.00020772
0.000199075
0.000103437
0.000208187
0.000143503
0.000143707
0.00010335
0.000207722
0.000199077
0.000103436
0.00020819
0.000143496
9.97134e-05
5.07328e-05
5.07256e-05
9.97735e-05
9.97137e-05
5.07325e-05
5.07262e-05
9.97783e-05
0.000143719
0.000199428
0.000103516
0.000209105
0.000103435
0.000208651
0.000143903
0.000143711
0.000199431
0.000103515
0.000209108
0.000103432
0.000208654
0.000143906
7.78111e-05
7.78057e-05
0.000181002
7.78372e-05
7.78356e-05
2.38797e-05
2.38842e-05
2.38882e-05
2.38839e-05
0.00018116
7.78683e-05
7.78663e-05
7.78427e-05
7.78381e-05
2.38888e-05
2.38843e-05
0.000143701
0.000103343
0.000207723
0.000199088
0.00010343
0.000208186
0.000143508
9.97188e-05
5.07082e-05
5.07146e-05
9.96582e-05
0.000143697
0.000207718
0.000103332
0.000199065
0.000208185
0.000103416
0.000143504
9.97244e-05
5.07298e-05
5.07226e-05
9.97825e-05
0.000143725
0.000199443
0.000103508
0.000209105
0.000103426
0.000208655
0.000143908
9.97203e-05
5.07249e-05
5.07186e-05
9.97785e-05
0.000143721
0.000199419
0.000209104
0.000103495
0.00020865
0.000103414
0.000143904
9.97213e-05
5.07125e-05
5.07238e-05
9.96525e-05
0.000143703
0.000207732
0.000103351
0.000199084
0.000208199
0.000103435
0.000143505
9.97183e-05
5.07115e-05
5.07179e-05
9.96496e-05
0.000143716
0.000199462
0.000103516
0.000209121
0.000103433
0.000208666
0.000143921
9.97148e-05
5.07334e-05
5.0723e-05
9.97812e-05
0.000143722
0.000199438
0.000209118
0.000103514
0.000208663
0.000103433
0.000143909
9.9712e-05
5.07282e-05
5.07218e-05
9.97776e-05
7.77958e-05
7.78133e-05
0.000180988
7.78214e-05
7.78406e-05
2.3879e-05
2.38833e-05
2.3886e-05
2.38817e-05
0.000181146
7.7852e-05
7.78715e-05
7.78282e-05
7.78454e-05
2.38879e-05
2.38836e-05
0.0001437
0.000207733
0.00010335
0.000199098
0.000208199
0.000103434
0.000143505
9.97162e-05
5.07114e-05
5.07179e-05
9.96481e-05
9.97197e-05
5.07117e-05
5.07182e-05
9.9658e-05
0.000143709
0.000199453
0.000209118
0.000103517
0.000208663
0.000103435
0.000143914
0.000143722
0.000199452
0.000209118
0.000103513
0.000208664
0.000103432
0.000143907
9.97105e-05
5.07282e-05
5.07217e-05
9.97757e-05
9.97202e-05
5.07291e-05
5.0722e-05
9.97793e-05
2.38787e-05
2.3883e-05
2.38783e-05
2.38826e-05
0.000181147
7.78689e-05
7.78681e-05
7.78453e-05
7.7844e-05
2.38876e-05
2.38834e-05
2.38872e-05
2.3883e-05
0.00020957
0.000103511
0.000143931
5.07321e-05
9.97739e-05
0.00010351
5.07297e-05
2.3888e-05
2.38875e-05
3.66931e-05
4.10402e-05
9.43506e-05
9.96827e-05
4.10338e-05
9.43242e-05
3.67002e-05
2.03078e-05
5.07168e-05
7.89838e-05
7.89942e-05
2.03057e-05
2.03076e-05
7.90062e-05
5.07205e-05
7.8996e-05
2.03097e-05
3.66964e-05
9.96834e-05
4.10298e-05
9.42993e-05
4.10358e-05
9.43265e-05
3.66893e-05
2.38812e-05
2.38816e-05
3.6699e-05
9.43642e-05
4.1037e-05
9.96939e-05
9.434e-05
4.1037e-05
3.6698e-05
2.0309e-05
5.07136e-05
7.90016e-05
7.90197e-05
2.03069e-05
2.03088e-05
7.90317e-05
5.07175e-05
7.90138e-05
2.03109e-05
3.66943e-05
9.96926e-05
9.43155e-05
4.10325e-05
9.43406e-05
4.10329e-05
3.66954e-05
2.3879e-05
2.38794e-05
8.1446e-05
2.17029e-05
2.16999e-05
2.17009e-05
2.16979e-05
8.1452e-05
0.000105057
0.000128364
7.78215e-05
4.86298e-05
0.000128425
4.86296e-05
0.000105037
0.000105065
0.000128347
7.78204e-05
4.86204e-05
0.000128411
4.86202e-05
0.000105045
0.000105069
4.86344e-05
7.78294e-05
0.000128498
0.000128438
4.86345e-05
0.00010509
0.000105078
4.8625e-05
7.7828e-05
0.000128484
0.000128421
4.8625e-05
0.000105098
8.14416e-05
2.1699e-05
2.1696e-05
2.1701e-05
2.1698e-05
8.14357e-05
0.000105185
0.000128652
4.86491e-05
7.78834e-05
0.000105163
0.000128708
4.86478e-05
0.000105192
0.000128634
4.86396e-05
7.78828e-05
0.000105171
0.000128693
4.86384e-05
8.14818e-05
2.17065e-05
2.17035e-05
8.14754e-05
2.17085e-05
2.17055e-05
2.38819e-05
2.38822e-05
2.38806e-05
2.38809e-05
8.14451e-05
2.17029e-05
2.16996e-05
2.17009e-05
2.16976e-05
8.14514e-05
0.000105061
0.000128363
7.78248e-05
4.86304e-05
4.86306e-05
0.000128428
0.000105039
0.000105062
0.000128345
7.78196e-05
4.86189e-05
4.86188e-05
0.000128409
0.000105043
0.000105072
4.86371e-05
7.78305e-05
0.000128502
4.86327e-05
0.000105094
0.000128437
0.000105075
4.86236e-05
7.78275e-05
0.000128482
4.86236e-05
0.000105095
0.000128419
8.1441e-05
2.1699e-05
2.16957e-05
2.1701e-05
2.16977e-05
8.14348e-05
2.38868e-05
2.38865e-05
2.38855e-05
2.38852e-05
8.14617e-05
2.17028e-05
2.16995e-05
8.14552e-05
2.17048e-05
2.17015e-05
0.000105135
0.000128642
7.78617e-05
4.86481e-05
4.86407e-05
0.000128581
0.000105157
0.000105139
0.000128623
7.78588e-05
4.86331e-05
4.86334e-05
0.000128562
0.000105158
0.000105125
4.86363e-05
0.00012851
7.7857e-05
0.000105104
4.86428e-05
0.000128573
0.000105126
4.86285e-05
0.000128491
7.7852e-05
0.000105107
4.86288e-05
0.000128553
8.14651e-05
2.17066e-05
2.17033e-05
2.17046e-05
2.17014e-05
8.14716e-05
3.6699e-05
4.10374e-05
9.4368e-05
9.96825e-05
4.10374e-05
9.43343e-05
3.66981e-05
2.03087e-05
5.07171e-05
7.90028e-05
7.9022e-05
2.03066e-05
2.03086e-05
7.9034e-05
5.07209e-05
7.9015e-05
2.03106e-05
3.66944e-05
9.9689e-05
4.10329e-05
9.43102e-05
4.10333e-05
9.43437e-05
3.66954e-05
3.6704e-05
4.10384e-05
9.43484e-05
9.97445e-05
3.6697e-05
4.10444e-05
9.43749e-05
2.03114e-05
5.07307e-05
7.90294e-05
2.03135e-05
7.90195e-05
2.03116e-05
7.90079e-05
5.07275e-05
2.03095e-05
7.90182e-05
3.67004e-05
9.97434e-05
4.10486e-05
9.43978e-05
3.67075e-05
4.10425e-05
9.4372e-05
3.67017e-05
4.10414e-05
9.43591e-05
9.975e-05
3.67025e-05
4.10418e-05
9.43923e-05
2.03124e-05
5.07314e-05
7.90572e-05
7.90387e-05
2.03144e-05
2.03125e-05
7.9027e-05
5.07277e-05
2.03105e-05
7.90458e-05
3.67065e-05
9.97448e-05
4.10458e-05
9.44154e-05
4.10457e-05
9.43829e-05
3.67056e-05
8.14453e-05
2.17003e-05
2.17029e-05
2.16983e-05
2.17009e-05
8.14516e-05
0.000105065
0.000128347
7.78207e-05
4.86208e-05
4.86208e-05
0.000128407
0.000105046
0.000105063
0.000128372
7.78193e-05
4.86255e-05
0.000128427
4.86329e-05
0.00010504
0.000105078
4.86258e-05
7.78268e-05
0.00012848
4.86252e-05
0.000128421
0.000105097
0.000105072
4.86377e-05
7.78223e-05
0.000128501
0.000128446
4.86305e-05
0.000105095
8.14411e-05
2.16964e-05
2.1699e-05
2.16984e-05
2.1701e-05
8.14349e-05
2.38819e-05
2.3882e-05
2.38862e-05
2.38859e-05
8.14619e-05
2.17002e-05
2.17028e-05
8.14553e-05
2.17022e-05
2.17048e-05
0.00010514
0.000128621
7.78581e-05
4.86381e-05
0.000128564
4.86312e-05
0.000105161
0.000105136
0.000128642
7.78535e-05
4.86469e-05
4.86396e-05
0.000128589
0.000105158
0.00010513
4.86297e-05
0.000128493
7.78531e-05
0.000128551
0.00010511
4.86321e-05
0.000105128
4.86352e-05
0.000128518
7.78508e-05
0.000105105
4.86421e-05
0.000128571
8.14652e-05
2.17041e-05
2.17066e-05
2.1702e-05
2.17046e-05
8.14718e-05
2.38867e-05
2.38865e-05
3.66965e-05
4.10368e-05
9.43475e-05
9.96897e-05
4.10368e-05
9.43217e-05
3.66953e-05
2.03073e-05
5.07095e-05
7.89781e-05
7.89889e-05
2.03052e-05
2.03071e-05
7.90011e-05
5.07133e-05
7.89902e-05
2.03092e-05
3.66917e-05
9.96882e-05
4.10323e-05
9.42967e-05
4.10327e-05
9.43233e-05
3.66928e-05
3.67017e-05
9.43642e-05
4.1041e-05
9.97538e-05
3.67025e-05
9.43889e-05
4.10414e-05
2.03126e-05
5.07276e-05
7.90552e-05
2.03147e-05
7.90372e-05
2.03128e-05
7.90258e-05
5.07244e-05
2.03107e-05
7.90436e-05
3.67065e-05
9.97545e-05
9.44119e-05
4.10456e-05
3.67055e-05
9.4388e-05
4.10454e-05
3.6699e-05
4.10408e-05
9.43459e-05
9.97495e-05
3.67e-05
4.10412e-05
9.43719e-05
2.03109e-05
5.07238e-05
7.90245e-05
7.90136e-05
2.0313e-05
2.03111e-05
7.90022e-05
5.07201e-05
2.0309e-05
7.9013e-05
3.6704e-05
9.97504e-05
4.10453e-05
9.43951e-05
4.10452e-05
9.43699e-05
3.67028e-05
3.66956e-05
9.43705e-05
4.10399e-05
9.96836e-05
9.43361e-05
4.10335e-05
3.67026e-05
2.03095e-05
5.07186e-05
7.9004e-05
7.90235e-05
2.03074e-05
2.03093e-05
7.90355e-05
5.07178e-05
7.90163e-05
2.03114e-05
3.66988e-05
9.96903e-05
9.4312e-05
4.10295e-05
9.43462e-05
4.10355e-05
3.66917e-05
3.66974e-05
4.10398e-05
9.43556e-05
9.96808e-05
4.10334e-05
9.4331e-05
3.66965e-05
2.03082e-05
5.07128e-05
7.89839e-05
7.90027e-05
2.03062e-05
2.03081e-05
7.90147e-05
5.07165e-05
7.89961e-05
2.03101e-05
3.66928e-05
9.96873e-05
4.10294e-05
9.43062e-05
4.10354e-05
9.43315e-05
3.66938e-05
3.67063e-05
9.4361e-05
4.10381e-05
9.97516e-05
3.66995e-05
9.43947e-05
4.10441e-05
2.03131e-05
5.07281e-05
7.90586e-05
7.90399e-05
2.03152e-05
2.03133e-05
7.90282e-05
5.07285e-05
2.03112e-05
7.90472e-05
3.6703e-05
9.97451e-05
9.44185e-05
4.10486e-05
9.43849e-05
4.10424e-05
3.67099e-05
3.67001e-05
4.1038e-05
9.43551e-05
9.97486e-05
3.67009e-05
4.1044e-05
9.438e-05
2.03119e-05
5.0727e-05
7.90379e-05
7.90198e-05
2.03139e-05
2.0312e-05
7.90081e-05
5.07234e-05
2.031e-05
7.90265e-05
3.67049e-05
9.97427e-05
4.10484e-05
9.44032e-05
4.10423e-05
9.4379e-05
3.67039e-05
8.1445e-05
2.16992e-05
2.17027e-05
2.16972e-05
2.17007e-05
8.1452e-05
0.000105057
0.000128339
7.78051e-05
4.86182e-05
4.8618e-05
0.000128392
0.000105036
0.000105058
0.000128365
7.7824e-05
4.86302e-05
0.000128429
4.86304e-05
0.000105038
0.000105069
4.86228e-05
7.78123e-05
0.000128465
4.86229e-05
0.000128413
0.000105089
0.000105071
4.86365e-05
7.78295e-05
0.000128502
0.000128439
4.86332e-05
0.000105091
8.14416e-05
2.16953e-05
2.16988e-05
2.16974e-05
2.17008e-05
8.14345e-05
2.3881e-05
2.38813e-05
2.3884e-05
2.38837e-05
8.1462e-05
2.16991e-05
2.17026e-05
8.14552e-05
2.17011e-05
2.17046e-05
0.000105133
0.000128606
7.78438e-05
4.86323e-05
0.000128556
4.86327e-05
0.000105152
0.000105134
0.000128644
7.78609e-05
4.86478e-05
4.86404e-05
0.000128583
0.000105154
0.000105121
4.86278e-05
0.000128485
7.78372e-05
0.000128536
0.000105101
4.8628e-05
0.000105122
4.86367e-05
0.000128512
7.7856e-05
0.000105103
4.86426e-05
0.000128573
8.14651e-05
2.1703e-05
2.17065e-05
2.1701e-05
2.17044e-05
8.14719e-05
2.38859e-05
2.38856e-05
3.66934e-05
9.43546e-05
4.10399e-05
9.96793e-05
9.43204e-05
4.10334e-05
3.67006e-05
2.03084e-05
5.07127e-05
7.89838e-05
7.90027e-05
2.03064e-05
2.03083e-05
7.90148e-05
5.07165e-05
7.8996e-05
2.03104e-05
3.66968e-05
9.96854e-05
9.42961e-05
4.10294e-05
9.43305e-05
4.10355e-05
3.66895e-05
3.66952e-05
9.43577e-05
4.10403e-05
9.96895e-05
9.4331e-05
4.10339e-05
3.67024e-05
2.03089e-05
5.07131e-05
7.89985e-05
7.9009e-05
2.03068e-05
2.03087e-05
7.9021e-05
5.07168e-05
7.90107e-05
2.03108e-05
3.66985e-05
9.9689e-05
9.43061e-05
4.10299e-05
9.43336e-05
4.10359e-05
3.66914e-05
3.67044e-05
9.43453e-05
4.10379e-05
9.97467e-05
3.66973e-05
9.43793e-05
4.10442e-05
2.03121e-05
5.07269e-05
7.9038e-05
7.90196e-05
2.03141e-05
2.03123e-05
7.9008e-05
5.07233e-05
2.03102e-05
7.90266e-05
3.67008e-05
9.97405e-05
9.44021e-05
4.10484e-05
9.4369e-05
4.1042e-05
3.6708e-05
3.67062e-05
9.43553e-05
4.10384e-05
9.97503e-05
3.66991e-05
9.43821e-05
4.10446e-05
2.03125e-05
5.07271e-05
7.90443e-05
7.90342e-05
2.03146e-05
2.03127e-05
7.90226e-05
5.07239e-05
2.03106e-05
7.90331e-05
3.67025e-05
9.97501e-05
9.44051e-05
4.10488e-05
9.4379e-05
4.10425e-05
3.67097e-05
2.38807e-05
2.3881e-05
2.38803e-05
2.38806e-05
8.14621e-05
2.17028e-05
2.16998e-05
8.1456e-05
2.17048e-05
2.17018e-05
0.000105133
0.000128639
7.78608e-05
4.86442e-05
0.000105152
0.000128582
4.86442e-05
0.000105141
0.000128625
7.78594e-05
4.86348e-05
0.00010516
0.000128565
4.86347e-05
0.000105121
4.86393e-05
0.000128511
7.78538e-05
0.000105101
0.00012857
4.86397e-05
0.000105129
4.86298e-05
0.000128493
7.78526e-05
0.00010511
0.000128555
4.86303e-05
8.14659e-05
2.17066e-05
2.17036e-05
8.14722e-05
2.17046e-05
2.17016e-05
2.38857e-05
2.38853e-05
2.38852e-05
2.38849e-05
2.03158e-05
7.90311e-05
5.07328e-05
2.03138e-05
7.90488e-05
3.67085e-05
9.98034e-05
4.10461e-05
9.44027e-05
3.67086e-05
4.1053e-05
9.44251e-05
5.07359e-05
2.38899e-05
2.38895e-05
0.000199187
0.000199186
0.00020406
0.000199996
0.000199995
0.000189286
0.000188264
0.000137901
0.000160915
0.0001609
0.00018075
0.000160966
0.000160955
0.000137861
0.00013824
0.000161548
0.000161533
0.000181684
0.000138202
0.000161588
0.000161571
0.000137902
0.000160895
0.000160883
0.000180824
0.000160984
0.000160972
0.000137858
0.000138118
0.000181319
0.000161458
0.000161443
0.000161372
0.000161363
0.00013816
0.000137904
0.000160902
0.00016092
0.000180763
0.000160976
0.000160958
0.000137867
0.000138125
0.000181407
0.00016143
0.000161451
0.000161373
0.000161394
0.00013816
0.000137896
0.000160898
0.000160912
0.000180749
0.000160965
0.000160952
0.000137856
0.000138115
0.000181393
0.00016142
0.000161447
0.000161363
0.000161391
0.000138151
0.00013812
0.000181395
0.000161449
0.000161433
0.000138158
0.000161392
0.000161373
0.00019919
0.000199196
0.000204069
0.000199999
0.000200005
0.00018929
0.000188267
0.000199194
0.0001992
0.000204067
0.000200003
0.00020001
0.000189296
0.000188273
0.000199204
0.000199202
0.000204076
0.000200013
0.000200012
0.0001893
0.000188277
0.000204692
0.0002016
0.000201598
0.000200802
0.000200801
0.000190308
0.000191326
0.000204701
0.000201603
0.000201609
0.000200805
0.000200811
0.000190311
0.000191329
0.000204699
0.000201606
0.000201613
0.000200809
0.000200815
0.000190317
0.000191335
0.000204708
0.000201616
0.000201615
0.000200819
0.000200818
0.000190321
0.000191339
0.000170419
0.000137233
0.000175655
0.000143609
0.000137136
0.00017552
0.000170556
0.000159997
0.000146885
0.000103397
0.000122356
0.000146962
0.000122426
0.000159863
0.000160019
0.000122492
0.000103393
0.000147085
0.000147011
0.000122423
0.00016016
0.000170341
0.000143606
0.000137044
0.000175289
0.000137141
0.000175425
0.00017022
0.000170416
0.000175649
0.000137221
0.000143601
0.000175516
0.000137124
0.000170541
0.00015999
0.000146881
0.000103398
0.000122349
0.000146958
0.000122419
0.000159858
0.000160015
0.000122485
0.000103395
0.000147081
0.000147007
0.000122415
0.000160153
0.000170328
0.000143599
0.000175287
0.000137032
0.000175419
0.000137129
0.000170215
0.000137949
0.000180913
0.000161127
0.000161118
0.000161077
0.00016106
0.000137988
0.000137947
0.000180842
0.000161142
0.000161136
0.000137989
0.000161057
0.00016104
0.000138075
0.000181295
0.000161213
0.000161197
0.000138033
0.000161297
0.000161287
0.000170429
0.000137206
0.000175584
0.000143613
0.000137133
0.000175568
0.000170477
0.000159932
0.000146893
0.000103396
0.000122348
0.000122407
0.00014693
0.000159896
0.000160053
0.000122473
0.000103395
0.000147055
0.000122414
0.000147018
0.000160088
0.000170276
0.000143589
0.00013704
0.000175333
0.000137115
0.00017536
0.000170229
0.000170415
0.000137225
0.000175636
0.000143604
0.000137127
0.000175513
0.000170527
0.000159976
0.000146864
0.000103395
0.000122348
0.000122417
0.000146941
0.000159847
0.000160006
0.000122483
0.000103391
0.000147064
0.000122414
0.000160137
0.00014699
0.000170319
0.000143599
0.000137036
0.000175288
0.000137132
0.000175411
0.000170213
0.000170686
0.000137224
0.000175782
0.000143802
0.000170631
0.000137298
0.000175798
0.00016037
0.000147295
0.000103475
0.000122602
0.000147261
0.000122545
0.000160398
0.000160239
0.00012248
0.000147138
0.000103477
0.000147177
0.000160213
0.000122539
0.000170827
0.000143823
0.000137386
0.000176005
0.000137314
0.000175998
0.000170883
0.000170736
0.00013722
0.000175723
0.00014381
0.000170608
0.000137316
0.000175829
0.000160308
0.000147305
0.000103471
0.000122613
0.000122545
0.000147233
0.000160466
0.000160303
0.000122481
0.000147111
0.000103476
0.000160163
0.000122548
0.000147183
0.000170788
0.000143823
0.000137404
0.000176024
0.00013731
0.000175966
0.00017094
0.000137954
0.000180924
0.000161121
0.000161138
0.000161081
0.000161062
0.000137992
0.000138077
0.000181246
0.000161217
0.000161236
0.000161279
0.000138041
0.000161297
0.000170432
0.000137215
0.00017559
0.000143618
0.000137141
0.000175576
0.0001705
0.000159931
0.000146863
0.000103389
0.000122351
0.000122411
0.000146938
0.000159892
0.00016005
0.000122477
0.000103385
0.000147061
0.000122418
0.000146989
0.000160089
0.000170305
0.000143595
0.000137048
0.000175341
0.000137124
0.000175363
0.000170228
0.000170424
0.000175586
0.000137202
0.000143614
0.000175572
0.000137128
0.000170491
0.000159917
0.000146868
0.000103375
0.000122333
0.000122397
0.000146903
0.00015988
0.000160038
0.000122463
0.000103373
0.000147029
0.000122401
0.000160074
0.000146993
0.000170296
0.00014359
0.000175338
0.000137034
0.000175359
0.00013711
0.00017022
0.000170695
0.000137234
0.000175788
0.000143808
0.000170633
0.000137308
0.000175804
0.000160368
0.000147302
0.000103465
0.000122607
0.000147231
0.000122549
0.000160395
0.000160239
0.000122484
0.000147109
0.00010347
0.00014718
0.000160209
0.000122543
0.000170832
0.000143829
0.000137395
0.000176009
0.000137323
0.000176004
0.000170893
0.000170686
0.000175785
0.00013722
0.000143803
0.000170625
0.0001758
0.000137294
0.000160356
0.000147268
0.000103454
0.000122592
0.000122531
0.000147238
0.00016038
0.000160225
0.000122465
0.000147113
0.000103456
0.000160198
0.000122529
0.00014715
0.000170824
0.000143825
0.000176006
0.000137382
0.000176
0.00013731
0.000170881
0.000170441
0.000175591
0.000137212
0.000143615
0.000175573
0.000137138
0.000170482
0.000159939
0.000146895
0.000103395
0.000122349
0.000146932
0.000122413
0.000159903
0.000160059
0.000122479
0.000103393
0.000147057
0.000147019
0.000122417
0.000160094
0.000170285
0.000143595
0.000175339
0.000137046
0.00017537
0.000137121
0.000170241
0.000170764
0.000137229
0.000175733
0.000143819
0.000170604
0.000137324
0.000175868
0.000160315
0.000147326
0.000103473
0.000122621
0.00016048
0.000147254
0.000122554
0.000160326
0.000122489
0.000147132
0.000103477
0.000160172
0.000147204
0.000122557
0.000170781
0.000143821
0.000137414
0.000176084
0.000170951
0.000137319
0.00017595
0.000170691
0.000175788
0.00013723
0.000143808
0.000170642
0.000175808
0.000137304
0.000160376
0.000147296
0.000103472
0.000122607
0.000122548
0.000147263
0.000160399
0.000160244
0.000122482
0.00014714
0.000103475
0.000160219
0.000122544
0.000147179
0.000170841
0.000143826
0.000176016
0.000137392
0.000176003
0.00013732
0.000170888
0.000137944
0.00018091
0.000161106
0.000161124
0.000161072
0.000161049
0.000137983
0.000138069
0.000181232
0.000161207
0.000161233
0.000161267
0.00013803
0.000161288
0.000170433
0.000175592
0.000137212
0.000143616
0.000175563
0.000137138
0.000170506
0.000159933
0.000146886
0.000103393
0.000122349
0.000146923
0.00012241
0.000159896
0.000160054
0.000122477
0.000103392
0.000147048
0.000147011
0.000122416
0.000160091
0.000170309
0.000143593
0.000175328
0.000137045
0.000175373
0.000137121
0.000170229
0.000170753
0.000175729
0.000137217
0.000143812
0.000170604
0.000175863
0.000137313
0.00016031
0.000147322
0.000103475
0.000122614
0.000160484
0.00014725
0.000122546
0.00016032
0.000122481
0.000147128
0.000103478
0.000160168
0.0001472
0.00012255
0.000170778
0.000143814
0.000176079
0.000137401
0.000170953
0.000175946
0.000137307
0.0001707
0.000175782
0.00013723
0.000143806
0.000170634
0.000175809
0.000137304
0.000160372
0.000147288
0.000103471
0.000122606
0.000122546
0.000147255
0.000160399
0.000160241
0.000122482
0.000147131
0.000103474
0.000160214
0.000122542
0.00014717
0.000170833
0.000143827
0.000176017
0.000137392
0.000175999
0.00013732
0.000170895
0.000138074
0.000181238
0.000161236
0.000161215
0.000138035
0.00016129
0.000161277
0.000160548
0.000147382
0.000122611
0.000103552
0.000147422
0.000160536
0.000122667
0.000171077
0.000144009
0.000176228
0.00013741
0.000176222
0.000171031
0.000137477
0.000147373
0.000103551
0.000147416
0.000123042
0.000139424
0.000139426
0.000137124
0.00012584
0.000142549
0.00014255
0.000139553
0.000128797
0.000145637
0.000145637
0.000141945
0.000131893
0.000148681
0.000148682
0.000144271
0.000135106
0.000151675
0.000151676
0.000146534
0.000138415
0.000154614
0.000154615
0.000148743
0.000141803
0.000157492
0.000157493
0.000150934
0.00014525
0.00016031
0.00016031
0.000153016
0.00014874
0.000163063
0.000163062
0.000155062
0.000152258
0.00016575
0.000165748
0.000157041
0.00015579
0.000168369
0.000168367
0.000158977
0.000159322
0.000170919
0.000170916
0.000160811
0.000162842
0.000173397
0.000173395
0.000162697
0.000166337
0.000175805
0.000175802
0.000164454
0.000169797
0.00017814
0.000178136
0.000166112
0.000173215
0.0001804
0.000180395
0.000167737
0.00017658
0.000182585
0.000182579
0.000169307
0.000179886
0.000184693
0.000184687
0.000170801
0.000183124
0.000186724
0.000186717
0.000172237
0.000186289
0.000188678
0.00018867
0.000173616
0.000189373
0.000190553
0.000190545
0.000174938
0.000192372
0.000192349
0.000192342
0.000176217
0.00019528
0.000194068
0.00019406
0.000177436
0.000198093
0.000195708