/*--------------------------------*- C++ -*----------------------------------*\
| =========                 |                                                 |
| \\      /  F ield         | OpenFOAM: The Open Source CFD Toolbox           |
|  \\    /   O peration     | Version:  v1906                                 |
|   \\  /    A nd           | Web:      www.OpenFOAM.com                      |
|    \\/     M anipulation  |                                                 |
\*---------------------------------------------------------------------------*/
FoamFile
{
    version     2.0;
    format      ascii;
    class       volScalarField;
    location    "750";
    object      epsilon;
}
// * * * * * * * * * * * * * * * * * * * * * * * * * * * * * * * * * * * * * //

dimensions      [0 2 -3 0 0 0 0];


internalField   nonuniform List<scalar> 
43248
(
1.1483e-06
8.63046e-07
8.62985e-07
1.14826e-06
8.62791e-07
8.6303e-07
8.6279e-07
8.63056e-07
1.14854e-06
8.62904e-07
8.62941e-07
1.14877e-06
3.19693e-07
3.19665e-07
3.1974e-07
3.19759e-07
1.84273e-05
1.8429e-05
5.46213e-06
5.46362e-06
4.09156e-06
9.16112e-06
4.09376e-06
4.09163e-06
9.16206e-06
9.15559e-06
4.09392e-06
2.10219e-06
3.47506e-06
5.58176e-07
5.52269e-07
2.10686e-06
2.10224e-06
8.56908e-07
3.4753e-06
5.58215e-07
3.47226e-06
5.5232e-07
2.10696e-06
1.84289e-05
1.84185e-05
1.14423e-06
5.46375e-06
5.46198e-06
5.4613e-06
5.45943e-06
1.84263e-05
1.84159e-05
9.16269e-06
4.09396e-06
3.47518e-06
5.58274e-07
2.10696e-06
9.16248e-06
4.09352e-06
5.58279e-07
3.47545e-06
2.10697e-06
2.10239e-06
8.56718e-07
3.47457e-06
5.58212e-07
3.47188e-06
5.52323e-07
2.10693e-06
4.09187e-06
9.16197e-06
9.15546e-06
4.09386e-06
2.10232e-06
8.56973e-07
5.58281e-07
3.47496e-06
5.52388e-07
3.47164e-06
2.10691e-06
4.09178e-06
9.16195e-06
9.15545e-06
4.09356e-06
1.84295e-05
5.46374e-06
5.46215e-06
1.84281e-05
2.10239e-06
5.58317e-07
3.47506e-06
5.52411e-07
2.10702e-06
2.10245e-06
8.56864e-07
5.58345e-07
3.47574e-06
5.52454e-07
3.47211e-06
2.10708e-06
4.0915e-06
9.16236e-06
4.09388e-06
4.09162e-06
9.16332e-06
9.15635e-06
4.09397e-06
1.14389e-06
5.4622e-06
5.46414e-06
5.45938e-06
5.46133e-06
1.84282e-05
1.84179e-05
1.843e-05
1.84197e-05
1.84221e-05
1.84243e-05
4.53813e-06
2.81207e-06
5.4618e-06
9.50052e-06
9.49687e-06
2.8101e-06
4.54047e-06
4.54436e-06
2.81183e-06
5.46351e-06
9.50372e-06
9.50083e-06
2.81173e-06
4.54289e-06
9.73615e-06
2.17307e-05
2.17285e-05
2.1724e-05
2.17227e-05
9.73566e-06
1.2203e-05
1.08242e-05
4.74418e-06
4.09152e-06
1.22003e-05
1.08262e-05
4.74416e-06
2.20535e-05
9.1581e-06
7.08835e-06
7.08888e-06
2.20603e-05
1.22037e-05
4.09353e-06
1.08294e-05
4.74591e-06
1.08273e-05
4.74581e-06
1.22064e-05
1.22034e-05
1.08243e-05
4.74448e-06
4.09196e-06
1.22005e-05
1.08264e-05
4.74472e-06
2.20544e-05
9.15959e-06
7.09018e-06
7.09056e-06
2.2061e-05
2.20564e-05
7.08957e-06
9.15811e-06
2.20498e-05
7.08918e-06
1.22038e-05
4.0936e-06
1.08299e-05
4.74637e-06
1.08272e-05
4.74598e-06
1.2207e-05
1.84239e-05
1.84235e-05
9.73348e-06
2.17176e-05
2.17183e-05
9.73386e-06
2.17239e-05
2.17245e-05
4.54447e-06
2.81219e-06
5.46366e-06
9.50406e-06
2.81169e-06
9.50114e-06
4.54488e-06
4.53858e-06
2.81096e-06
5.46172e-06
9.49977e-06
9.4961e-06
2.81045e-06
4.53851e-06
4.54224e-06
9.49642e-06
2.80845e-06
5.46147e-06
2.80902e-06
4.54186e-06
9.49942e-06
4.53602e-06
9.49145e-06
2.80722e-06
5.4596e-06
4.53594e-06
9.49502e-06
2.8078e-06
9.73585e-06
2.17289e-05
2.17296e-05
2.17226e-05
2.17233e-05
9.73546e-06
1.84213e-05
1.84209e-05
2.2054e-05
9.16025e-06
7.08999e-06
7.09033e-06
2.20606e-05
1.22041e-05
4.09357e-06
4.74619e-06
1.08306e-05
4.74597e-06
1.08276e-05
1.2207e-05
2.20541e-05
9.15946e-06
7.08857e-06
7.08907e-06
2.2061e-05
1.22043e-05
4.0937e-06
1.08299e-05
4.74598e-06
1.08279e-05
4.74598e-06
1.2207e-05
1.2203e-05
4.74439e-06
1.08247e-05
4.09193e-06
1.22005e-05
4.74441e-06
1.08267e-05
2.20532e-05
9.15946e-06
7.08965e-06
7.09002e-06
2.20598e-05
2.20552e-05
7.08903e-06
9.15801e-06
2.20486e-05
7.08865e-06
1.22039e-05
4.09374e-06
4.74601e-06
1.08299e-05
4.74599e-06
1.08279e-05
1.22064e-05
1.22034e-05
1.08245e-05
4.74423e-06
4.0917e-06
1.22009e-05
1.08267e-05
4.74427e-06
2.20539e-05
9.15944e-06
7.08823e-06
7.08861e-06
2.20605e-05
2.20559e-05
7.08762e-06
9.158e-06
2.20493e-05
7.08723e-06
1.22043e-05
4.09375e-06
1.08298e-05
4.74587e-06
1.08277e-05
4.74583e-06
1.22071e-05
1.84245e-05
4.54483e-06
2.81261e-06
5.46355e-06
9.50444e-06
2.81149e-06
9.50074e-06
4.54513e-06
4.53884e-06
2.81145e-06
5.4617e-06
9.49981e-06
9.49612e-06
2.81048e-06
4.53911e-06
9.73662e-06
2.17299e-05
2.17302e-05
2.17235e-05
2.17239e-05
9.73627e-06
1.84231e-05
1.22037e-05
4.74405e-06
1.08245e-05
4.09206e-06
1.22007e-05
4.74438e-06
1.08274e-05
2.20541e-05
9.1593e-06
7.08826e-06
7.08859e-06
2.20607e-05
2.2056e-05
7.08723e-06
1.22041e-05
4.09352e-06
4.74602e-06
1.08306e-05
4.74564e-06
1.08276e-05
1.22072e-05
1.22035e-05
4.74448e-06
1.08246e-05
4.09217e-06
1.22006e-05
4.74462e-06
1.08275e-05
2.20538e-05
9.16029e-06
7.08994e-06
7.09044e-06
2.20607e-05
2.20561e-05
7.08946e-06
9.15931e-06
2.20493e-05
7.08894e-06
1.2204e-05
4.09362e-06
4.74621e-06
1.08307e-05
4.74607e-06
1.08277e-05
1.2207e-05
9.73404e-06
2.17189e-05
2.17182e-05
9.73443e-06
2.17252e-05
2.17245e-05
4.5388e-06
2.8111e-06
5.46174e-06
9.49998e-06
2.81051e-06
9.4963e-06
4.53912e-06
4.54471e-06
2.81233e-06
5.46379e-06
9.50455e-06
2.81173e-06
9.50131e-06
4.54517e-06
4.53654e-06
9.49164e-06
2.80722e-06
5.45987e-06
4.53606e-06
2.80814e-06
9.49523e-06
4.54255e-06
9.49644e-06
2.80845e-06
5.46182e-06
4.54207e-06
2.80936e-06
9.5e-06
9.73641e-06
2.17302e-05
2.17295e-05
2.17239e-05
2.17232e-05
9.73601e-06
1.84232e-05
1.84228e-05
1.84251e-05
1.84246e-05
2.66825e-06
1.1495e-06
1.76793e-06
1.76739e-06
1.76782e-06
1.76807e-06
2.6681e-06
2.66821e-06
1.14924e-06
1.76764e-06
1.76749e-06
1.76801e-06
1.76782e-06
2.668e-06
2.66796e-06
1.14914e-06
1.76821e-06
1.7681e-06
1.76779e-06
1.76772e-06
2.66866e-06
2.66802e-06
1.14902e-06
1.76817e-06
1.76826e-06
1.76766e-06
1.76787e-06
2.66872e-06
1.66582e-07
1.66571e-07
1.64472e-07
7.93893e-08
7.99312e-08
3.15725e-07
1.66582e-07
1.66544e-07
1.6447e-07
1.64434e-07
7.93857e-08
7.99273e-08
1.66626e-07
1.66602e-07
1.64487e-07
7.94054e-08
7.99482e-08
3.15814e-07
1.66623e-07
1.66604e-07
1.64509e-07
1.64491e-07
7.94043e-08
7.99471e-08
1.4108e-06
2.3615e-06
1.27347e-06
2.10316e-06
1.41064e-06
2.36236e-06
1.27392e-06
1.61687e-06
2.03264e-06
3.4745e-06
2.86032e-06
2.03152e-06
2.85971e-06
1.61721e-06
1.41572e-06
2.10585e-06
2.36575e-06
1.27949e-06
2.36486e-06
1.27881e-06
1.41589e-06
1.41101e-06
2.3618e-06
1.27356e-06
2.10326e-06
1.41084e-06
2.36266e-06
1.2739e-06
1.61729e-06
2.03221e-06
3.47513e-06
2.86091e-06
2.86017e-06
2.03242e-06
1.61756e-06
1.61296e-06
2.85722e-06
2.02799e-06
3.4723e-06
1.61253e-06
2.85789e-06
2.02798e-06
1.41591e-06
2.10591e-06
2.36603e-06
1.27947e-06
2.36515e-06
1.27889e-06
1.41604e-06
2.6648e-06
1.14323e-06
1.76375e-06
1.76358e-06
1.76372e-06
2.66474e-06
1.76352e-06
1.61836e-06
2.03194e-06
3.4753e-06
2.86042e-06
2.03233e-06
2.86018e-06
1.61595e-06
1.41576e-06
2.10607e-06
2.36604e-06
1.27854e-06
2.36513e-06
1.27933e-06
1.41554e-06
1.61696e-06
2.03266e-06
3.47495e-06
2.86043e-06
2.85963e-06
2.03192e-06
1.61727e-06
1.41586e-06
2.10597e-06
1.27957e-06
2.36585e-06
1.27884e-06
2.36496e-06
1.41578e-06
1.40967e-06
2.36184e-06
1.27428e-06
2.1033e-06
1.41241e-06
2.3626e-06
1.27312e-06
1.61856e-06
2.03178e-06
3.47455e-06
2.8607e-06
2.03164e-06
2.86015e-06
1.61596e-06
1.61181e-06
2.85726e-06
2.02742e-06
3.47204e-06
1.61363e-06
2.02819e-06
2.85746e-06
1.41756e-06
2.10608e-06
2.36595e-06
1.27815e-06
2.36521e-06
1.27971e-06
1.41451e-06
1.41092e-06
1.27369e-06
2.36165e-06
2.10325e-06
1.41076e-06
1.27367e-06
2.36246e-06
1.61711e-06
2.0324e-06
3.47478e-06
2.85998e-06
2.85974e-06
2.03172e-06
1.61737e-06
1.61278e-06
2.8567e-06
2.02737e-06
3.47178e-06
1.61236e-06
2.85731e-06
2.02835e-06
1.41582e-06
2.10599e-06
1.27865e-06
2.36583e-06
1.27926e-06
2.365e-06
1.41596e-06
1.41113e-06
1.27347e-06
2.36171e-06
2.10336e-06
1.41099e-06
1.27426e-06
2.36247e-06
1.61697e-06
2.03234e-06
3.4745e-06
2.8599e-06
2.03173e-06
2.85967e-06
1.61728e-06
1.61266e-06
2.85726e-06
1.41601e-06
2.10605e-06
1.27954e-06
2.36586e-06
1.27878e-06
2.36504e-06
1.41612e-06
1.41115e-06
1.27355e-06
2.3619e-06
2.10341e-06
1.41098e-06
1.2744e-06
2.36267e-06
1.61736e-06
2.0328e-06
3.47495e-06
2.86091e-06
2.86015e-06
2.03218e-06
1.61762e-06
1.61305e-06
2.85721e-06
2.02789e-06
3.47281e-06
1.61261e-06
2.85788e-06
2.02879e-06
1.41604e-06
2.1061e-06
1.27966e-06
2.36602e-06
1.27889e-06
2.36525e-06
1.41616e-06
2.66545e-06
1.14358e-06
1.76353e-06
1.76368e-06
2.66447e-06
1.76384e-06
1.76405e-06
1.33487e-07
2.30074e-07
2.30107e-07
3.57394e-07
3.52246e-07
2.27865e-07
2.2787e-07
3.51825e-07
2.27794e-07
2.27873e-07
2.27764e-07
2.2784e-07
3.51347e-07
2.27793e-07
2.27798e-07
3.51354e-07
3.57236e-07
3.77743e-07
2.30139e-07
2.30181e-07
2.37922e-07
2.3792e-07
3.56787e-07
3.77337e-07
2.30148e-07
2.30187e-07
2.37813e-07
2.37921e-07
2.30149e-07
2.378e-07
2.3788e-07
3.57705e-07
3.77105e-07
2.30106e-07
2.37831e-07
2.37837e-07
3.76631e-07
1.34157e-07
1.34152e-07
1.34159e-07
1.34157e-07
3.68134e-06
8.90889e-06
3.65204e-06
8.91428e-06
1.84693e-05
1.84613e-05
3.68175e-06
8.91112e-06
3.65235e-06
8.91583e-06
1.3348e-07
1.33486e-07
1.33483e-07
1.31783e-07
1.31779e-07
1.31786e-07
1.31783e-07
1.15706e-06
2.79926e-06
1.58231e-07
2.3252e-07
1.1299e-06
2.82127e-06
1.58435e-07
1.84713e-05
1.84632e-05
1.15738e-06
1.58228e-07
2.79814e-06
2.3255e-07
1.12979e-06
1.58441e-07
2.82289e-06
5.13565e-06
5.13752e-06
3.63523e-07
5.14802e-06
5.14994e-06
1.84753e-05
1.84837e-05
1.84772e-05
1.84855e-05
3.4508e-07
5.1294e-06
5.13134e-06
5.11553e-06
5.11729e-06
3.60289e-06
8.90848e-06
8.90281e-06
3.63562e-06
3.60281e-06
8.90932e-06
8.90446e-06
3.6358e-06
1.08672e-06
2.25643e-07
2.78604e-06
1.58123e-07
2.7596e-06
1.58083e-07
1.1154e-06
1.08718e-06
2.25677e-07
2.78656e-06
1.58131e-07
2.75996e-06
1.58087e-07
1.11455e-06
1.84763e-05
1.84847e-05
3.45089e-07
5.12993e-06
5.12785e-06
5.11877e-06
5.11692e-06
1.84749e-05
1.84832e-05
3.60309e-06
8.91003e-06
8.90517e-06
3.63617e-06
1.08704e-06
2.25642e-07
2.78665e-06
1.58122e-07
2.76e-06
1.58075e-07
1.11507e-06
3.60284e-06
8.9098e-06
8.90511e-06
3.63619e-06
1.08716e-06
2.25681e-07
1.58115e-07
2.78525e-06
1.58068e-07
2.76175e-06
1.11474e-06
1.08723e-06
2.25577e-07
2.78448e-06
1.5812e-07
2.76097e-06
1.5808e-07
1.11432e-06
3.60264e-06
8.90967e-06
8.90407e-06
3.63625e-06
1.08725e-06
2.25648e-07
1.58123e-07
2.78484e-06
1.58081e-07
2.76131e-06
1.11451e-06
3.60296e-06
8.90933e-06
8.9037e-06
3.63594e-06
1.84783e-05
1.84867e-05
3.45703e-07
5.13131e-06
5.12957e-06
5.1174e-06
5.11542e-06
1.84763e-05
1.84847e-05
1.08684e-06
2.25607e-07
1.58128e-07
2.78621e-06
1.58084e-07
2.75979e-06
1.11466e-06
1.08726e-06
2.25607e-07
1.58119e-07
2.78671e-06
1.58075e-07
2.76006e-06
1.11487e-06
3.60313e-06
8.90922e-06
8.90435e-06
3.63616e-06
3.60297e-06
8.91019e-06
8.90537e-06
3.63615e-06
3.45628e-07
5.12962e-06
5.13151e-06
5.11538e-06
5.11725e-06
1.84762e-05
1.84845e-05
1.84776e-05
1.84859e-05
1.84682e-05
1.84602e-05
1.84701e-05
1.84621e-05
5.13547e-06
5.13724e-06
3.64337e-07
5.14729e-06
5.14973e-06
1.8446e-05
1.84533e-05
1.84474e-05
1.84552e-05
3.69392e-07
5.16509e-06
5.16597e-06
5.1533e-06
5.15525e-06
3.68151e-06
8.91039e-06
3.65205e-06
8.91512e-06
1.15778e-06
2.79808e-06
1.58233e-07
2.32628e-07
1.12919e-06
2.82266e-06
1.58436e-07
1.15724e-06
2.79851e-06
1.58239e-07
2.32631e-07
1.12976e-06
2.82316e-06
1.58441e-07
3.6958e-06
8.91981e-06
8.91467e-06
3.72231e-06
3.69585e-06
8.92062e-06
8.91616e-06
3.72253e-06
1.17165e-06
2.35161e-07
2.85734e-06
1.59099e-07
2.83408e-06
1.58729e-07
1.1999e-06
1.17215e-06
2.35209e-07
2.85775e-06
1.59105e-07
2.83454e-06
1.58738e-07
1.19951e-06
5.13847e-06
5.13675e-06
3.64284e-07
5.14824e-06
5.1462e-06
1.84678e-05
1.84598e-05
1.84469e-05
1.84545e-05
3.69489e-07
5.16532e-06
5.16401e-06
5.1564e-06
5.15469e-06
1.84453e-05
1.84529e-05
1.15781e-06
2.79848e-06
1.58225e-07
2.32548e-07
1.12964e-06
2.82321e-06
1.58436e-07
3.68205e-06
8.91096e-06
3.65216e-06
8.9156e-06
1.1573e-06
1.58222e-07
2.79972e-06
2.32634e-07
1.12983e-06
1.58424e-07
2.8218e-06
3.69621e-06
8.92129e-06
8.9169e-06
3.72255e-06
1.17193e-06
2.35176e-07
2.85769e-06
1.59099e-07
2.83455e-06
1.58723e-07
1.19997e-06
3.69594e-06
8.92104e-06
8.91671e-06
3.72276e-06
1.17228e-06
2.35214e-07
1.59088e-07
2.85652e-06
1.58722e-07
2.83578e-06
1.19954e-06
3.68075e-06
8.91013e-06
3.65197e-06
8.9155e-06
1.15706e-06
1.58229e-07
2.79933e-06
2.32598e-07
1.12992e-06
1.58432e-07
2.82138e-06
3.68148e-06
8.90979e-06
3.65205e-06
8.91517e-06
1.17236e-06
2.35093e-07
2.85579e-06
1.59097e-07
2.83518e-06
1.58727e-07
1.19934e-06
3.69646e-06
8.92095e-06
8.91588e-06
3.72175e-06
1.1723e-06
2.35171e-07
1.59095e-07
2.85735e-06
1.58727e-07
2.83533e-06
1.19925e-06
3.69591e-06
8.92064e-06
8.91555e-06
3.72243e-06
5.13737e-06
5.13551e-06
3.63559e-07
5.14968e-06
5.14795e-06
1.84692e-05
1.84612e-05
1.84487e-05
1.84563e-05
3.70203e-07
5.16654e-06
5.16494e-06
5.15543e-06
5.1535e-06
1.84467e-05
1.84543e-05
1.1574e-06
1.58225e-07
2.79857e-06
2.32556e-07
1.12986e-06
1.58429e-07
2.82333e-06
3.68178e-06
8.91032e-06
3.65207e-06
8.91507e-06
3.68176e-06
8.9113e-06
3.65215e-06
8.91605e-06
1.17233e-06
2.35128e-07
1.59103e-07
2.85733e-06
1.58722e-07
2.83413e-06
1.19954e-06
1.17227e-06
2.35128e-07
1.59093e-07
2.85792e-06
1.58724e-07
2.83463e-06
1.19964e-06
3.69591e-06
8.92055e-06
8.91614e-06
3.7224e-06
3.69603e-06
8.92153e-06
8.91708e-06
3.72265e-06
1.84691e-05
1.84611e-05
1.84705e-05
1.84625e-05
3.69932e-07
5.16496e-06
5.16687e-06
5.15351e-06
5.1554e-06
1.84466e-05
1.84542e-05
1.84481e-05
1.84557e-05
1.21311e-05
3.67429e-06
1.06761e-05
4.49104e-06
1.06712e-05
4.48707e-06
1.21341e-05
2.24357e-05
7.21537e-06
8.91144e-06
2.24341e-05
7.21494e-06
1.21308e-05
3.6593e-06
1.06662e-05
4.47146e-06
1.21277e-05
1.06708e-05
4.47567e-06
2.24245e-05
7.21629e-06
8.91181e-06
7.21694e-06
2.2426e-05
1.84687e-05
1.84618e-05
1.21313e-05
3.67466e-06
4.4916e-06
1.06767e-05
4.48727e-06
1.06718e-05
1.21344e-05
2.24358e-05
7.21736e-06
8.91298e-06
2.24345e-05
7.21698e-06
1.21311e-05
3.65972e-06
4.47176e-06
1.06667e-05
1.21279e-05
4.47643e-06
1.06714e-05
2.24249e-05
7.21828e-06
8.91402e-06
7.21887e-06
2.24262e-05
1.84707e-05
1.84637e-05
9.73116e-06
2.1913e-05
2.19124e-05
2.19127e-05
2.19121e-05
9.72944e-06
3.96332e-06
1.92683e-06
9.03765e-06
5.13901e-06
3.95735e-06
1.93348e-06
9.04244e-06
3.96896e-06
1.92868e-06
9.04241e-06
5.14091e-06
3.96548e-06
1.93467e-06
9.04717e-06
9.72896e-06
2.19227e-05
2.19221e-05
9.73057e-06
2.1923e-05
2.19224e-05
3.97383e-06
9.04963e-06
5.14487e-06
1.95476e-06
1.94814e-06
9.04502e-06
3.97933e-06
3.9817e-06
9.0544e-06
5.14676e-06
1.95604e-06
1.95003e-06
9.04976e-06
3.98509e-06
1.84759e-05
1.84831e-05
1.84778e-05
1.84849e-05
9.72696e-06
2.19423e-05
2.19424e-05
9.72825e-06
2.19426e-05
2.19428e-05
3.94143e-06
1.91141e-06
5.12598e-06
9.03493e-06
9.02922e-06
1.90533e-06
3.94507e-06
3.94814e-06
1.91306e-06
5.12773e-06
9.03992e-06
9.03495e-06
1.90681e-06
3.95338e-06
3.92743e-06
9.02134e-06
1.8829e-06
5.11926e-06
3.92363e-06
9.02716e-06
1.88935e-06
3.93451e-06
9.02713e-06
1.88444e-06
5.1212e-06
3.93041e-06
9.03219e-06
1.89106e-06
9.72938e-06
2.19325e-05
2.19326e-05
2.19322e-05
2.19322e-05
9.72793e-06
1.21239e-05
1.0656e-05
4.43653e-06
3.61139e-06
1.21207e-05
1.06606e-05
4.4426e-06
2.24436e-05
8.90583e-06
7.21307e-06
2.24453e-05
7.21329e-06
2.24549e-05
7.21072e-06
8.9054e-06
2.24532e-05
7.2107e-06
1.21243e-05
3.62785e-06
1.06658e-05
4.45938e-06
1.21274e-05
1.06609e-05
4.45466e-06
1.21242e-05
1.06562e-05
4.43722e-06
3.61172e-06
1.2121e-05
1.06608e-05
4.44336e-06
2.24449e-05
8.90742e-06
7.21537e-06
7.21558e-06
2.24463e-05
2.24559e-05
7.21321e-06
8.90634e-06
2.24544e-05
7.21298e-06
1.21245e-05
3.6279e-06
1.06658e-05
4.46024e-06
1.06611e-05
4.45478e-06
1.21277e-05
1.8477e-05
1.8484e-05
9.72684e-06
2.19419e-05
2.19427e-05
9.72813e-06
2.19422e-05
2.1943e-05
3.94757e-06
1.91335e-06
5.1291e-06
9.03998e-06
1.90626e-06
9.03427e-06
3.95151e-06
3.94125e-06
1.91121e-06
5.12736e-06
9.03526e-06
9.02955e-06
1.90522e-06
3.94498e-06
3.93554e-06
9.02637e-06
1.88422e-06
5.11986e-06
1.89135e-06
3.92935e-06
9.03221e-06
3.92734e-06
9.02168e-06
1.88291e-06
5.11769e-06
3.92341e-06
9.02749e-06
1.88922e-06
9.72923e-06
2.19321e-05
2.19328e-05
2.19318e-05
2.19325e-05
9.7278e-06
1.84754e-05
1.84826e-05
1.21241e-05
4.4371e-06
1.06565e-05
3.61183e-06
1.21209e-05
4.44316e-06
1.06611e-05
2.2444e-05
8.90811e-06
7.21515e-06
2.24454e-05
7.21541e-06
2.2455e-05
7.21304e-06
8.90705e-06
2.24536e-05
7.2128e-06
1.21245e-05
3.62817e-06
4.46005e-06
1.06663e-05
1.21276e-05
4.45494e-06
1.06614e-05
1.21247e-05
1.06564e-05
4.43712e-06
3.61217e-06
1.21215e-05
1.06611e-05
4.44336e-06
2.24452e-05
8.90803e-06
7.21366e-06
7.21408e-06
2.24469e-05
2.24566e-05
7.21155e-06
8.90688e-06
2.24549e-05
7.21128e-06
1.2125e-05
3.62795e-06
1.06661e-05
4.46027e-06
1.06613e-05
4.45484e-06
1.21282e-05
1.21238e-05
4.43742e-06
1.06572e-05
3.6115e-06
1.21206e-05
4.44259e-06
1.06603e-05
2.24436e-05
8.90706e-06
7.21472e-06
7.21481e-06
2.24451e-05
2.24547e-05
7.21234e-06
8.90666e-06
2.24532e-05
7.21243e-06
1.21241e-05
3.62803e-06
4.45995e-06
1.06652e-05
4.45502e-06
1.06619e-05
1.21273e-05
1.2124e-05
1.06561e-05
4.43734e-06
3.61127e-06
1.21208e-05
1.06607e-05
4.44243e-06
2.24436e-05
8.90673e-06
7.213e-06
7.21311e-06
2.24451e-05
2.24547e-05
7.21062e-06
8.90633e-06
2.24532e-05
7.2107e-06
1.21244e-05
3.62815e-06
1.06657e-05
4.45972e-06
1.0661e-05
4.45494e-06
1.21275e-05
1.84789e-05
1.84861e-05
9.72782e-06
2.19434e-05
2.19435e-05
9.72912e-06
2.19437e-05
2.19438e-05
3.94755e-06
1.91318e-06
5.12787e-06
9.03989e-06
1.90696e-06
9.03497e-06
3.95345e-06
3.94049e-06
1.91153e-06
5.12599e-06
9.03524e-06
9.02956e-06
1.90524e-06
3.94645e-06
3.93626e-06
9.0272e-06
1.8847e-06
5.12113e-06
1.89114e-06
3.9297e-06
9.03217e-06
3.92924e-06
9.02165e-06
1.88295e-06
5.1194e-06
3.92259e-06
9.0275e-06
1.88944e-06
9.73021e-06
2.19335e-05
2.19336e-05
2.19332e-05
2.19333e-05
9.72877e-06
1.84769e-05
1.8484e-05
1.21242e-05
4.43695e-06
1.06574e-05
3.61156e-06
1.2121e-05
4.44234e-06
1.06605e-05
2.24442e-05
8.90735e-06
7.21306e-06
7.21331e-06
2.24456e-05
2.24553e-05
7.21085e-06
8.90627e-06
2.24538e-05
7.21069e-06
1.21245e-05
3.62815e-06
4.45962e-06
1.06654e-05
4.45498e-06
1.06621e-05
1.21277e-05
1.2124e-05
4.43695e-06
1.06565e-05
3.6117e-06
1.21208e-05
4.44315e-06
1.06612e-05
2.24437e-05
8.90832e-06
7.21497e-06
7.21519e-06
2.24451e-05
2.24547e-05
7.21276e-06
8.90722e-06
2.24533e-05
7.21257e-06
1.21243e-05
3.62816e-06
4.4607e-06
1.06662e-05
4.45476e-06
1.06614e-05
1.21275e-05
9.72727e-06
2.1943e-05
2.19424e-05
9.72858e-06
2.19432e-05
2.19426e-05
3.94042e-06
1.91185e-06
5.12603e-06
9.03496e-06
3.94624e-06
1.90499e-06
9.02999e-06
3.94834e-06
1.91322e-06
5.12789e-06
9.03969e-06
3.95214e-06
1.90672e-06
9.0347e-06
3.92913e-06
9.02218e-06
1.88228e-06
5.11938e-06
3.92248e-06
1.88967e-06
9.02727e-06
3.93439e-06
9.027e-06
1.88447e-06
5.12128e-06
3.93053e-06
1.89101e-06
9.03195e-06
9.72971e-06
2.19331e-05
2.19325e-05
9.72826e-06
2.19328e-05
2.19322e-05
1.84767e-05
1.84839e-05
1.84782e-05
1.84853e-05
1.84677e-05
1.84607e-05
1.84695e-05
1.84626e-05
9.73083e-06
2.19123e-05
2.19125e-05
2.19121e-05
2.19121e-05
9.72911e-06
3.96188e-06
1.92702e-06
9.03692e-06
5.13859e-06
3.95845e-06
9.04242e-06
1.93313e-06
3.97014e-06
1.92847e-06
9.04258e-06
5.14061e-06
3.96418e-06
9.04743e-06
1.9354e-06
9.72864e-06
2.19221e-05
2.19221e-05
9.73022e-06
2.19224e-05
2.19225e-05
3.97483e-06
9.04966e-06
5.14536e-06
1.95423e-06
9.04428e-06
3.97807e-06
1.94836e-06
3.98068e-06
9.05466e-06
5.14645e-06
1.95665e-06
9.05001e-06
3.98626e-06
1.94932e-06
1.84461e-05
1.84529e-05
1.84481e-05
1.84548e-05
9.72929e-06
2.19021e-05
2.19022e-05
9.73119e-06
2.19027e-05
2.19022e-05
4.00438e-06
1.99651e-06
5.16178e-06
9.06453e-06
9.05857e-06
1.98894e-06
4.01095e-06
4.01271e-06
1.99687e-06
5.16443e-06
9.06742e-06
9.06382e-06
1.99063e-06
4.01447e-06
3.99384e-06
9.05146e-06
1.96917e-06
5.15616e-06
3.99038e-06
9.05682e-06
1.97523e-06
4.00209e-06
9.05715e-06
1.97017e-06
5.15829e-06
3.99634e-06
9.06158e-06
1.97728e-06
9.73134e-06
2.18935e-05
2.18919e-05
2.18927e-05
2.18917e-05
9.72934e-06
1.21313e-05
3.67429e-06
1.06763e-05
4.49171e-06
1.06714e-05
4.48684e-06
1.21344e-05
2.24366e-05
7.21754e-06
8.9123e-06
2.24353e-05
7.21717e-06
1.21311e-05
3.65952e-06
1.06663e-05
4.47156e-06
1.0671e-05
1.2128e-05
4.47669e-06
2.24257e-05
7.21849e-06
8.91333e-06
7.21907e-06
2.2427e-05
1.21373e-05
1.06767e-05
4.50158e-06
3.7026e-06
1.21343e-05
1.06816e-05
4.50517e-06
2.24055e-05
8.91735e-06
7.21772e-06
7.21876e-06
2.24069e-05
2.24166e-05
7.21807e-06
8.91707e-06
2.24148e-05
7.21725e-06
1.21375e-05
3.71575e-06
1.06869e-05
4.51857e-06
1.06821e-05
4.51513e-06
1.21403e-05
1.21375e-05
1.06769e-05
4.50164e-06
3.70293e-06
1.21346e-05
1.06818e-05
4.5056e-06
2.24063e-05
8.91893e-06
7.21989e-06
7.22086e-06
2.24075e-05
2.24172e-05
7.22016e-06
8.91796e-06
2.2416e-05
7.21939e-06
1.21377e-05
3.7158e-06
1.06871e-05
4.51894e-06
1.06822e-05
4.51543e-06
1.21405e-05
9.73066e-06
2.1912e-05
2.19127e-05
2.19116e-05
2.19123e-05
9.72898e-06
3.9686e-06
1.9283e-06
9.04197e-06
5.13916e-06
9.04749e-06
3.96518e-06
1.93466e-06
3.9618e-06
1.92692e-06
9.03726e-06
5.13711e-06
1.93291e-06
3.95828e-06
9.04277e-06
9.7285e-06
2.19217e-05
2.19224e-05
2.1922e-05
9.73006e-06
2.19227e-05
3.98164e-06
9.05474e-06
5.14773e-06
1.95567e-06
9.04935e-06
1.94981e-06
3.98488e-06
3.97465e-06
9.04999e-06
5.14601e-06
1.95404e-06
1.94826e-06
9.04461e-06
3.97799e-06
1.84673e-05
1.84603e-05
1.84473e-05
1.8454e-05
9.72921e-06
2.19017e-05
2.19024e-05
9.73104e-06
2.1902e-05
2.19027e-05
4.01148e-06
1.99672e-06
5.16513e-06
9.06855e-06
1.99112e-06
9.06341e-06
4.01675e-06
4.00548e-06
1.995e-06
5.16353e-06
9.06378e-06
9.05866e-06
1.98954e-06
4.00842e-06
4.00172e-06
9.0565e-06
1.97071e-06
5.15698e-06
1.97658e-06
3.99715e-06
9.06174e-06
3.99339e-06
9.0518e-06
1.96909e-06
5.15504e-06
3.99031e-06
9.05698e-06
1.97486e-06
9.73118e-06
2.18922e-05
2.18929e-05
2.18919e-05
2.18926e-05
9.72924e-06
1.84457e-05
1.84525e-05
1.21318e-05
3.67421e-06
1.06766e-05
4.4918e-06
1.06716e-05
4.48687e-06
1.21348e-05
2.24372e-05
7.21608e-06
8.91279e-06
2.24356e-05
7.21555e-06
1.21315e-05
3.66009e-06
1.06665e-05
4.47162e-06
1.06713e-05
1.21285e-05
4.47675e-06
2.24258e-05
7.21687e-06
8.91389e-06
7.21761e-06
2.24274e-05
1.21375e-05
4.50181e-06
1.06772e-05
3.70278e-06
1.21346e-05
4.50583e-06
1.06822e-05
2.24056e-05
8.91965e-06
7.21968e-06
7.22065e-06
2.24068e-05
2.24165e-05
7.21996e-06
8.91868e-06
2.24153e-05
7.21919e-06
1.21377e-05
3.71626e-06
4.51903e-06
1.06875e-05
4.51543e-06
1.06826e-05
1.21405e-05
1.21379e-05
1.06771e-05
4.50163e-06
3.70322e-06
1.2135e-05
1.0682e-05
4.5063e-06
2.24063e-05
8.91944e-06
7.21827e-06
7.2194e-06
2.24077e-05
2.24176e-05
7.2187e-06
8.91842e-06
2.24161e-05
7.21777e-06
1.21381e-05
3.71598e-06
1.06874e-05
4.51949e-06
1.06825e-05
4.51513e-06
1.21409e-05
1.2131e-05
3.6747e-06
4.49128e-06
1.06757e-05
4.4871e-06
1.06723e-05
1.2134e-05
2.24354e-05
7.21684e-06
8.91265e-06
7.21655e-06
2.2434e-05
1.21307e-05
3.65933e-06
4.47161e-06
1.06671e-05
4.47605e-06
1.21276e-05
1.06705e-05
2.24244e-05
7.21788e-06
8.91303e-06
7.21839e-06
2.24257e-05
1.21312e-05
3.67444e-06
1.06762e-05
4.49158e-06
1.06713e-05
4.48685e-06
1.21342e-05
2.24354e-05
7.21514e-06
8.91232e-06
2.2434e-05
7.21482e-06
1.21309e-05
3.6594e-06
1.06662e-05
4.47153e-06
1.21278e-05
1.06709e-05
4.47602e-06
2.24244e-05
7.21615e-06
8.91268e-06
7.21669e-06
2.24257e-05
1.21371e-05
4.50161e-06
1.06776e-05
3.70191e-06
1.21342e-05
4.50586e-06
1.06811e-05
2.2405e-05
8.91856e-06
7.21928e-06
7.22018e-06
2.24063e-05
2.2416e-05
7.2195e-06
8.91827e-06
2.24147e-05
7.21879e-06
1.21373e-05
3.71668e-06
4.51919e-06
1.06865e-05
4.51489e-06
1.06831e-05
1.21401e-05
1.21374e-05
1.06768e-05
4.50116e-06
3.70269e-06
1.21344e-05
1.06817e-05
4.50586e-06
2.2405e-05
8.9182e-06
7.21756e-06
7.21848e-06
2.24063e-05
2.2416e-05
7.2178e-06
8.91794e-06
2.24147e-05
7.21705e-06
1.21375e-05
3.71593e-06
1.0687e-05
4.51912e-06
1.06822e-05
4.51474e-06
1.21403e-05
9.73161e-06
2.19134e-05
2.19135e-05
2.1913e-05
2.19131e-05
9.72993e-06
3.97049e-06
1.92864e-06
9.04259e-06
5.14056e-06
9.04741e-06
3.96453e-06
1.93542e-06
3.96351e-06
1.92698e-06
9.03723e-06
5.13883e-06
1.93363e-06
3.9575e-06
9.04275e-06
9.72948e-06
2.19231e-05
2.19232e-05
2.19234e-05
9.73105e-06
2.19235e-05
3.98084e-06
9.05463e-06
5.14657e-06
1.95667e-06
9.05e-06
1.94953e-06
3.98647e-06
3.97378e-06
9.05002e-06
5.1447e-06
1.9547e-06
1.94792e-06
9.0446e-06
3.9795e-06
1.84687e-05
1.84617e-05
1.84491e-05
1.84559e-05
9.73016e-06
2.19031e-05
2.19032e-05
9.73196e-06
2.19034e-05
2.19035e-05
4.01171e-06
1.99746e-06
5.16405e-06
9.06845e-06
1.99081e-06
9.06412e-06
4.01705e-06
4.00468e-06
1.99549e-06
5.16197e-06
9.0638e-06
9.05868e-06
1.98924e-06
4.01e-06
4.00213e-06
9.05716e-06
1.97037e-06
5.15819e-06
1.97706e-06
3.99661e-06
9.06171e-06
3.99515e-06
9.05183e-06
1.96887e-06
5.15645e-06
3.98956e-06
9.05699e-06
1.97535e-06
9.73208e-06
2.18936e-05
2.18937e-05
2.18932e-05
2.18933e-05
9.73018e-06
1.84471e-05
1.84539e-05
1.21314e-05
3.67443e-06
4.49108e-06
1.06759e-05
4.4871e-06
1.06725e-05
1.21343e-05
2.2436e-05
7.21528e-06
8.91222e-06
7.21492e-06
2.24346e-05
1.21311e-05
3.65963e-06
4.47151e-06
1.06672e-05
4.47599e-06
1.2128e-05
1.06707e-05
2.2425e-05
7.21624e-06
8.91328e-06
7.21682e-06
2.24263e-05
1.21312e-05
3.67459e-06
4.49196e-06
1.06767e-05
4.4868e-06
1.06718e-05
1.21342e-05
2.24355e-05
7.21714e-06
8.91319e-06
2.24341e-05
7.21677e-06
1.21309e-05
3.6596e-06
4.47125e-06
1.06666e-05
1.21278e-05
4.47652e-06
1.06714e-05
2.24245e-05
7.21808e-06
8.91423e-06
7.21866e-06
2.24258e-05
1.21375e-05
4.50151e-06
1.06778e-05
3.70271e-06
1.21346e-05
4.5059e-06
1.06814e-05
2.24056e-05
8.91888e-06
7.21767e-06
7.21864e-06
2.24068e-05
2.24166e-05
7.21792e-06
8.9179e-06
2.24153e-05
7.21716e-06
1.21377e-05
3.71605e-06
4.5192e-06
1.06867e-05
4.51478e-06
1.06833e-05
1.21405e-05
1.21374e-05
4.50147e-06
1.06772e-05
3.70292e-06
1.21344e-05
4.50547e-06
1.06822e-05
2.24051e-05
8.91983e-06
7.21947e-06
7.22043e-06
2.24063e-05
2.2416e-05
7.21974e-06
8.91888e-06
2.24148e-05
7.21898e-06
1.21375e-05
3.71603e-06
4.51885e-06
1.06876e-05
4.5154e-06
1.06826e-05
1.21404e-05
1.84686e-05
1.84616e-05
1.847e-05
1.84631e-05
9.72968e-06
2.19028e-05
2.19022e-05
9.73151e-06
2.19031e-05
2.19025e-05
4.00465e-06
1.99556e-06
5.16201e-06
9.06345e-06
1.98932e-06
9.05916e-06
4.00988e-06
4.01256e-06
1.99688e-06
5.16391e-06
9.06823e-06
1.99129e-06
9.06393e-06
4.01558e-06
3.99501e-06
9.05216e-06
1.96901e-06
5.15647e-06
3.98956e-06
1.97538e-06
9.05673e-06
4.00046e-06
9.05696e-06
1.97087e-06
5.15838e-06
3.99739e-06
1.97659e-06
9.06147e-06
9.73166e-06
2.18933e-05
2.18927e-05
2.1893e-05
2.18924e-05
9.72972e-06
1.8447e-05
1.84538e-05
1.84485e-05
1.84553e-05
1.1759e-07
1.17583e-07
1.32869e-07
1.16485e-07
1.1648e-07
1.09884e-07
1.11177e-07
1.74039e-06
7.66246e-07
7.66469e-07
3.57378e-07
1.73335e-06
7.70994e-07
7.71379e-07
1.71072e-06
3.51047e-07
7.5631e-07
7.56493e-07
7.50948e-07
7.51299e-07
1.71825e-06
1.71051e-06
3.50922e-07
7.56755e-07
7.55175e-07
7.51032e-07
7.51948e-07
1.71812e-06
1.71142e-06
3.51923e-07
7.55198e-07
7.55792e-07
7.52477e-07
7.51224e-07
1.71829e-06
1.71058e-06
3.5137e-07
7.55984e-07
7.56373e-07
1.71831e-06
7.5127e-07
7.51461e-07
1.74074e-06
7.65924e-07
7.66348e-07
3.5808e-07
1.73305e-06
7.71074e-07
7.71538e-07
1.79782e-06
3.76227e-07
8.17081e-07
8.1672e-07
8.11109e-07
8.11779e-07
1.80538e-06
1.74111e-06
7.65968e-07
7.6684e-07
3.57777e-07
7.69846e-07
1.73291e-06
7.71478e-07
1.79788e-06
3.76389e-07
8.17149e-07
8.155e-07
8.11351e-07
8.12339e-07
1.80483e-06
1.74052e-06
7.67278e-07
7.66261e-07
3.57402e-07
7.70783e-07
1.73332e-06
7.70237e-07
1.7985e-06
3.76822e-07
8.15724e-07
8.16197e-07
8.12889e-07
8.1161e-07
1.80509e-06
1.79835e-06
3.77133e-07
8.16401e-07
8.16732e-07
8.11439e-07
8.11781e-07
1.80501e-06
1.34877e-07
1.18729e-07
1.18724e-07
1.19906e-07
1.19899e-07
1.13849e-07
1.12498e-07
1.34869e-07
1.18728e-07
1.18724e-07
1.19905e-07
1.19901e-07
1.13849e-07
1.12498e-07
1.34875e-07
1.18727e-07
1.18728e-07
1.19903e-07
1.19902e-07
1.13849e-07
1.12499e-07
1.34872e-07
1.18729e-07
1.18726e-07
1.19905e-07
1.19902e-07
1.13849e-07
1.12499e-07
1.17589e-07
1.17585e-07
1.32865e-07
1.16484e-07
1.1648e-07
1.09884e-07
1.11177e-07
1.17587e-07
1.17586e-07
1.32871e-07
1.16483e-07
1.16483e-07
1.09884e-07
1.11177e-07
1.17589e-07
1.17586e-07
1.32869e-07
1.16485e-07
1.16482e-07
1.09884e-07
1.11177e-07
1.323e-07
1.14384e-07
1.14379e-07
1.15418e-07
1.15411e-07
1.08619e-07
1.07381e-07
1.32292e-07
1.14383e-07
1.14379e-07
1.15417e-07
1.15412e-07
1.08619e-07
1.07381e-07
1.32299e-07
1.14382e-07
1.14382e-07
1.15415e-07
1.15414e-07
1.08619e-07
1.07382e-07
1.32296e-07
1.14384e-07
1.1438e-07
1.15417e-07
1.15413e-07
1.0862e-07
1.07382e-07
4.77082e-07
1.15124e-06
1.4747e-06
3.88203e-07
1.46879e-06
3.8725e-07
4.77426e-07
6.56927e-07
1.00077e-06
2.07462e-06
2.80311e-06
6.5331e-07
1.00433e-06
2.08151e-06
4.68577e-07
1.1359e-06
1.44682e-06
3.80059e-07
4.683e-07
1.45284e-06
3.80994e-07
6.65108e-07
2.10175e-06
2.81751e-06
1.02161e-06
1.0177e-06
2.09526e-06
6.68515e-07
4.76817e-07
1.15107e-06
3.88869e-07
1.47537e-06
3.86605e-07
1.46799e-06
4.77222e-07
6.5681e-07
1.00069e-06
2.07407e-06
2.8048e-06
6.53169e-07
1.00471e-06
2.08113e-06
4.68298e-07
1.13606e-06
3.79625e-07
1.44607e-06
4.67997e-07
3.81683e-07
1.45347e-06
6.64951e-07
2.10185e-06
2.81647e-06
1.02144e-06
1.01779e-06
2.09487e-06
6.6839e-07
1.75558e-06
3.63662e-07
7.86104e-07
7.86417e-07
7.81331e-07
7.81641e-07
1.76238e-06
1.69571e-06
3.46278e-07
7.35832e-07
7.36407e-07
1.68753e-06
7.41254e-07
7.41357e-07
4.52941e-07
1.40107e-06
3.66722e-07
1.09386e-06
4.50632e-07
1.40862e-06
3.6747e-07
6.41823e-07
9.88306e-07
2.77929e-06
2.05874e-06
9.83108e-07
2.0538e-06
6.44982e-07
6.33911e-07
2.03207e-06
9.66128e-07
2.76665e-06
9.71379e-07
6.30312e-07
2.0374e-06
4.58332e-07
1.10785e-06
1.43128e-06
3.74138e-07
1.42383e-06
3.73281e-07
4.60945e-07
4.5167e-07
1.40216e-06
3.6605e-07
1.09346e-06
4.51436e-07