/*--------------------------------*- C++ -*----------------------------------*\
| =========                 |                                                 |
| \\      /  F ield         | OpenFOAM: The Open Source CFD Toolbox           |
|  \\    /   O peration     | Version:  v1906                                 |
|   \\  /    A nd           | Web:      www.OpenFOAM.com                      |
|    \\/     M anipulation  |                                                 |
\*---------------------------------------------------------------------------*/
FoamFile
{
    version     2.0;
    format      ascii;
    class       volScalarField;
    location    "750";
    object      k;
}
// * * * * * * * * * * * * * * * * * * * * * * * * * * * * * * * * * * * * * //

dimensions      [0 2 -2 0 0 0 0];


internalField   nonuniform List<scalar> 
43248
(
4.1784e-05
3.64596e-05
3.6458e-05
4.17616e-05
3.64564e-05
3.64581e-05
3.64553e-05
3.64626e-05
4.17794e-05
3.64577e-05
3.6461e-05
4.17698e-05
2.08489e-05
2.08474e-05
2.085e-05
2.08523e-05
6.95308e-05
6.95334e-05
6.6895e-05
6.69048e-05
6.46096e-05
7.13518e-05
6.47081e-05
6.46131e-05
7.13586e-05
7.13224e-05
6.47102e-05
5.30901e-05
6.01861e-05
2.88253e-05
2.85801e-05
5.32904e-05
5.30922e-05
3.62261e-05
6.01916e-05
2.88266e-05
6.00683e-05
2.85815e-05
5.32931e-05
6.95337e-05
6.95076e-05
4.15644e-05
6.69065e-05
6.68897e-05
6.6842e-05
6.683e-05
6.95297e-05
6.95036e-05
7.13586e-05
6.47131e-05
6.01907e-05
2.88293e-05
5.32956e-05
7.13525e-05
6.47111e-05
2.88288e-05
6.01837e-05
5.32935e-05
5.30953e-05
3.62234e-05
6.01854e-05
2.88273e-05
6.00666e-05
2.85825e-05
5.32958e-05
6.46134e-05
7.13574e-05
7.13212e-05
6.47131e-05
5.30941e-05
3.62305e-05
2.88305e-05
6.01871e-05
2.85855e-05
6.00654e-05
5.32943e-05
6.46126e-05
7.1355e-05
7.13187e-05
6.47111e-05
6.95319e-05
6.68966e-05
6.6894e-05
6.95318e-05
5.30956e-05
2.88315e-05
6.01882e-05
2.85863e-05
5.32959e-05
5.3097e-05
3.6229e-05
2.88332e-05
6.01932e-05
2.85883e-05
6.00702e-05
5.3295e-05
6.46142e-05
7.13538e-05
6.47114e-05
6.46158e-05
7.13582e-05
7.13247e-05
6.47126e-05
4.15794e-05
6.6894e-05
6.69075e-05
6.68336e-05
6.68439e-05
6.95318e-05
6.95058e-05
6.95347e-05
6.95087e-05
6.95183e-05
6.9521e-05
7.00287e-05
5.93327e-05
6.68776e-05
7.1137e-05
7.11183e-05
5.92679e-05
7.00691e-05
7.00879e-05
5.93263e-05
6.68859e-05
7.11458e-05
7.11304e-05
5.92859e-05
7.01018e-05
9.23397e-05
7.2037e-05
7.20302e-05
7.20228e-05
7.20165e-05
9.23511e-05
7.01248e-05
6.98197e-05
6.81161e-05
6.46507e-05
7.01139e-05
6.98324e-05
6.81521e-05
7.01837e-05
7.13382e-05
7.73846e-05
7.73665e-05
7.01982e-05
7.01269e-05
6.46694e-05
6.98464e-05
6.82004e-05
6.98333e-05
6.81672e-05
7.01378e-05
7.01271e-05
6.98204e-05
6.81271e-05
6.46518e-05
7.01171e-05
6.98325e-05
6.81595e-05
7.01872e-05
7.13429e-05
7.74091e-05
7.73882e-05
7.02013e-05
7.01914e-05
7.7359e-05
7.13377e-05
7.01775e-05
7.73798e-05
7.01302e-05
6.46716e-05
6.98456e-05
6.82095e-05
6.98354e-05
6.81759e-05
7.014e-05
6.95211e-05
6.95201e-05
9.23134e-05
7.20058e-05
7.20111e-05
9.23045e-05
7.20196e-05
7.20249e-05
7.00847e-05
5.93318e-05
6.68872e-05
7.11473e-05
5.92812e-05
7.11289e-05
7.01062e-05
7.00327e-05
5.93211e-05
6.6875e-05
7.11337e-05
7.11191e-05
5.92721e-05
7.00541e-05
7.00405e-05
7.11057e-05
5.91824e-05
6.68615e-05
5.92338e-05
7.0019e-05
7.11237e-05
6.99885e-05
7.10955e-05
5.91732e-05
6.68446e-05
6.9967e-05
7.11105e-05
5.92228e-05
9.23389e-05
7.20308e-05
7.20361e-05
7.20168e-05
7.20222e-05
9.23504e-05
6.95171e-05
6.95161e-05
7.01869e-05
7.13431e-05
7.74053e-05
7.73876e-05
7.02009e-05
7.01305e-05
6.46726e-05
6.82104e-05
6.98462e-05
6.81734e-05
6.98376e-05
7.01405e-05
7.01841e-05
7.13394e-05
7.73846e-05
7.73652e-05
7.01987e-05
7.01277e-05
6.46705e-05
6.98476e-05
6.82021e-05
6.98346e-05
6.81664e-05
7.01391e-05
7.01278e-05
6.81233e-05
6.98211e-05
6.46545e-05
7.01162e-05
6.81608e-05
6.98338e-05
7.01864e-05
7.13417e-05
7.74064e-05
7.73848e-05
7.02005e-05
7.01906e-05
7.73557e-05
7.13365e-05
7.01767e-05
7.7377e-05
7.01288e-05
6.46719e-05
6.82108e-05
6.98478e-05
6.81731e-05
6.98347e-05
7.01414e-05
7.01266e-05
6.98215e-05
6.81189e-05
6.46528e-05
7.01154e-05
6.98327e-05
6.81563e-05
7.01855e-05
7.13393e-05
7.73887e-05
7.73673e-05
7.01995e-05
7.01897e-05
7.73383e-05
7.13342e-05
7.01758e-05
7.73593e-05
7.01285e-05
6.46708e-05
6.98471e-05
6.82062e-05
6.9834e-05
6.81687e-05
7.014e-05
6.95193e-05
7.00849e-05
5.93288e-05
6.6882e-05
7.11433e-05
5.92807e-05
7.11287e-05
7.01061e-05
7.00354e-05
5.93246e-05
6.68765e-05
7.11346e-05
7.112e-05
5.92732e-05
7.00564e-05
9.23434e-05
7.20305e-05
7.20367e-05
7.20165e-05
7.20228e-05
9.23519e-05
6.95194e-05
7.01262e-05
6.81218e-05
6.98239e-05
6.46527e-05
7.01167e-05
6.81523e-05
6.98325e-05
7.01861e-05
7.13411e-05
7.73865e-05
7.73688e-05
7.02001e-05
7.01902e-05
7.73574e-05
7.01296e-05
6.46723e-05
6.82014e-05
6.98461e-05
6.81714e-05
6.98374e-05
7.01394e-05
7.01275e-05
6.81262e-05
6.98243e-05
6.4654e-05
7.01177e-05
6.81571e-05
6.9833e-05
7.01868e-05
7.13454e-05
7.74032e-05
7.73854e-05
7.02014e-05
7.01916e-05
7.73564e-05
7.13378e-05
7.01771e-05
7.73747e-05
7.01306e-05
6.46739e-05
6.82059e-05
6.98465e-05
6.81757e-05
6.98378e-05
7.01407e-05
9.23173e-05
7.20122e-05
7.20062e-05
9.23086e-05
7.2026e-05
7.202e-05
7.00352e-05
5.93246e-05
6.68789e-05
7.1135e-05
5.92739e-05
7.11203e-05
7.00566e-05
7.0088e-05
5.93367e-05
6.68891e-05
7.11475e-05
5.92844e-05
7.11305e-05
7.01095e-05
6.9991e-05
7.10967e-05
5.9175e-05
6.68492e-05
6.99695e-05
5.92264e-05
7.11118e-05
7.00438e-05
7.1108e-05
5.91855e-05
6.68624e-05
7.00225e-05
5.92385e-05
7.11235e-05
9.2343e-05
7.20372e-05
7.20312e-05
7.20233e-05
7.20173e-05
9.23544e-05
6.95193e-05
6.95182e-05
6.95222e-05
6.95211e-05
5.9519e-05
4.17586e-05
5.05127e-05
5.0507e-05
5.04608e-05
5.04698e-05
5.95519e-05
5.95166e-05
4.17507e-05
5.04985e-05
5.04948e-05
5.04665e-05
5.04653e-05
5.9548e-05
5.95178e-05
4.17609e-05
5.05057e-05
5.0505e-05
5.04668e-05
5.04667e-05
5.95498e-05
5.95202e-05
4.17783e-05
5.05006e-05
5.05139e-05
5.04732e-05
5.0476e-05
5.95529e-05
1.49188e-05
1.49187e-05
1.48075e-05
1.07941e-05
1.0821e-05
2.06626e-05
1.49186e-05
1.49175e-05
1.48073e-05
1.48062e-05
1.07939e-05
1.08208e-05
1.49209e-05
1.49205e-05
1.4809e-05
1.07951e-05
1.08221e-05
2.06673e-05
1.49213e-05
1.49209e-05
1.48098e-05
1.48095e-05
1.07952e-05
1.08221e-05
4.55341e-05
5.54158e-05
4.35599e-05
5.31704e-05
4.55344e-05
5.54846e-05
4.36065e-05
4.80549e-05
5.2519e-05
6.01383e-05
5.85109e-05
5.24787e-05
5.84529e-05
4.80675e-05
4.57076e-05
5.32146e-05
5.55951e-05
4.37697e-05
5.55276e-05
4.37496e-05
4.56942e-05
4.55342e-05
5.54228e-05
4.35628e-05
5.31726e-05
4.55421e-05
5.54917e-05
4.36084e-05
4.80624e-05
5.25196e-05
6.01431e-05
5.85208e-05
5.84628e-05
5.24848e-05
4.80739e-05
4.79242e-05
5.83694e-05
5.23536e-05
6.01176e-05
4.79085e-05
5.84281e-05
5.23879e-05
4.57189e-05
5.32158e-05
5.56025e-05
4.37723e-05
5.55342e-05
4.37523e-05
4.57054e-05
5.94443e-05
4.15892e-05
5.03183e-05
5.03163e-05
5.03596e-05
5.94104e-05
5.03583e-05
4.8047e-05
5.25252e-05
6.01434e-05
5.85199e-05
5.24793e-05
5.84616e-05
4.80926e-05
4.57011e-05
5.32175e-05
5.56049e-05
4.3799e-05
5.55323e-05
4.37446e-05
4.5732e-05
4.80549e-05
5.25185e-05
6.01408e-05
5.85101e-05
5.84522e-05
5.24807e-05
4.80673e-05
4.57128e-05
5.32148e-05
4.37944e-05
5.55951e-05
4.37485e-05
5.5529e-05
4.57004e-05
4.55481e-05
5.542e-05
4.35669e-05
5.31753e-05
4.55252e-05
5.54939e-05
4.3613e-05
4.80454e-05
5.25243e-05
6.01416e-05
5.85192e-05
5.24757e-05
5.84603e-05
4.80918e-05
4.79326e-05
5.83668e-05
5.23446e-05
6.01108e-05
4.78934e-05
5.23884e-05
5.84262e-05
4.56962e-05
5.32179e-05
5.56051e-05
4.37755e-05
5.55302e-05
4.37545e-05
4.57232e-05
4.55567e-05
4.35647e-05
5.54183e-05
5.31739e-05
4.55173e-05
4.36118e-05
5.54905e-05
4.80456e-05
5.2519e-05
6.01398e-05
5.85142e-05
5.84556e-05
5.24782e-05
4.80914e-05
4.7932e-05
5.83623e-05
5.23469e-05
6.0113e-05
4.78935e-05
5.84214e-05
5.23876e-05
4.56993e-05
5.32167e-05
4.37749e-05
5.56013e-05
4.3754e-05
5.55294e-05
4.57251e-05
4.55293e-05
4.35802e-05
5.5419e-05
5.3174e-05
4.55315e-05
4.35981e-05
5.5488e-05
4.80574e-05
5.25153e-05
6.01395e-05
5.85132e-05
5.24823e-05
5.84549e-05
4.80704e-05
4.79184e-05
5.84202e-05
4.57135e-05
5.32166e-05
4.38e-05
5.55989e-05
4.37566e-05
5.553e-05
4.57063e-05
4.55327e-05
4.35791e-05
5.54237e-05
5.31744e-05
4.55356e-05
4.35976e-05
5.54916e-05
4.8062e-05
5.25212e-05
6.01451e-05
5.85196e-05
5.84624e-05
5.24877e-05
4.80742e-05
4.79239e-05
5.83692e-05
5.23563e-05
6.01189e-05
4.79091e-05
5.84274e-05
5.23902e-05
4.57193e-05
5.32194e-05
4.37801e-05
5.5602e-05
4.37624e-05
5.55347e-05
4.57073e-05
5.94467e-05
4.15793e-05
5.03256e-05
5.03305e-05
5.94149e-05
5.03559e-05
5.03609e-05
1.49181e-05
1.61047e-05
1.61052e-05
1.80764e-05
1.79843e-05
1.60862e-05
1.60854e-05
1.79689e-05
1.60857e-05
1.60853e-05
1.60854e-05
1.60854e-05
1.7968e-05
1.60859e-05
1.60859e-05
1.79843e-05
1.80763e-05
1.85546e-05
1.61049e-05
1.61048e-05
1.61969e-05
1.61961e-05
1.80861e-05
1.85383e-05
1.61054e-05
1.61046e-05
1.61957e-05
1.61958e-05
1.61046e-05
1.61958e-05
1.6196e-05
1.80876e-05
1.85367e-05
1.61051e-05
1.61963e-05
1.61964e-05
1.8557e-05
1.50066e-05
1.50064e-05
1.50064e-05
1.50064e-05
5.35071e-05
7.00389e-05
5.29534e-05
7.00632e-05
6.96363e-05
6.96163e-05
5.35182e-05
7.0043e-05
5.29536e-05
7.00713e-05
1.49179e-05
1.49179e-05
1.49179e-05
1.46698e-05
1.46696e-05
1.46697e-05
1.46697e-05
2.93487e-05
4.52059e-05
1.48829e-05
1.61293e-05
2.87854e-05
4.5618e-05
1.48319e-05
6.96368e-05
6.96167e-05
2.93524e-05
1.48831e-05
4.52037e-05
1.61298e-05
2.8785e-05
1.48321e-05
4.562e-05
5.90536e-05
5.90635e-05
1.82578e-05
5.92793e-05
5.929e-05
6.96521e-05
6.96732e-05
6.96537e-05
6.96746e-05
1.78205e-05
5.89328e-05
5.89446e-05
5.86923e-05
5.87036e-05
5.21518e-05
7.00328e-05
7.00078e-05
5.27516e-05
5.21532e-05
7.00409e-05
7.00112e-05
5.27548e-05
2.79385e-05
1.60726e-05
4.49847e-05
1.4937e-05
4.45594e-05
1.49962e-05
2.84952e-05
2.794e-05
1.60721e-05
4.49909e-05
1.49366e-05
4.45626e-05
1.4996e-05
2.8495e-05
6.96541e-05
6.9675e-05
1.78331e-05
5.89453e-05
5.89318e-05
5.87059e-05
5.86924e-05
6.96517e-05
6.96727e-05
5.21509e-05
7.00409e-05
7.00111e-05
5.27636e-05
2.79403e-05
1.60727e-05
4.49879e-05
1.49366e-05
4.45618e-05
1.4996e-05
2.84956e-05
5.21504e-05
7.00377e-05
7.00082e-05
5.27621e-05
2.79317e-05
1.60719e-05
1.49362e-05
4.49894e-05
1.49956e-05
4.4557e-05
2.84995e-05
2.79325e-05
1.60722e-05
4.49835e-05
1.49368e-05
4.45572e-05
1.49961e-05
2.84962e-05
5.21535e-05
7.00382e-05
7.00131e-05
5.27558e-05
2.79361e-05
1.60719e-05
1.49365e-05
4.49868e-05
1.49958e-05
4.45605e-05
2.8498e-05
5.21534e-05
7.00343e-05
7.0009e-05
5.27535e-05
6.96547e-05
6.96756e-05
1.78354e-05
5.89419e-05
5.89344e-05
5.87026e-05
5.86937e-05
6.9653e-05
6.96741e-05
2.79373e-05
1.60726e-05
1.4937e-05
4.49898e-05
1.49964e-05
4.4558e-05
2.85002e-05
2.79365e-05
1.60725e-05
1.49371e-05
4.49943e-05
1.49965e-05
4.4559e-05
2.85022e-05
5.21479e-05
7.00367e-05
7.00069e-05
5.27652e-05
5.21488e-05
7.00411e-05
7.00114e-05
5.27662e-05
1.78197e-05
5.89347e-05
5.89458e-05
5.86953e-05
5.87054e-05
6.96523e-05
6.96736e-05
6.96542e-05
6.96752e-05
6.96344e-05
6.96142e-05
6.9636e-05
6.9616e-05
5.90507e-05
5.90622e-05
1.82553e-05
5.92766e-05
5.92888e-05
6.95778e-05
6.95969e-05
6.95796e-05
6.95988e-05
1.83587e-05
5.96031e-05
5.96102e-05
5.9388e-05
5.94001e-05
5.35106e-05
7.00431e-05
5.29548e-05
7.00713e-05
2.93453e-05
4.52069e-05
1.4883e-05
1.61303e-05
2.87859e-05
4.56164e-05
1.48321e-05
2.93465e-05
4.52125e-05
1.48827e-05
1.61294e-05
2.87872e-05
4.5625e-05
1.48317e-05
5.36893e-05
7.00922e-05
7.00691e-05
5.41991e-05
5.3691e-05
7.01e-05
7.00733e-05
5.42024e-05
2.9638e-05
1.61601e-05
4.62222e-05
1.47442e-05
4.58296e-05
1.47867e-05
3.01984e-05
2.96393e-05
1.61601e-05
4.62278e-05
1.47439e-05
4.58328e-05
1.47865e-05
3.02003e-05
5.90641e-05
5.90511e-05
1.82378e-05
5.92896e-05
5.92771e-05
6.96339e-05
6.96139e-05
6.958e-05
6.95991e-05
1.83697e-05
5.96139e-05
5.9601e-05
5.94016e-05
5.93883e-05
6.95775e-05
6.95966e-05
2.9348e-05
4.52102e-05
1.48828e-05
1.61295e-05
2.87876e-05
4.56201e-05
1.48317e-05
5.35172e-05
7.004e-05
5.29527e-05
7.00681e-05
2.93499e-05
1.48823e-05
4.52051e-05
1.61292e-05
2.87827e-05
1.48313e-05
4.56221e-05
5.36902e-05
7.01e-05
7.00733e-05
5.42094e-05
2.96408e-05
1.61608e-05
4.62241e-05
1.47439e-05
4.58327e-05
1.47865e-05
3.0202e-05
5.36894e-05
7.00965e-05
7.00701e-05
5.42086e-05
2.96373e-05
1.61599e-05
1.47435e-05
4.62287e-05
1.47861e-05
4.58286e-05
3.0203e-05
5.35109e-05
7.00441e-05
5.29553e-05
7.00688e-05
2.9345e-05
1.48826e-05
4.52083e-05
1.61294e-05
2.87823e-05
1.48317e-05
4.56194e-05
5.35087e-05
7.004e-05
5.29554e-05
7.00648e-05
2.96368e-05
1.61598e-05
4.62241e-05
1.4744e-05
4.58253e-05
1.47865e-05
3.02013e-05
5.36922e-05
7.00975e-05
7.00744e-05
5.42025e-05
2.96371e-05
1.61599e-05
1.47438e-05
4.62261e-05
1.47864e-05
4.58306e-05
3.01992e-05
5.36917e-05
7.00934e-05
7.00703e-05
5.42003e-05
5.9061e-05
5.90524e-05
1.82371e-05
5.92871e-05
5.92782e-05
6.96353e-05
6.96151e-05
6.95803e-05
6.95993e-05
1.83708e-05
5.96111e-05
5.96023e-05
5.93986e-05
5.93902e-05
6.95786e-05
6.95979e-05
2.9353e-05
1.48832e-05
4.52083e-05
1.61299e-05
2.87838e-05
1.48322e-05
4.56237e-05
5.35201e-05
7.0039e-05
5.29503e-05
7.00674e-05
5.3521e-05
7.00434e-05
5.29512e-05
7.00717e-05
2.9637e-05
1.61604e-05
1.47443e-05
4.62268e-05
1.47869e-05
4.58276e-05
3.02059e-05
2.96376e-05
1.61604e-05
1.47444e-05
4.62279e-05
1.47869e-05
4.58326e-05
3.02064e-05
5.36872e-05
7.0096e-05
7.00693e-05
5.4211e-05
5.36881e-05
7.01003e-05
7.00737e-05
5.42119e-05
6.96348e-05
6.96145e-05
6.96365e-05
6.96164e-05
1.83601e-05
5.9603e-05
5.96141e-05
5.93904e-05
5.94009e-05
6.95781e-05
6.95974e-05
6.95801e-05
6.95993e-05
6.98487e-05
5.33296e-05
6.91804e-05
5.95595e-05
6.91659e-05
5.93934e-05
6.98601e-05
7.09922e-05
7.40095e-05
7.00483e-05
7.09889e-05
7.40774e-05
6.98475e-05
5.31375e-05
6.91436e-05
5.91214e-05
6.98358e-05
6.91579e-05
5.92927e-05
7.09686e-05
7.41741e-05
7.00541e-05
7.41111e-05
7.09718e-05
6.9635e-05
6.96175e-05
6.9851e-05
5.33302e-05
5.95708e-05
6.91819e-05
5.93979e-05
6.91672e-05
6.98625e-05
7.09947e-05
7.40275e-05
7.00564e-05
7.09917e-05
7.41034e-05
6.98498e-05
5.3149e-05
5.91251e-05
6.91449e-05
6.9838e-05
5.93043e-05
6.91592e-05
7.09715e-05
7.42004e-05
7.00584e-05
7.413e-05
7.09743e-05
6.96355e-05
6.96179e-05
8.75161e-05
7.24406e-05
7.24348e-05
7.24399e-05
7.24341e-05
8.75907e-05
5.70406e-05
3.89753e-05
6.88077e-05
5.91093e-05
5.69457e-05
3.90994e-05
6.88358e-05
5.71068e-05
3.89908e-05
6.88196e-05
5.91203e-05
5.70101e-05
3.9121e-05
6.88477e-05
8.74847e-05
7.2462e-05
7.24561e-05
8.74074e-05
7.24626e-05
7.24568e-05
5.723e-05
6.88724e-05
5.92243e-05
3.94878e-05
3.93638e-05
6.88452e-05
5.73214e-05
5.72946e-05
6.88843e-05
5.92348e-05
3.95071e-05
3.938e-05
6.88571e-05
5.73872e-05
6.96536e-05
6.96716e-05
6.96551e-05
6.96731e-05
8.72546e-05
7.25068e-05
7.25003e-05
8.71787e-05
7.25073e-05
7.25011e-05
5.6657e-05
3.87087e-05
5.88742e-05
6.87955e-05
6.87706e-05
3.85777e-05
5.67481e-05
5.67226e-05
3.87255e-05
5.88857e-05
6.88096e-05
6.87804e-05
3.85962e-05
5.68164e-05
5.6451e-05
6.87307e-05
3.81776e-05
5.8753e-05
5.6357e-05
6.87565e-05
3.83104e-05
5.65164e-05
6.87402e-05
3.8194e-05
5.87644e-05
5.64233e-05
6.87701e-05
3.83273e-05
8.72953e-05
7.24849e-05
7.24787e-05
7.24844e-05
7.24779e-05
8.73694e-05
6.98212e-05
6.91009e-05
5.85398e-05
5.23492e-05
6.98092e-05
6.91136e-05
5.87211e-05
7.10091e-05
7.00232e-05
7.39735e-05
7.10125e-05
7.39041e-05
7.10328e-05
7.37896e-05
7.00172e-05
7.10292e-05
7.38662e-05
6.98226e-05
5.25614e-05
6.91354e-05
5.90133e-05
6.98345e-05
6.9121e-05
5.88368e-05
6.98238e-05
6.91017e-05
5.8543e-05
5.23526e-05
6.98118e-05
6.91145e-05
5.87332e-05
7.1013e-05
7.00271e-05
7.40037e-05
7.39223e-05
7.1016e-05
7.10363e-05
7.38103e-05
7.0025e-05
7.10331e-05
7.38943e-05
6.98252e-05
5.25626e-05
6.91358e-05
5.90253e-05
6.91219e-05
5.88407e-05
6.98372e-05
6.96555e-05
6.96735e-05
8.72564e-05
7.25012e-05
7.25063e-05
8.7176e-05
7.25018e-05
7.25069e-05
5.67195e-05
3.87245e-05
5.88877e-05
6.88081e-05
3.85976e-05
6.87829e-05
5.6812e-05
5.66554e-05
3.87063e-05
5.88748e-05
6.87957e-05
6.87707e-05
3.85772e-05
5.67475e-05
5.65184e-05
6.87429e-05
3.81977e-05
5.87651e-05
3.8325e-05
5.64185e-05
6.87689e-05
5.64515e-05
6.87308e-05
3.81773e-05
5.8752e-05
5.63555e-05
6.87567e-05
3.83081e-05
8.72937e-05
7.24794e-05
7.24845e-05
7.24788e-05
7.24839e-05
8.73699e-05
6.96532e-05
6.96712e-05
6.98232e-05
5.85423e-05
6.91021e-05
5.23612e-05
6.98111e-05
5.87337e-05
6.91149e-05
7.10119e-05
7.00271e-05
7.40007e-05
7.1015e-05
7.39219e-05
7.10352e-05
7.3807e-05
7.00248e-05
7.1032e-05
7.38914e-05
6.98246e-05
5.25607e-05
5.90254e-05
6.91367e-05
6.98367e-05
5.88401e-05
6.91222e-05
6.9823e-05
6.91019e-05
5.85427e-05
5.23599e-05
6.9811e-05
6.91148e-05
5.87244e-05
7.10115e-05
7.00241e-05
7.39794e-05
7.39034e-05
7.1015e-05
7.10354e-05
7.3789e-05
7.0022e-05
7.10317e-05
7.38705e-05
6.98244e-05
5.25602e-05
6.91361e-05
5.90168e-05
6.91221e-05
5.88401e-05
6.98363e-05
6.98231e-05
5.85418e-05
6.90967e-05
5.23535e-05
6.98107e-05
5.8732e-05
6.91169e-05
7.10124e-05
7.00287e-05
7.39951e-05
7.39261e-05
7.10154e-05
7.10357e-05
7.38115e-05
7.00228e-05
7.10326e-05
7.38881e-05
6.98242e-05
5.25628e-05
5.90238e-05
6.91385e-05
5.88393e-05
6.91182e-05
6.98365e-05
6.98215e-05
6.91006e-05
5.85387e-05
5.23508e-05
6.98094e-05
6.91136e-05
5.87267e-05
7.10099e-05
7.00245e-05
7.39758e-05
7.39059e-05
7.10129e-05
7.10332e-05
7.3792e-05
7.00188e-05
7.10301e-05
7.38681e-05
6.98228e-05
5.25629e-05
6.91348e-05
5.90188e-05
6.91209e-05
5.88362e-05
6.98349e-05
6.9656e-05
6.96742e-05
8.7263e-05
7.25015e-05
7.25074e-05
8.71789e-05
7.25022e-05
7.2508e-05
5.67219e-05
3.87279e-05
5.88843e-05
6.88093e-05
3.85968e-05
6.87804e-05
5.68169e-05
5.66561e-05
3.87094e-05
5.88761e-05
6.87962e-05
6.87714e-05
3.85789e-05
5.67498e-05
5.6524e-05
6.87404e-05
3.81958e-05
5.87619e-05
3.8328e-05
5.64223e-05
6.87698e-05
5.64572e-05
6.87316e-05
3.81778e-05
5.87545e-05
5.63562e-05
6.87571e-05
3.83101e-05
8.7297e-05
7.24798e-05
7.24856e-05
7.24791e-05
7.24849e-05
8.7377e-05
6.96545e-05
6.96725e-05
6.98223e-05
5.85373e-05
6.90972e-05
5.2363e-05
6.981e-05
5.87292e-05
6.91176e-05
7.10113e-05
7.0023e-05
7.39808e-05
7.39003e-05
7.10144e-05
7.10347e-05
7.37875e-05
7.00209e-05
7.10315e-05
7.38709e-05
6.98235e-05
5.25575e-05
5.90214e-05
6.91392e-05
5.88351e-05
6.91187e-05
6.98357e-05
6.98234e-05
5.85415e-05
6.91021e-05
5.23642e-05
6.98113e-05
5.87348e-05
6.91152e-05
7.10122e-05
7.00273e-05
7.39997e-05
7.39194e-05
7.10153e-05
7.10355e-05
7.38066e-05
7.00252e-05
7.10324e-05
7.38909e-05
6.98248e-05
5.25585e-05
5.90265e-05
6.91365e-05
5.88391e-05
6.91224e-05
6.98369e-05
8.72597e-05
7.25065e-05
7.25007e-05
8.71774e-05
7.25072e-05
7.25013e-05
5.6654e-05
3.8708e-05
5.88772e-05
6.87978e-05
5.67513e-05
3.85804e-05
6.87686e-05
5.67192e-05
3.87285e-05
5.88873e-05
6.88095e-05
5.68172e-05
3.85961e-05
6.87804e-05
5.6455e-05
6.87286e-05
3.81812e-05
5.87546e-05
5.63531e-05
3.83089e-05
6.87582e-05
5.65219e-05
6.87407e-05
3.81973e-05
5.87652e-05
5.64184e-05
3.8329e-05
6.87699e-05
8.72941e-05
7.24848e-05
7.2479e-05
8.7374e-05
7.24842e-05
7.24783e-05
6.9654e-05
6.96718e-05
6.96557e-05
6.96735e-05
6.9633e-05
6.96155e-05
6.96347e-05
6.96172e-05
8.75165e-05
7.24406e-05
7.24344e-05
7.244e-05
7.24335e-05
8.75855e-05
5.70369e-05
3.89733e-05
6.88091e-05
5.9108e-05
5.69482e-05
6.88335e-05
3.91016e-05
5.71048e-05
3.89921e-05
6.88195e-05
5.91192e-05
5.70116e-05
6.88477e-05
3.91191e-05
8.74788e-05
7.24621e-05
7.24556e-05
8.74078e-05
7.24627e-05
7.24564e-05
5.72319e-05
6.887e-05
5.92214e-05
3.94881e-05
6.88468e-05
5.73188e-05
3.93619e-05
5.72954e-05
6.88845e-05
5.92338e-05
3.95055e-05
6.88569e-05
5.73868e-05
3.93803e-05
6.95787e-05
6.95958e-05
6.95808e-05
6.95977e-05
8.76876e-05
7.24182e-05
7.24116e-05
8.76204e-05
7.24188e-05
7.24126e-05
5.77631e-05
4.02531e-05
5.95492e-05
6.89406e-05
6.89183e-05
4.01169e-05
5.78805e-05
5.78397e-05
4.02527e-05
5.95613e-05
6.89537e-05
6.89284e-05
4.01412e-05
5.79156e-05
5.75983e-05
6.8883e-05
3.97425e-05
5.94405e-05
5.75016e-05
6.8906e-05
3.98699e-05
5.76639e-05
6.88933e-05
3.97634e-05
5.94533e-05
5.75693e-05
6.89197e-05
3.98879e-05
8.7721e-05
7.23972e-05
7.23907e-05
7.23965e-05
7.23899e-05
8.7784e-05
6.98514e-05
5.33312e-05
6.91813e-05
5.95711e-05
6.91667e-05
5.93981e-05
6.98628e-05
7.09957e-05
7.40307e-05
7.00564e-05
7.09928e-05
7.41065e-05
6.98502e-05
5.31408e-05
6.91441e-05
5.91253e-05
6.91587e-05
6.98385e-05
5.93044e-05
7.09725e-05
7.42041e-05
7.00583e-05
7.41317e-05
7.09753e-05
6.98723e-05
6.9189e-05
5.96536e-05
5.3861e-05
6.98611e-05
6.92041e-05
5.98146e-05
7.09278e-05
7.00835e-05
7.43551e-05
7.42982e-05
7.09307e-05
7.09512e-05
7.42068e-05
7.00782e-05
7.09483e-05
7.42676e-05
6.9873e-05
5.40341e-05
6.92272e-05
6.00582e-05
6.92124e-05
5.99028e-05
6.98838e-05
6.98749e-05
6.91896e-05
5.96588e-05
5.38644e-05
6.98638e-05
6.92048e-05
5.98257e-05
7.09316e-05
7.00874e-05
7.43838e-05
7.43189e-05
7.09343e-05
7.09548e-05
7.42279e-05
7.00859e-05
7.09521e-05
7.4296e-05
6.98757e-05
5.40358e-05
6.92279e-05
6.00689e-05
6.92131e-05
5.99086e-05
6.98864e-05
8.75158e-05
7.24351e-05
7.24402e-05
7.24345e-05
7.24395e-05
8.75859e-05
5.71012e-05
3.89909e-05
6.88215e-05
5.91199e-05
6.88461e-05
5.70128e-05
3.91177e-05
5.70364e-05
3.89721e-05
6.88092e-05
5.9107e-05
3.90992e-05
5.6947e-05
6.88338e-05
8.74791e-05
7.24566e-05
7.24616e-05
7.24572e-05
8.74068e-05
7.24622e-05
5.72966e-05
6.88827e-05
5.92353e-05
3.95045e-05
6.88593e-05
3.93798e-05
5.73819e-05
5.72306e-05
6.88703e-05
5.92221e-05
3.94864e-05
3.93607e-05
6.8847e-05
5.73182e-05
6.96326e-05
6.96151e-05
6.9581e-05
6.95979e-05
8.7688e-05
7.24126e-05
7.24176e-05
8.76191e-05
7.24133e-05
7.24183e-05
5.78409e-05
4.02599e-05
5.95628e-05
6.89528e-05
4.01395e-05
6.8931e-05
5.79225e-05
5.7775e-05
4.02418e-05
5.95487e-05
6.89403e-05
6.89185e-05
4.01194e-05
5.78575e-05
5.76546e-05
6.88956e-05
3.97626e-05
5.94544e-05
3.98849e-05
5.75723e-05
6.89185e-05
5.75918e-05
6.88831e-05
3.97435e-05
5.94419e-05
5.7506e-05
6.89062e-05
3.98673e-05
8.77191e-05
7.23916e-05
7.23966e-05
7.23909e-05
7.23959e-05
8.7787e-05
6.95784e-05
6.95955e-05
6.98504e-05
5.33293e-05
6.91815e-05
5.95637e-05
6.91669e-05
5.93966e-05
6.98617e-05
7.09945e-05
7.40094e-05
7.00533e-05
7.09911e-05
7.40825e-05
6.98492e-05
5.3148e-05
6.91443e-05
5.91243e-05
6.9159e-05
6.98376e-05
5.92966e-05
7.09706e-05
7.418e-05
7.00551e-05
7.41111e-05
7.09739e-05
6.98747e-05
5.96584e-05
6.91903e-05
5.38716e-05
6.98635e-05
5.98254e-05
6.92056e-05
7.09308e-05
7.00876e-05
7.43809e-05
7.4316e-05
7.09334e-05
7.09539e-05
7.42252e-05
7.00859e-05
7.09511e-05
7.4293e-05
6.98755e-05
5.40349e-05
6.00685e-05
6.92288e-05
5.99079e-05
6.92138e-05
6.98862e-05
6.98737e-05
6.91898e-05
5.96568e-05
5.38707e-05
6.98627e-05
6.92051e-05
5.98188e-05
7.09294e-05
7.00839e-05
7.43605e-05
7.42964e-05
7.09326e-05
7.09533e-05
7.42067e-05
7.00825e-05
7.095e-05
7.42726e-05
6.98745e-05
5.40342e-05
6.92283e-05
6.00625e-05
6.92133e-05
5.99058e-05
6.98851e-05
6.98505e-05
5.33316e-05
5.95695e-05
6.91838e-05
5.93967e-05
6.91626e-05
6.98621e-05
7.0995e-05
7.40314e-05
7.0054e-05
7.40991e-05
7.09921e-05
6.98495e-05
5.31415e-05
5.91241e-05
6.91405e-05
5.9303e-05
6.98375e-05
6.91609e-05
7.09718e-05
7.41958e-05
7.00595e-05
7.41336e-05
7.09746e-05
6.9849e-05
5.33318e-05
6.91803e-05
5.95647e-05
6.91657e-05
5.93932e-05
6.98605e-05
7.09926e-05
7.40116e-05
7.005e-05
7.09897e-05
7.40793e-05
6.98479e-05
5.31392e-05
6.9143e-05
5.91208e-05
6.98361e-05
6.91577e-05
5.92979e-05
7.09693e-05
7.41763e-05
7.00554e-05
7.41134e-05
7.09721e-05
6.98742e-05
5.96575e-05
6.91863e-05
5.38646e-05
6.98629e-05
5.98242e-05
6.92074e-05
7.09309e-05
7.00888e-05
7.4376e-05
7.43204e-05
7.09335e-05
7.09541e-05
7.42292e-05
7.00836e-05
7.09514e-05
7.42892e-05
6.98748e-05
5.40367e-05
6.00673e-05
6.92306e-05
5.99072e-05
6.92095e-05
6.98856e-05
6.98726e-05
6.91886e-05
5.96539e-05
5.38623e-05
6.98615e-05
6.92038e-05
5.98195e-05
7.09285e-05
7.00848e-05
7.43563e-05
7.43007e-05
7.09311e-05
7.09516e-05
7.42088e-05
7.00796e-05
7.0949e-05
7.42695e-05
6.98734e-05
5.40362e-05
6.9227e-05
6.00628e-05
6.92121e-05
5.99033e-05
6.9884e-05
8.75217e-05
7.24355e-05
7.24412e-05
7.24348e-05
7.24406e-05
8.75904e-05
5.71046e-05
3.89913e-05
6.88196e-05
5.91171e-05
6.88475e-05
5.70159e-05
3.91199e-05
5.70387e-05
3.89737e-05
6.881e-05
5.91084e-05
3.91007e-05
5.69501e-05
6.88342e-05
8.74855e-05
7.24569e-05
7.24627e-05
7.24576e-05
8.74114e-05
7.24633e-05
5.72994e-05
6.88842e-05
5.92323e-05
3.95072e-05
6.8857e-05
3.93802e-05
5.73856e-05
5.72332e-05
6.88709e-05
5.92241e-05
3.94869e-05
3.93635e-05
6.88476e-05
5.73209e-05
6.96338e-05
6.96164e-05
6.95812e-05
6.95983e-05
8.76916e-05
7.24129e-05
7.24186e-05
8.76263e-05
7.24136e-05
7.24193e-05
5.78443e-05
4.02611e-05
5.95597e-05
6.89543e-05
4.01398e-05
6.89283e-05
5.79262e-05
5.77782e-05
4.0243e-05
5.95513e-05
6.89409e-05
6.89191e-05
4.01238e-05
5.78595e-05
5.76583e-05
6.88933e-05
3.97631e-05
5.94517e-05
3.98872e-05
5.75757e-05
6.89197e-05
5.75942e-05
6.88837e-05
3.97467e-05
5.94431e-05
5.7509e-05
6.89068e-05
3.98679e-05
8.77274e-05
7.2392e-05
7.23977e-05
7.23912e-05
7.23969e-05
8.77902e-05
6.95798e-05
6.95967e-05
6.98497e-05
5.33268e-05
5.95668e-05
6.91846e-05
5.93928e-05
6.91632e-05
6.98614e-05
7.0994e-05
7.40072e-05
7.00524e-05
7.40837e-05
7.09911e-05
6.98488e-05
5.31508e-05
5.912e-05
6.91411e-05
5.93002e-05
6.98368e-05
6.91616e-05
7.09708e-05
7.41814e-05
7.00543e-05
7.41091e-05
7.09736e-05
6.98511e-05
5.33278e-05
5.95715e-05
6.91821e-05
5.93968e-05
6.91673e-05
6.98626e-05
7.09949e-05
7.40267e-05
7.00567e-05
7.0992e-05
7.41027e-05
6.985e-05
5.31516e-05
5.91241e-05
6.91446e-05
6.98382e-05
5.93052e-05
6.91595e-05
7.09717e-05
7.42e-05
7.00587e-05
7.41279e-05
7.09745e-05
6.98735e-05
5.96539e-05
6.91869e-05
5.38733e-05
6.98622e-05
5.98211e-05
6.92082e-05
7.09298e-05
7.00834e-05
7.43613e-05
7.42959e-05
7.09325e-05
7.09531e-05
7.42051e-05
7.00819e-05
7.09503e-05
7.42734e-05
6.98741e-05
5.4032e-05
6.00642e-05
6.92314e-05
5.99038e-05
6.92102e-05
6.98849e-05
6.98747e-05
5.9658e-05
6.91903e-05
5.38742e-05
6.98636e-05
5.98258e-05
6.92057e-05
7.09308e-05
7.00878e-05
7.43796e-05
7.43144e-05
7.09334e-05
7.09539e-05
7.42238e-05
7.00862e-05
7.09512e-05
7.4292e-05
6.98756e-05
5.40329e-05
6.00687e-05
6.92289e-05
5.99079e-05
6.92139e-05
6.98863e-05
6.96333e-05
6.96159e-05
6.96351e-05
6.96177e-05
8.76929e-05
7.2418e-05
7.24122e-05
8.76203e-05
7.24188e-05
7.24129e-05
5.77752e-05
4.02429e-05
5.95516e-05
6.89424e-05
4.01232e-05
6.89165e-05
5.78618e-05
5.78389e-05
4.02622e-05
5.95619e-05
6.89544e-05
4.01386e-05
6.89285e-05
5.79253e-05
5.75952e-05
6.88814e-05
3.97464e-05
5.94437e-05
5.75061e-05
3.98672e-05
6.89079e-05
5.76612e-05
6.88936e-05
3.97633e-05
5.94545e-05
5.75707e-05
3.98881e-05
6.89198e-05
8.77212e-05
7.23972e-05
7.23914e-05
7.23964e-05
7.23906e-05
8.77907e-05
6.95793e-05
6.95961e-05
6.95812e-05
6.95981e-05
1.50405e-05
1.50406e-05
1.48324e-05
1.49326e-05
1.49327e-05
1.52915e-05
1.54094e-05
3.78637e-05
2.48673e-05
2.48717e-05
1.81168e-05
3.77236e-05
2.49747e-05
2.49828e-05
3.73182e-05
1.79462e-05
2.46678e-05
2.46715e-05
2.45591e-05
2.45617e-05
3.74481e-05
3.73124e-05
1.79575e-05
2.46539e-05
2.46499e-05
2.45727e-05
2.45722e-05
3.74403e-05
3.73154e-05
1.79595e-05
2.46515e-05
2.46489e-05
2.45805e-05
2.45741e-05
3.74431e-05
3.73134e-05
1.79455e-05
2.46646e-05
2.4674e-05
3.74499e-05
2.45561e-05
2.45624e-05
3.78591e-05
2.4869e-05
2.48743e-05
1.81145e-05
3.7726e-05
2.49761e-05
2.49814e-05
3.89336e-05
1.85076e-05
2.59436e-05
2.59368e-05
2.58171e-05
2.58288e-05
3.90624e-05
3.78536e-05
2.4882e-05
2.48803e-05
1.80988e-05
2.49599e-05
3.77298e-05
2.49637e-05
3.8938e-05
1.85232e-05
2.59245e-05
2.59188e-05
2.58366e-05
2.58341e-05
3.90533e-05
3.78554e-05
2.48883e-05
2.48826e-05
1.80982e-05
2.49575e-05
3.77325e-05
2.49632e-05
3.89393e-05
1.85249e-05
2.59201e-05
2.59134e-05
2.58446e-05
2.58419e-05
3.9059e-05
3.89328e-05
1.85091e-05
2.59363e-05
2.59412e-05
2.582e-05
2.58251e-05
3.90649e-05
1.50982e-05
1.51505e-05
1.51506e-05
1.52629e-05
1.5263e-05
1.56504e-05
1.5529e-05
1.5098e-05
1.51504e-05
1.51506e-05
1.52628e-05
1.52631e-05
1.56504e-05
1.5529e-05
1.5098e-05
1.51502e-05
1.51507e-05
1.52626e-05
1.52631e-05
1.56502e-05
1.55289e-05
1.5098e-05
1.51503e-05
1.51507e-05
1.52627e-05
1.52631e-05
1.56503e-05
1.55289e-05
1.50404e-05
1.50406e-05
1.48322e-05
1.49325e-05
1.49328e-05
1.52915e-05
1.54094e-05
1.50402e-05
1.50406e-05
1.48322e-05
1.49323e-05
1.49328e-05
1.52914e-05
1.54093e-05
1.50403e-05
1.50407e-05
1.48322e-05
1.49325e-05
1.49328e-05
1.52914e-05
1.54093e-05
1.47497e-05
1.47238e-05
1.47239e-05
1.48271e-05
1.48272e-05
1.51753e-05
1.50608e-05
1.47495e-05
1.47237e-05
1.47239e-05
1.4827e-05
1.48273e-05
1.51753e-05
1.50608e-05
1.47495e-05
1.47235e-05
1.4724e-05
1.48268e-05
1.48273e-05
1.51752e-05
1.50606e-05
1.47496e-05
1.47237e-05
1.4724e-05
1.4827e-05
1.48273e-05
1.51752e-05
1.50607e-05
1.96157e-05
2.92095e-05
3.35511e-05
1.80067e-05
3.34197e-05
1.79582e-05
1.96438e-05
2.23948e-05
2.75726e-05
3.95919e-05
4.53039e-05
2.23147e-05
2.76921e-05
3.97004e-05
1.9451e-05
2.89217e-05
3.29976e-05
1.7806e-05
1.94251e-05
3.31298e-05
1.78507e-05
2.25735e-05
4.00784e-05
4.55176e-05
2.80388e-05
2.79165e-05
3.99673e-05
2.26572e-05
1.96001e-05
2.92101e-05
1.80068e-05
3.35537e-05
1.796e-05
3.34136e-05
1.96656e-05
2.24022e-05
2.75727e-05
3.95747e-05
4.53079e-05
2.23108e-05
2.76911e-05
3.97057e-05
1.94702e-05
2.89248e-05
1.78071e-05
3.29915e-05
1.94074e-05
1.78512e-05
3.31321e-05
2.25678e-05
4.00837e-05
4.55193e-05
2.80407e-05
2.79185e-05
3.99541e-05
2.26553e-05
3.81343e-05
1.82162e-05
2.52936e-05
2.53043e-05
2.5184e-05
2.51903e-05
3.82686e-05
3.70249e-05
1.78568e-05
2.42481e-05
2.4257e-05
3.68996e-05
2.43596e-05
2.4364e-05
1.9088e-05
3.21434e-05
1.75336e-05
2.80698e-05
1.90631e-05
3.22806e-05
1.75552e-05
2.2081e-05
2.73366e-05
4.48864e-05
3.9322e-05
2.72427e-05
3.91914e-05
2.2123e-05
2.18741e-05
3.88048e-05
2.69025e-05
4.4659e-05
2.69957e-05
2.18354e-05
3.89342e-05
1.92419e-05
2.83614e-05
3.27004e-05
1.76952e-05
3.25687e-05
1.7671e-05
1.92656e-05
1.90894e-05
3.21448e-05
1.75332e-05
2.80702e-05
1.90624e-05
3.22837e-05
1.75551e-05