/*--------------------------------*- C++ -*----------------------------------*\
| =========                 |                                                 |
| \\      /  F ield         | OpenFOAM: The Open Source CFD Toolbox           |
|  \\    /   O peration     | Version:  v1906                                 |
|   \\  /    A nd           | Web:      www.OpenFOAM.com                      |
|    \\/     M anipulation  |                                                 |
\*---------------------------------------------------------------------------*/
FoamFile
{
    version     2.0;
    format      ascii;
    class       volScalarField;
    location    "750";
    object      nut;
}
// * * * * * * * * * * * * * * * * * * * * * * * * * * * * * * * * * * * * * //

dimensions      [0 2 -1 0 0 0 0];


internalField   nonuniform List<scalar> 
43248
(
0.000136838
0.000138622
0.00013862
0.000136697
0.000138638
0.000138613
0.000138631
0.000138643
0.000136779
0.000138631
0.00013865
0.000136689
0.000122371
0.000122364
0.000122365
0.000122385
2.36122e-05
2.36117e-05
7.3734e-05
7.37355e-05
9.18221e-05
5.00154e-05
9.20529e-05
9.18306e-05
5.00198e-05
5.00043e-05
9.20553e-05
0.00012067
9.3815e-05
0.000133974
0.000133113
0.000121312
0.000120676
0.000137832
9.38258e-05
0.000133976
9.35235e-05
0.000133113
0.000121319
2.36121e-05
2.36076e-05
0.000135886
7.37375e-05
7.37243e-05
7.36285e-05
7.36271e-05
2.36127e-05
2.36082e-05
5.00164e-05
9.20626e-05
9.38263e-05
0.000133987
0.00012133
5.0009e-05
9.20666e-05
0.000133982
9.37969e-05
0.00012132
0.000120682
0.000137843
9.38261e-05
0.000133984
9.35287e-05
0.000133122
0.000121333
9.1826e-05
5.00187e-05
5.00033e-05
9.2065e-05
0.00012068
0.000137856
0.000133997
9.38207e-05
0.000133134
9.35311e-05
0.000121327
9.18257e-05
5.00154e-05
5e-05
9.20658e-05
2.361e-05
7.37158e-05
7.37315e-05
2.36118e-05
0.000120683
0.000133997
9.38216e-05
0.000133136
0.000121328
0.000120686
0.000137862
0.000134007
9.38188e-05
0.000133145
9.35335e-05
0.00012132
9.18368e-05
5.00114e-05
9.20596e-05
9.18386e-05
5.00123e-05
5.00035e-05
9.20609e-05
0.000136025
7.37308e-05
7.37344e-05
7.36359e-05
7.36321e-05
2.36117e-05
2.36072e-05
2.36113e-05
2.36069e-05
2.36103e-05
2.36093e-05
9.72563e-05
0.000112669
7.37e-05
4.79387e-05
4.79319e-05
0.000112502
9.73183e-05
9.72873e-05
0.000112654
7.36954e-05
4.79345e-05
4.79282e-05
0.000112505
9.73571e-05
7.88192e-05
2.14921e-05
2.14902e-05
2.14904e-05
2.14878e-05
7.88427e-05
3.62676e-05
4.05324e-05
8.80199e-05
9.19399e-05
3.62643e-05
4.05396e-05
8.81132e-05
2.01019e-05
5.00128e-05
7.60339e-05
7.59925e-05
2.0104e-05
3.62678e-05
9.19478e-05
4.0544e-05
8.82056e-05
4.05364e-05
8.81218e-05
3.62709e-05
3.62689e-05
4.0533e-05
8.80427e-05
9.19331e-05
3.6267e-05
4.05389e-05
8.8122e-05
2.01031e-05
5.00113e-05
7.60623e-05
7.60171e-05
2.01051e-05
2.01037e-05
7.59704e-05
5.0012e-05
2.01017e-05
7.60156e-05
3.62708e-05
9.19526e-05
4.05412e-05
8.82208e-05
4.05393e-05
8.8141e-05
3.62716e-05
2.36099e-05
2.36098e-05
7.87959e-05
2.14865e-05
2.1489e-05
7.87777e-05
2.14885e-05
2.14911e-05
9.7276e-05
0.000112661
7.36961e-05
4.79347e-05
0.000112489
4.79247e-05
9.73269e-05
9.72579e-05
0.00011267
7.36955e-05
4.79381e-05
4.79368e-05
0.000112504
9.73186e-05
9.7201e-05
4.79172e-05
0.000112244
7.36691e-05
0.000112416
9.71494e-05
4.79262e-05
9.71898e-05
4.79286e-05
0.000112258
7.36571e-05
9.7132e-05
4.79308e-05
0.000112423
7.88204e-05
2.14902e-05
2.14927e-05
2.14881e-05
2.14907e-05
7.88432e-05
2.36105e-05
2.36103e-05
2.01033e-05
5.00079e-05
7.60568e-05
7.60184e-05
2.01053e-05
3.62702e-05
9.19562e-05
8.82264e-05
4.05392e-05
8.81348e-05
4.05404e-05
3.62721e-05
2.01016e-05
5.00072e-05
7.60315e-05
7.59879e-05
2.01037e-05
3.62667e-05
9.19472e-05
4.05434e-05
8.82088e-05
4.05358e-05
8.81165e-05
3.62706e-05
3.62708e-05
8.80346e-05
4.05322e-05
9.19417e-05
3.62662e-05
8.81314e-05
4.05394e-05
2.01037e-05
5.00103e-05
7.60626e-05
7.60163e-05
2.01058e-05
2.01044e-05
7.59698e-05
5.0011e-05
2.01023e-05
7.60157e-05
3.62692e-05
9.19502e-05
8.82309e-05
4.05438e-05
8.81335e-05
4.05362e-05
3.62748e-05
3.62682e-05
4.05332e-05
8.80261e-05
9.19418e-05
3.62643e-05
4.0538e-05
8.81223e-05
2.01026e-05
5.0007e-05
7.60431e-05
7.59969e-05
2.01046e-05
2.01032e-05
7.59505e-05
5.00077e-05
2.01012e-05
7.59962e-05
3.62677e-05
9.19471e-05
4.05434e-05
8.82215e-05
4.05359e-05
8.81252e-05
3.62713e-05
2.36079e-05
9.72689e-05
0.000112633
7.36862e-05
4.79274e-05
0.000112495
4.79263e-05
9.73212e-05
9.72597e-05
0.000112663
7.36991e-05
4.79391e-05
4.7938e-05
0.000112507
9.73124e-05
7.88218e-05
2.14891e-05
2.14925e-05
2.1487e-05
2.14904e-05
7.88391e-05
2.36097e-05
3.62671e-05
8.8037e-05
4.05363e-05
9.19337e-05
3.62662e-05
8.81098e-05
4.05354e-05
2.01028e-05
5.00104e-05
7.60384e-05
7.60001e-05
2.01047e-05
2.01033e-05
7.59924e-05
3.62693e-05
9.19565e-05
8.82064e-05
4.0539e-05
8.81358e-05
4.05402e-05
3.62704e-05
3.6269e-05
8.80405e-05
4.05364e-05
9.19349e-05
3.62675e-05
8.81178e-05
4.05355e-05
2.01034e-05
5.0011e-05
7.60533e-05
7.60129e-05
2.01055e-05
2.01041e-05
7.59664e-05
5.00056e-05
2.0102e-05
7.60079e-05
3.62707e-05
9.19587e-05
8.82145e-05
4.05391e-05
8.81389e-05
4.05403e-05
3.62723e-05
7.8798e-05
2.1489e-05
2.14861e-05
7.87801e-05
2.14911e-05
2.14882e-05
9.72601e-05
0.000112677
7.37036e-05
4.79387e-05
0.000112508
4.79374e-05
9.73128e-05
9.72802e-05
0.000112674
7.36985e-05
4.79326e-05
0.000112499
4.79259e-05
9.73297e-05
9.71857e-05
4.79292e-05
0.000112264
7.36635e-05
9.71362e-05
0.000112423
4.79314e-05
9.72035e-05
4.79202e-05
0.000112255
7.36664e-05
9.71548e-05
0.00011242
4.79231e-05
7.88226e-05
2.14928e-05
2.14899e-05
2.14907e-05
2.14878e-05
7.88454e-05
2.36095e-05
2.36094e-05
2.36092e-05
2.3609e-05
0.000119489
0.000136529
0.000129891
0.000129901
0.000129632
0.000129661
0.000119628
0.000119481
0.000136508
0.00012984
0.000129831
0.000129647
0.000129655
0.000119616
0.000119497
0.000136587
0.000129834
0.000129838
0.000129665
0.00012967
0.000119594
0.000119504
0.000136716
0.000129811
0.000129873
0.000129707
0.000129707
0.000119604
0.000120249
0.000120255
0.000119981
0.000132086
0.000131845
0.000121703
0.000120247
0.000120255
0.000119979
0.000119988
0.000132086
0.000131846
0.000120252
0.000120261
0.000119994
0.000132083
0.000131842
0.000121724
0.00012026
0.000120267
0.000119993
0.00012
0.000132086
0.000131845
0.000132267
0.000117037
0.0001341
0.000120979
0.000132284
0.000117285
0.00013434
0.000128541
0.000122128
9.36811e-05
0.000107721
0.000122008
0.000107531
0.000128581
0.000132813
0.000121025
0.000117583
0.000134758
0.000117342
0.000134705
0.00013272
0.000132248
0.000117052
0.000134108
0.000120983
0.00013231
0.0001173
0.000134353
0.000128548
0.000122156
9.36794e-05
0.000107735
0.00010755
0.000121982
0.000128588
0.000128153
0.000107317
0.000121638
9.36762e-05
0.000128103
0.000107508
0.000121798
0.000132862
0.000121027
0.000117601
0.000134776
0.000117356
0.000134713
0.00013277
0.000119343
0.000136167
0.000129198
0.0001292
0.000129413
0.00011921
0.00012942
0.000128381
0.000122198
9.36755e-05
0.000107751
0.000121962
0.000107545
0.000128816
0.000132772
0.000121026
0.00011761
0.000135039
0.000117349
0.000134619
0.000132972
0.000128534
0.000122124
9.36768e-05
0.000107714
0.000107531
0.000121993
0.000128576
0.00013283
0.00012102
0.000134901
0.000117578
0.000134695
0.000117344
0.000132766
0.000132454
0.000117038
0.000134057
0.000120993
0.000132064
0.000117312
0.000134464
0.000128356
0.000122204
9.369e-05
0.000107737
0.000121987
0.000107541
0.000128811
0.000128289
0.000107306
0.00012163
9.3662e-05
0.000127935
0.000121788
0.000107517
0.000132575
0.000121028
0.000117616
0.000134934
0.000117336
0.000134641
0.000133018
0.000132387
0.000134106
0.00011704
0.00012099
0.000132173
0.000134399
0.000117304
0.000128472
0.000122142
9.36782e-05
0.000107746
0.00010754
0.000121993
0.000128697
0.000128209
0.000107311
0.000121644
9.36755e-05
0.000128037
0.000107505
0.000121774
0.000132755
0.000121027
0.000134878
0.000117606
0.000134685
0.000117343
0.000132892
0.000132207
0.000134224
0.00011704
0.000120984
0.000132234
0.000134252
0.000117294
0.000128547
0.000122128
9.36851e-05
0.000107746
0.000122012
0.00010754
0.000128591
0.000128146
0.000107503
0.000132821
0.000121023
0.000134939
0.000117594
0.000134752
0.000117344
0.000132768
0.000132226
0.000134209
0.00011705
0.000120983
0.000132259
0.000134234
0.000117299
0.00012854
0.000122128
9.36902e-05
0.000107731
0.000107549
0.00012201
0.000128585
0.000128144
0.000107317
0.000121657
9.36664e-05
0.0001281
0.000107505
0.00012176
0.000132851
0.000121033
0.000134803
0.000117599
0.000134775
0.000117353
0.00013277
0.000119324
0.00013606
0.000129252
0.000129266
0.00011924
0.000129385
0.000129396
0.000150049
0.000101456
0.000101449
8.22847e-05
8.26383e-05
0.000102206
0.000102193
8.2596e-05
0.00010223
0.00010219
0.000102241
0.000102206
8.27e-05
0.000102234
0.000102231
8.28481e-05
8.232e-05
8.2026e-05
0.000101431
0.00010141
9.9237e-05
9.92282e-05
8.25135e-05
8.19692e-05
0.000101433
0.000101405
9.92669e-05
9.92238e-05
0.000101422
9.92743e-05
9.92426e-05
8.23154e-05
8.20056e-05
0.000101447
9.92674e-05
9.92661e-05
8.22892e-05
0.000151075
0.000151077
0.00015107
0.000151072
6.99937e-05
4.95561e-05
6.91026e-05
4.95605e-05
2.363e-05
2.36267e-05
7.00152e-05
4.95496e-05
6.90971e-05
4.95635e-05
0.000150052
0.000150046
0.000150049
0.000146971
0.000146972
0.000146965
0.000146969
6.69986e-05
6.57035e-05
0.000125986
0.000100697
6.60003e-05
6.63849e-05
0.000124964
2.36278e-05
2.36245e-05
6.69969e-05
0.000125993
6.57235e-05
0.00010069
6.60048e-05
0.000124963
6.63528e-05
6.11138e-05
6.11121e-05
8.25288e-05
6.14339e-05
6.14332e-05
2.3633e-05
2.36366e-05
2.36317e-05
2.36352e-05
8.28257e-05
6.09383e-05
6.09396e-05
6.06059e-05
6.06083e-05
6.79406e-05
4.95499e-05
4.95459e-05
6.88868e-05
6.79457e-05
4.95565e-05
4.95417e-05
6.88916e-05
6.46444e-05
0.000103036
6.53709e-05
0.000126991
6.47551e-05
0.000128033
6.5517e-05
6.4624e-05
0.000103015
6.5377e-05
0.000126979
6.47561e-05
0.000128025
6.55665e-05
2.36331e-05
2.36365e-05
8.29401e-05
6.09577e-05
6.09546e-05
6.05955e-05
6.05895e-05
2.36333e-05
2.3637e-05
6.79347e-05
4.95527e-05
4.95375e-05
6.89076e-05
6.46337e-05
0.000103039
6.53658e-05
0.000126985
6.47527e-05
0.000128036
6.55384e-05
6.79381e-05
4.95494e-05
4.95338e-05
6.89033e-05
6.45868e-05
0.000103011
0.000126985
6.54031e-05
0.000128034
6.46979e-05
6.55755e-05
6.4586e-05
0.000103062
6.54042e-05
0.00012699
6.47168e-05
0.000128034
6.55857e-05
6.79499e-05
4.95509e-05
4.95464e-05
6.88857e-05
6.46018e-05
0.000103026
0.000126982
6.54054e-05
0.000128027
6.47184e-05
6.55823e-05
6.79436e-05
4.95472e-05
4.95427e-05
6.88854e-05
2.36309e-05
2.36344e-05
8.28144e-05
6.09345e-05
6.09394e-05
6.0605e-05
6.061e-05
2.36324e-05
2.3636e-05
6.46313e-05
0.000103054
0.000126987
6.53817e-05
0.000128035
6.47468e-05
6.55835e-05
6.46029e-05
0.000103052
0.000126997
6.53831e-05
0.000128044
6.47431e-05
6.55806e-05
6.7926e-05
4.95512e-05
4.95362e-05
6.8912e-05
6.79312e-05
4.9552e-05
4.95368e-05
6.89148e-05
8.26867e-05
6.09395e-05
6.09401e-05
6.06137e-05
6.06125e-05
2.3632e-05
2.36358e-05
2.36315e-05
2.36351e-05
2.36301e-05
2.36266e-05
2.36288e-05
2.36254e-05
6.11101e-05
6.11126e-05
8.23221e-05
6.14371e-05
6.14333e-05
2.36201e-05
2.36237e-05
2.36195e-05
2.36225e-05
8.21178e-05
6.19017e-05
6.19059e-05
6.15964e-05
6.1598e-05
6.99998e-05
4.95537e-05
6.91061e-05
4.95674e-05
6.69412e-05
6.57342e-05
0.000125987
0.000100661
6.60439e-05
6.63476e-05
0.000124966
6.69779e-05
6.57403e-05
0.000125978
0.00010065
6.60168e-05
6.63611e-05
0.000124957
7.01956e-05
4.95708e-05
4.95668e-05
7.10254e-05
7.0199e-05
4.95774e-05
4.95644e-05
7.103e-05
6.74748e-05
9.99464e-05
6.7295e-05
0.000122976
6.66996e-05
0.000123973
6.84011e-05
6.74518e-05
9.99258e-05
6.73013e-05
0.000122966
6.66981e-05
0.000123963
6.84323e-05
6.11021e-05
6.10957e-05
8.21769e-05
6.14527e-05
6.14513e-05
2.36304e-05
2.3627e-05
2.36205e-05
2.36237e-05
8.21952e-05
6.19213e-05
6.19103e-05
6.15875e-05
6.15802e-05
2.36208e-05
2.3624e-05
6.69515e-05
6.57345e-05
0.000125989
0.000100687
6.60259e-05
6.63455e-05
0.000124961
7.00068e-05
4.95462e-05
6.90983e-05
4.95601e-05
6.69898e-05
0.000125985
6.56907e-05
0.000100645
6.59926e-05
0.000124963
6.63847e-05
7.01902e-05
4.95737e-05
4.95603e-05
7.1048e-05
6.74717e-05
9.99478e-05
6.72922e-05
0.00012297
6.66976e-05
0.000123974
6.84139e-05
7.01932e-05
4.95701e-05
4.95568e-05
7.10419e-05
6.74352e-05
9.99206e-05
0.000122972
6.73332e-05
0.000123969
6.66565e-05
6.84429e-05
7.0015e-05
4.95566e-05
6.91088e-05
4.95617e-05
6.69814e-05
0.000125983
6.5709e-05
0.000100664
6.59854e-05
0.000124962
6.63864e-05
6.99951e-05
4.95527e-05
6.91076e-05
4.95579e-05
6.74288e-05
9.99715e-05
6.73369e-05
0.000122973
6.6661e-05
0.000123972
6.84467e-05
7.01905e-05
4.95719e-05
4.95675e-05
7.10452e-05
6.74334e-05
9.99392e-05
0.000122973
6.73058e-05
0.000123969
6.66732e-05
6.84422e-05
7.01997e-05
4.95679e-05
4.95636e-05
7.10264e-05
6.11086e-05
6.1113e-05
8.23343e-05
6.14302e-05
6.14324e-05
2.36294e-05
2.3626e-05
2.36183e-05
2.36215e-05
8.20461e-05
6.19008e-05
6.19018e-05
6.15928e-05
6.15985e-05
2.36198e-05
2.36231e-05
6.69986e-05
0.000125998
6.57267e-05
0.000100688
6.59956e-05
0.000124974
6.63531e-05
7.00194e-05
4.95483e-05
6.9094e-05
4.9562e-05
7.00221e-05
4.95491e-05
6.90949e-05
4.95628e-05
6.74312e-05
9.99644e-05
0.000122973
6.73086e-05
0.000123982
6.66925e-05
6.84559e-05
6.74375e-05
9.99635e-05
0.000122983
6.72978e-05
0.000123981
6.66953e-05
6.84524e-05
7.0188e-05
4.95721e-05
4.95589e-05
7.1055e-05
7.01882e-05
4.95728e-05
4.95598e-05
7.10526e-05
2.36292e-05
2.36257e-05
2.36285e-05
2.36251e-05
8.20111e-05
6.1903e-05
6.19031e-05
6.15986e-05
6.15979e-05
2.36195e-05
2.36229e-05
2.3619e-05
2.36222e-05
3.6196e-05
6.96638e-05
4.03455e-05
7.10882e-05
4.03472e-05
7.07549e-05
3.61988e-05
2.02173e-05
6.83217e-05
4.95553e-05
2.02169e-05
6.84512e-05
3.61956e-05
6.9446e-05
4.03402e-05
7.0353e-05
3.61927e-05
4.03392e-05
7.06947e-05
2.0214e-05
6.86172e-05
4.95614e-05
6.84945e-05
2.02145e-05
2.36298e-05
2.36268e-05
3.61975e-05
6.9658e-05
7.11063e-05
4.03452e-05
7.07624e-05
4.03467e-05
3.62004e-05
2.02186e-05
6.83361e-05
4.95581e-05
2.02182e-05
6.848e-05
3.61971e-05
6.94681e-05
7.03571e-05
4.03397e-05
3.61942e-05
7.07103e-05
4.03387e-05
2.02153e-05
6.8647e-05
4.95552e-05
6.85112e-05
2.02157e-05
2.36276e-05
2.36246e-05
7.0836e-05
2.15529e-05
2.155e-05
2.15527e-05
2.15499e-05
7.09693e-05
7.38842e-05
7.09541e-05
4.71477e-05
6.11892e-05
7.37497e-05
7.1161e-05
4.71613e-05
7.39506e-05
7.09424e-05
4.71393e-05
6.11895e-05
7.37649e-05
7.1196e-05
4.71529e-05
7.08011e-05
2.1556e-05
2.15531e-05
7.06645e-05
2.15561e-05
2.15533e-05
7.4179e-05
4.71739e-05
6.13577e-05
7.1792e-05
7.15841e-05
4.71607e-05
7.43132e-05
7.41996e-05
4.71654e-05
6.13568e-05
7.18151e-05
7.15736e-05
4.71523e-05
7.43761e-05
2.36333e-05
2.36363e-05
2.36319e-05
2.3635e-05
7.04437e-05
2.15634e-05
2.15594e-05
7.03118e-05
2.15634e-05
2.15596e-05
7.32985e-05
7.05517e-05
6.08577e-05
4.71452e-05
4.71409e-05
7.02983e-05
7.34667e-05
7.33436e-05
7.0552e-05
6.08607e-05
4.71385e-05
4.71244e-05
7.0311e-05
7.34889e-05
7.3026e-05
4.71273e-05
6.96678e-05
6.06871e-05
7.28533e-05
4.71323e-05
6.99139e-05
7.30637e-05
4.71102e-05
6.96707e-05
6.06874e-05
7.28992e-05
4.71248e-05
6.99123e-05
7.04918e-05
2.15601e-05
2.15562e-05
2.156e-05
2.15561e-05
7.06221e-05
3.61887e-05
4.03289e-05
6.95186e-05
6.82948e-05
3.61859e-05
4.03264e-05
6.98544e-05
2.02198e-05
4.95509e-05
6.8277e-05
2.02202e-05
6.81469e-05
2.02231e-05
6.79601e-05
4.95449e-05
2.02226e-05
6.81015e-05
3.61893e-05
6.85372e-05
4.03321e-05
7.02857e-05
3.61922e-05
4.03336e-05
6.99402e-05
3.61906e-05
4.03292e-05
6.95155e-05
6.82975e-05
3.61877e-05
4.03265e-05
6.98713e-05
2.02209e-05
4.95477e-05
6.83109e-05
6.81589e-05
2.02214e-05
2.02243e-05
6.79749e-05
4.95507e-05
2.02238e-05
6.81318e-05
3.61912e-05
6.85396e-05
4.03324e-05
7.03008e-05
4.03341e-05
6.99474e-05
3.61941e-05
2.36332e-05
2.36364e-05
7.04474e-05
2.15605e-05
2.15628e-05
7.03083e-05
2.15605e-05
2.15628e-05
7.33462e-05
7.05376e-05
6.08486e-05
4.71361e-05
7.03368e-05
4.71314e-05
7.35122e-05
7.32978e-05
7.05502e-05
6.08426e-05
4.71437e-05
4.71393e-05
7.03003e-05
7.34669e-05
7.30495e-05
4.71178e-05
6.96925e-05
6.07048e-05
6.98931e-05
7.29062e-05
4.7123e-05
7.30288e-05
4.71257e-05
6.96664e-05
6.07035e-05
7.28537e-05
4.71308e-05
6.99102e-05
7.04903e-05
2.15572e-05
2.15595e-05
2.15571e-05
2.15594e-05
7.06239e-05
2.36336e-05
2.36366e-05
3.61902e-05
6.95158e-05
4.03285e-05
6.8318e-05
3.61873e-05
6.98755e-05
4.0326e-05
2.02211e-05
4.95438e-05
6.83075e-05
2.02215e-05
6.81597e-05
2.02244e-05
6.79702e-05
4.95465e-05
2.02239e-05
6.81281e-05
3.61907e-05
6.85294e-05
7.03042e-05
4.03316e-05
3.61937e-05
6.99435e-05
4.03331e-05
3.61882e-05
4.03285e-05
6.95162e-05
6.83081e-05
3.61854e-05
4.03259e-05
6.98503e-05
2.02197e-05
4.954e-05
6.82824e-05
6.81381e-05
2.02203e-05
2.02231e-05
6.79513e-05
4.95434e-05
2.02226e-05
6.8104e-05
3.61888e-05
6.85322e-05
4.03318e-05
7.02803e-05
4.03333e-05
6.99451e-05
3.61917e-05
3.61912e-05
6.95094e-05
4.03193e-05
6.83041e-05
3.61877e-05
6.98805e-05
4.03314e-05
2.02217e-05
4.95518e-05
6.83013e-05
6.81731e-05
2.02221e-05
2.0225e-05
6.79851e-05
4.95458e-05
2.02246e-05
6.81256e-05
3.61913e-05
6.85375e-05
7.0302e-05
4.0338e-05
6.99405e-05
4.03265e-05
3.61946e-05
3.61888e-05
4.03283e-05
6.95034e-05
6.83014e-05
3.61857e-05
4.03257e-05
6.98704e-05
2.02203e-05
4.95478e-05
6.8282e-05
6.81519e-05
2.02207e-05
2.02236e-05
6.79655e-05
4.95419e-05
2.02232e-05
6.8105e-05
3.61892e-05
6.85355e-05
4.03316e-05
7.02937e-05
4.03332e-05
6.99341e-05
3.61922e-05
2.36311e-05
2.36342e-05
7.0451e-05
2.15592e-05
2.15626e-05
7.03059e-05
2.15594e-05
2.15627e-05
7.33526e-05
7.05561e-05
6.08561e-05
4.71383e-05
7.03078e-05
4.71243e-05
7.34888e-05
7.33137e-05
7.05495e-05
6.08616e-05
4.71446e-05
4.71402e-05
7.0306e-05
7.34453e-05
7.30507e-05
4.71101e-05
6.96678e-05
6.06833e-05
6.99119e-05
7.29095e-05
4.71245e-05
7.30084e-05
4.71269e-05
6.96668e-05
6.06884e-05
7.28707e-05
4.71314e-05
6.99092e-05
7.04886e-05
2.1556e-05
2.15594e-05
2.15559e-05
2.15593e-05
7.06283e-05
2.36327e-05
2.36357e-05
3.61892e-05
6.9506e-05
4.03192e-05
6.83275e-05
3.61859e-05
6.98778e-05
4.03314e-05
2.02206e-05
4.95422e-05
6.82905e-05
6.81397e-05
2.02211e-05
2.02239e-05
6.79551e-05
4.95452e-05
2.02234e-05
6.81102e-05
3.61894e-05
6.85215e-05
7.03013e-05
4.0338e-05
6.9931e-05
4.03265e-05
3.61927e-05
3.61909e-05
6.95161e-05
4.03284e-05
6.8328e-05
3.61879e-05
6.98782e-05
4.03259e-05
2.02215e-05
4.95428e-05
6.83074e-05
6.81571e-05
2.0222e-05
2.02249e-05
6.79722e-05
4.95461e-05
2.02244e-05
6.81293e-05
3.61914e-05
6.8524e-05
7.02965e-05
4.03318e-05
6.9944e-05
4.03334e-05
3.61943e-05
7.04496e-05
2.15626e-05
2.15597e-05
7.03073e-05
2.15627e-05
2.15598e-05
7.33096e-05
7.05327e-05
6.08634e-05
4.71482e-05
7.34532e-05
7.03205e-05
4.71342e-05
7.33312e-05
7.0557e-05
6.08621e-05
4.71396e-05
7.35138e-05
7.0314e-05
4.71257e-05
7.30046e-05
4.712e-05
6.97039e-05
6.06889e-05
7.28646e-05
6.98964e-05
4.7134e-05
7.308e-05
4.71115e-05
6.96817e-05
6.06882e-05
7.28842e-05
6.99203e-05
4.71257e-05
7.04876e-05
2.15594e-05
2.15565e-05
7.06272e-05
2.15593e-05
2.15564e-05
2.36325e-05
2.36354e-05
2.36318e-05
2.36348e-05
2.36298e-05
2.36269e-05
2.36286e-05
2.36256e-05
7.0839e-05
2.15535e-05
2.15496e-05
2.15534e-05
2.15495e-05
7.09633e-05
7.39014e-05
7.09398e-05
4.71534e-05
6.11916e-05
7.37357e-05
4.71582e-05
7.1182e-05
7.39234e-05
7.09547e-05
4.71381e-05
6.11906e-05
7.37931e-05
4.71516e-05
7.11624e-05
7.0794e-05
2.15567e-05
2.15528e-05
7.06676e-05
2.15568e-05
2.15529e-05
7.41652e-05
4.71705e-05
6.13457e-05
7.18123e-05
4.71668e-05
7.433e-05
7.1569e-05
7.42206e-05
4.71643e-05
6.13583e-05
7.17868e-05
4.71508e-05
7.43535e-05
7.16008e-05
2.36206e-05
2.36234e-05
2.36195e-05
2.36223e-05
7.11276e-05
2.15502e-05
2.15462e-05
7.10048e-05
2.15501e-05
2.15469e-05
7.49908e-05
7.30415e-05
6.18293e-05
4.71897e-05
4.71902e-05
7.28245e-05
7.51727e-05
7.50338e-05
7.30268e-05
6.18228e-05
4.71927e-05
4.71768e-05
7.28505e-05
7.51979e-05
7.47603e-05
4.71789e-05
7.21887e-05
6.1671e-05
7.45741e-05
4.71825e-05
7.24296e-05
7.47764e-05
4.71634e-05
7.22282e-05
6.16721e-05
7.46384e-05
4.71765e-05
7.24197e-05
7.11667e-05
2.15462e-05
2.15439e-05
2.15465e-05
2.15437e-05
7.12836e-05
3.61979e-05
6.96678e-05
4.03458e-05
7.11053e-05
4.03474e-05
7.07695e-05
3.62008e-05
2.02185e-05
6.83403e-05
4.9562e-05
2.0218e-05
6.84838e-05
3.61975e-05
6.94505e-05
4.03404e-05
7.03608e-05
4.03396e-05
3.61946e-05
7.07065e-05
2.02152e-05
6.86518e-05
4.95589e-05
6.85125e-05
2.02156e-05
3.62018e-05
4.03534e-05
7.11461e-05
7.05153e-05
3.61992e-05
4.03525e-05
7.14737e-05
2.02079e-05
4.95723e-05
6.89389e-05
6.88235e-05
2.02083e-05
2.02112e-05
6.86608e-05
4.95663e-05
2.02111e-05
6.87812e-05
3.6202e-05
7.07182e-05
4.03592e-05
7.18432e-05
4.03604e-05
7.15264e-05
3.62048e-05
3.62039e-05
4.03535e-05
7.11576e-05
7.05182e-05
3.62012e-05
4.03527e-05
7.14932e-05
2.02093e-05
4.9569e-05
6.89713e-05
6.88417e-05
2.02098e-05
2.02127e-05
6.868e-05
4.95722e-05
2.02122e-05
6.88134e-05
3.62042e-05
7.07217e-05
4.03594e-05
7.18631e-05
4.03606e-05
7.15355e-05
3.62069e-05
7.08391e-05
2.15506e-05
2.15529e-05
2.15506e-05
2.15528e-05
7.09649e-05
7.39428e-05
7.09568e-05
4.71442e-05
6.12093e-05
4.71491e-05
7.37775e-05
7.11843e-05
7.39016e-05
7.09393e-05
4.71519e-05
6.12071e-05
7.11817e-05
7.37357e-05
4.71568e-05
7.07953e-05
2.15538e-05
2.15561e-05
2.15539e-05
7.06671e-05
2.15562e-05
7.42059e-05
4.71615e-05
6.13463e-05
7.1819e-05
4.71575e-05
7.1581e-05
7.43665e-05
7.41651e-05
4.71691e-05
6.13394e-05
7.18132e-05
7.15682e-05
4.71653e-05
7.433e-05
2.36301e-05
2.36271e-05
2.36206e-05
2.36235e-05
7.11288e-05
2.15473e-05
2.15496e-05
7.10037e-05
2.15474e-05
2.15497e-05
7.50597e-05
7.30585e-05
6.18176e-05
4.71854e-05
7.28265e-05
4.71824e-05
7.51731e-05
7.50012e-05
7.30556e-05
6.18075e-05
4.71932e-05
4.71901e-05
7.28113e-05
7.51604e-05
7.47591e-05
4.71699e-05
7.22052e-05
6.16899e-05
7.24347e-05
7.46311e-05
4.7174e-05
7.47519e-05
4.71773e-05
7.21955e-05
6.16874e-05
7.4587e-05
4.71819e-05
7.24334e-05
7.11649e-05
2.15441e-05
2.15464e-05
2.1544e-05
2.15463e-05
7.12893e-05
2.36209e-05
2.36238e-05
3.61955e-05
6.96642e-05
4.03451e-05
7.10861e-05
4.03467e-05
7.07655e-05
3.61983e-05
2.02173e-05
6.83148e-05
4.95548e-05
2.02168e-05
6.84549e-05
3.61951e-05
6.94584e-05
4.03397e-05
7.03576e-05
4.03389e-05
3.61922e-05
7.06868e-05
2.02139e-05
6.86226e-05
4.95513e-05
6.84881e-05
2.02144e-05
3.62036e-05
7.11539e-05
4.03529e-05
7.05397e-05
3.62008e-05
7.1489e-05
4.03522e-05
2.02095e-05
4.95652e-05
6.8968e-05
6.88384e-05
2.02099e-05
2.02128e-05
6.86769e-05
4.95682e-05
2.02124e-05
6.88098e-05
3.62039e-05
7.07106e-05
7.18607e-05
4.03588e-05
7.15338e-05
4.036e-05
3.62066e-05
3.62014e-05
4.03527e-05
7.11529e-05
7.05289e-05
3.61987e-05
4.0352e-05
7.14657e-05
2.0208e-05
4.95611e-05
6.89436e-05
6.88141e-05
2.02086e-05
2.02115e-05
6.86546e-05
4.95649e-05
2.0211e-05
6.87855e-05
3.62018e-05
7.07142e-05
4.03587e-05
7.1839e-05
4.03598e-05
7.15335e-05
3.62044e-05
3.61981e-05
6.96611e-05
7.11083e-05
4.03512e-05
7.07622e-05
4.03392e-05
3.62013e-05
2.02192e-05
6.83484e-05
4.95566e-05
6.8476e-05
2.02188e-05
3.6198e-05
6.94558e-05
7.03572e-05
4.03332e-05
7.07132e-05
3.61947e-05
4.03441e-05
2.02159e-05
6.86423e-05
4.95623e-05
6.85223e-05
2.02163e-05
3.6196e-05
6.96663e-05
4.0345e-05
7.10921e-05
4.03465e-05
7.07579e-05
3.61988e-05
2.02178e-05
6.83278e-05
4.95528e-05
2.02174e-05
6.84559e-05
3.61956e-05
6.94484e-05
4.03395e-05
7.03504e-05
3.61926e-05
4.03387e-05
7.07016e-05
2.02145e-05
6.86226e-05
4.95584e-05
6.85012e-05
2.02149e-05
3.62044e-05
7.11548e-05
4.03467e-05
7.05381e-05
3.62013e-05
7.14856e-05
4.0358e-05
2.02101e-05
4.95729e-05
6.89628e-05
6.88511e-05
2.02104e-05
2.02134e-05
6.86886e-05
4.95673e-05
2.0213e-05
6.88065e-05
3.62044e-05
7.07076e-05
7.18551e-05
4.03648e-05
7.15406e-05
4.03532e-05
3.62073e-05
3.6202e-05
4.03526e-05
7.11535e-05
7.0517e-05
3.61992e-05
4.03519e-05
7.14745e-05
2.02087e-05
4.95693e-05
6.89426e-05
6.88308e-05
2.0209e-05
2.0212e-05
6.8667e-05
4.95635e-05
2.02116e-05
6.87865e-05
3.62023e-05
7.07205e-05
4.03585e-05
7.18455e-05
4.03597e-05
7.15338e-05
3.62049e-05
7.08417e-05
2.15494e-05
2.15528e-05
2.15494e-05
2.15527e-05
7.09652e-05
7.39164e-05
7.0946e-05
4.71382e-05
6.11869e-05
4.71514e-05
7.37977e-05
7.11647e-05
7.38757e-05
7.09429e-05
4.71531e-05
6.11894e-05
7.11606e-05
7.37583e-05
4.71575e-05
7.07986e-05
2.15526e-05
2.1556e-05
2.15527e-05
7.06674e-05
2.1556e-05
7.42281e-05
4.71641e-05
6.13538e-05
7.17922e-05
4.71509e-05
7.15926e-05
7.43464e-05
7.41882e-05
4.71698e-05
6.13592e-05
7.1791e-05
7.1591e-05
4.71662e-05
7.43087e-05
2.36291e-05
2.36262e-05
2.36184e-05
2.36213e-05
7.11277e-05
2.15461e-05
2.15494e-05
7.10087e-05
2.15462e-05
2.15495e-05
7.50643e-05
7.30358e-05
6.1824e-05
4.71881e-05
7.2839e-05
4.7175e-05
7.5177e-05
7.50246e-05
7.30421e-05
6.18314e-05
4.71939e-05
4.71908e-05
7.28383e-05
7.51361e-05
7.4761e-05
4.71633e-05
7.22195e-05
6.16699e-05
7.24253e-05
7.46499e-05
4.71759e-05
7.4725e-05
4.71779e-05
7.22149e-05
6.16728e-05
7.46086e-05
4.71827e-05
7.24178e-05
7.11717e-05
2.1543e-05
2.15463e-05
2.15429e-05
2.15462e-05
7.12875e-05
2.362e-05
2.36228e-05
3.61962e-05
6.96536e-05
7.1105e-05
4.03512e-05
7.07529e-05
4.03392e-05
3.61994e-05
2.02181e-05
6.83182e-05
4.95566e-05
6.84631e-05
2.02177e-05
3.61961e-05
6.94742e-05
7.0349e-05
4.03332e-05
7.07074e-05
3.61928e-05
4.03441e-05
2.02148e-05
6.86312e-05
4.95536e-05
6.8492e-05
2.02152e-05
3.61982e-05
6.96533e-05
7.11024e-05
4.03452e-05
7.07673e-05
4.03468e-05
3.6201e-05
2.02191e-05
6.83367e-05
4.95575e-05
2.02186e-05
6.84805e-05
3.61978e-05
6.94772e-05
7.03626e-05
4.03397e-05
3.61949e-05
7.07112e-05
4.0339e-05
2.02158e-05
6.86481e-05
4.95544e-05
6.85093e-05
2.02162e-05
3.62025e-05
7.11478e-05
4.03467e-05
7.05457e-05
3.61994e-05
7.14775e-05
4.03581e-05
2.0209e-05
4.95635e-05
6.89509e-05
6.88203e-05
2.02094e-05
2.02123e-05
6.86591e-05
4.95669e-05
2.02119e-05
6.87929e-05
3.62026e-05
7.07071e-05
7.18477e-05
4.03649e-05
7.15343e-05
4.03532e-05
3.62054e-05
3.62042e-05
7.11582e-05
4.03528e-05
7.05439e-05
3.62015e-05
7.14955e-05
4.03521e-05
2.02099e-05
4.95645e-05
6.89676e-05
6.88374e-05
2.02104e-05
2.02133e-05
6.86763e-05
4.95676e-05
2.02128e-05
6.88099e-05
3.62045e-05
7.07099e-05
7.1864e-05
4.03588e-05
7.15342e-05
4.03599e-05
3.62072e-05
2.36288e-05
2.3626e-05
2.36283e-05
2.36253e-05
7.11333e-05
2.15495e-05
2.15466e-05
7.10021e-05
2.15496e-05
2.15467e-05
7.50171e-05
7.30395e-05
6.18316e-05
4.71978e-05
7.2833e-05
4.71846e-05
7.5144e-05
7.50347e-05
7.30611e-05
6.18302e-05
4.71893e-05
7.2817e-05
4.71763e-05
7.52023e-05
7.47306e-05
4.7173e-05
7.22089e-05
6.16739e-05
7.46013e-05
7.24144e-05
4.71855e-05
7.47997e-05
4.71648e-05
7.22018e-05
6.16736e-05
7.46222e-05
7.24456e-05
4.71771e-05
7.11647e-05
2.15464e-05
2.15435e-05
2.15462e-05
2.15434e-05
7.12918e-05
2.36198e-05
2.36226e-05
2.36192e-05
2.3622e-05
0.000173138
0.000173151
0.000149018
0.000172283
0.000172292
0.000191519
0.000192221
7.41381e-05
7.26327e-05
7.26372e-05
8.26568e-05
7.38895e-05
7.28104e-05
7.28209e-05
7.32664e-05
8.25703e-05
7.24107e-05
7.2415e-05
7.22865e-05
7.22682e-05
7.34541e-05
7.32527e-05
8.2703e-05
7.22867e-05
7.24146e-05
7.23582e-05
7.22675e-05
7.3429e-05
7.32252e-05
8.24864e-05
7.24217e-05
7.23495e-05
7.22653e-05
7.23483e-05
7.34328e-05
7.32534e-05
8.24872e-05
7.24234e-05
7.24413e-05
7.34584e-05
7.22382e-05
7.22566e-05
7.41052e-05
7.2673e-05
7.26638e-05
8.2474e-05
7.39115e-05
7.28109e-05
7.27981e-05
7.58831e-05
8.19397e-05
7.41372e-05
7.41312e-05
7.39566e-05
7.3963e-05
7.60661e-05
7.40684e-05
7.27446e-05
7.26521e-05
8.24e-05
7.28324e-05
7.39325e-05
7.27003e-05
7.58979e-05
8.20423e-05
7.40222e-05
7.41396e-05
7.40466e-05
7.39422e-05
7.6054e-05
7.41002e-05
7.26573e-05
7.27208e-05
8.24812e-05
7.27298e-05
7.39258e-05
7.28144e-05
7.58764e-05
8.19631e-05
7.41264e-05
7.40451e-05
7.39524e-05
7.40534e-05
7.60651e-05
7.58576e-05
8.17555e-05
7.41575e-05
7.41557e-05
7.39431e-05
7.39413e-05
7.60913e-05
0.00015211
0.000173995
0.000174005
0.000174854
0.000174866
0.000193626
0.000192924
0.000152113
0.000173995
0.000174006
0.000174854
0.000174866
0.000193626
0.000192924
0.000152108
0.000173992
0.000174002
0.000174853
0.000174864
0.000193622
0.00019292
0.00015211
0.000173992
0.000174005
0.000174851
0.000174865
0.000193622
0.00019292
0.000173138
0.00017315
0.000149019
0.000172282
0.000172294
0.000191519
0.000192221
0.000173136
0.000173148
0.000149012
0.00017228
0.00017229
0.000191515
0.000192217
0.000173136
0.00017315
0.000149015
0.000172279
0.000172293
0.000191515
0.000192218
0.000147997
0.000170575
0.000170585
0.000171428
0.000171441
0.000190814
0.000190111
0.000148
0.000170575
0.000170587
0.000171428
0.000171441
0.000190815
0.000190111
0.000147994
0.000170572
0.000170583
0.000171426
0.000171438
0.000190811
0.000190107
0.000147998
0.000170573
0.000170586
0.000171426
0.00017144
0.000190811
0.000190108
7.25865e-05
6.66996e-05
6.86994e-05
7.51711e-05
6.84367e-05
7.49505e-05
7.27424e-05
6.87097e-05
6.83701e-05
6.80013e-05
6.5898e-05
6.85972e-05
6.8719e-05
6.81479e-05
7.26685e-05
6.62749e-05
6.77321e-05
7.50801e-05
7.25176e-05
6.79926e-05
7.52725e-05
6.89523e-05
6.87831e-05
6.61816e-05
6.92591e-05
6.89198e-05
6.8614e-05
6.91102e-05
7.25115e-05
6.67123e-05
7.50436e-05
6.86786e-05
7.50907e-05
6.84488e-05
7.29352e-05
6.87675e-05
6.83759e-05
6.79602e-05
6.587e-05
6.85877e-05
6.86886e-05
6.81788e-05
7.2855e-05
6.62801e-05
7.51753e-05
6.77417e-05
7.24325e-05
7.51404e-05
6.79728e-05
6.89339e-05
6.87981e-05
6.62107e-05
6.92802e-05
6.89237e-05
6.85815e-05
6.91118e-05
7.45511e-05
8.21219e-05
7.32462e-05
7.32788e-05
7.30563e-05
7.30638e-05
7.47873e-05
7.27575e-05
8.28756e-05
7.19149e-05
7.19113e-05
7.26164e-05
7.2047e-05
7.20629e-05
7.23974e-05
6.63692e-05
7.54476e-05
6.48273e-05
7.25781e-05
6.6578e-05
7.548e-05
6.83697e-05
6.80521e-05
6.52438e-05
6.75946e-05
6.79427e-05
6.73079e-05
6.8294e-05
6.79319e-05
6.66923e-05
6.74207e-05
6.48794e-05
6.75216e-05
6.80786e-05
6.69622e-05
7.27037e-05
6.53455e-05
6.72393e-05
7.53224e-05
6.70478e-05
7.52888e-05
7.24703e-05
7.26114e-05
6.63232e-05
7.55825e-05
6.48529e-05
7.24439e-05
6.65892e-05
7.53414e-05
6.82795e-05