/*--------------------------------*- C++ -*----------------------------------*\
| =========                 |                                                 |
| \\      /  F ield         | OpenFOAM: The Open Source CFD Toolbox           |
|  \\    /   O peration     | Version:  v1906                                 |
|   \\  /    A nd           | Web:      www.OpenFOAM.com                      |
|    \\/     M anipulation  |                                                 |
\*---------------------------------------------------------------------------*/
FoamFile
{
    version     2.0;
    format      ascii;
    class       surfaceScalarField;
    location    "750";
    object      phi;
}
// * * * * * * * * * * * * * * * * * * * * * * * * * * * * * * * * * * * * * //

dimensions      [0 3 -1 0 0 0 0];
oriented        oriented;


internalField   nonuniform List<scalar> 
124860
(
-1.25627e-06
-1.24614e-06
-0.000269536
2.64989e-07
1.99901e-07
1.80224e-07
8.45434e-08
-1.29974e-06
2.49354e-07
-2.95121e-07
-9.3708e-07
2.04974e-07
-2.93584e-07
8.77781e-07
-0.00113979
1.26965e-06
2.19278e-07
-0.00114024
7.82865e-08
-1.29998e-06
2.65822e-07
-2.8995e-07
-9.34749e-07
2.35372e-07
-2.83013e-07
8.85894e-07
-1.23e-06
-0.000269556
2.31182e-07
2.36109e-07
2.29967e-07
1.10783e-07
-1.24965e-06
2.76889e-07
-2.76054e-07
-9.23976e-07
2.65609e-07
-2.66782e-07
8.8856e-07
-0.00114087
1.26421e-06
2.2501e-07
7.25461e-08
-1.29442e-06
2.65881e-07
-2.89885e-07
-9.31949e-07
2.35347e-07
-2.82906e-07
8.83054e-07
-0.00113989
2.19205e-07
-0.00114063
7.77061e-08
-1.26019e-06
2.57646e-07
-2.8147e-07
-9.29121e-07
2.32662e-07
-2.80152e-07
8.80453e-07
1.25875e-06
2.24557e-07
-0.00113968
7.82628e-08
-1.28903e-06
2.60222e-07
-2.84232e-07
-9.31788e-07
2.32611e-07
-2.82773e-07
8.83096e-07
-1.22447e-06
-0.000269514
2.31062e-07
2.36144e-07
2.19134e-07
8.8901e-08
-1.25467e-06
2.57619e-07
-2.81501e-07
-9.28942e-07
2.35446e-07
-2.82845e-07
8.80322e-07
-0.00114027
1.22194e-06
2.19141e-07
-0.0011408
8.31801e-08
-1.25755e-06
2.57741e-07
-2.843e-07
-9.29145e-07
2.35502e-07
-2.82848e-07
8.80553e-07
-0.00026953
2.30988e-07
2.36322e-07
1.88933e-07
2.18783e-07
-0.00119084
-0.00119086
1.88815e-07
1.89224e-07
1.82754e-07
2.12902e-07
-0.00119045
-0.00119066
1.88739e-07
2.00674e-07
-2.14456e-08
-5.86596e-09
-9.70801e-05
-2.38576e-08
-5.79695e-09
-9.70819e-05
-1.77336e-08
-9.32768e-09
-0.000276411
8.35653e-09
-2.19959e-08
-7.18027e-08
-0.00027639
1.11613e-08
1.17191e-11
6.18137e-08
-2.60062e-08
4.50159e-10
0.000228352
-0.000228388
-3.50743e-08
-0.000192042
3.77954e-09
-2.54935e-10
-5.42764e-08
-0.000228339
2.82338e-08
2.65588e-09
6.18247e-08
-2.60151e-08
3.35378e-10
0.000228388
-0.000228424
-3.52709e-08
5.63467e-09
-0.000192082
1.764e-09
4.14477e-08
-7.9983e-09
-6.22256e-09
0.000192081
-0.000192108
-5.43056e-08
-0.000228376
2.82721e-08
2.40837e-09
1.46228e-09
-1.67246e-09
2.00348e-07
0.000250187
-0.000250325
-7.45604e-08
-0.000244406
-1.1464e-08
-0.00116202
-3.08484e-09
3.30204e-07
-1.04022e-06
7.836e-07
-8.64645e-07
9.62022e-07
4.19342e-09
3.42907e-07
9.61102e-07
-8.63908e-07
-1.03938e-06
7.82631e-07
-0.00116213
-8.14996e-08
-1.5055e-09
-0.000250159
1.85414e-09
-1.595e-07
-2.07376e-09
2.00389e-07
0.000250218
-0.000250353
8.11207e-08
-1.30142e-06
2.25314e-07
8.85303e-07
-2.84468e-07
-9.36385e-07
2.34578e-07
1.26934e-06
-2.91072e-07
2.65357e-07
-0.00114039
1.96666e-08
-8.68973e-08
-0.000244423
-1.36155e-08
-0.00116218
3.36028e-07
-1.03764e-06
7.83645e-07
-8.62061e-07
9.6497e-07
-2.23111e-08
1.29294e-08
1.08245e-07
0.000244435
-0.000244492
3.42902e-07
9.6402e-07
-8.64013e-07
-1.03956e-06
7.82698e-07
-0.00116228
-0.00025019
2.32968e-09
-1.6211e-07
-2.16646e-08
-9.7085e-05
1.62915e-08
9.70818e-05
-9.71061e-05
1.26164e-06
0.000269594
-2.43654e-07
-2.48672e-07
-0.000271665
-4.16785e-08
-0.000276367
1.07878e-08
2.3727e-08
-1.74239e-08
-4.14498e-08
-0.000276472
1.11198e-08
-1.53287e-08
4.19963e-08
0.00027637
-0.000276403
-1.8643e-08
1.96726e-08
-1.50979e-08
4.19013e-08
0.000276476
-0.000276503
-5.79714e-09
-9.70876e-05
7.86661e-09
9.70844e-05
-9.71109e-05
-3.74669e-08
-0.000192068
1.74899e-09
-5.4346e-08
-1.65817e-10
-0.000228367
2.45083e-09
2.61865e-08
-9.67981e-08
-0.000244431
-1.60301e-08
8.61971e-10
3.35668e-07
-1.03218e-06
7.80835e-07
-8.56424e-07
9.62041e-07
-0.00116191
-1.66638e-09
-0.000250173
1.89076e-09
-1.64705e-07
-3.7361e-08
5.76781e-09
-0.000192015
1.65933e-09
-5.43264e-08
-0.000228329
2.61642e-08
2.43222e-09
3.41862e-07
-1.03492e-06
7.80879e-07
-8.5643e-07
9.61988e-07
-0.00116188
1.97867e-08
-8.20111e-08
-0.000244359
-1.6073e-08
-0.000250149
-1.62105e-07
2.20841e-09
-6.1859e-08
1.59809e-09
-1.43432e-09
1.97791e-07
0.000250215
-0.000250351
8.05093e-08
2.30892e-07
1.22968e-06
-2.82613e-07
2.57166e-07
8.79834e-07
-2.81605e-07
-9.3078e-07
2.3183e-07
-0.00114078
3.73495e-08
-8.68142e-08
-0.000244466
-1.37161e-08
-0.00116195
-3.87062e-09
3.35715e-07
-1.03488e-06
7.80794e-07
-8.59215e-07
9.61976e-07
-4.35516e-08
1.27404e-08
1.08068e-07
0.000244478
-0.000244535
3.50791e-09
3.48431e-07
9.61001e-07
-8.61202e-07
-1.03671e-06
7.79806e-07
-0.00116207
5.42447e-08
-1.66549e-09
-0.000250187
1.45002e-09
-1.62043e-07
1.28032e-10
5.16474e-10
-2.60314e-08
0.000228386
-0.000228422
-0.000192078
1.64421e-09
-6.43899e-09
0.000192078
-0.000192107
-1.72519e-10
-0.000228373
2.30454e-09
2.82224e-08
-6.18447e-08
1.95189e-07
-2.25015e-09
0.00025019
-0.00025032
8.1041e-08
-1.29038e-06
2.30545e-07
8.82479e-07
-2.84308e-07
-9.33446e-07
2.34587e-07
1.25839e-06
-2.85396e-07
2.59797e-07
-0.00113984
-0.00116188
3.35607e-07
-1.0347e-06
7.80862e-07
-8.59226e-07
9.62068e-07
3.51798e-08
1.98385e-08
-8.44414e-08
-0.000244403
-1.37802e-08
3.4836e-07
9.61098e-07
-8.61218e-07
-1.03669e-06
7.79857e-07
-0.00116199
-4.13722e-08
-2.22388e-08
1.29034e-08
1.05721e-07
0.000244414
-0.000244469
5.42272e-08
-0.000250162
-1.59458e-07
2.15811e-09
-2.60073e-08
1.89402e-10
0.00022835
-0.000228386
5.73156e-09
-0.000192028
1.61414e-09
-7.91348e-09
-6.2879e-09
0.000192027
-0.000192054
-0.000228338
2.82121e-08
2.51554e-09
-2.38011e-08
-9.70664e-05
-4.15138e-08
-0.000276334
8.0002e-09
2.15119e-08
-1.98821e-08
-4.38992e-08
-0.000276429
1.05228e-08
-5.76544e-09
-9.70763e-05
1.16872e-09
-6.43767e-08
2.00355e-07
-1.71695e-09
0.000250176
-0.000250311
-0.00116161
-9.54211e-09
3.3534e-07
-1.03187e-06
7.75202e-07
-8.56322e-07
9.56368e-07
3.52299e-08
-8.69382e-08
-0.000244409
-1.3788e-08
-1.09604e-08
3.42311e-07
9.5807e-07
-8.5561e-07
-1.03107e-06
7.76911e-07
-0.0011617
-9.17104e-08
-1.43076e-09
5.67122e-08
-0.000250148
-1.64583e-07
1.99306e-09
-6.43703e-08
2.0039e-07
-2.94283e-09
0.000250207
-0.000250339
8.03931e-08
-1.25619e-06
2.25156e-07
8.79946e-07
-2.8432e-07
-9.30798e-07
2.34698e-07
1.2243e-06
-2.82711e-07
2.57275e-07
-0.00114095
-0.00116177
3.35328e-07
-1.02927e-06
7.75277e-07
-8.53745e-07
9.56481e-07
3.52326e-08
1.98854e-08
-8.69414e-08
-0.000244417
-1.37577e-08
3.42208e-07
9.55487e-07
-8.55721e-07
-1.03119e-06
7.74292e-07
-0.00116188
-4.13695e-08
-2.23287e-08
1.29491e-08
1.08121e-07
0.000244429
-0.000244486
5.66891e-08
-0.00025018
-1.64585e-07
2.57627e-09
1.27819e-10
2.43604e-10
-2.40042e-08
0.00022834
-0.000228381
-0.000192031
1.62582e-09
-2.38657e-10
-0.000228328
2.56091e-09
2.61762e-08
3.00966e-10
-2.4002e-08
0.000228376
-0.000228417
5.80641e-09
-0.000192068
1.54271e-09
-8.0193e-09
-6.13623e-09
0.000192067
-0.000192094
-0.000228364
2.33914e-09
2.61625e-08
0.00026957
-2.43384e-07
-2.48738e-07
-0.000271625
2.15229e-08
-4.38496e-08
-0.000276424
7.91479e-09
2.1496e-08
-4.15932e-08
-0.000276371
8.46103e-09
-1.63279e-08
-1.21086e-08
4.42229e-08
0.000276427
-0.000276465
-1.62474e-08
-1.26919e-08
4.18966e-08
0.000276375
-0.00027641
-9.70759e-05
9.70728e-05
-9.7097e-05
-9.70802e-05
9.7077e-05
-9.71013e-05
1.85376e-08
7.88503e-09
-9.71065e-05
1.60556e-08
8.04066e-09
-9.7106e-05
-3.02091e-08
4.77739e-08
0.000220929
-3.06325e-08
6.20143e-08
-0.000220978
-0.000250161
-1.80723e-08
4.16822e-08
-2.48945e-08
-1.67075e-08
4.84669e-08
2.42184e-08
-0.000276448
-0.000181688
-1.05503e-08
9.43868e-09
-1.47559e-08
-0.00018172
1.21222e-07
6.13987e-08
-0.000250248
-3.63786e-08
-9.6201e-09
-2.11181e-08
2.10847e-08
0.000220896
-1.44517e-08
3.86221e-08
-0.00022092
-0.000250108
7.13127e-08
-2.2346e-07
-4.75873e-08
-1.09507e-08
3.21782e-08
1.98698e-08
-0.000276415
-0.000181656
-4.90273e-08
1.729e-08
-1.31599e-08
-0.000181675
6.33114e-08
4.86137e-08
-0.000250167
8.13633e-08
-1.04352e-07
-1.08526e-08
-1.06342e-08
0.000212361
-0.000212385
-7.98912e-05
-1.40759e-08
-7.98813e-05
-1.0981e-08
-7.99168e-05
-7.99051e-05
-0.000142089
-9.49793e-10
-2.66783e-08
0.000142115
2.27083e-09
1.54338e-09
0.000169659
-1.28497e-10
-0.000169686
-2.69276e-08
0.000222143
6.16553e-08
-0.000222177
-2.07989e-10
2.81106e-08
2.65981e-09
0.000228375
-7.0413e-11
-5.39168e-08
-0.000142114
-9.32632e-10
0.000169686
-1.23143e-10
0.000222168
-5.37911e-08
4.71846e-09
2.60909e-08
7.84786e-05
9.47198e-10
-7.85057e-05
-6.3138e-09
4.31881e-08
-0.000192071
-0.000261305
2.6937e-08
-4.73238e-09
-5.30575e-08
2.43846e-10
5.42495e-08
-0.00026134
-2.23384e-09
-1.53615e-09
2.66982e-08
0.00014209
-2.57308e-08
2.18226e-10
-1.39576e-10
6.11578e-08
-0.000169659
9.22448e-10
-1.47352e-10
-0.000222132
2.67812e-08
-5.65425e-08
-1.52469e-10
6.34695e-08
-0.00014216
-7.16275e-10
-2.47828e-08
1.89635e-09
0.000142183
1.26373e-09
0.000169693
-0.000169721
-2.48796e-08
0.000222228
-5.48687e-10
6.41595e-08
-0.000222266
2.81611e-08
2.43124e-09
0.000228412
-5.39529e-08
-9.1131e-10
-0.000142182
0.000169721
4.46776e-09
0.000222257
-5.64071e-08
2.38161e-08
7.85235e-05
-7.85482e-05
9.3172e-10
-6.06821e-09
-0.000192109
-8.0214e-09
4.10133e-08
-0.000261418
2.50186e-08
-4.43269e-09
-5.31656e-08
-0.000261455
5.70303e-10
5.42987e-08
-1.85588e-09
-7.85214e-05
-2.49559e-08
-2.39973e-08
0.000261421
5.47596e-08
-0.000261458
1.64207e-09
5.69089e-09
-3.50419e-08
-7.85463e-05
-5.29428e-08
-1.22774e-09
2.46288e-08
0.000142161
-2.57475e-08
6.77972e-11
6.11874e-08
-0.000169693
6.72974e-10
-0.000222219
2.49073e-08
-5.67632e-08
6.35108e-08
-9.71091e-05
1.608e-08
-2.15718e-08
-0.00021237
1.25957e-08
1.23979e-08
-2.33528e-08
-2.1429e-08
0.00021239
1.07673e-08
7.98812e-05
1.32694e-08
-7.99053e-05
1.09371e-08
7.98948e-05
1.30947e-08
-7.99188e-05
2.29527e-08
2.06508e-08
-0.000212392
-1.24075e-08
7.99062e-05
-1.26018e-08
7.99198e-05
3.57305e-08
-2.5511e-08
0.000220882
-0.000220921
-2.26795e-08
5.15647e-08
-0.000250078
2.78203e-08
-9.1092e-08
-3.73753e-08
4.14745e-08
-1.53268e-08
-0.000276399
2.21771e-08
-0.00018165
-2.97436e-08
1.23829e-08
-0.000250153
9.59456e-08
5.64038e-08
-0.000181678
-1.32199e-08
2.34907e-08
-5.69092e-08
-2.55806e-08
3.54922e-08
0.000220954
-0.000220997
-2.03633e-08
5.37908e-08
-0.000250231
2.80278e-08
-9.0934e-08
-3.2487e-08
-1.50932e-08
4.1384e-08
-0.000276499
-1.84402e-08
1.9534e-08
-0.000181702
-2.96158e-08
1.25827e-08
-0.00018173
-1.30452e-08
-0.000250302
9.59157e-08
5.11e-08
2.15836e-08
-5.88951e-08
-2.7572e-08
-0.00022089
2.95697e-08
-5.66443e-08
2.587e-08
0.00018165
-0.000181678
0.000250094
-3.60928e-08
5.68518e-08
9.6802e-08
-0.00025017
-4.13941e-08
1.08454e-08
-1.96613e-08
-3.70373e-08
-9.06577e-08
5.22022e-08
-0.000220929
-0.000220962
2.9454e-08
-2.77548e-08
-5.8645e-08
2.59275e-08
0.000181702
-0.00018173
-3.5873e-08
0.000250248
9.67665e-08
5.15637e-08
-0.000250318
1.11592e-08
-4.11736e-08
2.36409e-08
-1.73914e-08
5.44135e-08
-0.000221005
-9.05112e-08
-3.21243e-08
-1.06552e-08
-1.08268e-08
0.000212368
-7.98823e-05
-1.26437e-08
-7.98959e-05
-1.24392e-08
-9.71139e-05
7.88542e-09
-5.84502e-09
2.37649e-08
7.85243e-05
9.32509e-10
-7.8549e-05
-6.0604e-09
4.09537e-08
-0.000192095
-0.000261422
2.49816e-08
-4.42787e-09
-5.07968e-08
4.97522e-10
5.19233e-08
-0.000261457
-1.87486e-09
2.4685e-08
-1.32733e-09
0.000142159
-0.000142182
1.91845e-10
-2.3695e-08
1.21811e-10
6.12422e-08
-0.000228405
-0.000222219
2.48327e-08
-5.429e-08
-0.000169691
7.66719e-10
-2.91192e-11
6.12314e-08
-0.000222255
6.34069e-11
-0.000169716
2.60429e-08
7.8477e-05
1.00666e-09
-7.85041e-05
-6.23067e-09
-7.96482e-09
4.3139e-08
-0.000192044
-0.000261301
2.71229e-08
-4.44463e-09
-5.06156e-08
2.46424e-10
5.18909e-08
-0.000261333
-2.06607e-09
-1.47153e-09
2.66801e-08
0.000142087
-0.000142111
-2.36789e-08
4.51998e-10
6.12204e-08
-0.000228367
-0.000169657
7.14793e-10
-0.000222125
2.68287e-08
-5.41476e-08
-0.000169682
6.11025e-08
-0.000222159
-0.000142161
-2.47432e-08
-7.98969e-10
1.94871e-09
0.000142184
-2.49268e-08
0.000222232
-3.68915e-10
6.42247e-08
-0.000222271
1.40348e-09
0.00016969
-1.66664e-11
-0.000169718
2.53175e-09
2.8101e-08
0.000228409
-2.11939e-11
-5.38842e-08
-8.26589e-10
-0.000142183
4.54489e-09
0.000222262
-5.63536e-08
0.000169717
1.40102e-11
2.3899e-08
7.85263e-05
-7.85511e-05
8.48157e-10
-6.30238e-09
-0.000192107
4.31231e-08
-0.000261434
2.49562e-08
-4.52653e-09
-5.31288e-08
-0.000261471
3.73213e-10
5.43354e-08
-1.91296e-09
-7.85242e-05
-2.48949e-08
-2.40782e-08
0.000261437
5.48027e-08
-0.000261475
1.52744e-09
-3.71137e-08
-7.85491e-05
-5.29083e-08
2.46999e-08
-1.39148e-09
0.000142162
2.94356e-10
-2.57547e-08
-2.56848e-11
6.12052e-08
-0.000222224
2.48585e-08
-5.67024e-08
-0.00016969
7.71666e-10
-9.26018e-12
6.3637e-08
-4.15355e-11
-0.00014209
-8.19082e-10
-2.47125e-08
1.95144e-09
0.000142114
1.35082e-09
0.000169656
-0.000169684
-2.4886e-08
0.00022214
-4.72258e-10
6.41441e-08
-0.000222179
2.80803e-08
2.75682e-09
0.000228373
-5.38543e-08
-8.63275e-10
-0.000142113
0.000169684
4.55279e-09
0.00022217
-5.62959e-08
2.38113e-08
7.84827e-05
-7.85074e-05
8.88387e-10
-6.15289e-09
-0.000192054
-7.93105e-09
4.09264e-08
-0.000261311
2.49198e-08
-4.53611e-09
-5.30866e-08
-0.000261348
4.78237e-10
5.42419e-08
-1.91343e-09
-7.84806e-05
-2.48613e-08
-2.40023e-08
0.000261314
5.47295e-08
-0.000261352
1.51359e-09
5.78765e-09
-3.49681e-08
-7.85054e-05
-5.28625e-08
-1.33282e-09
2.46433e-08
0.000142091
-2.57182e-08
-5.9613e-11
6.11705e-08
-0.000169656
7.83983e-10
-0.000222132
2.48213e-08
-5.66564e-08
6.3499e-08
1.8378e-08
-9.70928e-05
3.32013e-08
-2.72374e-08
0.000220864
-2.05721e-08
5.36752e-08
-0.000220903
-0.000250042
2.54882e-08
-9.098e-08
-3.74803e-08
4.13801e-08
-1.22548e-08
2.20358e-08
-0.000276367
-0.00018164
-3.13814e-08
1.25508e-08
9.58852e-08
5.6288e-08
-0.00025012
-1.32354e-08
-0.000181666
2.15206e-08
-5.89485e-08
-2.75541e-08
3.54922e-08
0.00022094
-2.24266e-08
4.92529e-08
-0.000220975
-0.000250193
2.79375e-08
-8.84982e-08
-3.50375e-08
-1.45404e-08
4.37767e-08
-1.61893e-08
2.20062e-08
-0.000276464
-0.000181699
-3.16233e-08
1.25014e-08
-1.30236e-08
-0.000181728
9.33983e-08
5.37033e-08
-0.00025026
2.35245e-08
-5.44218e-08
-1.06536e-08
-1.08109e-08
0.000212354
-0.000212376
-7.98762e-05
-1.25176e-08
-7.98942e-05
-1.25123e-08
-7.99e-05
-7.9918e-05
7.89232e-09
-9.71004e-05
-0.00014209
-2.47159e-08
-8.45147e-10
1.97152e-09
0.000142114
-2.49387e-08
0.000222135
6.42146e-08
-0.000222174
-3.84668e-10
1.37339e-09
0.000169657
2.71358e-11
-0.000169682
2.79582e-09
2.60445e-08
0.000228368
-9.80213e-11
-5.63239e-08
-0.000142113
-8.70928e-10
4.57994e-09
0.000222167
-5.87248e-08
0.000169682
-7.77796e-11
2.38146e-08
7.84829e-05
-7.85076e-05
8.84971e-10
-6.2172e-09
4.09902e-08
-0.000192058
-0.00026131
2.48966e-08
-4.53012e-09
-5.07475e-08
-0.000261347
4.35134e-10
5.43224e-08
-1.93528e-09
-2.48349e-08
-7.84808e-05
-5.28876e-08
-0.000261313
-1.51867e-09
2.46816e-08
-1.35578e-09
0.000142091
1.2852e-12
-2.37269e-08
-8.77991e-12
6.37116e-08
-0.000222126
2.48277e-08
-5.66656e-08
-0.000169657
8.17999e-10
-8.72508e-11
6.6004e-08
1.51545e-11
-0.000142159
-2.67593e-08
-6.69969e-10
2.06632e-09
0.000142184
-2.69872e-08
0.000222226
-4.43725e-10
6.41279e-08
-0.000222262
1.42407e-09
0.000169691
-0.000169716
2.35651e-09
2.60385e-08
0.000228404
-5.63184e-08
-1.07318e-09
-0.000142183
4.44174e-09
0.000222253
-5.62247e-08
0.000169716
2.60368e-08
7.85231e-05
-7.85502e-05
1.08799e-09
-6.00465e-09
-0.000192095
-8.0364e-09
4.09463e-08
-0.000261421
2.71617e-08
-4.43237e-09
-5.06726e-08
-0.000261453
4.47875e-10
5.18335e-08
-2.03582e-09
-7.8521e-05
-2.70974e-08
-2.62093e-08
0.000261424
5.22962e-08
-0.000261456
1.44221e-09
5.8479e-09
-3.50089e-08
-7.85483e-05
-5.04588e-08
2.6734e-08
-1.40141e-09
0.00014216
3.0911e-10
-2.37343e-08
6.3714e-08
-0.000222217
2.68767e-08
-5.6581e-08
-0.000169691
6.44253e-10
6.35165e-08
-0.000212363
1.24658e-08
1.24689e-08
-2.12851e-08
-2.34367e-08
0.000212383
1.0832e-08
7.98918e-05
1.31662e-08
-7.99158e-05
1.08139e-08
7.98806e-05
1.32067e-08
-7.99046e-05
2.06788e-08
2.28162e-08
-0.000212385
-1.25264e-08
7.99168e-05
-1.2548e-08
7.99056e-05
3.3106e-08
-2.72559e-08
0.000220942
-0.000220978
-2.03993e-08
5.13635e-08
-0.000250183
2.54219e-08
-8.60455e-08
-3.49157e-08
4.3709e-08
-1.20911e-08
-0.000276461
-1.61272e-08
2.20734e-08
-0.000181697
-3.13708e-08
1.24966e-08
-0.000250253
9.34291e-08
5.37033e-08
-0.000181723
-1.31184e-08
2.14278e-08
-5.66043e-08
3.31487e-08
-2.52791e-08
0.000220881
-0.000220917
-2.25367e-08
5.15718e-08
-0.000250087
2.55393e-08
-9.0975e-08
-3.50377e-08
4.13873e-08
-1.26834e-08
-0.000276406
-1.60436e-08
2.21888e-08
-0.000181652
-2.94459e-08
1.25279e-08
-0.000250162
9.58043e-08
5.37731e-08
-0.000181677
-1.31553e-08
2.35847e-08
-5.68352e-08
-0.000220949
-2.51696e-08
3.12187e-08
-5.63641e-08
2.75903e-08
0.000181696
-0.000181723
-3.34905e-08
0.000250199
5.42073e-08
9.42255e-08
-0.00025027
-4.35953e-08
7.9612e-09
2.14507e-08
-1.98166e-08
5.19624e-08
-0.000220987
-3.45785e-08
-8.80893e-08
-0.000220888
-2.52685e-08
2.92829e-08
-5.65833e-08
2.56259e-08
0.000181652
-0.000181677
-3.35263e-08
0.000250104
5.42475e-08
9.66063e-08
-0.000250179
-4.1334e-08
8.50272e-09
2.14207e-08
-1.98642e-08
5.21857e-08
-0.000220926
-3.46997e-08
-9.05312e-08
-1.07214e-08
-1.07056e-08
0.000212361
-7.9893e-05
-1.25138e-08
-7.98818e-05
-1.25088e-08
-9.71e-05
-9.71043e-05
1.20092e-07
9.19966e-08
0.000242592
-0.000242703
-2.37302e-07
-2.47713e-07
-0.0002716
-0.000261325
2.60737e-08
-0.000261664
1.8062e-07
-0.000261616
-0.000262032
1.09988e-07
1.07161e-07
0.000242605
-0.000242717
-2.42559e-07
-2.47581e-07
-0.000271626
-0.000261694
1.06405e-07
-0.00026134
1.0388e-07
-0.000262021
-0.000261666
1.07427e-07
1.07036e-07
0.000242577
-0.000242689
-2.42483e-07
-2.47523e-07
-0.000271573
-0.000261657
1.03964e-07
-0.0002613
1.03701e-07
-0.000261986
-0.000261628
1.07128e-07
1.07318e-07
0.000242587
-0.000242699
-2.42387e-07
-2.47732e-07
-0.000271586
-0.00026128
1.03688e-07
-0.000261703
1.03964e-07
-0.000261606
-0.000262032
-0.00121474
2.53289e-07
-1.7956e-09
2.59396e-07
4.61799e-09
-0.00121521
2.62091e-07
-1.40504e-09
-0.00121446
-1.98282e-07
0.00123679
-1.84739e-08
-1.25191e-09
-0.00123623
-2.74422e-07
-7.61497e-09
1.23852e-09
1.92146e-07
1.92583e-07
-0.00119079
-0.00121478
2.53311e-07
-0.0012153
2.5914e-07
-6.59672e-10
2.56239e-07
-0.0012145
2.62006e-07
6.19877e-10
-0.00121502
0.00123684
3.07748e-10
-0.00123634
2.44686e-10
2.77099e-07
-0.00121436
-0.00121479
2.52909e-07
-2.46637e-08
2.55734e-07
-1.21505e-07
-0.00121427
-3.04926e-07
0.00123611
-1.27434e-07
-0.00123536
-3.70032e-07
-2.56791e-08
1.92082e-07
2.0989e-07
-0.0011906
-0.00121444
2.64745e-07
-0.0012149
2.5292e-07
2.79556e-07
-0.00121418
2.55824e-07
-0.00121472
0.00123622
-0.00123582
-0.000266538
1.79403e-07
3.17622e-10
0.000267317
2.31143e-09
2.1246e-07
0.000249313
-0.000249458
-6.91726e-09
-5.26063e-09
0.000266981
4.92486e-09
-0.000267644
2.79172e-09
-1.61462e-07
0.000250291
-5.51568e-11
-0.000267351
-1.85489e-08
0.000249435
6.37175e-09
0.000267604
-1.91387e-09
-3.06677e-08
-1.90808e-07
0.000264512
2.08093e-08
-0.000265248
-0.000260357
-1.08726e-08
1.12232e-07
1.4972e-08
-0.000244466
-0.000250097
-1.65058e-07
-6.43406e-09
-0.000260508
6.81314e-09
-0.000250226
-2.56338e-09
-2.13853e-07
8.43551e-09
0.000266503
-3.25383e-09
1.96448e-07
8.82317e-11
-0.000249288
-1.77454e-07
-0.000266942
-2.74017e-09
-4.80856e-09
2.2079e-09
-0.000266588
1.79513e-07
1.19364e-09
2.15897e-09
0.000267369
2.12504e-07
0.000249379
-7.07932e-09
-0.000249522
-6.10041e-09
0.000267008
-0.000267661
2.57697e-09
-1.61463e-07
0.000250323
-1.86432e-08
-0.000267402
6.13713e-09
0.000249498
0.000267629
-1.85843e-07
-2.83773e-08
0.000264558
-0.000265297
1.83635e-08
-0.000260372
-1.29362e-08
1.27941e-08
1.07343e-07
-0.00024448
-0.000250159
-1.67736e-07
-6.22131e-09
-0.000250285
6.96694e-09
-0.00026052
-2.37747e-09
-0.00026459
1.67326e-07
1.26984e-08
1.86845e-07
0.000250178
-0.000250304
2.8727e-08
0.000260396
-0.000260544
-1.36052e-08
-8.64603e-08
-0.000265329
-2.11264e-07
6.73658e-09
0.000266554
-2.75724e-09
1.96503e-07
-0.000249355
-1.80178e-07
-0.000266972
-1.59314e-09
-1.0609e-07
-0.000242623
-1.03548e-07
2.30777e-07
2.35716e-07
0.000261722
-1.10848e-07
-0.000262049
-1.0804e-07
0.000261367
-0.000261694
-0.000242735
-2.86183e-08
-1.83253e-07
0.000264581
2.86138e-08
-0.000265321
-0.0002604
-1.79205e-08
9.98585e-08
1.28654e-08
-0.000244483
-0.000250166
-1.72797e-07
-6.22058e-09
-0.000260547
7.00592e-09
-0.000250292
-9.99786e-09
-2.11414e-07
1.0049e-08
0.000266548
-0.00026735
-3.14479e-09
1.9906e-07
4.2906e-10
-0.000250309
-0.000249348
-1.82753e-07
-0.000266955
-8.71569e-10
-6.79134e-09
-0.000249494
4.46073e-09
-0.000267606
-1.85738e-07
-3.08486e-08
0.000264491
1.56236e-08
-0.000265222
-0.000260309
-1.56592e-08
1.50679e-08
1.02404e-07
-0.000244411
-0.000250073
-1.67552e-07
-6.24076e-09
6.80145e-09
-0.000250198
-0.000260464
5.24253e-11
6.04241e-09
-2.11324e-07
0.000266485
-0.000267299
1.96451e-07
-2.22887e-09
-0.000250282
-0.00026694
-2.03792e-09
-0.000249266
-1.79996e-07
-0.000267589
-0.000249412
-0.000266592
1.81955e-07
-1.92641e-09
1.24497e-08
0.00026736
2.15093e-07
0.000249386
-9.34749e-09
-0.000249529
-6.45543e-09
0.000266995
6.38891e-09
-0.000267658
3.12909e-09
-1.61388e-07
0.000250319
-2.90569e-10
-2.87837e-08
-0.000267391
8.58405e-09
0.000249506
0.000267615
-3.68692e-09
-3.08391e-08
-1.88237e-07
0.000264594
-0.000265332
2.84896e-08
-0.000260435
-1.57302e-08
1.07173e-07
1.26082e-08
-0.000244523
-0.000250187
-1.70155e-07
-8.67925e-09
-0.000260588
-0.000250318
9.24575e-09
-1.27084e-08
-0.000264625
1.54594e-08
1.69733e-07
1.89239e-07
0.000250206
-0.000250337
3.11978e-08
0.000260459
-0.000260612
-8.63479e-08
-1.37019e-08
-0.000265364
-2.13919e-07
9.6588e-09
0.000266558
-3.01562e-09
1.96501e-07
2.2256e-10
-0.000249362
-1.82632e-07
-0.000266958
-1.31477e-09
-6.46405e-09
3.60944e-09
-0.000266529
1.6812e-09
1.79382e-07
-3.70839e-10
0.00026731
-5.83989e-09
0.000266979
-0.000267633
2.12467e-07
0.000249308
-7.06334e-09
-0.000249452
-1.58782e-07
2.6238e-09
0.000250292
-1.60334e-08
-0.000267343
0.000267599
6.18664e-09
0.000249428
-1.85718e-07
-2.83227e-08
0.000264507
-0.00026524
1.57127e-08
-0.000260353
-1.31015e-08
1.27751e-08
1.04782e-07
-0.000244457
-0.000250096
-1.6769e-07
-6.28095e-09
-0.000250221
6.92529e-09
-0.000260506
8.91507e-11
-0.000264538
1.67253e-07
1.28197e-08
1.8673e-07
0.000250114
-0.000250241
2.87207e-08
0.000260377
-0.00026053
-1.37398e-08
-8.4041e-08
-0.000265272
6.19809e-09
-2.11224e-07
0.000266496
1.93894e-07
-2.68086e-09
-0.000266943
-2.05431e-09
-0.000249285
-1.80041e-07
-0.000266528
-1.39746e-09
1.81889e-07
1.49791e-08
0.00026729
-6.22201e-09
0.000266964
2.77433e-09
-0.000267616
2.15055e-07
0.000249304
-0.000249447
-9.41051e-09
-1.61282e-07
3.17284e-09
0.000250277
-7.22784e-11
-0.000267318
-3.13439e-08
0.00026758
-1.16187e-09
8.63238e-09
0.000249421
-3.08316e-08
-1.88237e-07
0.000264521
-0.000265262
3.10314e-08
-0.000260372
-1.56907e-08
1.07242e-07
1.26901e-08
-0.000244466
-0.000250099
-1.70253e-07
-6.34395e-09
-0.000260525
-0.000250229
9.27778e-09
-1.00752e-08
1.69747e-07
-8.79676e-07
-0.000264552
1.54204e-08
-0.000250118
1.37493e-08
9.41374e-09
-2.13809e-07
0.000266494
1.96436e-07
-3.3169e-09
-1.17962e-10
-0.000266929
-1.30887e-09
-4.06499e-09
-0.00024928
-1.82639e-07
6.62902e-10
-0.000266575
-8.3269e-10
1.81857e-07
1.498e-08
0.000267334
-8.83857e-09
0.000266994
-0.000267638
2.15006e-07
0.000249368
-9.47055e-09
-0.000249513
-1.61308e-07
2.80655e-09
0.00025031
-3.14073e-08
-0.000267368
0.000267605
8.54021e-09
0.000249488
-1.88177e-07
-2.83178e-08
0.000264567
-0.000265311
3.11194e-08
-0.000260389
-1.30588e-08
1.28277e-08
1.07225e-07
-0.000244474
-0.000250155
-1.70175e-07
-8.64002e-09
-0.000250288
9.35126e-09
-0.000260539
-1.52059e-08
-0.000264598
1.69758e-07
1.28125e-08
1.89184e-07
0.000250173
-0.000250307
2.86739e-08
0.000260413
-0.000260564
-1.37326e-08
-8.64959e-08
-0.000265343
8.95328e-09
-2.13787e-07
0.000266541
1.96493e-07
-2.87815e-09
-0.000266957
1.52079e-10
-0.000249344
-1.82539e-07
-0.000242605
-1.03371e-07
-1.03631e-07
2.30564e-07
2.35884e-07
-1.07967e-07
0.000261307
-0.000261633
-1.08146e-07
0.000261733
-0.00026206
-0.000242717
-8.38415e-07
-8.38384e-07
-0.00114599
4.40926e-07
4.47187e-07
0.00114678
-0.00113696
-1.51034e-06
8.38382e-07
4.14419e-07
0.00113746
-5.10116e-07
1.12353e-06
1.40887e-07
7.39704e-07
-5.57214e-07
-1.24471e-06
7.30613e-08
-0.0011366
-1.50475e-06
8.38047e-07
4.13911e-07
0.0011371
-5.07339e-07
1.118e-06
1.37852e-07
7.39627e-07
-5.59902e-07
-1.24451e-06
7.6515e-08
-0.000276455
1.53927e-06
1.50486e-06
-4.88362e-07
-4.94107e-07
0.000274393
-1.15908e-06
-1.11908e-06
0.000276471
-0.000274367
8.35976e-08
9.08805e-08
0.00113613
8.42228e-07
-0.00113562
4.18768e-07
-1.54931e-06
1.45002e-07
-5.18623e-07
-1.25109e-06
6.76369e-08
-5.5827e-07
7.40686e-07
1.1649e-06
0.0011366
8.42382e-07
-0.00113609
4.17872e-07
-1.55493e-06
1.47946e-07
-5.21465e-07
-1.25711e-06
7.41982e-08
-5.64102e-07
7.46249e-07
-1.12197e-06
0.0002765
-0.00027439
8.61657e-08
9.13177e-08
0.00113725
8.44107e-07
-0.00113674
4.17585e-07
-1.5096e-06
1.39031e-07
-5.1329e-07
-1.25415e-06
7.40835e-08
-5.64124e-07
7.40585e-07
1.15669e-06
0.00113625
8.47579e-07
-0.00113576
4.17637e-07
-1.54665e-06
1.45037e-07
-5.1865e-07
-1.25121e-06
7.42914e-08
-5.63663e-07
7.4058e-07
8.48792e-07
-0.00113646
4.16698e-07
-1.51198e-06
1.39281e-07
-5.1294e-07
-1.25118e-06
7.09133e-08
7.37859e-07
-5.61051e-07
1.15129e-06
0.00113604
8.48194e-07
-0.00113554
4.17709e-07
-1.54098e-06
1.39129e-07
-5.12873e-07
-1.25126e-06
7.09626e-08
-5.63724e-07
7.40549e-07
-1.11645e-06
0.000276447
-0.000274351
8.6113e-08
9.14257e-08
8.42793e-07
-0.00113611
4.2757e-07
-1.5064e-06
1.36336e-07
-5.10066e-07
-1.24821e-06
7.44479e-08
7.37746e-07
-5.63725e-07
1.11386e-06
0.00113715
8.42591e-07
-0.00113665
4.22384e-07
-1.50928e-06
1.3634e-07
-5.12923e-07
-1.24573e-06
7.12137e-08
-5.60971e-07
7.35416e-07
-0.000274367
8.61784e-08
9.15792e-08
1.54766e-06
1.50777e-06
-4.85968e-07
-4.94185e-07
0.000274395
-1.1546e-06
-1.13867e-06
-0.000274463
1.29313e-07
6.4093e-08
0.000276563
4.15797e-07
0.00113662
-5.15909e-07
1.16063e-06
1.46628e-07
7.42406e-07
-5.54521e-07
-1.24741e-06
6.96208e-08
-1.55328e-06
8.3765e-07
4.1554e-07
0.00113709
-5.18605e-07
1.16648e-06
1.49552e-07
7.48081e-07
-5.60317e-07
-1.2534e-06
7.63122e-08
7.9348e-07
-0.00113758
4.1366e-07
-1.5448e-06
1.36047e-07
-5.16533e-07
-1.24101e-06
4.5597e-08
-5.61503e-07
7.40347e-07
0.00113816
1.17107e-06
8.23431e-07
-0.00113803
4.08166e-07
-1.54773e-06
1.54272e-07
-5.1024e-07
-1.2392e-06
8.25321e-08
-5.4891e-07
7.50902e-07
0.00113849
-4.88938e-07
-4.93732e-07
0.000274419
-1.12808e-06
-0.000274478
9.60129e-08
1.01212e-07
0.00027658
4.19573e-07
0.00113774
-5.10416e-07
1.12078e-06
1.40824e-07
7.45233e-07
-5.60269e-07
-1.24776e-06
7.63532e-08
-1.54498e-06
8.3726e-07
4.15307e-07
0.00113675
-5.15836e-07
1.15827e-06
1.46657e-07
7.42447e-07
-5.59906e-07
-1.2475e-06
7.63841e-08
8.34154e-07
-0.00113867
4.36661e-07
-1.49125e-06
1.59931e-07
-4.91514e-07
-1.22837e-06
1.1654e-07
-5.33014e-07
7.53296e-07
0.00113897
1.16284e-06
8.2313e-07
-0.00113769
4.02703e-07
-1.53949e-06
1.5136e-07
-5.07419e-07
-1.2362e-06
8.25571e-08
-5.48576e-07
7.47996e-07
0.00113816
8.37782e-07
4.15442e-07
0.00113654
-5.10002e-07
1.15283e-06
1.40753e-07
7.42388e-07
-5.57232e-07
7.30847e-08
-1.24753e-06
8.24009e-07
-0.0011384
4.0716e-07
-1.50482e-06
1.45659e-07
-5.0174e-07
-1.23327e-06
7.93904e-08
-5.45839e-07
7.45292e-07
0.00113886
1.15745e-06
8.2334e-07
-0.00113748
4.08137e-07
-1.53371e-06
1.4549e-07
-5.01659e-07
-1.23336e-06
7.93775e-08
-5.4584e-07
7.45242e-07
0.00113794
-4.88747e-07
-4.93821e-07
0.00027438
-1.12251e-06
-0.00027444
9.32712e-08
1.01264e-07
0.00027653
8.37749e-07
4.20026e-07
0.00113764
-5.07321e-07
1.11819e-06
1.3797e-07
7.37314e-07
-5.57187e-07
7.3327e-08
-1.242e-06
8.23561e-07
-0.00113804
4.07189e-07
-1.49921e-06
1.42675e-07
-4.9884e-07
-1.23315e-06
8.27788e-08
-5.486e-07
7.45145e-07
0.0011385
1.1228e-06
8.23574e-07
-0.00113859
4.07022e-07
-1.49927e-06
1.42773e-07
-4.98935e-07
-1.23063e-06
7.96451e-08
-5.45812e-07
7.42872e-07
0.00113904
-0.000274453
9.60968e-08
1.0145e-07
0.000276535
-0.00114519
4.42773e-07
4.43604e-07
0.001146
-0.00114519
4.42552e-07
4.43066e-07
0.0011456
-0.00114482
4.42257e-07
4.65213e-07
0.00114581
-0.00114502
4.4217e-07
4.59935e-07
-9.10356e-11
6.2557e-08
0.000235846
-0.000235903
-1.25589e-10
-5.12958e-09
-0.000196886
-5.5401e-09
1.32831e-07
-1.62116e-08
0.000196775
-0.000236249
4.45392e-11
2.39558e-07
0.000236104
-8.5072e-08
-9.77807e-09
1.33265e-08
1.37159e-08
0.000196616
-2.71507e-09
-0.00019664
-9.89437e-05
5.50178e-09
5.96862e-08
9.88785e-05
-1.33011e-08
1.81743e-09
9.88366e-05
-9.88252e-05
6.01011e-08
-7.25679e-10
0.000235877
-0.00023593
-4.62873e-09
-2.3024e-09
-0.000196915
-5.25198e-09
1.30976e-07
-1.6631e-08
0.000196806
-0.000236278
2.39783e-07
-1.54034e-10
0.000236131
-9.72609e-09
-8.31218e-08
1.35039e-08
1.58739e-08
0.000196645
-2.99598e-09
-0.000196671
4.4069e-07
4.41206e-07
0.00114679
4.40374e-07
4.41047e-07
0.0011464
4.40289e-07
4.41339e-07
0.0011466
-0.00114835
4.36239e-07
4.64265e-07
0.00114907
-0.00114837
4.35147e-07
4.35767e-07
0.00114915
-0.00114797
4.29359e-07
4.35547e-07
0.00114875
-0.00114818
4.34876e-07
4.3569e-07
0.00114895
-6.27024e-08
-1.57411e-09
0.000260056
-0.000259993
-1.78542e-08
1.99592e-08
-0.000252843
-6.1172e-08
-1.32811e-07
3.07061e-07
6.29669e-08
0.000252667
0.00113889
-0.00113821
3.27771e-09
8.99649e-07
7.9233e-07
-1.19452e-06
-1.36368e-06
5.95646e-07
4.11956e-07
1.12507e-06
0.00113794
8.33601e-07
-1.24091e-06
7.5172e-08
-5.53395e-07
7.41577e-07
-1.50851e-06
1.42468e-07