/*--------------------------------*- C++ -*----------------------------------*\
| =========                 |                                                 |
| \\      /  F ield         | OpenFOAM: The Open Source CFD Toolbox           |
|  \\    /   O peration     | Version:  v1906                                 |
|   \\  /    A nd           | Web:      www.OpenFOAM.com                      |
|    \\/     M anipulation  |                                                 |
\*---------------------------------------------------------------------------*/
FoamFile
{
    version     2.0;
    format      ascii;
    class       volScalarField;
    location    "600";
    object      epsilon;
}
// * * * * * * * * * * * * * * * * * * * * * * * * * * * * * * * * * * * * * //

dimensions      [0 2 -3 0 0 0 0];


internalField   nonuniform List<scalar> 
43024
(
6.63514e-07
1.18839e-06
1.18846e-06
1.42056e-06
6.68479e-07
1.19039e-06
1.19045e-06
1.42257e-06
6.72876e-07
1.1919e-06
1.19196e-06
1.4242e-06
6.76724e-07
1.19293e-06
1.19299e-06
1.42541e-06
6.80042e-07
1.19351e-06
1.19357e-06
1.42622e-06
6.82854e-07
1.19365e-06
1.19371e-06
1.427e-06
6.85182e-07
1.19342e-06
1.19347e-06
1.42711e-06
6.87049e-07
1.1928e-06
1.19285e-06
1.42687e-06
6.88476e-07
1.19182e-06
1.19187e-06
1.42631e-06
6.89487e-07
1.1905e-06
1.19055e-06
1.42544e-06
6.90102e-07
1.18886e-06
1.18891e-06
1.42427e-06
6.90351e-07
1.18693e-06
1.18698e-06
1.42283e-06
6.90271e-07
1.18473e-06
1.18478e-06
1.42111e-06
6.89906e-07
1.18228e-06
1.18235e-06
1.41889e-06
6.89243e-07
1.17961e-06
1.17969e-06
1.41685e-06
6.88317e-07
1.17673e-06
1.17683e-06
1.41448e-06
6.8715e-07
1.17368e-06
1.17381e-06
1.41193e-06
6.85765e-07
1.17048e-06
1.17063e-06
1.40923e-06
6.84183e-07
1.16717e-06
1.1673e-06
1.40635e-06
6.82177e-07
1.16349e-06
1.16358e-06
1.40299e-06
6.63164e-07
1.10577e-06
1.10574e-06
1.35886e-06
1.4184e-06
1.18786e-06
1.18789e-06
1.41837e-06
1.18777e-06
1.1879e-06
1.18779e-06
1.18792e-06
1.41845e-06
1.18786e-06
1.18783e-06
1.41845e-06
1.42052e-06
1.42051e-06
1.18845e-06
1.18848e-06
1.18998e-06
1.19001e-06
1.42044e-06
1.42047e-06
1.18837e-06
1.1885e-06
1.18989e-06
1.19003e-06
1.18852e-06
1.18991e-06
1.19004e-06
1.42052e-06
1.42054e-06
1.18843e-06
1.18998e-06
1.18995e-06
1.42057e-06
1.42254e-06
1.42221e-06
1.19046e-06
1.19049e-06
1.19161e-06
1.19164e-06
1.42248e-06
1.42217e-06
1.19037e-06
1.1905e-06
1.19152e-06
1.19165e-06
1.19052e-06
1.19154e-06
1.19167e-06
1.42255e-06
1.42223e-06
1.19043e-06
1.1916e-06
1.19158e-06
1.42227e-06
1.42415e-06
1.42343e-06
1.19196e-06
1.192e-06
1.19276e-06
1.19279e-06
1.42411e-06
1.42355e-06
1.19188e-06
1.192e-06
1.19267e-06
1.19279e-06
1.19203e-06
1.19269e-06
1.19281e-06
1.42417e-06
1.42361e-06
1.19194e-06
1.19275e-06
1.19273e-06
1.42366e-06
1.42554e-06
1.42425e-06
1.193e-06
1.19303e-06
1.19346e-06
1.19349e-06
1.42533e-06
1.42449e-06
1.19291e-06
1.19304e-06
1.19336e-06
1.19349e-06
1.19306e-06
1.19338e-06
1.19351e-06
1.42538e-06
1.42455e-06
1.19298e-06
1.19344e-06
1.19343e-06
1.42462e-06
1.42647e-06
1.42477e-06
1.19359e-06
1.19362e-06
1.19373e-06
1.19376e-06
1.42616e-06
1.42501e-06
1.1935e-06
1.19362e-06
1.19364e-06
1.19376e-06
1.19364e-06
1.19366e-06
1.19378e-06
1.42621e-06
1.42507e-06
1.19355e-06
1.19371e-06
1.1937e-06
1.42479e-06
1.42694e-06
1.42492e-06
1.19373e-06
1.19376e-06
1.19356e-06
1.1936e-06
1.42662e-06
1.42515e-06
1.19364e-06
1.19376e-06
1.19347e-06
1.1936e-06
1.19378e-06
1.19349e-06
1.19361e-06
1.42668e-06
1.42521e-06
1.19369e-06
1.19355e-06
1.19354e-06
1.42495e-06
1.42705e-06
1.42472e-06
1.1935e-06
1.19353e-06
1.19301e-06
1.19304e-06
1.42673e-06
1.42495e-06
1.19341e-06
1.19353e-06
1.19292e-06
1.19305e-06
1.19355e-06
1.19293e-06
1.19306e-06
1.42678e-06
1.42502e-06
1.19346e-06
1.19299e-06
1.19298e-06
1.42475e-06
1.42681e-06
1.42419e-06
1.19288e-06
1.19291e-06
1.19209e-06
1.19212e-06
1.42649e-06
1.42443e-06
1.19279e-06
1.19291e-06
1.192e-06
1.19213e-06
1.19293e-06
1.19201e-06
1.19213e-06
1.42655e-06
1.42449e-06
1.19284e-06
1.19207e-06
1.19206e-06
1.42423e-06
1.42624e-06
1.42336e-06
1.1919e-06
1.19193e-06
1.19082e-06
1.19085e-06
1.42592e-06
1.42359e-06
1.19181e-06
1.19193e-06
1.19073e-06
1.19086e-06
1.19195e-06
1.19074e-06
1.19087e-06
1.42598e-06
1.42366e-06
1.19186e-06
1.1908e-06
1.19079e-06
1.4234e-06
1.42536e-06
1.42222e-06
1.19057e-06
1.19061e-06
1.18923e-06
1.18926e-06
1.42505e-06
1.42245e-06
1.19049e-06
1.19061e-06
1.18915e-06
1.18928e-06
1.19063e-06
1.18916e-06
1.18929e-06
1.42511e-06
1.42252e-06
1.19054e-06
1.18921e-06
1.18921e-06
1.42227e-06
1.4242e-06
1.42082e-06
1.18894e-06
1.18897e-06
1.18735e-06
1.18738e-06
1.42388e-06
1.42105e-06
1.18885e-06
1.18898e-06
1.18727e-06
1.1874e-06
1.18899e-06
1.18727e-06
1.18741e-06
1.42395e-06
1.42112e-06
1.18891e-06
1.18733e-06
1.18733e-06
1.42087e-06
1.42276e-06
1.41919e-06
1.18701e-06
1.18704e-06
1.18519e-06
1.18522e-06
1.42245e-06
1.4194e-06
1.18692e-06
1.18705e-06
1.18511e-06
1.18524e-06
1.18707e-06
1.18512e-06
1.18525e-06
1.42252e-06
1.41947e-06
1.18698e-06
1.18517e-06
1.18517e-06
1.41923e-06
1.42101e-06
1.41744e-06
1.18481e-06
1.18485e-06
1.18277e-06
1.18281e-06
1.42079e-06
1.41746e-06
1.18472e-06
1.18485e-06
1.1827e-06
1.18284e-06
1.18488e-06
1.18271e-06
1.18284e-06
1.42085e-06
1.41753e-06
1.18478e-06
1.18276e-06
1.18276e-06
1.4175e-06
1.41891e-06
1.41527e-06
1.18237e-06
1.18241e-06
1.18013e-06
1.18016e-06
1.41894e-06
1.41522e-06
1.18228e-06
1.1824e-06
1.18004e-06
1.18019e-06
1.18244e-06
1.18008e-06
1.18019e-06
1.419e-06
1.41529e-06
1.18233e-06
1.18011e-06
1.18012e-06
1.41537e-06
1.4168e-06
1.4129e-06
1.17971e-06
1.17974e-06
1.17727e-06
1.17733e-06
1.41675e-06
1.41284e-06
1.17963e-06
1.17975e-06
1.17719e-06
1.17732e-06
1.17978e-06
1.17723e-06
1.17734e-06
1.41681e-06
1.41292e-06
1.17968e-06
1.17725e-06
1.17725e-06
1.41296e-06
1.41443e-06
1.41035e-06
1.17685e-06
1.17684e-06
1.17423e-06
1.17432e-06
1.41438e-06
1.4103e-06
1.17678e-06
1.17691e-06
1.17415e-06
1.17428e-06
1.17692e-06
1.17421e-06
1.17429e-06
1.41444e-06
1.41037e-06
1.17683e-06
1.1742e-06
1.17421e-06
1.41041e-06
1.41188e-06
1.40765e-06
1.17383e-06
1.17381e-06
1.17101e-06
1.17109e-06
1.41183e-06
1.4076e-06
1.17375e-06
1.17388e-06
1.17093e-06
1.17107e-06
1.1739e-06
1.17102e-06
1.17108e-06
1.4119e-06
1.40767e-06
1.17381e-06
1.17098e-06
1.17099e-06
1.4077e-06
1.40918e-06
1.4048e-06
1.17066e-06
1.17066e-06
1.16767e-06
1.16772e-06
1.40913e-06
1.40475e-06
1.17058e-06
1.17071e-06
1.16759e-06
1.16773e-06
1.17073e-06
1.16768e-06
1.16773e-06
1.4092e-06
1.40483e-06
1.17064e-06
1.16765e-06
1.16764e-06
1.40486e-06
1.4063e-06
1.4015e-06
1.16734e-06
1.16736e-06
1.1638e-06
1.16384e-06
1.40626e-06
1.40145e-06
1.16725e-06
1.16737e-06
1.16373e-06
1.16386e-06
1.1674e-06
1.16379e-06
1.16387e-06
1.40632e-06
1.40152e-06
1.16731e-06
1.16378e-06
1.16377e-06
1.40155e-06
1.40293e-06
1.38099e-06
1.16362e-06
1.16365e-06
1.14125e-06
1.14127e-06
1.40289e-06
1.38097e-06
1.16353e-06
1.16365e-06
1.14123e-06
1.14123e-06
1.16368e-06
1.14136e-06
1.14129e-06
1.40295e-06
1.38099e-06
1.16359e-06
1.14132e-06
1.14126e-06
1.38119e-06
1.35887e-06
1.10571e-06
1.10575e-06
1.35883e-06
1.10571e-06
1.10569e-06
6.63203e-07
6.63158e-07
6.63196e-07
1.10574e-06
1.35883e-06
1.10573e-06
4.2388e-06
9.56549e-06
1.90933e-05
4.23897e-06
9.56752e-06
6.62168e-07
6.6218e-07
6.62275e-07
6.62268e-07
2.29547e-06
1.18654e-06
3.64733e-06
9.34999e-07
1.90943e-05
2.29544e-06
1.18661e-06
9.35061e-07
3.64739e-06
1.41723e-06
5.65052e-06
5.65248e-06
4.24104e-06
9.57201e-06
4.24062e-06
9.57639e-06
1.91046e-05
1.91145e-05
4.24121e-06
9.57407e-06
4.24076e-06
9.57843e-06
6.63526e-07
6.63621e-07
6.63607e-07
6.67274e-07
6.67287e-07
6.6738e-07
6.67376e-07
2.29659e-06
3.64922e-06
9.37644e-07
1.18892e-06
2.29654e-06
3.64945e-06
9.38427e-07
1.91055e-05
1.91155e-05
2.29657e-06
9.37706e-07
3.64924e-06
1.18898e-06
2.29652e-06
9.38488e-07
3.64951e-06
5.65361e-06
5.65556e-06
1.41957e-06
5.65453e-06
5.65647e-06
4.243e-06
9.58261e-06
4.24268e-06
9.58677e-06
1.91254e-05
1.9135e-05
4.24317e-06
9.58467e-06
4.2428e-06
9.5888e-06
6.68492e-07
6.68585e-07
6.6857e-07
6.71807e-07
6.71821e-07
6.71911e-07
6.71909e-07
2.29741e-06
3.65115e-06
9.40624e-07
1.19079e-06
2.2974e-06
3.65127e-06
9.41253e-07
1.91263e-05
1.9136e-05
2.29732e-06
9.40684e-07
3.65117e-06
1.19085e-06
2.29743e-06
9.41313e-07
3.65133e-06
5.65742e-06
5.65936e-06
1.42147e-06
5.65823e-06
5.66018e-06
4.24467e-06
9.59268e-06
4.24445e-06
9.59661e-06
1.91454e-05
1.91548e-05
4.24484e-06
9.59472e-06
4.24457e-06
9.59863e-06
6.7289e-07
6.7298e-07
6.72966e-07
6.75786e-07
6.758e-07
6.75887e-07
6.75887e-07
2.29783e-06
3.65277e-06
9.43022e-07
1.19217e-06
2.29792e-06
3.65278e-06
9.43505e-07
1.91463e-05
1.91557e-05
2.29767e-06
9.4308e-07
3.65279e-06
1.19223e-06
2.29802e-06
9.43561e-07
3.65283e-06
5.66096e-06
5.6629e-06
1.42299e-06
5.66166e-06
5.6636e-06
4.24605e-06
9.60219e-06
4.24594e-06
9.6059e-06
1.91647e-05
1.91737e-05
4.24621e-06
9.60423e-06
4.24605e-06
9.60792e-06
6.76738e-07
6.76825e-07
6.76812e-07
6.7923e-07
6.79244e-07
6.79329e-07
6.79328e-07
2.29788e-06
3.65411e-06
9.44865e-07
1.19309e-06
2.29809e-06
3.654e-06
9.45208e-07
1.91656e-05
1.91747e-05
2.2977e-06
9.44919e-07
3.65412e-06
1.19315e-06
2.29817e-06
9.4526e-07
3.65405e-06
5.6642e-06
5.66614e-06
1.42417e-06
5.66479e-06
5.66674e-06
4.24716e-06
9.61115e-06
4.24715e-06
9.61463e-06
1.91832e-05
1.91919e-05
4.24731e-06
9.61319e-06
4.24725e-06
9.61665e-06
6.80056e-07
6.80141e-07
6.80128e-07
6.8216e-07
6.82174e-07
6.82256e-07
6.82256e-07
2.2976e-06
3.65515e-06
9.4618e-07
1.19357e-06
2.29793e-06
3.65493e-06
9.4639e-07
1.91841e-05
1.91929e-05
2.29741e-06
9.46229e-07
3.65516e-06
1.19363e-06
2.29801e-06
9.4644e-07
3.65498e-06
5.66716e-06
5.66911e-06
1.42456e-06
5.66763e-06
5.66959e-06
4.24799e-06
9.61956e-06
4.24808e-06
9.62281e-06
1.92009e-05
1.92092e-05
4.24813e-06
9.62158e-06
4.24818e-06
9.62482e-06
6.82868e-07
6.8295e-07
6.82938e-07
6.84597e-07
6.8461e-07
6.8469e-07
6.8469e-07
2.29701e-06
3.65591e-06
9.46989e-07
1.19362e-06
2.29746e-06
3.65558e-06
9.47084e-07
1.92018e-05
1.92102e-05
2.29681e-06
9.47037e-07
3.65592e-06
1.19368e-06
2.29753e-06
9.4713e-07
3.65563e-06
5.66983e-06
5.67179e-06
1.42486e-06
5.67019e-06
5.67217e-06
4.24855e-06
9.62741e-06
4.24875e-06
9.63044e-06
1.92177e-05
1.92257e-05
4.2487e-06
9.62943e-06
4.24884e-06
9.63244e-06
6.85196e-07
6.85276e-07
6.85264e-07
6.86566e-07
6.86579e-07
6.86658e-07
6.86657e-07
2.29611e-06
3.6564e-06
9.47323e-07
1.19326e-06
2.29671e-06
3.65596e-06
9.47324e-07
1.92186e-05
1.92267e-05
2.29598e-06
9.47368e-07
3.65641e-06
1.19332e-06
2.29671e-06
9.47367e-07
3.65601e-06
5.67224e-06
5.6742e-06
1.42483e-06
5.67249e-06
5.67446e-06
4.24887e-06
9.63471e-06
4.24916e-06
9.63751e-06
1.92338e-05
1.92414e-05
4.24902e-06
9.63672e-06
4.24926e-06
9.6395e-06
6.87061e-07
6.8714e-07
6.87129e-07
6.88093e-07
6.88105e-07
6.88183e-07
6.88182e-07
2.29488e-06
3.65663e-06
9.47223e-07
1.19251e-06
2.29569e-06
3.65608e-06
9.47104e-07
1.92346e-05
1.92423e-05
2.29477e-06
9.47262e-07
3.65664e-06
1.19257e-06
2.29563e-06
9.4715e-07
3.65613e-06
5.67436e-06
5.67633e-06
1.42448e-06
5.67449e-06
5.67648e-06
4.24893e-06
9.64145e-06
4.24932e-06
9.64403e-06
1.92489e-05
1.92562e-05
4.24908e-06
9.64346e-06
4.24942e-06
9.64609e-06
6.88488e-07
6.88566e-07
6.88556e-07
6.89204e-07
6.89216e-07
6.89294e-07
6.89292e-07
2.29342e-06
3.6566e-06
9.46729e-07
1.19142e-06
2.29436e-06
3.65594e-06
9.46479e-07
1.92497e-05
1.92571e-05
2.29332e-06
9.46766e-07
3.65661e-06
1.19147e-06
2.29429e-06
9.46524e-07
3.656e-06
5.67622e-06
5.67818e-06
1.4238e-06
5.67624e-06
5.67821e-06
4.24878e-06
9.64763e-06
4.24925e-06
9.65e-06
1.92631e-05
1.92701e-05
4.24893e-06
9.64971e-06
4.24935e-06
9.65208e-06
6.89498e-07
6.89576e-07
6.89568e-07
6.89929e-07
6.8994e-07
6.90018e-07
6.90014e-07
2.29171e-06
3.65632e-06
9.45849e-07
1.18999e-06
2.29278e-06
3.65556e-06
9.45484e-07
1.92639e-05
1.92711e-05
2.29162e-06
9.45887e-07
3.65633e-06
1.19004e-06
2.2927e-06
9.45523e-07
3.65562e-06
5.67781e-06
5.67976e-06
1.42282e-06
5.67769e-06
5.67966e-06
4.24841e-06
9.65326e-06
4.24897e-06
9.65543e-06
1.92764e-05
1.92832e-05
4.24857e-06
9.65536e-06
4.24907e-06
9.65754e-06
6.90113e-07
6.9019e-07
6.90185e-07
6.90295e-07
6.90307e-07
6.90384e-07
6.90379e-07
2.2898e-06
3.65581e-06
9.44619e-07
1.18825e-06
2.29097e-06
3.65494e-06
9.44141e-07
1.92772e-05
1.92842e-05
2.28971e-06
9.44655e-07
3.65582e-06
1.18831e-06
2.29089e-06
9.44179e-07
3.655e-06
5.67913e-06
5.68108e-06
1.42155e-06
5.67886e-06
5.68083e-06
4.24786e-06
9.65832e-06
4.24849e-06
9.66033e-06
1.92888e-05
1.92955e-05
4.24801e-06
9.66044e-06
4.24859e-06
9.66246e-06
6.90359e-07
6.90437e-07
6.90434e-07
6.90302e-07
6.90312e-07
6.90389e-07
6.90387e-07
2.28768e-06
3.65507e-06
9.43062e-07
1.18623e-06
2.28894e-06
3.65409e-06
9.42482e-07
1.92896e-05
1.92964e-05
2.28764e-06
9.43096e-07
3.65509e-06
1.18628e-06
2.28886e-06
9.42518e-07
3.65414e-06
5.68021e-06
5.68216e-06
1.42004e-06
5.67977e-06
5.68173e-06
4.24711e-06
9.66283e-06
4.24782e-06
9.66474e-06
1.93002e-05
1.9307e-05
4.24726e-06
9.66496e-06
4.24792e-06
9.66688e-06
6.9028e-07
6.90357e-07
6.90355e-07
6.89976e-07
6.89992e-07
6.90067e-07
6.90062e-07
2.28537e-06
3.65413e-06
9.41206e-07
1.18394e-06
2.28672e-06
3.653e-06
9.40533e-07
1.9301e-05
1.9308e-05
2.28535e-06
9.41239e-07
3.65415e-06
1.184e-06
2.28663e-06
9.40566e-07
3.65306e-06
5.68107e-06
5.68302e-06
1.41848e-06
5.6804e-06
5.68236e-06
4.24617e-06
9.66685e-06
4.24697e-06
9.66867e-06
1.93107e-05
1.93178e-05
4.24633e-06
9.66899e-06
4.24707e-06
9.67082e-06
6.89903e-07
6.89983e-07
6.8999e-07
6.89358e-07
6.89381e-07
6.89451e-07
6.89444e-07
2.28288e-06
3.653e-06
9.39078e-07
1.18142e-06
2.28431e-06
3.65168e-06
9.38321e-07
1.93115e-05
1.93188e-05
2.28287e-06
9.39109e-07
3.65301e-06
1.18146e-06
2.28421e-06
9.38351e-07
3.65173e-06
5.68173e-06
5.68368e-06
1.41649e-06
5.68073e-06
5.68269e-06
4.24505e-06
9.67031e-06
4.24593e-06
9.67208e-06
1.93202e-05
1.9328e-05
4.24521e-06
9.67245e-06
4.24603e-06
9.67423e-06
6.8924e-07
6.8932e-07
6.89327e-07
6.88471e-07
6.88496e-07
6.88569e-07
6.88557e-07
2.2802e-06
3.6517e-06
9.36701e-07
1.17868e-06
2.28173e-06
3.6501e-06
9.35868e-07
1.9321e-05
1.9329e-05
2.28021e-06
9.36754e-07
3.65171e-06
1.1787e-06
2.2816e-06
9.35879e-07
3.65016e-06
5.68222e-06
5.68417e-06
1.41417e-06
5.68074e-06
5.6827e-06
4.24378e-06
9.67321e-06
4.24472e-06
9.67514e-06
1.93285e-05
1.93377e-05
4.24393e-06
9.67535e-06
4.24482e-06
9.67728e-06
6.88311e-07
6.88388e-07
6.884e-07
6.87336e-07
6.87364e-07
6.87437e-07
6.87421e-07
2.27737e-06
3.65027e-06
9.34103e-07
1.17574e-06
2.27897e-06
3.64823e-06
9.33203e-07
1.93293e-05
1.93387e-05
2.27737e-06
9.34165e-07
3.65028e-06
1.17575e-06
2.27883e-06
9.33202e-07
3.64828e-06
5.68258e-06
5.68453e-06
1.4117e-06
5.68038e-06
5.68234e-06
4.24241e-06
9.67558e-06
4.24339e-06
9.67797e-06
1.93355e-05
1.93472e-05
4.24255e-06
9.67773e-06
4.24349e-06
9.68012e-06
6.8714e-07
6.87216e-07
6.87233e-07
6.85974e-07
6.86007e-07
6.86079e-07
6.86056e-07
2.27441e-06
3.64877e-06
9.31307e-07
1.17263e-06
2.27606e-06
3.64593e-06
9.30347e-07
1.93364e-05
1.93482e-05
2.27439e-06
9.31385e-07
3.64877e-06
1.17262e-06
2.27592e-06
9.30328e-07
3.64597e-06
5.68288e-06
5.68482e-06
1.40907e-06
5.6796e-06
5.68156e-06
4.24109e-06
9.67742e-06
4.24204e-06
9.68094e-06
1.93414e-05
1.93566e-05
4.24125e-06
9.67952e-06
4.24214e-06
9.68304e-06
6.85748e-07
6.85823e-07
6.85848e-07
6.84403e-07
6.84445e-07
6.84519e-07
6.84488e-07
2.27131e-06
3.64726e-06
9.2834e-07
1.16938e-06
2.27304e-06
3.64294e-06
9.27329e-07
1.93423e-05
1.93576e-05
2.27126e-06
9.28441e-07
3.64727e-06
1.16934e-06
2.27294e-06
9.27286e-07
3.64299e-06
5.6831e-06
5.68505e-06
1.4063e-06
5.67834e-06
5.68029e-06
4.24016e-06
9.67868e-06
4.24087e-06
9.68464e-06
1.93463e-05
1.93662e-05
4.24032e-06
9.68073e-06
4.24097e-06
9.68668e-06
6.84158e-07
6.8423e-07
6.84266e-07
6.82285e-07
6.82342e-07
6.82404e-07
6.82358e-07
2.26787e-06
3.64642e-06
9.25233e-07
1.16589e-06
2.26991e-06
3.64001e-06
9.24095e-07
1.93472e-05
1.93672e-05
2.26782e-06
9.25368e-07
3.64652e-06
1.16587e-06
2.26984e-06
9.2403e-07
3.64016e-06
5.68316e-06
5.68509e-06
1.40335e-06
5.67746e-06
5.67939e-06
4.23569e-06
9.67806e-06
4.23984e-06
9.68554e-06
1.93495e-05
1.93686e-05
4.23583e-06
9.68014e-06
4.23994e-06
9.68748e-06
6.82131e-07
6.82196e-07
6.82264e-07
6.71628e-07
6.71642e-07
6.71638e-07
6.71663e-07
2.26037e-06
3.64897e-06
9.21616e-07
1.15926e-06
2.26647e-06
3.63476e-06
9.19779e-07
1.93507e-05
1.93696e-05
2.26032e-06
9.21646e-07
3.6491e-06
1.15926e-06
2.26643e-06
9.19798e-07
3.63482e-06
5.68574e-06
5.68766e-06
1.39727e-06
5.68203e-06
5.68386e-06
3.45788e-06
8.89445e-06
4.1921e-06
5.90095e-06
1.71507e-05
8.56848e-06
3.458e-06
8.89603e-06
4.19232e-06
5.89785e-06
3.18878e-07
4.84028e-07
4.8399e-07
7.09951e-07
3.25385e-07
5.05499e-07
5.05468e-07
2.17728e-06
3.5474e-06
8.94457e-07
1.05441e-06
2.22852e-06
3.65114e-06
8.33639e-07
1.71509e-05
8.56781e-06
2.17745e-06
8.9445e-07
3.54718e-06
1.05436e-06
2.22863e-06
8.33615e-07
3.65083e-06
5.62072e-06
5.62287e-06
1.31067e-06
5.25727e-06
5.26918e-06
1.90917e-05
1.90942e-05
1.41718e-06
5.65044e-06
5.65235e-06
1.91024e-05
1.90923e-05
1.91049e-05
1.90948e-05
1.41936e-06
5.65248e-06
5.65439e-06
5.65152e-06
5.65341e-06
4.23891e-06
9.56684e-06
2.29538e-06
1.1866e-06
3.64716e-06
9.34933e-07
2.29544e-06
1.18663e-06
3.64768e-06
9.34973e-07
4.23949e-06
9.57102e-06
9.56651e-06
4.23995e-06
4.23959e-06
9.57237e-06
9.56749e-06
4.24006e-06
2.29584e-06
1.18726e-06
3.64826e-06
9.36725e-07
3.64792e-06
9.35862e-07
2.29599e-06
2.29591e-06
1.18729e-06
3.64879e-06
9.36766e-07
3.64846e-06
9.35903e-07
2.29605e-06
1.41716e-06
5.65222e-06
5.65046e-06
1.90911e-05
1.9104e-05
1.90939e-05
1.41926e-06
5.65426e-06
5.6525e-06
5.65332e-06
5.65165e-06
1.91018e-05
1.90916e-05
2.29553e-06
1.18652e-06
3.64789e-06
9.35019e-07
4.23886e-06
9.56703e-06
2.29544e-06
1.18665e-06
9.35022e-07
3.6477e-06
4.23963e-06
9.57306e-06
9.56856e-06
4.24012e-06
2.29602e-06
1.18718e-06
3.649e-06
9.3681e-07
3.6487e-06
9.35929e-07
2.29613e-06
4.23952e-06
9.57255e-06
9.56769e-06
4.24001e-06
2.29593e-06
1.18731e-06
9.36812e-07
3.64881e-06
9.35951e-07
3.64852e-06
2.29604e-06
4.23895e-06
9.56683e-06
2.29542e-06
1.18667e-06
9.35015e-07
3.64725e-06
4.23886e-06
9.56672e-06
2.29597e-06
1.18719e-06
3.64843e-06
9.36789e-07
3.64814e-06
9.35929e-07
2.29607e-06
4.23968e-06
9.57235e-06
9.56748e-06
4.24011e-06
2.29587e-06
1.18733e-06
9.36807e-07
3.64835e-06
9.35948e-07
3.64802e-06
2.29602e-06
4.23956e-06
9.57223e-06
9.56736e-06
4.24001e-06
1.41724e-06
5.65224e-06
5.65059e-06
1.9093e-05
1.9105e-05
1.90948e-05
1.41934e-06
5.65427e-06
5.65263e-06
5.65343e-06
5.65165e-06
1.91037e-05
1.90936e-05
2.29548e-06
1.18658e-06
9.35064e-07
3.64788e-06
4.23889e-06
9.56703e-06
4.23892e-06
9.56755e-06
2.29595e-06
1.18726e-06
9.36851e-07
3.64849e-06
9.35991e-07
3.64815e-06
2.29605e-06
2.29598e-06
1.18724e-06
9.36855e-07
3.64899e-06
9.35996e-07
3.64866e-06
2.29608e-06
4.23967e-06
9.57256e-06
9.56769e-06
4.24008e-06
4.23965e-06
9.57308e-06
9.56857e-06
4.24012e-06
1.90928e-05
1.90946e-05
1.41941e-06
5.65256e-06
5.65451e-06
5.6516e-06
5.65354e-06
1.91035e-05
1.90934e-05
1.91053e-05
1.90952e-05
1.9103e-05
1.91129e-05
1.91055e-05
1.91154e-05
5.65353e-06
5.65543e-06
1.41951e-06
5.65446e-06
5.65636e-06
1.91233e-05
1.91135e-05
1.91257e-05
1.9116e-05
1.42158e-06
5.65635e-06
5.65825e-06
5.65548e-06
5.65737e-06
4.24115e-06
9.573e-06
4.24073e-06
9.57776e-06
2.29651e-06
3.649e-06
9.3758e-07
1.18898e-06
2.29642e-06
3.64929e-06
9.38364e-07
2.29657e-06
3.64954e-06
9.3762e-07
1.18901e-06
2.29649e-06
3.64982e-06
9.38403e-07
4.24168e-06
9.58167e-06
9.57736e-06
4.24205e-06
4.24179e-06
9.58301e-06
9.57836e-06
4.24216e-06
2.29691e-06
1.18952e-06
3.65024e-06
9.39852e-07
3.65001e-06
9.39146e-07
2.29695e-06
2.29698e-06
1.18955e-06
3.65077e-06
9.39891e-07
3.65055e-06
9.39185e-07
2.29701e-06
5.65533e-06
5.65367e-06
1.41948e-06
5.65623e-06
5.65447e-06
1.91023e-05
1.91123e-05
1.91249e-05
1.91151e-05
1.42151e-06
5.65813e-06
5.65636e-06
5.65728e-06
5.65561e-06
1.91226e-05
1.91127e-05
2.29665e-06
3.64978e-06
9.37644e-07
1.1889e-06
2.29659e-06
3.65002e-06
9.38448e-07
4.2411e-06
9.57319e-06
4.24064e-06
9.57794e-06
2.29656e-06
9.37667e-07
3.6496e-06
1.18903e-06
2.2965e-06
9.38449e-07
3.64983e-06
4.24181e-06
9.58371e-06
9.57942e-06
4.24222e-06
2.29708e-06
1.18943e-06
3.65097e-06
9.39934e-07
3.65078e-06
9.39209e-07
2.29708e-06
4.2417e-06
9.5832e-06
9.57855e-06
4.24211e-06
2.29699e-06
1.18956e-06
9.39936e-07
3.65077e-06
9.39231e-07
3.6506e-06
2.29698e-06
4.24119e-06
9.57298e-06
4.2408e-06
9.57774e-06
2.29654e-06
9.37663e-07
3.6491e-06
1.18905e-06
2.29645e-06
9.38445e-07
3.64938e-06
4.24109e-06
9.57287e-06
4.24069e-06
9.57762e-06
2.29702e-06
1.18945e-06
3.6504e-06
9.39913e-07
3.65022e-06
9.39208e-07
2.29703e-06
4.24185e-06
9.58299e-06
9.57835e-06
4.24219e-06
2.29693e-06
1.18958e-06
9.39931e-07
3.65032e-06
9.39227e-07
3.65011e-06
2.29697e-06
4.24174e-06
9.58287e-06
9.57823e-06
4.24209e-06
5.65544e-06
5.65366e-06
1.41955e-06
5.65624e-06
5.65459e-06
1.91042e-05
1.91142e-05
1.91258e-05
1.91159e-05
1.42159e-06
5.65813e-06
5.65648e-06
5.65738e-06
5.65561e-06
1.91245e-05
1.91147e-05
2.2966e-06
9.37713e-07
3.64974e-06
1.18896e-06
2.29655e-06
9.38493e-07
3.65001e-06
4.24118e-06
9.57319e-06
4.24082e-06
9.57794e-06
4.24121e-06
9.57405e-06
4.2408e-06
9.57846e-06
2.29701e-06
1.18952e-06
9.39974e-07
3.65046e-06
9.39269e-07
3.65024e-06
2.29699e-06
2.29704e-06
1.18949e-06
9.39979e-07
3.65095e-06
9.39277e-07
3.65074e-06
2.29703e-06
4.24189e-06
9.58319e-06
9.57855e-06
4.24219e-06
4.24187e-06
9.58372e-06
9.57943e-06
4.24222e-06
1.9104e-05
1.9114e-05
1.91059e-05
1.91158e-05
1.42161e-06
5.65642e-06
5.65836e-06
5.65555e-06
5.6575e-06
1.91243e-05
1.91145e-05
1.91262e-05
1.91164e-05
1.91238e-05
1.91334e-05
1.91263e-05
1.91359e-05
5.65735e-06
5.65924e-06
1.42141e-06
5.65818e-06
5.66007e-06
1.91434e-05
1.9134e-05
1.91459e-05
1.91364e-05
1.4234e-06
5.65992e-06
5.66181e-06
5.65916e-06
5.66104e-06
4.24311e-06
9.5836e-06
4.24278e-06
9.58814e-06
2.29735e-06
3.65095e-06
9.40562e-07
1.19085e-06
2.29732e-06
3.65111e-06
9.41194e-07
2.29742e-06
3.65148e-06
9.40602e-07
1.19089e-06
2.29738e-06
3.65164e-06
9.41234e-07
4.2436e-06
9.59178e-06
9.5877e-06
4.24388e-06
4.24371e-06
9.59312e-06
9.58869e-06
4.24398e-06
2.29765e-06
1.19127e-06
3.65191e-06
9.4239e-07
3.6518e-06
9.41834e-07
2.29761e-06
2.29772e-06
1.1913e-06
3.65243e-06
9.42431e-07
3.65234e-06
9.41875e-07
2.29767e-06
5.65914e-06
5.65748e-06
1.42137e-06
5.65995e-06
5.65818e-06
1.91231e-05
1.91328e-05
1.9145e-05
1.91355e-05
1.42335e-06
5.6617e-06
5.65993e-06
5.66094e-06
5.65928e-06
1.91428e-05
1.91332e-05
2.29742e-06
3.65171e-06
9.40625e-07
1.19077e-06
2.29751e-06
3.65184e-06
9.41275e-07
4.24306e-06
9.58379e-06
4.24269e-06
9.58833e-06
2.29733e-06
9.40646e-07
3.65153e-06
1.1909e-06
2.29741e-06
9.41277e-07
3.65165e-06
4.24372e-06
9.59381e-06
9.58975e-06
4.24404e-06
2.2979e-06
1.19118e-06
3.65263e-06
9.4247e-07
3.65256e-06
9.41895e-07
2.29763e-06
4.24361e-06
9.59331e-06
9.58889e-06
4.24394e-06
2.29781e-06
1.19131e-06
9.42471e-07
3.65244e-06
9.41916e-07
3.65239e-06
2.29755e-06
4.24313e-06
9.58358e-06
4.24284e-06
9.58812e-06
2.29736e-06
9.40642e-07
3.65104e-06
1.19092e-06
2.29733e-06
9.41271e-07
3.65119e-06
4.24304e-06
9.58346e-06
4.24272e-06
9.588e-06
2.29772e-06
1.1912e-06
3.65206e-06
9.42448e-07
3.652e-06
9.41893e-07
2.29767e-06
4.24375e-06
9.59309e-06
9.58867e-06
4.24401e-06
2.29766e-06
1.19133e-06
9.42466e-07
3.65199e-06
9.41913e-07
3.65189e-06
2.29762e-06
4.24364e-06
9.59297e-06
9.58855e-06
4.24391e-06
5.65925e-06
5.65748e-06
1.42144e-06
5.65995e-06
5.6583e-06
1.9125e-05
1.91347e-05
1.9146e-05
1.91364e-05
1.42341e-06
5.6617e-06
5.66004e-06
5.66105e-06
5.65928e-06
1.91447e-05
1.91352e-05
2.29735e-06
9.40692e-07
3.65167e-06
1.19083e-06
2.29745e-06
9.41319e-07
3.65182e-06
4.24312e-06
9.58378e-06
4.24287e-06
9.58831e-06
4.24315e-06
9.58465e-06
4.24285e-06
9.58884e-06
2.29783e-06
1.19127e-06
9.42507e-07
3.65212e-06
9.41953e-07
3.65202e-06
2.29749e-06
2.29786e-06
1.19124e-06
9.42514e-07
3.65262e-06
9.41962e-07
3.65253e-06
2.29756e-06
4.24378e-06
9.59329e-06
9.58887e-06
4.24398e-06
4.24376e-06
9.59383e-06
9.58976e-06
4.24403e-06
1.91248e-05
1.91345e-05
1.91267e-05
1.91363e-05
1.42344e-06
5.65998e-06
5.66193e-06
5.65923e-06
5.66117e-06
1.91445e-05
1.9135e-05
1.91463e-05
1.91369e-05
1.91439e-05
1.91532e-05
1.91463e-05
1.91556e-05
5.66089e-06
5.66277e-06
1.42289e-06
5.6616e-06
5.66349e-06
1.91628e-05
1.91537e-05
1.91652e-05
1.91561e-05
1.42485e-06
5.6632e-06
5.66509e-06
5.66255e-06
5.66443e-06
4.24478e-06
9.59366e-06
4.24456e-06
9.59797e-06
2.29776e-06
3.65258e-06
9.42963e-07
1.19224e-06
2.29785e-06
3.65263e-06
9.43448e-07
2.29783e-06
3.65312e-06
9.43004e-07
1.19227e-06
2.29792e-06
3.65315e-06
9.43489e-07
4.24523e-06
9.60135e-06
9.5975e-06
4.2454e-06
4.24533e-06
9.60268e-06
9.59848e-06
4.2455e-06
2.29799e-06
1.19254e-06
3.65328e-06
9.44366e-07
3.65329e-06
9.43954e-07
2.29782e-06
2.29806e-06
1.19257e-06
3.6538e-06
9.44407e-07
3.65382e-06
9.43995e-07
2.29788e-06
5.66266e-06
5.661e-06
1.42288e-06
5.66337e-06
5.66161e-06
1.91431e-05
1.91525e-05
1.91643e-05
1.91552e-05
1.42477e-06
5.66497e-06
5.66321e-06
5.66432e-06
5.66265e-06
1.91621e-05
1.91528e-05
2.2978e-06
3.65334e-06
9.43022e-07
1.19215e-06
2.2981e-06
3.65335e-06
9.43525e-07
4.24473e-06
9.59386e-06
4.24446e-06
9.59817e-06
2.29771e-06
9.43044e-07
3.65317e-06
1.19228e-06
2.29802e-06
9.43527e-07
3.65317e-06
4.24534e-06
9.60337e-06
9.59953e-06
4.24556e-06
2.29824e-06
1.19245e-06
3.654e-06
9.44442e-07
3.65405e-06
9.44011e-07
2.29784e-06
4.24524e-06
9.60288e-06
9.59869e-06
4.24546e-06
2.29815e-06
1.19258e-06
9.44444e-07
3.65381e-06
9.44033e-07
3.65388e-06
2.29776e-06
4.24481e-06
9.59363e-06
4.2446e-06
9.59794e-06
2.29778e-06
9.43041e-07
3.65267e-06
1.1923e-06
2.29786e-06
9.43523e-07
3.65271e-06
4.24472e-06
9.59351e-06
4.24449e-06
9.59782e-06
2.29804e-06
1.19247e-06
3.65342e-06
9.44422e-07
3.65348e-06
9.44011e-07
2.29788e-06
4.24537e-06
9.60264e-06
9.59845e-06
4.24553e-06
2.298e-06
1.1926e-06
9.4444e-07
3.65336e-06
9.4403e-07
3.65337e-06
2.29784e-06
4.24527e-06
9.60253e-06
9.59834e-06
4.24544e-06
5.66277e-06
5.661e-06
1.42294e-06
5.66338e-06
5.66171e-06
1.91451e-05
1.91544e-05
1.91653e-05
1.91561e-05
1.42483e-06
5.66499e-06
5.66331e-06
5.66443e-06
5.66266e-06
1.9164e-05
1.91548e-05
2.29772e-06
9.4309e-07
3.65331e-06
1.19221e-06
2.29806e-06
9.4357e-07
3.65334e-06
4.24477e-06
9.59382e-06
4.24462e-06
9.59813e-06
4.24485e-06
9.59472e-06
4.24468e-06
9.59868e-06
2.29814e-06
1.19253e-06
9.44477e-07
3.65348e-06
9.44067e-07
3.65349e-06
2.29768e-06
2.29819e-06
1.19252e-06
9.44487e-07
3.65399e-06
9.44079e-07
3.65401e-06
2.29776e-06
4.24538e-06
9.60283e-06
9.59864e-06
4.24548e-06
4.24548e-06
9.6034e-06
9.59955e-06
4.24558e-06
1.91449e-05
1.91542e-05
1.91468e-05
1.91561e-05
1.42486e-06
5.66326e-06
5.66521e-06
5.66261e-06
5.66456e-06
1.91638e-05
1.91546e-05
1.91657e-05
1.91565e-05
1.91632e-05
1.91722e-05
1.91656e-05
1.91746e-05
5.66413e-06
5.66602e-06
1.42383e-06
5.66474e-06
5.66663e-06
1.91814e-05
1.91726e-05
1.91838e-05
1.9175e-05
1.42612e-06
5.6662e-06
5.66809e-06
5.66565e-06
5.66754e-06
4.24616e-06
9.60316e-06
4.24604e-06
9.60725e-06
2.29782e-06
3.65392e-06
9.44808e-07
1.19316e-06
2.29803e-06
3.65385e-06
9.45152e-07
2.29788e-06
3.65445e-06
9.44849e-07
1.19319e-06
2.2981e-06
3.65438e-06
9.45193e-07
4.24657e-06
9.61036e-06
9.60674e-06
4.24664e-06
4.24668e-06
9.61168e-06
9.60771e-06
4.24674e-06
2.29801e-06
1.19335e-06
3.65436e-06
9.45806e-07
3.65448e-06
9.4553e-07
2.29771e-06
2.29807e-06
1.19338e-06
3.65488e-06
9.45847e-07
3.65501e-06
9.45571e-07
2.29777e-06
5.66591e-06
5.66423e-06
1.42409e-06
5.6665e-06
5.66474e-06
1.91624e-05
1.91715e-05
1.91829e-05
1.91741e-05
1.42578e-06
5.66797e-06
5.6662e-06
5.66742e-06
5.66575e-06
1.91806e-05
1.91717e-05
2.29784e-06
3.65468e-06
9.44864e-07
1.19307e-06
2.29828e-06
3.65458e-06
9.45226e-07
4.24611e-06
9.60337e-06
4.24595e-06
9.60746e-06
2.29776e-06
9.44886e-07
3.65451e-06
1.1932e-06
2.2982e-06
9.45229e-07
3.65439e-06
4.24668e-06
9.61238e-06
9.60877e-06
4.2468e-06
2.29825e-06
1.19326e-06
3.65508e-06
9.45878e-07
3.65524e-06
9.45585e-07
2.29772e-06
4.24659e-06
9.61189e-06
9.60793e-06
4.2467e-06
2.29817e-06
1.19339e-06
9.45882e-07
3.6549e-06
9.45607e-07
3.65507e-06
2.29764e-06
4.24619e-06
9.60313e-06
4.24608e-06
9.60721e-06
2.29783e-06
9.44883e-07
3.654e-06
1.19322e-06
2.29804e-06
9.45225e-07
3.65393e-06
4.24609e-06
9.60302e-06
4.24598e-06
9.6071e-06
2.29805e-06
1.19328e-06
3.6545e-06
9.45862e-07
3.65467e-06
9.45586e-07
2.29776e-06
4.24671e-06
9.61164e-06
9.60768e-06
4.24677e-06
2.29802e-06
1.1934e-06
9.45878e-07
3.65443e-06
9.45604e-07
3.65456e-06
2.29772e-06
4.24662e-06
9.61153e-06
9.60757e-06
4.24668e-06
5.66602e-06
5.66424e-06
1.42415e-06
5.66652e-06
5.66484e-06
1.91644e-05
1.91734e-05
1.91839e-05
1.9175e-05
1.42583e-06
5.66798e-06
5.6663e-06
5.66753e-06
5.66575e-06
1.91825e-05
1.91737e-05
2.29776e-06
9.44931e-07
3.65465e-06
1.19313e-06
2.29823e-06
9.45272e-07
3.65457e-06
4.24613e-06
9.60332e-06
4.24608e-06
9.6074e-06
4.24622e-06
9.60423e-06
4.24618e-06
9.60797e-06
2.29813e-06
1.19334e-06
9.45912e-07
3.65455e-06
9.45638e-07
3.65468e-06
2.29755e-06
2.2982e-06
1.19332e-06
9.45925e-07
3.65507e-06
9.45652e-07
3.65521e-06
2.29764e-06
4.24671e-06
9.61182e-06
9.60786e-06
4.24671e-06
4.24681e-06
9.61241e-06
9.6088e-06
4.2468e-06
1.91642e-05
1.91732e-05
1.91661e-05
1.9175e-05
1.42584e-06
5.66624e-06
5.6682e-06
5.66571e-06
5.66766e-06
1.91824e-05
1.91735e-05
1.91842e-05
1.91754e-05
1.91817e-05
1.91903e-05
1.91841e-05
1.91928e-05
5.66709e-06
5.66899e-06
1.42454e-06
5.66759e-06
5.66948e-06
1.91991e-05
1.91907e-05
1.92015e-05
1.9193e-05
1.42676e-06
5.66891e-06
5.6708e-06
5.66847e-06
5.67036e-06
4.24726e-06
9.61212e-06
4.24724e-06
9.61598e-06
2.29754e-06
3.65497e-06
9.46123e-07
1.19364e-06
2.29788e-06
3.65479e-06
9.46337e-07
2.2976e-06
3.6555e-06
9.46163e-07
1.19368e-06
2.29795e-06
3.65531e-06
9.46377e-07
4.24765e-06
9.61881e-06
9.61542e-06
4.24761e-06
4.24774e-06
9.62012e-06
9.61639e-06
4.2477e-06
2.2977e-06
1.19371e-06
3.65515e-06
9.46742e-07
3.65539e-06
9.46591e-07
2.29727e-06
2.29776e-06
1.19374e-06
3.65567e-06
9.46782e-07
3.65592e-06
9.46631e-07
2.29733e-06
5.66887e-06