/*--------------------------------*- C++ -*----------------------------------*\
| =========                 |                                                 |
| \\      /  F ield         | OpenFOAM: The Open Source CFD Toolbox           |
|  \\    /   O peration     | Version:  v1906                                 |
|   \\  /    A nd           | Web:      www.OpenFOAM.com                      |
|    \\/     M anipulation  |                                                 |
\*---------------------------------------------------------------------------*/
FoamFile
{
    version     2.0;
    format      ascii;
    class       volScalarField;
    location    "600";
    object      k;
}
// * * * * * * * * * * * * * * * * * * * * * * * * * * * * * * * * * * * * * //

dimensions      [0 2 -2 0 0 0 0];


internalField   nonuniform List<scalar> 
43024
(
3.91912e-05
5.15779e-05
5.15786e-05
5.36613e-05
3.95538e-05
5.17804e-05
5.17808e-05
5.38276e-05
3.98893e-05
5.19619e-05
5.19622e-05
5.39709e-05
4.01981e-05
5.21231e-05
5.21232e-05
5.40978e-05
4.04808e-05
5.22644e-05
5.22644e-05
5.42083e-05
4.07379e-05
5.23865e-05
5.23864e-05
5.43041e-05
4.09704e-05
5.24899e-05
5.24898e-05
5.43853e-05
4.11788e-05
5.25755e-05
5.25753e-05
5.44521e-05
4.1364e-05
5.26437e-05
5.26435e-05
5.45048e-05
4.1527e-05
5.26953e-05
5.26951e-05
5.4544e-05
4.16686e-05
5.27309e-05
5.27307e-05
5.45704e-05
4.17898e-05
5.27516e-05
5.27515e-05
5.45894e-05
4.18914e-05
5.27578e-05
5.27576e-05
5.45949e-05
4.19742e-05
5.27517e-05
5.27514e-05
5.45837e-05
4.20391e-05
5.27333e-05
5.2733e-05
5.45604e-05
4.20876e-05
5.27032e-05
5.27029e-05
5.45282e-05
4.21206e-05
5.26621e-05
5.26618e-05
5.44888e-05
4.21388e-05
5.26112e-05
5.26108e-05
5.44411e-05
4.21425e-05
5.25514e-05
5.25511e-05
5.43852e-05
4.21259e-05
5.24644e-05
5.24637e-05
5.43143e-05
4.17283e-05
5.13164e-05
5.13095e-05
5.39389e-05
5.36201e-05
5.15208e-05
5.15215e-05
5.36115e-05
5.15208e-05
5.15204e-05
5.15234e-05
5.15231e-05
5.36121e-05
5.1524e-05
5.1523e-05
5.36173e-05
5.36601e-05
5.37813e-05
5.15754e-05
5.15761e-05
5.17283e-05
5.17291e-05
5.367e-05
5.378e-05
5.15756e-05
5.1575e-05
5.17283e-05
5.17277e-05
5.15778e-05
5.17308e-05
5.17305e-05
5.36663e-05
5.37802e-05
5.15777e-05
5.17313e-05
5.17305e-05
5.37804e-05
5.38234e-05
5.39282e-05
5.17778e-05
5.17786e-05
5.19146e-05
5.19154e-05
5.38263e-05
5.39281e-05
5.1778e-05
5.17773e-05
5.19146e-05
5.1914e-05
5.17801e-05
5.19172e-05
5.19168e-05
5.38247e-05
5.39272e-05
5.17801e-05
5.19175e-05
5.19169e-05
5.39289e-05
5.39675e-05
5.40592e-05
5.19593e-05
5.19601e-05
5.20804e-05
5.20812e-05
5.39693e-05
5.40591e-05
5.19595e-05
5.19587e-05
5.20803e-05
5.20796e-05
5.19616e-05
5.20829e-05
5.20825e-05
5.3968e-05
5.4058e-05
5.19617e-05
5.20831e-05
5.20827e-05
5.40599e-05
5.40952e-05
5.4174e-05
5.21205e-05
5.21213e-05
5.22261e-05
5.22269e-05
5.40968e-05
5.41741e-05
5.21206e-05
5.21198e-05
5.22261e-05
5.22253e-05
5.21227e-05
5.22287e-05
5.22281e-05
5.40956e-05
5.4173e-05
5.21229e-05
5.22287e-05
5.22284e-05
5.41749e-05
5.42069e-05
5.42731e-05
5.22619e-05
5.22626e-05
5.23525e-05
5.23532e-05
5.42084e-05
5.42734e-05
5.2262e-05
5.2261e-05
5.23525e-05
5.23516e-05
5.22639e-05
5.23551e-05
5.23544e-05
5.42072e-05
5.42724e-05
5.22642e-05
5.2355e-05
5.23547e-05
5.42742e-05
5.43033e-05
5.43572e-05
5.23839e-05
5.23847e-05
5.24602e-05
5.24609e-05
5.43043e-05
5.43575e-05
5.23841e-05
5.2383e-05
5.24603e-05
5.24593e-05
5.23859e-05
5.24628e-05
5.2462e-05
5.43032e-05
5.43565e-05
5.23862e-05
5.24626e-05
5.24624e-05
5.43582e-05
5.43846e-05
5.44267e-05
5.24874e-05
5.24881e-05
5.25498e-05
5.25505e-05
5.43854e-05
5.4427e-05
5.24876e-05
5.24864e-05
5.25499e-05
5.25489e-05
5.24892e-05
5.25524e-05
5.25516e-05
5.43844e-05
5.4426e-05
5.24896e-05
5.25522e-05
5.25519e-05
5.44277e-05
5.44512e-05
5.4482e-05
5.25729e-05
5.25736e-05
5.2622e-05
5.26227e-05
5.44519e-05
5.44822e-05
5.25731e-05
5.2572e-05
5.26222e-05
5.26211e-05
5.25747e-05
5.26246e-05
5.26239e-05
5.4451e-05
5.44814e-05
5.25751e-05
5.26244e-05
5.26242e-05
5.44831e-05
5.45038e-05
5.45236e-05
5.26412e-05
5.26418e-05
5.26777e-05
5.26783e-05
5.45044e-05
5.45238e-05
5.26414e-05
5.26403e-05
5.26779e-05
5.26768e-05
5.26431e-05
5.26802e-05
5.26796e-05
5.45035e-05
5.4523e-05
5.26434e-05
5.268e-05
5.26799e-05
5.45248e-05
5.45429e-05
5.45525e-05
5.26928e-05
5.26934e-05
5.27178e-05
5.27184e-05
5.45434e-05
5.45523e-05
5.26931e-05
5.26919e-05
5.27181e-05
5.2717e-05
5.26947e-05
5.27203e-05
5.27198e-05
5.45426e-05
5.45515e-05
5.26951e-05
5.27201e-05
5.27201e-05
5.45538e-05
5.45691e-05
5.45713e-05
5.27284e-05
5.27289e-05
5.27431e-05
5.27437e-05
5.45699e-05
5.45685e-05
5.27287e-05
5.27275e-05
5.27434e-05
5.27423e-05
5.27304e-05
5.27456e-05
5.27452e-05
5.45691e-05
5.45678e-05
5.27307e-05
5.27455e-05
5.27455e-05
5.45687e-05
5.45831e-05
5.45733e-05
5.27491e-05
5.27497e-05
5.27542e-05
5.27548e-05
5.4589e-05
5.4573e-05
5.27494e-05
5.27483e-05
5.27546e-05
5.27534e-05
5.27512e-05
5.27568e-05
5.27564e-05
5.4588e-05
5.45735e-05
5.27515e-05
5.27566e-05
5.27566e-05
5.45719e-05
5.45896e-05
5.45641e-05
5.27552e-05
5.27558e-05
5.27505e-05
5.27511e-05
5.45924e-05
5.45618e-05
5.27556e-05
5.27544e-05
5.27508e-05
5.27497e-05
5.27574e-05
5.27531e-05
5.27527e-05
5.45897e-05
5.45638e-05
5.27577e-05
5.27529e-05
5.27529e-05
5.45623e-05
5.45805e-05
5.45427e-05
5.2749e-05
5.27495e-05
5.27339e-05
5.27345e-05
5.4582e-05
5.45431e-05
5.27493e-05
5.27482e-05
5.27343e-05
5.27331e-05
5.27512e-05
5.27366e-05
5.27362e-05
5.45801e-05
5.45423e-05
5.27514e-05
5.27363e-05
5.27363e-05
5.45434e-05
5.45592e-05
5.45144e-05
5.27306e-05
5.27311e-05
5.27053e-05
5.27058e-05
5.45595e-05
5.45148e-05
5.2731e-05
5.27298e-05
5.27056e-05
5.27044e-05
5.27329e-05
5.2708e-05
5.27076e-05
5.45587e-05
5.45141e-05
5.2733e-05
5.27077e-05
5.27076e-05
5.45149e-05
5.45271e-05
5.44772e-05
5.27005e-05
5.27009e-05
5.26654e-05
5.26659e-05
5.45273e-05
5.44775e-05
5.27008e-05
5.26996e-05
5.26658e-05
5.26645e-05
5.27027e-05
5.26681e-05
5.26677e-05
5.45266e-05
5.44768e-05
5.27028e-05
5.26677e-05
5.26677e-05
5.44775e-05
5.44879e-05
5.44303e-05
5.26595e-05
5.26598e-05
5.26152e-05
5.26156e-05
5.44883e-05
5.44306e-05
5.26598e-05
5.26586e-05
5.26156e-05
5.26143e-05
5.26616e-05
5.26179e-05
5.26174e-05
5.44875e-05
5.44298e-05
5.26617e-05
5.26175e-05
5.26174e-05
5.44309e-05
5.44403e-05
5.43752e-05
5.26085e-05
5.26089e-05
5.25557e-05
5.2556e-05
5.44406e-05
5.43755e-05
5.26089e-05
5.26076e-05
5.25561e-05
5.25548e-05
5.26107e-05
5.25584e-05
5.25579e-05
5.44399e-05
5.43747e-05
5.26106e-05
5.2558e-05
5.25578e-05
5.43761e-05
5.43845e-05
5.43104e-05
5.25488e-05
5.25491e-05
5.24936e-05
5.2494e-05
5.43848e-05
5.43106e-05
5.25492e-05
5.25478e-05
5.2494e-05
5.24927e-05
5.25509e-05
5.24963e-05
5.24959e-05
5.4384e-05
5.43099e-05
5.25508e-05
5.2496e-05
5.24958e-05
5.43115e-05
5.43137e-05
5.40892e-05
5.24616e-05
5.2462e-05
5.22723e-05
5.22734e-05
5.4314e-05
5.40913e-05
5.24621e-05
5.24604e-05
5.22741e-05
5.22708e-05
5.24636e-05
5.22764e-05
5.22745e-05
5.43127e-05
5.41031e-05
5.24635e-05
5.2276e-05
5.22757e-05
5.41076e-05
5.39506e-05
5.13121e-05
5.13124e-05
5.39502e-05
5.13141e-05
5.13047e-05
4.173e-05
4.17282e-05
4.17302e-05
5.13078e-05
5.39396e-05
5.13094e-05
6.85691e-05
7.34388e-05
7.11954e-05
6.85747e-05
7.34444e-05
3.90956e-05
3.90966e-05
3.90994e-05
3.90999e-05
6.06282e-05
5.14116e-05
6.47925e-05
4.67098e-05
7.1194e-05
6.06267e-05
5.14122e-05
4.67113e-05
6.47938e-05
5.35333e-05
6.99336e-05
6.99452e-05
6.86226e-05
7.34703e-05
6.86019e-05
7.34946e-05
7.12234e-05
7.12481e-05
6.8628e-05
7.3476e-05
6.86052e-05
7.35003e-05
3.91922e-05
3.91949e-05
3.91953e-05
3.94649e-05
3.9466e-05
3.94686e-05
3.94692e-05
6.07198e-05
6.48296e-05
4.69207e-05
5.16297e-05
6.06826e-05
6.4854e-05
4.69867e-05
7.12219e-05
7.12467e-05
6.07197e-05
4.69221e-05
6.48303e-05
5.16303e-05
6.06814e-05
4.69881e-05
6.48553e-05
6.99675e-05
6.99788e-05
5.36978e-05
6.99822e-05
6.99944e-05
6.86692e-05
7.35246e-05
6.86514e-05
7.35477e-05
7.12752e-05
7.1299e-05
6.86744e-05
7.35302e-05
6.86545e-05
7.35533e-05
3.95549e-05
3.95575e-05
3.95578e-05
3.98069e-05
3.9808e-05
3.98104e-05
3.98112e-05
6.08003e-05
6.48868e-05
4.71786e-05
5.18266e-05
6.07701e-05
6.49079e-05
4.72379e-05
7.12735e-05
7.12976e-05
6.08e-05
4.71799e-05
6.48874e-05
5.1827e-05
6.07672e-05
4.72392e-05
6.49091e-05
7.0013e-05
7.00239e-05
5.38564e-05
7.0026e-05
7.00382e-05
6.87088e-05
7.3576e-05
6.86939e-05
7.3598e-05
7.1325e-05
7.13481e-05
6.8714e-05
7.35816e-05
6.86969e-05
7.36036e-05
3.98904e-05
3.98929e-05
3.98933e-05
4.0122e-05
4.01231e-05
4.01255e-05
4.01262e-05
6.08699e-05
6.49362e-05
4.74114e-05
5.20026e-05
6.08445e-05
6.49543e-05
4.74643e-05
7.13233e-05
7.13466e-05
6.08687e-05
4.74126e-05
6.49369e-05
5.20029e-05
6.08406e-05
4.74653e-05
6.49555e-05
7.00536e-05
7.00646e-05
5.39962e-05
7.00651e-05
7.00772e-05
6.87419e-05
7.36247e-05
6.87296e-05
7.36455e-05
7.13729e-05
7.13951e-05
6.87469e-05
7.36302e-05
6.87325e-05
7.36511e-05
4.01992e-05
4.02015e-05
4.0202e-05
4.04109e-05
4.0412e-05
4.04142e-05
4.0415e-05
6.09278e-05
6.49786e-05
4.76199e-05
5.21583e-05
6.09071e-05
6.49937e-05
4.76663e-05
7.13712e-05
7.13937e-05
6.09262e-05
4.76209e-05
6.49791e-05
5.21584e-05
6.09025e-05
4.76672e-05
6.49947e-05
7.00895e-05
7.01004e-05
5.41194e-05
7.00992e-05
7.01115e-05
6.87684e-05
7.36705e-05
6.87587e-05
7.36902e-05
7.14188e-05
7.14402e-05
6.8773e-05
7.3676e-05
6.87615e-05
7.36957e-05
4.04819e-05
4.04841e-05
4.04846e-05
4.0674e-05
4.06752e-05
4.06772e-05
4.0678e-05
6.09742e-05
6.50138e-05
4.78048e-05
5.22943e-05
6.09578e-05
6.5026e-05
4.78449e-05
7.14172e-05
7.14388e-05
6.0972e-05
4.78056e-05
6.50142e-05
5.22942e-05
6.09532e-05
4.78456e-05
6.50269e-05
7.01207e-05
7.01317e-05
5.42266e-05
7.01288e-05
7.01413e-05
6.87885e-05
7.37134e-05
6.87813e-05
7.37319e-05
7.14626e-05
7.14832e-05
6.87925e-05
7.37189e-05
6.87841e-05
7.37374e-05
4.0739e-05
4.07411e-05
4.07416e-05
4.09122e-05
4.09133e-05
4.09153e-05
4.09161e-05
6.10096e-05
6.50421e-05
4.7967e-05
5.24113e-05
6.09968e-05
6.50516e-05
4.80008e-05
7.1461e-05
7.14819e-05
6.10066e-05
4.79676e-05
6.50428e-05
5.24111e-05
6.09931e-05
4.80014e-05
6.50522e-05
7.01469e-05
7.01585e-05
5.43182e-05
7.01545e-05
7.01665e-05
6.88024e-05
7.37535e-05
6.87972e-05
7.37709e-05
7.15044e-05
7.15242e-05
6.88063e-05
7.3759e-05
6.88006e-05
7.37763e-05
4.09714e-05
4.09734e-05
4.09739e-05
4.11261e-05
4.11272e-05
4.1129e-05
4.11299e-05
6.10351e-05
6.50637e-05
4.81071e-05
5.25098e-05
6.10256e-05
6.50704e-05
4.8135e-05
7.15028e-05
7.15228e-05
6.10317e-05
4.81076e-05
6.50645e-05
5.25096e-05
6.10224e-05
4.81355e-05
6.50711e-05
7.0169e-05
7.01808e-05
5.43949e-05
7.01752e-05
7.01872e-05
6.88106e-05
7.37908e-05
6.88074e-05
7.3807e-05
7.15441e-05
7.15631e-05
6.88144e-05
7.37962e-05
6.88109e-05
7.38124e-05
4.11798e-05
4.11817e-05
4.11822e-05
4.13165e-05
4.13175e-05
4.13194e-05
4.13202e-05
6.10503e-05
6.50791e-05
4.8226e-05
5.25906e-05
6.10439e-05
6.50827e-05
4.82485e-05
7.15424e-05
7.15615e-05
6.10471e-05
4.82265e-05
6.50796e-05
5.25904e-05
6.10408e-05
4.82489e-05
6.50838e-05
7.0187e-05
7.01989e-05
5.44572e-05
7.01911e-05
7.02034e-05
6.88131e-05
7.38251e-05
6.88119e-05
7.38403e-05
7.15816e-05
7.15997e-05
6.88169e-05
7.38306e-05
6.88154e-05
7.38458e-05
4.13651e-05
4.13669e-05
4.13674e-05
4.14843e-05
4.14853e-05
4.14871e-05
4.14879e-05
6.10562e-05
6.50881e-05
4.83248e-05
5.26544e-05
6.10531e-05
6.50892e-05
4.8342e-05
7.15797e-05
7.15982e-05
6.10528e-05
4.83252e-05
6.50885e-05
5.26542e-05
6.105e-05
4.83424e-05
6.50901e-05
7.02007e-05
7.02124e-05
5.45057e-05
7.02035e-05
7.02153e-05
6.88106e-05
7.38567e-05
6.88113e-05
7.38708e-05
7.16168e-05
7.16343e-05
6.88144e-05
7.38622e-05
6.88148e-05
7.38764e-05
4.1528e-05
4.15298e-05
4.15303e-05
4.16304e-05
4.16313e-05
4.16331e-05
4.1634e-05
6.10532e-05
6.50905e-05
4.84044e-05
5.27021e-05
6.10535e-05
6.50896e-05
4.84168e-05
7.16149e-05
7.16327e-05
6.10498e-05
4.84047e-05
6.5091e-05
5.2702e-05
6.10502e-05
4.84171e-05
6.50903e-05
7.02101e-05
7.02218e-05
5.45409e-05
7.02112e-05
7.0223e-05
6.88033e-05
7.38853e-05
6.88059e-05
7.38986e-05
7.16497e-05
7.16667e-05
6.88071e-05
7.3891e-05
6.88093e-05
7.39043e-05
4.16696e-05
4.16714e-05
4.16719e-05
4.17558e-05
4.17567e-05
4.17585e-05
4.17594e-05
6.10419e-05
6.50875e-05
4.84655e-05
5.27348e-05
6.10453e-05
6.50839e-05
4.84737e-05
7.16479e-05
7.16652e-05
6.10385e-05
4.84658e-05
6.5088e-05
5.27346e-05
6.1042e-05
4.8474e-05
6.50847e-05
7.02156e-05
7.02273e-05
5.4564e-05
7.02149e-05
7.02266e-05
6.87917e-05
7.39113e-05
6.87959e-05
7.39233e-05
7.16804e-05
7.16972e-05
6.87955e-05
7.39171e-05
6.87995e-05
7.39291e-05
4.17907e-05
4.17925e-05
4.17931e-05
4.18617e-05
4.18625e-05
4.18643e-05
4.18652e-05
6.10225e-05
6.5079e-05
4.8509e-05
5.27529e-05
6.10297e-05
6.50728e-05
4.85142e-05
7.16786e-05
7.16956e-05
6.10189e-05
4.85092e-05
6.50795e-05
5.27527e-05
6.10263e-05
4.85143e-05
6.50737e-05
7.02176e-05
7.02292e-05
5.45711e-05
7.02148e-05
7.02265e-05
6.87759e-05
7.3935e-05
6.87814e-05
7.39453e-05
7.17088e-05
7.17257e-05
6.87795e-05
7.39408e-05
6.8785e-05
7.39511e-05
4.18923e-05
4.18941e-05
4.18947e-05
4.19488e-05
4.19497e-05
4.19514e-05
4.19524e-05
6.09958e-05
6.50653e-05
4.8536e-05
5.27566e-05
6.10058e-05
6.50565e-05
4.85385e-05
7.1707e-05
7.17241e-05
6.0992e-05
4.85362e-05
6.50658e-05
5.27564e-05
6.10022e-05
4.85384e-05
6.50572e-05
7.02163e-05
7.02279e-05
5.4567e-05
7.0211e-05
7.02226e-05
6.87552e-05
7.39558e-05
6.87621e-05
7.39651e-05
7.17348e-05
7.17524e-05
6.87593e-05
7.39616e-05
6.87658e-05
7.3971e-05
4.19751e-05
4.19768e-05
4.19776e-05
4.20188e-05
4.20198e-05
4.20213e-05
4.20223e-05
6.09615e-05
6.50466e-05
4.85475e-05
5.27464e-05
6.09739e-05
6.50348e-05
4.8547e-05
7.1733e-05
7.17509e-05
6.09574e-05
4.85476e-05
6.50471e-05
5.27462e-05
6.09702e-05
4.8547e-05
6.50354e-05
7.02119e-05
7.02235e-05
5.45541e-05
7.02033e-05
7.02149e-05
6.87301e-05
7.39735e-05
6.87385e-05
7.39825e-05
7.17582e-05
7.17776e-05
6.8734e-05
7.39793e-05
6.87422e-05
7.39883e-05
4.20399e-05
4.20417e-05
4.20424e-05
4.20722e-05
4.20735e-05
4.20747e-05
4.20759e-05
6.09204e-05
6.50238e-05
4.85445e-05
5.27237e-05
6.09344e-05
6.50079e-05
4.85402e-05
7.17564e-05
7.17762e-05
6.09151e-05
4.85444e-05
6.50243e-05
5.27235e-05
6.09314e-05
4.85401e-05
6.50086e-05
7.0205e-05
7.02166e-05
5.45297e-05
7.01917e-05
7.02033e-05
6.87009e-05
7.39883e-05
6.87106e-05
7.39981e-05
7.17788e-05
7.18017e-05
6.87047e-05
7.39941e-05
6.87142e-05
7.40039e-05
4.20881e-05
4.20901e-05
4.20906e-05
4.21096e-05
4.21112e-05
4.21121e-05
4.21137e-05
6.08715e-05
6.49979e-05
4.85291e-05
5.26894e-05
6.0888e-05
6.49755e-05
4.85201e-05
7.1777e-05
7.18003e-05
6.08665e-05
4.8529e-05
6.49983e-05
5.2689e-05
6.08854e-05
4.852e-05
6.4976e-05
7.01962e-05
7.02077e-05
5.44975e-05
7.01762e-05
7.01878e-05
6.86678e-05
7.40003e-05
6.86783e-05
7.40125e-05
7.17963e-05
7.18251e-05
6.86716e-05
7.40062e-05
6.86819e-05
7.40184e-05
4.21208e-05
4.2123e-05
4.21233e-05
4.21327e-05
4.21338e-05
4.2135e-05
4.21362e-05
6.08159e-05
6.49702e-05
4.85012e-05
5.26443e-05
6.08361e-05
6.49371e-05
4.84877e-05
7.17946e-05
7.18237e-05
6.08123e-05
4.8501e-05
6.49705e-05
5.26438e-05
6.08331e-05
4.84874e-05
6.49375e-05
7.01865e-05
7.0198e-05
5.44553e-05
7.01568e-05
7.01683e-05
6.86304e-05
7.40097e-05
6.86415e-05
7.40277e-05
7.18107e-05
7.18485e-05
6.86342e-05
7.40155e-05
6.86453e-05
7.40335e-05
4.21394e-05
4.21412e-05
4.21418e-05
4.21409e-05
4.21417e-05
4.21432e-05
4.21441e-05
6.07518e-05
6.49443e-05
4.84618e-05
5.25893e-05
6.07821e-05
6.48914e-05
4.84439e-05
7.18091e-05
7.18471e-05
6.07485e-05
4.84615e-05
6.49447e-05
5.25889e-05
6.07787e-05
4.84436e-05
6.4892e-05
7.01774e-05
7.01888e-05
5.44045e-05
7.01346e-05
7.01461e-05
6.85865e-05
7.40161e-05
6.85987e-05
7.40465e-05
7.18229e-05
7.18722e-05
6.85902e-05
7.4022e-05
6.86025e-05
7.40523e-05
4.21433e-05
4.21447e-05
4.21456e-05
4.21263e-05
4.21273e-05
4.21285e-05
4.21294e-05
6.06813e-05
6.49285e-05
4.8412e-05
5.25247e-05
6.07181e-05
6.48347e-05
4.83885e-05
7.18213e-05
7.18707e-05
6.06785e-05
4.84117e-05
6.49288e-05
5.25244e-05
6.07152e-05
4.83882e-05
6.48349e-05
7.0172e-05
7.01834e-05
5.43455e-05
7.01127e-05
7.01241e-05
6.852e-05
7.40166e-05
6.85414e-05
7.40747e-05
7.18345e-05
7.18988e-05
6.85232e-05
7.40223e-05
6.85448e-05
7.40803e-05
4.21267e-05
4.21279e-05
4.21287e-05
4.17627e-05
4.1764e-05
4.17632e-05
4.17646e-05
6.05661e-05
6.49323e-05
4.83464e-05
5.24522e-05
6.06527e-05
6.47335e-05
4.82758e-05
7.18331e-05
7.18977e-05
6.05636e-05
4.83466e-05
6.4932e-05
5.24526e-05
6.06501e-05
4.82754e-05
6.4733e-05
7.01623e-05
7.01738e-05
5.42671e-05
7.0044e-05
7.00554e-05
6.45519e-05
7.37838e-05
6.82875e-05
7.4627e-05
7.17827e-05
6.61429e-05
6.45537e-05
7.37881e-05
6.82896e-05
7.46686e-05
2.9828e-05
3.62021e-05
3.62007e-05
4.31106e-05
3.01214e-05
3.70589e-05
3.7058e-05
6.0237e-05
6.45673e-05
4.80785e-05
5.00605e-05
6.03433e-05
6.63611e-05
4.62631e-05
7.17804e-05
6.61463e-05
6.02341e-05
4.80775e-05
6.45662e-05
5.00913e-05
6.0342e-05
4.62533e-05
6.63649e-05
6.94275e-05
6.94381e-05
5.35358e-05
7.07866e-05
7.07935e-05
7.11934e-05
7.1196e-05
5.35335e-05
6.99346e-05
6.9944e-05
7.122e-05
7.11949e-05
7.12226e-05
7.11976e-05
5.35716e-05
6.99596e-05
6.99689e-05
6.99431e-05
6.99535e-05
6.85711e-05
7.34427e-05
6.06236e-05
5.1409e-05
6.47908e-05
4.67066e-05
6.06251e-05
5.14097e-05
6.4795e-05
4.67079e-05
6.85746e-05
7.34671e-05
7.34422e-05
6.85968e-05
6.85767e-05
7.3471e-05
7.3448e-05
6.85988e-05
6.06349e-05
5.14661e-05
6.48226e-05
4.68484e-05
6.47968e-05
4.6779e-05
6.06719e-05
6.06363e-05
5.14668e-05
6.48269e-05
4.68497e-05
6.48006e-05
4.67803e-05
6.06734e-05
5.35242e-05
6.99442e-05
6.99312e-05
7.1192e-05
7.1222e-05
7.11969e-05
5.35836e-05
6.99691e-05
6.99561e-05
6.99524e-05
6.99411e-05
7.12186e-05
7.11934e-05
6.06286e-05
5.1409e-05
6.47951e-05
4.67088e-05
6.85723e-05
7.3438e-05
6.06263e-05
5.14087e-05
4.67086e-05
6.4789e-05
6.85777e-05
7.34728e-05
7.34478e-05
6.86025e-05
6.06353e-05
5.14663e-05
6.48268e-05
4.68505e-05
6.48009e-05
4.67811e-05
6.06767e-05
6.85753e-05
7.34662e-05
7.34432e-05
6.85998e-05
6.0633e-05
5.14658e-05
4.68503e-05
6.48206e-05
4.6781e-05
6.47951e-05
6.06744e-05
6.85729e-05
7.34421e-05
6.06249e-05
5.14114e-05
4.67099e-05
6.47909e-05
6.85702e-05
7.34391e-05
6.06351e-05
5.14687e-05
6.48242e-05
4.68515e-05
6.47982e-05
4.67821e-05
6.06767e-05
6.85763e-05
7.34703e-05
7.34474e-05
6.86005e-05
6.0636e-05
5.14686e-05
4.68516e-05
6.4823e-05
4.67823e-05
6.4797e-05
6.06731e-05
6.85757e-05
7.34674e-05
7.34444e-05
6.85977e-05
5.35246e-05
6.99369e-05
6.99349e-05
7.11944e-05
7.12206e-05
7.11954e-05
5.35835e-05
6.99616e-05
6.99598e-05
6.99468e-05
6.9944e-05
7.1221e-05
7.1196e-05
6.06277e-05
5.14113e-05
4.67113e-05
6.47962e-05
6.857e-05
7.34404e-05
6.85723e-05
7.34441e-05
6.06339e-05
5.14694e-05
4.68529e-05
6.48255e-05
4.67835e-05
6.4799e-05
6.06749e-05
6.06346e-05
5.14685e-05
4.6853e-05
6.48282e-05
4.67837e-05
6.48022e-05
6.06757e-05
6.8575e-05
7.34686e-05
7.34456e-05
6.85971e-05
6.85772e-05
7.34723e-05
7.34474e-05
6.85993e-05
7.11936e-05
7.11964e-05
5.35723e-05
6.99585e-05
6.99704e-05
6.99429e-05
6.99545e-05
7.12201e-05
7.11952e-05
7.1223e-05
7.11979e-05
7.12215e-05
7.12462e-05
7.12241e-05
7.12488e-05
6.99677e-05
6.9978e-05
5.37015e-05
6.99835e-05
6.99927e-05
7.12719e-05
7.12476e-05
7.12745e-05
7.12502e-05
5.37445e-05
7.00061e-05
7.00153e-05
6.99911e-05
7.00014e-05
6.86247e-05
7.3476e-05
6.86039e-05
7.34986e-05
6.07173e-05
6.48282e-05
4.69176e-05
5.16272e-05
6.06821e-05
6.48525e-05
4.69837e-05
6.07188e-05
6.48322e-05
4.6919e-05
5.1628e-05
6.06836e-05
6.48568e-05
4.69851e-05
6.86273e-05
7.35216e-05
7.34978e-05
6.86469e-05
6.86294e-05
7.35255e-05
7.35036e-05
6.86488e-05
6.07266e-05
5.16793e-05
6.48806e-05
4.71125e-05
6.48578e-05
4.70499e-05
6.07592e-05
6.07282e-05
5.168e-05
6.48847e-05
4.7114e-05
6.48619e-05
4.70513e-05
6.07608e-05
6.99771e-05
6.99657e-05
5.36957e-05
6.99928e-05
6.99798e-05
7.12199e-05
7.12447e-05
7.12738e-05
7.12495e-05
5.37495e-05
7.00147e-05
7.00024e-05
7.00005e-05
6.9989e-05
7.12704e-05
7.1246e-05
6.07218e-05
6.48324e-05
4.69197e-05
5.16272e-05
6.06829e-05
6.48567e-05
4.69858e-05
6.86256e-05
7.34713e-05
6.86026e-05
7.34937e-05
6.07196e-05
4.69196e-05
6.48265e-05
5.16267e-05
6.06807e-05
4.69856e-05
6.48506e-05
6.86305e-05
7.35272e-05
7.35035e-05
6.86524e-05
6.07275e-05
5.16794e-05
6.48846e-05
4.71145e-05
6.48619e-05
4.70519e-05
6.07637e-05
6.86281e-05
7.35207e-05
7.34988e-05
6.86497e-05
6.07253e-05
5.16788e-05
4.71143e-05
6.48787e-05
4.70518e-05
6.48561e-05
6.07615e-05
6.86262e-05
7.34754e-05
6.86036e-05
7.34979e-05
6.07183e-05
4.69208e-05
6.48283e-05
5.16295e-05
6.06831e-05
4.69868e-05
6.48528e-05
6.86235e-05
7.34724e-05
6.86028e-05
7.34949e-05
6.07286e-05
5.16818e-05
6.48819e-05
4.71155e-05
6.48591e-05
4.70528e-05
6.07613e-05
6.8629e-05
7.35248e-05
7.35029e-05
6.86501e-05
6.07275e-05
5.16815e-05
4.71156e-05
6.48806e-05
4.7053e-05
6.48578e-05
6.076e-05
6.86281e-05
7.35218e-05
7.34999e-05
6.86475e-05
6.99712e-05
6.99686e-05
5.36995e-05
6.99853e-05
6.99835e-05
7.12225e-05
7.12471e-05
7.12724e-05
7.12479e-05
5.37477e-05
7.00078e-05
7.0006e-05
6.99945e-05
6.9992e-05
7.12728e-05
7.12486e-05
6.07209e-05
4.69223e-05
6.48336e-05
5.16294e-05
6.06822e-05
4.69882e-05
6.48581e-05
6.86226e-05
7.34736e-05
6.86019e-05
7.34961e-05
6.86248e-05
7.34756e-05
6.86042e-05
7.34999e-05
6.07259e-05
5.16824e-05
4.71168e-05
6.48832e-05
4.70542e-05
6.48599e-05
6.07617e-05
6.07268e-05
5.16815e-05
4.7117e-05
6.48861e-05
4.70544e-05
6.48629e-05
6.07626e-05
6.8627e-05
7.3523e-05
7.35011e-05
6.86462e-05
6.86293e-05
7.35268e-05
7.3503e-05
6.86484e-05
7.12217e-05
7.12463e-05
7.12245e-05
7.12492e-05
5.37521e-05
7.00047e-05
7.00168e-05
6.99909e-05
7.00019e-05
7.1272e-05
7.12478e-05
7.12749e-05
7.12505e-05
7.12732e-05
7.12972e-05
7.12758e-05
7.12997e-05
7.00133e-05
7.00235e-05
5.38567e-05
7.00275e-05
7.00366e-05
7.13219e-05
7.12984e-05
7.13245e-05
7.1301e-05
5.38975e-05
7.00477e-05
7.00567e-05
7.00343e-05
7.00444e-05
6.86713e-05
7.35303e-05
6.86533e-05
7.35517e-05
6.07983e-05
6.48855e-05
4.71757e-05
5.1824e-05
6.07683e-05
6.49067e-05
4.72351e-05
6.07999e-05
6.48897e-05
4.71771e-05
5.18248e-05
6.07699e-05
6.49107e-05
4.72365e-05
6.86733e-05
7.35733e-05
7.35507e-05
6.869e-05
6.86754e-05
7.35772e-05
7.35564e-05
6.8692e-05
6.08064e-05
5.18711e-05
6.4931e-05
4.73514e-05
6.49113e-05
4.72953e-05
6.08342e-05
6.0808e-05
5.1872e-05
6.4935e-05
4.73528e-05
6.49154e-05
4.72967e-05
6.08357e-05
7.00229e-05
7.00112e-05
5.38563e-05
7.00361e-05
7.00236e-05
7.12716e-05
7.12957e-05
7.13238e-05
7.13003e-05
5.38998e-05
7.00562e-05
7.00437e-05
7.00439e-05
7.00321e-05
7.13204e-05
7.12968e-05
6.08025e-05
6.48895e-05
4.71776e-05
5.1824e-05
6.07689e-05
6.49107e-05
4.7237e-05
6.86721e-05
7.35255e-05
6.86519e-05
7.35469e-05
6.08005e-05
4.71775e-05
6.48838e-05
5.18235e-05
6.07667e-05
4.72369e-05
6.49048e-05
6.86763e-05
7.35789e-05
7.35563e-05
6.86954e-05
6.08071e-05
5.18713e-05
6.49349e-05
4.73532e-05
6.49153e-05
4.72971e-05
6.08384e-05
6.8674e-05
7.35724e-05
7.35516e-05
6.86929e-05
6.0805e-05
5.18706e-05
4.73531e-05
6.49291e-05
4.72971e-05
6.49095e-05
6.08365e-05
6.86724e-05
7.35296e-05
6.86526e-05
7.35509e-05
6.07993e-05
4.71788e-05
6.48855e-05
5.18263e-05
6.07691e-05
4.72381e-05
6.49066e-05
6.86699e-05
7.35266e-05
6.86519e-05
7.35479e-05
6.08085e-05
5.18738e-05
6.4932e-05
4.73542e-05
6.49125e-05
4.72981e-05
6.08368e-05
6.86747e-05
7.35764e-05
7.35557e-05
6.86931e-05
6.08075e-05
5.18735e-05
4.73543e-05
6.49309e-05
4.72983e-05
6.49112e-05
6.08353e-05
6.8674e-05
7.35735e-05
7.35527e-05
6.86906e-05
7.00167e-05
7.00141e-05
5.38557e-05
7.00291e-05
7.00272e-05
7.12742e-05
7.12981e-05
7.13224e-05
7.12987e-05
5.38983e-05
7.00492e-05
7.00473e-05
7.00376e-05
7.0035e-05
7.13228e-05
7.12994e-05
6.08014e-05
4.71802e-05
6.48905e-05
5.18263e-05
6.07681e-05
4.72395e-05
6.49122e-05
6.86682e-05
7.35278e-05
6.86504e-05
7.35492e-05
6.86705e-05
7.35298e-05
6.86527e-05
7.3553e-05
6.08051e-05
5.18741e-05
4.73554e-05
6.49333e-05
4.72993e-05
6.49131e-05
6.08362e-05
6.08063e-05
5.18735e-05
4.73557e-05
6.49364e-05
4.72997e-05
6.49163e-05
6.08371e-05
6.86721e-05
7.35747e-05
7.35539e-05
6.86885e-05
6.86744e-05
7.35785e-05
7.35558e-05
6.86908e-05
7.12734e-05
7.12972e-05
7.12761e-05
7.13001e-05
5.39016e-05
7.00461e-05
7.00583e-05
7.00339e-05
7.00449e-05
7.1322e-05
7.12985e-05
7.13249e-05
7.13013e-05
7.13231e-05
7.13462e-05
7.13256e-05
7.13488e-05
7.0054e-05
7.00641e-05
5.39958e-05
7.00666e-05
7.00756e-05
7.137e-05
7.13473e-05
7.13726e-05
7.13498e-05
5.40332e-05
7.00843e-05
7.00933e-05
7.00726e-05
7.00826e-05
6.87109e-05
7.35817e-05
6.86958e-05
7.36019e-05
6.08672e-05
6.49352e-05
4.74086e-05
5.2e-05
6.0842e-05
6.49534e-05
4.74615e-05
6.08687e-05
6.49393e-05
4.741e-05
5.20008e-05
6.08435e-05
6.49574e-05
4.74628e-05
6.87123e-05
7.36222e-05
7.36007e-05
6.87263e-05
6.87144e-05
7.3626e-05
7.36064e-05
6.87282e-05
6.08742e-05
5.20424e-05
6.49741e-05
4.75655e-05
6.49574e-05
4.75159e-05
6.08974e-05
6.08758e-05
5.20432e-05
6.4978e-05
4.75668e-05
6.49614e-05
4.75172e-05
6.0899e-05
7.00636e-05
7.00518e-05
5.39955e-05
7.00751e-05
7.00625e-05
7.13214e-05
7.13447e-05
7.13718e-05
7.13492e-05
5.40352e-05
7.00929e-05
7.00802e-05
7.00822e-05
7.00702e-05
7.13684e-05
7.13456e-05
6.08713e-05
6.49392e-05
4.74104e-05
5.2e-05
6.08424e-05
6.49572e-05
4.74633e-05
6.87118e-05
7.3577e-05
6.86945e-05
7.35972e-05
6.08694e-05
4.74104e-05
6.49335e-05
5.19993e-05
6.08405e-05
4.74632e-05
6.49514e-05
6.87153e-05
7.36278e-05
7.36063e-05
6.87316e-05
6.08748e-05
5.20425e-05
6.4978e-05
4.75672e-05
6.49612e-05
4.75176e-05
6.09016e-05
6.87131e-05
7.36213e-05
7.36017e-05
6.87292e-05
6.08729e-05
5.20417e-05
4.75671e-05
6.4972e-05
4.75176e-05
6.49556e-05
6.08997e-05
6.87121e-05
7.3581e-05
6.86951e-05
7.36012e-05
6.08685e-05
4.74116e-05
6.4935e-05
5.20022e-05
6.08431e-05
4.74644e-05
6.49533e-05
6.87097e-05
7.3578e-05
6.86945e-05
7.35982e-05
6.0877e-05
5.2045e-05
6.49749e-05
4.75683e-05
6.49583e-05
4.75187e-05
6.09006e-05
6.87138e-05
7.36252e-05
7.36057e-05
6.87295e-05
6.08755e-05
5.20447e-05
4.75684e-05
6.49738e-05
4.75189e-05
6.49571e-05
6.08988e-05
6.87131e-05
7.36223e-05
7.36027e-05
6.8727e-05
7.00573e-05
7.00546e-05
5.39945e-05
7.0068e-05
7.00661e-05
7.1324e-05
7.13471e-05
7.13704e-05
7.13475e-05
5.40339e-05
7.00858e-05
7.00838e-05
7.00758e-05
7.00731e-05
7.13708e-05
7.13482e-05
6.08699e-05
4.7413e-05
6.49403e-05
5.20024e-05
6.08415e-05
4.74657e-05
6.49589e-05
6.87071e-05
7.35792e-05
6.86922e-05
7.35994e-05
6.87092e-05
7.35812e-05
6.86944e-05
7.36033e-05
6.08727e-05
5.20452e-05
4.75693e-05
6.4976e-05
4.75197e-05
6.49588e-05
6.08993e-05
6.08737e-05
5.20449e-05
4.75697e-05
6.49795e-05
4.75202e-05
6.49623e-05
6.09e-05
6.87105e-05
7.36235e-05
7.36039e-05
6.87242e-05
6.87125e-05
7.36274e-05
7.36059e-05
6.8726e-05
7.13232e-05
7.13463e-05
7.1326e-05
7.13491e-05
5.40367e-05
7.00827e-05
7.00949e-05
7.00722e-05
7.00832e-05
7.13701e-05
7.13474e-05
7.13729e-05
7.13502e-05
7.1371e-05
7.13933e-05
7.13735e-05
7.13958e-05
7.00899e-05
7.01e-05
5.41188e-05
7.01009e-05
7.01099e-05
7.14161e-05
7.13942e-05
7.14186e-05
7.13967e-05
5.41529e-05
7.01163e-05
7.01253e-05
7.01061e-05
7.01162e-05
6.87439e-05
7.36303e-05
6.87314e-05
7.36494e-05
6.09248e-05
6.49776e-05
4.76171e-05
5.21557e-05
6.09041e-05
6.49929e-05
4.76635e-05
6.09262e-05
6.49816e-05
4.76185e-05
5.21565e-05
6.09056e-05
6.49968e-05
4.76648e-05
6.87447e-05
7.36683e-05
7.3648e-05
6.87561e-05
6.87467e-05
7.3672e-05
7.36536e-05
6.87579e-05
6.09306e-05
5.21937e-05
6.501e-05
4.77557e-05
6.49961e-05
4.77125e-05
6.09495e-05
6.09321e-05
5.21944e-05
6.50138e-05
4.7757e-05
6.50001e-05
4.77138e-05
6.09509e-05
7.00995e-05
7.00876e-05
5.41184e-05
7.01094e-05
7.00967e-05
7.13693e-05
7.13917e-05
7.14179e-05
7.13961e-05
5.41548e-05
7.01248e-05
7.01122e-05
7.01157e-05
7.01038e-05
7.14145e-05
7.13925e-05
6.09287e-05
6.49814e-05
4.76188e-05
5.21557e-05
6.09044e-05
6.49969e-05
4.76652e-05
6.87448e-05
7.36256e-05
6.87302e-05
7.36447e-05
6.09268e-05
4.76188e-05
6.49759e-05
5.21549e-05
6.09025e-05
4.76651e-05
6.49908e-05
6.87476e-05
7.36738e-05
7.36535e-05
6.87612e-05
6.09312e-05
5.21938e-05
6.50139e-05
4.77574e-05
6.49999e-05
4.77141e-05
6.09531e-05
6.87455e-05
7.36673e-05
7.3649e-05
6.87589e-05
6.09293e-05
5.21928e-05
4.77572e-05
6.50079e-05
4.77141e-05
6.49944e-05
6.09512e-05
6.87451e-05
7.36296e-05
6.87309e-05
7.36486e-05
6.09261e-05
4.76201e-05
6.49773e-05
5.21578e-05
6.09053e-05
4.76664e-05
6.49926e-05
6.87427e-05
7.36266e-05
6.87302e-05
7.36457e-05
6.09337e-05
5.21962e-05
6.50108e-05
4.77585e-05
6.4997e-05
4.77153e-05
6.09527e-05
6.87463e-05
7.36712e-05
7.36529e-05
6.87593e-05
6.09319e-05
5.21957e-05
4.77585e-05
6.50096e-05
4.77154e-05
6.49958e-05
6.09508e-05
6.87455e-05
7.36683e-05
7.36499e-05
6.87568e-05
7.00932e-05
7.00904e-05
5.41173e-05
7.01023e-05
7.01003e-05
7.13719e-05
7.13941e-05
7.14165e-05
7.13944e-05
5.41536e-05
7.01178e-05
7.01157e-05
7.01094e-05
7.01066e-05
7.14169e-05
7.13951e-05
6.09271e-05
4.76214e-05
6.49827e-05
5.2158e-05
6.09033e-05
4.76676e-05
6.49984e-05
6.87396e-05
7.36277e-05
6.87273e-05
7.36468e-05
6.87412e-05
7.36299e-05
6.8729e-05
7.36508e-05
6.0929e-05
5.21963e-05
4.77593e-05
6.50117e-05
4.77161e-05
6.49975e-05
6.09509e-05
6.09298e-05
5.2196e-05
4.77597e-05
6.50154e-05
4.77167e-05
6.50012e-05
6.09516e-05
6.87424e-05
7.36694e-05
7.3651e-05
6.87535e-05
6.87439e-05
7.36734e-05
7.36531e-05
6.87548e-05
7.13711e-05
7.13933e-05
7.13739e-05
7.13962e-05
5.4155e-05
7.01146e-05
7.01269e-05
7.01056e-05
7.01167e-05
7.14161e-05
7.13943e-05
7.1419e-05
7.13971e-05
7.14169e-05
7.14384e-05
7.14194e-05
7.14409e-05
7.01211e-05
7.01313e-05
5.42255e-05
7.01306e-05
7.01396e-05
7.14602e-05
7.14391e-05
7.14627e-05
7.14416e-05
5.4257e-05
7.01437e-05
7.01527e-05
7.0135e-05
7.01452e-05
6.87703e-05
7.36761e-05
6.87605e-05
7.3694e-05
6.0971e-05
6.50129e-05
4.7802e-05
5.22917e-05
6.09546e-05
6.50252e-05
4.78421e-05
6.09724e-05
6.5017e-05
4.78033e-05
5.22924e-05
6.09561e-05
6.50291e-05
4.78434e-05
6.87707e-05
7.37115e-05
7.36923e-05
6.87795e-05
6.87724e-05
7.37152e-05
7.3698e-05
6.87812e-05
6.09753e-05
5.23253e-05
6.50389e-05
4.79228e-05
6.5028e-05
4.78859e-05
6.09901e-05
6.09768e-05
5.2326e-05
6.50428e-05
4.79241e-05
6.5032e-05
4.78872e-05
6.09914e-05
7.01308e-05
7.01189e-05
5.42256e-05