/*--------------------------------*- C++ -*----------------------------------*\
| =========                 |                                                 |
| \\      /  F ield         | OpenFOAM: The Open Source CFD Toolbox           |
|  \\    /   O peration     | Version:  v1906                                 |
|   \\  /    A nd           | Web:      www.OpenFOAM.com                      |
|    \\/     M anipulation  |                                                 |
\*---------------------------------------------------------------------------*/
FoamFile
{
    version     2.0;
    format      ascii;
    class       volScalarField;
    location    "600";
    object      nut;
}
// * * * * * * * * * * * * * * * * * * * * * * * * * * * * * * * * * * * * * //

dimensions      [0 2 -1 0 0 0 0];


internalField   nonuniform List<scalar> 
43024
(
0.000208339
0.000201471
0.000201464
0.000182434
0.000210636
0.000202714
0.000202707
0.000183306
0.000212824
0.00020388
0.000203871
0.000184073
0.000214903
0.000204968
0.000204959
0.000184783
0.000216873
0.000205981
0.000205971
0.000185433
0.000218732
0.00020692
0.00020691
0.000185988
0.000220483
0.000207778
0.000207768
0.00018653
0.000222127
0.000208564
0.000208554
0.000187019
0.000223666
0.000209279
0.000209268
0.000187456
0.000225101
0.000209922
0.000209911
0.00018784
0.000226437
0.000210496
0.000210485
0.000188175
0.000227674
0.000211004
0.000210993
0.000188498
0.000228809
0.000211445
0.000211434
0.000188764
0.000229836
0.000211833
0.00021182
0.000188982
0.000230769
0.000212166
0.000212149
0.000189092
0.000231613
0.000212441
0.00021242
0.000189186
0.00023237
0.000212662
0.000212636
0.000189253
0.000233041
0.000212832
0.0002128
0.000189284
0.00023362
0.000212951
0.000212923
0.000189282
0.000234122
0.000212916
0.000212895
0.000189242
0.00023631
0.000214333
0.000214282
0.000192695
0.000182431
0.000201114
0.000201115
0.000182376
0.000201129
0.000201103
0.000201146
0.000201122
0.00018237
0.000201139
0.000201136
0.000182406
0.000182431
0.000183256
0.00020144
0.000201441
0.000202376
0.000202377
0.000182508
0.000183253
0.000201456
0.000201429
0.000202391
0.000202364
0.000201447
0.000202407
0.000202382
0.000182473
0.000183245
0.000201462
0.0002024
0.000202398
0.000183244
0.000183283
0.00018404
0.000202683
0.000202684
0.000203558
0.000203559
0.00018331
0.000184044
0.000202699
0.000202671
0.000203573
0.000203546
0.00020269
0.00020359
0.000203565
0.000183289
0.00018403
0.000202705
0.000203582
0.000203581
0.000184037
0.000184056
0.000184777
0.000203848
0.000203849
0.000204663
0.000204663
0.000184074
0.00018476
0.000203864
0.000203836
0.000204678
0.00020465
0.000203855
0.000204695
0.00020467
0.000184057
0.000184745
0.000203871
0.000204686
0.000204686
0.000184751
0.000184748
0.000185455
0.000204936
0.000204937
0.000205689
0.00020569
0.000184787
0.000185424
0.000204952
0.000204924
0.000205705
0.000205676
0.000204943
0.000205722
0.000205696
0.000184772
0.000185409
0.00020496
0.000205712
0.000205712
0.000185413
0.000185391
0.000186066
0.000205949
0.000205949
0.000206639
0.000206639
0.000185442
0.000186037
0.000205965
0.000205936
0.000206654
0.000206625
0.000205955
0.000206672
0.000206645
0.000185427
0.000186022
0.000205972
0.000206661
0.000206662
0.000186071
0.00018599
0.000186624
0.000206887
0.000206887
0.000207519
0.000207519
0.000186038
0.000186595
0.000206904
0.000206874
0.000207535
0.000207504
0.000206894
0.000207552
0.000207525
0.000186023
0.00018658
0.000206911
0.000207541
0.000207541
0.000186627
0.000186533
0.000187127
0.000207745
0.000207745
0.000208325
0.000208325
0.00018658
0.000187098
0.000207762
0.000207732
0.000208341
0.00020831
0.000207751
0.000208359
0.000208331
0.000186566
0.000187083
0.00020777
0.000208347
0.000208347
0.00018713
0.000187022
0.000187577
0.000208531
0.00020853
0.00020906
0.000209059
0.000187068
0.000187548
0.000208548
0.000208518
0.000209076
0.000209045
0.000208537
0.000209093
0.000209066
0.000187054
0.000187533
0.000208555
0.000209082
0.000209082
0.000187579
0.000187458
0.000187974
0.000209245
0.000209244
0.000209725
0.000209724
0.000187504
0.000187945
0.000209262
0.000209231
0.000209742
0.00020971
0.000209251
0.000209759
0.000209731
0.00018749
0.00018793
0.000209269
0.000209747
0.000209748
0.000187977
0.000187842
0.000188323
0.000209888
0.000209888
0.000210325
0.000210324
0.000187888
0.000188291
0.000209906
0.000209875
0.000210342
0.00021031
0.000209894
0.000210358
0.000210331
0.000187873
0.000188277
0.000209912
0.000210347
0.000210348
0.000188326
0.000188177
0.000188639
0.000210461
0.00021046
0.000210861
0.00021086
0.000188224
0.000188589
0.000210479
0.000210447
0.000210878
0.000210845
0.000210468
0.000210894
0.000210867
0.00018821
0.000188575
0.000210486
0.000210883
0.000210883
0.000188614
0.000188463
0.00018887
0.000210969
0.000210968
0.000211334
0.000211333
0.000188545
0.00018884
0.000210987
0.000210955
0.00021135
0.000211318
0.000210975
0.000211367
0.000211341
0.000188529
0.000188834
0.000210994
0.000211356
0.000211356
0.000188855
0.00018874
0.00018904
0.000211409
0.000211408
0.000211735
0.000211734
0.00018879
0.000189021
0.000211428
0.000211396
0.000211752
0.000211718
0.000211415
0.000211768
0.000211742
0.000188762
0.000189025
0.000211434
0.000211757
0.000211757
0.000189019
0.000188957
0.000189181
0.000211795
0.000211794
0.000212077
0.000212076
0.000188964
0.00018919
0.000211814
0.000211783
0.000212095
0.000212059
0.000211802
0.000212108
0.000212084
0.000188942
0.000189175
0.000211822
0.000212101
0.000212098
0.000189172
0.000189091
0.000189302
0.000212125
0.000212124
0.000212361
0.000212354
0.000189099
0.000189312
0.000212143
0.000212112
0.000212378
0.000212345
0.000212132
0.000212389
0.000212367
0.000189085
0.000189297
0.00021215
0.000212384
0.000212384
0.000189297
0.000189185
0.000189384
0.000212397
0.000212403
0.00021259
0.000212577
0.000189193
0.000189394
0.000212414
0.000212381
0.000212607
0.000212573
0.000212403
0.000212614
0.000212596
0.000189179
0.000189379
0.00021242
0.000212613
0.000212612
0.000189379
0.000189254
0.000189421
0.000212613
0.000212621
0.000212767
0.000212756
0.000189263
0.000189431
0.00021263
0.000212597
0.000212784
0.000212749
0.000212618
0.000212787
0.000212773
0.000189248
0.000189415
0.000212635
0.00021279
0.000212788
0.000189418
0.000189286
0.000189422
0.000212777
0.000212779
0.000212894
0.000212887
0.000189295
0.00018943
0.000212794
0.000212759
0.000212911
0.000212875
0.000212781
0.000212913
0.000212899
0.00018928
0.000189415
0.000212797
0.000212916
0.000212915
0.000189421
0.000189284
0.000189415
0.000212898
0.000212895
0.000213096
0.000213092
0.000189292
0.000189424
0.000212916
0.000212883
0.000213114
0.000213078
0.000212904
0.00021312
0.000213103
0.000189277
0.000189408
0.000212919
0.00021312
0.00021312
0.000189416
0.000189245
0.000190666
0.00021287
0.000212868
0.000215479
0.000215483
0.000189254
0.000190683
0.000212891
0.000212855
0.000215497
0.000215471
0.000212874
0.000215491
0.000215489
0.000189236
0.000190763
0.000212892
0.000215495
0.000215506
0.000190769
0.000192778
0.00021431
0.000214303
0.000192781
0.000214327
0.000214251
0.000236316
0.000236312
0.00023632
0.000214268
0.000192705
0.000214282
9.98289e-05
5.07442e-05
2.38927e-05
9.98412e-05
5.07412e-05
0.000207745
0.000207752
0.000207751
0.000207759
0.000144119
0.000200486
0.00010359
0.000210014
2.38905e-05
0.000144114
0.000200479
0.000210013
0.000103592
0.000181992
7.78978e-05
7.78969e-05
9.9932e-05
5.07532e-05
9.98816e-05
5.07635e-05
2.38974e-05
2.39015e-05
9.99436e-05
5.07501e-05
9.98879e-05
5.07605e-05
0.000208346
0.000208345
0.000208353
0.000210068
0.000210075
0.000210074
0.000210082
0.000144484
0.000103655
0.000211316
0.000201786
0.00014431
0.000103726
0.000211735
2.38952e-05
2.38993e-05
0.000144485
0.000211315
0.000103657
0.000201779
0.000144306
0.000211733
0.000103729
7.79308e-05
7.79292e-05
0.000182809
7.7951e-05
7.79513e-05
0.000100021
5.07719e-05
9.99772e-05
5.07818e-05
2.39061e-05
2.39101e-05
0.000100033
5.07688e-05
9.99833e-05
5.07789e-05
0.000210643
0.000210641
0.00021065
0.000212282
0.00021229
0.000212288
0.000212296
0.000144815
0.000103783
0.000212969
0.000203009
0.000144672
0.000103847
0.000213362
2.39039e-05
2.39079e-05
0.00014482
0.000212967
0.000103784
0.000203001
0.000144656
0.00021336
0.000103849
7.79796e-05
7.79772e-05
0.000183645
7.79975e-05
7.79978e-05
0.000100098
5.07897e-05
0.000100059
5.07992e-05
2.39145e-05
2.39183e-05
0.000100109
5.07866e-05
0.000100065
5.07962e-05
0.000212831
0.000212829
0.000212838
0.000214387
0.000214395
0.000214392
0.0002144
0.000145121
0.000103895
0.000214529
0.000204152
0.000144995
0.000103953
0.000214898
2.39123e-05
2.39161e-05
0.000145126
0.000214527
0.000103896
0.000204144
0.000144969
0.000214895
0.000103955
7.80215e-05
7.80191e-05
0.000184403
7.80373e-05
7.80376e-05
0.000100161
5.08065e-05
0.000100128
5.08156e-05
2.39225e-05
2.39262e-05
0.000100172
5.08033e-05
0.000100134
5.08126e-05
0.00021491
0.000214907
0.000214917
0.000216383
0.00021639
0.000216387
0.000216395
0.000145394
0.000103992
0.000215998
0.000205218
0.000145282
0.000104044
0.000216341
2.39203e-05
2.3924e-05
0.000145398
0.000215995
0.000103994
0.000205209
0.000145255
0.000216337
0.000104046
7.80566e-05
7.80543e-05
0.000185091
7.80703e-05
7.80707e-05
0.000100213
5.08223e-05
0.000100185
5.0831e-05
2.39302e-05
2.39337e-05
0.000100222
5.08191e-05
0.00010019
5.08279e-05
0.00021688
0.000216876
0.000216885
0.000218269
0.000218276
0.000218272
0.000218281
0.000145633
0.000104075
0.000217377
0.000206207
0.000145534
0.000104121
0.000217692
2.3928e-05
2.39316e-05
0.000145635
0.000217372
0.000104076
0.000206196
0.000145507
0.000217687
0.000104122
7.80854e-05
7.8083e-05
0.000185774
7.80969e-05
7.80976e-05
0.000100252
5.08371e-05
0.000100228
5.08454e-05
2.39375e-05
2.39409e-05
0.00010026
5.08339e-05
0.000100234
5.08423e-05
0.00021874
0.000218735
0.000218745
0.000220046
0.000220054
0.000220049
0.000220058
0.00014584
0.000104144
0.000218666
0.000207121
0.00014575
0.000104184
0.000218953
2.39353e-05
2.39388e-05
0.000145838
0.000218661
0.000104146
0.00020711
0.000145728
0.000218947
0.000104185
7.81069e-05
7.81057e-05
0.000186364
7.81188e-05
7.81183e-05
0.000100279
5.08509e-05
0.000100259
5.08589e-05
2.39445e-05
2.39478e-05
0.000100286
5.08478e-05
0.000100266
5.08557e-05
0.000220491
0.000220486
0.000220495
0.000221715
0.000221722
0.000221717
0.000221726
0.000146019
0.0001042
0.000219868
0.000207965
0.000145935
0.000104234
0.000220123
2.39423e-05
2.39456e-05
0.000146011
0.000219862
0.000104202
0.000207953
0.00014592
0.000220118
0.000104235
7.81229e-05
7.81223e-05
0.000186893
7.81334e-05
7.81329e-05
0.000100295
5.08637e-05
0.000100279
5.08713e-05
2.39511e-05
2.39543e-05
0.000100303
5.08606e-05
0.000100287
5.08682e-05
0.000222134
0.000222129
0.000222138
0.000223276
0.000223283
0.000223278
0.000223287
0.00014617
0.000104242
0.00022098
0.000208735
0.000146088
0.00010427
0.000221214
2.39489e-05
2.39521e-05
0.000146161
0.000220975
0.000104244
0.000208723
0.000146077
0.000221207
0.000104271
7.81338e-05
7.81331e-05
0.000187369
7.81411e-05
7.8141e-05
0.000100301
5.08755e-05
0.000100288
5.08828e-05
2.39574e-05
2.39605e-05
0.000100308
5.08724e-05
0.000100296
5.08795e-05
0.000223673
0.000223667
0.000223676
0.00022473
0.000224737
0.000224732
0.000224742
0.000146291
0.000104272
0.000222002
0.000209435
0.000146217
0.000104294
0.000222219
2.39552e-05
2.39583e-05
0.000146282
0.000221997
0.000104273
0.000209423
0.000146206
0.000222212
0.000104296
7.81388e-05
7.81378e-05
0.000187792
7.81446e-05
7.81438e-05
0.000100297
5.08863e-05
0.000100288
5.08934e-05
2.39633e-05
2.39662e-05
0.000100305
5.0883e-05
0.000100296
5.08901e-05
0.000225108
0.000225102
0.000225111
0.000226078
0.000226085
0.000226079
0.00022609
0.000146386
0.000104288
0.000222941
0.000210066
0.000146319
0.000104306
0.000223141
2.39611e-05
2.3964e-05
0.000146376
0.000222935
0.000104289
0.000210055
0.000146308
0.000223135
0.000104307
7.81378e-05
7.8137e-05
0.000188164
7.81419e-05
7.8141e-05
0.000100285
5.08961e-05
0.000100279
5.0903e-05
2.39688e-05
2.39717e-05
0.000100292
5.08928e-05
0.000100287
5.08997e-05
0.000226444
0.000226438
0.000226446
0.000227322
0.000227328
0.000227322
0.000227334
0.000146454
0.000104293
0.000223795
0.000210634
0.000146395
0.000104306
0.000223985
2.39666e-05
2.39695e-05
0.000146443
0.00022379
0.000104294
0.000210623
0.000146385
0.000223979
0.000104307
7.81319e-05
7.8131e-05
0.000188491
7.8134e-05
7.8133e-05
0.000100264
5.09053e-05
0.000100261
5.09112e-05
2.3974e-05
2.39768e-05
0.000100271
5.0902e-05
0.000100269
5.09079e-05
0.000227681
0.000227675
0.000227682
0.000228474
0.00022848
0.000228474
0.000228484
0.000146497
0.000104287
0.000224567
0.000211138
0.00014645
0.000104295
0.000224754
2.39717e-05
2.39746e-05
0.000146482
0.000224561
0.000104288
0.000211127
0.00014644
0.000224746
0.000104296
7.81215e-05
7.81205e-05
0.000188742
7.81213e-05
7.81203e-05
0.000100236
5.09141e-05
0.000100235
5.09182e-05
2.39787e-05
2.39815e-05
0.000100242
5.09108e-05
0.000100243
5.09149e-05
0.000228816
0.000228809
0.000228817
0.000229535
0.000229539
0.000229533
0.000229544
0.000146516
0.00010427
0.000225261
0.000211575
0.000146478
0.000104273
0.000225445
2.39765e-05
2.39793e-05
0.000146499
0.000225255
0.000104271
0.000211564
0.000146466
0.000225437
0.000104274
7.81067e-05
7.81057e-05
0.000188921
7.81041e-05
7.8103e-05
0.000100197
5.09216e-05
0.000100199
5.09248e-05
2.3983e-05
2.3986e-05
0.000100206
5.09183e-05
0.000100207
5.09216e-05
0.000229847
0.000229839
0.000229845
0.000230507
0.000230511
0.000230504
0.000230517
0.000146512
0.000104242
0.000225879
0.000211946
0.000146479
0.000104242
0.000226056
2.39808e-05
2.39838e-05
0.000146492
0.000225872
0.000104243
0.000211936
0.000146468
0.000226049
0.000104242
7.80879e-05
7.80869e-05
0.000189097
7.80824e-05
7.80813e-05
0.000100151
5.09277e-05
0.000100155
5.09308e-05
2.3987e-05
2.39902e-05
0.000100158
5.09244e-05
0.000100163
5.09275e-05
0.000230779
0.000230771
0.000230777
0.000231391
0.000231397
0.000231386
0.000231404
0.000146486
0.000104206
0.000226423
0.000212256
0.000146455
0.000104201
0.000226585
2.39847e-05
2.3988e-05
0.00014646
0.00022641
0.000104207
0.000212249
0.000146449
0.000226581
0.000104201
7.80658e-05
7.80647e-05
0.000189237
7.80566e-05
7.80554e-05
0.000100095
5.09328e-05
0.000100102
5.09361e-05
2.39904e-05
2.39942e-05
0.000100103
5.09295e-05
0.00010011
5.09329e-05
0.00023162
0.000231616
0.000231617
0.000232186
0.000232194
0.000232179
0.000232202
0.000146432
0.000104164
0.00022691
0.000212509
0.000146409
0.00010415
0.000227044
2.39882e-05
2.3992e-05
0.000146408
0.000226893
0.000104164
0.000212504
0.000146406
0.000227043
0.00010415
7.80412e-05
7.80401e-05
0.000189345
7.8027e-05
7.80258e-05
0.000100031
5.09369e-05
0.000100039
5.09411e-05
2.39933e-05
2.39981e-05
0.000100039
5.09337e-05
0.000100047
5.09379e-05
0.000232376
0.000232374
0.000232371
0.000232902
0.000232903
0.000232892
0.000232913
0.000146355
0.000104118
0.000227329
0.000212707
0.000146346
0.000104093
0.000227437
2.39911e-05
2.3996e-05
0.000146339
0.000227308
0.000104118
0.000212706
0.000146341
0.000227439
0.000104093
7.80156e-05
7.80144e-05
0.000189404
7.79945e-05
7.79932e-05
9.99533e-05
5.09401e-05
9.99635e-05
5.09463e-05
2.39957e-05
2.4002e-05
9.99609e-05
5.09372e-05
9.99722e-05
5.09433e-05
0.000233053
0.000233047
0.000233045
0.000233528
0.000233522
0.000233514
0.000233534
0.000146246
0.000104078
0.000227685
0.000212854
0.000146281
0.000104032
0.000227765
2.39935e-05
2.39999e-05
0.000146233
0.000227657
0.000104079
0.000212858
0.000146271
0.000227772
0.000104032
7.79923e-05
7.7991e-05
0.000189424
7.79626e-05
7.79612e-05
9.98473e-05
5.09424e-05
9.98664e-05
5.09528e-05
2.39978e-05
2.4006e-05
9.98548e-05
5.09396e-05
9.98751e-05
5.09501e-05
0.000233638
0.000233629
0.000233626
0.000234091
0.000234081
0.000234074
0.0002341
0.000146128
0.000104051
0.00022798
0.000212967
0.000146174
0.000103933
0.00022804
2.39956e-05
2.40038e-05
0.000146118
0.000227944
0.000104049
0.000212968
0.000146164
0.000228053
0.00010393
7.79793e-05
7.79783e-05
0.00018941
7.79259e-05
7.79249e-05
9.97594e-05
5.09463e-05
9.97238e-05
5.09869e-05
2.40014e-05
2.40209e-05
9.97653e-05
5.09432e-05
9.97313e-05
5.09843e-05
0.000234148
0.000234138
0.000234125
0.000233717
0.000233727
0.000233719
0.000233726
0.000146057
0.00010399
0.000228255
0.000213595
0.00014608
0.000103759
0.000228044
2.39991e-05
2.40188e-05
0.000146048
0.000228249
0.000103986
0.000213597
0.000146071
0.000228035
0.000103755
7.79227e-05
7.79218e-05
0.000189685
7.77106e-05
7.77111e-05
0.000108455
5.50865e-05
0.000100114
8.494e-05
2.70396e-05
4.59521e-05
0.000108457
5.50832e-05
0.000100114
8.50794e-05
0.00025111
0.00024369
0.000243692
0.000235604
0.000250955
0.000244516
0.000244519
0.000149988
0.000105769
0.000232586
0.000213907
0.000147057
0.000108553
0.000231065
2.70376e-05
4.59604e-05
0.000149961
0.000232579
0.000105772
0.000214181
0.000147043
0.000230974
0.000108575
7.71817e-05
7.71756e-05
0.000196806
8.57797e-05
8.56023e-05
2.38934e-05
2.38921e-05
0.000181999
7.79012e-05
7.78959e-05
2.38978e-05
2.38936e-05
2.38965e-05
2.38923e-05
0.000181979
7.79287e-05
7.79233e-05
7.79053e-05
7.79023e-05
9.98323e-05
5.07424e-05
0.000144102
0.000200455
0.000103589
0.00021
0.000144105
0.000200454
0.000103588
0.000210002
9.98289e-05
5.0754e-05
5.07435e-05
9.98825e-05
9.98324e-05
5.07523e-05
5.07463e-05
9.98857e-05
0.000144127
0.000200789
0.00010366
0.000210872
0.000103587
0.000210442
0.000144294
0.00014413
0.000200789
0.000103658
0.000210875
0.000103584
0.000210445
0.000144297
0.000181938
7.78981e-05
7.78934e-05
2.38932e-05
2.38972e-05
2.3893e-05
0.000182073
7.79254e-05
7.79208e-05
7.79012e-05
7.7899e-05
2.38977e-05
2.38935e-05
0.000144117
0.000200469
0.000103582
0.00021
9.98367e-05
5.07349e-05
0.000144112
0.000200443
0.000209998
0.000103568
9.98345e-05
5.0751e-05
5.07404e-05
9.98951e-05
0.000144118
0.000200804
0.000103652
0.000210872
0.000103578
0.000210446
0.000144307
9.98301e-05
5.07446e-05
5.07387e-05
9.98899e-05
0.000144112
0.000200778
0.00021087
0.000103638
0.00021044
0.000103564
0.000144303
9.98363e-05
5.07417e-05
0.000144106
0.000200462
0.00021001
0.000103587
9.98308e-05
5.07381e-05
0.00014412
0.00020082
0.00010366
0.000210886
0.000103585
0.000210455
0.000144311
9.98292e-05
5.07514e-05
5.07455e-05
9.98896e-05
0.00014413
0.000200796
0.000210883
0.000103658
0.000210452
0.000103585
0.000144297
9.98302e-05
5.07479e-05
5.0742e-05
9.9884e-05
0.00018193
7.78815e-05
7.78999e-05
2.38924e-05
2.3895e-05
2.38908e-05
0.000182062
7.79087e-05
7.79272e-05
7.78872e-05
7.79056e-05
2.38969e-05
2.38928e-05
0.000144116
0.000200477
0.000210012
0.000103586
9.98296e-05
5.07382e-05
9.98353e-05
5.07406e-05
0.000144115
0.000200814
0.000210885
0.000103662
0.000210454
0.000103587
0.000144304
0.000144117
0.000200811
0.000210884
0.000103657
0.000210454
0.000103583
0.000144306
9.98255e-05
5.07479e-05
5.07419e-05
9.98803e-05
9.98327e-05
5.07503e-05
5.07397e-05
9.98859e-05
2.38921e-05
2.38917e-05
0.000181976
7.79252e-05
7.79248e-05
7.79039e-05
7.79028e-05
2.38966e-05
2.38925e-05
2.38962e-05
2.3892e-05
2.38981e-05
2.39022e-05
2.38968e-05
2.39009e-05
7.79325e-05
7.79292e-05
0.000182842
7.79548e-05
7.79492e-05
2.39065e-05
2.39024e-05
2.39052e-05
2.39011e-05
0.000182869
7.7979e-05
7.79734e-05
7.79578e-05
7.79545e-05
9.99356e-05
5.07558e-05
9.98848e-05
5.07617e-05
0.000144477
0.000103656
0.000211303
0.000201755
0.000144315
0.000103726
0.000211722
0.00014448
0.000103654
0.000211306
0.000201756
0.000144318
0.000103725
0.000211725
9.99305e-05
5.07728e-05
5.07627e-05
9.99787e-05
9.9934e-05
5.07711e-05
5.07654e-05
9.99818e-05
0.000144496
0.000202071
0.000103789
0.000212548
0.000103723
0.000212142
0.000144649
0.0001445
0.000202072
0.000103787
0.000212552
0.00010372
0.000212146
0.000144653
7.79284e-05
7.79259e-05
0.000182807
7.79512e-05
7.79465e-05
2.3898e-05
2.39021e-05
2.39058e-05
2.39018e-05
0.000182911
7.79737e-05
7.79706e-05
7.79538e-05
7.79512e-05
2.39064e-05
2.39023e-05
0.00014449
0.000103648
0.000211307
0.00020177
0.000144309
0.000103718
0.000211721
9.99394e-05
5.07482e-05
9.98831e-05
5.07541e-05
0.000144485
0.000211301
0.000103634
0.000201743
0.000144303
0.00021172
0.000103705
9.99368e-05
5.07698e-05
5.07596e-05
9.99909e-05
0.00014449
0.000202087
0.000103781
0.000212547
0.000103714
0.000212145
0.000144662
9.99324e-05
5.07634e-05
5.07578e-05
9.99857e-05
0.000144485
0.00020206
0.000212545
0.000103767
0.000212139
0.0001037
0.000144658
9.99389e-05
5.0755e-05
9.98823e-05
5.07609e-05
0.00014448
0.000211313
0.000103654
0.000201762
0.000144318
0.000211732
0.000103724
9.99336e-05
5.07515e-05
9.98825e-05
5.07574e-05
0.000144499
0.000202102
0.000103788
0.00021256
0.000103721
0.000212154
0.000144654
9.99314e-05
5.07702e-05
5.07646e-05
9.99848e-05
0.000144499
0.000202078
0.000212557
0.000103787
0.000212151
0.00010372
0.000144651
9.99316e-05
5.07667e-05
5.0761e-05
9.99797e-05
7.79139e-05
7.79325e-05
0.000182824
7.79343e-05
7.79529e-05
2.38972e-05
2.39013e-05
2.39037e-05
2.38996e-05
0.000182889
7.79584e-05
7.79769e-05
7.79391e-05
7.79579e-05
2.39056e-05
2.39016e-05
0.000144488
0.000211315
0.000103653
0.000201777
0.000144308
0.000211733
0.000103723
9.99286e-05
5.07515e-05
9.98769e-05
5.07574e-05
9.99344e-05
5.07496e-05
9.9884e-05
5.07598e-05
0.000144486
0.000202095
0.000212559
0.000103791
0.000212153
0.000103723
0.000144658
0.000144489
0.000202093
0.000212559
0.000103786
0.000212153
0.000103718
0.00014466
9.9925e-05
5.07667e-05
5.0761e-05
9.99737e-05
9.9932e-05
5.07691e-05
5.0759e-05
9.99794e-05
2.38969e-05
2.3901e-05
2.38964e-05
2.39006e-05
0.000182916
7.7975e-05
7.79752e-05
7.79561e-05
7.79538e-05
2.39053e-05
2.39013e-05
2.39049e-05
2.39008e-05
2.39067e-05
2.39108e-05
2.39054e-05
2.39094e-05
7.79813e-05
7.79779e-05
0.000183655
7.80016e-05
7.79958e-05
2.39149e-05
2.39109e-05
2.39136e-05
2.39097e-05
0.000183676
7.80224e-05
7.80165e-05
7.80031e-05
7.79997e-05
0.000100025
5.07746e-05
9.99804e-05
5.078e-05
0.00014481
0.000103784
0.000212957
0.000202977
0.000144669
0.000103848
0.00021335
0.000144813
0.000103783
0.000212961
0.000202978
0.000144673
0.000103846
0.000213354
0.000100019
5.07906e-05
5.0781e-05
0.000100061
0.000100023
5.07889e-05
5.07837e-05
0.000100065
0.00014483
0.000203275
0.000103903
0.00021413
0.000103843
0.000213749
0.000144965
0.000144833
0.000203276
0.000103901
0.000214133
0.000103841
0.000213752
0.000144968
7.79781e-05
7.79747e-05
0.000183657
7.79963e-05
7.79928e-05
2.39066e-05
2.39106e-05
2.39142e-05
2.39103e-05
0.000183699
7.8017e-05
7.80134e-05
7.80001e-05
7.79965e-05
2.39148e-05
2.39109e-05
0.000144825
0.000103776
0.00021296
0.000202992
0.000144659
0.00010384
0.000213349
0.000100029
5.0767e-05
9.99785e-05
5.07724e-05
0.000144822
0.000212955
0.000103762
0.000202965
0.000144655
0.000213347
0.000103826
0.000100025
5.07876e-05
5.07779e-05
0.000100073
0.000144817
0.000203291
0.000103894
0.000214128
0.000103834
0.000213752
0.000144983
0.000100021
5.07813e-05
5.0776e-05
0.000100068
0.000144813
0.000203263
0.000214127
0.000103881
0.000213746
0.00010382
0.000144979
0.000100028
5.07738e-05
9.99772e-05
5.07792e-05
0.000144814
0.000212966
0.000103782
0.000202984
0.000144672
0.00021336
0.000103845
0.000100023
5.07702e-05
9.99778e-05
5.07757e-05
0.000144835
0.000203307
0.000103902
0.000214142
0.000103841
0.000213761
0.000144973
0.00010002
5.0788e-05
5.07828e-05
0.000100067
0.000144834
0.000203282
0.000214139
0.0001039
0.000213758
0.00010384
0.000144969
0.00010002
5.07845e-05
5.07793e-05
0.000100062
7.79626e-05
7.79813e-05
0.000183644
7.79806e-05
7.79993e-05
2.39059e-05
2.39098e-05
2.3912e-05
2.39081e-05
0.00018368
7.80013e-05
7.80199e-05
7.79844e-05
7.80031e-05
2.3914e-05
2.39101e-05
0.000144824
0.000212968
0.00010378
0.000202999
0.00014466
0.000213361
0.000103845
0.000100016
5.07702e-05
9.997e-05
5.07757e-05
0.000100022
5.07683e-05
9.9977e-05
5.07782e-05
0.000144812
0.000203299
0.000214139
0.000103904
0.000213758
0.000103842
0.000144982
0.000144816
0.000203298
0.000214141
0.0001039
0.00021376
0.000103838
0.000144982
0.000100012
5.07845e-05
5.07793e-05
0.000100055
0.000100019
5.07869e-05
5.07772e-05
0.00010006
2.39056e-05
2.39095e-05
2.39051e-05
2.39092e-05
0.000183699
7.80182e-05
7.80184e-05
7.80014e-05
7.79992e-05
2.39137e-05
2.39098e-05
2.39133e-05
2.39093e-05
2.39151e-05
2.3919e-05
2.39138e-05
2.39177e-05
7.80233e-05
7.80197e-05
0.000184412
7.80415e-05
7.80355e-05
2.3923e-05
2.39191e-05
2.39217e-05
2.39178e-05
0.000184415
7.80589e-05
7.80529e-05
7.80417e-05
7.80381e-05
0.000100101
5.07923e-05
0.000100062
5.07974e-05
0.000145112
0.000103897
0.000214517
0.00020412
0.000144986
0.000103954
0.000214885
0.000145115
0.000103895
0.000214521
0.000204121
0.00014499
0.000103952
0.000214888
0.000100095
5.08075e-05
5.07983e-05
0.000100131
0.000100098
5.08058e-05
5.08009e-05
0.000100134
0.000145131
0.000204402
0.000104002
0.000215619
0.000103948
0.000215263
0.000145253
0.000145135
0.000204402
0.000103999
0.000215621
0.000103945
0.000215266
0.000145256
7.80201e-05
7.80166e-05
0.000184412
7.80361e-05
7.80321e-05
2.3915e-05
2.39188e-05
2.39223e-05
2.39185e-05
0.000184438
7.80535e-05
7.80496e-05
7.80386e-05
7.8035e-05
2.39228e-05
2.3919e-05
0.00014513
0.000103888
0.00021452
0.000204135
0.000144973
0.000103946
0.000214884
0.000100105
5.07847e-05
0.000100061
5.07898e-05
0.000145126
0.000214515
0.000103875
0.000204108
0.000144969
0.000214883
0.000103932
0.000100101
5.08045e-05
5.07952e-05
0.000100143
0.000145118
0.000204418
0.000103994
0.000215617
0.000103939
0.000215265
0.000145271
0.000100097
5.07982e-05
5.07933e-05
0.000100138
0.000145115
0.00020439
0.000215616
0.00010398
0.000215261
0.000103925
0.000145268
0.000100104
5.07915e-05
0.000100059
5.07965e-05
0.000145117
0.000214527
0.000103894
0.000204128
0.000144991
0.000214895
0.000103951
0.000100099
5.07879e-05
0.00010006
5.0793e-05
0.000145141
0.000204434
0.000104
0.000215631
0.000103945
0.000215275
0.000145264
0.000100096
5.08049e-05
5.08001e-05
0.000100137
0.000145136
0.000204409
0.000215628
0.000103999
0.000215273
0.000103944
0.000145258
0.000100096
5.08014e-05
5.07965e-05
0.000100133
7.80046e-05
7.8023e-05
0.000184397
7.80201e-05
7.80389e-05
2.39142e-05
2.39181e-05
2.39201e-05
2.39163e-05
0.000184422
7.80376e-05
7.80562e-05
7.8023e-05
7.80414e-05
2.3922e-05
2.39183e-05
0.000145128
0.000214528
0.000103893
0.000204144
0.000144971
0.000214896
0.000103951
0.00010009
5.0788e-05
0.00010005
5.0793e-05
0.000100094
5.0786e-05
0.000100055
5.07955e-05
0.000145115
0.000204425
0.000215627
0.000104002
0.000215272
0.000103947
0.000145271
0.000145116
0.000204425
0.000215629
0.000103999
0.000215274
0.000103943
0.000145269
0.000100086
5.08014e-05
5.07965e-05
0.000100123
0.000100089
5.08038e-05
5.07945e-05
0.000100126
2.39139e-05
2.39177e-05
2.39134e-05
2.39174e-05
0.000184437
7.80545e-05
7.80549e-05
7.80399e-05
7.80376e-05
2.39217e-05
2.3918e-05
2.39214e-05
2.39175e-05
2.39231e-05
2.39269e-05
2.39218e-05
2.39256e-05
7.80585e-05
7.80549e-05
0.000185131
7.80747e-05
7.80686e-05
2.39307e-05
2.3927e-05
2.39294e-05
2.39257e-05
0.000185068
7.80889e-05
7.80828e-05
7.80736e-05
7.80701e-05
0.000100165
5.08091e-05
0.000100131
5.08138e-05
0.000145383
0.000103994
0.000215986
0.000205186
0.000145271
0.000104045
0.000216328
0.000145386
0.000103992
0.000215989
0.000205186
0.000145274
0.000104043
0.000216331
0.000100157
5.08234e-05
5.08146e-05
0.000100189
0.000100161
5.08216e-05
5.08172e-05
0.000100192
0.000145399
0.000205452
0.000104086
0.000217015
0.000104038
0.000216686
0.000145508
0.000145402
0.000205452
0.000104083
0.000217018
0.000104036
0.000216689
0.000145511
7.80554e-05
7.80519e-05
0.000185095
7.80692e-05
7.80651e-05
2.3923e-05
2.39267e-05
2.393e-05
2.39264e-05
0.000185125
7.80835e-05
7.80795e-05
7.80707e-05
7.80671e-05
2.39305e-05
2.39269e-05
0.0001454
0.000103985
0.000215988
0.000205201
0.000145257
0.000104038
0.000216327
0.000100168
5.08015e-05
0.00010013
5.08062e-05
0.000145397
0.000215983
0.000103972
0.000205173
0.000145253
0.000216325
0.000104024
0.000100163
5.08204e-05
5.08114e-05
0.0001002
0.000145387
0.000205468
0.000104078
0.000217014
0.000104028
0.000216688
0.000145525
0.000100159
5.0814e-05
5.08096e-05
0.000100196
0.000145383
0.000205439
0.000217012
0.000104064
0.000216683
0.000104016
0.000145521
0.000100168
5.08083e-05
0.000100129
5.08129e-05
0.000145389
0.000215996
0.000103991
0.000205193
0.000145276
0.000216338
0.000104042
0.000100163
5.08047e-05
0.000100129
5.08094e-05
0.000145411
0.000205484
0.000104084
0.000217028
0.000104036
0.000216699
0.00014552
0.000100159
5.08207e-05
5.08163e-05
0.000100195
0.000145405
0.000205459
0.000217025
0.000104083
0.000216696
0.000104035
0.000145514
0.000100159
5.08173e-05
5.08128e-05
0.00010019
7.80399e-05
7.80581e-05
0.00018508
7.80532e-05
7.80718e-05
2.39223e-05
2.39259e-05
2.39278e-05
2.39242e-05
0.00018511
7.80676e-05
7.8086e-05
7.80551e-05
7.80733e-05
2.39298e-05
2.39262e-05
0.000145398
0.000215996
0.00010399
0.000205209
0.000145254
0.000216338
0.000104043
0.000100153
5.08047e-05
0.000100118
5.08094e-05
0.000100155
5.08028e-05
0.000100121
5.08119e-05
0.000145384
0.000205475
0.000217024
0.000104086
0.000216695
0.000104037
0.000145525
0.000145383
0.000205476
0.000217025
0.000104083
0.000216696
0.000104034
0.000145523
0.000100147
5.08172e-05
5.08128e-05
0.00010018
0.000100149
5.08197e-05
5.08108e-05
0.000100181
2.3922e-05
2.39256e-05
2.39215e-05
2.39253e-05
0.000185118
7.80843e-05
7.80849e-05
7.80718e-05
7.80695e-05
2.39294e-05
2.39259e-05
2.39291e-05
2.39253e-05
2.39308e-05
2.39345e-05
2.39295e-05
2.39331e-05
7.80872e-05
7.80837e-05
0.00018577
7.81015e-05
7.80954e-05
2.39381e-05
2.39345e-05
2.39368e-05
2.39332e-05
0.000185697
7.81126e-05
7.81065e-05
7.80992e-05
7.80958e-05
0.000100216
5.08249e-05
0.000100187
5.08292e-05
0.000145622
0.000104078
0.000217364
0.000206174
0.000145522
0.000104122
0.000217679
0.000145625
0.000104076
0.000217367
0.000206174
0.000145525
0.00010412
0.000217682
0.000100208
5.08383e-05
5.08299e-05
0.000100234
0.00010021
5.08365e-05
5.08325e-05
0.000100237
0.000145633
0.000206427
0.000104156
0.000218321
0.000104114
0.00021802
0.00014573
0.000145635
0.000206427
0.000104153
0.000218323
0.000104112
0.000218022
0.000145733
7.80843e-05
7.80809e-05
0.000185739