/*--------------------------------*- C++ -*----------------------------------*\
| =========                 |                                                 |
| \\      /  F ield         | OpenFOAM: The Open Source CFD Toolbox           |
|  \\    /   O peration     | Version:  v1906                                 |
|   \\  /    A nd           | Web:      www.OpenFOAM.com                      |
|    \\/     M anipulation  |                                                 |
\*---------------------------------------------------------------------------*/
FoamFile
{
    version     2.0;
    format      ascii;
    class       volScalarField;
    location    "600";
    object      p;
}
// * * * * * * * * * * * * * * * * * * * * * * * * * * * * * * * * * * * * * //

dimensions      [0 2 -2 0 0 0 0];


internalField   nonuniform List<scalar> 
43024
(
0.000710778
0.000710726
0.000710726
0.000712302
0.000675419
0.00067537
0.00067537
0.000676948
0.000640033
0.000639986
0.000639986
0.000641567
0.000604617
0.000604574
0.000604574
0.000606157
0.000569172
0.000569131
0.000569131
0.000570717
0.000533694
0.000533656
0.000533656
0.000535245
0.000498184
0.000498148
0.000498148
0.00049974
0.00046264
0.000462607
0.000462607
0.000464201
0.000427062
0.000427031
0.000427031
0.000428629
0.000391449
0.00039142
0.00039142
0.000393021
0.0003558
0.000355774
0.000355774
0.000357377
0.000320115
0.000320091
0.000320091
0.000321696
0.000284394
0.000284372
0.000284372
0.00028598
0.000248637
0.000248617
0.000248617
0.000250227
0.000212844
0.000212826
0.000212826
0.000214437
0.000177015
0.000176999
0.000176999
0.00017861
0.000141149
0.000141135
0.000141135
0.000142743
0.000105241
0.000105231
0.000105231
0.000106827
6.93039e-05
6.92878e-05
6.92862e-05
7.08368e-05
3.39082e-05
3.34554e-05
3.34516e-05
3.47047e-05
6.82501e-06
7.84883e-06
7.8442e-06
5.75188e-06
0.00071795
0.000719561
0.000719561
0.00071795
0.000719561
0.000719561
0.000719561
0.000719561
0.00071795
0.000719561
0.000719561
0.000717949
0.000712302
0.000682599
0.000710726
0.000710726
0.000684211
0.000684211
0.000712302
0.0006826
0.000710726
0.000710726
0.000684211
0.000684211
0.000710726
0.000684211
0.000684211
0.000712302
0.000682599
0.000710726
0.000684211
0.000684211
0.000682599
0.000676948
0.000647222
0.00067537
0.00067537
0.000648835
0.000648835
0.000676948
0.000647223
0.00067537
0.00067537
0.000648835
0.000648835
0.00067537
0.000648835
0.000648835
0.000676948
0.000647222
0.00067537
0.000648835
0.000648835
0.000647222
0.000641567
0.000611817
0.000639986
0.000639986
0.00061343
0.00061343
0.000641567
0.000611817
0.000639986
0.000639986
0.00061343
0.00061343
0.000639986
0.00061343
0.00061343
0.000641567
0.000611817
0.000639986
0.00061343
0.00061343
0.000611816
0.000606158
0.000576381
0.000604574
0.000604574
0.000577994
0.000577994
0.000606157
0.000576381
0.000604574
0.000604574
0.000577994
0.000577994
0.000604574
0.000577994
0.000577994
0.000606157
0.000576381
0.000604574
0.000577994
0.000577994
0.00057638
0.000570717
0.000540913
0.000569131
0.000569131
0.000542527
0.000542527
0.000570717
0.000540913
0.000569131
0.000569131
0.000542527
0.000542527
0.000569131
0.000542527
0.000542527
0.000570717
0.000540913
0.000569131
0.000542527
0.000542527
0.000540913
0.000535245
0.000505412
0.000533656
0.000533656
0.000507028
0.000507028
0.000535244
0.000505413
0.000533656
0.000533656
0.000507028
0.000507028
0.000533656
0.000507028
0.000507028
0.000535245
0.000505412
0.000533656
0.000507028
0.000507028
0.000505412
0.00049974
0.000469879
0.000498148
0.000498148
0.000471495
0.000471495
0.000499739
0.000469879
0.000498148
0.000498148
0.000471495
0.000471495
0.000498148
0.000471495
0.000471495
0.00049974
0.000469879
0.000498148
0.000471495
0.000471495
0.000469878
0.000464201
0.000434311
0.000462607
0.000462607
0.000435928
0.000435928
0.000464201
0.000434311
0.000462607
0.000462607
0.000435928
0.000435928
0.000462607
0.000435928
0.000435928
0.000464201
0.000434311
0.000462607
0.000435928
0.000435928
0.000434311
0.000428628
0.000398708
0.000427031
0.000427031
0.000400326
0.000400326
0.000428628
0.000398708
0.000427031
0.000427031
0.000400326
0.000400326
0.000427031
0.000400326
0.000400326
0.000428628
0.000398708
0.000427031
0.000400326
0.000400326
0.000398708
0.00039302
0.000363069
0.00039142
0.00039142
0.000364688
0.000364688
0.00039302
0.000363069
0.00039142
0.00039142
0.000364688
0.000364688
0.00039142
0.000364688
0.000364688
0.00039302
0.000363069
0.00039142
0.000364688
0.000364688
0.000363069
0.000357376
0.000327394
0.000355774
0.000355774
0.000329014
0.000329014
0.000357376
0.000327394
0.000355774
0.000355774
0.000329014
0.000329014
0.000355774
0.000329013
0.000329013
0.000357376
0.000327394
0.000355774
0.000329014
0.000329013
0.000327394
0.000321696
0.000291683
0.000320091
0.000320091
0.000293303
0.000293303
0.000321696
0.000291683
0.000320091
0.000320091
0.000293303
0.000293303
0.000320091
0.000293303
0.000293303
0.000321696
0.000291683
0.000320091
0.000293303
0.000293303
0.000291683
0.00028598
0.000255936
0.000284372
0.000284372
0.000257556
0.000257556
0.000285979
0.000255936
0.000284372
0.000284372
0.000257556
0.000257556
0.000284372
0.000257556
0.000257556
0.00028598
0.000255936
0.000284372
0.000257556
0.000257556
0.000255935
0.000250226
0.000220152
0.000248617
0.000248617
0.000221773
0.000221773
0.000250226
0.000220153
0.000248617
0.000248617
0.000221773
0.000221773
0.000248617
0.000221773
0.000221773
0.000250227
0.000220152
0.000248617
0.000221773
0.000221773
0.000220152
0.000214437
0.000184333
0.000212826
0.000212826
0.000185953
0.000185953
0.000214437
0.000184334
0.000212826
0.000212826
0.000185953
0.000185953
0.000212826
0.000185953
0.000185953
0.000214437
0.000184333
0.000212826
0.000185953
0.000185953
0.000184333
0.00017861
0.000148477
0.000176999
0.000176999
0.000150095
0.000150095
0.00017861
0.000148478
0.000176999
0.000176999
0.000150095
0.000150095
0.000176999
0.000150095
0.000150095
0.00017861
0.000148477
0.000176999
0.000150095
0.000150095
0.000148477
0.000142743
0.000112582
0.000141135
0.000141135
0.000114196
0.000114197
0.000142743
0.000112583
0.000141135
0.000141135
0.000114196
0.000114196
0.000141135
0.000114196
0.000114196
0.000142743
0.000112582
0.000141135
0.000114196
0.000114196
0.000112582
0.000106826
7.66454e-05
0.000105231
0.000105232
7.82527e-05
7.82529e-05
0.000106826
7.66461e-05
0.000105231
0.000105231
7.82525e-05
7.82517e-05
0.000105231
7.82529e-05
7.82519e-05
0.000106826
7.66441e-05
0.000105231
7.82517e-05
7.8252e-05
7.66443e-05
7.08374e-05
4.06725e-05
6.92876e-05
6.92876e-05
4.23094e-05
4.23104e-05
7.08374e-05
4.0675e-05
6.92871e-05
6.9286e-05
4.23078e-05
4.23059e-05
6.92865e-05
4.23094e-05
4.23063e-05
7.08364e-05
4.06696e-05
6.92865e-05
4.23059e-05
4.23053e-05
4.06694e-05
3.47092e-05
8.49839e-06
3.3457e-05
3.34575e-05
1.09456e-05
1.09477e-05
3.471e-05
8.50093e-06
3.34547e-05
3.3452e-05
1.09459e-05
1.09393e-05
3.34522e-05
1.09465e-05
1.09385e-05
3.47055e-05
8.4929e-06
3.34508e-05
1.09407e-05
1.09418e-05
8.49394e-06
5.75493e-06
7.84814e-06
7.84928e-06
5.75796e-06
7.84861e-06
7.84276e-06
6.82585e-06
6.82333e-06
6.82246e-06
7.84139e-06
5.75264e-06
7.84389e-06
0.000735065
0.000735066
0.000735065
0.000735064
0.000735066
0.000719614
0.000719614
0.000719614
0.000719614
0.000735147
0.000737227
0.000735102
0.000737248
0.000735065
0.000735147
0.000737227
0.000737248
0.000735102
0.000735616
0.00073506
0.00073506
0.000699729
0.00071287
0.000712857
0.00069973
0.000712877
0.00069973
0.000699728
0.00071287
0.000712857
0.000699731
0.000710778
0.000710778
0.000710778
0.000684261
0.000684261
0.000684261
0.000684261
0.000699809
0.000712822
0.000710746
0.00070189
0.000712773
0.000699766
0.000701909
0.000712877
0.000699729
0.00069981
0.000710746
0.000712822
0.00070189
0.000712773
0.000701909
0.000699766
0.000712869
0.000712869
0.000700278
0.000699724
0.000699724
0.000664367
0.000677518
0.000677505
0.000664369
0.000677525
0.000664368
0.000664367
0.000677518
0.000677506
0.000664369
0.000675419
0.000675419
0.000675419
0.000648882
0.000648882
0.000648882
0.000648882
0.000664447
0.00067747
0.000675388
0.000666526
0.000677421
0.000664404
0.000666545
0.000677525
0.000664368
0.000664447
0.000675388
0.000677471
0.000666526
0.000677421
0.000666544
0.000664404
0.000677518
0.000677518
0.000664914
0.000664363
0.000664362
0.000628978
0.00064214
0.000642127
0.00062898
0.000642147
0.000628979
0.000628977
0.00064214
0.000642127
0.00062898
0.000640032
0.000640032
0.000640032
0.000613474
0.000613474
0.000613474
0.000613474
0.000629057
0.000642092
0.000640003
0.000631136
0.000642042
0.000629015
0.000631153
0.000642147
0.000628979
0.000629057
0.000640003
0.000642092
0.000631136
0.000642042
0.000631153
0.000629014
0.000642139
0.000642139
0.000629523
0.000628974
0.000628974
0.000593559
0.000606733
0.000606719
0.000593561
0.00060674
0.000593561
0.000593558
0.000606732
0.00060672
0.000593562
0.000604617
0.000604617
0.000604617
0.000578036
0.000578036
0.000578036
0.000578036
0.000593637
0.000606684
0.00060459
0.000595716
0.000606633
0.000593596
0.000595732
0.00060674
0.000593561
0.000593637
0.00060459
0.000606684
0.000595716
0.000606633
0.000595732
0.000593595
0.000606732
0.000606732
0.000594102
0.000593555
0.000593555
0.000558109
0.000571294
0.000571281
0.000558112
0.000571301
0.000558111
0.000558108
0.000571294
0.000571282
0.000558112
0.000569172
0.000569172
0.000569172
0.000542566
0.000542566
0.000542566
0.000542566
0.000558186
0.000571246
0.000569146
0.000560265
0.000571195
0.000558145
0.00056028
0.000571301
0.000558111
0.000558186
0.000569146
0.000571246
0.000560265
0.000571195
0.000560279
0.000558145
0.000571294
0.000571294
0.00055865
0.000558105
0.000558105
0.000522626
0.000535824
0.000535811
0.000522629
0.000535831
0.000522628
0.000522626
0.000535824
0.000535811
0.000522629
0.000533694
0.000533694
0.000533694
0.000507064
0.000507064
0.000507064
0.000507064
0.000522702
0.000535775
0.000533669
0.000524782
0.000535724
0.000522663
0.000524795
0.000535831
0.000522628
0.000522703
0.000533669
0.000535776
0.000524782
0.000535724
0.000524795
0.000522662
0.000535823
0.000535823
0.000523166
0.000522622
0.000522622
0.00048711
0.000500321
0.000500308
0.000487114
0.000500328
0.000487113
0.00048711
0.000500321
0.000500308
0.000487114
0.000498184
0.000498184
0.000498184
0.000471529
0.000471529
0.000471529
0.000471529
0.000487186
0.000500272
0.000498161
0.000489265
0.00050022
0.000487147
0.000489278
0.000500328
0.000487113
0.000487186
0.000498161
0.000500272
0.000489265
0.00050022
0.000489278
0.000487147
0.00050032
0.00050032
0.000487649
0.000487107
0.000487107
0.000451561
0.000464784
0.000464771
0.000451564
0.000464791
0.000451563
0.000451561
0.000464784
0.000464771
0.000451564
0.00046264
0.00046264
0.00046264
0.00043596
0.00043596
0.00043596
0.00043596
0.000451636
0.000464735
0.000462618
0.000453716
0.000464683
0.000451598
0.000453727
0.000464791
0.000451563
0.000451636
0.000462618
0.000464736
0.000453716
0.000464683
0.000453727
0.000451597
0.000464784
0.000464784
0.000452099
0.000451557
0.000451557
0.000415977
0.000429213
0.0004292
0.00041598
0.00042922
0.000415979
0.000415976
0.000429213
0.0004292
0.00041598
0.000427062
0.000427062
0.000427062
0.000400355
0.000400355
0.000400355
0.000400355
0.000416052
0.000429164
0.000427042
0.000418131
0.000429111
0.000416013
0.000418142
0.00042922
0.000415979
0.000416052
0.000427042
0.000429164
0.000418131
0.000429111
0.000418142
0.000416013
0.000429213
0.000429213
0.000416514
0.000415973
0.000415973
0.000380357
0.000393606
0.000393593
0.00038036
0.000393614
0.000380359
0.000380357
0.000393606
0.000393593
0.00038036
0.000391449
0.000391449
0.000391449
0.000364715
0.000364715
0.000364715
0.000364715
0.000380431
0.000393557
0.00039143
0.000382511
0.000393504
0.000380394
0.000382521
0.000393614
0.000380359
0.000380431
0.00039143
0.000393558
0.000382511
0.000393504
0.000382521
0.000380393
0.000393606
0.000393606
0.000380893
0.000380354
0.000380354
0.000344701
0.000357964
0.00035795
0.000344705
0.000357971
0.000344703
0.000344701
0.000357964
0.000357951
0.000344705
0.0003558
0.0003558
0.0003558
0.000329039
0.000329039
0.000329039
0.000329039
0.000344775
0.000357914
0.000355783
0.000346855
0.000357861
0.000344738
0.000346864
0.000357971
0.000344703
0.000344775
0.000355783
0.000357915
0.000346855
0.000357861
0.000346864
0.000344737
0.000357963
0.000357963
0.000345236
0.000344698
0.000344698
0.000309009
0.000322284
0.000322271
0.000309012
0.000322292
0.000309011
0.000309009
0.000322284
0.000322271
0.000309012
0.000320115
0.000320115
0.000320115
0.000293327
0.000293327
0.000293327
0.000293327
0.000309082
0.000322235
0.000320099
0.000311163
0.000322182
0.000309046
0.000311171
0.000322292
0.000309011
0.000309083
0.000320099
0.000322235
0.000311163
0.000322182
0.000311171
0.000309045
0.000322284
0.000322284
0.000309543
0.000309006
0.000309006
0.000273281
0.000286568
0.000286555
0.000273284
0.000286576
0.000273282
0.00027328
0.000286568
0.000286556
0.000273284
0.000284394
0.000284394
0.000284394
0.000257578
0.000257578
0.000257578
0.000257578
0.000273354
0.000286519
0.000284379
0.000275434
0.000286466
0.000273317
0.000275441
0.000286576
0.000273282
0.000273354
0.000284379
0.000286519
0.000275434
0.000286466
0.000275441
0.000273317
0.000286568
0.000286568
0.000273814
0.000273278
0.000273278
0.000237516
0.000250816
0.000250803
0.00023752
0.000250824
0.000237517
0.000237516
0.000250816
0.000250803
0.00023752
0.000248637
0.000248637
0.000248637
0.000221793
0.000221793
0.000221793
0.000221793
0.00023759
0.000250766
0.000248623
0.000239669
0.000250713
0.000237553
0.000239676
0.000250823
0.000237517
0.00023759
0.000248623
0.000250767
0.000239669
0.000250713
0.000239676
0.000237553
0.000250816
0.000250816
0.000238048
0.000237513
0.000237513
0.000201716
0.000215026
0.000215014
0.000201719
0.000215035
0.000201716
0.000201715
0.000215026
0.000215014
0.00020172
0.000212844
0.000212844
0.000212844
0.000185972
0.000185972
0.000185972
0.000185972
0.00020179
0.000214976
0.000212831
0.000203867
0.000214924
0.000201754
0.000203873
0.000215034
0.000201716
0.00020179
0.000212831
0.000214976
0.000203867
0.000214924
0.000203873
0.000201754
0.000215026
0.000215026
0.000202247
0.000201714
0.000201713
0.000165877
0.000179198
0.000179188
0.000165884
0.000179209
0.000165877
0.000165877
0.000179198
0.000179188
0.000165884
0.000177015
0.000177015
0.000177015
0.000150113
0.000150113
0.000150113
0.000150113
0.000165954
0.000179147
0.000177004
0.000168029
0.000179096
0.00016592
0.000168034
0.000179209
0.000165877
0.000165954
0.000177004
0.000179148
0.000168029
0.000179097
0.000168034
0.000165919
0.000179198
0.000179199
0.00016641
0.000165878
0.000165878
0.000129998
0.000143328
0.000143323
0.00013001
0.000143347
0.000129996
0.000129998
0.000143328
0.000143323
0.00013001
0.000141149
0.000141148
0.000141148
0.000114214
0.000114214
0.000114214
0.000114214
0.000130081
0.000143276
0.000141139
0.000132151
0.00014323
0.00013005
0.000132156
0.000143346
0.000129996
0.00013008
0.000141139
0.000143277
0.000132151
0.00014323
0.000132156
0.000130049
0.000143331
0.000143331
0.000130535
0.000130003
0.000130003
9.40709e-05
0.000107413
0.000107418
9.4098e-05
0.000107447
9.40537e-05
9.407e-05
0.000107412
0.000107418
9.40973e-05
0.000105242
0.000105241
0.000105241
7.82726e-05
7.82727e-05
7.82718e-05
7.8272e-05
9.41684e-05
0.000107354
0.000105235
9.62303e-05
0.000107321
9.41484e-05
9.62345e-05
0.000107446
9.40526e-05
9.41677e-05
0.000105234
0.000107354
9.62297e-05
0.000107321
9.6234e-05
9.41471e-05
0.000107419
0.000107419
9.46184e-05
9.40805e-05
9.40799e-05
5.8077e-05
7.14325e-05
7.14588e-05
5.81171e-05
7.15318e-05
5.79707e-05
5.80749e-05
7.14325e-05
7.1458e-05
5.81159e-05
6.93041e-05
6.93029e-05
6.93032e-05
4.25203e-05
4.25212e-05
4.25181e-05
4.25179e-05
5.82033e-05
7.13535e-05
6.92929e-05
6.02675e-05
7.13542e-05
5.82019e-05
6.02814e-05
7.15242e-05
5.79673e-05
5.82012e-05
6.92916e-05
7.13512e-05
6.02652e-05
7.13531e-05
6.02799e-05
5.81996e-05
7.14384e-05
7.14361e-05
5.86571e-05
5.81104e-05
5.81084e-05
2.1571e-05
3.51772e-05
3.52712e-05
2.11771e-05
3.56031e-05
2.00918e-05
2.15586e-05
3.51699e-05
3.52655e-05
2.11717e-05
3.39091e-05
3.39046e-05
3.39046e-05
1.21193e-05
1.21197e-05
1.21145e-05
1.2114e-05
2.20976e-05
3.5035e-05
3.37023e-05
2.47498e-05
3.52306e-05
2.16457e-05
2.52494e-05
3.55867e-05
2.00977e-05
2.20978e-05
3.36995e-05
3.50288e-05
2.47453e-05
3.52294e-05
2.52457e-05
2.16429e-05
3.50693e-05
3.50692e-05
2.29107e-05
2.14639e-05
2.14625e-05
6.98265e-07
3.28095e-06
3.62912e-06
2.55217e-06
5.6227e-06
-1.87692e-06
7.02425e-07
3.25154e-06
3.60989e-06
2.55405e-06
1.95972e-06
7.70891e-06
7.70772e-06
7.73667e-06
8.01419e-06
4.39712e-06
4.3979e-06
2.96732e-06
2.65589e-06
7.22158e-06
2.45693e-06
5.3129e-06
6.76825e-06
-6.45274e-08
5.60496e-06
-1.86798e-06
2.97126e-06
7.22031e-06
2.65279e-06
2.45594e-06
5.31042e-06
-6.4063e-08
6.77102e-06
-3.55752e-07
-3.57239e-07
1.60345e-06
6.52381e-06
6.53608e-06
0.000735065
0.000735065
0.000735616
0.000735059
0.00073506
0.0007174
0.000730543
0.0007174
0.000730543
0.00072997
0.000717395
0.000717395
0.000730536
0.000730535
0.000735064
0.000735066
0.000735147
0.000737227
0.000735102
0.000737248
0.000735147
0.000737227
0.000735102
0.000737248
0.000730523
0.000717401
0.000730536
0.000717399
0.000730523
0.000717401
0.000730536
0.000717399
0.00073044
0.000728395
0.000717436
0.000719581
0.000730489
0.000728415
0.000717481
0.00073044
0.000728395
0.000717437
0.000719581
0.000730488
0.000728415
0.000717481
0.000735616
0.00073506
0.00073506
0.000735065
0.0007174
0.000730543
0.000729969
0.000717395
0.000717395
0.000730535
0.000730535
0.0007174
0.000730543
0.000735146
0.000737227
0.000735102
0.000737248
0.000735064
0.000735066
0.000735146
0.000737227
0.000737248
0.000735102
0.000730524
0.000717401
0.000730536
0.000717399
0.00073044
0.000728395
0.000717437
0.000719581
0.000730488
0.000728415
0.000717481
0.000730524
0.000717401
0.000730536
0.000717399
0.00073044
0.000728395
0.000719581
0.000717437
0.000728415
0.000730488
0.000717481
0.000735064
0.000735066
0.000735146
0.000737227
0.000737247
0.000735102
0.000735064
0.000735066
0.00073044
0.000728395
0.000717437
0.000719581
0.000730488
0.000728415
0.000717481
0.000730523
0.000717402
0.000730536
0.0007174
0.00073044
0.000728395
0.000719581
0.000717437
0.000728415
0.000730489
0.000717481
0.000730523
0.000717401
0.000730536
0.000717399
0.000735616
0.00073506
0.00073506
0.000735065
0.0007174
0.000730543
0.00072997
0.000717395
0.000717395
0.000730535
0.000730536
0.0007174
0.000730543
0.000735147
0.000737227
0.000737248
0.000735102
0.000735065
0.000735066
0.000735065
0.000735066
0.00073044
0.000728395
0.000719581
0.000717437
0.000728415
0.000730489
0.000717481
0.00073044
0.000728395
0.000719581
0.000717437
0.000728415
0.000730489
0.000717481
0.000730523
0.000717401
0.000730536
0.0007174
0.000730523
0.000717402
0.000730536
0.0007174
0.000735065
0.000735065
0.00072997
0.000717395
0.000717395
0.000730535
0.000730536
0.0007174
0.000730543
0.000717401
0.000730543
0.000712877
0.000699729
0.000712877
0.000699729
0.000712869
0.000712869
0.000700278
0.000699724
0.000699724
0.000682052
0.000695204
0.000682052
0.000695204
0.000694628
0.000682046
0.000682046
0.000695197
0.000695197
0.000699728
0.000712869
0.000712857
0.000699731
0.00069981
0.000712822
0.000710746
0.00070189
0.000712773
0.000699765
0.000701909
0.00069981
0.000712822
0.000710746
0.00070189
0.000712773
0.000699766
0.000701909
0.000695184
0.000682053
0.000695197
0.000682051
0.000695185
0.000682053
0.000695197
0.000682051
0.0006951
0.000693051
0.000682088
0.00068423
0.00069515
0.00069307
0.000682132
0.0006951
0.000693051
0.000682088
0.00068423
0.000695149
0.00069307
0.000682132
0.000712869
0.000712869
0.000700278
0.000699724
0.000699724
0.000712877
0.00069973
0.000682052
0.000695204
0.000694628
0.000682047
0.000682047
0.000695196
0.000695196
0.000682052
0.000695205
0.00069981
0.000712822
0.000710746
0.00070189
0.000712773
0.000699766
0.000701909
0.000699728
0.000712869
0.000712857
0.000699731
0.00069981
0.000710746
0.000712821
0.000701889
0.000712773
0.000701909
0.000699766
0.000695185
0.000682053
0.000695197
0.000682051
0.0006951
0.000693051
0.000682088
0.00068423
0.000695149
0.00069307
0.000682131
0.000695185
0.000682053
0.000695197
0.000682051
0.0006951
0.000693051
0.00068423
0.000682088
0.00069307
0.000695149
0.000682132
0.000699728
0.000712869
0.000712857
0.000699731
0.000699809
0.000710746
0.000712822
0.00070189
0.000712773
0.000701909
0.000699765
0.000699728
0.00071287
0.000712857
0.00069973
0.0006951
0.000693051
0.000682089
0.00068423
0.000695149
0.00069307
0.000682132
0.000695184
0.000682053
0.000695197
0.000682051
0.0006951
0.000693051
0.00068423
0.000682088
0.00069307
0.00069515
0.000682132
0.000695184
0.000682053
0.000695197
0.000682051
0.000712868
0.000712869
0.000700278
0.000699724
0.000699724
0.000712877
0.00069973
0.000682052
0.000695204
0.000694628
0.000682047
0.000682047
0.000695196
0.000695197
0.000682052
0.000695205
0.00069981
0.000710746
0.000712822
0.00070189
0.000712773
0.000701909
0.000699766
0.000699729
0.00071287
0.000712856
0.000699731
0.000699729
0.00071287
0.000712857
0.000699731
0.0006951
0.000693051
0.00068423
0.000682088
0.00069307
0.00069515
0.000682132
0.0006951
0.000693051
0.00068423
0.000682088
0.00069307
0.00069515
0.000682132
0.000695184
0.000682053
0.000695197
0.000682052
0.000695184
0.000682053
0.000695197
0.000682051
0.000712877
0.000699729
0.000712877
0.00069973
0.000694629
0.000682047
0.000682047
0.000695197
0.000695197
0.000682052
0.000695204
0.000682052
0.000695204
0.000677526
0.000664368
0.000677526
0.000664368
0.000677518
0.000677518
0.000664914
0.000664362
0.000664362
0.000646677
0.00065984
0.000646677
0.00065984
0.000659261
0.000646671
0.000646672
0.000659832
0.000659832
0.000664367
0.000677518
0.000677505
0.000664369
0.000664447
0.000677471
0.000675388
0.000666527
0.000677421
0.000664404
0.000666545
0.000664447
0.00067747
0.000675388
0.000666527
0.000677421
0.000664404
0.000666545
0.00065982
0.000646678
0.000659833
0.000646676
0.00065982
0.000646678
0.000659833
0.000646676
0.000659735
0.000657682
0.000646712
0.000648852
0.000659785
0.000657699
0.000646756
0.000659735
0.000657682
0.000646713
0.000648852
0.000659785
0.000657699
0.000646756
0.000677518
0.000677517
0.000664915
0.000664363
0.000664363
0.000677526
0.000664368
0.000646677
0.00065984
0.000659261
0.000646672
0.000646672
0.000659832
0.000659832
0.000646677
0.00065984
0.000664447
0.00067747
0.000675388
0.000666526
0.000677421
0.000664404
0.000666544
0.000664367
0.000677518
0.000677506
0.000664369
0.000664447
0.000675388
0.00067747
0.000666527
0.000677421
0.000666545
0.000664404
0.00065982
0.000646679
0.000659832
0.000646676
0.000659735
0.000657682
0.000646713
0.000648852
0.000659784
0.000657699
0.000646755
0.00065982
0.000646679
0.000659832
0.000646676
0.000659735
0.000657682
0.000648852
0.000646713
0.000657699
0.000659784
0.000646756
0.000664367
0.000677518
0.000677506
0.000664369
0.000664447
0.000675388
0.000677471
0.000666526
0.000677421
0.000666545
0.000664404
0.000664367
0.000677518
0.000677506
0.000664369
0.000659735
0.000657682
0.000646713
0.000648852
0.000659784
0.000657699
0.000646755
0.00065982
0.000646679
0.000659832
0.000646676
0.000659735
0.000657682
0.000648852
0.000646713
0.000657699
0.000659785
0.000646755
0.00065982
0.000646678
0.000659833
0.000646676
0.000677517
0.000677518
0.000664914
0.000664363
0.000664363
0.000677526
0.000664368
0.000646677
0.00065984
0.000659261
0.000646672
0.000646672
0.000659831
0.000659832
0.000646678
0.00065984
0.000664447
0.000675388
0.00067747
0.000666526
0.000677421
0.000666545
0.000664404
0.000664368
0.000677518
0.000677505
0.000664369
0.000664367
0.000677518
0.000677505
0.000664369
0.000659734
0.000657682
0.000648852
0.000646713
0.000657699
0.000659785
0.000646756
0.000659735
0.000657682
0.000648852
0.000646713
0.000657699
0.000659785
0.000646756
0.000659819
0.000646679
0.000659833
0.000646677
0.000659819
0.000646679
0.000659832
0.000646677
0.000677526
0.000664368
0.000677525
0.000664368
0.000659261
0.000646672
0.000646672
0.000659832
0.000659832
0.000646677
0.00065984
0.000646678
0.00065984
0.000642147
0.000628979
0.000642147
0.000628979
0.000642139
0.000642139
0.000629523
0.000628973
0.000628973
0.000611274
0.000624447
0.000611274
0.000624447
0.000623866
0.000611268
0.000611268
0.000624439
0.000624439
0.000628978
0.00064214
0.000642127
0.00062898
0.000629057
0.000642092
0.000640004
0.000631136
0.000642042
0.000629014
0.000631153
0.000629057
0.000642092
0.000640004
0.000631136
0.000642042
0.000629015
0.000631153
0.000624427
0.000611275
0.00062444
0.000611272
0.000624427
0.000611275
0.00062444
0.000611272
0.000624341
0.000622284
0.000611309
0.000613446
0.000624392
0.0006223
0.000611351
0.000624341
0.000622284
0.000611309
0.000613446
0.000624392
0.0006223
0.000611351
0.000642139
0.000642139
0.000629523
0.000628974
0.000628974
0.000642147
0.000628979
0.000611274
0.000624447
0.000623866
0.000611268
0.000611268
0.000624439
0.000624439
0.000611274
0.000624447
0.000629057
0.000642092
0.000640004
0.000631136
0.000642042
0.000629015
0.000631153
0.000628977
0.00064214
0.000642127
0.000628981
0.000629057
0.000640003
0.000642091
0.000631136
0.000642042
0.000631153
0.000629015
0.000624427
0.000611275
0.00062444
0.000611272
0.000624341
0.000622284
0.000611309
0.000613446
0.000624392
0.0006223
0.000611351
0.000624427
0.000611275
0.00062444
0.000611272
0.000624341
0.000622284
0.000613446
0.000611309
0.0006223
0.000624391
0.000611351
0.000628978
0.00064214
0.000642127
0.00062898
0.000629056
0.000640003
0.000642092
0.000631136
0.000642042
0.000631153
0.000629014
0.000628978
0.00064214
0.000642127
0.00062898
0.000624341
0.000622284
0.000611309
0.000613446
0.000624391
0.0006223
0.000611351
0.000624427
0.000611275
0.00062444
0.000611272
0.000624341
0.000622284
0.000613446
0.000611309
0.0006223
0.000624392
0.00061135
0.000624427
0.000611275
0.00062444
0.000611272
0.000642139
0.000642139
0.000629523
0.000628974
0.000628974
0.000642147
0.000628979
0.000611274
0.000624447
0.000623866
0.000611268
0.000611268
0.000624439
0.000624439
0.000611274
0.000624447
0.000629057
0.000640003
0.000642092
0.000631136
0.000642042
0.000631153
0.000629015
0.000628978
0.00064214
0.000642126
0.00062898
0.000628978
0.00064214
0.000642126
0.00062898
0.000624341
0.000622284
0.000613446
0.000611309
0.0006223
0.000624392
0.000611351
0.000624341
0.000622284
0.000613446
0.000611309
0.0006223
0.000624392
0.000611351
0.000624426
0.000611275
0.00062444
0.000611273
0.000624426
0.000611275
0.00062444
0.000611273
0.000642147
0.000628979
0.000642147
0.000628979
0.000623866
0.000611268
0.000611268
0.000624439
0.000624439
0.000611274
0.000624447
0.000611274
0.000624447
0.00060674
0.000593561
0.00060674
0.000593561
0.000606732
0.000606732
0.000594102
0.000593555
0.000593555
0.00057584
0.000589025
0.00057584
0.000589025
0.000588441
0.000575834
0.000575834
0.000589017
0.000589017
0.000593559
0.000606732
0.000606719
0.000593562
0.000593637
0.000606684
0.00060459
0.000595716
0.000606633
0.000593595
0.000595732
0.000593637
0.000606684
0.00060459
0.000595716
0.000606633
0.000593595
0.000595732
0.000589004
0.000575841
0.000589017
0.000575838
0.000589004
0.000575841
0.000589017
0.000575838
0.000588918
0.000586856
0.000575874
0.00057801
0.000588969
0.000586872
0.000575916
0.000588918
0.000586856
0.000575874
0.00057801
0.000588969
0.000586872
0.000575916
0.000606732
0.000606731
0.000594103
0.000593555
0.000593555
0.00060674
0.000593561
0.00057584
0.000589025
0.000588441
0.000575834
0.000575834
0.000589017
0.000589016
0.00057584
0.000589025
0.000593637
0.000606684
0.00060459
0.000595716
0.000606634
0.000593596
0.000595732
0.000593558
0.000606732
0.00060672
0.000593562
0.000593637
0.00060459
0.000606684
0.000595716
0.000606634
0.000595732
0.000593596
0.000589004
0.000575841
0.000589017
0.000575837
0.000588918
0.000586856
0.000575875
0.00057801
0.000588969
0.000586872
0.000575915
0.000589004
0.000575841
0.000589017
0.000575837
0.000588918
0.000586856
0.00057801
0.000575875
0.000586872
0.000588968
0.000575915
0.000593559
0.000606732
0.000606719
0.000593562
0.000593637
0.00060459
0.000606684
0.000595716
0.000606634
0.000595732
0.000593595
0.000593559
0.000606733
0.000606719
0.000593561
0.000588918
0.000586856
0.000575875
0.00057801
0.000588969
0.000586872
0.000575915
0.000589004
0.000575841
0.000589017
0.000575838
0.000588918
0.000586856
0.00057801
0.000575874
0.000586872
0.000588969
0.000575915
0.000589004
0.00057584
0.000589017
0.000575838
0.000606731
0.000606732
0.000594102
0.000593555
0.000593555
0.00060674
0.000593561
0.00057584
0.000589025
0.000588441
0.000575834
0.000575834
0.000589016
0.000589017
0.00057584
0.000589025
0.000593637
0.00060459
0.000606684
0.000595716
0.000606633
0.000595732
0.000593595
0.000593559
0.000606733
0.000606719
0.000593562
0.000593559
0.000606732
0.000606719
0.000593562
0.000588918
0.000586856
0.00057801
0.000575874
0.000586872
0.000588969
0.000575916
0.000588918
0.000586856
0.00057801
0.000575874
0.000586872
0.000588969
0.000575916
0.000589004
0.000575841
0.000589017
0.000575838
0.000589004
0.000575841
0.000589017
0.000575838
0.00060674
0.000593561
0.00060674
0.000593561
0.000588441
0.000575834
0.000575834
0.000589017
0.000589017
0.00057584
0.000589025
0.00057584
0.000589024
0.000571302
0.000558111
0.000571302
0.000558111
0.000571294
0.000571294
0.000558651
0.000558105
0.000558105
0.000540373
0.00055357
0.000540373
0.000553571
0.000552985
0.000540367
0.000540367
0.000553563
0.000553563
0.000558109
0.000571294
0.000571281
0.000558112
0.000558186
0.000571246
0.000569146
0.000560265
0.000571195
0.000558145
0.00056028
0.000558186
0.000571246
0.000569146
0.000560265
0.000571194
0.000558145
0.00056028
0.00055355
0.000540374
0.000553563
0.000540371
0.00055355
0.000540374
0.000553563
0.000540371
0.000553463
0.000551397
0.000540408
0.000542542
0.000553515
0.000551412
0.000540448
0.000553463
0.000551397
0.000540408
0.000542542
0.000553515
0.000551412
0.000540448
0.000571294
0.000571293
0.000558651
0.000558105
0.000558105
0.000571302