/*--------------------------------*- C++ -*----------------------------------*\
| =========                 |                                                 |
| \\      /  F ield         | OpenFOAM: The Open Source CFD Toolbox           |
|  \\    /   O peration     | Version:  v1906                                 |
|   \\  /    A nd           | Web:      www.OpenFOAM.com                      |
|    \\/     M anipulation  |                                                 |
\*---------------------------------------------------------------------------*/
FoamFile
{
    version     2.0;
    format      ascii;
    class       surfaceScalarField;
    location    "600";
    object      phi;
}
// * * * * * * * * * * * * * * * * * * * * * * * * * * * * * * * * * * * * * //

dimensions      [0 3 -1 0 0 0 0];
oriented        oriented;


internalField   nonuniform List<scalar> 
124908
(
1.24179e-07
1.24588e-07
-0.00118365
-7.71876e-08
-7.71818e-08
0.00118356
-0.00113214
-1.19625e-06
-1.24445e-07
-5.06955e-08
0.00113212
-2.3389e-07
1.24101e-06
2.71887e-07
9.11135e-07
-2.12218e-07
-8.52339e-07
2.6625e-07
-0.00113178
-1.19079e-06
-1.24462e-07
-5.06464e-08
0.00113176
-2.33907e-07
1.23553e-06
2.71905e-07
9.10976e-07
-2.14932e-07
-8.52235e-07
2.68952e-07
-0.000270098
1.22489e-06
1.19093e-06
-1.9798e-07
-2.03273e-07
0.000268083
1.25752e-07
1.26179e-07
-0.00118328
-7.94578e-08
-7.94542e-08
0.00118319
-0.00113206
-1.19605e-06
-1.26031e-07
-5.13553e-08
0.00113204
-2.33807e-07
1.24083e-06
2.71706e-07
9.11018e-07
-2.12144e-07
-8.52201e-07
2.66069e-07
-0.0011317
-1.1906e-06
-1.26052e-07
-5.13121e-08
0.00113168
-2.33824e-07
1.23535e-06
2.71722e-07
9.10846e-07
-2.14859e-07
-8.52093e-07
2.68778e-07
-0.000270109
1.22469e-06
1.19074e-06
-1.97934e-07
-2.03225e-07
0.000268094
1.26798e-07
1.27235e-07
-0.00118291
-8.12512e-08
-8.12408e-08
0.00118282
-0.00113199
-1.19595e-06
-1.27105e-07
-5.17988e-08
0.00113198
-2.33807e-07
1.24062e-06
2.7149e-07
9.10845e-07
-2.12176e-07
-8.52183e-07
2.65845e-07
-0.00113163
-1.1905e-06
-1.27117e-07
-5.17628e-08
0.00113161
-2.3382e-07
1.23514e-06
2.7151e-07
9.10675e-07
-2.14898e-07
-8.52075e-07
2.68547e-07
-0.000270121
1.22458e-06
1.19063e-06
-1.97953e-07
-2.03245e-07
0.000268107
1.27358e-07
1.27783e-07
-0.00118255
-8.25901e-08
-8.25757e-08
0.00118246
-0.00113193
-1.19594e-06
-1.27682e-07
-5.2035e-08
0.00113192
-2.33873e-07
1.2404e-06
2.7125e-07
9.1061e-07
-2.12313e-07
-8.52278e-07
2.65557e-07
-0.00113157
-1.1905e-06
-1.27698e-07
-5.19966e-08
0.00113156
-2.33889e-07
1.23491e-06
2.71266e-07
9.10448e-07
-2.1503e-07
-8.5217e-07
2.68264e-07
-0.000270136
1.22456e-06
1.19061e-06
-1.98039e-07
-2.0333e-07
0.000268122
1.27446e-07
1.27854e-07
-0.00118219
-8.34933e-08
-8.34878e-08
0.0011821
-0.00113188
-1.19601e-06
-1.27775e-07
-5.2077e-08
0.00113187
-2.34002e-07
1.24014e-06
2.70987e-07
9.10331e-07
-2.12544e-07
-8.52492e-07
2.6522e-07
-0.00113152
-1.19057e-06
-1.2781e-07
-5.20414e-08
0.00113151
-2.34023e-07
1.23465e-06
2.70999e-07
9.10166e-07
-2.15258e-07
-8.52375e-07
2.67932e-07
-0.000270152
1.22463e-06
1.19068e-06
-1.98185e-07
-2.03475e-07
0.000268138
1.27081e-07
1.27468e-07
-0.00118184
-8.39872e-08
-8.39916e-08
0.00118175
-0.00113184
-1.19617e-06
-1.27421e-07
-5.19302e-08
0.00113183
-2.34198e-07
1.23986e-06
2.707e-07
9.09995e-07
-2.1287e-07
-8.52805e-07
2.64831e-07
-0.00113147
-1.19073e-06
-1.27469e-07
-5.18953e-08
0.00113146
-2.3422e-07
1.23436e-06
2.70711e-07
9.09839e-07
-2.15577e-07
-8.52684e-07
2.6755e-07
-0.00027017
1.22478e-06
1.19083e-06
-1.98393e-07
-2.03686e-07
0.000268156
1.26325e-07
1.26684e-07
-0.00118149
-8.41175e-08
-8.41411e-08
0.00118141
-0.0011318
-1.1964e-06
-1.26668e-07
-5.16453e-08
0.00113179
-2.34453e-07
1.23955e-06
2.7039e-07
9.09616e-07
-2.13278e-07
-8.53213e-07
2.644e-07
-0.00113143
-1.19095e-06
-1.26723e-07
-5.15989e-08
0.00113143
-2.34474e-07
1.23406e-06
2.70403e-07
9.09462e-07
-2.15981e-07
-8.53091e-07
2.67123e-07
-0.000270189
1.22501e-06
1.19106e-06
-1.98654e-07
-2.03952e-07
0.000268176
1.25191e-07
1.25517e-07
-0.00118116
-8.39039e-08
-8.39529e-08
0.00118108
-0.00113177
-1.1967e-06
-1.25527e-07
-5.12106e-08
0.00113176
-2.34764e-07
1.23923e-06
2.70056e-07
9.0919e-07
-2.13764e-07
-8.53715e-07
2.63926e-07
-0.0011314
-1.19125e-06
-1.25581e-07
-5.11478e-08
0.0011314
-2.34786e-07
1.23374e-06
2.70068e-07
9.09037e-07
-2.16467e-07
-8.53591e-07
2.66648e-07
-0.00027021
1.22532e-06
1.19136e-06
-1.98968e-07
-2.04272e-07
0.000268196
1.23713e-07
1.24005e-07
-0.00118083
-8.33846e-08
-8.34585e-08
0.00118075
-0.00113174
-1.19707e-06
-1.24042e-07
-5.06371e-08
0.00113173
-2.35128e-07
1.23888e-06
2.69697e-07
9.08717e-07
-2.14321e-07
-8.54272e-07
2.63405e-07
-0.00113138
-1.19162e-06
-1.24087e-07
-5.05536e-08
0.00113137
-2.35152e-07
1.23339e-06
2.69708e-07
9.08562e-07
-2.17023e-07
-8.54172e-07
2.66129e-07
-0.000270231
1.22569e-06
1.19173e-06
-1.99335e-07
-2.04639e-07
0.000268217
1.21927e-07
1.22199e-07
-0.00118051
-8.25956e-08
-8.2691e-08
0.00118043
-0.00113172
-1.19749e-06
-1.22237e-07
-4.99141e-08
0.00113172
-2.3554e-07
1.23851e-06
2.69312e-07
9.08192e-07
-2.14933e-07
-8.54946e-07
2.62846e-07
-0.00113136
-1.19205e-06
-1.2229e-07
-4.98366e-08
0.00113135
-2.35563e-07
1.23301e-06
2.69321e-07
9.08041e-07
-2.17633e-07
-8.54822e-07
2.65571e-07
-0.000270253
1.22612e-06
1.19216e-06
-1.99747e-07
-2.05047e-07
0.00026824
1.19884e-07
1.20146e-07
-0.0011802
-8.15728e-08
-8.16792e-08
0.00118012
-0.0011317
-1.19797e-06
-1.20193e-07
-4.90903e-08
0.0011317
-2.3599e-07
1.2381e-06
2.68903e-07
9.07635e-07
-2.15588e-07
-8.55655e-07
2.62236e-07
-0.00113134
-1.19253e-06
-1.20244e-07
-4.90068e-08
0.00113134
-2.36015e-07
1.23261e-06
2.68911e-07
9.07481e-07
-2.1829e-07
-8.55532e-07
2.6496e-07
-0.000270276
1.2266e-06
1.19264e-06
-2.00193e-07
-2.0549e-07
0.000268262
1.17642e-07
1.17901e-07
-0.0011799
-8.0361e-08
-8.04651e-08
0.00117982
-0.00113169
-1.19851e-06
-1.1795e-07
-4.81732e-08
0.00113169
-2.36471e-07
1.23767e-06
2.6846e-07
9.07011e-07
-2.16266e-07
-8.56393e-07
2.61566e-07
-0.00113133
-1.19306e-06
-1.17998e-07
-4.80959e-08
0.00113133
-2.36495e-07
1.23218e-06
2.6847e-07
9.06859e-07
-2.18972e-07
-8.56274e-07
2.6429e-07
-0.0002703
1.22713e-06
1.19318e-06
-2.00676e-07
-2.05969e-07
0.000268286
1.15294e-07
1.15567e-07
-0.00117961
-7.90401e-08
-7.91315e-08
0.00117953
-0.00113168
-1.19906e-06
-1.15604e-07
-4.72107e-08
0.00113169
-2.36973e-07
1.2372e-06
2.67968e-07
9.06291e-07
-2.16929e-07
-8.57132e-07
2.60803e-07
-0.00113132
-1.19363e-06
-1.15652e-07
-4.71547e-08
0.00113132
-2.36964e-07
1.23171e-06
2.67981e-07
9.06139e-07
-2.19636e-07
-8.57017e-07
2.63526e-07
-0.000270323
1.22769e-06
1.19374e-06
-2.01162e-07
-2.06453e-07
0.00026831
1.12936e-07
1.13236e-07
-0.00117932
-7.76896e-08
-7.77633e-08
0.00117925
-0.00113168
-1.19963e-06
-1.13256e-07
-4.62104e-08
0.00113168
-2.37464e-07
1.23668e-06
2.67413e-07
9.05419e-07
-2.17502e-07
-8.57806e-07
2.59876e-07
-0.00113132
-1.19419e-06
-1.13306e-07
-4.61768e-08
0.00113132
-2.3745e-07
1.23119e-06
2.6743e-07
9.0527e-07
-2.20209e-07
-8.5769e-07
2.62602e-07
-0.000270348
1.22826e-06
1.19431e-06
-2.01628e-07
-2.06918e-07
0.000268334
1.10814e-07
1.11117e-07
-0.00117905
-7.64978e-08
-7.65416e-08
0.00117898
-0.00113168
-1.20016e-06
-1.11124e-07
-4.52328e-08
0.00113169
-2.37884e-07
1.23605e-06
2.6675e-07
9.04287e-07
-2.17819e-07
-8.58275e-07
2.58648e-07
-0.00113132
-1.19472e-06
-1.11186e-07
-4.5228e-08
0.00113132
-2.37868e-07
1.23057e-06
2.66769e-07
9.04161e-07
-2.20527e-07
-8.58159e-07
2.61366e-07
-0.000270372
1.22879e-06
1.19484e-06
-2.02016e-07
-2.07308e-07
0.000268358
1.09262e-07
1.09566e-07
-0.00117879
-7.57549e-08
-7.57995e-08
0.00117872
-0.00113168
-1.20056e-06
-1.09574e-07
-4.42705e-08
0.00113169
-2.3812e-07
1.23521e-06
2.65832e-07
9.0263e-07
-2.17503e-07
-8.58272e-07
2.56734e-07
-0.00113132
-1.19511e-06
-1.09629e-07
-4.42739e-08
0.00113133
-2.38107e-07
1.22973e-06
2.65825e-07
9.02479e-07
-2.20205e-07
-8.58154e-07
2.59451e-07
-0.000270397
1.22918e-06
1.19523e-06
-2.02172e-07
-2.07473e-07
0.000268382
1.0892e-07
1.09239e-07
-0.00117853
-7.61779e-08
-7.62196e-08
0.00117847
-0.00113169
-1.2005e-06
-1.09239e-07
-4.31342e-08
0.0011317
-2.37792e-07
1.23376e-06
2.64162e-07
8.99819e-07
-2.15547e-07
-8.57219e-07
2.53063e-07
-0.00113133
-1.19505e-06
-1.09292e-07
-4.31435e-08
0.00113134
-2.37773e-07
1.2283e-06
2.64166e-07
8.99658e-07
-2.18243e-07
-8.57099e-07
2.55773e-07
-0.000270422
1.22912e-06
1.19516e-06
-2.01653e-07
-2.06962e-07
0.000268406
1.10964e-07
1.11306e-07
-0.00117829
-7.94211e-08
-7.94384e-08
0.00117823
-0.0011317
-1.19886e-06
-1.11291e-07
-4.06123e-08
0.00113172
-2.35436e-07
1.23028e-06
2.59904e-07
8.94072e-07
-2.09015e-07
-8.53614e-07
2.44325e-07
-0.00113134
-1.1934e-06
-1.11379e-07
-4.067e-08
0.00113136
-2.35438e-07
1.22483e-06
2.59957e-07
8.93903e-07
-2.11714e-07
-8.53421e-07
2.47035e-07
-0.000270448
1.22748e-06
1.19351e-06
-1.98865e-07
-2.04184e-07
0.00026843
1.34336e-07
1.34977e-07
-0.00117807
-9.60439e-08
-1.01791e-07
0.001178
-0.00113171
-1.19159e-06
-1.29222e-07
-4.48343e-08
0.00113175
-2.25186e-07
1.2227e-06
2.51397e-07
8.84377e-07
-1.91685e-07
-8.44683e-07
2.22971e-07
-0.00113136
-1.18341e-06
-1.35028e-07
-3.96229e-08
0.0011314
-2.2511e-07
1.21454e-06
2.48655e-07
8.81605e-07
-1.91676e-07
-8.41821e-07
2.25789e-07
-0.000270482
1.22291e-06
1.18621e-06
-1.85284e-07
-1.90617e-07
0.000268449
1.05239e-06
1.0599e-06
-0.00117774
-9.08444e-07
-8.9732e-07
0.00117744
-0.00113201
-1.08762e-06
-1.05393e-06
-4.40839e-07
0.0011325
-1.18903e-07
1.37609e-06
3.14363e-07
1.0064e-06
-5.29044e-08
-7.21344e-07
2.92218e-07
-0.00113167
-1.0793e-06
-1.06518e-06
-4.52337e-07
0.00113217
-1.18707e-07
1.37075e-06
3.17327e-07
1.00348e-06
-5.91284e-08
-7.18413e-07
2.95089e-07
-0.0002706
1.12152e-06
1.07946e-06
-7.94535e-08
-8.19764e-08
0.00026856
5.51305e-06
5.50598e-06
-0.00116443
-1.16868e-05
-1.15798e-05
0.000283408
0.000285664
0.000285391
0.000285391
4.52783e-06
6.71955e-06
7.15992e-06
4.5318e-06
6.72045e-06
7.16352e-06
-0.000280655
5.41702e-06
-5.50299e-06
5.9653e-06
-3.38953e-06
0.000278166
-0.000280631
-5.50555e-06
5.42246e-06
-3.39795e-06
5.96239e-06
0.000278149
-0.000271535
-5.4138e-06
-5.42532e-06
5.74677e-06
5.73486e-06
0.000270892
-1.275e-06
-1.23837e-06
0.000270115
-0.000268088
2.38911e-07
2.46829e-07
0.00113131
-1.2364e-07
-0.00113133
-5.04126e-08
-1.23031e-06
2.7732e-07
-2.39439e-07
-8.52415e-07
2.66198e-07
-2.12285e-07
9.11102e-07
1.28044e-06
0.00113175
-1.23666e-07
-0.00113177
-5.02333e-08
-1.23584e-06
2.80117e-07
-2.42325e-07
-8.57908e-07
2.68987e-07
-2.1508e-07
9.1664e-07
-1.24105e-06
0.000270145
-0.000268109
2.4172e-07
2.44041e-07
0.00113241
-1.24074e-07
-0.00113243
-5.03662e-08
-1.1937e-06
2.74778e-07
-2.36838e-07
-8.55072e-07
2.69088e-07
-2.15003e-07
9.13951e-07
1.27499e-06
0.00113141
-1.23642e-07
-0.00113143
-5.02486e-08
-1.2304e-06
2.80109e-07
-2.42331e-07
-8.55086e-07
2.68935e-07
-2.15001e-07
9.13756e-07
-1.23919e-07
-0.00113216
-5.04651e-08
-1.19631e-06
2.71927e-07
-2.33919e-07
-8.52394e-07
2.66274e-07
9.11171e-07
-2.12256e-07
1.26953e-06
0.0011312
-1.23672e-07
-0.00113122
-5.02262e-08
-1.22495e-06
2.74501e-07
-2.3668e-07
-8.52433e-07
2.66195e-07
-2.12271e-07
9.11101e-07
-1.23556e-06
0.000270093
-0.000268068
2.39054e-07
2.46601e-07
-1.23943e-07
-0.0011318
-5.04161e-08
-1.19086e-06
2.71941e-07
-2.33936e-07
-8.52223e-07
2.68955e-07
9.11052e-07
-2.14981e-07
1.23567e-06
0.00113231
-1.23991e-07
-0.00113233
-5.03743e-08
-1.19099e-06
2.72035e-07
-2.34052e-07
-8.52453e-07
2.69036e-07
-2.15015e-07
9.11287e-07
-0.000268081
2.41488e-07
2.46791e-07
1.23025e-06
1.19364e-06
-1.95419e-07
-2.03203e-07
0.00026809
-1.27481e-06
-1.23818e-06
0.000270126
-0.000268098
2.38604e-07
2.46527e-07
-5.06568e-08
0.00113129
-2.3941e-07
1.27495e-06
2.77283e-07
9.1108e-07
-2.12241e-07
-8.52372e-07
2.66194e-07
-1.23577e-06
-1.24203e-07
-5.04478e-08
0.00113173
-2.42295e-07
1.2804e-06
2.80077e-07
9.16625e-07
-2.1504e-07
-8.57872e-07
2.6897e-07
0.00113123
-1.25327e-07
-0.00113125
-5.11205e-08
-1.23008e-06
2.77146e-07
-2.39335e-07
-8.52259e-07
2.66034e-07
-2.1219e-07
9.10979e-07
1.28026e-06
0.00113167
-1.25359e-07
-0.00113169
-5.09204e-08
-1.23561e-06
2.79939e-07
-2.42227e-07
-8.57758e-07
2.68821e-07
-2.14995e-07
9.1652e-07
-1.98092e-07
-2.00552e-07
0.000268111
-1.24087e-06
0.000270155
-0.000268119
2.41415e-07
2.43745e-07
-5.06279e-08
0.00113239
-2.36813e-07
1.23832e-06
2.74742e-07
9.13923e-07
-2.14978e-07
-8.55016e-07
2.69054e-07
-1.23033e-06
-1.24179e-07
-5.04641e-08
0.00113139
-2.42301e-07
1.27495e-06
2.80074e-07
9.13751e-07
-2.14993e-07
-8.55039e-07
2.68902e-07
0.00113234
-1.25763e-07
-0.00113235
-5.10483e-08
-1.19348e-06
2.74606e-07
-2.36735e-07
-8.54911e-07
2.68914e-07
-2.14922e-07
9.13836e-07
1.27482e-06
0.00113133
-1.25325e-07
-0.00113135
-5.09713e-08
-1.23017e-06
2.79941e-07
-2.42224e-07
-8.54925e-07
2.68767e-07
-2.14929e-07
9.13651e-07
-1.24196e-07
-5.04442e-08
0.00113118
-2.36643e-07
1.26949e-06
2.74469e-07
9.11076e-07
-2.12236e-07
2.66166e-07
-8.52392e-07
-1.25613e-07
-0.00113208
-5.11584e-08
-1.19609e-06
2.71747e-07
-2.33824e-07
-8.52229e-07
2.66115e-07
9.11046e-07
-2.12158e-07
1.26936e-06
0.00113112
-1.25358e-07
-0.00113114
-5.09544e-08
-1.22472e-06
2.74327e-07
-2.36578e-07
-8.5227e-07
2.66039e-07
-2.12171e-07
9.10993e-07
-1.95463e-07
-2.03125e-07
0.00026807
-1.23539e-06
0.000270104
-0.000268078
2.38753e-07
2.46307e-07
-1.24523e-07
-5.05874e-08
0.00113229
-2.34015e-07
1.23563e-06
2.72003e-07
9.11262e-07
-2.14975e-07
2.68997e-07
-8.52425e-07
-1.25639e-07
-0.00113172
-5.11251e-08
-1.19064e-06
2.71765e-07
-2.33836e-07
-8.52064e-07
2.68792e-07
9.10937e-07
-2.14892e-07
1.23549e-06
0.00113223
-1.25666e-07
-0.00113225
-5.1083e-08
-1.19077e-06
2.71861e-07
-2.33952e-07
-8.52298e-07
2.68872e-07
-2.14909e-07
9.11174e-07
-0.000268091
2.41189e-07
2.46496e-07
1.23004e-06
1.19344e-06
-1.95371e-07
-2.03155e-07
0.000268101
-1.27462e-06
-1.23798e-06
0.000270139
-0.000268111
2.38285e-07
2.46205e-07
-5.13129e-08
0.00113121
-2.39321e-07
1.27477e-06
2.77103e-07
9.10944e-07
-2.12175e-07
-8.5224e-07
2.66011e-07
-1.23557e-06
-1.25777e-07
-5.10905e-08
0.00113166
-2.42211e-07
1.28022e-06
2.79899e-07
9.16488e-07
-2.14988e-07
-8.57744e-07
2.68778e-07
0.00113116
-1.26474e-07
-0.00113118
-5.16125e-08
-1.22996e-06
2.76941e-07
-2.3931e-07
-8.52219e-07
2.65816e-07
-2.12201e-07
9.10812e-07
1.28007e-06
0.00113161
-1.26495e-07
-0.00113162
-5.14267e-08
-1.23548e-06
2.7974e-07
-2.42198e-07
-8.57726e-07
2.68593e-07
-2.15014e-07
9.16348e-07
-1.98049e-07
-2.00501e-07
0.000268122
-1.24067e-06
0.000270168
-0.000268132
2.41088e-07
2.43431e-07
-5.1277e-08
0.00113232
-2.36721e-07
1.23814e-06
2.74564e-07
9.13799e-07
-2.14909e-07
-8.54886e-07
2.68879e-07
-1.23013e-06
-1.25754e-07
-5.11559e-08
0.00113131
-2.42208e-07
1.27478e-06
2.79902e-07
9.13614e-07
-2.14902e-07
-8.54904e-07
2.68727e-07
0.00113227
-1.26926e-07
-0.00113228
-5.15474e-08
-1.19335e-06
2.74401e-07
-2.3671e-07
-8.54866e-07
2.68697e-07
-2.14931e-07
9.13663e-07
1.27463e-06
0.00113126
-1.26479e-07
-0.00113128
-5.1488e-08
-1.23004e-06
2.79743e-07
-2.42193e-07
-8.54882e-07
2.68538e-07
-2.14943e-07
9.13479e-07
-1.25773e-07
-5.11318e-08
0.00113111
-2.3656e-07
1.26931e-06
2.74287e-07
9.10965e-07
-2.12158e-07
2.65999e-07
-8.52256e-07
-1.26785e-07
-0.00113201
-5.16509e-08
-1.19597e-06
2.71536e-07
-2.33804e-07
-8.52181e-07
2.65897e-07
9.10882e-07
-2.12157e-07
1.26916e-06
0.00113106
-1.26507e-07
-0.00113107
-5.1473e-08
-1.2246e-06
2.74132e-07
-2.36542e-07
-8.52227e-07
2.65816e-07
-2.12184e-07
9.1082e-07
-1.95426e-07
-2.03081e-07
0.000268081
-1.23518e-06
0.000270116
-0.000268091
2.38429e-07
2.45994e-07
-1.26097e-07
-5.12444e-08
0.00113221
-2.33936e-07
1.23545e-06
2.71819e-07
9.11145e-07
-2.14905e-07
2.68827e-07
-8.5228e-07
-1.268e-07
-0.00113165
-5.16129e-08
-1.19052e-06
2.71555e-07
-2.33816e-07
-8.52021e-07
2.68573e-07
9.10773e-07
-2.14895e-07
1.2353e-06
0.00113216
-1.26827e-07
-0.00113218
-5.15735e-08
-1.19065e-06
2.71662e-07
-2.3392e-07
-8.52258e-07
2.68645e-07
-2.14927e-07
9.11004e-07
-0.000268104
2.40871e-07
2.46178e-07
1.22994e-06
1.19333e-06
-1.9539e-07
-2.03179e-07
0.000268114
-1.27439e-06
-1.23777e-06
0.000270153
-0.000268125
2.37945e-07
2.45857e-07
-5.17642e-08
0.00113114
-2.39314e-07
1.27457e-06
2.76895e-07
9.10765e-07
-2.12216e-07
-8.52226e-07
2.65767e-07
-1.23546e-06
-1.26818e-07
-5.15681e-08
0.00113159
-2.42199e-07
1.28003e-06
2.79696e-07
9.16305e-07
-2.15029e-07
-8.57736e-07
2.6854e-07
0.0011311
-1.2712e-07
-0.00113111
-5.18916e-08
-1.22992e-06
2.76706e-07
-2.39362e-07
-8.52289e-07
2.65543e-07
-2.12314e-07
9.10593e-07
1.27986e-06
0.00113155
-1.27127e-07
-0.00113156
-5.17369e-08
-1.23544e-06
2.79514e-07
-2.42237e-07
-8.57802e-07
2.68309e-07
-2.15133e-07
9.16125e-07
-1.98078e-07
-2.00517e-07
0.000268135
-1.24045e-06
0.000270182
-0.000268146
2.40742e-07
2.43093e-07
-5.17269e-08
0.00113225
-2.36713e-07
1.23794e-06
2.74357e-07
9.13619e-07
-2.14952e-07
-8.54873e-07
2.68638e-07
-1.23002e-06
-1.26798e-07
-5.16236e-08
0.00113124
-2.42196e-07
1.27458e-06
2.79699e-07
9.13429e-07
-2.14953e-07
-8.54895e-07
2.68483e-07
0.00113221
-1.27551e-07
-0.00113222
-5.18126e-08
-1.19331e-06
2.74175e-07
-2.36754e-07
-8.54978e-07
2.68417e-07
-2.15047e-07
9.13436e-07
1.27441e-06
0.0011312
-1.27102e-07
-0.00113121
-5.17943e-08
-1.23e-06
2.79515e-07
-2.42236e-07
-8.54962e-07
2.68251e-07
-2.15064e-07
9.1325e-07
-1.26819e-07
-5.16124e-08
0.00113104
-2.36545e-07
1.26912e-06
2.74086e-07
9.10775e-07
-2.12198e-07
2.65757e-07
-8.52241e-07
-1.27446e-07
-0.00113195
-5.19217e-08
-1.19594e-06
2.71299e-07
-2.33853e-07
-8.52249e-07
2.65622e-07
9.10661e-07
-2.12269e-07
1.26895e-06
0.001131
-1.27156e-07
-0.00113101
-5.17835e-08
-1.22456e-06
2.73901e-07
-2.36587e-07
-8.52304e-07
2.65532e-07
-2.12301e-07
9.10595e-07
-1.95453e-07
-2.03097e-07
0.000268094
-1.23496e-06
0.000270131
-0.000268105
2.38076e-07
2.45656e-07
-1.27158e-07
-5.17071e-08
0.00113214
-2.33923e-07
1.23525e-06
2.71616e-07
9.10959e-07
-2.14939e-07
2.68591e-07
-8.52273e-07
-1.27461e-07
-0.00113158
-5.18777e-08
-1.19049e-06
2.71316e-07
-2.33869e-07
-8.52092e-07
2.683e-07
9.10557e-07
-2.15011e-07
1.23508e-06
0.0011321
-1.27474e-07
-0.00113211
-5.18689e-08
-1.19061e-06
2.71426e-07
-2.3397e-07
-8.52321e-07
2.68362e-07
-2.15049e-07
9.10778e-07
-0.000268118
2.40525e-07
2.45833e-07
1.22993e-06
1.19331e-06
-1.9547e-07
-2.03269e-07
0.000268129
-1.27414e-06
-1.23752e-06
0.000270169
-0.000268141
2.37574e-07
2.45477e-07
-5.20081e-08
0.00113109
-2.39382e-07
1.27435e-06
2.76655e-07
9.10534e-07
-2.12352e-07
-8.52325e-07
2.65479e-07
-1.23544e-06
-1.27366e-07
-5.18439e-08
0.00113153
-2.42254e-07
1.27981e-06
2.79467e-07
9.1607e-07
-2.15173e-07
-8.57842e-07
2.68249e-07
0.00113105
-1.27283e-07
-0.00113106
-5.19644e-08
-1.22997e-06
2.76445e-07
-2.39479e-07
-8.52468e-07
2.65217e-07
-2.12521e-07
9.10316e-07
1.27961e-06
0.00113149
-1.27284e-07
-0.00113151
-5.18466e-08
-1.23548e-06
2.79264e-07
-2.42339e-07
-8.57986e-07
2.6798e-07
-2.15346e-07
9.15844e-07
-1.98167e-07
-2.00599e-07
0.00026815
-1.24019e-06
0.000270199
-0.000268162
2.40363e-07
2.4272e-07
-5.19659e-08
0.00113219
-2.36772e-07
1.23772e-06
2.74126e-07
9.13377e-07
-2.15094e-07
-8.54983e-07
2.6835e-07
-1.23001e-06
-1.27337e-07
-5.19019e-08
0.00113119
-2.42253e-07
1.27437e-06
2.79469e-07
9.13192e-07
-2.15103e-07
-8.55002e-07
2.68189e-07
0.00113215
-1.27711e-07
-0.00113217
-5.18993e-08
-1.19335e-06
2.73922e-07
-2.3686e-07
-8.55133e-07
2.68078e-07
-2.15269e-07
9.13159e-07
1.27416e-06
0.00113115
-1.27246e-07
-0.00113116
-5.19141e-08
-1.23004e-06
2.79267e-07
-2.42335e-07
-8.55149e-07
2.67918e-07
-2.15279e-07
9.12969e-07
-1.27385e-07
-5.18944e-08
0.00113098
-2.36598e-07
1.2689e-06
2.73847e-07
9.10541e-07
-2.12342e-07
2.65467e-07
-8.52344e-07
-1.27616e-07
-0.00113189
-5.19845e-08
-1.19598e-06
2.71043e-07
-2.3396e-07
-8.52435e-07
2.65294e-07
9.10389e-07
-2.12478e-07
1.26869e-06
0.00113094
-1.27311e-07
-0.00113096
-5.18905e-08
-1.2246e-06
2.73648e-07
-2.36694e-07
-8.52483e-07
2.65204e-07
-2.1251e-07
9.1032e-07
-1.95548e-07
-2.03179e-07
0.000268109
-1.2347e-06
0.000270147
-0.000268121
2.37694e-07
2.45286e-07
-1.27715e-07
-5.19783e-08
0.00113209
-2.33977e-07
1.23503e-06
2.71376e-07
9.10717e-07
-2.15083e-07
2.68302e-07
-8.52383e-07
-1.27649e-07
-0.00113153
-5.19501e-08
-1.19054e-06
2.71055e-07
-2.33981e-07
-8.52269e-07
2.67978e-07
9.10286e-07
-2.15214e-07
1.23481e-06
0.00113205
-1.27648e-07
-0.00113206
-5.19734e-08
-1.19065e-06
2.71174e-07
-2.34077e-07
-8.52515e-07
2.68034e-07
-2.15256e-07
9.10506e-07
-0.000268134
2.40142e-07
2.45451e-07
1.23001e-06
1.19338e-06
-1.95617e-07
-2.03426e-07
0.000268145
-1.27386e-06
-1.23724e-06
0.000270187
-0.000268158
2.3718e-07
2.45074e-07
-5.20543e-08
0.00113104
-2.39518e-07
1.27408e-06
2.76388e-07
9.10251e-07
-2.12584e-07
-8.52534e-07
2.65144e-07
-1.23551e-06
-1.27441e-07
-5.19268e-08
0.00113148
-2.42379e-07
1.27956e-06
2.79209e-07
9.15783e-07
-2.1541e-07
-8.58055e-07
2.67908e-07
0.001131
-1.26987e-07
-0.00113101
-5.18438e-08
-1.23011e-06
2.76156e-07
-2.39663e-07
-8.52753e-07
2.64843e-07
-2.1282e-07
9.09996e-07
1.27934e-06
0.00113145
-1.26971e-07
-0.00113146
-5.17723e-08
-1.23561e-06
2.78986e-07
-2.42517e-07
-8.58276e-07
2.67603e-07
-2.15648e-07
9.15521e-07
-1.98317e-07
-2.00744e-07
0.000268166
-1.23991e-06
0.000270216
-0.000268179
2.39966e-07
2.42325e-07
-5.20281e-08
0.00113214
-2.36899e-07
1.23746e-06
2.73868e-07
9.13096e-07
-2.15337e-07
-8.55202e-07
2.68003e-07
-1.23007e-06
-1.27403e-07
-5.1991e-08
0.00113114
-2.42374e-07
1.27411e-06
2.79215e-07
9.12904e-07
-2.15343e-07
-8.55218e-07
2.67847e-07
0.00113211
-1.27394e-07
-0.00113212
-5.1813e-08
-1.19348e-06
2.73643e-07
-2.37034e-07
-8.55425e-07
2.677e-07
-2.15574e-07
9.1283e-07
1.2739e-06
0.0011311
-1.26932e-07
-0.00113111
-5.1843e-08
-1.23017e-06
2.78993e-07
-2.4251e-07
-8.55439e-07
2.67542e-07
-2.1558e-07
9.12646e-07
-1.27467e-07
-5.19659e-08
0.00113093
-2.36735e-07
1.26865e-06
2.73591e-07
9.10258e-07
-2.12574e-07
2.65132e-07
-8.52551e-07
-1.27332e-07
-0.00113185
-5.18684e-08
-1.19611e-06
2.7076e-07
-2.34143e-07
-8.52719e-07
2.64915e-07
9.10064e-07
-2.12781e-07
1.26843e-06
0.0011309
-1.27018e-07
-0.00113091
-5.18049e-08
-1.22473e-06
2.73365e-07
-2.36872e-07
-8.52769e-07
2.64828e-07
-2.12811e-07
9.09998e-07
-1.95701e-07
-2.03321e-07
0.000268126
-1.23442e-06
0.000270165
-0.000268139
2.37295e-07
2.44897e-07
-1.27818e-07
-5.20475e-08
0.00113204
-2.34114e-07
1.23477e-06
2.71115e-07
9.10442e-07
-2.1532e-07
2.67962e-07
-8.52583e-07
-1.27377e-07
-0.00113148
-5.18359e-08
-1.19067e-06
2.70771e-07
-2.34165e-07
-8.5255e-07
2.67608e-07
9.09967e-07
-2.15509e-07
1.23455e-06
0.001132
-1.27361e-07
-0.00113201
-5.18886e-08
-1.19078e-06
2.7089e-07
-2.34255e-07
-8.52801e-07
2.67657e-07
-2.15558e-07
9.10184e-07
-0.000268152
2.39756e-07
2.45065e-07
1.23017e-06
1.19353e-06
-1.95821e-07
-2.03642e-07
0.000268163
-1.27355e-06
-1.23694e-06
0.000270206
-0.000268177
2.36763e-07
2.44647e-07
-5.18982e-08
0.00113099
-2.3972e-07
1.2738e-06
2.76094e-07
9.09919e-07
-2.12906e-07
-8.52845e-07
2.6476e-07
-1.23566e-06
-1.27062e-07
-5.18209e-08
0.00113144
-2.42572e-07
1.27929e-06
2.78927e-07
9.15449e-07
-2.15735e-07
-8.58371e-07
2.6752e-07
0.00113096
-1.26246e-07
-0.00113097
-5.1536e-08
-1.23033e-06
2.75839e-07
-2.39909e-07
-8.53133e-07
2.6442e-07
-2.13201e-07
9.09625e-07
1.27904e-06
0.00113141
-1.26221e-07
-0.00113142
-5.15125e-08
-1.23582e-06
2.7868e-07
-2.42754e-07
-8.58659e-07
2.67178e-07
-2.16032e-07
9.15148e-07
-1.98526e-07
-2.00952e-07
0.000268184
-1.23961e-06
0.000270236
-0.000268198
2.39545e-07
2.41905e-07
-5.1906e-08
0.0011321
-2.3709e-07
1.23719e-06
2.73585e-07
9.12757e-07
-2.15666e-07
-8.5552e-07
2.67613e-07
-1.23022e-06
-1.27022e-07
-5.18878e-08
0.00113109
-2.42564e-07
1.27384e-06
2.78935e-07
9.12569e-07
-2.15667e-07
-8.55533e-07
2.6746e-07
0.00113207
-1.26629e-07
-0.00113208
-5.15318e-08
-1.19368e-06
2.73337e-07
-2.37269e-07
-8.55815e-07
2.6727e-07
-2.15966e-07
9.12453e-07
1.2736e-06
0.00113107
-1.26181e-07
-0.00113108
-5.15748e-08
-1.23037e-06
2.78687e-07
-2.42746e-07
-8.55821e-07
2.67118e-07
-2.15962e-07
9.12273e-07
-1.27106e-07
-5.18448e-08
0.00113089
-2.36927e-07
1.26837e-06
2.73305e-07
9.09926e-07
-2.12897e-07
2.64746e-07
-8.52864e-07
-1.26597e-07
-0.00113181
-5.15864e-08
-1.19632e-06
2.70451e-07
-2.34381e-07
-8.531e-07
2.64488e-07
9.09689e-07
-2.13167e-07
1.26812e-06
0.00113086
-1.26287e-07
-0.00113087
-5.15227e-08
-1.22494e-06
2.73054e-07
-2.37112e-07
-8.53149e-07
2.64406e-07
-2.13191e-07
9.09629e-07
-1.9591e-07
-2.03524e-07
0.000268144
-1.23412e-06
0.000270184
-0.000268158
2.36876e-07
2.4448e-07
-1.27458e-07
-5.19275e-08
0.00113199
-2.34308e-07
1.23449e-06
2.70831e-07
9.10109e-07
-2.15645e-07
2.67575e-07
-8.52896e-07
-1.26652e-07
-0.00113144
-5.15448e-08
-1.19088e-06
2.70462e-07
-2.34402e-07
-8.52931e-07
2.67185e-07
9.09598e-07
-2.1589e-07
1.23425e-06
0.00113197
-1.26622e-07
-0.00113197
-5.16241e-08
-1.19099e-06
2.70582e-07
-2.3449e-07
-8.53183e-07
2.67233e-07
-2.15941e-07
9.09813e-07
-0.000268171
2.39338e-07
2.44644e-07
1.2304e-06
1.19376e-06
-1.96082e-07
-2.03913e-07
0.000268182
-1.27322e-06
-1.23662e-06
0.000270227
-0.000268198
2.36321e-07
2.44198e-07
-5.15845e-08
0.00113096
-2.39983e-07
1.27349e-06
2.75779e-07
9.09545e-07
-2.1331e-07
-8.53251e-07
2.64333e-07
-1.23589e-06
-1.26297e-07
-5.15511e-08
0.0011314
-2.42826e-07
1.27899e-06
2.78619e-07
9.15072e-07
-2.16141e-07
-8.5878e-07
2.67092e-07
0.00113093
-1.2509e-07
-0.00113094
-5.10556e-08
-1.23061e-06
2.75498e-07
-2.40209e-07
-8.53604e-07
2.63949e-07
-2.13661e-07
9.09203e-07
1.27872e-06
0.00113138
-1.25059e-07
-0.00113139
-5.10653e-08
-1.2361e-06
2.78344e-07
-2.4305e-07
-8.59131e-07
2.66708e-07
-2.16493e-07
9.14725e-07
-1.98791e-07
-2.01216e-07
0.000268203
-1.23928e-06
0.000270256
-0.000268219
2.39101e-07
2.41459e-07
-5.16232e-08
0.00113206
-2.37342e-07
1.23689e-06
2.73278e-07
9.12376e-07
-2.16081e-07
-8.55934e-07
2.6718e-07
-1.23044e-06
-1.26256e-07
-5.16078e-08
0.00113106
-2.42818e-07
1.27355e-06
2.78626e-07
9.12195e-07
-2.16072e-07
-8.5594e-07
2.67033e-07
0.00113204
-1.25443e-07
-0.00113205
-5.10875e-08
-1.19396e-06
2.73004e-07
-2.3756e-07
-8.56297e-07
2.66797e-07
-2.16437e-07
9.1203e-07
1.27327e-06
0.00113103
-1.25013e-07
-0.00113104
-5.11135e-08
-1.23065e-06
2.78349e-07
-2.43043e-07
-8.56293e-07
2.66648e-07
-2.16422e-07
9.11852e-07
-1.26358e-07
-5.15527e-08
0.00113085
-2.37185e-07
1.26807e-06
2.72994e-07
9.09554e-07
-2.13299e-07
2.64321e-07
-8.53268e-07
-1.25437e-07
-0.00113177
-5.11369e-08
-1.1966e-06
2.70116e-07
-2.34674e-07
-8.53575e-07
2.64014e-07
9.09266e-07
-2.1363e-07
1.2678e-06
0.00113083
-1.25135e-07
-0.00113084
-5.10541e-08
-1.22522e-06
2.72716e-07
-2.37409e-07
-8.53618e-07
2.63938e-07
-2.13649e-07
9.09209e-07
-1.96173e-07
-2.03787e-07
0.000268163
-1.23379e-06
0.000270205
-0.000268178
2.36433e-07
2.44034e-07
-1.26701e-07
-5.16551e-08
0.00113196
-2.34562e-07
1.23419e-06
2.70523e-07
9.09734e-07
-2.16051e-07
2.67148e-07
-8.53303e-07
-1.25492e-07
-0.00113141
-5.10821e-08
-1.19116e-06
2.70127e-07
-2.34695e-07
-8.53403e-07
2.66713e-07
9.09174e-07
-2.16353e-07
1.23392e-06
0.00113193
-1.25459e-07
-0.00113194
-5.11769e-08
-1.19126e-06
2.70248e-07
-2.34782e-07
-8.53656e-07
2.66762e-07
-2.16403e-07
9.0939e-07
-0.000268191
2.38896e-07
2.44198e-07
1.23071e-06
1.19406e-06
-1.96396e-07
-2.04238e-07
0.000268203
-1.27286e-06
-1.23627e-06
0.000270248
-0.000268219
2.35853e-07
2.43725e-07
-5.11162e-08
0.00113093
-2.40302e-07
1.27316e-06
2.75437e-07
9.09122e-07
-2.13793e-07
-8.53748e-07
2.6386e-07
-1.23619e-06
-1.25159e-07
-5.11123e-08
0.00113137
-2.43141e-07
1.27866e-06
2.78282e-07
9.1465e-07
-2.16624e-07
-8.59277e-07
2.66621e-07
0.00113091
-1.23531e-07
-0.00113091
-5.04049e-08
-1.23097e-06
2.75132e-07
-2.40562e-07
-8.54155e-07
2.63431e-07
-2.14192e-07
9.08731e-07
1.27836e-06
0.00113135
-1.23501e-07
-0.00113136
-5.04307e-08
-1.23645e-06
2.77979e-07
-2.434e-07
-8.59684e-07
2.66191e-07
-2.17022e-07
9.14255e-07
-1.99107e-07
-2.01535e-07
0.000268224
-1.23893e-06
0.000270277
-0.00026824
2.38635e-07
2.40988e-07
-5.11905e-08
0.00113203
-2.37652e-07
1.23656e-06
2.72945e-07
9.11952e-07
-2.16575e-07
-8.56442e-07
2.66706e-07
-1.23075e-06
-1.25111e-07
-5.11513e-08
0.00113103
-2.43135e-07
1.27322e-06
2.78288e-07
9.11771e-07
-2.16554e-07
-8.56438e-07
2.66562e-07
0.00113201
-1.23854e-07
-0.00113202
-5.04675e-08
-1.1943e-06
2.72643e-07
-2.37905e-07
-8.56858e-07
2.66281e-07
-2.1698e-07
9.11555e-07
1.27292e-06
0.00113101
-1.23445e-07
-0.00113102
-5.04627e-08
-1.231e-06
2.77982e-07
-2.43395e-07
-8.56846e-07
2.6613e-07
-2.16953e-07
9.11379e-07
-1.25225e-07
-5.10946e-08
0.00113082
-2.375e-07
1.26774e-06
2.72656e-07
9.09131e-07
-2.1378e-07
2.6385e-07
-8.53764e-07
-1.23864e-07
-0.00113175
-5.05176e-08
-1.19694e-06
2.69758e-07
-2.35017e-07
-8.54136e-07
2.63496e-07
9.08776e-07
-2.14162e-07
1.26744e-06
0.0011308
-1.23573e-07
-0.00113081
-5.0412e-08
-1.22557e-06
2.72352e-07
-2.37757e-07
-8.54169e-07
2.6342e-07
-2.14179e-07
9.08737e-07
-1.96488e-07
-2.04107e-07
0.000268183
-1.23344e-06
0.000270226
-0.000268199
2.35964e-07
2.43562e-07
-1.25557e-07
-5.1217e-08
0.00113193
-2.34873e-07
1.23387e-06
2.70189e-07
9.09309e-07
-2.16535e-07
2.66674e-07
-8.53802e-07
-1.23918e-07
-0.00113138
-5.04454e-08
-1.1915e-06
2.69765e-07
-2.35042e-07
-8.53957e-07
2.66192e-07
9.087e-07
-2.16888e-07
1.23357e-06
0.00113191
-1.23891e-07
-0.00113191
-5.05441e-08
-1.19161e-06
2.69884e-07
-2.3513e-07
-8.54209e-07
2.66243e-07
-2.16934e-07
9.08918e-07
-0.000268212
2.38427e-07
2.43729e-07
1.23109e-06
1.19442e-06
-1.96761e-07
-2.0461e-07
0.000268224
-1.27247e-06
-1.23588e-06
0.00027027
-0.000268241
2.35356e-07
2.43225e-07
-5.05085e-08
0.0011309
-2.40673e-07
1.27281e-06
2.75074e-07
9.08652e-07
-2.14345e-07
-8.54326e-07
2.63344e-07
-1.23657e-06
-1.23679e-07
-5.05178e-08
0.00113135
-2.43511e-07
1.27831e-06
2.7792e-07
9.1418e-07
-2.17175e-07
-8.59856e-07
2.66106e-07
0.00113089
-1.21586e-07
-0.00113089
-4.95995e-08
-1.23138e-06
2.74735e-07
-2.40958e-07
-8.54776e-07
2.62864e-07
-2.1478e-07
9.08204e-07
1.27798e-06
0.00113133
-1.21557e-07
-0.00113134
-4.9633e-08
-1.23686e-06
2.77583e-07
-2.43796e-07
-8.60305e-07
2.65626e-07
-2.17609e-07
9.13729e-07
-1.99472e-07
-2.01905e-07
0.000268245
-1.23855e-06
0.0002703
-0.000268262