/*--------------------------------*- C++ -*----------------------------------*\
| =========                 |                                                 |
| \\      /  F ield         | OpenFOAM: The Open Source CFD Toolbox           |
|  \\    /   O peration     | Version:  v1906                                 |
|   \\  /    A nd           | Web:      www.OpenFOAM.com                      |
|    \\/     M anipulation  |                                                 |
\*---------------------------------------------------------------------------*/
FoamFile
{
    version     2.0;
    format      ascii;
    class       volScalarField;
    location    "250";
    object      k;
}
// * * * * * * * * * * * * * * * * * * * * * * * * * * * * * * * * * * * * * //

dimensions      [0 2 -2 0 0 0 0];


internalField   nonuniform List<scalar> 
42616
(
3.58933e-05
3.58914e-05
3.58914e-05
3.59958e-05
3.39293e-05
3.38875e-05
3.38874e-05
3.39599e-05
3.21569e-05
3.20034e-05
3.20042e-05
3.19453e-05
3.05328e-05
3.02223e-05
3.02229e-05
2.99782e-05
2.903e-05
2.85454e-05
2.85456e-05
2.81096e-05
2.76315e-05
2.69771e-05
2.69774e-05
2.63753e-05
2.63262e-05
2.55198e-05
2.55203e-05
2.47909e-05
2.51059e-05
2.41729e-05
2.41732e-05
2.33614e-05
2.3965e-05
2.29378e-05
2.29377e-05
2.20877e-05
2.28992e-05
2.18133e-05
2.18129e-05
2.09693e-05
2.19048e-05
2.0797e-05
2.07964e-05
1.99964e-05
2.09787e-05
1.98858e-05
1.98852e-05
1.91636e-05
2.01158e-05
1.90776e-05
1.9077e-05
1.84696e-05
1.93149e-05
1.83693e-05
1.83688e-05
1.79097e-05
1.8575e-05
1.77576e-05
1.77574e-05
1.74785e-05
1.78935e-05
1.72411e-05
1.7241e-05
1.71671e-05
1.72681e-05
1.68187e-05
1.6819e-05
1.6982e-05
1.66966e-05
1.64895e-05
1.64902e-05
1.69385e-05
1.61779e-05
1.62535e-05
1.62548e-05
1.70307e-05
1.57094e-05
1.61109e-05
1.61127e-05
1.72528e-05
1.52896e-05
1.60614e-05
1.60635e-05
1.76101e-05
3.63062e-05
3.62907e-05
3.62907e-05
3.63062e-05
3.62907e-05
3.62907e-05
3.6423e-05
3.6423e-05
3.6423e-05
3.6423e-05
3.62907e-05
3.62907e-05
3.63062e-05
3.62907e-05
3.62907e-05
3.63062e-05
3.59957e-05
3.42663e-05
3.58914e-05
3.58914e-05
3.43754e-05
3.43755e-05
3.59958e-05
3.42661e-05
3.58914e-05
3.58914e-05
3.43753e-05
3.43754e-05
3.58915e-05
3.43756e-05
3.43756e-05
3.59957e-05
3.42664e-05
3.58914e-05
3.43754e-05
3.43755e-05
3.42667e-05
3.39594e-05
3.22566e-05
3.38873e-05
3.38869e-05
3.2465e-05
3.24612e-05
3.39581e-05
3.22488e-05
3.38872e-05
3.38874e-05
3.2465e-05
3.2465e-05
3.38876e-05
3.24646e-05
3.24654e-05
3.39595e-05
3.22566e-05
3.38875e-05
3.24652e-05
3.24651e-05
3.22571e-05
3.19446e-05
3.02878e-05
3.20039e-05
3.19994e-05
3.06582e-05
3.06548e-05
3.19369e-05
3.02855e-05
3.20039e-05
3.20039e-05
3.06583e-05
3.06582e-05
3.20043e-05
3.0658e-05
3.06589e-05
3.19446e-05
3.0288e-05
3.20041e-05
3.06588e-05
3.06587e-05
3.02893e-05
2.99764e-05
2.84109e-05
3.02223e-05
3.02196e-05
2.8954e-05
2.89529e-05
2.99748e-05
2.84116e-05
3.02223e-05
3.02222e-05
2.89539e-05
2.89539e-05
3.02229e-05
2.89546e-05
2.89547e-05
2.99768e-05
2.84114e-05
3.02229e-05
2.89548e-05
2.89547e-05
2.84126e-05
2.81082e-05
2.66584e-05
2.85447e-05
2.85439e-05
2.73581e-05
2.73573e-05
2.81087e-05
2.66586e-05
2.85446e-05
2.85446e-05
2.73579e-05
2.73578e-05
2.85454e-05
2.73588e-05
2.73586e-05
2.81087e-05
2.66592e-05
2.85453e-05
2.7359e-05
2.73579e-05
2.66581e-05
2.63766e-05
2.50505e-05
2.69765e-05
2.69756e-05
2.58733e-05
2.58722e-05
2.63762e-05
2.50495e-05
2.69763e-05
2.69762e-05
2.58732e-05
2.58729e-05
2.69769e-05
2.58738e-05
2.58733e-05
2.63763e-05
2.5051e-05
2.69759e-05
2.58742e-05
2.58718e-05
2.50485e-05
2.47936e-05
2.35971e-05
2.55193e-05
2.55181e-05
2.44986e-05
2.44972e-05
2.47933e-05
2.35956e-05
2.55193e-05
2.55189e-05
2.44987e-05
2.44982e-05
2.55193e-05
2.44992e-05
2.44984e-05
2.47928e-05
2.35965e-05
2.55177e-05
2.44995e-05
2.4497e-05
2.3596e-05
2.33633e-05
2.22963e-05
2.41723e-05
2.41709e-05
2.32352e-05
2.32338e-05
2.33637e-05
2.22944e-05
2.41724e-05
2.41718e-05
2.32355e-05
2.32348e-05
2.41721e-05
2.32361e-05
2.32351e-05
2.33633e-05
2.22955e-05
2.41708e-05
2.32361e-05
2.32342e-05
2.22972e-05
2.20892e-05
2.11508e-05
2.29368e-05
2.29355e-05
2.20829e-05
2.20816e-05
2.20903e-05
2.11508e-05
2.29372e-05
2.29364e-05
2.20835e-05
2.20825e-05
2.29367e-05
2.20842e-05
2.2083e-05
2.20895e-05
2.11512e-05
2.2936e-05
2.20838e-05
2.20828e-05
2.11523e-05
2.09708e-05
2.01533e-05
2.1812e-05
2.18107e-05
2.10396e-05
2.10384e-05
2.09704e-05
2.01531e-05
2.18127e-05
2.18116e-05
2.10404e-05
2.10391e-05
2.18121e-05
2.10411e-05
2.10399e-05
2.09697e-05
2.0153e-05
2.1812e-05
2.10405e-05
2.10401e-05
2.0154e-05
1.99967e-05
1.92962e-05
2.07955e-05
2.07943e-05
2.01022e-05
2.01012e-05
1.99967e-05
1.92961e-05
2.07964e-05
2.0795e-05
2.01033e-05
2.01019e-05
2.07958e-05
2.01039e-05
2.01028e-05
1.99964e-05
1.92959e-05
2.07961e-05
2.01032e-05
2.01033e-05
1.92965e-05
1.91633e-05
1.85694e-05
1.98842e-05
1.98831e-05
1.92683e-05
1.92675e-05
1.91633e-05
1.85695e-05
1.98852e-05
1.98838e-05
1.92696e-05
1.92681e-05
1.98847e-05
1.927e-05
1.9269e-05
1.91631e-05
1.85693e-05
1.98852e-05
1.92694e-05
1.92697e-05
1.857e-05
1.84691e-05
1.79733e-05
1.9076e-05
1.90751e-05
1.85354e-05
1.85347e-05
1.84691e-05
1.79731e-05
1.90772e-05
1.90758e-05
1.85368e-05
1.85354e-05
1.90767e-05
1.8537e-05
1.85363e-05
1.8469e-05
1.7973e-05
1.90774e-05
1.85365e-05
1.8537e-05
1.79739e-05
1.7909e-05
1.75109e-05
1.83678e-05
1.83671e-05
1.79e-05
1.78995e-05
1.79087e-05
1.75105e-05
1.83691e-05
1.83677e-05
1.79015e-05
1.79001e-05
1.83687e-05
1.79014e-05
1.79011e-05
1.79087e-05
1.75106e-05
1.83694e-05
1.79011e-05
1.79018e-05
1.75115e-05
1.74779e-05
1.7186e-05
1.77563e-05
1.77558e-05
1.73598e-05
1.73595e-05
1.74776e-05
1.71842e-05
1.77577e-05
1.77564e-05
1.73613e-05
1.736e-05
1.77574e-05
1.73611e-05
1.7361e-05
1.74777e-05
1.71845e-05
1.77581e-05
1.7361e-05
1.73617e-05
1.71868e-05
1.71666e-05
1.69893e-05
1.72401e-05
1.72397e-05
1.69142e-05
1.6914e-05
1.71682e-05
1.69849e-05
1.72414e-05
1.72402e-05
1.69156e-05
1.69144e-05
1.72411e-05
1.6915e-05
1.69153e-05
1.71678e-05
1.69856e-05
1.72419e-05
1.69152e-05
1.69161e-05
1.69897e-05
1.69821e-05
1.69303e-05
1.68181e-05
1.68178e-05
1.65619e-05
1.65618e-05
1.6984e-05
1.69282e-05
1.68193e-05
1.68183e-05
1.65633e-05
1.65622e-05
1.68191e-05
1.65622e-05
1.65629e-05
1.69859e-05
1.69287e-05
1.68199e-05
1.65629e-05
1.65637e-05
1.69304e-05
1.69387e-05
1.69969e-05
1.64895e-05
1.64892e-05
1.63029e-05
1.63028e-05
1.69372e-05
1.69939e-05
1.64905e-05
1.64897e-05
1.63043e-05
1.63033e-05
1.64903e-05
1.63027e-05
1.63037e-05
1.69378e-05
1.69963e-05
1.64912e-05
1.63039e-05
1.63046e-05
1.69972e-05
1.70305e-05
1.71943e-05
1.62541e-05
1.62539e-05
1.61372e-05
1.61372e-05
1.7031e-05
1.71873e-05
1.62551e-05
1.62544e-05
1.61385e-05
1.61376e-05
1.62547e-05
1.61364e-05
1.61378e-05
1.7031e-05
1.71945e-05
1.62557e-05
1.61381e-05
1.61388e-05
1.71894e-05
1.72506e-05
1.75248e-05
1.6112e-05
1.61121e-05
1.60644e-05
1.60646e-05
1.72535e-05
1.75113e-05
1.6113e-05
1.61124e-05
1.60656e-05
1.6065e-05
1.61124e-05
1.60632e-05
1.60649e-05
1.72474e-05
1.75137e-05
1.61136e-05
1.60652e-05
1.6066e-05
1.75142e-05
1.75975e-05
1.60628e-05
1.60631e-05
1.76085e-05
1.60639e-05
1.60633e-05
1.60632e-05
1.76092e-05
1.60644e-05
3.73774e-05
3.73766e-05
3.7377e-05
3.7377e-05
3.73703e-05
3.73777e-05
3.73047e-05
3.73768e-05
3.73703e-05
3.73777e-05
3.73769e-05
3.73051e-05
3.73741e-05
3.72966e-05
3.72967e-05
3.58679e-05
4.07729e-05
3.66067e-05
4.5063e-05
5.55062e-05
6.50577e-05
3.58598e-05
4.07753e-05
3.66024e-05
4.50643e-05
3.58933e-05
3.58933e-05
3.58933e-05
3.44001e-05
3.44002e-05
3.44002e-05
3.44002e-05
3.52709e-05
3.56106e-05
3.58931e-05
3.53767e-05
3.60486e-05
3.41855e-05
3.53821e-05
5.55241e-05
6.50881e-05
3.52719e-05
3.58931e-05
3.56094e-05
3.53766e-05
3.60485e-05
3.53821e-05
3.41842e-05
3.65862e-05
3.65746e-05
3.52785e-05
3.40211e-05
3.39965e-05
3.39374e-05
5.12998e-05
3.46711e-05
5.46137e-05
7.66552e-05
8.09528e-05
3.39356e-05
5.12994e-05
3.46636e-05
5.46147e-05
3.39293e-05
3.39293e-05
3.39293e-05
3.25847e-05
3.25844e-05
3.25847e-05
3.25848e-05
3.30449e-05
3.24367e-05
3.39291e-05
3.34065e-05
3.38912e-05
3.15278e-05
3.34673e-05
7.66668e-05
8.09612e-05
3.30446e-05
3.39291e-05
3.24355e-05
3.34066e-05
3.38914e-05
3.34673e-05
3.15311e-05
3.16391e-05
3.16207e-05
3.32596e-05
3.08283e-05
3.08055e-05
3.22216e-05
5.91635e-05
3.2903e-05
6.14609e-05
8.44127e-05
8.50738e-05
3.22208e-05
5.91661e-05
3.29015e-05
6.14639e-05
3.21564e-05
3.21569e-05
3.21569e-05
3.09266e-05
3.09261e-05
3.09266e-05
3.09267e-05
3.07759e-05
3.04779e-05
3.21364e-05
3.15486e-05
3.16284e-05
2.985e-05
3.17086e-05
8.4422e-05
8.50842e-05
3.07779e-05
3.21364e-05
3.04828e-05
3.15495e-05
3.16288e-05
3.17086e-05
2.98579e-05
3.01583e-05
3.01393e-05
3.12649e-05
2.99419e-05
2.99305e-05
3.07362e-05
6.43548e-05
3.13263e-05
6.57499e-05
8.45966e-05
8.39135e-05
3.07297e-05
6.43548e-05
3.13263e-05
6.575e-05
3.05324e-05
3.05329e-05
3.05329e-05
2.93954e-05
2.93953e-05
2.93955e-05
2.93956e-05
2.8585e-05
2.91117e-05
3.04669e-05
2.97931e-05
2.94031e-05
2.86437e-05
3.00659e-05
8.45997e-05
8.39159e-05
2.85867e-05
3.04672e-05
2.9115e-05
2.97936e-05
2.94052e-05
3.00661e-05
2.86499e-05
2.99066e-05
2.99012e-05
2.9337e-05
3.00101e-05
3.00081e-05
2.9503e-05
6.73191e-05
2.99798e-05
6.8047e-05
8.21876e-05
8.1219e-05
2.94961e-05
6.73125e-05
2.99842e-05
6.80394e-05
2.903e-05
2.90301e-05
2.90303e-05
2.79721e-05
2.79721e-05
2.79722e-05
2.79723e-05
2.65504e-05
2.81008e-05
2.8899e-05
2.8143e-05
2.73091e-05
2.77503e-05
2.85217e-05
8.21886e-05
8.12255e-05
2.65511e-05
2.88992e-05
2.81025e-05
2.81431e-05
2.73092e-05
2.85218e-05
2.77593e-05
3.04526e-05
3.04304e-05
2.7519e-05
3.0779e-05
3.07413e-05
2.85869e-05
6.87373e-05
2.89264e-05
6.90348e-05
7.94107e-05
7.85342e-05
2.85805e-05
6.87273e-05
2.89323e-05
6.90268e-05
2.76316e-05
2.76317e-05
2.76317e-05
2.66443e-05
2.66442e-05
2.66444e-05
2.66442e-05
2.47244e-05
2.73818e-05
2.74238e-05
2.66024e-05
2.54075e-05
2.71651e-05
2.70692e-05
7.94148e-05
7.85423e-05
2.4726e-05
2.7424e-05
2.73876e-05
2.66027e-05
2.5408e-05
2.70692e-05
2.71631e-05
3.16238e-05
3.15569e-05
2.58338e-05
3.21222e-05
3.20644e-05
2.80355e-05
6.92411e-05
2.82225e-05
6.9302e-05
7.69886e-05
7.62922e-05
2.80314e-05
6.9237e-05
2.82252e-05
6.93003e-05
2.63261e-05
2.63263e-05
2.63261e-05
2.54033e-05
2.54032e-05
2.54034e-05
2.5403e-05
2.31447e-05
2.69683e-05
2.60386e-05
2.51727e-05
2.37413e-05
2.68926e-05
2.57062e-05
7.69935e-05
7.62991e-05
2.31455e-05
2.60387e-05
2.69816e-05
2.51731e-05
2.37418e-05
2.57062e-05
2.68937e-05
3.32753e-05
3.32284e-05
2.43036e-05
3.39061e-05
3.38787e-05
2.78951e-05
6.9282e-05
2.79071e-05
6.92572e-05
7.50664e-05
7.45369e-05
2.78938e-05
6.92825e-05
2.79043e-05
6.92585e-05
2.51058e-05
2.5106e-05
2.51055e-05
2.4243e-05
2.42429e-05
2.4243e-05
2.42426e-05
2.18307e-05
2.69148e-05
2.47422e-05
2.38536e-05
2.23334e-05
2.69604e-05
2.44319e-05
7.50727e-05
7.45423e-05
2.18291e-05
2.47422e-05
2.69151e-05
2.38538e-05
2.23321e-05
2.44317e-05
2.69617e-05
3.52861e-05
3.52774e-05
2.29264e-05
3.60119e-05
3.60095e-05
2.8154e-05
6.91748e-05
2.80178e-05
6.91466e-05
7.36073e-05
7.3215e-05
2.81458e-05
6.91774e-05
2.80242e-05
6.91503e-05
2.39648e-05
2.3965e-05
2.39646e-05
2.31587e-05
2.31586e-05
2.31587e-05
2.31584e-05
2.0791e-05
2.71918e-05
2.35337e-05
2.26464e-05
2.11915e-05
2.73367e-05
2.32448e-05
7.36127e-05
7.32186e-05
2.07876e-05
2.35334e-05
2.71793e-05
2.26462e-05
2.11886e-05
2.32443e-05
2.73462e-05
3.75363e-05
3.75425e-05
2.17053e-05
3.8322e-05
3.83312e-05
2.88211e-05
6.90932e-05
2.85483e-05
6.90848e-05
7.25303e-05
7.22466e-05
2.88181e-05
6.90976e-05
2.85548e-05
6.90911e-05
2.2899e-05
2.28991e-05
2.28989e-05
2.21468e-05
2.21467e-05
2.21467e-05
2.21467e-05
2.00212e-05
2.77792e-05
2.24093e-05
2.15492e-05
2.03123e-05
2.80213e-05
2.21413e-05
7.25362e-05
7.22522e-05
2.00171e-05
2.24087e-05
2.77678e-05
2.15487e-05
2.03096e-05
2.21404e-05
2.80384e-05
3.9924e-05
3.99311e-05
2.06353e-05
4.0728e-05
4.07398e-05
2.9911e-05
6.90841e-05
2.9494e-05
6.91008e-05
7.17588e-05
7.15541e-05
2.99011e-05
6.90905e-05
2.9502e-05
6.91083e-05
2.19047e-05
2.19047e-05
2.19047e-05
2.12039e-05
2.12038e-05
2.12037e-05
2.12039e-05
1.95146e-05
2.8655e-05
2.13686e-05
2.05594e-05
1.96942e-05
2.89872e-05
2.11215e-05
7.17574e-05
7.15617e-05
1.95097e-05
2.13677e-05
2.86394e-05
2.05588e-05
1.96942e-05
2.11205e-05
2.89991e-05
4.23487e-05
4.23529e-05
1.97082e-05
4.31478e-05
4.31541e-05
3.13925e-05
6.91393e-05
3.08457e-05
6.91757e-05
7.1213e-05
7.1069e-05
3.13855e-05
6.91422e-05
3.08568e-05
6.91862e-05
2.09786e-05
2.09785e-05
2.09787e-05
2.03259e-05
2.03258e-05
2.03256e-05
2.0326e-05
1.92677e-05
2.97805e-05
2.0411e-05
1.9674e-05
1.93396e-05
3.01847e-05
2.01842e-05
7.12089e-05
7.10766e-05
1.92624e-05
2.04101e-05
2.97678e-05
1.96734e-05
1.93411e-05
2.01832e-05
3.01986e-05
4.47247e-05
4.47298e-05
1.8917e-05
4.54902e-05
4.54985e-05
3.32526e-05
6.92386e-05
3.25885e-05
6.92843e-05
7.08318e-05
7.0731e-05
3.32453e-05
6.92422e-05
3.25947e-05
6.92943e-05
2.01158e-05
2.01156e-05
2.01159e-05
1.95092e-05
1.95091e-05
1.9509e-05
1.95094e-05
1.92787e-05
3.11175e-05
1.95335e-05
1.88912e-05
1.92542e-05
3.15821e-05
1.93263e-05
7.0826e-05
7.07381e-05
1.92763e-05
1.95327e-05
3.11045e-05
1.88906e-05
1.92518e-05
1.93254e-05
3.15983e-05
4.69835e-05
4.699e-05
1.82556e-05
4.76961e-05
4.77047e-05
3.54305e-05
6.93532e-05
3.46695e-05
6.93996e-05
7.05638e-05
7.04923e-05
3.54316e-05
6.93575e-05
3.4677e-05
6.94095e-05
1.93148e-05
1.93147e-05
1.93151e-05
1.87543e-05
1.87542e-05
1.87541e-05
1.87545e-05
1.95484e-05
3.26219e-05
1.87331e-05
1.82073e-05
1.94352e-05
3.31335e-05
1.85448e-05
7.05566e-05
7.04989e-05
1.95435e-05
1.87324e-05
3.26102e-05
1.82069e-05
1.94352e-05
1.8544e-05
3.31453e-05
4.9071e-05
4.90789e-05
1.77257e-05
4.97201e-05
4.97294e-05
3.78636e-05
6.94657e-05
3.70291e-05
6.95085e-05
7.03698e-05
7.0317e-05
3.78627e-05
6.947e-05
3.70337e-05
6.95183e-05
1.85749e-05
1.85748e-05
1.85753e-05
1.80584e-05
1.80583e-05
1.80582e-05
1.80587e-05
2.00669e-05
3.4239e-05
1.80074e-05
1.76194e-05
1.98725e-05
3.47838e-05
1.78373e-05
7.03623e-05
7.03186e-05
2.00657e-05
1.80068e-05
3.42356e-05
1.76192e-05
1.98721e-05
1.78367e-05
3.47965e-05
5.09576e-05
5.0968e-05
1.73324e-05
5.1537e-05
5.15471e-05
4.04363e-05
6.95685e-05
3.95686e-05
6.96075e-05
7.02201e-05
7.01796e-05
4.0448e-05
6.95728e-05
3.95691e-05
6.96167e-05
1.78934e-05
1.78933e-05
1.78938e-05
1.74191e-05
1.7419e-05
1.74189e-05
1.74195e-05
2.08339e-05
3.59265e-05
1.73538e-05
1.71263e-05
2.05608e-05
3.64805e-05
1.72015e-05
7.02153e-05
7.01801e-05
2.08336e-05
1.73535e-05
3.59211e-05
1.71263e-05
2.05602e-05
1.72012e-05
3.64834e-05
5.26325e-05
5.26445e-05
1.70731e-05
5.31434e-05
5.31542e-05
4.30542e-05
6.96619e-05
4.21692e-05
6.96977e-05
7.00964e-05
7.00635e-05
4.30717e-05
6.9666e-05
4.21572e-05
6.97062e-05
1.72679e-05
1.72679e-05
1.72685e-05
1.68343e-05
1.68341e-05
1.68342e-05
1.68347e-05
2.1836e-05
3.76201e-05
1.67717e-05
1.6727e-05
2.14872e-05
3.81831e-05
1.66369e-05
7.00943e-05
7.00631e-05
2.18399e-05
1.67716e-05
3.76305e-05
1.67274e-05
2.14876e-05
1.66368e-05
3.81798e-05
5.41045e-05
5.4116e-05
1.6943e-05
5.45496e-05
5.45616e-05
4.5595e-05
6.9748e-05
4.47215e-05
6.97813e-05
6.99886e-05
6.996e-05
4.56107e-05
6.97517e-05
4.47123e-05
6.97892e-05
1.66965e-05
1.66966e-05
1.66971e-05
1.63024e-05
1.63021e-05
1.63023e-05
1.63028e-05
2.3055e-05
3.92929e-05
1.62587e-05
1.64208e-05
2.26362e-05
3.98406e-05
1.61408e-05
6.99873e-05
6.99594e-05
2.30567e-05
1.62588e-05
3.93059e-05
1.64217e-05
2.26377e-05
1.61411e-05
3.98416e-05
5.53871e-05
5.53978e-05
1.69467e-05
5.57732e-05
5.57839e-05
4.79579e-05
6.98285e-05
4.71383e-05
6.98598e-05
6.98909e-05
6.98652e-05
4.79712e-05
6.98343e-05
4.71311e-05
6.98653e-05
1.61776e-05
1.61779e-05
1.61783e-05
1.58216e-05
1.58211e-05
1.58215e-05
1.5822e-05
2.4458e-05
4.09135e-05
1.58134e-05
1.62079e-05
2.39804e-05
4.14294e-05
1.57123e-05
6.98899e-05
6.98644e-05
2.44629e-05
1.58138e-05
4.09211e-05
1.62093e-05
2.39837e-05
1.57129e-05
4.14311e-05
5.65009e-05
5.65107e-05
1.7079e-05
5.68361e-05
5.68472e-05
5.00804e-05
6.99041e-05
4.93413e-05
6.99333e-05
6.98006e-05
6.97768e-05
5.00924e-05
6.99102e-05
4.93359e-05
6.9939e-05
1.57091e-05
1.57094e-05
1.57098e-05
1.53897e-05
1.53891e-05
1.53896e-05
1.53901e-05
2.60105e-05
4.24441e-05
1.54355e-05
1.60882e-05
2.54816e-05
4.29366e-05
1.53512e-05
6.97994e-05
6.97759e-05
2.60137e-05
1.54363e-05
4.24524e-05
1.60901e-05
2.54827e-05
1.53521e-05
4.29357e-05
5.74676e-05
5.74784e-05
1.73341e-05
5.77615e-05
5.7771e-05
5.19311e-05
6.9974e-05
5.12847e-05
7.00032e-05
6.9716e-05
6.96939e-05
6.99809e-05
5.12811e-05
7.00079e-05
1.52892e-05
1.52897e-05
1.529e-05
2.76538e-05
4.38779e-05
1.51247e-05
1.60638e-05
2.70982e-05
4.43339e-05
1.50571e-05
6.9715e-05
2.76579e-05
1.51259e-05
4.38764e-05
2.71024e-05
1.50583e-05
5.83131e-05
5.83244e-05
1.77262e-05
5.85703e-05
5.85802e-05
3.73742e-05
3.7297e-05
3.72967e-05
5.27779e-05
3.71927e-05
5.27192e-05
3.71925e-05
3.70929e-05
3.72058e-05
3.72068e-05
3.71748e-05
3.71745e-05
3.73702e-05
3.73777e-05
3.7305e-05
3.73768e-05
3.73702e-05
3.73778e-05
3.7305e-05
3.73768e-05
3.71719e-05
3.93437e-05
3.71557e-05
3.67206e-05
3.71719e-05
3.93611e-05
3.7156e-05
3.67191e-05
3.70959e-05
3.71021e-05
3.59979e-05
3.64209e-05
3.71651e-05
3.71108e-05
3.6305e-05
3.70958e-05
3.71021e-05
3.59947e-05
3.64209e-05
3.7165e-05
3.71108e-05
3.63048e-05
3.73742e-05
3.72963e-05
3.72969e-05
5.27413e-05
3.71927e-05
3.70928e-05
3.72123e-05
3.72253e-05
3.71763e-05
3.7175e-05
5.27762e-05
3.71928e-05
3.73703e-05
3.73777e-05
3.73052e-05
3.73769e-05
3.73702e-05
3.73777e-05
3.73768e-05
3.73051e-05
3.71718e-05
3.93601e-05
3.71558e-05
3.67182e-05
3.70957e-05
3.71021e-05
3.59944e-05
3.64209e-05
3.71646e-05
3.71108e-05
3.63047e-05
3.71719e-05
3.93692e-05
3.71562e-05
3.67206e-05
3.70958e-05
3.71021e-05
3.64209e-05
3.59946e-05
3.71108e-05
3.71648e-05
3.6305e-05
3.73774e-05
3.73766e-05
3.7377e-05
3.7377e-05
3.73774e-05
3.73766e-05
3.7377e-05
3.7377e-05
3.73773e-05
3.73766e-05
3.7377e-05
3.7377e-05
3.71133e-05
3.71098e-05
3.64241e-05
3.64241e-05
3.71125e-05
3.71125e-05
3.64261e-05
3.71133e-05
3.71098e-05
3.64241e-05
3.64241e-05
3.71125e-05
3.71125e-05
3.64261e-05
3.71133e-05
3.71098e-05
3.64241e-05
3.64241e-05
3.71125e-05
3.71125e-05
3.64261e-05
3.71133e-05
3.71098e-05
3.64241e-05
3.64241e-05
3.71125e-05
3.71125e-05
3.64261e-05
3.73702e-05
3.73777e-05
3.73768e-05
3.73046e-05
3.70957e-05
3.71021e-05
3.59973e-05
3.64209e-05
3.71652e-05
3.71108e-05
3.63048e-05
3.71718e-05
3.93417e-05
3.71557e-05
3.67183e-05
3.70958e-05
3.71021e-05
3.64209e-05
3.60025e-05
3.71108e-05
3.71655e-05
3.63048e-05
3.71719e-05
3.93438e-05
3.71562e-05
3.67192e-05
3.73741e-05
3.7297e-05
3.7297e-05
5.29256e-05
3.71925e-05
3.70929e-05
3.72221e-05
3.72079e-05
3.71747e-05
3.71749e-05
5.27713e-05
3.71926e-05
3.73702e-05
3.73777e-05
3.73769e-05
3.73047e-05
3.70957e-05
3.71021e-05
3.64209e-05
3.59939e-05
3.71108e-05
3.71645e-05
3.63047e-05
3.70958e-05
3.71021e-05
3.64209e-05
3.60015e-05
3.71108e-05
3.71653e-05
3.63049e-05
3.71719e-05
3.93603e-05
3.71557e-05
3.67177e-05
3.71719e-05
3.93384e-05
3.71555e-05
3.67195e-05
3.70929e-05
3.72168e-05
3.72096e-05
3.71766e-05
3.71758e-05
5.26841e-05
3.71928e-05
5.26419e-05
3.71926e-05
5.55847e-05
6.51643e-05
5.57165e-05
6.51636e-05
3.65746e-05
3.65813e-05
3.52784e-05
3.40116e-05
3.39951e-05
7.49362e-05
6.78975e-05
7.49537e-05
6.79101e-05
3.49721e-05
3.19197e-05
3.19249e-05
3.34182e-05
3.34049e-05
3.58667e-05
4.07666e-05
3.66058e-05
4.50585e-05
3.52729e-05
3.56051e-05
3.58931e-05
3.53766e-05
3.60494e-05
3.4178e-05
3.53822e-05
3.52726e-05
3.56057e-05
3.58931e-05
3.53766e-05
3.60491e-05
3.41767e-05
3.53821e-05
3.56321e-05
5.01679e-05
4.6363e-05
3.48795e-05
3.56309e-05
5.01643e-05
4.63598e-05
3.48767e-05
3.49978e-05
3.48716e-05
3.26726e-05
3.44015e-05
3.38167e-05
3.48855e-05
3.4174e-05
3.49972e-05
3.48717e-05
3.26604e-05
3.44015e-05
3.38176e-05
3.48855e-05
3.4173e-05
3.65818e-05
3.65993e-05
3.52787e-05
3.40172e-05
3.40258e-05
5.55821e-05
6.51936e-05
7.48718e-05
6.78238e-05
3.49725e-05
3.18319e-05
3.1952e-05
3.34335e-05
3.34465e-05
7.49735e-05
6.79344e-05
3.52707e-05
3.56063e-05
3.58931e-05
3.53766e-05
3.60485e-05
3.41755e-05
3.53821e-05
3.58665e-05
4.07733e-05
3.66065e-05
4.5066e-05
3.52724e-05
3.58931e-05
3.56066e-05
3.53766e-05
3.60491e-05
3.53822e-05
3.4178e-05
3.56231e-05
5.01668e-05
4.63622e-05
3.48724e-05
3.49951e-05
3.48715e-05
3.26713e-05
3.44014e-05
3.38144e-05
3.48854e-05
3.41713e-05
3.56302e-05
5.01699e-05
4.6365e-05
3.48798e-05
3.49971e-05
3.48715e-05
3.44015e-05
3.26773e-05
3.48855e-05
3.38187e-05
3.41739e-05
3.586e-05
4.07666e-05
3.6604e-05
4.50655e-05
3.52719e-05
3.58931e-05
3.56082e-05
3.53767e-05
3.60488e-05
3.53822e-05
3.41801e-05
3.58645e-05
4.07714e-05
3.6605e-05
4.50675e-05
3.49956e-05
3.48716e-05
3.26832e-05
3.44015e-05
3.38258e-05
3.48854e-05
3.41727e-05
3.56248e-05
5.01712e-05
4.63585e-05
3.4876e-05
3.49968e-05
3.48716e-05
3.44015e-05
3.26747e-05
3.48855e-05
3.38166e-05
3.41741e-05
3.56291e-05
5.01738e-05
4.6366e-05
3.48802e-05
3.65865e-05
3.6579e-05
3.52784e-05
3.40153e-05
3.40237e-05
5.54225e-05
6.51883e-05
7.489e-05
6.78423e-05
3.4972e-05
3.19548e-05
3.19564e-05
3.34347e-05
3.34344e-05
7.49676e-05
6.79291e-05
3.52727e-05
3.58931e-05
3.5605e-05
3.53766e-05
3.60492e-05
3.53822e-05
3.41747e-05
3.58651e-05
4.07659e-05
3.66033e-05
4.50641e-05
3.58678e-05
4.07663e-05
3.66068e-05
4.50671e-05
3.49965e-05
3.48715e-05
3.44015e-05
3.26832e-05
3.48855e-05
3.38242e-05
3.41737e-05
3.49972e-05
3.48716e-05
3.44015e-05
3.267e-05
3.48855e-05
3.38112e-05
3.41735e-05
3.56281e-05
5.01728e-05
4.63625e-05
3.488e-05
3.56298e-05
5.01768e-05
4.6365e-05
3.48783e-05
5.55902e-05
6.51445e-05
5.57066e-05
6.52059e-05
3.49722e-05
3.19434e-05
3.19251e-05
3.34287e-05
3.34062e-05
7.4932e-05
6.78855e-05
7.49729e-05
6.79484e-05
7.67106e-05
8.09928e-05
7.67271e-05
8.10069e-05
3.1619e-05
3.16225e-05
3.32591e-05
3.08071e-05
3.08128e-05
8.40743e-05
8.19461e-05
8.40845e-05
8.1959e-05
3.29494e-05
3.02104e-05
3.02109e-05
3.06571e-05
3.0658e-05
3.3935e-05
5.12955e-05
3.46681e-05
5.46067e-05
3.3043e-05
3.24257e-05
3.39292e-05
3.34065e-05
3.38919e-05
3.15193e-05
3.34673e-05
3.30417e-05
3.24001e-05
3.39291e-05
3.3405e-05
3.38907e-05
3.14647e-05
3.34672e-05
3.37626e-05
5.83787e-05
5.55742e-05
3.30503e-05
3.37602e-05
5.83717e-05
5.55654e-05
3.30489e-05
3.27603e-05
3.29325e-05
3.06036e-05
3.25715e-05
3.13467e-05
3.3015e-05
3.19031e-05
3.2759e-05
3.29298e-05
3.05434e-05
3.25711e-05
3.12824e-05
3.30148e-05
3.19022e-05
3.14617e-05
3.16506e-05
3.32542e-05
3.05004e-05
3.08168e-05
7.67439e-05
8.10193e-05
8.4046e-05
8.19105e-05
3.29433e-05
2.993e-05
3.02043e-05
3.03239e-05
3.06675e-05
8.40917e-05
8.19695e-05
3.30416e-05
3.2424e-05
3.3929e-05
3.34064e-05
3.3889e-05
3.15191e-05
3.34671e-05
3.39417e-05
5.13001e-05
3.4671e-05
5.46137e-05
3.30441e-05
3.39292e-05
3.24309e-05
3.34065e-05
3.38918e-05
3.34673e-05
3.15234e-05
3.37579e-05
5.83812e-05
5.55755e-05
3.30511e-05
3.27589e-05
3.29324e-05
3.06029e-05
3.25714e-05
3.13448e-05
3.30149e-05
3.19031e-05
3.37632e-05
5.8379e-05
5.5572e-05
3.30539e-05
3.27612e-05
3.29325e-05
3.25716e-05
3.06069e-05
3.30151e-05
3.13508e-05
3.19044e-05
3.39424e-05
5.13023e-05
3.46692e-05
5.46184e-05
3.30457e-05
3.39292e-05
3.24267e-05
3.34068e-05
3.38924e-05
3.34674e-05
3.15221e-05
3.39438e-05
5.13072e-05
3.4673e-05
5.46212e-05
3.27628e-05
3.29323e-05
3.0609e-05
3.25717e-05
3.13548e-05
3.30151e-05
3.19071e-05
3.37675e-05
5.83839e-05
5.55766e-05
3.3058e-05
3.27634e-05
3.29328e-05
3.25718e-05
3.06065e-05
3.30152e-05
3.13476e-05
3.19073e-05
3.37689e-05
5.83871e-05
5.55811e-05
3.30584e-05
3.16569e-05
3.16519e-05
3.32592e-05
3.0837e-05
3.08378e-05
7.67397e-05
8.10116e-05
8.4057e-05
8.19165e-05
3.29495e-05
3.02357e-05
3.02347e-05
3.06873e-05
3.06828e-05
8.40876e-05
8.19652e-05
3.30438e-05
3.39291e-05
3.24213e-05
3.34066e-05
3.38909e-05
3.34673e-05
3.15161e-05
3.39438e-05
5.13048e-05
3.46713e-05
5.46185e-05
3.39404e-05
5.1308e-05
3.46685e-05
5.46211e-05
3.27621e-05
3.29326e-05
3.25716e-05
3.06142e-05
3.30151e-05
3.13563e-05
3.19073e-05
3.27614e-05
3.29326e-05
3.25716e-05
3.06004e-05
3.3015e-05
3.13411e-05
3.19071e-05
3.37663e-05
5.83837e-05
5.55774e-05
3.30607e-05
3.37639e-05
5.83844e-05
5.55798e-05
3.30595e-05
7.6709e-05
8.09916e-05
7.67438e-05
8.10102e-05
3.29499e-05
3.02301e-05
3.02088e-05
3.06722e-05
3.06493e-05
8.40742e-05
8.19464e-05
8.40836e-05
8.19623e-05
8.44386e-05
8.50919e-05
8.44471e-05
8.50963e-05
3.01423e-05
3.01383e-05
3.12638e-05
2.99223e-05
2.99196e-05
8.48509e-05
8.5089e-05
8.48528e-05
8.50924e-05
3.09512e-05
2.98714e-05
2.98695e-05
2.99039e-05
2.99e-05
3.22197e-05
5.9156e-05
3.29018e-05
6.1458e-05
3.0772e-05
3.04733e-05
3.21361e-05
3.15491e-05
3.16243e-05
2.98453e-05
3.17083e-05
3.07711e-05
3.04143e-05
3.21356e-05
3.15446e-05
3.16235e-05
2.9814e-05
3.17077e-05
3.20906e-05
6.38962e-05
6.20759e-05
3.14509e-05
3.20889e-05
6.38965e-05
6.20717e-05
3.14459e-05
3.05005e-05
3.11006e-05
2.91983e-05
3.08739e-05
2.97377e-05
3.12877e-05
2.96623e-05
3.04994e-05
3.10965e-05
2.9191e-05
3.08733e-05
2.97026e-05
3.12871e-05
2.96605e-05
2.98829e-05
3.01365e-05
3.12581e-05
2.9794e-05
2.99126e-05
8.44537e-05
8.51016e-05
8.48405e-05
8.50718e-05
3.09462e-05
2.98212e-05
2.98649e-05
2.97911e-05
2.98951e-05
8.48538e-05
8.50977e-05
3.07721e-05
3.04706e-05
3.21361e-05
3.15492e-05
3.16243e-05
2.98458e-05
3.17083e-05
3.22212e-05
5.91618e-05
3.29037e-05
6.14624e-05
3.07723e-05
3.21362e-05
3.04758e-05
3.15491e-05
3.16253e-05
3.17084e-05
2.98498e-05
3.20895e-05
6.38986e-05
6.20775e-05
3.14456e-05
3.05001e-05
3.11007e-05
2.91994e-05
3.08738e-05
2.97321e-05
3.12877e-05
2.9661e-05
3.20899e-05
6.38983e-05
6.20747e-05
3.14447e-05
3.05001e-05
3.11006e-05
3.08739e-05
2.92069e-05
3.12877e-05
2.97415e-05
2.96604e-05
3.22275e-05
5.91662e-05
3.29106e-05
6.1467e-05
3.07757e-05
3.21365e-05
3.04748e-05
3.15496e-05
3.16286e-05
3.17087e-05
2.98509e-05
3.2227e-05
5.91704e-05
3.29107e-05
6.14695e-05
3.05041e-05
3.11002e-05
2.92027e-05
3.08742e-05
2.97398e-05
3.1288e-05
2.9665e-05
3.20964e-05
6.39028e-05
6.20788e-05
3.14526e-05
3.05039e-05
3.11012e-05
3.08743e-05
2.92057e-05
3.12881e-05
2.9737e-05
2.96646e-05
3.20959e-05
6.39046e-05
6.20823e-05
3.14528e-05
3.01688e-05
3.01625e-05
3.12639e-05
2.99506e-05
2.99424e-05
8.44517e-05
8.5101e-05
8.48494e-05
8.50821e-05
3.09513e-05
2.99018e-05
2.98876e-05
2.99337e-05
2.99224e-05
8.48456e-05
8.5098e-05
3.07778e-05
3.21363e-05
3.04688e-05
3.15494e-05
3.16287e-05
3.17086e-05
2.98451e-05
3.22322e-05
5.91669e-05
3.29115e-05
6.1467e-05
3.22316e-05
5.91672e-05
3.29107e-05
6.14653e-05
3.0506e-05
3.11011e-05
3.08744e-05
2.92111e-05
3.12882e-05
2.97462e-05
2.96675e-05
3.05058e-05
3.1101e-05
3.08744e-05
2.92005e-05
3.12881e-05
2.97359e-05
2.96667e-05
3.21009e-05
6.39029e-05
6.20799e-05
3.14576e-05
3.20999e-05
6.38998e-05
6.20778e-05
3.14558e-05
8.44386e-05
8.50921e-05
8.44473e-05
8.50972e-05
3.09524e-05
2.98893e-05
2.98842e-05
2.99223e-05
2.99128e-05
8.48513e-05
8.50889e-05
8.48549e-05
8.50936e-05
8.4602e-05
8.39152e-05
8.46007e-05
8.39136e-05
2.98886e-05
2.98868e-05
2.93351e-05
2.99993e-05
2.99979e-05
8.26228e-05
8.35248e-05
8.26212e-05
8.35213e-05
2.9027e-05
3.03051e-05
3.03028e-05
3.00742e-05
3.00744e-05
3.07289e-05
6.43531e-05
3.1324e-05
6.57508e-05
2.85829e-05
2.91089e-05
3.04666e-05
2.97928e-05
2.94006e-05
2.86406e-05
3.00656e-05
2.85804e-05
2.90929e-05
3.0466e-05
2.97908e-05
2.93986e-05
2.86415e-05
3.0065e-05
3.06218e-05
6.71039e-05
6.60742e-05
3.00831e-05
3.06219e-05
6.71042e-05
6.60732e-05
3.0074e-05
2.83333e-05
2.93701e-05
2.81594e-05
2.92818e-05
2.85642e-05
2.96707e-05
2.75428e-05
2.83307e-05
2.93686e-05
2.81596e-05
2.92812e-05
2.85576e-05
2.96701e-05
2.75401e-05
2.98624e-05
2.98842e-05
2.93352e-05
2.99913e-05
2.99949e-05
8.4607e-05
8.39171e-05
8.26227e-05
8.35252e-05
2.90273e-05
3.03003e-05
3.03018e-05
3.00732e-05
3.00741e-05
8.26245e-05
8.3525e-05
2.85806e-05
2.91031e-05
3.04665e-05
2.97928e-05
2.93987e-05
2.86393e-05
3.00654e-05
3.07262e-05
6.43532e-05
3.13252e-05
6.57508e-05
2.85794e-05
3.04665e-05
2.91092e-05
2.97928e-05
2.9398e-05
3.00654e-05
2.86503e-05
3.0619e-05
6.71007e-05
6.6072e-05
3.00779e-05
2.83307e-05
2.937e-05
2.81606e-05
2.92814e-05
2.85576e-05
2.96705e-05
2.7541e-05
3.06187e-05
6.71036e-05
6.60719e-05
3.00736e-05
2.83294e-05
2.937e-05
2.92813e-05
2.81694e-05
2.96704e-05
2.85634e-05
2.75394e-05
3.07363e-05
6.43578e-05
3.13314e-05
6.57556e-05
2.85848e-05
3.0467e-05
2.91056e-05
2.97935e-05
2.94028e-05
3.0066e-05
2.86475e-05
3.07366e-05
6.43603e-05
3.13305e-05
6.57562e-05
2.83353e-05
2.93705e-05
2.81603e-05
2.92821e-05
2.85669e-05
2.9671e-05
2.75447e-05
3.06284e-05
6.71081e-05
6.60767e-05
3.00824e-05
2.83354e-05
2.93707e-05
2.92821e-05
2.81674e-05
2.9671e-05
2.856e-05
2.75451e-05
3.06258e-05
6.71079e-05
6.60781e-05
3.00834e-05
2.99192e-05
2.99044e-05
2.93355e-05
3.00271e-05
3.00085e-05
8.46157e-05
8.39189e-05
8.26271e-05
8.35245e-05
2.90275e-05
3.03251e-05
3.03122e-05
3.01029e-05
3.00915e-05
8.26239e-05
8.35292e-05
2.85849e-05
3.04671e-05
2.9106e-05
2.97935e-05
2.94041e-05
3.00661e-05
2.86423e-05
3.07399e-05
6.43592e-05
3.13373e-05
6.5756e-05
3.07356e-05
6.43556e-05
3.13347e-05
6.5752e-05
2.83363e-05
2.93709e-05
2.92822e-05
2.8168e-05
2.96713e-05
2.85721e-05
2.75455e-05
2.83342e-05
2.93708e-05
2.9282e-05
2.81602e-05
2.96711e-05
2.85596e-05
2.75429e-05
3.06275e-05
6.71088e-05
6.60784e-05
3.00884e-05
3.06238e-05
6.71051e-05
6.60741e-05
3.0084e-05
8.46028e-05
8.39156e-05
8.46049e-05
8.39164e-05
2.90289e-05
3.03135e-05
3.02941e-05
3.0092e-05
3.00836e-05
8.26237e-05
8.35268e-05
8.26225e-05
8.35275e-05
8.21873e-05
8.12206e-05
8.21833e-05
8.12192e-05
3.04383e-05
3.04378e-05
2.75182e-05
3.07774e-05
3.07736e-05
7.98365e-05
8.07804e-05
7.98358e-05
8.07764e-05
2.72239e-05
3.13881e-05
3.13842e-05
3.09559e-05
3.09538e-05
2.9493e-05
6.73176e-05
2.99832e-05
6.80466e-05
2.65485e-05
2.80986e-05
2.88987e-05
2.81423e-05
2.73071e-05
2.77586e-05
2.85214e-05
2.65459e-05
2.80895e-05
2.88981e-05
2.81415e-05
2.73044e-05
2.77526e-05
2.85208e-05
2.94133e-05
6.86646e-05
6.81783e-05
2.90014e-05
2.94143e-05
6.86636e-05
6.81768e-05
2.89915e-05
2.63291e-05
2.77467e-05
2.7425e-05
2.77838e-05
2.76976e-05
2.81498e-05
2.56067e-05