/*--------------------------------*- C++ -*----------------------------------*\
| =========                 |                                                 |
| \\      /  F ield         | OpenFOAM: The Open Source CFD Toolbox           |
|  \\    /   O peration     | Version:  v1906                                 |
|   \\  /    A nd           | Web:      www.OpenFOAM.com                      |
|    \\/     M anipulation  |                                                 |
\*---------------------------------------------------------------------------*/
FoamFile
{
    version     2.0;
    format      ascii;
    class       volScalarField;
    location    "250";
    object      nut;
}
// * * * * * * * * * * * * * * * * * * * * * * * * * * * * * * * * * * * * * //

dimensions      [0 2 -1 0 0 0 0];


internalField   nonuniform List<scalar> 
42616
(
0.000233972
0.000233086
0.000233082
0.000233402
0.000232521
0.000227708
0.000227696
0.000223706
0.000230489
0.000220169
0.00022017
0.000208909
0.000227755
0.000211495
0.000211497
0.00019363
0.000224373
0.000202487
0.000202479
0.000179625
0.00022048
0.000193622
0.000193612
0.000167323
0.000216226
0.00018514
0.000185134
0.000156596
0.000211741
0.000177113
0.00017711
0.000147163
0.000207128
0.000169583
0.000169578
0.000138924
0.000202468
0.000162519
0.000162512
0.000131621
0.000197815
0.000155865
0.000155856
0.000125105
0.000193203
0.000149568
0.000149556
0.000118964
0.000188615
0.000143585
0.000143572
0.000113251
0.000184084
0.000137862
0.000137849
0.000107927
0.000179641
0.000132361
0.000132348
0.000102998
0.000175273
0.000127071
0.000127059
9.83291e-05
0.000170969
0.000122013
0.000122001
9.40779e-05
0.000166714
0.000117215
0.000117203
9.03854e-05
0.00016251
0.000112704
0.000112696
8.74243e-05
0.000158332
0.000108544
0.000108538
8.51202e-05
0.000154173
0.000104784
0.000104777
8.34989e-05
0.000234264
0.000234457
0.000234458
0.000234264
0.000234459
0.000234459
0.000234275
0.000234275
0.000234275
0.000234275
0.000234459
0.000234459
0.00023426
0.00023446
0.000234462
0.000234262
0.000233391
0.000226059
0.000233086
0.000233084
0.000229279
0.000229281
0.000233401
0.000226075
0.00023308
0.000233081
0.000229271
0.000229273
0.000233093
0.000229285
0.000229284
0.000233393
0.000226049
0.000233084
0.000229273
0.000229273
0.000226067
0.000223696
0.000212037
0.000227699
0.000227694
0.000222194
0.000222126
0.000223689
0.00021193
0.000227691
0.000227694
0.000222192
0.000222189
0.000227703
0.000222199
0.000222199
0.000223686
0.000212028
0.000227694
0.000222196
0.000222189
0.00021204
0.000208904
0.000196879
0.000220166
0.000220084
0.000213717
0.00021364
0.000208796
0.000196856
0.000220165
0.000220159
0.000213718
0.000213704
0.00022017
0.00021372
0.000213719
0.000208892
0.000196867
0.000220162
0.000213723
0.000213718
0.000196894
0.000193618
0.000182716
0.000211487
0.000211424
0.00020472
0.000204695
0.000193585
0.000182782
0.00021149
0.000211474
0.000204726
0.000204708
0.00021149
0.000204738
0.000204722
0.000193607
0.00018271
0.000211492
0.000204732
0.000204731
0.000182747
0.000179607
0.000170138
0.000202465
0.000202448
0.00019578
0.000195777
0.000179592
0.000170173
0.000202471
0.000202453
0.000195789
0.00019577
0.000202468
0.000195807
0.000195786
0.000179606
0.000170148
0.000202477
0.000195797
0.000195798
0.000170184
0.000167312
0.000159152
0.000193594
0.000193591
0.000187191
0.000187186
0.000167326
0.000159188
0.000193603
0.000193584
0.000187201
0.000187182
0.0001936
0.000187219
0.000187197
0.000167305
0.000159161
0.000193612
0.000187211
0.000187211
0.000159183
0.000156609
0.000149633
0.000185112
0.000185105
0.000179046
0.000179035
0.000156602
0.000149611
0.000185122
0.000185103
0.000179059
0.000179038
0.000185117
0.000179073
0.00017905
0.000156594
0.000149587
0.000185131
0.000179069
0.000179065
0.000149646
0.000147185
0.000141164
0.000177086
0.000177075
0.000171391
0.000171377
0.000147214
0.000141069
0.0001771
0.000177077
0.000171409
0.000171382
0.000177089
0.000171419
0.000171391
0.000147246
0.000141132
0.000177104
0.000171415
0.000171407
0.000141184
0.000138962
0.000133553
0.000169554
0.000169541
0.000164214
0.0001642
0.000139093
0.000133559
0.000169574
0.000169545
0.000164235
0.000164203
0.000169554
0.000164244
0.000164213
0.000138988
0.000133633
0.00016957
0.000164237
0.000164229
0.000133662
0.000131767
0.000126808
0.000162488
0.000162475
0.000157458
0.000157447
0.00013177
0.000126817
0.000162511
0.000162478
0.000157484
0.000157449
0.000162487
0.000157493
0.000157459
0.000131663
0.000126724
0.000162505
0.000157483
0.000157479
0.000126735
0.000125001
0.000120532
0.00015583
0.00015582
0.000151074
0.000151064
0.00012501
0.000120551
0.000155856
0.000155821
0.000151101
0.000151064
0.000155831
0.000151112
0.000151075
0.000125129
0.00012047
0.000155853
0.0001511
0.0001511
0.000120473
0.000118874
0.000114463
0.00014953
0.000149521
0.000145012
0.000145005
0.000118935
0.000114495
0.000149557
0.00014952
0.000145041
0.000145002
0.000149531
0.000145053
0.000145016
0.000118955
0.000114415
0.000149557
0.00014504
0.000145043
0.000114429
0.000113249
0.000108797
0.000143546
0.000143537
0.000139229
0.000139224
0.000113181
0.000108816
0.000143573
0.000143535
0.000139259
0.000139218
0.000143548
0.000139271
0.000139233
0.000113233
0.000108776
0.000143575
0.000139257
0.000139262
0.000108789
0.000107916
0.000103635
0.000137823
0.000137816
0.000133679
0.000133673
0.000107924
0.000103647
0.000137851
0.00013781
0.000133709
0.000133666
0.000137826
0.00013372
0.000133683
0.000107898
0.000103621
0.000137855
0.000133707
0.000133712
0.000103639
0.000102998
9.90388e-05
0.000132323
0.000132315
0.000128336
0.000128328
0.000103002
9.90278e-05
0.000132349
0.000132308
0.000128365
0.000128322
0.000132326
0.000128377
0.000128342
0.000102988
9.90125e-05
0.000132356
0.000128365
0.00012837
9.90393e-05
9.83308e-05
9.48619e-05
0.000127033
0.000127023
0.00012322
0.000123212
9.83612e-05
9.48151e-05
0.000127059
0.000127018
0.000123247
0.000123206
0.000127037
0.000123261
0.000123227
9.83393e-05
9.48194e-05
0.000127066
0.000123248
0.000123255
9.48688e-05
9.40878e-05
9.12879e-05
0.000121974
0.000121965
0.000118324
0.000118319
9.413e-05
9.1187e-05
0.000121997
0.00012196
0.000118353
0.000118315
0.00012198
0.000118368
0.000118334
9.41261e-05
9.13067e-05
0.000122008
0.000118358
0.000118364
9.13698e-05
9.04844e-05
8.82387e-05
0.000117181
0.00011717
0.000113749
0.000113745
9.05232e-05
8.81239e-05
0.000117196
0.000117159
0.000113779
0.000113736
0.000117185
0.00011379
0.000113759
9.04359e-05
8.82279e-05
0.000117209
0.000113782
0.000113782
8.82993e-05
8.7509e-05
8.57822e-05
0.000112671
0.00011266
0.000109491
0.000109489
8.759e-05
8.56733e-05
0.000112687
0.000112652
0.000109522
0.000109481
0.000112677
0.000109533
0.000109503
8.75258e-05
8.56659e-05
0.000112701
0.000109529
0.000109526
8.57926e-05
8.51136e-05
8.39149e-05
0.000108513
0.000108503
0.00010562
0.000105618
8.51768e-05
8.38561e-05
0.000108526
0.000108494
0.000105653
0.000105612
0.000108518
0.000105663
0.000105634
8.51409e-05
8.37418e-05
0.000108544
0.000105659
0.000105658
8.37139e-05
8.3368e-05
0.000104757
0.000104745
8.35039e-05
0.000104766
0.000104735
0.000104762
8.35692e-05
0.000104787
0.00023473
0.000234746
0.000234729
0.000234729
0.00023513
0.000234799
0.000235057
0.000234726
0.000235127
0.000234799
0.000234726
0.000234856
0.00023487
0.000233838
0.000233509
0.000104762
3.88283e-05
0.000128521
3.97908e-05
2.19571e-05
2.28559e-05
0.000104622
3.88412e-05
0.000128321
3.97875e-05
0.000233972
0.000233972
0.000233972
0.000232928
0.000232929
0.000232928
0.000232929
0.000206
9.30475e-05
0.000233967
0.000231962
0.000222322
8.65722e-05
0.000233605
2.19596e-05
2.28592e-05
0.000206039
0.000233966
9.32964e-05
0.000231954
0.000222323
0.000233605
8.64842e-05
4.72207e-05
4.71079e-05
0.000231283
4.36387e-05
4.34593e-05
7.26173e-05
4.24118e-05
8.13729e-05
4.37587e-05
2.47924e-05
2.54772e-05
7.25892e-05
4.24071e-05
8.13149e-05
4.37549e-05
0.000232522
0.000232521
0.000232522
0.000231062
0.000231057
0.000231062
0.000231063
0.000167342
7.88958e-05
0.000232058
0.000225988
0.000180006
7.39313e-05
0.000231348
2.47928e-05
2.54769e-05
0.00016734
0.000232058
7.88551e-05
0.000225977
0.000180017
0.000231346
7.40068e-05
3.9022e-05
3.89393e-05
0.000219416
3.64563e-05
3.63791e-05
5.63423e-05
4.55446e-05
6.12037e-05
4.64201e-05
2.60157e-05
2.61168e-05
5.63304e-05
4.55417e-05
6.12091e-05
4.64182e-05
0.000230482
0.000230489
0.00023049
0.000228504
0.000228492
0.000228503
0.000228504
0.00013856
6.70383e-05
0.000228595
0.000218069
0.000148017
6.30742e-05
0.000227481
2.60156e-05
2.61173e-05
0.000138575
0.000228593
6.69919e-05
0.000218073
0.000148007
0.000227479
6.31605e-05
3.32462e-05
3.31998e-05
0.000204431
3.20084e-05
3.19776e-05
4.70439e-05
4.75002e-05
4.9959e-05
4.80123e-05
2.60397e-05
2.59386e-05
4.70043e-05
4.74968e-05
5.00022e-05
4.80095e-05
0.000227745
0.000227754
0.000227756
0.000225272
0.000225269
0.000225272
0.000225274
0.000117527
5.79122e-05
0.000223646
0.000209249
0.000124598
5.51364e-05
0.00022223
2.60393e-05
2.59375e-05
0.000117533
0.000223649
5.79001e-05
0.000209248
0.000124639
0.000222232
5.51442e-05
3.06692e-05
3.06607e-05
0.000189631
3.03668e-05
3.03446e-05
4.14893e-05
4.85821e-05
4.3264e-05
4.88443e-05
2.56714e-05
2.55197e-05
4.14442e-05
4.85766e-05
4.33199e-05
4.88385e-05
0.000224372
0.000224372
0.000224375
0.000221493
0.000221496
0.000221492
0.000221496
0.000102089
5.16567e-05
0.000217682
0.000200243
0.000107454
4.97841e-05
0.00021609
2.5669e-05
2.55183e-05
0.000102096
0.000217683
5.16514e-05
0.000200233
0.000107448
0.000216088
4.98007e-05
3.02773e-05
3.02458e-05
0.000176266
3.04384e-05
3.0389e-05
3.81981e-05
4.90909e-05
3.92511e-05
4.9198e-05
2.52338e-05
2.50941e-05
3.81729e-05
4.9083e-05
3.92879e-05
4.91904e-05
0.000220483
0.00022048
0.000220483
0.000217316
0.000217319
0.000217316
0.000217319
9.04853e-05
4.75534e-05
0.000211174
0.00019146
9.45912e-05
4.63993e-05
0.000209508
2.52321e-05
2.50933e-05
9.04916e-05
0.000211173
4.75277e-05
0.00019145
9.45892e-05
0.000209503
4.63887e-05
3.11197e-05
3.10352e-05
0.00016448
3.15564e-05
3.14836e-05
3.63888e-05
4.92677e-05
3.69485e-05
4.92954e-05
2.48457e-05
2.47334e-05
3.63787e-05
4.92613e-05
3.69616e-05
4.92896e-05
0.000216229
0.000216226
0.000216228
0.000212877
0.000212878
0.000212877
0.000212878
8.15974e-05
4.49734e-05
0.000204484
0.000183087
8.48273e-05
4.4391e-05
0.000202813
2.48444e-05
2.47324e-05
8.16339e-05
0.000204482
4.50071e-05
0.000183081
8.48183e-05
0.000202808
4.43623e-05
3.26736e-05
3.26328e-05
0.000154279
3.33181e-05
3.32589e-05
3.56948e-05
4.92845e-05
3.58291e-05
4.92816e-05
2.45337e-05
2.44476e-05
3.5684e-05
4.92802e-05
3.58258e-05
4.92777e-05
0.000211741
0.00021174
0.00021174
0.000208288
0.000208287
0.000208286
0.000208285
7.47118e-05
4.36176e-05
0.000197847
0.000175184
7.7232e-05
4.34281e-05
0.000196214
2.45323e-05
2.44469e-05
7.46693e-05
0.000197845
4.36442e-05
0.000175179
7.7227e-05
0.000196209
4.33711e-05
3.47058e-05
3.46847e-05
0.000145274
3.54584e-05
3.54542e-05
3.5809e-05
4.92438e-05
3.56452e-05
4.92413e-05
2.4293e-05
2.42307e-05
3.57561e-05
4.924e-05
3.56794e-05
4.92388e-05
0.000207127
0.000207126
0.000207124
0.000203634
0.000203632
0.00020363
0.000203628
6.92818e-05
4.3113e-05
0.000191399
0.000167775
7.13074e-05
4.3134e-05
0.00018982
2.42924e-05
2.42272e-05
6.92219e-05
0.000191396
4.30999e-05
0.00016777
7.13393e-05
0.000189813
4.31674e-05
3.70147e-05
3.70146e-05
0.000137301
3.7839e-05
3.78454e-05
3.659e-05
4.92174e-05
3.62056e-05
4.92152e-05
2.41148e-05
2.40679e-05
3.65441e-05
4.92143e-05
3.62493e-05
4.92136e-05
0.000202466
0.000202464
0.000202463
0.000198974
0.000198973
0.000198969
0.00019897
6.49278e-05
4.33138e-05
0.000185166
0.000160818
6.65713e-05
4.34298e-05
0.000183646
2.41155e-05
2.40698e-05
6.49045e-05
0.000185161
4.32473e-05
0.000160811
6.65857e-05
0.000183636
4.35302e-05
3.94842e-05
3.94852e-05
0.000130167
4.0338e-05
4.0343e-05
3.80276e-05
4.92158e-05
3.74199e-05
4.92207e-05
2.39891e-05
2.39505e-05
3.7958e-05
4.92131e-05
3.74706e-05
4.92204e-05
0.000197814
0.00019781
0.000197811
0.000194349
0.000194349
0.000194343
0.000194346
6.15468e-05
4.40338e-05
0.00017919
0.000154259
6.27783e-05
4.42821e-05
0.000177741
2.39822e-05
2.39551e-05
6.15178e-05
0.000179183
4.39351e-05
0.000154249
6.27878e-05
0.00017773
4.43716e-05
4.20202e-05
4.20019e-05
0.000123499
4.28402e-05
4.28559e-05
3.99675e-05
4.92395e-05
3.92419e-05
4.92447e-05
2.38986e-05
2.38686e-05
3.99455e-05
4.92273e-05
3.92741e-05
4.92513e-05
0.000193204
0.000193197
0.000193201
0.000189761
0.000189763
0.000189755
0.00018976
5.89606e-05
4.51724e-05
0.000173493
0.000148043
5.98559e-05
4.55348e-05
0.000172107
2.38899e-05
2.38741e-05
5.8939e-05
0.000173485
4.50831e-05
0.00014803
5.98801e-05
0.000172096
4.56308e-05
4.45094e-05
4.45012e-05
0.000117402
4.53203e-05
4.53026e-05
4.24627e-05
4.92745e-05
4.15754e-05
4.92837e-05
2.38348e-05
2.38116e-05
4.24367e-05
4.92635e-05
4.15961e-05
4.92891e-05
0.000188616
0.000188608
0.000188613
0.000185208
0.00018521
0.000185201
0.000185207
5.71009e-05
4.66718e-05
0.000168042
0.000142131
5.7722e-05
4.71484e-05
0.000166715
2.38253e-05
2.38174e-05
5.70932e-05
0.000168035
4.66164e-05
0.000142118
5.77107e-05
0.000166703
4.7188e-05
4.68827e-05
4.68806e-05
0.000111557
4.766e-05
4.76572e-05
4.53458e-05
4.93148e-05
4.43616e-05
4.9325e-05
2.37899e-05
2.37711e-05
4.53639e-05
4.9305e-05
4.43765e-05
4.93297e-05
0.000184086
0.000184077
0.000184084
0.000180744
0.000180746
0.000180737
0.000180743
5.59982e-05
4.84651e-05
0.000162805
0.000136469
5.6274e-05
4.9037e-05
0.000161526
2.37798e-05
2.37772e-05
5.59578e-05
0.000162798
4.84336e-05
0.000136455
5.62732e-05
0.000161516
4.90613e-05
4.91333e-05
4.9119e-05
0.000106147
4.98285e-05
4.98293e-05
4.86006e-05
4.93547e-05
4.7514e-05
4.93635e-05
2.37573e-05
2.37421e-05
4.86047e-05
4.93451e-05
4.75144e-05
4.93683e-05
0.000179643
0.000179633
0.000179641
0.000176358
0.00017636
0.00017635
0.000176358
5.54619e-05
5.04385e-05
0.000157748
0.000131021
5.55236e-05
5.11672e-05
0.00015651
2.37476e-05
2.3744e-05
5.5381e-05
0.000157743
5.04681e-05
0.000131007
5.55636e-05
0.000156502
5.11537e-05
5.11856e-05
5.12034e-05
0.000101279
5.18479e-05
5.18264e-05
5.20324e-05
4.93905e-05
5.0877e-05
4.93991e-05
2.37304e-05
2.37205e-05
5.20514e-05
4.93818e-05
5.08771e-05
4.9403e-05
0.000175275
0.000175265
0.000175273
0.000172038
0.000172039
0.000172031
0.000172038
5.55585e-05
5.26172e-05
0.000152843
0.000125789
5.5426e-05
5.33773e-05
0.000151642
2.37241e-05
2.37205e-05
5.5521e-05
0.00015284
5.26363e-05
0.000125775
5.54701e-05
0.000151634
5.33337e-05
5.30611e-05
5.30814e-05
9.69013e-05
5.36524e-05
5.36494e-05
5.5561e-05
4.94237e-05
5.43173e-05
4.94313e-05
2.37082e-05
2.37016e-05
5.55885e-05
4.9415e-05
5.4289e-05
4.94347e-05
0.00017097
0.000170961
0.00017097
0.00016777
0.000167772
0.000167764
0.000167771
5.62657e-05
5.488e-05
0.000148088
0.000120793
5.59545e-05
5.56179e-05
0.00014692
2.37049e-05
2.37003e-05
5.62823e-05
0.000148085
5.49139e-05
0.00012078
5.59678e-05
0.000146913
5.56062e-05
5.47626e-05
5.47655e-05
9.30621e-05
5.53105e-05
5.53132e-05
5.89793e-05
4.94539e-05
5.77128e-05
4.9461e-05
2.36894e-05
2.36847e-05
5.89876e-05
4.94458e-05
5.77037e-05
4.94637e-05
0.000166716
0.000166707
0.000166716
0.000163553
0.000163554
0.000163547
0.000163554
5.75638e-05
5.71595e-05
0.000143447
0.000116047
5.70664e-05
5.78897e-05
0.000142304
2.3687e-05
2.36826e-05
5.75679e-05
0.000143446
5.71578e-05
0.000116038
5.70729e-05
0.000142299
5.79278e-05
5.6311e-05
5.63115e-05
8.97595e-05
5.67751e-05
5.67753e-05
6.21791e-05
4.94827e-05
6.09671e-05
4.94892e-05
2.36728e-05
2.36683e-05
6.22077e-05
4.94803e-05
6.09479e-05
4.94864e-05
0.000162513
0.000162504
0.000162514
0.00015937
0.000159371
0.000159365
0.000159371
5.93949e-05
5.94243e-05
0.000138903
0.000111615
5.87044e-05
6.0126e-05
0.000137788
2.36706e-05
2.36665e-05
5.93962e-05
0.000138904
5.94077e-05
0.000111609
5.87217e-05
0.000137787
6.01626e-05
5.76976e-05
5.76961e-05
8.69738e-05
5.8115e-05
5.8116e-05
6.5078e-05
4.95092e-05
6.39913e-05
4.95147e-05
2.36574e-05
2.36535e-05
6.5113e-05
4.9507e-05
6.39731e-05
4.95123e-05
0.000158336
0.000158326
0.000158337
0.000155206
0.000155207
0.000155201
0.000155208
6.16368e-05
6.16083e-05
0.000134463
0.000107546
6.07976e-05
6.23595e-05
0.000133381
2.36553e-05
2.36515e-05
6.16156e-05
0.000134463
6.15996e-05
0.000107542
6.08182e-05
0.00013338
6.23457e-05
5.89458e-05
5.89464e-05
8.45899e-05
5.93286e-05
5.93261e-05
6.76801e-05
4.95313e-05
6.67114e-05
4.95428e-05
2.36434e-05
2.36398e-05
4.9532e-05
6.66949e-05
4.95371e-05
0.000154178
0.000154168
0.000154179
6.41958e-05
6.36831e-05
0.000130141
0.000103918
6.32595e-05
6.44292e-05
0.000129097
2.3641e-05
6.42201e-05
0.000130141
6.36822e-05
6.32992e-05
0.0001291
6.00817e-05
6.00833e-05
8.30252e-05
6.0429e-05
6.04269e-05
0.000234871
0.000233486
0.000233277
2.2922e-05
0.000214721
2.28488e-05
0.000214387
0.000234429
5.04136e-05
5.05301e-05
0.000228847
0.000228112
0.000235126
0.0002348
0.000235375
0.000234726
0.000235126
0.000234801
0.00023493
0.000234726
0.000234321
4.04208e-05
0.000212965
0.000147115
0.000234328
4.03487e-05
0.000218243
0.000147257
0.000233844
0.000234471
9.93562e-05
0.000234271
0.000232367
0.000234597
0.000228345
0.000233834
0.000234469
9.78708e-05
0.00023427
0.000233248
0.000234597
0.000228274
0.000234875
0.000233488
0.000233617
2.28886e-05
0.000214448
0.000234424
4.98665e-05
5.05529e-05
0.000229059
0.000228936
2.29116e-05
0.000214551
0.000235125
0.0002348
0.000234915
0.000234727
0.000235121
0.0002348
0.000234726
0.000234925
0.000234321
4.03348e-05
0.00021813
0.000147077
0.000233837
0.00023447
9.77979e-05
0.00023427
0.000233237
0.000234597
0.000228284
0.000234337
4.03565e-05
0.000218171
0.000147117
0.000233871
0.00023447
0.000234271
9.78509e-05
0.000234597
0.000233251
0.000228337
0.00023473
0.000234746
0.000234729
0.000234729
0.00023473
0.000234746
0.000234729
0.000234729
0.00023473
0.000234746
0.000234729
0.000234729
0.000234591
0.000234573
0.000234253
0.000234253
0.000234592
0.000234592
0.000234252
0.000234591
0.000234573
0.000234253
0.000234253
0.000234592
0.000234592
0.000234252
0.000234591
0.000234573
0.000234253
0.000234253
0.000234592
0.000234592
0.000234252
0.000234591
0.000234574
0.000234253
0.000234253
0.000234592
0.000234592
0.000234252
0.000235127
0.000234798
0.000234726
0.000235035
0.000233824
0.000234472
9.94474e-05
0.000234271
0.000233136
0.000234597
0.0002283
0.000234313
4.04172e-05
0.000212961
0.000147025
0.000233835
0.000234473
0.00023427
9.97938e-05
0.000234597
0.000233227
0.000228303
0.000234311
4.04129e-05
0.000213682
0.000147182
0.000234872
0.000233436
0.000233492
2.30212e-05
0.000214133
0.000234426
5.05696e-05
5.05096e-05
0.000228813
0.000229001
2.29403e-05
0.000214219
0.000235126
0.000234798
0.000234726
0.000235033
0.000233834
0.000234471
0.000234271
9.7925e-05
0.000234597
0.00023325
0.000228276
0.000233837
0.000234472
0.000234271
9.96591e-05
0.000234597
0.000233176
0.000228321
0.000234314
4.03453e-05
0.000218152
0.000147096
0.000234335
4.04141e-05
0.000213064
0.000147179
0.000234425
4.97075e-05
4.97035e-05
0.000230174
0.00022992
2.28422e-05
0.000214349
2.28056e-05
0.000214267
2.19741e-05
2.28875e-05
2.20911e-05
2.28789e-05
4.72899e-05
4.74668e-05
0.000231275
4.36075e-05
4.35374e-05
2.4514e-05
2.33455e-05
2.45147e-05
2.33417e-05
0.000229575
3.97926e-05
3.97936e-05
4.27756e-05
4.27245e-05
0.000104753
3.88267e-05
0.000128432
3.97867e-05
0.000206137
9.2638e-05
0.000233967
0.000231962
0.000222419
8.64748e-05
0.000233607
0.000206114
9.29331e-05
0.000233967
0.00023196
0.00022236
8.64143e-05
0.000233607
9.83727e-05
4.19425e-05
4.0337e-05
8.55418e-05
9.8345e-05
4.19403e-05
4.03324e-05
8.55135e-05
0.000199966
0.000230701
8.00922e-05
0.00023267
8.48913e-05
0.000233182
0.000185446
0.000199936
0.000230704
8.00357e-05
0.000232669
8.48716e-05
0.000233181
0.000185406
4.73718e-05
4.74955e-05
0.000231292
4.37169e-05
4.36704e-05
2.19451e-05
2.28867e-05
2.45043e-05
2.33364e-05
0.000229594
3.9724e-05
3.98797e-05
4.28052e-05
4.28647e-05
2.45198e-05
2.3347e-05
0.000205974
9.28904e-05
0.000233966
0.000231953
0.000222296
8.63837e-05
0.000233603
0.000104733
3.88232e-05
0.000128495
3.97888e-05
0.000206095
0.000233967
9.28802e-05
0.000231954
0.00022241
0.000233607
8.64081e-05
9.82456e-05
4.1938e-05
4.03361e-05
8.54699e-05
0.000199813
0.000230692
8.00549e-05
0.000232662
8.48993e-05
0.000233176
0.000185335
9.83454e-05
4.19383e-05
4.0332e-05
8.55322e-05
0.000199936
0.000230693
0.000232669
8.00923e-05
0.00023318
8.49038e-05
0.000185431
0.000104617
3.88076e-05
0.000128308
3.97948e-05
0.000206075
0.000233967
9.25183e-05
0.000231964
0.000222351
0.000233607
8.63214e-05
0.000104697
3.88108e-05
0.000128399
3.97931e-05
0.000199853
0.000230704
8.01967e-05
0.000232666
8.50033e-05
0.000233178
0.000185388
9.82558e-05
4.19416e-05
4.03288e-05
8.54901e-05
0.000199917
0.000230704
0.000232669
8.00451e-05
0.00023318
8.47963e-05
0.00018544
9.83305e-05
4.19409e-05
4.03316e-05
8.55337e-05
4.7421e-05
4.73996e-05
0.000231265
4.36239e-05
4.36668e-05
2.17914e-05
2.28888e-05
2.45052e-05
2.33376e-05
0.000229562
3.98914e-05
3.98814e-05
4.28233e-05
4.28258e-05
2.45181e-05
2.3346e-05
0.000206101
0.000233968
9.23567e-05
0.000231954
0.000222401
0.000233608
8.62048e-05
0.000104676
3.88208e-05
0.000128378
3.979e-05
0.000104718
3.88079e-05
0.000128511
3.97912e-05
0.000199888
0.000230695
0.000232666
8.01666e-05
0.000233179
8.51015e-05
0.000185413
0.000199936
0.000230694
0.000232668
7.99815e-05
0.000233181
8.46698e-05
0.00018541
9.83323e-05
4.19397e-05
4.03291e-05
8.55271e-05
9.83605e-05
4.19413e-05
4.03292e-05
8.55186e-05
2.19976e-05
2.28802e-05
2.20865e-05
2.28873e-05
0.000229581
3.98395e-05
3.97462e-05
4.27945e-05
4.26089e-05
2.45119e-05
2.33406e-05
2.45197e-05
2.33495e-05
2.48032e-05
2.54851e-05
2.48028e-05
2.54846e-05
3.8988e-05
3.89814e-05
0.000219409
3.64046e-05
3.64048e-05
2.59651e-05
2.56345e-05
2.59646e-05
2.56342e-05
0.000216572
3.37926e-05
3.37779e-05
3.56805e-05
3.56749e-05
7.26052e-05
4.24103e-05
8.13523e-05
4.37558e-05
0.00016731
7.87924e-05
0.000232061
0.000225978
0.000180046
7.38693e-05
0.000231348
0.000167276
7.86696e-05
0.000232058
0.000225957
0.000180008
7.37339e-05
0.000231344
6.96863e-05
4.52412e-05
4.41419e-05
6.32809e-05
6.9677e-05
4.52374e-05
4.41374e-05
6.32781e-05
0.000162768
0.000224138
6.8135e-05
0.000229609
7.26571e-05
0.000230531
0.00015174
0.000162751
0.000224093
6.79809e-05
0.000229599
7.23768e-05
0.000230523
0.000151722
3.87693e-05
3.90681e-05
0.000219347
3.59342e-05
3.64232e-05
2.48077e-05
2.5489e-05
2.59593e-05
2.56278e-05
0.0002165
3.33835e-05
3.37723e-05
3.51723e-05
3.57056e-05
2.59678e-05
2.5638e-05
0.000167258
7.87434e-05
0.000232052
0.000225973
0.000179943
7.39193e-05
0.000231339
7.26242e-05
4.2408e-05
8.13677e-05
4.37529e-05
0.000167324
0.00023206
7.87999e-05
0.000225975
0.000180033
0.000231348
7.38769e-05
6.96758e-05
4.52389e-05
4.41377e-05
6.32829e-05
0.000162733
0.000224133
6.81795e-05
0.000229603
7.25874e-05
0.000230524
0.000151733
6.97021e-05
4.52354e-05
4.41349e-05
6.32922e-05
0.000162779
0.000224134
0.00022961
6.8139e-05
0.000230531
7.26605e-05
0.000151757
7.26238e-05
4.24131e-05
8.1345e-05
4.37595e-05
0.000167358
0.000232061
7.8728e-05
0.000225983
0.000180046
0.000231351
7.39063e-05
7.26474e-05
4.24131e-05
8.13752e-05
4.37586e-05
0.000162788
0.000224145
6.81633e-05
0.000229614
7.27101e-05
0.000230533
0.000151823
6.971e-05
4.52424e-05
4.41414e-05
6.33036e-05
0.000162814
0.000224142
0.000229616
6.81761e-05
0.000230535
7.25775e-05
0.000151807
6.97219e-05
4.52418e-05
4.41409e-05
6.3311e-05
3.90918e-05
3.90678e-05
0.000219402
3.64751e-05
3.64744e-05
2.4807e-05
2.54862e-05
2.59592e-05
2.56266e-05
0.000216565
3.38298e-05
3.38306e-05
3.57487e-05
3.57278e-05
2.59658e-05
2.56359e-05
0.000167309
0.000232058
7.86716e-05
0.000225973
0.000180015
0.000231346
7.38652e-05
7.26336e-05
4.24116e-05
8.13667e-05
4.37576e-05
7.26263e-05
4.24131e-05
8.13578e-05
4.37586e-05
0.000162774
0.000224139
0.000229611
6.82497e-05
0.000230531
7.26645e-05
0.000151828
0.000162784
0.000224134
0.000229609
6.81451e-05
0.000230529
7.25426e-05
0.000151781
6.97139e-05
4.52403e-05
4.41395e-05
6.33168e-05
6.9703e-05
4.52404e-05
4.41402e-05
6.33072e-05
2.48015e-05
2.54832e-05
2.48078e-05
2.54859e-05
0.000216579
3.38201e-05
3.37718e-05
3.5694e-05
3.56407e-05
2.5964e-05
2.56331e-05
2.59644e-05
2.56351e-05
2.60213e-05
2.61217e-05
2.60207e-05
2.61207e-05
3.32239e-05
3.32108e-05
0.000204426
3.19812e-05
3.19621e-05
2.609e-05
2.6121e-05
2.60877e-05
2.61198e-05
0.000201157
3.08983e-05
3.08887e-05
3.15954e-05
3.15808e-05
5.63409e-05
4.55397e-05
6.12041e-05
4.64175e-05
0.000138476
6.69999e-05
0.000228587
0.000218068
0.000147987
6.30683e-05
0.000227472
0.000138464
6.67528e-05
0.000228575
0.000217981
0.000147983
6.30131e-05
0.000227459
5.4836e-05
4.73309e-05
4.6652e-05
5.10839e-05
5.48331e-05
4.733e-05
4.66483e-05
5.10783e-05
0.000135378
0.000215915
5.88123e-05
0.000224989
6.20477e-05
0.00022627
0.000127161
0.000135375
0.000215829
5.87684e-05
0.000224975
6.18886e-05
0.000226256
0.000127151
3.28401e-05
3.32179e-05
0.000204343
3.18079e-05
3.19618e-05
2.60237e-05
2.61233e-05
2.60867e-05
2.61164e-05
0.000201082
3.08286e-05
3.08939e-05
3.14328e-05
3.15785e-05
2.60905e-05
2.61223e-05
0.000138473
6.69349e-05
0.000228585
0.000218068
0.000147986
6.31183e-05
0.00022747
5.63232e-05
4.5538e-05
6.12202e-05
4.64147e-05
0.000138471
0.000228589
6.69958e-05
0.000218059
0.000148004
0.000227473
6.30691e-05
5.48556e-05
4.73285e-05
4.66489e-05
5.10422e-05
0.00013539
0.000215915
5.8792e-05
0.000224988
6.19768e-05
0.000226271
0.00012716
5.48586e-05
4.73262e-05
4.66457e-05
5.10524e-05
0.00013539
0.000215904
0.000224988
5.88299e-05
0.000226271
6.20437e-05
0.000127151
5.63496e-05
4.55446e-05
6.12368e-05
4.64214e-05
0.000138528
0.000228597
6.69402e-05
0.000218072
0.000148039
0.000227483
6.31262e-05
5.63631e-05
4.55438e-05
6.12373e-05
4.64206e-05
0.000135392
0.000215917
5.87484e-05
0.000224999
6.20653e-05
0.00022628
0.000127241
5.48641e-05
4.73323e-05
4.66521e-05
5.10962e-05
0.000135417
0.000215918
0.000224999
5.88061e-05
0.000226281
6.19881e-05
0.000127191
5.48566e-05
4.73312e-05
4.6651e-05
5.10971e-05
3.32708e-05
3.32533e-05
0.000204413
3.20136e-05
3.20095e-05
2.6022e-05
2.61219e-05
2.60867e-05
2.61169e-05
0.000201141
3.09342e-05
3.09226e-05
3.1634e-05
3.16157e-05
2.60775e-05
2.61218e-05
0.000138525
0.000228591
6.69153e-05
0.000218066
0.000148037
0.000227479
6.30959e-05
5.63611e-05
4.55422e-05
6.12412e-05
4.64189e-05
5.63492e-05
4.55422e-05
6.12395e-05
4.64183e-05
0.000135394
0.000215921
0.000225
5.87669e-05
0.000226281
6.20266e-05
0.000127202
0.00013543
0.000215914
0.000224999
5.8781e-05
0.000226279
6.19845e-05
0.000127195
5.48763e-05
4.73294e-05
4.66495e-05
5.10858e-05
5.48789e-05
4.73283e-05
4.66486e-05
5.10761e-05
2.60203e-05
2.61206e-05
2.60204e-05
2.61202e-05
0.000201162
3.09348e-05
3.09018e-05
3.16161e-05
3.1591e-05
2.60888e-05
2.612e-05
2.6088e-05
2.61194e-05
2.60427e-05
2.59402e-05
2.60414e-05
2.59381e-05
3.06535e-05
3.06427e-05
0.000189607
3.0346e-05
3.03366e-05
2.57404e-05
2.58802e-05
2.57377e-05
2.58774e-05
0.000186412
3.02397e-05
3.02241e-05
3.02503e-05
3.0244e-05
4.69971e-05
4.74985e-05
4.99549e-05
4.80126e-05
0.000117508
5.7855e-05
0.000223636
0.000209238
0.000124599
5.51942e-05
0.000222221
0.000117494
5.77926e-05
0.000223622
0.000209189
0.00012459
5.51934e-05
0.000222208
4.61957e-05
4.85043e-05
4.81307e-05
4.39188e-05
4.62292e-05
4.85044e-05
4.81298e-05
4.38595e-05
0.00011539
0.00020698
5.22421e-05
0.000219232
5.44076e-05
0.00022075
0.000109255
0.000115379
0.000206944
5.22402e-05
0.000219221
5.43793e-05
0.000220738
0.000109249
3.06154e-05
3.06403e-05
0.000189639
3.03287e-05
3.03474e-05
2.60431e-05
2.59412e-05
2.57392e-05
2.58788e-05
0.000186399
3.02162e-05
3.02358e-05
3.02521e-05
3.02402e-05
2.57404e-05
2.58794e-05
0.00011751
5.78275e-05
0.000223637
0.000209242
0.000124609
5.51864e-05
0.00022222
4.6992e-05
4.7494e-05
4.99869e-05
4.80074e-05
0.000117493
0.000223633
5.78358e-05
0.000209226
0.000124595
0.000222216
5.52174e-05
4.62321e-05
4.85007e-05
4.81267e-05
4.38771e-05
0.000115395
0.000206985
5.22475e-05
0.00021923
5.43822e-05
0.00022075
0.000109258
4.62278e-05
4.84988e-05
4.8124e-05
4.38655e-05
0.000115377
0.000206968
0.000219224
5.22676e-05
0.000220743
5.43835e-05
0.000109238
4.70157e-05
4.75008e-05
4.99758e-05
4.80136e-05
0.000117524
0.000223645
5.78242e-05
0.00020924
0.000124625
0.000222228
5.52066e-05
4.70176e-05
4.74994e-05
4.99731e-05
4.80122e-05
0.000115404
0.000206996
5.21856e-05
0.000219241
5.44575e-05
0.000220759
0.000109279
4.62447e-05
4.85049e-05
4.8131e-05
4.38774e-05
0.00011541
0.000206982
0.000219238
5.2262e-05
0.000220756
5.43776e-05
0.000109264
4.62369e-05
4.85032e-05
4.81291e-05
4.38803e-05
3.06863e-05
3.06704e-05
0.000189598
3.03757e-05
3.03493e-05
2.60513e-05
2.59403e-05
2.57375e-05
2.58763e-05
0.000186407
3.02535e-05
3.02248e-05
3.0277e-05
3.02761e-05
2.57389e-05
2.58799e-05
0.000117526
0.000223647
5.78247e-05
0.000209245
0.000124631
0.00022223
5.51847e-05
4.70554e-05
4.74982e-05
5.00026e-05
4.80108e-05
4.70531e-05
4.74964e-05
4.99983e-05
4.80092e-05
0.000115415
0.000206992
0.000219241
5.21983e-05
0.000220762
5.44638e-05
0.00010927
0.000115401
0.000206989
0.000219238
5.22393e-05
0.000220758
5.4377e-05
0.000109257
4.62177e-05
4.85023e-05
4.81288e-05
4.39269e-05
4.62066e-05
4.85007e-05
4.81262e-05
4.392e-05
2.60416e-05
2.59388e-05
2.60409e-05
2.59379e-05
0.000186426
3.02325e-05
3.01992e-05
3.02652e-05
3.02564e-05
2.57386e-05
2.58789e-05
2.57376e-05
2.5878e-05
2.56724e-05
2.55211e-05
2.56693e-05
2.55184e-05
3.0246e-05
3.02431e-05
0.000176227
3.04554e-05
3.04431e-05
2.53025e-05
2.54516e-05
2.52998e-05
2.54485e-05
0.000173244
3.09076e-05
3.08922e-05
3.05462e-05
3.05384e-05
4.14319e-05
4.85811e-05
4.33058e-05
4.88438e-05
0.000102084
5.16025e-05
0.000217673
0.000200219
0.000107406
4.98764e-05
0.000216081
0.000102068
5.1569e-05
0.000217662
0.000200209
0.000107421
4.98547e-05
0.000216071
4.09887e-05
4.90657e-05
4.8891e-05
3.96051e-05
4.10255e-05
4.90646e-05
4.889e-05
3.95747e-05
0.000100543
0.000197991
4.79565e-05
0.000212822
4.93027e-05
0.000214462
9.58786e-05
0.000100543