/*--------------------------------*- C++ -*----------------------------------*\
| =========                 |                                                 |
| \\      /  F ield         | OpenFOAM: The Open Source CFD Toolbox           |
|  \\    /   O peration     | Version:  v1906                                 |
|   \\  /    A nd           | Web:      www.OpenFOAM.com                      |
|    \\/     M anipulation  |                                                 |
\*---------------------------------------------------------------------------*/
FoamFile
{
    version     2.0;
    format      ascii;
    class       surfaceScalarField;
    location    "250";
    object      phi;
}
// * * * * * * * * * * * * * * * * * * * * * * * * * * * * * * * * * * * * * //

dimensions      [0 3 -1 0 0 0 0];
oriented        oriented;


internalField   nonuniform List<scalar> 
123728
(
-0.00104218
-1.4632e-05
-1.45282e-05
9.38396e-06
9.21449e-06
0.00105274
-0.00026149
-5.68412e-06
1.45094e-05
6.88938e-06
0.00105925
-4.59338e-06
-1.59784e-06
-2.12124e-06
-2.49089e-06
-6.62484e-06
-7.11546e-06
-2.98622e-06
-0.000263332
-0.000259761
-0.000262856
-0.000261467
-5.68905e-06
1.45382e-05
6.97903e-06
0.00105904
-4.59879e-06
-1.60786e-06
-2.12878e-06
-2.49515e-06
-6.61906e-06
-7.1114e-06
-2.98823e-06
-0.000259733
-0.000263303
-0.00026282
-0.000260564
5.65966e-06
5.69973e-06
-4.95405e-06
-4.94793e-06
0.000259106
-1.65182e-06
-1.65477e-06
-0.0010608
9.34243e-07
9.34056e-07
0.00106223
-0.00106275
-1.61799e-06
1.64774e-06
8.29362e-07
0.00106394
-6.79212e-07
8.35668e-07
-9.84414e-08
4.23433e-07
-8.5037e-07
-1.4314e-06
-2.54847e-07
-0.00106242
-1.61354e-06
1.65954e-06
8.26466e-07
0.00106362
-6.80102e-07
8.29483e-07
-9.92368e-08
4.2058e-07
-8.52844e-07
-1.43159e-06
-2.52274e-07
-0.000261567
1.65103e-06
1.61392e-06
-6.98552e-07
-7.01414e-07
0.000259702
-1.37488e-06
-1.3767e-06
-0.00106636
6.96582e-07
6.96897e-07
0.00106772
-0.00106788
-1.57168e-06
1.38087e-06
6.88121e-07
0.00106923
-6.56197e-07
8.79342e-07
-7.23829e-08
4.61545e-07
-8.37421e-07
-1.39918e-06
-2.21458e-07
-0.00106756
-1.56722e-06
1.37616e-06
6.95801e-07
0.0010689
-6.57139e-07
8.73308e-07
-7.30949e-08
4.61391e-07
-8.37227e-07
-1.39367e-06
-2.18939e-07
-0.000262803
1.60237e-06
1.56764e-06
-6.6369e-07
-6.71594e-07
0.000260968
-1.34998e-06
-1.35047e-06
-0.00107181
6.75065e-07
6.76664e-07
0.00107316
-0.00107323
-1.57264e-06
1.35021e-06
6.66902e-07
0.00107454
-6.53687e-07
9.00413e-07
-5.3254e-08
4.75914e-07
-8.27987e-07
-1.40433e-06
-1.94476e-07
-0.00107289
-1.56672e-06
1.35131e-06
6.65862e-07
0.00107421
-6.50501e-07
8.95749e-07
-5.48911e-08
4.751e-07
-8.30973e-07
-1.40485e-06
-1.925e-07
-0.00026408
1.5998e-06
1.56722e-06
-6.55635e-07
-6.6142e-07
0.00026223
-1.30384e-06
-1.3037e-06
-0.00107714
6.50662e-07
6.52659e-07
0.00107845
-0.0010784
-1.56439e-06
1.3039e-06
6.36205e-07
0.00107965
-6.38867e-07
9.24719e-07
-3.49719e-08
4.95149e-07
-8.09556e-07
-1.4031e-06
-1.64667e-07
-0.00107806
-1.55852e-06
1.30423e-06
6.35289e-07
0.00107932
-6.35727e-07
9.19807e-07
-3.65895e-08
4.94776e-07
-8.12335e-07
-1.40325e-06
-1.62473e-07
-0.000265299
1.59159e-06
1.55898e-06
-6.40108e-07
-6.45809e-07
0.000263434
-1.2533e-06
-1.25468e-06
-0.00108228
6.26588e-07
6.2802e-07
0.00108354
-0.00108333
-1.55504e-06
1.25374e-06
6.0629e-07
0.00108452
-6.24198e-07
9.47028e-07
-1.38915e-08
5.16131e-07
-7.89012e-07
-1.39693e-06
-1.36842e-07
-0.00108299
-1.54961e-06
1.25361e-06
6.06528e-07
0.00108418
-6.21429e-07
9.41657e-07
-1.6547e-08
5.1616e-07
-7.91501e-07
-1.39668e-06
-1.34408e-07
-0.000266443
1.58241e-06
1.54978e-06
-6.24088e-07
-6.29457e-07
0.000264565
-1.20661e-06
-1.20873e-06
-0.00108722
6.04972e-07
6.05973e-07
0.00108843
-0.00108801
-1.54746e-06
1.20717e-06
5.82809e-07
0.00108914
-6.12103e-07
9.66459e-07
3.50975e-09
5.37532e-07
-7.69628e-07
-1.38891e-06
-1.12184e-07
-0.00108766
-1.54208e-06
1.207e-06
5.83071e-07
0.0010888
-6.09389e-07
9.61035e-07
8.03831e-10
5.37621e-07
-7.72106e-07
-1.38859e-06
-1.09783e-07
-0.000267514
1.57491e-06
1.54209e-06
-6.09899e-07
-6.15261e-07
0.000265623
-1.1661e-06
-1.16748e-06
-0.00109197
5.86141e-07
5.87323e-07
0.00109313
-0.00109245
-1.5419e-06
1.16681e-06
5.64289e-07
0.00109353
-6.02797e-07
9.83559e-07
1.78801e-08
5.58375e-07
-7.5269e-07
-1.38087e-06
-9.10062e-08
-0.00109211
-1.5364e-06
1.1665e-06
5.64221e-07
0.00109319
-5.99985e-07
9.78208e-07
1.5225e-08
5.58527e-07
-7.55104e-07
-1.38051e-06
-8.85892e-08
-0.000268517
1.56958e-06
1.53654e-06
-5.98145e-07
-6.03728e-07
0.000266612
-1.13076e-06
-1.13251e-06
-0.00109655
5.70392e-07
5.7163e-07
0.00109767
-0.00109669
-1.53799e-06
1.13262e-06
5.49372e-07
0.00109772
-5.95951e-07
9.98687e-07
2.98172e-08
5.78427e-07
-7.38179e-07
-1.37349e-06
-7.28931e-08
-0.00109635
-1.53246e-06
1.13226e-06
5.4926e-07
0.00109738
-5.93121e-07
9.93323e-07
2.71351e-08
5.78588e-07
-7.40517e-07
-1.3731e-06
-7.04672e-08
-0.000269456
1.56625e-06
1.53289e-06
-5.88594e-07
-5.94547e-07
0.00026754
-1.10039e-06
-1.10223e-06
-0.00110099
5.57117e-07
5.58242e-07
0.00110207
-0.00110074
-1.53625e-06
1.10233e-06
5.37122e-07
0.00110173
-5.91801e-07
1.01173e-06
4.38088e-08
5.97473e-07
-7.25579e-07
-1.36682e-06
-5.75753e-08
-0.0011004
-1.53063e-06
1.10241e-06
5.37212e-07
0.00110138
-5.88867e-07
1.00645e-06
4.00306e-08
5.97658e-07
-7.27893e-07
-1.36643e-06
-5.52299e-08
-0.000270337
1.56452e-06
1.53095e-06
-5.81036e-07
-5.87039e-07
0.00026841
-1.07427e-06
-1.07577e-06
-0.00110529
5.45813e-07
5.46787e-07
0.00110635
-0.00110462
-1.53551e-06
1.07574e-06
5.28119e-07
0.00110557
-5.86093e-07
1.02395e-06
5.17453e-08
6.15529e-07
-7.13827e-07
-1.36047e-06
-4.45629e-08
-0.00110428
-1.52996e-06
1.07566e-06
5.28046e-07
0.00110522
-5.86018e-07
1.01854e-06
5.17475e-08
6.15618e-07
-7.16282e-07
-1.36017e-06
-4.23808e-08
-0.000271165
1.56384e-06
1.53024e-06
-5.74897e-07
-5.80755e-07
0.000269226
-1.05014e-06
-1.05169e-06
-0.00110948
5.35326e-07
5.36049e-07
0.00111051
-0.00110835
-1.53512e-06
1.05132e-06
5.19471e-07
0.00110926
-5.83612e-07
1.03569e-06
6.15966e-08
6.32522e-07
-7.02122e-07
-1.35384e-06
-3.34366e-08
-0.001108
-1.52963e-06
1.05138e-06
5.19684e-07
0.00110891
-5.83577e-07
1.0302e-06
6.15507e-08
6.32548e-07
-7.04682e-07
-1.35359e-06
-3.1264e-08
-0.00027194
1.56345e-06
1.52981e-06
-5.69259e-07
-5.7502e-07
0.000269991
-1.0265e-06
-1.02802e-06
-0.00111356
5.24685e-07
5.25143e-07
0.00111456
-0.00111192
-1.53481e-06
1.02759e-06
5.10127e-07
0.00111279
-5.80788e-07
1.04727e-06
7.04202e-08
6.47974e-07
-6.90279e-07
-1.3469e-06
-2.09429e-08
-0.00111157
-1.52939e-06
1.02761e-06
5.10382e-07
0.00111244
-5.80819e-07
1.04159e-06
7.02979e-08
6.47936e-07
-6.92905e-07
-1.34673e-06
-1.81465e-08
-0.000272663
1.5633e-06
1.52946e-06
-5.6405e-07
-5.69879e-07
0.000270704
-1.00392e-06
-1.00537e-06
-0.00111754
5.14425e-07
5.14816e-07
0.00111852
-0.00111535
-1.53473e-06
1.00512e-06
4.999e-07
0.00111618
-5.76865e-07
1.05795e-06
7.9008e-08
6.62147e-07
-6.77594e-07
-1.33915e-06
-8.88448e-09
-0.001115
-1.52929e-06
1.00501e-06
5.00302e-07
0.00111583
-5.76951e-07
1.05231e-06
7.88161e-08
6.62135e-07
-6.80191e-07
-1.33897e-06
-6.05236e-09
-0.000273333
1.56327e-06
1.52937e-06
-5.58627e-07
-5.64357e-07
0.000271363
-9.81927e-07
-9.83011e-07
-0.00112143
5.04159e-07
5.04758e-07
0.00112238
-0.00111862
-1.53429e-06
9.83193e-07
4.89261e-07
0.00111942
-5.71749e-07
1.06784e-06
8.7444e-08
6.751e-07
-6.63857e-07
-1.33037e-06
2.27834e-09
-0.00111827
-1.52882e-06
9.8283e-07
4.89483e-07
0.00111907
-5.71787e-07
1.06226e-06
8.73395e-08
6.75112e-07
-6.66412e-07
-1.3301e-06
5.17829e-09
-0.000273948
1.56284e-06
1.52889e-06
-5.52095e-07
-5.578e-07
0.000271966
-9.60112e-07
-9.60937e-07
-0.00112521
4.93941e-07
4.94742e-07
0.00112615
-0.00112175
-1.53304e-06
9.61339e-07
4.78401e-07
0.0011225
-5.6552e-07
1.07761e-06
9.54651e-08
6.86956e-07
-6.49328e-07
-1.32057e-06
1.25927e-08
-0.00112139
-1.52752e-06
9.60843e-07
4.78359e-07
0.00112215
-5.65487e-07
1.07203e-06
9.54391e-08
6.86994e-07
-6.51788e-07
-1.32026e-06
1.55321e-08
-0.000274505
1.56166e-06
1.5276e-06
-5.44792e-07
-5.50528e-07
0.000272511
-9.38733e-07
-9.39426e-07
-0.00112891
4.84095e-07
4.85e-07
0.00112982
-0.00112471
-1.53118e-06
9.39871e-07
4.67325e-07
0.00112543
-5.58009e-07
1.08691e-06
1.03241e-07
6.97726e-07
-6.34133e-07
-1.30978e-06
2.21568e-08
-0.00112436
-1.52563e-06
9.39268e-07
4.67291e-07
0.00112507
-5.57977e-07
1.08134e-06
1.03243e-07
6.97819e-07
-6.3659e-07
-1.30944e-06
2.51508e-08
-0.000275
1.55989e-06
1.52575e-06
-5.37016e-07
-5.42792e-07
0.000272994
-9.17607e-07
-9.17985e-07
-0.00113251
4.7423e-07
4.75283e-07
0.0011334
-0.00112751
-1.52871e-06
9.18566e-07
4.56064e-07
0.00112819
-5.49394e-07
1.0955e-06
1.10745e-07
7.07739e-07
-6.18705e-07
-1.29806e-06
3.21221e-08
-0.00112716
-1.5232e-06
9.17779e-07
4.55687e-07
0.00112783
-5.4942e-07
1.08982e-06
1.10717e-07
7.07558e-07
-6.2139e-07
-1.29786e-06
3.65505e-08
-0.00027543
1.55752e-06
1.52328e-06
-5.28698e-07
-5.34499e-07
0.000273412
-8.96983e-07
-8.97294e-07
-0.00113602
4.65048e-07
4.66071e-07
0.00113688
-0.00113015
-1.52564e-06
8.97403e-07
4.44836e-07
0.00113078
-5.39998e-07
1.10327e-06
1.17781e-07
7.16477e-07
-6.03384e-07
-1.28613e-06
4.43566e-08
-0.00112979
-1.52008e-06
8.96979e-07
4.44462e-07
0.00113042
-5.39929e-07
1.09766e-06
1.17868e-07
7.16301e-07
-6.06052e-07
-1.28594e-06
4.81657e-08
-0.000275792
1.55447e-06
1.52013e-06
-5.19769e-07
-5.25595e-07
0.000273763
-8.77147e-07
-8.77078e-07
-0.00113944
4.5658e-07
4.57396e-07
0.00114028
-0.0011326
-1.52162e-06
8.7703e-07
4.34565e-07
0.00113319
-5.29601e-07
1.11055e-06
1.24769e-07
7.24592e-07
-5.87848e-07
-1.27325e-06
5.48702e-08
-0.00113224
-1.51607e-06
8.76774e-07
4.34366e-07
0.00113283
-5.29602e-07
1.10492e-06
1.24734e-07
7.24402e-07
-5.90633e-07
-1.27311e-06
5.84527e-08
-0.000276084
1.55052e-06
1.51612e-06
-5.10069e-07
-5.1594e-07
0.000274043
-8.63367e-07
-8.57574e-07
-0.00114275
4.48603e-07
4.49413e-07
0.00114358
-0.00113488
-1.51659e-06
8.51733e-07
4.24286e-07
0.00113542
-5.21469e-07
1.11727e-06
1.34381e-07
7.3506e-07
-5.72497e-07
-1.25933e-06
6.43759e-08
-0.00113452
-1.51102e-06
8.5723e-07
4.13321e-07
-5.18628e-07
1.11159e-06
1.3139e-07
7.32075e-07
-5.75249e-07
-1.2592e-06
6.78572e-08
0.00113507
-0.000276305
1.54552e-06
1.50831e-06
-4.99577e-07
-5.05431e-07
0.000274256
5.22557e-06
5.23658e-06
0.000260566
-0.000259152
-5.94509e-06
-5.9307e-06
5.0535e-06
0.000261439
-0.000258684
-5.96357e-06
3.38083e-06
-5.22562e-06
5.04824e-06
0.000261472
-0.000258699
-5.97117e-06
3.37589e-06
5.22611e-06
0.000260579
-0.000259155
-5.91608e-06
-5.95948e-06
5.04647e-06
0.000261502
-0.000258714
-5.96881e-06
3.37078e-06
5.05312e-06
-5.22779e-06
0.000261446
-0.000258684
3.38582e-06
-5.97335e-06
1.06915e-05
1.05978e-05
-0.000252646
-0.000256096
-0.000255126
-0.000255126
-6.41886e-06
-4.11041e-06
-6.65443e-06
-6.41916e-06
-4.11117e-06
-6.65984e-06
-5.04141e-06
0.0010422
1.0651e-05
1.06028e-05
-0.000252649
-0.000256094
-0.000255129
-0.000255129
-6.42136e-06
-4.11067e-06
-6.65699e-06
-6.41668e-06
-4.10611e-06
-6.65237e-06
-5.04099e-06
0.00104208
1.07115e-05
1.06637e-05
-0.000252641
-0.000256089
-0.000255126
-0.000255121
-6.42133e-06
-4.118e-06
-6.65702e-06
-6.4215e-06
-4.10818e-06
-6.65458e-06
-5.05579e-06
-5.04384e-06
0.00104214
1.07068e-05
1.06077e-05
-0.000252644
-0.000256091
-0.000255126
-0.000255126
-6.41623e-06
-4.11304e-06
-6.65205e-06
-6.4216e-06
-4.11113e-06
-6.65738e-06
-0.000258709
-5.96133e-06
3.36551e-06
-5.22537e-06
0.000261433
-0.000258681
3.38076e-06
-5.9634e-06
5.2285e-06
0.000260558
-0.00025914
-5.91837e-06
-5.9563e-06
-0.000258694
3.3731e-06
-5.95812e-06
-5.23635e-06
0.0002615
-0.000258709
3.36805e-06
-5.96632e-06
-0.00025915
-5.94475e-06
-5.93057e-06
5.66008e-06
5.69734e-06
-4.95449e-06
-4.94814e-06
0.000259111
-8.1221e-07
-7.76837e-07
0.000261577
-0.000259443
-2.75625e-07
-2.68614e-07
7.14113e-06
0.00105866
-4.59119e-06
-1.5509e-06
-2.11607e-06
-2.49199e-06
-6.63892e-06
-7.12116e-06
-2.99268e-06
-0.000263293
-0.000259718
-0.00026282
-5.67028e-06
1.46053e-05
7.0804e-06
0.00105903
-4.60968e-06
-1.54311e-06
-2.11882e-06
-2.50358e-06
-6.67039e-06
-7.13887e-06
-3.00856e-06
-0.000263367
-0.000259748
-0.000262861
0.00106199
2.12282e-06
-0.00106095
1.04481e-06
-1.75889e-06
-1.32098e-07
-7.47055e-07
-1.54184e-06
-2.91592e-07
-9.12268e-07
3.64196e-07
8.20606e-07
0.00106241
2.12345e-06
-0.00106137
1.03876e-06
-1.76899e-06
-1.24443e-07
-7.52023e-07
-1.54815e-06
-2.91431e-07
-9.12723e-07
3.69244e-07
-4.95229e-06
-4.94474e-06
0.000259121
-7.79898e-07
0.000261602
-0.000259464
-2.72444e-07
-2.65403e-07
6.86403e-06
0.0010595
-4.61563e-06
-1.61087e-06
-2.13245e-06
-2.50077e-06
-6.6531e-06
-7.13319e-06
-3.00361e-06
-0.000263388
-0.000259776
-0.000262874
-5.67011e-06
1.46397e-05
7.17503e-06
0.0010588
-4.60985e-06
-1.55335e-06
-2.12397e-06
-2.50503e-06
-6.66972e-06
-7.13704e-06
-3.00805e-06
-0.000259718
-0.000263344
-0.000262833
0.00106301
2.13149e-06
-0.00106195
1.03198e-06
-1.72905e-06
-1.3427e-07
-7.47318e-07
-1.54535e-06
-2.91984e-07
-9.10485e-07
3.66291e-07
8.0972e-07
0.0010621
2.13455e-06
-0.00106108
1.05551e-06
-1.75893e-06
-1.29657e-07
-7.4716e-07
-1.54538e-06
-2.89435e-07
-9.15293e-07
3.63513e-07
1.4637e-05
7.162e-06
0.00105861
-4.59082e-06
-1.55066e-06
-2.11323e-06
-2.49241e-06
-6.63916e-06
-2.99312e-06
-7.11929e-06
-0.000259713
-0.000263288
-0.000262815
2.1296e-06
-0.0010617
1.0367e-06
-1.72866e-06
-1.31213e-07
-7.43811e-07
-1.5424e-06
-2.94283e-07
3.61207e-07
-9.10129e-07
8.0972e-07
0.00106189
2.13447e-06
-0.00106087
1.05511e-06
-1.75877e-06
-1.29671e-07
-7.46915e-07
-1.54513e-06
-2.92134e-07
-9.12739e-07
3.6607e-07
-4.95705e-06
-4.94464e-06
0.000259101
-7.71376e-07
0.000261554
-0.000259425
-2.76045e-07
-2.71046e-07
1.45379e-05
6.88162e-06
0.00105945
-4.61527e-06
-1.6108e-06
-2.13213e-06
-2.50094e-06
-6.65287e-06
-3.00362e-06
-7.13074e-06
-0.000259766
-0.000263385
-0.000262869
2.1366e-06
-0.0010614
1.05365e-06
-1.72649e-06
-1.34149e-07
-7.46967e-07
-1.54027e-06
-2.89639e-07
3.60548e-07
-9.12972e-07
7.71254e-07
0.00106292
2.13641e-06
-0.00106188
1.04288e-06
-1.7242e-06
-1.34459e-07
-7.44887e-07
-1.54262e-06
-2.91694e-07
-9.12911e-07
3.61247e-07
-0.000259441
-2.73512e-07
-2.71143e-07
1.65117e-06
1.61598e-06
-6.9544e-07
-7.04084e-07
0.000259709
-9.07234e-07
-8.68981e-07
0.000262816
-0.00026065
-1.98445e-07
-1.91312e-07
8.33113e-07
0.00106318
-6.8276e-07
8.67779e-07
-9.49288e-08
4.2374e-07
-8.49781e-07
-1.43348e-06
-2.54284e-07
-1.65591e-06
1.65182e-06
8.26015e-07
0.00106361
-6.84872e-07
8.76399e-07
-9.4147e-08
4.29055e-07
-8.5247e-07
-1.43948e-06
-2.5164e-07
0.00106711
1.38941e-06
-0.00106578
7.00475e-07
-1.60523e-06
-7.0088e-08
-6.63299e-07
-1.39363e-06
-2.25968e-07
-8.34553e-07
4.59333e-07
9.13666e-07
0.00106755
1.38746e-06
-0.00106621
6.93169e-07
-1.60936e-06
-6.91289e-08
-6.62379e-07
-1.39632e-06
-2.25831e-07
-8.34869e-07
4.62578e-07
-6.95324e-07
-7.03067e-07
0.000259727
-8.75098e-07
0.000262841
-0.000260662
-1.97115e-07
-1.92956e-07
8.25306e-07
0.0010642
-6.80285e-07
8.3248e-07
-9.69197e-08
4.25974e-07
-8.53122e-07
-1.43693e-06
-2.52299e-07
-1.65112e-06
1.65833e-06
8.32973e-07
0.00106329
-6.85502e-07
8.67938e-07
-9.48219e-08
4.233e-07
-8.52779e-07
-1.43423e-06
-2.52285e-07
0.00106815
1.39134e-06
-0.00106682
6.98617e-07
-1.5675e-06
-7.42985e-08
-6.58317e-07
-1.39142e-06
-2.23963e-07
-8.35295e-07
4.61979e-07
9.02066e-07
0.00106723
1.38955e-06
-0.00106589
6.99909e-07
-1.60261e-06
-7.22367e-08
-6.63409e-07
-1.39348e-06
-2.26146e-07
-8.3481e-07
4.6243e-07
1.6537e-06
8.32926e-07
0.00106309
-6.85322e-07
8.65321e-07
-9.70521e-08
4.2312e-07
-8.53084e-07
-2.52463e-07
-1.43428e-06
1.3904e-06
-0.00106655
7.01222e-07
-1.57438e-06
-7.55295e-08
-6.57009e-07
-1.39131e-06
-2.24013e-07
4.61813e-07
-8.35115e-07
9.04683e-07
0.00106703
1.38519e-06
-0.00106568
7.00466e-07
-1.60248e-06
-7.21483e-08
-6.63187e-07
-1.39389e-06
-2.26531e-07
-8.35189e-07
4.59201e-07
-6.98763e-07
-7.00934e-07
0.000259689
-8.66159e-07
0.00026279
-0.000260629
-1.98719e-07
-1.93718e-07
1.65411e-06
8.20928e-07
0.00106413
-6.80683e-07
8.26724e-07
-1.01816e-07
4.21013e-07
-8.50246e-07
-2.56793e-07
-1.43138e-06
1.39067e-06
-0.00106622
6.99004e-07
-1.56487e-06
-7.64868e-08
-6.58185e-07
-1.3856e-06
-2.26131e-07
4.53905e-07
-8.34806e-07
8.68509e-07
0.00106805
1.39076e-06
-0.00106672
6.99114e-07
-1.5653e-06
-7.67724e-08
-6.58704e-07
-1.39346e-06
-2.26075e-07
-8.37613e-07
4.59784e-07
-0.000260637
-1.98908e-07
-1.93737e-07
1.60499e-06
1.57251e-06
-6.60726e-07
-6.69155e-07
0.000260968
-9.28264e-07
-8.92082e-07
0.000264096
-0.000261921
-1.79699e-07
-1.74653e-07
6.91828e-07
0.00106846
-6.64951e-07
9.11752e-07
-6.68286e-08
4.61669e-07
-8.34378e-07
-1.39371e-06
-2.2351e-07
-1.60934e-06
1.37347e-06
7.00862e-07
0.00106888
-6.64141e-07
9.17951e-07
-6.60141e-08
4.67532e-07
-8.37389e-07
-1.39906e-06
-2.18724e-07
0.00107247
1.3594e-06
-0.00107114
6.74064e-07
-1.60597e-06
-5.58008e-08
-6.58782e-07
-1.40318e-06
-2.04208e-07
-8.28706e-07
4.71563e-07
9.33478e-07
0.00107288
1.36053e-06
-0.00107156
6.75237e-07
-1.61132e-06
-5.386e-08
-6.61678e-07
-1.41169e-06
-1.9998e-07
-8.34779e-07
4.79582e-07
-6.62662e-07
-6.65297e-07
0.000260988
-8.94633e-07
0.000264123
-0.000261946
-1.77606e-07
-1.71879e-07
6.90428e-07
0.0010695
-6.62705e-07
8.75957e-07
-7.10892e-08
4.64338e-07
-8.37606e-07
-1.39924e-06
-2.19052e-07
-1.60244e-06
1.37493e-06
6.96974e-07
0.00106857
-6.65081e-07
9.09141e-07
-6.67978e-08
4.64853e-07
-8.37079e-07
-1.39605e-06
-2.18795e-07
0.0010735
1.36033e-06
-0.00107217
6.73927e-07
-1.57102e-06
-5.8075e-08
-6.56758e-07
-1.40587e-06
-1.99427e-07
-8.34192e-07
4.74512e-07
9.28036e-07
0.00107257
1.3588e-06
-0.00107125
6.75173e-07
-1.60625e-06
-5.38981e-08
-6.61772e-07
-1.40532e-06
-1.99253e-07
-8.33709e-07
4.74835e-07
1.38081e-06
6.92121e-07
0.00106838
-6.62271e-07
9.06498e-07
-7.10666e-08
4.64214e-07
-8.37521e-07
-2.21601e-07
-1.39653e-06
1.3598e-06
-0.0010719
6.73712e-07
-1.5736e-06
-5.78846e-08
-6.56386e-07
-1.4032e-06
-2.01844e-07
4.71679e-07
-8.31431e-07
9.2271e-07
0.00107237
1.35945e-06
-0.00107105
6.75215e-07
-1.60096e-06
-5.802e-08
-6.56285e-07
-1.40326e-06
-2.02017e-07
-8.31538e-07
4.71601e-07
-6.6377e-07
-6.68606e-07
0.000260953
-8.89737e-07
0.000264075
-0.000261905
-1.79359e-07
-1.7233e-07
1.37621e-06
6.95892e-07
0.0010694
-6.57731e-07
8.67754e-07
-7.56016e-08
4.62021e-07
-8.34842e-07
-2.21299e-07
-1.39368e-06
1.36088e-06
-0.00107157
6.73273e-07
-1.56797e-06
-5.97496e-08
-6.53493e-07
-1.4036e-06
-1.99824e-07
4.70948e-07
-8.34362e-07
8.89387e-07
0.00107341
1.36095e-06
-0.00107208
6.73695e-07
-1.56846e-06
-6.00881e-08
-6.54081e-07
-1.401e-06
-2.02145e-07
-8.31947e-07
4.68866e-07
-0.000261919
-1.77265e-07
-1.72342e-07
1.60474e-06
1.56983e-06
-6.53021e-07
-6.5854e-07
0.000262233
-9.52738e-07
-9.16228e-07
0.000265314
-0.000263142
-1.54122e-07
-1.48825e-07
6.66525e-07
0.00107378
-6.55768e-07
9.34353e-07
-5.09682e-08
4.75721e-07
-8.25357e-07
-1.40438e-06
-1.96917e-07
-1.61034e-06
1.3516e-06
6.68271e-07
0.0010742
-6.58966e-07
9.39384e-07
-4.92592e-08
4.83676e-07
-8.31506e-07
-1.41299e-06
-1.92774e-07
0.00107763
1.31627e-06
-0.00107636
6.43406e-07
-1.59896e-06
-3.70815e-08
-6.44797e-07
-1.40427e-06
-1.74569e-07
-8.12113e-07
4.89771e-07
9.57859e-07
0.00107805
1.31765e-06
-0.00107678
6.45056e-07
-1.60459e-06
-3.54638e-08
-6.4803e-07
-1.41278e-06
-1.7025e-07
-8.18039e-07
4.97892e-07
-6.56816e-07
-6.60594e-07
0.000262258
-9.18647e-07
0.000265343
-0.000263168
-1.51898e-07
-1.46267e-07
6.66623e-07
0.00107481
-6.53819e-07
8.98062e-07
-5.32667e-08
4.78786e-07
-8.30695e-07
-1.40696e-06
-1.92026e-07
-1.60508e-06
1.34917e-06
6.67864e-07
0.00107388
-6.5883e-07
9.34073e-07
-4.91461e-08
4.79033e-07
-8.30261e-07
-1.40648e-06
-1.91889e-07
0.00107866
1.31591e-06
-0.00107739
6.4377e-07
-1.56403e-06
-3.93324e-08
-6.42946e-07
-1.40654e-06
-1.69493e-07
-8.17169e-07
4.93144e-07
9.52576e-07
0.00107773
1.31506e-06
-0.00107646
6.44478e-07
-1.59923e-06
-3.53342e-08
-6.47817e-07
-1.40629e-06
-1.69432e-07
-8.16834e-07
4.93141e-07
1.34979e-06
6.67722e-07
0.00107368
-6.53348e-07
9.28731e-07
-5.3211e-08
4.75834e-07
-8.2807e-07
-1.94634e-07
-1.40438e-06
1.31613e-06
-0.00107713
6.44185e-07
-1.56688e-06
-3.93319e-08
-6.42858e-07
-1.40406e-06
-1.72042e-07
4.90081e-07
-8.14587e-07
9.47186e-07
0.00107753
1.31561e-06
-0.00107626
6.44287e-07
-1.59397e-06
-3.91636e-08
-6.42334e-07
-1.40414e-06
-1.72136e-07
-8.146e-07
4.89963e-07
-6.53155e-07
-6.60931e-07
0.000262217
-9.13899e-07
0.000265294
-0.000263127
-1.53644e-07
-1.4649e-07
1.35136e-06
6.66322e-07
0.00107472
-6.51089e-07
8.95401e-07
-5.52213e-08
4.73042e-07
-8.28578e-07
-1.9483e-07
-1.40222e-06
1.31667e-06
-0.00107679
6.42879e-07
-1.56087e-06
-4.08838e-08
-6.39591e-07
-1.40429e-06
-1.69951e-07
4.89621e-07
-8.17496e-07
9.13642e-07
0.00107858
1.31677e-06
-0.00107731
6.43363e-07
-1.56134e-06
-4.11394e-08
-6.40114e-07
-1.40187e-06
-1.72239e-07
-8.15062e-07
4.87351e-07
-0.00026314
-1.51517e-07
-1.46524e-07
1.59671e-06
1.56167e-06
-6.37648e-07
-6.43003e-07
0.000263436
-9.75212e-07
-9.38904e-07
0.000266459
-0.000264291
-1.29245e-07
-1.24125e-07
6.35603e-07
0.00107888
-6.40999e-07
9.58658e-07
-3.21011e-08
4.94872e-07
-8.07072e-07
-1.4033e-06
-1.67172e-07
-1.60225e-06
1.30483e-06
6.36648e-07
0.00107931
-6.44146e-07
9.63882e-07
-2.96994e-08
5.03035e-07
-8.12903e-07
-1.41176e-06
-1.62786e-07
0.00108255
1.26576e-06
-0.00108135
6.13669e-07
-1.59019e-06
-1.6365e-08
-6.30292e-07
-1.39869e-06
-1.45818e-07
-7.91455e-07
5.10801e-07
9.80869e-07
0.00108298
1.26608e-06
-0.00108177
6.13488e-07
-1.59532e-06
-1.3498e-08
-6.32939e-07
-1.40715e-06
-1.4135e-07
-7.97105e-07
5.18963e-07
-6.41095e-07
-6.45145e-07
0.000263463
-9.41729e-07
0.000266488
-0.000264317
-1.26519e-07
-1.21139e-07
6.36091e-07
0.00107992
-6.39057e-07
9.22172e-07
-3.50514e-08
4.9824e-07
-8.12128e-07
-1.40555e-06
-1.62123e-07
-1.59693e-06
1.30254e-06
6.36223e-07
0.00107899
-6.43997e-07
9.58569e-07
-2.95693e-08
4.98182e-07
-8.11816e-07
-1.40536e-06
-1.62074e-07
0.00108359
1.2667e-06
-0.00108238
6.1376e-07
-1.55481e-06
-1.91269e-08
-6.28095e-07
-1.40133e-06
-1.41167e-07
-7.9687e-07
5.13702e-07
9.75511e-07
0.00108266
1.26483e-06
-0.00108145
6.13317e-07
-1.59003e-06
-1.34624e-08
-6.3292e-07
-1.40103e-06
-1.40968e-07
-7.96409e-07
5.13822e-07
1.30327e-06
6.36355e-07
0.00107879
-6.38353e-07
9.5327e-07
-3.47699e-08
4.9502e-07
-8.0955e-07
-1.64746e-07
-1.4032e-06
1.26612e-06
-0.00108212
6.13125e-07
-1.55724e-06
-1.88178e-08
-6.27659e-07
-1.39872e-06
-1.43514e-07
5.10813e-07
-7.94108e-07
9.70296e-07
0.00108245
1.26537e-06
-0.00108125
6.13217e-07
-1.58457e-06
-1.86197e-08
-6.27204e-07
-1.3988e-06
-1.43552e-07
-7.94091e-07
5.10743e-07
-6.37701e-07
-6.45294e-07
0.000263421
-9.36436e-07
0.000266438
-0.000264276
-1.29047e-07
-1.21167e-07
1.30421e-06
6.35645e-07
0.00107983
-6.36187e-07
9.19618e-07
-3.67799e-08
4.92531e-07
-8.09908e-07
-1.6475e-07
-1.40081e-06
1.26607e-06
-0.00108178
6.13213e-07
-1.55174e-06
-2.14028e-08
-6.24828e-07
-1.39848e-06
-1.41129e-07
5.10835e-07
-7.96668e-07
9.36455e-07
0.0010835
1.26586e-06
-0.0010823
6.1287e-07
-1.55197e-06
-2.14706e-08
-6.25106e-07
-1.3961e-06
-1.43295e-07
-7.94122e-07
5.08522e-07
-0.000264289
-1.2653e-07
-1.21023e-07
1.58817e-06
1.55263e-06
-6.21606e-07
-6.27381e-07
0.000264567
-9.95141e-07
-9.59053e-07
0.00026753
-0.000265367
-1.06786e-07
-1.01984e-07
6.07107e-07
0.00108374
-6.2695e-07
9.80398e-07
-1.15539e-08
5.16208e-07
-7.86292e-07
-1.39681e-06
-1.39081e-07
-1.5932e-06
1.25369e-06
6.06619e-07
0.00108417
-6.29497e-07
9.86169e-07
-8.58009e-09
5.24342e-07
-7.9199e-07
-1.40533e-06
-1.34671e-07
0.00108723
1.21776e-06
-0.00108608
5.89213e-07
-1.58261e-06
1.69103e-09
-6.17785e-07
-1.39072e-06
-1.20181e-07
-7.71465e-07
5.32399e-07
1.00105e-06
0.00108766
1.21814e-06
-0.00108651
5.88383e-07
-1.58748e-06
4.79912e-09
-6.20162e-07
-1.3993e-06
-1.15773e-07
-7.7717e-07
5.40512e-07
-6.24577e-07
-6.29103e-07
0.000264593
-9.61845e-07
0.000267559
-0.000265393
-1.0408e-07
-9.87513e-08
6.07048e-07
0.00108478
-6.24634e-07
9.4418e-07
-1.42056e-08
5.18875e-07
-7.91887e-07
-1.39967e-06
-1.34612e-07
-1.58789e-06
1.2526e-06
6.0645e-07
0.00108385
-6.29473e-07
9.80807e-07
-8.55214e-09
5.19133e-07
-7.91333e-07
-1.39925e-06
-1.34316e-07
0.00108827
1.21984e-06
-0.00108712
5.88863e-07
-1.5467e-06
-7.38374e-10
-6.15187e-07
-1.39406e-06
-1.16078e-07
-7.77464e-07
5.34657e-07
9.95695e-07
0.00108733
1.21748e-06
-0.00108619
5.88135e-07
-1.58214e-06
4.83938e-09
-6.2013e-07
-1.39335e-06
-1.156e-07
-7.76687e-07
5.35165e-07
1.25298e-06
6.06303e-07
0.00108365
-6.23741e-07
9.75611e-07
-1.36974e-08
5.16109e-07
-7.88982e-07
-1.36872e-07
-1.39696e-06
1.21828e-06
-0.00108686
5.88134e-07
-1.54915e-06
-5.20401e-10
-6.1483e-07
-1.39097e-06
-1.18027e-07
5.32205e-07
-7.74274e-07
9.90533e-07
0.00108713
1.21738e-06
-0.00108598
5.87899e-07
-1.57659e-06
-3.00482e-10
-6.14364e-07
-1.39087e-06
-1.17994e-07
-7.74191e-07
5.3232e-07
-6.21844e-07
-6.29137e-07
0.000264551
-9.56403e-07
0.000267509
-0.000265351
-1.06749e-07
-9.87629e-08
1.25333e-06
6.05924e-07
0.0010847
-6.21644e-07
9.41734e-07
-1.65498e-08
5.13906e-07
-7.8895e-07
-1.36561e-07
-1.39423e-06
1.2181e-06
-0.00108652
5.88464e-07
-1.5438e-06
-3.24185e-09
-6.12139e-07
-1.3906e-06
-1.15623e-07
5.32342e-07
-7.76781e-07
9.56608e-07
0.00108818
1.21765e-06
-0.00108704
5.87319e-07
-1.54383e-06
-3.09099e-09
-6.12186e-07
-1.38817e-06
-1.17668e-07
-7.74099e-07
5.30049e-07
-0.000265365
-1.04094e-07
-9.84733e-08
1.58094e-06
1.54497e-06
-6.07397e-07
-6.13474e-07
0.000265625
-1.01571e-06
-9.76747e-07
0.000268535
-0.000266373
-8.7041e-08
-8.20751e-08
5.83862e-07
0.00108836
-6.15055e-07
1.00246e-06
8.40194e-09
5.37728e-07
-7.66831e-07
-1.38866e-06
-1.14334e-07
-1.58583e-06
1.20705e-06
5.83105e-07
0.00108879
-6.17453e-07
1.00569e-06
8.82425e-09
5.45858e-07
-7.72546e-07
-1.39723e-06
-1.09957e-07
0.00109167
1.17564e-06
-0.00109058
5.69317e-07
-1.57923e-06
1.95703e-08
-6.10425e-07
-1.38258e-06
-9.806e-08
-7.53835e-07
5.5344e-07
1.01874e-06
0.0010921
1.17603e-06
-0.00109101
5.69125e-07
-1.58166e-06
1.97906e-08
-6.10328e-07
-1.38844e-06
-9.37195e-08
-7.59545e-07
5.58968e-07
-6.10461e-07
-6.15028e-07
0.000265651
-9.79462e-07
0.000268562
-0.0002664
-8.44365e-08
-7.91017e-08
5.83466e-07
0.00108941
-6.12412e-07
9.63694e-07
3.32867e-09
5.39978e-07
-7.72868e-07
-1.39204e-06
-1.10276e-07
-1.58047e-06
1.20637e-06
5.82778e-07
0.00108847
-6.17397e-07
1.00035e-06
8.88835e-09
5.40492e-07
-7.72056e-07
-1.3913e-06
-1.09776e-07
0.00109272
1.17725e-06
-0.00109163
5.69001e-07
-1.54057e-06
1.43913e-08
-6.05124e-07
-1.38576e-06
-9.39377e-08
-7.59755e-07
5.5591e-07
1.01343e-06
0.00109178
1.17517e-06
-0.00109069
5.6864e-07
-1.57624e-06
1.99045e-08
-6.10209e-07
-1.38514e-06
-9.35467e-08
-7.59032e-07
5.56298e-07
1.20621e-06
5.8252e-07
0.00108826
-6.11621e-07
9.95183e-07
3.74044e-09
5.37677e-07
-7.69526e-07
-1.12146e-07
-1.38877e-06
1.17628e-06
-0.00109136
5.68569e-07
-1.54312e-06
1.45168e-08
-6.04888e-07
-1.38282e-06
-9.59936e-08
5.53244e-07
-7.56676e-07
1.0082e-06
0.00109157
1.17517e-06
-0.00109048
5.68415e-07
-1.5707e-06
1.46805e-08
-6.04476e-07
-1.38261e-06
-9.58764e-08
-7.56498e-07
5.53462e-07
-6.07763e-07
-6.15045e-07
0.000265609
-9.7411e-07
0.000268511
-0.000266358
-8.6999e-08
-7.90443e-08
1.20651e-06
5.81857e-07
0.00108932
-6.09414e-07
9.61251e-07
9.78036e-10
5.35377e-07
-7.69441e-07
-1.11833e-07
-1.3861e-06
1.17602e-06
-0.00109102
5.68544e-07
-1.53764e-06
1.18667e-08
-6.0209e-07
-1.38242e-06
-9.35915e-08
5.53426e-07
-7.59162e-07
9.74252e-07
0.00109263
1.17565e-06
-0.00109154
5.67697e-07
-1.53773e-06
1.1951e-08
-6.02204e-07
-1.38e-06
-9.56547e-08
-7.56506e-07
5.51081e-07
-0.000266371
-8.43576e-08
-7.88595e-08
1.578e-06
1.53932e-06
-5.95641e-07
-6.01551e-07
0.000266615
-1.0316e-06
-9.92337e-07
0.000269474
-0.000267316
-6.98118e-08
-6.4474e-08
5.64981e-07
0.00109274
-6.08302e-07
1.01988e-06
2.30072e-08
5.58609e-07
-7.49782e-07
-1.38059e-06
-9.08003e-08
-1.58053e-06
1.1664e-06
5.65049e-07
0.00109318
-6.08291e-07
1.02283e-06
2.31224e-08
5.64149e-07
-7.55527e-07
-1.38645e-06
-8.87194e-08
0.0010959
1.13926e-06
-0.00109486
5.53385e-07
-1.57505e-06
3.26505e-08
-6.03016e-07
-1.37494e-06
-7.68866e-08
-7.413e-07
5.73757e-07
1.03439e-06
0.00109634
1.13946e-06
-0.0010953
5.53922e-07
-1.57776e-06
3.2585e-08
-6.03128e-07
-1.38076e-06
-7.47822e-08
-7.44296e-07
5.79343e-07
-5.98763e-07
-6.03402e-07
0.000266641
-9.95098e-07
0.000269501
-0.000267343
-6.71261e-08
-6.17857e-08
5.64663e-07
0.0010938
-6.0302e-07
9.80842e-07
1.77513e-08
5.61142e-07
-7.5567e-07
-1.38371e-06
-8.88902e-08
-1.57508e-06
1.16551e-06
5.6453e-07
0.00109286
-6.08165e-07
1.01753e-06
2.32434e-08
5.6149e-07
-7.54997e-07
-1.38315e-06
-8.85134e-08
0.00109696
1.14059e-06
-0.00109592
5.53229e-07
-1.53627e-06
2.6892e-08
-5.97686e-07
-1.37786e-06
-7.484e-08
-7.44291e-07
5.76487e-07
1.02909e-06
0.00109601
1.1385e-06
-0.00109497
5.53371e-07
-1.5723e-06
3.27647e-08
-6.03003e-07
-1.37744e-06
-7.45888e-08
-7.43767e-07
5.76704e-07
1.16566e-06
5.64341e-07
0.00109265
-6.02453e-07
1.01224e-06
1.79616e-08
5.58621e-07
-7.52477e-07
-9.08593e-08
-1.38064e-06
1.14057e-06
-0.00109565
5.5282e-07
-1.53883e-06
2.70643e-08
-5.9742e-07
-1.37527e-06
-7.71422e-08
5.73469e-07
-7.41588e-07
1.02366e-06
0.00109581
1.1393e-06
-0.00109477
5.53655e-07
-1.56693e-06
2.69082e-08
-5.97363e-07
-1.375e-06
-7.69252e-08
-7.41283e-07
5.73754e-07
-5.95945e-07
-6.0336e-07
0.000266599
-9.89736e-07
0.000269451
-0.0002673
-6.97301e-08
-6.16788e-08
1.16624e-06
5.63633e-07
0.00109371
-6.0017e-07
9.78305e-07
1.52448e-08
5.56199e-07
-7.52542e-07
-9.07047e-08
-1.37807e-06
1.14016e-06
-0.00109531
5.52642e-07
-1.53328e-06
2.43924e-08
-5.94581e-07
-1.37482e-06
-7.47242e-08
5.73714e-07
-7.43968e-07
9.89741e-07
0.00109687
1.14024e-06
-0.00109583
5.53022e-07
-1.53367e-06
2.42279e-08
-5.95008e-07
-1.37255e-06
-7.69399e-08
-7.41557e-07
5.71185e-07
-0.000267314
-6.70831e-08
-6.1855e-08
1.57434e-06
1.53546e-06
-5.86066e-07
-5.91769e-07
0.000267542
-1.04511e-06
-1.00578e-06
0.000270356
-0.0002682
-5.53705e-08
-4.95877e-08
5.49592e-07
0.00109693
-6.01703e-07
1.03517e-06
3.69868e-08
5.78657e-07
-7.379e-07
-1.37318e-06
-7.26507e-08
-1.57708e-06
1.13093e-06
5.50182e-07
0.00109737
-6.01835e-07
1.03792e-06
3.69048e-08
5.8426e-07