/*--------------------------------*- C++ -*----------------------------------*\
| =========                 |                                                 |
| \\      /  F ield         | OpenFOAM: The Open Source CFD Toolbox           |
|  \\    /   O peration     | Version:  v1906                                 |
|   \\  /    A nd           | Web:      www.OpenFOAM.com                      |
|    \\/     M anipulation  |                                                 |
\*---------------------------------------------------------------------------*/
FoamFile
{
    version     2.0;
    format      ascii;
    class       volScalarField;
    location    "700";
    object      k;
}
// * * * * * * * * * * * * * * * * * * * * * * * * * * * * * * * * * * * * * //

dimensions      [0 2 -2 0 0 0 0];


internalField   nonuniform List<scalar> 
42616
(
3.58933e-05
3.58914e-05
3.58914e-05
3.59957e-05
3.39293e-05
3.38875e-05
3.38877e-05
3.39599e-05
3.21569e-05
3.20042e-05
3.20047e-05
3.19452e-05
3.05331e-05
3.02231e-05
3.02236e-05
2.99781e-05
2.90305e-05
2.85459e-05
2.85463e-05
2.81102e-05
2.76321e-05
2.69776e-05
2.69783e-05
2.63769e-05
2.63268e-05
2.55204e-05
2.55215e-05
2.47927e-05
2.51066e-05
2.41737e-05
2.41747e-05
2.33634e-05
2.39657e-05
2.29386e-05
2.29394e-05
2.20896e-05
2.28999e-05
2.18141e-05
2.18147e-05
2.09706e-05
2.19055e-05
2.07977e-05
2.07981e-05
1.99971e-05
2.09794e-05
1.98864e-05
1.98866e-05
1.9164e-05
2.01164e-05
1.90781e-05
1.90783e-05
1.84697e-05
1.93155e-05
1.83699e-05
1.837e-05
1.79093e-05
1.85755e-05
1.77583e-05
1.77584e-05
1.74781e-05
1.7894e-05
1.72418e-05
1.72419e-05
1.71686e-05
1.72686e-05
1.68195e-05
1.68197e-05
1.69858e-05
1.66972e-05
1.64905e-05
1.64909e-05
1.69375e-05
1.61784e-05
1.62548e-05
1.62553e-05
1.70312e-05
1.57099e-05
1.61125e-05
1.61131e-05
1.72537e-05
1.529e-05
1.60631e-05
1.60638e-05
1.76066e-05
3.63062e-05
3.62907e-05
3.62907e-05
3.63061e-05
3.62907e-05
3.62907e-05
3.6423e-05
3.6423e-05
3.6423e-05
3.6423e-05
3.62907e-05
3.62907e-05
3.63061e-05
3.62907e-05
3.62907e-05
3.63062e-05
3.59958e-05
3.42667e-05
3.58914e-05
3.58914e-05
3.43755e-05
3.43754e-05
3.59958e-05
3.42667e-05
3.58914e-05
3.58914e-05
3.43756e-05
3.43756e-05
3.58914e-05
3.43756e-05
3.43756e-05
3.59958e-05
3.4267e-05
3.58914e-05
3.43757e-05
3.43755e-05
3.42667e-05
3.396e-05
3.22575e-05
3.38873e-05
3.38874e-05
3.24652e-05
3.24651e-05
3.39599e-05
3.2257e-05
3.38876e-05
3.38876e-05
3.24657e-05
3.24652e-05
3.38875e-05
3.24653e-05
3.24651e-05
3.39603e-05
3.22575e-05
3.38875e-05
3.24657e-05
3.24654e-05
3.22571e-05
3.19458e-05
3.02904e-05
3.20043e-05
3.2004e-05
3.06593e-05
3.06585e-05
3.19451e-05
3.02893e-05
3.20047e-05
3.2004e-05
3.06595e-05
3.0658e-05
3.2004e-05
3.06589e-05
3.06584e-05
3.19457e-05
3.02894e-05
3.20044e-05
3.06594e-05
3.0659e-05
3.02892e-05
2.99794e-05
2.84143e-05
3.02235e-05
3.02226e-05
2.89556e-05
2.89546e-05
2.9978e-05
2.8413e-05
3.02237e-05
3.02222e-05
2.89556e-05
2.89546e-05
3.02226e-05
2.89551e-05
2.89545e-05
2.99784e-05
2.84135e-05
3.02232e-05
2.89555e-05
2.89551e-05
2.8413e-05
2.81116e-05
2.66622e-05
2.85464e-05
2.85454e-05
2.73598e-05
2.73587e-05
2.81102e-05
2.66601e-05
2.85463e-05
2.85456e-05
2.73596e-05
2.73597e-05
2.85452e-05
2.73593e-05
2.73585e-05
2.81109e-05
2.66617e-05
2.85459e-05
2.73598e-05
2.73591e-05
2.66607e-05
2.63783e-05
2.50543e-05
2.69781e-05
2.6977e-05
2.58748e-05
2.58736e-05
2.63775e-05
2.5052e-05
2.6978e-05
2.69781e-05
2.58749e-05
2.58747e-05
2.69768e-05
2.58744e-05
2.58735e-05
2.63788e-05
2.50524e-05
2.69774e-05
2.58753e-05
2.5874e-05
2.50525e-05
2.47943e-05
2.36008e-05
2.55208e-05
2.55196e-05
2.45001e-05
2.44987e-05
2.47934e-05
2.35973e-05
2.55209e-05
2.55205e-05
2.45004e-05
2.44989e-05
2.55195e-05
2.44999e-05
2.44988e-05
2.47961e-05
2.35976e-05
2.552e-05
2.45009e-05
2.44994e-05
2.35981e-05
2.33644e-05
2.22994e-05
2.41739e-05
2.41724e-05
2.32369e-05
2.32353e-05
2.33645e-05
2.22971e-05
2.41741e-05
2.41723e-05
2.32372e-05
2.32346e-05
2.41726e-05
2.32369e-05
2.32357e-05
2.33661e-05
2.22962e-05
2.41732e-05
2.32377e-05
2.32364e-05
2.22978e-05
2.20907e-05
2.11542e-05
2.29385e-05
2.2937e-05
2.20847e-05
2.20831e-05
2.20904e-05
2.11525e-05
2.29388e-05
2.29361e-05
2.20849e-05
2.2082e-05
2.29374e-05
2.2085e-05
2.20837e-05
2.20918e-05
2.11518e-05
2.29381e-05
2.20856e-05
2.20844e-05
2.11528e-05
2.09715e-05
2.01557e-05
2.18138e-05
2.18122e-05
2.10413e-05
2.10398e-05
2.09713e-05
2.01544e-05
2.1814e-05
2.18111e-05
2.10415e-05
2.10388e-05
2.18128e-05
2.10418e-05
2.10405e-05
2.09723e-05
2.01545e-05
2.18135e-05
2.10422e-05
2.10411e-05
2.01545e-05
1.9998e-05
1.9298e-05
2.07972e-05
2.07957e-05
2.01039e-05
2.01025e-05
1.99978e-05
1.92973e-05
2.07973e-05
2.07948e-05
2.0104e-05
2.01018e-05
2.07963e-05
2.01045e-05
2.01031e-05
1.99979e-05
1.92974e-05
2.0797e-05
2.01048e-05
2.01039e-05
1.92967e-05
1.91649e-05
1.8571e-05
1.98858e-05
1.98844e-05
1.92699e-05
1.92686e-05
1.91643e-05
1.85706e-05
1.98859e-05
1.98838e-05
1.927e-05
1.92683e-05
1.9885e-05
1.92706e-05
1.92691e-05
1.91645e-05
1.85707e-05
1.98857e-05
1.92708e-05
1.927e-05
1.85698e-05
1.84707e-05
1.79746e-05
1.90775e-05
1.90763e-05
1.85369e-05
1.85358e-05
1.84702e-05
1.79742e-05
1.90776e-05
1.9076e-05
1.85371e-05
1.85357e-05
1.90767e-05
1.85376e-05
1.85362e-05
1.84703e-05
1.79743e-05
1.90776e-05
1.85378e-05
1.85371e-05
1.79735e-05
1.79104e-05
1.75122e-05
1.83692e-05
1.83681e-05
1.79015e-05
1.79005e-05
1.79098e-05
1.75116e-05
1.83693e-05
1.83681e-05
1.79016e-05
1.79006e-05
1.83684e-05
1.79021e-05
1.79007e-05
1.791e-05
1.75117e-05
1.83694e-05
1.79023e-05
1.79017e-05
1.75108e-05
1.74791e-05
1.71856e-05
1.77577e-05
1.77567e-05
1.73612e-05
1.73604e-05
1.74785e-05
1.7186e-05
1.77578e-05
1.77569e-05
1.73614e-05
1.73606e-05
1.7757e-05
1.73618e-05
1.73605e-05
1.74785e-05
1.71857e-05
1.77579e-05
1.73619e-05
1.73615e-05
1.71846e-05
1.71696e-05
1.69869e-05
1.72414e-05
1.72405e-05
1.69154e-05
1.69146e-05
1.71671e-05
1.69891e-05
1.72415e-05
1.72407e-05
1.69157e-05
1.6915e-05
1.72406e-05
1.69158e-05
1.69148e-05
1.71674e-05
1.69897e-05
1.72415e-05
1.6916e-05
1.69157e-05
1.69856e-05
1.69868e-05
1.69294e-05
1.68193e-05
1.68184e-05
1.6563e-05
1.65622e-05
1.6982e-05
1.69296e-05
1.68193e-05
1.68188e-05
1.65633e-05
1.65627e-05
1.68186e-05
1.65632e-05
1.65624e-05
1.69822e-05
1.69303e-05
1.68194e-05
1.65635e-05
1.65632e-05
1.69284e-05
1.69383e-05
1.69953e-05
1.64906e-05
1.64897e-05
1.63039e-05
1.63031e-05
1.6938e-05
1.69964e-05
1.64905e-05
1.64902e-05
1.63042e-05
1.63037e-05
1.64899e-05
1.63039e-05
1.63033e-05
1.69387e-05
1.69975e-05
1.64906e-05
1.63043e-05
1.6304e-05
1.6994e-05
1.70322e-05
1.71896e-05
1.62551e-05
1.62542e-05
1.61381e-05
1.61374e-05
1.70299e-05
1.71936e-05
1.62551e-05
1.62548e-05
1.61383e-05
1.6138e-05
1.62544e-05
1.61379e-05
1.61374e-05
1.70301e-05
1.71955e-05
1.6255e-05
1.61384e-05
1.6138e-05
1.71876e-05
1.72544e-05
1.7514e-05
1.61129e-05
1.61122e-05
1.60653e-05
1.60647e-05
1.725e-05
1.75262e-05
1.61129e-05
1.61128e-05
1.60654e-05
1.60653e-05
1.61122e-05
1.60649e-05
1.60646e-05
1.7252e-05
1.75273e-05
1.61127e-05
1.60655e-05
1.60651e-05
1.75111e-05
1.76089e-05
1.60635e-05
1.6063e-05
1.75997e-05
1.60636e-05
1.60636e-05
1.60629e-05
1.76002e-05
1.60634e-05
3.73774e-05
3.73766e-05
3.7377e-05
3.7377e-05
3.73703e-05
3.73777e-05
3.73045e-05
3.73769e-05
3.73703e-05
3.73777e-05
3.73769e-05
3.7305e-05
3.73741e-05
3.72965e-05
3.72964e-05
3.58665e-05
4.0666e-05
3.65959e-05
4.50411e-05
5.51242e-05
6.50509e-05
3.58604e-05
4.06494e-05
3.65947e-05
4.5045e-05
3.58933e-05
3.58933e-05
3.58933e-05
3.44001e-05
3.44001e-05
3.44002e-05
3.44002e-05
3.52708e-05
3.56085e-05
3.58931e-05
3.53767e-05
3.60486e-05
3.41862e-05
3.53821e-05
5.51141e-05
6.50554e-05
3.52707e-05
3.58931e-05
3.56101e-05
3.53767e-05
3.60484e-05
3.53821e-05
3.41895e-05
3.65985e-05
3.65892e-05
3.52786e-05
3.40279e-05
3.40298e-05
3.39423e-05
5.12792e-05
3.46727e-05
5.45925e-05
7.66338e-05
8.09333e-05
3.3939e-05
5.1281e-05
3.46642e-05
5.45947e-05
3.39293e-05
3.39293e-05
3.39293e-05
3.25848e-05
3.25847e-05
3.25848e-05
3.25847e-05
3.30381e-05
3.24397e-05
3.3929e-05
3.34067e-05
3.38868e-05
3.15342e-05
3.34671e-05
7.66416e-05
8.09416e-05
3.30405e-05
3.3929e-05
3.24431e-05
3.3407e-05
3.38878e-05
3.34671e-05
3.15396e-05
3.16481e-05
3.16605e-05
3.32595e-05
3.08342e-05
3.08476e-05
3.22244e-05
5.91456e-05
3.29078e-05
6.14464e-05
8.44057e-05
8.5074e-05
3.22249e-05
5.91478e-05
3.29074e-05
6.14479e-05
3.21569e-05
3.21569e-05
3.21569e-05
3.09268e-05
3.09266e-05
3.09266e-05
3.09267e-05
3.07685e-05
3.04844e-05
3.21358e-05
3.15495e-05
3.16207e-05
2.98608e-05
3.1708e-05
8.44082e-05
8.50754e-05
3.07745e-05
3.21362e-05
3.04892e-05
3.15501e-05
3.16253e-05
3.17084e-05
2.98616e-05
3.01595e-05
3.01711e-05
3.12647e-05
2.99458e-05
2.99567e-05
3.07345e-05
6.43437e-05
3.1331e-05
6.57396e-05
8.46049e-05
8.39145e-05
3.07286e-05
6.4344e-05
3.13251e-05
6.57418e-05
3.05329e-05
3.05329e-05
3.05329e-05
2.93958e-05
2.93956e-05
2.93956e-05
2.93956e-05
2.85784e-05
2.91174e-05
3.04663e-05
2.97938e-05
2.93966e-05
2.86577e-05
3.00652e-05
8.46059e-05
8.39113e-05
2.85826e-05
3.0467e-05
2.91219e-05
2.97942e-05
2.94018e-05
3.00659e-05
2.86529e-05
2.9914e-05
2.99235e-05
2.93371e-05
3.00258e-05
3.00333e-05
2.95026e-05
6.73097e-05
2.99881e-05
6.80386e-05
8.2192e-05
8.12262e-05
2.94997e-05
6.73105e-05
2.99743e-05
6.80403e-05
2.90303e-05
2.90303e-05
2.90303e-05
2.79726e-05
2.79724e-05
2.79726e-05
2.79723e-05
2.65449e-05
2.80979e-05
2.88983e-05
2.81435e-05
2.7303e-05
2.77669e-05
2.8521e-05
8.219e-05
8.12276e-05
2.65471e-05
2.88988e-05
2.81086e-05
2.81439e-05
2.73048e-05
2.85214e-05
2.77665e-05
3.04542e-05
3.04597e-05
2.75201e-05
3.07895e-05
3.07915e-05
2.85858e-05
6.87312e-05
2.89353e-05
6.90285e-05
7.94198e-05
7.85431e-05
2.85899e-05
6.87319e-05
2.89235e-05
6.90304e-05
2.76319e-05
2.76321e-05
2.76318e-05
2.66449e-05
2.66446e-05
2.66449e-05
2.66445e-05
2.47225e-05
2.73772e-05
2.74232e-05
2.66029e-05
2.54042e-05
2.71712e-05
2.70686e-05
7.94175e-05
7.85439e-05
2.47249e-05
2.74236e-05
2.73847e-05
2.66036e-05
2.54059e-05
2.70689e-05
2.71767e-05
3.16205e-05
3.16193e-05
2.58377e-05
3.21288e-05
3.21249e-05
2.80371e-05
6.92404e-05
2.82336e-05
6.92978e-05
7.69967e-05
7.62995e-05
2.8041e-05
6.92429e-05
2.82224e-05
6.93003e-05
2.63265e-05
2.63269e-05
2.63264e-05
2.5404e-05
2.54036e-05
2.5404e-05
2.54035e-05
2.31454e-05
2.69719e-05
2.60382e-05
2.51733e-05
2.37413e-05
2.6898e-05
2.57059e-05
7.69939e-05
7.62979e-05
2.3147e-05
2.60388e-05
2.69759e-05
2.51744e-05
2.37426e-05
2.57064e-05
2.6902e-05
3.32725e-05
3.32695e-05
2.43062e-05
3.3913e-05
3.39114e-05
2.7899e-05
6.92824e-05
2.7911e-05
6.92527e-05
7.50737e-05
7.45434e-05
2.78946e-05
6.92852e-05
2.79074e-05
6.92554e-05
2.51062e-05
2.51065e-05
2.51061e-05
2.42437e-05
2.42433e-05
2.42435e-05
2.42432e-05
2.18313e-05
2.69192e-05
2.47422e-05
2.38544e-05
2.23343e-05
2.69695e-05
2.4432e-05
7.50703e-05
7.45379e-05
2.1832e-05
2.47428e-05
2.69193e-05
2.38554e-05
2.23347e-05
2.44325e-05
2.69657e-05
3.52846e-05
3.52843e-05
2.29282e-05
3.6018e-05
3.60188e-05
2.81461e-05
6.91797e-05
2.80289e-05
6.9145e-05
7.36129e-05
7.32218e-05
2.81544e-05
6.91822e-05
2.80155e-05
6.91465e-05
2.39653e-05
2.39654e-05
2.39652e-05
2.31595e-05
2.31591e-05
2.3159e-05
2.31591e-05
2.07909e-05
2.71839e-05
2.3534e-05
2.26472e-05
2.1192e-05
2.73533e-05
2.32451e-05
7.36121e-05
7.32151e-05
2.07908e-05
2.35344e-05
2.71902e-05
2.26479e-05
2.11917e-05
2.32454e-05
2.73346e-05
3.75359e-05
3.75382e-05
2.17063e-05
3.83253e-05
3.8328e-05
2.8816e-05
6.90967e-05
2.85606e-05
6.90875e-05
7.25343e-05
7.22545e-05
2.88249e-05
6.9098e-05
2.85448e-05
6.90889e-05
2.28995e-05
2.28994e-05
2.28995e-05
2.21475e-05
2.21472e-05
2.2147e-05
2.21472e-05
2.00197e-05
2.77671e-05
2.24097e-05
2.155e-05
2.03121e-05
2.80408e-05
2.21416e-05
7.25376e-05
7.22486e-05
2.00192e-05
2.24099e-05
2.77778e-05
2.15505e-05
2.0312e-05
2.21417e-05
2.80185e-05
3.99215e-05
3.99238e-05
2.06358e-05
4.07338e-05
4.07349e-05
2.99004e-05
6.9086e-05
2.95044e-05
6.91033e-05
7.17588e-05
7.15626e-05
2.99053e-05
6.90877e-05
2.94895e-05
6.91043e-05
2.19052e-05
2.1905e-05
2.19052e-05
2.12046e-05
2.12043e-05
2.1204e-05
2.12043e-05
1.95107e-05
2.86375e-05
2.13688e-05
2.05601e-05
1.96959e-05
2.90005e-05
2.11217e-05
7.17642e-05
7.15578e-05
1.95125e-05
2.1369e-05
2.86504e-05
2.05605e-05
1.96944e-05
2.11217e-05
2.89795e-05
4.23437e-05
4.23492e-05
1.97085e-05
4.31483e-05
4.31518e-05
3.13829e-05
6.91367e-05
3.08557e-05
6.91799e-05
7.12103e-05
7.10772e-05
3.13834e-05
6.91432e-05
3.08433e-05
6.91794e-05
2.09791e-05
2.09789e-05
2.09791e-05
2.03265e-05
2.03263e-05
2.03261e-05
2.03262e-05
1.92667e-05
2.9762e-05
2.04111e-05
1.96746e-05
1.9339e-05
3.02036e-05
2.01844e-05
7.12173e-05
7.1072e-05
1.92672e-05
2.04112e-05
2.97721e-05
1.96749e-05
1.93397e-05
2.01843e-05
3.01841e-05
4.47197e-05
4.47304e-05
1.89171e-05
4.54895e-05
4.54952e-05
3.32467e-05
6.92362e-05
3.25925e-05
6.92886e-05
7.08273e-05
7.07384e-05
3.32485e-05
6.92437e-05
3.25792e-05
6.92891e-05
2.01163e-05
2.0116e-05
2.01162e-05
1.95098e-05
1.95096e-05
1.95095e-05
1.95095e-05
1.9284e-05
3.11048e-05
1.95336e-05
1.88918e-05
1.9253e-05
3.16012e-05
1.93264e-05
7.08344e-05
7.07324e-05
1.92843e-05
1.95337e-05
3.11098e-05
1.88919e-05
1.92532e-05
1.93264e-05
3.15854e-05
4.69791e-05
4.69866e-05
1.82553e-05
4.76969e-05
4.77012e-05
3.54301e-05
6.93517e-05
3.46766e-05
6.94039e-05
7.0558e-05
7.04993e-05
3.543e-05
6.93598e-05
3.46671e-05
6.94057e-05
1.93153e-05
1.93152e-05
1.93152e-05
1.87548e-05
1.87547e-05
1.87546e-05
1.87546e-05
1.95543e-05
3.26061e-05
1.87333e-05
1.8208e-05
1.94305e-05
3.31495e-05
1.8545e-05
7.05647e-05
7.04925e-05
1.95521e-05
1.87334e-05
3.26164e-05
1.82081e-05
1.94301e-05
1.8545e-05
3.31378e-05
4.90667e-05
4.90754e-05
1.77253e-05
4.97194e-05
4.97249e-05
3.786e-05
6.94642e-05
3.70342e-05
6.95123e-05
7.03628e-05
7.03222e-05
3.78629e-05
6.9473e-05
3.70267e-05
6.95155e-05
1.85754e-05
1.85754e-05
1.85753e-05
1.80589e-05
1.80588e-05
1.80588e-05
1.80586e-05
2.00731e-05
3.4227e-05
1.80076e-05
1.76201e-05
1.9867e-05
3.47966e-05
1.78375e-05
7.03692e-05
7.03164e-05
2.0073e-05
1.80077e-05
3.42406e-05
1.76202e-05
1.98672e-05
1.78376e-05
3.47827e-05
5.09551e-05
5.09633e-05
1.73315e-05
5.1536e-05
5.15444e-05
4.04328e-05
6.95668e-05
3.95721e-05
6.96105e-05
7.02159e-05
7.0181e-05
4.04481e-05
6.95762e-05
3.95659e-05
6.96146e-05
1.78939e-05
1.78939e-05
1.78937e-05
1.74196e-05
1.74195e-05
1.74195e-05
1.74194e-05
2.08399e-05
3.59145e-05
1.73542e-05
1.71271e-05
2.05532e-05
3.64907e-05
1.72019e-05
7.02186e-05
7.01785e-05
2.08414e-05
1.73543e-05
3.59251e-05
1.71272e-05
2.05535e-05
1.7202e-05
3.64805e-05
5.2631e-05
5.26412e-05
1.70696e-05
5.3142e-05
5.31515e-05
4.30534e-05
6.96597e-05
4.21685e-05
6.96996e-05
7.00949e-05
7.00637e-05
4.30732e-05
6.96696e-05
4.21563e-05
6.97044e-05
1.72685e-05
1.72685e-05
1.72683e-05
1.68349e-05
1.68347e-05
1.68348e-05
1.68346e-05
2.18434e-05
3.76194e-05
1.67722e-05
1.67279e-05
2.14803e-05
3.81819e-05
1.66375e-05
7.00949e-05
7.00623e-05
2.1845e-05
1.67723e-05
3.76263e-05
1.67281e-05
2.14814e-05
1.66376e-05
3.81775e-05
5.4102e-05
5.41143e-05
1.69391e-05
5.45477e-05
5.45587e-05
4.5593e-05
6.97453e-05
4.47197e-05
6.97825e-05
6.99882e-05
6.99598e-05
4.56106e-05
6.97551e-05
4.47121e-05
6.97874e-05
1.6697e-05
1.66971e-05
1.66969e-05
1.6303e-05
1.63028e-05
1.63029e-05
1.63028e-05
2.30629e-05
3.92895e-05
1.62594e-05
1.64219e-05
2.26301e-05
3.98427e-05
1.61416e-05
6.99875e-05
6.99588e-05
2.30625e-05
1.62595e-05
3.93011e-05
1.64223e-05
2.26319e-05
1.61417e-05
3.98408e-05
5.53834e-05
5.53964e-05
1.69453e-05
5.57712e-05
5.5782e-05
4.79556e-05
6.98254e-05
4.71356e-05
6.98605e-05
6.98908e-05
6.98649e-05
4.79707e-05
6.98349e-05
4.713e-05
6.98654e-05
1.61782e-05
1.61783e-05
1.61782e-05
1.58222e-05
1.5822e-05
1.58221e-05
1.5822e-05
2.4464e-05
4.09092e-05
1.58143e-05
1.62093e-05
2.39769e-05
4.14304e-05
1.57134e-05
6.98897e-05
6.98637e-05
2.44651e-05
1.58144e-05
4.09193e-05
1.62097e-05
2.39782e-05
1.57135e-05
4.14309e-05
5.64968e-05
5.65087e-05
1.70749e-05
5.68341e-05
5.68444e-05
5.00784e-05
6.99009e-05
4.93386e-05
6.9934e-05
6.98003e-05
6.97763e-05
5.00909e-05
6.99103e-05
4.93342e-05
6.9939e-05
1.57097e-05
1.57098e-05
1.57096e-05
1.53904e-05
1.53902e-05
1.53903e-05
1.53902e-05
2.60095e-05
4.24441e-05
1.54366e-05
1.60898e-05
2.548e-05
4.29302e-05
1.53523e-05
6.9799e-05
6.97751e-05
2.60111e-05
1.54367e-05
4.24493e-05
1.60905e-05
2.54819e-05
1.53525e-05
4.29311e-05
5.74664e-05
5.74777e-05
1.73342e-05
5.776e-05
5.77698e-05
5.19297e-05
6.99715e-05
5.12822e-05
7.00032e-05
6.97154e-05
6.96931e-05
6.99809e-05
5.12797e-05
7.00077e-05
1.52898e-05
1.52899e-05
1.52898e-05
2.76479e-05
4.38767e-05
1.5126e-05
1.60655e-05
2.71021e-05
4.43211e-05
1.50584e-05
6.97144e-05
2.76489e-05
1.51262e-05
4.388e-05
2.70999e-05
1.50586e-05
5.83125e-05
5.83233e-05
1.77229e-05
5.8568e-05
5.85791e-05
3.73741e-05
3.72964e-05
3.72966e-05
5.31243e-05
3.71921e-05
5.31264e-05
3.71925e-05
3.70929e-05
3.72457e-05
3.72455e-05
3.71768e-05
3.71765e-05
3.73702e-05
3.73777e-05
3.73043e-05
3.73768e-05
3.73702e-05
3.73777e-05
3.73045e-05
3.73768e-05
3.71728e-05
3.91954e-05
3.71621e-05
3.67344e-05
3.7173e-05
3.92017e-05
3.71622e-05
3.67355e-05
3.70958e-05
3.71021e-05
3.59919e-05
3.64209e-05
3.71664e-05
3.71108e-05
3.6305e-05
3.70957e-05
3.71021e-05
3.59895e-05
3.64209e-05
3.71661e-05
3.71108e-05
3.63051e-05
3.73742e-05
3.72967e-05
3.72967e-05
5.31342e-05
3.71927e-05
3.70929e-05
3.7237e-05
3.72364e-05
3.71755e-05
3.71757e-05
5.31322e-05
3.71924e-05
3.73703e-05
3.73777e-05
3.73051e-05
3.73769e-05
3.73702e-05
3.73777e-05
3.73768e-05
3.73045e-05
3.71729e-05
3.92672e-05
3.71546e-05
3.67348e-05
3.70957e-05
3.71021e-05
3.59964e-05
3.64209e-05
3.71645e-05
3.71108e-05
3.6305e-05
3.7173e-05
3.92014e-05
3.71624e-05
3.67349e-05
3.70957e-05
3.71021e-05
3.64209e-05
3.59896e-05
3.71108e-05
3.71663e-05
3.63051e-05
3.73774e-05
3.73766e-05
3.7377e-05
3.7377e-05
3.73774e-05
3.73766e-05
3.7377e-05
3.7377e-05
3.73774e-05
3.73766e-05
3.7377e-05
3.7377e-05
3.71133e-05
3.71098e-05
3.64241e-05
3.64241e-05
3.71125e-05
3.71125e-05
3.64261e-05
3.71133e-05
3.71098e-05
3.64241e-05
3.64241e-05
3.71125e-05
3.71125e-05
3.64261e-05
3.71133e-05
3.71098e-05
3.64241e-05
3.64241e-05
3.71125e-05
3.71125e-05
3.64261e-05
3.71133e-05
3.71098e-05
3.64241e-05
3.64241e-05
3.71125e-05
3.71125e-05
3.64261e-05
3.73703e-05
3.73777e-05
3.73768e-05
3.73044e-05
3.70956e-05
3.71021e-05
3.59873e-05
3.64209e-05
3.71656e-05
3.71108e-05
3.6305e-05
3.71728e-05
3.92016e-05
3.71619e-05
3.67338e-05
3.70956e-05
3.71021e-05
3.64209e-05
3.59945e-05
3.71108e-05
3.71661e-05
3.6305e-05
3.7173e-05
3.92054e-05
3.71624e-05
3.67338e-05
3.73741e-05
3.72967e-05
3.72967e-05
5.31174e-05
3.71926e-05
3.70929e-05
3.72378e-05
3.72351e-05
3.71767e-05
3.71765e-05
5.31147e-05
3.71928e-05
3.73703e-05
3.73777e-05
3.73769e-05
3.73041e-05
3.70956e-05
3.71021e-05
3.64209e-05
3.59936e-05
3.71108e-05
3.71646e-05
3.63052e-05
3.70956e-05
3.71021e-05
3.64209e-05
3.59944e-05
3.71108e-05
3.71663e-05
3.63051e-05
3.71729e-05
3.92729e-05
3.71545e-05
3.67336e-05
3.7173e-05
3.92105e-05
3.71622e-05
3.67334e-05
3.70929e-05
3.72463e-05
3.72275e-05
3.71767e-05
3.71764e-05
5.31208e-05
3.71927e-05
5.31211e-05
3.71925e-05
5.51217e-05
6.50499e-05
5.51286e-05
6.50497e-05
3.65911e-05
3.66019e-05
3.52787e-05
3.40182e-05
3.40289e-05
7.48467e-05
6.78079e-05
7.48576e-05
6.78096e-05
3.49725e-05
3.18976e-05
3.19617e-05
3.34241e-05
3.34422e-05
3.58671e-05
4.06677e-05
3.65912e-05
4.50322e-05
3.52719e-05
3.5601e-05
3.58931e-05
3.53767e-05
3.6049e-05
3.41803e-05
3.53822e-05
3.52725e-05
3.55982e-05
3.58931e-05
3.53766e-05
3.60489e-05
3.41778e-05
3.53822e-05
3.56313e-05
5.0148e-05
4.63493e-05
3.48787e-05
3.56316e-05
5.01475e-05
4.63462e-05
3.48767e-05
3.4997e-05
3.48716e-05
3.26735e-05
3.44015e-05
3.3821e-05
3.48854e-05
3.41732e-05
3.49972e-05
3.48715e-05
3.26778e-05
3.44015e-05
3.38182e-05
3.48855e-05
3.41729e-05
3.65953e-05
3.65991e-05
3.52785e-05
3.40347e-05
3.40307e-05
5.51274e-05
6.50578e-05
7.48517e-05
6.77922e-05
3.49722e-05
3.19675e-05
3.1967e-05
3.34461e-05
3.34507e-05
7.48611e-05
6.78167e-05
3.52708e-05
3.5605e-05
3.58931e-05
3.53767e-05
3.60487e-05
3.41834e-05
3.53821e-05
3.58671e-05
4.06624e-05
3.65909e-05
4.50353e-05
3.52724e-05
3.58931e-05
3.56005e-05
3.53766e-05
3.60487e-05
3.53822e-05
3.41791e-05
3.56245e-05
5.01489e-05
4.63448e-05
3.48733e-05
3.49953e-05
3.48716e-05
3.26831e-05
3.44014e-05
3.38243e-05
3.48854e-05
3.41717e-05
3.56313e-05
5.01509e-05
4.63472e-05
3.48785e-05
3.49971e-05
3.48716e-05
3.44015e-05
3.26809e-05
3.48855e-05
3.38194e-05
3.41733e-05
3.58608e-05
4.06604e-05
3.65901e-05
4.50395e-05
3.52704e-05
3.58931e-05
3.5604e-05
3.53767e-05
3.60487e-05
3.53821e-05
3.41807e-05
3.58595e-05
4.06669e-05
3.65883e-05
4.50403e-05
3.49951e-05
3.48716e-05
3.26859e-05
3.44014e-05
3.38307e-05
3.48854e-05
3.41694e-05
3.56241e-05
5.01537e-05
4.63508e-05
3.48671e-05
3.49953e-05
3.48716e-05
3.44014e-05
3.26754e-05
3.48854e-05
3.38188e-05
3.41712e-05
3.56247e-05
5.01535e-05
4.63539e-05
3.48733e-05
3.65969e-05
3.65931e-05
3.52786e-05
3.40216e-05
3.40286e-05
5.51259e-05
6.50475e-05
7.4863e-05
6.77925e-05
3.49724e-05
3.19527e-05
3.1965e-05
3.34349e-05
3.34397e-05
7.48582e-05
6.78108e-05
3.52705e-05
3.58931e-05
3.56038e-05
3.53767e-05
3.60484e-05
3.53821e-05
3.41806e-05
3.58608e-05
4.06485e-05
3.65892e-05
4.50398e-05
3.58599e-05
4.06701e-05
3.65887e-05
4.50389e-05
3.49949e-05
3.48717e-05
3.44014e-05
3.26907e-05
3.48854e-05
3.38305e-05
3.41704e-05
3.49953e-05
3.48716e-05
3.44014e-05
3.26779e-05
3.48854e-05
3.3819e-05
3.41725e-05
3.56221e-05
5.01519e-05
4.63512e-05
3.487e-05
3.56238e-05
5.01546e-05
4.63512e-05
3.48761e-05
5.51101e-05
6.50491e-05
5.51184e-05
6.50438e-05
3.49723e-05
3.19543e-05
3.19649e-05
3.34377e-05
3.34432e-05
7.48592e-05
6.78119e-05
7.48557e-05
6.78068e-05
7.66298e-05
8.09335e-05
7.66393e-05
8.09418e-05
3.16027e-05
3.16575e-05
3.32596e-05
3.0793e-05
3.08407e-05
8.40395e-05
8.18913e-05
8.40448e-05
8.18989e-05
3.29499e-05
3.02171e-05
3.02413e-05
3.06426e-05
3.06854e-05
3.3937e-05
5.12785e-05
3.46692e-05
5.45923e-05
3.30446e-05
3.24281e-05
3.39291e-05
3.34065e-05
3.38917e-05
3.15245e-05
3.34673e-05
3.30428e-05
3.24302e-05
3.39291e-05
3.34066e-05
3.3891e-05
3.15273e-05
3.34673e-05
3.37678e-05
5.83597e-05
5.55523e-05
3.3056e-05
3.37621e-05
5.83595e-05
5.55521e-05
3.30515e-05
3.27621e-05
3.29326e-05
3.06111e-05
3.25717e-05
3.13506e-05
3.30151e-05
3.19055e-05
3.27602e-05
3.29326e-05
3.061e-05
3.25715e-05
3.13523e-05
3.3015e-05
3.19038e-05
3.16627e-05
3.16712e-05
3.32595e-05
3.08501e-05
3.08511e-05
7.66394e-05
8.09398e-05
8.40382e-05
8.18927e-05
3.29498e-05
3.02497e-05
3.02523e-05
3.06931e-05
3.07035e-05
8.40424e-05
8.18964e-05
3.30427e-05
3.24368e-05
3.39291e-05
3.34069e-05
3.38891e-05
3.15331e-05
3.34672e-05
3.39382e-05
5.128e-05
3.46702e-05
5.45957e-05
3.30426e-05
3.39292e-05
3.24323e-05
3.34068e-05
3.38913e-05
3.34673e-05
3.15239e-05
3.37614e-05
5.83622e-05
5.55556e-05
3.30563e-05
3.27602e-05
3.2933e-05
3.06156e-05
3.25716e-05
3.13585e-05
3.30151e-05
3.19053e-05
3.3759e-05
5.83668e-05
5.55545e-05
3.30499e-05
3.27594e-05
3.29328e-05
3.25715e-05
3.05981e-05
3.30151e-05
3.13499e-05
3.19023e-05
3.39269e-05
5.12821e-05
3.46587e-05
5.45962e-05
3.3042e-05
3.3929e-05
3.24276e-05
3.34067e-05
3.3889e-05
3.34672e-05
3.15232e-05
3.39371e-05
5.12846e-05
3.46651e-05
5.45967e-05
3.27557e-05
3.29328e-05
3.06167e-05
3.25712e-05
3.13607e-05
3.30148e-05
3.18993e-05
3.37517e-05
5.83617e-05
5.55542e-05
3.30427e-05
3.27596e-05
3.29327e-05
3.25715e-05
3.0604e-05
3.3015e-05
3.13479e-05
3.19036e-05
3.37622e-05
5.83629e-05
5.55572e-05
3.30527e-05
3.16542e-05
3.16597e-05
3.326e-05
3.0834e-05
3.08434e-05
7.66406e-05
8.09403e-05
8.40429e-05
8.18982e-05
3.29503e-05
3.02337e-05
3.02423e-05
3.06848e-05
3.06887e-05
8.40433e-05
8.18996e-05
3.30444e-05
3.39291e-05
3.24305e-05
3.34067e-05
3.38901e-05
3.34673e-05
3.15286e-05
3.39324e-05
5.12829e-05
3.46603e-05
5.45982e-05
3.39421e-05
5.12848e-05
3.46669e-05
5.46004e-05
3.27582e-05
3.29331e-05
3.25714e-05
3.06211e-05
3.30149e-05
3.13649e-05
3.19035e-05
3.27622e-05
3.29328e-05
3.25717e-05
3.06104e-05
3.30151e-05
3.13536e-05
3.19078e-05
3.37559e-05
5.83652e-05
5.55575e-05
3.30517e-05
3.3766e-05
5.83674e-05
5.556e-05
3.3061e-05
7.66419e-05
8.09405e-05
7.66414e-05
8.09447e-05
3.29498e-05
3.0231e-05
3.02429e-05
3.06768e-05
3.06907e-05
8.40424e-05
8.18995e-05
8.40479e-05
8.19041e-05
8.44071e-05
8.50754e-05
8.44111e-05
8.50782e-05
3.01552e-05
3.01704e-05
3.12657e-05
2.99508e-05
2.99553e-05
8.48295e-05
8.50743e-05
8.48356e-05
8.50765e-05
3.09533e-05
2.99046e-05
2.99047e-05
2.99341e-05
2.99363e-05
3.22227e-05
5.91438e-05
3.29042e-05
6.14454e-05
3.07738e-05
3.04795e-05
3.21363e-05
3.15498e-05
3.16269e-05
2.98581e-05
3.17086e-05
3.0773e-05
3.04782e-05
3.21361e-05
3.15493e-05
3.16251e-05
2.9853e-05
3.17084e-05
3.20932e-05
6.38846e-05
6.20619e-05
3.145e-05
3.20921e-05
6.38842e-05
6.20595e-05
3.14505e-05
3.05022e-05
3.11014e-05
2.92145e-05
3.08742e-05
2.97456e-05
3.1288e-05
2.96636e-05
3.05015e-05
3.11008e-05
2.92077e-05
3.0874e-05
2.97438e-05
3.12878e-05
2.96636e-05
3.01784e-05
3.01869e-05
3.12647e-05
2.99644e-05
2.99668e-05
8.44081e-05
8.50759e-05
8.48308e-05
8.50725e-05
3.09522e-05
2.99139e-05
2.9914e-05
2.9945e-05
2.99493e-05
8.48339e-05
8.50746e-05
3.07743e-05
3.0484e-05
3.21364e-05
3.15501e-05
3.16265e-05
2.98569e-05
3.17086e-05
3.22198e-05
5.91521e-05
3.28997e-05
6.14596e-05
3.0771e-05
3.21361e-05
3.04654e-05
3.15491e-05
3.16233e-05
3.17082e-05
2.98383e-05
3.20932e-05
6.38862e-05
6.20628e-05
3.14477e-05
3.05019e-05
3.11018e-05
2.921e-05
3.08742e-05
2.97485e-05
3.12881e-05
2.96619e-05
3.20887e-05
6.3899e-05
6.20718e-05
3.14488e-05
3.04994e-05
3.11004e-05
3.08737e-05
2.92023e-05
3.12875e-05
2.97284e-05
2.96616e-05
3.22144e-05
5.91441e-05
3.28955e-05
6.14464e-05
3.0772e-05
3.21362e-05
3.04721e-05
3.15493e-05
3.1625e-05
3.17084e-05
2.98458e-05
3.22216e-05
5.91467e-05
3.29055e-05
6.14469e-05
3.04971e-05
3.11011e-05
2.92157e-05
3.08736e-05
2.97481e-05
3.12874e-05
2.96583e-05
3.20835e-05
6.38839e-05
6.20586e-05
3.14426e-05
3.05001e-05
3.11008e-05
3.08739e-05
2.92008e-05
3.12877e-05
2.97371e-05
2.96607e-05
3.20906e-05
6.38847e-05
6.20605e-05
3.14458e-05
3.0167e-05
3.01697e-05
3.12651e-05
2.99494e-05
2.9952e-05
8.44109e-05
8.50767e-05
8.48286e-05
8.50739e-05
3.09526e-05
2.9901e-05
2.99008e-05
2.99322e-05
2.99331e-05
8.48423e-05
8.50748e-05
3.07778e-05
3.21365e-05
3.04784e-05
3.15497e-05
3.1629e-05
3.17088e-05
2.98521e-05
3.22244e-05
5.91489e-05
3.29023e-05
6.14491e-05
3.22313e-05
5.91513e-05
3.29117e-05
6.14519e-05
3.05026e-05
3.11017e-05
3.08742e-05
2.92131e-05
3.1288e-05
2.97521e-05
2.96641e-05
3.05057e-05
3.11013e-05
3.08745e-05
2.92068e-05
3.12882e-05
2.97433e-05
2.96664e-05
3.2093e-05
6.38862e-05
6.20629e-05
3.14503e-05
3.20995e-05
6.38894e-05
6.20656e-05
3.14553e-05
8.44096e-05
8.50755e-05
8.44151e-05
8.50795e-05
3.09522e-05
2.98978e-05
2.99075e-05
2.99271e-05
2.99372e-05
8.48322e-05
8.50738e-05
8.48336e-05
8.50776e-05
8.46067e-05
8.39141e-05
8.46044e-05
8.39159e-05
2.99238e-05
2.99204e-05
2.93383e-05
3.00265e-05
3.00305e-05
8.2626e-05
8.35272e-05
8.26261e-05
8.35246e-05
2.90304e-05
3.03272e-05
3.03296e-05
3.01094e-05
3.01034e-05
3.07346e-05
6.43413e-05
3.13308e-05
6.574e-05
2.85843e-05
2.91159e-05
3.04669e-05
2.97942e-05
2.94016e-05
2.86573e-05
3.00659e-05
2.85845e-05
2.91162e-05
3.04667e-05
2.97933e-05
2.94015e-05
2.86486e-05
3.00657e-05
3.06265e-05
6.70944e-05
6.60644e-05
3.00841e-05
3.06279e-05
6.7096e-05
6.60634e-05
3.00824e-05
2.83349e-05
2.93716e-05
2.81742e-05
2.92822e-05
2.85701e-05
2.9671e-05
2.75452e-05
2.83352e-05
2.93706e-05
2.81669e-05
2.9282e-05
2.85735e-05
2.96709e-05
2.75455e-05
2.99302e-05
2.99324e-05
2.93371e-05
3.00379e-05
3.00302e-05
8.46034e-05
8.3915e-05
8.26264e-05
8.3527e-05
2.9029e-05
3.03358e-05
3.03279e-05
3.01119e-05
3.01148e-05
8.26279e-05
8.35246e-05
2.85804e-05
2.91184e-05
3.04669e-05
2.97943e-05
2.93995e-05
2.86485e-05
3.00657e-05
3.07338e-05
6.43553e-05
3.13264e-05
6.5755e-05
2.85824e-05
3.04664e-05
2.9105e-05
2.97929e-05
2.93993e-05
3.00654e-05
2.86563e-05
3.06165e-05
6.70971e-05
6.60652e-05
3.00774e-05
2.83302e-05
2.93716e-05
2.81663e-05
2.92817e-05
2.85741e-05
2.96708e-05
2.75398e-05
3.06215e-05
6.71088e-05
6.60761e-05
3.0083e-05
2.83326e-05
2.93704e-05
2.92817e-05
2.81799e-05
2.96706e-05
2.85693e-05
2.75431e-05
3.07268e-05
6.43393e-05
3.13199e-05
6.57392e-05
2.85803e-05
3.04665e-05
2.911e-05
2.97932e-05
2.93986e-05
3.00655e-05
2.86418e-05
3.07287e-05
6.43419e-05
3.13268e-05
6.57405e-05
2.83289e-05
2.93711e-05
2.81759e-05
2.92814e-05
2.8571e-05
2.96703e-05
2.75384e-05
3.06147e-05
6.70947e-05
6.60605e-05
3.00746e-05
2.83309e-05
2.93705e-05
2.92816e-05
2.81605e-05
2.96705e-05
2.85675e-05
2.75407e-05
3.06224e-05
6.70961e-05
6.60637e-05
3.00774e-05
2.992e-05
2.9917e-05
2.93373e-05
3.00232e-05
3.00256e-05
8.45972e-05
8.39133e-05
8.26276e-05
8.35261e-05
2.90294e-05
3.03222e-05
3.0329e-05
3.01077e-05
3.01024e-05
8.26243e-05
8.3525e-05
2.85847e-05
3.04672e-05
2.91151e-05
2.97938e-05
2.9404e-05
3.00662e-05
2.86465e-05
3.07324e-05
6.43427e-05
3.13284e-05
6.57407e-05
3.07339e-05
6.43463e-05
3.13328e-05
6.57443e-05
2.83323e-05
2.93715e-05
2.92819e-05
2.81697e-05
2.9671e-05
2.85767e-05
2.75411e-05
2.8334e-05
2.93712e-05
2.92822e-05
2.81635e-05
2.96712e-05
2.85722e-05
2.75424e-05
3.06199e-05
6.70961e-05
6.60635e-05
3.00791e-05
3.06257e-05
6.70995e-05
6.60674e-05
3.00785e-05
8.46037e-05
8.39149e-05
8.46066e-05
8.39161e-05
2.90291e-05
3.03275e-05
3.03315e-05
3.00988e-05
3.01069e-05
8.26254e-05
8.35265e-05
8.26261e-05
8.3528e-05
8.21912e-05
8.12254e-05
8.21883e-05
8.12245e-05
3.04646e-05
3.04588e-05
2.75214e-05
3.07878e-05
3.07906e-05
7.98419e-05
8.07858e-05
7.98407e-05
8.07817e-05
2.72269e-05
3.13916e-05
3.13957e-05
3.09767e-05
3.09708e-05
2.95026e-05
6.73105e-05
2.99894e-05
6.80413e-05
2.65517e-05
2.81009e-05
2.88991e-05
2.8144e-05
2.73096e-05
2.7766e-05
2.85219e-05
2.65519e-05
2.81037e-05
2.8899e-05
2.81429e-05
2.73099e-05
2.77585e-05
2.85217e-05
2.94215e-05
6.86575e-05
6.81704e-05
2.9001e-05
2.94216e-05
6.86607e-05
6.81725e-05
2.9001e-05
2.63324e-05
2.77485e-05
2.74226e-05
2.77845e-05
2.77034e-05
2.81503e-05
2.56105e-05