/*--------------------------------*- C++ -*----------------------------------*\
| =========                 |                                                 |
| \\      /  F ield         | OpenFOAM: The Open Source CFD Toolbox           |
|  \\    /   O peration     | Version:  v1906                                 |
|   \\  /    A nd           | Web:      www.OpenFOAM.com                      |
|    \\/     M anipulation  |                                                 |
\*---------------------------------------------------------------------------*/
FoamFile
{
    version     2.0;
    format      ascii;
    class       volScalarField;
    location    "700";
    object      nut;
}
// * * * * * * * * * * * * * * * * * * * * * * * * * * * * * * * * * * * * * //

dimensions      [0 2 -1 0 0 0 0];


internalField   nonuniform List<scalar> 
42616
(
0.000233972
0.000233083
0.000233087
0.000233402
0.000232523
0.000227708
0.000227718
0.000223715
0.000230494
0.000220179
0.000220197
0.000208922
0.000227763
0.000211506
0.000211521
0.000193648
0.000224385
0.000202494
0.000202502
0.000179589
0.000220493
0.000193628
0.000193633
0.000167252
0.000216239
0.000185148
0.000185152
0.000156541
0.000211754
0.000177124
0.000177128
0.000147168
0.000207141
0.000169593
0.000169598
0.000138998
0.00020248
0.000162528
0.000162533
0.000131737
0.000197826
0.000155873
0.000155875
0.00012512
0.000193213
0.000149574
0.000149573
0.000118998
0.000188624
0.000143589
0.000143586
0.000113236
0.000184092
0.000137865
0.000137862
0.000107912
0.000179648
0.000132363
0.000132359
0.000102997
0.000175279
0.000127074
0.000127067
9.8352e-05
0.000170975
0.000122016
0.000122008
9.41348e-05
0.00016672
0.000117219
0.000117211
9.05201e-05
0.000162516
0.00011271
0.000112703
8.75867e-05
0.000158337
0.000108552
0.000108544
8.52401e-05
0.000154178
0.000104793
0.000104786
8.35332e-05
0.000234262
0.000234458
0.000234459
0.000234261
0.000234459
0.000234457
0.000234275
0.000234275
0.000234275
0.000234275
0.000234457
0.00023446
0.000234257
0.000234456
0.000234461
0.000234265
0.000233415
0.000226103
0.000233085
0.000233077
0.00022929
0.000229274
0.000233399
0.000226065
0.000233085
0.000233082
0.000229292
0.000229283
0.000233086
0.000229284
0.000229285
0.00023341
0.000226088
0.000233081
0.000229292
0.00022928
0.000226078
0.000223742
0.000212081
0.000227713
0.000227697
0.000222214
0.000222198
0.000223702
0.000212051
0.000227717
0.000227706
0.000222223
0.000222204
0.000227705
0.000222206
0.000222202
0.000223727
0.000212067
0.000227704
0.000222223
0.000222207
0.000212055
0.000208952
0.000196943
0.000220187
0.000220169
0.000213743
0.000213718
0.000208918
0.000196912
0.000220197
0.000220171
0.000213751
0.000213705
0.000220172
0.000213732
0.000213719
0.000208933
0.000196913
0.000220179
0.000213748
0.00021373
0.000196904
0.000193666
0.000182805
0.000211516
0.00021149
0.000204752
0.000204727
0.000193632
0.000182755
0.000211524
0.000211475
0.000204759
0.000204714
0.000211491
0.000204746
0.000204727
0.00019365
0.000182761
0.000211503
0.000204756
0.000204741
0.000182787
0.000179629
0.000170245
0.000202498
0.000202473
0.000195812
0.000195791
0.000179649
0.000170173
0.000202504
0.000202464
0.000195819
0.000195793
0.000202472
0.000195813
0.000195789
0.000179649
0.000170221
0.000202488
0.000195818
0.000195806
0.000170235
0.000167294
0.00015926
0.000193625
0.000193605
0.000187218
0.000187201
0.000167332
0.000159212
0.000193632
0.000193608
0.000187227
0.000187208
0.000193603
0.000187226
0.000187198
0.00016732
0.000159196
0.000193619
0.00018723
0.000187216
0.000159246
0.000156569
0.000149676
0.000185139
0.00018512
0.000179069
0.000179053
0.000156607
0.000149598
0.000185148
0.000185128
0.000179083
0.00017906
0.000185118
0.000179083
0.000179051
0.000156632
0.000149626
0.000185137
0.000179087
0.000179073
0.000149655
0.000147204
0.000141125
0.000177109
0.000177092
0.000171411
0.000171395
0.000147267
0.000141166
0.000177123
0.000177099
0.000171429
0.000171402
0.000177091
0.00017143
0.000171395
0.000147239
0.000141083
0.000177113
0.000171434
0.000171419
0.000141113
0.000139073
0.000133669
0.000169574
0.000169559
0.000164231
0.000164216
0.000138945
0.000133666
0.000169592
0.000169565
0.00016425
0.000164222
0.000169559
0.000164254
0.000164218
0.000139106
0.000133563
0.000169583
0.000164259
0.000164243
0.000133589
0.000131635
0.00012675
0.000162504
0.000162491
0.000157474
0.000157461
0.000131663
0.000126748
0.000162524
0.000162495
0.000157495
0.000157463
0.000162492
0.000157502
0.000157464
0.000131774
0.000126816
0.000162518
0.000157504
0.000157492
0.000126736
0.000125124
0.000120489
0.000155846
0.000155833
0.000151088
0.000151076
0.000125142
0.000120492
0.000155867
0.000155834
0.00015111
0.000151075
0.000155836
0.000151119
0.00015108
0.000125007
0.000120536
0.000155864
0.000151118
0.00015111
0.000120433
0.000118973
0.000114456
0.000149544
0.000149532
0.000145025
0.000145014
0.000118971
0.000114455
0.000149566
0.00014953
0.000145049
0.000145011
0.000149536
0.000145058
0.000145019
0.00011888
0.000114513
0.000149566
0.000145055
0.00014505
0.000114435
0.000113209
0.000108832
0.000143557
0.000143546
0.00013924
0.00013923
0.000113241
0.000108825
0.00014358
0.000143542
0.000139266
0.000139226
0.000143551
0.000139274
0.000139235
0.000113156
0.000108829
0.000143582
0.00013927
0.000139267
0.000108808
0.000107932
0.00010365
0.000137833
0.000137822
0.000133688
0.000133678
0.000107926
0.000103651
0.000137858
0.000137817
0.000133715
0.000133673
0.000137827
0.000133722
0.000133684
0.000107923
0.000103639
0.000137858
0.000133717
0.000133714
0.000103632
0.000103007
9.90317e-05
0.000132331
0.000132319
0.000128344
0.000128334
0.000103006
9.90423e-05
0.000132357
0.000132314
0.00012837
0.000128328
0.000132327
0.00012838
0.000128342
0.000102995
9.90262e-05
0.000132356
0.000128372
0.000128371
9.90167e-05
9.83561e-05
9.48266e-05
0.00012704
0.000127028
0.000123226
0.000123216
9.83391e-05
9.48763e-05
0.000127065
0.000127023
0.000123253
0.00012321
0.000127038
0.000123264
0.000123225
9.833e-05
9.48586e-05
0.000127066
0.000123256
0.000123255
9.48056e-05
9.41351e-05
9.12108e-05
0.000121981
0.000121969
0.000118331
0.000118325
9.40914e-05
9.13595e-05
0.000122004
0.000121964
0.00011836
0.000118319
0.000121979
0.000118369
0.00011833
9.40835e-05
9.12249e-05
0.000122006
0.000118365
0.000118361
9.11745e-05
9.05096e-05
8.81464e-05
0.000117187
0.000117171
0.000113755
0.000113747
9.04189e-05
8.82674e-05
0.000117203
0.000117164
0.000113782
0.00011374
0.000117184
0.000113793
0.000113756
9.05073e-05
8.81671e-05
0.00011721
0.000113786
0.000113783
8.80905e-05
8.75449e-05
8.56189e-05
0.000112679
0.000112664
0.000109498
0.000109492
8.74787e-05
8.57432e-05
0.000112693
0.000112655
0.000109527
0.000109485
0.000112674
0.000109536
0.000109499
8.75241e-05
8.56905e-05
0.0001127
0.000109529
0.000109525
8.56232e-05
8.52303e-05
8.37631e-05
0.000108521
0.000108506
0.000105629
0.000105621
8.51392e-05
8.40043e-05
0.000108532
0.000108497
0.000105657
0.000105615
0.000108516
0.000105666
0.00010563
8.52128e-05
8.38873e-05
0.00010854
0.000105661
0.000105655
8.37622e-05
8.35277e-05
0.000104767
0.000104747
8.33915e-05
0.000104773
0.000104739
0.000104759
8.34511e-05
0.000104781
0.00023473
0.000234746
0.000234729
0.000234729
0.000235116
0.000234799
0.00023474
0.000234726
0.00023513
0.000234799
0.000234726
0.000234852
0.000234871
0.0002337
0.000233814
0.000104689
3.85172e-05
0.000128365
3.97685e-05
2.14785e-05
2.28637e-05
0.000104593
3.84826e-05
0.000128299
3.97749e-05
0.000233972
0.000233972
0.000233972
0.000232929
0.000232929
0.000232929
0.000232929
0.000205971
9.30298e-05
0.000233967
0.000231963
0.000222317
8.6449e-05
0.000233606
2.147e-05
2.28623e-05
0.00020597
0.000233967
9.30629e-05
0.000231968
0.000222317
0.000233605
8.66086e-05
4.72927e-05
4.74373e-05
0.000231287
4.36593e-05
4.37176e-05
7.26218e-05
4.24039e-05
8.13534e-05
4.37504e-05
2.47896e-05
2.5475e-05
7.25781e-05
4.24004e-05
8.12787e-05
4.37468e-05
0.000232522
0.000232523
0.000232522
0.000231066
0.000231064
0.000231066
0.000231064
0.0001672
7.89239e-05
0.000232052
0.000225989
0.000179887
7.40686e-05
0.000231338
2.47886e-05
2.54743e-05
0.000167244
0.000232055
7.89828e-05
0.000226002
0.000179924
0.000231342
7.403e-05
3.90651e-05
3.91131e-05
0.000219428
3.65077e-05
3.65383e-05
5.63449e-05
4.55365e-05
6.12175e-05
4.64145e-05
2.60155e-05
2.61183e-05
5.63375e-05
4.55349e-05
6.12196e-05
4.64114e-05
0.000230491
0.000230493
0.000230491
0.00022851
0.000228505
0.000228505
0.000228505
0.000138439
6.70167e-05
0.000228579
0.000218081
0.000147949
6.32001e-05
0.000227464
2.60136e-05
2.61161e-05
0.000138514
0.00022859
6.71012e-05
0.000218099
0.000148006
0.000227477
6.31419e-05
3.3261e-05
3.32677e-05
0.000204447
3.2032e-05
3.2039e-05
4.70056e-05
4.74964e-05
4.9994e-05
4.8009e-05
2.60502e-05
2.59398e-05
4.70311e-05
4.74927e-05
4.99665e-05
4.80054e-05
0.000227757
0.000227757
0.000227757
0.000225283
0.000225276
0.000225275
0.000225276
0.000117486
5.78793e-05
0.000223631
0.00020926
0.000124582
5.52519e-05
0.000222216
2.60488e-05
2.59351e-05
0.000117514
0.000223649
5.79033e-05
0.000209272
0.000124594
0.000222232
5.52312e-05
3.06802e-05
3.0685e-05
0.000189641
3.03961e-05
3.03975e-05
4.14481e-05
4.85791e-05
4.33146e-05
4.88413e-05
2.5672e-05
2.55208e-05
4.14846e-05
4.85755e-05
4.32604e-05
4.88375e-05
0.000224378
0.000224377
0.000224377
0.000221506
0.0002215
0.000221501
0.000221498
0.00010211
5.15883e-05
0.00021767
0.00020025
0.000107387
4.99005e-05
0.000216078
2.56692e-05
2.55184e-05
0.000102122
0.000217683
5.16317e-05
0.000200257
0.000107401
0.000216088
4.98926e-05
3.02626e-05
3.02629e-05
0.000176311
3.04746e-05
3.04694e-05
3.81771e-05
4.90894e-05
3.92834e-05
4.91938e-05
2.52353e-05
2.50956e-05
3.82035e-05
4.90854e-05
3.9235e-05
4.91915e-05
0.000220487
0.000220489
0.000220485
0.000217329
0.000217324
0.000217327
0.00021732
9.05276e-05
4.74674e-05
0.000211166
0.000191466
9.45348e-05
4.64276e-05
0.0002095
2.52327e-05
2.50934e-05
9.05344e-05
0.000211173
4.74928e-05
0.00019147
9.45348e-05
0.000209504
4.64433e-05
3.10932e-05
3.10897e-05
0.000164555
3.15871e-05
3.15763e-05
3.63906e-05
4.92726e-05
3.69785e-05
4.92884e-05
2.48472e-05
2.47344e-05
3.64003e-05
4.92698e-05
3.69454e-05
4.92847e-05
0.000216234
0.000216238
0.00021623
0.00021289
0.000212885
0.000212889
0.000212881
8.1645e-05
4.49437e-05
0.000204481
0.000183096
8.47831e-05
4.44226e-05
0.000202811
2.48449e-05
2.47321e-05
8.16096e-05
0.000204485
4.49621e-05
0.000183099
8.4783e-05
0.000202813
4.44457e-05
3.2663e-05
3.26521e-05
0.000154288
3.33286e-05
3.33185e-05
3.56976e-05
4.92868e-05
3.58367e-05
4.92704e-05
2.45348e-05
2.44488e-05
3.56972e-05
4.92833e-05
3.58275e-05
4.9267e-05
0.000211748
0.000211752
0.000211744
0.000208301
0.000208295
0.000208298
0.000208291
7.46822e-05
4.36312e-05
0.000197849
0.000175194
7.72414e-05
4.34576e-05
0.000196218
2.45326e-05
2.44442e-05
7.47127e-05
0.000197854
4.36129e-05
0.000175198
7.72792e-05
0.000196219
4.34221e-05
3.46956e-05
3.46854e-05
0.000145281
3.54719e-05
3.54702e-05
3.57589e-05
4.92529e-05
3.56874e-05
4.92331e-05
2.42943e-05
2.42315e-05
3.58114e-05
4.92499e-05
3.56417e-05
4.9229e-05
0.000207135
0.000207138
0.000207131
0.000203646
0.000203641
0.000203642
0.000203636
6.92356e-05
4.30871e-05
0.000191405
0.000167785
7.13585e-05
4.31868e-05
0.000189826
2.42941e-05
2.42253e-05
6.92841e-05
0.00019141
4.31085e-05
0.00016779
7.13099e-05
0.000189827
4.31267e-05
3.7008e-05
3.70011e-05
0.00013724
3.78402e-05
3.78518e-05
3.65426e-05
4.92211e-05
3.62634e-05
4.92171e-05
2.41148e-05
2.40719e-05
3.66004e-05
4.92187e-05
3.61957e-05
4.92129e-05
0.000202475
0.000202475
0.00020247
0.000198986
0.000198982
0.00019898
0.000198977
6.49186e-05
4.32403e-05
0.000185172
0.000160828
6.65966e-05
4.35425e-05
0.000183652
2.4117e-05
2.40644e-05
6.49197e-05
0.000185178
4.33215e-05
0.000160832
6.65743e-05
0.000183654
4.34207e-05
3.9487e-05
3.94709e-05
0.000130069
4.0338e-05
4.03426e-05
3.79594e-05
4.92163e-05
3.74751e-05
4.92234e-05
2.39847e-05
2.3957e-05
3.80107e-05
4.92126e-05
3.74111e-05
4.92174e-05
0.000197822
0.00019782
0.000197818
0.000194359
0.000194357
0.000194353
0.000194353
6.15203e-05
4.39295e-05
0.000179196
0.000154268
6.27937e-05
4.43863e-05
0.000177746
2.39887e-05
2.39486e-05
6.15388e-05
0.0001792
4.40247e-05
0.000154268
6.27852e-05
0.000177746
4.42666e-05
4.20083e-05
4.20066e-05
0.000123494
4.28539e-05
4.28411e-05
3.99709e-05
4.92302e-05
3.92425e-05
4.92534e-05
2.38924e-05
2.38759e-05
3.99699e-05
4.92365e-05
3.92157e-05
4.92411e-05
0.000193211
0.000193207
0.000193207
0.000189771
0.00018977
0.000189765
0.000189766
5.90115e-05
4.50675e-05
0.000173497
0.000148049
5.98313e-05
4.56554e-05
0.000172112
2.38976e-05
2.38669e-05
5.90175e-05
0.0001735
4.51501e-05
0.000148047
5.98462e-05
0.00017211
4.55366e-05
4.44942e-05
4.45067e-05
0.000117421
4.53091e-05
4.52998e-05
4.2475e-05
4.92659e-05
4.1565e-05
4.92918e-05
2.38278e-05
2.38191e-05
4.24845e-05
4.92719e-05
4.15352e-05
4.92802e-05
0.000188622
0.000188617
0.000188618
0.000185217
0.000185216
0.00018521
0.000185212
5.71946e-05
4.65864e-05
0.000168046
0.000142136
5.76729e-05
4.72618e-05
0.000166719
2.38336e-05
2.38096e-05
5.71983e-05
0.000168047
4.66545e-05
0.000142132
5.76716e-05
0.000166716
4.71514e-05
4.68852e-05
4.68907e-05
0.000111561
4.76555e-05
4.76338e-05
4.5385e-05
4.93074e-05
4.43483e-05
4.93325e-05
2.37823e-05
2.3779e-05
4.53783e-05
4.93128e-05
4.43303e-05
4.93219e-05
0.000184091
0.000184086
0.000184087
0.000180752
0.000180751
0.000180745
0.000180747
5.59913e-05
4.83747e-05
0.000162808
0.000136473
5.62796e-05
4.91358e-05
0.000161529
2.37883e-05
2.37691e-05
5.60198e-05
0.000162809
4.8414e-05
0.000136468
5.62326e-05
0.000161526
4.9097e-05
4.91278e-05
4.91335e-05
0.000106157
4.983e-05
4.98204e-05
4.86276e-05
4.93477e-05
4.74912e-05
4.93708e-05
2.37493e-05
2.37485e-05
4.86223e-05
4.93527e-05
4.74803e-05
4.93613e-05
0.000179647
0.000179641
0.000179643
0.000176365
0.000176364
0.000176358
0.000176359
5.54483e-05
5.04372e-05
0.000157751
0.000131024
5.55234e-05
5.11597e-05
0.000156514
2.37553e-05
2.37402e-05
5.54677e-05
0.000157751
5.04366e-05
0.000131018
5.54954e-05
0.00015651
5.11679e-05
5.11981e-05
5.11784e-05
0.000101271
5.18282e-05
5.18458e-05
5.2039e-05
4.93842e-05
5.08728e-05
4.94055e-05
2.37259e-05
2.37227e-05
5.20742e-05
4.93888e-05
5.08556e-05
4.9397e-05
0.000175279
0.000175272
0.000175274
0.000172045
0.000172044
0.000172038
0.000172039
5.55478e-05
5.26239e-05
0.000152846
0.000125792
5.542e-05
5.33679e-05
0.000151645
2.37281e-05
2.37187e-05
5.55923e-05
0.000152847
5.26077e-05
0.000125785
5.53956e-05
0.000151641
5.33798e-05
5.30765e-05
5.30586e-05
9.68626e-05
5.36464e-05
5.3663e-05
5.55429e-05
4.94175e-05
5.43351e-05
4.94368e-05
2.37068e-05
2.37022e-05
5.55725e-05
4.9422e-05
5.43023e-05
4.94288e-05
0.000170974
0.000170967
0.00017097
0.000167777
0.000167776
0.00016777
0.000167771
5.62721e-05
5.48496e-05
0.00014809
0.000120794
5.59468e-05
5.56667e-05
0.000146923
2.37059e-05
2.36996e-05
5.63168e-05
0.000148091
5.48643e-05
0.000120788
5.59267e-05
0.000146919
5.56456e-05
5.47756e-05
5.47766e-05
9.28761e-05
5.52907e-05
5.52901e-05
5.89596e-05
4.94479e-05
5.77224e-05
4.94661e-05
2.36891e-05
2.36846e-05
5.90073e-05
4.94521e-05
5.76897e-05
4.94584e-05
0.00016672
0.000166712
0.000166716
0.000163559
0.000163559
0.000163552
0.000163554
5.7588e-05
5.71098e-05
0.000143449
0.00011605
5.70569e-05
5.79442e-05
0.000142307
2.36874e-05
2.36822e-05
5.76175e-05
0.00014345
5.7143e-05
0.000116045
5.70375e-05
0.000142305
5.79283e-05
5.62927e-05
5.62967e-05
8.95623e-05
5.67922e-05
5.6791e-05
6.21558e-05
4.94769e-05
6.0977e-05
4.94938e-05
2.36729e-05
2.36682e-05
6.21946e-05
4.94803e-05
6.09551e-05
4.94862e-05
0.000162517
0.000162508
0.000162513
0.000159377
0.000159377
0.00015937
0.000159372
5.93812e-05
5.93793e-05
0.000138905
0.000111619
5.87246e-05
6.01706e-05
0.00013779
2.36708e-05
2.36662e-05
5.93846e-05
0.000138906
5.94338e-05
0.000111613
5.87274e-05
0.000137789
6.01251e-05
5.76749e-05
5.76773e-05
8.67682e-05
5.81307e-05
5.8129e-05
6.51025e-05
4.95034e-05
6.39737e-05
4.95194e-05
2.36574e-05
2.36534e-05
6.51242e-05
4.95069e-05
6.39601e-05
4.95123e-05
0.00015834
0.000158329
0.000158335
0.000155214
0.000155214
0.000155207
0.000155209
6.15973e-05
6.15812e-05
0.000134464
0.00010755
6.08349e-05
6.23376e-05
0.00013338
2.36554e-05
2.36512e-05
6.16144e-05
0.000134467
6.16277e-05
0.000107544
6.08242e-05
0.000133384
6.22956e-05
5.89283e-05
5.89295e-05
8.46135e-05
5.93443e-05
5.93416e-05
6.77142e-05
4.9528e-05
6.66894e-05
4.95443e-05
2.36433e-05
2.36396e-05
4.95321e-05
6.66776e-05
4.95366e-05
0.000154181
0.00015417
0.000154177
6.41576e-05
6.36875e-05
0.000130143
0.000103921
6.33185e-05
6.43465e-05
0.0001291
2.36411e-05
6.41851e-05
0.000130145
6.3727e-05
6.32872e-05
0.000129102
6.00658e-05
6.00656e-05
8.30764e-05
6.04489e-05
6.04487e-05
0.000234872
0.000233745
0.000233837
2.33937e-05
0.00021419
2.34116e-05
0.000214276
0.000234424
4.99535e-05
4.97824e-05
0.000230272
0.000230308
0.000235096
0.000234799
0.000234764
0.000234726
0.000235104
0.0002348
0.00023478
0.000234726
0.000234505
3.99148e-05
0.000220581
0.000147248
0.000234554
3.99423e-05
0.000220746
0.000147115
0.000233966
0.000234471
9.82155e-05
0.000234271
0.000233522
0.000234597
0.000228349
0.000233939
0.000234471
9.80858e-05
0.000234271
0.000233466
0.000234597
0.000228331
0.000234872
0.000233819
0.000233861
2.3398e-05
0.000214277
0.000234425
5.02026e-05
5.00667e-05
0.000228974
0.000229029
2.33944e-05
0.000214612
0.000235101
0.0002348
0.000234919
0.000234726
0.0002351
0.0002348
0.000234726
0.000234793
0.000234496
4.00864e-05
0.000216766
0.000147237
0.000233939
0.000234471
9.87712e-05
0.000234271
0.000233114
0.000234597
0.00022832
0.00023455
3.99502e-05
0.000220806
0.000147213
0.000233948
0.00023447
0.000234271
9.81634e-05
0.000234597
0.000233507
0.000228338
0.00023473
0.000234746
0.000234729
0.000234729
0.00023473
0.000234746
0.000234729
0.000234729
0.00023473
0.000234746
0.000234729
0.000234729
0.000234591
0.000234573
0.000234253
0.000234253
0.000234592
0.000234592
0.000234252
0.000234591
0.000234573
0.000234253
0.000234253
0.000234592
0.000234592
0.000234252
0.000234591
0.000234573
0.000234253
0.000234253
0.000234592
0.000234592
0.000234252
0.000234591
0.000234574
0.000234253
0.000234253
0.000234592
0.000234592
0.000234252
0.000235101
0.000234798
0.000234726
0.000234745
0.000233889
0.000234472
9.83095e-05
0.00023427
0.000233412
0.000234597
0.000228291
0.000234502
3.99208e-05
0.000220595
0.000147128
0.000233955
0.000234473
0.000234271
9.84644e-05
0.000234597
0.000233495
0.000228315
0.000234546
3.99533e-05
0.000220666
0.000147129
0.000234872
0.000233787
0.00023384
2.34e-05
0.000214523
0.000234424
4.98057e-05
4.97993e-05
0.000230063
0.000230235
2.3408e-05
0.000214655
0.000235102
0.000234798
0.000234726
0.000234733
0.000233829
0.000234472
0.00023427
9.88853e-05
0.000234597
0.000233159
0.000228314
0.000233948
0.000234474
0.00023427
9.84914e-05
0.000234597
0.000233454
0.000228292
0.0002345
4.00984e-05
0.000216718
0.000147037
0.000234541
3.99522e-05
0.000220566
0.000147069
0.000234426
4.9906e-05
5.01147e-05
0.00023033
0.000229273
2.33969e-05
0.000214236
2.33942e-05
0.000214198
2.1477e-05
2.28559e-05
2.14765e-05
2.28514e-05
4.73104e-05
4.73291e-05
0.000231307
4.36968e-05
4.36756e-05
2.45008e-05
2.33385e-05
2.44998e-05
2.33348e-05
0.000229609
3.97979e-05
3.9912e-05
4.2793e-05
4.27783e-05
0.000104698
3.85213e-05
0.000128252
3.97609e-05
0.000206071
9.22647e-05
0.000233967
0.000231971
0.000222372
8.65211e-05
0.000233607
0.000206093
9.21049e-05
0.000233968
0.000231957
0.000222373
8.64223e-05
0.000233607
9.83091e-05
4.19353e-05
4.03376e-05
8.55046e-05
9.82887e-05
4.1934e-05
4.03382e-05
8.54881e-05
0.000199911
0.000230709
8.01625e-05
0.000232668
8.50697e-05
0.00023318
0.000185411
0.000199913
0.000230694
8.01338e-05
0.000232669
8.50113e-05
0.000233181
0.000185398
4.73232e-05
4.73224e-05
0.000231274
4.36909e-05
4.36902e-05
2.14799e-05
2.28537e-05
2.45004e-05
2.3319e-05
0.00022957
3.99371e-05
3.99391e-05
4.28396e-05
4.28423e-05
2.45031e-05
2.33378e-05
0.000205993
9.24044e-05
0.000233967
0.00023197
0.000222379
8.6507e-05
0.000233605
0.000104706
3.85112e-05
0.00012833
3.97592e-05
0.000206088
0.000233968
9.22345e-05
0.000231963
0.000222374
0.000233608
8.64511e-05
9.82256e-05
4.19312e-05
4.03278e-05
8.54347e-05
0.000199837
0.000230709
8.01886e-05
0.000232665
8.51276e-05
0.000233178
0.000185335
9.8322e-05
4.19314e-05
4.03344e-05
8.55002e-05
0.000199929
0.000230701
0.00023267
8.0153e-05
0.000233181
8.50171e-05
0.000185408
0.000104582
3.84948e-05
0.000128201
3.97609e-05
0.00020596
0.000233967
9.21027e-05
0.000231967
0.000222324
0.000233606
8.63439e-05
0.000104558
3.85115e-05
0.000128222
3.97631e-05
0.000199808
0.000230704
8.02386e-05
0.000232663
8.51348e-05
0.000233178
0.00018528
9.82091e-05
4.19363e-05
4.03433e-05
8.54164e-05
0.000199818
0.000230704
0.000232665
8.00976e-05
0.000233177
8.49154e-05
0.00018533
9.82145e-05
4.19349e-05
4.03415e-05
8.54513e-05
4.72966e-05
4.73199e-05
0.000231294
4.36155e-05
4.3685e-05
2.14722e-05
2.28511e-05
2.44998e-05
2.33158e-05
0.000229592
3.98622e-05
3.99284e-05
4.27246e-05
4.2782e-05
2.45009e-05
2.33352e-05
0.000205965
0.000233967
9.20937e-05
0.000231961
0.00022233
0.000233605
8.63514e-05
0.000104568
3.84666e-05
0.000128169
3.97619e-05
0.000104568
3.8514e-05
0.000128191
3.97609e-05
0.000199812
0.000230709
0.000232664
8.02891e-05
0.000233177
8.51948e-05
0.000185313
0.000199833
0.000230699
0.000232665
8.01175e-05
0.000233178
8.49227e-05
0.000185367
9.82255e-05
4.19323e-05
4.03433e-05
8.54392e-05
9.82468e-05
4.19334e-05
4.0339e-05
8.54782e-05
2.14784e-05
2.28512e-05
2.1479e-05
2.28498e-05
0.000229587
3.98974e-05
3.99455e-05
4.2827e-05
4.28905e-05
2.45015e-05
2.33354e-05
2.44991e-05
2.3334e-05
2.479e-05
2.54757e-05
2.47886e-05
2.54749e-05
3.8996e-05
3.90851e-05
0.000219452
3.64479e-05
3.65127e-05
2.59594e-05
2.56257e-05
2.59584e-05
2.56249e-05
0.000216615
3.38276e-05
3.38621e-05
3.56654e-05
3.57354e-05
7.25999e-05
4.24025e-05
8.13356e-05
4.37492e-05
0.000167342
7.88558e-05
0.00023206
0.000225994
0.000180019
7.40292e-05
0.00023135
0.000167308
7.88346e-05
0.000232059
0.00022598
0.000180003
7.39308e-05
0.000231347
6.96952e-05
4.52331e-05
4.41327e-05
6.32909e-05
6.96742e-05
4.52331e-05
4.41322e-05
6.32724e-05
0.000162777
0.000224155
6.827e-05
0.000229617
7.2674e-05
0.000230535
0.000151798
0.000162746
0.000224141
6.81773e-05
0.00022961
7.27091e-05
0.00023053
0.000151774
3.91076e-05
3.91312e-05
0.000219423
3.65473e-05
3.65526e-05
2.47914e-05
2.54771e-05
2.59589e-05
2.56254e-05
0.000216585
3.3883e-05
3.38946e-05
3.57575e-05
3.57803e-05
2.59603e-05
2.56268e-05
0.000167288
7.88912e-05
0.000232057
0.000226001
0.000179937
7.39745e-05
0.000231345
7.25939e-05
4.23988e-05
8.13394e-05
4.37451e-05
0.000167307
0.000232061
7.8833e-05
0.000225989
0.000180013
0.00023135
7.3992e-05
6.96684e-05
4.52312e-05
4.41301e-05
6.32899e-05
0.000162729
0.000224164
6.82157e-05
0.000229613
7.27422e-05
0.000230531
0.000151798
6.96722e-05
4.52292e-05
4.4127e-05
6.32751e-05
0.000162741
0.000224149
0.000229611
6.81991e-05
0.000230533
7.26418e-05
0.000151764
7.25557e-05
4.24035e-05
8.12741e-05
4.37509e-05
0.000167282
0.000232055
7.87957e-05
0.000225987
0.000179938
0.000231344
7.38988e-05
7.26009e-05
4.24036e-05
8.12964e-05
4.37491e-05
0.000162682
0.00022415
6.82973e-05
0.000229599
7.27128e-05
0.000230521
0.000151684
6.96454e-05
4.5234e-05
4.41327e-05
6.32483e-05
0.000162737
0.000224146
0.00022961
6.81604e-05
0.000230529
7.26735e-05
0.000151777
6.96825e-05
4.52325e-05
4.41324e-05
6.32867e-05
3.9052e-05
3.91022e-05
0.00021944
3.64859e-05
3.65328e-05
2.47902e-05
2.54754e-05
2.59573e-05
2.5624e-05
0.000216603
3.38442e-05
3.38752e-05
3.57182e-05
3.57498e-05
2.59591e-05
2.56258e-05
0.00016733
0.000232058
7.88175e-05
0.000225987
0.000179976
0.000231348
7.3924e-05
7.25734e-05
4.24015e-05
8.12859e-05
4.37486e-05
7.26202e-05
4.24016e-05
8.13233e-05
4.37488e-05
0.000162727
0.000224166
0.000229607
6.82546e-05
0.000230527
7.27952e-05
0.000151742
0.000162777
0.00022415
0.000229617
6.81783e-05
0.000230535
7.2695e-05
0.000151836
6.96645e-05
4.5233e-05
4.41313e-05
6.32854e-05
6.97027e-05
4.52327e-05
4.41314e-05
6.3313e-05
2.47905e-05
2.54754e-05
2.47887e-05
2.54744e-05
0.000216591
3.38504e-05
3.38612e-05
3.57263e-05
3.57472e-05
2.59589e-05
2.56257e-05
2.59586e-05
2.5625e-05
2.60161e-05
2.61191e-05
2.60148e-05
2.61175e-05
3.32479e-05
3.32717e-05
0.000204478
3.20431e-05
3.20417e-05
2.60746e-05
2.6119e-05
2.60769e-05
2.61173e-05
0.000201209
3.09608e-05
3.09537e-05
3.16363e-05
3.16358e-05
5.63223e-05
4.55363e-05
6.1212e-05
4.64136e-05
0.000138537
6.70014e-05
0.000228597
0.000218091
0.000147996
6.319e-05
0.000227483
0.000138524
6.70428e-05
0.000228589
0.000218071
0.00014797
6.30962e-05
0.000227475
5.4839e-05
4.73264e-05
4.6646e-05
5.10514e-05
5.48566e-05
4.73258e-05
4.66453e-05
5.10612e-05
0.000135365
0.000215939
5.88091e-05
0.000225
6.20485e-05
0.000226281
0.000127213
0.000135358
0.000215916
5.87693e-05
0.000224992
6.20881e-05
0.000226273
0.000127214
3.32889e-05
3.3306e-05
0.000204445
3.206e-05
3.20729e-05
2.60167e-05
2.61194e-05
2.60754e-05
2.61181e-05
0.000201173
3.09713e-05
3.0979e-05
3.16513e-05
3.16599e-05
2.6079e-05
2.61193e-05
0.000138547
6.70611e-05
0.000228596
0.000218101
0.000147981
6.31148e-05
0.000227482
5.63364e-05
4.55322e-05
6.1199e-05
4.64124e-05
0.000138502
0.000228588
6.69298e-05
0.000218069
0.000147959
0.000227472
6.30945e-05
5.48588e-05
4.73229e-05
4.66434e-05
5.10851e-05
0.000135373
0.000215948
5.87805e-05
0.000225001
6.20987e-05
0.000226283
0.000127215
5.48348e-05
4.73249e-05
4.66429e-05
5.10825e-05
0.000135346
0.000215909
0.000224985
5.87416e-05
0.000226268
6.19649e-05
0.000127199
5.63088e-05
4.5536e-05
6.11921e-05
4.64139e-05
0.000138521
0.00022859
6.70083e-05
0.000218072
0.000147978
0.000227476
6.30767e-05
5.63274e-05
4.55352e-05
6.122e-05
4.64117e-05
0.000135358
0.000215929
5.88694e-05
0.000224983
6.20547e-05
0.000226264
0.000127139
5.48281e-05
4.73257e-05
4.66444e-05
5.1073e-05
0.000135355
0.000215918
0.000224991
5.87546e-05
0.000226274
6.20612e-05
0.000127198
5.48543e-05
4.73231e-05
4.66431e-05
5.10535e-05
3.32574e-05
3.32789e-05
0.000204456
3.20324e-05
3.20472e-05
2.60158e-05
2.61183e-05
2.60711e-05
2.61159e-05
0.000201185
3.0949e-05
3.09601e-05
3.16234e-05
3.16404e-05
2.60874e-05
2.61178e-05
0.000138589
0.000228598
6.70223e-05
0.000218081
0.000148019
0.000227486
6.3087e-05
5.63525e-05
4.55357e-05
6.12117e-05
4.64123e-05
5.63731e-05
4.55356e-05
6.12396e-05
4.64125e-05
0.000135407
0.000215947
0.000224998
5.88715e-05
0.000226279
6.21165e-05
0.000127248
0.000135403
0.000215928
0.000225005
5.87634e-05
0.000226285
6.20707e-05
0.000127248
5.48513e-05
4.7324e-05
4.66439e-05
5.10892e-05
5.48666e-05
4.73241e-05
4.6644e-05
5.11035e-05
2.60155e-05
2.61178e-05
2.60153e-05
2.61176e-05
0.000201175
3.09522e-05
3.09572e-05
3.16281e-05
3.16326e-05
2.60759e-05
2.61176e-05
2.60742e-05
2.61173e-05
2.60519e-05
2.59402e-05
2.60472e-05
2.59393e-05
3.06972e-05
3.06849e-05
0.000189687
3.03922e-05
3.03968e-05
2.57408e-05
2.58818e-05
2.57386e-05
2.58781e-05
0.000186447
3.0246e-05
3.0265e-05
3.02951e-05
3.02744e-05
4.70569e-05
4.74952e-05
4.999e-05
4.80083e-05
0.000117514
5.79212e-05
0.000223647
0.000209269
0.000124578
5.51977e-05
0.000222231
0.000117518
5.79204e-05
0.00022364
0.000209242
0.000124578
5.51572e-05
0.000222224
4.62351e-05
4.85014e-05
4.81278e-05
4.38792e-05
4.62145e-05
4.85009e-05
4.81266e-05
4.39126e-05
0.000115397
0.000207012
5.22384e-05
0.000219242
5.44727e-05
0.00022076
0.000109261
0.0001154
0.000206986
5.2202e-05
0.000219237
5.44782e-05
0.000220754
0.000109277
3.07019e-05
3.07118e-05
0.000189664
3.04078e-05
3.03883e-05
2.6049e-05
2.59409e-05
2.57399e-05
2.58803e-05
0.000186416
3.02753e-05
3.0262e-05
3.02894e-05
3.03106e-05
2.57408e-05
2.58803e-05
0.000117507
5.79251e-05
0.000223649
0.000209276
0.000124576
5.51582e-05
0.00022223
4.70389e-05
4.74939e-05
4.99639e-05
4.80078e-05
0.000117504
0.000223632
5.7857e-05
0.000209227
0.000124559
0.000222215
5.51669e-05
4.61927e-05
4.84979e-05
4.81238e-05
4.39112e-05
0.000115376
0.000207019
5.22016e-05
0.000219237
5.44793e-05
0.000220759
0.000109254
4.6197e-05
4.84997e-05
4.8125e-05
4.39119e-05
0.000115374
0.000206971
0.000219228
5.22282e-05
0.000220745
5.44376e-05
0.000109257
4.70365e-05
4.74938e-05
4.99423e-05
4.80079e-05
0.000117492
0.000223638
5.79016e-05
0.000209243
0.000124562
0.000222221
5.51408e-05
4.70416e-05
4.74924e-05
4.99806e-05
4.80054e-05
0.000115374
0.000207005
5.23028e-05
0.000219228
5.44215e-05
0.000220746
0.000109248
4.61798e-05
4.85002e-05
4.81247e-05
4.38982e-05
0.000115376
0.000206986
0.00021923
5.21878e-05
0.000220749
5.44626e-05
0.000109249
4.62019e-05
4.84981e-05
4.81238e-05
4.39023e-05
3.06812e-05
3.06905e-05
0.000189655
3.03821e-05
3.0396e-05
2.6041e-05
2.59388e-05
2.57373e-05
2.58787e-05
0.000186443
3.02383e-05
3.02668e-05
3.02809e-05
3.02846e-05
2.57391e-05
2.58785e-05
0.000117527
0.000223652
5.79064e-05
0.000209256
0.000124604
0.000222236
5.5146e-05
4.70113e-05
4.74925e-05
4.99724e-05
4.80055e-05
4.70095e-05
4.74932e-05
4.99828e-05
4.8006e-05
0.000115388
0.000207016
0.000219241
5.2276e-05
0.000220762
5.4447e-05
0.000109255
0.000115398
0.000207
0.000219244
5.21891e-05
0.000220764
5.44679e-05
0.000109257
4.62233e-05
4.84978e-05
4.81233e-05
4.38739e-05
4.62412e-05
4.84983e-05
4.81243e-05
4.38715e-05
2.60484e-05
2.59395e-05
2.60484e-05
2.59387e-05
0.000186439
3.02722e-05
3.02683e-05
3.02737e-05
3.02766e-05
2.57391e-05
2.58793e-05
2.57383e-05
2.58786e-05
2.56731e-05
2.55217e-05
2.56702e-05
2.55193e-05
3.02974e-05
3.02642e-05
0.000176321
3.04506e-05
3.04672e-05
2.53034e-05
2.54527e-05
2.53008e-05
2.54495e-05
0.000173248
3.09109e-05
3.09279e-05
3.05915e-05
3.05597e-05
4.14885e-05
4.85786e-05
4.32898e-05
4.88412e-05
0.000102129
5.16524e-05
0.000217684
0.000200253
0.000107449
4.98445e-05
0.000216093
0.000102143
5.1656e-05
0.000217679
0.000200229
0.000107438
4.98083e-05
0.000216088
4.10401e-05
4.90625e-05
4.88887e-05
3.95886e-05
4.10111e-05
4.90631e-05
4.88887e-05
3.95996e-05
0.000100507
0.000198023
4.78912e-05
0.000212835
4.93682e-05
0.000214474
9.59419e-05
0.000100516