/*--------------------------------*- C++ -*----------------------------------*\
| =========                 |                                                 |
| \\      /  F ield         | OpenFOAM: The Open Source CFD Toolbox           |
|  \\    /   O peration     | Version:  v1906                                 |
|   \\  /    A nd           | Web:      www.OpenFOAM.com                      |
|    \\/     M anipulation  |                                                 |
\*---------------------------------------------------------------------------*/
FoamFile
{
    version     2.0;
    format      ascii;
    class       volVectorField;
    location    "700";
    object      U;
}
// * * * * * * * * * * * * * * * * * * * * * * * * * * * * * * * * * * * * * //

dimensions      [0 1 -1 0 0 0 0];


internalField   nonuniform List<vector> 
42616
(
(0.00010617 0.000106218 0.100294)
(-0.000184913 0.000115552 0.10039)
(0.000115669 -0.000184848 0.10039)
(-0.0002479 -0.000247868 0.100398)
(9.71801e-05 9.7102e-05 0.100853)
(-0.000151456 9.36491e-05 0.100938)
(9.36458e-05 -0.000151429 0.100938)
(-0.000194355 -0.000194382 0.100971)
(9.7118e-05 9.7072e-05 0.101368)
(-0.000152212 9.09798e-05 0.101447)
(9.09079e-05 -0.000152264 0.101447)
(-0.000194761 -0.000194898 0.101474)
(9.4844e-05 9.48587e-05 0.101886)
(-0.000149339 8.71553e-05 0.101953)
(8.71854e-05 -0.000149312 0.101954)
(-0.000192201 -0.000192223 0.101967)
(9.14086e-05 9.14541e-05 0.102391)
(-0.000143746 8.24063e-05 0.102442)
(8.25148e-05 -0.000143626 0.102442)
(-0.000187005 -0.000186972 0.102435)
(8.79845e-05 8.79728e-05 0.102877)
(-0.000137763 7.83711e-05 0.102907)
(7.84648e-05 -0.000137666 0.102907)
(-0.000181597 -0.000181566 0.102874)
(8.48663e-05 8.48096e-05 0.103344)
(-0.000132329 7.50979e-05 0.103348)
(7.51827e-05 -0.000132295 0.103348)
(-0.000176928 -0.000176931 0.103285)
(8.21135e-05 8.21154e-05 0.103793)
(-0.000127627 7.25148e-05 0.103768)
(7.25234e-05 -0.000127604 0.103768)
(-0.000173175 -0.000173192 0.103668)
(7.97981e-05 7.98496e-05 0.104226)
(-0.000123556 7.05151e-05 0.104168)
(7.04641e-05 -0.000123482 0.104168)
(-0.000170272 -0.000170276 0.104027)
(7.78666e-05 7.78794e-05 0.104646)
(-0.000120034 6.92035e-05 0.10455)
(6.9061e-05 -0.000119909 0.10455)
(-0.000168147 -0.000168094 0.104363)
(7.61636e-05 7.61268e-05 0.105053)
(-0.000116857 6.81464e-05 0.104917)
(6.80522e-05 -0.000116727 0.104917)
(-0.000166579 -0.00016655 0.104678)
(7.46201e-05 7.45237e-05 0.105449)
(-0.000113895 6.71429e-05 0.105269)
(6.70959e-05 -0.000113748 0.105268)
(-0.000165213 -0.000165227 0.104972)
(7.31519e-05 7.30422e-05 0.105836)
(-0.000111219 6.61336e-05 0.105606)
(6.61377e-05 -0.000111122 0.105606)
(-0.000164049 -0.000164144 0.105245)
(7.16771e-05 7.15964e-05 0.106213)
(-0.000108732 6.50621e-05 0.10593)
(6.50693e-05 -0.000108673 0.10593)
(-0.000163002 -0.000163075 0.105497)
(7.0226e-05 7.01789e-05 0.106581)
(-0.000106292 6.40206e-05 0.106239)
(6.40005e-05 -0.000106255 0.106239)
(-0.000161751 -0.000161805 0.105727)
(6.87984e-05 6.87666e-05 0.10694)
(-0.000103906 6.30202e-05 0.106534)
(6.29943e-05 -0.000103886 0.106533)
(-0.000160258 -0.000160334 0.105934)
(6.74008e-05 6.73808e-05 0.10729)
(-0.000101565 6.20126e-05 0.106813)
(6.19991e-05 -0.000101562 0.106813)
(-0.000158638 -0.000158709 0.106117)
(6.60667e-05 6.6059e-05 0.107631)
(-9.92857e-05 6.10056e-05 0.107077)
(6.1038e-05 -9.93933e-05 0.107077)
(-0.000156828 -0.000156878 0.106274)
(6.47746e-05 6.47834e-05 0.107963)
(-9.73066e-05 6.00654e-05 0.107325)
(6.01094e-05 -9.74196e-05 0.107325)
(-0.000154769 -0.000154807 0.106405)
(6.35105e-05 6.35106e-05 0.108287)
(-9.54605e-05 5.9068e-05 0.107556)
(5.9143e-05 -9.5543e-05 0.107556)
(-0.000152341 -0.000152377 0.106508)
(6.22673e-05 6.22622e-05 0.108602)
(-9.36439e-05 5.80499e-05 0.10777)
(5.81017e-05 -9.37096e-05 0.10777)
(-0.000149488 -0.000149534 0.106585)
(0.000138135 0.000138221 0.100281)
(0.000126584 0.000160008 0.100229)
(-0.000126531 0.000159913 0.100229)
(-0.000138057 0.000138043 0.10028)
(0.000160023 0.000126553 0.100229)
(0.000159966 -0.000126526 0.100229)
(9.38655e-05 9.38203e-05 0.100152)
(-9.38252e-05 9.37719e-05 0.100152)
(9.38203e-05 -9.38411e-05 0.100152)
(-9.38472e-05 -9.38549e-05 0.100152)
(-0.000159973 0.00012647 0.100229)
(-0.00016003 -0.000126542 0.100229)
(0.000138106 -0.000138148 0.100281)
(0.000126504 -0.000160009 0.100229)
(-0.000126564 -0.000160009 0.100229)
(-0.000138192 -0.000138124 0.100281)
(0.000247873 0.000247964 0.100398)
(0.000112692 0.000112651 0.100896)
(0.000115666 0.000184864 0.10039)
(-0.000115597 0.000184905 0.10039)
(9.31439e-05 0.000148894 0.100817)
(-9.31364e-05 0.000149056 0.100817)
(-0.000247806 0.000247779 0.100398)
(-0.000112714 0.000112583 0.100896)
(0.00018488 0.000115674 0.10039)
(0.000184843 -0.000115676 0.10039)
(0.000148936 9.31644e-05 0.100817)
(0.000148979 -9.31778e-05 0.100817)
(-0.000184933 -0.000115688 0.10039)
(-0.00014897 9.31402e-05 0.100817)
(-0.000148993 -9.31331e-05 0.100817)
(0.00024779 -0.000247912 0.100398)
(0.000112755 -0.000112789 0.100896)
(-0.000115705 -0.000184904 0.10039)
(9.31753e-05 -0.000148937 0.100817)
(-9.31898e-05 -0.000148994 0.100817)
(-0.000112765 -0.000112771 0.100896)
(0.000194303 0.000194214 0.100971)
(0.000105464 0.000105408 0.101399)
(9.36129e-05 0.000151351 0.100938)
(-9.36139e-05 0.000151536 0.100938)
(9.14779e-05 0.000152148 0.101319)
(-9.14008e-05 0.000152194 0.101319)
(-0.000194321 0.000194207 0.100971)
(-0.000105371 0.00010535 0.101399)
(0.000151471 9.35441e-05 0.100938)
(0.000151455 -9.36091e-05 0.100938)
(0.00015219 9.14284e-05 0.101319)
(0.000152082 -9.14164e-05 0.101319)
(-0.000151442 -9.36264e-05 0.100938)
(-0.000152073 9.1497e-05 0.101319)
(-0.000152072 -9.14885e-05 0.101319)
(0.000194325 -0.000194379 0.100971)
(0.000105351 -0.000105421 0.101399)
(-9.36728e-05 -0.000151507 0.100938)
(9.143e-05 -0.000152115 0.101319)
(-9.14559e-05 -0.000152227 0.101319)
(-0.000105402 -0.000105522 0.101399)
(0.000194859 0.000194796 0.101474)
(9.78432e-05 9.78386e-05 0.101896)
(9.09664e-05 0.000152331 0.101447)
(-9.08802e-05 0.000152323 0.101447)
(8.83922e-05 0.00015055 0.101828)
(-8.82762e-05 0.000150486 0.101828)
(-0.000194745 0.000194726 0.101474)
(-9.77318e-05 9.76149e-05 0.101896)
(0.000152317 9.09657e-05 0.101447)
(0.000152194 -9.09058e-05 0.101447)
(0.000150467 8.84418e-05 0.101828)
(0.000150384 -8.82828e-05 0.101828)
(-0.000152227 -9.09978e-05 0.101447)
(-0.000150463 8.83055e-05 0.101828)
(-0.00015049 -8.83654e-05 0.101828)
(0.000194707 -0.0001948 0.101474)
(9.76145e-05 -9.77821e-05 0.101896)
(-9.09713e-05 -0.000152365 0.101447)
(8.83046e-05 -0.000150472 0.101828)
(-8.83901e-05 -0.000150489 0.101828)
(-9.77916e-05 -9.7805e-05 0.101896)
(0.000192271 0.000192237 0.101967)
(8.84852e-05 8.8497e-05 0.10237)
(8.72533e-05 0.000149385 0.101954)
(-8.71596e-05 0.000149321 0.101954)
(8.36583e-05 0.000145237 0.102322)
(-8.35959e-05 0.000145177 0.102322)
(-0.000192178 0.00019205 0.101967)
(-8.84789e-05 8.82987e-05 0.10237)
(0.0001493 8.73041e-05 0.101954)
(0.000149251 -8.71385e-05 0.101954)
(0.000145119 8.3729e-05 0.102322)
(0.000145177 -8.35113e-05 0.102322)
(-0.000149358 -8.72187e-05 0.101954)
(-0.000145246 8.35795e-05 0.102322)
(-0.000145261 -8.3656e-05 0.102322)
(0.000192053 -0.000192202 0.101967)
(8.83875e-05 -8.84246e-05 0.10237)
(-8.72747e-05 -0.000149314 0.101954)
(8.36664e-05 -0.000145134 0.102322)
(-8.37556e-05 -0.00014515 0.102322)
(-8.8545e-05 -8.84777e-05 0.10237)
(0.000186984 0.000186951 0.102435)
(7.97156e-05 7.9727e-05 0.102816)
(8.24778e-05 0.000143747 0.102442)
(-8.24338e-05 0.000143698 0.102442)
(7.93727e-05 0.000139282 0.102793)
(-7.93083e-05 0.000139257 0.102793)
(-0.000186976 0.000186772 0.102435)
(-7.96681e-05 7.96506e-05 0.102816)
(0.000143624 8.25405e-05 0.102442)
(0.000143704 -8.23549e-05 0.102442)
(0.000139193 7.93899e-05 0.102793)
(0.000139274 -7.92658e-05 0.102793)
(-0.000143768 -8.24698e-05 0.102442)
(-0.000139225 7.92998e-05 0.102793)
(-0.000139281 -7.93408e-05 0.102793)
(0.000186855 -0.000186914 0.102435)
(7.9762e-05 -7.9597e-05 0.102816)
(-8.25793e-05 -0.000143653 0.102442)
(7.93945e-05 -0.000139115 0.102793)
(-7.94027e-05 -0.000139168 0.102793)
(-7.97576e-05 -7.96646e-05 0.102816)
(0.000181614 0.000181555 0.102874)
(7.19947e-05 7.19256e-05 0.103234)
(7.84491e-05 0.000137832 0.102907)
(-7.83727e-05 0.000137826 0.102907)
(7.59567e-05 0.000133704 0.10324)
(-7.58453e-05 0.000133674 0.10324)
(-0.000181537 0.000181482 0.102874)
(-7.18819e-05 7.18956e-05 0.103234)
(0.000137772 7.84439e-05 0.102907)
(0.000137837 -7.83411e-05 0.102907)
(0.000133689 7.59023e-05 0.10324)
(0.000133689 -7.58587e-05 0.10324)
(-0.00013783 -7.84069e-05 0.102907)
(-0.000133618 7.58493e-05 0.10324)
(-0.000133691 -7.58992e-05 0.10324)
(0.000181584 -0.000181499 0.102874)
(7.1998e-05 -7.19002e-05 0.103234)
(-7.84564e-05 -0.00013772 0.102907)
(7.59449e-05 -0.00013357 0.10324)
(-7.59154e-05 -0.000133603 0.10324)
(-7.19735e-05 -7.19147e-05 0.103234)
(0.000177008 0.000176884 0.103284)
(6.51414e-05 6.51428e-05 0.103625)
(7.52147e-05 0.000132414 0.103348)
(-7.51027e-05 0.000132374 0.103348)
(7.32129e-05 0.000128819 0.103665)
(-7.31381e-05 0.000128729 0.103665)
(-0.000176871 0.000176835 0.103285)
(-6.50865e-05 6.5058e-05 0.103625)
(0.000132399 7.51561e-05 0.103348)
(0.000132376 -7.51232e-05 0.103348)
(0.00012874 7.31929e-05 0.103665)
(0.000128664 -7.31611e-05 0.103665)
(-0.000132397 -7.51553e-05 0.103348)
(-0.000128736 7.31061e-05 0.103665)
(-0.000128791 -7.31813e-05 0.103665)
(0.000176918 -0.000176925 0.103284)
(6.50773e-05 -6.51426e-05 0.103625)
(-7.51605e-05 -0.000132317 0.103348)
(7.31326e-05 -0.000128719 0.103665)
(-7.31736e-05 -0.000128722 0.103665)
(-6.51515e-05 -6.51122e-05 0.103625)
(0.000173214 0.000173157 0.103668)
(5.91415e-05 5.92753e-05 0.103993)
(7.26169e-05 0.000127696 0.103768)
(-7.25654e-05 0.0001276 0.103768)
(7.10469e-05 0.000124565 0.104069)
(-7.10381e-05 0.000124447 0.104069)
(-0.000173141 0.000173054 0.103668)
(-5.91611e-05 5.91439e-05 0.103993)
(0.000127602 7.26171e-05 0.103768)
(0.000127511 -7.25829e-05 0.103768)
(0.000124418 7.10974e-05 0.10407)
(0.000124301 -7.10253e-05 0.10407)
(-0.000127678 -7.25996e-05 0.103768)
(-0.000124516 7.09573e-05 0.10407)
(-0.000124567 -7.10385e-05 0.10407)
(0.00017305 -0.000173222 0.103668)
(5.90886e-05 -5.91725e-05 0.103993)
(-7.25923e-05 -0.000127607 0.103768)
(7.09143e-05 -0.000124457 0.10407)
(-7.10577e-05 -0.00012447 0.10407)
(-5.92277e-05 -5.91538e-05 0.103993)
(0.000170266 0.000170236 0.104027)
(5.41624e-05 5.43915e-05 0.104338)
(7.06342e-05 0.000123605 0.104168)
(-7.06339e-05 0.000123485 0.104168)
(6.96785e-05 0.00012094 0.104456)
(-6.96755e-05 0.00012083 0.104456)
(-0.000170241 0.000170084 0.104027)
(-5.41825e-05 5.42972e-05 0.104338)
(0.000123447 7.06716e-05 0.104168)
(0.000123323 -7.06089e-05 0.104168)
(0.000120763 6.9625e-05 0.104456)
(0.000120627 -6.9609e-05 0.104456)
(-0.000123604 -7.05778e-05 0.104168)
(-0.000120873 6.94947e-05 0.104456)
(-0.000120912 -6.94857e-05 0.104456)
(0.000170011 -0.000170301 0.104027)
(5.41754e-05 -5.40805e-05 0.104338)
(-7.06037e-05 -0.000123497 0.104168)
(6.93514e-05 -0.000120752 0.104456)
(-6.94857e-05 -0.00012077 0.104456)
(-5.42281e-05 -5.40558e-05 0.104338)
(0.000168164 0.000168208 0.104363)
(4.97737e-05 4.99022e-05 0.104663)
(6.93967e-05 0.000120112 0.10455)
(-6.93876e-05 0.000120009 0.10455)
(6.86539e-05 0.000117741 0.104826)
(-6.85815e-05 0.000117656 0.104826)
(-0.000168127 0.000168088 0.104363)
(-4.96696e-05 4.98566e-05 0.104663)
(0.000119939 6.93329e-05 0.10455)
(0.000119801 -6.93222e-05 0.10455)
(0.000117596 6.85407e-05 0.104827)
(0.00011746 -6.8529e-05 0.104827)
(-0.000120083 -6.91997e-05 0.10455)
(-0.000117626 6.84049e-05 0.104827)
(-0.000117694 -6.84144e-05 0.104827)
(0.000167963 -0.000168106 0.104363)
(4.97283e-05 -4.96269e-05 0.104663)
(-6.91938e-05 -0.000119935 0.10455)
(6.8299e-05 -0.0001175 0.104826)
(-6.83955e-05 -0.000117545 0.104827)
(-4.9767e-05 -4.96431e-05 0.104663)
(0.000166655 0.000166624 0.104678)
(4.5597e-05 4.55897e-05 0.104968)
(6.83971e-05 0.000116961 0.104917)
(-6.83205e-05 0.000116891 0.104917)
(6.76614e-05 0.000114703 0.105182)
(-6.75589e-05 0.00011465 0.105182)
(-0.000166533 0.000166555 0.104678)
(-4.54845e-05 4.5624e-05 0.104968)
(0.000116839 6.82683e-05 0.104917)
(0.000116713 -6.82713e-05 0.104917)
(0.000114634 6.74807e-05 0.105182)
(0.000114537 -6.75114e-05 0.105182)
(-0.000116928 -6.81597e-05 0.104917)
(-0.000114612 6.73912e-05 0.105182)
(-0.000114675 -6.74047e-05 0.105182)
(0.00016644 -0.000166526 0.104678)
(4.55368e-05 -4.54343e-05 0.104967)
(-6.81329e-05 -0.000116782 0.104917)
(6.73345e-05 -0.000114475 0.105182)
(-6.73618e-05 -0.000114547 0.105182)
(-4.55237e-05 -4.54763e-05 0.104968)
(0.000165345 0.000165222 0.104972)
(4.1644e-05 4.15685e-05 0.105253)
(6.74137e-05 0.00011397 0.105268)
(-6.73086e-05 0.000113917 0.105268)
(6.66682e-05 0.000111911 0.105523)
(-6.65489e-05 0.000111887 0.105523)
(-0.000165202 0.000165212 0.104972)
(-4.15622e-05 4.163e-05 0.105253)
(0.000113911 6.72258e-05 0.105269)
(0.000113825 -6.72627e-05 0.105268)
(0.000111904 6.6478e-05 0.105523)
(0.000111854 -6.65038e-05 0.105523)
(-0.00011395 -6.71559e-05 0.105269)
(-0.000111852 6.63936e-05 0.105523)
(-0.000111887 -6.63898e-05 0.105523)
(0.000165152 -0.000165192 0.104972)
(4.15711e-05 -4.15108e-05 0.105253)
(-6.71093e-05 -0.000113832 0.105269)
(6.63894e-05 -0.000111748 0.105523)
(-6.63532e-05 -0.000111791 0.105523)
(-4.15309e-05 -4.15463e-05 0.105253)
(0.000164202 0.000164026 0.105245)
(3.76767e-05 3.77227e-05 0.105519)
(6.64014e-05 0.000111272 0.105606)
(-6.62878e-05 0.000111258 0.105606)
(6.56057e-05 0.000109415 0.10585)
(-6.55204e-05 0.000109391 0.10585)
(-0.000164121 0.000164045 0.105245)
(-3.75563e-05 3.77186e-05 0.105519)
(0.000111272 6.62302e-05 0.105606)
(0.000111229 -6.62444e-05 0.105606)
(0.000109405 6.54281e-05 0.10585)
(0.000109385 -6.54832e-05 0.10585)
(-0.000111252 -6.61304e-05 0.105606)
(-0.000109344 6.53266e-05 0.10585)
(-0.000109375 -6.53642e-05 0.10585)
(0.000164016 -0.000164114 0.105245)
(3.77162e-05 -3.75128e-05 0.105519)
(-6.60925e-05 -0.00011116 0.105606)
(6.53403e-05 -0.000109275 0.10585)
(-6.52787e-05 -0.000109303 0.10585)
(-3.76114e-05 -3.75469e-05 0.105519)
(0.000163133 0.000163019 0.105497)
(3.35069e-05 3.36194e-05 0.105764)
(6.53355e-05 0.000108799 0.105929)
(-6.52592e-05 0.000108783 0.10593)
(6.45702e-05 0.000106983 0.106163)
(-6.45152e-05 0.000106957 0.106163)
(-0.000163042 0.000163003 0.105497)
(-3.33632e-05 3.35783e-05 0.105764)
(0.000108786 6.51649e-05 0.10593)
(0.000108776 -6.52229e-05 0.105929)
(0.000106948 6.43966e-05 0.106163)
(0.000106955 -6.44855e-05 0.106163)
(-0.000108762 -6.51098e-05 0.10593)
(-0.000106893 6.42744e-05 0.106163)
(-0.000106931 -6.43726e-05 0.106163)
(0.000162997 -0.000163038 0.105497)
(3.36352e-05 -3.33487e-05 0.105763)
(-6.50172e-05 -0.000108698 0.10593)
(6.42644e-05 -0.000106854 0.106163)
(-6.42282e-05 -0.000106877 0.106163)
(-3.34628e-05 -3.33748e-05 0.105764)
(0.000161848 0.000161809 0.105727)
(2.93952e-05 2.94878e-05 0.105986)
(6.43126e-05 0.000106373 0.106239)
(-6.42684e-05 0.000106361 0.106239)
(6.35552e-05 0.000104597 0.106461)
(-6.35392e-05 0.000104577 0.106461)
(-0.00016176 0.000161766 0.105728)
(-2.92766e-05 2.94425e-05 0.105987)
(0.000106336 6.41418e-05 0.106239)
(0.000106353 -6.42375e-05 0.106239)
(0.000104539 6.34089e-05 0.106461)
(0.000104565 -6.35003e-05 0.106461)
(-0.000106331 -6.41296e-05 0.106239)
(-0.000104492 6.32809e-05 0.106461)
(-0.000104542 -6.33969e-05 0.106461)
(0.000161786 -0.000161767 0.105727)
(2.94864e-05 -2.927e-05 0.105986)
(-6.39781e-05 -0.00010628 0.106239)
(6.3247e-05 -0.000104472 0.106461)
(-6.32345e-05 -0.000104489 0.106461)
(-2.93315e-05 -2.92901e-05 0.105986)
(0.000160348 0.000160312 0.105934)
(2.55242e-05 2.56066e-05 0.106186)
(6.33007e-05 0.000103991 0.106533)
(-6.32777e-05 0.000103981 0.106533)
(6.25375e-05 0.000102253 0.106744)
(-6.25205e-05 0.000102223 0.106744)
(-0.000160271 0.000160264 0.105934)
(-2.54339e-05 2.55265e-05 0.106186)
(0.000103937 6.31512e-05 0.106534)
(0.000103973 -6.32511e-05 0.106533)
(0.00010219 6.24084e-05 0.106745)
(0.000102227 -6.24996e-05 0.106744)
(-0.000103955 -6.3148e-05 0.106533)
(-0.000102136 6.22652e-05 0.106745)
(-0.000102202 -6.23898e-05 0.106744)
(0.000160284 -0.000160306 0.105934)
(2.55932e-05 -2.54261e-05 0.106186)
(-6.29848e-05 -0.000103903 0.106534)
(6.2251e-05 -0.000102141 0.106745)
(-6.22281e-05 -0.000102136 0.106745)
(-2.54496e-05 -2.5418e-05 0.106186)
(0.000158711 0.000158682 0.106117)
(2.19706e-05 2.20491e-05 0.10636)
(6.22818e-05 0.000101655 0.106813)
(-6.22547e-05 0.000101652 0.106813)
(6.15243e-05 9.99875e-05 0.107012)
(-6.14842e-05 9.9925e-05 0.107012)
(-0.000158666 0.000158626 0.106117)
(-2.18673e-05 2.19315e-05 0.106361)
(0.000101593 6.21415e-05 0.106813)
(0.000101644 -6.22426e-05 0.106813)
(9.99323e-05 6.14149e-05 0.107013)
(9.99764e-05 -6.15001e-05 0.107012)
(-0.000101629 -6.21318e-05 0.106813)
(-9.98235e-05 6.12495e-05 0.107013)
(-9.99116e-05 -6.13613e-05 0.107012)
(0.000158656 -0.000158702 0.106117)
(2.20411e-05 -2.18907e-05 0.10636)
(-6.19758e-05 -0.000101556 0.106813)
(6.12734e-05 -9.98889e-05 0.107012)
(-6.1222e-05 -9.98093e-05 0.107013)
(-2.18876e-05 -2.18463e-05 0.10636)
(0.000156899 0.000156881 0.106274)
(1.86575e-05 1.87363e-05 0.106509)
(6.12866e-05 9.94882e-05 0.107077)
(-6.12275e-05 9.93923e-05 0.107077)
(6.05615e-05 9.80009e-05 0.107264)
(-6.05128e-05 9.78838e-05 0.107264)
(-0.00015684 0.0001568 0.106274)
(-1.8574e-05 1.86215e-05 0.10651)
(9.9418e-05 6.11607e-05 0.107077)
(9.94794e-05 -6.12572e-05 0.107077)
(9.79528e-05 6.04854e-05 0.107265)
(9.79956e-05 -6.05413e-05 0.107264)
(-9.93808e-05 -6.11158e-05 0.107077)
(-9.77764e-05 6.03038e-05 0.107265)
(-9.78672e-05 -6.03914e-05 0.107264)
(0.00015686 -0.000156903 0.106274)
(1.87379e-05 -1.85921e-05 0.106509)
(-6.09828e-05 -9.92631e-05 0.107077)
(6.03456e-05 -9.78969e-05 0.107264)
(-6.02707e-05 -9.77451e-05 0.107264)
(-1.85928e-05 -1.8543e-05 0.106509)
(0.000154837 0.000154841 0.106404)
(1.55325e-05 1.56197e-05 0.106631)
(6.03219e-05 9.75679e-05 0.107325)
(-6.02692e-05 9.7414e-05 0.107324)
(5.95809e-05 9.60709e-05 0.107499)
(-5.95497e-05 9.60199e-05 0.107499)
(-0.000154778 0.000154738 0.106405)
(-1.54729e-05 1.55268e-05 0.106632)
(9.7451e-05 6.02219e-05 0.107325)
(9.75207e-05 -6.02969e-05 0.107324)
(9.60549e-05 5.95209e-05 0.1075)
(9.60973e-05 -5.95663e-05 0.107499)
(-9.73943e-05 -6.01465e-05 0.107325)
(-9.59033e-05 5.93215e-05 0.1075)
(-9.59716e-05 -5.94166e-05 0.107499)
(0.000154802 -0.00015484 0.106405)
(1.56042e-05 -1.54744e-05 0.106631)
(-6.00306e-05 -9.7263e-05 0.107325)
(5.93835e-05 -9.59996e-05 0.1075)
(-5.93041e-05 -9.58508e-05 0.1075)
(-1.54873e-05 -1.54381e-05 0.106631)
(0.000152372 0.000152422 0.106508)
(1.26133e-05 1.26412e-05 0.106725)
(5.93326e-05 9.56441e-05 0.107556)
(-5.93077e-05 9.55602e-05 0.107556)
(5.85355e-05 9.41298e-05 0.107717)
(-5.8563e-05 9.41947e-05 0.107718)
(-0.000152335 0.00015229 0.106508)
(-1.25684e-05 1.2546e-05 0.106726)
(9.55561e-05 5.9219e-05 0.107556)
(9.56374e-05 -5.932e-05 0.107555)
(9.42099e-05 5.85008e-05 0.107718)
(9.42478e-05 -5.85527e-05 0.107717)
(-9.55279e-05 -5.9171e-05 0.107556)
(-9.40916e-05 5.83172e-05 0.107718)
(-9.41353e-05 -5.84138e-05 0.107718)
(0.000152359 -0.000152401 0.106508)
(1.26452e-05 -1.25203e-05 0.106725)
(-5.90671e-05 -9.53984e-05 0.107556)
(5.83663e-05 -9.41572e-05 0.107718)
(-5.82849e-05 -9.40272e-05 0.107718)
(-1.25381e-05 -1.2512e-05 0.106725)
(0.000149519 0.000149592 0.106585)
(5.82723e-05 9.37433e-05 0.107769)
(-5.82943e-05 9.37421e-05 0.107769)
(-0.000149515 0.000149403 0.106585)
(9.36957e-05 5.81577e-05 0.10777)
(9.37931e-05 -5.82825e-05 0.107769)
(-9.37097e-05 -5.81569e-05 0.107769)
(0.000149515 -0.000149564 0.106585)
(-5.80349e-05 -9.35773e-05 0.10777)
(-3.94468e-07 -4.10564e-07 0.0999987)
(1.82259e-05 1.81874e-05 0.100004)
(-1.79246e-07 1.33897e-05 0.1)
(1.34207e-05 -1.94861e-07 0.1)
(-5.15425e-05 7.00781e-06 0.100012)
(-2.01555e-05 1.84753e-05 0.100002)
(-0.000136193 5.99858e-05 0.100069)
(-1.24391e-05 -5.62375e-07 0.0999962)
(7.13324e-06 -5.15269e-05 0.100012)
(1.84982e-05 -2.01737e-05 0.100002)
(-5.41124e-07 -1.24479e-05 0.0999962)
(6.01349e-05 -0.000135783 0.100068)
(-2.45027e-05 -2.45151e-05 0.100007)
(-0.000134478 -8.05459e-05 0.100056)
(-8.03776e-05 -0.000134352 0.100056)
(-1.3448e-05 0.000147101 0.100669)
(0.000225259 0.000571968 0.0996123)
(1.07988e-05 0.00033586 0.10056)
(-3.84432e-05 0.000365314 0.0990401)
(-0.000412665 0.000958084 0.0979451)
(-0.000209567 0.000401077 0.0956696)
(0.000145685 -1.41181e-05 0.100668)
(0.000572877 0.000225849 0.0996121)
(0.000335485 1.04093e-05 0.10056)
(0.000365916 -3.75006e-05 0.0990396)
(-0.000106206 0.000106151 0.100294)
(0.000106183 -0.000106201 0.100294)
(-0.000106231 -0.000106209 0.100294)
(9.47645e-05 9.47285e-05 0.100733)
(-9.48068e-05 9.47746e-05 0.100733)
(9.47553e-05 -9.47888e-05 0.100733)
(-9.48163e-05 -9.48082e-05 0.100733)
(-0.00025319 5.94136e-06 0.100719)
(-0.000387883 0.000206147 0.100571)
(-0.000169105 3.99868e-05 0.100331)
(-0.000145221 8.86589e-05 0.100561)
(-0.000335428 2.67535e-05 0.100496)
(-0.0001505 0.000168985 0.100661)
(-0.000141179 3.23393e-05 0.100497)
(0.000956596 -0.000409837 0.0979423)
(0.000400881 -0.000208045 0.0956697)
(5.91944e-06 -0.000252767 0.100719)
(4.00207e-05 -0.000168975 0.100331)
(0.000206433 -0.000387711 0.100571)
(8.85912e-05 -0.000145126 0.100561)
(2.66211e-05 -0.000335126 0.100497)
(3.23422e-05 -0.000140995 0.100497)
(0.000169207 -0.000150297 0.100661)
(-0.000417544 -0.000169646 0.100453)
(-0.000169802 -0.00041781 0.100453)
(-0.000112666 -0.000112652 0.100646)
(-2.19404e-05 -9.06517e-05 0.100491)
(-9.08166e-05 -2.22404e-05 0.100491)
(8.75732e-07 0.000177738 0.100867)
(-4.47221e-05 0.000355584 0.0983231)
(-3.66069e-06 0.000192204 0.100779)
(-3.9678e-05 0.00031823 0.097942)
(-0.000195381 0.000322737 0.0926294)
(-0.000170622 0.000277768 0.0910085)
(0.000177907 1.32138e-06 0.100868)
(0.000356925 -4.45842e-05 0.0983233)
(0.000192343 -2.99618e-06 0.10078)
(0.000319371 -3.91505e-05 0.0979428)
(-9.71619e-05 9.71718e-05 0.100854)
(9.71528e-05 -9.71595e-05 0.100854)
(-9.7183e-05 -9.71865e-05 0.100854)
(9.7273e-05 9.71997e-05 0.101238)
(-9.7157e-05 9.72149e-05 0.101238)
(9.71824e-05 -9.72137e-05 0.101238)
(-9.71787e-05 -9.72442e-05 0.101238)
(-0.000248145 1.96542e-05 0.101155)
(-0.000204996 0.000198887 0.100823)
(-0.000156672 3.04137e-05 0.100889)
(-0.000151814 9.28409e-05 0.101063)
(-0.000288688 1.8102e-05 0.100986)
(-0.00017139 0.000184171 0.100948)
(-0.000158598 3.05185e-05 0.101015)
(0.000323165 -0.000194502 0.092625)
(0.000277919 -0.00016992 0.091008)
(1.97113e-05 -0.000248151 0.101155)
(3.0451e-05 -0.000156592 0.100889)
(0.000198797 -0.000204848 0.100823)
(9.28119e-05 -0.000151829 0.101063)
(1.81786e-05 -0.000288445 0.100985)
(3.05481e-05 -0.000158583 0.101015)
(0.000183773 -0.000171281 0.100947)
(-5.86486e-05 -9.17167e-05 0.10044)
(-9.15173e-05 -5.8834e-05 0.10044)
(-0.000108687 -0.00010876 0.101146)
(-6.29402e-05 -7.29139e-05 0.10044)
(-7.2593e-05 -6.3326e-05 0.100439)
(3.97942e-06 0.000195863 0.100968)
(-2.09633e-05 0.000325999 0.0971213)
(2.50007e-06 0.000223369 0.100897)
(-1.17029e-05 0.000284462 0.0967115)
(-0.000146643 0.000232631 0.0883817)
(-0.00011915 0.000189477 0.0870819)
(0.000195668 3.92956e-06 0.100967)
(0.000326566 -2.02595e-05 0.097122)
(0.000223301 2.52515e-06 0.100899)
(0.000284831 -1.12512e-05 0.0967121)
(-9.70016e-05 9.70607e-05 0.101368)
(9.70187e-05 -9.70695e-05 0.101368)
(-9.70263e-05 -9.70918e-05 0.101368)
(9.56108e-05 9.56164e-05 0.101757)
(-9.55599e-05 9.55728e-05 0.101757)
(9.55473e-05 -9.55997e-05 0.101757)
(-9.55723e-05 -9.55837e-05 0.101757)
(-0.000242078 1.84244e-05 0.101587)
(-0.000220739 0.000188376 0.101025)
(-0.000161066 3.06198e-05 0.101404)
(-0.000152 9.02804e-05 0.101575)
(-0.000287596 1.8668e-05 0.101417)
(-0.000177166 0.000164317 0.101133)
(-0.000161416 3.05581e-05 0.101533)
(0.000232526 -0.000146132 0.0883763)
(0.000189498 -0.000118848 0.0870811)
(1.84835e-05 -0.000242036 0.101586)
(3.0657e-05 -0.000161108 0.101404)
(0.000188073 -0.000220744 0.101026)
(9.02278e-05 -0.000152051 0.101575)
(1.86913e-05 -0.000287661 0.101417)
(3.06062e-05 -0.000161424 0.101533)
(0.000163921 -0.000177163 0.101132)
(-9.75861e-05 -8.60287e-05 0.10018)
(-8.55819e-05 -9.79219e-05 0.100179)
(-0.000101988 -0.000102067 0.10165)
(-9.42934e-05 -6.32532e-05 0.100112)
(-6.28299e-05 -9.45498e-05 0.100111)
(2.99235e-06 0.000197866 0.100969)
(5.32534e-06 0.000289907 0.0958337)
(2.55163e-06 0.000234183 0.100921)
(9.93578e-06 0.000245278 0.0954186)
(-9.8251e-05 0.000157088 0.0849709)
(-7.36776e-05 0.000120134 0.0839853)
(0.000197764 2.76107e-06 0.100968)
(0.000290205 5.27998e-06 0.0958338)
(0.000234185 2.50226e-06 0.100922)
(0.00024546 1.00718e-05 0.0954191)
(-9.48256e-05 9.48158e-05 0.101886)
(9.48105e-05 -9.48401e-05 0.101886)
(-9.48318e-05 -9.48189e-05 0.101886)
(9.22901e-05 9.23338e-05 0.102266)
(-9.23448e-05 9.23094e-05 0.102266)
(9.2349e-05 -9.2291e-05 0.102266)
(-9.23432e-05 -9.22854e-05 0.102266)
(-0.000230957 1.61504e-05 0.101987)
(-0.000219853 0.000165886 0.101136)
(-0.000159936 2.99705e-05 0.101919)
(-0.000148072 8.5976e-05 0.102078)
(-0.0002819 1.6307e-05 0.101825)
(-0.000171293 0.000138424 0.101224)
(-0.000158935 2.97132e-05 0.102045)
(0.000157026 -9.79661e-05 0.0849642)
(0.0001202 -7.34823e-05 0.0839841)
(1.6289e-05 -0.000230731 0.101986)
(3.00255e-05 -0.000159858 0.101919)
(0.000165874 -0.000219974 0.101137)
(8.60261e-05 -0.000148007 0.102078)
(1.64388e-05 -0.000281735 0.101825)
(2.97558e-05 -0.000158822 0.102046)
(0.000138572 -0.000171261 0.101224)
(-0.00011878 -7.58384e-05 0.0997175)
(-7.55235e-05 -0.000118865 0.099717)
(-9.32231e-05 -9.31809e-05 0.102136)
(-0.000109673 -5.17219e-05 0.0996049)
(-5.14996e-05 -0.000109733 0.0996035)
(9.66106e-07 0.000191185 0.100874)
(1.85506e-05 0.000251687 0.0945327)
(8.40202e-07 0.000233362 0.100847)
(1.83531e-05 0.000205884 0.0941379)
(-6.06243e-05 0.000103365 0.0823375)
(-4.06082e-05 7.28233e-05 0.0816133)
(0.000190958 6.29802e-07 0.100873)
(0.000251729 1.87363e-05 0.0945318)
(0.000233316 5.53822e-07 0.100848)
(0.00020591 1.8659e-05 0.0941381)
(-9.14667e-05 9.14367e-05 0.102391)
(9.14808e-05 -9.14046e-05 0.102391)
(-9.14669e-05 -9.14056e-05 0.102391)
(8.88159e-05 8.88252e-05 0.102757)
(-8.88174e-05 8.88253e-05 0.102757)
(8.88703e-05 -8.87763e-05 0.102757)
(-8.88384e-05 -8.87959e-05 0.102757)
(-0.000216151 1.41542e-05 0.102346)
(-0.000211411 0.000143013 0.101154)
(-0.000155052 2.89241e-05 0.102418)
(-0.000142229 8.13177e-05 0.10256)
(-0.000270792 1.4028e-05 0.102193)
(-0.000160681 0.000114623 0.101226)
(-0.000153579 2.86685e-05 0.10254)
(0.000103266 -6.02868e-05 0.0823316)
(7.27726e-05 -4.02151e-05 0.0816134)
(1.42114e-05 -0.000216012 0.102345)
(2.89221e-05 -0.000154932 0.102419)
(0.000143593 -0.00021132 0.101155)
(8.14094e-05 -0.000142105 0.10256)
(1.41053e-05 -0.000270657 0.102193)
(2.86587e-05 -0.000153451 0.10254)
(0.000115068 -0.000160454 0.101225)
(-0.00012706 -6.69518e-05 0.0991147)
(-6.68046e-05 -0.000127126 0.0991138)
(-8.40091e-05 -8.39138e-05 0.102597)
(-0.000113998 -4.29751e-05 0.0989733)
(-4.28494e-05 -0.000114111 0.0989716)
(-5.56466e-07 0.000179754 0.100691)
(2.06137e-05 0.00021551 0.0932812)
(-9.11982e-07 0.000226097 0.100682)
(1.733e-05 0.000169594 0.0929222)
(-3.54108e-05 6.87416e-05 0.0803314)
(-1.91956e-05 4.26739e-05 0.079808)
(0.000179639 -6.57528e-07 0.100691)
(0.000215588 2.05336e-05 0.0932798)
(0.000226066 -1.06281e-06 0.100684)
(0.00016983 1.72834e-05 0.092923)
(-8.79559e-05 8.79778e-05 0.102877)
(8.80236e-05 -8.79302e-05 0.102877)
(-8.79855e-05 -8.79511e-05 0.102877)
(8.56127e-05 8.55569e-05 0.103229)
(-8.55264e-05 8.55553e-05 0.103229)
(8.55961e-05 -8.55431e-05 0.103229)
(-8.55674e-05 -8.5553e-05 0.103229)
(-0.000200317 1.26918e-05 0.102663)
(-0.000199874 0.000124034 0.101088)
(-0.000149015 2.79435e-05 0.102898)
(-0.00013634 7.7488e-05 0.103019)
(-0.000257281 1.22082e-05 0.102518)
(-0.000148463 9.51045e-05 0.101146)
(-0.000147495 2.7719e-05 0.103014)
(6.88537e-05 -3.51132e-05 0.0803265)
(4.27933e-05 -1.87925e-05 0.0798087)
(1.27949e-05 -0.000200213 0.102662)
(2.79601e-05 -0.000148916 0.102898)
(0.000124484 -0.000199753 0.101089)
(7.75824e-05 -0.000136257 0.103019)
(1.22854e-05 -0.000257213 0.102518)
(2.77486e-05 -0.000147394 0.103014)
(9.52882e-05 -0.000148275 0.101145)
(-0.000126994 -6.11333e-05 0.0984174)
(-6.09922e-05 -0.000127087 0.0984164)
(-7.57443e-05 -7.56671e-05 0.103029)
(-0.000111446 -3.72477e-05 0.0982593)
(-3.70795e-05 -0.000111537 0.0982575)
(-1.02295e-06 0.000165978 0.100437)
(1.59224e-05 0.000183832 0.0921157)
(-1.68933e-06 0.000215305 0.100442)
(1.10668e-05 0.000138305 0.0917999)
(-2.02036e-05 4.80693e-05 0.0787999)
(-6.33487e-06 2.44581e-05 0.0784251)
(0.000165959 -9.24714e-07 0.100436)
(0.0001841 1.56872e-05 0.0921147)
(0.000215442 -1.59007e-06 0.100444)
(0.000138638 1.10836e-05 0.0918007)
(-8.47785e-05 8.48001e-05 0.103344)
(8.48313e-05 -8.48049e-05 0.103344)
(-8.4818e-05 -8.48093e-05 0.103344)
(8.27642e-05 8.27472e-05 0.103682)
(-8.27214e-05 8.27093e-05 0.103682)
(8.26924e-05 -8.27532e-05 0.103682)
(-8.27562e-05 -8.27464e-05 0.103682)
(-0.000184918 1.18679e-05 0.102938)
(-0.000187724 0.000108652 0.100949)
(-0.000143087 2.71289e-05 0.103356)
(-0.000131086 7.43955e-05 0.103455)
(-0.000243498 1.10314e-05 0.1028)
(-0.000136286 7.89992e-05 0.100997)
(-0.000141683 2.69586e-05 0.103467)
(4.81337e-05 -1.97935e-05 0.0787952)
(2.46465e-05 -6.05541e-06 0.0784261)
(1.19826e-05 -0.000184884 0.102938)
(2.71836e-05 -0.000143026 0.103356)
(0.000108807 -0.000187725 0.100949)
(7.44627e-05 -0.000131061 0.103455)
(1.11578e-05 -0.000243482 0.1028)
(2.70095e-05 -0.000141622 0.103467)
(7.89209e-05 -0.000136246 0.100995)
(-0.000122139 -5.72836e-05 0.0976622)
(-5.70751e-05 -0.000122213 0.0976614)
(-6.84426e-05 -6.83996e-05 0.103433)
(-0.000104979 -3.31453e-05 0.097497)
(-3.29193e-05 -0.000105071 0.0974953)
(-4.62963e-07 0.000151418 0.100123)
(8.32492e-06 0.000157365 0.0910526)
(-1.36815e-06 0.000202893 0.100139)
(3.21996e-06 0.000112359 0.0907798)