/*--------------------------------*- C++ -*----------------------------------*\
| =========                 |                                                 |
| \\      /  F ield         | OpenFOAM: The Open Source CFD Toolbox           |
|  \\    /   O peration     | Version:  v1906                                 |
|   \\  /    A nd           | Web:      www.OpenFOAM.com                      |
|    \\/     M anipulation  |                                                 |
\*---------------------------------------------------------------------------*/
FoamFile
{
    version     2.0;
    format      ascii;
    class       volScalarField;
    location    "100";
    object      nut;
}
// * * * * * * * * * * * * * * * * * * * * * * * * * * * * * * * * * * * * * //

dimensions      [0 2 -1 0 0 0 0];


internalField   nonuniform List<scalar> 
42616
(
0.000233973
0.000233077
0.000233084
0.000233399
0.000232522
0.000227676
0.000227706
0.000223676
0.000230492
0.000220036
0.000220174
0.000208873
0.00022776
0.000211297
0.000211496
0.000193648
0.000224381
0.000202335
0.000202489
0.000179599
0.000220491
0.000193547
0.000193627
0.000167266
0.000216239
0.000185111
0.000185144
0.000156604
0.000211755
0.000177103
0.000177114
0.000147273
0.000207143
0.000169573
0.000169574
0.000138987
0.000202484
0.000162503
0.0001625
0.000131699
0.000197831
0.000155846
0.00015584
0.000125017
0.000193218
0.000149551
0.000149541
0.000118934
0.000188629
0.000143576
0.000143561
0.000113168
0.000184102
0.000137863
0.000137847
0.000107965
0.000179667
0.000132377
0.000132361
0.000103117
0.000175322
0.000127132
0.000127118
9.86705e-05
0.000171075
0.000122209
0.000122196
9.48005e-05
0.000166958
0.000117734
0.000117721
9.16196e-05
0.000163045
0.000113825
0.000113815
8.91939e-05
0.000159438
0.000110563
0.000110561
8.739e-05
0.000156262
0.00010793
0.000107935
8.60345e-05
0.000234276
0.000234455
0.000234457
0.000234273
0.000234456
0.000234457
0.000234275
0.000234275
0.000234275
0.000234275
0.000234456
0.000234464
0.000234274
0.000234456
0.000234453
0.000234262
0.000233391
0.00022607
0.000233082
0.000233082
0.000229281
0.000229228
0.000233388
0.000226044
0.000233081
0.000233081
0.000229273
0.000229273
0.000233078
0.000229272
0.000229144
0.00023339
0.000226046
0.000233084
0.000229282
0.000229278
0.000226043
0.000223708
0.000212056
0.000227705
0.000227648
0.000222208
0.000222162
0.000223673
0.000211993
0.0002277
0.000227696
0.000222204
0.000222186
0.000227554
0.000222089
0.000222058
0.000223677
0.000211988
0.000227702
0.000222202
0.000222198
0.000212005
0.000208917
0.00019691
0.000220182
0.000220126
0.000213734
0.000213601
0.000208845
0.000196799
0.000220176
0.000220155
0.000213725
0.000213692
0.000220051
0.00021353
0.000213672
0.000208842
0.000196821
0.000220171
0.000213722
0.000213727
0.000196896
0.000193665
0.000182788
0.000211508
0.000211347
0.000204741
0.000204523
0.000193515
0.000182701
0.000211501
0.000211462
0.000204743
0.000204701
0.000211463
0.000204566
0.000204727
0.000193565
0.000182762
0.000211503
0.000204739
0.000204748
0.000182795
0.000179619
0.000170231
0.000202487
0.000202261
0.000195799
0.000195591
0.0001795
0.000170176
0.000202493
0.000202452
0.000195812
0.000195776
0.000202479
0.000195715
0.000195795
0.000179562
0.000170216
0.000202498
0.000195811
0.000195819
0.000170243
0.000167278
0.000159247
0.000193614
0.00019342
0.000187208
0.000187063
0.000167216
0.000159229
0.00019363
0.000193593
0.000187226
0.000187189
0.000193608
0.00018718
0.00018719
0.000167266
0.000159232
0.000193636
0.000187221
0.000187232
0.000159187
0.000156603
0.000149643
0.000185131
0.000185001
0.000179062
0.000178968
0.00015651
0.000149564
0.00018515
0.000185112
0.000179081
0.000179039
0.000185108
0.000179057
0.000179029
0.000156545
0.000149629
0.000185153
0.000179071
0.000179081
0.000149545
0.000147214
0.00014117
0.000177105
0.000177019
0.000171408
0.000171338
0.000147263
0.000141142
0.000177125
0.000177079
0.000171426
0.000171374
0.000177068
0.000171406
0.000171364
0.000147175
0.000141107
0.000177122
0.000171408
0.000171419
0.00014109
0.000138979
0.000133614
0.000169576
0.000169508
0.000164231
0.00016417
0.000138962
0.000133606
0.000169594
0.000169537
0.000164249
0.000164186
0.000169529
0.000164224
0.000164181
0.000138953
0.000133531
0.000169584
0.000164222
0.000164237
0.000133543
0.000131648
0.00012676
0.00016251
0.000162451
0.000157473
0.000157425
0.000131729
0.000126702
0.000162528
0.000162462
0.000157493
0.000157423
0.000162459
0.000157468
0.000157428
0.000131717
0.000126797
0.000162515
0.000157462
0.000157485
0.000126815
0.000125119
0.000120574
0.000155852
0.000155806
0.000151083
0.000151052
0.000125124
0.000120481
0.000155871
0.000155799
0.000151106
0.000151033
0.000155806
0.000151086
0.000151048
0.00012499
0.000120544
0.000155864
0.000151076
0.000151108
0.00012057
0.000118924
0.00011455
0.000149548
0.000149518
0.000145017
0.000144998
0.000118981
0.000114475
0.000149571
0.000149496
0.000145044
0.000144971
0.000149513
0.000145031
0.000144993
0.000118879
0.000114568
0.000149572
0.000145017
0.000145049
0.000114588
0.000113186
0.000108859
0.000143564
0.000143545
0.000139231
0.000139217
0.000113282
0.000108849
0.000143589
0.000143517
0.000139259
0.000139191
0.000143538
0.000139254
0.000139217
0.000113138
0.000108863
0.000143593
0.000139238
0.000139264
0.00010889
0.00010797
0.00010375
0.000137845
0.000137831
0.000133678
0.000133665
0.000107976
0.000103747
0.000137872
0.000137804
0.000133706
0.000133644
0.000137828
0.000133707
0.000133671
0.000107949
0.000103735
0.000137874
0.000133694
0.000133708
0.00010375
0.000103112
9.93521e-05
0.000132353
0.000132343
0.000128353
0.000128336
0.000103119
9.93373e-05
0.000132382
0.000132323
0.000128379
0.000128323
0.000132344
0.000128387
0.000128347
0.000103101
9.93243e-05
0.000132382
0.000128376
0.000128378
9.93332e-05
9.86357e-05
9.54866e-05
0.000127105
0.000127095
0.000123321
0.000123299
9.86727e-05
9.54885e-05
0.000127133
0.000127083
0.000123345
0.000123294
0.000127101
0.000123362
0.000123314
9.86759e-05
9.55073e-05
0.000127134
0.000123348
0.000123345
9.55211e-05
9.47792e-05
9.23078e-05
0.000122179
0.00012217
0.000118688
0.000118673
9.47885e-05
9.23006e-05
0.000122203
0.000122162
0.000118712
0.000118669
0.000122178
0.000118736
0.000118684
9.4792e-05
9.22929e-05
0.000122207
0.000118725
0.000118713
9.22875e-05
9.16134e-05
8.97326e-05
0.000117703
0.000117697
0.000114659
0.000114643
9.16235e-05
8.97403e-05
0.000117728
0.000117692
0.000114682
0.000114642
0.000117703
0.000114695
0.000114656
9.16051e-05
8.97427e-05
0.000117731
0.000114693
0.000114683
8.97544e-05
8.91975e-05
8.78282e-05
0.000113807
0.000113795
0.000111295
0.000111276
8.92113e-05
8.78248e-05
0.00011383
0.000113797
0.000111317
0.000111288
0.000113797
0.000111328
0.000111296
8.92097e-05
8.78533e-05
0.000113828
0.000111319
0.000111317
8.78581e-05
8.73698e-05
8.63285e-05
0.000110558
0.000110539
0.000108572
0.000108553
8.73935e-05
8.62981e-05
0.000110584
0.000110555
0.000108593
0.000108569
0.000110549
0.000108589
0.000108571
8.74157e-05
8.63949e-05
0.000110579
0.000108585
0.000108599
8.64043e-05
8.59403e-05
0.000107931
0.000107908
8.59942e-05
0.00010795
0.000107938
0.000107926
8.60585e-05
0.000107954
0.00023473
0.000234747
0.000234729
0.000234729
0.000235127
0.000234802
0.000234718
0.000234727
0.000235132
0.000234801
0.000234727
0.000234793
0.000234869
0.000233766
0.000233508
0.000104582
3.85164e-05
0.000128238
3.97857e-05
2.14245e-05
2.28908e-05
0.000104722
3.84899e-05
0.000128366
3.97816e-05
0.000233973
0.000233972
0.000233973
0.000232928
0.000232926
0.000232928
0.000232922
0.000206084
9.22764e-05
0.000233967
0.000231959
0.000222402
8.66024e-05
0.000233605
2.14302e-05
2.28913e-05
0.000206102
0.000233968
9.22701e-05
0.000231961
0.000222414
0.000233607
8.65998e-05
4.72951e-05
4.71765e-05
0.000231272
4.35149e-05
4.33401e-05
7.26114e-05
4.24162e-05
8.13151e-05
4.37603e-05
2.48114e-05
2.54922e-05
7.26236e-05
4.24098e-05
8.13599e-05
4.37557e-05
0.000232518
0.000232522
0.000232514
0.000231063
0.000231051
0.000231062
0.000231049
0.000167303
7.83896e-05
0.000232056
0.000225929
0.00018
7.3392e-05
0.000231338
2.48094e-05
2.54903e-05
0.000167351
0.000232063
7.88663e-05
0.000225987
0.000180039
0.000231351
7.39372e-05
3.8972e-05
3.88675e-05
0.000219378
3.64592e-05
3.63575e-05
5.63555e-05
4.55437e-05
6.12282e-05
4.64171e-05
2.60269e-05
2.61253e-05
5.63104e-05
4.55431e-05
6.12079e-05
4.64179e-05
0.000230476
0.00023049
0.000230478
0.000228505
0.000228466
0.0002285
0.000228496
0.000138475
6.63171e-05
0.000228564
0.000217915
0.000147976
6.25781e-05
0.000227441
2.60235e-05
2.61218e-05
0.00013855
0.0002286
6.704e-05
0.000218074
0.000148047
0.000227484
6.31179e-05
3.32832e-05
3.3194e-05
0.000204417
3.20845e-05
3.2007e-05
4.70116e-05
4.74978e-05
4.99931e-05
4.80084e-05
2.60526e-05
2.59407e-05
4.70339e-05
4.7499e-05
4.99678e-05
4.8009e-05
0.000227711
0.000227753
0.000227752
0.000225277
0.000225207
0.00022527
0.000225274
0.000117501
5.7448e-05
0.000223587
0.000209051
0.00012454
5.49136e-05
0.000222167
2.6049e-05
2.59377e-05
0.000117529
0.000223652
5.78822e-05
0.000209249
0.000124584
0.000222232
5.51796e-05
3.07267e-05
3.06964e-05
0.000189649
3.04071e-05
3.03871e-05
4.14898e-05
4.85799e-05
4.33011e-05
4.88396e-05
2.56725e-05
2.55188e-05
4.14891e-05
4.8578e-05
4.32749e-05
4.88386e-05
0.000224308
0.000224374
0.00022438
0.0002215
0.000221426
0.000221495
0.000221501
0.000102145
5.15004e-05
0.000217632
0.000200112
0.000107377
4.97314e-05
0.000216044
2.56698e-05
2.55173e-05
0.00010215
0.000217687
5.15967e-05
0.000200246
0.000107392
0.000216089
4.98366e-05
3.02791e-05
3.02807e-05
0.000176326
3.0453e-05
3.04491e-05
3.82072e-05
4.90873e-05
3.92353e-05
4.91919e-05
2.52347e-05
2.50939e-05
3.82006e-05
4.90862e-05
3.92507e-05
4.91926e-05
0.00022042
0.000220486
0.000220492
0.000217324
0.000217267
0.000217319
0.000217322
9.053e-05
4.75023e-05
0.00021115
0.000191398
9.45107e-05
4.63817e-05
0.000209485
2.5233e-05
2.50926e-05
9.05373e-05
0.000211179
4.75474e-05
0.000191463
9.45146e-05
0.000209507
4.63859e-05
3.11141e-05
3.10853e-05
0.000164528
3.15474e-05
3.15602e-05
3.6405e-05
4.92707e-05
3.69519e-05
4.92863e-05
2.4847e-05
2.47332e-05
3.6402e-05
4.92626e-05
3.69501e-05
4.92896e-05
0.000216187
0.000216234
0.000216235
0.000212886
0.000212848
0.000212879
0.000212876
8.15942e-05
4.50377e-05
0.000204475
0.000183062
8.48093e-05
4.44035e-05
0.000202802
2.48453e-05
2.47319e-05
8.1627e-05
0.00020449
4.50173e-05
0.000183088
8.48198e-05
0.000202812
4.43789e-05
3.26774e-05
3.26498e-05
0.000154219
3.32816e-05
3.33046e-05
3.5701e-05
4.92828e-05
3.58322e-05
4.92775e-05
2.45345e-05
2.44478e-05
3.57002e-05
4.92796e-05
3.58304e-05
4.92763e-05
0.00021172
0.000211747
0.000211743
0.000208295
0.000208266
0.000208284
0.00020828
7.46531e-05
4.36086e-05
0.000197842
0.000175171
7.72484e-05
4.34356e-05
0.000196204
2.45323e-05
2.44451e-05
7.47158e-05
0.000197853
4.36058e-05
0.000175178
7.72209e-05
0.000196211
4.33571e-05
3.47019e-05
3.46995e-05
0.000145172
3.54237e-05
3.5422e-05
3.57664e-05
4.92419e-05
3.56768e-05
4.92385e-05
2.42947e-05
2.42314e-05
3.58206e-05
4.9242e-05
3.5636e-05
4.92287e-05
0.000207114
0.000207129
0.000207125
0.000203639
0.000203612
0.00020362
0.000203619
6.92127e-05
4.30691e-05
0.00019139
0.00016776
7.13148e-05
4.31706e-05
0.000189801
2.42936e-05
2.42243e-05
6.92715e-05
0.0001914
4.31493e-05
0.000167759
7.12779e-05
0.000189809
4.30544e-05
3.70011e-05
3.69944e-05
0.000137221
3.77992e-05
3.77732e-05
3.65924e-05
4.92153e-05
3.62467e-05
4.92155e-05
2.41152e-05
2.40712e-05
3.65709e-05
4.92172e-05
3.62246e-05
4.92135e-05
0.000202455
0.000202461
0.000202461
0.000198978
0.000198951
0.000198949
0.000198955
6.48977e-05
4.32211e-05
0.000185148
0.000160796
6.65668e-05
4.34693e-05
0.000183618
2.41153e-05
2.40647e-05
6.49174e-05
0.000185159
4.33026e-05
0.000160792
6.65461e-05
0.000183625
4.34051e-05
3.9467e-05
3.94706e-05
0.000130091
4.03363e-05
4.03023e-05
3.80271e-05
4.92157e-05
3.7414e-05
4.92241e-05
2.39849e-05
2.39563e-05
3.79634e-05
4.9214e-05
3.74614e-05
4.92189e-05
0.000197803
0.000197799
0.000197806
0.000194348
0.000194325
0.000194312
0.000194326
6.1541e-05
4.39923e-05
0.000179168
0.000154234
6.27743e-05
4.43457e-05
0.000177706
2.39875e-05
2.39482e-05
6.15332e-05
0.000179177
4.39771e-05
0.000154225
6.27695e-05
0.000177711
4.43725e-05
4.2015e-05
4.19988e-05
0.00012363
4.28475e-05
4.28555e-05
3.99915e-05
4.9232e-05
3.92233e-05
4.92544e-05
2.38949e-05
2.38692e-05
3.99861e-05
4.92379e-05
3.92599e-05
4.92441e-05
0.000193196
0.00019318
0.000193195
0.000189754
0.000189737
0.000189715
0.000189735
5.90342e-05
4.51184e-05
0.000173471
0.000148019
5.98309e-05
4.5616e-05
0.000172072
2.38972e-05
2.38727e-05
5.90303e-05
0.000173477
4.50727e-05
0.000148006
5.98477e-05
0.000172073
4.5634e-05
4.45071e-05
4.45063e-05
0.000117516
4.53101e-05
4.53086e-05
4.25092e-05
4.92683e-05
4.1576e-05
4.9293e-05
2.38352e-05
2.38119e-05
4.24583e-05
4.92735e-05
4.16053e-05
4.92836e-05
0.000188612
0.000188589
0.00018861
0.000185195
0.00018518
0.000185157
0.000185178
5.71452e-05
4.66192e-05
0.000168028
0.000142112
5.77023e-05
4.72506e-05
0.000166683
2.38261e-05
2.38175e-05
5.71579e-05
0.000168031
4.6606e-05
0.000142096
5.77015e-05
0.00016668
4.72552e-05
4.68892e-05
4.68754e-05
0.000111666
4.76439e-05
4.76766e-05
4.54186e-05
4.93098e-05
4.43642e-05
4.93341e-05
2.37902e-05
2.37717e-05
4.54316e-05
4.93065e-05
4.4398e-05
4.93318e-05
0.000184091
0.000184068
0.000184089
0.000180724
0.000180708
0.000180688
0.000180706
5.5996e-05
4.83983e-05
0.000162805
0.000136455
5.63329e-05
4.91489e-05
0.000161499
2.37805e-05
2.37777e-05
5.60572e-05
0.000162805
4.84029e-05
0.000136439
5.63147e-05
0.000161494
4.91142e-05
4.91317e-05
4.91326e-05
0.000106238
4.98852e-05
4.98742e-05
4.87118e-05
4.93549e-05
4.75638e-05
4.93649e-05
2.37588e-05
2.37439e-05
4.86868e-05
4.93468e-05
4.75713e-05
4.93647e-05
0.000179662
0.000179643
0.000179662
0.000176331
0.000176311
0.000176296
0.00017631
5.55589e-05
5.0515e-05
0.000157776
0.000131017
5.56922e-05
5.12026e-05
0.000156498
2.37493e-05
2.37486e-05
5.55753e-05
0.000157775
5.0546e-05
0.000131003
5.56677e-05
0.000156494
5.1196e-05
5.12284e-05
5.12292e-05
0.000101468
5.18614e-05
5.18785e-05
5.20473e-05
4.93788e-05
5.09147e-05
4.93917e-05
2.37333e-05
2.37179e-05
5.20696e-05
4.93769e-05
5.09438e-05
4.93903e-05
0.000175325
0.00017531
0.000175326
0.000172019
0.000171993
0.000171982
0.000171991
5.60444e-05
5.26855e-05
0.00015294
0.000125831
5.58025e-05
5.34368e-05
0.000151689
2.37245e-05
2.37244e-05
5.60683e-05
0.00015294
5.27058e-05
0.000125822
5.58119e-05
0.000151685
5.33558e-05
5.2985e-05
5.29777e-05
9.73431e-05
5.35102e-05
5.35143e-05
5.50339e-05
4.93956e-05
5.40261e-05
4.93957e-05
2.37048e-05
2.36864e-05
5.50475e-05
4.93969e-05
5.40488e-05
4.93944e-05
0.000171089
0.000171077
0.00017109
0.000167827
0.000167791
0.000167781
0.000167785
5.71109e-05
5.47675e-05
0.000148332
0.000120997
5.67202e-05
5.54585e-05
0.000147103
2.3694e-05
2.36924e-05
5.7167e-05
0.00014833
5.47865e-05
0.000120984
5.67052e-05
0.000147098
5.54189e-05
5.43988e-05
5.43944e-05
9.38034e-05
5.48084e-05
5.48014e-05
5.73341e-05
4.93878e-05
5.65347e-05
4.93857e-05
2.36697e-05
2.36504e-05
5.73478e-05
4.93872e-05
5.65682e-05
4.93838e-05
0.00016699
0.00016698
0.000166989
0.000163859
0.000163806
0.000163798
0.0001638
5.84159e-05
5.65907e-05
0.00014394
0.000116639
5.79722e-05
5.71236e-05
0.000142768
2.36583e-05
2.36553e-05
5.84192e-05
0.00014394
5.66093e-05
0.000116635
5.79773e-05
0.000142766
5.7104e-05
5.55037e-05
5.55021e-05
9.09394e-05
5.58672e-05
5.58633e-05
5.89997e-05
4.93614e-05
5.84211e-05
4.93538e-05
2.36329e-05
2.36135e-05
5.90939e-05
4.93627e-05
5.8465e-05
4.93565e-05
0.000163094
0.000163084
0.00016309
0.0001602
0.000160144
0.000160139
0.000160139
5.95534e-05
5.80944e-05
0.000139867
0.000112933
5.91042e-05
5.85178e-05
0.000138832
2.36205e-05
2.36173e-05
5.95299e-05
0.000139871
5.80543e-05
0.000112924
5.91378e-05
0.000138832
5.84549e-05
5.63829e-05
5.63939e-05
8.87372e-05
5.66612e-05
5.66804e-05
6.02659e-05
4.93282e-05
5.97747e-05
4.93175e-05
2.35948e-05
2.35841e-05
6.04283e-05
4.93316e-05
5.99236e-05
4.93252e-05
0.000159477
0.000159471
0.000159471
0.000156941
0.00015688
0.000156879
0.000156875
6.03246e-05
5.92032e-05
0.000136237
0.000109895
6.00114e-05
5.95267e-05
0.000135369
2.35895e-05
2.35826e-05
6.03855e-05
0.000136241
5.91905e-05
0.000109893
6.00572e-05
0.000135368
5.94846e-05
5.7119e-05
5.7079e-05
8.70764e-05
5.73837e-05
5.73321e-05
6.13695e-05
4.9301e-05
6.09004e-05
4.92932e-05
2.35665e-05
2.35618e-05
4.93019e-05
6.11601e-05
4.92977e-05
0.000156271
0.000156268
0.00015626
6.10691e-05
6.02261e-05
0.000133132
0.000107467
6.05765e-05
6.04832e-05
0.00013243
2.35626e-05
6.12804e-05
0.000133132
6.00046e-05
6.07771e-05
0.000132426
5.77178e-05
5.76729e-05
8.58442e-05
5.79284e-05
5.78676e-05
0.000234867
0.000233655
0.000233318
2.35799e-05
0.000213998
2.36505e-05
0.000213735
0.000234434
5.00861e-05
5.02277e-05
0.000228611
0.000228443
0.000235127
0.000234801
0.000234709
0.000234727
0.0002351
0.000234802
0.000234635
0.000234727
0.000234768
3.99434e-05
0.000220867
0.000147263
0.000234758
4.01424e-05
0.000215974
0.000147275
0.000233828
0.000234468
9.77115e-05
0.000234271
0.000233366
0.000234597
0.000228316
0.000233953
0.000234467
9.81628e-05
0.000234271
0.000233348
0.000234597
0.000228372
0.000234869
0.000233429
0.000233401
2.3568e-05
0.000213843
0.000234432
4.98696e-05
5.00465e-05
0.000230207
0.000229072
2.35749e-05
0.000214537
0.000235132
0.000234801
0.000234707
0.000234727
0.0002351
0.0002348
0.000234727
0.000234708
0.000234766
4.01215e-05
0.000215936
0.000147315
0.000233816
0.000234468
9.81387e-05
0.00023427
0.000233129
0.000234597
0.000228331
0.000234746
4.01105e-05
0.000215986
0.00014721
0.000233962
0.00023447
0.000234271
9.80434e-05
0.000234597
0.000233238
0.000228367
0.00023473
0.000234747
0.000234729
0.000234729
0.00023473
0.000234747
0.000234729
0.000234729
0.00023473
0.000234747
0.000234729
0.000234729
0.000234591
0.000234573
0.000234252
0.000234252
0.000234592
0.000234592
0.000234252
0.000234591
0.000234573
0.000234252
0.000234252
0.000234592
0.000234592
0.000234252
0.000234591
0.000234573
0.000234252
0.000234252
0.000234592
0.000234592
0.000234252
0.000234591
0.000234572
0.000234252
0.000234252
0.000234592
0.000234592
0.000234252
0.000235133
0.000234802
0.000234727
0.000234696
0.000233832
0.000234467
9.76728e-05
0.000234271
0.000233445
0.000234597
0.000228317
0.000234769
4.00759e-05
0.000220818
0.000147404
0.000233817
0.000234464
0.000234271
9.82939e-05
0.000234597
0.000233548
0.000228338
0.000234762
4.00974e-05
0.000216727
0.000147303
0.000234867
0.000233755
0.000233465
2.35691e-05
0.000214194
0.000234434
4.99041e-05
4.98751e-05
0.000230171
0.000230114
2.35852e-05
0.000214219
0.000235133
0.000234801
0.000234727
0.000234758
0.000233818
0.000234468
0.00023427
9.80968e-05
0.000234597
0.000233078
0.000228329
0.000233818
0.000234468
0.00023427
9.76136e-05
0.000234597
0.00023342
0.000228349
0.000234768
4.01141e-05
0.000216085
0.000147288
0.000234747
3.99475e-05
0.000220845
0.000147253
0.000234427
5.05918e-05
5.04883e-05
0.000229158
0.000229022
2.36253e-05
0.000213916
2.35765e-05
0.000214043
2.14298e-05
2.28941e-05
2.14497e-05
2.28842e-05
4.72696e-05
4.71607e-05
0.000231275
4.36089e-05
4.33415e-05
2.4533e-05
2.33686e-05
2.45236e-05
2.33555e-05
0.000229577
3.98911e-05
3.97783e-05
4.27961e-05
4.25747e-05
0.000104753
3.85006e-05
0.000128376
3.9768e-05
0.000205967
9.25041e-05
0.000233966
0.000231959
0.000222331
8.65996e-05
0.000233603
0.000206079
9.22948e-05
0.000233968
0.000231947
0.000222349
8.60206e-05
0.000233605
9.82252e-05
4.19464e-05
4.03417e-05
8.54636e-05
9.83484e-05
4.19485e-05
4.03288e-05
8.55456e-05
0.000199802
0.000230701
8.02117e-05
0.000232661
8.50745e-05
0.000233176
0.000185325
0.000199911
0.000230667
7.95711e-05
0.000232663
8.432e-05
0.000233178
0.000185421
4.70402e-05
4.71854e-05
0.000231266
4.33531e-05
4.35115e-05
2.14503e-05
2.28822e-05
2.45216e-05
2.33482e-05
0.000229561
3.96944e-05
3.98108e-05
4.25386e-05
4.2716e-05
2.45233e-05
2.33551e-05
0.000206094
9.2387e-05
0.000233968
0.000231953
0.000222386
8.65396e-05
0.000233606
0.000104697
3.84977e-05
0.000128371
3.97786e-05
0.000206053
0.000233967
9.23631e-05
0.000231954
0.000222356
0.000233605
8.65526e-05
9.83308e-05
4.19389e-05
4.03323e-05
8.55248e-05
0.000199925
0.000230691
8.01533e-05
0.000232667
8.49543e-05
0.00023318
0.000185426
9.8315e-05
4.19404e-05
4.0338e-05
8.55149e-05
0.000199888
0.000230694
0.000232664
8.01875e-05
0.000233178
8.50555e-05
0.00018539
0.000104726
3.85478e-05
0.000128403
3.97963e-05
0.000206073
0.000233967
9.15278e-05
0.000231904
0.000222403
0.000233604
8.44665e-05
0.000104708
3.86073e-05
0.000128374
3.97943e-05
0.00019992
0.0002307
7.97956e-05
0.000232667
8.50018e-05
0.00023318
0.00018541
9.83338e-05
4.19619e-05
4.03612e-05
8.55169e-05
0.000199908
0.000230593
0.000232658
7.8212e-05
0.000233175
8.26024e-05
0.000185388
9.83271e-05
4.19599e-05
4.03598e-05
8.55044e-05
4.70849e-05
4.70502e-05
0.000231265
4.34455e-05
4.33791e-05
2.14246e-05
2.28874e-05
2.45207e-05
2.33468e-05
0.000229561
3.97951e-05
3.97207e-05
4.26721e-05
4.2563e-05
2.45268e-05
2.33612e-05
0.000206062
0.000233968
9.24911e-05
0.000231958
0.000222395
0.000233607
8.66021e-05
0.000104703
3.8499e-05
0.000128394
3.97792e-05
0.000104653
3.85252e-05
0.00012836
3.97771e-05
0.000199937
0.000230702
0.000232669
8.01674e-05
0.000233182
8.5022e-05
0.00018544
0.000199874
0.000230698
0.000232663
8.01807e-05
0.00023318
8.5056e-05
0.000185319
9.83446e-05
4.1944e-05
4.0344e-05
8.55297e-05
9.82781e-05
4.19428e-05
4.03396e-05
8.54446e-05
2.14526e-05
2.289e-05
2.1426e-05
2.28857e-05
0.000229566
3.97971e-05
3.96883e-05
4.26978e-05
4.251e-05
2.45236e-05
2.33601e-05
2.45258e-05
2.33604e-05
2.48164e-05
2.54924e-05
2.48098e-05
2.54893e-05
3.90585e-05
3.89412e-05
0.000219433
3.65206e-05
3.64142e-05
2.59662e-05
2.56404e-05
2.59673e-05
2.56388e-05
0.000216594
3.38784e-05
3.37664e-05
3.57541e-05
3.56328e-05
7.26368e-05
4.24235e-05
8.13803e-05
4.3783e-05
0.000167298
7.8905e-05
0.000232052
0.000225987
0.00017994
7.40549e-05
0.00023134
0.00016733
7.83378e-05
0.000232054
0.000225937
0.000180016
7.3667e-05
0.000231341
6.9689e-05
4.52404e-05
4.41435e-05
6.32951e-05
6.97033e-05
4.52647e-05
4.41685e-05
6.32953e-05
0.000162737
0.00022415
6.82827e-05
0.000229607
7.27029e-05
0.000230526
0.000151806
0.000162754
0.000224105
6.79446e-05
0.000229601
7.25053e-05
0.000230525
0.000151775
3.8868e-05
3.89742e-05
0.000219387
3.63721e-05
3.63597e-05
2.48097e-05
2.54917e-05
2.59704e-05
2.56419e-05
0.000216538
3.37553e-05
3.37178e-05
3.56005e-05
3.55869e-05
2.59696e-05
2.56409e-05
0.000167348
7.88584e-05
0.00023206
0.000225986
0.000180026
7.39452e-05
0.000231348
7.26303e-05
4.24089e-05
8.13523e-05
4.37554e-05
0.000167337
0.000232056
7.88756e-05
0.000225975
0.000179999
0.000231344
7.4008e-05
6.96974e-05
4.52387e-05
4.41403e-05
6.32854e-05
0.000162769
0.000224148
6.82565e-05
0.00022961
7.27138e-05
0.000230533
0.000151771
6.97095e-05
4.52384e-05
4.41384e-05
6.33097e-05
0.000162771
0.000224133
0.000229609
6.8232e-05
0.000230529
7.26462e-05
0.000151802
7.26225e-05
4.2426e-05
8.13614e-05
4.37705e-05
0.00016729
0.000232045
7.71572e-05
0.000225828
0.000179976
0.000231328
7.28415e-05
7.26115e-05
4.24254e-05
8.13402e-05
4.37738e-05
0.000162734
0.000224059
6.75529e-05
0.000229589
7.19956e-05
0.000230516
0.000151743
6.97054e-05
4.52523e-05
4.41535e-05
6.33035e-05
0.000162725
0.00022399
0.000229588
6.77173e-05
0.00023051
7.18167e-05
0.00015177
6.96882e-05
4.52529e-05
4.41581e-05
6.32914e-05
3.89629e-05
3.88917e-05
0.000219386
3.63946e-05
3.63875e-05
2.48129e-05
2.54918e-05
2.59675e-05
2.56392e-05
0.000216539
3.37575e-05
3.37837e-05
3.56217e-05
3.5617e-05
2.59691e-05
2.56415e-05
0.000167274
0.000232053
7.88751e-05
0.000225982
0.000179925
0.00023134
7.39478e-05
7.26381e-05
4.24116e-05
8.1366e-05
4.37586e-05
7.25963e-05
4.24099e-05
8.12893e-05
4.3756e-05
0.000162809
0.000224148
0.000229617
6.81832e-05
0.000230537
7.27152e-05
0.000151817
0.000162748
0.000224143
0.000229608
6.81947e-05
0.000230527
7.27062e-05
0.000151785
6.97164e-05
4.5242e-05
4.41429e-05
6.3316e-05
6.96779e-05
4.52381e-05
4.41397e-05
6.32901e-05
2.48084e-05
2.54864e-05
2.48117e-05
2.54906e-05
0.000216536
3.38673e-05
3.37749e-05
3.56806e-05
3.5596e-05
2.59635e-05
2.56357e-05
2.59678e-05
2.56402e-05
2.60216e-05
2.61207e-05
2.60235e-05
2.61224e-05
3.32932e-05
3.31855e-05
0.000204446
3.20479e-05
3.19849e-05
2.60774e-05
2.61203e-05
2.60773e-05
2.61223e-05
0.000201176
3.09567e-05
3.09122e-05
3.16473e-05
3.15865e-05
5.63255e-05
4.55679e-05
6.12124e-05
4.64386e-05
0.00013854
6.70153e-05
0.00022859
0.000218084
0.000147978
6.31767e-05
0.000227475
0.000138484
6.6791e-05
0.000228577
0.000218007
0.000147938
6.2755e-05
0.000227453
5.48491e-05
4.73265e-05
4.66495e-05
5.10764e-05
5.48494e-05
4.7347e-05
4.66706e-05
5.10513e-05
0.000135356
0.000215933
5.87717e-05
0.000224991
6.2076e-05
0.000226275
0.000127171
0.000135288
0.000215829
5.83701e-05
0.000224946
6.17426e-05
0.000226242
0.000127143
3.3174e-05
3.31369e-05
0.000204355
3.19595e-05
3.19442e-05
2.60258e-05
2.61245e-05
2.60808e-05
2.61251e-05
0.000201073
3.08845e-05
3.08883e-05
3.15603e-05
3.15411e-05
2.60798e-05
2.61244e-05
0.000138479
6.69761e-05
0.00022859
0.000218076
0.000147988
6.30888e-05
0.00022747
5.63585e-05
4.55416e-05
6.12324e-05
4.64173e-05
0.000138517
0.000228591
6.69621e-05
0.000218052
0.000148017
0.000227475
6.3082e-05
5.48517e-05
4.73287e-05
4.6651e-05
5.10479e-05
0.000135366
0.000215924
5.87627e-05
0.000224983
6.20766e-05
0.000226269
0.000127175
5.48483e-05
4.73276e-05
4.66494e-05
5.10807e-05
0.000135392
0.000215895
0.000224988
5.87602e-05
0.000226274
6.20734e-05
0.000127174
5.63422e-05
4.55554e-05
6.12282e-05
4.64315e-05
0.000138527
0.00022857
6.66804e-05
0.000217979
0.000147971
0.000227456
6.29723e-05
5.63323e-05
4.55547e-05
6.12153e-05
4.64229e-05
0.000135355
0.000215744
5.8415e-05
0.000224943
6.14803e-05
0.000226233
0.000127191
5.48699e-05
4.73419e-05
4.66628e-05
5.1077e-05
0.000135353
0.00021585
0.000224975
5.87586e-05
0.000226257
6.20044e-05
0.000127224
5.48619e-05
4.7328e-05
4.66538e-05
5.10706e-05
3.31762e-05
3.32063e-05
0.000204357
3.19774e-05
3.19944e-05
2.60256e-05
2.6124e-05
2.6077e-05
2.61217e-05
0.000201084
3.08988e-05
3.09395e-05
3.15741e-05
3.16098e-05
2.60903e-05
2.61228e-05
0.000138517
0.000228591
6.70314e-05
0.000218074
0.000148012
0.000227476
6.31126e-05
5.63662e-05
4.55459e-05
6.12457e-05
4.64208e-05
5.63471e-05
4.55422e-05
6.12205e-05
4.64172e-05
0.000135408
0.000215921
0.000225002
5.88448e-05
0.000226286
6.20629e-05
0.000127246
0.000135376
0.000215924
0.000224993
5.87833e-05
0.000226276
6.20942e-05
0.000127215
5.48661e-05
4.73316e-05
4.66531e-05
5.10998e-05
5.48394e-05
4.73278e-05
4.66498e-05
5.1062e-05
2.60194e-05
2.6119e-05
2.60241e-05
2.61224e-05
0.000201153
3.09858e-05
3.09502e-05
3.1674e-05
3.1612e-05
2.60757e-05
2.61186e-05
2.60781e-05
2.61221e-05
2.60504e-05
2.59401e-05
2.60506e-05
2.5939e-05
3.06891e-05
3.06797e-05
0.000189655
3.03789e-05
3.03689e-05
2.57398e-05
2.58813e-05
2.57377e-05
2.58793e-05
0.000186429
3.02348e-05
3.02401e-05
3.02846e-05
3.0298e-05
4.70425e-05
4.7517e-05
4.99661e-05
4.80256e-05
0.000117511
5.79279e-05
0.000223638
0.000209259
0.000124595
5.51652e-05
0.000222218
0.000117438
5.75189e-05
0.000223582
0.000209072
0.000124483
5.47678e-05
0.000222151
4.62396e-05
4.85006e-05
4.81287e-05
4.38737e-05
4.61772e-05
4.85132e-05
4.81444e-05
4.39176e-05
0.000115382
0.000207003
5.22078e-05
0.000219224
5.44823e-05
0.000220747
0.00010926
0.000115299
0.000206797
5.18835e-05
0.000219141
5.41015e-05
0.00022067
0.000109207
3.06242e-05
3.06299e-05
0.000189561
3.03141e-05
3.03354e-05
2.60523e-05
2.59411e-05
2.57389e-05
2.58816e-05
0.0001863
3.01857e-05
3.02099e-05
3.02397e-05
3.02656e-05
2.57399e-05
2.58815e-05
0.000117505
5.7921e-05
0.000223633
0.000209255
0.000124559
5.51617e-05
0.000222213
4.70057e-05
4.74971e-05
4.99746e-05
4.80078e-05
0.000117513
0.000223635
5.78919e-05
0.000209213
0.000124597
0.000222215
5.5219e-05
4.61889e-05
4.84995e-05
4.8128e-05
4.39063e-05
0.000115361
0.000207002
5.22038e-05
0.000219225
5.44795e-05
0.000220747
0.000109264
4.62322e-05
4.84978e-05
4.81261e-05
4.39153e-05
0.000115382
0.000206959
0.000219224
5.22101e-05
0.000220745
5.44238e-05
0.000109272
4.70522e-05
4.7511e-05
4.99821e-05
4.80223e-05
0.000117539
0.000223625
5.79236e-05
0.000209227
0.000124561
0.000222208
5.5179e-05
4.70546e-05
4.7498e-05
4.99839e-05
4.80085e-05
0.000115358
0.000206808
5.20705e-05
0.000219183
5.42012e-05
0.000220699
0.000109261
4.6208e-05
4.85121e-05
4.81404e-05
4.39215e-05
0.000115386
0.000206981
0.000219224
5.22049e-05
0.000220742
5.44966e-05
0.000109286
4.62063e-05
4.85013e-05
4.81281e-05
4.39244e-05
3.06694e-05
3.06747e-05
0.000189609
3.03488e-05
3.03865e-05
2.60437e-05
2.59395e-05
2.57366e-05
2.58782e-05
0.000186357
3.02227e-05
3.02659e-05
3.02921e-05
3.0277e-05
2.57386e-05
2.58803e-05
0.000117508
0.000223641
5.79332e-05
0.000209258
0.000124557
0.000222222
5.5176e-05
4.70131e-05
4.75011e-05
4.99894e-05
4.80115e-05
4.69953e-05
4.74981e-05
4.99781e-05
4.80083e-05
0.000115387
0.000206997
0.000219241
5.22842e-05
0.000220765
5.44504e-05
0.000109271
0.000115364
0.000207005
0.000219232
5.22832e-05
0.000220753
5.4471e-05
0.000109257
4.62482e-05
4.85023e-05
4.81301e-05
4.38832e-05
4.62291e-05
4.84995e-05
4.81273e-05
4.38655e-05
2.60487e-05
2.59387e-05
2.60498e-05
2.59385e-05
0.000186413
3.02618e-05
3.02677e-05
3.03052e-05
3.0304e-05
2.57386e-05
2.58799e-05
2.57376e-05
2.58795e-05
2.56733e-05
2.55204e-05
2.56708e-05
2.55185e-05
3.02877e-05
3.02997e-05
0.000176313
3.04465e-05
3.04703e-05
2.53022e-05
2.54527e-05
2.53002e-05
2.54502e-05
0.000173231
3.09247e-05
3.0927e-05
3.05813e-05
3.05809e-05
4.14915e-05
4.85914e-05
4.32597e-05
4.88495e-05
0.000102143
5.16647e-05
0.000217666
0.000200239
0.000107394
4.98122e-05
0.000216071
0.000102104
5.13667e-05
0.000217579
0.000200014
0.000107333
4.95859e-05
0.000215982
4.09858e-05
4.90603e-05
4.88881e-05
3.96265e-05
4.09939e-05
4.90691e-05
4.88973e-05
3.96261e-05
0.000100487
0.000198012
4.78905e-05
0.000212811
4.93888e-05