/*--------------------------------*- C++ -*----------------------------------*\
| =========                 |                                                 |
| \\      /  F ield         | OpenFOAM: The Open Source CFD Toolbox           |
|  \\    /   O peration     | Version:  v1912                                 |
|   \\  /    A nd           | Website:  www.openfoam.com                      |
|    \\/     M anipulation  |                                                 |
\*---------------------------------------------------------------------------*/
FoamFile
{
    version     2.0;
    format      ascii;
    class       volScalarField;
    location    "0.25";
    object      nut;
}
// * * * * * * * * * * * * * * * * * * * * * * * * * * * * * * * * * * * * * //

dimensions      [0 2 -1 0 0 0 0];


internalField   nonuniform List<scalar> 
171728
(
3.46562e-07
4.11378e-07
4.11304e-07
1.71087e-07
2.18783e-08
2.78239e-08
2.79712e-08
3.6375e-08
1.38179e-09
2.30976e-09
2.30218e-09
3.53475e-08
2.46341e-10
1.38581e-09
1.38528e-09
3.53701e-08
1.85058e-10
1.32092e-09
1.33365e-09
3.53732e-08
1.83684e-10
1.33382e-09
1.33113e-09
3.53733e-08
1.7712e-10
1.3365e-09
1.32927e-09
3.53744e-08
1.85737e-10
1.33151e-09
1.33128e-09
3.53745e-08
1.81338e-10
1.33113e-09
1.32639e-09
3.53751e-08
1.74444e-10
1.3296e-09
1.33041e-09
3.53746e-08
2.07643e-10
1.32731e-09
1.33031e-09
3.53748e-08
1.84448e-10
1.3273e-09
1.33068e-09
3.53755e-08
1.88475e-10
1.33698e-09
1.33176e-09
3.53755e-08
1.88231e-10
1.33848e-09
1.33196e-09
3.53756e-08
1.77678e-10
1.31539e-09
1.3315e-09
3.53755e-08
1.83764e-10
1.33963e-09
1.33093e-09
3.53754e-08
1.87216e-10
1.33134e-09
1.33187e-09
3.53759e-08
1.80446e-10
1.32198e-09
1.33078e-09
3.5376e-08
2.17138e-10
1.31883e-09
1.32955e-09
3.53755e-08
1.94662e-10
1.3443e-09
1.32706e-09
3.53758e-08
2.28093e-10
1.33557e-09
1.33107e-09
3.53774e-08
1.83008e-10
1.33308e-09
1.33215e-09
3.53777e-08
1.82858e-10
1.33141e-09
1.33158e-09
3.53782e-08
1.83266e-10
1.33217e-09
1.33252e-09
3.53778e-08
1.83844e-10
1.33183e-09
1.33246e-09
3.53779e-08
1.83517e-10
1.33195e-09
1.33217e-09
3.53781e-08
1.8364e-10
1.332e-09
1.33223e-09
3.53779e-08
1.83909e-10
1.33171e-09
1.33195e-09
3.53778e-08
1.83731e-10
1.33235e-09
1.33259e-09
3.53779e-08
1.83304e-10
1.33177e-09
1.33211e-09
3.53778e-08
1.83203e-10
1.33284e-09
1.33234e-09
3.53777e-08
1.8368e-10
1.32959e-09
1.33196e-09
3.53779e-08
1.83925e-10
1.33258e-09
1.33243e-09
3.5378e-08
1.83615e-10
1.33246e-09
1.33372e-09
3.53781e-08
1.837e-10
1.3323e-09
1.33343e-09
3.5378e-08
1.83606e-10
1.3327e-09
1.33428e-09
3.53782e-08
1.83714e-10
1.33215e-09
1.33372e-09
3.53782e-08
1.84266e-10
1.33234e-09
1.33392e-09
3.53781e-08
1.85297e-10
1.33249e-09
1.33716e-09
3.53782e-08
1.92e-10
1.33559e-09
1.33497e-09
3.53724e-08
2.48213e-10
1.31587e-09
1.33388e-09
3.53781e-08
1.8267e-10
1.33859e-09
1.33193e-09
3.53777e-08
1.83881e-10
1.33529e-09
1.33297e-09
3.53781e-08
1.84434e-10
1.33121e-09
1.33254e-09
3.53785e-08
1.84412e-10
1.33108e-09
1.33461e-09
3.53786e-08
1.84248e-10
1.33106e-09
1.33375e-09
3.53785e-08
1.84264e-10
1.33116e-09
1.33302e-09
3.53787e-08
1.84475e-10
1.33104e-09
1.33438e-09
3.53787e-08
1.84217e-10
1.33113e-09
1.33446e-09
3.53787e-08
1.8443e-10
1.331e-09
1.33436e-09
3.53787e-08
1.84644e-10
1.33063e-09
1.33537e-09
3.53789e-08
1.8478e-10
1.33125e-09
1.33323e-09
3.53786e-08
1.85203e-10
1.33177e-09
1.33351e-09
3.53784e-08
1.87684e-10
1.33938e-09
1.33346e-09
3.53785e-08
1.91623e-10
1.32319e-09
1.33438e-09
3.53785e-08
1.86074e-10
1.32986e-09
1.33053e-09
3.53775e-08
1.85081e-10
1.33118e-09
1.33136e-09
3.53756e-08
1.85015e-10
1.33122e-09
1.33109e-09
3.53753e-08
1.85375e-10
1.33158e-09
1.33152e-09
3.53753e-08
1.84723e-10
1.33095e-09
1.33044e-09
3.53755e-08
1.84884e-10
1.3314e-09
1.33168e-09
3.53753e-08
1.84889e-10
1.33122e-09
1.33102e-09
3.53756e-08
1.85345e-10
1.33151e-09
1.33133e-09
3.53756e-08
1.84864e-10
1.33114e-09
1.33108e-09
3.53755e-08
1.847e-10
1.33114e-09
1.33096e-09
3.53754e-08
1.85079e-10
1.33169e-09
1.3315e-09
3.53754e-08
1.84223e-10
1.33133e-09
1.33119e-09
3.53757e-08
1.82734e-10
1.33081e-09
1.33095e-09
3.53752e-08
1.77954e-10
1.32957e-09
1.33276e-09
3.53754e-08
1.77775e-10
1.33072e-09
1.31561e-09
3.53777e-08
1.80839e-10
1.33239e-09
1.32567e-09
3.53743e-08
1.8388e-10
1.33192e-09
1.33193e-09
3.53749e-08
1.84905e-10
1.33132e-09
1.33191e-09
3.53751e-08
1.84852e-10
1.33119e-09
1.33091e-09
3.53747e-08
1.84853e-10
1.33088e-09
1.3301e-09
3.53746e-08
1.84976e-10
1.33118e-09
1.33044e-09
3.53745e-08
1.84929e-10
1.33126e-09
1.33042e-09
3.53744e-08
1.85007e-10
1.33127e-09
1.33049e-09
3.53745e-08
1.8481e-10
1.33175e-09
1.33147e-09
3.53744e-08
1.84939e-10
1.33116e-09
1.33091e-09
3.53745e-08
1.85095e-10
1.33121e-09
1.33097e-09
3.53745e-08
1.84803e-10
1.33127e-09
1.33102e-09
3.53745e-08
1.84798e-10
1.33174e-09
1.33148e-09
3.53745e-08
1.85102e-10
1.33101e-09
1.33077e-09
3.53746e-08
1.85438e-10
1.33117e-09
1.33091e-09
3.53745e-08
1.85096e-10
1.33137e-09
1.33153e-09
3.53746e-08
1.85416e-10
1.33159e-09
1.33108e-09
3.53746e-08
1.85121e-10
1.33171e-09
1.33125e-09
3.53747e-08
1.84906e-10
1.33114e-09
1.33039e-09
3.53746e-08
1.85584e-10
1.3312e-09
1.33109e-09
3.53745e-08
1.90989e-10
1.33174e-09
1.33134e-09
3.5375e-08
2.79861e-10
1.37799e-09
1.38172e-09
3.53758e-08
2.12618e-09
2.5124e-09
2.55852e-09
3.54436e-08
3.48032e-08
3.41291e-08
3.42132e-08
3.64216e-08
2.19417e-07
1.12282e-07
1.12339e-07
1.33063e-07
1.61795e-07
2.37893e-07
2.37915e-07
1.6173e-07
2.37906e-07
2.37978e-07
4.98525e-07
4.98518e-07
4.98521e-07
4.98525e-07
2.37826e-07
2.37903e-07
1.61688e-07
2.37872e-07
2.37881e-07
1.61669e-07
1.71144e-07
9.6188e-08
4.11166e-07
4.11249e-07
6.17388e-08
6.16232e-08
1.71091e-07
9.59531e-08
4.11423e-07
4.11289e-07
6.1828e-08
6.17704e-08
4.1127e-07
6.18032e-08
6.17533e-08
1.7113e-07
9.62516e-08
4.1137e-07
6.18911e-08
6.18844e-08
9.61583e-08
3.63932e-08
9.2074e-08
2.78491e-08
2.78699e-08
3.49587e-09
3.54681e-09
3.62917e-08
9.21489e-08
2.79012e-08
2.79071e-08
3.49564e-09
3.54138e-09
2.7929e-08
3.45666e-09
3.51626e-09
3.64503e-08
9.21402e-08
2.8062e-08
3.51516e-09
3.51937e-09
9.21266e-08
3.52942e-08
9.2005e-08
2.2966e-09
2.30756e-09
1.4499e-09
1.44934e-09
3.53047e-08
9.20045e-08
2.32472e-09
2.32006e-09
1.43438e-09
1.45401e-09
2.34868e-09
1.43714e-09
1.45315e-09
3.53206e-08
9.20093e-08
2.35097e-09
1.42187e-09
1.43073e-09
9.19911e-08
3.53526e-08
9.19946e-08
1.40018e-09
1.4059e-09
1.35267e-09
1.33196e-09
3.53533e-08
9.1992e-08
1.38235e-09
1.404e-09
1.33585e-09
1.35588e-09
1.40021e-09
1.32469e-09
1.34922e-09
3.53614e-08
9.19984e-08
1.38374e-09
1.32934e-09
1.32932e-09
9.19789e-08
3.53544e-08
9.19935e-08
1.3487e-09
1.32031e-09
1.35019e-09
1.32376e-09
3.5359e-08
9.19888e-08
1.32917e-09
1.352e-09
1.33047e-09
1.35086e-09
1.34658e-09
1.31906e-09
1.34517e-09
3.53645e-08
9.19983e-08
1.32718e-09
1.32282e-09
1.32276e-09
9.19795e-08
3.53551e-08
9.1992e-08
1.34825e-09
1.34278e-09
1.33407e-09
1.37482e-09
3.53635e-08
9.19942e-08
1.32376e-09
1.34998e-09
1.32607e-09
1.35063e-09
1.34502e-09
1.34153e-09
1.3431e-09
3.53646e-08
9.19989e-08
1.32462e-09
1.32137e-09
1.32263e-09
9.19796e-08
3.53581e-08
9.19935e-08
1.30076e-09
1.36514e-09
1.36787e-09
1.35527e-09
3.53583e-08
9.19973e-08
1.31806e-09
1.34964e-09
1.3398e-09
1.34979e-09
1.34278e-09
1.33181e-09
1.34264e-09
3.53652e-08
9.20008e-08
1.32435e-09
1.32177e-09
1.32359e-09
9.19812e-08
3.53579e-08
9.19966e-08
1.34586e-09
1.35554e-09
1.35038e-09
1.35528e-09
3.53571e-08
9.19962e-08
1.33353e-09
1.34896e-09
1.33702e-09
1.35093e-09
1.34261e-09
1.33151e-09
1.34323e-09
3.53653e-08
9.19998e-08
1.32615e-09
1.31975e-09
1.32437e-09
9.19803e-08
3.53551e-08
9.19945e-08
1.34947e-09
1.35515e-09
1.33912e-09
1.3479e-09
3.53577e-08
9.19999e-08
1.32909e-09
1.35058e-09
1.32699e-09
1.35095e-09
1.34298e-09
1.32961e-09
1.34236e-09
3.53658e-08
9.20006e-08
1.32456e-09
1.32158e-09
1.32386e-09
9.19812e-08
3.53544e-08
9.19871e-08
1.32819e-09
1.33758e-09
1.36737e-09
1.33606e-09
3.53541e-08
9.2003e-08
1.31904e-09
1.3506e-09
1.34138e-09
1.35151e-09
1.34244e-09
1.32582e-09
1.34283e-09
3.53656e-08
9.20016e-08
1.32579e-09
1.32156e-09
1.32426e-09
9.19814e-08
3.53617e-08
9.19951e-08
1.38781e-09
1.34533e-09
1.35115e-09
1.3426e-09
3.53565e-08
9.19991e-08
1.34322e-09
1.34993e-09
1.33572e-09
1.34989e-09
1.34279e-09
1.32854e-09
1.34202e-09
3.53656e-08
9.20017e-08
1.32612e-09
1.32197e-09
1.32369e-09
9.19821e-08
3.53559e-08
9.19954e-08
1.34864e-09
1.33414e-09
1.3463e-09
1.34232e-09
3.53568e-08
9.20023e-08
1.33174e-09
1.34909e-09
1.33157e-09
1.34996e-09
1.34182e-09
1.33409e-09
1.34283e-09
3.53666e-08
9.20019e-08
1.32541e-09
1.32275e-09
1.32468e-09
9.19828e-08
3.53552e-08
9.19997e-08
1.34664e-09
1.3354e-09
1.34435e-09
1.35677e-09
3.53546e-08
9.20036e-08
1.32998e-09
1.34943e-09
1.32694e-09
1.35076e-09
1.3431e-09
1.33615e-09
1.34369e-09
3.53664e-08
9.20006e-08
1.32677e-09
1.32357e-09
1.32484e-09
9.19814e-08
3.53459e-08
9.19899e-08
1.34381e-09
1.35847e-09
1.36678e-09
1.34243e-09
3.53575e-08
9.19991e-08
1.31929e-09
1.34986e-09
1.31637e-09
1.35e-09
1.34387e-09
1.32347e-09
1.34428e-09
3.53666e-08
9.20024e-08
1.32641e-09
1.32306e-09
1.32357e-09
9.19828e-08
3.53587e-08
9.19911e-08
1.34355e-09
1.32495e-09
1.35036e-09
1.39302e-09
3.53595e-08
9.19955e-08
1.32815e-09
1.34944e-09
1.33196e-09
1.34975e-09
1.34449e-09
1.34408e-09
1.34312e-09
3.53666e-08
9.20023e-08
1.32507e-09
1.32234e-09
1.32224e-09
9.19836e-08
3.5358e-08
9.19905e-08
1.34801e-09
1.38085e-09
1.35313e-09
1.35492e-09
3.53683e-08
9.19824e-08
1.33044e-09
1.34894e-09
1.33138e-09
1.35005e-09
1.34263e-09
1.32993e-09
1.34354e-09
3.53666e-08
9.20031e-08
1.32424e-09
1.32263e-09
1.32379e-09
9.19838e-08
3.53597e-08
9.19878e-08
1.34435e-09
1.35443e-09
1.35443e-09
1.34747e-09
3.53684e-08
9.20036e-08
1.33093e-09
1.35007e-09
1.33111e-09
1.35162e-09
1.34412e-09
1.32848e-09
1.34473e-09
3.53668e-08
9.20031e-08
1.32618e-09
1.3226e-09
1.32398e-09
9.19838e-08
3.53585e-08
9.19948e-08
1.3372e-09
1.33926e-09
1.2938e-09
1.3153e-09
3.53675e-08
9.20058e-08
1.32567e-09
1.35098e-09
1.31418e-09
1.35291e-09
1.34479e-09
1.3113e-09
1.34588e-09
3.53671e-08
9.20046e-08
1.32518e-09
1.32126e-09
1.32269e-09
9.19851e-08
3.53557e-08
9.19803e-08
1.29573e-09
1.32534e-09
1.38035e-09
1.45176e-09
3.53854e-08
9.2029e-08
1.31812e-09
1.35171e-09
1.3501e-09
1.34995e-09
1.34485e-09
1.3767e-09
1.3428e-09
3.53668e-08
9.20076e-08
1.32371e-09
1.31828e-09
1.32337e-09
9.19917e-08
3.53794e-08
9.20145e-08
1.33372e-09
1.39051e-09
1.33282e-09
1.39567e-09
3.53449e-08
9.19737e-08
1.34802e-09
1.34867e-09
1.29441e-09
1.3518e-09
1.34607e-09
1.3159e-09
1.34304e-09
3.53676e-08
9.20066e-08
1.32909e-09
1.32144e-09
1.32514e-09
9.19864e-08
3.53442e-08
9.19928e-08
1.35722e-09
1.3644e-09
1.35864e-09
1.35243e-09
3.5372e-08
9.19994e-08
1.31972e-09
1.3501e-09
1.33784e-09
1.35023e-09
1.34272e-09
1.3349e-09
1.34227e-09
3.53683e-08
9.20066e-08
1.32686e-09
1.32281e-09
1.32441e-09
9.19869e-08
3.53638e-08
9.19926e-08
1.35577e-09
1.35761e-09
1.3476e-09
1.35399e-09
3.536e-08
9.19995e-08
1.33401e-09
1.34963e-09
1.33298e-09
1.35005e-09
1.34275e-09
1.33197e-09
1.34263e-09
3.53688e-08
9.2007e-08
1.32677e-09
1.3232e-09
1.32469e-09
9.19874e-08
3.53635e-08
9.1993e-08
1.35082e-09
1.35681e-09
1.34794e-09
1.35437e-09
3.53603e-08
9.19987e-08
1.32958e-09
1.34853e-09
1.33342e-09
1.35039e-09
1.34216e-09
1.3325e-09
1.34228e-09
3.53691e-08
9.20062e-08
1.3257e-09
1.3238e-09
1.33413e-09
9.19868e-08
3.53633e-08
9.19946e-08
1.35063e-09
1.35731e-09
1.3468e-09
1.35381e-09
3.53602e-08
9.19995e-08
1.33042e-09
1.34892e-09
1.33231e-09
1.34984e-09
1.34214e-09
1.33217e-09
1.34264e-09
3.5369e-08
9.2007e-08
1.33212e-09
1.32361e-09
1.32745e-09
9.19867e-08
3.53632e-08
9.19938e-08
1.34986e-09
1.35711e-09
1.34772e-09
1.35433e-09
3.53602e-08
9.19993e-08
1.32968e-09
1.34875e-09
1.33319e-09
1.35044e-09
1.34272e-09
1.33266e-09
1.34311e-09
3.53689e-08
9.20067e-08
1.32985e-09
1.32377e-09
1.3269e-09
9.19874e-08
3.53632e-08
9.19934e-08
1.35035e-09
1.35725e-09
1.3478e-09
1.35411e-09
3.53603e-08
9.1999e-08
1.33014e-09
1.34892e-09
1.33329e-09
1.35018e-09
1.34285e-09
1.33226e-09
1.34267e-09
3.53691e-08
9.20065e-08
1.32868e-09
1.32347e-09
1.32675e-09
9.19873e-08
3.53631e-08
9.19943e-08
1.35055e-09
1.35734e-09
1.34694e-09
1.35366e-09
3.53602e-08
9.2e-08
1.33036e-09
1.349e-09
1.33242e-09
1.34974e-09
1.34267e-09
1.33195e-09
1.34242e-09
3.53689e-08
9.20075e-08
1.32857e-09
1.32317e-09
1.32651e-09
9.19884e-08
3.5363e-08
9.19933e-08
1.35011e-09
1.35702e-09
1.34785e-09
1.35423e-09
3.53601e-08
9.19989e-08
1.3299e-09
1.34868e-09
1.33332e-09
1.35031e-09
1.34233e-09
1.33248e-09
1.34289e-09
3.53688e-08
9.20064e-08
1.32823e-09
1.3237e-09
1.32697e-09
9.19872e-08
3.53631e-08
9.19935e-08
1.35078e-09
1.35744e-09
1.34764e-09
1.35428e-09
3.53601e-08
9.1999e-08
1.33056e-09
1.3491e-09
1.3331e-09
1.3503e-09
1.34286e-09
1.33242e-09
1.34278e-09
3.53689e-08
9.20065e-08
1.32876e-09
1.32367e-09
1.32686e-09
9.19872e-08
3.53633e-08
9.1994e-08
1.35013e-09
1.35722e-09
1.34781e-09
1.35169e-09
3.53603e-08
9.19996e-08
1.3299e-09
1.34869e-09
1.33303e-09
1.35019e-09
1.34256e-09
1.33202e-09
1.34253e-09
3.5369e-08
9.20069e-08
1.32844e-09
1.32356e-09
1.32661e-09
9.19876e-08
3.53633e-08
9.19933e-08
1.3503e-09
1.33828e-09
1.34755e-09
1.36307e-09
3.53608e-08
9.20008e-08
1.33012e-09
1.34895e-09
1.33287e-09
1.35013e-09
1.34302e-09
1.33393e-09
1.34252e-09
3.5369e-08
9.20064e-08
1.32895e-09
1.3234e-09
1.32652e-09
9.19874e-08
3.53632e-08
9.19933e-08
1.35027e-09
1.3495e-09
1.34798e-09
1.35654e-09
3.53609e-08
9.20019e-08
1.32994e-09
1.34876e-09
1.33346e-09
1.35056e-09
1.3424e-09
1.33296e-09
1.34323e-09
3.5369e-08
9.20064e-08
1.32834e-09
1.32386e-09
1.32724e-09
9.19869e-08
3.53632e-08
9.19932e-08
1.35081e-09
1.35971e-09
1.34739e-09
1.35595e-09
3.53573e-08
9.20019e-08
1.3306e-09
1.3493e-09
1.33286e-09
1.3499e-09
1.34285e-09
1.33249e-09
1.34237e-09
3.5369e-08
9.20064e-08
1.32882e-09
1.32392e-09
1.327e-09
9.19873e-08
3.53634e-08
9.19935e-08
1.35021e-09
1.35922e-09
1.34738e-09
1.35579e-09
3.53574e-08
9.20021e-08
1.32999e-09
1.34868e-09
1.33284e-09
1.35032e-09
1.34253e-09
1.33231e-09
1.34296e-09
3.53691e-08
9.20068e-08
1.33008e-09
1.31969e-09
1.32291e-09
9.1987e-08
3.53633e-08
9.19934e-08
1.3504e-09
1.35913e-09
1.34776e-09
1.35638e-09
3.53572e-08
9.20016e-08
1.33019e-09
1.34887e-09
1.33323e-09
1.35053e-09
1.34256e-09
1.33297e-09
1.34336e-09
3.53691e-08
9.20063e-08
1.32968e-09
1.32223e-09
1.32555e-09
9.19866e-08
3.53633e-08
9.19933e-08
1.3506e-09
1.35953e-09
1.34738e-09
1.35603e-09
3.53574e-08
9.20018e-08
1.3304e-09
1.3491e-09
1.33285e-09
1.35018e-09
1.34301e-09
1.3324e-09
1.34255e-09
3.53692e-08
9.20064e-08
1.33076e-09
1.32166e-09
1.32475e-09
9.1987e-08
3.53633e-08
9.19934e-08
1.35023e-09
1.35917e-09
1.34721e-09
1.35588e-09
3.53574e-08
9.20019e-08
1.33003e-09
1.34873e-09
1.33267e-09
1.35004e-09
1.34236e-09
1.33249e-09
1.34259e-09
3.53692e-08
9.20065e-08
1.33011e-09
1.32175e-09
1.3248e-09
9.19873e-08
3.53631e-08
9.19936e-08
1.35059e-09
1.35915e-09
1.34765e-09
1.35568e-09
3.53573e-08
9.20018e-08
1.33037e-09
1.34873e-09
1.33301e-09
1.34973e-09
1.34236e-09
1.3328e-09
1.34298e-09
3.53691e-08
9.20065e-08
1.3301e-09
1.32258e-09
1.32535e-09
9.19871e-08
3.53632e-08
9.19943e-08
1.35082e-09
1.35835e-09
1.35895e-09
1.34748e-09
3.53575e-08
9.20016e-08
1.33032e-09
1.348e-09
1.33316e-09
1.35011e-09
1.34209e-09
1.33428e-09
1.33153e-09
3.53691e-08
9.20081e-08
1.33028e-09
1.31969e-09
1.31404e-09
9.19884e-08
3.5362e-08
9.20047e-08
1.36664e-09
1.35513e-09
1.2921e-09
1.36421e-09
3.53562e-08
9.20193e-08
1.32655e-09
1.34782e-09
1.3079e-09
1.35281e-09
1.33176e-09
1.31749e-09
1.35709e-09
3.53685e-08
9.20088e-08
1.29358e-09
1.32258e-09
1.33097e-09
9.1989e-08
3.53578e-08
9.1997e-08
1.34976e-09
1.33537e-09
1.34505e-09
1.31744e-09
3.53638e-08
9.2027e-08
1.30535e-09
1.35183e-09
1.33694e-09
1.3506e-09
1.34838e-09
1.31506e-09
1.3445e-09
3.53682e-08
9.20093e-08
1.33771e-09
1.32193e-09
1.32394e-09
9.19887e-08
3.53574e-08
9.19973e-08
1.35169e-09
1.3695e-09
1.34277e-09
1.36683e-09
3.53801e-08
9.20127e-08
1.32676e-09
1.34891e-09
1.33398e-09
1.35051e-09
1.34373e-09
1.33843e-09
1.3436e-09
3.53684e-08
9.20091e-08
1.32834e-09
1.32233e-09
1.32417e-09
9.19879e-08
3.53595e-08
9.19968e-08
1.35129e-09
1.36033e-09
1.34195e-09
1.35527e-09
3.53635e-08
9.20136e-08
1.32656e-09
1.3489e-09
1.33427e-09
1.35017e-09
1.34331e-09
1.33165e-09
1.34338e-09
3.53685e-08
9.20092e-08
1.3295e-09
1.32206e-09
1.32483e-09
9.19875e-08
3.53598e-08
9.19966e-08
1.35023e-09
1.35482e-09
1.34203e-09
1.35461e-09
3.53627e-08
9.20136e-08
1.3268e-09
1.34863e-09
1.33353e-09
1.3502e-09
1.34284e-09
1.3313e-09
1.3429e-09
3.53688e-08
9.2009e-08
1.32979e-09
1.32061e-09
1.32468e-09
9.19877e-08
3.53599e-08
9.19965e-08
1.34978e-09
1.35457e-09
1.34183e-09
1.35466e-09
3.53626e-08
9.20141e-08
1.32834e-09
1.34865e-09
1.33468e-09
1.35044e-09
1.34256e-09
1.33131e-09
1.34249e-09
3.53688e-08
9.20097e-08
1.32969e-09
1.32318e-09
1.32665e-09
9.19889e-08
3.53598e-08
9.19967e-08
1.35012e-09
1.35475e-09
1.34156e-09
1.35447e-09
3.53625e-08
9.20141e-08
1.32761e-09
1.34905e-09
1.33578e-09
1.35082e-09
1.34207e-09
1.33111e-09
1.34329e-09
3.53688e-08
9.20097e-08
1.33164e-09
1.32131e-09
1.32281e-09
9.19885e-08
3.53596e-08
9.19966e-08
1.35004e-09
1.35466e-09
1.34186e-09
1.35442e-09
3.53624e-08
9.2014e-08
1.32825e-09
1.34949e-09
1.33475e-09
1.35041e-09
1.34303e-09
1.3311e-09
1.34281e-09
3.53687e-08
9.20096e-08
1.33134e-09
1.32088e-09
1.32455e-09
9.19884e-08
3.53599e-08
9.19965e-08
1.35017e-09
1.35444e-09
1.34185e-09
1.35451e-09
3.53625e-08
9.20138e-08
1.32769e-09
1.34886e-09
1.33465e-09
1.3504e-09
1.34241e-09
1.33135e-09
1.34304e-09
3.5369e-08
9.20094e-08
1.33033e-09
1.32119e-09
1.32509e-09
9.19883e-08
3.53599e-08
9.19969e-08
1.34999e-09
1.35445e-09
1.34146e-09
1.35414e-09
3.53625e-08
9.20142e-08
1.32748e-09
1.34885e-09
1.33422e-09
1.35002e-09
1.34246e-09
1.33105e-09
1.34283e-09
3.53689e-08
9.20098e-08
1.3304e-09
1.3209e-09
1.32492e-09
9.19886e-08
3.536e-08
9.19968e-08
1.34969e-09
1.3542e-09
1.34183e-09
1.3545e-09
3.53626e-08
9.20141e-08
1.32718e-09
1.34856e-09
1.33467e-09
1.35028e-09
1.34261e-09
1.3311e-09
1.34245e-09
3.5369e-08
9.20097e-08
1.33064e-09
1.32185e-09
1.32689e-09
9.1988e-08
3.53599e-08
9.19966e-08
1.34962e-09
1.3541e-09
1.34194e-09
1.35476e-09
3.53625e-08
9.2014e-08
1.32718e-09
1.34839e-09
1.33494e-09
1.35065e-09
1.34206e-09
1.33149e-09
1.34297e-09
3.5369e-08
9.20095e-08
1.3351e-09
1.32227e-09
1.32539e-09
9.19888e-08
3.53597e-08
9.19965e-08
1.35014e-09
1.35473e-09
1.34145e-09
1.35467e-09
3.53625e-08
9.20144e-08
1.32793e-09
1.3491e-09
1.33514e-09
1.35026e-09
1.34249e-09
1.33159e-09
1.34195e-09
3.53689e-08
9.20095e-08
1.32953e-09
1.32254e-09
1.32578e-09
9.19891e-08
3.53597e-08
9.19959e-08
1.34955e-09
1.35482e-09
1.33894e-09
1.35946e-09
3.53621e-08
9.20163e-08
1.32827e-09
1.34876e-09
1.33456e-09
1.34976e-09
1.34158e-09
1.33527e-09
1.34054e-09
3.53689e-08
9.20092e-08
1.33043e-09
1.3221e-09
1.32601e-09
9.19882e-08
3.53599e-08
9.19947e-08
1.34686e-09
1.36906e-09
1.33745e-09
1.33238e-09
3.5361e-08
9.20285e-08
1.33083e-09
1.34855e-09
1.33311e-09
1.35016e-09
1.34025e-09
1.32446e-09
1.34112e-09
3.5369e-08
9.20086e-08
1.32998e-09
1.32271e-09
1.32669e-09
9.19871e-08
3.536e-08
9.19945e-08
1.34705e-09
1.31285e-09
1.34105e-09
1.34903e-09
3.53519e-08
9.20136e-08
1.33069e-09
1.34871e-09
1.33414e-09
1.35132e-09
1.34163e-09
1.32928e-09
1.34189e-09
3.53691e-08
9.20078e-08
1.33094e-09
1.32254e-09
1.325e-09
9.19876e-08
3.53595e-08
9.19949e-08
1.3494e-09
1.35168e-09
1.34155e-09
1.35453e-09
3.53611e-08
9.20131e-08
1.33078e-09
1.34987e-09
1.33312e-09
1.3504e-09
1.33898e-09
1.33156e-09
1.34671e-09
3.53687e-08
9.20076e-08
1.32237e-09
1.32388e-09
1.32885e-09
9.19908e-08
3.53593e-08
9.19952e-08
1.34998e-09
1.3545e-09
1.3413e-09
1.35429e-09
3.53617e-08
9.20134e-08
1.33024e-09
1.34896e-09
1.33239e-09
1.34985e-09
1.34671e-09
1.33133e-09
1.34648e-09
3.53683e-08
9.20079e-08
1.32861e-09
1.32318e-09
1.32843e-09
9.19907e-08
3.53592e-08
9.19949e-08
1.34964e-09
1.35448e-09
1.34169e-09
1.35466e-09
3.53616e-08
9.20132e-08
1.3296e-09
1.34874e-09
1.33268e-09
1.35014e-09
1.34723e-09
1.33153e-09
1.3467e-09
3.53681e-08
9.20077e-08
1.32904e-09
1.3233e-09
1.32866e-09
9.19909e-08
3.53592e-08
9.19952e-08
1.3502e-09
1.35492e-09
1.34169e-09
1.35446e-09
3.53616e-08
9.20135e-08
1.33009e-09
1.34912e-09
1.33267e-09
1.35e-09
1.3472e-09
1.33143e-09
1.34632e-09
3.5368e-08
9.20081e-08
1.32911e-09
1.32326e-09
1.32847e-09
9.19914e-08
3.53593e-08
9.19953e-08
1.34979e-09
1.35424e-09
1.34136e-09
1.35431e-09
3.53617e-08
9.20134e-08
1.32967e-09
1.34855e-09
1.33232e-09
1.34986e-09
1.34614e-09
1.33142e-09
1.34668e-09
3.53681e-08
9.2008e-08
1.32809e-09
1.32285e-09
1.32795e-09
9.19909e-08
3.53593e-08
9.19953e-08
1.34978e-09
1.35453e-09
1.34172e-09
1.3546e-09
3.53616e-08
9.20133e-08
1.32965e-09
1.34879e-09
1.33271e-09
1.35014e-09
1.34701e-09
1.33176e-09
1.34682e-09
3.5368e-08
9.20079e-08
1.33018e-09
1.32343e-09
1.32861e-09
9.19911e-08
3.53593e-08
9.19948e-08
1.35005e-09
1.35448e-09
1.3415e-09
1.35451e-09
3.53618e-08
9.20129e-08
1.32992e-09
1.34874e-09
1.33248e-09
1.35e-09
1.34638e-09
1.33153e-09
1.34681e-09
3.53682e-08
9.20075e-08
1.32811e-09
1.32323e-09
1.32868e-09
9.19906e-08
3.53591e-08
9.19951e-08
1.35026e-09
1.355e-09
1.34178e-09
1.35455e-09
3.53616e-08
9.20134e-08
1.33014e-09
1.34921e-09
1.33278e-09
1.35e-09
1.34675e-09
1.3315e-09
1.34656e-09
3.53681e-08
9.20081e-08
1.32848e-09
1.32321e-09
1.32803e-09
9.19913e-08
3.53594e-08
9.19946e-08
1.34987e-09
1.35441e-09
1.34133e-09
1.35418e-09
3.53618e-08
9.20133e-08
1.32976e-09
1.34858e-09
1.3327e-09
1.34972e-09
1.34652e-09
1.33135e-09
1.34653e-09
3.53683e-08
9.20079e-08
1.32897e-09
1.32309e-09
1.32875e-09
9.19909e-08
3.53592e-08
9.19957e-08
1.34973e-09
1.35432e-09
1.34145e-09
1.35448e-09
3.53616e-08
9.2013e-08
1.32961e-09
1.34859e-09
1.33298e-09
1.35e-09
1.34657e-09
1.33172e-09
1.34702e-09
3.53681e-08
9.20076e-08
1.32859e-09
1.32342e-09
1.32918e-09
9.19905e-08
3.53592e-08
9.19956e-08
1.35011e-09
1.35473e-09
1.34187e-09
1.3547e-09
3.53617e-08
9.20127e-08
1.32922e-09
1.34907e-09
1.3333e-09
1.35031e-09
1.34735e-09
1.33196e-09
1.34743e-09
3.53681e-08
9.20073e-08
1.32939e-09
1.3237e-09
1.32956e-09
9.199e-08
3.53595e-08
9.19959e-08
1.34994e-09
1.35438e-09
1.34145e-09
1.35386e-09
3.53619e-08
9.20133e-08
1.32887e-09
1.34892e-09
1.33239e-09
1.35012e-09
1.34738e-09
1.33068e-09
1.34684e-09
3.53683e-08
9.20083e-08
1.32934e-09
1.32234e-09
1.32873e-09
9.1991e-08
3.53594e-08
9.19945e-08
1.35003e-09
1.3543e-09
1.34158e-09
1.35334e-09
3.53617e-08
9.20124e-08
1.3283e-09
1.34975e-09
1.33176e-09
1.35223e-09
1.34861e-09
1.32963e-09
1.34692e-09
3.53679e-08
9.20083e-08
1.33027e-09
1.32316e-09
1.32784e-09
9.19914e-08
3.53595e-08
9.19935e-08
1.35004e-09
1.35334e-09
1.34129e-09
1.35368e-09
3.53616e-08
9.20115e-08
1.32748e-09
1.35187e-09
1.33199e-09
1.35226e-09
1.3479e-09
1.33037e-09
1.34932e-09
3.5368e-08
9.20028e-08
1.32773e-09
1.30157e-09
1.32079e-09
9.19872e-08
3.53594e-08
9.19929e-08
1.35046e-09
1.35429e-09
1.34277e-09
1.3556e-09
3.53615e-08
9.20104e-08
1.32856e-09
1.34999e-09
1.33407e-09
1.35062e-09
1.34817e-09
1.33326e-09
1.34777e-09
3.53702e-08
9.20038e-08
1.32088e-09
1.31556e-09
1.32043e-09
9.19867e-08
3.53591e-08
9.19927e-08
1.35111e-09
1.35499e-09
1.34239e-09
1.35488e-09
3.53613e-08
9.20102e-08
1.32962e-09
1.34912e-09
1.33341e-09
1.35071e-09
1.34709e-09
1.33201e-09
1.34732e-09
3.5367e-08
9.20049e-08
1.32451e-09
1.32044e-09
1.31869e-09
9.19884e-08
3.53584e-08
9.19929e-08
1.3507e-09
1.35483e-09
1.34156e-09
1.35447e-09
3.53607e-08
9.20101e-08
1.32933e-09
1.3492e-09
1.33291e-09
1.34993e-09
1.34726e-09
1.3316e-09
1.34607e-09
3.53668e-08
9.20047e-08
1.33388e-09
1.32299e-09
1.32564e-09
9.1988e-08
3.53582e-08
9.19926e-08
1.35013e-09
1.35451e-09
1.34172e-09
1.35441e-09
3.53606e-08
9.20103e-08
1.32914e-09
1.34877e-09
1.33326e-09
1.3499e-09
1.3468e-09
1.33157e-09
1.34667e-09
3.5367e-08
9.2005e-08
1.33975e-09
1.32392e-09
1.3286e-09
9.19875e-08
3.53583e-08
9.19927e-08
1.34981e-09
1.35444e-09
1.34174e-09
1.35459e-09
3.53607e-08
9.20102e-08
1.32894e-09
1.34873e-09
1.33333e-09
1.35004e-09
1.34673e-09
1.33139e-09
1.34661e-09
3.53672e-08
9.20048e-08
1.32885e-09
1.32355e-09
1.32882e-09
9.19873e-08
3.53582e-08
9.19932e-08
1.34977e-09
1.35435e-09
1.34118e-09
1.35412e-09
3.53606e-08
9.20107e-08
1.32893e-09
1.34866e-09
1.33278e-09
1.34958e-09
1.34655e-09
1.33113e-09
1.34626e-09
3.5367e-08
9.20053e-08
1.32817e-09
1.3234e-09
1.32863e-09
9.19879e-08
3.53581e-08
9.19924e-08
1.34965e-09
1.35439e-09
1.34148e-09
1.35444e-09
3.53605e-08
9.20101e-08
1.32883e-09
1.3487e-09
1.33306e-09
1.3499e-09
1.34674e-09
1.33146e-09
1.34667e-09
3.5367e-08
9.20047e-08
1.32847e-09
1.32381e-09
1.32908e-09
9.19871e-08
3.53581e-08
9.19929e-08
1.34973e-09
1.35447e-09
1.34144e-09
1.35427e-09
3.53605e-08
9.20101e-08
1.32888e-09
1.34878e-09
1.33303e-09
1.34967e-09
1.34694e-09
1.33154e-09
1.34653e-09
3.53669e-08
9.20046e-08
1.32828e-09
1.3248e-09
1.32923e-09
9.19872e-08
3.53581e-08
9.1993e-08
1.34978e-09
1.35431e-09
1.34155e-09
1.35432e-09
3.53605e-08
9.20105e-08
1.32894e-09
1.34868e-09
1.33312e-09
1.34982e-09
1.34679e-09
1.33141e-09
1.34657e-09
3.5367e-08
9.20051e-08
1.3286e-09
1.3231e-09
1.32861e-09
9.19873e-08
3.5358e-08
9.19935e-08
1.35002e-09
1.35473e-09
1.3413e-09
1.35453e-09
3.53604e-08
9.20106e-08
1.32918e-09
1.34904e-09
1.33289e-09
1.34998e-09
1.34722e-09
1.33148e-09
1.34651e-09
3.53669e-08
9.20052e-08
1.32917e-09
1.3232e-09
1.32861e-09
9.19876e-08
3.5358e-08
9.19927e-08
1.34959e-09
1.35446e-09
1.3414e-09
1.3543e-09
3.53605e-08
9.20102e-08
1.32877e-09
1.34873e-09
1.33299e-09
1.34973e-09
1.34655e-09
1.33122e-09
1.34632e-09
3.5367e-08
9.20048e-08
1.32852e-09
1.32296e-09
1.32845e-09
9.19874e-08
3.53581e-08
9.19929e-08
1.34959e-09
1.3545e-09
1.34161e-09
1.35427e-09
3.53605e-08
9.20103e-08
1.32876e-09
1.34876e-09
1.3332e-09
1.34978e-09
1.34664e-09
1.33131e-09
1.34669e-09
3.53669e-08
9.20049e-08
1.32861e-09
1.32306e-09
1.32871e-09
9.19873e-08
3.53581e-08
9.19927e-08
1.34998e-09
1.3544e-09
1.34151e-09
1.35444e-09
3.53605e-08
9.20104e-08
1.32917e-09
1.34875e-09
1.33345e-09
1.34993e-09
1.34678e-09
1.33199e-09
1.34698e-09
3.53669e-08
9.2005e-08
1.32868e-09
1.32368e-09
1.32909e-09
9.19874e-08
3.53581e-08
9.19932e-08
1.3502e-09
1.35462e-09
1.3414e-09
1.35425e-09
3.53606e-08
9.20102e-08
1.32926e-09
1.34895e-09
1.33496e-09
1.34972e-09
1.34732e-09
1.33145e-09
1.34674e-09
3.53671e-08
9.20048e-08
1.32935e-09
1.32319e-09
1.32889e-09
9.19869e-08
3.5358e-08
9.19929e-08
1.34948e-09
1.35408e-09
1.34131e-09
1.35408e-09
3.53606e-08
9.20098e-08
1.32653e-09
1.34836e-09
1.33503e-09
1.34958e-09
1.34655e-09
1.33113e-09
1.34614e-09
3.5367e-08
9.20043e-08
1.32852e-09
1.32287e-09
1.32821e-09
9.19865e-08
3.5358e-08
9.19927e-08
1.34969e-09
1.35441e-09
1.34173e-09
1.35462e-09
3.53605e-08
9.20097e-08
1.32678e-09
1.34871e-09
1.33544e-09
1.35062e-09
1.34647e-09
1.33146e-09
1.34679e-09
3.53669e-08
9.20037e-08
1.3284e-09
1.32326e-09
1.32882e-09
9.19867e-08
3.5358e-08
9.1993e-08
1.35019e-09
1.35474e-09
1.34179e-09
1.35463e-09
3.53606e-08
9.20105e-08
1.32728e-09
1.351e-09
1.33551e-09
1.35409e-09
1.34694e-09
1.33159e-09
1.34654e-09
3.53665e-08
9.20295e-08
1.32882e-09
1.32347e-09
1.32858e-09
9.1988e-08
3.53581e-08
9.19922e-08
1.35021e-09
1.35482e-09
1.34212e-09
1.35513e-09
3.53607e-08
9.20092e-08
1.32734e-09
1.34504e-09
1.3358e-09
1.35455e-09
1.34721e-09
1.33204e-09
1.34695e-09
3.53613e-08
9.20282e-08
1.32917e-09
1.32394e-09
1.3291e-09
9.19862e-08
3.53583e-08
9.1993e-08
1.3502e-09
1.35483e-09
1.34163e-09
1.3543e-09
3.53608e-08
9.201e-08
1.32729e-09
1.34502e-09
1.33527e-09
1.35378e-09
1.34715e-09
1.33177e-09
1.34672e-09
3.53614e-08
9.20291e-08
1.32919e-09
1.3237e-09
1.329e-09
9.19869e-08
3.53583e-08
9.19932e-08
1.34936e-09
1.35423e-09
1.34159e-09
1.35437e-09
3.53607e-08
9.20101e-08
1.32644e-09
1.34451e-09
1.33514e-09
1.35586e-09
1.3469e-09
1.33154e-09
1.34663e-09
3.53613e-08
9.20273e-08
1.32881e-09
1.32367e-09
1.32858e-09
9.19867e-08
3.5358e-08
9.19933e-08
1.34971e-09
1.35435e-09
1.34194e-09
1.35479e-09
3.53606e-08
9.20102e-08
1.32663e-09
1.34593e-09
1.33517e-09
1.34985e-09
1.34695e-09
1.33136e-09
1.34788e-09
3.53657e-08
9.20129e-08
1.3288e-09
1.32304e-09
1.33013e-09
9.1987e-08
3.53575e-08
9.1992e-08
1.35116e-09
1.35556e-09
1.36003e-09
1.37249e-09
3.53604e-08
9.20081e-08
1.32774e-09
1.34891e-09
1.35349e-09
1.37374e-09
1.3513e-09
1.35048e-09
1.3644e-09
3.53669e-08
9.20026e-08
1.33367e-09
1.34469e-09
1.34625e-09
9.19822e-08
3.53601e-08
9.19455e-08
1.39457e-09
1.38724e-09
1.88388e-09
1.87698e-09
3.5362e-08
9.19413e-08
1.3455e-09
1.39479e-09
1.90992e-09
1.91934e-09
1.38622e-09
1.84996e-09
1.82876e-09
3.53678e-08
9.19389e-08
1.36514e-09
1.88426e-09
1.83882e-09
9.18896e-08
3.54639e-08
9.0378e-08
2.52602e-09
2.56196e-09
1.55173e-08
1.54316e-08
3.54582e-08
9.04019e-08
2.56283e-09
2.51795e-09
1.55527e-08
1.55485e-08
2.50951e-09
1.54322e-08
1.55022e-08
3.54611e-08
9.04038e-08
2.53717e-09
1.5515e-08
1.54491e-08
9.03559e-08
3.63877e-08
1.41027e-07
3.39397e-08
3.38716e-08
2.03098e-07
2.03234e-07
3.64804e-08
1.41015e-07
3.4155e-08
3.41211e-08
2.03573e-07
2.03401e-07
3.40518e-08
2.03452e-07
2.03326e-07
3.63792e-08
1.41051e-07
3.42074e-08
2.03503e-07
2.0363e-07
1.41019e-07
1.33058e-07
1.12256e-07
1.12232e-07
1.3301e-07
1.12294e-07
1.12283e-07
2.19409e-07
2.19514e-07
2.19529e-07
1.12288e-07
1.33072e-07
1.12327e-07
8.60335e-08
2.1131e-07
1.48341e-07
1.48413e-07
3.00346e-07
2.54594e-07
1.25795e-07
1.80518e-07
3.00248e-07
2.54631e-07
1.80511e-07
1.25743e-07
2.95155e-07
1.56658e-07
1.56618e-07
5.14633e-07
0.000117807
4.92018e-07
0.000121919
0.000248698
0.00025627
5.14904e-07
0.000117825
4.91125e-07
0.000121939
3.46599e-07
3.46506e-07
3.46593e-07
4.69162e-08
4.68553e-08
4.68906e-08
4.69468e-08
9.83216e-08
4.03343e-07
3.54983e-07
2.17062e-07
1.11382e-07
7.25324e-07
1.97353e-07
0.000248691
0.000256255
9.84278e-08
3.54949e-07
4.03137e-07
2.16846e-07
1.11293e-07
1.97277e-07
7.25232e-07
1.49428e-06
1.49412e-06
9.67633e-08
1.54111e-06
1.54166e-06
5.21226e-07
0.000121887
5.19121e-07
0.000121889
0.000256219
0.000256215
5.21312e-07
0.000121906
5.19197e-07
0.000121907
2.18552e-08
2.18552e-08
2.18794e-08
2.6032e-09
2.6024e-09
2.60435e-09
2.63058e-09