/*--------------------------------*- C++ -*----------------------------------*\
| =========                 |                                                 |
| \\      /  F ield         | OpenFOAM: The Open Source CFD Toolbox           |
|  \\    /   O peration     | Version:  v1912                                 |
|   \\  /    A nd           | Website:  www.openfoam.com                      |
|    \\/     M anipulation  |                                                 |
\*---------------------------------------------------------------------------*/
FoamFile
{
    version     2.0;
    format      ascii;
    class       volScalarField;
    location    "0.25";
    object      p;
}
// * * * * * * * * * * * * * * * * * * * * * * * * * * * * * * * * * * * * * //

dimensions      [0 2 -2 0 0 0 0];


internalField   nonuniform List<scalar> 
171728
(
0.0219701
0.0219734
0.0219734
0.0219907
0.0217364
0.0217364
0.0217364
0.0217508
0.0215037
0.0215037
0.0215037
0.0215181
0.0212711
0.0212711
0.0212711
0.0212855
0.0210384
0.0210384
0.0210384
0.0210528
0.0208057
0.0208057
0.0208057
0.0208201
0.0205731
0.020573
0.020573
0.0205874
0.0203404
0.0203404
0.0203404
0.0203548
0.0201077
0.0201077
0.0201077
0.0201221
0.019875
0.019875
0.019875
0.0198894
0.0196424
0.0196423
0.0196423
0.0196567
0.0194097
0.0194096
0.0194096
0.0194241
0.019177
0.019177
0.019177
0.0191914
0.0189443
0.0189443
0.0189443
0.0189587
0.0187117
0.0187116
0.0187116
0.018726
0.018479
0.018479
0.018479
0.0184934
0.0182463
0.0182463
0.0182463
0.0182607
0.0180136
0.0180136
0.0180136
0.018028
0.017781
0.0177809
0.0177809
0.0177954
0.0175483
0.0175483
0.0175483
0.0175627
0.0173156
0.0173156
0.0173156
0.01733
0.017083
0.0170829
0.0170829
0.0170974
0.0168503
0.0168503
0.0168503
0.0168647
0.0166176
0.0166176
0.0166176
0.016632
0.016385
0.0163849
0.0163849
0.0163994
0.0161523
0.0161523
0.0161523
0.0161667
0.0159196
0.0159196
0.0159196
0.015934
0.015687
0.015687
0.015687
0.0157014
0.0154543
0.0154543
0.0154543
0.0154687
0.0152217
0.0152216
0.0152216
0.015236
0.014989
0.014989
0.014989
0.0150034
0.0147563
0.0147563
0.0147563
0.0147707
0.0145237
0.0145237
0.0145237
0.0145381
0.014291
0.014291
0.014291
0.0143054
0.0140584
0.0140584
0.0140584
0.0140728
0.0138257
0.0138257
0.0138257
0.0138401
0.0135931
0.013593
0.013593
0.0136075
0.0133604
0.0133604
0.0133604
0.0133748
0.0131278
0.0131277
0.0131277
0.0131421
0.0128951
0.0128951
0.0128951
0.0129095
0.0126625
0.0126624
0.0126624
0.0126768
0.0124298
0.0124298
0.0124298
0.0124442
0.0121972
0.0121971
0.0121971
0.0122115
0.0119645
0.0119645
0.0119645
0.0119789
0.0117318
0.0117318
0.0117318
0.0117462
0.0114992
0.0114992
0.0114992
0.0115136
0.0112665
0.0112665
0.0112665
0.0112809
0.0110339
0.0110338
0.0110338
0.0110482
0.0108012
0.0108012
0.0108012
0.0108156
0.0105686
0.0105685
0.0105685
0.0105829
0.0103359
0.0103359
0.0103359
0.0103503
0.0101032
0.0101032
0.0101032
0.0101176
0.00987058
0.00987055
0.00987055
0.00988495
0.00963792
0.00963789
0.00963789
0.00965229
0.00940526
0.00940523
0.00940523
0.00941963
0.0091726
0.00917256
0.00917256
0.00918697
0.00893993
0.0089399
0.0089399
0.00895431
0.00870727
0.00870723
0.00870724
0.00872164
0.0084746
0.00847457
0.00847457
0.00848897
0.00824193
0.0082419
0.0082419
0.0082563
0.00800926
0.00800923
0.00800923
0.00802363
0.00777659
0.00777655
0.00777656
0.00779096
0.00754391
0.00754388
0.00754388
0.00755829
0.00731124
0.00731121
0.00731121
0.00732561
0.00707856
0.00707853
0.00707853
0.00709294
0.00684589
0.00684586
0.00684586
0.00686026
0.00661321
0.00661318
0.00661318
0.00662759
0.00638054
0.00638051
0.00638051
0.00639492
0.00614787
0.00614784
0.00614784
0.00616224
0.0059152
0.00591517
0.00591517
0.00592957
0.00568253
0.0056825
0.0056825
0.0056969
0.00544986
0.00544983
0.00544983
0.00546423
0.00521719
0.00521716
0.00521716
0.00523156
0.00498452
0.00498449
0.00498449
0.00499889
0.00475185
0.00475182
0.00475182
0.00476622
0.00451918
0.00451915
0.00451915
0.00453355
0.00428651
0.00428648
0.00428648
0.00430088
0.00405384
0.0040538
0.00405381
0.00406821
0.00382117
0.00382114
0.00382114
0.00383554
0.0035885
0.00358847
0.00358847
0.00360287
0.00335582
0.00335579
0.00335579
0.0033702
0.00312316
0.00312313
0.00312313
0.00313753
0.00289049
0.00289046
0.00289046
0.00290487
0.00265782
0.00265779
0.00265779
0.0026722
0.00242516
0.00242513
0.00242513
0.00243953
0.0021925
0.00219247
0.00219247
0.00220688
0.00195985
0.00195982
0.00195982
0.00197422
0.00172719
0.00172716
0.00172716
0.00174157
0.00149454
0.0014945
0.00149451
0.00150891
0.00126188
0.00126185
0.00126185
0.00127625
0.00102923
0.0010292
0.0010292
0.0010436
0.000796575
0.000796547
0.000796547
0.00081095
0.000563941
0.000563906
0.000563905
0.000578306
0.000331807
0.000331493
0.000331487
0.000345757
0.000105721
0.000117967
0.000117972
0.000119414
0.0220245
0.0220206
0.0220206
0.0220245
0.0220206
0.0220206
0.0220267
0.0220266
0.0220267
0.0220267
0.0220206
0.0220206
0.0220245
0.0220206
0.0220206
0.0220245
0.0219907
0.0217802
0.0219734
0.0219734
0.0217946
0.0217946
0.0219907
0.0217802
0.0219734
0.0219734
0.0217946
0.0217946
0.0219734
0.0217946
0.0217946
0.0219907
0.0217802
0.0219734
0.0217946
0.0217946
0.0217802
0.0217508
0.0215475
0.0217364
0.0217364
0.0215619
0.0215619
0.0217508
0.0215475
0.0217364
0.0217364
0.0215619
0.0215619
0.0217364
0.0215619
0.0215619
0.0217508
0.0215475
0.0217364
0.0215619
0.0215619
0.0215475
0.0215181
0.0213148
0.0215037
0.0215037
0.0213292
0.0213292
0.0215181
0.0213148
0.0215037
0.0215037
0.0213292
0.0213292
0.0215037
0.0213292
0.0213292
0.0215181
0.0213148
0.0215037
0.0213292
0.0213292
0.0213148
0.0212855
0.0210822
0.0212711
0.0212711
0.0210965
0.0210965
0.0212855
0.0210822
0.0212711
0.0212711
0.0210965
0.0210965
0.0212711
0.0210965
0.0210965
0.0212855
0.0210822
0.0212711
0.0210965
0.0210965
0.0210822
0.0210528
0.0208495
0.0210384
0.0210384
0.0208639
0.0208639
0.0210528
0.0208495
0.0210384
0.0210384
0.0208639
0.0208639
0.0210384
0.0208639
0.0208639
0.0210528
0.0208495
0.0210384
0.0208639
0.0208639
0.0208495
0.0208201
0.0206168
0.0208057
0.0208057
0.0206312
0.0206312
0.0208201
0.0206168
0.0208057
0.0208057
0.0206312
0.0206312
0.0208057
0.0206312
0.0206312
0.0208201
0.0206168
0.0208057
0.0206312
0.0206312
0.0206168
0.0205874
0.0203841
0.020573
0.020573
0.0203985
0.0203985
0.0205874
0.0203841
0.020573
0.020573
0.0203985
0.0203985
0.020573
0.0203985
0.0203985
0.0205874
0.0203841
0.020573
0.0203985
0.0203985
0.0203841
0.0203548
0.0201515
0.0203404
0.0203404
0.0201658
0.0201658
0.0203548
0.0201515
0.0203404
0.0203404
0.0201658
0.0201658
0.0203404
0.0201658
0.0201658
0.0203548
0.0201515
0.0203404
0.0201658
0.0201658
0.0201515
0.0201221
0.0199188
0.0201077
0.0201077
0.0199332
0.0199332
0.0201221
0.0199188
0.0201077
0.0201077
0.0199332
0.0199332
0.0201077
0.0199332
0.0199332
0.0201221
0.0199188
0.0201077
0.0199332
0.0199332
0.0199188
0.0198894
0.0196861
0.019875
0.019875
0.0197005
0.0197005
0.0198894
0.0196861
0.019875
0.019875
0.0197005
0.0197005
0.019875
0.0197005
0.0197005
0.0198894
0.0196861
0.019875
0.0197005
0.0197005
0.0196861
0.0196567
0.0194534
0.0196423
0.0196423
0.0194678
0.0194678
0.0196567
0.0194534
0.0196423
0.0196423
0.0194678
0.0194678
0.0196423
0.0194678
0.0194678
0.0196567
0.0194534
0.0196423
0.0194678
0.0194678
0.0194534
0.0194241
0.0192208
0.0194096
0.0194096
0.0192351
0.0192351
0.0194241
0.0192208
0.0194096
0.0194096
0.0192351
0.0192351
0.0194096
0.0192351
0.0192351
0.0194241
0.0192208
0.0194096
0.0192351
0.0192351
0.0192208
0.0191914
0.0189881
0.019177
0.019177
0.0190025
0.0190025
0.0191914
0.0189881
0.019177
0.019177
0.0190025
0.0190025
0.019177
0.0190025
0.0190025
0.0191914
0.0189881
0.019177
0.0190025
0.0190025
0.0189881
0.0189587
0.0187554
0.0189443
0.0189443
0.0187698
0.0187698
0.0189587
0.0187554
0.0189443
0.0189443
0.0187698
0.0187698
0.0189443
0.0187698
0.0187698
0.0189587
0.0187554
0.0189443
0.0187698
0.0187698
0.0187554
0.018726
0.0185227
0.0187116
0.0187116
0.0185371
0.0185371
0.018726
0.0185227
0.0187116
0.0187116
0.0185371
0.0185371
0.0187116
0.0185371
0.0185371
0.018726
0.0185227
0.0187116
0.0185371
0.0185371
0.0185227
0.0184934
0.0182901
0.018479
0.018479
0.0183044
0.0183044
0.0184934
0.0182901
0.018479
0.018479
0.0183044
0.0183045
0.018479
0.0183044
0.0183044
0.0184934
0.0182901
0.018479
0.0183044
0.0183045
0.0182901
0.0182607
0.0180574
0.0182463
0.0182463
0.0180718
0.0180718
0.0182607
0.0180574
0.0182463
0.0182463
0.0180718
0.0180718
0.0182463
0.0180718
0.0180718
0.0182607
0.0180574
0.0182463
0.0180718
0.0180718
0.0180574
0.018028
0.0178247
0.0180136
0.0180136
0.0178391
0.0178391
0.018028
0.0178247
0.0180136
0.0180136
0.0178391
0.0178391
0.0180136
0.0178391
0.0178391
0.018028
0.0178247
0.0180136
0.0178391
0.0178391
0.0178247
0.0177954
0.0175921
0.0177809
0.0177809
0.0176064
0.0176064
0.0177954
0.0175921
0.0177809
0.0177809
0.0176064
0.0176064
0.0177809
0.0176064
0.0176064
0.0177954
0.0175921
0.0177809
0.0176064
0.0176064
0.0175921
0.0175627
0.0173594
0.0175483
0.0175483
0.0173738
0.0173738
0.0175627
0.0173594
0.0175483
0.0175483
0.0173738
0.0173738
0.0175483
0.0173738
0.0173738
0.0175627
0.0173594
0.0175483
0.0173738
0.0173738
0.0173594
0.01733
0.0171267
0.0173156
0.0173156
0.0171411
0.0171411
0.01733
0.0171267
0.0173156
0.0173156
0.0171411
0.0171411
0.0173156
0.0171411
0.0171411
0.01733
0.0171267
0.0173156
0.0171411
0.0171411
0.0171267
0.0170974
0.0168941
0.0170829
0.0170829
0.0169084
0.0169084
0.0170974
0.0168941
0.0170829
0.0170829
0.0169084
0.0169084
0.0170829
0.0169084
0.0169084
0.0170974
0.0168941
0.0170829
0.0169084
0.0169084
0.0168941
0.0168647
0.0166614
0.0168503
0.0168503
0.0166758
0.0166758
0.0168647
0.0166614
0.0168503
0.0168503
0.0166758
0.0166758
0.0168503
0.0166758
0.0166758
0.0168647
0.0166614
0.0168503
0.0166758
0.0166758
0.0166614
0.016632
0.0164287
0.0166176
0.0166176
0.0164431
0.0164431
0.016632
0.0164287
0.0166176
0.0166176
0.0164431
0.0164431
0.0166176
0.0164431
0.0164431
0.016632
0.0164287
0.0166176
0.0164431
0.0164431
0.0164287
0.0163994
0.0161961
0.0163849
0.0163849
0.0162104
0.0162104
0.0163994
0.0161961
0.0163849
0.0163849
0.0162104
0.0162104
0.0163849
0.0162104
0.0162104
0.0163994
0.0161961
0.0163849
0.0162104
0.0162104
0.0161961
0.0161667
0.0159634
0.0161523
0.0161523
0.0159778
0.0159778
0.0161667
0.0159634
0.0161523
0.0161523
0.0159778
0.0159778
0.0161523
0.0159778
0.0159778
0.0161667
0.0159634
0.0161523
0.0159778
0.0159778
0.0159634
0.015934
0.0157307
0.0159196
0.0159196
0.0157451
0.0157451
0.015934
0.0157307
0.0159196
0.0159196
0.0157451
0.0157451
0.0159196
0.0157451
0.0157451
0.015934
0.0157307
0.0159196
0.0157451
0.0157451
0.0157307
0.0157014
0.0154981
0.015687
0.015687
0.0155125
0.0155125
0.0157014
0.0154981
0.015687
0.015687
0.0155125
0.0155125
0.015687
0.0155125
0.0155125
0.0157014
0.0154981
0.015687
0.0155125
0.0155125
0.0154981
0.0154687
0.0152654
0.0154543
0.0154543
0.0152798
0.0152798
0.0154687
0.0152654
0.0154543
0.0154543
0.0152798
0.0152798
0.0154543
0.0152798
0.0152798
0.0154687
0.0152654
0.0154543
0.0152798
0.0152798
0.0152654
0.015236
0.0150328
0.0152216
0.0152216
0.0150471
0.0150471
0.015236
0.0150328
0.0152216
0.0152216
0.0150471
0.0150471
0.0152216
0.0150471
0.0150471
0.015236
0.0150328
0.0152216
0.0150471
0.0150471
0.0150328
0.0150034
0.0148001
0.014989
0.014989
0.0148145
0.0148145
0.0150034
0.0148001
0.014989
0.014989
0.0148145
0.0148145
0.014989
0.0148145
0.0148145
0.0150034
0.0148001
0.014989
0.0148145
0.0148145
0.0148001
0.0147707
0.0145674
0.0147563
0.0147563
0.0145818
0.0145818
0.0147707
0.0145674
0.0147563
0.0147563
0.0145818
0.0145818
0.0147563
0.0145818
0.0145818
0.0147707
0.0145674
0.0147563
0.0145818
0.0145818
0.0145674
0.0145381
0.0143348
0.0145237
0.0145237
0.0143492
0.0143492
0.0145381
0.0143348
0.0145237
0.0145237
0.0143492
0.0143492
0.0145237
0.0143492
0.0143492
0.0145381
0.0143348
0.0145237
0.0143492
0.0143492
0.0143348
0.0143054
0.0141021
0.014291
0.014291
0.0141165
0.0141165
0.0143054
0.0141021
0.014291
0.014291
0.0141165
0.0141165
0.014291
0.0141165
0.0141165
0.0143054
0.0141021
0.014291
0.0141165
0.0141165
0.0141021
0.0140728
0.0138695
0.0140584
0.0140584
0.0138839
0.0138839
0.0140728
0.0138695
0.0140584
0.0140584
0.0138839
0.0138839
0.0140584
0.0138839
0.0138839
0.0140728
0.0138695
0.0140584
0.0138839
0.0138839
0.0138695
0.0138401
0.0136368
0.0138257
0.0138257
0.0136512
0.0136512
0.0138401
0.0136368
0.0138257
0.0138257
0.0136512
0.0136512
0.0138257
0.0136512
0.0136512
0.0138401
0.0136368
0.0138257
0.0136512
0.0136512
0.0136368
0.0136075
0.0134042
0.013593
0.013593
0.0134186
0.0134186
0.0136075
0.0134042
0.013593
0.013593
0.0134186
0.0134186
0.013593
0.0134186
0.0134186
0.0136075
0.0134042
0.013593
0.0134186
0.0134186
0.0134042
0.0133748
0.0131715
0.0133604
0.0133604
0.0131859
0.0131859
0.0133748
0.0131715
0.0133604
0.0133604
0.0131859
0.0131859
0.0133604
0.0131859
0.0131859
0.0133748
0.0131715
0.0133604
0.0131859
0.0131859
0.0131715
0.0131422
0.0129389
0.0131277
0.0131277
0.0129533
0.0129533
0.0131422
0.0129389
0.0131277
0.0131277
0.0129533
0.0129533
0.0131277
0.0129533
0.0129533
0.0131422
0.0129389
0.0131277
0.0129533
0.0129533
0.0129389
0.0129095
0.0127062
0.0128951
0.0128951
0.0127206
0.0127206
0.0129095
0.0127062
0.0128951
0.0128951
0.0127206
0.0127206
0.0128951
0.0127206
0.0127206
0.0129095
0.0127062
0.0128951
0.0127206
0.0127206
0.0127062
0.0126768
0.0124736
0.0126624
0.0126624
0.0124879
0.0124879
0.0126768
0.0124736
0.0126624
0.0126624
0.0124879
0.0124879
0.0126624
0.0124879
0.0124879
0.0126768
0.0124736
0.0126624
0.0124879
0.0124879
0.0124736
0.0124442
0.0122409
0.0124298
0.0124298
0.0122553
0.0122553
0.0124442
0.0122409
0.0124298
0.0124298
0.0122553
0.0122553
0.0124298
0.0122553
0.0122553
0.0124442
0.0122409
0.0124298
0.0122553
0.0122553
0.0122409
0.0122115
0.0120083
0.0121971
0.0121971
0.0120226
0.0120226
0.0122115
0.0120083
0.0121971
0.0121971
0.0120226
0.0120226
0.0121971
0.0120226
0.0120226
0.0122115
0.0120083
0.0121971
0.0120226
0.0120226
0.0120083
0.0119789
0.0117756
0.0119645
0.0119645
0.01179
0.01179
0.0119789
0.0117756
0.0119645
0.0119645
0.01179
0.01179
0.0119645
0.01179
0.01179
0.0119789
0.0117756
0.0119645
0.01179
0.01179
0.0117756
0.0117462
0.0115429
0.0117318
0.0117318
0.0115573
0.0115573
0.0117462
0.0115429
0.0117318
0.0117318
0.0115573
0.0115573
0.0117318
0.0115573
0.0115573
0.0117462
0.0115429
0.0117318
0.0115573
0.0115573
0.0115429
0.0115136
0.0113103
0.0114992
0.0114992
0.0113247
0.0113247
0.0115136
0.0113103
0.0114992
0.0114992
0.0113247
0.0113247
0.0114992
0.0113247
0.0113247
0.0115136
0.0113103
0.0114992
0.0113247
0.0113247
0.0113103
0.0112809
0.0110776
0.0112665
0.0112665
0.011092
0.011092
0.0112809
0.0110776
0.0112665
0.0112665
0.011092
0.011092
0.0112665
0.011092
0.011092
0.0112809
0.0110776
0.0112665
0.011092
0.011092
0.0110776
0.0110482
0.010845
0.0110338
0.0110338
0.0108593
0.0108593
0.0110482
0.010845
0.0110338
0.0110338
0.0108593
0.0108593
0.0110338
0.0108593
0.0108593
0.0110482
0.010845
0.0110338
0.0108593
0.0108593
0.010845
0.0108156
0.0106123
0.0108012
0.0108012
0.0106267
0.0106267
0.0108156
0.0106123
0.0108012
0.0108012
0.0106267
0.0106267
0.0108012
0.0106267
0.0106267
0.0108156
0.0106123
0.0108012
0.0106267
0.0106267
0.0106123
0.0105829
0.0103796
0.0105685
0.0105685
0.010394
0.010394
0.0105829
0.0103796
0.0105685
0.0105685
0.010394
0.010394
0.0105685
0.010394
0.010394
0.0105829
0.0103796
0.0105685
0.010394
0.010394
0.0103796
0.0103503
0.010147
0.0103359
0.0103359
0.0101614
0.0101614
0.0103503
0.010147
0.0103359
0.0103359
0.0101614
0.0101614
0.0103359
0.0101614
0.0101614
0.0103503
0.010147
0.0103359
0.0101614
0.0101614
0.010147
0.0101176
0.00991433
0.0101032
0.0101032
0.00992871
0.00992871
0.0101176
0.00991433
0.0101032
0.0101032
0.00992871
0.00992871
0.0101032
0.00992871
0.00992871
0.0101176
0.00991433
0.0101032
0.00992871
0.00992871
0.00991433
0.00988495
0.00968167
0.00987055
0.00987055
0.00969605
0.00969605
0.00988495
0.00968167
0.00987055
0.00987055
0.00969605
0.00969605
0.00987055
0.00969605
0.00969605
0.00988495
0.00968167
0.00987055
0.00969605
0.00969605
0.00968167
0.00965229
0.00944901
0.00963789
0.00963789
0.00946339
0.00946339
0.00965229
0.00944901
0.00963789
0.00963789
0.00946339
0.00946339
0.00963789
0.00946339
0.00946339
0.00965229
0.00944901
0.00963789
0.00946339
0.00946339
0.00944901
0.00941963
0.00921635
0.00940523
0.00940523
0.00923073
0.00923073
0.00941963
0.00921635
0.00940523
0.00940523
0.00923073
0.00923073
0.00940523
0.00923073
0.00923073
0.00941963
0.00921635
0.00940523
0.00923073
0.00923073
0.00921635
0.00918697
0.00898368
0.00917256
0.00917256
0.00899807
0.00899807
0.00918697
0.00898368
0.00917256
0.00917256
0.00899807
0.00899807
0.00917256
0.00899807
0.00899807
0.00918697
0.00898368
0.00917256
0.00899807
0.00899807
0.00898368
0.00895431
0.00875102
0.0089399
0.0089399
0.0087654
0.0087654
0.00895431
0.00875102
0.0089399
0.0089399
0.0087654
0.0087654
0.0089399
0.0087654
0.0087654
0.00895431
0.00875102
0.0089399
0.0087654
0.0087654
0.00875102
0.00872164
0.00851835
0.00870724
0.00870723
0.00853273
0.00853273
0.00872164
0.00851835
0.00870724
0.00870724
0.00853273
0.00853274
0.00870723
0.00853273
0.00853274
0.00872164
0.00851835
0.00870723
0.00853273
0.00853273
0.00851835
0.00848897
0.00828568
0.00847457
0.00847457
0.00830007
0.00830007
0.00848898
0.00828568
0.00847457
0.00847457
0.00830007
0.00830007
0.00847457
0.00830007
0.00830007
0.00848897
0.00828568
0.00847457
0.00830007
0.00830007
0.00828568
0.00825631
0.00805301
0.0082419
0.0082419
0.0080674
0.00806739
0.00825631
0.00805301
0.0082419
0.0082419
0.0080674
0.0080674
0.0082419
0.00806739
0.00806739
0.00825631
0.00805301
0.0082419
0.0080674
0.00806739
0.00805301
0.00802363
0.00782034
0.00800923
0.00800923
0.00783472
0.00783472
0.00802363
0.00782034
0.00800923
0.00800923
0.00783472
0.00783472
0.00800923
0.00783472
0.00783472
0.00802363
0.00782034
0.00800923
0.00783472
0.00783472
0.00782034
0.00779096
0.00758767
0.00777656
0.00777655
0.00760205
0.00760205
0.00779096
0.00758766
0.00777656
0.00777656
0.00760205
0.00760205
0.00777656
0.00760205
0.00760205
0.00779096
0.00758767
0.00777655
0.00760205
0.00760205
0.00758767
0.00755829
0.00735499
0.00754388
0.00754388
0.00736938
0.00736938
0.00755829
0.00735499
0.00754388
0.00754388
0.00736938
0.00736938
0.00754388
0.00736938
0.00736938
0.00755829
0.00735499
0.00754388
0.00736938
0.00736938
0.00735499
0.00732562
0.00712232
0.00731121
0.00731121
0.0071367
0.0071367
0.00732562
0.00712232
0.00731121
0.00731121
0.0071367
0.0071367
0.00731121
0.0071367
0.0071367
0.00732561
0.00712232
0.00731121
0.0071367
0.0071367
0.00712232
0.00709294
0.00688964
0.00707853
0.00707853
0.00690403
0.00690403
0.00709294
0.00688964
0.00707853
0.00707853
0.00690403
0.00690403
0.00707853
0.00690403
0.00690403
0.00709294
0.00688964
0.00707853
0.00690403
0.00690403
0.00688964
0.00686027
0.00665697
0.00684586
0.00684586
0.00667135
0.00667135
0.00686027
0.00665697
0.00684586
0.00684586
0.00667135
0.00667135
0.00684586
0.00667135
0.00667135
0.00686027
0.00665697
0.00684586
0.00667135
0.00667135
0.00665697
0.00662759
0.0064243
0.00661318
0.00661318
0.00643868
0.00643868
0.00662759
0.00642429
0.00661318
0.00661318
0.00643868
0.00643868
0.00661318
0.00643868
0.00643868
0.00662759
0.0064243
0.00661318
0.00643868
0.00643868
0.0064243
0.00639492
0.00619162
0.00638051
0.00638051
0.00620601
0.00620601
0.00639492
0.00619162
0.00638051
0.00638051
0.00620601
0.00620601
0.00638051
0.00620601
0.00620601
0.00639492
0.00619162
0.00638051
0.00620601
0.006206
0.00619162
0.00616225
0.00595895
0.00614784
0.00614784
0.00597333
0.00597333
0.00616225
0.00595895
0.00614784
0.00614784
0.00597334
0.00597334
0.00614784
0.00597334
0.00597333
0.00616224
0.00595895
0.00614784
0.00597333
0.00597333
0.00595895
0.00592957
0.00572628
0.00591517
0.00591517
0.00574066
0.00574066
0.00592958
0.00572628
0.00591517
0.00591517
0.00574066
0.00574066
0.00591517
0.00574066
0.00574066
0.00592957
0.00572628
0.00591517
0.00574066
0.00574066
0.00572628
0.0056969
0.00549361
0.0056825
0.0056825
0.00550799
0.00550799
0.0056969
0.00549361
0.0056825
0.0056825
0.00550799
0.005508
0.0056825
0.00550799
0.00550799
0.0056969
0.00549361
0.0056825
0.00550799
0.00550799
0.00549361
0.00546423
0.00526094
0.00544983
0.00544983
0.00527532
0.00527532
0.00546423
0.00526094
0.00544983
0.00544983
0.00527532
0.00527532
0.00544983
0.00527532
0.00527532
0.00546423
0.00526094
0.00544983
0.00527532
0.00527532
0.00526094
0.00523156
0.00502827
0.00521716
0.00521716
0.00504265
0.00504265
0.00523156
0.00502827
0.00521716
0.00521716
0.00504265
0.00504266
0.00521716
0.00504265
0.00504266
0.00523156
0.00502827
0.00521715
0.00504266
0.00504265
0.00502827
0.00499889
0.0047956
0.00498449
0.00498449
0.00480999
0.00480998
0.0049989
0.0047956
0.00498449
0.00498449
0.00480999
0.00480999
0.00498449
0.00480999
0.00480999
0.00499889
0.0047956
0.00498449
0.00480999
0.00480998
0.0047956
0.00476622
0.00456293
0.00475182
0.00475182
0.00457731
0.00457731
0.00476623
0.00456293
0.00475182
0.00475182
0.00457731
0.00457731
0.00475182
0.00457731
0.00457731
0.00476622
0.00456293
0.00475182
0.00457731
0.00457731
0.00456293
0.00453355
0.00433026
0.00451915
0.00451915
0.00434465
0.00434464
0.00453355
0.00433026
0.00451915
0.00451915
0.00434465
0.00434465
0.00451915
0.00434465
0.00434465
0.00453355
0.00433026
0.00451915
0.00434465
0.00434464
0.00433026
0.00430088
0.00409759
0.00428648
0.00428648
0.00411197
0.00411197
0.00430089
0.00409759
0.00428648
0.00428648
0.00411197
0.00411197
0.00428648
0.00411197
0.00411197
0.00430088
0.00409759
0.00428648
0.00411197
0.00411197
0.00409759
0.00406821
0.00386492
0.00405381
0.0040538
0.0038793
0.0038793
0.00406821
0.00386492
0.00405381
0.00405381
0.0038793
0.0038793
0.0040538
0.0038793
0.0038793
0.00406821
0.00386492
0.0040538
0.0038793
0.0038793
0.00386492
0.00383554
0.00363225
0.00382114
0.00382113
0.00364663
0.00364663
0.00383554
0.00363225
0.00382114
0.00382114
0.00364663
0.00364663
0.00382114
0.00364663
0.00364663
0.00383554
0.00363225
0.00382113
0.00364663
0.00364663
0.00363225
0.00360287
0.00339958
0.00358847
0.00358846
0.00341396
0.00341396
0.00360287
0.00339958
0.00358847
0.00358847
0.00341396
0.00341396
0.00358847
0.00341396
0.00341396
0.00360287
0.00339958
0.00358846
0.00341396
0.00341396
0.00339958
0.0033702
0.00316691
0.00335579
0.00335579
0.00318129
0.00318129
0.0033702
0.00316691
0.00335579
0.00335579
0.00318129
0.00318129
0.00335579
0.00318129
0.00318129
0.0033702
0.00316691
0.00335579
0.00318129
0.00318129
0.00316691
0.00313753
0.00293425
0.00312313
0.00312313
0.00294863
0.00294863
0.00313753
0.00293424
0.00312313
0.00312313
0.00294863
0.00294863
0.00312313
0.00294863
0.00294863
0.00313753
0.00293425
0.00312312
0.00294863
0.00294863
0.00293425
0.00290487
0.00270158
0.00289046
0.00289046
0.00271596
0.00271596
0.00290487
0.00270158
0.00289046
0.00289046
0.00271596
0.00271596
0.00289046
0.00271596
0.00271596
0.00290487
0.00270158
0.00289046
0.00271596
0.00271596
0.00270158
0.0026722
0.00246891
0.00265779
0.00265779
0.00248329
0.00248329
0.0026722
0.00246891
0.00265779
0.00265779
0.00248329
0.0024833
0.00265779
0.00248329
0.00248329
0.0026722
0.00246891
0.00265779
0.00248329
0.00248329
0.00246891
0.00243954
0.00223625
0.00242513
0.00242513
0.00225064
0.00225064
0.00243954
0.00223625
0.00242513
0.00242513
0.00225064
0.00225064
0.00242513
0.00225064
0.00225064
0.00243954
0.00223625
0.00242513
0.00225064
0.00225063
0.00223625
0.00220688
0.0020036
0.00219247
0.00219247
0.00201798
0.00201798
0.00220688
0.0020036
0.00219247
0.00219247
0.00201798
0.00201798
0.00219247
0.00201798
0.00201798
0.00220688
0.0020036
0.00219247
0.00201798
0.00201798
0.0020036
0.00197422
0.00177094
0.00195982
0.00195982
0.00178533
0.00178533
0.00197422
0.00177094
0.00195982
0.00195982
0.00178533
0.00178533
0.00195982
0.00178533
0.00178533
0.00197423
0.00177094
0.00195982
0.00178533
0.00178533
0.00177094
0.00174157
0.00153829
0.00172716
0.00172716
0.00155267
0.00155267
0.00174157
0.00153828
0.00172716
0.00172716
0.00155267
0.00155267
0.00172716
0.00155267
0.00155267
0.00174157
0.00153829
0.00172716
0.00155267
0.00155267
0.00153829
0.00150891
0.00130563
0.00149451
0.0014945
0.00132001
0.00132001
0.00150891
0.00130563
0.00149451
0.00149451
0.00132001
0.00132001
0.0014945
0.00132001
0.00132001
0.00150891
0.00130563
0.0014945
0.00132001
0.00132001
0.00130563
0.00127626
0.00107298
0.00126185
0.00126185
0.00108736
0.00108736
0.00127626
0.00107298
0.00126185
0.00126185
0.00108736
0.00108736
0.00126185
0.00108736
0.00108736
0.00127626
0.00107298
0.00126185
0.00108736
0.00108736
0.00107298
0.0010436
0.000840326
0.0010292
0.0010292
0.000854708
0.000854709
0.0010436
0.000840326
0.0010292
0.0010292
0.000854709
0.000854709
0.0010292
0.000854709
0.000854709
0.0010436
0.000840327
0.0010292
0.000854709
0.000854708
0.000840327
0.000810952
0.000607678
0.000796546
0.000796547
0.000622063
0.000622065
0.000810953
0.000607681
0.000796547
0.000796546
0.000622062
0.000622063
0.000796547
0.000622065
0.000622063
0.000810952
0.000607681
0.000796546
0.000622064
0.000622064
0.000607681
0.000578306
0.000375125
0.000563904
0.000563906
0.000389508
0.000389505
0.000578307
0.000375127
0.000563905
0.000563904
0.000389506
0.000389505
0.000563904
0.000389509
0.000389505
0.000578307
0.000375123
0.000563904
0.000389506
0.000389505
0.000375123
0.000345761
0.000146157
0.000331493
0.000331483
0.000159978
0.00015997
0.000345761
0.000146151
0.000331488
0.000331486
0.000159969
0.000159973
0.000331488
0.000159969
0.000159973
0.00034575
0.000146158
0.000331487
0.000159971
0.000159966
0.000146153
0.000119416
0.000117974
0.000117965
0.00011941
0.000117967
0.000117972
0.000105718
0.00010572
0.000105718
0.000117971
0.000119419
0.000117966
0.0220559
0.0220965
0.0220743
0.0220743
0.0221582
0.0221124
0.0222274
0.0220873
0.0221584
0.0221124
0.0220874
0.0222276
0.0221304
0.0222465
0.0222468
0.0218971
0.0220043
0.0219982
0.0218964
0.021902
0.0218935
0.0218971
0.0220043
0.0219982
0.0218964
0.0219701
0.0219701
0.0219701
0.0217945
0.0217945
0.0217945
0.0217945
0.0218978
0.0219952
0.0219719
0.0219117
0.0219932
0.0218971
0.0219115
0.0219021
0.0218936
0.0218978
0.0219719
0.0219952
0.0219117
0.0219933
0.0219115
0.0218972
0.0219945
0.0219945
0.021898
0.0218966
0.0218966
0.0216639
0.021751
0.0217511
0.0216638
0.021751
0.0216638
0.0216639
0.021751
0.0217511
0.0216638
0.0217364
0.0217364
0.0217364
0.0215619
0.0215619
0.0215619
0.0215619
0.0216642
0.0217507
0.0217363
0.0216782
0.0217506
0.0216643
0.0216782
0.021751
0.0216638
0.0216642
0.0217364
0.0217507
0.0216782
0.0217506
0.0216782
0.0216643
0.021751
0.021751
0.0216638
0.0216638
0.0216638
0.0214311
0.0215183
0.0215182
0.0214311
0.0215183
0.0214311
0.0214311
0.0215183
0.0215182
0.0214311
0.0215037
0.0215037
0.0215037
0.0213292
0.0213292
0.0213292
0.0213292
0.0214315
0.0215178
0.0215037
0.0214456
0.0215178
0.0214315
0.0214456
0.0215183
0.0214311
0.0214315
0.0215037
0.0215178
0.0214456
0.0215178
0.0214456
0.0214315
0.0215182
0.0215182
0.0214312
0.0214311
0.0214311
0.0211984
0.0212856
0.0212855
0.0211984
0.0212856
0.0211984
0.0211984
0.0212856
0.0212855
0.0211984
0.0212711
0.0212711
0.0212711
0.0210966
0.0210966
0.0210966
0.0210966
0.0211988
0.0212851
0.0212711
0.0212129
0.0212851
0.0211989
0.0212129
0.0212856
0.0211984
0.0211988
0.0212711
0.0212851
0.0212129
0.0212851
0.0212129
0.0211989
0.0212856
0.0212856
0.0211985
0.0211984
0.0211984
0.0209658
0.0210529
0.0210529
0.0209657
0.0210529
0.0209657
0.0209658
0.0210529
0.0210529
0.0209657
0.0210384
0.0210384
0.0210384
0.0208639
0.0208639
0.0208639
0.0208639
0.0209662
0.0210524
0.0210384
0.0209802
0.0210525
0.0209662
0.0209802
0.0210529
0.0209657
0.0209662
0.0210384
0.0210524
0.0209802
0.0210525
0.0209802
0.0209662
0.0210529
0.0210529
0.0209658
0.0209657
0.0209657
0.0207331
0.0208202
0.0208202
0.020733
0.0208202
0.020733
0.0207331
0.0208202
0.0208202
0.020733
0.0208057
0.0208057
0.0208057
0.0206312
0.0206312
0.0206312
0.0206312
0.0207335
0.0208198
0.0208057
0.0207475
0.0208198
0.0207335
0.0207475
0.0208202
0.0207331
0.0207335
0.0208057
0.0208198
0.0207475
0.0208198
0.0207475
0.0207335
0.0208202
0.0208202
0.0207332
0.0207331
0.0207331
0.0205004
0.0205876
0.0205875
0.0205004
0.0205875
0.0205004
0.0205004
0.0205876
0.0205875
0.0205004
0.0205731
0.0205731
0.0205731
0.0203986
0.0203986
0.0203986
0.0203986
0.0205008
0.0205871
0.020573
0.0205149
0.0205871
0.0205008
0.0205149
0.0205876
0.0205004
0.0205008
0.020573
0.0205871
0.0205149
0.0205871
0.0205149
0.0205008
0.0205875
0.0205875
0.0205005
0.0205004
0.0205004
0.0202677
0.0203549
0.0203548
0.0202677
0.0203549
0.0202677
0.0202677
0.0203549
0.0203548
0.0202677
0.0203404
0.0203404
0.0203404
0.0201659
0.0201659
0.0201659
0.0201659
0.0202681
0.0203544
0.0203404
0.0202822
0.0203544
0.0202682
0.0202822
0.0203549
0.0202677
0.0202681
0.0203404
0.0203544
0.0202822
0.0203544
0.0202822
0.0202682
0.0203549
0.0203549
0.0202678
0.0202677
0.0202677
0.0200351
0.0201222
0.0201222
0.020035
0.0201222
0.020035
0.0200351
0.0201222
0.0201222
0.020035
0.0201077
0.0201077
0.0201077
0.0199332
0.0199332
0.0199332
0.0199332
0.0200355
0.0201217
0.0201077
0.0200495
0.0201218
0.0200355
0.0200495
0.0201222
0.020035
0.0200355
0.0201077
0.0201217
0.0200495
0.0201218
0.0200495
0.0200355
0.0201222
0.0201222
0.0200351
0.020035
0.020035
0.0198024
0.0198895
0.0198895
0.0198024
0.0198895
0.0198024
0.0198024
0.0198895
0.0198895
0.0198023
0.019875
0.019875
0.019875
0.0197005
0.0197005
0.0197005
0.0197005
0.0198028
0.0198891
0.019875
0.0198168
0.0198891
0.0198028
0.0198168
0.0198895
0.0198023
0.0198028
0.019875
0.0198891
0.0198168
0.0198891
0.0198168
0.0198028
0.0198895
0.0198895
0.0198024
0.0198024
0.0198024
0.0195697
0.0196568
0.0196568
0.0195697
0.0196568
0.0195697
0.0195697
0.0196568
0.0196568
0.0195697
0.0196424
0.0196424
0.0196424
0.0194678
0.0194678
0.0194678
0.0194678
0.0195701
0.0196564
0.0196423
0.0195842
0.0196564
0.0195701
0.0195842
0.0196568
0.0195697
0.0195701
0.0196423
0.0196564
0.0195842
0.0196564
0.0195842
0.0195701
0.0196568
0.0196568
0.0195698
0.0195697
0.0195697
0.019337
0.0194242
0.0194241
0.019337
0.0194242
0.019337
0.019337
0.0194242
0.0194241