/*--------------------------------*- C++ -*----------------------------------*\
| =========                 |                                                 |
| \\      /  F ield         | OpenFOAM: The Open Source CFD Toolbox           |
|  \\    /   O peration     | Version:  v1906                                 |
|   \\  /    A nd           | Web:      www.OpenFOAM.com                      |
|    \\/     M anipulation  |                                                 |
\*---------------------------------------------------------------------------*/
FoamFile
{
    version     2.0;
    format      ascii;
    class       volScalarField;
    location    "625";
    object      epsilon;
}
// * * * * * * * * * * * * * * * * * * * * * * * * * * * * * * * * * * * * * //

dimensions      [0 2 -3 0 0 0 0];


internalField   nonuniform List<scalar> 
171728
(
4.95567e-07
4.9733e-07
4.9733e-07
4.99575e-07
4.45573e-07
4.53735e-07
4.53737e-07
4.6371e-07
4.03752e-07
4.18513e-07
4.18517e-07
4.39411e-07
3.68363e-07
3.88552e-07
3.88558e-07
4.17667e-07
3.38015e-07
3.62102e-07
3.6211e-07
3.96081e-07
3.11646e-07
3.38273e-07
3.38281e-07
3.74581e-07
2.88473e-07
3.16638e-07
3.16646e-07
3.5371e-07
2.67923e-07
2.97021e-07
2.97031e-07
3.34148e-07
2.4958e-07
2.7937e-07
2.79379e-07
3.16484e-07
2.33137e-07
2.63679e-07
2.63688e-07
3.01161e-07
2.18366e-07
2.49955e-07
2.49964e-07
2.88493e-07
2.0509e-07
2.38198e-07
2.38208e-07
2.78695e-07
1.93172e-07
2.28411e-07
2.28421e-07
2.71876e-07
1.82498e-07
2.206e-07
2.20611e-07
2.68162e-07
1.72979e-07
2.14773e-07
2.14786e-07
2.67644e-07
1.64541e-07
2.10938e-07
2.10954e-07
2.70497e-07
1.57122e-07
2.09107e-07
2.09126e-07
2.767e-07
1.50668e-07
2.09295e-07
2.09318e-07
2.86281e-07
1.45137e-07
2.11549e-07
2.11576e-07
2.9923e-07
1.40492e-07
2.15885e-07
2.15916e-07
3.15606e-07
1.36703e-07
2.22325e-07
2.22359e-07
3.35362e-07
1.33748e-07
2.30887e-07
2.30924e-07
3.58395e-07
1.31605e-07
2.41553e-07
2.41593e-07
3.84532e-07
1.30257e-07
2.54303e-07
2.54347e-07
4.13518e-07
1.29693e-07
2.69086e-07
2.69138e-07
4.45003e-07
1.29922e-07
2.85862e-07
2.85916e-07
4.78654e-07
1.30912e-07
3.04529e-07
3.04586e-07
5.14024e-07
1.32665e-07
3.24975e-07
3.25043e-07
5.50623e-07
1.35189e-07
3.47102e-07
3.47173e-07
5.88024e-07
1.3849e-07
3.70753e-07
3.70822e-07
6.25846e-07
1.42557e-07
3.95786e-07
3.95867e-07
6.63664e-07
1.47384e-07
4.22056e-07
4.22159e-07
7.01136e-07
1.53021e-07
4.49378e-07
4.49476e-07
7.38e-07
1.59423e-07
4.77527e-07
4.7761e-07
7.73996e-07
1.66528e-07
5.06323e-07
5.06376e-07
8.08796e-07
1.74476e-07
5.35618e-07
5.3566e-07
8.42487e-07
1.83203e-07
5.65329e-07
5.65552e-07
8.75312e-07
1.93105e-07
5.95731e-07
5.95956e-07
9.07397e-07
2.03638e-07
6.25919e-07
6.25933e-07
9.37784e-07
2.13999e-07
6.54911e-07
6.54697e-07
9.65406e-07
2.25927e-07
6.84001e-07
6.84264e-07
9.9244e-07
2.3846e-07
7.11241e-07
7.1304e-07
1.01794e-06
2.4995e-07
7.36667e-07
7.35324e-07
1.03574e-06
2.60308e-07
7.58695e-07
7.57161e-07
1.05125e-06
2.7463e-07
7.74676e-07
7.78049e-07
1.08103e-06
3.09763e-07
8.41728e-07
8.4718e-07
1.15097e-06
3.44856e-07
9.22408e-07
9.19613e-07
1.2036e-06
3.50253e-07
9.16098e-07
9.03147e-07
1.18643e-06
3.21387e-07
8.56489e-07
8.50347e-07
1.14417e-06
3.15135e-07
8.77874e-07
8.86077e-07
1.16985e-06
3.70255e-07
9.32947e-07
9.41274e-07
1.20652e-06
4.03115e-07
9.40715e-07
9.49817e-07
1.20327e-06
3.96763e-07
9.43385e-07
9.67525e-07
1.2373e-06
4.10454e-07
1.00734e-06
9.92758e-07
1.26694e-06
4.54509e-07
1.04084e-06
1.02574e-06
1.27907e-06
4.9487e-07
1.06465e-06
1.05297e-06
1.31436e-06
5.06876e-07
1.06058e-06
1.04016e-06
1.29915e-06
4.65308e-07
1.019e-06
1.04474e-06
1.27267e-06
4.48565e-07
1.04999e-06
1.08894e-06
1.33078e-06
5.15043e-07
1.1284e-06
1.11343e-06
1.38038e-06
5.72972e-07
1.15205e-06
1.1063e-06
1.36912e-06
5.78377e-07
1.10446e-06
1.09167e-06
1.33597e-06
5.51647e-07
1.0842e-06
1.11219e-06
1.3427e-06
5.45003e-07
1.11676e-06
1.14106e-06
1.37142e-06
5.70265e-07
1.14769e-06
1.14828e-06
1.3826e-06
5.92601e-07
1.15633e-06
1.14494e-06
1.38258e-06
6.07114e-07
1.15645e-06
1.14928e-06
1.38724e-06
6.19654e-07
1.16296e-06
1.16367e-06
1.39707e-06
6.27561e-07
1.17155e-06
1.175e-06
1.40811e-06
6.32535e-07
1.17752e-06
1.17798e-06
1.41413e-06
6.40098e-07
1.17913e-06
1.17911e-06
1.41342e-06
6.49593e-07
1.18248e-06
1.18331e-06
1.41356e-06
6.56405e-07
1.18827e-06
1.18731e-06
1.41819e-06
6.61233e-07
1.19164e-06
1.19061e-06
1.42408e-06
6.67559e-07
1.19257e-06
1.1939e-06
1.42638e-06
6.73341e-07
1.19498e-06
1.19577e-06
1.42622e-06
6.76115e-07
1.19708e-06
1.19611e-06
1.42905e-06
6.79177e-07
1.19678e-06
1.19621e-06
1.43103e-06
6.83157e-07
1.19642e-06
1.19657e-06
1.42902e-06
6.862e-07
1.19832e-06
1.19943e-06
1.43015e-06
6.88952e-07
1.19887e-06
1.20058e-06
1.43313e-06
6.90484e-07
1.19594e-06
1.19495e-06
1.43057e-06
6.91065e-07
1.19425e-06
1.19173e-06
1.42714e-06
6.9272e-07
1.19532e-06
1.19527e-06
1.43025e-06
6.93831e-07
1.19459e-06
1.19706e-06
1.43189e-06
6.93434e-07
1.18936e-06
1.19053e-06
1.42451e-06
6.91944e-07
1.18613e-06
1.18433e-06
1.42032e-06
6.92709e-07
1.1866e-06
1.18374e-06
1.42587e-06
6.92444e-07
1.18556e-06
1.18582e-06
1.42253e-06
6.91126e-07
1.17771e-06
1.1833e-06
1.41151e-06
6.90975e-07
1.17658e-06
1.17563e-06
1.41277e-06
6.83447e-07
1.17776e-06
1.17769e-06
1.43189e-06
6.85119e-07
1.16571e-06
1.17262e-06
1.41316e-06
6.86831e-07
1.15804e-06
1.1379e-06
1.36925e-06
6.60998e-07
1.1009e-06
1.10613e-06
1.35785e-06
5.06417e-07
5.05584e-07
5.05582e-07
5.06417e-07
5.05583e-07
5.05582e-07
5.09649e-07
5.09649e-07
5.09649e-07
5.09649e-07
5.05584e-07
5.05584e-07
5.06418e-07
5.05584e-07
5.05583e-07
5.06418e-07
4.99575e-07
4.67237e-07
4.97331e-07
4.97335e-07
4.63713e-07
4.63721e-07
4.99575e-07
4.67235e-07
4.97335e-07
4.97336e-07
4.63718e-07
4.63724e-07
4.97332e-07
4.63709e-07
4.63714e-07
4.99575e-07
4.67241e-07
4.97334e-07
4.6371e-07
4.63719e-07
4.6724e-07
4.63709e-07
4.41426e-07
4.5374e-07
4.53748e-07
4.26739e-07
4.26747e-07
4.63708e-07
4.4142e-07
4.53744e-07
4.53751e-07
4.26739e-07
4.26751e-07
4.53741e-07
4.26729e-07
4.26741e-07
4.63711e-07
4.41431e-07
4.53744e-07
4.26734e-07
4.26741e-07
4.41429e-07
4.39407e-07
4.19283e-07
4.18522e-07
4.1853e-07
3.95676e-07
3.95682e-07
4.39405e-07
4.19275e-07
4.18522e-07
4.18535e-07
3.95672e-07
3.95689e-07
4.18525e-07
3.95663e-07
3.95679e-07
4.39413e-07
4.19289e-07
4.18523e-07
3.95669e-07
3.95673e-07
4.19287e-07
4.17662e-07
3.97645e-07
3.88566e-07
3.88571e-07
3.68461e-07
3.68466e-07
4.17656e-07
3.97636e-07
3.8856e-07
3.88578e-07
3.68452e-07
3.68473e-07
3.88569e-07
3.68444e-07
3.68464e-07
4.17669e-07
3.97651e-07
3.88562e-07
3.68452e-07
3.68454e-07
3.97649e-07
3.96076e-07
3.76086e-07
3.6212e-07
3.62124e-07
3.44033e-07
3.44036e-07
3.96069e-07
3.76076e-07
3.62109e-07
3.62131e-07
3.4402e-07
3.44043e-07
3.62123e-07
3.44013e-07
3.44036e-07
3.96082e-07
3.76091e-07
3.62111e-07
3.44022e-07
3.44021e-07
3.7609e-07
3.74575e-07
3.55112e-07
3.38293e-07
3.38295e-07
3.21875e-07
3.21876e-07
3.74568e-07
3.55101e-07
3.38279e-07
3.38303e-07
3.21858e-07
3.21884e-07
3.38296e-07
3.21853e-07
3.21877e-07
3.74581e-07
3.55117e-07
3.3828e-07
3.21862e-07
3.2186e-07
3.55116e-07
3.53704e-07
3.35395e-07
3.16659e-07
3.16661e-07
3.01763e-07
3.01764e-07
3.53696e-07
3.35385e-07
3.16643e-07
3.16669e-07
3.01745e-07
3.01771e-07
3.16662e-07
3.0174e-07
3.01765e-07
3.5371e-07
3.354e-07
3.16644e-07
3.01749e-07
3.01746e-07
3.35401e-07
3.34141e-07
3.17533e-07
2.97044e-07
2.97045e-07
2.83623e-07
2.83623e-07
3.34133e-07
3.17522e-07
2.97026e-07
2.97053e-07
2.83603e-07
2.83631e-07
2.97047e-07
2.83599e-07
2.83625e-07
3.34148e-07
3.17538e-07
2.97027e-07
2.83608e-07
2.83604e-07
3.17539e-07
3.16477e-07
3.01975e-07
2.79394e-07
2.79394e-07
2.67442e-07
2.67442e-07
3.16469e-07
3.01964e-07
2.79374e-07
2.79402e-07
2.67421e-07
2.67449e-07
2.79396e-07
2.67417e-07
2.67443e-07
3.16484e-07
3.01981e-07
2.79375e-07
2.67426e-07
2.67421e-07
3.01981e-07
3.01154e-07
2.89041e-07
2.63704e-07
2.63704e-07
2.53227e-07
2.53227e-07
3.01146e-07
2.89029e-07
2.63682e-07
2.63711e-07
2.53204e-07
2.53234e-07
2.63705e-07
2.532e-07
2.53227e-07
3.01161e-07
2.89046e-07
2.63683e-07
2.5321e-07
2.53205e-07
2.89046e-07
2.88485e-07
2.7895e-07
2.49981e-07
2.49981e-07
2.40981e-07
2.4098e-07
2.88476e-07
2.78937e-07
2.49958e-07
2.49989e-07
2.40956e-07
2.40988e-07
2.49982e-07
2.40952e-07
2.4098e-07
2.88493e-07
2.78957e-07
2.49959e-07
2.40961e-07
2.40957e-07
2.78956e-07
2.78688e-07
2.71829e-07
2.38227e-07
2.38227e-07
2.30702e-07
2.30702e-07
2.78678e-07
2.71817e-07
2.38203e-07
2.38235e-07
2.30676e-07
2.3071e-07
2.38227e-07
2.3067e-07
2.30701e-07
2.78695e-07
2.71837e-07
2.38204e-07
2.30681e-07
2.30676e-07
2.71835e-07
2.71868e-07
2.67861e-07
2.28441e-07
2.28443e-07
2.22398e-07
2.224e-07
2.71858e-07
2.67848e-07
2.28417e-07
2.28451e-07
2.22372e-07
2.22408e-07
2.28442e-07
2.22364e-07
2.22397e-07
2.71876e-07
2.67872e-07
2.28417e-07
2.22375e-07
2.22371e-07
2.6787e-07
2.68153e-07
2.6698e-07
2.20632e-07
2.20637e-07
2.16076e-07
2.1608e-07
2.68142e-07
2.66965e-07
2.20608e-07
2.20645e-07
2.16049e-07
2.16089e-07
2.20634e-07
2.16038e-07
2.16075e-07
2.68164e-07
2.66992e-07
2.20608e-07
2.16051e-07
2.16048e-07
2.6699e-07
2.67635e-07
2.69157e-07
2.1481e-07
2.14816e-07
2.11745e-07
2.11753e-07
2.6762e-07
2.6914e-07
2.14784e-07
2.14825e-07
2.11718e-07
2.11762e-07
2.1481e-07
2.11702e-07
2.11743e-07
2.67645e-07
2.69171e-07
2.14783e-07
2.11717e-07
2.11715e-07
2.69169e-07
2.70488e-07
2.74667e-07
2.10983e-07
2.1099e-07
2.09415e-07
2.09424e-07
2.7047e-07
2.74644e-07
2.10956e-07
2.11e-07
2.09388e-07
2.09436e-07
2.1098e-07
2.09364e-07
2.0941e-07
2.70499e-07
2.74681e-07
2.10952e-07
2.09383e-07
2.09381e-07
2.74678e-07
2.7669e-07
2.83546e-07
2.09158e-07
2.09167e-07
2.09128e-07
2.09136e-07
2.76668e-07
2.83521e-07
2.09131e-07
2.0918e-07
2.091e-07
2.09153e-07
2.09153e-07
2.09071e-07
2.09121e-07
2.76703e-07
2.83563e-07
2.09124e-07
2.09092e-07
2.09092e-07
2.83559e-07
2.86271e-07
2.95811e-07
2.09355e-07
2.09364e-07
2.10851e-07
2.10857e-07
2.86243e-07
2.95781e-07
2.09327e-07
2.09382e-07
2.10821e-07
2.1088e-07
2.09347e-07
2.10784e-07
2.10841e-07
2.86283e-07
2.9583e-07
2.09318e-07
2.1081e-07
2.10811e-07
2.95826e-07
2.99217e-07
3.11495e-07
2.11616e-07
2.11625e-07
2.14673e-07
2.14683e-07
2.99185e-07
3.11463e-07
2.11588e-07
2.11648e-07
2.14642e-07
2.14708e-07
2.11607e-07
2.14598e-07
2.14661e-07
2.99233e-07
3.11518e-07
2.11577e-07
2.14628e-07
2.14631e-07
3.11512e-07
3.1559e-07
3.3056e-07
2.1596e-07
2.15974e-07
2.20593e-07
2.20614e-07
3.15557e-07
3.30522e-07
2.15931e-07
2.15998e-07
2.20564e-07
2.2064e-07
2.1595e-07
2.20515e-07
2.20585e-07
3.15611e-07
3.30585e-07
2.15918e-07
2.20548e-07
2.20553e-07
3.3058e-07
3.35343e-07
3.52914e-07
2.22403e-07
2.22428e-07
2.28629e-07
2.28662e-07
3.35304e-07
3.52871e-07
2.22376e-07
2.22453e-07
2.28601e-07
2.28687e-07
2.22397e-07
2.28549e-07
2.28625e-07
3.35366e-07
3.52945e-07
2.22364e-07
2.28584e-07
2.28592e-07
3.52939e-07
3.58374e-07
3.784e-07
2.30968e-07
2.31004e-07
2.38773e-07
2.38817e-07
3.58332e-07
3.78357e-07
2.30941e-07
2.31029e-07
2.38746e-07
2.38843e-07
2.30965e-07
2.3869e-07
2.38774e-07
3.584e-07
3.78438e-07
2.30931e-07
2.38727e-07
2.38738e-07
3.78432e-07
3.84505e-07
4.06782e-07
2.41638e-07
2.41683e-07
2.51015e-07
2.51066e-07
3.84462e-07
4.06738e-07
2.41612e-07
2.41712e-07
2.50986e-07
2.51095e-07
2.4164e-07
2.50925e-07
2.51018e-07
3.84537e-07
4.06827e-07
2.41602e-07
2.50966e-07
2.50979e-07
4.06818e-07
4.13486e-07
4.37721e-07
2.54394e-07
2.54447e-07
2.65297e-07
2.6536e-07
4.13443e-07
4.37675e-07
2.54366e-07
2.54477e-07
2.65266e-07
2.65388e-07
2.54399e-07
2.65203e-07
2.65306e-07
4.13524e-07
4.37772e-07
2.5436e-07
2.65251e-07
2.65268e-07
4.37762e-07
4.44967e-07
4.70882e-07
2.69183e-07
2.69244e-07
2.81595e-07
2.81655e-07
4.44922e-07
4.7083e-07
2.69153e-07
2.69278e-07
2.81556e-07
2.81691e-07
2.69193e-07
2.81486e-07
2.81601e-07
4.4501e-07
4.70937e-07
2.69156e-07
2.81537e-07
2.81564e-07
4.70934e-07
4.78608e-07
5.05854e-07
2.85973e-07
2.86033e-07
2.99813e-07
2.99877e-07
4.78557e-07
5.05803e-07
2.85935e-07
2.86073e-07
2.99766e-07
2.99913e-07
2.8598e-07
2.99693e-07
2.99819e-07
4.78655e-07
5.05916e-07
2.85942e-07
2.99745e-07
2.99777e-07
5.0591e-07
5.13974e-07
5.42139e-07
3.04653e-07
3.04714e-07
3.1983e-07
3.199e-07
5.13922e-07
5.42074e-07
3.04607e-07
3.04755e-07
3.19777e-07
3.1994e-07
3.04659e-07
3.19702e-07
3.19846e-07
5.14026e-07
5.42201e-07
3.04617e-07
3.19765e-07
3.19796e-07
5.42202e-07
5.50563e-07
5.79292e-07
3.25099e-07
3.25174e-07
3.4154e-07
3.41627e-07
5.50503e-07
5.79251e-07
3.2505e-07
3.25218e-07
3.41487e-07
3.4167e-07
3.25119e-07
3.41418e-07
3.41568e-07
5.5062e-07
5.79381e-07
3.25067e-07
3.41486e-07
3.41513e-07
5.79373e-07
5.8795e-07
6.16968e-07
3.47223e-07
3.47309e-07
3.64854e-07
3.6492e-07
5.87916e-07
6.16906e-07
3.47171e-07
3.47358e-07
3.64785e-07
3.64955e-07
3.47249e-07
3.64707e-07
3.64871e-07
5.88032e-07
6.17028e-07
3.47195e-07
3.64763e-07
3.64812e-07
6.17045e-07
6.25782e-07
6.54724e-07
3.70909e-07
3.70963e-07
3.89583e-07
3.89645e-07
6.25714e-07
6.5463e-07
3.7084e-07
3.71015e-07
3.89499e-07
3.89686e-07
3.70922e-07
3.89411e-07
3.89593e-07
6.25824e-07
6.5478e-07
3.70862e-07
3.8948e-07
3.89516e-07
6.54789e-07
6.63608e-07
6.92156e-07
3.95968e-07
3.96016e-07
4.15535e-07
4.15626e-07
6.63517e-07
6.9208e-07
3.95886e-07
3.9607e-07
4.15457e-07
4.15692e-07
3.95977e-07
4.15381e-07
4.1558e-07
6.63657e-07
6.92261e-07
3.95893e-07
4.15484e-07
4.15503e-07
6.92255e-07
7.01036e-07
7.29065e-07
4.22191e-07
4.22296e-07
4.42634e-07
4.42699e-07
7.00977e-07
7.28987e-07
4.22117e-07
4.22359e-07
4.42542e-07
4.42721e-07
4.22244e-07
4.42454e-07
4.42661e-07
7.0115e-07
7.29115e-07
4.22166e-07
4.42526e-07
4.42585e-07
7.29153e-07
7.37921e-07
7.65201e-07
4.49572e-07
4.49632e-07
4.70652e-07
4.70705e-07
7.37837e-07
7.65112e-07
4.49476e-07
4.49664e-07
4.70531e-07
4.70723e-07
4.496e-07
4.70441e-07
4.7066e-07
7.3795e-07
7.65265e-07
4.49527e-07
4.70521e-07
4.7056e-07
7.65281e-07
7.73935e-07
8.00162e-07
4.77779e-07
4.77788e-07
4.99226e-07
4.99267e-07
7.73837e-07
8.00035e-07
4.77663e-07
4.77834e-07
4.99115e-07
4.99419e-07
4.77782e-07
4.99046e-07
4.99293e-07
7.73967e-07
8.00273e-07
4.77665e-07
4.99155e-07
4.9916e-07
8.00266e-07
8.08691e-07
8.34001e-07
5.06438e-07
5.06538e-07
5.28388e-07
5.28464e-07
8.08623e-07
8.33946e-07
5.06333e-07
5.06643e-07
5.28285e-07
5.28516e-07
5.06499e-07
5.28257e-07
5.28457e-07
8.08821e-07
8.34045e-07
5.06355e-07
5.28241e-07
5.28322e-07
8.34083e-07
8.42402e-07
8.66868e-07
5.35748e-07
5.35831e-07
5.57952e-07
5.58129e-07
8.42335e-07
8.66903e-07
5.35649e-07
5.35919e-07
5.57789e-07
5.5813e-07
5.35806e-07
5.57842e-07
5.58058e-07
8.42446e-07
8.67082e-07
5.35689e-07
5.5797e-07
5.57999e-07
8.67045e-07
8.75145e-07
8.9928e-07
5.65499e-07
5.65643e-07
5.8846e-07
5.88452e-07
8.75155e-07
8.99028e-07
5.65334e-07
5.65685e-07
5.88302e-07
5.88489e-07
5.65619e-07
5.88114e-07
5.88451e-07
8.75337e-07
8.99323e-07
5.65568e-07
5.88401e-07
5.8837e-07
8.99336e-07
9.07393e-07
9.30287e-07
5.96181e-07
5.96037e-07
6.19064e-07
6.187e-07
9.07104e-07
9.29841e-07
5.96036e-07
5.96065e-07
6.18946e-07
6.18793e-07
5.96097e-07
6.18492e-07
6.18977e-07
9.07356e-07
9.29918e-07
5.95993e-07
6.18507e-07
6.188e-07
9.30151e-07
9.37918e-07
9.58135e-07
6.26387e-07
6.26093e-07
6.47521e-07
6.47914e-07
9.37513e-07
9.58195e-07
6.26286e-07
6.26245e-07
6.47432e-07
6.47857e-07
6.26302e-07
6.47792e-07
6.47635e-07
9.3758e-07
9.58171e-07
6.26104e-07
6.47555e-07
6.47468e-07
9.5816e-07
9.65341e-07
9.85161e-07
6.54708e-07
6.55043e-07
6.76888e-07
6.77071e-07
9.65446e-07
9.84902e-07
6.5459e-07
6.54946e-07
6.76609e-07
6.76974e-07
6.54906e-07
6.76745e-07
6.77005e-07
9.65375e-07
9.85202e-07
6.54735e-07
6.7691e-07
6.768e-07
9.85329e-07
9.92294e-07
1.01131e-06
6.84272e-07
6.84377e-07
7.05971e-07
7.04781e-07
9.9188e-07
1.0097e-06
6.84003e-07
6.84264e-07
7.05944e-07
7.05944e-07
6.84281e-07
7.04499e-07
7.06266e-07
9.92299e-07
1.01092e-06
6.84157e-07
7.05944e-07
7.06333e-07
1.0114e-06
1.01782e-06
1.03154e-06
7.12716e-07
7.11455e-07
7.30749e-07
7.30835e-07
1.01609e-06
1.03105e-06
7.12828e-07
7.13111e-07
7.31165e-07
7.31004e-07
7.13299e-07
7.30687e-07
7.30804e-07
1.01748e-06
1.03122e-06
7.13378e-07
7.30403e-07
7.3036e-07
1.03095e-06
1.03681e-06
1.04853e-06
7.3636e-07
7.37012e-07
7.5247e-07
7.54827e-07
1.03666e-06
1.04849e-06
7.36744e-07
7.36171e-07
7.52348e-07
7.5252e-07
7.3601e-07
7.53947e-07
7.51021e-07
1.03613e-06
1.04634e-06
7.35212e-07
7.52061e-07
7.49931e-07
1.04593e-06
1.05386e-06
1.07246e-06
7.57582e-07
7.59591e-07
7.76762e-07
7.69366e-07
1.0533e-06
1.06294e-06
7.57309e-07
7.57281e-07
7.7613e-07
7.69408e-07
7.55527e-07
7.68983e-07
7.75032e-07
1.05134e-06
1.06429e-06
7.54727e-07
7.70211e-07
7.75846e-07
1.07069e-06
1.08209e-06
1.1319e-06
7.86691e-07
7.73695e-07
8.3153e-07
8.18251e-07
1.06916e-06
1.11586e-06
7.85942e-07
7.77059e-07
8.30756e-07
8.25614e-07
7.86282e-07
8.1962e-07
8.34213e-07
1.07191e-06
1.12417e-06
7.87723e-07
8.25917e-07
8.36444e-07
1.13579e-06
1.14706e-06
1.19858e-06
8.49152e-07
8.40815e-07
8.95917e-07
9.06555e-07
1.13403e-06
1.21166e-06
8.48548e-07
8.4722e-07
8.96089e-07
9.07079e-07
8.51527e-07
9.06159e-07
8.93812e-07
1.14188e-06
1.21187e-06
8.53674e-07
9.06063e-07
8.94337e-07
1.19654e-06
1.20805e-06
1.20003e-06
9.06116e-07
9.23279e-07
9.12335e-07
9.34268e-07
1.22733e-06
1.22138e-06
9.06539e-07
9.20994e-07
9.13006e-07
9.23518e-07
9.01535e-07
9.32089e-07
9.02569e-07
1.22492e-06
1.20764e-06
9.01281e-07
9.21714e-07
8.99788e-07
1.18762e-06
1.19774e-06
1.1375e-06
9.02593e-07
9.18385e-07
8.6537e-07
8.66054e-07
1.21712e-06
1.14287e-06
9.0312e-07
9.04565e-07
8.64982e-07
8.57114e-07
8.93785e-07
8.6567e-07
8.71593e-07
1.20319e-06
1.13078e-06
8.90704e-07
8.57629e-07
8.69418e-07
1.144e-06
1.13576e-06
1.13074e-06
8.56831e-07
8.5617e-07
8.544e-07
8.56069e-07
1.14073e-06
1.13771e-06
8.56376e-07
8.49196e-07
8.54157e-07
8.60891e-07
8.67659e-07
8.5938e-07
8.8103e-07
1.12924e-06
1.14044e-06
8.65966e-07
8.64723e-07
8.82585e-07
1.15866e-06
1.1433e-06
1.20329e-06
8.70669e-07
8.73373e-07
9.30207e-07
9.20761e-07
1.14967e-06
1.19414e-06
8.70903e-07
8.8212e-07
9.30269e-07
9.29808e-07
8.95227e-07
9.22938e-07
9.24687e-07
1.15466e-06
1.20488e-06
8.96975e-07
9.31678e-07
9.26507e-07
1.20103e-06
1.21737e-06
1.23902e-06
9.46139e-07
9.32186e-07
9.71357e-07
9.47901e-07
1.20368e-06
1.20628e-06
9.45856e-07
9.40668e-07
9.69889e-07
9.54542e-07
9.30859e-07
9.43614e-07
9.3741e-07
1.21432e-06
1.21774e-06
9.32421e-07
9.50514e-07
9.37479e-07
1.20134e-06
1.23935e-06
1.2088e-06
9.69976e-07
9.46338e-07
9.4932e-07
9.40289e-07
1.20677e-06
1.19343e-06
9.68385e-07
9.54601e-07
9.50013e-07
9.57878e-07
9.38665e-07
9.37748e-07
9.67578e-07
1.219e-06
1.22105e-06
9.38466e-07
9.57977e-07
9.694e-07
1.22779e-06
1.2095e-06
1.22975e-06
9.47179e-07
9.42365e-07
9.69445e-07
9.88246e-07
1.19948e-06
1.24758e-06
9.48455e-07
9.6491e-07
9.70443e-07
9.82098e-07
9.77848e-07
9.9368e-07
9.97312e-07
1.22776e-06
1.24729e-06
9.79961e-07
9.88642e-07
9.98024e-07
1.26205e-06
1.24194e-06
1.28703e-06
9.86304e-07
1.00352e-06
1.0262e-06
1.03525e-06
1.26047e-06
1.3011e-06
9.84849e-07
9.8818e-07
1.02377e-06
1.01685e-06
1.00109e-06
1.03482e-06
1.00801e-06
1.25384e-06
1.27644e-06
1.00102e-06
1.01556e-06
1.00558e-06
1.27187e-06
1.2984e-06
1.33365e-06
1.03875e-06
1.04267e-06
1.07018e-06
1.06033e-06
1.3084e-06
1.32591e-06
1.03719e-06
1.02753e-06
1.07084e-06
1.0512e-06
1.01623e-06
1.0593e-06
1.04919e-06
1.28568e-06
1.30905e-06
1.01393e-06
1.04932e-06
1.05051e-06
1.30827e-06
1.34197e-06
1.34664e-06
1.07803e-06
1.06504e-06
1.08711e-06
1.06941e-06
1.33147e-06
1.32431e-06
1.07894e-06
1.05442e-06
1.08593e-06
1.04712e-06
1.05546e-06
1.06866e-06
1.05664e-06
1.31387e-06
1.29456e-06
1.05683e-06
1.04555e-06
1.05536e-06
1.30076e-06
1.34433e-06
1.27131e-06
1.08241e-06
1.0637e-06
1.0281e-06
1.0279e-06
1.32226e-06
1.26535e-06
1.0781e-06
1.0428e-06
1.02591e-06
1.04084e-06
1.04766e-06
1.02559e-06
1.0312e-06
1.29431e-06
1.2808e-06
1.04517e-06
1.03758e-06
1.03042e-06
1.26933e-06
1.26777e-06
1.24464e-06
1.01436e-06
1.02005e-06
1.0017e-06
1.02109e-06
1.26356e-06
1.26859e-06
1.01394e-06
1.04637e-06
1.00561e-06
1.07426e-06
1.03122e-06
1.02731e-06
1.0664e-06
1.28772e-06
1.32537e-06
1.03146e-06
1.07969e-06
1.07346e-06
1.31725e-06
1.25619e-06
1.32446e-06
1.01266e-06
1.04124e-06
1.08608e-06
1.10742e-06
1.28383e-06
1.35854e-06
1.01962e-06
1.08283e-06
1.08758e-06
1.10531e-06
1.08118e-06
1.11198e-06
1.11516e-06
1.33641e-06
1.367e-06
1.08778e-06
1.11011e-06
1.1183e-06
1.3738e-06
1.34098e-06
1.39126e-06
1.10605e-06
1.12519e-06
1.14803e-06
1.15534e-06
1.37521e-06
1.40908e-06
1.10586e-06
1.1103e-06
1.14402e-06
1.11403e-06
1.12208e-06
1.15359e-06
1.12307e-06
1.37216e-06
1.36159e-06
1.12318e-06
1.11166e-06
1.11839e-06
1.36961e-06
1.39727e-06
1.38654e-06
1.15275e-06
1.15489e-06
1.14172e-06
1.1203e-06
1.41008e-06
1.36351e-06
1.14803e-06
1.11042e-06
1.13771e-06
1.09814e-06
1.11634e-06
1.11551e-06
1.10058e-06
1.36115e-06
1.32843e-06
1.112e-06
1.09373e-06
1.09827e-06
1.33592e-06
1.38623e-06
1.3554e-06
1.13265e-06
1.10867e-06
1.10962e-06
1.08635e-06
1.36108e-06
1.32079e-06
1.12987e-06
1.09596e-06
1.1103e-06
1.10265e-06
1.09771e-06
1.08491e-06
1.10159e-06
1.32857e-06
1.33251e-06
1.09615e-06
1.10224e-06
1.10463e-06
1.33598e-06
1.35542e-06
1.34577e-06
1.10459e-06
1.08442e-06
1.10248e-06
1.1025e-06
1.32154e-06
1.3346e-06
1.10619e-06
1.11094e-06
1.10591e-06
1.13205e-06
1.10901e-06
1.10663e-06
1.12723e-06
1.34033e-06
1.36911e-06
1.11279e-06
1.13546e-06
1.13109e-06
1.36501e-06
1.35002e-06
1.36293e-06
1.10886e-06
1.11314e-06
1.13135e-06
1.14018e-06
1.34283e-06
1.37162e-06
1.11233e-06
1.13763e-06
1.1318e-06
1.14697e-06
1.13192e-06
1.14161e-06
1.14115e-06
1.37682e-06
1.38909e-06
1.13537e-06
1.14852e-06
1.14199e-06
1.38045e-06
1.36792e-06
1.37829e-06
1.13717e-06
1.14688e-06
1.14871e-06
1.1569e-06
1.37907e-06
1.39181e-06
1.13685e-06
1.14753e-06
1.14689e-06
1.14585e-06
1.14252e-06
1.15593e-06
1.14578e-06
1.39119e-06
1.38437e-06
1.14246e-06
1.1453e-06
1.14379e-06
1.38041e-06
1.3816e-06
1.38707e-06
1.15041e-06
1.15735e-06
1.15555e-06
1.15683e-06
1.39445e-06
1.39318e-06
1.1483e-06
1.1454e-06
1.15399e-06
1.14625e-06
1.14712e-06
1.15625e-06
1.15207e-06
1.38561e-06
1.38095e-06
1.14528e-06
1.14632e-06
1.15085e-06
1.38434e-06
1.39091e-06
1.39969e-06
1.15794e-06
1.15694e-06
1.1655e-06
1.16171e-06
1.3952e-06
1.39665e-06
1.15677e-06
1.14901e-06
1.16529e-06
1.16072e-06
1.15393e-06
1.16094e-06
1.1605e-06
1.38384e-06
1.39093e-06
1.15298e-06
1.16006e-06
1.16032e-06
1.39323e-06
1.40345e-06
1.40638e-06
1.16754e-06
1.16379e-06
1.17111e-06
1.16958e-06
1.39928e-06
1.40243e-06
1.16765e-06
1.16443e-06
1.17175e-06
1.17325e-06
1.16318e-06
1.16941e-06
1.17164e-06
1.39516e-06
1.40459e-06
1.16322e-06
1.17291e-06
1.17213e-06
1.40464e-06
1.40826e-06
1.40577e-06
1.17167e-06
1.17139e-06
1.1734e-06
1.17575e-06
1.40531e-06
1.40786e-06
1.17232e-06
1.17506e-06
1.17343e-06
1.17708e-06
1.17414e-06
1.17656e-06
1.17907e-06
1.40807e-06
1.41014e-06
1.17459e-06
1.17773e-06
1.1791e-06
1.41191e-06
1.40755e-06
1.40805e-06
1.17423e-06
1.17672e-06
1.17765e-06
1.17856e-06
1.41015e-06
1.40996e-06
1.17412e-06
1.17723e-06
1.17738e-06
1.17821e-06
1.17977e-06
1.17886e-06
1.18007e-06
1.41203e-06
1.41055e-06
1.17967e-06
1.17852e-06
1.17977e-06
1.41186e-06
1.41054e-06
1.41375e-06
1.17906e-06
1.17912e-06
1.18354e-06
1.18188e-06
1.4118e-06
1.41223e-06
1.17883e-06
1.17911e-06
1.1835e-06
1.1827e-06
1.17989e-06
1.18125e-06
1.18013e-06
1.41264e-06
1.41338e-06
1.17963e-06
1.18213e-06
1.18014e-06
1.41136e-06
1.41658e-06
1.41864e-06
1.18491e-06
1.1832e-06
1.18758e-06
1.1875e-06
1.41465e-06
1.4174e-06
1.18491e-06
1.184e-06
1.18755e-06
1.18709e-06
1.18104e-06
1.18685e-06
1.18533e-06
1.41579e-06
1.41744e-06
1.18117e-06
1.18647e-06
1.18526e-06
1.41541e-06
1.42074e-06
1.42011e-06
1.18808e-06
1.18874e-06
1.18946e-06
1.19098e-06
1.42012e-06
1.42178e-06
1.18793e-06
1.18773e-06
1.18908e-06
1.18948e-06
1.18704e-06
1.19118e-06
1.19167e-06
1.41967e-06
1.4201e-06
1.18686e-06
1.18972e-06
1.19131e-06
1.42153e-06
1.42229e-06
1.42326e-06
1.19011e-06
1.19128e-06
1.19282e-06
1.19203e-06
1.42381e-06
1.42265e-06
1.18977e-06
1.19022e-06
1.19279e-06
1.19287e-06
1.19267e-06
1.19228e-06
1.19379e-06
1.42228e-06
1.4233e-06
1.19234e-06
1.19317e-06
1.19372e-06
1.42459e-06
1.42566e-06
1.42684e-06
1.19383e-06
1.19251e-06
1.19602e-06
1.19477e-06
1.42462e-06
1.42483e-06
1.1939e-06
1.19381e-06
1.19615e-06
1.19593e-06
1.19378e-06
1.19423e-06
1.19363e-06
1.4256e-06
1.42628e-06
1.19378e-06
1.19546e-06
1.19376e-06
1.42422e-06
1.42889e-06
1.42684e-06
1.19633e-06
1.19556e-06
1.19626e-06
1.19701e-06
1.42698e-06
1.42744e-06
1.19642e-06
1.19625e-06
1.19614e-06
1.19638e-06
1.19383e-06
1.19679e-06
1.19659e-06
1.42824e-06
1.42687e-06
1.19394e-06
1.1961e-06
1.19644e-06
1.42681e-06
1.42844e-06
1.42614e-06
1.19604e-06
1.19712e-06
1.19589e-06
1.19666e-06
1.42943e-06
1.42733e-06
1.19587e-06
1.19618e-06
1.19566e-06
1.19577e-06
1.19736e-06
1.19704e-06
1.1984e-06
1.42856e-06
1.42633e-06
1.19716e-06
1.19614e-06
1.19817e-06
1.42931e-06
1.4281e-06
1.42775e-06
1.19615e-06
1.19645e-06
1.19717e-06
1.19641e-06
1.42894e-06
1.42713e-06
1.19596e-06
1.19578e-06
1.19705e-06
1.19644e-06
1.19832e-06
1.19637e-06
1.19661e-06
1.42807e-06
1.42705e-06
1.1981e-06
1.19635e-06
1.19649e-06
1.42749e-06
1.42975e-06
1.42929e-06
1.19743e-06
1.19681e-06
1.19798e-06
1.19831e-06
1.4291e-06
1.42914e-06
1.19728e-06
1.19693e-06
1.19786e-06
1.19905e-06
1.19621e-06
1.19786e-06
1.19652e-06
1.42904e-06
1.4299e-06
1.19611e-06
1.19865e-06
1.19643e-06
1.42794e-06
1.43115e-06
1.43013e-06
1.19811e-06
1.19867e-06
1.19818e-06
1.19897e-06
1.43127e-06
1.43095e-06
1.19805e-06
1.19973e-06
1.19834e-06
1.20064e-06
1.19751e-06
1.19894e-06
1.19934e-06
1.43227e-06
1.43315e-06
1.19749e-06
1.20065e-06
1.1995e-06
1.43108e-06
1.43186e-06
1.4287e-06
1.19816e-06
1.19874e-06
1.19718e-06
1.19663e-06
1.43255e-06
1.42837e-06
1.19834e-06
1.20047e-06
1.19724e-06
1.19637e-06
1.19949e-06
1.19673e-06
1.19763e-06
1.43491e-06
1.42853e-06
1.19967e-06
1.19648e-06
1.1976e-06
1.42922e-06
1.43021e-06
1.42698e-06
1.1966e-06
1.19597e-06
1.19526e-06
1.19474e-06
1.42982e-06
1.42617e-06
1.1965e-06
1.19497e-06
1.19478e-06
1.19228e-06
1.19643e-06
1.19436e-06
1.19391e-06
1.42977e-06
1.42348e-06
1.19626e-06
1.19196e-06
1.19345e-06
1.42552e-06
1.42881e-06
1.42839e-06
1.1951e-06
1.1947e-06
1.19516e-06
1.1953e-06
1.42806e-06
1.42807e-06
1.19456e-06
1.1921e-06
1.19478e-06
1.19429e-06
1.19368e-06
1.19506e-06
1.19516e-06
1.42508e-06
1.42613e-06
1.19319e-06
1.19416e-06
1.19487e-06
1.42786e-06
1.43037e-06
1.42799e-06
1.19516e-06
1.19541e-06
1.19444e-06
1.19494e-06
1.43017e-06
1.42847e-06
1.19493e-06
1.19524e-06
1.19473e-06
1.19674e-06
1.19585e-06
1.19526e-06
1.19642e-06
1.42873e-06
1.43072e-06
1.1957e-06
1.19704e-06
1.19652e-06
1.43049e-06
1.42948e-06
1.42465e-06
1.19379e-06
1.19416e-06
1.19111e-06
1.19085e-06
1.42995e-06
1.42416e-06
1.19416e-06
1.19674e-06
1.19135e-06
1.19275e-06
1.19594e-06
1.19061e-06
1.18967e-06
1.43269e-06
1.42661e-06
1.19618e-06
1.19254e-06
1.18987e-06
1.4234e-06
1.42607e-06
1.42137e-06
1.19022e-06
1.1898e-06
1.1875e-06
1.18707e-06
1.42548e-06
1.42023e-06
1.19042e-06
1.191e-06
1.18745e-06
1.18601e-06
1.18785e-06
1.18649e-06
1.18517e-06
1.4278e-06
1.41962e-06
1.18798e-06
1.18539e-06
1.18515e-06
1.4181e-06
1.42286e-06
1.42078e-06
1.18697e-06
1.18662e-06
1.1864e-06
1.18612e-06
1.42184e-06
1.42121e-06
1.18679e-06
1.18487e-06
1.1857e-06
1.18329e-06
1.18542e-06
1.18635e-06
1.18931e-06
1.42094e-06
1.41815e-06
1.18534e-06
1.18327e-06
1.18869e-06
1.42337e-06
1.4227e-06
1.41998e-06
1.1864e-06
1.18616e-06
1.18485e-06
1.18577e-06
1.42323e-06
1.42099e-06
1.18563e-06
1.18347e-06
1.18432e-06
1.18533e-06
1.1897e-06
1.18639e-06
1.18626e-06
1.42019e-06
1.42e-06
1.18898e-06
1.18552e-06
1.1856e-06
1.42146e-06
1.42138e-06
1.41624e-06
1.18333e-06
1.18491e-06
1.1801e-06
1.18022e-06
1.42243e-06
1.41506e-06
1.18334e-06
1.18571e-06
1.18099e-06
1.18569e-06
1.18297e-06
1.17928e-06
1.17428e-06
1.42187e-06
1.42087e-06
1.18287e-06
1.18499e-06
1.17509e-06
1.41048e-06
1.41783e-06
1.41623e-06
1.17996e-06
1.1793e-06
1.17973e-06
1.17818e-06
1.41633e-06
1.41342e-06
1.1808e-06
1.18525e-06
1.17974e-06
1.17866e-06
1.17278e-06
1.17574e-06
1.17341e-06
1.42252e-06
1.41607e-06
1.17359e-06
1.17663e-06
1.17292e-06
1.40832e-06
1.4176e-06
1.40624e-06
1.17935e-06
1.17842e-06
1.16951e-06
1.17589e-06
1.41602e-06
1.41416e-06
1.1784e-06
1.17663e-06
1.16899e-06
1.17288e-06
1.17881e-06
1.17839e-06
1.1907e-06
1.41734e-06
1.41182e-06
1.17644e-06
1.17578e-06
1.18919e-06
1.42725e-06
1.40731e-06
1.4025e-06
1.16713e-06
1.17271e-06
1.16557e-06
1.16649e-06
1.41524e-06
1.40192e-06
1.16781e-06
1.17294e-06
1.16826e-06
1.17272e-06
1.19175e-06
1.16727e-06
1.17502e-06
1.41367e-06
1.41029e-06
1.1911e-06
1.17742e-06
1.18075e-06
1.41538e-06
1.40507e-06
1.40251e-06
1.16796e-06
1.16649e-06
1.1703e-06
1.16666e-06
1.40297e-06
1.3971e-06
1.16974e-06
1.17103e-06
1.16622e-06
1.14849e-06
1.16299e-06
1.15876e-06
1.13821e-06
1.4107e-06
1.37787e-06
1.16603e-06
1.14226e-06
1.1341e-06
1.36928e-06
1.4035e-06
1.37603e-06
1.1689e-06
1.16619e-06
1.13773e-06
1.13563e-06
1.39864e-06
1.37486e-06
1.16271e-06
1.14436e-06
1.13499e-06
1.1269e-06
1.13622e-06
1.1344e-06
1.13418e-06
1.37809e-06
1.36686e-06
1.13095e-06
1.12588e-06
1.12999e-06
1.36861e-06
1.35561e-06
1.10288e-06
1.09986e-06
1.35368e-06
1.1023e-06
1.10434e-06
6.57932e-07
6.59296e-07
6.631e-07
1.11242e-06
1.35472e-06
1.11112e-06
5.35663e-07
5.35601e-07
5.35655e-07
5.35655e-07
5.34573e-07
5.35516e-07
5.33634e-07
5.35654e-07
5.34573e-07
5.35517e-07
5.35654e-07
5.33634e-07
5.35256e-07
5.35986e-07
5.35987e-07
1.10713e-06
3.88082e-06
9.33891e-07
4.60617e-06
1.26081e-05
1.66011e-05
1.10725e-06
3.88106e-06
9.33925e-07
4.60653e-06
4.95567e-07
4.95567e-07
4.95567e-07
4.57231e-07
4.57231e-07
4.57232e-07
4.57232e-07
5.43144e-07
1.22026e-06
4.95565e-07
4.85522e-07
5.25341e-07
1.20946e-06
4.82301e-07
1.26097e-05
1.66037e-05
5.43162e-07
4.95565e-07
1.22025e-06
4.85523e-07
5.2532e-07
4.82302e-07
1.20945e-06
2.52172e-06
2.52242e-06
4.8419e-07
2.37248e-06
2.37288e-06
1.4308e-06
5.59329e-06
1.32967e-06
6.13637e-06
2.12844e-05
2.31105e-05
1.4312e-06
5.59396e-06
1.32973e-06
6.13703e-06
4.45572e-07
4.45573e-07
4.45573e-07
4.13542e-07
4.13542e-07
4.13543e-07
4.13543e-07