/*--------------------------------*- C++ -*----------------------------------*\
| =========                 |                                                 |
| \\      /  F ield         | OpenFOAM: The Open Source CFD Toolbox           |
|  \\    /   O peration     | Version:  v1906                                 |
|   \\  /    A nd           | Web:      www.OpenFOAM.com                      |
|    \\/     M anipulation  |                                                 |
\*---------------------------------------------------------------------------*/
FoamFile
{
    version     2.0;
    format      ascii;
    class       volScalarField;
    location    "625";
    object      k;
}
// * * * * * * * * * * * * * * * * * * * * * * * * * * * * * * * * * * * * * //

dimensions      [0 2 -2 0 0 0 0];


internalField   nonuniform List<scalar> 
171728
(
3.58932e-05
3.58912e-05
3.58912e-05
3.59957e-05
3.39296e-05
3.3889e-05
3.3889e-05
3.39622e-05
3.21578e-05
3.20081e-05
3.20081e-05
3.19522e-05
3.05346e-05
3.02293e-05
3.02292e-05
2.99884e-05
2.90329e-05
2.8554e-05
2.85539e-05
2.81226e-05
2.76353e-05
2.69872e-05
2.69871e-05
2.63907e-05
2.63308e-05
2.5531e-05
2.55309e-05
2.48073e-05
2.51112e-05
2.4185e-05
2.41848e-05
2.33782e-05
2.39709e-05
2.29506e-05
2.29504e-05
2.21047e-05
2.29058e-05
2.18269e-05
2.18267e-05
2.0986e-05
2.1912e-05
2.08114e-05
2.08112e-05
2.00133e-05
2.09865e-05
1.99013e-05
1.99011e-05
1.91814e-05
2.01241e-05
1.90947e-05
1.90946e-05
1.84895e-05
1.93239e-05
1.83884e-05
1.83884e-05
1.79329e-05
1.85847e-05
1.77793e-05
1.77792e-05
1.75062e-05
1.79042e-05
1.72656e-05
1.72656e-05
1.72e-05
1.72798e-05
1.68465e-05
1.68466e-05
1.70227e-05
1.67097e-05
1.65212e-05
1.65214e-05
1.69821e-05
1.61923e-05
1.62894e-05
1.62897e-05
1.70788e-05
1.57254e-05
1.61517e-05
1.6152e-05
1.7304e-05
1.53073e-05
1.61072e-05
1.61076e-05
1.76568e-05
1.49374e-05
1.61533e-05
1.61539e-05
1.8134e-05
1.46145e-05
1.62918e-05
1.62925e-05
1.87287e-05
1.43382e-05
1.652e-05
1.65209e-05
1.94286e-05
1.4108e-05
1.68355e-05
1.68367e-05
2.02212e-05
1.3923e-05
1.72341e-05
1.72355e-05
2.10931e-05
1.37842e-05
1.77139e-05
1.7716e-05
2.20339e-05
1.36907e-05
1.82729e-05
1.8274e-05
2.30307e-05
1.36421e-05
1.89005e-05
1.89028e-05
2.40649e-05
1.36387e-05
1.95973e-05
1.96005e-05
2.5125e-05
1.36823e-05
2.03566e-05
2.03573e-05
2.62034e-05
1.37709e-05
2.11713e-05
2.11734e-05
2.72845e-05
1.39069e-05
2.20341e-05
2.20395e-05
2.8364e-05
1.40875e-05
2.29419e-05
2.29376e-05
2.94304e-05
1.43167e-05
2.38918e-05
2.38959e-05
3.05005e-05
1.45888e-05
2.48441e-05
2.48581e-05
3.15178e-05
1.49006e-05
2.58514e-05
2.58354e-05
3.2516e-05
1.52496e-05
2.68302e-05
2.68385e-05
3.35015e-05
1.56882e-05
2.78966e-05
2.79225e-05
3.45087e-05
1.61996e-05
2.89686e-05
2.89643e-05
3.55171e-05
1.66213e-05
2.99608e-05
2.99246e-05
3.63042e-05
1.71592e-05
3.10052e-05
3.09816e-05
3.72221e-05
1.77816e-05
3.19465e-05
3.20705e-05
3.82424e-05
1.83724e-05
3.29246e-05
3.29871e-05
3.88856e-05
1.86984e-05
3.38117e-05
3.35099e-05
3.8853e-05
1.87238e-05
3.34255e-05
3.34147e-05
3.85784e-05
2.03679e-05
3.40335e-05
3.48206e-05
4.21991e-05
2.39153e-05
4.13946e-05
4.15011e-05
4.65488e-05
2.53222e-05
4.29788e-05
4.25421e-05
4.52781e-05
2.2401e-05
3.6858e-05
3.60701e-05
4.07383e-05
1.98333e-05
3.56356e-05
3.55224e-05
4.24909e-05
2.24868e-05
4.07106e-05
4.11817e-05
4.61828e-05
2.66907e-05
4.11171e-05
4.10802e-05
4.33351e-05
2.58518e-05
3.93635e-05
4.07328e-05
4.5342e-05
2.50415e-05
4.24726e-05
4.24358e-05
4.78367e-05
2.71109e-05
4.44116e-05
4.28589e-05
4.62609e-05
3.0785e-05
4.64986e-05
4.62922e-05
5.02613e-05
3.29442e-05
4.74134e-05
4.52119e-05
4.93631e-05
3.06152e-05
4.29296e-05
4.31711e-05
4.51871e-05
2.66218e-05
4.1856e-05
4.60404e-05
4.87656e-05
2.77997e-05
4.8051e-05
4.88468e-05
5.27903e-05
3.48473e-05
5.10728e-05
4.89333e-05
5.25517e-05
3.62722e-05
4.8817e-05
4.60805e-05
4.8875e-05
3.42803e-05
4.57693e-05
4.5766e-05
4.90017e-05
3.26883e-05
4.602e-05
4.89749e-05
5.17025e-05
3.3021e-05
4.91757e-05
4.99376e-05
5.20686e-05
3.51639e-05
4.99943e-05
4.95458e-05
5.17587e-05
3.59806e-05
4.9946e-05
4.90914e-05
5.17877e-05
3.6864e-05
4.99317e-05
4.96451e-05
5.23436e-05
3.75706e-05
5.04898e-05
5.07333e-05
5.29765e-05
3.77672e-05
5.09332e-05
5.10659e-05
5.33786e-05
3.78931e-05
5.10379e-05
5.10305e-05
5.3352e-05
3.85364e-05
5.10828e-05
5.12034e-05
5.32375e-05
3.91092e-05
5.1545e-05
5.15405e-05
5.34931e-05
3.93662e-05
5.18814e-05
5.17137e-05
5.39259e-05
3.97127e-05
5.19598e-05
5.20085e-05
5.41034e-05
4.01782e-05
5.20984e-05
5.22031e-05
5.40404e-05
4.04451e-05
5.23721e-05
5.23377e-05
5.42635e-05
4.05617e-05
5.24659e-05
5.2404e-05
5.44842e-05
4.08584e-05
5.24439e-05
5.2422e-05
5.43988e-05
4.11247e-05
5.26442e-05
5.26426e-05
5.43732e-05
4.13987e-05
5.28863e-05
5.303e-05
5.47977e-05
4.16034e-05
5.28331e-05
5.29067e-05
5.47367e-05
4.1614e-05
5.26828e-05
5.25276e-05
5.44383e-05
4.18048e-05
5.29213e-05
5.27176e-05
5.47091e-05
4.20504e-05
5.31007e-05
5.32153e-05
5.50922e-05
4.21266e-05
5.29329e-05
5.31703e-05
5.47693e-05
4.20179e-05
5.26866e-05
5.27033e-05
5.41606e-05
4.20906e-05
5.28857e-05
5.26346e-05
5.49369e-05
4.23054e-05
5.30442e-05
5.28934e-05
5.52141e-05
4.22784e-05
5.26989e-05
5.30327e-05
5.43109e-05
4.24242e-05
5.25568e-05
5.27612e-05
5.34072e-05
4.2175e-05
5.31144e-05
5.26734e-05
5.56634e-05
4.1976e-05
5.25151e-05
5.34551e-05
5.68529e-05
4.19499e-05
5.10281e-05
5.02285e-05
5.14187e-05
3.63068e-05
3.6291e-05
3.6291e-05
3.63068e-05
3.6291e-05
3.6291e-05
3.6423e-05
3.6423e-05
3.6423e-05
3.6423e-05
3.6291e-05
3.6291e-05
3.63068e-05
3.6291e-05
3.6291e-05
3.63068e-05
3.59957e-05
3.42687e-05
3.58912e-05
3.58912e-05
3.43767e-05
3.43766e-05
3.59957e-05
3.42687e-05
3.58911e-05
3.58912e-05
3.43767e-05
3.43766e-05
3.58912e-05
3.43767e-05
3.43767e-05
3.59957e-05
3.42687e-05
3.58912e-05
3.43767e-05
3.43767e-05
3.42687e-05
3.39623e-05
3.22635e-05
3.38889e-05
3.38889e-05
3.24684e-05
3.24683e-05
3.39623e-05
3.22635e-05
3.38889e-05
3.38889e-05
3.24684e-05
3.24683e-05
3.38889e-05
3.24685e-05
3.24684e-05
3.39623e-05
3.22634e-05
3.38889e-05
3.24685e-05
3.24684e-05
3.22634e-05
3.19522e-05
3.02993e-05
3.20079e-05
3.20078e-05
3.06643e-05
3.06642e-05
3.19522e-05
3.02994e-05
3.2008e-05
3.20078e-05
3.06644e-05
3.06641e-05
3.20079e-05
3.06646e-05
3.06643e-05
3.19522e-05
3.02992e-05
3.2008e-05
3.06645e-05
3.06644e-05
3.02992e-05
2.99885e-05
2.84253e-05
3.0229e-05
3.02288e-05
2.89624e-05
2.89622e-05
2.99886e-05
2.84255e-05
3.02291e-05
3.02287e-05
2.89626e-05
2.89621e-05
3.02289e-05
2.89628e-05
2.89623e-05
2.99884e-05
2.84252e-05
3.02291e-05
2.89627e-05
2.89626e-05
2.84252e-05
2.81227e-05
2.6674e-05
2.85536e-05
2.85534e-05
2.7368e-05
2.73678e-05
2.81228e-05
2.66741e-05
2.85538e-05
2.85533e-05
2.73683e-05
2.73676e-05
2.85535e-05
2.73685e-05
2.73679e-05
2.81226e-05
2.66739e-05
2.85538e-05
2.73684e-05
2.73683e-05
2.66739e-05
2.63908e-05
2.50663e-05
2.69866e-05
2.69864e-05
2.58841e-05
2.58838e-05
2.6391e-05
2.50665e-05
2.6987e-05
2.69862e-05
2.58845e-05
2.58836e-05
2.69865e-05
2.58848e-05
2.5884e-05
2.63907e-05
2.50661e-05
2.69869e-05
2.58846e-05
2.58844e-05
2.50661e-05
2.48075e-05
2.36125e-05
2.55304e-05
2.55301e-05
2.45102e-05
2.45099e-05
2.48077e-05
2.36127e-05
2.55308e-05
2.55299e-05
2.45107e-05
2.45097e-05
2.55302e-05
2.4511e-05
2.45102e-05
2.48073e-05
2.36123e-05
2.55307e-05
2.45108e-05
2.45107e-05
2.36123e-05
2.33784e-05
2.23125e-05
2.41842e-05
2.41838e-05
2.32478e-05
2.32475e-05
2.33785e-05
2.23126e-05
2.41847e-05
2.41836e-05
2.32484e-05
2.32473e-05
2.41841e-05
2.32487e-05
2.32478e-05
2.33782e-05
2.23122e-05
2.41846e-05
2.32485e-05
2.32484e-05
2.23122e-05
2.21049e-05
2.11681e-05
2.29497e-05
2.29494e-05
2.20965e-05
2.20962e-05
2.21051e-05
2.11683e-05
2.29503e-05
2.29491e-05
2.20972e-05
2.2096e-05
2.29496e-05
2.20976e-05
2.20965e-05
2.21047e-05
2.11678e-05
2.29503e-05
2.20973e-05
2.20972e-05
2.11678e-05
2.09863e-05
2.01707e-05
2.18259e-05
2.18255e-05
2.10542e-05
2.10538e-05
2.09865e-05
2.01709e-05
2.18266e-05
2.18253e-05
2.10549e-05
2.10536e-05
2.18258e-05
2.10552e-05
2.10541e-05
2.09861e-05
2.01705e-05
2.18265e-05
2.1055e-05
2.10549e-05
2.01704e-05
2.00137e-05
1.93146e-05
2.08103e-05
2.081e-05
2.0118e-05
2.01176e-05
2.00138e-05
1.93148e-05
2.08111e-05
2.08097e-05
2.01188e-05
2.01174e-05
2.08102e-05
2.01191e-05
2.01179e-05
2.00134e-05
1.93144e-05
2.08111e-05
2.01189e-05
2.01188e-05
1.93143e-05
1.91817e-05
1.85904e-05
1.99002e-05
1.98999e-05
1.92855e-05
1.92852e-05
1.91818e-05
1.85906e-05
1.9901e-05
1.98997e-05
1.92863e-05
1.9285e-05
1.99001e-05
1.92866e-05
1.92855e-05
1.91814e-05
1.85902e-05
1.9901e-05
1.92865e-05
1.92864e-05
1.859e-05
1.84898e-05
1.79977e-05
1.90936e-05
1.90933e-05
1.85545e-05
1.85542e-05
1.84899e-05
1.79979e-05
1.90945e-05
1.90931e-05
1.85553e-05
1.8554e-05
1.90936e-05
1.85555e-05
1.85544e-05
1.84895e-05
1.79976e-05
1.90945e-05
1.85554e-05
1.85553e-05
1.79974e-05
1.79333e-05
1.75392e-05
1.83874e-05
1.83871e-05
1.79214e-05
1.79211e-05
1.79333e-05
1.75393e-05
1.83883e-05
1.8387e-05
1.79221e-05
1.79209e-05
1.83874e-05
1.79223e-05
1.79213e-05
1.79331e-05
1.75391e-05
1.83883e-05
1.79222e-05
1.79222e-05
1.75389e-05
1.75064e-05
1.72176e-05
1.77783e-05
1.77781e-05
1.73838e-05
1.73836e-05
1.75065e-05
1.72176e-05
1.77791e-05
1.77779e-05
1.73845e-05
1.73834e-05
1.77783e-05
1.73846e-05
1.73837e-05
1.75063e-05
1.72175e-05
1.77792e-05
1.73846e-05
1.73846e-05
1.72173e-05
1.72003e-05
1.70262e-05
1.72648e-05
1.72646e-05
1.69411e-05
1.6941e-05
1.72003e-05
1.7026e-05
1.72656e-05
1.72645e-05
1.69418e-05
1.69409e-05
1.72647e-05
1.69418e-05
1.69411e-05
1.72002e-05
1.70262e-05
1.72656e-05
1.69419e-05
1.69418e-05
1.7026e-05
1.70229e-05
1.69729e-05
1.68459e-05
1.68457e-05
1.65922e-05
1.6592e-05
1.70227e-05
1.69726e-05
1.68466e-05
1.68457e-05
1.65928e-05
1.65921e-05
1.68458e-05
1.65927e-05
1.65922e-05
1.70228e-05
1.69729e-05
1.68466e-05
1.65928e-05
1.65929e-05
1.69728e-05
1.69823e-05
1.70435e-05
1.65207e-05
1.65206e-05
1.63369e-05
1.63368e-05
1.69819e-05
1.70432e-05
1.65214e-05
1.65206e-05
1.63375e-05
1.63369e-05
1.65207e-05
1.63372e-05
1.63368e-05
1.69822e-05
1.70436e-05
1.65214e-05
1.63375e-05
1.63375e-05
1.70434e-05
1.70789e-05
1.72436e-05
1.62891e-05
1.6289e-05
1.61753e-05
1.61753e-05
1.70786e-05
1.72431e-05
1.62897e-05
1.62892e-05
1.61759e-05
1.61755e-05
1.6289e-05
1.61754e-05
1.61753e-05
1.7079e-05
1.72437e-05
1.62897e-05
1.61758e-05
1.61759e-05
1.72436e-05
1.73039e-05
1.75719e-05
1.61516e-05
1.61515e-05
1.6107e-05
1.61072e-05
1.73034e-05
1.75716e-05
1.61521e-05
1.61517e-05
1.61075e-05
1.61074e-05
1.61515e-05
1.61071e-05
1.61071e-05
1.7304e-05
1.75723e-05
1.61521e-05
1.61075e-05
1.61077e-05
1.75722e-05
1.76565e-05
1.80251e-05
1.61071e-05
1.61074e-05
1.61327e-05
1.61331e-05
1.76562e-05
1.80246e-05
1.61076e-05
1.61076e-05
1.61332e-05
1.61333e-05
1.61072e-05
1.61327e-05
1.61329e-05
1.76569e-05
1.80256e-05
1.61078e-05
1.61332e-05
1.61335e-05
1.80255e-05
1.81336e-05
1.85972e-05
1.61533e-05
1.61538e-05
1.62488e-05
1.62493e-05
1.81331e-05
1.85964e-05
1.61539e-05
1.61541e-05
1.62492e-05
1.62494e-05
1.61536e-05
1.62486e-05
1.62491e-05
1.8134e-05
1.85976e-05
1.61541e-05
1.6249e-05
1.62496e-05
1.85975e-05
1.87283e-05
1.92762e-05
1.62921e-05
1.62925e-05
1.64552e-05
1.6456e-05
1.87275e-05
1.92757e-05
1.62926e-05
1.62929e-05
1.64555e-05
1.64562e-05
1.62924e-05
1.6455e-05
1.64555e-05
1.87286e-05
1.92771e-05
1.62928e-05
1.64556e-05
1.64559e-05
1.92767e-05
1.94279e-05
2.00497e-05
1.65204e-05
1.65211e-05
1.67493e-05
1.67499e-05
1.94275e-05
2.00488e-05
1.65208e-05
1.65215e-05
1.67495e-05
1.67508e-05
1.65209e-05
1.67487e-05
1.67496e-05
1.94288e-05
2.00507e-05
1.65212e-05
1.67496e-05
1.675e-05
2.00506e-05
2.02206e-05
2.0906e-05
1.68363e-05
1.68366e-05
1.7128e-05
1.71289e-05
2.02198e-05
2.09052e-05
1.68366e-05
1.68378e-05
1.71281e-05
1.71292e-05
1.68366e-05
1.71272e-05
1.71286e-05
2.02216e-05
2.0907e-05
1.6837e-05
1.71282e-05
1.71288e-05
2.09069e-05
2.10924e-05
2.18307e-05
1.72349e-05
1.72359e-05
1.75879e-05
1.75881e-05
2.10918e-05
2.18296e-05
1.72352e-05
1.72364e-05
1.75876e-05
1.75892e-05
1.72357e-05
1.75862e-05
1.75886e-05
2.10933e-05
2.1832e-05
1.72358e-05
1.75879e-05
1.75888e-05
2.18323e-05
2.20324e-05
2.28171e-05
1.77159e-05
1.77157e-05
1.81283e-05
1.81288e-05
2.20311e-05
2.28166e-05
1.77157e-05
1.77176e-05
1.81277e-05
1.81298e-05
1.77165e-05
1.81265e-05
1.81285e-05
2.20336e-05
2.28186e-05
1.77168e-05
1.81275e-05
1.81284e-05
2.28184e-05
2.30298e-05
2.38425e-05
1.82744e-05
1.82751e-05
1.87401e-05
1.87394e-05
2.30296e-05
2.38391e-05
1.82739e-05
1.82762e-05
1.87388e-05
1.87407e-05
1.82744e-05
1.87369e-05
1.87406e-05
2.30313e-05
2.38423e-05
1.82743e-05
1.87389e-05
1.874e-05
2.38436e-05
2.40639e-05
2.48943e-05
1.89035e-05
1.89032e-05
1.94184e-05
1.94198e-05
2.40602e-05
2.48949e-05
1.89023e-05
1.89047e-05
1.94179e-05
1.94212e-05
1.89038e-05
1.9417e-05
1.94209e-05
2.40635e-05
2.48981e-05
1.89032e-05
1.94192e-05
1.94198e-05
2.48975e-05
2.51218e-05
2.59682e-05
1.95976e-05
1.96001e-05
2.01638e-05
2.01646e-05
2.51231e-05
2.59686e-05
1.95975e-05
1.96025e-05
2.01625e-05
2.01644e-05
1.96e-05
2.01622e-05
2.01649e-05
2.51263e-05
2.59693e-05
1.95989e-05
2.01622e-05
2.01639e-05
2.59702e-05
2.62015e-05
2.70498e-05
2.036e-05
2.03586e-05
2.0965e-05
2.09651e-05
2.62006e-05
2.7046e-05
2.03584e-05
2.03592e-05
2.09628e-05
2.09668e-05
2.03603e-05
2.09627e-05
2.09655e-05
2.62011e-05
2.70482e-05
2.03592e-05
2.09641e-05
2.09646e-05
2.70501e-05
2.72843e-05
2.81283e-05
2.11738e-05
2.11742e-05
2.18202e-05
2.18186e-05
2.72814e-05
2.81259e-05
2.11714e-05
2.1176e-05
2.18179e-05
2.18193e-05
2.11742e-05
2.18138e-05
2.18198e-05
2.72839e-05
2.813e-05
2.11721e-05
2.18155e-05
2.18178e-05
2.81294e-05
2.83624e-05
2.91919e-05
2.20381e-05
2.20383e-05
2.27086e-05
2.27136e-05
2.83605e-05
2.91937e-05
2.20365e-05
2.20421e-05
2.2708e-05
2.27117e-05
2.20411e-05
2.27112e-05
2.27119e-05
2.83637e-05
2.91989e-05
2.204e-05
2.27091e-05
2.27102e-05
2.91973e-05
2.94269e-05
3.02666e-05
2.29443e-05
2.29445e-05
2.36558e-05
2.36551e-05
2.94297e-05
3.02587e-05
2.29433e-05
2.29405e-05
2.36518e-05
2.3656e-05
2.29449e-05
2.36502e-05
2.36569e-05
2.9431e-05
3.02621e-05
2.29426e-05
2.36585e-05
2.36571e-05
3.02668e-05
3.04992e-05
3.12908e-05
2.38955e-05
2.38985e-05
2.4621e-05
2.46037e-05
3.04915e-05
3.12839e-05
2.3891e-05
2.38946e-05
2.46184e-05
2.46173e-05
2.38936e-05
2.46011e-05
2.46234e-05
3.04983e-05
3.12901e-05
2.38921e-05
2.46109e-05
2.46186e-05
3.12916e-05
3.15177e-05
3.22897e-05
2.48588e-05
2.48442e-05
2.55883e-05
2.55991e-05
3.15067e-05
3.23012e-05
2.48574e-05
2.48653e-05
2.55865e-05
2.55893e-05
2.48616e-05
2.56006e-05
2.55958e-05
3.15147e-05
3.22951e-05
2.48562e-05
2.55829e-05
2.55896e-05
3.22934e-05
3.25138e-05
3.3278e-05
2.58478e-05
2.58489e-05
2.65851e-05
2.65873e-05
3.25275e-05
3.3274e-05
2.58473e-05
2.58436e-05
2.65822e-05
2.65902e-05
2.58511e-05
2.6586e-05
2.65863e-05
3.25158e-05
3.32804e-05
2.58442e-05
2.65868e-05
2.65857e-05
3.32821e-05
3.34905e-05
3.42652e-05
2.68248e-05
2.68318e-05
2.76266e-05
2.76452e-05
3.34905e-05
3.42798e-05
2.68208e-05
2.68375e-05
2.7618e-05
2.7641e-05
2.68351e-05
2.76291e-05
2.76386e-05
3.35033e-05
3.42887e-05
2.68375e-05
2.76503e-05
2.76426e-05
3.42784e-05
3.45052e-05
3.53252e-05
2.7909e-05
2.79152e-05
2.87521e-05
2.87074e-05
3.45106e-05
3.52712e-05
2.79002e-05
2.791e-05
2.87524e-05
2.87025e-05
2.79045e-05
2.87058e-05
2.87402e-05
3.45146e-05
3.52775e-05
2.79051e-05
2.87014e-05
2.87399e-05
3.53042e-05
3.55368e-05
3.61309e-05
2.90315e-05
2.89624e-05
2.96962e-05
2.97358e-05
3.548e-05
3.61615e-05
2.9033e-05
2.89721e-05
2.96967e-05
2.97391e-05
2.90247e-05
2.97372e-05
2.96913e-05
3.54851e-05
3.61526e-05
2.90189e-05
2.97179e-05
2.96817e-05
3.613e-05
3.62972e-05
3.6981e-05
2.9884e-05
2.99541e-05
3.06755e-05
3.06861e-05
3.63531e-05
3.7016e-05
2.98864e-05
2.99413e-05
3.06745e-05
3.06733e-05
2.98989e-05
3.06931e-05
3.06934e-05
3.63391e-05
3.69773e-05
2.98963e-05
3.06696e-05
3.06744e-05
3.69911e-05
3.72216e-05
3.80218e-05
3.09869e-05
3.10103e-05
3.18178e-05
3.17846e-05
3.72378e-05
3.79286e-05
3.09727e-05
3.09813e-05
3.17858e-05
3.17612e-05
3.09974e-05
3.17494e-05
3.17816e-05
3.71989e-05
3.80083e-05
3.097e-05
3.17945e-05
3.18114e-05
3.80351e-05
3.82098e-05
3.87233e-05
3.20772e-05
3.19681e-05
3.27587e-05
3.2629e-05
3.80898e-05
3.86272e-05
3.20655e-05
3.20457e-05
3.28085e-05
3.2867e-05
3.20689e-05
3.26838e-05
3.28786e-05
3.82156e-05
3.87657e-05
3.20955e-05
3.28676e-05
3.29079e-05
3.87846e-05
3.885e-05
3.90004e-05
3.292e-05
3.28899e-05
3.33712e-05
3.36524e-05
3.88129e-05
3.9332e-05
3.29701e-05
3.29856e-05
3.3379e-05
3.33781e-05
3.30027e-05
3.36076e-05
3.33009e-05
3.88737e-05
3.90086e-05
3.30518e-05
3.32247e-05
3.31626e-05
3.88335e-05
3.90389e-05
3.87521e-05
3.34647e-05
3.38807e-05
3.34261e-05
3.38113e-05
3.94374e-05
3.88931e-05
3.34626e-05
3.36246e-05
3.34147e-05
3.35888e-05
3.33253e-05
3.37257e-05
3.32195e-05
3.9101e-05
3.88059e-05
3.3173e-05
3.3607e-05
3.3137e-05
3.85303e-05
3.87971e-05
4.0812e-05
3.34356e-05
3.34914e-05
3.49246e-05
3.32431e-05
3.87921e-05
3.86116e-05
3.34206e-05
3.3344e-05
3.48629e-05
3.34968e-05
3.32338e-05
3.33032e-05
3.52279e-05
3.87428e-05
3.92745e-05
3.32017e-05
3.36145e-05
3.54612e-05
4.12243e-05
4.16666e-05
4.5737e-05
3.60949e-05
3.38302e-05
3.96395e-05
3.97575e-05
3.94649e-05
4.61186e-05
3.60475e-05
3.46602e-05
3.96263e-05
4.01475e-05
3.64905e-05
3.98199e-05
3.98695e-05
4.03471e-05
4.64343e-05
3.66929e-05
4.01286e-05
3.99878e-05
4.61e-05
4.63849e-05
4.71019e-05
4.06644e-05
4.14182e-05
4.18214e-05
4.32786e-05
4.71251e-05
4.90701e-05
4.06576e-05
4.15762e-05
4.18341e-05
4.29532e-05
4.06482e-05
4.31202e-05
4.11948e-05
4.73302e-05
4.85758e-05
4.07172e-05
4.278e-05
4.11478e-05
4.57398e-05
4.67389e-05
4.13529e-05
4.16902e-05
4.31452e-05
3.80211e-05
3.85236e-05
4.87022e-05
4.13888e-05
4.17091e-05
4.27258e-05
3.80384e-05
3.75741e-05
4.09065e-05
3.84002e-05
3.75158e-05
4.79393e-05
4.04889e-05
4.07834e-05
3.75052e-05
3.72947e-05
4.09887e-05
4.09118e-05
3.96503e-05
3.67766e-05
3.69379e-05
3.52043e-05
3.54105e-05
4.07591e-05
4.00637e-05
3.67625e-05
3.60737e-05
3.51871e-05
3.49982e-05
3.66957e-05
3.54931e-05
3.63412e-05
3.98735e-05
3.98342e-05
3.65042e-05
3.51243e-05
3.62398e-05
4.15542e-05
4.00052e-05
4.49589e-05
3.5244e-05
3.55008e-05
3.9046e-05
3.926e-05
4.07202e-05
4.52888e-05
3.52368e-05
3.53166e-05
3.91735e-05
4.00931e-05
3.68857e-05
3.96768e-05
4.04212e-05
4.08468e-05
4.59963e-05
3.69198e-05
4.04245e-05
4.06412e-05
4.61311e-05
4.5832e-05
4.76263e-05
4.07855e-05
4.05071e-05
4.28983e-05
4.1527e-05
4.58339e-05
4.56945e-05
4.08648e-05
4.1034e-05
4.27901e-05
4.15981e-05
4.07286e-05
4.13006e-05
4.03138e-05
4.63036e-05
4.53182e-05
4.08969e-05
4.13904e-05
4.02899e-05
4.3589e-05
4.75702e-05
4.42945e-05
4.28774e-05
4.14332e-05
4.10097e-05
3.96601e-05
4.54842e-05
4.26837e-05
4.27635e-05
4.1482e-05
4.10287e-05
4.09248e-05
3.99551e-05
3.94582e-05
4.00249e-05
4.51407e-05
4.45541e-05
3.99125e-05
4.06591e-05
4.00695e-05
4.43916e-05
4.40079e-05
4.3978e-05
4.0329e-05
3.94263e-05
4.00343e-05
4.02784e-05
4.2626e-05
4.56265e-05
4.0451e-05
4.09319e-05
4.01955e-05
4.16862e-05
4.07256e-05
4.08919e-05
4.31745e-05
4.48103e-05
4.63062e-05
4.09486e-05
4.22418e-05
4.32544e-05
4.7839e-05
4.46081e-05
4.7172e-05
4.03883e-05
4.18669e-05
4.30653e-05
4.43927e-05
4.65644e-05
4.83857e-05
4.05042e-05
4.18458e-05
4.26667e-05
4.2532e-05
4.33089e-05
4.42693e-05
4.30979e-05
4.63779e-05
4.62542e-05
4.32875e-05
4.25789e-05
4.2879e-05
4.62514e-05
4.74211e-05
4.96314e-05
4.35951e-05
4.46452e-05
4.56205e-05
4.57154e-05
4.84575e-05
4.96793e-05
4.33173e-05
4.32212e-05
4.57699e-05
4.58369e-05
4.31017e-05
4.57109e-05
4.48406e-05
4.65576e-05
5.03582e-05
4.28898e-05
4.5763e-05
4.49962e-05
4.95414e-05
5.02788e-05
5.27906e-05
4.64897e-05
4.64033e-05
4.85484e-05
4.75814e-05
5.02757e-05
5.1806e-05
4.6705e-05
4.62866e-05
4.8441e-05
4.61482e-05
4.59038e-05
4.75387e-05
4.65498e-05
5.07378e-05
4.88552e-05
4.60601e-05
4.61084e-05
4.65398e-05
5.00018e-05
5.28188e-05
4.77708e-05
4.85819e-05
4.75123e-05
4.58589e-05
4.44187e-05
5.16254e-05
4.61619e-05
4.84282e-05
4.53776e-05
4.54556e-05
4.34709e-05
4.62263e-05
4.4064e-05
4.33061e-05
4.81706e-05
4.54841e-05
4.6083e-05
4.32145e-05
4.31466e-05
4.52695e-05
4.69429e-05
4.37484e-05
4.40659e-05
4.31529e-05
4.11447e-05
4.1573e-05
4.56002e-05
4.43488e-05
4.38638e-05
4.33898e-05
4.13814e-05
4.45667e-05
4.28921e-05
4.17392e-05
4.32135e-05
4.55677e-05
4.90707e-05
4.28564e-05
4.49323e-05
4.35948e-05
4.77794e-05
4.37836e-05
4.85709e-05
4.10693e-05
4.16325e-05
4.37969e-05
4.58841e-05
4.48111e-05
5.06176e-05
4.1334e-05
4.54991e-05
4.41923e-05
4.79184e-05
4.43971e-05
4.6435e-05
4.81606e-05
4.97861e-05
5.21398e-05
4.50879e-05
4.83459e-05
4.8458e-05
5.23708e-05
4.96554e-05
5.27352e-05
4.59618e-05
4.76972e-05
4.96436e-05
5.08715e-05
5.15489e-05
5.44613e-05
4.61402e-05
4.85316e-05
4.9456e-05
4.90688e-05
4.89819e-05
5.08728e-05
4.97381e-05
5.24532e-05
5.22123e-05
4.91224e-05
4.9188e-05
4.96309e-05
5.28929e-05
5.30005e-05
5.31601e-05
5.01813e-05
5.11454e-05
5.05275e-05
5.05229e-05
5.45856e-05
5.22724e-05
4.9926e-05
4.89232e-05
5.01912e-05
4.6961e-05
4.9626e-05
5.01213e-05
4.73442e-05
5.18971e-05
4.88216e-05
4.9442e-05
4.66525e-05
4.70498e-05
4.91535e-05
5.30267e-05
5.074e-05
5.03714e-05
4.92682e-05
4.81985e-05
4.64054e-05
5.16679e-05
4.85319e-05
5.00128e-05
4.64147e-05
4.8116e-05
4.59118e-05
4.6681e-05
4.61632e-05
4.60517e-05
4.85606e-05
4.82525e-05
4.64433e-05
4.56107e-05
4.59527e-05
4.86067e-05
5.05958e-05
4.97595e-05
4.76328e-05
4.5918e-05
4.68602e-05
4.56302e-05
4.83856e-05
4.85258e-05
4.76566e-05
4.60112e-05
4.70577e-05
4.80576e-05
4.61128e-05
4.56489e-05
4.78433e-05
4.86781e-05
5.14417e-05
4.60789e-05
4.83203e-05
4.82359e-05
5.13925e-05
4.97734e-05
5.07631e-05
4.68468e-05
4.58263e-05
4.76144e-05
4.83823e-05
4.89557e-05
5.15046e-05
4.70553e-05
4.86735e-05
4.79073e-05
4.97347e-05
4.83954e-05
4.86267e-05
4.92678e-05
5.18459e-05
5.26817e-05
4.87569e-05
4.9888e-05
4.93987e-05
5.20626e-05
5.10968e-05
5.16297e-05
4.82576e-05
4.90331e-05
4.92114e-05
4.99395e-05
5.18569e-05
5.24865e-05
4.843e-05
4.98305e-05
4.91601e-05
4.97367e-05
4.93652e-05
4.99328e-05
4.9402e-05
5.27191e-05
5.21211e-05
4.94306e-05
4.97379e-05
4.93679e-05
5.17594e-05
5.16453e-05
5.17695e-05
4.92687e-05
5.00107e-05
4.94265e-05
5.00041e-05
5.25285e-05
5.24332e-05
4.9187e-05
4.95493e-05
4.92565e-05
4.91236e-05
4.9372e-05
4.99881e-05
4.93292e-05
5.20634e-05
5.14773e-05
4.93037e-05
4.91374e-05
4.92335e-05
5.17074e-05
5.19411e-05
5.27731e-05
4.95924e-05
4.99662e-05
5.02264e-05
4.99476e-05
5.24393e-05
5.2364e-05
4.94084e-05
4.90816e-05
5.01701e-05
4.93071e-05
4.93601e-05
4.99069e-05
4.97624e-05
5.14801e-05
5.19105e-05
4.925e-05
4.92731e-05
4.96879e-05
5.2238e-05
5.29165e-05
5.31187e-05
5.04084e-05
4.99868e-05
5.0726e-05
5.04115e-05
5.24173e-05
5.27644e-05
5.03854e-05
4.97139e-05
5.07588e-05
5.06104e-05
4.99029e-05
5.03488e-05
5.04232e-05
5.21601e-05
5.29758e-05
4.98649e-05
5.05441e-05
5.04569e-05
5.28418e-05
5.31348e-05
5.29571e-05
5.07537e-05
5.05193e-05
5.07378e-05
5.078e-05
5.285e-05
5.3087e-05
5.07951e-05
5.07757e-05
5.07846e-05
5.09966e-05
5.0609e-05
5.08439e-05
5.1037e-05
5.30905e-05
5.3267e-05
5.06512e-05
5.10422e-05
5.10688e-05
5.33291e-05
5.296e-05
5.29193e-05
5.07146e-05
5.08571e-05
5.07192e-05
5.09815e-05
5.3146e-05
5.32073e-05
5.07505e-05
5.10029e-05
5.07257e-05
5.09729e-05
5.11149e-05
5.10399e-05
5.11675e-05
5.32888e-05
5.3182e-05
5.11343e-05
5.10427e-05
5.11661e-05
5.33466e-05
5.29867e-05
5.33971e-05
5.07867e-05
5.09867e-05
5.11862e-05
5.10487e-05
5.32213e-05
5.32068e-05
5.07647e-05
5.09704e-05
5.11885e-05
5.11261e-05
5.11582e-05
5.10384e-05
5.1083e-05
5.31927e-05
5.332e-05
5.1151e-05
5.10939e-05
5.10839e-05
5.32233e-05
5.3501e-05
5.37259e-05
5.13161e-05
5.11361e-05
5.1599e-05
5.14851e-05
5.32624e-05
5.36057e-05
5.13263e-05
5.12462e-05
5.16165e-05
5.15386e-05
5.10805e-05
5.14288e-05
5.1256e-05
5.3406e-05
5.36308e-05
5.10845e-05
5.14848e-05
5.12786e-05
5.3404e-05
5.37603e-05
5.37405e-05
5.16469e-05
5.15924e-05
5.17007e-05
5.18241e-05
5.36951e-05
5.38903e-05
5.16565e-05
5.15893e-05
5.16789e-05
5.16547e-05
5.13838e-05
5.18195e-05
5.17638e-05
5.3673e-05
5.37232e-05
5.13924e-05
5.16541e-05
5.17377e-05
5.38456e-05
5.37548e-05
5.38971e-05
5.1719e-05
5.18676e-05
5.18691e-05
5.19065e-05
5.393e-05
5.39469e-05
5.16883e-05
5.16928e-05
5.1862e-05
5.18945e-05
5.18683e-05
5.19558e-05
5.20675e-05
5.37608e-05
5.39503e-05
5.18412e-05
5.19443e-05
5.20592e-05
5.40776e-05
5.39748e-05
5.4219e-05
5.19497e-05
5.19151e-05
5.21985e-05
5.20548e-05
5.39599e-05
5.40287e-05
5.19548e-05
5.19681e-05
5.22185e-05
5.21719e-05
5.20849e-05
5.20325e-05
5.20644e-05
5.40127e-05
5.41562e-05
5.20873e-05
5.21554e-05
5.20801e-05
5.40312e-05
5.42688e-05
5.42905e-05
5.22644e-05
5.21355e-05
5.23412e-05
5.23442e-05
5.40924e-05
5.42922e-05
5.22839e-05
5.22333e-05
5.2347e-05
5.23476e-05
5.20614e-05
5.23156e-05
5.22025e-05
5.4201e-05
5.42797e-05
5.20782e-05
5.23198e-05
5.22123e-05
5.41783e-05
5.42961e-05
5.4205e-05
5.23393e-05
5.23852e-05
5.23202e-05
5.24278e-05
5.43345e-05
5.43643e-05
5.23431e-05
5.23549e-05
5.23101e-05
5.23476e-05
5.23095e-05
5.24631e-05
5.2534e-05
5.43013e-05
5.42751e-05
5.23074e-05
5.23768e-05
5.25209e-05
5.44541e-05
5.42306e-05
5.43797e-05
5.23273e-05
5.24257e-05
5.24672e-05
5.24145e-05
5.43736e-05
5.42975e-05
5.23147e-05
5.23486e-05
5.24683e-05
5.23911e-05
5.25591e-05
5.24454e-05
5.25454e-05
5.42871e-05
5.42858e-05
5.25495e-05
5.24251e-05
5.25415e-05
5.43988e-05
5.44256e-05
5.4518e-05
5.25139e-05
5.24248e-05
5.26275e-05
5.2604e-05
5.43161e-05
5.44881e-05
5.25178e-05
5.24027e-05
5.26164e-05
5.25775e-05
5.2505e-05
5.25588e-05
5.24605e-05
5.42999e-05
5.44389e-05
5.25039e-05
5.25201e-05
5.24562e-05
5.43172e-05
5.45532e-05
5.4642e-05
5.26614e-05
5.26778e-05
5.27806e-05
5.28513e-05
5.45609e-05
5.47303e-05
5.26518e-05
5.26789e-05
5.27963e-05
5.29725e-05
5.24844e-05
5.2857e-05
5.2834e-05
5.4538e-05
5.48907e-05
5.24805e-05
5.29794e-05
5.28511e-05
5.4742e-05
5.46734e-05
5.4643e-05
5.28176e-05
5.28718e-05
5.28349e-05
5.28536e-05
5.47575e-05
5.46433e-05
5.28391e-05
5.30143e-05
5.2859e-05
5.29816e-05
5.29091e-05
5.2877e-05
5.29394e-05
5.49391e-05
5.47616e-05
5.29308e-05
5.30059e-05
5.29606e-05
5.47465e-05
5.4646e-05
5.45384e-05
5.28199e-05
5.2805e-05
5.27471e-05
5.2692e-05
5.46377e-05
5.44682e-05
5.28435e-05
5.28801e-05
5.27365e-05
5.25796e-05
5.29101e-05
5.26891e-05
5.26849e-05
5.47268e-05
5.43088e-05
5.29259e-05
5.25739e-05
5.26695e-05
5.44343e-05
5.4564e-05
5.47473e-05
5.2748e-05
5.26913e-05
5.28922e-05
5.28643e-05
5.44861e-05
5.47276e-05
5.2731e-05
5.25408e-05
5.2832e-05
5.2594e-05
5.26542e-05
5.28255e-05
5.27143e-05
5.43115e-05
5.44789e-05
5.26312e-05
5.257e-05
5.26744e-05
5.46012e-05
5.4802e-05
5.48581e-05
5.29509e-05
5.29449e-05
5.30266e-05
5.30649e-05
5.48005e-05
5.49125e-05
5.29102e-05
5.27422e-05
5.30369e-05
5.31163e-05
5.2846e-05
5.3088e-05
5.31688e-05
5.45972e-05
5.49767e-05
5.28048e-05
5.31408e-05
5.31801e-05
5.50434e-05
5.48656e-05
5.47246e-05
5.30292e-05
5.30704e-05
5.29793e-05
5.29975e-05
5.49289e-05
5.47311e-05
5.30461e-05
5.31799e-05
5.30139e-05
5.31973e-05
5.32064e-05
5.30386e-05
5.31283e-05
5.50345e-05
5.49796e-05
5.32264e-05
5.32327e-05
5.31564e-05
5.48402e-05
5.47234e-05
5.45546e-05
5.29245e-05
5.29181e-05
5.27642e-05
5.27366e-05
5.47107e-05
5.44689e-05
5.29603e-05
5.31514e-05
5.27883e-05
5.2813e-05
5.29439e-05
5.26969e-05
5.25191e-05
5.49528e-05
5.45281e-05
5.29743e-05
5.27686e-05
5.25364e-05
5.41525e-05
5.45613e-05
5.46156e-05
5.27459e-05
5.27247e-05
5.27903e-05
5.27919e-05
5.44856e-05
5.46926e-05
5.27614e-05
5.2744e-05
5.27691e-05
5.26384e-05
5.25087e-05
5.27978e-05
5.28338e-05
5.45301e-05
5.4468e-05
5.25243e-05
5.26327e-05
5.2818e-05
5.4772e-05
5.46783e-05
5.48418e-05
5.28867e-05
5.28707e-05
5.30006e-05
5.2997e-05
5.47502e-05
5.48146e-05
5.28346e-05
5.26367e-05
5.29477e-05
5.27505e-05
5.30483e-05
5.30376e-05
5.3294e-05
5.44827e-05
5.45496e-05
5.30157e-05
5.27975e-05
5.3236e-05
5.52101e-05
5.48542e-05
5.44167e-05
5.29933e-05
5.29969e-05
5.27231e-05
5.27782e-05
5.48223e-05
5.45098e-05
5.29429e-05
5.28518e-05
5.27779e-05
5.29843e-05
5.32883e-05
5.2872e-05
5.27382e-05
5.46055e-05
5.47569e-05
5.32303e-05
5.30237e-05
5.27758e-05
5.44287e-05
5.4417e-05
5.48443e-05
5.26915e-05
5.26893e-05
5.28703e-05
5.26769e-05
5.44738e-05
5.43747e-05
5.27732e-05
5.30474e-05
5.29472e-05
5.3084e-05
5.24279e-05
5.25207e-05
5.19247e-05
5.48231e-05
5.4942e-05
5.25322e-05
5.29141e-05
5.20002e-05
5.3393e-05
5.49743e-05
5.45749e-05
5.30016e-05
5.28015e-05
5.29305e-05
5.30367e-05
5.45004e-05
5.51232e-05
5.29879e-05
5.30441e-05
5.2722e-05
5.25946e-05
5.19482e-05
5.30752e-05
5.32562e-05
5.49158e-05
5.42948e-05
5.20025e-05
5.26137e-05
5.29922e-05
5.52125e-05
5.43924e-05
5.38238e-05
5.26454e-05
5.29994e-05
5.215e-05
5.22972e-05
5.51293e-05
5.39627e-05
5.24664e-05
5.25922e-05
5.23173e-05
5.29875e-05
5.38591e-05
5.27664e-05
5.43711e-05
5.43118e-05
5.53161e-05
5.36639e-05
5.34239e-05
5.44959e-05
5.69607e-05
5.39077e-05
5.43828e-05
5.21822e-05
5.22424e-05
5.25234e-05
5.23138e-05
5.38814e-05
5.39068e-05
5.24278e-05
5.30557e-05
5.24908e-05
5.20756e-05
5.42096e-05
5.20236e-05
5.10419e-05
5.54121e-05
5.33599e-05
5.44115e-05
5.1809e-05
5.10805e-05
5.21088e-05
5.41897e-05
5.15663e-05
5.14072e-05
5.38397e-05
5.14047e-05
5.05609e-05
4.18509e-05
4.1215e-05
4.06077e-05
4.95964e-05
5.25895e-05
4.94876e-05
3.73773e-05
3.73765e-05
3.7377e-05
3.7377e-05
3.73701e-05
3.73777e-05
3.73043e-05
3.73768e-05
3.73702e-05
3.73777e-05
3.73768e-05
3.73043e-05
3.73741e-05
3.72959e-05
3.72959e-05
3.58798e-05
4.08721e-05
3.66033e-05
4.51467e-05
5.51147e-05
6.48951e-05
3.58803e-05
4.08712e-05
3.66034e-05
4.51465e-05
3.58932e-05
3.58933e-05
3.58932e-05
3.44005e-05
3.44005e-05
3.44005e-05
3.44005e-05
3.52758e-05
3.56384e-05
3.58929e-05
3.53771e-05
3.60475e-05
3.42365e-05
3.53822e-05
5.51168e-05
6.48994e-05
3.52758e-05
3.58929e-05
3.5638e-05
3.53771e-05
3.60475e-05
3.53822e-05
3.42375e-05
3.65971e-05
3.65977e-05
3.5279e-05
3.40642e-05
3.40633e-05
3.39657e-05
5.13534e-05
3.46793e-05
5.46248e-05
7.65447e-05
8.08614e-05
3.39682e-05
5.13544e-05
3.46789e-05
5.46254e-05
3.39296e-05
3.39297e-05
3.39297e-05
3.25855e-05
3.25854e-05
3.25855e-05
3.25855e-05