/*--------------------------------*- C++ -*----------------------------------*\
| =========                 |                                                 |
| \\      /  F ield         | OpenFOAM: The Open Source CFD Toolbox           |
|  \\    /   O peration     | Version:  v1906                                 |
|   \\  /    A nd           | Web:      www.OpenFOAM.com                      |
|    \\/     M anipulation  |                                                 |
\*---------------------------------------------------------------------------*/
FoamFile
{
    version     2.0;
    format      ascii;
    class       volScalarField;
    location    "625";
    object      nut;
}
// * * * * * * * * * * * * * * * * * * * * * * * * * * * * * * * * * * * * * //

dimensions      [0 2 -1 0 0 0 0];


internalField   nonuniform List<scalar> 
171728
(
0.000233973
0.000233116
0.000233116
0.000233423
0.000232532
0.000227802
0.000227801
0.000223866
0.000230516
0.00022032
0.000220318
0.000209109
0.000227799
0.000211665
0.000211661
0.000193785
0.000224433
0.00020265
0.000202644
0.000179709
0.000220552
0.000193772
0.000193765
0.000167339
0.000216304
0.000185275
0.000185267
0.000156587
0.00021182
0.000177234
0.000177226
0.000147206
0.000207207
0.000169688
0.00016968
0.00013895
0.000202545
0.000162611
0.000162603
0.000131614
0.000197889
0.000155949
0.000155941
0.000124953
0.000193275
0.000149647
0.000149638
0.000118816
0.000188683
0.000143665
0.000143657
0.000113168
0.000184151
0.000137952
0.000137943
0.000107932
0.000179706
0.000132462
0.000132453
0.000103054
0.000175338
0.000127189
0.00012718
9.84323e-05
0.000171036
0.000122151
0.000122141
9.42516e-05
0.000166785
0.000117373
0.000117362
9.06641e-05
0.000162586
0.000112887
0.000112876
8.7731e-05
0.000158415
0.000108756
0.000108746
8.53865e-05
0.000154263
0.000105025
0.000105015
8.36667e-05
0.000150142
0.00010171
0.000101702
8.25789e-05
0.000146063
9.88933e-05
9.88856e-05
8.20963e-05
0.000142046
9.65857e-05
9.65794e-05
8.21541e-05
0.000138121
9.4799e-05
9.47935e-05
8.26976e-05
0.000134286
9.35112e-05
9.35091e-05
8.36571e-05
0.000130626
9.27353e-05
9.27398e-05
8.50045e-05
0.000127156
9.24717e-05
9.2463e-05
8.66969e-05
0.000123897
9.26256e-05
9.26296e-05
8.86373e-05
0.000120885
9.3229e-05
9.32417e-05
9.07796e-05
0.000118187
9.42309e-05
9.42183e-05
9.31128e-05
0.000115802
9.55799e-05
9.55762e-05
9.5559e-05
0.00011375
9.72345e-05
9.7261e-05
9.81116e-05
0.000112036
9.91985e-05
9.91435e-05
0.000100715
0.000110775
0.000101464
0.000101488
0.000103518
0.000109786
0.000103713
0.000103822
0.000106118
0.000109073
0.000106392
0.000106219
0.000108711
0.000108384
0.000108753
0.000108779
0.00011132
0.000108775
0.000111899
0.000112104
0.000114287
0.000110367
0.000115323
0.000115326
0.0001176
0.000110054
0.000118112
0.000117781
0.000119523
0.000111127
0.000121645
0.000121153
0.000122496
0.00011385
0.000124686
0.000125885
0.000127081
0.000116704
0.000128593
0.000129343
0.000129454
0.000114578
0.000132818
0.000129892
0.000125676
0.000101859
0.000119461
0.000118616
0.000116377
0.000108268
0.000113014
0.000118662
0.000133158
0.000146964
0.00016834
0.000171634
0.000164368
0.000179563
0.000194101
0.000191551
0.000161261
0.000143311
0.000139275
0.000132149
0.000127679
9.56158e-05
0.000122505
0.000120651
0.000134679
0.000112893
0.000158562
0.000160698
0.000159528
0.000161596
0.000161287
0.00015698
0.000136599
0.000146541
0.000138438
0.000150414
0.000146045
0.000124171
0.000155983
0.000158004
0.000161016
0.000133672
0.000166736
0.000157003
0.00014654
0.000168275
0.000183475
0.00018542
0.000175004
0.000209923
0.000198549
0.000176092
0.000172318
0.000188058
0.000157968
0.000154037
0.000138091
0.000123843
0.000139732
0.00017134
0.00015505
0.000121392
0.000180375
0.000194107
0.000183194
0.00018896
0.000212555
0.000197406
0.000186046
0.000214649
0.000197823
0.00017183
0.000160117
0.000194058
0.000168822
0.000165203
0.000157578
0.000168636
0.000166077
0.000187993
0.000174008
0.0001656
0.000188218
0.000196026
0.000176484
0.000183301
0.000194517
0.000192234
0.000173803
0.000188031
0.000193054
0.00018639
0.000172773
0.000194891
0.00019153
0.00018878
0.000175119
0.000200842
0.000194841
0.000196648
0.000178616
0.000200551
0.000198009
0.000199044
0.000181429
0.00019894
0.000198261
0.000198063
0.00018123
0.000203617
0.000197641
0.000198736
0.000179863
0.000208184
0.000200665
0.000200803
0.000180843
0.000208929
0.000203133
0.000201597
0.000183486
0.000210798
0.000203337
0.000203584
0.000184717
0.000214884
0.000204065
0.000205052
0.000183922
0.000216766
0.000206267
0.000206093
0.000185187
0.000216748
0.000207069
0.000206554
0.000186958
0.000218954
0.000206566
0.000206204
0.000186225
0.000220932
0.000208052
0.000207743
0.000185663
0.000223389
0.000210484
0.000211805
0.000188912
0.000225415
0.000210358
0.00021139
0.000188944
0.00022499
0.000208976
0.000207755
0.000186483
0.000226694
0.000211001
0.000208947
0.000188127
0.000229497
0.000213369
0.000214079
0.00019176
0.000230826
0.000212598
0.000214837
0.000190078
0.000229382
0.000210541
0.000211185
0.000185152
0.000230265
0.000212321
0.000210265
0.000190945
0.000233066
0.00021502
0.00021279
0.000194383
0.000232818
0.000212434
0.000215308
0.000187907
0.000237009
0.000211079
0.000212736
0.00017928
0.000233661
0.00021781
0.000212945
0.000197329
0.000230884
0.000214333
0.000226003
0.000212453
0.000239609
0.00021287
0.000205275
0.00017524
0.000234266
0.000234448
0.000234449
0.000234267
0.000234448
0.000234449
0.000234274
0.000234274
0.000234274
0.000234274
0.000234448
0.000234448
0.000234266
0.000234448
0.000234448
0.000234266
0.000233423
0.000226204
0.000233116
0.000233114
0.000229361
0.000229357
0.000233423
0.000226205
0.000233114
0.000233114
0.000229359
0.000229356
0.000233116
0.000229364
0.000229361
0.000233423
0.000226202
0.000233114
0.000229363
0.000229359
0.000226202
0.000223867
0.00021223
0.000227799
0.000227794
0.000222332
0.000222326
0.000223868
0.000212234
0.000227797
0.000227792
0.000222332
0.000222323
0.000227798
0.000222339
0.000222331
0.000223866
0.000212227
0.000227797
0.000222336
0.000222331
0.000212228
0.000209111
0.000197061
0.000220313
0.000220307
0.000213879
0.000213874
0.000209112
0.000197066
0.000220314
0.000220304
0.000213883
0.000213869
0.000220311
0.00021389
0.000213877
0.000209107
0.000197057
0.000220313
0.000213886
0.000213882
0.000197058
0.000193788
0.000182876
0.000211654
0.000211648
0.00020489
0.000204884
0.000193792
0.000182883
0.000211658
0.000211643
0.000204897
0.000204879
0.000211651
0.000204905
0.000204887
0.000193784
0.000182872
0.000211657
0.000204899
0.000204896
0.000182873
0.000179713
0.000170268
0.000202634
0.000202628
0.000195943
0.000195937
0.000179717
0.000170274
0.000202643
0.000202622
0.000195954
0.000195931
0.000202631
0.000195962
0.00019594
0.000179708
0.000170263
0.000202641
0.000195955
0.000195953
0.000170264
0.000167344
0.000159242
0.000193753
0.000193747
0.000187336
0.000187331
0.000167349
0.000159249
0.000193765
0.00019374
0.000187351
0.000187324
0.00019375
0.000187359
0.000187333
0.000167339
0.000159238
0.000193764
0.000187351
0.00018735
0.000159238
0.000156592
0.000149613
0.000185253
0.000185247
0.000179173
0.000179168
0.000156597
0.00014962
0.000185268
0.00018524
0.000179191
0.00017916
0.000185249
0.000179198
0.00017917
0.000156587
0.000149608
0.000185267
0.000179189
0.00017919
0.000149608
0.000147211
0.000141107
0.000177208
0.000177203
0.000171501
0.000171496
0.000147217
0.000141114
0.000177227
0.000177195
0.000171521
0.000171488
0.000177205
0.000171529
0.000171498
0.000147206
0.000141102
0.000177225
0.00017152
0.000171521
0.000141101
0.000138956
0.000133547
0.00016966
0.000169655
0.000164309
0.000164304
0.000138962
0.000133554
0.000169682
0.000169647
0.000164332
0.000164296
0.000169658
0.000164339
0.000164307
0.000138951
0.000133542
0.00016968
0.000164331
0.000164332
0.000133541
0.000131621
0.000126686
0.000162581
0.000162576
0.000157546
0.000157541
0.000131627
0.000126693
0.000162605
0.000162567
0.000157572
0.000157533
0.000162578
0.000157579
0.000157545
0.000131615
0.00012668
0.000162604
0.00015757
0.000157571
0.000126679
0.00012496
0.000120362
0.000155916
0.000155912
0.000151157
0.000151152
0.000124966
0.000120369
0.000155942
0.000155903
0.000151184
0.000151144
0.000155915
0.000151192
0.000151156
0.000124954
0.000120356
0.000155942
0.000151183
0.000151184
0.000120355
0.000118822
0.000114426
0.000149612
0.000149607
0.000145095
0.000145091
0.000118828
0.000114433
0.000149639
0.000149599
0.000145124
0.000145083
0.000149611
0.000145132
0.000145095
0.000118816
0.000114419
0.000149639
0.000145123
0.000145124
0.000114418
0.000113175
0.000108835
0.00014363
0.000143624
0.000139318
0.000139313
0.00011318
0.000108842
0.000143658
0.000143616
0.000139347
0.000139305
0.000143629
0.000139356
0.000139319
0.000113168
0.000108829
0.000143658
0.000139347
0.000139348
0.000108828
0.000107939
0.0001037
0.000137916
0.000137909
0.000133776
0.000133769
0.000107944
0.000103707
0.000137944
0.000137901
0.000133805
0.000133762
0.000137915
0.000133814
0.000133776
0.000107932
0.000103695
0.000137944
0.000133805
0.000133805
0.000103694
0.000103061
9.91246e-05
0.000132425
0.000132418
0.000128445
0.000128437
0.000103068
9.91308e-05
0.000132453
0.00013241
0.000128472
0.00012843
0.000132424
0.000128484
0.000128446
0.000103056
9.91183e-05
0.000132454
0.000128474
0.000128475
9.91167e-05
9.84393e-05
9.49891e-05
0.00012715
0.000127143
0.000123344
0.000123337
9.84451e-05
9.49943e-05
0.000127178
0.000127135
0.000123371
0.000123328
0.000127152
0.000123384
0.000123347
9.84334e-05
9.49834e-05
0.00012718
0.000123374
0.000123374
9.4982e-05
9.42581e-05
9.14387e-05
0.000122112
0.000122104
0.000118478
0.000118471
9.4263e-05
9.14434e-05
0.000122137
0.000122096
0.000118503
0.000118462
0.000122113
0.000118518
0.000118482
9.42526e-05
9.14332e-05
0.000122141
0.000118507
0.000118508
9.14333e-05
9.06685e-05
8.8378e-05
0.000117333
0.000117325
0.000113921
0.000113917
9.06737e-05
8.83847e-05
0.000117357
0.000117316
0.000113946
0.000113906
0.000117336
0.000113963
0.000113926
9.06642e-05
8.83736e-05
0.000117363
0.000113952
0.000113952
8.83728e-05
8.77352e-05
8.59103e-05
0.000112846
0.00011284
0.000109691
0.000109685
8.77419e-05
8.59145e-05
0.00011287
0.00011283
0.000109714
0.000109675
0.000112851
0.000109731
0.000109697
8.77317e-05
8.59049e-05
0.000112876
0.00010972
0.000109721
8.59065e-05
8.53905e-05
8.40674e-05
0.000108718
0.00010871
0.000105848
0.00010584
8.53945e-05
8.40742e-05
0.000108739
0.0001087
0.000105868
0.000105831
0.000108722
0.000105886
0.000105852
8.53854e-05
8.40651e-05
0.000108745
0.000105876
0.000105875
8.40654e-05
8.36682e-05
8.28568e-05
0.000104988
0.000104979
0.000102453
0.000102443
8.36754e-05
8.28626e-05
0.000105007
0.00010497
0.000102472
0.000102435
0.000104992
0.000102489
0.000102457
8.36664e-05
8.28543e-05
0.000105015
0.000102479
0.00010248
8.28544e-05
8.25799e-05
8.22594e-05
0.000101675
0.000101665
9.95177e-05
9.9505e-05
8.25852e-05
8.22619e-05
0.000101694
0.000101657
9.95342e-05
9.9496e-05
0.00010168
9.955e-05
9.95205e-05
8.25774e-05
8.22547e-05
0.000101702
9.95392e-05
9.95416e-05
8.22555e-05
8.20989e-05
8.22097e-05
9.88625e-05
9.88492e-05
9.70849e-05
9.70747e-05
8.21012e-05
8.22141e-05
9.8879e-05
9.88416e-05
9.70992e-05
9.70659e-05
9.88651e-05
9.71169e-05
9.70871e-05
8.20945e-05
8.22086e-05
9.88854e-05
9.71083e-05
9.71068e-05
8.22072e-05
8.21549e-05
8.26537e-05
9.65556e-05
9.65435e-05
9.51709e-05
9.51552e-05
8.21603e-05
8.26549e-05
9.65708e-05
9.65372e-05
9.51847e-05
9.51547e-05
9.65592e-05
9.51975e-05
9.51705e-05
8.21547e-05
8.26523e-05
9.65779e-05
9.51911e-05
9.51887e-05
8.26527e-05
8.26991e-05
8.35358e-05
9.47736e-05
9.4756e-05
9.37628e-05
9.37532e-05
8.27011e-05
8.35389e-05
9.47882e-05
9.47577e-05
9.37772e-05
9.37443e-05
9.47741e-05
9.37901e-05
9.37677e-05
8.26998e-05
8.35336e-05
9.47919e-05
9.37842e-05
9.37818e-05
8.3534e-05
8.36597e-05
8.47917e-05
9.34833e-05
9.34747e-05
9.28578e-05
9.28404e-05
8.36633e-05
8.47913e-05
9.34991e-05
9.34673e-05
9.28698e-05
9.28409e-05
9.34899e-05
9.28776e-05
9.2864e-05
8.36581e-05
8.47914e-05
9.35032e-05
9.28796e-05
9.2879e-05
8.47944e-05
8.50011e-05
8.64276e-05
9.27173e-05
9.26973e-05
9.24782e-05
9.24624e-05
8.5e-05
8.64343e-05
9.27299e-05
9.27046e-05
9.24872e-05
9.24609e-05
9.27221e-05
9.24969e-05
9.24747e-05
8.50019e-05
8.64294e-05
9.27381e-05
9.2489e-05
9.24882e-05
8.64277e-05
8.66991e-05
8.83175e-05
9.2451e-05
9.24377e-05
9.25432e-05
9.25133e-05
8.67075e-05
8.82993e-05
9.24603e-05
9.24359e-05
9.25452e-05
9.25143e-05
9.24454e-05
9.25446e-05
9.25406e-05
8.67017e-05
8.83026e-05
9.24595e-05
9.25455e-05
9.25501e-05
8.83137e-05
8.86405e-05
9.04026e-05
9.26228e-05
9.25966e-05
9.30149e-05
9.30106e-05
8.86185e-05
9.0416e-05
9.26251e-05
9.25985e-05
9.30276e-05
9.30152e-05
9.26192e-05
9.3038e-05
9.30345e-05
8.86255e-05
9.04212e-05
9.26276e-05
9.30456e-05
9.30383e-05
9.04145e-05
9.07658e-05
9.26974e-05
9.31923e-05
9.32024e-05
9.39266e-05
9.39188e-05
9.07849e-05
9.27136e-05
9.32092e-05
9.32127e-05
9.39341e-05
9.39069e-05
9.32117e-05
9.39532e-05
9.39337e-05
9.07922e-05
9.26974e-05
9.32171e-05
9.39366e-05
9.39434e-05
9.27027e-05
9.3107e-05
9.51407e-05
9.42191e-05
9.41948e-05
9.51974e-05
9.51776e-05
9.31133e-05
9.51247e-05
9.42234e-05
9.4187e-05
9.51955e-05
9.51779e-05
9.42192e-05
9.52119e-05
9.51914e-05
9.30974e-05
9.5115e-05
9.42297e-05
9.52013e-05
9.52012e-05
9.51293e-05
9.55711e-05
9.76704e-05
9.55717e-05
9.55522e-05
9.68085e-05
9.67802e-05
9.55594e-05
9.76644e-05
9.55672e-05
9.55539e-05
9.68088e-05
9.6782e-05
9.55636e-05
9.67912e-05
9.6799e-05
9.55532e-05
9.76755e-05
9.55626e-05
9.67913e-05
9.67985e-05
9.76661e-05
9.8111e-05
0.000100228
9.72285e-05
9.7217e-05
9.86105e-05
9.86425e-05
9.81094e-05
0.000100252
9.72345e-05
9.72435e-05
9.86305e-05
9.86225e-05
9.72481e-05
9.86773e-05
9.86371e-05
9.81162e-05
0.000100269
9.72546e-05
9.86423e-05
9.86435e-05
0.000100255
0.000100699
0.000103036
9.91666e-05
9.91661e-05
0.000100883
0.000100869
0.000100731
0.000102999
9.91825e-05
9.91226e-05
0.000100872
0.000100846
9.91709e-05
0.000100872
0.000100879
0.000100723
0.000102992
9.91756e-05
0.000100921
0.000100908
0.000103025
0.000103523
0.00010566
0.000101473
0.000101478
0.000103252
0.000103093
0.00010348
0.00010562
0.000101455
0.000101424
0.000103251
0.000103197
0.000101444
0.000103112
0.00010326
0.0001035
0.000105649
0.00010146
0.000103196
0.000103246
0.000105655
0.000106129
0.000108248
0.000103811
0.000103673
0.000105616
0.000105671
0.000106063
0.00010832
0.000103818
0.000103832
0.000105632
0.000105591
0.000103823
0.000105738
0.000105658
0.000106103
0.000108257
0.000103801
0.000105567
0.000105617
0.00010825
0.000108717
0.000110831
0.000106331
0.000106312
0.000108094
0.000108113
0.000108807
0.000110836
0.000106357
0.000106261
0.0001081
0.00010813
0.000106335
0.000108165
0.000108106
0.000108707
0.000110842
0.000106288
0.000108118
0.000108115
0.000110852
0.000111247
0.000113588
0.000108627
0.00010871
0.000110959
0.000111173
0.000111283
0.000113739
0.000108621
0.000108751
0.000110911
0.000111123
0.000108726
0.000111082
0.000111071
0.000111337
0.000113789
0.000108764
0.000111249
0.000111135
0.000113692
0.000114248
0.000117216
0.000111915
0.000112018
0.000114902
0.000114476
0.000114333
0.00011685
0.000111862
0.000111949
0.00011492
0.000114447
0.000111894
0.000114484
0.000114787
0.000114351
0.000116895
0.000111934
0.000114491
0.000114814
0.000117073
0.000117738
0.000119259
0.00011586
0.00011525
0.000117254
0.000117535
0.00011735
0.000119493
0.000115893
0.000115344
0.000117306
0.000117578
0.000115771
0.000117603
0.000117195
0.000117392
0.000119398
0.000115755
0.000117422
0.000117155
0.000119233
0.000119495
0.000121708
0.00011746
0.000117994
0.000119961
0.000120246
0.000119913
0.000122132
0.000117525
0.000117912
0.000119958
0.000119948
0.000117576
0.000120349
0.000120051
0.00011977
0.000121729
0.000117577
0.000119919
0.000119891
0.000121763
0.000122507
0.000126131
0.00012125
0.000121648
0.000124685
0.000124411
0.000122822
0.000125574
0.00012112
0.000121139
0.000124364
0.000124198
0.000121233
0.00012416
0.000124392
0.000122398
0.000126081
0.000121006
0.000124561
0.000124701
0.000126292
0.000126734
0.000128709
0.000125761
0.000124796
0.000128353
0.000126941
0.000125958
0.000128075
0.000125603
0.000125546
0.000128765
0.000129195
0.000125756
0.000127517
0.000129544
0.000126855
0.00012926
0.000126101
0.000129278
0.000129964
0.000129437
0.000128896
0.000127643
0.000128745
0.00012817
0.000129032
0.000132478
0.000128719
0.000130987
0.000129185
0.00012931
0.000129198
0.00013032
0.000129745
0.000132191
0.000128776
0.000129363
0.000128677
0.000130269
0.000128989
0.000127575
0.000126763
0.000126758
0.000119405
0.000128119
0.00013353
0.000120931
0.000125742
0.000130923
0.000122006
0.000128225
0.000130949
0.00012096
0.000122986
0.00012712
0.000124897
0.000119056
0.000128369
0.000120561
0.00012573
0.000123074
0.00011815
0.000117638
0.000118102
0.00012507
0.000118488
0.000120063
0.000122529
0.000109712
0.000119427
0.000110738
0.000118467
0.000118109
0.000122073
0.000111328
0.000116736
0.000110157
0.00012496
0.000118305
0.000114553
0.000116217
0.000112238
0.000126546
0.000127827
0.000129341
0.000156887
0.000129405
0.000111563
0.000155004
0.000152269
0.00011421
0.000156727
0.000129005
0.000117395
0.000154788
0.000157078
0.000132929
0.000153104
0.000158505
0.000119608
0.000160688
0.000134445
0.000157237
0.00015994
0.000161052
0.000161671
0.000175537
0.000164884
0.000168112
0.000181902
0.000194646
0.000164216
0.000189619
0.000164733
0.000171985
0.000182095
0.000193729
0.000166376
0.000193309
0.000175232
0.000167565
0.000187803
0.000167519
0.000192054
0.000175269
0.00016459
0.000173107
0.000136111
0.000182564
0.00019568
0.000152276
0.000156022
0.000187136
0.000135512
0.000182827
0.00019347
0.000152458
0.000147595
0.000173571
0.000154427
0.000143774
0.000183163
0.000129373
0.000172865
0.000146402
0.000141834
0.000130502
0.000131758
0.000117588
0.000139808
0.0001406
0.00011991
0.000122563
0.000130052
0.000120973
0.000139663
0.000132769
0.000119785
0.000118561
0.000135375
0.000122845
0.000128543
0.000123924
0.000118525
0.000133705
0.000119177
0.000127575
0.000129395
0.000118318
0.000146824
0.000118157
0.000121679
0.00014126
0.000146346
0.00012398
0.00015303
0.000118143
0.000119334
0.000142399
0.000151561
0.000131545
0.000150148
0.000156866
0.000123659
0.000156362
0.000131568
0.000154729
0.000158568
0.000159428
0.000152541
0.000168881
0.000154345
0.000156048
0.000174466
0.00016506
0.000156672
0.000157461
0.0001552
0.000158748
0.00017346
0.000162584
0.000159049
0.000163708
0.00015117
0.000158295
0.000151375
0.0001604
0.000160948
0.000150706
0.000139275
0.000168386
0.00014359
0.00017469
0.000163953
0.000156132
0.000143247
0.000155228
0.000131431
0.000173529
0.0001605
0.000156116
0.000153483
0.000146932
0.000141016
0.000144568
0.00014937
0.000143236
0.000146302
0.000150494
0.000144787
0.000140529
0.000140347
0.000135246
0.000148411
0.000139408
0.000140564
0.000141039
0.000129736
0.000144001
0.000149531
0.000152591
0.000142036
0.000153804
0.00014911
0.00014543
0.00016643
0.000144131
0.000151189
0.000150758
0.000158133
0.00016745
0.000161943
0.000137931
0.000150165
0.000141332
0.000151299
0.00015597
0.000167273
0.000149145
0.000158914
0.000142359
0.000153374
0.000153002
0.000154878
0.000166114
0.000166505
0.00015933
0.000150567
0.000147091
0.000166326
0.000155497
0.000157518
0.000147161
0.000150815
0.000164628
0.000158667
0.000168432
0.000172302
0.000175882
0.000158721
0.000167727
0.00015652
0.000159449
0.000173621
0.000180584
0.000158412
0.000175971
0.00017126
0.000148481
0.000176304
0.000156656
0.000180272
0.000172661
0.000169816
0.000169242
0.000197289
0.000179707
0.000182189
0.000206327
0.000198229
0.000172045
0.000190893
0.0001821
0.000184906
0.000205854
0.000184148
0.000181017
0.000198319
0.000189119
0.000179005
0.00016772
0.000182687
0.000184409
0.000189181
0.000177272
0.000198052
0.000165015
0.000209411
0.000199175
0.000188953
0.000173904
0.000189833
0.000151178
0.000208175
0.000177108
0.00018492
0.000158318
0.000186495
0.000170103
0.000158277
0.000162175
0.000140484
0.000185298
0.000155669
0.000156081
0.000140019
0.00015788
0.000130056
0.000172577
0.000160958
0.000140284
0.00014046
0.00014577
0.000130297
0.00016983
0.00015648
0.000141707
0.000161726
0.000153143
0.000141005
0.000150711
0.000139836
0.000158532
0.000151962
0.000163679
0.000152952
0.000149555
0.00012866
0.000152611
0.000137246
0.000138638
0.000150375
0.000164005
0.000131415
0.000163647
0.000139046
0.000167806
0.00015364
0.000185503
0.000158099
0.000168222
0.000185875
0.000162575
0.000179695
0.000162898
0.00018923
0.000188964
0.000180229
0.000158816
0.000180514
0.000164931
0.000177292
0.000194272
0.000207902
0.000169604
0.000195777
0.000166897
0.000190899
0.000193486
0.000197331
0.000193427
0.000208805
0.000202301
0.00018192
0.000184693
0.000195297
0.00019909
0.000201855
0.000188477
0.000182376
0.00018765
0.000200093
0.00021235
0.000207073
0.00021147
0.000197022
0.000186188
0.00019855
0.000196551
0.000204202
0.000180003
0.000201917
0.000208398
0.000183129
0.00018245
0.000160989
0.000200708
0.000177712
0.000180361
0.000162761
0.000186706
0.000172175
0.000206733
0.000201454
0.000189645
0.000175792
0.000181804
0.000158835
0.000203504
0.000174527
0.000188409
0.000167581
0.000176842
0.000173314
0.000169325
0.000158343
0.000153054
0.000174452
0.000164893
0.000168022
0.000155776
0.00017066
0.000163501
0.000184154
0.000170475
0.000174684
0.000164352
0.000156912
0.000154509
0.000183761
0.000167482
0.000176091
0.000181222
0.000169071
0.000164281
0.000180527
0.000154893
0.000171452
0.00016831
0.000182963
0.000183368
0.000172195
0.000162995
0.000168267
0.00017369
0.000164799
0.000177628
0.000182105
0.00015641
0.000171536
0.00017529
0.000185808
0.000180105
0.000194282
0.000184496
0.000184103
0.000190664
0.000173895
0.000180431
0.000187273
0.000195577
0.000192012
0.00017672
0.000170078
0.00017296
0.000182189
0.000186964
0.00018862
0.000194026
0.000173561
0.000177963
0.00018383
0.000195109
0.00018848
0.00019423
0.000191194
0.000194073
0.000190656
0.000180525
0.000177048
0.00019201
0.000194228
0.000190595
0.000174173
0.000172585
0.000172329
0.000188668
0.000194562
0.000188647
0.000193712
0.000177989
0.000177161
0.000188234
0.000192306
0.000187385
0.00018711
0.000190119
0.000193716
0.000188716
0.000176288
0.000171462
0.00018975
0.000187322
0.000188012
0.000172713
0.000173009
0.000178223
0.000189584
0.000193073
0.000193868
0.000191973
0.000176869
0.000175965
0.000188162
0.000186194
0.000193329
0.000186497
0.000188516
0.000191688
0.000190218
0.000170962
0.000172665
0.000187668
0.000186294
0.00018957
0.000174844
0.000178954
0.000180645
0.000195184
0.000191979
0.00019736
0.00019453
0.000175963
0.000177977
0.000194898
0.000189295
0.000197609
0.000195847
0.000190886
0.000193914
0.000194071
0.000173898
0.000179116
0.000190522
0.000195226
0.000194327
0.000177987
0.000180525
0.000179255
0.000197436
0.000195201
0.000196738
0.000196913
0.000178266
0.000179892
0.000197776
0.000197102
0.000197147
0.000198656
0.00019539
0.00019736
0.000198657
0.000179652
0.000181038
0.000195732
0.000198959
0.000198956
0.000181292
0.000178959
0.000178278
0.000196324
0.000197418
0.000195616
0.000197923
0.000180057
0.000180419
0.00019664
0.000198554
0.000195673
0.000197718
0.000199294
0.000198482
0.000199665
0.000180918
0.0001801
0.00019949
0.000198355
0.000199653
0.000181475
0.000178376
0.000180886
0.000195911
0.000197741
0.000198557
0.000197506
0.000180204
0.000179757
0.00019574
0.000197481
0.000198579
0.000198173
0.000199439
0.000197534
0.000198133
0.000179865
0.000180517
0.000199361
0.000198028
0.000198152
0.000180121
0.000181322
0.000182931
0.000199483
0.000197975
0.000201454
0.00020031
0.000179787
0.000181899
0.000199588
0.000198998
0.000201655
0.00020098
0.000197828
0.000199837
0.000198415
0.000180815
0.000182285
0.000197889
0.000200519
0.000198651
0.000180565
0.000182885
0.000182625
0.000201718
0.000201094
0.000201678
0.000202777
0.000182246
0.000183724
0.000201851
0.000201249
0.000201513
0.000201312
0.000199239
0.000202699
0.000202008
0.000182293
0.000182503
0.000199361
0.000201256
0.000201815
0.000183169
0.000182415
0.00018323
0.00020165
0.000203036
0.000202451
0.000202957
0.00018374
0.000183829
0.0002014
0.00020145
0.000202373
0.000202665
0.000202826
0.000203433
0.000204412
0.000182463
0.000183665
0.000202613
0.000203134
0.000204325
0.0001848
0.000183496
0.000185426
0.000203029
0.00020289
0.000204989
0.000203736
0.000183639
0.000184049
0.000203053
0.000203185
0.000205167
0.000204761
0.000204513
0.000203598
0.000203881
0.000183837
0.000184992
0.000204514
0.000204679
0.00020403
0.000184147
0.000185559
0.000186006
0.000205545
0.000204349
0.000206176
0.000206068
0.000184227
0.000185864
0.000205729
0.000205278
0.000206262
0.000206248
0.000203727
0.000205777
0.000204655
0.00018508
0.000185908
0.000203893
0.000205964
0.000204772
0.000184828
0.00018579
0.000185212
0.000206116
0.000206425
0.000205791
0.00020677
0.000185944
0.000186384
0.000206179
0.000206302
0.000205732
0.000206131
0.000205508
0.000207055
0.000207574
0.000185829
0.000185782
0.00020553
0.000206377
0.00020749
0.000186953
0.000185128
0.000186207
0.000205802
0.000206683
0.000206809
0.000206337
0.00018619
0.000185664
0.000205729
0.000206056
0.000206839
0.000206025
0.00020784
0.000206657
0.000207679
0.000185606
0.000185485
0.000207782
0.000206361
0.000207664
0.000186513
0.000186279
0.000187046
0.000207155
0.000206356
0.000208038
0.000207718
0.000185515
0.000186733
0.000207196
0.000205999
0.000207924
0.00020722
0.000207188
0.000207365
0.000206521
0.000185275
0.00018611
0.000207184
0.000206764
0.00020646
0.000185547
0.000187061
0.000188085
0.000208312
0.00020834
0.000209427
0.000210083
0.000187024
0.000188737
0.000208204
0.000208049
0.000209541
0.000211095
0.000206684
0.000210112
0.000209773
0.000186559
0.000189824
0.000206622
0.00021113
0.000209912
0.000188705
0.000188103
0.000188319
0.000209821
0.000210364
0.000210194
0.000210435
0.000188733
0.000188427
0.00021001
0.000211676
0.000210471
0.000211892
0.00021058
0.000210689
0.000211266
0.000189994
0.000189602
0.000210783
0.000212144
0.000211515
0.000189227
0.000188098
0.000187413
0.000210103
0.000210056
0.000209515
0.000209053
0.00018814
0.000186973
0.000210387
0.000211113
0.000209496
0.000208338
0.000211073
0.000209071
0.00020902
0.000189149
0.000186134
0.000211285
0.000208316
0.000208949
0.000186769
0.00018733
0.000188905
0.000209521
0.000209027
0.000210796
0.000210484
0.000186821
0.000188706
0.000209427
0.000207865
0.000210265
0.000208025
0.000208656
0.00021012
0.000209034
0.000185812
0.000186699
0.0002085
0.000207782
0.0002087
0.00018757
0.000189085
0.000190115
0.000211379
0.000211264
0.00021246
0.000212814
0.000189012
0.000190557
0.000210988
0.000209199
0.000212501
0.000212887
0.000210163
0.000213042
0.000213859
0.000187254
0.000190675
0.000209793
0.000213121
0.000213914
0.000191569
0.000189978
0.000189628
0.00021264
0.000213045
0.000212725
0.00021295
0.000190494
0.000189824
0.000212741
0.000213711
0.000213014
0.00021475
0.000214491
0.000213385
0.000214345
0.000190917
0.000191634
0.000214629
0.000215148
0.000214575
0.000190868
0.00018942
0.000188528
0.000212381
0.000212393
0.000211197
0.000211027
0.000189468
0.00018788
0.000212701
0.000214586
0.000211516
0.000212145
0.000212814
0.000210669
0.000208729
0.00019127
0.000188695
0.000213074
0.000211792
0.000208975
0.000185422
0.000188321
0.000189057
0.000211052
0.000210925
0.000211683
0.000211532
0.000187729
0.000189456
0.000211312
0.000211559
0.000211608
0.000210383
0.000208578
0.000211468
0.00021178
0.000188438
0.000188035
0.000208827
0.000210303
0.000211772
0.000189945
0.000189306
0.00019113
0.000212731
0.000212318
0.000214233
0.000214182
0.000189663
0.000191099
0.00021231
0.000210301
0.000213644
0.000211215
0.000214097
0.000214681
0.000217685
0.000187888
0.000188483
0.000213852
0.000211717
0.00021706
0.000194497
0.000191003
0.000188179
0.000214198
0.000214348
0.000212062
0.000212785
0.000190983
0.000189199
0.00021364
0.000212106
0.000212501
0.000214363
0.000217916
0.000213985
0.000213325
0.00018865
0.000190562
0.000217291
0.000215052
0.000213719
0.000189321
0.000188
0.000192507
0.000211876
0.000212024
0.00021511
0.000212381
0.000188603
0.000188165
0.000212706
0.000215245
0.000215834
0.000216231
0.000209857
0.000210675
0.000203793
0.000190852
0.00019243
0.000211118
0.000214319
0.000204645
0.000179767
0.000193273
0.000191128
0.000216622
0.000213965
0.00021633
0.000217027
0.000188891
0.000195069
0.000216383
0.000215895
0.000214135
0.00021229
0.000203798
0.000217196
0.000217239
0.000191995
0.000188127
0.000204335
0.000211596
0.000214047
0.000193841
0.000189504
0.000185902
0.000213568
0.000216722
0.000209148
0.000210987
0.000194966
0.000187587
0.000211795
0.000212577
0.000211228
0.00022002
0.000224483
0.000216253
0.000233752
0.00018819
0.000199866
0.000222279
0.000224879
0.000235679
0.000213256
0.000186352
0.000193437
0.000209656
0.000210629
0.000218227
0.000216889
0.000186816
0.000190226
0.000212763
0.000221383
0.000218482
0.000216584
0.000232773
0.000214722
0.000206736
0.000200527
0.000187477
0.000235603
0.000214566
0.000207816
0.00017856
0.000194959
0.000216993
0.000216247
0.000192723
0.000215748
0.000208339
0.000239591
0.000231885
0.000223811
0.000199009
0.000183734
0.00019837
0.00023473
0.000234746
0.000234729
0.000234729
0.000235117
0.000234798
0.000234701
0.000234727
0.000235118
0.000234798
0.000234727
0.000234701
0.000234867
0.000233566
0.000233566
0.000104651
3.87411e-05
0.000129118
3.98249e-05
2.16834e-05
2.28313e-05
0.000104643
3.87371e-05
0.000129114
3.98214e-05
0.000233973
0.000233973
0.000233973
0.000232935
0.000232935
0.000232935
0.000232935
0.000206196
9.36752e-05
0.000233969
0.000231994
0.000222614
8.72226e-05
0.000233611
2.16823e-05
2.28307e-05
0.00020619
0.000233969
9.36747e-05
0.000231994
0.000222622
0.000233611
8.72283e-05
4.78012e-05
4.77894e-05
0.000231345
4.40185e-05
4.4009e-05
7.25677e-05
4.2434e-05
8.14027e-05
4.37634e-05
2.47749e-05
2.54634e-05
7.25581e-05
4.24305e-05
8.13974e-05
4.37596e-05
0.000232532
0.000232532
0.000232532
0.000231084
0.000231084
0.000231083