/*--------------------------------*- C++ -*----------------------------------*\
| =========                 |                                                 |
| \\      /  F ield         | OpenFOAM: The Open Source CFD Toolbox           |
|  \\    /   O peration     | Version:  v1906                                 |
|   \\  /    A nd           | Web:      www.OpenFOAM.com                      |
|    \\/     M anipulation  |                                                 |
\*---------------------------------------------------------------------------*/
FoamFile
{
    version     2.0;
    format      ascii;
    class       volScalarField;
    location    "625";
    object      p;
}
// * * * * * * * * * * * * * * * * * * * * * * * * * * * * * * * * * * * * * //

dimensions      [0 2 -2 0 0 0 0];


internalField   nonuniform List<scalar> 
171728
(
0.00360455
0.00360488
0.00360488
0.00360793
0.0035492
0.00354961
0.00354961
0.00355261
0.00349844
0.00349842
0.00349842
0.00350117
0.00344606
0.00344607
0.00344607
0.00344885
0.00339471
0.00339472
0.00339472
0.00339747
0.00334473
0.00334474
0.00334474
0.00334746
0.00329621
0.00329622
0.00329622
0.00329891
0.00324898
0.003249
0.003249
0.00325165
0.00320285
0.00320287
0.00320287
0.0032055
0.00315762
0.00315764
0.00315764
0.00316024
0.00311311
0.00311313
0.00311313
0.0031157
0.0030692
0.00306922
0.00306922
0.00307177
0.00302581
0.00302583
0.00302583
0.00302834
0.00298288
0.0029829
0.0029829
0.0029854
0.00294039
0.0029404
0.00294039
0.0029429
0.00289829
0.0028983
0.0028983
0.00290079
0.00285659
0.00285659
0.00285659
0.00285907
0.00281524
0.00281524
0.00281524
0.0028177
0.00277423
0.00277421
0.00277421
0.00277668
0.00273353
0.0027335
0.00273351
0.00273596
0.00269312
0.00269308
0.00269308
0.00269554
0.00265298
0.00265294
0.00265294
0.00265538
0.00261309
0.00261304
0.00261304
0.00261548
0.00257344
0.00257338
0.00257338
0.00257581
0.00253401
0.00253395
0.00253395
0.00253637
0.0024948
0.00249474
0.00249474
0.00249715
0.0024558
0.00245575
0.00245575
0.00245813
0.002417
0.00241695
0.00241695
0.00241932
0.00237839
0.00237835
0.00237835
0.00238069
0.00233997
0.00233993
0.00233993
0.00234226
0.00230173
0.0023017
0.0023017
0.002304
0.00226368
0.00226364
0.00226364
0.00226592
0.00222578
0.00222575
0.00222575
0.00222801
0.00218805
0.00218803
0.00218802
0.00219027
0.00215046
0.00215045
0.00215045
0.00215267
0.00211304
0.00211303
0.00211302
0.00211523
0.00207576
0.00207575
0.00207575
0.00207793
0.00203864
0.00203863
0.00203864
0.00204079
0.00200169
0.00200165
0.00200165
0.00200381
0.00196479
0.00196477
0.00196476
0.00196689
0.00192802
0.001928
0.00192801
0.00193015
0.00189147
0.0018914
0.00189141
0.00189353
0.00185487
0.00185481
0.0018548
0.00185691
0.00181826
0.00181826
0.00181821
0.00182036
0.0017816
0.0017817
0.00178176
0.00178391
0.001746
0.00174595
0.00174603
0.00174824
0.00171247
0.00171233
0.00171215
0.00171361
0.00167619
0.00167524
0.00167514
0.00167722
0.00163611
0.00163524
0.00163536
0.00163827
0.00159863
0.00160025
0.00160045
0.00160229
0.00156532
0.00156589
0.00156594
0.00156783
0.00153114
0.00152936
0.00152885
0.00153088
0.00149347
0.00149359
0.00149426
0.00149651
0.00145899
0.00146035
0.00145959
0.00146173
0.00142464
0.00142354
0.00142343
0.0014251
0.0013895
0.0013887
0.00138984
0.00139159
0.00135444
0.00135403
0.00135307
0.00135554
0.00131545
0.00131512
0.00131591
0.00131745
0.00127881
0.00128047
0.00128095
0.00128319
0.00124662
0.00124695
0.00124531
0.00124787
0.00121292
0.00121099
0.00121097
0.00121254
0.00117545
0.00117447
0.00117525
0.00117691
0.00113815
0.00113871
0.00113952
0.00114159
0.00110269
0.00110377
0.00110352
0.0011058
0.00106827
0.00106832
0.00106721
0.00106947
0.00103345
0.00103254
0.00103256
0.0010345
0.000997777
0.000997569
0.000997951
0.000999842
0.000962616
0.000962503
0.000962779
0.000964686
0.000927203
0.00092721
0.000927201
0.000929154
0.000891748
0.000891739
0.000891543
0.000893661
0.000856298
0.000856188
0.000856126
0.000858143
0.00082079
0.000820641
0.000820696
0.000822673
0.000785266
0.00078522
0.00078521
0.000787249
0.000749722
0.000749714
0.000749699
0.000751753
0.0007143
0.000714184
0.000714245
0.000716206
0.000678848
0.000678714
0.000678708
0.000680691
0.000643206
0.000643195
0.000643139
0.000645208
0.000607562
0.000607525
0.000607544
0.000609576
0.000571981
0.00057187
0.000571901
0.000573879
0.000536327
0.000536285
0.000536269
0.000538291
0.000500699
0.000500663
0.000500684
0.000502738
0.000464984
0.000464897
0.000464858
0.0004669
0.000429117
0.00042908
0.000429039
0.000431081
0.000393362
0.000393356
0.000393411
0.000395424
0.000357639
0.000357555
0.000357625
0.000359617
0.000321757
0.000321666
0.000321607
0.00032368
0.0002857
0.000285673
0.00028561
0.000287679
0.000249754
0.000249835
0.00024983
0.000251936
0.000213949
0.00021381
0.000213869
0.000215793
0.000177745
0.000177708
0.000177772
0.000179793
0.000141942
0.000141688
0.00014168
0.000143712
0.000105589
0.000106121
0.000105692
0.000108031
6.95354e-05
6.92343e-05
6.99382e-05
7.15977e-05
3.43891e-05
3.34927e-05
3.25192e-05
3.42586e-05
4.87798e-06
6.52339e-06
6.15909e-06
5.05562e-06
0.00361796
0.00361818
0.00361818
0.00361796
0.00361818
0.00361818
0.00361895
0.00361895
0.00361895
0.00361895
0.00361818
0.00361818
0.00361796
0.00361819
0.00361819
0.00361796
0.00360793
0.00355918
0.00360488
0.00360488
0.00356146
0.00356146
0.00360793
0.00355917
0.00360488
0.00360488
0.00356145
0.00356146
0.00360488
0.00356145
0.00356146
0.00360793
0.00355918
0.00360488
0.00356145
0.00356145
0.00355918
0.00355261
0.0035081
0.00354962
0.00354962
0.00351154
0.00351154
0.00355261
0.0035081
0.00354961
0.00354962
0.00351154
0.00351154
0.00354962
0.00351154
0.00351154
0.00355261
0.0035081
0.00354961
0.00351154
0.00351154
0.0035081
0.00350117
0.00345573
0.00349842
0.00349842
0.00345909
0.00345909
0.00350117
0.00345573
0.00349842
0.00349842
0.00345909
0.00345909
0.00349842
0.00345909
0.00345909
0.00350117
0.00345573
0.00349842
0.00345909
0.00345909
0.00345573
0.00344885
0.00340418
0.00344607
0.00344607
0.00340744
0.00340744
0.00344885
0.00340418
0.00344607
0.00344607
0.00340744
0.00340744
0.00344607
0.00340744
0.00340744
0.00344885
0.00340418
0.00344607
0.00340744
0.00340744
0.00340418
0.00339747
0.00335396
0.00339472
0.00339472
0.0033571
0.0033571
0.00339747
0.00335396
0.00339472
0.00339472
0.0033571
0.0033571
0.00339472
0.0033571
0.0033571
0.00339747
0.00335396
0.00339472
0.0033571
0.0033571
0.00335396
0.00334747
0.00330521
0.00334475
0.00334475
0.00330823
0.00330823
0.00334746
0.00330521
0.00334475
0.00334474
0.00330822
0.00330823
0.00334475
0.00330823
0.00330822
0.00334746
0.00330521
0.00334475
0.00330823
0.00330822
0.00330521
0.00329891
0.00325779
0.00329623
0.00329622
0.0032607
0.0032607
0.0032989
0.00325778
0.00329622
0.00329622
0.0032607
0.0032607
0.00329623
0.0032607
0.0032607
0.0032989
0.00325778
0.00329623
0.0032607
0.00326069
0.00325778
0.00325165
0.00321149
0.003249
0.00324899
0.00321431
0.00321432
0.00325165
0.00321148
0.003249
0.003249
0.00321431
0.00321431
0.00324901
0.00321432
0.00321431
0.00325165
0.00321148
0.00324901
0.00321432
0.00321431
0.00321149
0.00320549
0.00316611
0.00320287
0.00320287
0.00316888
0.00316888
0.00320549
0.00316611
0.00320287
0.00320287
0.00316888
0.00316888
0.00320287
0.00316888
0.00316887
0.00320549
0.00316611
0.00320288
0.00316888
0.00316887
0.00316611
0.00316023
0.00312149
0.00315764
0.00315764
0.0031242
0.00312421
0.00316023
0.00312148
0.00315764
0.00315764
0.0031242
0.00312421
0.00315765
0.00312421
0.0031242
0.00316023
0.00312148
0.00315765
0.00312421
0.0031242
0.00312148
0.0031157
0.00307747
0.00311314
0.00311313
0.00308015
0.00308015
0.0031157
0.00307747
0.00311314
0.00311313
0.00308015
0.00308015
0.00311314
0.00308015
0.00308015
0.0031157
0.00307746
0.00311314
0.00308015
0.00308015
0.00307747
0.00307177
0.00303398
0.00306923
0.00306922
0.00303663
0.00303663
0.00307176
0.00303398
0.00306923
0.00306922
0.00303663
0.00303663
0.00306923
0.00303663
0.00303663
0.00307176
0.00303398
0.00306923
0.00303663
0.00303663
0.00303397
0.00302835
0.00299096
0.00302583
0.00302583
0.00299359
0.00299359
0.00302834
0.00299097
0.00302583
0.00302583
0.00299359
0.00299358
0.00302582
0.00299359
0.00299359
0.00302834
0.00299096
0.00302582
0.00299358
0.00299359
0.00299097
0.0029854
0.00294841
0.00298289
0.0029829
0.00295098
0.00295098
0.00298541
0.00294841
0.00298289
0.0029829
0.00295098
0.00295098
0.0029829
0.00295099
0.00295098
0.0029854
0.00294841
0.0029829
0.00295099
0.00295098
0.00294841
0.0029429
0.00290625
0.0029404
0.00294039
0.00290879
0.00290878
0.00294289
0.00290625
0.0029404
0.00294039
0.00290879
0.00290878
0.0029404
0.00290879
0.00290879
0.00294289
0.00290625
0.0029404
0.00290878
0.00290879
0.00290625
0.00290079
0.00286448
0.0028983
0.0028983
0.00286698
0.00286698
0.00290079
0.00286448
0.0028983
0.0028983
0.00286698
0.00286698
0.0028983
0.00286698
0.00286698
0.00290079
0.00286448
0.0028983
0.00286698
0.00286698
0.00286448
0.00285907
0.00282308
0.00285659
0.00285659
0.00282554
0.00282554
0.00285907
0.00282308
0.00285659
0.00285659
0.00282554
0.00282554
0.00285659
0.00282554
0.00282554
0.00285907
0.00282308
0.00285659
0.00282554
0.00282554
0.00282308
0.00281771
0.00278201
0.00281524
0.00281524
0.00278444
0.00278444
0.00281771
0.00278201
0.00281524
0.00281524
0.00278444
0.00278444
0.00281524
0.00278444
0.00278444
0.00281771
0.00278201
0.00281524
0.00278444
0.00278444
0.00278201
0.00277668
0.00274125
0.00277421
0.00277421
0.00274365
0.00274365
0.00277668
0.00274125
0.00277421
0.00277421
0.00274365
0.00274365
0.00277421
0.00274365
0.00274365
0.00277668
0.00274125
0.00277421
0.00274365
0.00274365
0.00274125
0.00273596
0.00270079
0.00273351
0.0027335
0.00270316
0.00270316
0.00273596
0.0027008
0.0027335
0.0027335
0.00270316
0.00270316
0.0027335
0.00270316
0.00270316
0.00273596
0.00270079
0.0027335
0.00270316
0.00270316
0.00270079
0.00269554
0.00266061
0.00269308
0.00269308
0.00266295
0.00266295
0.00269554
0.00266061
0.00269308
0.00269308
0.00266295
0.00266295
0.00269308
0.00266295
0.00266295
0.00269554
0.00266061
0.00269308
0.00266295
0.00266295
0.00266061
0.00265538
0.00262068
0.00265294
0.00265293
0.00262299
0.00262299
0.00265538
0.00262068
0.00265293
0.00265294
0.00262299
0.00262299
0.00265294
0.00262299
0.00262299
0.00265538
0.00262068
0.00265294
0.00262299
0.00262299
0.00262068
0.00261548
0.00258098
0.00261304
0.00261304
0.00258327
0.00258327
0.00261548
0.00258098
0.00261304
0.00261304
0.00258327
0.00258327
0.00261304
0.00258327
0.00258327
0.00261548
0.00258098
0.00261304
0.00258327
0.00258327
0.00258098
0.00257581
0.00254152
0.00257338
0.00257338
0.00254379
0.00254379
0.00257581
0.00254152
0.00257338
0.00257338
0.00254379
0.00254379
0.00257338
0.00254379
0.00254379
0.00257581
0.00254152
0.00257338
0.00254379
0.00254379
0.00254152
0.00253637
0.00250227
0.00253395
0.00253395
0.00250453
0.00250453
0.00253637
0.00250227
0.00253395
0.00253395
0.00250453
0.00250453
0.00253395
0.00250453
0.00250453
0.00253637
0.00250227
0.00253395
0.00250453
0.00250453
0.00250227
0.00249715
0.00246323
0.00249474
0.00249474
0.00246548
0.00246548
0.00249715
0.00246323
0.00249474
0.00249474
0.00246548
0.00246548
0.00249474
0.00246548
0.00246548
0.00249715
0.00246323
0.00249474
0.00246548
0.00246548
0.00246323
0.00245813
0.0024244
0.00245575
0.00245575
0.00242663
0.00242663
0.00245813
0.0024244
0.00245575
0.00245575
0.00242663
0.00242663
0.00245575
0.00242663
0.00242663
0.00245813
0.0024244
0.00245575
0.00242663
0.00242663
0.0024244
0.00241932
0.00238575
0.00241695
0.00241695
0.00238798
0.00238798
0.00241932
0.00238576
0.00241695
0.00241695
0.00238798
0.00238798
0.00241695
0.00238798
0.00238798
0.00241932
0.00238576
0.00241695
0.00238798
0.00238798
0.00238575
0.00238069
0.0023473
0.00237835
0.00237835
0.00234952
0.00234952
0.00238069
0.0023473
0.00237835
0.00237835
0.00234952
0.00234952
0.00237835
0.00234952
0.00234952
0.00238069
0.0023473
0.00237835
0.00234952
0.00234952
0.0023473
0.00234226
0.00230903
0.00233993
0.00233993
0.00231124
0.00231124
0.00234226
0.00230903
0.00233993
0.00233993
0.00231124
0.00231124
0.00233993
0.00231124
0.00231124
0.00234226
0.00230903
0.00233993
0.00231124
0.00231124
0.00230903
0.002304
0.00227093
0.0023017
0.0023017
0.00227314
0.00227314
0.002304
0.00227093
0.0023017
0.0023017
0.00227314
0.00227314
0.0023017
0.00227314
0.00227314
0.002304
0.00227093
0.0023017
0.00227314
0.00227314
0.00227093
0.00226592
0.002233
0.00226364
0.00226364
0.00223521
0.00223521
0.00226592
0.00223301
0.00226364
0.00226364
0.00223521
0.00223521
0.00226364
0.00223521
0.00223521
0.00226593
0.002233
0.00226364
0.00223521
0.00223521
0.002233
0.00222801
0.00219524
0.00222575
0.00222575
0.00219744
0.00219744
0.00222801
0.00219525
0.00222575
0.00222575
0.00219744
0.00219744
0.00222575
0.00219744
0.00219744
0.00222801
0.00219524
0.00222575
0.00219744
0.00219744
0.00219524
0.00219027
0.00215763
0.00218803
0.00218803
0.00215983
0.00215983
0.00219027
0.00215763
0.00218803
0.00218802
0.00215983
0.00215983
0.00218803
0.00215983
0.00215983
0.00219026
0.00215764
0.00218803
0.00215983
0.00215983
0.00215764
0.00215267
0.00212018
0.00215045
0.00215045
0.00212237
0.00212237
0.00215267
0.00212018
0.00215045
0.00215045
0.00212237
0.00212237
0.00215045
0.00212237
0.00212237
0.00215267
0.00212017
0.00215045
0.00212236
0.00212236
0.00212018
0.00211523
0.00208287
0.00211303
0.00211303
0.00208505
0.00208505
0.00211523
0.00208287
0.00211303
0.00211302
0.00208505
0.00208505
0.00211303
0.00208505
0.00208505
0.00211523
0.00208287
0.00211302
0.00208505
0.00208505
0.00208287
0.00207793
0.00204572
0.00207575
0.00207575
0.00204789
0.00204789
0.00207793
0.00204572
0.00207575
0.00207575
0.00204789
0.0020479
0.00207574
0.00204789
0.0020479
0.00207793
0.00204572
0.00207574
0.0020479
0.0020479
0.00204572
0.0020408
0.00200872
0.00203862
0.00203863
0.0020109
0.00201089
0.0020408
0.00200872
0.00203862
0.00203863
0.0020109
0.00201088
0.00203863
0.00201089
0.00201089
0.0020408
0.00200871
0.00203863
0.00201088
0.00201089
0.00200872
0.00200381
0.00197179
0.00200167
0.00200165
0.00197396
0.00197397
0.00200381
0.00197181
0.00200167
0.00200166
0.00197396
0.00197398
0.00200166
0.00197397
0.00197397
0.00200381
0.00197181
0.00200166
0.00197398
0.00197396
0.00197179
0.00196689
0.00193504
0.00196474
0.00196476
0.00193719
0.00193717
0.00196691
0.00193503
0.00196475
0.00196476
0.00193718
0.00193717
0.00196474
0.00193717
0.00193719
0.0019669
0.00193504
0.00196474
0.00193718
0.00193719
0.00193504
0.00193015
0.0018984
0.00192802
0.001928
0.00190056
0.00190057
0.00193015
0.0018984
0.00192801
0.001928
0.00190056
0.00190055
0.00192802
0.00190056
0.00190054
0.00193015
0.00189839
0.00192802
0.00190055
0.00190054
0.00189839
0.00189353
0.00186179
0.00189142
0.0018914
0.00186394
0.00186394
0.00189351
0.00186179
0.00189142
0.00189141
0.00186394
0.00186399
0.0018914
0.00186395
0.00186398
0.00189353
0.00186181
0.00189141
0.00186399
0.00186399
0.00186182
0.0018569
0.00182527
0.00185478
0.0018548
0.00182739
0.0018274
0.00185691
0.00182525
0.00185479
0.00185481
0.00182737
0.00182732
0.00185481
0.00182738
0.00182734
0.0018569
0.0018252
0.0018548
0.0018273
0.00182731
0.00182522
0.00182037
0.00178873
0.00181825
0.00181828
0.00179082
0.00179085
0.00182038
0.00178877
0.00181823
0.00181822
0.00179083
0.00179089
0.00181822
0.00179086
0.00179085
0.00182036
0.00178883
0.0018182
0.00179092
0.00179087
0.00178879
0.00178388
0.0017529
0.00178171
0.00178168
0.00175486
0.00175461
0.0017839
0.0017527
0.00178172
0.00178173
0.00175487
0.00175466
0.00178172
0.00175462
0.00175487
0.00178394
0.00175273
0.00178175
0.00175467
0.0017549
0.0017529
0.00174822
0.0017183
0.00174615
0.00174592
0.00172049
0.00172088
0.00174806
0.00171875
0.00174616
0.00174604
0.00172049
0.00172086
0.00174622
0.00172085
0.00172049
0.00174811
0.00171861
0.00174624
0.00172082
0.00172044
0.00171826
0.00171368
0.00168243
0.00171183
0.0017124
0.0016849
0.00168497
0.00171413
0.00168238
0.00171182
0.0017122
0.00168489
0.00168487
0.00171177
0.00168494
0.00168467
0.00171391
0.00168233
0.00171171
0.00168485
0.00168463
0.00168228
0.00167734
0.00164319
0.0016754
0.00167526
0.0016456
0.00164501
0.00167719
0.00164274
0.00167539
0.00167514
0.00164561
0.00164507
0.00167519
0.00164515
0.00164581
0.00167715
0.00164279
0.00167515
0.00164514
0.00164584
0.00164351
0.00163789
0.0016069
0.00163569
0.00163513
0.00160844
0.00160864
0.00163747
0.0016072
0.0016357
0.00163525
0.00160845
0.00160879
0.00163607
0.00160872
0.00160859
0.0016376
0.00160731
0.00163612
0.00160889
0.00160866
0.00160691
0.00160226
0.00157265
0.00159983
0.00160025
0.00157441
0.00157458
0.00160252
0.00157265
0.00159985
0.00160044
0.00157448
0.00157485
0.00159998
0.00157459
0.0015745
0.00160266
0.00157286
0.00160004
0.00157484
0.00157454
0.00157263
0.00156812
0.00153664
0.00156595
0.00156593
0.00153924
0.00153895
0.00156802
0.00153644
0.001566
0.00156601
0.00153909
0.00153822
0.00156566
0.00153863
0.00153804
0.00156808
0.00153581
0.00156566
0.00153794
0.00153786
0.00153575
0.00153161
0.00149987
0.00152986
0.0015296
0.00150192
0.00150211
0.00153147
0.00150017
0.00152969
0.00152903
0.00150198
0.00150251
0.00152899
0.00150228
0.00150308
0.00153094
0.00150065
0.00152883
0.00150271
0.00150314
0.00150108
0.00149505
0.00146609
0.00149291
0.00149326
0.00146775
0.00146826
0.00149549
0.00146655
0.00149303
0.00149393
0.00146777
0.0014682
0.00149467
0.00146858
0.00146869
0.00149605
0.00146641
0.0014948
0.00146852
0.00146875
0.00146665
0.00146165
0.00143181
0.00145968
0.00145997
0.00143408
0.0014336
0.00146203
0.0014309
0.00145956
0.00145946
0.0014338
0.00143271
0.00145956
0.00143307
0.00143193
0.00146164
0.00143037
0.00145949
0.00143224
0.00143175
0.00142985
0.00142683
0.00139521
0.00142489
0.00142416
0.00139723
0.001397
0.00142585
0.00139507
0.00142474
0.00142392
0.00139753
0.00139815
0.00142308
0.00139705
0.00139798
0.00142567
0.00139616
0.00142299
0.00139821
0.00139823
0.00139609
0.00139055
0.00136048
0.0013885
0.00138848
0.00136275
0.00136305
0.00139054
0.00136092
0.00138881
0.0013896
0.00136276
0.00136238
0.0013897
0.00136327
0.00136323
0.00139157
0.00136027
0.00138998
0.00136263
0.00136314
0.00136073
0.00135558
0.00132261
0.00135387
0.00135403
0.00132487
0.00132492
0.00135596
0.0013225
0.00135368
0.00135302
0.00132479
0.00132486
0.00135356
0.00132481
0.00132437
0.00135523
0.00132275
0.00135335
0.00132476
0.00132438
0.00132231
0.00131735
0.0012869
0.00131505
0.00131501
0.0012881
0.00128849
0.0013172
0.00128709
0.00131506
0.0013159
0.00128839
0.00128952
0.00131522
0.00128878
0.00128954
0.0013179
0.00128774
0.00131534
0.00128976
0.00128974
0.00128784
0.00128247
0.00125376
0.00127999
0.00128023
0.00125579
0.00125562
0.0012826
0.00125372
0.00128016
0.00128072
0.00125556
0.00125436
0.00128112
0.00125545
0.001255
0.00128304
0.00125228
0.00128114
0.00125416
0.00125473
0.00125268
0.00124923
0.00121805
0.0012475
0.00124728
0.00122087
0.00122052
0.00124917
0.00121781
0.00124715
0.0012457
0.00122061
0.00121995
0.00124615
0.0012201
0.00121956
0.00124765
0.00121761
0.00124575
0.00121959
0.00121935
0.00121727
0.00121308
0.00118149
0.00121141
0.00121126
0.00118362
0.00118348
0.00121287
0.00118133
0.00121132
0.00121116
0.00118383
0.00118416
0.0012107
0.00118361
0.00118386
0.00121284
0.00118199
0.00121066
0.00118429
0.00118408
0.00118178
0.00117659
0.00114531
0.00117449
0.00117432
0.00114713
0.00114708
0.0011764
0.00114556
0.00117476
0.00117497
0.00114739
0.00114815
0.00117484
0.00114738
0.00114821
0.00117709
0.00114632
0.00117509
0.00114843
0.00114847
0.00114641
0.00114047
0.0011102
0.00113811
0.00113837
0.00111198
0.00111241
0.00114084
0.00111061
0.00113833
0.00113922
0.00111196
0.00111237
0.00113938
0.00111257
0.0011126
0.00114148
0.0011105
0.00113957
0.00111257
0.00111261
0.00111068
0.00110547
0.00107517
0.00110334
0.00110371
0.00107733
0.00107744
0.00110583
0.00107525
0.00110326
0.0011034
0.00107706
0.00107639
0.0011036
0.00107723
0.00107655
0.00110562
0.00107419
0.00110355
0.00107613
0.0010762
0.00107428
0.00107041
0.00103963
0.00106861
0.00106861
0.00104197
0.0010416
0.00107042
0.00103933
0.00106832
0.00106755
0.00104187
0.00104132
0.00106764
0.00104138
0.00104129
0.0010694
0.00103923
0.0010673
0.00104115
0.00104125
0.0010392
0.0010348
0.00100431
0.00103296
0.00103265
0.00100628
0.0010062
0.00103453
0.00100425
0.00103294
0.00103263
0.00100642
0.00100656
0.0010326
0.00100629
0.00100654
0.00103453
0.00100463
0.00103264
0.00100665
0.00100667
0.00100457
0.000999586
0.000969349
0.000997529
0.00099746
0.000971285
0.000971235
0.000999522
0.000969277
0.000997672
0.000997854
0.0009714
0.000971573
0.000997813
0.000971299
0.000971433
0.000999899
0.000969577
0.000997932
0.000971619
0.00097152
0.000969479
0.00096457
0.000933875
0.000962478
0.000962461
0.00093592
0.000936033
0.000964503
0.000933992
0.000962581
0.000962754
0.000935929
0.000936136
0.000962587
0.000936045
0.000936004
0.000964786
0.000934006
0.000962666
0.000936159
0.000936023
0.000933964
0.000929056
0.000898439
0.000927058
0.00092719
0.00090052
0.000900588
0.000929186
0.000898527
0.000927032
0.000927167
0.000900457
0.000900398
0.000927165
0.00090061
0.000900606
0.000929145
0.000898341
0.000927148
0.000900415
0.000900538
0.00089848
0.000893642
0.000863107
0.000891688
0.000891734
0.000865166
0.000865135
0.000893723
0.000863059
0.000891628
0.000891542
0.000865133
0.000865024
0.000891723
0.000865085
0.000865032
0.000893542
0.00086298
0.000891658
0.000864979
0.000865001
0.000862962
0.000858296
0.000827576
0.000856296
0.000856241
0.000829611
0.000829543
0.000858233
0.000827503
0.000856279
0.000856175
0.000829628
0.000829587
0.000856138
0.000829515
0.000829493
0.000858174
0.000827549
0.000856116
0.000829557
0.000829507
0.000827484
0.000822742
0.00079197
0.000820706
0.000820657
0.000794019
0.000794049
0.000822681
0.000792024
0.000820727
0.000820714
0.000794024
0.000794067
0.00082063
0.000794073
0.000794075
0.000822732
0.000792024
0.000820647
0.000794092
0.000794082
0.000792057
0.000787148
0.000756473
0.000785134
0.000785187
0.000758513
0.000758564
0.000787211
0.000756525
0.000785132
0.000785174
0.000758505
0.000758531
0.000785227
0.000758601
0.000758643
0.000787197
0.000756507
0.000785227
0.000758567
0.000758634
0.000756575
0.000751663
0.00072107
0.000749653
0.000749686
0.000723098
0.000723068
0.000751704
0.000721025
0.000749649
0.000749671
0.000723112
0.000723118
0.000749763
0.000723061
0.000723081
0.000751696
0.000721073
0.000749759
0.000723112
0.000723097
0.000721032
0.00071626
0.000685599
0.000714247
0.000714202
0.00068765
0.00068761
0.000716207
0.000685558
0.000714264
0.000714263
0.000687654
0.000687633
0.000714186
0.000687579
0.00068754
0.000716258
0.000685564
0.000714205
0.0006876
0.000687543
0.000685511
0.000680766
0.000649976
0.000678758
0.000678739
0.000652034
0.000652078
0.000680738
0.000650034
0.000678755
0.000678735
0.000652017
0.000652018
0.000678668
0.000652091
0.000652073
0.000680732
0.000649979
0.000678665
0.000652033
0.000652058
0.000650031
0.000645137
0.000614378
0.000643124
0.000643165
0.000616419
0.000616427
0.000645195
0.000614388
0.000643109
0.000643113
0.000616418
0.000616427
0.000643201
0.000616447
0.000616498
0.000645145
0.000614401
0.000643187
0.000616446
0.000616498
0.000614431
0.000609545
0.000578808
0.000607524
0.000607518
0.000580839
0.000580801
0.000609546
0.000578751
0.000607529
0.000607537
0.00058085
0.00058084
0.00060756
0.000580779
0.000580757
0.000609567
0.000578787
0.000607567
0.000580817
0.000580768
0.00057872
0.000573966
0.000543134
0.000571933
0.000571896
0.00054518
0.000545189
0.000573909
0.000543147
0.000571943
0.000571928
0.000545176
0.000545177
0.00057184
0.000545178
0.000545141
0.00057394
0.000543128
0.000571848
0.000545166
0.000545139
0.000543117
0.000538291
0.000507498
0.000536264
0.000536285
0.000509541
0.000509555
0.000538309
0.000507516
0.000536258
0.000536267
0.000509544
0.00050957
0.000536264
0.000509584
0.000509628
0.00053829
0.000507527
0.00053626
0.000509598
0.00050963
0.000507584
0.000502655
0.00047179
0.000500634
0.000500638
0.000473861
0.000473851
0.00050267
0.000471792
0.000500638
0.00050066
0.000473856
0.000473829
0.000500721
0.000473847
0.000473855
0.000502683
0.000471768
0.000500725
0.000473828
0.00047385
0.000471774
0.000466927
0.000435988
0.000464917
0.000464908
0.000438041
0.000438045
0.000466928
0.000435993
0.000464907
0.000464868
0.000438026
0.000437985
0.000464884
0.000438028
0.000437985
0.000466898
0.000435947
0.000464873
0.000437969
0.000437969
0.000435938
0.000431125
0.000400252
0.000429087
0.000429094
0.000402266
0.000402275
0.000431128
0.000400249
0.000429076
0.000429055
0.00040228
0.000402317
0.000429036
0.000402282
0.000402285
0.000431095
0.000400294
0.000429025
0.000402322
0.000402298
0.000400272
0.000395401
0.000364449
0.000393335
0.000393341
0.000366502
0.000366496
0.000395395
0.00036444
0.000393355
0.000393399
0.000366528
0.000366591
0.000393372
0.000366516
0.000366567
0.000395447
0.000364518
0.00039339
0.00036661
0.000366592
0.000364497
0.000359577
0.000328593
0.000357551
0.000357545
0.000330673
0.000330664
0.000359572
0.000328589
0.000357567
0.000357612
0.000330661
0.000330629
0.000357598
0.000330654
0.000330653
0.000359633
0.000328541
0.000357618
0.000330619
0.00033064
0.000328578
0.000323714
0.000292651
0.000321698
0.000321683
0.000294709
0.000294685
0.0003237
0.000292625
0.000321681
0.000321626
0.000294689
0.000294608
0.000321648
0.000294654
0.000294578
0.000323647
0.000292546
0.000321628
0.000294577
0.000294558
0.000292545
0.00028775
0.000256656
0.000285693
0.000285693
0.000258701
0.000258754
0.000287741
0.000256755
0.00028568
0.000285629
0.000258696
0.000258735
0.000285611
0.000258798
0.000258859
0.000287676
0.000256764
0.000285599
0.000258787
0.000258865
0.000256814
0.000251791
0.000220813
0.000249739
0.000249784
0.000222861
0.000222836
0.000251882
0.000220748
0.000249736
0.000249777
0.000222879
0.000222882
0.000249896
0.000222825
0.000222812
0.000251895
0.000220798
0.000249923
0.000222867
0.000222823
0.000220703
0.000215912
0.000184669
0.00021386
0.00021384
0.000186727
0.000186766
0.000215846
0.000184667
0.000213885
0.000213898
0.000186752
0.000186812
0.000213737
0.000186758
0.00018671
0.000215893
0.00018469
0.000213757
0.0001868
0.000186729
0.000184698
0.000179754
0.00014878
0.000177697
0.000177708
0.000150833
0.000150654
0.000179726
0.000148616
0.000177722
0.000177784
0.000150838
0.000150746
0.000177705
0.00015059
0.000150634
0.000179781
0.000148718
0.000177719
0.0001507
0.000150661
0.000148632
0.000143878
0.000112635
0.000141906
0.000141747
0.00011477
0.000114989
0.000143784
0.00011305
0.000141868
0.000141723
0.000114639
0.000114516
0.000141674
0.000115151
0.00011501
0.000143799
0.000112525
0.000141662
0.000114614
0.000114884
0.000112873
0.000107642
7.64037e-05
0.000105589
0.000105926
7.83111e-05
7.83773e-05
0.000108076
7.62838e-05
0.000105506
0.000105538
7.84982e-05
7.89012e-05
0.000106149
7.8459e-05
7.87303e-05
0.000107628
7.68121e-05
0.000106016
7.9005e-05
7.89218e-05
7.6687e-05
7.15419e-05
4.0722e-05
6.94912e-05
6.93769e-05
4.28852e-05
4.25218e-05
7.12541e-05
4.03278e-05
6.96834e-05
6.99833e-05
4.27609e-05
4.23173e-05
6.94692e-05
4.2128e-05
4.15527e-05
7.18173e-05
3.99285e-05
6.96648e-05
4.19397e-05
4.14827e-05
3.9389e-05
3.56589e-05
7.46727e-06
3.39741e-05
3.38645e-05
1.06498e-05
1.09258e-05
3.53941e-05
7.90185e-06
3.37222e-05
3.29233e-05
1.03189e-05
9.94427e-06
3.23693e-05
1.08684e-05
1.09195e-05
3.47266e-05
7.2892e-06
3.21004e-05
9.88891e-06
1.05184e-05
8.03584e-06
4.24226e-06
5.91109e-06
6.10208e-06
4.63048e-06
6.02602e-06
5.7504e-06
5.13768e-06
5.09794e-06
5.72294e-06
6.51097e-06
4.48016e-06
6.56535e-06
0.00362634
0.0036361
0.0036309
0.0036309
0.00365328
0.00364006
0.00366867
0.00363411
0.00365328
0.00364006
0.00363411
0.00366867
0.00364463
0.00367241
0.00367241
0.00358169
0.00360084
0.00361003
0.00357377
0.00357451
0.00357728
0.00358167
0.00360082
0.00361002
0.00357375
0.00360455
0.00360455
0.00360455
0.00356115
0.00356115
0.00356115
0.00356115
0.00357919
0.00360502
0.00360495
0.00358802
0.00360804
0.0035781
0.0035889
0.00357461
0.00357728
0.0035792
0.00360495
0.00360503
0.00358802
0.00360804
0.0035889
0.00357809
0.00361089
0.00361088
0.00358242
0.00357773
0.00357773
0.00353506
0.00355434
0.0035557
0.0035336
0.00355325
0.00353316
0.00353506
0.00355433
0.0035557
0.00353359
0.0035492
0.00354919
0.00354919
0.00351161
0.00351161
0.00351161
0.00351161
0.00353365
0.00355442
0.00354919
0.00353733
0.00355321
0.00353419
0.00353706
0.00355325
0.00353315
0.00353365
0.00354919
0.00355442
0.00353732
0.0035532
0.00353705
0.00353419
0.00355544
0.00355543
0.00353387
0.00353452
0.00353452
0.0034828
0.0035016
0.00350267
0.00348178
0.00350124
0.00348149
0.0034828
0.0035016
0.00350267
0.00348177
0.00349844
0.00349844
0.00349844
0.00345906
0.00345907
0.00345906
0.00345906
0.0034819
0.003502
0.00349832
0.00348528
0.00350144
0.00348226
0.00348518
0.00350124
0.00348149
0.0034819
0.00349832
0.003502
0.00348528
0.00350144
0.00348518
0.00348226
0.00350224
0.00350224
0.00348189
0.00348233
0.00348233
0.00343027
0.00344893
0.00344979
0.0034295
0.00344872
0.00342933
0.00343027
0.00344893
0.00344979
0.0034295
0.00344606
0.00344606
0.00344606
0.00340743
0.00340743
0.00340743
0.00340743
0.00342977
0.00344933
0.00344602
0.00343312
0.00344905
0.00342995
0.00343308
0.00344872
0.00342932
0.00342976
0.00344602
0.00344933
0.00343312
0.00344905
0.00343308
0.00342995
0.00344937
0.00344937
0.00342981
0.00342989
0.00342989
0.00337908
0.00339743
0.00339806
0.00337852
0.00339729
0.00337839
0.00337908
0.00339743
0.00339806
0.00337852
0.00339471
0.00339471
0.00339471
0.00335709
0.00335709
0.00335709
0.00335709
0.00337881
0.00339778
0.00339469
0.00338209
0.00339761
0.00337892
0.00338206
0.00339729
0.00337839
0.00337881
0.00339469
0.00339778
0.00338208
0.00339761
0.00338206
0.00337891
0.00339777
0.00339777
0.00337888
0.00337882
0.00337882
0.00332943
0.00334738
0.00334784
0.00332904
0.00334727
0.00332892
0.00332943
0.00334738
0.00334784
0.00332904
0.00334473
0.00334473
0.00334473
0.00330821
0.00330821
0.00330821
0.00330821
0.00332932
0.00334768
0.00334472
0.00333248
0.00334757
0.00332939
0.00333246
0.00334727