/*--------------------------------*- C++ -*----------------------------------*\
| =========                 |                                                 |
| \\      /  F ield         | OpenFOAM: The Open Source CFD Toolbox           |
|  \\    /   O peration     | Version:  v1906                                 |
|   \\  /    A nd           | Web:      www.OpenFOAM.com                      |
|    \\/     M anipulation  |                                                 |
\*---------------------------------------------------------------------------*/
FoamFile
{
    version     2.0;
    format      ascii;
    class       volScalarField;
    location    "0.05";
    object      p;
}
// * * * * * * * * * * * * * * * * * * * * * * * * * * * * * * * * * * * * * //

dimensions      [0 2 -2 0 0 0 0];


internalField   nonuniform List<scalar> 
247104
(
-4.32148e-13
1.55551e-09
1.19034e-09
9.42487e-10
5.34256e-10
9.87821e-10
1.22252e-09
1.42567e-09
1.52168e-09
1.66563e-09
1.70544e-09
1.43294e-09
1.21488e-09
1.47106e-09
1.71398e-09
1.62167e-09
1.1805e-09
1.70305e-09
1.47612e-09
1.0533e-09
8.6724e-10
1.09703e-09
1.52045e-09
1.6839e-09
1.0621e-09
9.27669e-10
1.42867e-09
1.05246e-09
5.67711e-10
3.81223e-10
6.1503e-10
1.11328e-09
1.43026e-09
7.59713e-10
-2.90203e-11
5.2577e-10
1.21318e-09
8.68038e-10
3.82202e-10
1.97276e-10
4.29774e-10
9.29042e-10
1.2013e-09
3.41271e-10
9.90904e-10
1.47675e-09
1.10163e-09
6.18076e-10
4.31137e-10
6.65712e-10
1.16227e-09
1.47824e-09
8.211e-10
1.23832e-09
1.72636e-09
1.52882e-09
1.11845e-09
9.31389e-10
1.16272e-09
1.57122e-09
1.70464e-09
1.12921e-09
1.44203e-09
1.63586e-09
1.69472e-09
1.43704e-09
1.20384e-09
1.478e-09
1.70391e-09
1.59359e-09
1.07426e-09
7.67966e-10
3.4333e-10
8.18704e-10
1.13002e-09
-3.28508e-08
-3.54495e-08
-3.25343e-08
-3.45212e-08
-3.60153e-08
-3.58139e-08
-3.59532e-08
-3.12784e-08
-3.19918e-08
-3.25611e-08
-3.58438e-08
-4.06048e-08
-4.10313e-08
-4.10349e-08
-4.06125e-08
-3.5699e-08
-3.49625e-08
-3.45918e-08
-4.06161e-08
-4.07755e-08
-4.08407e-08
-4.08405e-08
-4.07729e-08
-4.06022e-08
-3.49063e-08
-3.06178e-08
-3.28797e-08
-3.60667e-08
-4.1035e-08
-4.08408e-08
-4.06859e-08
-4.06848e-08
-4.08364e-08
-4.10236e-08
-3.60092e-08
-3.19118e-08
-3.53743e-08
-3.58108e-08
-4.10317e-08
-4.08387e-08
-4.06841e-08
-4.06832e-08
-4.08346e-08
-4.10209e-08
-3.58042e-08
-3.62457e-08
-3.58917e-08
-4.06075e-08
-4.07703e-08
-4.08356e-08
-4.08358e-08
-4.07684e-08
-4.05957e-08
-3.57485e-08
-3.3527e-08
-3.12634e-08
-3.57024e-08
-4.06004e-08
-4.1024e-08
-4.10285e-08
-4.06096e-08
-3.60783e-08
-3.47249e-08
-3.04454e-08
-3.19358e-08
-3.49535e-08
-3.48956e-08
-3.59918e-08
-3.58164e-08
-3.57907e-08
-3.47253e-08
-2.91147e-08
-3.06311e-08
-3.18592e-08
-3.62381e-08
-3.35826e-08
-3.04873e-08
-5.30902e-08
-5.31068e-08
-5.36806e-08
-5.58876e-08
-5.59511e-08
-5.60083e-08
-5.5888e-08
-5.29053e-08
-5.30545e-08
-5.36693e-08
-5.61481e-08
-5.92441e-08
-5.94624e-08
-5.94676e-08
-5.92548e-08
-5.4417e-08
-5.5274e-08
-5.58928e-08
-5.92684e-08
-5.9811e-08
-5.98716e-08
-5.98708e-08
-5.98027e-08
-5.9232e-08
-5.38507e-08
-5.22225e-08
-5.30622e-08
-5.59454e-08
-5.94703e-08
-5.98764e-08
-5.99551e-08
-5.99518e-08
-5.98642e-08
-5.94455e-08
-5.43775e-08
-5.3222e-08
-5.3103e-08
-5.60002e-08
-5.94701e-08
-5.98773e-08
-5.99554e-08
-5.99519e-08
-5.98647e-08
-5.94499e-08
-5.47105e-08
-5.58217e-08
-5.58822e-08
-5.9266e-08
-5.98141e-08
-5.98726e-08
-5.98707e-08
-5.98029e-08
-5.92458e-08
-5.40428e-08
-5.26702e-08
-5.29012e-08
-5.44257e-08
-5.92559e-08
-5.94598e-08
-5.94657e-08
-5.92481e-08
-5.38765e-08
-5.44689e-08
-5.25843e-08
-5.30523e-08
-5.52864e-08
-5.38673e-08
-5.43888e-08
-5.47214e-08
-5.40513e-08
-5.44632e-08
-5.22562e-08
-5.22197e-08
-5.32202e-08
-5.58303e-08
-5.26758e-08
-5.25828e-08
-7.57898e-08
-7.58051e-08
-7.58542e-08
-7.81418e-08
-7.82439e-08
-7.83951e-08
-7.80641e-08
-7.49565e-08
-7.5159e-08
-7.58376e-08
-7.86088e-08
-8.18785e-08
-8.19755e-08
-8.19789e-08
-8.18774e-08
-7.61636e-08
-7.72029e-08
-7.81445e-08
-8.18711e-08
-8.20101e-08
-8.20318e-08
-8.20331e-08
-8.20123e-08
-8.18828e-08
-7.5422e-08
-7.44968e-08
-7.57664e-08
-7.82308e-08
-8.19722e-08
-8.20309e-08
-8.20412e-08
-8.20415e-08
-8.20309e-08
-8.1972e-08
-7.57334e-08
-7.57379e-08
-7.57911e-08
-7.83798e-08
-8.19719e-08
-8.203e-08
-8.204e-08
-8.20402e-08
-8.203e-08
-8.19757e-08
-7.60568e-08
-7.81923e-08
-7.80552e-08
-8.18707e-08
-8.20076e-08
-8.20279e-08
-8.20285e-08
-8.20064e-08
-8.18737e-08
-7.54562e-08
-7.51648e-08
-7.49213e-08
-7.61662e-08
-8.18771e-08
-8.19672e-08
-8.19698e-08
-8.18646e-08
-7.48738e-08
-7.61672e-08
-7.47026e-08
-7.51627e-08
-7.71839e-08
-7.54142e-08
-7.57265e-08
-7.6051e-08
-7.54645e-08
-7.61782e-08
-7.45485e-08
-7.44977e-08
-7.5739e-08
-7.81916e-08
-7.51654e-08
-7.46934e-08
-9.74444e-08
-9.74403e-08
-9.76302e-08
-1.00071e-07
-1.00145e-07
-1.00344e-07
-9.99408e-08
-9.67071e-08
-9.69933e-08
-9.76293e-08
-1.012e-07
-1.0445e-07
-1.04464e-07
-1.04465e-07
-1.04455e-07
-9.83764e-08
-9.90171e-08
-1.0007e-07
-1.04457e-07
-1.04472e-07
-1.04469e-07
-1.04469e-07
-1.04474e-07
-1.04456e-07
-9.70671e-08
-9.6181e-08
-9.74125e-08
-1.00149e-07
-1.04465e-07
-1.04468e-07
-1.04465e-07
-1.04465e-07
-1.0447e-07
-1.04469e-07
-9.70463e-08
-9.74025e-08
-9.74539e-08
-1.00347e-07
-1.04463e-07
-1.04467e-07
-1.04464e-07
-1.04465e-07
-1.04469e-07
-1.04466e-07
-9.73409e-08
-9.98474e-08
-9.99347e-08
-1.04449e-07
-1.0447e-07
-1.04467e-07
-1.04468e-07
-1.04472e-07
-1.04453e-07
-9.69317e-08
-9.68179e-08
-9.67083e-08
-9.83722e-08
-1.04448e-07
-1.04463e-07
-1.04465e-07
-1.04452e-07
-9.65462e-08
-9.79516e-08
-9.64291e-08
-9.70051e-08
-9.90079e-08
-9.70626e-08
-9.70433e-08
-9.73307e-08
-9.69249e-08
-9.79595e-08
-9.63703e-08
-9.6174e-08
-9.73955e-08
-9.98286e-08
-9.68086e-08
-9.64139e-08
-1.19371e-07
-1.19355e-07
-1.19626e-07
-1.22109e-07
-1.22198e-07
-1.22437e-07
-1.21968e-07
-1.18677e-07
-1.18976e-07
-1.19606e-07
-1.23497e-07
-1.2676e-07
-1.26762e-07
-1.26763e-07
-1.26762e-07
-1.20575e-07
-1.20998e-07
-1.22113e-07
-1.26752e-07
-1.26761e-07
-1.2676e-07
-1.2676e-07
-1.26762e-07
-1.26757e-07
-1.19042e-07
-1.18116e-07
-1.19338e-07
-1.22193e-07
-1.26762e-07
-1.26759e-07
-1.26757e-07
-1.26758e-07
-1.2676e-07
-1.26763e-07
-1.18905e-07
-1.1933e-07
-1.19347e-07
-1.22438e-07
-1.26761e-07
-1.26759e-07
-1.26757e-07
-1.26758e-07
-1.2676e-07
-1.26761e-07
-1.19214e-07
-1.21747e-07
-1.21957e-07
-1.26754e-07
-1.26759e-07
-1.26759e-07
-1.2676e-07
-1.26763e-07
-1.26761e-07
-1.1883e-07
-1.18741e-07
-1.18673e-07
-1.20572e-07
-1.26755e-07
-1.26761e-07
-1.26762e-07
-1.2676e-07
-1.18534e-07
-1.19935e-07
-1.18374e-07
-1.18951e-07
-1.2098e-07
-1.19028e-07
-1.18885e-07
-1.19199e-07
-1.18828e-07
-1.19946e-07
-1.18339e-07
-1.18097e-07
-1.19318e-07
-1.21733e-07
-1.18737e-07
-1.18384e-07
-1.4147e-07
-1.41445e-07
-1.41808e-07
-1.44246e-07
-1.44335e-07
-1.44594e-07
-1.44103e-07
-1.40795e-07
-1.41092e-07
-1.41743e-07
-1.45699e-07
-1.48979e-07
-1.48978e-07
-1.48979e-07
-1.4898e-07
-1.4276e-07
-1.43114e-07
-1.44259e-07
-1.48979e-07
-1.48978e-07
-1.48978e-07
-1.48978e-07
-1.48979e-07
-1.48976e-07
-1.41159e-07
-1.40224e-07
-1.41447e-07
-1.4434e-07
-1.48976e-07
-1.48977e-07
-1.48977e-07
-1.48977e-07
-1.48978e-07
-1.48979e-07
-1.40968e-07
-1.41431e-07
-1.41448e-07
-1.44594e-07
-1.48977e-07
-1.48977e-07
-1.48977e-07
-1.48978e-07
-1.48979e-07
-1.4898e-07
-1.41286e-07
-1.43837e-07
-1.44102e-07
-1.48982e-07
-1.48979e-07
-1.48978e-07
-1.48979e-07
-1.4898e-07
-1.48977e-07
-1.40945e-07
-1.40852e-07
-1.40792e-07
-1.42769e-07
-1.48978e-07
-1.48978e-07
-1.48981e-07
-1.48982e-07
-1.40667e-07
-1.42068e-07
-1.40498e-07
-1.41079e-07
-1.43119e-07
-1.41154e-07
-1.4098e-07
-1.413e-07
-1.40935e-07
-1.42074e-07
-1.40471e-07
-1.4022e-07
-1.41431e-07
-1.43838e-07
-1.40854e-07
-1.40505e-07
-1.63631e-07
-1.63606e-07
-1.63974e-07
-1.66419e-07
-1.6651e-07
-1.66768e-07
-1.6628e-07
-1.6296e-07
-1.63257e-07
-1.6391e-07
-1.67901e-07
-1.7117e-07
-1.71174e-07
-1.71174e-07
-1.71173e-07
-1.64954e-07
-1.6528e-07
-1.66428e-07
-1.71173e-07
-1.71174e-07
-1.71174e-07
-1.71175e-07
-1.71175e-07
-1.71178e-07
-1.63333e-07
-1.62387e-07
-1.63606e-07
-1.6651e-07
-1.71177e-07
-1.71175e-07
-1.71174e-07
-1.71174e-07
-1.71175e-07
-1.71176e-07
-1.63132e-07
-1.63599e-07
-1.63608e-07
-1.66761e-07
-1.71176e-07
-1.71175e-07
-1.71175e-07
-1.71175e-07
-1.71176e-07
-1.71178e-07
-1.63449e-07
-1.65999e-07
-1.66273e-07
-1.71172e-07
-1.71174e-07
-1.71175e-07
-1.71175e-07
-1.71176e-07
-1.71177e-07
-1.63111e-07
-1.63016e-07
-1.62946e-07
-1.64944e-07
-1.71171e-07
-1.71177e-07
-1.71176e-07
-1.71175e-07
-1.62821e-07
-1.64243e-07
-1.62663e-07
-1.63278e-07
-1.65286e-07
-1.63327e-07
-1.63124e-07
-1.63442e-07
-1.63091e-07
-1.64241e-07
-1.62637e-07
-1.62381e-07
-1.6359e-07
-1.65993e-07
-1.63013e-07
-1.62663e-07
-1.85808e-07
-1.85781e-07
-1.86162e-07
-1.88603e-07
-1.88692e-07
-1.88949e-07
-1.88455e-07
-1.85137e-07
-1.85444e-07
-1.86085e-07
-1.90095e-07
-1.93363e-07
-1.93365e-07
-1.93365e-07
-1.93364e-07
-1.87141e-07
-1.8746e-07
-1.88612e-07
-1.93362e-07
-1.93364e-07
-1.93364e-07
-1.93365e-07
-1.93365e-07
-1.93364e-07
-1.85514e-07
-1.84572e-07
-1.85785e-07
-1.88684e-07
-1.93363e-07
-1.93364e-07
-1.93364e-07
-1.93364e-07
-1.93365e-07
-1.93366e-07
-1.85313e-07
-1.85781e-07
-1.85786e-07
-1.8894e-07
-1.93364e-07
-1.93364e-07
-1.93364e-07
-1.93364e-07
-1.93365e-07
-1.93366e-07
-1.85622e-07
-1.88182e-07
-1.8845e-07
-1.93363e-07
-1.93364e-07
-1.93363e-07
-1.93364e-07
-1.93365e-07
-1.93366e-07
-1.85288e-07
-1.85195e-07
-1.85128e-07
-1.87146e-07
-1.93364e-07
-1.93362e-07
-1.93362e-07
-1.93364e-07
-1.84999e-07
-1.86412e-07
-1.84839e-07
-1.85456e-07
-1.87471e-07
-1.85509e-07
-1.85306e-07
-1.85626e-07
-1.8527e-07
-1.86423e-07
-1.84814e-07
-1.84567e-07
-1.85773e-07
-1.88172e-07
-1.85191e-07
-1.84841e-07
-2.07995e-07
-2.07969e-07
-2.08353e-07
-2.1079e-07
-2.1088e-07
-2.11136e-07
-2.10642e-07
-2.07323e-07
-2.07623e-07
-2.08264e-07
-2.12271e-07
-2.15552e-07
-2.15553e-07
-2.15552e-07
-2.15553e-07
-2.09324e-07
-2.09644e-07
-2.10799e-07
-2.15551e-07
-2.15553e-07
-2.15553e-07
-2.15553e-07
-2.15554e-07
-2.15554e-07
-2.07697e-07
-2.06755e-07
-2.0797e-07
-2.10872e-07
-2.15551e-07
-2.15553e-07
-2.15553e-07
-2.15553e-07
-2.15554e-07
-2.15554e-07
-2.07495e-07
-2.07964e-07
-2.07969e-07
-2.11131e-07
-2.15551e-07
-2.15554e-07
-2.15553e-07
-2.15554e-07
-2.15554e-07
-2.15554e-07
-2.07808e-07
-2.10368e-07
-2.10637e-07
-2.15553e-07
-2.15554e-07
-2.15554e-07
-2.15554e-07
-2.15554e-07
-2.15554e-07
-2.07477e-07
-2.07381e-07
-2.07316e-07
-2.09332e-07
-2.15552e-07
-2.15552e-07
-2.15553e-07
-2.15554e-07
-2.07183e-07
-2.08599e-07
-2.07025e-07
-2.07644e-07
-2.09657e-07
-2.07691e-07
-2.07485e-07
-2.07799e-07
-2.07451e-07
-2.08609e-07
-2.07e-07
-2.06751e-07
-2.07956e-07
-2.1035e-07
-2.07374e-07
-2.07026e-07
-2.30185e-07
-2.30157e-07
-2.30543e-07
-2.32986e-07
-2.3307e-07
-2.33325e-07
-2.32832e-07
-2.29517e-07
-2.29811e-07
-2.30477e-07
-2.34476e-07
-2.37747e-07
-2.3774e-07
-2.3774e-07
-2.37745e-07
-2.31511e-07
-2.31834e-07
-2.32988e-07
-2.37744e-07
-2.37744e-07
-2.37744e-07
-2.37744e-07
-2.37743e-07
-2.37742e-07
-2.29886e-07
-2.28943e-07
-2.30158e-07
-2.3306e-07
-2.37743e-07
-2.37743e-07
-2.37743e-07
-2.37743e-07
-2.37744e-07
-2.37743e-07
-2.29684e-07
-2.30152e-07
-2.30157e-07
-2.33325e-07
-2.37743e-07
-2.37744e-07
-2.37743e-07
-2.37743e-07
-2.37743e-07
-2.37743e-07
-2.29997e-07
-2.32557e-07
-2.32829e-07
-2.37743e-07
-2.37744e-07
-2.37743e-07
-2.37743e-07
-2.37743e-07
-2.37743e-07
-2.29666e-07
-2.2957e-07
-2.29505e-07
-2.31522e-07
-2.37744e-07
-2.37743e-07
-2.37743e-07
-2.37743e-07
-2.29372e-07
-2.30788e-07
-2.29214e-07
-2.29833e-07
-2.31846e-07
-2.2988e-07
-2.29671e-07
-2.29989e-07
-2.29644e-07
-2.30798e-07
-2.29189e-07
-2.2894e-07
-2.30145e-07
-2.32539e-07
-2.29564e-07
-2.29215e-07
-2.52373e-07
-2.52345e-07
-2.52667e-07
-2.5517e-07
-2.55257e-07
-2.55513e-07
-2.55019e-07
-2.51704e-07
-2.52005e-07
-2.52645e-07
-2.56662e-07
-2.59932e-07
-2.59932e-07
-2.5993e-07
-2.59932e-07
-2.53703e-07
-2.54025e-07
-2.55178e-07
-2.59932e-07
-2.59932e-07
-2.59932e-07
-2.59932e-07
-2.59932e-07
-2.59931e-07
-2.52075e-07
-2.51132e-07
-2.52348e-07
-2.5525e-07
-2.59932e-07
-2.59932e-07
-2.59932e-07
-2.59931e-07
-2.59932e-07
-2.59931e-07
-2.51873e-07
-2.52341e-07
-2.52347e-07
-2.55512e-07
-2.59932e-07
-2.59932e-07
-2.59932e-07
-2.59931e-07
-2.59931e-07
-2.59931e-07
-2.52186e-07
-2.54746e-07
-2.55017e-07
-2.59932e-07
-2.59932e-07
-2.59932e-07
-2.59932e-07
-2.59931e-07
-2.59931e-07
-2.51854e-07
-2.51758e-07
-2.51695e-07
-2.5371e-07
-2.59931e-07
-2.5993e-07
-2.5993e-07
-2.59931e-07
-2.5156e-07
-2.52976e-07
-2.51402e-07
-2.52023e-07
-2.54035e-07
-2.52069e-07
-2.51859e-07
-2.52177e-07
-2.51832e-07
-2.52987e-07
-2.51378e-07
-2.51129e-07
-2.52334e-07
-2.54728e-07
-2.51752e-07
-2.51404e-07
-2.74562e-07
-2.74533e-07
-2.7486e-07
-2.77358e-07
-2.77447e-07
-2.77702e-07
-2.77207e-07
-2.73893e-07
-2.74186e-07
-2.74839e-07
-2.78851e-07
-2.8212e-07
-2.82121e-07
-2.82122e-07
-2.82122e-07
-2.7589e-07
-2.76217e-07
-2.77366e-07
-2.8212e-07
-2.8212e-07
-2.8212e-07
-2.82119e-07
-2.82119e-07
-2.8212e-07
-2.74264e-07
-2.73321e-07
-2.74535e-07
-2.77438e-07
-2.8212e-07
-2.8212e-07
-2.8212e-07
-2.8212e-07
-2.8212e-07
-2.8212e-07
-2.74061e-07
-2.74529e-07
-2.74534e-07
-2.777e-07
-2.8212e-07
-2.8212e-07
-2.82119e-07
-2.82119e-07
-2.82119e-07
-2.82119e-07
-2.74374e-07
-2.76934e-07
-2.77205e-07
-2.82119e-07
-2.82119e-07
-2.82119e-07
-2.82119e-07
-2.82119e-07
-2.82119e-07
-2.74042e-07
-2.73946e-07
-2.73882e-07
-2.75898e-07
-2.82119e-07
-2.82119e-07
-2.82119e-07
-2.82119e-07
-2.73748e-07
-2.75164e-07
-2.7359e-07
-2.74211e-07
-2.76223e-07
-2.74256e-07
-2.74046e-07
-2.74361e-07
-2.7402e-07
-2.75174e-07
-2.73565e-07
-2.73316e-07
-2.74521e-07
-2.76915e-07
-2.7394e-07
-2.73592e-07
-2.9675e-07
-2.96722e-07
-2.97048e-07
-2.99546e-07
-2.99635e-07
-2.9989e-07
-2.99401e-07
-2.96083e-07
-2.96371e-07
-2.97023e-07
-3.01038e-07
-3.04307e-07
-3.04308e-07
-3.04308e-07
-3.04307e-07
-2.98077e-07
-2.98405e-07
-2.99553e-07
-3.04307e-07
-3.04307e-07
-3.04307e-07
-3.04307e-07
-3.04307e-07
-3.04307e-07
-2.96451e-07
-2.95508e-07
-2.96723e-07
-2.99625e-07
-3.04307e-07
-3.04307e-07
-3.04307e-07
-3.04307e-07
-3.04307e-07
-3.04307e-07
-2.96249e-07
-2.96717e-07
-2.96722e-07
-2.99887e-07
-3.04307e-07
-3.04307e-07
-3.04307e-07
-3.04307e-07
-3.04307e-07
-3.04307e-07
-2.96561e-07
-2.99121e-07
-2.99393e-07
-3.04307e-07
-3.04307e-07
-3.04307e-07
-3.04307e-07
-3.04307e-07
-3.04307e-07
-2.9623e-07
-2.96134e-07
-2.9607e-07
-2.98086e-07
-3.04307e-07
-3.04307e-07
-3.04307e-07
-3.04307e-07
-2.95936e-07
-2.97352e-07
-2.95778e-07
-2.96398e-07
-2.9841e-07
-2.96444e-07
-2.96234e-07
-2.96549e-07
-2.96207e-07
-2.97362e-07
-2.95753e-07
-2.95504e-07
-2.96709e-07
-2.99102e-07
-2.96128e-07
-2.95779e-07
-3.18939e-07
-3.18911e-07
-3.19234e-07
-3.21734e-07
-3.21824e-07
-3.22078e-07
-3.21584e-07
-3.18275e-07
-3.18561e-07
-3.19212e-07
-3.23226e-07
-3.26496e-07
-3.26496e-07
-3.26495e-07
-3.26495e-07
-3.20265e-07
-3.20592e-07
-3.21741e-07
-3.26496e-07
-3.26496e-07
-3.26496e-07
-3.26495e-07
-3.26495e-07
-3.26494e-07
-3.1864e-07
-3.17697e-07
-3.18911e-07
-3.21814e-07
-3.26496e-07
-3.26496e-07
-3.26495e-07
-3.26495e-07
-3.26495e-07
-3.26495e-07
-3.18437e-07
-3.18905e-07
-3.1891e-07
-3.22074e-07
-3.26495e-07
-3.26495e-07
-3.26495e-07
-3.26495e-07
-3.26495e-07
-3.26495e-07
-3.18749e-07
-3.2131e-07
-3.2158e-07
-3.26495e-07
-3.26495e-07
-3.26495e-07
-3.26495e-07
-3.26495e-07
-3.26495e-07
-3.18418e-07
-3.18322e-07
-3.18258e-07
-3.20273e-07
-3.26495e-07
-3.26495e-07
-3.26496e-07
-3.26495e-07
-3.18124e-07
-3.1954e-07
-3.17965e-07
-3.18586e-07
-3.20598e-07
-3.18631e-07
-3.18421e-07
-3.18736e-07
-3.18395e-07
-3.1955e-07
-3.17941e-07
-3.17692e-07
-3.18896e-07
-3.2129e-07
-3.18313e-07
-3.17967e-07
-3.41127e-07
-3.41099e-07
-3.41425e-07
-3.43922e-07
-3.44012e-07
-3.44267e-07
-3.43771e-07
-3.4046e-07
-3.4075e-07
-3.414e-07
-3.45415e-07
-3.48688e-07
-3.48684e-07
-3.48684e-07
-3.48684e-07
-3.42457e-07
-3.42781e-07
-3.4393e-07
-3.48683e-07
-3.48685e-07
-3.48684e-07
-3.48684e-07
-3.48684e-07
-3.48684e-07
-3.40828e-07
-3.39886e-07
-3.41099e-07
-3.44004e-07
-3.48684e-07
-3.48684e-07
-3.48684e-07
-3.48684e-07
-3.48684e-07
-3.48684e-07
-3.40625e-07
-3.41094e-07
-3.41098e-07
-3.44264e-07
-3.48684e-07
-3.48684e-07
-3.48684e-07
-3.48684e-07
-3.48684e-07
-3.48684e-07
-3.40938e-07
-3.43498e-07
-3.43769e-07
-3.48684e-07
-3.48684e-07
-3.48684e-07
-3.48685e-07
-3.48684e-07
-3.48684e-07
-3.40606e-07
-3.4051e-07
-3.40446e-07
-3.42462e-07
-3.48684e-07
-3.48684e-07
-3.48685e-07
-3.48684e-07
-3.40312e-07
-3.41728e-07
-3.40153e-07
-3.40774e-07
-3.42787e-07
-3.4082e-07
-3.40609e-07
-3.40925e-07
-3.40584e-07
-3.41739e-07
-3.40128e-07
-3.3988e-07
-3.41083e-07
-3.43493e-07
-3.40502e-07
-3.40157e-07
-3.63315e-07
-3.63289e-07
-3.63618e-07
-3.66104e-07
-3.662e-07
-3.66456e-07
-3.65961e-07
-3.62652e-07
-3.62935e-07
-3.63581e-07
-3.67602e-07
-3.70872e-07
-3.70873e-07
-3.70873e-07
-3.70872e-07
-3.64645e-07
-3.64968e-07
-3.66119e-07
-3.70872e-07
-3.70872e-07
-3.70872e-07
-3.70872e-07
-3.70872e-07
-3.70871e-07
-3.63016e-07
-3.62073e-07
-3.63289e-07
-3.66193e-07
-3.70872e-07
-3.70872e-07
-3.70872e-07
-3.70872e-07
-3.70872e-07
-3.70872e-07
-3.62813e-07
-3.63282e-07
-3.63287e-07
-3.66453e-07
-3.70873e-07
-3.70873e-07
-3.70872e-07
-3.70872e-07
-3.70872e-07
-3.70872e-07
-3.63126e-07
-3.65686e-07
-3.65958e-07
-3.70873e-07
-3.70873e-07
-3.70873e-07
-3.70872e-07
-3.70872e-07
-3.70872e-07
-3.62794e-07
-3.62698e-07
-3.62635e-07
-3.64651e-07
-3.70872e-07
-3.70872e-07
-3.70872e-07
-3.70872e-07
-3.625e-07
-3.63917e-07
-3.62342e-07
-3.62963e-07
-3.64975e-07
-3.63009e-07
-3.62799e-07
-3.63114e-07
-3.62773e-07
-3.63928e-07
-3.62318e-07
-3.62069e-07
-3.63274e-07
-3.65668e-07
-3.62692e-07
-3.62347e-07
-3.85504e-07
-3.85477e-07
-3.85801e-07
-3.88294e-07
-3.88388e-07
-3.88644e-07
-3.88149e-07
-3.84842e-07
-3.85124e-07
-3.85778e-07
-3.89791e-07
-3.9306e-07
-3.93063e-07
-3.9306e-07
-3.9306e-07
-3.86832e-07
-3.87157e-07
-3.88307e-07
-3.9306e-07
-3.9306e-07
-3.9306e-07
-3.9306e-07
-3.9306e-07
-3.9306e-07
-3.85204e-07
-3.84262e-07
-3.85477e-07
-3.88381e-07
-3.9306e-07
-3.9306e-07
-3.9306e-07
-3.9306e-07
-3.9306e-07
-3.9306e-07
-3.85001e-07
-3.8547e-07
-3.85476e-07
-3.88641e-07
-3.93061e-07
-3.93061e-07
-3.93061e-07
-3.9306e-07
-3.9306e-07
-3.9306e-07
-3.85314e-07
-3.87875e-07
-3.88146e-07
-3.93061e-07
-3.93061e-07
-3.93061e-07
-3.93061e-07
-3.9306e-07
-3.9306e-07
-3.84983e-07
-3.84887e-07
-3.84823e-07
-3.86839e-07
-3.93061e-07
-3.93062e-07
-3.93061e-07
-3.9306e-07
-3.84688e-07
-3.86104e-07
-3.8453e-07
-3.85151e-07
-3.87164e-07
-3.85197e-07
-3.84987e-07
-3.85305e-07
-3.84961e-07
-3.86115e-07
-3.84506e-07
-3.84257e-07
-3.85461e-07
-3.87859e-07
-3.84879e-07
-3.84535e-07
-4.0769e-07
-4.07663e-07
-4.07987e-07
-4.10483e-07
-4.10575e-07
-4.10831e-07
-4.10335e-07
-4.07029e-07
-4.07311e-07
-4.07967e-07
-4.11977e-07
-4.15248e-07
-4.15247e-07
-4.15247e-07
-4.15247e-07
-4.09019e-07
-4.09344e-07
-4.10495e-07
-4.15248e-07
-4.15247e-07
-4.15247e-07
-4.15247e-07
-4.15247e-07
-4.15247e-07
-4.07391e-07
-4.06449e-07
-4.07665e-07
-4.10568e-07
-4.15248e-07
-4.15247e-07
-4.15247e-07
-4.15247e-07
-4.15247e-07
-4.15247e-07
-4.07189e-07
-4.07657e-07
-4.07663e-07
-4.10828e-07
-4.15247e-07
-4.15247e-07
-4.15247e-07
-4.15247e-07
-4.15247e-07
-4.15247e-07
-4.07501e-07
-4.10061e-07
-4.10333e-07
-4.15247e-07
-4.15247e-07
-4.15248e-07
-4.15247e-07
-4.15247e-07
-4.15247e-07
-4.0717e-07
-4.07074e-07
-4.0701e-07
-4.09026e-07
-4.15247e-07
-4.15248e-07
-4.15248e-07
-4.15247e-07
-4.06876e-07
-4.08292e-07
-4.06717e-07
-4.07338e-07
-4.09351e-07
-4.07386e-07
-4.07175e-07
-4.07492e-07
-4.07149e-07
-4.08303e-07
-4.06692e-07
-4.06445e-07
-4.07649e-07
-4.10044e-07
-4.07066e-07
-4.06723e-07
-4.29876e-07
-4.29849e-07
-4.30173e-07
-4.32672e-07
-4.32761e-07
-4.33017e-07
-4.32521e-07
-4.29219e-07
-4.29498e-07
-4.30153e-07
-4.34163e-07
-4.37433e-07
-4.37433e-07
-4.37433e-07
-4.37433e-07
-4.31205e-07
-4.3153e-07
-4.32681e-07
-4.37433e-07
-4.37433e-07
-4.37433e-07
-4.37433e-07
-4.37433e-07
-4.37433e-07
-4.29578e-07
-4.28635e-07
-4.29851e-07
-4.32753e-07
-4.37433e-07
-4.37433e-07
-4.37433e-07
-4.37433e-07
-4.37433e-07
-4.37433e-07
-4.29375e-07
-4.29843e-07
-4.29849e-07
-4.33013e-07
-4.37433e-07
-4.37433e-07
-4.37433e-07
-4.37433e-07
-4.37433e-07
-4.37433e-07
-4.29688e-07
-4.32248e-07
-4.32519e-07
-4.37433e-07
-4.37433e-07
-4.37433e-07
-4.37433e-07
-4.37433e-07
-4.37433e-07
-4.29356e-07
-4.2926e-07
-4.29196e-07
-4.31212e-07
-4.37433e-07
-4.37433e-07
-4.37433e-07
-4.37433e-07
-4.29062e-07
-4.30478e-07
-4.28904e-07
-4.29524e-07
-4.31537e-07
-4.29571e-07
-4.29362e-07
-4.2968e-07
-4.29335e-07
-4.30489e-07
-4.2888e-07
-4.28631e-07
-4.29835e-07
-4.32231e-07
-4.29253e-07
-4.28908e-07
-4.52063e-07
-4.52035e-07
-4.5236e-07
-4.5486e-07
-4.54948e-07
-4.55203e-07
-4.54707e-07
-4.51405e-07
-4.51688e-07
-4.52337e-07
-4.56348e-07
-4.59619e-07
-4.59619e-07
-4.59619e-07
-4.5962e-07
-4.53391e-07
-4.53716e-07
-4.54867e-07
-4.59618e-07
-4.59619e-07
-4.59619e-07
-4.59619e-07
-4.5962e-07
-4.5962e-07
-4.51764e-07
-4.50821e-07
-4.52037e-07
-4.54939e-07
-4.59619e-07
-4.59619e-07
-4.59619e-07
-4.59619e-07
-4.5962e-07
-4.5962e-07
-4.51561e-07
-4.52031e-07
-4.52034e-07
-4.55198e-07
-4.59619e-07
-4.59619e-07
-4.59619e-07
-4.59619e-07
-4.59619e-07
-4.5962e-07
-4.51874e-07
-4.54434e-07
-4.54704e-07
-4.59619e-07
-4.59619e-07
-4.59619e-07
-4.59619e-07
-4.59619e-07
-4.59619e-07
-4.51543e-07
-4.51446e-07
-4.51382e-07
-4.53398e-07
-4.59619e-07
-4.59619e-07
-4.59619e-07
-4.59619e-07
-4.51248e-07
-4.52664e-07
-4.5109e-07
-4.5171e-07
-4.53723e-07
-4.51757e-07
-4.51548e-07
-4.51867e-07
-4.51521e-07
-4.52675e-07
-4.51066e-07
-4.50816e-07
-4.52021e-07
-4.54419e-07
-4.51441e-07
-4.51093e-07
-4.74251e-07
-4.74223e-07
-4.74537e-07
-4.77048e-07
-4.77135e-07
-4.7739e-07
-4.76893e-07
-4.73595e-07
-4.73878e-07
-4.74517e-07
-4.78534e-07
-4.81806e-07
-4.81807e-07
-4.81807e-07
-4.81807e-07
-4.75579e-07
-4.75903e-07
-4.77054e-07
-4.81806e-07
-4.81806e-07
-4.81807e-07
-4.81807e-07
-4.81807e-07
-4.81807e-07
-4.73951e-07
-4.73008e-07
-4.74224e-07
-4.77126e-07
-4.81807e-07
-4.81807e-07
-4.81807e-07
-4.81807e-07
-4.81807e-07
-4.81807e-07
-4.73748e-07
-4.74218e-07
-4.74221e-07
-4.77385e-07
-4.81806e-07
-4.81806e-07
-4.81807e-07
-4.81807e-07
-4.81807e-07
-4.81807e-07
-4.74061e-07
-4.76621e-07
-4.76891e-07
-4.81806e-07
-4.81806e-07
-4.81807e-07
-4.81807e-07
-4.81807e-07
-4.81807e-07
-4.7373e-07
-4.73633e-07
-4.73569e-07
-4.75585e-07
-4.81806e-07
-4.81806e-07
-4.81807e-07
-4.81807e-07
-4.73435e-07
-4.74851e-07
-4.73277e-07
-4.73897e-07
-4.7591e-07
-4.73944e-07
-4.73735e-07
-4.74054e-07
-4.73708e-07
-4.74862e-07
-4.73253e-07
-4.73003e-07
-4.74208e-07
-4.76606e-07
-4.73628e-07
-4.7328e-07
-4.96438e-07
-4.9641e-07
-4.96728e-07
-4.99235e-07
-4.99323e-07
-4.99578e-07
-4.99081e-07
-4.95783e-07
-4.96065e-07
-4.96713e-07
-5.00723e-07
-5.03994e-07
-5.03994e-07
-5.03994e-07
-5.03994e-07
-4.97766e-07
-4.98091e-07
-4.99241e-07
-5.03994e-07
-5.03994e-07
-5.03994e-07
-5.03994e-07
-5.03994e-07
-5.03994e-07
-4.96138e-07
-4.95195e-07
-4.96411e-07
-4.99313e-07
-5.03994e-07
-5.03994e-07
-5.03994e-07
-5.03994e-07
-5.03994e-07
-5.03994e-07
-4.95936e-07
-4.96406e-07
-4.96409e-07
-4.99574e-07
-5.03994e-07
-5.03994e-07
-5.03994e-07
-5.03994e-07
-5.03994e-07
-5.03994e-07
-4.96248e-07
-4.98809e-07
-4.99079e-07
-5.03994e-07
-5.03994e-07
-5.03994e-07
-5.03994e-07
-5.03994e-07
-5.03994e-07
-4.95917e-07
-4.95821e-07
-4.95757e-07
-4.97772e-07
-5.03994e-07
-5.03994e-07
-5.03994e-07
-5.03994e-07
-4.95623e-07
-4.97039e-07
-4.95465e-07
-4.96085e-07
-4.98098e-07
-4.96132e-07
-4.95923e-07
-4.96241e-07
-4.95896e-07
-4.9705e-07
-4.95441e-07
-4.95191e-07
-4.96396e-07
-4.98793e-07
-4.95815e-07
-4.95467e-07
-5.18625e-07
-5.18597e-07
-5.18918e-07
-5.21423e-07
-5.2151e-07
-5.21765e-07
-5.21268e-07
-5.17964e-07
-5.1825e-07
-5.18901e-07
-5.22911e-07
-5.26182e-07
-5.26182e-07
-5.26182e-07
-5.26182e-07
-5.19955e-07
-5.20278e-07
-5.21429e-07
-5.26182e-07
-5.26182e-07
-5.26182e-07
-5.26182e-07
-5.26182e-07
-5.26182e-07
-5.18326e-07
-5.17383e-07
-5.18598e-07
-5.215e-07
-5.26182e-07
-5.26182e-07
-5.26182e-07
-5.26182e-07
-5.26182e-07
-5.26182e-07
-5.18123e-07
-5.18594e-07
-5.18596e-07
-5.21762e-07
-5.26182e-07
-5.26182e-07
-5.26182e-07
-5.26182e-07
-5.26182e-07
-5.26182e-07
-5.18436e-07
-5.20996e-07
-5.21267e-07
-5.26182e-07
-5.26182e-07
-5.26182e-07
-5.26182e-07
-5.26182e-07
-5.26182e-07
-5.18105e-07
-5.18009e-07
-5.17944e-07
-5.1996e-07
-5.26182e-07
-5.26182e-07
-5.26182e-07
-5.26182e-07
-5.1781e-07
-5.19227e-07
-5.17653e-07
-5.18273e-07
-5.20285e-07
-5.18319e-07
-5.1811e-07
-5.18429e-07
-5.18083e-07
-5.19237e-07
-5.17628e-07
-5.17379e-07
-5.18584e-07
-5.20981e-07
-5.18003e-07
-5.17655e-07
-5.40812e-07
-5.40785e-07
-5.41106e-07
-5.43608e-07
-5.43698e-07
-5.43952e-07
-5.43456e-07
-5.40152e-07
-5.40478e-07
-5.41089e-07
-5.451e-07
-5.48369e-07
-5.48369e-07
-5.48369e-07
-5.48369e-07
-5.4214e-07
-5.42468e-07
-5.43617e-07
-5.4837e-07
-5.48369e-07
-5.4837e-07
-5.48369e-07
-5.48369e-07
-5.48369e-07
-5.40514e-07
-5.39574e-07
-5.40786e-07
-5.43688e-07
-5.48369e-07
-5.48369e-07
-5.48369e-07
-5.48369e-07
-5.48369e-07
-5.48369e-07
-5.40311e-07
-5.40782e-07
-5.40784e-07
-5.43949e-07
-5.48369e-07
-5.48369e-07
-5.48369e-07
-5.48369e-07
-5.48369e-07
-5.48369e-07
-5.40623e-07
-5.43184e-07
-5.43455e-07
-5.48369e-07
-5.48369e-07
-5.48369e-07
-5.48369e-07
-5.48369e-07
-5.4837e-07
-5.40292e-07
-5.40196e-07
-5.40132e-07
-5.42147e-07
-5.48369e-07
-5.48369e-07
-5.48369e-07
-5.48369e-07
-5.39998e-07
-5.41414e-07
-5.3984e-07
-5.4046e-07
-5.42473e-07
-5.40507e-07
-5.40298e-07
-5.40616e-07
-5.40271e-07
-5.41425e-07
-5.39816e-07
-5.39566e-07
-5.40771e-07
-5.43169e-07
-5.40191e-07
-5.39843e-07
-5.63e-07
-5.62972e-07
-5.63296e-07
-5.65794e-07
-5.65884e-07
-5.6614e-07
-5.65644e-07
-5.62338e-07
-5.62627e-07
-5.63322e-07
-5.67288e-07
-5.70557e-07
-5.70557e-07
-5.70557e-07
-5.70557e-07
-5.6433e-07
-5.64653e-07
-5.65801e-07
-5.70557e-07
-5.70557e-07
-5.70557e-07
-5.70557e-07
-5.70557e-07
-5.70557e-07
-5.627e-07
-5.61758e-07
-5.62974e-07
-5.65875e-07
-5.70557e-07
-5.70557e-07
-5.70557e-07
-5.70557e-07
-5.70557e-07
-5.70557e-07
-5.62498e-07
-5.62968e-07
-5.62971e-07
-5.66135e-07
-5.70556e-07
-5.70557e-07
-5.70557e-07
-5.70557e-07
-5.70557e-07
-5.70557e-07
-5.6281e-07
-5.65371e-07
-5.65641e-07
-5.70556e-07
-5.70557e-07
-5.70557e-07
-5.70557e-07
-5.70557e-07
-5.70557e-07
-5.62479e-07
-5.62383e-07
-5.62319e-07
-5.64335e-07
-5.70556e-07
-5.70557e-07
-5.70557e-07
-5.70557e-07
-5.62185e-07
-5.63601e-07
-5.62027e-07
-5.62647e-07
-5.6466e-07
-5.62694e-07
-5.62485e-07
-5.62803e-07
-5.62458e-07
-5.63612e-07
-5.62003e-07
-5.61754e-07
-5.62958e-07
-5.65356e-07
-5.62378e-07
-5.6203e-07
-5.85187e-07
-5.85159e-07
-5.8548e-07
-5.87981e-07
-5.88071e-07
-5.88327e-07
-5.87831e-07
-5.84524e-07
-5.84812e-07
-5.85466e-07
-5.89475e-07
-5.92744e-07
-5.92744e-07
-5.92744e-07
-5.92744e-07
-5.86517e-07
-5.86841e-07
-5.87992e-07
-5.92745e-07
-5.92744e-07
-5.92744e-07
-5.92744e-07
-5.92744e-07
-5.92744e-07
-5.84888e-07
-5.83945e-07
-5.85161e-07
-5.88063e-07
-5.92744e-07
-5.92744e-07
-5.92744e-07
-5.92744e-07
-5.92744e-07
-5.92744e-07
-5.84685e-07
-5.85155e-07
-5.85159e-07
-5.88324e-07
-5.92744e-07
-5.92744e-07
-5.92744e-07
-5.92744e-07
-5.92744e-07
-5.92744e-07
-5.84997e-07
-5.87558e-07
-5.87829e-07
-5.92744e-07
-5.92744e-07
-5.92744e-07
-5.92744e-07
-5.92744e-07
-5.92744e-07
-5.84666e-07
-5.8457e-07
-5.84506e-07
-5.86522e-07
-5.92744e-07
-5.92744e-07
-5.92744e-07
-5.92744e-07
-5.84372e-07
-5.85788e-07
-5.84214e-07
-5.84835e-07
-5.86847e-07
-5.84881e-07
-5.84672e-07
-5.8499e-07
-5.84645e-07
-5.85799e-07
-5.8419e-07
-5.83941e-07
-5.85146e-07
-5.87543e-07
-5.84565e-07
-5.84217e-07
-6.07373e-07
-6.07346e-07
-6.07679e-07
-6.10168e-07
-6.10258e-07
-6.10514e-07
-6.1002e-07
-6.06712e-07
-6.07001e-07
-6.07665e-07
-6.11665e-07
-6.14935e-07
-6.14932e-07
-6.14932e-07
-6.14932e-07
-6.08704e-07
-6.09028e-07
-6.10179e-07
-6.14932e-07
-6.14931e-07
-6.14931e-07
-6.14932e-07
-6.14932e-07
-6.14932e-07
-6.07076e-07
-6.06132e-07
-6.07349e-07
-6.10251e-07
-6.14932e-07
-6.14932e-07
-6.14932e-07
-6.14932e-07
-6.14932e-07
-6.14932e-07
-6.06872e-07
-6.07342e-07
-6.07348e-07
-6.10512e-07
-6.14932e-07
-6.14932e-07
-6.14932e-07
-6.14932e-07
-6.14932e-07
-6.14932e-07
-6.07185e-07
-6.09746e-07
-6.10017e-07
-6.14932e-07
-6.14932e-07
-6.14932e-07
-6.14932e-07
-6.14932e-07
-6.14932e-07
-6.06854e-07
-6.06758e-07
-6.06694e-07
-6.08709e-07
-6.14932e-07
-6.14932e-07
-6.14932e-07
-6.14932e-07
-6.06559e-07
-6.07976e-07
-6.06402e-07
-6.07022e-07
-6.09035e-07
-6.07069e-07
-6.0686e-07
-6.07178e-07
-6.06832e-07
-6.07986e-07
-6.06378e-07
-6.06128e-07
-6.07333e-07
-6.09731e-07
-6.06752e-07
-6.06404e-07
-6.29562e-07
-6.29534e-07
-6.29866e-07
-6.32356e-07
-6.32447e-07
-6.32703e-07
-6.32207e-07
-6.28894e-07
-6.2919e-07
-6.29845e-07
-6.33853e-07
-6.37125e-07
-6.37122e-07
-6.37125e-07
-6.37121e-07
-6.30894e-07
-6.31218e-07
-6.32369e-07
-6.37121e-07
-6.3712e-07
-6.3712e-07
-6.3712e-07
-6.3712e-07
-6.3712e-07
-6.29264e-07
-6.28321e-07
-6.29538e-07
-6.3244e-07
-6.37121e-07
-6.37121e-07
-6.37121e-07
-6.37121e-07
-6.3712e-07
-6.3712e-07
-6.2906e-07
-6.29531e-07
-6.29536e-07
-6.32701e-07
-6.37121e-07
-6.37121e-07
-6.37121e-07
-6.37121e-07
-6.3712e-07
-6.3712e-07
-6.29373e-07
-6.31934e-07
-6.32206e-07
-6.37121e-07
-6.37121e-07
-6.37121e-07
-6.3712e-07
-6.3712e-07
-6.3712e-07
-6.29042e-07
-6.28946e-07
-6.28883e-07
-6.30898e-07
-6.3712e-07
-6.3712e-07
-6.3712e-07
-6.3712e-07
-6.28747e-07
-6.30164e-07
-6.2859e-07
-6.29211e-07
-6.31223e-07
-6.29257e-07
-6.29048e-07
-6.29366e-07
-6.29021e-07
-6.30175e-07
-6.28566e-07
-6.28317e-07
-6.29522e-07
-6.31919e-07
-6.28941e-07
-6.28593e-07
-6.51753e-07
-6.51724e-07
-6.52054e-07
-6.54549e-07
-6.54637e-07
-6.54892e-07
-6.54396e-07
-6.51083e-07
-6.51379e-07
-6.52029e-07
-6.5604e-07
-6.5931e-07
-6.59309e-07
-6.59309e-07
-6.59309e-07
-6.53082e-07
-6.53405e-07
-6.54557e-07
-6.59309e-07
-6.59308e-07
-6.59309e-07
-6.59309e-07
-6.59309e-07
-6.59309e-07
-6.51453e-07
-6.50505e-07
-6.51726e-07
-6.54628e-07
-6.59309e-07
-6.59309e-07
-6.59309e-07
-6.59309e-07
-6.59309e-07
-6.59309e-07