/*--------------------------------*- C++ -*----------------------------------*\
| =========                 |                                                 |
| \\      /  F ield         | OpenFOAM: The Open Source CFD Toolbox           |
|  \\    /   O peration     | Version:  v1906                                 |
|   \\  /    A nd           | Web:      www.OpenFOAM.com                      |
|    \\/     M anipulation  |                                                 |
\*---------------------------------------------------------------------------*/
FoamFile
{
    version     2.0;
    format      ascii;
    class       volScalarField;
    location    "250";
    object      epsilon;
}
// * * * * * * * * * * * * * * * * * * * * * * * * * * * * * * * * * * * * * //

dimensions      [0 2 -3 0 0 0 0];


internalField   nonuniform List<scalar> 
171728
(
1.15411e-06
8.68669e-07
8.68617e-07
1.15403e-06
8.6839e-07
8.6869e-07
8.6843e-07
8.68677e-07
1.15417e-06
8.68547e-07
8.68548e-07
1.15419e-06
3.22826e-07
3.22821e-07
3.22907e-07
3.229e-07
1.84372e-05
1.84403e-05
5.4651e-06
5.46672e-06
4.08986e-06
9.16437e-06
4.09319e-06
4.08981e-06
9.16493e-06
9.15494e-06
4.0933e-06
2.10366e-06
3.47709e-06
5.62248e-07
5.56284e-07
2.10983e-06
2.10368e-06
8.62384e-07
3.4774e-06
5.62274e-07
3.47253e-06
5.56318e-07
2.10988e-06
1.84397e-05
1.84208e-05
1.14929e-06
5.46697e-06
5.46456e-06
5.4606e-06
5.45923e-06
1.84361e-05
1.8419e-05
9.16596e-06
4.09359e-06
3.47752e-06
5.6232e-07
2.11001e-06
9.16585e-06
4.09352e-06
5.62351e-07
3.47752e-06
2.10996e-06
2.10366e-06
8.62194e-07
3.47693e-06
5.62255e-07
3.4722e-06
5.563e-07
2.10987e-06
4.08967e-06
9.1646e-06
9.15465e-06
4.09324e-06
2.1036e-06
8.62439e-07
5.62315e-07
3.47694e-06
5.5636e-07
3.47213e-06
2.10981e-06
4.0896e-06
9.16442e-06
9.15472e-06
4.09312e-06
1.84388e-05
5.46621e-06
5.4652e-06
1.84391e-05
2.10373e-06
5.62353e-07
3.47708e-06
5.56383e-07
2.10988e-06
2.10377e-06
8.62314e-07
5.62368e-07
3.47758e-06
5.56413e-07
3.47267e-06
2.10992e-06
4.08942e-06
9.16484e-06
4.09335e-06
4.08951e-06
9.16574e-06
9.15561e-06
4.09341e-06
1.14945e-06
5.46496e-06
5.46719e-06
5.45902e-06
5.46067e-06
1.84386e-05
1.84203e-05
1.84409e-05
1.84217e-05
1.84311e-05
1.84335e-05
4.54377e-06
2.81795e-06
5.46378e-06
9.51252e-06
9.50538e-06
2.81425e-06
4.54925e-06
4.55097e-06
2.81671e-06
5.46587e-06
9.51604e-06
9.51e-06
2.81635e-06
4.55058e-06
9.74982e-06
2.17699e-05
2.17676e-05
2.1752e-05
2.17508e-05
9.75478e-06
1.22033e-05
1.08239e-05
4.74199e-06
4.09084e-06
1.22001e-05
1.08265e-05
4.74298e-06
2.20564e-05
9.16095e-06
7.08642e-06
7.08659e-06
2.20619e-05
1.22044e-05
4.09221e-06
1.08305e-05
4.74497e-06
1.08277e-05
4.74412e-06
1.22075e-05
1.22027e-05
1.08238e-05
4.74161e-06
4.09086e-06
1.21994e-05
1.08265e-05
4.74304e-06
2.20552e-05
9.16074e-06
7.08818e-06
7.08764e-06
2.20625e-05
2.20542e-05
7.08526e-06
9.15876e-06
2.20473e-05
7.08587e-06
1.2204e-05
4.09222e-06
1.08306e-05
4.74544e-06
1.08277e-05
4.74393e-06
1.22076e-05
1.84322e-05
1.84294e-05
9.74022e-06
2.172e-05
2.17208e-05
9.73316e-06
2.17407e-05
2.17414e-05
4.55035e-06
2.81783e-06
5.46563e-06
9.51621e-06
2.81559e-06
9.50915e-06
4.55279e-06
4.5443e-06
2.81657e-06
5.46363e-06
9.51101e-06
9.50437e-06
2.81436e-06
4.54675e-06
4.5465e-06
9.49609e-06
2.81085e-06
5.46269e-06
2.81339e-06
4.54356e-06
9.5042e-06
4.5405e-06
9.49203e-06
2.80969e-06
5.46068e-06
4.53755e-06
9.49997e-06
2.81218e-06
9.74879e-06
2.17675e-05
2.17681e-05
2.17491e-05
2.17498e-05
9.7543e-06
1.84297e-05
1.84275e-05
2.20556e-05
9.1618e-06
7.08831e-06
7.08774e-06
2.20628e-05
1.22044e-05
4.09213e-06
4.74556e-06
1.08313e-05
4.74399e-06
1.08283e-05
1.22079e-05
2.20573e-05
9.16258e-06
7.08677e-06
7.08695e-06
2.20626e-05
1.2205e-05
4.09214e-06
1.08312e-05
4.74523e-06
1.08283e-05
4.74431e-06
1.22082e-05
1.22021e-05
4.74129e-06
1.08238e-05
4.09071e-06
1.21989e-05
4.7427e-06
1.08264e-05
2.20535e-05
9.16036e-06
7.08762e-06
7.08691e-06
2.20613e-05
2.20523e-05
7.08442e-06
9.15836e-06
2.20456e-05
7.08503e-06
1.22034e-05
4.09209e-06
4.74523e-06
1.08306e-05
4.74362e-06
1.08276e-05
1.22071e-05
1.22024e-05
1.08237e-05
4.74114e-06
4.09061e-06
1.21993e-05
1.08263e-05
4.74251e-06
2.20538e-05
9.1603e-06
7.08595e-06
7.08534e-06
2.20612e-05
2.20528e-05
7.08305e-06
9.15837e-06
2.20463e-05
7.08359e-06
1.22038e-05
4.092e-06
1.08305e-05
4.74497e-06
1.08275e-05
4.74342e-06
1.22073e-05
1.84336e-05
4.55083e-06
2.81783e-06
5.46554e-06
9.51587e-06
2.81579e-06
9.50968e-06
4.55311e-06
4.54487e-06
2.81685e-06
5.46401e-06
9.51187e-06
9.50502e-06
2.81465e-06
4.54712e-06
9.74994e-06
2.17683e-05
2.17689e-05
2.17509e-05
2.17514e-05
9.75512e-06
1.84319e-05
1.22025e-05
4.74117e-06
1.0824e-05
4.09081e-06
1.21994e-05
4.74256e-06
1.08266e-05
2.20544e-05
9.16064e-06
7.08622e-06
7.08555e-06
2.2062e-05
2.20533e-05
7.08378e-06
1.22039e-05
4.09186e-06
4.74508e-06
1.08309e-05
4.74347e-06
1.08278e-05
1.22075e-05
1.22023e-05
4.74157e-06
1.08241e-05
4.09087e-06
1.21991e-05
4.74272e-06
1.08267e-05
2.20541e-05
9.16138e-06
7.08792e-06
7.08746e-06
2.20621e-05
2.20531e-05
7.08489e-06
9.15936e-06
2.20461e-05
7.08534e-06
1.22037e-05
4.09196e-06
4.74522e-06
1.0831e-05
4.74401e-06
1.08279e-05
1.22074e-05
9.74073e-06
2.17211e-05
2.17203e-05
9.73362e-06
2.1742e-05
2.17413e-05
4.54458e-06
2.81674e-06
5.46381e-06
9.5116e-06
2.81449e-06
9.50471e-06
4.547e-06
4.55055e-06
2.81803e-06
5.46576e-06
9.51654e-06
2.81569e-06
9.50943e-06
4.55304e-06
4.54071e-06
9.49172e-06
2.80979e-06
5.46099e-06
4.53777e-06
2.81232e-06
9.49992e-06
4.54673e-06
9.49629e-06
2.81093e-06
5.46281e-06
4.54372e-06
2.81356e-06
9.5044e-06
9.74944e-06
2.1769e-05
2.17684e-05
2.17506e-05
2.17499e-05
9.75491e-06
1.84316e-05
1.84289e-05
1.84333e-05
1.84303e-05
2.67346e-06
1.15474e-06
1.77442e-06
1.77353e-06
1.77319e-06
1.77371e-06
2.67478e-06
2.67332e-06
1.15465e-06
1.774e-06
1.77385e-06
1.7735e-06
1.77334e-06
2.67465e-06
2.67353e-06
1.15479e-06
1.7741e-06
1.774e-06
1.77362e-06
1.77349e-06
2.67485e-06
2.67343e-06
1.1548e-06
1.77392e-06
1.77418e-06
1.77339e-06
1.77366e-06
2.67481e-06
1.68115e-07
1.68097e-07
1.65978e-07
7.98841e-08
8.04203e-08
3.18809e-07
1.68115e-07
1.68076e-07
1.65977e-07
1.65939e-07
7.98813e-08
8.04174e-08
1.68163e-07
1.68133e-07
1.6599e-07
7.9901e-08
8.04384e-08
3.18884e-07
1.68152e-07
1.68128e-07
1.66011e-07
1.65989e-07
7.98992e-08
8.04362e-08
1.41431e-06
2.36266e-06
1.27729e-06
2.10594e-06
1.41485e-06
2.36476e-06
1.27742e-06
1.62115e-06
2.03713e-06
3.47608e-06
2.86192e-06
2.03615e-06
2.86111e-06
1.62092e-06
1.42013e-06
2.10751e-06
2.36843e-06
1.28288e-06
2.3663e-06
1.28272e-06
1.41962e-06
1.41444e-06
2.36279e-06
1.27732e-06
2.10596e-06
1.41497e-06
2.36491e-06
1.27746e-06
1.62132e-06
2.03723e-06
3.47638e-06
2.8625e-06
2.86153e-06
2.03645e-06
1.62108e-06
1.61621e-06
2.85803e-06
2.03183e-06
3.47355e-06
1.61647e-06
2.85896e-06
2.03262e-06
1.42026e-06
2.10756e-06
2.36869e-06
1.28291e-06
2.36649e-06
1.28276e-06
1.41974e-06
2.66977e-06
1.14867e-06
1.7686e-06
1.76844e-06
1.76918e-06
2.66826e-06
1.76903e-06
1.62133e-06
2.03715e-06
3.47664e-06
2.86257e-06
2.03658e-06
2.86154e-06
1.62106e-06
1.4203e-06
2.10768e-06
2.36874e-06
1.28301e-06
2.36652e-06
1.28287e-06
1.41978e-06
1.62125e-06
2.03727e-06
3.47668e-06
2.86207e-06
2.86126e-06
2.03651e-06
1.621e-06
1.42023e-06
2.10763e-06
1.28298e-06
2.36857e-06
1.28283e-06
2.36644e-06
1.41971e-06
1.41436e-06
2.36267e-06
1.27732e-06
2.10592e-06
1.41491e-06
2.36477e-06
1.27746e-06
1.62118e-06
2.03686e-06
3.47597e-06
2.86224e-06
2.03606e-06
2.86129e-06
1.62094e-06
1.61605e-06
2.85778e-06
2.03145e-06
3.47315e-06
1.61632e-06
2.03226e-06
2.85865e-06
1.4202e-06
2.10753e-06
2.36858e-06
1.28292e-06
2.36637e-06
1.28276e-06
1.41967e-06
1.41433e-06
1.2773e-06
2.36254e-06
2.10587e-06
1.41486e-06
1.27744e-06
2.36464e-06
1.62112e-06
2.03692e-06
3.47594e-06
2.86187e-06
2.86091e-06
2.03611e-06
1.62088e-06
1.61602e-06
2.85744e-06
2.03151e-06
3.47315e-06
1.61628e-06
2.85833e-06
2.03232e-06
1.42014e-06
2.10746e-06
1.2829e-06
2.36843e-06
1.28273e-06
2.36622e-06
1.41963e-06
1.41437e-06
1.27739e-06
2.36259e-06
2.10594e-06
1.41491e-06
1.27754e-06
2.36467e-06
1.62115e-06
2.03696e-06
3.47608e-06
2.86198e-06
2.03619e-06
2.8609e-06
1.6209e-06
1.61602e-06
2.85839e-06
1.42019e-06
2.10762e-06
1.28299e-06
2.36849e-06
1.28283e-06
2.36628e-06
1.41968e-06
1.41451e-06
1.27742e-06
2.36278e-06
2.10598e-06
1.41504e-06
1.27757e-06
2.36487e-06
1.62136e-06
2.03733e-06
3.47655e-06
2.86242e-06
2.8615e-06
2.03654e-06
1.62111e-06
1.61623e-06
2.85796e-06
2.03192e-06
3.47369e-06
1.6165e-06
2.85884e-06
2.03272e-06
1.42033e-06
2.10767e-06
1.28303e-06
2.36868e-06
1.28287e-06
2.36648e-06
1.41981e-06
2.66994e-06
1.14883e-06
1.76849e-06
1.76876e-06
2.66838e-06
1.7691e-06
1.76935e-06
5.40095e-07
1.09618e-06
1.09627e-06
1.39566e-06
1.39568e-06
1.39557e-06
1.39343e-06
1.09631e-06
1.09635e-06
1.09631e-06
1.09636e-06
1.39551e-06
1.39338e-06
1.0962e-06
1.09639e-06
1.0962e-06
1.0964e-06
1.0964e-06
1.09619e-06
1.0964e-06
1.3956e-06
1.39348e-06
1.09629e-06
1.09628e-06
1.09629e-06
1.39352e-06
1.09641e-06
1.0963e-06
4.35874e-06
9.77702e-06
9.77718e-06
4.35894e-06
1.94425e-05
1.94438e-05
4.35889e-06
9.77907e-06
9.77923e-06
4.35904e-06
5.40094e-07
5.40188e-07
5.40192e-07
5.40096e-07
5.40097e-07
5.40193e-07
5.40196e-07
2.3367e-06
3.75283e-06
8.03897e-07
1.09618e-06
3.75239e-06
8.03897e-07
2.33706e-06
1.94432e-05
1.94446e-05
2.33671e-06
8.03975e-07
3.75282e-06
1.09627e-06
8.03975e-07
3.75243e-06
2.33705e-06
5.80349e-06
5.80549e-06
1.39347e-06
5.80316e-06
5.80517e-06
5.80352e-06
5.80551e-06
1.94409e-05
1.94422e-05
1.94434e-05
1.94447e-05
5.8034e-06
5.80536e-06
1.3934e-06
5.80308e-06
5.80504e-06
1.94422e-05
1.94409e-05
1.94447e-05
1.94434e-05
1.39553e-06
5.80309e-06
5.80504e-06
5.80338e-06
5.80534e-06
4.35885e-06
9.77818e-06
9.77834e-06
4.35905e-06
2.33659e-06
3.75261e-06
8.03856e-07
1.09631e-06
3.75222e-06
8.03855e-07
2.33692e-06
2.33665e-06
3.75317e-06
8.03892e-07
1.09635e-06
3.75276e-06
8.03891e-07
2.33699e-06
4.35893e-06
9.77718e-06
9.77698e-06
4.35876e-06
4.35904e-06
9.77836e-06
9.77815e-06
4.35886e-06
2.33691e-06
1.09631e-06
3.75223e-06
8.03859e-07
3.7526e-06
8.03858e-07
2.33663e-06
2.33698e-06
1.09635e-06
3.75278e-06
8.03896e-07
3.75316e-06
8.03895e-07
2.3367e-06
5.80524e-06
5.80351e-06
1.39332e-06
5.80491e-06
5.80309e-06
1.94401e-05
1.94415e-05
1.94438e-05
1.94425e-05
1.39547e-06
5.80493e-06
5.80311e-06
5.80522e-06
5.80349e-06
1.94416e-05
1.94401e-05
2.33675e-06
3.7534e-06
8.03927e-07
1.0962e-06
3.75297e-06
8.03931e-07
2.33706e-06
4.3588e-06
9.77837e-06
9.77853e-06
4.35895e-06
2.33667e-06
8.0396e-07
3.75323e-06
1.09639e-06
8.0396e-07
3.75279e-06
2.33699e-06
4.35903e-06
9.77923e-06
9.77903e-06
4.35891e-06
2.33706e-06
1.0962e-06
3.75298e-06
8.03935e-07
3.75339e-06
8.0393e-07
2.33679e-06
4.35894e-06
9.77856e-06
9.77833e-06
4.35882e-06
2.33699e-06
1.09639e-06
8.03966e-07
3.75281e-06
8.03964e-07
3.75323e-06
2.33672e-06
4.35895e-06
9.77818e-06
9.77836e-06
4.35914e-06
2.33664e-06
8.03946e-07
3.75275e-06
1.0964e-06
8.03946e-07
3.75235e-06
2.33699e-06
4.35884e-06
9.77809e-06
9.77827e-06
4.35904e-06
2.33701e-06
1.09618e-06
3.75241e-06
8.03903e-07
3.75282e-06
8.039e-07
2.33678e-06
4.35914e-06
9.7784e-06
9.77817e-06
4.35897e-06
2.33695e-06
1.0964e-06
8.0395e-07
3.75237e-06
8.03949e-07
3.75274e-06
2.33672e-06
4.35904e-06
9.77832e-06
9.77809e-06
4.35887e-06
5.80529e-06
5.80349e-06
1.39342e-06
5.80487e-06
5.80317e-06
1.9442e-05
1.94433e-05
1.94447e-05
1.94432e-05
1.39556e-06
5.8049e-06
5.8032e-06
5.80527e-06
5.80348e-06
1.94434e-05
1.9442e-05
2.33676e-06
8.04005e-07
3.7534e-06
1.09629e-06
8.04005e-07
3.753e-06
2.33709e-06
4.35886e-06
9.77831e-06
9.77848e-06
4.35907e-06
4.3589e-06
9.77914e-06
9.77932e-06
4.35907e-06
2.33701e-06
1.09627e-06
8.0398e-07
3.75245e-06
8.03978e-07
3.75282e-06
2.33673e-06
2.33705e-06
1.09629e-06
8.04009e-07
3.75302e-06
8.04007e-07
3.7534e-06
2.33679e-06
4.35907e-06
9.77852e-06
9.77829e-06
4.35888e-06
4.35907e-06
9.77935e-06
9.77912e-06
4.35893e-06
1.94419e-05
1.94432e-05
1.94439e-05
1.94452e-05
1.39561e-06
5.80318e-06
5.80519e-06
5.80348e-06
5.80548e-06
1.94433e-05
1.94419e-05
1.94452e-05
1.94439e-05
8.03949e-07
3.75277e-06
2.33703e-06
9.77814e-06
4.35908e-06
3.75342e-06
9.77917e-06
1.9442e-05
1.9444e-05
1.28897e-05
1.14467e-05
5.02195e-06
4.35894e-06
1.14464e-05
5.02217e-06
1.28902e-05
2.31924e-05
9.77719e-06
7.41988e-06
7.41931e-06
2.31896e-05
2.31895e-05
7.41929e-06
9.777e-06
7.41986e-06
2.31924e-05
1.28902e-05
4.35874e-06
1.14464e-05
5.02218e-06
1.14467e-05
5.02196e-06
1.28897e-05
1.94438e-05
1.94425e-05
1.289e-05
5.02225e-06
1.14473e-05
4.35903e-06
5.02238e-06
1.14471e-05
1.28905e-05
2.31922e-05
9.77924e-06
7.42139e-06
7.42097e-06
2.31897e-05
2.31896e-05
7.42095e-06
9.77904e-06
7.42136e-06
2.31922e-05
1.28905e-05
4.35888e-06
5.02241e-06
1.14471e-05
5.02224e-06
1.14473e-05
1.28901e-05
1.94446e-05
1.94432e-05
1.02111e-05
2.28187e-05
2.28179e-05
2.28169e-05
2.2816e-05
1.02105e-05
4.84422e-06
3.05641e-06
5.80316e-06
1.01637e-05
3.05618e-06
1.01639e-05
4.84456e-06
4.85011e-06
3.05766e-06
5.80518e-06
1.01686e-05
3.05743e-06
1.01688e-05
4.85043e-06
4.84454e-06
1.01639e-05
5.80348e-06
3.05618e-06
3.0564e-06
1.01637e-05
4.84421e-06
4.85041e-06
1.01688e-05
5.80548e-06
3.05743e-06
3.05765e-06
1.01685e-05
4.85009e-06
1.02106e-05
2.2817e-05
2.28162e-05
2.28188e-05
2.2818e-05
1.02112e-05
4.84422e-06
3.05642e-06
1.01637e-05
5.8032e-06
4.84454e-06
3.05622e-06
1.01639e-05
4.85011e-06
3.05767e-06
1.01685e-05
5.80521e-06
4.85041e-06
3.05748e-06
1.01688e-05
1.02104e-05
2.28168e-05
2.28159e-05
1.0211e-05
2.28187e-05
2.28178e-05
1.94422e-05
1.94409e-05
1.94447e-05
1.94434e-05
1.02111e-05
2.2819e-05
2.28182e-05
2.28172e-05
2.28164e-05
1.02105e-05
4.84422e-06
3.05637e-06
5.80309e-06
1.01638e-05
1.0164e-05
3.05616e-06
4.84454e-06
4.85009e-06
3.0576e-06
5.80504e-06
1.01688e-05
1.0169e-05
3.05737e-06
4.8504e-06
4.84452e-06
1.0164e-05
5.80339e-06
3.05615e-06
1.01638e-05
4.8442e-06
3.05636e-06
4.85038e-06
1.0169e-05
5.80534e-06
3.05737e-06
1.01688e-05
4.85007e-06
3.05759e-06
1.02106e-05
2.28174e-05
2.28166e-05
2.28192e-05
2.28184e-05
1.02112e-05
1.94409e-05
1.94422e-05
1.94434e-05
1.94447e-05
1.02104e-05
2.28171e-05
2.28163e-05
1.0211e-05
2.28189e-05
2.28181e-05
4.84449e-06
3.05615e-06
5.80338e-06
1.0164e-05
1.01637e-05
3.05636e-06
4.84418e-06
4.85035e-06
3.05737e-06
5.80534e-06
1.01689e-05
1.01687e-05
3.05759e-06
4.85005e-06
4.84419e-06
1.01637e-05
3.05636e-06
5.80308e-06
4.8445e-06
1.0164e-05
3.05615e-06
4.85006e-06
1.01687e-05
3.05759e-06
5.80503e-06
4.85036e-06
1.0169e-05
3.05737e-06
1.02109e-05
2.28188e-05
2.2818e-05
2.2817e-05
2.28162e-05
1.02104e-05
1.28898e-05
1.14469e-05
5.02224e-06
4.35904e-06
1.14466e-05
5.0224e-06
1.28902e-05
2.31924e-05
9.77835e-06
7.42146e-06
7.42103e-06
2.31898e-05
2.31898e-05
7.42102e-06
9.77816e-06
7.42144e-06
2.31923e-05
1.28903e-05
4.35885e-06
1.14466e-05
5.02241e-06
1.14468e-05
5.02225e-06
1.28898e-05
1.28902e-05
1.14464e-05
5.02216e-06
4.35874e-06
1.28897e-05
1.14467e-05
5.02195e-06
2.31896e-05
9.77699e-06
7.4193e-06
2.31924e-05
7.41985e-06
2.31924e-05
7.41985e-06
9.77717e-06
2.31895e-05
7.41929e-06
1.28898e-05
4.35894e-06
1.14467e-05
5.02196e-06
1.28902e-05
1.14465e-05
5.02217e-06
1.28903e-05
1.14466e-05
5.02239e-06
4.35885e-06
1.28898e-05
1.14469e-05
5.02224e-06
2.31898e-05
9.77816e-06
7.42103e-06
7.42143e-06
2.31924e-05
2.31923e-05
7.42142e-06
9.77834e-06
2.31898e-05
7.42101e-06
1.28898e-05
4.35905e-06
1.14469e-05
5.02226e-06
1.14466e-05
5.0224e-06
1.28903e-05
1.02106e-05
2.28173e-05
2.28182e-05
2.28155e-05
2.28164e-05
1.021e-05
4.84989e-06
3.05749e-06
5.80491e-06
1.01683e-05
1.01685e-05
3.05725e-06
4.85023e-06
4.84403e-06
3.05632e-06
5.8031e-06
1.01636e-05
3.05608e-06
1.01639e-05
4.84436e-06
4.8502e-06
1.01684e-05
5.80522e-06
3.05725e-06
1.01682e-05
3.05749e-06
4.84987e-06
4.84434e-06
1.01638e-05
5.80349e-06
3.05608e-06
3.05631e-06
1.01636e-05
4.84401e-06
1.02101e-05
2.28156e-05
2.28166e-05
2.28174e-05
2.28184e-05
1.02107e-05
1.94415e-05
1.94401e-05
1.94425e-05
1.94438e-05
1.021e-05
2.28154e-05
2.28163e-05
1.02106e-05
2.28172e-05
2.28181e-05
4.85019e-06
3.05727e-06
5.80523e-06
1.01684e-05
3.0575e-06
1.01682e-05
4.84987e-06
4.84433e-06
3.0561e-06
5.8035e-06
1.01638e-05
1.01636e-05
3.05632e-06
4.84401e-06
4.84986e-06
1.01682e-05
3.05749e-06
5.80491e-06
3.05726e-06
4.85019e-06
1.01684e-05
4.84401e-06
1.01636e-05
3.05631e-06
5.80309e-06
4.84433e-06
1.01638e-05
3.05609e-06
1.02105e-05
2.28172e-05
2.28181e-05
2.28153e-05
2.28162e-05
1.02099e-05
1.94402e-05
1.94415e-05
1.28901e-05
1.14472e-05
5.02205e-06
4.35894e-06
1.14469e-05
5.02226e-06
1.28906e-05
2.31924e-05
9.77855e-06
7.42005e-06
7.41949e-06
2.31896e-05
2.31896e-05
7.41948e-06
9.77834e-06
7.42003e-06
2.31924e-05
1.28906e-05
4.3588e-06
1.14469e-05
5.02227e-06
1.14471e-05
5.02205e-06
1.28901e-05
1.28905e-05
5.02239e-06
1.14471e-05
4.35888e-06
1.28901e-05
5.02223e-06
1.14473e-05
2.31896e-05
9.77903e-06
7.42095e-06
2.31922e-05
7.42135e-06
2.31922e-05
7.42135e-06
9.77922e-06
2.31896e-05
7.42094e-06
1.28901e-05
4.35904e-06
5.02226e-06
1.14474e-05
1.28905e-05
5.02238e-06
1.14471e-05
1.28906e-05
1.14469e-05
5.02226e-06
4.3588e-06
1.28901e-05
1.14472e-05
5.02205e-06
2.31896e-05
9.77835e-06
7.41949e-06
7.42003e-06
2.31925e-05
2.31924e-05
7.42002e-06
9.77853e-06
2.31896e-05
7.41947e-06
1.28901e-05
4.35895e-06
1.14472e-05
5.02207e-06
1.14469e-05
5.02227e-06
1.28906e-05
1.28897e-05
5.02215e-06
1.14472e-05
4.35914e-06
5.0223e-06
1.14469e-05
1.28902e-05
2.31915e-05
9.77837e-06
7.42099e-06
7.42058e-06
2.31889e-05
2.31889e-05
7.42057e-06
9.77817e-06
7.42098e-06
2.31915e-05
1.28901e-05
4.35894e-06
5.02231e-06
1.14469e-05
5.02215e-06
1.14472e-05
1.28897e-05
1.28901e-05
1.14471e-05
5.02196e-06
4.35904e-06
1.14468e-05
5.02211e-06
1.28905e-05
2.3192e-05
9.77827e-06
7.41952e-06
7.4191e-06
2.31894e-05
2.31894e-05
7.4191e-06
9.77808e-06
7.41952e-06
2.3192e-05
1.28905e-05
4.35884e-06
1.14468e-05
5.02211e-06
1.14471e-05
5.02195e-06
1.289e-05
1.28902e-05
5.02231e-06
1.1447e-05
4.35895e-06
1.28897e-05
5.02216e-06
1.14473e-05
2.3189e-05
9.77819e-06
7.4206e-06
7.42099e-06
2.31916e-05
2.31915e-05
7.42097e-06
9.77837e-06
2.31889e-05
7.42058e-06
1.28898e-05
4.35916e-06
5.02218e-06
1.14473e-05
5.02232e-06
1.1447e-05
1.28902e-05
1.28905e-05
1.14468e-05
5.02211e-06
4.35885e-06
1.28901e-05
1.14471e-05
5.02196e-06
2.31895e-05
9.77811e-06
7.41913e-06
7.41954e-06
2.31921e-05
2.3192e-05
7.41952e-06
9.77828e-06
2.31895e-05
7.41911e-06
1.28901e-05
4.35906e-06
1.14472e-05
5.02198e-06
1.14469e-05
5.02212e-06
1.28906e-05
1.02114e-05
2.28183e-05
2.28188e-05
2.28164e-05
2.2817e-05
1.02109e-05
4.85021e-06
3.05758e-06
5.80487e-06
1.01682e-05
1.01685e-05
3.05733e-06
4.85055e-06
4.84435e-06
3.05647e-06
5.80317e-06
1.01637e-05
3.05624e-06
1.01639e-05
4.8447e-06
4.85054e-06
1.01684e-05
5.80528e-06
3.05733e-06
1.01682e-05
3.05758e-06
4.8502e-06
4.84468e-06
1.01639e-05
5.80348e-06
3.05624e-06
3.05646e-06
1.01636e-05
4.84434e-06
1.02109e-05
2.28165e-05
2.2817e-05
2.28184e-05
2.28189e-05
1.02115e-05
1.94433e-05
1.9442e-05
1.94433e-05
1.94447e-05
1.02108e-05
2.28164e-05
2.28169e-05
1.02114e-05
2.28183e-05
2.28188e-05
4.85055e-06
3.05736e-06
5.80529e-06
1.01685e-05
3.0576e-06
1.01682e-05
4.85021e-06
4.84469e-06
3.05627e-06
5.8035e-06
1.01639e-05
1.01636e-05
3.05648e-06
4.84436e-06
4.8502e-06
1.01682e-05
3.05758e-06
5.80487e-06
3.05734e-06
4.85054e-06
1.01684e-05
4.84435e-06
1.01636e-05
3.05647e-06
5.80318e-06
4.84468e-06
1.01639e-05
3.05625e-06
1.02114e-05
2.28183e-05
2.28188e-05
2.28164e-05
2.28169e-05
1.02108e-05
1.94421e-05
1.94433e-05
1.28899e-05
5.02198e-06
1.14471e-05
4.35907e-06
5.02218e-06
1.14468e-05
1.28903e-05
2.31922e-05
9.77849e-06
7.41966e-06
7.41925e-06
2.31897e-05
2.31896e-05
7.41924e-06
9.7783e-06
7.41964e-06
2.31922e-05
1.28903e-05
4.35885e-06
5.02221e-06
1.14468e-05
5.02197e-06
1.14471e-05
1.28898e-05
1.28896e-05
5.02221e-06
1.14472e-05
4.35907e-06
5.02245e-06
1.14469e-05
1.289e-05
2.31917e-05
9.77932e-06
7.42145e-06
7.42087e-06
2.31888e-05
2.31888e-05
7.42086e-06
9.77913e-06
7.42144e-06
2.31916e-05
1.289e-05
4.3589e-06
5.02246e-06
1.14469e-05
5.02222e-06
1.14472e-05
1.28896e-05
1.28903e-05
5.0222e-06
1.14468e-05
4.35885e-06
1.28899e-05
5.02197e-06
1.14471e-05
2.31897e-05
9.77832e-06
7.41926e-06
7.41965e-06
2.31923e-05
2.31922e-05
7.41964e-06
9.77849e-06
2.31896e-05
7.41924e-06
1.28899e-05
4.35909e-06
5.02201e-06
1.14471e-05
5.0222e-06
1.14468e-05
1.28904e-05
1.28901e-05
5.02245e-06
1.14469e-05
4.35891e-06
1.28896e-05
5.02222e-06
1.14472e-05
2.31888e-05
9.77914e-06
7.42088e-06
7.42145e-06
2.31917e-05
2.31917e-05
7.42143e-06
9.77932e-06
2.31888e-05
7.42086e-06
1.28896e-05
4.35909e-06
5.02224e-06
1.14472e-05
5.02247e-06
1.14469e-05
1.28901e-05
1.94432e-05
1.94419e-05
1.94452e-05
1.94439e-05
1.02105e-05
2.28168e-05
2.28159e-05
1.0211e-05
2.28187e-05
2.28178e-05
4.84454e-06
3.0562e-06
5.8035e-06
1.01639e-05
4.84421e-06
3.05641e-06
1.01636e-05
4.85041e-06
3.05745e-06
5.80549e-06
1.01688e-05
4.85009e-06
3.05766e-06
1.01685e-05
4.8442e-06
1.01636e-05
3.0564e-06
5.80317e-06
4.84453e-06
3.05619e-06
1.01639e-05
4.85009e-06
1.01685e-05
3.05765e-06
5.80517e-06
4.8504e-06
3.05744e-06
1.01687e-05
1.0211e-05
2.28186e-05
2.28178e-05
1.02104e-05
2.28167e-05
2.28159e-05
1.9442e-05
1.94432e-05
1.94439e-05
1.94452e-05
2.31922e-05
7.41957e-06
9.77835e-06
2.31896e-05
7.41916e-06
1.28906e-05
4.35889e-06
1.14469e-05
5.02215e-06
1.28902e-05
1.14472e-05
5.02201e-06
9.77938e-06
1.94434e-05
1.94453e-05
3.41194e-07
3.41145e-07
5.40092e-07
3.41192e-07
3.41143e-07
1.82793e-07
1.82792e-07
2.90092e-06
1.98073e-06
1.98103e-06
1.3935e-06
1.97988e-06
1.98016e-06
2.90129e-06
2.90095e-06
1.98075e-06
1.98105e-06
1.39356e-06
2.90131e-06
1.97993e-06
1.98021e-06
2.90091e-06
1.98069e-06
1.98097e-06
1.39342e-06
1.97983e-06
1.98011e-06
2.90128e-06
2.90127e-06
1.39555e-06
1.97984e-06
1.98012e-06
1.98067e-06
1.98096e-06
2.90091e-06
2.90079e-06
1.98086e-06
1.98068e-06
1.39335e-06
1.97981e-06
1.97998e-06
2.90117e-06
2.90119e-06
1.3955e-06
1.98003e-06
1.97985e-06
1.98087e-06
1.98069e-06
2.90082e-06
2.90095e-06
1.98091e-06
1.98076e-06
1.39345e-06
1.97991e-06
1.98004e-06
2.9013e-06
2.90132e-06
1.39559e-06
1.98008e-06
1.97994e-06
1.98092e-06
1.98076e-06
2.90098e-06
2.9013e-06
1.39564e-06
1.97991e-06
1.98019e-06
2.90095e-06
1.98072e-06
1.98102e-06
3.41198e-07
3.41137e-07
5.40092e-07
3.41196e-07
3.41136e-07
1.82792e-07
1.82791e-07
3.41269e-07
3.41215e-07
5.40187e-07
3.41268e-07
3.41214e-07
1.82843e-07
1.82842e-07
3.41263e-07
3.41218e-07
5.4019e-07
3.41262e-07
3.41216e-07
1.82843e-07
1.82842e-07
5.40093e-07
3.41195e-07
3.41146e-07
3.41193e-07
3.41144e-07
1.82791e-07
1.82791e-07
5.40094e-07
3.41199e-07
3.41139e-07
3.41198e-07
3.41137e-07
1.8279e-07
1.8279e-07
5.40188e-07
3.41271e-07
3.41217e-07
3.41269e-07
3.41215e-07
1.82841e-07
1.82842e-07
5.40192e-07
3.41265e-07
3.41219e-07
3.41263e-07
3.41217e-07
1.82841e-07
1.82841e-07
1.63592e-06
2.59594e-06
1.50512e-06
2.33702e-06
2.59636e-06
1.50641e-06
1.63403e-06
1.84785e-06
2.25192e-06
3.75239e-06
3.1048e-06
2.25132e-06
3.10425e-06
1.84945e-06
1.84945e-06
3.10424e-06
3.75282e-06
2.25132e-06
2.25192e-06
3.10478e-06
1.84784e-06
1.63406e-06
2.33673e-06
2.5964e-06
1.50643e-06
2.59596e-06
1.50517e-06
1.63592e-06
1.63588e-06
1.50518e-06
2.59581e-06
2.33703e-06
1.50645e-06
2.59622e-06
1.63402e-06
1.84778e-06
2.25198e-06
3.75243e-06
3.10442e-06
2.25138e-06
3.1039e-06
1.84937e-06
1.84939e-06
3.10389e-06
3.75281e-06
2.25139e-06
2.25198e-06
3.1044e-06
1.84779e-06
1.63402e-06
2.33672e-06
1.50643e-06
2.59624e-06
1.50519e-06
2.59581e-06
1.63586e-06
2.90127e-06
1.39562e-06
1.97986e-06
1.98014e-06
1.98069e-06
1.98099e-06
2.90092e-06
2.90127e-06
1.39554e-06
1.97982e-06
1.9801e-06
2.9009e-06
1.98066e-06
1.98095e-06
2.90091e-06
1.3934e-06
1.98066e-06
1.98095e-06
2.90127e-06
1.97982e-06
1.98011e-06
1.63577e-06
2.59574e-06
1.50505e-06
2.3369e-06
2.59613e-06
1.50632e-06
1.63392e-06
1.84773e-06
2.2519e-06
3.75222e-06
3.10436e-06
3.10385e-06
2.25132e-06
1.8493e-06
1.8493e-06
3.10385e-06
3.7526e-06
2.25132e-06
3.10434e-06
2.2519e-06
1.84773e-06
1.63392e-06
2.33659e-06
2.59614e-06
1.50632e-06
2.59574e-06
1.50506e-06
1.63576e-06
1.63594e-06
2.596e-06
1.5051e-06
2.33697e-06
2.59641e-06
1.50637e-06
1.63408e-06
1.84797e-06
2.25228e-06
3.75277e-06
3.10499e-06
3.10445e-06
2.25168e-06
1.84956e-06
1.84956e-06
3.10444e-06
3.75316e-06
2.25168e-06
3.10497e-06
1.84797e-06
2.25228e-06
1.63408e-06
2.33666e-06
2.59642e-06
1.50637e-06
2.59601e-06
1.50511e-06
1.63592e-06
1.63391e-06
2.59613e-06
1.50631e-06
2.33661e-06
1.63577e-06
2.59575e-06
1.50505e-06
1.84929e-06
2.25132e-06
3.75261e-06
3.10387e-06
2.25189e-06
3.10435e-06
1.84771e-06
1.84772e-06
3.10434e-06
2.25189e-06
3.75222e-06
2.25131e-06
1.84929e-06
3.10385e-06
1.63576e-06
2.33694e-06
2.59577e-06
1.50506e-06
2.59615e-06
1.50632e-06
1.6339e-06
1.63407e-06
2.59641e-06
1.50636e-06
2.33667e-06
1.63593e-06
2.59602e-06
1.5051e-06
1.84955e-06
2.25168e-06
3.75317e-06
3.10447e-06
3.10499e-06
2.25228e-06
1.84796e-06
1.84796e-06
3.10497e-06
2.25228e-06
3.75277e-06
1.84956e-06
3.10445e-06
2.25168e-06
1.63593e-06
2.337e-06
2.59604e-06
1.50511e-06
2.59643e-06
1.50637e-06
1.63407e-06
2.90116e-06
1.39547e-06
1.97998e-06
1.9798e-06
1.98065e-06
1.98083e-06
2.90079e-06
2.90081e-06
1.39334e-06
1.98084e-06
1.98066e-06
1.98e-06
2.90117e-06
1.97983e-06
1.63595e-06
2.59602e-06
1.50517e-06
2.33704e-06
2.5964e-06
1.50642e-06
1.6341e-06
1.84795e-06
2.25234e-06
3.75297e-06
3.10499e-06
3.10445e-06
2.25173e-06
1.84955e-06
1.84955e-06
3.10445e-06
3.75339e-06
2.25173e-06
3.10498e-06
2.25233e-06
1.84795e-06
1.63408e-06
2.33673e-06
2.59643e-06
1.50643e-06
2.596e-06
1.50516e-06
1.63595e-06
1.63585e-06
1.50512e-06
2.59583e-06
2.33697e-06
1.50638e-06
2.59622e-06
1.634e-06
1.84782e-06
2.25225e-06
3.75279e-06
3.1045e-06
3.10399e-06
2.25164e-06
1.84941e-06
1.84942e-06
3.10399e-06
3.75323e-06
2.25164e-06
3.1045e-06
1.84783e-06
2.25224e-06
1.63399e-06
2.33667e-06
1.5064e-06
2.59624e-06
1.50513e-06
2.59583e-06
1.63585e-06
1.6341e-06
2.59642e-06
1.50643e-06
2.33676e-06
1.63597e-06
2.59602e-06
1.50518e-06
1.84955e-06
2.25174e-06
3.7534e-06
3.10447e-06
2.25233e-06
3.10499e-06
1.84794e-06
1.84795e-06
3.10498e-06
2.25233e-06
3.75297e-06
2.25173e-06
1.84955e-06
3.10445e-06
1.63597e-06
2.33709e-06
2.59605e-06
1.5052e-06
2.59643e-06
1.50645e-06
1.6341e-06
1.63401e-06
1.50639e-06
2.59623e-06
2.3367e-06
1.63586e-06
1.50514e-06
2.59585e-06
1.84942e-06
2.25165e-06
3.75324e-06
3.10402e-06
3.10451e-06
2.25225e-06
1.84782e-06
1.84783e-06
3.1045e-06
2.25224e-06
3.75279e-06
1.84942e-06
3.104e-06
2.25164e-06
1.63587e-06
2.33702e-06
1.50516e-06
2.59587e-06
1.50642e-06
2.59626e-06
1.634e-06
1.63584e-06
1.5051e-06
2.5958e-06
2.33695e-06
1.50637e-06
2.59621e-06
1.63398e-06
1.84779e-06
2.25196e-06
3.75235e-06
3.10443e-06
2.25137e-06
3.10389e-06
1.84938e-06
1.84937e-06
3.10389e-06
3.75274e-06
2.25137e-06
2.25195e-06
3.10442e-06
1.84779e-06
1.634e-06
2.33667e-06
1.5064e-06
2.59623e-06
1.50514e-06
2.59581e-06
1.63585e-06
1.63401e-06
2.59636e-06
1.50637e-06
2.33672e-06
1.63588e-06
2.59595e-06
1.5051e-06
1.84944e-06
2.25133e-06
3.75283e-06
3.10428e-06
1.84784e-06
2.25192e-06
3.10481e-06
1.84783e-06
3.10478e-06
2.25191e-06
3.7524e-06
1.84943e-06
2.25132e-06
3.10425e-06
1.63589e-06
2.33706e-06
2.596e-06
1.50516e-06
1.63404e-06
2.59639e-06
1.50639e-06
1.63398e-06
1.50634e-06
2.59621e-06
2.33667e-06
1.63582e-06
1.50509e-06
2.59582e-06
1.84938e-06
2.25138e-06
3.75275e-06
3.10393e-06
3.10445e-06
2.25196e-06
1.84779e-06
1.84779e-06
3.10443e-06
2.25195e-06
3.75235e-06
1.84937e-06
3.10391e-06
2.25137e-06
1.63584e-06
2.337e-06
1.50514e-06
2.59586e-06
1.50637e-06
2.59625e-06
1.634e-06
2.9013e-06
1.39556e-06
1.98004e-06
1.9799e-06
1.98073e-06
1.98089e-06
2.90095e-06
2.90096e-06
1.39344e-06
1.98089e-06
1.98074e-06
1.98005e-06
2.90131e-06
1.97992e-06
1.63601e-06
1.50522e-06
2.59603e-06
2.33707e-06
1.50648e-06
2.59644e-06
1.63415e-06
1.84802e-06
2.25239e-06
3.753e-06
3.105e-06
2.25179e-06
3.10445e-06
1.8496e-06
1.8496e-06
3.10445e-06
3.7534e-06
2.25179e-06
2.25239e-06
3.10499e-06
1.84801e-06
1.63416e-06
2.33678e-06
1.50647e-06
2.59646e-06
1.50523e-06
2.59605e-06
1.63599e-06
1.63398e-06
1.50641e-06
2.59621e-06
2.33669e-06
1.63586e-06
1.50514e-06
2.59579e-06
1.84936e-06
2.2514e-06
3.75283e-06
3.10392e-06
1.84776e-06
2.25198e-06
3.10441e-06
1.84776e-06
3.1044e-06
2.25197e-06
3.75243e-06
1.84937e-06
2.25138e-06
3.1039e-06
1.63583e-06
2.33703e-06
1.50514e-06
2.59584e-06
1.63397e-06
1.50639e-06
2.59622e-06
1.63411e-06
1.50644e-06
2.59643e-06
2.33676e-06
1.63598e-06
1.50517e-06
2.59603e-06
1.84958e-06
2.2518e-06
3.75341e-06
3.10448e-06
3.105e-06
2.25239e-06
1.84799e-06
1.84799e-06
3.10498e-06
2.25238e-06
3.753e-06
1.84959e-06
3.10445e-06
2.25179e-06
1.63595e-06
2.33707e-06
1.50518e-06
2.59606e-06
1.50642e-06
2.59645e-06
1.63411e-06
2.90093e-06
1.39349e-06
1.9807e-06
1.981e-06
2.90128e-06
1.97988e-06
1.98016e-06
1.84781e-06
2.25196e-06
3.10447e-06
3.75238e-06
2.25138e-06
1.84938e-06
3.10395e-06
1.63401e-06
2.33674e-06
1.50641e-06
2.59627e-06
1.50516e-06
1.63586e-06
2.59587e-06
2.2524e-06
3.75303e-06
2.2518e-06
3.26854e-07
8.74575e-07
8.74681e-07
1.16006e-06
3.4299e-07
8.97538e-07
8.97659e-07
1.17813e-06
3.59602e-07
9.20446e-07
9.20538e-07
1.1982e-06
3.76418e-07
9.40973e-07
9.41083e-07
1.21321e-06
3.93333e-07
9.61261e-07
9.61354e-07
1.23079e-06
4.10782e-07
9.79072e-07
9.79229e-07
1.24606e-06
4.27297e-07
9.94058e-07
9.94055e-07
1.25051e-06
4.51567e-07
1.03207e-06
1.0322e-06
1.31492e-06
4.58532e-07
1.01849e-06
1.01865e-06
1.28868e-06
4.53722e-07
9.83719e-07
9.83747e-07
1.21687e-06
4.66147e-07
9.96341e-07
9.96396e-07
1.23071e-06
4.96204e-07
1.04187e-06
1.04198e-06
1.30247e-06
5.23952e-07
1.078e-06
1.07807e-06
1.36149e-06
5.36658e-07
1.09382e-06
1.09389e-06
1.39009e-06
5.39994e-07
1.09706e-06
1.09715e-06
1.39718e-06
5.40032e-07
1.09635e-06
1.09645e-06
1.39606e-06
5.39717e-07
1.09568e-06
1.09577e-06
1.39478e-06
5.39763e-07
1.09576e-06
1.09584e-06
1.39483e-06
5.39955e-07
1.09602e-06
1.0961e-06
1.39531e-06
5.40067e-07
1.09614e-06
1.09623e-06
1.39556e-06
5.40089e-07
1.09616e-06
1.09626e-06
1.39563e-06
5.40092e-07
1.09618e-06
1.09627e-06
1.39564e-06
5.40094e-07
1.09619e-06
1.09628e-06