/*--------------------------------*- C++ -*----------------------------------*\
| =========                 |                                                 |
| \\      /  F ield         | OpenFOAM: The Open Source CFD Toolbox           |
|  \\    /   O peration     | Version:  v1906                                 |
|   \\  /    A nd           | Web:      www.OpenFOAM.com                      |
|    \\/     M anipulation  |                                                 |
\*---------------------------------------------------------------------------*/
FoamFile
{
    version     2.0;
    format      ascii;
    class       volScalarField;
    location    "250";
    object      k;
}
// * * * * * * * * * * * * * * * * * * * * * * * * * * * * * * * * * * * * * //

dimensions      [0 2 -2 0 0 0 0];


internalField   nonuniform List<scalar> 
171728
(
3.58932e-05
3.58912e-05
3.58912e-05
3.59957e-05
3.39296e-05
3.3889e-05
3.3889e-05
3.39622e-05
3.21578e-05
3.20081e-05
3.20081e-05
3.19522e-05
3.05346e-05
3.02293e-05
3.02292e-05
2.99884e-05
2.90329e-05
2.8554e-05
2.85539e-05
2.81226e-05
2.76353e-05
2.69872e-05
2.69871e-05
2.63907e-05
2.63308e-05
2.5531e-05
2.55309e-05
2.48073e-05
2.51112e-05
2.4185e-05
2.41848e-05
2.33782e-05
2.39709e-05
2.29506e-05
2.29504e-05
2.21046e-05
2.29058e-05
2.18269e-05
2.18267e-05
2.09861e-05
2.1912e-05
2.08114e-05
2.08112e-05
2.00134e-05
2.09865e-05
1.99014e-05
1.99012e-05
1.91817e-05
2.01241e-05
1.90947e-05
1.90948e-05
1.84881e-05
1.93239e-05
1.83885e-05
1.83885e-05
1.7933e-05
1.85848e-05
1.77794e-05
1.77794e-05
1.75055e-05
1.79042e-05
1.72655e-05
1.72656e-05
1.72029e-05
1.72798e-05
1.68464e-05
1.68461e-05
1.70244e-05
1.67097e-05
1.65209e-05
1.65212e-05
1.69807e-05
1.61923e-05
1.62894e-05
1.62897e-05
1.70773e-05
1.57254e-05
1.61515e-05
1.6152e-05
1.73011e-05
1.53073e-05
1.61072e-05
1.61076e-05
1.76541e-05
1.49374e-05
1.61533e-05
1.61534e-05
1.81332e-05
1.46145e-05
1.62918e-05
1.62922e-05
1.87287e-05
1.43382e-05
1.65201e-05
1.65208e-05
1.94289e-05
1.4108e-05
1.68356e-05
1.68365e-05
2.02214e-05
1.39235e-05
1.72351e-05
1.72363e-05
2.1094e-05
1.37844e-05
1.77153e-05
1.77167e-05
2.20348e-05
1.36906e-05
1.82725e-05
1.82737e-05
2.30304e-05
1.36422e-05
1.89014e-05
1.89029e-05
2.40649e-05
1.36391e-05
1.95975e-05
1.95995e-05
2.51256e-05
1.36815e-05
2.03556e-05
2.03573e-05
2.6202e-05
1.37699e-05
2.11685e-05
2.11706e-05
2.72816e-05
1.3905e-05
2.20323e-05
2.20343e-05
2.8362e-05
1.40862e-05
2.29398e-05
2.29414e-05
2.94294e-05
1.43132e-05
2.3882e-05
2.3885e-05
3.04832e-05
1.45857e-05
2.4856e-05
2.48577e-05
3.1522e-05
1.49069e-05
2.58538e-05
2.58562e-05
3.25372e-05
1.52753e-05
2.68702e-05
2.6873e-05
3.35328e-05
1.56897e-05
2.78994e-05
2.79025e-05
3.45038e-05
1.61454e-05
2.89327e-05
2.89341e-05
3.54506e-05
1.66454e-05
2.99662e-05
2.99699e-05
3.63735e-05
1.7191e-05
3.09995e-05
3.1002e-05
3.72696e-05
1.77728e-05
3.2026e-05
3.20286e-05
3.81435e-05
1.8391e-05
3.30296e-05
3.30325e-05
3.89839e-05
1.90546e-05
3.40422e-05
3.40449e-05
3.98213e-05
1.97351e-05
3.50045e-05
3.50076e-05
4.05982e-05
2.0463e-05
3.59789e-05
3.598e-05
4.1394e-05
2.11993e-05
3.68918e-05
3.68972e-05
4.2118e-05
2.19887e-05
3.78713e-05
3.78691e-05
4.2909e-05
2.27303e-05
3.86144e-05
3.86183e-05
4.34507e-05
2.36308e-05
3.97857e-05
3.97901e-05
4.44837e-05
2.42772e-05
4.0141e-05
4.01427e-05
4.4484e-05
2.54357e-05
4.18336e-05
4.18456e-05
4.65008e-05
2.6008e-05
4.15596e-05
4.15641e-05
4.48393e-05
2.72734e-05
4.4207e-05
4.41779e-05
4.84568e-05
3.04186e-05
4.79128e-05
4.79259e-05
5.35946e-05
2.89528e-05
4.30677e-05
4.30744e-05
4.61096e-05
2.61279e-05
3.92635e-05
3.92582e-05
4.12507e-05
2.66927e-05
4.13364e-05
4.13376e-05
4.4189e-05
3.32023e-05
4.74648e-05
4.74684e-05
5.0181e-05
3.80195e-05
5.14243e-05
5.1422e-05
5.41727e-05
4.03367e-05
5.30394e-05
5.30383e-05
5.57437e-05
4.0921e-05
5.32635e-05
5.32649e-05
5.58998e-05
4.09092e-05
5.31347e-05
5.31372e-05
5.57212e-05
4.08114e-05
5.30638e-05
5.3065e-05
5.56355e-05
4.08156e-05
5.30915e-05
5.3092e-05
5.56733e-05
4.08659e-05
5.31316e-05
5.31323e-05
5.5711e-05
4.08894e-05
5.31449e-05
5.3146e-05
5.57283e-05
4.08941e-05
5.31463e-05
5.31475e-05
5.5721e-05
4.08965e-05
5.31504e-05
5.3151e-05
5.57378e-05
4.08964e-05
5.31486e-05
5.31492e-05
5.57223e-05
4.08962e-05
5.3149e-05
5.31494e-05
5.57255e-05
4.08961e-05
5.31491e-05
5.31494e-05
5.57377e-05
4.08953e-05
5.31471e-05
5.31476e-05
5.57193e-05
4.08905e-05
5.3145e-05
5.31459e-05
5.57251e-05
4.08943e-05
5.31509e-05
5.31515e-05
5.57373e-05
4.08966e-05
5.31506e-05
5.31514e-05
5.57235e-05
4.08968e-05
5.31517e-05
5.31531e-05
5.57401e-05
4.08956e-05
5.3151e-05
5.31523e-05
5.57367e-05
4.08864e-05
5.31391e-05
5.31403e-05
5.5717e-05
4.08784e-05
5.31307e-05
5.31302e-05
5.57013e-05
4.08799e-05
5.31374e-05
5.31373e-05
5.57204e-05
4.08964e-05
5.31505e-05
5.31507e-05
5.57328e-05
4.09001e-05
5.31523e-05
5.31538e-05
5.57252e-05
4.09005e-05
5.31531e-05
5.3154e-05
5.5736e-05
4.09009e-05
5.31544e-05
5.31556e-05
5.57405e-05
4.08999e-05
5.31517e-05
5.3152e-05
5.57236e-05
4.08984e-05
5.31502e-05
5.31508e-05
5.57329e-05
4.0897e-05
5.31497e-05
5.31503e-05
5.57339e-05
4.08961e-05
5.31491e-05
5.31496e-05
5.57346e-05
4.08959e-05
5.31498e-05
5.31505e-05
5.57263e-05
4.08965e-05
5.31514e-05
5.31516e-05
5.57227e-05
4.08971e-05
5.31527e-05
5.31532e-05
5.57284e-05
4.08857e-05
5.31334e-05
5.31339e-05
5.57293e-05
4.04233e-05
5.1914e-05
5.19132e-05
5.5327e-05
3.63068e-05
3.6291e-05
3.6291e-05
3.63068e-05
3.6291e-05
3.6291e-05
3.6423e-05
3.6423e-05
3.6423e-05
3.6423e-05
3.6291e-05
3.6291e-05
3.63068e-05
3.6291e-05
3.6291e-05
3.63068e-05
3.59957e-05
3.42687e-05
3.58912e-05
3.58912e-05
3.43767e-05
3.43766e-05
3.59957e-05
3.42687e-05
3.58911e-05
3.58912e-05
3.43767e-05
3.43766e-05
3.58912e-05
3.43767e-05
3.43767e-05
3.59957e-05
3.42687e-05
3.58912e-05
3.43767e-05
3.43767e-05
3.42687e-05
3.39623e-05
3.22635e-05
3.38889e-05
3.38889e-05
3.24684e-05
3.24683e-05
3.39623e-05
3.22635e-05
3.38889e-05
3.38889e-05
3.24684e-05
3.24683e-05
3.38889e-05
3.24685e-05
3.24684e-05
3.39623e-05
3.22634e-05
3.38889e-05
3.24685e-05
3.24684e-05
3.22634e-05
3.19522e-05
3.02993e-05
3.20079e-05
3.20078e-05
3.06643e-05
3.06642e-05
3.19522e-05
3.02994e-05
3.2008e-05
3.20078e-05
3.06644e-05
3.06641e-05
3.20079e-05
3.06646e-05
3.06643e-05
3.19522e-05
3.02992e-05
3.2008e-05
3.06645e-05
3.06644e-05
3.02992e-05
2.99885e-05
2.84253e-05
3.0229e-05
3.02288e-05
2.89624e-05
2.89622e-05
2.99886e-05
2.84255e-05
3.02291e-05
3.02287e-05
2.89626e-05
2.89621e-05
3.02289e-05
2.89628e-05
2.89623e-05
2.99884e-05
2.84252e-05
3.02291e-05
2.89627e-05
2.89626e-05
2.84252e-05
2.81227e-05
2.6674e-05
2.85536e-05
2.85534e-05
2.7368e-05
2.73678e-05
2.81228e-05
2.66742e-05
2.85538e-05
2.85533e-05
2.73683e-05
2.73676e-05
2.85535e-05
2.73685e-05
2.73679e-05
2.81226e-05
2.66739e-05
2.85538e-05
2.73684e-05
2.73683e-05
2.66738e-05
2.63908e-05
2.50663e-05
2.69866e-05
2.69864e-05
2.58841e-05
2.58838e-05
2.63909e-05
2.50665e-05
2.6987e-05
2.69862e-05
2.58845e-05
2.58836e-05
2.69865e-05
2.58848e-05
2.5884e-05
2.63907e-05
2.50661e-05
2.69869e-05
2.58846e-05
2.58844e-05
2.50661e-05
2.48075e-05
2.36125e-05
2.55304e-05
2.55301e-05
2.45103e-05
2.45099e-05
2.48077e-05
2.36127e-05
2.55308e-05
2.55299e-05
2.45107e-05
2.45097e-05
2.55302e-05
2.45111e-05
2.45102e-05
2.48074e-05
2.36123e-05
2.55307e-05
2.45108e-05
2.45107e-05
2.36123e-05
2.33784e-05
2.23125e-05
2.41842e-05
2.41838e-05
2.32479e-05
2.32475e-05
2.33786e-05
2.23126e-05
2.41847e-05
2.41836e-05
2.32484e-05
2.32473e-05
2.41841e-05
2.32488e-05
2.32477e-05
2.33783e-05
2.23122e-05
2.41846e-05
2.32485e-05
2.32484e-05
2.23122e-05
2.2105e-05
2.11681e-05
2.29497e-05
2.29494e-05
2.20965e-05
2.20962e-05
2.21051e-05
2.11683e-05
2.29503e-05
2.29491e-05
2.20972e-05
2.2096e-05
2.29496e-05
2.20976e-05
2.20965e-05
2.21047e-05
2.1168e-05
2.29503e-05
2.20973e-05
2.20972e-05
2.11678e-05
2.09863e-05
2.01708e-05
2.18259e-05
2.18255e-05
2.10542e-05
2.10538e-05
2.09865e-05
2.0171e-05
2.18266e-05
2.18253e-05
2.10549e-05
2.10536e-05
2.18258e-05
2.10552e-05
2.10541e-05
2.09861e-05
2.01705e-05
2.18265e-05
2.1055e-05
2.10549e-05
2.01704e-05
2.00136e-05
1.93148e-05
2.08103e-05
2.081e-05
2.0118e-05
2.01177e-05
2.00136e-05
1.93146e-05
2.08111e-05
2.08097e-05
2.01188e-05
2.01174e-05
2.08103e-05
2.01191e-05
2.01179e-05
2.00135e-05
1.93145e-05
2.08111e-05
2.01189e-05
2.01188e-05
1.93145e-05
1.91825e-05
1.85906e-05
1.99003e-05
1.99e-05
1.92855e-05
1.92852e-05
1.91824e-05
1.85903e-05
1.99011e-05
1.98997e-05
1.92864e-05
1.92849e-05
1.99002e-05
1.92866e-05
1.92854e-05
1.91811e-05
1.85888e-05
1.99011e-05
1.92864e-05
1.92863e-05
1.85885e-05
1.84901e-05
1.79989e-05
1.90937e-05
1.90933e-05
1.85547e-05
1.85543e-05
1.84897e-05
1.79985e-05
1.90945e-05
1.90933e-05
1.85555e-05
1.85542e-05
1.90936e-05
1.85556e-05
1.85544e-05
1.84896e-05
1.79987e-05
1.90945e-05
1.85556e-05
1.85553e-05
1.79971e-05
1.79351e-05
1.75374e-05
1.83877e-05
1.83872e-05
1.79211e-05
1.79212e-05
1.79338e-05
1.754e-05
1.83885e-05
1.83871e-05
1.79219e-05
1.79208e-05
1.83874e-05
1.79225e-05
1.79212e-05
1.79351e-05
1.75375e-05
1.83883e-05
1.79221e-05
1.79221e-05
1.7538e-05
1.75051e-05
1.72188e-05
1.77783e-05
1.77782e-05
1.73841e-05
1.73835e-05
1.7507e-05
1.72168e-05
1.77792e-05
1.77781e-05
1.73848e-05
1.73838e-05
1.77783e-05
1.73845e-05
1.73843e-05
1.75059e-05
1.72197e-05
1.77791e-05
1.7385e-05
1.73851e-05
1.72207e-05
1.72009e-05
1.70264e-05
1.72647e-05
1.72645e-05
1.69411e-05
1.69409e-05
1.71998e-05
1.70264e-05
1.72654e-05
1.72645e-05
1.69418e-05
1.69404e-05
1.72647e-05
1.69418e-05
1.69411e-05
1.72021e-05
1.70254e-05
1.72655e-05
1.69414e-05
1.69419e-05
1.70286e-05
1.70233e-05
1.69721e-05
1.68458e-05
1.68455e-05
1.6592e-05
1.65918e-05
1.70228e-05
1.69721e-05
1.68465e-05
1.68451e-05
1.65927e-05
1.6592e-05
1.68455e-05
1.65924e-05
1.65918e-05
1.70213e-05
1.69742e-05
1.68463e-05
1.65928e-05
1.65925e-05
1.69725e-05
1.69814e-05
1.70436e-05
1.65204e-05
1.65203e-05
1.63368e-05
1.63366e-05
1.69807e-05
1.7043e-05
1.65211e-05
1.65205e-05
1.63374e-05
1.63363e-05
1.65204e-05
1.6337e-05
1.63364e-05
1.6982e-05
1.70418e-05
1.65211e-05
1.63369e-05
1.63371e-05
1.70427e-05
1.70791e-05
1.72441e-05
1.62891e-05
1.62889e-05
1.61754e-05
1.61751e-05
1.70779e-05
1.72434e-05
1.62897e-05
1.62891e-05
1.61759e-05
1.61751e-05
1.62892e-05
1.61753e-05
1.61748e-05
1.70766e-05
1.72424e-05
1.62899e-05
1.61754e-05
1.61754e-05
1.72417e-05
1.73041e-05
1.75728e-05
1.61514e-05
1.61514e-05
1.61072e-05
1.61073e-05
1.73026e-05
1.75724e-05
1.6152e-05
1.61517e-05
1.61077e-05
1.61074e-05
1.61516e-05
1.61071e-05
1.61069e-05
1.73015e-05
1.75716e-05
1.61522e-05
1.61075e-05
1.61074e-05
1.7571e-05
1.76576e-05
1.80251e-05
1.61073e-05
1.61074e-05
1.61328e-05
1.61333e-05
1.76563e-05
1.80258e-05
1.61078e-05
1.61076e-05
1.61333e-05
1.61332e-05
1.6107e-05
1.6133e-05
1.6133e-05
1.76552e-05
1.80258e-05
1.61076e-05
1.6133e-05
1.61335e-05
1.80266e-05
1.81339e-05
1.85971e-05
1.61533e-05
1.61538e-05
1.62489e-05
1.62494e-05
1.81342e-05
1.85965e-05
1.61539e-05
1.61536e-05
1.62493e-05
1.62496e-05
1.61534e-05
1.62487e-05
1.62491e-05
1.81319e-05
1.85993e-05
1.61539e-05
1.62492e-05
1.62495e-05
1.85988e-05
1.87287e-05
1.92755e-05
1.62922e-05
1.62926e-05
1.6455e-05
1.64556e-05
1.87281e-05
1.92748e-05
1.62926e-05
1.62926e-05
1.64553e-05
1.64562e-05
1.6292e-05
1.64547e-05
1.64554e-05
1.8729e-05
1.92775e-05
1.62924e-05
1.64555e-05
1.64558e-05
1.92768e-05
1.94275e-05
2.00493e-05
1.65205e-05
1.65211e-05
1.67491e-05
1.67497e-05
1.94272e-05
2.00481e-05
1.65209e-05
1.65214e-05
1.67493e-05
1.67505e-05
1.65207e-05
1.67485e-05
1.67497e-05
1.94292e-05
2.00505e-05
1.65211e-05
1.67495e-05
1.675e-05
2.00501e-05
2.02201e-05
2.0906e-05
1.68362e-05
1.68369e-05
1.71282e-05
1.71288e-05
2.02192e-05
2.0905e-05
1.68365e-05
1.68375e-05
1.71282e-05
1.71296e-05
1.68367e-05
1.71273e-05
1.71286e-05
2.02216e-05
2.09069e-05
1.68371e-05
1.71284e-05
1.71289e-05
2.09065e-05
2.10932e-05
2.18335e-05
1.7236e-05
1.72367e-05
1.75891e-05
1.75897e-05
2.10921e-05
2.18325e-05
1.72361e-05
1.72375e-05
1.75889e-05
1.75905e-05
1.72367e-05
1.75879e-05
1.75895e-05
2.10944e-05
2.18342e-05
1.72369e-05
1.7589e-05
1.75896e-05
2.18342e-05
2.20344e-05
2.28167e-05
1.77166e-05
1.77172e-05
1.81278e-05
1.81285e-05
2.20333e-05
2.28158e-05
1.77164e-05
1.77182e-05
1.81273e-05
1.81291e-05
1.77171e-05
1.81264e-05
1.81283e-05
2.20352e-05
2.28178e-05
1.77172e-05
1.81274e-05
1.81282e-05
2.28184e-05
2.30294e-05
2.38413e-05
1.8274e-05
1.82747e-05
1.87393e-05
1.874e-05
2.30285e-05
2.38401e-05
1.82736e-05
1.82754e-05
1.87386e-05
1.87411e-05
1.82745e-05
1.87376e-05
1.87402e-05
2.30299e-05
2.38436e-05
1.82743e-05
1.87391e-05
1.87398e-05
2.38435e-05
2.40629e-05
2.48962e-05
1.89033e-05
1.89039e-05
1.94196e-05
1.94203e-05
2.40618e-05
2.4895e-05
1.89026e-05
1.89048e-05
1.94186e-05
1.94215e-05
1.8904e-05
1.94176e-05
1.94205e-05
2.40647e-05
2.48978e-05
1.89036e-05
1.94194e-05
1.94198e-05
2.48977e-05
2.51239e-05
2.59677e-05
1.95997e-05
1.96001e-05
2.01626e-05
2.01635e-05
2.51228e-05
2.59665e-05
1.95987e-05
1.96016e-05
2.01613e-05
2.01642e-05
1.96006e-05
2.01606e-05
2.01638e-05
2.51259e-05
2.59685e-05
1.95998e-05
2.01619e-05
2.01629e-05
2.59698e-05
2.62e-05
2.70463e-05
2.03577e-05
2.03584e-05
2.09631e-05
2.09631e-05
2.61991e-05
2.70439e-05
2.03565e-05
2.03596e-05
2.09614e-05
2.09647e-05
2.03589e-05
2.096e-05
2.09638e-05
2.62008e-05
2.7048e-05
2.03579e-05
2.09622e-05
2.09625e-05
2.70475e-05
2.72803e-05
2.81246e-05
2.11711e-05
2.11716e-05
2.18151e-05
2.18157e-05
2.72783e-05
2.8124e-05
2.11696e-05
2.1173e-05
2.18131e-05
2.18165e-05
2.11723e-05
2.18126e-05
2.18167e-05
2.72816e-05
2.81261e-05
2.1171e-05
2.18139e-05
2.18151e-05
2.81276e-05
2.83603e-05
2.91923e-05
2.20358e-05
2.20354e-05
2.27106e-05
2.27111e-05
2.83585e-05
2.9191e-05
2.20339e-05
2.20368e-05
2.27084e-05
2.2713e-05
2.20365e-05
2.2708e-05
2.27121e-05
2.83609e-05
2.9195e-05
2.20349e-05
2.27102e-05
2.27103e-05
2.91944e-05
2.94259e-05
3.02507e-05
2.29417e-05
2.2943e-05
2.36463e-05
2.3646e-05
2.94263e-05
3.0248e-05
2.29397e-05
2.29441e-05
2.36438e-05
2.36476e-05
2.29441e-05
2.36428e-05
2.36476e-05
2.9429e-05
3.02512e-05
2.29422e-05
2.36451e-05
2.36455e-05
3.02522e-05
3.0483e-05
3.12899e-05
2.38858e-05
2.38851e-05
2.46148e-05
2.46151e-05
3.04795e-05
3.1289e-05
2.38834e-05
2.38876e-05
2.46121e-05
2.46162e-05
2.38867e-05
2.46119e-05
2.46167e-05
3.04837e-05
3.12915e-05
2.38846e-05
2.46135e-05
2.46142e-05
3.12927e-05
3.1519e-05
3.23095e-05
2.4859e-05
2.48593e-05
2.56069e-05
2.56069e-05
3.15186e-05
3.23077e-05
2.48563e-05
2.486e-05
2.56041e-05
2.56089e-05
2.48609e-05
2.56039e-05
2.56091e-05
3.15196e-05
3.23115e-05
2.48587e-05
2.56062e-05
2.56066e-05
3.23119e-05
3.25351e-05
3.33097e-05
2.58568e-05
2.58568e-05
2.66198e-05
2.66193e-05
3.25333e-05
3.33078e-05
2.58542e-05
2.58588e-05
2.66168e-05
2.66214e-05
2.58591e-05
2.66162e-05
2.66216e-05
3.25374e-05
3.33109e-05
2.58562e-05
2.6619e-05
2.66191e-05
3.33117e-05
3.3531e-05
3.42845e-05
2.68737e-05
2.68732e-05
2.76444e-05
2.76446e-05
3.35292e-05
3.42835e-05
2.68708e-05
2.68752e-05
2.76415e-05
2.76457e-05
2.68755e-05
2.76419e-05
2.7647e-05
3.35318e-05
3.42859e-05
2.68732e-05
2.76435e-05
2.76437e-05
3.4287e-05
3.45017e-05
3.52368e-05
2.79027e-05
2.79025e-05
2.86761e-05
2.86757e-05
3.45005e-05
3.52348e-05
2.79003e-05
2.79043e-05
2.8673e-05
2.86776e-05
2.79051e-05
2.86729e-05
2.86788e-05
3.45028e-05
3.52382e-05
2.79026e-05
2.86756e-05
2.86761e-05
3.52394e-05
3.54479e-05
3.61652e-05
2.8935e-05
2.89353e-05
2.9713e-05
2.97124e-05
3.5447e-05
3.6163e-05
2.89318e-05
2.89364e-05
2.97103e-05
2.97147e-05
2.89379e-05
2.97099e-05
2.97157e-05
3.54493e-05
3.61665e-05
2.89345e-05
2.97128e-05
2.97127e-05
3.61671e-05
3.63722e-05
3.70671e-05
2.99701e-05
2.99688e-05
3.07462e-05
3.07466e-05
3.63689e-05
3.70666e-05
2.99679e-05
2.99714e-05
3.07437e-05
3.07476e-05
2.99725e-05
3.0744e-05
3.07491e-05
3.63727e-05
3.70678e-05
2.99701e-05
3.07463e-05
3.07466e-05
3.70692e-05
3.72668e-05
3.79443e-05
3.10014e-05
3.10022e-05
3.17704e-05
3.177e-05
3.72672e-05
3.79418e-05
3.0999e-05
3.10033e-05
3.17678e-05
3.17721e-05
3.10049e-05
3.17677e-05
3.1774e-05
3.72683e-05
3.79452e-05
3.10023e-05
3.17707e-05
3.17712e-05
3.79469e-05
3.81416e-05
3.87952e-05
3.20288e-05
3.20281e-05
3.2786e-05
3.2786e-05
3.81391e-05
3.87936e-05
3.20262e-05
3.203e-05
3.27838e-05
3.27873e-05
3.20318e-05
3.27839e-05
3.27893e-05
3.81419e-05
3.87957e-05
3.20288e-05
3.27863e-05
3.27863e-05
3.87969e-05
3.89821e-05
3.96336e-05
3.30319e-05
3.30318e-05
3.37954e-05
3.37954e-05
3.89804e-05
3.96322e-05
3.303e-05
3.30335e-05
3.37933e-05
3.3797e-05
3.30353e-05
3.37932e-05
3.37988e-05
3.89827e-05
3.96346e-05
3.30327e-05
3.37965e-05
3.37966e-05
3.96361e-05
3.98187e-05
4.04134e-05
3.40436e-05
3.40443e-05
3.47561e-05
3.47552e-05
3.98176e-05
4.04108e-05
3.40421e-05
3.4045e-05
3.47535e-05
3.4757e-05
3.40478e-05
3.47534e-05
3.4759e-05
3.98195e-05
4.04129e-05
3.40455e-05
3.4756e-05
3.47562e-05
4.04147e-05
4.05976e-05
4.12301e-05
3.5009e-05
3.50064e-05
3.57518e-05
3.57545e-05
4.05947e-05
4.12309e-05
3.50056e-05
3.50099e-05
3.57512e-05
3.57531e-05
3.50098e-05
3.57527e-05
3.57576e-05
4.05972e-05
4.12321e-05
3.50072e-05
3.57549e-05
3.57559e-05
4.12344e-05
4.1388e-05
4.19277e-05
3.59752e-05
3.59801e-05
3.66496e-05
3.66453e-05
4.13904e-05
4.19212e-05
3.59757e-05
3.59771e-05
3.66458e-05
3.66504e-05
3.59836e-05
3.66429e-05
3.66495e-05
4.13903e-05
4.19257e-05
3.59816e-05
3.66477e-05
3.66469e-05
4.19255e-05
4.21232e-05
4.27759e-05
3.69021e-05
3.68952e-05
3.76477e-05
3.76491e-05
4.21141e-05
4.27812e-05
3.68973e-05
3.69e-05
3.76457e-05
3.76505e-05
3.68984e-05
3.76517e-05
3.76511e-05
4.21197e-05
4.278e-05
3.68968e-05
3.7649e-05
3.7648e-05
4.27821e-05
4.28992e-05
4.32482e-05
3.78625e-05
3.78683e-05
3.8404e-05
3.84094e-05
4.29078e-05
4.32427e-05
3.78628e-05
3.78691e-05
3.84064e-05
3.84022e-05
3.78715e-05
3.84018e-05
3.84155e-05
4.29061e-05
4.32447e-05
3.78675e-05
3.84111e-05
3.84179e-05
4.32533e-05
4.34537e-05
4.4366e-05
3.86243e-05
3.86176e-05
3.95234e-05
3.95125e-05
4.34406e-05
4.4364e-05
3.86192e-05
3.86181e-05
3.95167e-05
3.95265e-05
3.86211e-05
3.95139e-05
3.95128e-05
4.34441e-05
4.43692e-05
3.86221e-05
3.95145e-05
3.95055e-05
4.43621e-05
4.44778e-05
4.44119e-05
3.97864e-05
3.97893e-05
4.0048e-05
4.00683e-05
4.44814e-05
4.4423e-05
3.9787e-05
3.97906e-05
4.00558e-05
4.00487e-05
3.97923e-05
4.00607e-05
4.00754e-05
4.44839e-05
4.44133e-05
3.97878e-05
4.00662e-05
4.0078e-05
4.44338e-05
4.44692e-05
4.62861e-05
4.01308e-05
4.0144e-05
4.14977e-05
4.14803e-05
4.44773e-05
4.62742e-05
4.01346e-05
4.01304e-05
4.14923e-05
4.15035e-05
4.01492e-05
4.1487e-05
4.14808e-05
4.44673e-05
4.62908e-05
4.01514e-05
4.149e-05
4.14779e-05
4.6276e-05
4.64964e-05
4.5037e-05
4.18406e-05
4.18389e-05
4.17121e-05
4.17244e-05
4.64889e-05
4.50436e-05
4.18426e-05
4.18452e-05
4.1716e-05
4.17104e-05
4.18446e-05
4.1712e-05
4.17326e-05
4.65038e-05
4.50386e-05
4.18439e-05
4.17234e-05
4.17334e-05
4.50634e-05
4.48209e-05
4.68596e-05
4.15581e-05
4.15672e-05
4.23069e-05
4.23016e-05
4.48271e-05
4.68609e-05
4.15584e-05
4.15548e-05
4.22969e-05
4.23037e-05
4.15722e-05
4.23121e-05
4.22952e-05
4.48198e-05
4.685e-05
4.15717e-05
4.22951e-05
4.22904e-05
4.68185e-05
4.84893e-05
5.35438e-05
4.42e-05
4.41851e-05
4.78667e-05
4.78641e-05
4.84916e-05
5.35344e-05
4.41845e-05
4.41977e-05
4.78673e-05
4.7866e-05
4.41724e-05
4.78588e-05
4.78727e-05
4.84824e-05
5.35444e-05
4.41652e-05
4.78698e-05
4.78726e-05
5.35571e-05
5.35816e-05
4.72548e-05
4.79223e-05
4.79193e-05
4.50155e-05
4.50098e-05
5.35713e-05
4.72475e-05
4.79234e-05
4.79217e-05
4.50173e-05
4.50183e-05
4.79288e-05
4.50058e-05
4.50172e-05
5.3582e-05
4.72586e-05
4.79286e-05
4.50199e-05
4.50161e-05
4.72543e-05
4.61079e-05
4.13674e-05
4.30687e-05
4.30671e-05
3.95734e-05
3.95806e-05
4.61053e-05
4.13809e-05
4.30699e-05
4.30724e-05
3.95756e-05
3.95773e-05
4.30711e-05
3.95859e-05
3.95805e-05
4.61125e-05
4.13724e-05
4.30707e-05
3.95811e-05
3.95831e-05
4.13754e-05
4.12422e-05
4.31666e-05
3.92501e-05
3.9258e-05
3.98183e-05
3.98245e-05
4.12557e-05
4.31678e-05
3.92527e-05
3.92536e-05
3.9821e-05
3.982e-05
3.9258e-05
3.98276e-05
3.98261e-05
4.12467e-05
4.31654e-05
3.92611e-05
3.98249e-05
3.98293e-05
4.3171e-05
4.41866e-05
4.92993e-05
4.13337e-05
4.13368e-05
4.61179e-05
4.61155e-05
4.41846e-05
4.92938e-05
4.13359e-05
4.13336e-05
4.61161e-05
4.61162e-05
4.13398e-05
4.61123e-05
4.61175e-05
4.41846e-05
4.9298e-05
4.1342e-05
4.61171e-05
4.61148e-05
4.92976e-05
5.0184e-05
5.36701e-05
4.74709e-05
4.74681e-05
5.06678e-05
5.06659e-05
5.01797e-05
5.36707e-05
4.7468e-05
4.74694e-05
5.06635e-05
5.06676e-05
4.74695e-05
5.06666e-05
5.06667e-05
5.0183e-05
5.36706e-05
4.74662e-05
5.06653e-05
5.06642e-05
5.36694e-05
5.41735e-05
5.55919e-05
5.14243e-05
5.14229e-05
5.28157e-05
5.28158e-05
5.41748e-05
5.55935e-05
5.14204e-05
5.14244e-05
5.2814e-05
5.28163e-05
5.1424e-05
5.28186e-05
5.28188e-05
5.4174e-05
5.55926e-05
5.14223e-05
5.28168e-05
5.28187e-05
5.55951e-05
5.574e-05
5.58853e-05
5.30362e-05
5.30367e-05
5.3259e-05
5.326e-05
5.57415e-05
5.58859e-05
5.30354e-05
5.3037e-05
5.32598e-05
5.32596e-05
5.30402e-05
5.32618e-05
5.32638e-05
5.57408e-05
5.58862e-05
5.30404e-05
5.3263e-05
5.32645e-05
5.58894e-05
5.58958e-05
5.57143e-05
5.32609e-05
5.32618e-05
5.3176e-05
5.31761e-05
5.58962e-05
5.57125e-05
5.32618e-05
5.32613e-05
5.31773e-05
5.31754e-05
5.32656e-05
5.31771e-05
5.31794e-05
5.58965e-05
5.57134e-05
5.32664e-05
5.31797e-05
5.31802e-05
5.57158e-05
5.57199e-05
5.56199e-05
5.31338e-05
5.31336e-05
5.30669e-05
5.30668e-05
5.5718e-05
5.56185e-05
5.3135e-05
5.31331e-05
5.30675e-05
5.30666e-05
5.31368e-05
5.30682e-05
5.30694e-05
5.57188e-05
5.5619e-05
5.31375e-05
5.30697e-05
5.307e-05
5.56208e-05
5.56345e-05
5.56433e-05
5.3062e-05
5.30622e-05
5.30731e-05
5.30745e-05
5.56333e-05
5.56452e-05
5.30625e-05
5.3062e-05
5.30734e-05
5.30742e-05
5.30647e-05
5.30764e-05
5.30765e-05
5.56338e-05
5.5645e-05
5.30653e-05
5.30769e-05
5.30771e-05
5.56463e-05
5.567e-05
5.56859e-05
5.30878e-05
5.30895e-05
5.31206e-05
5.31223e-05
5.56721e-05
5.56877e-05
5.30882e-05
5.30891e-05
5.31209e-05
5.31217e-05
5.30915e-05
5.31242e-05
5.31246e-05
5.56718e-05
5.56873e-05
5.30922e-05
5.31249e-05
5.31253e-05
5.56891e-05
5.57079e-05
5.57076e-05
5.31283e-05
5.31297e-05
5.31417e-05
5.31419e-05
5.57095e-05
5.57075e-05
5.31285e-05
5.3129e-05
5.31419e-05
5.31415e-05
5.3132e-05
5.31435e-05
5.31445e-05
5.57091e-05
5.57074e-05
5.31327e-05
5.31446e-05
5.31451e-05
5.57094e-05
5.57268e-05
5.57028e-05
5.31433e-05
5.31432e-05
5.31442e-05
5.31443e-05
5.57264e-05
5.57014e-05
5.31436e-05
5.31429e-05
5.31445e-05
5.31442e-05
5.31459e-05
5.3146e-05
5.31471e-05
5.57263e-05
5.57024e-05
5.31465e-05
5.31472e-05
5.31476e-05
5.57039e-05
5.57194e-05
5.57135e-05
5.31442e-05
5.31446e-05
5.31463e-05
5.3148e-05
5.57186e-05
5.57159e-05
5.31445e-05
5.31444e-05
5.31466e-05
5.31474e-05
5.31473e-05
5.31498e-05
5.31509e-05
5.57195e-05
5.57158e-05
5.31479e-05
5.31505e-05
5.31516e-05
5.57179e-05
5.57335e-05
5.57012e-05
5.3147e-05
5.31486e-05
5.31466e-05
5.31471e-05
5.57355e-05
5.57014e-05
5.31473e-05
5.31478e-05
5.31468e-05
5.31464e-05
5.31516e-05
5.31489e-05
5.315e-05
5.57353e-05
5.5701e-05
5.31521e-05
5.31494e-05
5.31505e-05
5.57037e-05
5.57219e-05
5.57058e-05
5.31464e-05
5.31468e-05
5.31462e-05
5.3147e-05
5.57205e-05
5.57079e-05
5.31467e-05
5.31461e-05
5.31465e-05
5.31463e-05
5.31497e-05
5.31487e-05
5.31497e-05
5.57203e-05
5.57077e-05
5.31502e-05
5.31493e-05
5.31502e-05
5.57113e-05
5.57207e-05
5.57166e-05
5.31462e-05
5.31471e-05
5.31469e-05
5.31479e-05
5.57224e-05
5.57179e-05
5.31465e-05
5.31463e-05
5.31472e-05
5.31469e-05
5.31497e-05
5.31497e-05
5.31502e-05
5.57222e-05
5.5717e-05
5.31502e-05
5.315e-05
5.31507e-05
5.57188e-05
5.57352e-05
5.56978e-05
5.31466e-05
5.31474e-05
5.31444e-05
5.3145e-05
5.57358e-05
5.56985e-05
5.31468e-05
5.31463e-05
5.31444e-05
5.3144e-05
5.31498e-05
5.3147e-05
5.31475e-05
5.57351e-05
5.56977e-05
5.31503e-05
5.31473e-05
5.31481e-05
5.56999e-05
5.57175e-05
5.57068e-05
5.31445e-05
5.31451e-05
5.31422e-05
5.31429e-05
5.57186e-05
5.57071e-05
5.31445e-05
5.31441e-05
5.31422e-05
5.31422e-05
5.31476e-05
5.3145e-05
5.31458e-05
5.57178e-05
5.57082e-05
5.31482e-05
5.31458e-05
5.31464e-05
5.5711e-05
5.57209e-05
5.57128e-05
5.3142e-05
5.31429e-05
5.31462e-05
5.31476e-05
5.57213e-05
5.57149e-05
5.31421e-05
5.31422e-05
5.31466e-05
5.3147e-05
5.31459e-05
5.31496e-05
5.31503e-05
5.57223e-05
5.5714e-05
5.31464e-05
5.31503e-05
5.31508e-05
5.57161e-05
5.5734e-05
5.57051e-05
5.31478e-05
5.3149e-05
5.3148e-05
5.31488e-05
5.57359e-05
5.57053e-05
5.31482e-05
5.31484e-05
5.31484e-05
5.31483e-05
5.31516e-05
5.31503e-05
5.31509e-05
5.57352e-05
5.57052e-05
5.3152e-05
5.31511e-05
5.31512e-05
5.57071e-05
5.5722e-05
5.57213e-05
5.31485e-05
5.31491e-05
5.31509e-05
5.3151e-05
5.57221e-05
5.57209e-05
5.3149e-05
5.31487e-05
5.31512e-05
5.31511e-05
5.3151e-05
5.31525e-05
5.31531e-05
5.57219e-05
5.57221e-05
5.31513e-05
5.31537e-05
5.31534e-05
5.57226e-05
5.57373e-05
5.5716e-05
5.31502e-05
5.31501e-05
5.31498e-05
5.31496e-05
5.57374e-05
5.5713e-05
5.31503e-05
5.31503e-05
5.31499e-05
5.31495e-05
5.31526e-05
5.31511e-05
5.3152e-05
5.57393e-05
5.57114e-05
5.31529e-05
5.31523e-05
5.31527e-05
5.57146e-05
5.57371e-05
5.56971e-05
5.31495e-05
5.31495e-05
5.31395e-05
5.3141e-05
5.5735e-05
5.56982e-05
5.31497e-05
5.31494e-05
5.31401e-05
5.31406e-05
5.31519e-05
5.31424e-05
5.31436e-05
5.57336e-05
5.56988e-05
5.31526e-05
5.31439e-05
5.31448e-05
5.57002e-05
5.57141e-05
5.56813e-05
5.3136e-05
5.31379e-05
5.31274e-05
5.31296e-05
5.57149e-05
5.56841e-05
5.31365e-05
5.31369e-05
5.3128e-05
5.31279e-05
5.31402e-05
5.31311e-05
5.31312e-05
5.57146e-05
5.56837e-05
5.31413e-05
5.31308e-05
5.31318e-05
5.56858e-05
5.56974e-05
5.56974e-05
5.31269e-05
5.3129e-05
5.31291e-05
5.31305e-05
5.56999e-05
5.56988e-05
5.31275e-05
5.31273e-05
5.31298e-05
5.31296e-05
5.31307e-05
5.31333e-05
5.31339e-05
5.5699e-05
5.56977e-05
5.31312e-05
5.31328e-05
5.31341e-05
5.57003e-05
5.57165e-05
5.57126e-05
5.31331e-05
5.31332e-05
5.31468e-05
5.31468e-05
5.57173e-05
5.57126e-05
5.31337e-05
5.31335e-05
5.31468e-05
5.31457e-05
5.31388e-05
5.31486e-05
5.31492e-05
5.57175e-05
5.57091e-05
5.31387e-05
5.31483e-05
5.3149e-05
5.57112e-05
5.57336e-05
5.57054e-05
5.31486e-05
5.31489e-05
5.31483e-05
5.31491e-05
5.57335e-05
5.57052e-05
5.31488e-05
5.31481e-05
5.31489e-05
5.31488e-05
5.31513e-05
5.31513e-05
5.31523e-05
5.57308e-05
5.57073e-05
5.31512e-05
5.31525e-05
5.31527e-05
5.57086e-05
5.57221e-05
5.57191e-05
5.31487e-05
5.31498e-05
5.31505e-05
5.31512e-05
5.57229e-05
5.57175e-05
5.31496e-05
5.31497e-05
5.31509e-05
5.3151e-05
5.31532e-05
5.31526e-05
5.31533e-05
5.57236e-05
5.57199e-05
5.3154e-05
5.3154e-05
5.31539e-05
5.57207e-05
5.57355e-05
5.57158e-05
5.31505e-05
5.31512e-05
5.31511e-05
5.31524e-05
5.57323e-05
5.57203e-05
5.3151e-05
5.31511e-05
5.31517e-05
5.31517e-05
5.31534e-05
5.31546e-05
5.31554e-05
5.57359e-05
5.57169e-05
5.31538e-05
5.31552e-05
5.31555e-05
5.5719e-05
5.57376e-05
5.5704e-05
5.31515e-05
5.31526e-05
5.31489e-05
5.31494e-05
5.57404e-05
5.57037e-05
5.3152e-05
5.3152e-05
5.31492e-05
5.31492e-05
5.31555e-05
5.31511e-05
5.31516e-05
5.57385e-05
5.57046e-05
5.3156e-05
5.31518e-05
5.3152e-05
5.57066e-05
5.57218e-05
5.57125e-05
5.3149e-05
5.31497e-05
5.31476e-05
5.31484e-05
5.57226e-05
5.57134e-05
5.31493e-05
5.31492e-05
5.3148e-05
5.31477e-05
5.3152e-05
5.315e-05
5.31509e-05
5.57225e-05
5.57115e-05
5.3152e-05
5.31505e-05
5.31512e-05
5.57178e-05
5.57266e-05
5.57139e-05
5.31477e-05
5.31485e-05
5.31462e-05
5.31472e-05
5.57275e-05
5.57148e-05
5.3148e-05
5.31477e-05
5.31465e-05
5.31464e-05
5.31511e-05
5.3149e-05
5.31495e-05
5.57256e-05
5.57154e-05
5.31513e-05
5.31495e-05
5.31498e-05
5.57157e-05
5.57303e-05
5.57126e-05
5.31468e-05
5.31478e-05
5.31451e-05
5.31457e-05
5.57341e-05
5.5704e-05
5.31471e-05
5.3147e-05
5.31455e-05
5.31451e-05
5.31502e-05
5.31475e-05
5.31486e-05
5.5733e-05
5.57087e-05
5.31505e-05
5.31482e-05
5.31488e-05
5.57133e-05
5.57328e-05
5.57037e-05
5.31465e-05
5.31473e-05
5.31447e-05
5.31458e-05
5.57264e-05
5.57052e-05
5.31469e-05
5.31467e-05
5.31451e-05
5.31453e-05
5.315e-05
5.31477e-05
5.31484e-05
5.57297e-05
5.57106e-05
5.31502e-05
5.31484e-05
5.31485e-05
5.57041e-05
5.5727e-05
5.57016e-05
5.31468e-05
5.31478e-05
5.31446e-05
5.31457e-05
5.57259e-05
5.57022e-05
5.31472e-05
5.31473e-05
5.3145e-05
5.31452e-05
5.31505e-05
5.31476e-05
5.31482e-05
5.57324e-05
5.57026e-05
5.31507e-05
5.31478e-05
5.31481e-05
5.57055e-05
5.57197e-05
5.57117e-05
5.31481e-05
5.31494e-05
5.31452e-05
5.31461e-05
5.57248e-05
5.57071e-05
5.31485e-05
5.31488e-05
5.31456e-05
5.31458e-05
5.31518e-05
5.3148e-05
5.31488e-05
5.57255e-05
5.57071e-05
5.31517e-05
5.31485e-05
5.31488e-05
5.57133e-05
5.57269e-05
5.57114e-05
5.31499e-05
5.31508e-05
5.31438e-05
5.31447e-05
5.57232e-05
5.57121e-05
5.31504e-05
5.31506e-05
5.31443e-05
5.31445e-05
5.31535e-05
5.31467e-05
5.31478e-05
5.57232e-05
5.57119e-05
5.31534e-05
5.31471e-05
5.31476e-05
5.57147e-05
5.57269e-05
5.55075e-05
5.31308e-05
5.31315e-05
5.29619e-05
5.2963e-05
5.57256e-05
5.55085e-05
5.31312e-05
5.31311e-05
5.29639e-05
5.29615e-05
5.31342e-05
5.29665e-05
5.29647e-05
5.57252e-05
5.55085e-05
5.31344e-05
5.2966e-05
5.29667e-05
5.55094e-05
5.53248e-05
5.19088e-05
5.19098e-05
5.53259e-05
5.1911e-05
5.19082e-05
4.04249e-05
4.04242e-05
4.04264e-05
5.19116e-05
5.53256e-05
5.19138e-05
3.73773e-05
3.73765e-05
3.7377e-05
3.7377e-05
3.73701e-05
3.73777e-05
3.73043e-05
3.73768e-05
3.73702e-05
3.73777e-05
3.73768e-05
3.73043e-05
3.73741e-05
3.72959e-05
3.72959e-05
3.58798e-05
4.08721e-05
3.66033e-05
4.51467e-05
5.51147e-05
6.48951e-05
3.58803e-05
4.08712e-05
3.66034e-05
4.51466e-05
3.58932e-05
3.58933e-05
3.58932e-05
3.44005e-05
3.44005e-05
3.44005e-05
3.44005e-05
3.52758e-05
3.56384e-05
3.58929e-05
3.53771e-05
3.60475e-05
3.42365e-05
3.53822e-05
5.51168e-05
6.48994e-05
3.52758e-05
3.58929e-05
3.5638e-05
3.53771e-05
3.60475e-05
3.53822e-05
3.42375e-05
3.65971e-05
3.65977e-05
3.5279e-05
3.40641e-05
3.40633e-05
3.39657e-05
5.13534e-05
3.46793e-05
5.46248e-05
7.65447e-05
8.08614e-05
3.39682e-05
5.13543e-05
3.46789e-05
5.46254e-05
3.39296e-05
3.39297e-05
3.39297e-05
3.25854e-05
3.25854e-05
3.25855e-05
3.25855e-05
3.30541e-05