/*--------------------------------*- C++ -*----------------------------------*\
| =========                 |                                                 |
| \\      /  F ield         | OpenFOAM: The Open Source CFD Toolbox           |
|  \\    /   O peration     | Version:  v1906                                 |
|   \\  /    A nd           | Web:      www.OpenFOAM.com                      |
|    \\/     M anipulation  |                                                 |
\*---------------------------------------------------------------------------*/
FoamFile
{
    version     2.0;
    format      ascii;
    class       volScalarField;
    location    "250";
    object      nut;
}
// * * * * * * * * * * * * * * * * * * * * * * * * * * * * * * * * * * * * * //

dimensions      [0 2 -1 0 0 0 0];


internalField   nonuniform List<scalar> 
171728
(
0.000137081
0.000139166
0.000139141
0.000137058
0.000139168
0.000139166
0.00013915
0.000139159
0.000137072
0.000139167
0.000139159
0.000137064
0.000122979
0.000122965
0.000122981
0.000122981
2.36164e-05
2.36165e-05
7.38425e-05
7.387e-05
9.18533e-05
5.0022e-05
9.20826e-05
9.18497e-05
5.00226e-05
5.00045e-05
9.20686e-05
0.000120836
9.39086e-05
0.000134631
0.000133784
0.000121352
0.000120836
0.000138351
9.38671e-05
0.000134615
9.35074e-05
0.000133778
0.000121334
2.36166e-05
2.36084e-05
0.000136223
7.38473e-05
7.38162e-05
7.34838e-05
7.34906e-05
2.36168e-05
2.36093e-05
5.00202e-05
9.20742e-05
9.38834e-05
0.000134623
0.000121336
5.00167e-05
9.20889e-05
0.000134636
9.39177e-05
0.000121353
0.00012085
0.000138369
9.38599e-05
0.000134617
9.35022e-05
0.000133797
0.000121302
9.18505e-05
5.00212e-05
5.00032e-05
9.20359e-05
0.000120851
0.000138372
0.00013463
9.38656e-05
0.000133805
9.35108e-05
0.000121302
9.18503e-05
5.00176e-05
5.00001e-05
9.20352e-05
2.3614e-05
7.38401e-05
7.38582e-05
2.36165e-05
0.000120845
0.000134638
9.38718e-05
0.000133807
0.000121305
0.000120846
0.000138371
0.000134637
9.38563e-05
0.000133807
9.35063e-05
0.000121304
9.18558e-05
5.00178e-05
9.20383e-05
9.18555e-05
5.00184e-05
5.00002e-05
9.20389e-05
0.00013623
7.38483e-05
7.38429e-05
7.34875e-05
7.34822e-05
2.3616e-05
2.36081e-05
2.36158e-05
2.36075e-05
2.36141e-05
2.36131e-05
9.72056e-05
0.000112815
7.3743e-05
4.79557e-05
4.7948e-05
0.000112499
9.75113e-05
9.72275e-05
0.000112849
7.37169e-05
4.79554e-05
4.79404e-05
0.00011247
9.75552e-05
7.88002e-05
2.15046e-05
2.15027e-05
2.1499e-05
2.14965e-05
7.9044e-05
3.62675e-05
4.05343e-05
8.80256e-05
9.19401e-05
3.62644e-05
4.05376e-05
8.81155e-05
2.01028e-05
5.00162e-05
7.60888e-05
7.60386e-05
2.01045e-05
3.62686e-05
9.19682e-05
4.05426e-05
8.82453e-05
4.05391e-05
8.81453e-05
3.62717e-05
3.62685e-05
4.05343e-05
8.80181e-05
9.19276e-05
3.62653e-05
4.05375e-05
8.80785e-05
2.01032e-05
5.00149e-05
7.60582e-05
7.59823e-05
2.01055e-05
2.01029e-05
7.59237e-05
5.00113e-05
2.01008e-05
7.59667e-05
3.62698e-05
9.19551e-05
4.05427e-05
8.82087e-05
4.0539e-05
8.81123e-05
3.62733e-05
2.36133e-05
2.3612e-05
7.85528e-05
2.14866e-05
2.14891e-05
7.83528e-05
2.14933e-05
2.14959e-05
9.71705e-05
0.000112783
7.36983e-05
4.79518e-05
0.00011244
4.79396e-05
9.7493e-05
9.71596e-05
0.000112797
7.37118e-05
4.79587e-05
4.79473e-05
0.000112472
9.74783e-05
9.69586e-05
4.79177e-05
0.000112071
7.3594e-05
0.00011224
9.67486e-05
4.79311e-05
9.69494e-05
4.79264e-05
0.00011208
7.36356e-05
9.67348e-05
4.79397e-05
0.000112271
7.87586e-05
2.15025e-05
2.15049e-05
2.14962e-05
2.14987e-05
7.90075e-05
2.36139e-05
2.36129e-05
2.01036e-05
5.00123e-05
7.60652e-05
7.5985e-05
2.01059e-05
3.62699e-05
9.19632e-05
8.82141e-05
4.05424e-05
8.8113e-05
4.05386e-05
3.62734e-05
2.01025e-05
5.00106e-05
7.6096e-05
7.60461e-05
2.01042e-05
3.6268e-05
9.19765e-05
4.05423e-05
8.82532e-05
4.05387e-05
8.81475e-05
3.62711e-05
3.62687e-05
8.80156e-05
4.05334e-05
9.19113e-05
3.62656e-05
8.80626e-05
4.05365e-05
2.01037e-05
5.00134e-05
7.60358e-05
7.59613e-05
2.01061e-05
2.01033e-05
7.5922e-05
5.00098e-05
2.01014e-05
7.59501e-05
3.627e-05
9.19325e-05
8.81819e-05
4.05418e-05
8.80919e-05
4.0538e-05
3.62736e-05
3.62665e-05
4.05333e-05
8.80131e-05
9.19121e-05
3.62635e-05
4.05365e-05
8.80614e-05
2.01024e-05
5.00101e-05
7.60187e-05
7.59508e-05
2.01047e-05
2.01021e-05
7.59088e-05
5.00066e-05
2.01002e-05
7.59401e-05
3.62678e-05
9.19325e-05
4.05417e-05
8.81759e-05
4.0538e-05
8.80893e-05
3.62713e-05
2.36117e-05
9.72066e-05
0.000112833
7.3755e-05
4.79485e-05
0.000112505
4.79379e-05
9.75222e-05
9.71875e-05
0.000112823
7.37143e-05
4.79611e-05
4.79493e-05
0.000112479
9.75062e-05
7.87885e-05
2.15013e-05
2.15048e-05
2.14955e-05
2.14989e-05
7.90286e-05
2.36133e-05
3.62668e-05
8.80085e-05
4.05334e-05
9.19106e-05
3.62638e-05
8.80588e-05
4.05366e-05
2.01028e-05
5.00102e-05
7.60226e-05
7.59507e-05
2.0105e-05
2.01024e-05
7.59384e-05
3.62682e-05
9.19403e-05
8.81786e-05
4.05419e-05
8.80887e-05
4.05381e-05
3.62717e-05
3.62684e-05
8.80064e-05
4.05335e-05
9.19104e-05
3.62652e-05
8.80589e-05
4.05367e-05
2.01033e-05
5.00105e-05
7.6035e-05
7.5955e-05
2.01058e-05
2.0103e-05
7.59116e-05
5.00068e-05
2.0101e-05
7.59439e-05
3.62697e-05
9.19393e-05
8.81831e-05
4.0542e-05
8.80829e-05
4.05382e-05
3.62734e-05
7.85476e-05
2.1489e-05
2.14861e-05
7.83475e-05
2.14959e-05
2.1493e-05
9.71549e-05
0.000112802
7.37156e-05
4.79599e-05
0.000112463
4.7948e-05
9.74815e-05
9.71698e-05
0.000112781
7.36918e-05
4.79512e-05
0.000112439
4.7939e-05
9.74958e-05
9.694e-05
4.79262e-05
0.000112086
7.36127e-05
9.67299e-05
0.00011226
4.79398e-05
9.69536e-05
4.7917e-05
0.000112078
7.35866e-05
9.67475e-05
0.00011224
4.79303e-05
7.87608e-05
2.15051e-05
2.15022e-05
2.14988e-05
2.14959e-05
7.90139e-05
2.36129e-05
2.36117e-05
2.36124e-05
2.36112e-05
0.000119465
0.000136825
0.00013002
0.000130058
0.000129773
0.000129769
0.000119851
0.000119423
0.000136808
0.000129999
0.000130005
0.000129734
0.000129742
0.000119802
0.000119451
0.000136815
0.00013003
0.000130023
0.00012976
0.000129754
0.000119834
0.000119421
0.000136814
0.000130006
0.000130002
0.000129742
0.000129738
0.000119802
0.000120848
0.000120849
0.000120575
0.000132659
0.000132452
0.000122317
0.00012084
0.000120847
0.000120572
0.000120584
0.00013266
0.000132452
0.00012085
0.000120856
0.000120587
0.000132655
0.000132449
0.000122326
0.000120852
0.000120856
0.000120585
0.000120587
0.000132657
0.00013245
0.000132455
0.000117135
0.000134305
0.000121027
0.000132319
0.00011732
0.000134464
0.000128565
0.000122259
9.37047e-05
0.00010781
0.000122072
0.000107574
0.000128748
0.000132779
0.000121121
0.000117633
0.000134962
0.00011741
0.000134788
0.000132937
0.000132451
0.000117134
0.000134309
0.000121018
0.000132325
0.00011729
0.000134463
0.000128526
0.000122215
9.36635e-05
0.000107743
0.000107516
0.00012203
0.000128702
0.00012828
0.000107325
0.000121671
9.36331e-05
0.000128145
0.000107481
0.000121793
0.000132755
0.000121108
0.000117584
0.00013495
0.000117371
0.000134779
0.000132906
0.000119183
0.000136399
0.000129219
0.000129221
0.000129393
0.000118918
0.000129397
0.000128528
0.000122236
9.36687e-05
0.000107751
0.000122043
0.000107517
0.000128708
0.00013275
0.000121103
0.000117587
0.000134946
0.000117367
0.000134772
0.000132904
0.000128552
0.000122255
9.37077e-05
0.000107817
0.000107571
0.000122061
0.000128739
0.00013277
0.000121116
0.000134956
0.000117636
0.00013478
0.000117403
0.00013293
0.000132457
0.000117141
0.000134327
0.000121013
0.000132336
0.000117284
0.000134475
0.000128523
0.000122225
9.36643e-05
0.000107725
0.000122042
0.000107503
0.000128697
0.000128283
0.000107326
0.000121678
9.36342e-05
0.000128151
0.000121802
0.000107473
0.00013275
0.000121093
0.000117558
0.000134939
0.000117357
0.000134776
0.000132896
0.00013246
0.000134328
0.000117142
0.000121015
0.000132338
0.000134476
0.000117286
0.00012853
0.000122227
9.36676e-05
0.000107725
0.000107507
0.000122044
0.000128703
0.00012829
0.00010733
0.000121685
9.36377e-05
0.000128157
0.000107478
0.000121807
0.000132754
0.000121095
0.000134941
0.000117558
0.000134778
0.000117359
0.0001329
0.000132453
0.000134322
0.000117135
0.000121012
0.000132331
0.000134471
0.000117281
0.000128527
0.000122235
9.36678e-05
0.000107726
0.000122048
0.000107506
0.000128703
0.000128284
0.000107472
0.000132749
0.000121089
0.000134938
0.000117559
0.000134773
0.000117356
0.000132897
0.000132454
0.000134323
0.000117137
0.000121012
0.000132332
0.000134471
0.000117279
0.000128519
0.000122212
9.36547e-05
0.000107721
0.000107496
0.000122029
0.000128693
0.000128281
0.000107323
0.000121677
9.36264e-05
0.00012815
0.000107468
0.000121797
0.000132747
0.000121088
0.000134937
0.000117556
0.000134772
0.000117353
0.000132894
0.000119179
0.000136406
0.000129226
0.000129225
0.000118915
0.000129399
0.000129398
0.0002787
0.000231923
0.000231908
0.000200334
0.000200207
0.000200332
0.000200376
0.00023188
0.000231873
0.000231862
0.000231854
0.000200341
0.000200382
0.000231905
0.000231855
0.000231887
0.000231835
0.000231887
0.000231907
0.00023187
0.000200324
0.00020036
0.000231914
0.000231889
0.000231895
0.000200374
0.000231872
0.000231897
0.000103179
5.11155e-05
5.11157e-05
0.00010317
2.4038e-05
2.40385e-05
0.000103186
5.11124e-05
5.11126e-05
0.000103177
0.00027871
0.000278692
0.000278713
0.000278692
0.000278699
0.00027868
0.000278703
0.000151856
0.000107321
0.000258223
0.000231914
0.000107335
0.000258225
0.000151816
2.40357e-05
2.40363e-05
0.000151848
0.000258217
0.000107322
0.000231898
0.000258219
0.000107335
0.000151811
8.00967e-05
8.00957e-05
0.000200443
8.01001e-05
8.00987e-05
8.0094e-05
8.00922e-05
2.40387e-05
2.40392e-05
2.40373e-05
2.40378e-05
8.00998e-05
8.00953e-05
0.000200441
8.01032e-05
8.00987e-05
2.40392e-05
2.40386e-05
2.40379e-05
2.40373e-05
0.00020024
8.01018e-05
8.00971e-05
8.0098e-05
8.00933e-05
0.000103182
5.11158e-05
5.11161e-05
0.000103173
0.000151849
0.000107324
0.000258209
0.000231872
0.000107338
0.000258212
0.000151813
0.000151851
0.00010732
0.000258207
0.000231863
0.000107334
0.000258209
0.000151815
0.000103168
5.11157e-05
5.11154e-05
0.000103177
0.000103171
5.11161e-05
5.11158e-05
0.00010318
0.000151816
0.000231865
0.000107335
0.000258202
0.000107322
0.00025821
0.000151837
0.000151818
0.000231857
0.000107331
0.0002582
0.000107318
0.000258208
0.000151839
8.00953e-05
8.0092e-05
0.000200438
8.00985e-05
8.00946e-05
2.40385e-05
2.40391e-05
2.40385e-05
2.4038e-05
0.000200238
8.0097e-05
8.00927e-05
8.0093e-05
8.0089e-05
2.40391e-05
2.40385e-05
0.000151849
0.000107315
0.000258203
0.000231897
0.000107329
0.000258204
0.000151814
0.000103182
5.11081e-05
5.11084e-05
0.000103174
0.000151845
0.000258195
0.0001073
0.000231844
0.000258196
0.000107314
0.000151809
0.000103175
5.11126e-05
5.11123e-05
0.000103184
0.000151816
0.00023189
0.000107326
0.000258196
0.000107313
0.000258204
0.000151838
0.000103171
5.11085e-05
5.11081e-05
0.00010318
0.000151811
0.000231838
0.000258187
0.000107311
0.000258195
0.000107297
0.000151834
0.000103183
5.1115e-05
5.11153e-05
0.000103173
0.000151853
0.000258216
0.000107321
0.000231879
0.00025822
0.000107335
0.000151813
0.000103181
5.11115e-05
5.11118e-05
0.000103171
0.000151824
0.000231909
0.000107333
0.000258221
0.000107319
0.000258226
0.000151846
0.000103172
5.11154e-05
5.1115e-05
0.000103182
0.000151822
0.000231873
0.000258216
0.000107333
0.00025822
0.000107319
0.000151843
0.00010317
5.11119e-05
5.11115e-05
0.00010318
8.00787e-05
8.00971e-05
0.000200418
8.0081e-05
8.01e-05
2.40377e-05
2.40382e-05
2.40363e-05
2.40357e-05
0.000200219
8.00792e-05
8.00987e-05
8.00753e-05
8.00946e-05
2.40382e-05
2.40377e-05
0.000151852
0.000258217
0.00010732
0.000231905
0.000258219
0.000107334
0.000151815
0.000103179
5.11113e-05
5.11116e-05
0.00010317
0.000103185
5.11118e-05
5.11121e-05
0.000103177
0.000151817
0.000231892
0.000258212
0.000107333
0.000258218
0.000107319
0.000151841
0.000151821
0.000231898
0.000258213
0.000107331
0.000258219
0.000107318
0.000151844
0.000103168
5.11117e-05
5.11113e-05
0.000103177
0.000103175
5.11121e-05
5.11117e-05
0.000103184
2.40374e-05
2.40379e-05
2.4037e-05
2.40375e-05
0.000200241
8.0099e-05
8.00973e-05
8.00948e-05
8.00934e-05
2.4038e-05
2.40374e-05
2.40376e-05
2.4037e-05
0.000258213
0.000107318
0.00015181
5.11116e-05
0.000103169
0.000107316
5.11118e-05
2.40375e-05
2.40371e-05
3.69361e-05
4.12984e-05
9.7314e-05
0.000103169
4.1298e-05
9.73041e-05
3.69365e-05
2.04426e-05
5.11158e-05
8.08861e-05
8.08938e-05
2.04417e-05
2.04417e-05
8.08929e-05
5.11154e-05
8.08854e-05
2.04425e-05
3.69365e-05
0.00010318
4.12981e-05
9.73048e-05
4.12984e-05
9.7315e-05
3.69361e-05
2.40385e-05
2.4038e-05
3.69378e-05
9.73264e-05
4.1298e-05
0.000103176
9.73171e-05
4.12977e-05
3.69381e-05
2.04437e-05
5.11127e-05
8.09081e-05
8.09156e-05
2.0443e-05
2.0443e-05
8.09145e-05
5.11123e-05
8.09071e-05
2.04437e-05
3.69382e-05
0.000103187
9.73177e-05
4.12977e-05
9.73277e-05
4.1298e-05
3.69378e-05
2.40363e-05
2.40357e-05
8.33094e-05
2.18462e-05
2.18432e-05
2.18456e-05
2.18426e-05
8.33119e-05
0.000108528
0.000134347
8.01011e-05
4.90337e-05
0.000134362
4.9034e-05
0.000108519
0.000108533
0.000134328
8.00999e-05
4.90242e-05
0.000134343
4.90245e-05
0.000108524
0.000108516
4.9034e-05
8.00956e-05
0.000134357
0.000134342
4.90336e-05
0.000108525
0.000108521
4.90245e-05
8.00944e-05
0.000134338
0.000134324
4.90241e-05
0.00010853
8.33139e-05
2.18456e-05
2.18426e-05
2.18462e-05
2.18432e-05
8.33115e-05
0.000108522
0.000134337
4.90336e-05
8.00989e-05
0.000108512
0.000134354
4.9034e-05
0.000108527
0.000134317
4.90241e-05
8.0097e-05
0.000108517
0.000134334
4.90245e-05
8.33068e-05
2.18455e-05
2.18425e-05
8.33037e-05
2.18461e-05
2.18432e-05
2.40392e-05
2.40386e-05
2.40379e-05
2.40373e-05
8.33105e-05
2.18462e-05
2.18429e-05
2.18457e-05
2.18423e-05
8.33135e-05
0.000108532
0.000134349
8.01041e-05
4.90343e-05
4.90347e-05
0.000134364
0.000108523
0.000108531
0.000134327
8.00997e-05
4.90228e-05
4.90231e-05
0.000134342
0.000108522
0.000108521
4.90346e-05
8.00988e-05
0.000134359
4.90343e-05
0.00010853
0.000134345
0.00010852
4.90231e-05
8.00943e-05
0.000134337
4.90227e-05
0.000108529
0.000134322
8.33147e-05
2.18457e-05
2.18424e-05
2.18463e-05
2.1843e-05
8.33113e-05
2.40386e-05
2.40392e-05
2.40373e-05
2.40378e-05
8.33114e-05
2.18456e-05
2.18423e-05
8.33091e-05
2.18462e-05
2.18429e-05
0.000108517
0.000134355
8.00973e-05
4.90346e-05
4.90342e-05
0.000134338
0.000108527
0.000108516
0.000134333
8.00926e-05
4.9023e-05
4.90226e-05
0.000134316
0.000108526
0.000108528
4.90342e-05
0.00013434
8.01024e-05
0.000108519
4.90346e-05
0.000134356
0.000108527
4.90227e-05
0.000134318
8.00978e-05
0.000108518
4.9023e-05
0.000134334
8.33067e-05
2.18462e-05
2.18429e-05
2.18456e-05
2.18423e-05
8.33087e-05
3.69378e-05
4.12985e-05
9.73277e-05
0.000103172
4.12982e-05
9.73181e-05
3.69382e-05
2.04434e-05
5.11161e-05
8.09101e-05
8.09176e-05
2.04427e-05
2.04427e-05
8.09165e-05
5.11158e-05
8.09091e-05
2.04434e-05
3.69382e-05
0.000103183
4.12982e-05
9.7319e-05
4.12985e-05
9.73288e-05
3.69378e-05
3.69365e-05
4.12981e-05
9.73029e-05
0.000103178
3.69361e-05
4.12984e-05
9.73127e-05
2.04417e-05
5.11154e-05
8.08912e-05
2.04426e-05
8.08835e-05
2.04425e-05
8.08844e-05
5.11157e-05
2.04417e-05
8.0892e-05
3.69361e-05
0.000103167
4.12984e-05
9.73117e-05
3.69365e-05
4.12981e-05
9.73016e-05
3.69382e-05
4.12982e-05
9.73168e-05
0.000103181
3.69378e-05
4.12985e-05
9.73263e-05
2.04427e-05
5.11158e-05
8.09146e-05
8.0907e-05
2.04435e-05
2.04434e-05
8.0908e-05
5.11161e-05
2.04427e-05
8.09154e-05
3.69378e-05
0.00010317
4.12986e-05
9.73252e-05
4.12982e-05
9.73154e-05
3.69383e-05
8.33088e-05
2.18436e-05
2.18462e-05
2.1843e-05
2.18456e-05
8.33113e-05
0.000108532
0.000134324
8.00997e-05
4.90246e-05
4.9025e-05
0.000134339
0.000108523
0.000108531
0.00013435
8.00961e-05
4.90333e-05
0.000134364
4.90336e-05
0.000108522
0.00010852
4.9025e-05
8.0094e-05
0.000134334
4.90246e-05
0.000134319
0.000108529
0.000108519
4.90336e-05
8.00903e-05
0.000134359
0.000134345
4.90332e-05
0.000108528
8.33133e-05
2.1843e-05
2.18457e-05
2.18436e-05
2.18462e-05
8.33108e-05
2.40391e-05
2.40385e-05
2.4038e-05
2.40385e-05
8.33089e-05
2.18429e-05
2.18456e-05
8.33067e-05
2.18435e-05
2.18462e-05
0.000108516
0.00013433
8.00923e-05
4.90249e-05
0.000134312
4.90245e-05
0.000108526
0.000108515
0.000134355
8.00879e-05
4.90336e-05
4.90332e-05
0.000134338
0.000108525
0.000108527
4.90245e-05
0.000134314
8.00976e-05
0.00013433
0.000108518
4.90249e-05
0.000108526
4.90332e-05
0.00013434
8.00935e-05
0.000108517
4.90336e-05
0.000134355
8.33042e-05
2.18435e-05
2.18461e-05
2.18429e-05
2.18455e-05
8.33062e-05
2.40385e-05
2.40391e-05
3.69351e-05
4.12978e-05
9.731e-05
0.000103173
4.12975e-05
9.73001e-05
3.69356e-05
2.0442e-05
5.11084e-05
8.08806e-05
8.08883e-05
2.04412e-05
2.04412e-05
8.08872e-05
5.11081e-05
8.08796e-05
2.0442e-05
3.69356e-05
0.000103183
4.12975e-05
9.7301e-05
4.12978e-05
9.73111e-05
3.69351e-05
3.69382e-05
9.73155e-05
4.12977e-05
0.000103185
3.69378e-05
9.73252e-05
4.1298e-05
2.0443e-05
5.11123e-05
8.09124e-05
2.04437e-05
8.09048e-05
2.04437e-05
8.09059e-05
5.11126e-05
2.0443e-05
8.09133e-05
3.69378e-05
0.000103174
9.73238e-05
4.1298e-05
3.69382e-05
9.73144e-05
4.12977e-05
3.69356e-05
4.12975e-05
9.72987e-05
0.000103181
3.69351e-05
4.12978e-05
9.73085e-05
2.04412e-05
5.11081e-05
8.08851e-05
8.08774e-05
2.0442e-05
2.0442e-05
8.08784e-05
5.11084e-05
2.04412e-05
8.0886e-05
3.69351e-05
0.00010317
4.12979e-05
9.73074e-05
4.12975e-05
9.72972e-05
3.69356e-05
3.69385e-05
9.73288e-05
4.12981e-05
0.000103173
9.7319e-05
4.12978e-05
3.69389e-05
2.04442e-05
5.11153e-05
8.09105e-05
8.09182e-05
2.04435e-05
2.04435e-05
8.09173e-05
5.1115e-05
8.09097e-05
2.04442e-05
3.69389e-05
0.000103184
9.73196e-05
4.12978e-05
9.73295e-05
4.12981e-05
3.69385e-05
3.69363e-05
4.1298e-05
9.73188e-05
0.00010317
4.12977e-05
9.7309e-05
3.69367e-05
2.0443e-05
5.11118e-05
8.08898e-05
8.08975e-05
2.04422e-05
2.04422e-05
8.08969e-05
5.11115e-05
8.08892e-05
2.0443e-05
3.69367e-05
0.000103181
4.12977e-05
9.73094e-05
4.1298e-05
9.73193e-05
3.69362e-05
3.69389e-05
9.73181e-05
4.12978e-05
0.000103182
3.69385e-05
9.73279e-05
4.12981e-05
2.04435e-05
5.1115e-05
8.09159e-05
8.09081e-05
2.04442e-05
2.04442e-05
8.09088e-05
5.11153e-05
2.04435e-05
8.09164e-05
3.69385e-05
0.000103172
9.73273e-05
4.12982e-05
9.73172e-05
4.12978e-05
3.6939e-05
3.69367e-05
4.12977e-05
9.73083e-05
0.00010318
3.69363e-05
4.1298e-05
9.73181e-05
2.04422e-05
5.11115e-05
8.08959e-05
8.08881e-05
2.0443e-05
2.0443e-05
8.08886e-05
5.11118e-05
2.04422e-05
8.08963e-05
3.69363e-05
0.000103169
4.12981e-05
9.73178e-05
4.12977e-05
9.73077e-05
3.69367e-05
8.33062e-05
2.18425e-05
2.1846e-05
2.18419e-05
2.18454e-05
8.33092e-05
0.000108521
0.000134311
8.00826e-05
4.90218e-05
4.90222e-05
0.000134325
0.000108512
0.000108525
0.000134346
8.01013e-05
4.90341e-05
0.00013436
4.90344e-05
0.000108517
0.000108509
4.90221e-05
8.00768e-05
0.000134319
4.90217e-05
0.000134305
0.000108518
0.000108513
4.90344e-05
8.00957e-05
0.000134355
0.00013434
4.9034e-05
0.000108523
8.33106e-05
2.18419e-05
2.18454e-05
2.18425e-05
2.1846e-05
8.33079e-05
2.40382e-05
2.40377e-05
2.40357e-05
2.40363e-05
8.33081e-05
2.18418e-05
2.18454e-05
8.33049e-05
2.18424e-05
2.1846e-05
0.000108506
0.000134315
8.00743e-05
4.90222e-05
0.000134298
4.90217e-05
0.000108516
0.00010851
0.000134351
8.00939e-05
4.90344e-05
4.9034e-05
0.000134334
0.000108521
0.000108517
4.90217e-05
0.0001343
8.00799e-05
0.000134316
0.000108507
4.90221e-05
0.000108521
4.9034e-05
0.000134336
8.00991e-05
0.000108511
4.90344e-05
0.000134351
8.33038e-05
2.18424e-05
2.1846e-05
2.18418e-05
2.18453e-05
8.33068e-05
2.40377e-05
2.40382e-05
3.69364e-05
9.7314e-05
4.12981e-05
0.000103169
9.73039e-05
4.12977e-05
3.69368e-05
2.04432e-05
5.11116e-05
8.08897e-05
8.08971e-05
2.04424e-05
2.04424e-05
8.08961e-05
5.11113e-05
8.08888e-05
2.04431e-05
3.69368e-05
0.00010318
9.73042e-05
4.12977e-05
9.7315e-05
4.12981e-05
3.69364e-05
3.69382e-05
9.73217e-05
4.12985e-05
0.000103176
9.73115e-05
4.12981e-05
3.69387e-05
2.04437e-05
5.11121e-05
8.09011e-05
8.09089e-05
2.04429e-05
2.04429e-05
8.0908e-05
5.11118e-05
8.09002e-05
2.04437e-05
3.69387e-05
0.000103186
9.73122e-05
4.12981e-05
9.73226e-05
4.12985e-05
3.69382e-05
3.69369e-05
9.73024e-05
4.12977e-05
0.000103178
3.69364e-05
9.7313e-05
4.12981e-05
2.04424e-05
5.11113e-05
8.08945e-05
8.0887e-05
2.04432e-05
2.04432e-05
8.08878e-05
5.11116e-05
2.04424e-05
8.08951e-05
3.69364e-05
0.000103167
9.73121e-05
4.12981e-05
9.73016e-05
4.12978e-05
3.69369e-05
3.69387e-05
9.73105e-05
4.12981e-05
0.000103184
3.69382e-05
9.73205e-05
4.12985e-05
2.04429e-05
5.11118e-05
8.09064e-05
8.08984e-05
2.04437e-05
2.04437e-05
8.08992e-05
5.11121e-05
2.04429e-05
8.0907e-05
3.69383e-05
0.000103174
9.73198e-05
4.12986e-05
9.73094e-05
4.12982e-05
3.69387e-05
2.40379e-05
2.40374e-05
2.40375e-05
2.4037e-05
8.331e-05
2.18455e-05
2.18426e-05
8.33074e-05
2.18461e-05
2.18431e-05
0.000108512
0.000134353
8.00942e-05
4.9034e-05
0.000108522
0.000134336
4.90336e-05
0.000108518
0.000134333
8.00927e-05
4.90245e-05
0.000108527
0.000134317
4.90241e-05
0.000108523
4.90336e-05
0.000134338
8.00994e-05
0.000108514
0.000134353
4.9034e-05
0.000108528
4.90241e-05
0.000134319
8.00979e-05
0.000108519
0.000134334
4.90245e-05
8.33055e-05
2.18461e-05
2.18431e-05
8.33082e-05
2.18455e-05
2.18425e-05
2.40374e-05
2.4038e-05
2.4037e-05
2.40376e-05
2.0443e-05
8.0888e-05
5.1112e-05
2.04423e-05
8.08961e-05
3.69368e-05
0.00010318
4.12978e-05
9.73076e-05
3.69363e-05
4.12981e-05
9.7318e-05
5.11122e-05
2.4038e-05
2.40376e-05
0.000317278
0.000317296
0.000278697
0.000317278
0.000317296
0.000387581
0.000387582
0.000144672
0.000172872
0.000172855
0.000200502
0.000172894
0.000172878
0.000144661
0.000144665
0.000172807
0.000172789
0.000200407
0.000144644
0.000172857
0.00017284
0.000144673
0.000172871
0.000172853
0.000200499
0.000172894
0.000172877
0.000144661
0.000144642
0.000200203
0.000172835
0.000172818
0.000172799
0.000172782
0.000144662
0.000144672
0.000172851
0.000172875
0.000200501
0.000172893
0.000172869
0.000144661
0.000144641
0.000200205
0.000172816
0.00017284
0.000172778
0.000172803
0.000144662
0.000144659
0.000172836
0.000172865
0.000200482
0.00017288
0.000172853
0.000144649
0.000144629
0.000200186
0.000172799
0.000172827
0.000172762
0.000172791
0.000144649
0.000144639
0.000200203
0.000172834
0.000172817
0.000144659
0.000172799
0.000172781
0.000317282
0.000317314
0.000278705
0.000317281
0.000317314
0.000387591
0.000387591
0.000317266
0.000317298
0.000278686
0.000317264
0.000317297
0.000387553
0.000387555
0.000317288
0.000317306
0.000278709
0.000317288
0.000317305
0.000387564
0.000387565
0.000278695
0.000317275
0.000317291
0.000317277
0.000317294
0.000387585
0.000387586
0.000278702
0.000317276
0.000317311
0.000317279
0.000317313
0.000387595
0.000387596
0.000278683
0.000317258
0.000317292
0.000317261
0.000317295
0.000387554
0.000387557
0.000278706
0.000317285
0.000317301
0.000317286
0.000317303
0.000387569
0.000387571
0.000185824
0.000144276
0.000192961
0.000151822
0.000144237
0.000192869
0.00018594
0.000172271
0.000156062
0.000107337
0.000127924
0.000156087
0.000127954
0.000172187
0.000172212
0.000127956
0.00010732
0.00015609
0.000156065
0.000127926
0.000172309
0.000185879
0.000151849
0.000144232
0.000192834
0.000144271
0.000192904
0.00018579
0.000185821
0.000192955
0.000144264
0.000151815
0.000192867
0.000144227
0.000185935
0.000172267
0.000156057
0.000107337
0.000127917
0.000156082
0.000127946
0.000172182
0.000172208
0.000127947
0.000107321
0.000156085
0.00015606
0.000127918
0.000172304
0.000185876
0.000151844
0.000192835
0.000144223
0.000192904
0.000144261
0.000185786
0.000144649
0.000200303
0.000172862
0.000172845
0.000172845
0.000172828
0.000144663
0.00014465
0.0002003
0.000172862
0.000172844
0.000144665
0.000172844
0.000172827
0.000144661
0.000200394
0.000172815
0.000172797
0.000144643
0.000172842
0.000172824
0.000185834
0.000144264
0.000192965
0.000151816
0.000144228
0.000192877
0.000185945
0.00017227
0.000156057
0.000107339
0.000127916
0.000127944
0.000156083
0.000172181
0.000172216
0.000127944
0.000107323
0.000156085
0.000127917
0.000156061
0.000172308
0.000185881
0.000151846
0.000144224
0.000192832
0.000144261
0.000192909
0.000185785
0.000185831
0.00014427
0.000192964
0.000151819
0.000144233
0.000192877
0.000185943
0.000172261
0.00015604
0.000107335
0.000127919
0.000127948
0.000156066
0.000172173
0.000172205
0.000127948
0.000107319
0.000156068
0.00012792
0.000172299
0.000156043
0.00018588
0.000151848
0.000144229
0.000192832
0.000144268
0.000192909
0.000185784
0.000185978
0.000144227
0.000192918
0.000151844
0.000185885
0.00014426
0.000192989
0.00017223
0.000156072
0.00010732
0.000127937
0.000156053
0.000127912
0.000172281
0.00017232
0.000127916
0.00015606
0.000107336
0.000156079
0.000172242
0.000127941
0.000185885
0.000151809
0.000144253
0.000192943
0.000144221
0.000192913
0.000185932
0.000185977
0.000144233
0.000192917
0.000151847
0.000185883
0.000144267
0.000192989
0.000172222
0.000156055
0.000107316
0.000127941
0.000127914
0.000156035
0.000172273
0.000172311
0.000127918
0.000156043
0.000107332
0.000172232
0.000127945
0.000156063
0.000185884
0.000151811
0.000144259
0.000192943
0.000144226
0.000192913
0.000185931
0.000144649
0.000200296
0.000172839
0.000172863
0.000172843
0.000172819
0.000144664
0.00014466
0.000200394
0.000172792
0.000172817
0.000172819
0.000144642
0.000172844
0.000185825
0.000144269
0.000192956
0.000151818
0.000144232
0.00019287
0.000185937
0.000172263
0.000156043
0.000107331
0.000127918
0.000127947
0.000156069
0.000172175
0.000172206
0.000127947
0.000107314
0.000156072
0.000127919
0.000156047
0.000172301
0.000185876
0.000151848
0.000144228
0.00019283
0.000144267
0.000192904
0.000185782
0.000185811
0.000192951
0.000144254
0.000151813
0.000192864
0.000144217
0.000185923
0.000172242
0.000156022
0.000107315
0.000127901
0.000127929
0.000156047
0.000172157
0.000172184
0.000127929
0.000107299
0.000156049
0.000127902
0.000172278
0.000156024
0.000185864
0.000151843
0.000192825
0.000144214
0.000192899
0.000144251
0.000185772
0.000185974
0.000144231
0.000192911
0.000151845
0.000185878
0.000144266
0.000192982
0.000172227
0.000156059
0.000107311
0.00012794
0.000156039
0.000127913
0.00017228
0.000172315
0.000127917
0.000156047
0.000107328
0.000156067
0.000172234
0.000127944
0.000185883
0.00015181
0.000144258
0.000192942
0.000144226
0.00019291
0.000185934
0.000185961
0.000192906
0.000144217
0.00015184
0.000185865
0.000192977
0.00014425
0.000172207
0.000156037
0.000107295
0.000127922
0.000127896
0.000156017
0.00017226
0.000172294
0.0001279
0.000156024
0.000107312
0.000172212
0.000127926
0.000156044
0.000185871
0.000151805
0.000192938
0.000144244
0.000192905
0.000144211
0.000185923
0.000185822
0.00019296
0.000144269
0.00015182
0.000192869
0.00014423
0.000185937
0.000172265
0.000156055
0.000107336
0.000127916
0.00015608
0.000127946
0.00017218
0.000172208
0.000127948
0.00010732
0.000156084
0.000156059
0.000127918
0.000172303
0.000185874
0.000151847
0.000192832
0.000144225
0.000192902
0.000144264
0.000185785
0.000185988
0.00014424
0.000192923
0.000151854
0.000185887
0.000144275
0.000192999
0.000172248
0.000156081
0.000107317
0.000127949
0.000172305
0.000156061
0.000127922
0.000172332
0.000127926
0.000156066
0.000107334
0.000172246
0.000156088
0.000127954
0.000185903
0.000151818
0.000144268
0.000192969
0.000185963
0.000144235
0.000192931
0.000185981
0.000192921
0.000144232
0.000151851
0.000185883
0.000192996
0.000144267
0.000172239
0.000156074
0.000107318
0.000127942
0.000127915
0.000156055
0.000172295
0.000172323
0.000127918
0.00015606
0.000107334
0.000172239
0.000127945
0.000156081
0.000185896
0.000151816
0.000192965
0.00014426
0.000192928
0.000144227
0.000185954
0.000144637
0.000200278
0.000172822
0.00017285
0.000172831
0.000172803
0.000144651
0.000144647
0.000200375
0.000172776
0.000172805
0.000172803
0.00014463
0.000172831
0.000185823
0.000192957
0.000144269
0.000151819
0.000192868
0.000144231
0.000185936
0.000172262
0.000156046
0.000107335
0.000127917
0.000156072
0.000127947
0.000172176
0.000172205
0.000127947
0.000107319
0.000156075
0.00015605
0.000127919
0.0001723
0.000185875
0.000151847
0.000192835
0.000144227
0.000192904
0.000144264
0.000185785
0.000185979
0.000192915
0.000144228
0.000151848
0.00018588
0.000192992
0.000144264
0.000172238
0.000156074
0.000107318
0.00012794
0.000172292
0.000156054
0.000127914
0.000172324
0.000127917
0.000156061
0.000107334
0.000172239
0.000156081
0.000127945
0.000185893
0.000151813
0.000192961
0.000144256
0.000185949
0.000192925
0.000144224
0.00018598
0.000192917
0.000144233
0.000151851
0.000185882
0.000192993
0.000144267
0.000172233
0.000156063
0.000107316
0.000127941
0.000127914
0.000156043
0.000172287
0.000172319
0.000127918
0.00015605
0.000107332
0.000172236
0.000127945
0.000156071
0.000185895
0.000151817
0.000192962
0.00014426
0.000192926
0.000144228
0.000185949
0.000144658
0.000200395
0.000172816
0.000172798
0.000144641
0.000172841
0.000172824
0.00017226
0.000156048
0.000127912
0.000107333
0.000156072
0.000172199
0.000127941
0.000185887
0.00015184
0.000192873
0.000144222
0.000192908
0.000185838
0.000144257
0.000156037
0.000107331
0.00015606
0.000123748
0.000140063
0.00014009
0.000137627
0.000126877
0.000143813
0.000143771
0.000140651
0.000129327
0.000145802
0.000145827
0.000141815
0.000133489
0.000151391
0.0001514
0.000146786
0.000134892
0.000150856
0.000150853
0.000144691
0.000141734
0.000160886
0.00016095
0.000156204
0.000142446
0.00015636
0.000156386
0.000144666
0.000148307
0.000170421
0.000170189
0.000160735
0.000181619
0.000202876
0.000202954
0.000200624
0.000166257
0.000169693
0.000169739
0.000157239
0.000131794
0.000139249
0.000139206
0.000124433
0.000129233
0.0001476
0.000147596
0.000134921
0.000189347
0.000188084
0.000188094
0.000166452
0.000242416
0.00021759
0.000217556
0.000190008
0.000271192
0.000230788
0.000230766
0.000200163
0.000279079
0.000232891
0.000232889
0.000201445
0.000279074
0.000231907
0.000231908
0.000200342
0.000277712
0.000231272
0.00023126
0.000199722
0.000277668
0.00023146
0.000231441
0.000199924
0.000278299
0.000231785
0.000231772
0.00020016
0.000278618
0.0002319
0.00023189
0.000200276
0.000278686
0.000231909
0.0002319
0.000200226
0.000278709
0.000231936
0.000231925
0.000200335