/*--------------------------------*- C++ -*----------------------------------*\
| =========                 |                                                 |
| \\      /  F ield         | OpenFOAM: The Open Source CFD Toolbox           |
|  \\    /   O peration     | Version:  v1906                                 |
|   \\  /    A nd           | Web:      www.OpenFOAM.com                      |
|    \\/     M anipulation  |                                                 |
\*---------------------------------------------------------------------------*/
FoamFile
{
    version     2.0;
    format      ascii;
    class       volVectorField;
    location    "400";
    object      U;
}
// * * * * * * * * * * * * * * * * * * * * * * * * * * * * * * * * * * * * * //

dimensions      [0 1 -1 0 0 0 0];


internalField   nonuniform List<vector> 
42616
(
(0.000106243 0.000106151 0.100294)
(-0.000184934 0.000115497 0.10039)
(0.000115652 -0.000184915 0.10039)
(-0.000247896 -0.000247766 0.100398)
(9.72164e-05 9.71535e-05 0.100854)
(-0.000151298 9.35799e-05 0.100938)
(9.36272e-05 -0.000151486 0.100939)
(-0.000194346 -0.000194342 0.100971)
(9.70562e-05 9.70407e-05 0.101369)
(-0.000152278 9.09081e-05 0.101447)
(9.09673e-05 -0.000152249 0.101448)
(-0.000194738 -0.000194788 0.101474)
(9.48178e-05 9.48129e-05 0.101886)
(-0.00014931 8.71187e-05 0.101954)
(8.72214e-05 -0.000149282 0.101954)
(-0.000192202 -0.000192136 0.101967)
(9.14252e-05 9.14267e-05 0.102391)
(-0.000143637 8.24316e-05 0.102442)
(8.25073e-05 -0.000143652 0.102442)
(-0.000186977 -0.000186932 0.102435)
(8.79698e-05 8.79573e-05 0.102877)
(-0.000137722 7.83489e-05 0.102907)
(7.84137e-05 -0.000137749 0.102907)
(-0.000181596 -0.00018151 0.102874)
(8.48335e-05 8.4805e-05 0.103344)
(-0.000132312 7.50422e-05 0.103348)
(7.513e-05 -0.000132346 0.103348)
(-0.000176933 -0.000176905 0.103285)
(8.21266e-05 8.2106e-05 0.103793)
(-0.000127575 7.25e-05 0.103768)
(7.25439e-05 -0.00012759 0.103768)
(-0.000173138 -0.000173217 0.103668)
(7.98445e-05 7.98274e-05 0.104226)
(-0.000123504 7.05359e-05 0.104168)
(7.05544e-05 -0.000123457 0.104168)
(-0.000170204 -0.00017031 0.104027)
(7.79003e-05 7.78507e-05 0.104646)
(-0.000120042 6.92066e-05 0.10455)
(6.91617e-05 -0.000119911 0.10455)
(-0.000168086 -0.00016811 0.104363)
(7.61589e-05 7.61082e-05 0.105053)
(-0.000116909 6.81216e-05 0.104917)
(6.81311e-05 -0.000116761 0.104917)
(-0.000166545 -0.000166559 0.104678)
(7.45805e-05 7.45248e-05 0.10545)
(-0.000113937 6.71152e-05 0.105269)
(6.71394e-05 -0.000113798 0.105269)
(-0.000165208 -0.000165234 0.104972)
(7.31038e-05 7.30513e-05 0.105836)
(-0.000111231 6.61129e-05 0.105606)
(6.6158e-05 -0.000111168 0.105606)
(-0.000164055 -0.000164136 0.105245)
(7.16434e-05 7.16043e-05 0.106213)
(-0.000108732 6.5036e-05 0.10593)
(6.50819e-05 -0.000108707 0.10593)
(-0.000163014 -0.000163054 0.105498)
(7.02149e-05 7.0187e-05 0.106581)
(-0.000106278 6.39928e-05 0.106239)
(6.40138e-05 -0.000106291 0.106239)
(-0.000161752 -0.000161771 0.105728)
(6.88023e-05 6.87808e-05 0.10694)
(-0.000103883 6.29953e-05 0.106534)
(6.30105e-05 -0.000103918 0.106534)
(-0.000160239 -0.000160292 0.105935)
(6.74152e-05 6.74043e-05 0.10729)
(-0.000101552 6.19953e-05 0.106813)
(6.20064e-05 -0.000101583 0.106813)
(-0.000158617 -0.00015868 0.106117)
(6.60776e-05 6.60856e-05 0.107631)
(-9.92885e-05 6.09948e-05 0.107077)
(6.103e-05 -9.9402e-05 0.107077)
(-0.000156799 -0.000156845 0.106274)
(6.47801e-05 6.48061e-05 0.107963)
(-9.73175e-05 6.00527e-05 0.107325)
(6.00818e-05 -9.74342e-05 0.107325)
(-0.000154745 -0.000154785 0.106405)
(6.3513e-05 6.35292e-05 0.108287)
(-9.54732e-05 5.90543e-05 0.107556)
(5.91151e-05 -9.55626e-05 0.107556)
(-0.000152326 -0.000152356 0.106509)
(6.22725e-05 6.2274e-05 0.108602)
(-9.36513e-05 5.80427e-05 0.10777)
(5.80744e-05 -9.37239e-05 0.10777)
(-0.000149499 -0.000149532 0.106585)
(0.000138153 0.000138145 0.100281)
(0.000126562 0.000159992 0.100229)
(-0.000126543 0.000159928 0.100229)
(-0.000138074 0.00013807 0.100281)
(0.000160026 0.000126516 0.100229)
(0.00016002 -0.000126537 0.100229)
(9.3879e-05 9.3818e-05 0.100152)
(-9.38662e-05 9.3781e-05 0.100152)
(9.38437e-05 -9.38455e-05 0.100152)
(-9.38476e-05 -9.38498e-05 0.100152)
(-0.000159989 0.000126448 0.100229)
(-0.000160024 -0.000126464 0.100229)
(0.000138167 -0.000138189 0.100281)
(0.000126555 -0.00016 0.100229)
(-0.000126507 -0.000159939 0.100229)
(-0.00013817 -0.000137993 0.100281)
(0.000247903 0.000247907 0.100398)
(0.000112839 0.000112654 0.100897)
(0.000115717 0.000184797 0.10039)
(-0.000115628 0.000184828 0.10039)
(9.32232e-05 0.000149105 0.100817)
(-9.30993e-05 0.000149087 0.100817)
(-0.000247764 0.000247794 0.100398)
(-0.000112572 0.000112567 0.100897)
(0.000184999 0.000115554 0.10039)
(0.000184898 -0.000115661 0.10039)
(0.000149071 9.31757e-05 0.100817)
(0.000149068 -9.31728e-05 0.100817)
(-0.00018491 -0.000115673 0.10039)
(-0.000148871 9.31037e-05 0.100817)
(-0.000149087 -9.31717e-05 0.100817)
(0.000247857 -0.000247949 0.100399)
(0.000112652 -0.000112804 0.100897)
(-0.000115616 -0.000184953 0.10039)
(9.31525e-05 -0.000149028 0.100817)
(-9.3112e-05 -0.000148987 0.100817)
(-0.000112731 -0.000112766 0.100897)
(0.000194429 0.000194262 0.100971)
(0.00010545 0.000105349 0.101399)
(9.36678e-05 0.000151566 0.100938)
(-9.35605e-05 0.000151555 0.100938)
(9.14525e-05 0.00015216 0.101319)
(-9.13575e-05 0.00015217 0.101319)
(-0.000194183 0.000194173 0.100971)
(-0.000105373 0.00010524 0.101399)
(0.000151523 9.36265e-05 0.100939)
(0.000151529 -9.36148e-05 0.100939)
(0.000152141 9.14561e-05 0.101319)
(0.000152152 -9.14073e-05 0.101319)
(-0.000151527 -9.36768e-05 0.100939)
(-0.00015208 9.14128e-05 0.101319)
(-0.000152134 -9.14434e-05 0.101319)
(0.000194252 -0.000194399 0.100971)
(0.000105361 -0.000105426 0.101399)
(-9.36061e-05 -0.000151508 0.100939)
(9.14669e-05 -0.000152127 0.101319)
(-9.14369e-05 -0.00015213 0.101319)
(-0.000105383 -0.000105434 0.101399)
(0.000194831 0.0001947 0.101474)
(9.77624e-05 9.77253e-05 0.101896)
(9.09214e-05 0.000152306 0.101448)
(-9.08669e-05 0.000152284 0.101447)
(8.83211e-05 0.000150502 0.101829)
(-8.82655e-05 0.000150442 0.101828)
(-0.000194745 0.000194597 0.101474)
(-9.77378e-05 9.75495e-05 0.101896)
(0.000152257 9.09517e-05 0.101448)
(0.000152283 -9.08812e-05 0.101448)
(0.000150415 8.83586e-05 0.101829)
(0.000150445 -8.82537e-05 0.101829)
(-0.000152298 -9.09261e-05 0.101447)
(-0.000150481 8.82546e-05 0.101828)
(-0.000150534 -8.82958e-05 0.101829)
(0.000194717 -0.000194789 0.101475)
(9.767e-05 -9.77326e-05 0.101896)
(-9.09656e-05 -0.000152244 0.101448)
(8.83561e-05 -0.000150432 0.101829)
(-8.83878e-05 -0.000150406 0.101829)
(-9.78099e-05 -9.77145e-05 0.101896)
(0.00019219 0.000192131 0.101967)
(8.84654e-05 8.84443e-05 0.10237)
(8.71888e-05 0.000149338 0.101954)
(-8.71318e-05 0.000149295 0.101954)
(8.36314e-05 0.000145195 0.102322)
(-8.35386e-05 0.000145193 0.102322)
(-0.000192149 0.000191984 0.101967)
(-8.83937e-05 8.83564e-05 0.10237)
(0.000149264 8.72245e-05 0.101954)
(0.000149287 -8.71277e-05 0.101954)
(0.000145129 8.36853e-05 0.102322)
(0.00014515 -8.35681e-05 0.102322)
(-0.000149381 -8.71649e-05 0.101954)
(-0.000145134 8.35995e-05 0.102322)
(-0.000145246 -8.36383e-05 0.102322)
(0.000192094 -0.000192154 0.101967)
(8.83866e-05 -8.84666e-05 0.10237)
(-8.72647e-05 -0.000149252 0.101954)
(8.36689e-05 -0.000145143 0.102322)
(-8.37243e-05 -0.000145109 0.102322)
(-8.85253e-05 -8.84498e-05 0.10237)
(0.000186964 0.000186898 0.102435)
(7.96943e-05 7.97064e-05 0.102816)
(8.24612e-05 0.000143706 0.102442)
(-8.23786e-05 0.000143715 0.102442)
(7.93577e-05 0.000139258 0.102793)
(-7.92754e-05 0.000139242 0.102793)
(-0.000186876 0.000186824 0.102435)
(-7.96146e-05 7.96791e-05 0.102816)
(0.000143639 8.25064e-05 0.102442)
(0.000143659 -8.2421e-05 0.102442)
(0.000139174 7.9372e-05 0.102793)
(0.00013918 -7.93283e-05 0.102793)
(-0.000143755 -8.24554e-05 0.102442)
(-0.000139164 7.92961e-05 0.102793)
(-0.000139297 -7.93224e-05 0.102793)
(0.00018684 -0.00018696 0.102435)
(7.96828e-05 -7.9674e-05 0.102816)
(-8.25477e-05 -0.000143608 0.102442)
(7.93553e-05 -0.000139188 0.102793)
(-7.93866e-05 -0.000139112 0.102793)
(-7.97587e-05 -7.96143e-05 0.102816)
(0.000181584 0.000181537 0.102874)
(7.19434e-05 7.19334e-05 0.103234)
(7.84286e-05 0.000137817 0.102907)
(-7.8347e-05 0.000137798 0.102907)
(7.59288e-05 0.000133707 0.10324)
(-7.58332e-05 0.000133631 0.10324)
(-0.000181481 0.000181489 0.102874)
(-7.1865e-05 7.18586e-05 0.103234)
(0.000137738 7.84305e-05 0.102907)
(0.000137734 -7.8396e-05 0.102907)
(0.000133626 7.59019e-05 0.10324)
(0.000133596 -7.58852e-05 0.10324)
(-0.000137859 -7.83882e-05 0.102907)
(-0.0001336 7.57939e-05 0.10324)
(-0.000133735 -7.58881e-05 0.10324)
(0.000181497 -0.000181571 0.102874)
(7.19062e-05 -7.19241e-05 0.103234)
(-7.84464e-05 -0.00013767 0.102907)
(7.58848e-05 -0.000133636 0.10324)
(-7.59188e-05 -0.000133571 0.10324)
(-7.19827e-05 -7.18838e-05 0.103234)
(0.00017696 0.000176893 0.103285)
(6.51283e-05 6.51299e-05 0.103626)
(7.51902e-05 0.000132421 0.103348)
(-7.50904e-05 0.000132338 0.103348)
(7.32111e-05 0.000128824 0.103665)
(-7.31128e-05 0.000128725 0.103665)
(-0.000176843 0.000176789 0.103284)
(-6.50472e-05 6.50548e-05 0.103625)
(0.000132343 7.51564e-05 0.103348)
(0.000132299 -7.51382e-05 0.103348)
(0.000128726 7.31808e-05 0.103665)
(0.000128667 -7.31475e-05 0.103665)
(-0.000132438 -7.51492e-05 0.103348)
(-0.000128695 7.30789e-05 0.103665)
(-0.000128799 -7.31925e-05 0.103665)
(0.000176837 -0.000176938 0.103285)
(6.50759e-05 -6.50961e-05 0.103626)
(-7.51645e-05 -0.000132298 0.103348)
(7.31338e-05 -0.000128717 0.103665)
(-7.3163e-05 -0.000128733 0.103665)
(-6.51227e-05 -6.51322e-05 0.103626)
(0.000173216 0.000173147 0.103668)
(5.91779e-05 5.92314e-05 0.103993)
(7.26241e-05 0.0001277 0.103768)
(-7.25325e-05 0.000127608 0.103768)
(7.10733e-05 0.000124557 0.10407)
(-7.09979e-05 0.000124481 0.10407)
(-0.00017309 0.000173051 0.103668)
(-5.91118e-05 5.9177e-05 0.103993)
(0.000127607 7.25961e-05 0.103768)
(0.000127548 -7.25616e-05 0.103768)
(0.000124467 7.10548e-05 0.10407)
(0.000124419 -7.09994e-05 0.10407)
(-0.000127673 -7.26136e-05 0.103768)
(-0.000124455 7.09748e-05 0.10407)
(-0.000124521 -7.10565e-05 0.10407)
(0.000173069 -0.000173175 0.103668)
(5.91873e-05 -5.91081e-05 0.103993)
(-7.25712e-05 -0.000127629 0.103768)
(7.0995e-05 -0.000124428 0.10407)
(-7.10049e-05 -0.000124502 0.10407)
(-5.91541e-05 -5.91841e-05 0.103993)
(0.000170306 0.000170195 0.104027)
(5.41961e-05 5.43445e-05 0.104338)
(7.0662e-05 0.000123596 0.104168)
(-7.05955e-05 0.000123523 0.104168)
(6.97037e-05 0.000120923 0.104456)
(-6.96559e-05 0.000120848 0.104456)
(-0.000170193 0.000170111 0.104027)
(-5.41815e-05 5.42937e-05 0.104338)
(0.000123505 7.06206e-05 0.104168)
(0.000123466 -7.05859e-05 0.104168)
(0.000120816 6.95703e-05 0.104456)
(0.000120804 -6.96003e-05 0.104456)
(-0.000123555 -7.05935e-05 0.104168)
(-0.00012086 6.95052e-05 0.104456)
(-0.000120865 -6.94925e-05 0.104456)
(0.000170123 -0.000170246 0.104027)
(5.43155e-05 -5.40354e-05 0.104338)
(-7.05429e-05 -0.000123532 0.104168)
(6.94533e-05 -0.000120743 0.104456)
(-6.9419e-05 -0.000120803 0.104456)
(-5.41606e-05 -5.40735e-05 0.104338)
(0.000168194 0.000168166 0.104363)
(4.97651e-05 4.9883e-05 0.104663)
(6.94189e-05 0.000120097 0.10455)
(-6.93776e-05 0.000120016 0.10455)
(6.86586e-05 0.00011773 0.104827)
(-6.85966e-05 0.000117626 0.104827)
(-0.000168136 0.00016808 0.104363)
(-4.97137e-05 4.98114e-05 0.104663)
(0.000119984 6.92803e-05 0.104551)
(0.000119981 -6.93219e-05 0.10455)
(0.000117596 6.85076e-05 0.104827)
(0.000117614 -6.8553e-05 0.104827)
(-0.000120042 -6.9202e-05 0.10455)
(-0.000117667 6.83857e-05 0.104827)
(-0.000117665 -6.84148e-05 0.104827)
(0.000168109 -0.000168078 0.104363)
(4.98512e-05 -4.96343e-05 0.104663)
(-6.9129e-05 -0.000119968 0.104551)
(6.83864e-05 -0.000117523 0.104827)
(-6.83471e-05 -0.000117574 0.104827)
(-4.97287e-05 -4.9651e-05 0.104663)
(0.000166645 0.000166613 0.104678)
(4.55551e-05 4.56124e-05 0.104968)
(6.8394e-05 0.000116955 0.104917)
(-6.83397e-05 0.000116856 0.104917)
(6.7637e-05 0.000114709 0.105182)
(-6.75851e-05 0.000114609 0.105182)
(-0.00016658 0.00016651 0.104678)
(-4.55223e-05 4.55906e-05 0.104968)
(0.000116824 6.82445e-05 0.104917)
(0.000116848 -6.82997e-05 0.104917)
(0.000114578 6.7489e-05 0.105182)
(0.000114601 -6.7553e-05 0.105182)
(-0.000116907 -6.81597e-05 0.104917)
(-0.000114653 6.73648e-05 0.105182)
(-0.000114663 -6.74097e-05 0.105182)
(0.00016656 -0.000166545 0.104678)
(4.56054e-05 -4.54723e-05 0.104968)
(-6.80919e-05 -0.000116811 0.104917)
(6.73896e-05 -0.00011452 0.105182)
(-6.73415e-05 -0.000114565 0.105182)
(-4.55142e-05 -4.54813e-05 0.104968)
(0.000165297 0.000165237 0.104972)
(4.15925e-05 4.15971e-05 0.105253)
(6.73819e-05 0.000113986 0.105269)
(-6.73293e-05 0.000113877 0.105269)
(6.66284e-05 0.000111929 0.105523)
(-6.65573e-05 0.000111851 0.105523)
(-0.000165231 0.000165171 0.104972)
(-4.15763e-05 4.16027e-05 0.105253)
(0.000113845 6.72392e-05 0.105269)
(0.000113867 -6.73026e-05 0.105269)
(0.000111825 6.65057e-05 0.105523)
(0.000111847 -6.65414e-05 0.105523)
(-0.000113946 -6.71596e-05 0.105269)
(-0.000111863 6.63733e-05 0.105523)
(-0.000111886 -6.63942e-05 0.105523)
(0.000165217 -0.000165233 0.104972)
(4.15936e-05 -4.15504e-05 0.105253)
(-6.70928e-05 -0.000113845 0.105269)
(6.64169e-05 -0.000111792 0.105523)
(-6.63514e-05 -0.000111789 0.105523)
(-4.15358e-05 -4.15435e-05 0.105253)
(0.000164147 0.000164048 0.105245)
(3.7625e-05 3.77362e-05 0.105519)
(6.63585e-05 0.000111295 0.105606)
(-6.62926e-05 0.000111225 0.105606)
(6.5574e-05 0.000109435 0.10585)
(-6.55109e-05 0.000109355 0.10585)
(-0.000164128 0.000164016 0.105245)
(-3.75503e-05 3.7681e-05 0.105519)
(0.000111196 6.62537e-05 0.105606)
(0.000111216 -6.62776e-05 0.105606)
(0.000109338 6.54473e-05 0.10585)
(0.000109357 -6.55108e-05 0.10585)
(-0.000111258 -6.61337e-05 0.105606)
(-0.000109339 6.5303e-05 0.10585)
(-0.000109384 -6.53629e-05 0.10585)
(0.000164044 -0.000164152 0.105245)
(3.77272e-05 -3.75461e-05 0.105519)
(-6.60926e-05 -0.000111153 0.105607)
(6.53562e-05 -0.000109307 0.10585)
(-6.52827e-05 -0.00010928 0.10585)
(-3.7622e-05 -3.75259e-05 0.105519)
(0.000163089 0.000163036 0.105497)
(3.34765e-05 3.36264e-05 0.105764)
(6.53085e-05 0.000108823 0.10593)
(-6.52457e-05 0.000108749 0.10593)
(6.45582e-05 0.000107005 0.106163)
(-6.44925e-05 0.000106922 0.106163)
(-0.000163038 0.000162973 0.105497)
(-3.33417e-05 3.35333e-05 0.105764)
(0.00010873 6.51793e-05 0.10593)
(0.000108749 -6.52468e-05 0.10593)
(0.00010691 6.44051e-05 0.106163)
(0.000106929 -6.45061e-05 0.106163)
(-0.000108774 -6.51049e-05 0.10593)
(-0.000106875 6.4244e-05 0.106163)
(-0.000106938 -6.43592e-05 0.106163)
(0.000163007 -0.000163068 0.105497)
(3.36337e-05 -3.33748e-05 0.105764)
(-6.50187e-05 -0.00010867 0.10593)
(6.42784e-05 -0.000106883 0.106163)
(-6.42198e-05 -0.000106844 0.106163)
(-3.34607e-05 -3.33356e-05 0.105764)
(0.000161823 0.00016182 0.105727)
(2.93893e-05 2.9499e-05 0.105986)
(6.43073e-05 0.000106397 0.106239)
(-6.42444e-05 0.00010633 0.106239)
(6.35586e-05 0.000104626 0.106461)
(-6.35119e-05 0.000104551 0.106461)
(-0.00016174 0.000161726 0.105727)
(-2.92506e-05 2.94168e-05 0.105987)
(0.000106308 6.41491e-05 0.106239)
(0.000106331 -6.42562e-05 0.106239)
(0.000104528 6.34157e-05 0.106461)
(0.000104549 -6.35166e-05 0.106461)
(-0.000106338 -6.41156e-05 0.106239)
(-0.000104469 6.32573e-05 0.106461)
(-0.000104539 -6.3374e-05 0.106461)
(0.000161786 -0.000161801 0.105727)
(2.94858e-05 -2.92952e-05 0.105986)
(-6.39662e-05 -0.000106248 0.106239)
(6.32637e-05 -0.000104502 0.106461)
(-6.32124e-05 -0.000104457 0.106461)
(-2.93159e-05 -2.92462e-05 0.105986)
(0.000160346 0.000160325 0.105934)
(2.55284e-05 2.56207e-05 0.106186)
(6.33074e-05 0.000104021 0.106533)
(-6.32481e-05 0.000103959 0.106533)
(6.25473e-05 0.000102282 0.106744)
(-6.24918e-05 0.000102211 0.106745)
(-0.000160243 0.000160233 0.105934)
(-2.54012e-05 2.55066e-05 0.106186)
(0.000103935 6.31597e-05 0.106534)
(0.000103961 -6.32638e-05 0.106533)
(0.000102197 6.24207e-05 0.106745)
(0.000102222 -6.25029e-05 0.106744)
(-0.000103954 -6.31253e-05 0.106533)
(-0.000102117 6.22448e-05 0.106745)
(-0.000102194 -6.23629e-05 0.106745)
(0.000160285 -0.000160332 0.105934)
(2.55878e-05 -2.54292e-05 0.106186)
(-6.29637e-05 -0.000103871 0.106534)
(6.22595e-05 -0.000102157 0.106745)
(-6.22035e-05 -0.0001021 0.106745)
(-2.54293e-05 -2.53854e-05 0.106186)
(0.000158725 0.000158702 0.106117)
(2.19795e-05 2.20671e-05 0.10636)
(6.22893e-05 0.000101688 0.106813)
(-6.22319e-05 0.000101642 0.106813)
(6.153e-05 0.000100019 0.107012)
(-6.14703e-05 9.99201e-05 0.107012)
(-0.000158632 0.0001586 0.106117)
(-2.18525e-05 2.19178e-05 0.106361)
(0.000101606 6.21539e-05 0.106813)
(0.000101641 -6.22463e-05 0.106813)
(9.99442e-05 6.14309e-05 0.107013)
(9.99708e-05 -6.1496e-05 0.107012)
(-0.000101623 -6.21059e-05 0.106813)
(-9.98171e-05 6.12373e-05 0.107013)
(-9.99019e-05 -6.13339e-05 0.107012)
(0.000158653 -0.000158705 0.106117)
(2.20339e-05 -2.18867e-05 0.10636)
(-6.19515e-05 -0.000101525 0.106813)
(6.12673e-05 -9.98947e-05 0.107013)
(-6.11978e-05 -9.9784e-05 0.107013)
(-2.18642e-05 -2.18137e-05 0.10636)
(0.000156911 0.000156902 0.106274)
(1.86617e-05 1.87539e-05 0.106509)
(6.12908e-05 9.95215e-05 0.107077)
(-6.12201e-05 9.93881e-05 0.107077)
(6.05623e-05 9.80238e-05 0.107264)
(-6.0514e-05 9.78786e-05 0.107264)
(-0.000156822 0.00015678 0.106274)
(-1.85798e-05 1.86081e-05 0.106509)
(9.94282e-05 6.11771e-05 0.107077)
(9.94728e-05 -6.12537e-05 0.107077)
(9.79558e-05 6.04988e-05 0.107265)
(9.79821e-05 -6.05369e-05 0.107264)
(-9.93731e-05 -6.10906e-05 0.107077)
(-9.77806e-05 6.02936e-05 0.107265)
(-9.7861e-05 -6.03713e-05 0.107264)
(0.000156849 -0.000156899 0.106274)
(1.8717e-05 -1.85898e-05 0.106509)
(-6.09634e-05 -9.92428e-05 0.107077)
(6.03213e-05 -9.79044e-05 0.107265)
(-6.02512e-05 -9.77314e-05 0.107265)
(-1.85712e-05 -1.85181e-05 0.106509)
(0.000154843 0.000154861 0.106404)
(1.55328e-05 1.56255e-05 0.106631)
(6.03213e-05 9.75928e-05 0.107325)
(-6.02718e-05 9.74074e-05 0.107325)
(5.95802e-05 9.60902e-05 0.107499)
(-5.95582e-05 9.60152e-05 0.1075)
(-0.00015479 0.000154723 0.106405)
(-1.54675e-05 1.54993e-05 0.106631)
(9.74574e-05 6.02311e-05 0.107325)
(9.7505e-05 -6.02925e-05 0.107325)
(9.60585e-05 5.95384e-05 0.1075)
(9.60763e-05 -5.9575e-05 0.107499)
(-9.73919e-05 -6.01304e-05 0.107325)
(-9.59131e-05 5.93123e-05 0.1075)
(-9.59715e-05 -5.93978e-05 0.1075)
(0.000154776 -0.000154837 0.106405)
(1.55746e-05 -1.54786e-05 0.106631)
(-6.00188e-05 -9.72559e-05 0.107325)
(5.93564e-05 -9.60122e-05 0.1075)
(-5.92935e-05 -9.58464e-05 0.1075)
(-1.54727e-05 -1.54177e-05 0.106631)
(0.000152389 0.000152444 0.106508)
(1.26239e-05 1.2645e-05 0.106725)
(5.93333e-05 9.5665e-05 0.107556)
(-5.93089e-05 9.55565e-05 0.107556)
(5.85461e-05 9.41434e-05 0.107717)
(-5.85655e-05 9.41931e-05 0.107718)
(-0.000152344 0.000152275 0.106508)
(-1.25627e-05 1.25289e-05 0.106726)
(9.55615e-05 5.92289e-05 0.107556)
(9.56153e-05 -5.93302e-05 0.107556)
(9.42105e-05 5.8507e-05 0.107718)
(9.42239e-05 -5.85579e-05 0.107718)
(-9.55273e-05 -5.91583e-05 0.107556)
(-9.40965e-05 5.8306e-05 0.107718)
(-9.41355e-05 -5.84014e-05 0.107718)
(0.000152334 -0.000152415 0.106508)
(1.26183e-05 -1.2525e-05 0.106725)
(-5.90571e-05 -9.53965e-05 0.107556)
(5.83372e-05 -9.41697e-05 0.107718)
(-5.82787e-05 -9.40226e-05 0.107718)
(-1.2531e-05 -1.2488e-05 0.106725)
(0.000149524 0.000149588 0.106585)
(5.82804e-05 9.37562e-05 0.10777)
(-5.82979e-05 9.37399e-05 0.107769)
(-0.000149521 0.000149407 0.106585)
(9.36961e-05 5.81632e-05 0.10777)
(9.37706e-05 -5.82912e-05 0.107769)
(-9.37086e-05 -5.81435e-05 0.107769)
(0.000149486 -0.000149576 0.106585)
(-5.80263e-05 -9.35726e-05 0.10777)
(-4.00003e-07 -4.02507e-07 0.0999987)
(1.82184e-05 1.8224e-05 0.100004)
(-1.83432e-07 1.3419e-05 0.1)
(1.34216e-05 -1.86297e-07 0.1)
(-5.16629e-05 7.09889e-06 0.100012)
(-2.01952e-05 1.84977e-05 0.100002)
(-0.000135794 6.02576e-05 0.100068)
(-1.24783e-05 -5.54603e-07 0.0999962)
(6.93301e-06 -5.15799e-05 0.100012)
(1.84902e-05 -2.01541e-05 0.100002)
(-5.59463e-07 -1.24667e-05 0.0999962)
(5.99532e-05 -0.000136119 0.100069)
(-2.45505e-05 -2.45611e-05 0.100007)
(-0.000134657 -8.07886e-05 0.100055)
(-8.06927e-05 -0.000134533 0.100055)
(-1.32047e-05 0.000146687 0.100669)
(0.000226033 0.000573965 0.099611)
(1.07102e-05 0.000335222 0.10056)
(-3.79831e-05 0.0003665 0.0990395)
(-0.000413538 0.000957053 0.097942)
(-0.000209616 0.000398913 0.0956707)
(0.000146815 -1.3328e-05 0.100669)
(0.000574057 0.000226162 0.0996127)
(0.000336816 1.13877e-05 0.100561)
(0.000366694 -3.94503e-05 0.0990398)
(-0.000106205 0.000106126 0.100294)
(0.000106211 -0.000106217 0.100294)
(-0.000106193 -0.000106207 0.100294)
(9.48637e-05 9.47501e-05 0.100733)
(-9.4724e-05 9.47325e-05 0.100733)
(9.48062e-05 -9.48795e-05 0.100733)
(-9.47712e-05 -9.48519e-05 0.100733)
(-0.000252962 5.95727e-06 0.100719)
(-0.000388076 0.000205792 0.100571)
(-0.000169099 3.99587e-05 0.100332)
(-0.000145245 8.86281e-05 0.100561)
(-0.000335371 2.67191e-05 0.100497)
(-0.000150453 0.000168264 0.100662)
(-0.000141165 3.22779e-05 0.100498)
(0.000955856 -0.000409644 0.0979398)
(0.000398344 -0.000207514 0.0956688)
(5.94826e-06 -0.000253069 0.100719)
(4.00404e-05 -0.000169084 0.100331)
(0.000206295 -0.00038792 0.100571)
(8.85428e-05 -0.000145289 0.100561)
(2.67181e-05 -0.000335184 0.100497)
(3.23898e-05 -0.000141138 0.100498)
(0.000167853 -0.000150151 0.100661)
(-0.000417094 -0.000169414 0.100453)
(-0.000170143 -0.000416517 0.100451)
(-0.000112619 -0.000112652 0.100646)
(-2.29967e-05 -9.0616e-05 0.100491)
(-9.09596e-05 -2.0835e-05 0.10049)
(1.00746e-06 0.000177433 0.100868)
(-4.58453e-05 0.000356904 0.0983231)
(-3.49622e-06 0.000191958 0.10078)
(-3.976e-05 0.000319373 0.0979423)
(-0.00019609 0.000323388 0.0926288)
(-0.000170858 0.000277092 0.091009)
(0.000177561 8.17011e-07 0.100868)
(0.000357327 -4.51938e-05 0.098324)
(0.000192144 -3.38373e-06 0.10078)
(0.000319231 -3.87656e-05 0.0979427)
(-9.711e-05 9.713e-05 0.100854)
(9.72124e-05 -9.7242e-05 0.100854)
(-9.71717e-05 -9.72172e-05 0.100854)
(9.72129e-05 9.71959e-05 0.101238)
(-9.7163e-05 9.71711e-05 0.101238)
(9.72343e-05 -9.72305e-05 0.101238)
(-9.71937e-05 -9.72217e-05 0.101238)
(-0.000248097 1.95416e-05 0.101155)
(-0.000204831 0.000198897 0.100823)
(-0.000156589 3.03404e-05 0.100889)
(-0.000151665 9.2749e-05 0.101063)
(-0.00028847 1.80226e-05 0.100986)
(-0.000171158 0.000184211 0.100948)
(-0.000158526 3.04648e-05 0.101015)
(0.000324171 -0.000195554 0.0926267)
(0.000278209 -0.000170437 0.0910076)
(1.97624e-05 -0.000248233 0.101155)
(3.0524e-05 -0.000156671 0.100889)
(0.000198518 -0.000205221 0.100824)
(9.27989e-05 -0.000151875 0.101063)
(1.82968e-05 -0.000288684 0.100986)
(3.06201e-05 -0.000158619 0.101015)
(0.000183559 -0.000171437 0.100948)
(-5.83387e-05 -9.18044e-05 0.10044)
(-9.14789e-05 -5.96923e-05 0.10044)
(-0.000108701 -0.000108698 0.101146)
(-6.26124e-05 -7.29924e-05 0.100439)
(-7.26944e-05 -6.34741e-05 0.100439)
(4.18155e-06 0.000195779 0.100968)
(-1.98491e-05 0.000326146 0.0971206)
(2.63139e-06 0.000223146 0.100898)
(-1.10027e-05 0.000284543 0.0967105)
(-0.000147065 0.00023226 0.088383)
(-0.000119565 0.000189351 0.0870822)
(0.00019573 3.74264e-06 0.100967)
(0.000326382 -1.96633e-05 0.0971209)
(0.000223219 2.24952e-06 0.100899)
(0.000284726 -1.07947e-05 0.0967107)
(-9.70234e-05 9.70209e-05 0.101368)
(9.70738e-05 -9.70655e-05 0.101369)
(-9.70461e-05 -9.70488e-05 0.101369)
(9.55722e-05 9.55657e-05 0.101758)
(-9.55836e-05 9.55654e-05 0.101758)
(9.55939e-05 -9.55758e-05 0.101758)
(-9.55948e-05 -9.55406e-05 0.101758)
(-0.000242195 1.84471e-05 0.101587)
(-0.000220655 0.000187612 0.101025)
(-0.000161066 3.06457e-05 0.101404)
(-0.000152081 9.02164e-05 0.101575)
(-0.000287731 1.86747e-05 0.101417)
(-0.00017727 0.000163461 0.101133)
(-0.000161412 3.05937e-05 0.101534)
(0.000232176 -0.00014622 0.0883776)
(0.000189432 -0.000118927 0.087083)
(1.84919e-05 -0.000241912 0.101587)
(3.072e-05 -0.000161045 0.101404)
(0.000188141 -0.000220845 0.101027)
(9.02965e-05 -0.000152016 0.101575)
(1.87076e-05 -0.000287542 0.101418)
(3.0657e-05 -0.000161356 0.101534)
(0.000164051 -0.000177179 0.101132)
(-9.78571e-05 -8.59011e-05 0.100179)
(-8.57898e-05 -9.75441e-05 0.100179)
(-0.000102003 -0.000101942 0.10165)
(-9.44422e-05 -6.3033e-05 0.100111)
(-6.30272e-05 -9.44199e-05 0.100111)
(3.06395e-06 0.000197939 0.100969)
(5.36359e-06 0.000290083 0.0958326)
(2.7308e-06 0.000234255 0.100921)
(9.88233e-06 0.000245407 0.0954176)
(-9.8469e-05 0.000156965 0.0849705)
(-7.38018e-05 0.000120002 0.0839853)
(0.000197915 2.88802e-06 0.100968)
(0.000290079 5.51921e-06 0.0958324)
(0.000234324 2.50519e-06 0.100923)
(0.000245384 1.01256e-05 0.0954179)
(-9.483e-05 9.48182e-05 0.101886)
(9.48409e-05 -9.48232e-05 0.101886)
(-9.48459e-05 -9.47896e-05 0.101886)
(9.23009e-05 9.2303e-05 0.102267)
(-9.22848e-05 9.23202e-05 0.102266)
(9.23294e-05 -9.2305e-05 0.102267)
(-9.23294e-05 -9.22759e-05 0.102267)
(-0.000230839 1.6094e-05 0.101987)
(-0.000219947 0.000165516 0.101136)
(-0.000159874 2.99702e-05 0.101919)
(-0.000148 8.59593e-05 0.102078)
(-0.000281848 1.62692e-05 0.101825)
(-0.000171274 0.000138486 0.101225)
(-0.000158861 2.96947e-05 0.102046)
(0.000157023 -9.7957e-05 0.0849665)
(0.000120138 -7.34967e-05 0.0839865)
(1.63454e-05 -0.000230768 0.101987)
(3.00421e-05 -0.000159835 0.101919)
(0.000165971 -0.000219946 0.101137)
(8.60485e-05 -0.000147987 0.102078)
(1.64632e-05 -0.000281725 0.101825)
(2.97708e-05 -0.000158818 0.102046)
(0.000138574 -0.000171261 0.101224)
(-0.00011875 -7.56505e-05 0.0997171)
(-7.56617e-05 -0.000118901 0.0997165)
(-9.32155e-05 -9.31414e-05 0.102137)
(-0.000109628 -5.16155e-05 0.0996042)
(-5.15851e-05 -0.000109728 0.099603)
(8.75557e-07 0.000191163 0.100874)
(1.85726e-05 0.00025173 0.0945317)
(7.61523e-07 0.000233392 0.100847)
(1.843e-05 0.000205891 0.0941369)
(-6.0677e-05 0.000103268 0.0823378)
(-4.06406e-05 7.27667e-05 0.0816136)
(0.000191062 8.67636e-07 0.100873)
(0.000251786 1.85732e-05 0.0945311)
(0.000233438 7.87759e-07 0.100848)
(0.000206004 1.85339e-05 0.0941376)
(-9.1397e-05 9.14409e-05 0.102391)
(9.14507e-05 -9.14293e-05 0.102391)
(-9.1451e-05 -9.1393e-05 0.102391)
(8.88137e-05 8.88063e-05 0.102757)
(-8.87611e-05 8.87941e-05 0.102757)
(8.88206e-05 -8.88269e-05 0.102758)
(-8.88409e-05 -8.87735e-05 0.102758)
(-0.000216131 1.41658e-05 0.102346)
(-0.000211212 0.000143584 0.101154)
(-0.000155007 2.88617e-05 0.102419)
(-0.000142131 8.13401e-05 0.10256)
(-0.000270691 1.39936e-05 0.102193)
(-0.00016042 0.000115219 0.101226)
(-0.000153559 2.85978e-05 0.102541)
(0.000103112 -6.03896e-05 0.0823335)
(7.25926e-05 -4.03844e-05 0.0816152)
(1.43371e-05 -0.000216042 0.102346)
(2.89525e-05 -0.000154967 0.102419)
(0.00014347 -0.00021142 0.101155)
(8.13924e-05 -0.000142147 0.102561)
(1.42125e-05 -0.000270691 0.102193)
(2.86931e-05 -0.000153494 0.102541)
(0.000114891 -0.000160602 0.101225)
(-0.000127053 -6.69254e-05 0.0991138)
(-6.68606e-05 -0.000127066 0.0991132)
(-8.3997e-05 -8.38736e-05 0.102597)
(-0.000114026 -4.29586e-05 0.0989723)
(-4.29206e-05 -0.000114038 0.0989709)
(-4.80084e-07 0.000179692 0.100692)
(2.07077e-05 0.000215501 0.0932802)
(-9.15251e-07 0.000226058 0.100683)
(1.74145e-05 0.000169597 0.0929212)
(-3.54249e-05 6.86926e-05 0.0803316)
(-1.92036e-05 4.26202e-05 0.0798084)
(0.000179586 -5.44709e-07 0.10069)
(0.000215616 2.06584e-05 0.0932791)
(0.000226067 -8.82661e-07 0.100684)
(0.000169761 1.75216e-05 0.0929221)
(-8.7912e-05 8.79359e-05 0.102877)
(8.79706e-05 -8.79849e-05 0.102877)
(-8.79971e-05 -8.793e-05 0.102877)
(8.55764e-05 8.55503e-05 0.103229)
(-8.5508e-05 8.55022e-05 0.103229)
(8.55527e-05 -8.55878e-05 0.103229)
(-8.55943e-05 -8.55478e-05 0.103229)
(-0.000200454 1.2831e-05 0.102662)
(-0.000199644 0.00012435 0.101088)
(-0.000149056 2.78704e-05 0.102898)
(-0.000136307 7.74506e-05 0.103019)
(-0.000257386 1.23213e-05 0.102518)
(-0.000148277 9.51977e-05 0.101146)
(-0.000147541 2.76499e-05 0.103014)
(6.86546e-05 -3.53863e-05 0.0803282)
(4.25842e-05 -1.9101e-05 0.0798106)
(1.28687e-05 -0.000200277 0.102662)
(2.79871e-05 -0.000148977 0.102898)
(0.000124267 -0.000199964 0.101088)
(7.75239e-05 -0.000136338 0.10302)
(1.23912e-05 -0.000257268 0.102518)
(2.77681e-05 -0.000147454 0.103014)
(9.50652e-05 -0.000148449 0.101145)
(-0.00012705 -6.11028e-05 0.0984165)
(-6.1099e-05 -0.000127023 0.0984157)
(-7.57563e-05 -7.56203e-05 0.103029)
(-0.000111491 -3.72024e-05 0.0982584)
(-3.71969e-05 -0.000111475 0.0982567)
(-8.90643e-07 0.000165901 0.100437)
(1.59847e-05 0.000183826 0.0921147)
(-1.54473e-06 0.000215244 0.100442)
(1.11302e-05 0.000138325 0.0917988)
(-2.01967e-05 4.8044e-05 0.0788004)
(-6.30493e-06 2.44545e-05 0.0784257)
(0.000165857 -9.9162e-07 0.100436)
(0.000183947 1.59416e-05 0.0921136)
(0.000215329 -1.59054e-06 0.100443)
(0.000138486 1.12705e-05 0.0917998)
(-8.47616e-05 8.47513e-05 0.103344)
(8.47998e-05 -8.48412e-05 0.103344)
(-8.48441e-05 -8.48116e-05 0.103344)
(8.27634e-05 8.27411e-05 0.103682)
(-8.26881e-05 8.26871e-05 0.103682)
(8.27129e-05 -8.27598e-05 0.103682)
(-8.27602e-05 -8.27692e-05 0.103682)
(-0.000184987 1.19129e-05 0.102938)
(-0.000187647 0.000108561 0.100948)
(-0.000143116 2.70716e-05 0.103356)
(-0.00013106 7.43458e-05 0.103455)
(-0.000243615 1.11351e-05 0.1028)
(-0.000136211 7.88861e-05 0.100996)
(-0.000141696 2.69042e-05 0.103467)
(4.79466e-05 -2.00954e-05 0.0787972)
(2.45185e-05 -6.31553e-06 0.0784283)
(1.19486e-05 -0.000184899 0.102938)
(2.7183e-05 -0.000143063 0.103356)
(0.000108693 -0.000187854 0.100949)
(7.44247e-05 -0.000131093 0.103455)
(1.11588e-05 -0.000243535 0.1028)
(2.70071e-05 -0.000141645 0.103467)
(7.88841e-05 -0.000136308 0.100994)
(-0.000122176 -5.7234e-05 0.0976616)
(-5.71832e-05 -0.000122159 0.0976604)
(-6.84394e-05 -6.83947e-05 0.103433)
(-0.000104995 -3.31076e-05 0.0974964)
(-3.29915e-05 -0.000105022 0.0974942)
(-4.84234e-07 0.000151412 0.100123)
(8.36121e-06 0.000157376 0.0910512)
(-1.32946e-06 0.000202862 0.10014)
(3.24001e-06 0.000112329 0.0907785)
(-1.13985e-05 3.62362e-05 0.0776188)