/*--------------------------------*- C++ -*----------------------------------*\
| =========                 |                                                 |
| \\      /  F ield         | OpenFOAM: The Open Source CFD Toolbox           |
|  \\    /   O peration     | Version:  v1906                                 |
|   \\  /    A nd           | Web:      www.OpenFOAM.com                      |
|    \\/     M anipulation  |                                                 |
\*---------------------------------------------------------------------------*/
FoamFile
{
    version     2.0;
    format      ascii;
    class       volScalarField;
    location    "550";
    object      k;
}
// * * * * * * * * * * * * * * * * * * * * * * * * * * * * * * * * * * * * * //

dimensions      [0 2 -2 0 0 0 0];


internalField   nonuniform List<scalar> 
42840
(
3.83831e-05
5.1108e-05
5.11082e-05
5.3289e-05
5.34854e-05
5.32993e-05
5.34303e-05
5.11054e-05
5.11061e-05
5.12916e-05
5.12922e-05
5.32895e-05
5.34413e-05
5.11053e-05
5.11045e-05
5.12914e-05
5.12906e-05
5.11073e-05
5.12942e-05
5.12933e-05
5.32885e-05
5.34405e-05
5.11071e-05
5.12944e-05
5.12932e-05
5.34409e-05
5.13533e-05
5.13532e-05
6.851e-05
7.33538e-05
7.33803e-05
6.84818e-05
7.11148e-05
7.11409e-05
6.85139e-05
7.33605e-05
7.33849e-05
6.84871e-05
3.83842e-05
3.83868e-05
3.83872e-05
3.86987e-05
3.86997e-05
3.87023e-05
3.87027e-05
6.05231e-05
6.4692e-05
4.63268e-05
5.11713e-05
6.47229e-05
4.64065e-05
6.04759e-05
7.11133e-05
7.11396e-05
6.05198e-05
4.63279e-05
6.4693e-05
5.11714e-05
4.64076e-05
6.47236e-05
6.04747e-05
6.98613e-05
6.9873e-05
5.33433e-05
6.98803e-05
6.98913e-05
6.99165e-05
6.99281e-05
7.11129e-05
7.1139e-05
7.11154e-05
7.11415e-05
6.98624e-05
6.98716e-05
5.33331e-05
6.98807e-05
6.98907e-05
7.11664e-05
7.11407e-05
7.11689e-05
7.11432e-05
5.33977e-05
6.9908e-05
6.99183e-05
6.98907e-05
6.98999e-05
6.85119e-05
7.33586e-05
7.33851e-05
6.84837e-05
6.05203e-05
6.46903e-05
4.63234e-05
5.11686e-05
6.47216e-05
4.64031e-05
6.04715e-05
6.05216e-05
6.4694e-05
4.63247e-05
5.11694e-05
6.47255e-05
4.64044e-05
6.04728e-05
6.8514e-05
7.34098e-05
7.3384e-05
6.85409e-05
6.85159e-05
7.34147e-05
7.33886e-05
6.85429e-05
6.05284e-05
5.12312e-05
6.47571e-05
4.65581e-05
6.47275e-05
4.64819e-05
6.05743e-05
6.05297e-05
5.12318e-05
6.47612e-05
4.65594e-05
6.47314e-05
4.64833e-05
6.05757e-05
6.98713e-05
6.98592e-05
5.33438e-05
6.98901e-05
6.98784e-05
7.11113e-05
7.11377e-05
7.11683e-05
7.11426e-05
5.33878e-05
6.99172e-05
6.99058e-05
6.98996e-05
6.98875e-05
7.11651e-05
7.11391e-05
6.05211e-05
6.46942e-05
4.63253e-05
5.11684e-05
6.47252e-05
4.6405e-05
6.0476e-05
6.85108e-05
7.33549e-05
7.33794e-05
6.84846e-05
6.05188e-05
4.63251e-05
6.46886e-05
5.11677e-05
4.64047e-05
6.4719e-05
6.04738e-05
6.85177e-05
7.34145e-05
7.33905e-05
6.8545e-05
6.05327e-05
5.12311e-05
6.4761e-05
4.656e-05
6.47315e-05
4.64838e-05
6.05749e-05
6.85167e-05
7.34094e-05
7.33849e-05
6.85418e-05
6.05306e-05
5.12302e-05
4.65598e-05
6.47549e-05
4.64836e-05
6.4726e-05
6.05728e-05
6.85121e-05
7.3358e-05
7.33847e-05
6.84858e-05
6.05215e-05
4.63265e-05
6.46903e-05
5.11705e-05
4.64061e-05
6.47214e-05
6.04728e-05
6.85111e-05
7.33551e-05
7.33816e-05
6.84829e-05
6.05313e-05
5.12338e-05
6.47585e-05
4.65615e-05
6.47292e-05
4.64853e-05
6.05772e-05
6.85179e-05
7.34142e-05
7.33882e-05
6.8543e-05
6.05295e-05
5.1233e-05
4.65611e-05
6.4757e-05
4.6485e-05
6.47276e-05
6.05755e-05
6.85151e-05
7.34112e-05
7.33852e-05
6.8542e-05
6.98646e-05
6.98625e-05
5.33428e-05
6.98838e-05
6.98813e-05
7.11139e-05
7.114e-05
7.1167e-05
7.1141e-05
5.33869e-05
6.99112e-05
6.99083e-05
6.98929e-05
6.98908e-05
7.11674e-05
7.11417e-05
6.05206e-05
4.63279e-05
6.46955e-05
5.11703e-05
4.64075e-05
6.4726e-05
6.04756e-05
6.85097e-05
7.33573e-05
7.33818e-05
6.84835e-05
6.85119e-05
7.33601e-05
7.33846e-05
6.84857e-05
6.05314e-05
5.12339e-05
4.65625e-05
6.47595e-05
4.64864e-05
6.47302e-05
6.05735e-05
6.05323e-05
5.12329e-05
4.65625e-05
6.4762e-05
4.64864e-05
6.47327e-05
6.05744e-05
6.85156e-05
7.34118e-05
7.33873e-05
6.85406e-05
6.85179e-05
7.34142e-05
7.33901e-05
6.85428e-05
7.11132e-05
7.11393e-05
7.1116e-05
7.1142e-05
5.33873e-05
6.99075e-05
6.99188e-05
6.98896e-05
6.99013e-05
7.11667e-05
7.11409e-05
7.11694e-05
7.11437e-05
4.66368e-05
6.47632e-05
6.0583e-05
7.34146e-05
6.85457e-05
6.4768e-05
7.34196e-05
7.11682e-05
7.11711e-05
7.17899e-05
7.15692e-05
7.15379e-05
6.84979e-05
7.15565e-05
7.15264e-05
7.17995e-05
7.16285e-05
7.33653e-05
7.96979e-05
7.9702e-05
7.16135e-05
7.16271e-05
7.97151e-05
7.33689e-05
7.97111e-05
7.1642e-05
7.1785e-05
6.84939e-05
7.15419e-05
7.15117e-05
7.15543e-05
7.15233e-05
7.17752e-05
7.11271e-05
7.11287e-05
7.1793e-05
7.15446e-05
7.15711e-05
6.85021e-05
7.15349e-05
7.15585e-05
7.18024e-05
7.16305e-05
7.33701e-05
7.97152e-05
7.97235e-05
7.1616e-05
7.16295e-05
7.97366e-05
7.33755e-05
7.97282e-05
7.1644e-05
7.17879e-05
6.84974e-05
7.15206e-05
7.15446e-05
7.15299e-05
7.15558e-05
7.17783e-05
7.11257e-05
7.11272e-05
9.4927e-05
7.34526e-05
7.34462e-05
7.3439e-05
7.34326e-05
9.49293e-05
7.40734e-05
6.51179e-05
6.98661e-05
7.31881e-05
6.51317e-05
7.32007e-05
7.40688e-05
7.41214e-05
6.51264e-05
6.98771e-05
7.32002e-05
6.51411e-05
7.32096e-05
7.41169e-05
7.40859e-05
7.32151e-05
6.98757e-05
6.51548e-05
6.51413e-05
7.32027e-05
7.40904e-05
7.4134e-05
7.32239e-05
6.98873e-05
6.51642e-05
6.51498e-05
7.32147e-05
7.41383e-05
9.49147e-05
7.34262e-05
7.34199e-05
7.34399e-05
7.34335e-05
9.49123e-05
7.41391e-05
6.52078e-05
7.32452e-05
6.99211e-05
7.4135e-05
6.52203e-05
7.3258e-05
7.4187e-05
6.52164e-05
7.32575e-05
6.9932e-05
7.41831e-05
6.52296e-05
7.32662e-05
9.49717e-05
7.34768e-05
7.34705e-05
9.49697e-05
7.34903e-05
7.3484e-05
7.11251e-05
7.11269e-05
7.11277e-05
7.11294e-05
9.49263e-05
7.34527e-05
7.3446e-05
7.34391e-05
7.34323e-05
9.49289e-05
7.40747e-05
6.51181e-05
6.98664e-05
7.31904e-05
7.31998e-05
6.5133e-05
7.40704e-05
7.41205e-05
6.5126e-05
6.98764e-05
7.31983e-05
7.32103e-05
6.51404e-05
7.41159e-05
7.40875e-05
7.32142e-05
6.98767e-05
6.51562e-05
7.32049e-05
7.4092e-05
6.51416e-05
7.4133e-05
7.32251e-05
6.98859e-05
6.51636e-05
7.32126e-05
7.41377e-05
6.51494e-05
9.49142e-05
7.34263e-05
7.34195e-05
7.344e-05
7.34332e-05
9.49115e-05
7.11544e-05
7.11527e-05
7.11569e-05
7.11553e-05
9.49433e-05
7.34518e-05
7.3445e-05
9.49408e-05
7.34654e-05
7.34587e-05
7.41207e-05
6.52003e-05
6.99044e-05
7.32429e-05
7.32338e-05
6.51866e-05
7.41249e-05
7.41662e-05
6.52078e-05
6.99134e-05
7.32538e-05
7.32412e-05
6.51945e-05
7.41706e-05
7.41087e-05
7.32195e-05
6.51644e-05
6.98945e-05
7.41043e-05
7.32288e-05
6.51785e-05
7.41543e-05
7.32272e-05
6.51722e-05
6.99045e-05
7.41498e-05
7.32394e-05
6.51859e-05
9.49552e-05
7.3478e-05
7.34713e-05
7.34645e-05
7.34577e-05
9.49575e-05
7.17898e-05
7.15697e-05
7.15456e-05
6.84998e-05
7.15571e-05
7.15333e-05
7.18037e-05
7.16301e-05
7.33702e-05
7.97163e-05
7.97249e-05
7.16155e-05
7.16291e-05
7.9738e-05
7.33737e-05
7.97296e-05
7.16436e-05
7.17891e-05
6.84959e-05
7.15424e-05
7.15187e-05
7.15548e-05
7.1531e-05
7.17749e-05
7.1814e-05
7.15717e-05
7.15411e-05
6.85257e-05
7.18044e-05
7.15841e-05
7.15523e-05
7.16539e-05
7.33987e-05
7.97406e-05
7.16688e-05
7.97368e-05
7.16554e-05
7.97241e-05
7.3395e-05
7.16405e-05
7.9728e-05
7.18191e-05
6.85296e-05
7.15991e-05
7.15665e-05
7.18285e-05
7.15866e-05
7.15554e-05
7.18182e-05
7.15722e-05
7.15481e-05
6.85277e-05
7.18044e-05
7.15848e-05
7.15601e-05
7.1656e-05
7.34034e-05
7.97636e-05
7.97554e-05
7.16704e-05
7.1657e-05
7.97426e-05
7.33999e-05
7.16426e-05
7.97509e-05
7.18188e-05
6.85315e-05
7.15994e-05
7.15744e-05
7.1587e-05
7.15625e-05
7.18326e-05
9.49245e-05
7.3446e-05
7.34517e-05
7.34322e-05
7.3438e-05
9.49272e-05
7.4121e-05
6.51254e-05
6.98761e-05
7.31979e-05
7.32104e-05
6.51389e-05
7.4115e-05
7.40746e-05
6.51196e-05
6.98642e-05
7.31876e-05
6.51319e-05
7.32002e-05
7.40685e-05
7.41323e-05
7.32248e-05
6.98857e-05
6.51621e-05
7.32125e-05
6.51488e-05
7.41379e-05
7.40859e-05
7.32146e-05
6.98736e-05
6.5155e-05
6.51429e-05
7.32022e-05
7.40915e-05
9.49125e-05
7.34194e-05
7.34252e-05
7.34332e-05
7.3439e-05
9.49098e-05
7.11238e-05
7.11253e-05
7.11563e-05
7.11547e-05
9.49417e-05
7.3445e-05
7.34507e-05
9.4939e-05
7.34586e-05
7.34644e-05
7.41655e-05
6.52063e-05
6.99134e-05
7.32529e-05
6.51938e-05
7.32416e-05
7.41708e-05
7.41191e-05
6.51993e-05
6.9901e-05
7.32433e-05
7.32308e-05
6.51879e-05
7.41245e-05
7.41547e-05
7.3227e-05
6.51717e-05
6.99037e-05
6.51844e-05
7.41491e-05
7.3239e-05
7.41083e-05
7.32167e-05
6.51658e-05
6.98921e-05
7.41027e-05
7.32288e-05
6.51773e-05
9.49533e-05
7.34712e-05
7.3477e-05
7.34576e-05
7.34634e-05
9.4956e-05
7.11528e-05
7.11514e-05
7.17905e-05
7.15704e-05
7.15362e-05
6.85009e-05
7.15579e-05
7.15272e-05
7.18001e-05
7.16279e-05
7.33645e-05
7.96963e-05
7.96998e-05
7.16129e-05
7.16265e-05
7.9713e-05
7.33699e-05
7.97095e-05
7.16414e-05
7.17861e-05
6.84949e-05
7.15432e-05
7.15123e-05
7.15555e-05
7.15216e-05
7.17756e-05
7.18169e-05
7.15487e-05
7.15738e-05
6.85298e-05
7.18074e-05
7.15594e-05
7.15862e-05
7.16564e-05
7.34053e-05
7.97621e-05
7.16708e-05
7.97539e-05
7.16575e-05
7.97411e-05
7.34e-05
7.1643e-05
7.97495e-05
7.18221e-05
6.85332e-05
7.15737e-05
7.16008e-05
7.18314e-05
7.15621e-05
7.15886e-05
7.18144e-05
7.1573e-05
7.15417e-05
6.85266e-05
7.18048e-05
7.15854e-05
7.15508e-05
7.16533e-05
7.33996e-05
7.97387e-05
7.97353e-05
7.16682e-05
7.16548e-05
7.97226e-05
7.33945e-05
7.16399e-05
7.97261e-05
7.18195e-05
6.85322e-05
7.16e-05
7.15648e-05
7.15878e-05
7.15561e-05
7.18289e-05
7.17927e-05
7.15446e-05
7.15691e-05
6.85021e-05
7.15356e-05
7.15597e-05
7.18021e-05
7.16302e-05
7.33696e-05
7.97148e-05
7.97233e-05
7.16156e-05
7.16292e-05
7.97363e-05
7.33732e-05
7.97281e-05
7.16437e-05
7.17876e-05
6.84962e-05
7.15208e-05
7.15448e-05
7.15301e-05
7.15543e-05
7.17781e-05
7.1789e-05
7.157e-05
7.15401e-05
6.84991e-05
7.15574e-05
7.15278e-05
7.18028e-05
7.16288e-05
7.33666e-05
7.96962e-05
7.97046e-05
7.16142e-05
7.16278e-05
7.97177e-05
7.33702e-05
7.97094e-05
7.16423e-05
7.17883e-05
6.8495e-05
7.15427e-05
7.15132e-05
7.1555e-05
7.15254e-05
7.17741e-05
7.18166e-05
7.15501e-05
7.15745e-05
6.85278e-05
7.18072e-05
7.15591e-05
7.15841e-05
7.1656e-05
7.3403e-05
7.97618e-05
7.97539e-05
7.16705e-05
7.16571e-05
7.97411e-05
7.33994e-05
7.16427e-05
7.97492e-05
7.18218e-05
6.85334e-05
7.15731e-05
7.15989e-05
7.15643e-05
7.15894e-05
7.18311e-05
7.18173e-05
7.15725e-05
7.15426e-05
6.85268e-05
7.18036e-05
7.1585e-05
7.15545e-05
7.16546e-05
7.33999e-05
7.97433e-05
7.97351e-05
7.16691e-05
7.16557e-05
7.97224e-05
7.33964e-05
7.16413e-05
7.97307e-05
7.1818e-05
6.85307e-05
7.15996e-05
7.15688e-05
7.15873e-05
7.15569e-05
7.18318e-05
9.49288e-05
7.34461e-05
7.34527e-05
7.34324e-05
7.3439e-05
9.49315e-05
7.41196e-05
6.5124e-05
6.98695e-05
7.31975e-05
7.32075e-05
6.51355e-05
7.41154e-05
7.40752e-05
6.51198e-05
6.98673e-05
7.31887e-05
6.51341e-05
7.32013e-05
7.40711e-05
7.41326e-05
7.32226e-05
6.98789e-05
6.51587e-05
7.32109e-05
6.51475e-05
7.41367e-05
7.40883e-05
7.32158e-05
6.98768e-05
6.51572e-05
6.51432e-05
7.32034e-05
7.40923e-05
9.49168e-05
7.34196e-05
7.34262e-05
7.34333e-05
7.344e-05
9.49141e-05
7.11261e-05
7.11278e-05
7.11547e-05
7.11533e-05
9.49459e-05
7.34451e-05
7.34517e-05
9.49434e-05
7.34588e-05
7.34654e-05
7.41658e-05
6.5203e-05
6.99064e-05
7.32518e-05
6.51925e-05
7.32392e-05
7.41697e-05
7.41215e-05
6.52015e-05
6.99047e-05
7.32444e-05
7.32319e-05
6.51882e-05
7.41253e-05
7.41533e-05
7.32249e-05
6.51702e-05
6.98974e-05
6.51811e-05
7.41494e-05
7.32373e-05
7.41089e-05
7.32179e-05
6.51659e-05
6.98948e-05
7.41051e-05
7.32301e-05
6.51796e-05
9.49577e-05
7.34714e-05
7.3478e-05
7.34577e-05
7.34644e-05
9.496e-05
7.11554e-05
7.11537e-05
7.17911e-05
7.15375e-05
7.15698e-05
6.84998e-05
7.15285e-05
7.15576e-05
7.18006e-05
7.16298e-05
7.33669e-05
7.96974e-05
7.97057e-05
7.16152e-05
7.16288e-05
7.97188e-05
7.33723e-05
7.97106e-05
7.16433e-05
7.17861e-05
6.84937e-05
7.15137e-05
7.15439e-05
7.15229e-05
7.15543e-05
7.17764e-05
7.17891e-05
7.15408e-05
7.15692e-05
6.8502e-05
7.15318e-05
7.15597e-05
7.18033e-05
7.16293e-05
7.33697e-05
7.97139e-05
7.97172e-05
7.16142e-05
7.16278e-05
7.97302e-05
7.33751e-05
7.97271e-05
7.16428e-05
7.17887e-05
6.8496e-05
7.15168e-05
7.15448e-05
7.15263e-05
7.15544e-05
7.17745e-05
7.1815e-05
7.1543e-05
7.15723e-05
6.85254e-05
7.18055e-05
7.1552e-05
7.1585e-05
7.16557e-05
7.3402e-05
7.97444e-05
7.97363e-05
7.16701e-05
7.16567e-05
7.97236e-05
7.33969e-05
7.16423e-05
7.97318e-05
7.18201e-05
6.85311e-05
7.1566e-05
7.16e-05
7.15573e-05
7.15873e-05
7.18295e-05
7.18179e-05
7.15463e-05
7.15746e-05
6.85277e-05
7.18038e-05
7.15553e-05
7.15844e-05
7.16546e-05
7.34049e-05
7.97559e-05
7.97529e-05
7.16695e-05
7.16562e-05
7.97401e-05
7.33997e-05
7.16412e-05
7.97433e-05
7.18181e-05
6.85333e-05
7.15693e-05
7.16e-05
7.15606e-05
7.15885e-05
7.18322e-05
7.11254e-05
7.11271e-05
7.11281e-05
7.11299e-05
9.49437e-05
7.34516e-05
7.34453e-05
9.49414e-05
7.34653e-05
7.34589e-05
7.4119e-05
6.51989e-05
6.99032e-05
7.32435e-05
7.41232e-05
6.51862e-05
7.32313e-05
7.41671e-05
6.52082e-05
6.99148e-05
7.32525e-05
7.41712e-05
6.51947e-05
7.32434e-05
7.4107e-05
7.32172e-05
6.5164e-05
6.9894e-05
7.41026e-05
6.51771e-05
7.32293e-05
7.4155e-05
7.32292e-05
6.51725e-05
6.99051e-05
7.41508e-05
6.51864e-05
7.32386e-05
9.49557e-05
7.34779e-05
7.34715e-05
9.49579e-05
7.34643e-05
7.34579e-05
7.11546e-05
7.1153e-05
7.11574e-05
7.11557e-05
7.16823e-05
7.97477e-05
7.34258e-05
7.16679e-05
7.97558e-05
7.18462e-05
6.8557e-05
7.16021e-05
7.15706e-05
7.18322e-05
7.1614e-05
7.15825e-05
7.34285e-05
7.11803e-05
7.11829e-05
3.12666e-05
3.12652e-05
3.84898e-05
3.13969e-05
3.13956e-05
2.22598e-05
2.21085e-05
6.58132e-05
5.93014e-05
5.9302e-05
5.32936e-05
5.93071e-05
5.93097e-05
6.58061e-05
6.59101e-05
5.94409e-05
5.94427e-05
5.34889e-05
6.59025e-05
5.94468e-05
5.94477e-05
6.58133e-05
5.93041e-05
5.93049e-05
5.32834e-05
5.93041e-05
5.93049e-05
6.58076e-05
6.58812e-05
5.34477e-05
5.94087e-05
5.94103e-05
5.94095e-05
5.94104e-05
6.58867e-05
6.58143e-05
5.93027e-05
5.93037e-05
5.32942e-05
5.93094e-05
5.93075e-05
6.58063e-05
6.58801e-05
5.34374e-05
5.94113e-05
5.94135e-05
5.94076e-05
5.94095e-05
6.58874e-05
6.58128e-05
5.93e-05
5.93028e-05
5.32933e-05
5.93084e-05
5.93057e-05
6.5806e-05
6.58797e-05
5.34366e-05
5.94095e-05
5.94128e-05
5.94052e-05
5.94084e-05
6.58861e-05
6.58795e-05
5.34371e-05
5.94115e-05
5.94131e-05
6.58865e-05
5.94072e-05
5.94073e-05
3.12671e-05
3.12658e-05
3.84909e-05
3.13974e-05
3.13962e-05
2.22599e-05
2.21086e-05
3.12704e-05
3.12696e-05
3.84934e-05
3.14007e-05
3.13999e-05
2.22637e-05
2.21124e-05
3.12707e-05
3.12694e-05
3.84938e-05
3.14011e-05
3.13998e-05
2.22637e-05
2.21123e-05
3.85955e-05
3.16532e-05
3.1652e-05
3.15263e-05
3.1525e-05
2.24109e-05
2.25605e-05
3.85966e-05
3.16537e-05
3.16525e-05
3.15269e-05
3.15256e-05
2.2411e-05
2.25606e-05
3.85992e-05
3.1657e-05
3.16562e-05
3.15301e-05
3.15293e-05
2.24148e-05
2.25644e-05
3.85996e-05
3.16574e-05
3.1656e-05
3.15304e-05
3.15292e-05
2.24147e-05
2.25644e-05
5.61417e-05
6.22256e-05
5.48499e-05
6.05027e-05
6.22112e-05
5.48487e-05
5.61334e-05
5.72081e-05
6.02239e-05
6.47043e-05
6.40867e-05
6.02327e-05
6.40995e-05
5.72173e-05
5.72518e-05
6.41217e-05
6.47108e-05
6.02629e-05
6.02546e-05
6.41086e-05
5.72491e-05
5.60914e-05
6.04939e-05
6.21854e-05
5.48035e-05
6.22001e-05
5.48012e-05
5.61003e-05
5.61402e-05
5.4841e-05
6.22209e-05
6.05037e-05
5.48538e-05
6.22066e-05
5.61299e-05
5.72059e-05
6.02278e-05
6.47049e-05
6.40812e-05
6.0229e-05
6.40933e-05
5.72164e-05
5.72524e-05
6.41156e-05
6.47118e-05
6.02595e-05
6.02583e-05
6.41037e-05
5.72423e-05
5.60885e-05
6.04915e-05
5.48066e-05
6.21807e-05
5.4795e-05
6.21952e-05
5.60985e-05
6.58314e-05
5.33392e-05
5.93435e-05
5.9345e-05
5.93364e-05
5.93385e-05
6.58383e-05
6.58327e-05
5.3349e-05
5.93402e-05
5.9341e-05
6.58386e-05
5.93402e-05
5.93414e-05
6.58631e-05
5.33829e-05
5.9375e-05
5.93762e-05
6.58573e-05
5.93757e-05
5.93766e-05
5.61321e-05
6.2221e-05
5.48472e-05
6.05003e-05
6.22016e-05
5.48426e-05
5.61287e-05
5.72092e-05
6.02216e-05
6.4703e-05
6.40771e-05
6.40917e-05
6.02307e-05
5.72054e-05
5.72421e-05
6.41141e-05
6.47091e-05
6.02609e-05
6.40997e-05
6.02523e-05
5.72454e-05
5.60858e-05
6.04919e-05
6.21758e-05
5.47963e-05
6.21953e-05
5.48012e-05
5.60888e-05
5.61378e-05
6.2226e-05
5.48481e-05
6.05016e-05
6.22066e-05
5.48436e-05
5.6132e-05
5.72124e-05
6.02239e-05
6.47068e-05
6.40846e-05
6.40993e-05
6.02329e-05
5.72088e-05
5.72454e-05
6.41217e-05
6.4713e-05
6.02631e-05
6.41073e-05
5.72487e-05
6.02547e-05
5.60899e-05
6.04932e-05
6.21808e-05
5.47975e-05
6.22002e-05
5.48022e-05
5.60958e-05
5.61694e-05
6.22273e-05
5.48858e-05
6.05477e-05
5.61738e-05
6.22462e-05
5.489e-05
5.73136e-05
6.03189e-05
6.47456e-05
6.41571e-05
6.03108e-05
6.41438e-05
5.73168e-05
5.72815e-05
6.41219e-05
6.02818e-05
6.47395e-05
6.02897e-05
5.72785e-05
6.41357e-05
5.6214e-05
6.05556e-05
6.22709e-05
5.49329e-05
6.22522e-05
5.49291e-05
5.62092e-05
5.61728e-05
6.22323e-05
5.48869e-05
6.05491e-05
5.61787e-05
6.22513e-05
5.48911e-05
5.73171e-05
6.03212e-05
6.47494e-05
6.41649e-05
6.41513e-05
6.03136e-05
5.73201e-05
5.72849e-05
6.41294e-05
6.02842e-05
6.47434e-05
5.72819e-05
6.41434e-05
6.02919e-05
5.62185e-05
6.0557e-05
6.2276e-05
5.4934e-05
6.22574e-05
5.49302e-05
5.62126e-05
6.58318e-05
5.33398e-05
5.93439e-05
5.93457e-05
5.93386e-05
5.93371e-05
6.58392e-05
6.58636e-05
5.33918e-05
5.9372e-05
5.93735e-05
5.93771e-05
6.58562e-05
5.93793e-05
5.61397e-05
6.22246e-05
5.48406e-05
6.05049e-05
6.22085e-05
5.48533e-05
5.61308e-05
5.72111e-05
6.02243e-05
6.47066e-05
6.4084e-05
6.40986e-05
6.02333e-05
5.72108e-05
5.72474e-05
6.41211e-05
6.47131e-05
6.02637e-05
6.41069e-05
6.02553e-05
5.72488e-05
5.60891e-05
6.04928e-05
6.21836e-05
5.48064e-05
6.21984e-05
5.47949e-05
5.6098e-05
5.61352e-05
5.48386e-05
6.22177e-05
6.05027e-05
5.48514e-05
6.22033e-05
5.6126e-05
5.72e-05
6.02232e-05
6.47003e-05
6.40754e-05
6.40881e-05
6.0224e-05
5.72103e-05
5.72467e-05
6.41107e-05
6.47075e-05
6.02546e-05
6.40981e-05
5.72367e-05
6.02539e-05
5.60842e-05
6.04906e-05
5.48045e-05
6.21772e-05
5.47931e-05
6.2192e-05
5.60929e-05
5.61719e-05
6.22326e-05
5.48963e-05
6.05485e-05
5.61805e-05
6.22504e-05
5.48837e-05
5.73178e-05
6.03209e-05
6.47493e-05
6.41643e-05
6.03157e-05
6.41508e-05
5.73205e-05
5.72854e-05
6.41292e-05
6.02847e-05
6.47433e-05
6.02924e-05
5.72831e-05
6.41428e-05
5.62202e-05
6.05597e-05
6.22754e-05
5.49252e-05
6.22567e-05
5.49393e-05
5.62118e-05
5.61668e-05
5.48946e-05
6.22289e-05
6.05464e-05
5.61764e-05
5.48819e-05
6.22432e-05
5.73186e-05
6.03144e-05
6.4744e-05
6.41542e-05
6.4142e-05
6.03134e-05
5.73077e-05
5.72719e-05
6.41201e-05
6.02833e-05
6.47371e-05
5.7283e-05
6.41328e-05
6.02843e-05
5.62166e-05
6.05577e-05
5.49233e-05
6.22676e-05
5.49376e-05
6.22538e-05
5.62067e-05
5.61331e-05
5.48485e-05
6.22225e-05
6.05015e-05
5.4844e-05
6.22031e-05
5.61303e-05
5.72101e-05
6.02216e-05
6.47028e-05
6.40783e-05
6.02307e-05
6.40923e-05
5.72064e-05
5.7243e-05
6.41146e-05
6.47092e-05
6.02609e-05
6.02523e-05
6.41008e-05
5.72463e-05
5.60872e-05
6.04932e-05
5.47979e-05
6.21775e-05
5.48024e-05
6.21968e-05
5.60894e-05
5.61746e-05
6.22366e-05
5.48915e-05
6.05506e-05
5.61822e-05
6.22508e-05
5.48939e-05
5.73206e-05
6.03212e-05
6.47471e-05
6.41652e-05
5.73226e-05
6.03135e-05
6.41519e-05
5.72874e-05
6.41302e-05
6.02839e-05
6.47409e-05
5.72868e-05
6.02919e-05
6.41438e-05
5.62217e-05
6.05585e-05
6.22758e-05
5.49367e-05
5.62144e-05
6.226e-05
5.49337e-05
5.61709e-05
5.48873e-05
6.22289e-05
6.0549e-05
5.61749e-05
5.48915e-05
6.22477e-05
5.73145e-05
6.03189e-05
6.47456e-05
6.41579e-05
6.41447e-05
6.03108e-05
5.73176e-05
5.72824e-05
6.41231e-05
6.02818e-05
6.47394e-05
5.72794e-05
6.41365e-05
6.02896e-05
5.62152e-05
6.05568e-05
5.49344e-05
6.22724e-05
5.49306e-05
6.22538e-05
5.62107e-05
6.58314e-05
5.33388e-05
5.93405e-05
5.9344e-05
5.93389e-05
5.93358e-05
6.58378e-05
6.58622e-05
5.33909e-05
5.93703e-05
5.93735e-05
5.93751e-05
6.58557e-05
5.93784e-05
5.61388e-05
5.48409e-05
6.22224e-05
6.05045e-05
5.48536e-05
6.22079e-05
5.61305e-05
5.7207e-05
6.02282e-05
6.47075e-05
6.40839e-05
6.02294e-05
6.40967e-05
5.72078e-05
5.72486e-05
6.4119e-05
6.47143e-05
6.026e-05
6.02588e-05
6.41065e-05
5.72427e-05
5.60888e-05
6.04924e-05
5.48067e-05
6.21817e-05
5.47955e-05
6.21969e-05
5.60962e-05
5.61707e-05
5.48966e-05
6.22321e-05
6.05472e-05
5.6181e-05
5.4884e-05
6.22461e-05
5.73238e-05
6.0319e-05
6.4748e-05
6.41588e-05
5.73131e-05
6.03177e-05
6.41475e-05
5.72774e-05
6.41258e-05
6.02877e-05
6.47417e-05
5.72885e-05
6.0289e-05
6.41376e-05
5.62209e-05
6.05585e-05
5.49254e-05
6.22705e-05
5.62104e-05
5.49396e-05
6.22568e-05
5.6171e-05
5.48968e-05
6.22334e-05
6.05481e-05
5.618e-05
5.48842e-05
6.22477e-05
5.7324e-05
6.03182e-05
6.47505e-05
6.41625e-05
6.41502e-05
6.03184e-05
5.73132e-05
5.72774e-05
6.41287e-05
6.02885e-05
6.47442e-05
5.72869e-05
6.41409e-05
6.02896e-05
5.62203e-05
6.05594e-05
5.49256e-05
6.22721e-05
5.49397e-05
6.22583e-05
5.62108e-05
6.58627e-05
5.33912e-05
5.93713e-05
5.93731e-05
6.58556e-05
5.93771e-05
5.93783e-05
5.73521e-05
6.03408e-05
6.41658e-05
6.47742e-05
6.03459e-05
5.73495e-05
6.41785e-05
5.62499e-05
6.06018e-05
5.49733e-05
6.22778e-05
5.49767e-05
5.62547e-05
6.22963e-05
6.03466e-05
6.4779e-05
6.03484e-05
2.10348e-05
3.66864e-05
3.66897e-05
4.1942e-05
2.17933e-05
3.75925e-05
3.75956e-05
4.26619e-05
2.257e-05
3.84724e-05
3.84754e-05
4.33608e-05
2.33613e-05
3.93252e-05
3.93284e-05
4.40352e-05
2.41631e-05
4.01504e-05
4.01533e-05
4.46833e-05
2.49716e-05
4.09472e-05
4.09501e-05
4.5309e-05
2.57831e-05
4.17153e-05
4.17179e-05
4.59087e-05
2.6594e-05
4.24545e-05
4.2457e-05
4.64867e-05
2.74008e-05
4.31647e-05
4.31669e-05
4.70443e-05
2.82005e-05
4.38461e-05
4.38481e-05
4.75806e-05
2.89902e-05
4.44991e-05
4.45011e-05
4.80884e-05
2.97673e-05
4.51239e-05
4.51256e-05
4.85795e-05
3.05295e-05
4.57207e-05
4.57223e-05
4.9043e-05
3.12745e-05
4.629e-05
4.62914e-05
4.94873e-05
3.20005e-05
4.6832e-05
4.68334e-05
4.99217e-05
3.27058e-05
4.73473e-05
4.73487e-05
5.03242e-05
3.33888e-05
4.7836e-05
4.78373e-05
5.07068e-05
3.40484e-05
4.82986e-05
4.82998e-05
5.10696e-05
3.46835e-05
4.87354e-05
4.87366e-05
5.14111e-05
3.5293e-05
4.9147e-05
4.91479e-05
5.17345e-05
3.58764e-05
4.95337e-05
4.95344e-05
5.20439e-05
3.64329e-05
4.98959e-05
4.98965e-05
5.23332e-05
3.69621e-05
5.02339e-05
5.02344e-05
5.26039e-05
3.74636e-05
5.05484e-05
5.05486e-05
5.28543e-05
3.79373e-05
5.08395e-05
5.08398e-05
5.30799e-05
4.1939e-05
4.25122e-05
3.6688e-05
3.66884e-05
3.73693e-05
3.73702e-05
4.19353e-05
4.25093e-05
3.66875e-05
3.66904e-05
3.73692e-05
3.73719e-05
3.66929e-05
3.73684e-05
3.73745e-05
4.19394e-05
4.25015e-05
3.66903e-05
3.73715e-05
3.7372e-05
4.25113e-05
4.26594e-05
4.32145e-05
3.75934e-05
3.75942e-05
3.82557e-05
3.82564e-05
4.26627e-05
4.32117e-05
3.75936e-05
3.7596e-05
3.82556e-05
3.8258e-05
3.75986e-05
3.8255e-05
3.82607e-05
4.2673e-05
4.32136e-05
3.75962e-05
3.8258e-05
3.82583e-05
4.32118e-05
4.33573e-05
4.38843e-05
3.84731e-05
3.84738e-05
3.91153e-05
3.91159e-05
4.33579e-05
4.38878e-05
3.84732e-05
3.84754e-05
3.91151e-05
3.91174e-05
3.84781e-05
3.91146e-05
3.91199e-05
4.33585e-05
4.38942e-05
3.84758e-05
3.91177e-05
3.91177e-05
4.38906e-05
4.40432e-05
4.45304e-05
3.9326e-05
3.93265e-05
3.99473e-05
3.99479e-05
4.40285e-05
4.45411e-05
3.93261e-05
3.9328e-05
3.99471e-05
3.99491e-05
3.93305e-05
3.99468e-05
3.99516e-05
4.40359e-05
4.45508e-05
3.93284e-05
3.99497e-05
3.99496e-05
4.4545e-05
4.46952e-05
4.5168e-05
4.01511e-05
4.01514e-05
4.07511e-05
4.07515e-05
4.46792e-05
4.5174e-05
4.01511e-05
4.01526e-05
4.07509e-05
4.07526e-05
4.01551e-05
4.07507e-05
4.0755e-05
4.46821e-05
4.51763e-05
4.01533e-05
4.07536e-05
4.07533e-05
4.51748e-05
4.53178e-05
4.57717e-05
4.09477e-05
4.09479e-05
4.15263e-05
4.15264e-05
4.5304e-05
4.57787e-05
4.09477e-05
4.0949e-05
4.1526e-05
4.15273e-05
4.09514e-05
4.1526e-05
4.15297e-05
4.53108e-05
4.57813e-05
4.09498e-05
4.15287e-05
4.15282e-05
4.57834e-05
4.59241e-05
4.63571e-05
4.17157e-05
4.17156e-05
4.22726e-05
4.22725e-05
4.59069e-05
4.63661e-05
4.17155e-05
4.17166e-05
4.22721e-05
4.22733e-05
4.1719e-05
4.22724e-05
4.22756e-05
4.59065e-05
4.63684e-05
4.17175e-05
4.22749e-05
4.22742e-05
4.63651e-05
4.64955e-05
4.69085e-05
4.24547e-05
4.24545e-05
4.29898e-05
4.29898e-05
4.64853e-05
4.69241e-05
4.24543e-05
4.24554e-05
4.29891e-05
4.29903e-05
4.24576e-05
4.29899e-05
4.29926e-05
4.64896e-05
4.69265e-05
4.24562e-05
4.29922e-05
4.29914e-05
4.69246e-05
4.70549e-05
4.74648e-05
4.31647e-05
4.31645e-05
4.36781e-05
4.36782e-05
4.70365e-05
4.746e-05
4.31641e-05
4.3165e-05
4.36772e-05
4.36784e-05
4.31675e-05
4.36785e-05
4.36809e-05
4.70436e-05
4.74562e-05
4.31663e-05
4.36805e-05
4.36799e-05
4.74657e-05
4.75764e-05
4.79799e-05
4.38457e-05
4.38458e-05
4.43378e-05
4.43382e-05
4.75717e-05
4.7978e-05
4.3845e-05
4.3846e-05
4.43369e-05
4.4338e-05
4.38487e-05
4.43386e-05
4.43408e-05
4.75793e-05
4.79731e-05
4.38477e-05
4.43405e-05
4.43399e-05
4.79766e-05
4.80897e-05
4.84701e-05
4.44983e-05
4.44987e-05
4.49693e-05
4.49699e-05
4.80864e-05
4.8471e-05
4.44976e-05
4.44986e-05
4.49684e-05
4.49695e-05
4.45014e-05
4.49703e-05
4.49722e-05
4.80925e-05
4.8472e-05
4.45006e-05
4.49721e-05
4.49715e-05
4.84727e-05
4.85744e-05
4.89312e-05
4.51229e-05
4.51233e-05
4.55728e-05
4.55735e-05
4.85743e-05
4.89403e-05
4.51221e-05
4.51229e-05
4.55719e-05
4.55729e-05
4.51259e-05
4.55741e-05
4.55757e-05
4.85745e-05
4.8942e-05
4.51251e-05
4.55757e-05
4.5575e-05
4.89422e-05
4.9049e-05
4.93876e-05
4.57195e-05
4.572e-05
4.61488e-05
4.61495e-05
4.90409e-05
4.93917e-05
4.57187e-05
4.57195e-05
4.61479e-05
4.61488e-05
4.57224e-05
4.61502e-05
4.61515e-05
4.904e-05
4.93931e-05
4.57217e-05
4.61517e-05
4.61509e-05
4.93897e-05
4.9492e-05
4.98093e-05
4.62885e-05
4.62891e-05
4.66974e-05
4.6698e-05
4.9488e-05
4.98201e-05
4.62878e-05
4.62885e-05
4.66966e-05
4.66973e-05
4.62913e-05
4.6699e-05
4.67002e-05
4.9491e-05
4.98211e-05
4.62907e-05
4.67004e-05
4.66995e-05
4.98123e-05
4.99187e-05
5.02212e-05
4.68304e-05
4.68309e-05
4.72193e-05
4.72198e-05
4.99121e-05
5.02295e-05
4.68298e-05
4.68303e-05
4.72184e-05
4.72191e-05
4.68332e-05
4.7221e-05
4.72219e-05
4.9914e-05
5.02288e-05
4.68326e-05
4.72223e-05
4.72213e-05
5.02209e-05
5.03214e-05
5.06079e-05
4.73455e-05
4.7346e-05
4.77144e-05
4.7715e-05
5.03173e-05
5.0617e-05
4.7345e-05
4.73453e-05
4.77137e-05
4.77142e-05
4.73482e-05
4.77163e-05
4.77171e-05
5.03169e-05
5.06167e-05
4.73477e-05
4.77176e-05
4.77165e-05
5.06127e-05
5.07063e-05
5.09765e-05
4.78342e-05
4.78347e-05
4.81835e-05
4.8184e-05
5.07021e-05
5.09848e-05
4.78336e-05
4.78339e-05
4.81827e-05
4.81831e-05
4.78369e-05
4.81853e-05
4.81861e-05
5.07022e-05
5.09853e-05
4.78363e-05
4.81866e-05
4.81855e-05
5.09821e-05
5.10701e-05
5.13258e-05
4.82967e-05
4.82972e-05
4.86266e-05
4.86272e-05
5.10659e-05
5.13318e-05
4.82961e-05
4.82963e-05
4.8626e-05
4.86262e-05
4.82993e-05
4.86285e-05
4.86291e-05
5.10664e-05
5.13322e-05
4.82987e-05
4.86298e-05
4.86285e-05
5.13328e-05
5.14135e-05
5.16572e-05
4.87334e-05
4.87341e-05
4.90443e-05
4.9045e-05
5.14098e-05
5.16601e-05
4.8733e-05
4.8733e-05
4.90437e-05
4.90438e-05
4.8736e-05
4.90464e-05
4.90468e-05
5.14097e-05
5.16592e-05
4.87353e-05
4.90474e-05
4.90462e-05
5.16604e-05
5.17362e-05
5.19676e-05
4.91448e-05
4.91455e-05
4.9437e-05
4.94377e-05
5.17352e-05
5.19684e-05
4.91445e-05
4.91444e-05
4.94365e-05
4.94365e-05
4.91473e-05
4.94393e-05
4.94394e-05
5.17359e-05
5.19683e-05
4.91467e-05
4.944e-05
4.94388e-05
5.1968e-05
5.20412e-05
5.22595e-05
4.95313e-05
4.9532e-05
4.9805e-05
4.9806e-05
5.20421e-05
5.2257e-05
4.9531e-05
4.95308e-05
4.98047e-05
4.98045e-05
4.95337e-05
4.98075e-05
4.98074e-05
5.20423e-05
5.22565e-05
4.95332e-05
4.98081e-05
4.98069e-05
5.2255e-05
5.23271e-05
5.25264e-05
4.98933e-05
4.98942e-05
5.0149e-05
5.015e-05
5.23305e-05
5.25269e-05
4.98932e-05
4.98928e-05
5.01487e-05
5.01484e-05
4.98957e-05
5.01515e-05
5.01512e-05
5.23296e-05
5.25255e-05
4.98952e-05
5.0152e-05
5.01508e-05
5.25248e-05
5.25993e-05
5.27779e-05
5.02314e-05
5.02323e-05
5.04691e-05
5.04701e-05
5.25983e-05
5.27888e-05
5.02313e-05
5.02307e-05
5.04689e-05
5.04684e-05
5.02336e-05
5.04717e-05
5.04713e-05
5.26001e-05
5.27854e-05
5.02332e-05
5.04721e-05
5.0471e-05
5.27787e-05
5.28522e-05
5.30144e-05
5.05457e-05
5.05466e-05
5.0766e-05
5.07668e-05
5.28433e-05
5.3025e-05
5.05456e-05
5.05449e-05
5.07658e-05
5.07651e-05
5.05479e-05
5.07687e-05
5.07681e-05
5.28445e-05
5.30238e-05
5.05476e-05
5.07689e-05
5.07679e-05
5.30169e-05
5.30847e-05
5.32319e-05
5.08369e-05
5.08376e-05
5.104e-05
5.10408e-05
5.30753e-05
5.32428e-05
5.08368e-05
5.0836e-05
5.10398e-05
5.10391e-05
5.08389e-05
5.10427e-05
5.10419e-05
5.30741e-05
5.32418e-05
5.08388e-05
5.10429e-05
5.10418e-05
5.32422e-05
6.48229e-05
7.13573e-05
7.13942e-05
6.47278e-05
6.95346e-05
6.95611e-05
6.48282e-05
7.13633e-05
7.14005e-05
6.47291e-05
2.10341e-05
2.10379e-05
2.10389e-05
2.16018e-05
2.16011e-05
2.16049e-05
2.1606e-05
5.35347e-05
6.02153e-05
2.90724e-05
3.69154e-05
6.03315e-05
2.93171e-05
5.33379e-05
6.95329e-05
6.95595e-05
5.35348e-05
2.90761e-05
6.02137e-05
3.69185e-05
2.9321e-05
6.03347e-05
5.33363e-05
6.69237e-05
6.69328e-05
4.21487e-05
6.69831e-05
6.69955e-05
6.50504e-05
7.14417e-05
6.49573e-05
7.14787e-05
6.95906e-05
6.9618e-05
6.50543e-05
7.1448e-05
6.49589e-05
7.14852e-05
2.17926e-05
2.17965e-05
2.17975e-05
2.23743e-05
2.23736e-05
2.23776e-05
2.23786e-05
5.39975e-05
6.05041e-05
3.005e-05
3.78151e-05
5.38093e-05
6.06165e-05
3.02936e-05
6.95889e-05
6.96163e-05
5.39983e-05
3.00541e-05
6.05026e-05
3.78181e-05
5.3808e-05
3.02977e-05
6.06193e-05
6.71e-05
6.71097e-05
4.28696e-05
6.71576e-05
6.71695e-05
6.527e-05
7.15269e-05
6.51799e-05
7.15641e-05
6.96487e-05
6.96768e-05
6.52741e-05
7.15333e-05
6.5181e-05
7.15707e-05
2.25693e-05
2.25733e-05
2.25743e-05
2.31622e-05
2.31616e-05
2.31656e-05
2.31666e-05
5.44412e-05
6.07819e-05
3.10212e-05
3.86882e-05
5.42609e-05
6.08905e-05
3.12624e-05
6.9647e-05
6.96752e-05
5.44421e-05
3.10253e-05
6.07806e-05
3.86913e-05
5.42596e-05
3.12665e-05
6.08933e-05
6.72709e-05
6.72812e-05
4.35539e-05
6.73266e-05
6.7339e-05
6.54816e-05
7.16128e-05
6.53958e-05
7.16502e-05
6.97086e-05
6.97374e-05
6.54858e-05
7.16194e-05