/*--------------------------------*- C++ -*----------------------------------*\
| =========                 |                                                 |
| \\      /  F ield         | OpenFOAM: The Open Source CFD Toolbox           |
|  \\    /   O peration     | Version:  v1906                                 |
|   \\  /    A nd           | Web:      www.OpenFOAM.com                      |
|    \\/     M anipulation  |                                                 |
\*---------------------------------------------------------------------------*/
FoamFile
{
    version     2.0;
    format      ascii;
    class       volScalarField;
    location    "550";
    object      nut;
}
// * * * * * * * * * * * * * * * * * * * * * * * * * * * * * * * * * * * * * //

dimensions      [0 2 -1 0 0 0 0];


internalField   nonuniform List<scalar> 
42840
(
0.000203424
0.000198747
0.00019874
0.000180596
0.000181556
0.000180673
0.000181465
0.000198717
0.000198716
0.000199774
0.000199774
0.000180608
0.000181549
0.000198731
0.000198704
0.000199789
0.000199762
0.000198723
0.000199805
0.00019978
0.000180595
0.000181536
0.000198737
0.000199797
0.000199794
0.000181537
0.000200125
0.000200139
9.97163e-05
5.07128e-05
5.0724e-05
9.96475e-05
2.38791e-05
2.38836e-05
9.97236e-05
5.07123e-05
5.07187e-05
9.96608e-05
0.000203431
0.000203431
0.00020344
0.000205316
0.000205322
0.000205322
0.00020533
0.000143711
0.00010335
0.000207733
0.000199104
0.000103437
0.0002082
0.000143507
2.3877e-05
2.38814e-05
0.000143697
0.000207731
0.000103354
0.000199097
0.000208198
0.000103437
0.000143503
7.78108e-05
7.78105e-05
0.000181059
7.78383e-05
7.78361e-05
7.78736e-05
7.78731e-05
2.38799e-05
2.38842e-05
2.38785e-05
2.38829e-05
7.78148e-05
7.7809e-05
0.000180989
7.784e-05
7.78366e-05
2.38888e-05
2.38845e-05
2.38875e-05
2.38832e-05
0.000181147
7.78708e-05
7.78679e-05
7.78472e-05
7.78414e-05
9.97196e-05
5.07133e-05
5.07245e-05
9.96506e-05
0.000143706
0.000103351
0.000207718
0.000199073
0.000103437
0.000208185
0.000143491
0.000143708
0.000103348
0.000207721
0.000199074
0.000103435
0.000208188
0.000143493
9.97099e-05
5.07337e-05
5.07235e-05
9.97761e-05
9.9713e-05
5.07347e-05
5.07237e-05
9.97795e-05
0.000143708
0.000199427
0.000103515
0.000209104
0.000103433
0.000208649
0.000143913
0.00014371
0.000199427
0.000103514
0.000209107
0.000103431
0.000208652
0.000143916
7.78096e-05
7.78052e-05
0.000181072
7.78368e-05
7.78351e-05
2.38797e-05
2.38842e-05
2.38882e-05
2.38838e-05
0.000181081
7.78671e-05
7.7866e-05
7.78422e-05
7.78376e-05
2.38888e-05
2.38843e-05
0.000143699
0.000103342
0.000207723
0.000199087
0.000103428
0.000208185
0.000143505
9.97169e-05
5.07082e-05
5.07146e-05
9.96556e-05
0.000143693
0.000207717
0.000103329
0.000199061
0.000208183
0.000103414
0.0001435
9.97182e-05
5.07289e-05
5.07227e-05
9.9784e-05
0.000143722
0.000199442
0.000103507
0.000209104
0.000103424
0.000208654
0.000143906
9.97178e-05
5.07255e-05
5.07184e-05
9.97767e-05
0.000143717
0.000199415
0.000209102
0.000103493
0.000208648
0.000103412
0.000143901
9.9718e-05
5.07123e-05
5.07237e-05
9.96555e-05
0.000143709
0.000207729
0.000103349
0.00019908
0.000208196
0.000103434
0.000143495
9.9718e-05
5.0709e-05
5.07202e-05
9.96492e-05
0.000143717
0.000199458
0.000103515
0.000209119
0.000103432
0.000208664
0.000143919
9.97176e-05
5.07339e-05
5.0723e-05
9.97775e-05
0.000143711
0.000199433
0.000209115
0.000103513
0.00020866
0.000103431
0.000143917
9.97116e-05
5.07304e-05
5.07194e-05
9.97777e-05
7.77931e-05
7.78128e-05
0.000181058
7.78227e-05
7.78396e-05
2.3879e-05
2.38833e-05
2.3886e-05
2.38816e-05
0.000181068
7.78538e-05
7.78699e-05
7.78255e-05
7.78454e-05
2.38879e-05
2.38836e-05
0.000143699
0.000207731
0.000103348
0.000199094
0.000208198
0.000103432
0.000143506
9.97134e-05
5.07115e-05
5.07179e-05
9.96505e-05
9.97189e-05
5.07116e-05
5.07181e-05
9.96577e-05
0.00014372
0.00019945
0.000209117
0.000103517
0.000208662
0.000103435
0.000143903
0.000143722
0.000199448
0.000209116
0.000103511
0.000208662
0.00010343
0.000143906
9.97126e-05
5.07288e-05
5.07217e-05
9.9773e-05
9.97199e-05
5.07284e-05
5.0722e-05
9.97787e-05
2.38786e-05
2.38831e-05
2.38783e-05
2.38826e-05
0.000181069
7.78689e-05
7.78673e-05
7.78434e-05
7.7843e-05
2.38877e-05
2.38833e-05
2.38872e-05
2.38829e-05
0.000209568
0.00010351
0.000143919
5.07295e-05
9.97708e-05
0.000103507
5.07323e-05
2.38879e-05
2.38875e-05
3.66972e-05
4.10402e-05
9.43528e-05
9.96787e-05
4.10338e-05
9.43199e-05
3.66962e-05
2.03078e-05
5.07186e-05
7.89825e-05
7.89946e-05
2.03056e-05
2.03076e-05
7.90067e-05
5.07181e-05
7.89947e-05
2.03097e-05
3.66926e-05
9.96853e-05
4.10298e-05
9.42954e-05
4.10358e-05
9.43285e-05
3.66935e-05
2.38813e-05
2.38815e-05
3.66989e-05
9.43639e-05
4.10397e-05
9.96885e-05
9.43377e-05
4.10334e-05
3.66981e-05
2.0309e-05
5.07136e-05
7.90008e-05
7.90192e-05
2.03069e-05
2.03088e-05
7.90314e-05
5.07174e-05
7.90125e-05
2.03109e-05
3.66944e-05
9.96915e-05
9.43143e-05
4.10306e-05
9.43395e-05
4.10346e-05
3.66954e-05
2.38791e-05
2.38793e-05
8.1445e-05
2.17029e-05
2.16999e-05
2.17009e-05
2.16979e-05
8.14518e-05
0.000105056
0.000128361
7.7822e-05
4.86258e-05
0.000128423
4.86332e-05
0.000105035
0.000105064
0.000128343
7.78196e-05
4.86203e-05
0.000128408
4.86202e-05
0.000105044
0.000105068
4.8638e-05
7.78275e-05
0.000128496
0.000128435
4.86308e-05
0.000105088
0.000105076
4.8625e-05
7.78271e-05
0.000128481
0.000128417
4.8625e-05
0.000105096
8.14415e-05
2.1699e-05
2.1696e-05
2.1701e-05
2.1698e-05
8.14346e-05
0.000105181
0.000128648
4.86445e-05
7.78847e-05
0.000105161
0.000128706
4.86529e-05
0.000105189
0.000128631
4.86395e-05
7.78819e-05
0.00010517
0.000128691
4.86383e-05
8.1481e-05
2.17064e-05
2.17035e-05
8.14746e-05
2.17085e-05
2.17055e-05
2.38819e-05
2.38822e-05
2.38806e-05
2.38809e-05
8.14444e-05
2.17029e-05
2.16996e-05
2.17009e-05
2.16976e-05
8.14515e-05
0.000105059
0.000128362
7.78235e-05
4.86302e-05
4.86302e-05
0.000128427
0.00010504
0.000105061
0.000128343
7.78201e-05
4.86152e-05
4.86215e-05
0.000128407
0.000105042
0.000105072
4.86349e-05
7.78311e-05
0.0001285
4.86349e-05
0.000105092
0.000128436
0.000105074
4.8627e-05
7.78254e-05
0.00012848
4.86197e-05
0.000105095
0.000128417
8.14411e-05
2.1699e-05
2.16957e-05
2.1701e-05
2.16977e-05
8.14339e-05
2.38868e-05
2.38865e-05
2.38855e-05
2.38852e-05
8.14616e-05
2.17027e-05
2.16995e-05
8.14546e-05
2.17047e-05
2.17015e-05
0.000105136
0.000128641
7.78627e-05
4.86445e-05
4.86447e-05
0.00012858
0.000105155
0.000105137
0.000128621
7.78565e-05
4.86367e-05
4.86292e-05
0.000128561
0.000105157
0.000105124
4.86398e-05
0.000128509
7.78558e-05
0.000105104
4.86402e-05
0.000128571
0.000105126
4.86247e-05
0.000128489
7.78522e-05
0.000105106
4.86315e-05
0.000128551
8.14646e-05
2.17066e-05
2.17033e-05
2.17046e-05
2.17013e-05
8.14714e-05
3.66949e-05
4.10403e-05
9.43676e-05
9.96818e-05
4.10339e-05
9.43334e-05
3.67019e-05
2.03087e-05
5.07193e-05
7.90024e-05
7.90216e-05
2.03066e-05
2.03085e-05
7.90336e-05
5.07186e-05
7.90147e-05
2.03106e-05
3.66981e-05
9.96886e-05
4.10299e-05
9.43092e-05
4.10359e-05
9.43433e-05
3.6691e-05
3.66999e-05
4.10383e-05
9.43445e-05
9.97466e-05
3.67007e-05
4.10444e-05
9.43768e-05
2.03114e-05
5.07285e-05
7.90298e-05
2.03135e-05
7.9018e-05
2.03116e-05
7.90067e-05
5.07287e-05
2.03095e-05
7.90185e-05
3.67047e-05
9.97402e-05
4.10488e-05
9.44004e-05
3.67039e-05
4.10427e-05
9.43685e-05
3.67056e-05
4.10384e-05
9.43583e-05
9.975e-05
3.66988e-05
4.10446e-05
9.43918e-05
2.03123e-05
5.07287e-05
7.90568e-05
7.90382e-05
2.03144e-05
2.03125e-05
7.90266e-05
5.07293e-05
2.03104e-05
7.90454e-05
3.67023e-05
9.97433e-05
4.10488e-05
9.44157e-05
4.10426e-05
9.43823e-05
3.67092e-05
8.14446e-05
2.17003e-05
2.17029e-05
2.16983e-05
2.17008e-05
8.14518e-05
0.000105067
0.000128345
7.7821e-05
4.86169e-05
4.86243e-05
0.000128406
0.000105042
0.000105063
0.00012837
7.78189e-05
4.86254e-05
0.000128426
4.86328e-05
0.000105038
0.000105075
4.8629e-05
7.78263e-05
0.000128479
4.86219e-05
0.000128419
0.000105099
0.000105071
4.86376e-05
7.78219e-05
0.000128499
0.000128444
4.86304e-05
0.000105095
8.14414e-05
2.16964e-05
2.1699e-05
2.16984e-05
2.1701e-05
8.14342e-05
2.38818e-05
2.3882e-05
2.38861e-05
2.38859e-05
8.14621e-05
2.17001e-05
2.17027e-05
8.14547e-05
2.17022e-05
2.17048e-05
0.000105138
0.00012862
7.78581e-05
4.86373e-05
0.000128562
4.86324e-05
0.000105162
0.000105135
0.00012864
7.78529e-05
4.86472e-05
4.86397e-05
0.000128587
0.000105158
0.000105131
4.86267e-05
0.000128491
7.7852e-05
0.00012855
0.000105107
4.86332e-05
0.000105127
4.86351e-05
0.000128516
7.78504e-05
0.000105103
4.8642e-05
0.00012857
8.14646e-05
2.1704e-05
2.17066e-05
2.1702e-05
2.17046e-05
8.1472e-05
2.38866e-05
2.38865e-05
3.66964e-05
4.10396e-05
9.43458e-05
9.96872e-05
4.10335e-05
9.432e-05
3.66957e-05
2.03073e-05
5.07094e-05
7.89774e-05
7.89881e-05
2.03052e-05
2.03071e-05
7.90003e-05
5.07132e-05
7.89895e-05
2.03092e-05
3.66925e-05
9.96862e-05
4.10295e-05
9.42949e-05
4.10352e-05
9.43217e-05
3.66919e-05
3.67017e-05
9.43598e-05
4.10382e-05
9.9755e-05
3.67024e-05
9.43895e-05
4.10441e-05
2.03126e-05
5.07279e-05
7.90544e-05
2.03147e-05
7.9036e-05
2.03128e-05
7.90244e-05
5.07242e-05
2.03107e-05
7.90432e-05
3.67063e-05
9.97484e-05
9.44131e-05
4.10483e-05
3.67057e-05
9.43814e-05
4.10423e-05
3.6699e-05
4.1038e-05
9.43443e-05
9.97476e-05
3.67e-05
4.10439e-05
9.43703e-05
2.03109e-05
5.07235e-05
7.90237e-05
7.9013e-05
2.0313e-05
2.03111e-05
7.90015e-05
5.07202e-05
2.0309e-05
7.90123e-05
3.67039e-05
9.97479e-05
4.10481e-05
9.43935e-05
4.10421e-05
9.43683e-05
3.67028e-05
3.66997e-05
9.4366e-05
4.10369e-05
9.9687e-05
9.43415e-05
4.1037e-05
3.66987e-05
2.03095e-05
5.07183e-05
7.90043e-05
7.90231e-05
2.03074e-05
2.03093e-05
7.90349e-05
5.07177e-05
7.90166e-05
2.03114e-05
3.66951e-05
9.96874e-05
9.43168e-05
4.10325e-05
9.4342e-05
4.10328e-05
3.66961e-05
3.66934e-05
4.10398e-05
9.43589e-05
9.96804e-05
4.10334e-05
9.43248e-05
3.67003e-05
2.03082e-05
5.0715e-05
7.89833e-05
7.90022e-05
2.03061e-05
2.03081e-05
7.90142e-05
5.07143e-05
7.89955e-05
2.03101e-05
3.66965e-05
9.9687e-05
4.10294e-05
9.43008e-05
4.10354e-05
9.43347e-05
3.66894e-05
3.67024e-05
9.43657e-05
4.1041e-05
9.97484e-05
3.67033e-05
9.43903e-05
4.10413e-05
2.03131e-05
5.07279e-05
7.9058e-05
7.90401e-05
2.03152e-05
2.03133e-05
7.90285e-05
5.07286e-05
2.03112e-05
7.90467e-05
3.67071e-05
9.97476e-05
9.44135e-05
4.10454e-05
9.43893e-05
4.10453e-05
3.67064e-05
3.67041e-05
4.10379e-05
9.43497e-05
9.97483e-05
3.66972e-05
4.1044e-05
9.43831e-05
2.03119e-05
5.07244e-05
7.90375e-05
7.90189e-05
2.03139e-05
2.0312e-05
7.90074e-05
5.0725e-05
2.031e-05
7.9026e-05
3.67007e-05
9.97418e-05
4.10483e-05
9.44069e-05
4.10421e-05
9.43736e-05
3.67076e-05
8.14446e-05
2.16992e-05
2.17027e-05
2.16972e-05
2.17007e-05
8.14518e-05
0.000105055
0.000128336
7.78063e-05
4.86173e-05
4.8619e-05
0.000128389
0.000105036
0.000105057
0.000128364
7.78239e-05
4.86263e-05
0.000128428
4.86337e-05
0.000105037
0.000105068
4.86255e-05
7.78097e-05
0.000128463
4.86196e-05
0.00012841
0.000105088
0.00010507
4.86386e-05
7.78294e-05
0.000128501
0.000128438
4.86313e-05
0.000105089
8.14414e-05
2.16953e-05
2.16988e-05
2.16974e-05
2.17008e-05
8.14341e-05
2.3881e-05
2.38813e-05
2.38839e-05
2.38837e-05
8.14619e-05
2.16991e-05
2.17026e-05
8.14549e-05
2.17011e-05
2.17046e-05
0.000105132
0.000128604
7.78408e-05
4.8636e-05
0.000128554
4.86284e-05
0.000105151
0.000105133
0.000128642
7.78613e-05
4.86479e-05
4.86407e-05
0.000128582
0.000105152
0.00010512
4.86237e-05
0.000128482
7.78381e-05
0.000128534
0.0001051
4.86308e-05
0.000105121
4.8636e-05
0.00012851
7.78547e-05
0.000105102
4.86429e-05
0.000128572
8.14648e-05
2.1703e-05
2.17065e-05
2.1701e-05
2.17044e-05
8.14716e-05
2.38859e-05
2.38856e-05
3.66977e-05
9.43506e-05
4.10395e-05
9.96821e-05
9.4325e-05
4.10337e-05
3.66966e-05
2.03084e-05
5.07127e-05
7.89838e-05
7.90023e-05
2.03064e-05
2.03083e-05
7.90144e-05
5.07165e-05
7.89959e-05
2.03104e-05
3.6693e-05
9.96829e-05
9.43002e-05
4.10317e-05
9.43268e-05
4.10338e-05
3.66941e-05
3.66952e-05
9.43564e-05
4.10373e-05
9.96893e-05
9.43296e-05
4.10373e-05
3.67023e-05
2.03089e-05
5.0713e-05
7.89977e-05
7.90084e-05
2.03068e-05
2.03087e-05
7.90203e-05
5.07167e-05
7.90099e-05
2.03108e-05
3.66985e-05
9.96882e-05
9.43043e-05
4.10328e-05
9.43324e-05
4.10332e-05
3.66915e-05
3.67003e-05
9.43492e-05
4.10379e-05
9.97441e-05
3.67012e-05
9.43753e-05
4.1044e-05
2.03121e-05
5.07267e-05
7.90376e-05
7.90194e-05
2.03141e-05
2.03123e-05
7.90079e-05
5.07235e-05
2.03102e-05
7.90262e-05
3.67051e-05
9.97426e-05
9.43981e-05
4.10486e-05
9.4373e-05
4.10423e-05
3.67042e-05
3.67061e-05
9.43538e-05
4.10413e-05
9.97495e-05
3.66991e-05
9.43807e-05
4.10422e-05
2.03125e-05
5.07272e-05
7.90437e-05
7.90335e-05
2.03146e-05
2.03127e-05
7.90218e-05
5.07236e-05
2.03106e-05
7.90324e-05
3.67025e-05
9.97498e-05
9.44038e-05
4.1048e-05
9.43777e-05
4.10435e-05
3.67097e-05
2.38808e-05
2.3881e-05
2.38802e-05
2.38806e-05
8.14619e-05
2.17027e-05
2.16998e-05
8.14551e-05
2.17048e-05
2.17018e-05
0.000105131
0.000128637
7.78587e-05
4.86472e-05
0.000105151
0.000128579
4.86401e-05
0.000105139
0.000128622
7.78582e-05
4.86347e-05
0.000105159
0.000128561
4.86346e-05
0.00010512
4.86356e-05
0.000128508
7.78538e-05
0.0001051
0.000128567
4.86423e-05
0.000105128
4.86298e-05
0.00012849
7.78517e-05
0.000105108
0.000128552
4.86303e-05
8.1465e-05
2.17066e-05
2.17036e-05
8.14717e-05
2.17046e-05
2.17016e-05
2.38856e-05
2.38854e-05
2.38852e-05
2.38849e-05
2.03158e-05
7.90303e-05
5.07358e-05
2.03138e-05
7.90486e-05
3.67117e-05
9.98066e-05
4.10466e-05
9.43963e-05
3.67043e-05
4.10516e-05
9.44299e-05
5.07329e-05
2.389e-05
2.38894e-05
0.000199189
0.000199189
0.00020406
0.000199999
0.000199998
0.000189294
0.000188272
0.0001379
0.000160894
0.000160876
0.00018082
0.000160981
0.000160976
0.000137855
0.000138243
0.000161527
0.000161517
0.000181778
0.000138195
0.000161618
0.000161604
0.000137899
0.000160908
0.000160893
0.00018075
0.000160963
0.000160949
0.00013786
0.000138118
0.000181395
0.000161437
0.000161428
0.000161384
0.00016137
0.000138157
0.000137908
0.000160889
0.000160904
0.000180834
0.000160992
0.000160974
0.000137859
0.000138118
0.000181327
0.000161443
0.000161463
0.000161363
0.000161383
0.000138165
0.000137895
0.000160873
0.000160894
0.00018082
0.000160982
0.000160961
0.000137852
0.000138111
0.000181314
0.00016143
0.000161454
0.000161348
0.000161372
0.000138153
0.000138113
0.000181316
0.000161454
0.000161444
0.000138158
0.000161373
0.000161353
0.000199191
0.000199196
0.000204067
0.000200001
0.000200006
0.000189296
0.000188274
0.000199197
0.000199204
0.000204067
0.000200006
0.000200013
0.000189305
0.000188282
0.000199205
0.000199205
0.000204075
0.000200014
0.000200015
0.000189307
0.000188284
0.000204693
0.000201602
0.000201601
0.000200805
0.000200805
0.000190316
0.000191333
0.000204699
0.000201604
0.000201609
0.000200807
0.000200812
0.000190318
0.000191335
0.000204699
0.000201609
0.000201616
0.000200812
0.000200819
0.000190326
0.000191343
0.000204707
0.000201617
0.000201617
0.000200821
0.00020082
0.000190328
0.000191345
0.000170439
0.000137223
0.000175652
0.000143607
0.000137148
0.000175541
0.000170525
0.000159951
0.000146882
0.000103396
0.000122359
0.000146957
0.000122423
0.000159903
0.000160051
0.000122489
0.000103392
0.000147081
0.000147008
0.000122423
0.000160138
0.000170323
0.000143598
0.000137055
0.00017532
0.000137131
0.000175405
0.000170239
0.00017044
0.000175592
0.000137211
0.000143614
0.000175578
0.000137137
0.000170503
0.000159942
0.000146898
0.000103396
0.000122354
0.000146935
0.000122413
0.000159906
0.000160063
0.000122479
0.000103395
0.00014706
0.000147023
0.00012242
0.000160097
0.000170309
0.00014359
0.000175343
0.000137044
0.000175364
0.00013712
0.000170237
0.000137944
0.000180838
0.000161145
0.000161134
0.00016105
0.000161041
0.000137988
0.000137948
0.000180911
0.000161126
0.000161112
0.000137987
0.00016107
0.000161057
0.000138074
0.000181234
0.000161227
0.000161214
0.000138034
0.000161287
0.000161274
0.000170356
0.000137215
0.000175648
0.0001436
0.000137118
0.000175507
0.000170543
0.000159977
0.000146873
0.000103396
0.00012234
0.00012241
0.000146949
0.000159845
0.000160001
0.000122476
0.000103393
0.000147073
0.000122407
0.000146999
0.00016014
0.00017033
0.000143598
0.000137026
0.000175278
0.000137123
0.000175419
0.00017016
0.000170412
0.000137223
0.000175648
0.000143602
0.000137126
0.00017551
0.000170529
0.000159974
0.000146861
0.000103394
0.000122345
0.000122416
0.000146938
0.000159845
0.000160003
0.000122483
0.00010339
0.000147062
0.000122412
0.000160135
0.000146988
0.000170319
0.0001436
0.000137034
0.000175281
0.000137131
0.00017542
0.000170211
0.000170748
0.000137211
0.00017572
0.00014381
0.000170559
0.000137306
0.000175859
0.000160298
0.000147314
0.000103473
0.000122605
0.000147241
0.000122539
0.000160469
0.000160306
0.000122473
0.00014712
0.000103476
0.000147191
0.000160155
0.00012254
0.000170746
0.000143813
0.000137395
0.000176076
0.000137301
0.000175937
0.00017094
0.000170741
0.000137219
0.000175723
0.000143813
0.000170603
0.000137315
0.000175861
0.000160304
0.000147303
0.00010347
0.000122612
0.000122543
0.000147231
0.000160468
0.000160302
0.000122478
0.000147109
0.000103474
0.00016016
0.000122547
0.00014718
0.000170778
0.000143816
0.000137405
0.000176078
0.00013731
0.00017594
0.000170949
0.000137948
0.00018085
0.000161137
0.000161156
0.00016106
0.000161042
0.000137995
0.000138081
0.000181303
0.0001612
0.000161217
0.000161286
0.000138033
0.000161307
0.000170426
0.000137215
0.000175587
0.000143615
0.000137134
0.000175571
0.000170509
0.000159965
0.000146859
0.000103388
0.000122342
0.000122413
0.000146936
0.00015986
0.000160019
0.00012248
0.000103384
0.00014706
0.00012241
0.000146987
0.000160132
0.000170309
0.000143592
0.000137046
0.000175337
0.000137123
0.00017536
0.000170223
0.000170412
0.000175581
0.000137198
0.00014361
0.000175565
0.000137123
0.000170494
0.000159914
0.000146863
0.000103373
0.00012233
0.000122392
0.000146899
0.000159874
0.000160033
0.000122459
0.000103371
0.000147025
0.000122397
0.000160073
0.000146989
0.000170294
0.000143586
0.00017533
0.00013703
0.000175355
0.000137106
0.000170206
0.000170709
0.00013722
0.000175784
0.000143805
0.000170625
0.000137311
0.000175802
0.000160322
0.000147297
0.000103464
0.000122609
0.000147237
0.000122541
0.000160462
0.000160298
0.000122477
0.000147108
0.000103468
0.000147179
0.000160175
0.000122545
0.000170823
0.000143826
0.000137401
0.000176008
0.000137307
0.000176
0.000170909
0.000170687
0.000175779
0.000137215
0.000143799
0.000170614
0.000175796
0.00013729
0.000160352
0.000147274
0.000103452
0.000122589
0.000122528
0.000147235
0.000160379
0.000160224
0.000122463
0.00014711
0.000103454
0.000160194
0.000122525
0.000147148
0.000170814
0.000143821
0.000176002
0.000137378
0.000175995
0.000137306
0.000170877
0.000170362
0.000175651
0.00013722
0.000143604
0.000175513
0.000137122
0.000170547
0.000159981
0.000146873
0.000103394
0.000122344
0.000146949
0.000122413
0.000159848
0.000160004
0.000122479
0.00010339
0.000147073
0.000146999
0.00012241
0.000160143
0.000170333
0.000143601
0.000175285
0.000137031
0.000175422
0.000137128
0.000170162
0.000170726
0.000137239
0.000175751
0.000143816
0.000170638
0.000137314
0.000175872
0.000160348
0.000147323
0.000103472
0.000122619
0.000160477
0.000147251
0.000122553
0.000160313
0.000122487
0.000147128
0.000103476
0.000160203
0.0001472
0.000122555
0.000170835
0.000143822
0.000137406
0.000176089
0.000170933
0.000137323
0.000175961
0.000170748
0.000175727
0.000137215
0.000143814
0.000170565
0.000175864
0.00013731
0.000160301
0.000147313
0.000103471
0.000122608
0.000122541
0.00014724
0.000160464
0.000160309
0.000122477
0.00014712
0.000103474
0.000160157
0.000122544
0.000147191
0.000170759
0.000143817
0.000176081
0.0001374
0.000175944
0.000137306
0.000170935
0.000137941
0.000180837
0.000161117
0.000161142
0.000161057
0.000161033
0.000137983
0.000138069
0.00018129
0.000161188
0.000161212
0.000161273
0.000138026
0.000161297
0.000170421
0.00017559
0.000137209
0.000143616
0.000175574
0.000137134
0.000170512
0.00015994
0.000146879
0.000103391
0.000122344
0.000146916
0.000122408
0.000159841
0.000160026
0.000122474
0.000103389
0.000147042
0.000147004
0.000122411
0.000160096
0.000170309
0.000143592
0.00017534
0.00013704
0.000175365
0.000137118
0.000170213
0.000170701
0.00017579
0.000137229
0.000143803
0.00017064
0.000175805
0.000137303
0.000160379
0.000147308
0.000103474
0.000122608
0.000160407
0.000147268
0.000122551
0.000160247
0.000122486
0.000147143
0.000103477
0.000160222
0.000147182
0.000122545
0.000170837
0.000143824
0.000176011
0.00013739
0.000170897
0.000176006
0.000137319
0.000170705
0.000175788
0.000137226
0.000143804
0.000170624
0.000175805
0.000137301
0.000160367
0.000147283
0.000103469
0.000122604
0.000122541
0.00014725
0.0001604
0.000160246
0.000122477
0.000147126
0.000103472
0.000160199
0.00012254
0.000147165
0.000170824
0.000143826
0.000176011
0.000137389
0.000176004
0.000137317
0.000170894
0.000138074
0.00018129
0.000161207
0.000161197
0.000138028
0.000161296
0.000161284
0.000160617
0.000147367
0.000122605
0.00010355
0.000147426
0.000160461
0.00012267
0.000171128
0.000144019
0.000176161
0.000137393
0.000176299
0.000170963
0.000137488
0.000147368
0.000103548
0.000147412
0.00012304
0.00013942
0.000139424
0.000137122
0.000125838
0.000142546
0.00014255
0.000139555
0.000128795
0.000145634
0.000145638
0.000141947
0.000131891
0.000148677
0.000148683
0.000144278
0.000135104
0.000151673
0.000151678
0.000146538
0.000138415
0.000154612
0.000154617
0.000148754
0.000141804
0.000157492
0.000157495
0.000150897
0.000145252
0.000160309
0.000160312
0.000152996
0.000148743
0.000163062
0.000163063
0.000155052
0.000152261
0.000165748
0.000165749
0.00015706
0.000155793
0.000168367
0.000168368
0.000158968
0.000159326
0.000170917
0.000170916
0.000160855
0.000162846
0.000173396
0.000173395
0.000162641
0.000166341
0.000175804
0.000175802
0.000164381
0.000169802
0.000178138
0.000178136
0.000166133
0.00017322
0.000180398
0.000180395
0.000167747
0.000176585
0.000182582
0.000182579
0.000169301
0.00017989
0.00018469
0.000184687
0.000170796
0.000183128
0.00018672
0.000186717
0.000172219
0.000186292
0.000188674
0.000188669
0.000173591
0.000189375
0.000190549
0.000190544
0.000174939
0.000192374
0.000192347
0.000192341
0.000176216
0.000195282
0.000194065
0.000194059
0.000177434
0.000198095
0.000195705
0.000195698
0.000178577
0.00020081
0.000197265
0.000197258
0.000179614
0.00013713
0.000139269
0.000139407
0.000139407
0.000141754
0.000141755
0.000137095
0.000139263
0.00013942
0.00013941
0.000141765
0.000141757
0.00013943
0.000141768
0.000141776
0.000137155
0.000139175
0.000139433
0.000141772
0.000141779
0.000139262
0.000139558
0.000141649
0.000142533
0.000142533
0.000144852
0.000144852
0.000139577
0.000141647
0.000142545
0.000142535
0.000144863
0.000144853
0.000142555
0.000144866
0.000144872
0.000139667
0.00014164
0.000142558
0.00014487
0.000144876
0.000141633
0.000141944
0.000143916
0.00014562
0.00014562
0.000147907
0.000147907
0.000141947
0.00014397
0.000145632
0.000145621
0.000147919
0.000147908
0.00014564
0.000147921
0.000147925
0.000141955
0.000143991
0.000145644
0.000147926
0.000147929
0.00014397
0.000144358
0.000146143
0.000148665
0.000148663
0.000150915
0.000150914
0.000144255
0.000146243
0.000148677
0.000148665
0.000150927
0.000150915
0.000148682
0.000150929
0.000150931
0.000144297
0.000146289
0.000148686
0.000150934
0.000150936
0.000146252
0.000146645
0.000148416
0.00015166
0.000151658
0.000153869
0.000153867
0.000146534
0.000148485
0.000151673
0.000151658
0.000153881
0.000153867
0.000151675
0.000153883
0.000153883
0.000146541
0.000148485
0.00015168
0.000153888
0.000153889
0.000148473
0.000148841
0.000150571
0.000154599
0.000154596
0.000156764
0.000156761
0.000148742
0.000150639
0.000154611
0.000154596
0.000156775
0.000156759
0.000154612
0.000156778
0.000156776
0.000148774
0.000150641
0.000154618
0.000156781
0.000156782
0.000150654
0.000151021
0.000152697
0.000157479
0.000157475
0.000159597
0.000159593
0.000150907
0.000152775
0.00015749
0.000157473
0.000159606
0.00015959
0.00015749
0.000159611
0.000159607
0.00015089
0.000152776
0.000157496
0.000159614
0.000159613
0.000152756
0.000153073
0.000154694
0.000160295
0.000160291
0.000162364
0.000162361
0.000153006
0.000154814
0.000160305
0.000160289
0.000162373
0.000162357
0.000160304
0.00016238
0.000162374
0.00015302
0.000154816
0.000160311
0.000162382
0.000162381
0.000154804
0.00015514
0.000156821
0.000163047
0.000163042
0.000165066
0.000165063
0.00015502
0.000156799
0.000163056
0.000163038
0.000165074
0.000165058
0.000163056
0.000165083
0.000165076
0.000155055
0.000156749
0.000163064
0.000165084
0.000165084
0.000156823
0.000157046
0.000158755
0.00016573
0.000165728
0.000167699
0.000167699
0.000157022
0.00015875
0.000165739
0.000165722
0.000167708
0.000167692
0.000165741
0.000167719
0.00016771
0.00015707
0.000158697
0.00016575
0.00016772
0.00016772
0.000158731
0.00015899
0.000160612
0.000168347
0.000168346
0.000170265
0.000170265
0.000158977
0.000160626
0.000168357
0.00016834
0.000170274
0.000170257
0.000168359
0.000170286
0.000170276
0.000159015
0.000160621
0.000168368
0.000170286
0.000170286
0.000160627
0.000160831
0.000162357
0.000170896
0.000170895
0.00017276
0.000172761
0.000160838
0.000162431
0.000170905
0.000170887
0.00017277
0.000172753
0.000170907
0.000172783
0.000172771
0.000160831
0.000162431
0.000170917
0.000172782
0.000172782
0.000162433
0.000162693
0.000164156
0.000173373
0.000173374
0.000175185
0.000175186
0.000162642
0.000164197
0.000173383
0.000173365
0.000175195
0.000175177
0.000173385
0.000175209
0.000175195
0.000162625
0.000164195
0.000173395
0.000175207
0.000175206
0.000164171
0.000164421
0.000165806
0.00017578
0.00017578
0.000177536
0.000177537
0.000164397
0.00016589
0.00017579
0.000175771
0.000177546
0.000177528
0.00017579
0.000177561
0.000177547
0.000164406
0.000165885
0.000175801
0.000177559
0.000177558
0.000165822
0.000166117
0.000167467
0.000178113
0.000178113
0.000179815
0.000179815
0.000166077
0.000167533
0.000178124
0.000178105
0.000179825
0.000179806
0.000178124
0.00017984
0.000179825
0.000166078
0.000167518
0.000178135
0.000179837
0.000179836
0.000167461
0.000167732
0.000169034
0.000180372
0.000180373
0.000182017
0.000182018
0.000167707
0.000169106
0.000180383
0.000180363
0.000182028
0.000182009
0.000180383
0.000182043
0.000182028
0.000167694
0.000169093
0.000180394
0.00018204
0.000182039
0.000169062
0.000169301
0.000170555
0.000182556
0.000182556
0.000184144
0.000184144
0.000169277
0.00017062
0.000182568
0.000182547
0.000184155
0.000184135
0.000182566
0.00018417
0.000184154
0.000169267
0.000170612
0.000182577
0.000184167
0.000184165
0.000170588
0.000170803
0.000172018
0.000184663
0.000184664
0.000186193
0.000186194
0.000170779
0.000172067
0.000184675
0.000184654
0.000186205
0.000186184
0.000184674
0.00018622
0.000186203
0.000170772
0.000172059
0.000184685
0.000186217
0.000186214
0.000172064
0.000172239
0.000173431
0.000186693
0.000186694
0.000188165
0.000188166
0.000172219
0.000173458
0.000186706
0.000186684
0.000188177
0.000188156
0.000186703
0.000188192
0.000188175
0.000172209
0.000173442
0.000186714
0.000188189
0.000188186
0.00017345
0.000173607
0.000174773
0.000188646
0.000188646
0.000190059
0.00019006
0.000173605
0.000174783
0.000188659
0.000188637
0.000190072
0.00019005
0.000188656
0.000190088
0.000190069
0.000173602
0.000174773
0.000188667
0.000190082
0.000190081
0.000174771
0.000174924
0.000176056
0.00019052
0.000190521
0.000191875
0.000191876
0.000174935
0.000176043
0.000190534
0.000190511
0.000191888
0.000191865
0.00019053
0.000191904
0.000191885
0.000174928
0.000176031
0.000190542
0.000191899
0.000191897
0.000176019
0.000176177
0.000177234
0.000192317
0.000192318
0.000193612
0.000193614
0.000176206
0.000177242
0.000192331
0.000192307
0.000193626
0.000193602
0.000192326
0.000193642
0.000193621
0.000176193
0.000177225
0.000192338
0.000193636
0.000193634
0.000177218
0.000177406
0.000178372
0.000194035
0.000194036
0.000195271
0.000195272
0.000177405
0.000178455
0.000194049
0.000194024
0.000195285
0.00019526
0.000194043
0.000195301
0.00019528
0.00017741
0.000178424
0.000194056
0.000195295
0.000195293
0.000178372
0.000178567
0.000179471
0.000195674
0.000195675
0.000196851
0.000196852
0.000178509
0.000179553
0.000195688
0.000195663
0.000196865
0.000196839
0.000195682
0.000196882
0.000196859
0.000178512
0.000179537
0.000195696
0.000196874
0.000196873
0.000179486
0.000179651
0.000180503
0.000197235
0.000197235
0.000198352
0.000198352
0.000179589
0.000180586
0.000197249
0.000197222
0.000198366
0.00019834
0.000197242
0.000198383
0.000198359
0.000179574
0.000180572
0.000197256
0.000198376
0.000198373
0.000180573
9.22929e-05
5.0016e-05
5.00326e-05
9.20781e-05
2.36122e-05
2.36167e-05
9.23105e-05
5.00146e-05
5.00306e-05
9.20737e-05
0.000123038
0.000123046
0.000123059
0.000125122
0.000125121
0.000125129
0.000125142
0.000122004
9.3849e-05
0.000134855
0.000140205
9.41195e-05
0.000135723
0.000121369
2.36102e-05
2.36147e-05
0.000122003
0.000134868
9.38378e-05
0.000140209
0.000135736
9.41354e-05
0.000121366
7.37716e-05
7.37637e-05
0.000138047
7.38656e-05
7.38689e-05
9.27709e-05
5.00473e-05
9.25569e-05
5.00627e-05
2.36217e-05
2.36264e-05
9.27791e-05
5.00446e-05
9.25583e-05
5.00599e-05
0.000125836
0.000125845
0.000125857
0.000128042
0.00012804
0.000128049
0.000128062
0.000123315
9.4453e-05
0.000138354
0.000143323
0.000122707
9.47194e-05
0.000139231
2.36197e-05
2.36243e-05
0.000123317
0.000138368
9.44418e-05
0.000143327
0.0001227
0.000139246
9.47315e-05
7.40335e-05
7.40289e-05
0.00014049
7.41292e-05
7.41278e-05
9.32281e-05
5.00771e-05
9.30216e-05
5.00926e-05
2.36316e-05
2.36364e-05
9.32438e-05
5.00743e-05
9.30214e-05
5.00898e-05
0.000128794
0.000128803
0.000128815
0.000131105
0.000131103
0.000131113
0.000131124
0.000124582
9.50356e-05
0.000141884
0.0001464
0.000123996
9.52933e-05
0.000142766
2.36296e-05
2.36343e-05
0.000124586
0.000141899
9.50214e-05
0.000146404
0.00012399
0.000142781
9.53116e-05
7.42876e-05
7.42849e-05
0.000142813
7.43791e-05
7.4383e-05
9.36668e-05
5.01072e-05
9.34703e-05
5.01227e-05
2.36417e-05
2.36466e-05
9.36777e-05