/*--------------------------------*- C++ -*----------------------------------*\
| =========                 |                                                 |
| \\      /  F ield         | OpenFOAM: The Open Source CFD Toolbox           |
|  \\    /   O peration     | Version:  v1906                                 |
|   \\  /    A nd           | Web:      www.OpenFOAM.com                      |
|    \\/     M anipulation  |                                                 |
\*---------------------------------------------------------------------------*/
FoamFile
{
    version     2.0;
    format      ascii;
    class       surfaceScalarField;
    location    "550";
    object      phi;
}
// * * * * * * * * * * * * * * * * * * * * * * * * * * * * * * * * * * * * * //

dimensions      [0 3 -1 0 0 0 0];
oriented        oriented;


internalField   nonuniform List<scalar> 
123680
(
1.19325e-07
1.19572e-07
-7.1013e-08
-7.10832e-08
0.00118432
-0.00118442
-1.19696e-06
-1.196e-07
-4.86486e-08
0.0011323
-2.34309e-07
1.24128e-06
2.72158e-07
9.11204e-07
-2.12673e-07
2.66437e-07
-8.52986e-07
-0.00113233
-1.19152e-06
-1.19662e-07
-4.85518e-08
0.00113194
-2.34326e-07
1.23578e-06
2.72163e-07
9.11055e-07
-2.1537e-07
2.6916e-07
-8.52874e-07
-0.00113196
1.22559e-06
1.19164e-06
-1.98281e-07
-2.0357e-07
0.000268069
-0.000270085
-0.00027009
1.22518e-06
1.19123e-06
-1.98091e-07
-2.03378e-07
0.000268075
1.23099e-06
1.19432e-06
-1.95692e-07
-2.03545e-07
0.000268076
-0.000270102
-1.27509e-06
-1.23853e-06
-0.00026808
2.39201e-07
2.47055e-07
0.000270107
-4.8466e-08
0.00113147
-2.39857e-07
1.27518e-06
2.77512e-07
9.11156e-07
-2.12691e-07
2.66387e-07
-8.53017e-07
-0.00113149
-1.23647e-06
-1.19258e-07
-4.8479e-08
0.00113191
-2.42689e-07
1.28069e-06
2.80361e-07
9.16673e-07
-2.15523e-07
2.6914e-07
-8.58546e-07
-0.00113194
-1.21376e-07
-0.00113142
-4.93024e-08
-1.23068e-06
2.7742e-07
-2.39666e-07
-8.52689e-07
2.66337e-07
-2.12465e-07
9.11159e-07
0.00113139
1.28059e-06
-1.21324e-07
-0.00113186
-4.93243e-08
-1.23615e-06
2.80265e-07
-2.42494e-07
-8.58222e-07
2.69093e-07
-2.1531e-07
9.16675e-07
0.00113184
-1.98396e-07
-2.00851e-07
0.000268097
-0.000270131
-1.24119e-06
-0.000268101
2.41982e-07
2.44315e-07
0.000270136
-4.86449e-08
0.00113258
-2.3718e-07
1.23862e-06
2.7505e-07
9.1395e-07
-2.15474e-07
2.69213e-07
-8.55705e-07
-0.0011326
-1.23103e-06
-1.19201e-07
-4.84916e-08
0.00113157
-2.42693e-07
1.27525e-06
2.8037e-07
9.13795e-07
-2.15455e-07
2.69078e-07
-8.55712e-07
-0.0011316
-1.21639e-07
-0.00113253
-4.94462e-08
-1.194e-06
2.74966e-07
-2.36978e-07
-8.55404e-07
2.69163e-07
-2.15248e-07
9.13971e-07
0.0011325
1.27515e-06
-1.21256e-07
-0.00113152
-4.93378e-08
-1.23071e-06
2.80274e-07
-2.42492e-07
-8.55398e-07
2.69039e-07
-2.15235e-07
9.13803e-07
0.0011315
-1.19363e-07
-4.84567e-08
0.00113136
-2.37056e-07
1.26978e-06
2.74745e-07
9.11159e-07
-2.12682e-07
2.66371e-07
-8.53039e-07
-0.00113139
-1.21646e-07
-0.00113225
-4.9474e-08
-1.19664e-06
2.72069e-07
-2.341e-07
-8.52685e-07
2.66393e-07
9.11208e-07
-2.12459e-07
0.00113223
1.26967e-06
0.00113129
-1.21393e-07
-0.00113131
-4.93159e-08
-1.22527e-06
2.74647e-07
-2.36844e-07
-8.52716e-07
2.66318e-07
-2.12461e-07
9.13825e-07
-1.95792e-07
-2.03411e-07
0.000268056
-0.000270079
-1.23569e-06
-0.00026806
2.39309e-07
2.46888e-07
0.000270085
-1.19671e-07
-4.86296e-08
0.00113247
-2.34412e-07
1.23592e-06
2.72284e-07
9.11343e-07
-2.15429e-07
2.69203e-07
-8.53074e-07
-0.0011325
-1.21716e-07
-0.00113189
-4.93934e-08
-1.1912e-06
2.72071e-07
-2.34134e-07
-8.52504e-07
2.69093e-07
9.11127e-07
-2.15173e-07
0.00113186
1.23582e-06
0.0011324
-1.21716e-07
-0.00113242
-4.94569e-08
-1.19131e-06
2.7219e-07
-2.34215e-07
-8.52767e-07
2.69145e-07
-2.15207e-07
9.11356e-07
-0.000268073
2.4176e-07
2.47064e-07
-4.96037e-08
-2.36805e-07
1.26966e-06
2.74622e-07
9.13813e-07
-2.12393e-07
2.66298e-07
-8.55282e-07
-1.22063e-07
-2.34164e-07
1.2358e-06
2.72158e-07
-2.15133e-07
2.69146e-07
-1.22415e-07
-4.97438e-08
9.11352e-07
-8.52667e-07
-1.08354e-10
-7.01799e-08
0.000229293
3.21331e-08
2.15171e-09
-0.000229257
-5.20482e-09
2.2434e-08
0.000193525
-3.56832e-09
-0.000193538
6.82137e-09
-4.36774e-08
0.000193578
3.32345e-09
-0.000193545
1.37671e-10
2.87287e-08
0.000229238
-1.32104e-08
8.91122e-10
-0.000229254
5.14485e-09
1.11981e-08
9.79803e-05
-9.79966e-05
-6.77346e-09
-2.00558e-08
9.80176e-05
-9.79908e-05
-7.02473e-08
-2.23831e-10
0.000229322
2.17776e-09
3.0069e-08
-0.000229284
-5.13939e-09
2.47135e-08
0.000193546
-4.1892e-09
-0.000193561
6.83445e-09
-4.5949e-08
0.000193601
3.88127e-09
-0.000193565
2.88237e-08
2.1458e-10
0.000229264
9.01055e-10
-1.11536e-08
-0.000229283
-7.10373e-08
-7.10293e-08
0.00118432
-0.00118441
-7.11275e-08
-7.10117e-08
0.0011839
-0.001184
-7.11357e-08
-7.11768e-08
0.00118413
-0.00118423
-0.00118413
-7.34908e-08
-7.3559e-08
0.00118404
-0.00118413
-7.35191e-08
-7.35106e-08
0.00118403
-0.00118371
-7.35996e-08
-7.34895e-08
0.00118361
-0.00118394
-7.36119e-08
-7.36588e-08
0.00118384
7.01721e-08
-1.6755e-09
0.000250197
4.0516e-09
-1.93102e-07
-0.000250076
-9.71859e-09
-2.46646e-08
6.64301e-08
0.0002454
4.05e-09
-0.000245437
0.00115244
3.5881e-09
-1.40078e-07
1.00835e-06
-7.57668e-07
8.30681e-07
-9.36857e-07
-0.00115249
-4.89344e-08
1.24125e-06
0.00113228
-1.20306e-07
-8.52854e-07
2.66423e-07
-2.1259e-07
9.11194e-07
-1.19684e-06
2.72132e-07
-2.34222e-07
2.07329e-08
4.59084e-08
0.000245475
-1.66808e-08
-0.000245419
-1.05037e-07
-3.74134e-09
0.00115239
-1.41578e-07
-9.36614e-07
8.30776e-07
-7.57441e-07
1.00844e-06
-2.8739e-08
1.60226e-09
0.000250063
1.9485e-09
1.32627e-07
-0.000250171
5.18505e-09
1.34438e-08
9.79616e-05
-9.79802e-05
-6.8154e-09
-2.22886e-08
9.80012e-05
-9.79721e-05
-1.31398e-09
7.00895e-08
0.000250159
-1.93022e-07
4.06444e-09
-0.000250039
0.00115213
3.67098e-09
-1.4016e-07
1.00277e-06
-7.52164e-07
8.25173e-07
-9.31269e-07
-0.00115219
-9.85965e-09
-2.24957e-08
6.65118e-08
0.000245343
4.15097e-09
-0.000245382
-4.88377e-08
1.23575e-06
0.00113191
-1.20372e-07
-8.52702e-07
2.69118e-07
-2.15306e-07
9.11127e-07
-1.1914e-06
2.7213e-07
-2.34255e-07
-3.5717e-09
0.00115208
-1.4167e-07
-9.31027e-07
8.25257e-07
-7.5192e-07
1.00285e-06
2.08423e-08
4.37522e-08
0.00024542
-1.67393e-08
-0.000245363
-1.05144e-07
1.30073e-09
-2.86887e-08
0.000250026
1.32576e-07
1.8761e-09
-0.000250133
1.23104e-08
-1.11462e-08
2.48087e-08
0.000278126
-7.05529e-09
-0.000278145
1.2309e-08
-1.11107e-08
2.25196e-08
0.000278073
-7.54086e-09
-0.000278089
-1.26975e-06
-1.23589e-06
0.000270087
-0.00026807
2.41892e-07
2.47191e-07
-2.31301e-08
2.00282e-08
0.000278195
9.894e-09
-0.000278151
-5.10009e-08
-2.32466e-08
1.99337e-08
0.00027814
1.05357e-08
-0.000278099
-4.86896e-08
-0.000278246
1.21897e-08
-1.12784e-08
2.48799e-08
-6.89737e-09
0.000278227
-0.000278191
1.22126e-08
-1.1223e-08
2.25805e-08
-7.41859e-09
0.000278174
1.10954e-08
9.79783e-05
-9.79946e-05
-1.99692e-08
9.80156e-05
-9.79888e-05
1.11762e-08
9.79775e-05
-9.79938e-05
-1.99629e-08
9.80148e-05
-9.7988e-05
9.91999e-09
2.25125e-08
0.000278124
-7.53946e-09
-0.000278138
1.2273e-08
2.25539e-08
0.00027808
-7.49204e-09
-0.000278097
0.000270104
-1.27516e-06
-1.2386e-06
-0.000268077
2.39328e-07
2.47181e-07
0.000278188
-2.07815e-08
1.03911e-08
-0.000278149
-4.86979e-08
0.000278147
-2.32572e-08
1.05566e-08
-0.000278106
-4.87204e-08
-1.98552e-08
-6.87374e-09
-9.80097e-05
9.80365e-05
1.11556e-08
5.14144e-09
9.79993e-05
-1.9858e-08
-6.87614e-09
-9.80089e-05
9.80356e-05
1.12331e-08
5.07902e-09
9.79985e-05
1.23076e-06
1.19408e-06
0.000268078
-1.95574e-07
-2.0343e-07
-2.07938e-08
-4.85847e-08
-0.0002782
1.04459e-08
0.000278239
-2.32636e-08
-4.86122e-08
-0.000278156
1.05986e-08
0.000278198
9.85935e-09
-7.46278e-09
2.25357e-08
0.000278175
1.22288e-08
-7.43214e-09
2.25745e-08
0.000278131
-7.0199e-08
0.00022933
3.21433e-08
2.22505e-09
-0.000229294
2.25626e-08
0.00019356
-3.72198e-09
-0.000193573
-4.37834e-08
0.000193613
3.44562e-09
-0.000193579
2.87607e-08
0.000229274
-1.3231e-08
8.69964e-10
-0.000229291
-1.42013e-09
0.000250172
3.59029e-09
-1.95706e-07
-0.000250048
6.40892e-08
0.000245344
4.21078e-09
-0.00024538
0.00115252
3.62623e-09
-1.39977e-07
1.00837e-06
-7.5767e-07
8.30677e-07
-9.36842e-07
-0.00115257
-4.87557e-08
0.00113144
-1.20036e-07
-1.23087e-06
2.77478e-07
-2.39789e-07
-8.52891e-07
2.66372e-07
-2.12609e-07
9.11169e-07
0.000245418
-1.67351e-08
-0.000245363
-1.02657e-07
-3.62411e-09
0.00115247
-1.41489e-07
-9.36592e-07
8.30771e-07
-7.57422e-07
1.00844e-06
1.4566e-09
0.000250035
2.30446e-09
1.35217e-07
-0.000250145
0.000250199
4.56912e-09
-1.95729e-07
-0.00025008
-1.22633e-08
6.65849e-08
0.000245357
4.14944e-09
-0.000245393
0.00115267
-1.3994e-07
1.01127e-06
-7.57795e-07
8.30774e-07
-9.39747e-07
-0.00115272
-4.87768e-08
0.00113189
1.28066e-06
-1.19972e-07
-8.58419e-07
2.69125e-07
9.16682e-07
-2.1544e-07
-1.23635e-06
2.8033e-07
-2.42621e-07
0.000245431
2.31071e-08
-1.66712e-08
-0.000245376
-1.05122e-07
0.00115261
-1.41449e-07
-9.39511e-07
8.30868e-07
-7.57542e-07
1.01135e-06
0.000250066
1.38199e-09
1.35267e-07
-0.000250173
1.34724e-10
2.86373e-08
-1.31909e-08
9.07105e-10
0.000229277
-4.36075e-08
-0.000193584
3.25477e-09
0.000193618
2.2449e-08
-3.64199e-09
0.000193564
-1.08571e-10
-7.01533e-08
-0.000229296
3.20877e-08
2.16486e-09
0.000229332
2.86682e-08
-1.32102e-08
8.79456e-10
0.000229313
-4.37054e-08
6.81818e-09
-0.000193619
3.38271e-09
0.000193653
2.25729e-08
-5.08395e-09
-3.79148e-09
0.000193599
-7.01722e-08
-0.000229333
3.21075e-08
2.23079e-09
0.000229369
1.45223e-09
2.32923e-09
1.34956e-07
0.000250061
-4.90717e-08
-1.20782e-07
1.27513e-06
-2.39716e-07
2.77459e-07
9.11167e-07
-2.12529e-07
2.66359e-07
-8.52785e-07
-1.02569e-07
-0.000245401
-1.67481e-08
0.000245456
-0.00115241
-3.60912e-09
-1.44416e-07
-9.36183e-07
8.30931e-07
-7.56948e-07
1.00856e-06
0.00115236
4.15298e-09
6.40302e-08
0.000245382
3.64084e-09
-1.43034e-07
1.00849e-06
-7.57181e-07
-9.36403e-07
8.30847e-07
-1.42375e-09
-0.000250075
3.60357e-09
-1.95734e-07
0.000250198
1.39704e-09
1.35007e-07
0.000250093
-4.90715e-08
-1.23624e-06
-1.20728e-07
9.16686e-07
-2.15359e-07
-8.58316e-07
2.69114e-07
1.28063e-06
-2.42552e-07
2.80307e-07
2.31219e-08
-1.05036e-07
-0.000245414
-1.66819e-08
0.000245469
-0.00115257
-1.44378e-07
-9.39085e-07
8.31026e-07
-7.57069e-07
1.01147e-06
0.00115251
-1.2205e-08
4.09072e-09
6.65232e-08
0.000245395
-1.43005e-07
1.01141e-06
-7.57305e-07
-9.393e-07
8.30942e-07
-0.000250106
4.57575e-09
-1.95756e-07
0.000250226
2.25973e-08
0.00027807
-1.01347e-08
-0.000278084
-1.3479e-08
2.24624e-08
0.000278174
-1.00675e-08
-0.000278182
0.000270133
-0.000268098
2.42108e-07
2.44444e-07
0.000278134
1.29721e-08
-0.000278095
-4.87669e-08
2.22422e-08
0.000278233
1.31331e-08
-0.000278199
-4.85916e-08
5.11543e-09
9.79829e-05
-9.80015e-05
9.80225e-05
-6.83924e-09
-9.79934e-05
-1.99495e-08
-9.80117e-05
9.80385e-05
1.12561e-08
9.80013e-05
1.19673e-06
0.000268099
-1.98286e-07
-2.00735e-07
-4.86549e-08
-0.000278146
1.30244e-08
0.000278185
2.21353e-08
-2.07394e-08
-4.84814e-08
-0.00027825
1.31762e-08
0.000278284
-1.00662e-08
2.26214e-08
0.000278121
-1.35371e-08
9.66716e-09
-1.00016e-08
2.24846e-08
0.000278224
-6.8841e-09
-9.80144e-05
9.80434e-05
5.05675e-09
9.80039e-05
-1.79196e-09
0.000250185
4.05444e-09
-1.90543e-07
-0.000250067
6.41084e-08
0.000245359
4.10223e-09
-0.00024539
0.00115239
3.63001e-09
-1.39966e-07
1.00832e-06
-7.55001e-07
8.30724e-07
-9.3414e-07
-0.00115245
-4.88978e-08
0.00113255
-1.20289e-07
-1.19419e-06
2.75026e-07
-2.37103e-07
-8.55594e-07
2.69201e-07
-2.15388e-07
9.13959e-07
0.000245428
-1.67065e-08
-0.000245378
-1.02694e-07
-3.7423e-09
0.00115235
-1.4154e-07
-9.36605e-07
8.28089e-07
-7.57473e-07
1.00571e-06
1.76694e-09
0.000250053
1.89953e-09
1.3009e-07
-0.000250158
-7.02301e-08
0.000229286
3.00454e-08
2.06324e-09
-0.000229248
2.46806e-08
0.000193492
-3.72867e-09
-0.000193508
-4.58922e-08
0.000193548
3.4651e-09
-0.000193512
2.8821e-08
0.000229228
-1.11474e-08
1.00327e-09
-0.000229247
0.000250153
-1.93132e-07
4.24709e-09
-0.000250037
0.00115236
-1.39925e-07
1.00836e-06
-7.5777e-07
8.30736e-07
-9.36878e-07
-0.00115241
-1.22227e-08
6.40856e-08
0.000245291
6.54101e-09
-0.000245324
-4.87989e-08
0.00113154
1.27522e-06
-1.19907e-07
-8.5559e-07
2.69062e-07
9.13805e-07
-2.15371e-07
-1.2309e-06
2.80336e-07
-2.42603e-07
0.00115231
-1.4144e-07
-9.3665e-07
8.30823e-07
-7.57522e-07
1.00844e-06
0.000245362
2.307e-08
-1.90603e-08
-0.00024531
-1.026e-07
0.000250023
1.32699e-07
1.66803e-09
-0.000250127
2.87372e-08
2.19523e-10
9.10691e-10
-1.11435e-08
0.000229303
-4.58702e-08
-0.000193605
3.816e-09
0.00019364
2.47246e-08
-4.25735e-09
0.000193585
-7.02223e-08
-2.19907e-10
-0.000229323
2.185e-09
3.00279e-08
0.000229361
1.7644e-09
1.92511e-09
1.29828e-07
0.00025008
-4.92411e-08
-1.21025e-07
1.23857e-06
-2.37038e-07
2.74998e-07
9.13973e-07
-2.15312e-07
2.69185e-07
-8.55489e-07
-1.02605e-07
-0.000245416
-1.67165e-08
0.000245466
-0.00115229
-3.74256e-09
-1.44464e-07
-9.36191e-07
8.28252e-07
-7.57009e-07
1.00583e-06
0.00115224
4.05433e-09
6.40496e-08
0.000245397
3.62723e-09
-1.43025e-07
1.00847e-06
-7.54514e-07
-9.33699e-07
8.3089e-07
-1.79326e-09
-0.000250093
4.06582e-09
-1.90576e-07
0.000250211
2.87298e-08
-1.11259e-08
1.01935e-09
0.000229267
-4.58046e-08
6.85388e-09
-0.000193552
3.40025e-09
0.000193588
2.46875e-08
-5.1222e-09
-3.79821e-09
0.000193532
-7.02046e-08
-0.000229287
3.00083e-08
2.07352e-09
0.000229325
1.32439e-07
1.68607e-09
0.00025005
-4.90872e-08
-1.2308e-06
-1.20657e-07
9.13814e-07
-2.15286e-07
-8.55494e-07
2.69049e-07
1.27518e-06
-2.42548e-07
2.80311e-07
-0.00115226
-1.4436e-07
-9.36233e-07
8.30984e-07
-7.57059e-07
1.00856e-06
0.0011522
2.30879e-08
-1.02517e-07
-0.000245348
-1.90665e-08
0.0002454
-1.42981e-07
1.00851e-06
-7.57285e-07
-9.36446e-07
8.30901e-07
-1.21678e-08
6.48817e-09
6.40205e-08
0.000245329
-0.000250063
-1.93162e-07
4.25482e-09
0.00025018
-1.82292e-10
0.000229328
2.20537e-09
3.21303e-08
-0.000229292
0.000193557
-3.80954e-09
-0.000193572
0.000193612
3.46545e-09
-0.000193577
1.174e-10
0.000229272
9.265e-10
-1.32193e-08
-0.000229289
7.01494e-08
0.000250166
-1.90511e-07
4.26823e-09
-0.000250052
0.00115237
-1.40072e-07
1.00567e-06
-7.57725e-07
8.30727e-07
-9.34131e-07
-0.00115242
-2.2477e-08
6.40853e-08
0.000245337
4.22659e-09
-0.000245371
-4.87624e-08
0.00113134
-1.20066e-07
-1.22547e-06
2.74716e-07
-2.3697e-07
-8.52912e-07
2.66352e-07
-2.12604e-07
9.11166e-07
0.00115231
-1.41569e-07
-9.33895e-07
8.30815e-07
-7.57478e-07
1.00574e-06
4.37279e-08
0.000245409
-1.67102e-08
-0.000245356
-1.02643e-07
-2.87326e-08
0.000250039
1.30063e-07
1.59602e-09
-0.00025014
0.000229292
3.2116e-08
2.18021e-09
-0.000229256
-5.16861e-09
0.000193506
-3.64571e-09
-0.000193519
0.000193559
6.76426e-09
3.45215e-09
-0.000193525
0.000229237
-1.32157e-08
8.19588e-10
-0.000229253
-2.86656e-08
1.5872e-09
1.96176e-09
1.32388e-07
0.00025009
-4.92469e-08
-1.21036e-07
1.24122e-06
-2.34158e-07
2.72107e-07
9.1121e-07
-2.12508e-07
-8.52774e-07
2.66416e-07
4.58281e-08
-1.04949e-07
-0.000245458
-1.66881e-08
0.000245513
-0.00115233
-4.91182e-09
-1.44501e-07
-9.36202e-07
8.30942e-07
1.00857e-06
-7.56976e-07
0.00115229
-2.46824e-08
4.00275e-09
6.63722e-08
0.000245439
3.44912e-09
-1.43118e-07
1.0085e-06
-7.5721e-07
-9.36414e-07
8.30857e-07
7.01468e-08
-1.98278e-09
-0.000250103
4.30743e-09
-1.93134e-07
0.000250224
1.16258e-10
9.34153e-10
-1.32081e-08
0.000229311
-0.000193616
3.39779e-09
0.000193652
-3.87674e-09
0.000193596
-2.40488e-10
-0.000229331
2.20972e-09
3.20916e-08
0.000229367
-2.86478e-08
1.29803e-07
1.61498e-09
0.000250065
-4.90622e-08
-1.22536e-06
-1.20811e-07
9.11173e-07
-2.12522e-07
-8.52806e-07
2.66342e-07
1.26972e-06
-2.36909e-07
2.74688e-07
-0.00115226
0.0011522
-1.44486e-07
-9.33493e-07
8.30969e-07
-7.57009e-07
1.00858e-06
4.36446e-08
2.31462e-08
0.000245447
-1.02553e-07
-0.000245394
-1.67224e-08
-1.43118e-07
1.0058e-06
-7.57241e-07
-9.33695e-07
8.30892e-07
-2.24901e-08
-1.22499e-08
4.16707e-09
6.40275e-08
0.000245375
7.01219e-08
0.000250192
-0.000250078
-1.90536e-07
4.52136e-09
-1.31976e-08
8.3585e-10
0.000229276
6.81305e-09
0.000193599
-0.000193565
3.38001e-09
-5.10425e-09
-3.72168e-09
0.000193545
0.000229331
-0.000229295
3.20778e-08
2.19524e-09
2.47804e-08
0.000278034
-7.15098e-09
-0.00027805
-1.11794e-08
2.47999e-08
0.000278132
-6.91509e-09
-0.000278148
0.000270082
-0.000268057
2.39436e-07
2.47015e-07
0.000278101
1.00285e-08
-0.000278059
-5.09448e-08
1.99811e-08
0.000278199
9.96528e-09
-0.000278157
-5.09793e-08
5.13906e-09
9.79718e-05
-9.79881e-05
9.80091e-05
-6.82285e-09
-9.79823e-05
-2.21884e-08
-9.7993e-05
9.80221e-05
1.35013e-08
9.79826e-05
1.19129e-06
0.000268059
-1.95673e-07
-2.03302e-07
-5.08376e-08
-0.00027811
1.00763e-08
0.000278151
1.9879e-08
-2.08655e-08
-5.08704e-08
-0.000278208
1.00185e-08
0.000278249
-7.08585e-09
2.48016e-08
0.000278084
-1.12402e-08
9.80133e-09
-6.84471e-09
2.48266e-08
0.000278182
-6.86233e-09
-9.80032e-05
9.803e-05
5.07596e-09
9.79928e-05
7.013e-08
0.000250185
-1.90478e-07
4.75993e-09
-0.00025007
0.00115226
-1.40144e-07
1.00566e-06
-7.55012e-07
8.28015e-07
-9.34134e-07
-0.00115231
-2.24652e-08
6.6493e-08
0.000245352
4.1895e-09
-0.000245388
-4.89251e-08
0.00113245
-1.20371e-07
-1.19151e-06
2.72255e-07
-2.34342e-07
-8.52956e-07
2.69189e-07
-2.15347e-07
9.11347e-07
0.00115221
-1.41642e-07
-9.33906e-07
8.28101e-07
-7.54768e-07
1.00574e-06
4.37477e-08
0.000245426
-1.67402e-08
-0.000245371
-1.05136e-07
-2.87346e-08
0.000250057
1.30041e-07
1.16344e-09
-0.000250158
-1.18103e-10
0.000229285
2.23464e-09
3.20798e-08
-0.000229249
0.000193509
-3.68091e-09
-0.000193523
0.000193563
3.39143e-09
-0.000193529
1.00711e-10
0.000229229
8.45382e-10
-1.31776e-08
-0.000229246
0.00022932
2.12584e-09
2.99657e-08
-0.000229282
-5.22519e-09
0.000193546
-3.53609e-09
-0.00019356
0.000193599
6.8827e-09
3.30543e-09
-0.000193566
0.000229263
9.28161e-10
-1.10836e-08
-0.000229281
1.30379e-09
-2.85842e-08
1.3231e-07
1.88845e-09
0.000250052
-4.91585e-08
-1.2111e-07
1.23572e-06
-2.34189e-07
2.72108e-07
9.1107e-07
-2.15203e-07
-8.5265e-07
2.69127e-07
-0.00115203
-3.5892e-09
-1.44595e-07
-9.30595e-07
8.25416e-07
1.00298e-06
-7.51452e-07
0.00115198
4.36649e-08
-1.05061e-07
-0.000245401
-1.67525e-08
0.000245458
3.65126e-09
-1.43219e-07
1.00292e-06
-7.51677e-07
-9.30823e-07
8.25333e-07
-2.25031e-08
4.0939e-09
6.64491e-08
0.000245382
-1.3099e-09
7.00441e-08
-0.000250066
-1.93045e-07
4.07605e-09
0.000250186
-2.86256e-08
1.29771e-07
1.18267e-09
0.000250084
-4.92092e-08
-1.1914e-06
-1.21125e-07
9.1136e-07
-2.15263e-07
-8.5286e-07
2.69183e-07
1.23586e-06
-2.34273e-07
2.72235e-07
-0.00115216
-1.44559e-07
-9.33499e-07
8.28259e-07
-7.54302e-07
1.00588e-06
0.0011521
4.36665e-08
2.32518e-08
0.000245464
-1.05042e-07
-0.000245409
-1.67549e-08
-1.43202e-07
1.00582e-06
-7.54524e-07
-9.33705e-07
8.28177e-07
-2.24735e-08
-1.2263e-08
4.14409e-09
6.64292e-08
0.00024539
7.00844e-08
-0.000250097
-1.90498e-07
4.77461e-09
0.000250211
1.07325e-10
8.41409e-10
-1.31548e-08
0.000229268
-0.000193569
3.3267e-09
0.000193602
-3.7484e-09
0.000193549
-1.17869e-10
-0.000229288
2.26243e-09
3.20173e-08
0.000229324
9.29808e-10
-1.10393e-08
0.000229302
6.92734e-09
0.000193639
-0.000193605
3.23459e-09
-5.16951e-09
-3.59351e-09
0.000193586
-0.000229322
2.14901e-09
2.99075e-08
0.000229359
9.79711e-05
-9.79874e-05
9.80084e-05
-9.79816e-05
9.79754e-05
-9.79917e-05
9.80127e-05
-9.79859e-05
0.000268072
-1.98165e-07
-2.03458e-07
1.9916e-08
-5.08832e-08
-0.000278202
9.94616e-09
1.98263e-08
-4.85787e-08
-0.000278149
1.05799e-08
-1.12073e-08
-6.97899e-09
2.48331e-08
0.000278177
-1.11653e-08
-7.47967e-09
2.25404e-08
0.000278124
9.80293e-05
-9.80026e-05
9.79921e-05
9.80336e-05
-9.80068e-05
9.79964e-05
1.00863e-06
-7.56807e-07
8.31003e-07
-9.36035e-07
3.03043e-10
-1.45918e-07
-2.25142e-08
6.39931e-08
4.10829e-09
0.000245413
-2.85791e-08
0.000250088
1.29585e-07
2.83888e-09
-1.45011e-10
-5.04113e-09
-3.79656e-09
0.000193585
0.000229315
-1.31978e-08
8.58117e-10
4.64638e-11
-2.24961e-08
6.63934e-08
0.000245428
4.09518e-09
-5.11656e-09
0.000193625
-3.65429e-09
9.8013e-05
9.80172e-05
-7.49145e-10
1.43956e-08
0.000143282
-3.30126e-10
-0.000143295
-0.000171014
-3.46654e-10
1.20783e-11
0.000171047
-0.000223249
3.09319e-08
4.33397e-09
0.000223285
-6.92062e-08
-1.31967e-08
8.95649e-10
-0.000229274
-1.05013e-11
2.86827e-08
-0.000171028
-5.50726e-12
8.06366e-10
-0.000223265
3.05398e-08
1.6166e-09
0.000143311
-2.65984e-08
-7.92065e-05
7.92347e-05
-1.59937e-09
3.36147e-09
0.000193558
6.79337e-09
-4.37103e-08
0.000263067
-1.9058e-08
-7.87312e-10
3.0629e-08
-0.000263082
0.000263108
-4.32274e-09
-5.92491e-08
3.56322e-10
-7.92259e-05
1.90777e-08
7.92153e-05
-0.000263093
2.65551e-08
0.000263134
-5.92081e-08
-3.60548e-09
-5.17201e-09
2.24389e-08
3.06296e-08
7.92435e-05
3.57212e-10
-3.0949e-08
-0.000143266
3.21508e-08
2.14851e-09
3.94943e-11
-7.01943e-08
0.000170996
7.37795e-10
6.15066e-12
-0.00017101
0.000223229
-1.44109e-08
3.05884e-08
-0.000223245
2.23761e-11
-6.92243e-08
-0.000143279
9.80071e-05
-6.74835e-09
-2.01076e-08
5.11188e-09
1.12276e-08
1.24253e-08
-7.34671e-10
0.000143351
-1.38041e-10
-0.000143363
-0.000223332
2.89397e-08
4.30276e-09
0.00022337
-6.93449e-08
-0.000171047
-3.28034e-10
-4.06801e-11
0.000171078
6.61456e-10
-1.11375e-08
-0.000229305
7.33489e-11
3.12036e-08
8.67793e-10
-0.000223353
3.31308e-08
-0.000171059
4.88284e-11
1.41272e-09
0.000143379
-2.4481e-08
-7.92523e-05
7.92782e-05
-1.39439e-09
3.9159e-09
0.000193581
6.80933e-09
-4.59814e-08
0.000263177
-1.69327e-08
-8.47605e-10
3.31729e-08
-0.000263197
0.000263222
-4.29059e-09
-6.18214e-08
1.63957e-10
-7.92694e-05
1.69533e-08
7.92611e-05
-0.000263203
2.44372e-08
0.000263248
-6.17758e-08
-4.22258e-09
-5.10901e-09
2.47174e-08
3.31741e-08
7.9287e-05
-2.89522e-08
3.38211e-10
-0.000143336
2.42094e-09
3.00806e-08
-7.78087e-11
-7.26912e-08
0.000223312
-1.24446e-08
3.07701e-08
-0.00022333
0.000171029
7.26861e-10
5.45399e-11
-0.00017104
-7.17706e-08
-3.70258e-11
-0.000143347
9.79907e-05
-6.7905e-09
-2.23397e-08
5.1538e-09
1.34703e-08
-6.97328e-09
-7.01263e-09
0.000213708
1.01431e-08
1.22076e-08
-0.000213717
-8.05258e-05
-1.23639e-08
-1.20039e-08
8.05502e-05
-8.05146e-05
-1.23023e-08
-1.20871e-08
8.0539e-05
9.47267e-09
-8.05423e-05
9.45651e-09
-8.0531e-05
-2.50153e-08
-2.72252e-08
0.000213736
-3.60512e-08
3.33768e-08
-0.000221862
0.000221899
2.50376e-08
-5.98906e-08
0.000250637
-1.58219e-08
5.86482e-08
2.95394e-08
-0.000250684
-5.10527e-08
9.8656e-09
0.00027817
2.00803e-08
-2.31214e-08
0.000182991
1.61494e-08
-9.49087e-09
-0.000183004
0.000250699
-9.74973e-08
-5.23225e-08
0.000183022
1.2e-08
-1.01459e-08
3.10786e-08
-0.000221882
-3.61765e-08
3.13899e-08
-0.000221801
0.000221839
2.72539e-08
-6.00903e-08
0.000250541
-1.58159e-08
6.35438e-08
2.95569e-08
-0.000250596
-4.87382e-08
1.05145e-08
0.000278115
1.99832e-08
-2.32422e-08
0.000182946
1.42242e-08
-9.46985e-09
-0.000182958
0.000250611
-1.02384e-07
-5.24478e-08
0.000182975
1.20871e-08
-1.22032e-08
3.13144e-08
-0.000221822
1.58016e-08
-1.61651e-08
0.000221879
3.10799e-08
-0.000183008
-3.33298e-08
0.000183039
2.48144e-08
-7.01492e-09
-1.11764e-08
1.22806e-08
-0.000250652
3.60431e-08
0.000250715
-9.7441e-08
-5.23263e-08
5.86226e-08
2.95124e-08
0.000221916
-5.98304e-08
1.58068e-08
-1.42375e-08
0.000221818
3.13114e-08
-0.000182963
-3.13453e-08
0.000182993
2.25286e-08
-7.50955e-09
-1.11372e-08
1.2286e-08
-0.000250557
3.61641e-08
0.000250626
-1.02328e-07
-5.24512e-08
6.35245e-08
2.95298e-08
0.000221856
-6.00328e-08
1.23889e-08
1.23238e-08
-0.000213689
8.05179e-05
6.96556e-09
-8.05343e-05
8.05066e-05
7.00929e-09
-8.05231e-05
-0.000213697
-0.00022193
-3.59954e-08
3.31802e-08
2.49295e-08
-5.96245e-08
-1.57823e-08
0.000250698
-0.000250745
5.86254e-08
2.94226e-08
1.62285e-08
0.000183061
-9.42178e-09
-0.000183074
-5.08281e-08
9.97522e-09
1.98592e-08
-2.3152e-08
-1.01624e-08
-0.00022195
3.1129e-08
-9.72535e-08
-5.23334e-08
1.20064e-08
-0.000221869
-3.61131e-08
3.12025e-08
2.71332e-08
-5.9833e-08
-1.57943e-08
0.000250602
-0.000250657
6.35155e-08
2.9454e-08
1.42989e-08
0.000183016
-9.42412e-09
-0.000183028
-4.85242e-08
1.06061e-08
1.9774e-08
-2.3264e-08
-1.22362e-08
-0.00022189
3.1357e-08
-1.02142e-07
-5.24641e-08
1.20827e-08
-0.000213766
1.22946e-08
1.22415e-08
7.00316e-09
8.05496e-05
-8.0566e-05
7.02732e-09
8.05383e-05
-8.05548e-05
-0.000213774
9.80051e-05
-2.00236e-08
1.1125e-08
9.80043e-05
-2.00132e-08
1.12032e-08
-6.97707e-09
-7.02731e-09
0.000213709
1.22288e-08
1.01308e-08
-0.000213717
-8.0526e-05
-1.23931e-08
-1.19891e-08
8.05504e-05
-8.05126e-05
-1.22887e-08
-1.21079e-08
8.0537e-05
9.47117e-09
-8.05425e-05
9.43887e-09
-8.0529e-05
-2.70819e-08
-2.51855e-08
0.000213736
3.1444e-08
-3.60731e-08
-0.000221862
0.0002219
2.71067e-08
-6.00904e-08
0.000250635
-1.58401e-08
6.36525e-08
2.69906e-08
-0.000250687
1.03624e-08
-4.8749e-08
0.000278163
-2.07737e-08
0.000182991
1.42194e-08
-9.4884e-09
-0.000183003
0.000183021
1.19842e-08
0.000250702
-1.02503e-07
-4.97782e-08
-1.22285e-08
3.12794e-08
-0.000221883
3.1397e-08
-3.62152e-08
-0.000221797
0.000221839
2.52127e-08
-6.22831e-08
0.000250544
-1.57989e-08
6.362e-08
3.20611e-08
-0.000250602
1.05314e-08
-4.87679e-08
0.000278122
-2.32499e-08
0.000182941
1.42461e-08
-9.45078e-09
-0.000182954
0.000182971
1.21059e-08
0.000250617
-1.02468e-07
-5.5002e-08
-1.01262e-08
3.35265e-08
-0.000221822
-1.42352e-08
0.000221879
1.58253e-08
3.12819e-08
-0.000183008
-3.1397e-08
0.000183038
-7.50013e-09
2.25231e-08
9.89046e-09
3.60633e-08
-0.00025065
0.000250718
-1.02447e-07
-4.97836e-08
0.000221917
-6.00317e-08
6.36339e-08
2.69597e-08
-1.42617e-08
0.000221814
1.57878e-08
3.35286e-08
-0.000182959
-3.13544e-08
0.000182989
-7.46156e-09
2.2561e-08
1.22518e-08
3.6205e-08
-0.000250559
0.000250632
-1.02417e-07
-5.50072e-08
0.000221856
-6.22253e-08
6.35972e-08
3.20355e-08
1.2419e-08
1.23104e-08
-0.000213689
8.05181e-05
6.96888e-09
-8.05345e-05
8.05046e-05
7.02269e-09
-8.05211e-05
-0.000213698
-9.8026e-05
1.11861e-08
5.1123e-09
-1.99167e-08
-6.84103e-09
-9.80252e-05
1.12608e-08
5.05248e-09
-1.99096e-08
-6.85473e-09
-0.000213728
1.23706e-08
1.22735e-08
-2.70591e-08
-2.51562e-08
0.000213755
6.98519e-09
8.0534e-05
9.45364e-09
7.02952e-09
8.05205e-05
9.42841e-09
1.22323e-08
1.01353e-08
-1.19916e-08
8.05583e-05
-1.21036e-08
8.05449e-05
-1.42769e-08
1.58086e-08
0.000221913
-0.000221934
-1.2238e-08
3.13084e-08
-0.000250681
3.6034e-08
-1.02321e-07
-4.97917e-08
0.000250748
-7.42679e-09
2.25598e-08
-0.000278214
9.83187e-09
-0.000183044
-3.12991e-08
1.19923e-08
0.000183073
-0.000183056
-9.43815e-09
-0.000250733
6.36264e-08
2.69023e-08
2.70299e-08
-5.9899e-08
0.000221951
-1.42989e-08
1.57748e-08
0.000221848
-0.000221873
-1.01445e-08
3.35526e-08
-0.00025059
3.61698e-08
-1.02293e-07
-5.50145e-08
0.000250662
-7.39773e-09
2.25937e-08
-0.000278173
1.22035e-08
-0.000182994
-3.12596e-08
1.21039e-08
0.000183024
-0.000183006
-9.41134e-09
-0.000250647
6.35871e-08
3.19832e-08
2.51252e-08
-6.20964e-08
0.00022189
-0.000221896
3.13532e-08
-3.60507e-08
-5.99686e-08
1.42514e-08
0.000183026
-1.5815e-08
0.000250665
6.3621e-08
2.69336e-08
1.04175e-08
-4.86459e-08
-2.07878e-08
3.12898e-08
-1.02388e-07
-4.97885e-08
-0.000221831
3.13093e-08
-3.61852e-08
-6.21638e-08
1.42805e-08
0.000182976
-1.57824e-08
0.000250575
6.35879e-08
3.20087e-08
1.05757e-08
-4.86678e-08
-2.32553e-08
3.35364e-08
-1.02354e-07
-5.50106e-08
-6.99208e-09
-7.0384e-09
0.000213747
-8.05419e-05
-1.23455e-08
8.05662e-05
-8.05284e-05
-1.2249e-08
8.05528e-05
0.000213775
-7.28477e-10
1.24208e-08
0.000143352
-1.37219e-10
-0.000143364
-0.000171049
-3.06541e-10
0.000171081
-0.000223333
2.89507e-08
4.36844e-09
0.000223374
-7.17605e-08
-1.32187e-08
6.50288e-10
-0.00022931
2.87139e-08
-0.000171063
8.09616e-10
-0.000223354
3.309e-08
1.43328e-09
0.000143379
-2.44665e-08
-7.9251e-05
7.92769e-05
-1.41849e-09
3.48021e-09
0.000193593
-4.38175e-08
0.000263174
-1.69395e-08
-7.91755e-10
3.31775e-08
-0.000263193
0.000263219
-4.35751e-09
-6.17921e-08
1.59005e-10
-7.92681e-05
1.69567e-08
7.92598e-05
-0.0002632
2.44258e-08
0.000263245
-6.17522e-08
-3.75835e-09
2.25645e-08
3.31744e-08
7.92856e-05
3.14274e-10
-2.89686e-08
-0.000143336
3.21625e-08
2.44484e-09
-7.02087e-08
0.00017103
7.21166e-10
-0.000171044
0.000223313
-1.24324e-08
3.31421e-08
-0.000223334
-7.17659e-08
-0.000143348
-0.000143297
3.38828e-10
-3.09071e-08
1.63286e-09
0.000143326
7.61261e-10
0.000171033
1.89599e-12
-1.43906e-08
0.000223269
8.22641e-10
3.0513e-08
3.21107e-08
2.16013e-09
0.000229313
3.66531e-11
-7.01716e-08
-3.07283e-10
0.000171065
2.01336e-11
4.34807e-09
0.000223306
-6.91879e-08
7.92328e-05
1.91186e-08
-7.92522e-05
2.81388e-10
-3.67551e-09
-0.000193598
2.24628e-08
2.64644e-08
-0.000263145
-4.36386e-09
-5.91111e-08
0.000263186
-1.64659e-09
7.92609e-05
-0.00026316
-8.42095e-10
3.06418e-08
-7.92241e-05
-2.65046e-08
-1.90995e-08
0.000263119
3.06317e-08
3.29245e-09
-4.36358e-08
-5.91591e-08
0.000143313
-7.74167e-10
1.43768e-08
-1.31773e-08
9.17704e-10
-1.4668e-11
2.85942e-08
-3.29667e-10
-0.000171051
8.90847e-12
0.000171084
3.08837e-08
-0.00022329
-6.91629e-08
0.000223326
0.000143342
-7.3224e-12
3.04745e-08
-0.000143368
3.00582e-10
-2.89261e-08
1.44751e-09
0.000143395
7.37632e-10
0.000171067
-1.24107e-08
0.000223354
8.26508e-10
3.30597e-08
3.2123e-08
2.4497e-09
0.000229349
-7.01864e-08
-1.14963e-10
0.0001711
4.38137e-09
0.000223394
-7.17363e-08
1.69885e-08
7.92773e-05
-7.92944e-05
9.50585e-11
-3.8247e-09
-0.000193633
-5.05396e-09
2.25822e-08
-0.000263252
2.43361e-08
-4.39379e-09
-6.16581e-08
0.000263297
-0.000263271
-8.45441e-10
3.31819e-08
-1.46211e-09
7.93031e-05
-7.92686e-05
-2.43773e-08
-1.69748e-08
0.000263226
3.31772e-08
3.41518e-09
6.79281e-09
-4.37433e-08
-6.17061e-08
-7.48059e-10
1.24006e-08
0.000143383
-1.32026e-08
6.64005e-10
2.86258e-08
-0.000171086
-2.92202e-10
0.000171118
-0.000223374
2.89052e-08
-7.17203e-08
0.000223414
3.30146e-08
0.000143411
-6.99072e-09
-7.0499e-09
0.000213715
1.2301e-08
1.01119e-08
-0.000213723
-8.0515e-05
-1.24031e-08
-1.19923e-08
8.05394e-05
-8.05286e-05
-1.23193e-08
-1.20744e-08
8.0553e-05
9.47039e-09
-8.05314e-05
9.4091e-09
-8.05451e-05
-2.71861e-08
-2.51428e-08
0.000213742
3.16804e-08
-3.85432e-08
-0.000221802