/*--------------------------------*- C++ -*----------------------------------*\
| =========                 |                                                 |
| \\      /  F ield         | OpenFOAM: The Open Source CFD Toolbox           |
|  \\    /   O peration     | Version:  v1906                                 |
|   \\  /    A nd           | Web:      www.OpenFOAM.com                      |
|    \\/     M anipulation  |                                                 |
\*---------------------------------------------------------------------------*/
FoamFile
{
    version     2.0;
    format      ascii;
    class       volVectorField;
    location    "550";
    object      U;
}
// * * * * * * * * * * * * * * * * * * * * * * * * * * * * * * * * * * * * * //

dimensions      [0 1 -1 0 0 0 0];


internalField   nonuniform List<vector> 
42840
(
(-9.59289e-06 -9.59054e-06 0.112516)
(1.11287e-05 -5.97317e-06 0.107501)
(-5.96798e-06 1.11393e-05 0.1075)
(-2.3994e-05 -2.39956e-05 0.104199)
(-2.38668e-05 -2.38695e-05 0.104201)
(2.3992e-05 2.39772e-05 0.104199)
(-4.16739e-05 -4.16825e-05 0.104316)
(-5.94774e-06 -1.11076e-05 0.107499)
(5.94736e-06 -1.11044e-05 0.107498)
(-6.04152e-06 -1.12236e-05 0.107492)
(6.042e-06 -1.12203e-05 0.107491)
(-2.39891e-05 2.39554e-05 0.104199)
(4.16767e-05 -4.16732e-05 0.104317)
(-1.11289e-05 -5.97695e-06 0.107501)
(-1.11019e-05 5.95675e-06 0.107498)
(-1.12444e-05 -6.07101e-06 0.107493)
(-1.12164e-05 6.05007e-06 0.107491)
(1.11103e-05 5.95026e-06 0.107499)
(1.12449e-05 -6.06931e-06 0.107494)
(1.12237e-05 6.04477e-06 0.107491)
(2.39652e-05 -2.40043e-05 0.104199)
(-4.16594e-05 4.16876e-05 0.104316)
(5.97795e-06 1.11407e-05 0.1075)
(-6.0626e-06 1.1254e-05 0.107493)
(6.07318e-06 1.1255e-05 0.107493)
(4.16821e-05 4.16676e-05 0.104316)
(1.1266e-05 6.07848e-06 0.107489)
(6.10592e-06 1.12969e-05 0.107491)
(-2.95823e-07 -1.66162e-05 0.0913964)
(7.18585e-07 7.1124e-06 0.0821931)
(-1.21506e-06 -1.20784e-05 0.0822528)
(-2.43617e-07 4.99966e-06 0.0913436)
(-2.6434e-06 4.33004e-06 0.0715116)
(3.28711e-06 -5.94289e-06 0.0715733)
(-1.6643e-05 -3.07641e-07 0.091396)
(7.13164e-06 6.56706e-07 0.0821923)
(-1.20929e-05 -1.18022e-06 0.0822533)
(5.03422e-06 -2.45425e-07 0.0913442)
(9.5962e-06 -9.58303e-06 0.112516)
(-9.58102e-06 9.60485e-06 0.112515)
(9.59692e-06 9.60382e-06 0.112515)
(-9.87048e-06 -9.86865e-06 0.112489)
(9.87372e-06 -9.86246e-06 0.112489)
(-9.85897e-06 9.88247e-06 0.112487)
(9.87515e-06 9.87959e-06 0.112488)
(2.72702e-05 -6.98138e-07 0.0985601)
(-8.74098e-06 3.11656e-06 0.0929748)
(1.39396e-05 -2.50923e-06 0.109933)
(1.11688e-05 -6.00378e-06 0.107499)
(2.0424e-05 -7.77539e-06 0.0930395)
(1.40393e-05 -2.52906e-06 0.109928)
(-8.14552e-06 -4.46523e-07 0.0984984)
(4.2669e-06 -2.60667e-06 0.071509)
(-5.88469e-06 3.256e-06 0.0715747)
(-7.01738e-07 2.72386e-05 0.0985602)
(-2.49938e-06 1.39495e-05 0.109932)
(3.15377e-06 -8.77922e-06 0.0929756)
(-5.99879e-06 1.11793e-05 0.107498)
(-2.5196e-06 1.40497e-05 0.109927)
(-7.79686e-06 2.04726e-05 0.0930392)
(-4.2738e-07 -8.12197e-06 0.0984984)
(-3.53409e-06 -3.53229e-06 0.0875181)
(-3.5291e-06 -3.53189e-06 0.0875167)
(4.17406e-05 4.17264e-05 0.104315)
(9.95799e-06 6.90161e-06 0.0875759)
(6.94416e-06 9.94178e-06 0.0875741)
(-3.57564e-06 -3.48626e-06 0.08755)
(-3.49266e-06 -3.57083e-06 0.0875487)
(2.66157e-06 4.29442e-06 0.0715127)
(-3.30226e-06 -5.91132e-06 0.0715738)
(4.31696e-06 2.6502e-06 0.0715117)
(-5.91709e-06 -3.33082e-06 0.0715733)
(3.52737e-06 3.5319e-06 0.087519)
(3.55022e-06 3.52345e-06 0.0875167)
(-4.17313e-05 -4.174e-05 0.104315)
(-6.90274e-06 -9.95488e-06 0.0875757)
(-9.95161e-06 -6.95365e-06 0.0875741)
(-3.32911e-06 -5.88223e-06 0.0715891)
(2.62813e-06 4.30572e-06 0.0715281)
(-5.88936e-06 -3.35535e-06 0.0715885)
(4.32778e-06 2.61934e-06 0.071527)
(2.39191e-05 2.39026e-05 0.1042)
(-6.91391e-06 -9.91846e-06 0.0875916)
(-9.91755e-06 -6.96197e-06 0.08759)
(3.50429e-06 3.55086e-06 0.087535)
(3.5682e-06 3.50424e-06 0.0875327)
(3.18828e-07 -1.66194e-05 0.0913962)
(-6.73181e-07 7.15933e-06 0.0821924)
(1.17565e-06 -1.21197e-05 0.0822522)
(2.39481e-07 5.00899e-06 0.0913435)
(-7.03959e-07 -2.72758e-05 0.0985602)
(3.17226e-06 8.74645e-06 0.0929753)
(-2.49769e-06 -1.39331e-05 0.109933)
(-5.97751e-06 -1.11477e-05 0.107497)
(-7.78026e-06 -2.04357e-05 0.0930382)
(-2.51764e-06 -1.40329e-05 0.109928)
(-3.98443e-07 8.14366e-06 0.0984983)
(7.05618e-07 -2.72774e-05 0.09856)
(-3.16037e-06 8.80352e-06 0.0929737)
(2.4985e-06 -1.39304e-05 0.109932)
(5.97843e-06 -1.11441e-05 0.107496)
(7.76715e-06 -2.04691e-05 0.0930379)
(2.51891e-06 -1.40291e-05 0.109927)
(4.20386e-07 8.15316e-06 0.098498)
(-2.43694e-07 4.98804e-06 0.0913592)
(-1.23694e-06 -1.20578e-05 0.0822696)
(6.97353e-07 7.12644e-06 0.08221)
(-2.96386e-07 -1.65977e-05 0.0914119)
(2.37016e-07 4.99678e-06 0.0913591)
(1.19148e-06 -1.2088e-05 0.082269)
(-6.5257e-07 7.17108e-06 0.0822093)
(3.17631e-07 -1.66003e-05 0.0914117)
(-4.00949e-07 8.09008e-06 0.0985087)
(-6.01402e-06 -1.11924e-05 0.107494)
(-7.78313e-06 -2.04111e-05 0.0930526)
(-2.55985e-06 -1.42234e-05 0.109918)
(3.15215e-06 8.74567e-06 0.0929897)
(-2.54109e-06 -1.41352e-05 0.109923)
(-7.08216e-07 -2.7279e-05 0.0985706)
(4.18876e-07 8.09983e-06 0.0985085)
(6.01457e-06 -1.11896e-05 0.107494)
(7.76925e-06 -2.04455e-05 0.0930523)
(2.56151e-06 -1.4219e-05 0.109917)
(-3.14027e-06 8.80152e-06 0.0929882)
(2.54099e-06 -1.41321e-05 0.109922)
(7.0634e-07 -2.728e-05 0.0985704)
(-3.51649e-06 3.53873e-06 0.0875164)
(-3.50368e-06 3.46885e-06 0.0875174)
(4.17351e-05 -4.17287e-05 0.104316)
(6.88769e-06 -9.95365e-06 0.0875745)
(9.89529e-06 -6.90232e-06 0.0875767)
(-4.27476e-06 2.57273e-06 0.0715095)
(5.87859e-06 -3.26507e-06 0.0715749)
(3.31257e-06 -5.91553e-06 0.0715885)
(-2.61174e-06 4.34117e-06 0.0715269)
(-2.39178e-05 2.38834e-05 0.1042)
(6.8977e-06 -9.91764e-06 0.0875904)
(9.85903e-06 -6.91058e-06 0.0875926)
(-3.49376e-06 3.55731e-06 0.0875324)
(-3.52147e-06 3.44881e-06 0.0875333)
(5.85045e-06 -3.29079e-06 0.0715901)
(-4.28609e-06 2.54237e-06 0.0715249)
(-2.72841e-05 -7.02748e-07 0.0985598)
(8.76449e-06 3.14636e-06 0.0929744)
(-1.39335e-05 -2.50883e-06 0.109933)
(-1.11692e-05 -6.00741e-06 0.107498)
(-2.04493e-05 -7.79758e-06 0.0930388)
(-1.40401e-05 -2.52753e-06 0.109927)
(8.16557e-06 -4.25508e-07 0.0984982)
(-1.66368e-05 2.74765e-07 0.0913959)
(7.11519e-06 -6.71049e-07 0.0821916)
(-1.20722e-05 1.169e-06 0.0822533)
(5.03319e-06 2.7691e-07 0.0913442)
(-2.72825e-05 6.88036e-07 0.0985598)
(-1.39301e-05 2.4967e-06 0.109932)
(8.76053e-06 -3.13512e-06 0.0929738)
(-1.11408e-05 5.98725e-06 0.107495)
(-1.40283e-05 2.51743e-06 0.109927)
(-2.04299e-05 7.74323e-06 0.0930386)
(8.16738e-06 4.2756e-07 0.0984983)
(5.02504e-06 -2.42392e-07 0.0913598)
(-1.20616e-05 -1.1958e-06 0.0822701)
(7.14136e-06 6.36149e-07 0.0822092)
(-1.66237e-05 -3.05389e-07 0.0914115)
(8.11146e-06 -4.26981e-07 0.0985087)
(-1.12133e-05 -6.04451e-06 0.107496)
(-2.0425e-05 -7.79768e-06 0.0930532)
(-1.42297e-05 -2.56987e-06 0.109917)
(8.76416e-06 3.13225e-06 0.0929889)
(-1.4135e-05 -2.55131e-06 0.109923)
(-2.72886e-05 -7.05563e-07 0.0985702)
(5.02122e-06 2.77339e-07 0.0913598)
(-1.20287e-05 1.18037e-06 0.0822701)
(7.12327e-06 -6.48819e-07 0.0822085)
(-1.66174e-05 2.75177e-07 0.0914114)
(8.11351e-06 4.26965e-07 0.0985087)
(-1.11864e-05 6.02345e-06 0.107493)
(-1.42174e-05 2.55884e-06 0.109917)
(-2.04071e-05 7.74508e-06 0.093053)
(-1.41311e-05 2.5393e-06 0.109922)
(8.75846e-06 -3.11665e-06 0.0929883)
(-2.72864e-05 6.89303e-07 0.0985702)
(1.66137e-05 -3.11291e-07 0.0913965)
(-7.11698e-06 6.38484e-07 0.082192)
(1.20838e-05 -1.17085e-06 0.0822535)
(-5.00404e-06 -2.61647e-07 0.0913438)
(2.72634e-05 6.96817e-07 0.09856)
(1.39378e-05 2.49311e-06 0.109932)
(-8.7559e-06 -3.17559e-06 0.0929751)
(1.11485e-05 5.9806e-06 0.107496)
(1.40363e-05 2.5152e-06 0.109927)
(2.0445e-05 7.76936e-06 0.0930386)
(-8.14509e-06 3.96966e-07 0.0984986)
(1.66079e-05 3.06898e-07 0.0913964)
(-7.13567e-06 -6.90474e-07 0.0821933)
(1.21056e-05 1.17097e-06 0.0822529)
(-5.00093e-06 2.1881e-07 0.0913438)
(-8.0964e-06 -4.46733e-07 0.0985089)
(1.12142e-05 -6.04208e-06 0.107496)
(2.03992e-05 -7.77367e-06 0.0930539)
(1.42291e-05 -2.57047e-06 0.109918)
(-8.74046e-06 3.10007e-06 0.0929893)
(1.4142e-05 -2.55268e-06 0.109923)
(2.72732e-05 -7.00061e-07 0.0985705)
(-4.997e-06 -2.59138e-07 0.0913594)
(1.20494e-05 -1.1866e-06 0.0822703)
(-7.13135e-06 6.18567e-07 0.082209)
(1.65932e-05 -3.08434e-07 0.091412)
(-8.09253e-06 3.93483e-07 0.098509)
(1.11945e-05 6.01717e-06 0.107494)
(1.42253e-05 2.55807e-06 0.109917)
(2.04199e-05 7.77252e-06 0.093053)
(1.41394e-05 2.53679e-06 0.109922)
(-8.75505e-06 -3.15546e-06 0.0929895)
(2.72659e-05 7.0027e-07 0.0985704)
(-4.99104e-06 2.18206e-07 0.0913594)
(1.20731e-05 1.18936e-06 0.0822697)
(-7.14814e-06 -6.68381e-07 0.0822102)
(1.65871e-05 3.08856e-07 0.0914119)
(3.5202e-06 -3.53194e-06 0.087515)
(3.50304e-06 -3.55337e-06 0.0875186)
(-4.17167e-05 4.17454e-05 0.104315)
(-9.93134e-06 6.90752e-06 0.0875749)
(-6.93117e-06 9.95979e-06 0.087576)
(2.63671e-06 -4.31571e-06 0.0715127)
(-3.31556e-06 5.91945e-06 0.071574)
(-5.85801e-06 3.2817e-06 0.0715899)
(4.27764e-06 -2.57528e-06 0.0715244)
(2.38931e-05 -2.39328e-05 0.1042)
(-9.89715e-06 6.91873e-06 0.0875908)
(-6.94304e-06 9.92476e-06 0.0875919)
(3.5376e-06 -3.51034e-06 0.087531)
(3.48039e-06 -3.57259e-06 0.0875345)
(-3.34166e-06 5.89275e-06 0.0715893)
(2.60492e-06 -4.3275e-06 0.071528)
(6.99716e-07 2.72444e-05 0.0985599)
(2.50689e-06 1.39487e-05 0.109932)
(-3.17532e-06 -8.76764e-06 0.0929745)
(6.0094e-06 1.11792e-05 0.107498)
(2.52809e-06 1.40457e-05 0.109927)
(7.80823e-06 2.04656e-05 0.0930386)
(4.1659e-07 -8.13212e-06 0.0984985)
(-3.09441e-07 1.65862e-05 0.091397)
(6.75077e-07 -7.13768e-06 0.0821938)
(-1.18893e-06 1.21057e-05 0.0822533)
(-2.52954e-07 -4.9906e-06 0.0913436)
(3.00961e-07 1.65985e-05 0.0913964)
(-7.30136e-07 -7.12021e-06 0.0821928)
(1.23188e-06 1.20993e-05 0.0822531)
(2.47051e-07 -5.00343e-06 0.091344)
(-4.25173e-07 -8.06427e-06 0.0985088)
(-6.03614e-06 1.12229e-05 0.107495)
(-2.56314e-06 1.42388e-05 0.109917)
(-7.80143e-06 2.04502e-05 0.0930536)
(-2.54417e-06 1.41503e-05 0.109922)
(3.13409e-06 -8.77787e-06 0.09299)
(-7.02786e-07 2.72368e-05 0.0985706)
(4.16386e-07 -8.07221e-06 0.0985089)
(6.04571e-06 1.12255e-05 0.107495)
(2.56809e-06 1.42345e-05 0.109917)
(7.80786e-06 2.04416e-05 0.093053)
(2.54818e-06 1.41495e-05 0.109922)
(-3.16091e-06 -8.76518e-06 0.092989)
(7.02772e-07 2.72425e-05 0.0985703)
(-2.45275e-07 -4.97376e-06 0.0913591)
(-1.20056e-06 1.20627e-05 0.0822702)
(6.53247e-07 -7.14591e-06 0.0822107)
(-3.13974e-07 1.65626e-05 0.0914127)
(2.43828e-07 -4.98557e-06 0.0913594)
(1.24869e-06 1.2066e-05 0.0822699)
(-7.12035e-07 -7.12992e-06 0.0822097)
(3.03968e-07 1.6573e-05 0.0914121)
(-4.31204e-06 -2.65019e-06 0.0715122)
(5.93124e-06 3.28645e-06 0.0715737)
(-2.66748e-06 -4.29962e-06 0.0715118)
(3.33706e-06 5.90849e-06 0.0715733)
(-2.39216e-05 -2.39236e-05 0.1042)
(9.92039e-06 6.91354e-06 0.0875918)
(6.95157e-06 9.90645e-06 0.0875899)
(-3.55238e-06 -3.50822e-06 0.0875341)
(-3.5111e-06 -3.54976e-06 0.0875327)
(5.90265e-06 3.31423e-06 0.0715889)
(-4.32408e-06 -2.61714e-06 0.0715275)
(3.36264e-06 5.88009e-06 0.0715886)
(-2.6387e-06 -4.30949e-06 0.0715272)
(1.43201e-05 2.57696e-06 0.109912)
(-8.7608e-06 -3.13399e-06 0.093004)
(-8.04901e-06 3.94609e-07 0.0985196)
(-7.15811e-06 -6.44855e-07 0.082227)
(-4.98084e-06 2.20383e-07 0.091375)
(-3.14376e-06 -8.76976e-06 0.0930035)
(-6.94719e-07 -7.14552e-06 0.0822266)
(-4.33779e-06 -2.58585e-06 0.0715428)
(-2.61091e-06 -4.32126e-06 0.0715425)
(-6.676e-07 4.21424e-06 0.076849)
(1.3697e-07 -7.43128e-06 0.0786692)
(-1.13714e-06 -1.59898e-05 0.0899177)
(-2.43257e-07 4.99231e-06 0.0913514)
(-1.83287e-07 3.83347e-06 0.078626)
(-5.15352e-07 5.48287e-06 0.0898672)
(5.40596e-07 -7.41474e-06 0.0768988)
(2.41151e-07 -6.05468e-06 0.0684401)
(-1.20436e-06 -1.20917e-05 0.0822444)
(-7.07174e-07 5.77876e-06 0.085787)
(-1.36024e-06 -1.23222e-05 0.0858444)
(-8.4483e-07 4.8415e-06 0.0683752)
(-8.61054e-07 4.84262e-06 0.0683828)
(-1.36821e-06 -1.23047e-05 0.0858528)
(7.07838e-07 7.11843e-06 0.0822016)
(-7.17864e-07 5.78634e-06 0.0857955)
(2.27385e-07 -6.0461e-06 0.0684476)
(5.48524e-07 -7.42107e-06 0.0768904)
(-2.97073e-07 -1.66282e-05 0.0913886)
(-1.81767e-07 3.83836e-06 0.0786175)
(-5.08922e-07 5.49056e-06 0.0898591)
(1.37899e-07 -7.43452e-06 0.0786607)
(-1.13407e-06 -1.59986e-05 0.0899097)
(-6.57962e-07 4.21865e-06 0.0768406)
(3.27315e-06 -5.95665e-06 0.0715656)
(-2.62668e-06 4.33522e-06 0.0715193)
(4.27151e-06 -6.72381e-07 0.0768516)
(-1.60341e-05 -1.13581e-06 0.0899173)
(-7.47122e-06 1.24981e-07 0.0786686)
(5.0259e-06 -2.43578e-07 0.091352)
(5.54444e-06 -5.28113e-07 0.0898678)
(3.87017e-06 -1.74779e-07 0.0786279)
(-7.46351e-06 5.46513e-07 0.0768985)
(-6.12442e-06 2.28926e-07 0.068437)
(-1.21072e-05 -1.17116e-06 0.0822449)
(5.83967e-06 -7.29179e-07 0.0857869)
(-1.23845e-05 -1.35153e-06 0.0858433)
(4.92144e-06 -8.24785e-07 0.0683759)
(4.92209e-06 -8.40921e-07 0.0683835)
(-1.23677e-05 -1.36004e-06 0.0858517)
(7.1373e-06 6.46426e-07 0.0822008)
(5.84729e-06 -7.39185e-07 0.0857954)
(-6.11539e-06 2.15284e-07 0.0684446)
(-7.46736e-06 5.556e-07 0.0768901)
(-1.66515e-05 -3.10425e-07 0.0913883)
(5.55353e-06 -5.21515e-07 0.0898596)
(3.87264e-06 -1.74921e-07 0.0786194)
(-1.60421e-05 -1.1334e-06 0.0899093)
(-7.47172e-06 1.23738e-07 0.0786601)
(4.27491e-06 -6.62555e-07 0.0768432)
(-5.898e-06 3.24253e-06 0.0715671)
(4.27154e-06 -2.59084e-06 0.0715167)
(-3.1081e-06 -3.12761e-06 0.0835873)
(3.62449e-06 5.13531e-06 0.0683537)
(5.16048e-06 3.60772e-06 0.0683477)
(-2.6292e-06 -4.09438e-06 0.0682977)
(-4.07864e-06 -2.64296e-06 0.0682918)
(7.28616e-06 7.25621e-06 0.0836338)
(1.68833e-05 1.02912e-05 0.0916921)
(-1.09971e-05 -5.57224e-06 0.0962498)
(9.9743e-06 6.89529e-06 0.087568)
(-3.80641e-06 -3.05562e-06 0.0815233)
(2.409e-05 1.42004e-05 0.0962986)
(8.1354e-06 3.98822e-06 0.0815754)
(-7.76338e-06 -3.79881e-06 0.0916442)
(1.03475e-05 1.68698e-05 0.0916855)
(-5.57615e-06 -1.09877e-05 0.0962469)
(6.93982e-06 9.9577e-06 0.0875661)
(-3.05946e-06 -3.83912e-06 0.0815188)
(1.42498e-05 2.40814e-05 0.096296)
(4.03763e-06 8.14226e-06 0.08157)
(-3.80166e-06 -7.78677e-06 0.0916376)
(-7.76916e-06 -3.79554e-06 0.0916512)
(8.11927e-06 3.99308e-06 0.0815832)
(-3.54215e-06 -3.51963e-06 0.0875261)
(2.40668e-05 1.41999e-05 0.0963044)
(-1.0997e-05 -5.56191e-06 0.0962557)
(-3.81433e-06 -3.04531e-06 0.0815311)
(1.68608e-05 1.02846e-05 0.0916991)
(-3.80185e-06 -7.79121e-06 0.0916446)
(4.04098e-06 8.12785e-06 0.0815778)
(-3.51972e-06 -3.54079e-06 0.0875247)
(1.42484e-05 2.40593e-05 0.0963018)
(-5.56776e-06 -1.09864e-05 0.0962528)
(-3.05097e-06 -3.84543e-06 0.0815267)
(1.03383e-05 1.68486e-05 0.0916925)
(7.2969e-06 7.26507e-06 0.0836263)
(-2.62676e-06 -4.09894e-06 0.0682909)
(-4.08111e-06 -2.64206e-06 0.0682851)
(3.63352e-06 5.13639e-06 0.068347)
(5.16363e-06 3.61544e-06 0.068341)
(-3.10463e-06 -3.12628e-06 0.0835798)
(1.6785e-05 1.0255e-05 0.0917201)
(-1.10116e-05 -5.53973e-06 0.0962734)
(-3.8404e-06 -3.01539e-06 0.0815545)
(9.89985e-06 6.9181e-06 0.0875997)
(-7.79808e-06 -3.7994e-06 0.0916723)
(2.39932e-05 1.41947e-05 0.096322)
(8.0676e-06 4.00473e-06 0.0816066)
(1.03071e-05 1.67762e-05 0.0917135)
(-5.54922e-06 -1.09976e-05 0.0962705)
(-3.03224e-06 -3.87582e-06 0.0815501)
(6.95889e-06 9.88749e-06 0.0875979)
(-3.80922e-06 -7.81561e-06 0.0916658)
(1.42419e-05 2.39868e-05 0.0963194)
(4.05e-06 8.07968e-06 0.0816011)
(7.25289e-06 7.22667e-06 0.0836563)
(-2.63821e-06 -4.08119e-06 0.0683179)
(-4.07017e-06 -2.64764e-06 0.068312)
(-3.12345e-06 -3.13753e-06 0.0836099)
(3.59824e-06 5.12945e-06 0.0683738)
(5.1515e-06 3.58491e-06 0.0683677)
(-3.28755e-06 -5.92523e-06 0.0715662)
(2.64469e-06 4.30013e-06 0.0715204)
(-5.93054e-06 -3.31755e-06 0.0715657)
(4.32223e-06 2.63467e-06 0.0715194)
(3.12955e-06 3.10772e-06 0.0835874)
(-5.12149e-06 -3.63589e-06 0.0683537)
(-3.60374e-06 -5.16891e-06 0.0683475)
(4.09048e-06 2.63237e-06 0.068298)
(2.64936e-06 4.07571e-06 0.0682917)
(-7.24794e-06 -7.29634e-06 0.0836338)
(-1.02999e-05 -1.69116e-05 0.0916922)
(5.57609e-06 1.10193e-05 0.0962501)
(-6.89668e-06 -9.97274e-06 0.0875678)
(3.05987e-06 3.83531e-06 0.0815244)
(-3.99308e-06 -8.16487e-06 0.0815753)
(-1.42064e-05 -2.41149e-05 0.0962988)
(3.80913e-06 7.79e-06 0.0916444)
(-1.68765e-05 -1.03628e-05 0.0916856)
(1.09952e-05 5.56332e-06 0.096247)
(-9.96774e-06 -6.94927e-06 0.0875662)
(3.84979e-06 3.04437e-06 0.0815186)
(-8.14267e-06 -4.044e-06 0.0815698)
(-2.4092e-05 -1.42587e-05 0.0962962)
(7.7994e-06 3.79768e-06 0.0916377)
(3.80726e-06 7.79582e-06 0.0916514)
(-3.99853e-06 -8.14951e-06 0.0815831)
(3.5155e-06 3.54129e-06 0.087527)
(-1.42058e-05 -2.40926e-05 0.0963046)
(3.04969e-06 3.84322e-06 0.0815322)
(-1.02918e-05 -1.68885e-05 0.0916992)
(5.56641e-06 1.10188e-05 0.096256)
(7.80479e-06 3.79804e-06 0.0916447)
(-8.13032e-06 -4.04935e-06 0.0815776)
(3.55857e-06 3.51418e-06 0.0875247)
(-2.40709e-05 -1.42581e-05 0.096302)
(3.85751e-06 3.03715e-06 0.0815265)
(-1.6854e-05 -1.03544e-05 0.0916925)
(1.09934e-05 5.5549e-06 0.0962528)
(-7.25725e-06 -7.30716e-06 0.0836263)
(4.09461e-06 2.62987e-06 0.0682912)
(2.6478e-06 4.07815e-06 0.0682849)
(-5.12251e-06 -3.64505e-06 0.068347)
(-3.61155e-06 -5.17175e-06 0.0683407)
(3.12741e-06 3.10415e-06 0.0835798)
(2.6128e-06 4.31202e-06 0.0715358)
(-3.31501e-06 -5.89728e-06 0.0715814)
(4.33376e-06 2.6049e-06 0.0715347)
(-5.90355e-06 -3.34346e-06 0.0715809)
(-7.23959e-06 -7.2856e-06 0.0836413)
(4.08576e-06 2.63526e-06 0.0683047)
(2.65088e-06 4.07209e-06 0.0682984)
(3.1314e-06 3.11135e-06 0.0835949)
(-5.11964e-06 -3.62706e-06 0.0683604)
(-3.5976e-06 -5.16561e-06 0.0683542)
(3.80783e-06 7.81198e-06 0.0916655)
(-1.42032e-05 -2.40441e-05 0.0963163)
(3.49313e-06 3.56168e-06 0.087543)
(-4.00728e-06 -8.11597e-06 0.0815987)
(3.03279e-06 3.86369e-06 0.0815479)
(5.55081e-06 1.10255e-05 0.0962678)
(-1.02739e-05 -1.68402e-05 0.0917132)
(7.81943e-06 3.80031e-06 0.0916588)
(-2.40238e-05 -1.42538e-05 0.0963137)
(3.57745e-06 3.49446e-06 0.0875407)
(-8.09781e-06 -4.05415e-06 0.0815932)
(3.87517e-06 3.0226e-06 0.0815421)
(1.09992e-05 5.54084e-06 0.0962646)
(-1.68079e-05 -1.03337e-05 0.0917065)
(-1.0285e-05 -1.68657e-05 0.0917062)
(3.04013e-06 3.85088e-06 0.08154)
(5.55914e-06 1.10207e-05 0.0962619)
(-6.90832e-06 -9.93923e-06 0.0875837)
(3.80701e-06 7.80238e-06 0.0916585)
(-4.00389e-06 -8.13465e-06 0.0815909)
(-1.42052e-05 -2.40696e-05 0.0963104)
(-1.68328e-05 -1.03443e-05 0.0916995)
(3.86898e-06 3.03235e-06 0.0815343)
(1.09954e-05 5.54848e-06 0.0962587)
(-9.93449e-06 -6.9583e-06 0.0875821)
(7.81057e-06 3.79872e-06 0.0916518)
(-8.11276e-06 -4.05023e-06 0.0815854)
(-2.40482e-05 -1.42557e-05 0.0963079)
(3.13566e-06 3.11599e-06 0.0836024)
(-5.11816e-06 -3.61857e-06 0.0683671)
(-3.5895e-06 -5.16335e-06 0.0683609)
(4.08097e-06 2.63758e-06 0.0683115)
(2.65339e-06 4.06865e-06 0.0683051)
(-7.22933e-06 -7.27437e-06 0.0836488)
(6.66735e-07 4.27062e-06 0.0768506)
(-1.19032e-07 -7.43332e-06 0.0786691)
(1.15535e-06 -1.60331e-05 0.089917)
(2.38559e-07 5.0025e-06 0.0913513)
(1.78759e-07 3.84012e-06 0.0786262)
(5.11215e-07 5.53405e-06 0.0898671)
(-5.31289e-07 -7.46966e-06 0.076898)
(-2.19617e-07 -6.12366e-06 0.0684364)
(1.16628e-06 -1.21345e-05 0.0822438)
(7.23223e-07 5.83849e-06 0.0857863)
(1.3574e-06 -1.23766e-05 0.0858426)
(8.30587e-07 4.92212e-06 0.0683752)
(8.46185e-07 4.92279e-06 0.0683828)
(1.3646e-06 -1.23604e-05 0.085851)
(-6.6195e-07 7.16345e-06 0.0822009)
(7.33106e-07 5.84453e-06 0.0857948)
(-2.0702e-07 -6.11512e-06 0.0684439)
(-5.37991e-07 -7.47573e-06 0.0768896)
(3.21161e-07 -1.66315e-05 0.0913885)
(1.79081e-07 3.84468e-06 0.0786176)
(5.05648e-07 5.54165e-06 0.089859)
(-1.18783e-07 -7.43674e-06 0.0786606)
(1.15285e-06 -1.60427e-05 0.089909)
(6.58829e-07 4.27156e-06 0.0768422)
(5.33149e-07 -7.40911e-06 0.0769072)
(-1.83641e-07 3.83351e-06 0.0786346)
(-5.21336e-07 5.48031e-06 0.0898753)
(-2.96738e-07 -1.66069e-05 0.0914041)
(-6.7675e-07 4.21277e-06 0.0768575)
(1.36671e-07 -7.42283e-06 0.0786777)
(-1.14239e-06 -1.59767e-05 0.0899258)
(-8.92927e-07 4.84351e-06 0.068398)
(6.88028e-07 7.13521e-06 0.0822185)
(-1.38325e-06 -1.22717e-05 0.0858697)
(2.01655e-07 -6.02772e-06 0.0684627)
(-7.38964e-07 5.79952e-06 0.0858125)
(2.13906e-07 -6.03612e-06 0.0684552)
(-7.28549e-07 5.79181e-06 0.085804)
(-1.22213e-06 -1.20617e-05 0.0822612)
(-8.77634e-07 4.84245e-06 0.0683904)
(-1.37573e-06 -1.22884e-05 0.0858613)
(-6.87055e-07 4.20532e-06 0.0768658)
(-2.45312e-07 4.98089e-06 0.091367)
(1.35454e-07 -7.41339e-06 0.0786861)
(-1.14704e-06 -1.59668e-05 0.0899338)
(5.26363e-07 -7.39889e-06 0.0769155)
(-1.84781e-07 3.82941e-06 0.0786431)
(-5.28882e-07 5.47617e-06 0.0898834)
(-5.24951e-07 -7.46195e-06 0.0769063)
(1.77837e-07 3.83958e-06 0.0786347)
(5.16696e-07 5.52895e-06 0.0898751)
(3.18376e-07 -1.66105e-05 0.091404)
(6.75351e-07 4.26755e-06 0.0768591)
(-1.19622e-07 -7.42491e-06 0.0786775)
(1.15956e-06 -1.6022e-05 0.0899251)
(8.76907e-07 4.92197e-06 0.068398)
(-6.41689e-07 7.17469e-06 0.0822178)
(1.37944e-06 -1.23274e-05 0.0858679)
(7.5351e-07 5.85514e-06 0.0858117)
(-1.82142e-07 -6.09713e-06 0.068459)
(-1.94268e-07 -6.10574e-06 0.0684514)
(7.43518e-07 5.85015e-06 0.0858032)
(1.18224e-06 -1.21032e-05 0.0822606)
(8.62443e-07 4.92213e-06 0.0683904)
(1.37197e-06 -1.23437e-05 0.0858595)
(6.83569e-07 4.266e-06 0.0768675)
(2.36993e-07 4.99008e-06 0.0913669)
(-1.19613e-07 -7.42509e-06 0.078686)
(1.16284e-06 -1.60115e-05 0.0899331)
(1.78475e-07 3.83926e-06 0.0786432)
(5.23252e-07 5.52236e-06 0.0898833)
(-5.18259e-07 -7.45575e-06 0.0769147)
(-3.14421e-06 3.11472e-06 0.0835871)
(5.13088e-06 -3.64114e-06 0.0683482)
(3.60875e-06 -5.16487e-06 0.0683536)
(-4.09782e-06 2.63702e-06 0.0682919)
(-2.65415e-06 4.07156e-06 0.0682973)
(7.26971e-06 -7.2995e-06 0.0836339)
(1.03282e-05 -1.68996e-05 0.0916859)
(-5.59697e-06 1.10158e-05 0.0962465)
(6.8816e-06 -9.96986e-06 0.0875666)
(-3.05466e-06 3.81046e-06 0.0815184)
(3.98948e-06 -8.14666e-06 0.0815707)
(1.42135e-05 -2.41074e-05 0.0962962)
(-3.84048e-06 7.7813e-06 0.0916373)
(1.68842e-05 -1.03493e-05 0.0916924)
(-1.09824e-05 5.54964e-06 0.0962499)
(9.91096e-06 -6.8975e-06 0.0875687)
(-3.81396e-06 3.03879e-06 0.081523)
(2.40678e-05 -1.42408e-05 0.0962992)
(8.1039e-06 -4.03646e-06 0.0815756)
(-7.79912e-06 3.78786e-06 0.0916441)
(-3.83977e-06 7.78652e-06 0.0916444)
(3.99365e-06 -8.13094e-06 0.0815785)
(-3.50468e-06 3.54819e-06 0.0875244)
(1.42127e-05 -2.40852e-05 0.096302)
(-3.04549e-06 3.81841e-06 0.0815262)
(-5.58791e-06 1.10153e-05 0.0962523)
(1.03199e-05 -1.68778e-05 0.0916929)
(-7.80456e-06 3.78534e-06 0.0916511)
(8.08809e-06 -4.04011e-06 0.0815834)
(-3.51211e-06 3.45776e-06 0.0875254)
(2.40459e-05 -1.42395e-05 0.096305)
(-1.09819e-05 5.5404e-06 0.0962557)
(-3.82158e-06 3.02932e-06 0.0815309)
(1.68626e-05 -1.03422e-05 0.0916994)
(7.2787e-06 -7.30891e-06 0.0836264)
(-4.10144e-06 2.63552e-06 0.0682852)
(-2.65232e-06 4.07545e-06 0.0682905)
(5.13256e-06 -3.64982e-06 0.0683414)
(3.61678e-06 -5.16683e-06 0.0683468)
(-3.14177e-06 3.11277e-06 0.0835796)
(5.89185e-06 -3.25222e-06 0.0715672)
(-4.27993e-06 2.55687e-06 0.0715172)
(-2.59719e-06 4.34732e-06 0.0715346)
(3.2995e-06 -5.92948e-06 0.0715809)
(7.26037e-06 -7.28866e-06 0.0836414)
(-4.09307e-06 2.63946e-06 0.0682987)
(-2.65607e-06 4.06808e-06 0.068304)
(-3.14576e-06 3.11753e-06 0.0835947)
(5.1285e-06 -3.63269e-06 0.0683549)
(3.60166e-06 -5.16166e-06 0.0683603)
(-3.84008e-06 7.80121e-06 0.0916585)
(1.42096e-05 -2.40375e-05 0.0963137)
(-3.4841e-06 3.56662e-06 0.0875404)
(4.00245e-06 -8.09932e-06 0.081594)
(-5.57242e-06 1.10217e-05 0.0962641)
(-3.03216e-06 3.84073e-06 0.0815419)
(1.03018e-05 -1.68301e-05 0.0917069)
(-7.818e-06 3.78876e-06 0.0916652)
(2.39989e-05 -1.42354e-05 0.0963167)
(-3.53186e-06 3.43909e-06 0.0875413)
(8.05433e-06 -4.04494e-06 0.0815989)
(-3.83772e-06 3.01293e-06 0.0815465)
(-1.09874e-05 5.52748e-06 0.0962675)
(1.68157e-05 -1.03209e-05 0.0917134)
(1.03122e-05 -1.68546e-05 0.0916999)
(-3.0407e-06 3.8319e-06 0.0815341)
(-5.58081e-06 1.10176e-05 0.0962582)
(6.89292e-06 -9.93728e-06 0.0875825)
(1.42122e-05 -2.40626e-05 0.0963078)
(-3.8395e-06 7.79236e-06 0.0916514)
(4.00175e-06 -8.12087e-06 0.0815862)
(1.68402e-05 -1.03324e-05 0.0917064)
(-3.83189e-06 3.02355e-06 0.0815387)
(-1.09836e-05 5.53485e-06 0.0962616)
(9.87836e-06 -6.90738e-06 0.0875846)
(-7.80974e-06 3.78633e-06 0.0916581)
(8.07041e-06 -4.04143e-06 0.0815912)
(2.40233e-05 -1.42377e-05 0.0963109)
(-3.14988e-06 3.12268e-06 0.0836022)
(5.1269e-06 -3.6255e-06 0.0683616)
(3.59286e-06 -5.15908e-06 0.068367)
(-4.0888e-06 2.64256e-06 0.0683054)
(-2.65813e-06 4.06419e-06 0.0683108)
(7.25022e-06 -7.27849e-06 0.0836489)
(-4.29253e-06 2.52737e-06 0.0715325)
(5.86538e-06 -3.27772e-06 0.0715825)
(4.22255e-06 7.07729e-07 0.0768493)
(-7.46422e-06 -1.53503e-07 0.0786685)
(-1.59983e-05 1.09747e-06 0.0899176)
(5.02666e-06 2.77444e-07 0.091352)
(3.87142e-06 2.13779e-07 0.0786276)
(5.50788e-06 5.61887e-07 0.0898671)
(-7.42937e-06 -5.75093e-07 0.0768987)
(-6.06857e-06 -2.66915e-07 0.0684398)
(-1.20868e-05 1.15952e-06 0.0822449)
(5.8051e-06 7.51469e-07 0.0857864)
(-1.23384e-05 1.32491e-06 0.0858442)
(4.85748e-06 8.8174e-07 0.0683747)
(4.85865e-06 8.97597e-07 0.0683823)
(-1.23221e-05 1.33206e-06 0.0858527)
(7.11942e-06 -6.60384e-07 0.0822)
(5.81254e-06 7.60707e-07 0.0857949)
(-6.05983e-06 -2.53524e-07 0.0684473)
(-7.43758e-06 -5.82571e-07 0.0768903)
(-1.66493e-05 2.74401e-07 0.0913882)
(3.87539e-06 2.11574e-07 0.0786191)
(5.51374e-06 5.55964e-07 0.089859)
(-7.46797e-06 -1.56945e-07 0.07866)
(-1.60083e-05 1.09462e-06 0.0899096)
(4.23383e-06 6.96485e-07 0.0768409)
(-7.45831e-06 5.41086e-07 0.0769069)
(5.54199e-06 -5.32716e-07 0.0898758)
(3.8751e-06 -1.7274e-07 0.0786365)
(-1.66312e-05 -3.0666e-07 0.0914038)
(4.26921e-06 -6.81164e-07 0.07686)
(-1.60222e-05 -1.13939e-06 0.0899254)
(-7.45947e-06 1.26515e-07 0.0786771)
(4.92182e-06 -8.73078e-07 0.0683987)
(7.14937e-06 6.27566e-07 0.0822177)
(-1.23341e-05 -1.37479e-06 0.0858686)
(-6.09725e-06 1.88559e-07 0.0684596)
(5.86115e-06 -7.5873e-07 0.0858123)
(-6.10604e-06 2.02672e-07 0.0684521)
(5.85587e-06 -7.49346e-07 0.0858038)
(-1.20786e-05 -1.18808e-06 0.0822617)
(4.92213e-06 -8.57485e-07 0.0683911)
(-1.23498e-05 -1.36607e-06 0.0858601)
(4.26224e-06 -6.89228e-07 0.0768684)
(5.01658e-06 -2.41715e-07 0.0913676)
(-1.60138e-05 -1.14406e-06 0.0899334)
(-7.4587e-06 1.27063e-07 0.0786856)
(-7.44843e-06 5.34362e-07 0.0769152)
(5.53434e-06 -5.40011e-07 0.089884)
(3.87531e-06 -1.7154e-07 0.078645)
(-7.42233e-06 -5.67924e-07 0.0769071)
(3.87041e-06 2.14936e-07 0.0786362)
(5.50328e-06 5.68218e-07 0.0898752)
(-1.66279e-05 2.73984e-07 0.0914037)
(4.21986e-06 7.17286e-07 0.0768577)
(-7.45609e-06 -1.54146e-07 0.078677)
(-1.59868e-05 1.10233e-06 0.0899256)
(4.8596e-06 9.29445e-07 0.0683975)
(7.12652e-06 -6.37214e-07 0.0822169)
(-1.2288e-05 1.34817e-06 0.0858695)
(5.82391e-06 7.81216e-07 0.0858119)
(-6.04134e-06 -2.26877e-07 0.0684624)
(-6.05015e-06 -2.39752e-07 0.0684548)
(5.81872e-06 7.71229e-07 0.0858034)
(-1.20576e-05 1.17702e-06 0.0822617)
(4.85879e-06 9.14785e-07 0.0683899)
(-1.23056e-05 1.33935e-06 0.0858611)
(4.21689e-06 7.26332e-07 0.0768661)
(5.01529e-06 2.78548e-07 0.0913676)
(-7.45533e-06 -1.52163e-07 0.0786855)
(-1.59761e-05 1.10662e-06 0.0899337)
(3.86966e-06 2.15718e-07 0.0786447)
(5.49701e-06 5.75134e-07 0.0898833)
(-7.41615e-06 -5.59557e-07 0.0769154)
(-4.27641e-06 -6.84751e-07 0.0768512)
(1.60366e-05 -1.14911e-06 0.0899176)
(7.4267e-06 1.27678e-07 0.0786693)
(-5.0002e-06 -2.60338e-07 0.0913516)
(-5.5457e-06 -5.31342e-07 0.0898675)
(-3.83878e-06 -1.97898e-07 0.0786265)
(7.46923e-06 5.42108e-07 0.0768986)
(6.12643e-06 2.26109e-07 0.0684372)
(1.20984e-05 -1.16109e-06 0.0822451)
(-5.84172e-06 -7.43034e-07 0.0857869)
(1.23842e-05 -1.35034e-06 0.0858435)
(-4.9257e-06 -8.39678e-07 0.0683759)
(-4.92705e-06 -8.54221e-07 0.0683835)
(1.23671e-05 -1.3577e-06 0.085852)
(-7.12262e-06 6.27794e-07 0.0822005)
(-5.84693e-06 -7.52569e-07 0.0857954)
(6.11751e-06 2.14494e-07 0.0684448)
(7.47428e-06 5.47786e-07 0.0768902)
(1.66277e-05 -3.13582e-07 0.0913887)
(-5.5513e-06 -5.26742e-07 0.0898594)
(-3.83994e-06 -1.98453e-07 0.078618)
(1.60476e-05 -1.14687e-06 0.0899095)
(7.4368e-06 1.26818e-07 0.0786608)
(-4.2786e-06 -6.77046e-07 0.0768428)
(-4.26212e-06 6.46449e-07 0.0768508)
(7.42623e-06 -1.26296e-07 0.0786692)
(1.60308e-05 1.14238e-06 0.0899175)
(-4.99578e-06 2.18073e-07 0.0913516)
(-3.8365e-06 1.59067e-07 0.0786265)
(-5.52364e-06 4.90655e-07 0.0898676)
(7.46735e-06 -5.43234e-07 0.076898)
(6.12002e-06 -2.26172e-07 0.0684389)
(1.21215e-05 1.16158e-06 0.0822444)
(-5.82553e-06 6.98177e-07 0.0857877)
(1.23727e-05 1.35217e-06 0.085844)
(-4.91104e-06 8.0577e-07 0.0683779)
(-4.91196e-06 8.23352e-07 0.0683855)
(1.23555e-05 1.36044e-06 0.0858524)
(-7.14006e-06 -6.78879e-07 0.0822017)
(-5.8325e-06 7.09054e-07 0.0857962)
(6.11075e-06 -2.11762e-07 0.0684465)
(7.47383e-06 -5.50858e-07 0.0768897)
(1.66206e-05 3.07891e-07 0.0913887)
(-3.84018e-06 1.57917e-07 0.0786179)
(-5.53122e-06 4.84596e-07 0.0898595)
(7.42993e-06 -1.26392e-07 0.0786607)
(1.60401e-05 1.13908e-06 0.0899094)
(-4.26302e-06 6.37087e-07 0.0768423)
(7.46415e-06 5.34835e-07 0.076907)
(-5.54209e-06 -5.37485e-07 0.0898756)
(-3.83828e-06 -1.96961e-07 0.0786351)
(1.66032e-05 -3.1056e-07 0.0914042)
(-4.27285e-06 -6.93523e-07 0.0768596)
(1.60262e-05 -1.15345e-06 0.0899256)
(7.42215e-06 1.2874e-07 0.0786778)
(-4.92753e-06 -8.87073e-07 0.0683987)
(-7.13596e-06 6.07746e-07 0.0822174)
(1.23301e-05 -1.37311e-06 0.0858688)
(-5.86348e-06 -7.73853e-07 0.0858123)
(6.10014e-06 1.87685e-07 0.0684598)
(6.10805e-06 2.00664e-07 0.0684523)
(-5.85634e-06 -7.63711e-07 0.0858039)
(1.20661e-05 -1.17714e-06 0.0822619)
(-4.92728e-06 -8.7121e-07 0.0683911)
(1.23484e-05 -1.3651e-06 0.0858604)
(-4.26757e-06 -7.02346e-07 0.076868)
(-4.99111e-06 -2.58949e-07 0.0913672)
(1.60137e-05 -1.15727e-06 0.0899336)
(7.41773e-06 1.29017e-07 0.0786863)
(-5.53715e-06 -5.44007e-07 0.0898837)
(-3.83852e-06 -1.95768e-07 0.0786436)
(7.45668e-06 5.28034e-07 0.0769153)
(7.45855e-06 -5.35813e-07 0.0769064)