/*--------------------------------*- C++ -*----------------------------------*\
| =========                 |                                                 |
| \\      /  F ield         | OpenFOAM: The Open Source CFD Toolbox           |
|  \\    /   O peration     | Version:  v1906                                 |
|   \\  /    A nd           | Web:      www.OpenFOAM.com                      |
|    \\/     M anipulation  |                                                 |
\*---------------------------------------------------------------------------*/
FoamFile
{
    version     2.0;
    format      ascii;
    class       volScalarField;
    location    "300";
    object      nut;
}
// * * * * * * * * * * * * * * * * * * * * * * * * * * * * * * * * * * * * * //

dimensions      [0 2 -1 0 0 0 0];


internalField   nonuniform List<scalar> 
42616
(
0.000233972
0.000233081
0.000233082
0.000233408
0.000232522
0.000227709
0.000227702
0.000223721
0.00023049
0.00022018
0.000220176
0.000208929
0.000227755
0.000211505
0.000211499
0.000193649
0.000224374
0.000202488
0.000202483
0.000179614
0.000220484
0.000193618
0.000193615
0.000167271
0.000216231
0.000185136
0.000185132
0.000156541
0.000211744
0.000177113
0.000177105
0.000147168
0.00020713
0.000169584
0.000169574
0.00013905
0.000202469
0.000162521
0.000162509
0.000131753
0.000197815
0.00015587
0.000155852
0.000124986
0.000193203
0.000149573
0.000149553
0.000118854
0.000188614
0.000143588
0.00014357
0.000113122
0.000184083
0.000137863
0.000137849
0.000107895
0.000179639
0.000132361
0.000132347
0.000102997
0.00017527
0.000127072
0.000127057
9.83514e-05
0.000170965
0.000122013
0.000121997
9.41388e-05
0.000166711
0.000117214
0.000117201
9.05238e-05
0.000162507
0.000112706
0.000112695
8.75879e-05
0.00015833
0.000108549
0.000108537
8.52442e-05
0.000154172
0.000104791
0.00010478
8.3507e-05
0.000234257
0.000234459
0.000234458
0.00023426
0.00023446
0.00023446
0.000234275
0.000234275
0.000234275
0.000234275
0.000234458
0.000234461
0.00023426
0.000234458
0.000234462
0.00023427
0.000233404
0.000226065
0.00023308
0.000233083
0.000229274
0.000229281
0.000233401
0.000226075
0.000233079
0.000233078
0.00022928
0.000229271
0.000233085
0.000229285
0.000229284
0.000233396
0.000226046
0.000233082
0.000229278
0.000229282
0.000226086
0.0002237
0.000212029
0.000227693
0.000227702
0.000222183
0.000222205
0.000223712
0.000212059
0.000227702
0.000227692
0.000222204
0.00022219
0.000227703
0.000222208
0.000222202
0.000223682
0.000212022
0.000227703
0.000222202
0.000222204
0.000212059
0.000208894
0.00019688
0.000220153
0.000220178
0.000213703
0.000213728
0.000208923
0.000196903
0.000220176
0.000220161
0.000213724
0.000213709
0.000220175
0.000213731
0.000213726
0.000208888
0.000196874
0.000220178
0.000213726
0.000213732
0.000196922
0.000193598
0.000182762
0.000211475
0.000211499
0.000204716
0.000204731
0.000193647
0.000182761
0.000211496
0.000211479
0.000204731
0.000204711
0.000211498
0.000204741
0.000204731
0.000193618
0.000182752
0.000211505
0.000204735
0.000204742
0.000182783
0.000179571
0.00017022
0.000202464
0.000202476
0.000195785
0.00019579
0.000179621
0.000170197
0.000202477
0.000202455
0.000195797
0.000195771
0.000202476
0.000195804
0.000195791
0.000179564
0.000170199
0.000202488
0.0001958
0.000195804
0.000170222
0.000167242
0.000159237
0.0001936
0.000193602
0.000187197
0.000187195
0.000167295
0.000159199
0.000193612
0.000193585
0.00018721
0.000187181
0.000193604
0.000187214
0.000187199
0.000167248
0.000159216
0.000193617
0.00018721
0.000187213
0.000159234
0.000156536
0.000149582
0.000185119
0.000185115
0.000179051
0.000179047
0.00015658
0.000149595
0.000185131
0.000185101
0.000179066
0.000179034
0.000185118
0.000179072
0.000179051
0.000156537
0.000149632
0.000185133
0.000179065
0.000179067
0.000149652
0.000147269
0.000141105
0.000177092
0.000177087
0.000171394
0.000171391
0.000147273
0.000141191
0.000177107
0.000177074
0.000171413
0.000171378
0.00017709
0.00017142
0.000171393
0.000147178
0.000141099
0.000177108
0.00017141
0.000171413
0.000141088
0.000139028
0.000133642
0.000169557
0.000169555
0.000164215
0.000164215
0.000138932
0.000133674
0.000169577
0.000169542
0.000164236
0.000164201
0.000169557
0.000164246
0.000164215
0.000139042
0.000133555
0.000169577
0.000164234
0.000164237
0.000133562
0.000131623
0.000126735
0.000162489
0.000162491
0.00015746
0.000157464
0.000131661
0.000126759
0.00016251
0.000162475
0.000157483
0.000157446
0.000162489
0.000157496
0.000157459
0.000131742
0.000126803
0.000162511
0.000157481
0.000157484
0.000126761
0.000125112
0.000120436
0.000155832
0.000155838
0.000151076
0.000151084
0.000125141
0.000120466
0.000155855
0.000155817
0.0001511
0.000151061
0.00015583
0.000151116
0.000151072
0.00012499
0.000120535
0.000155855
0.000151098
0.000151101
0.000120525
0.000118988
0.000114497
0.000149532
0.00014954
0.000145015
0.000145021
0.000119009
0.000114451
0.000149556
0.000149517
0.000145041
0.000145
0.000149528
0.000145057
0.000145011
0.000118915
0.000114505
0.000149558
0.000145038
0.000145041
0.000114521
0.000113178
0.000108836
0.000143547
0.000143552
0.00013923
0.000139232
0.000113242
0.000108831
0.000143574
0.000143532
0.000139261
0.000139217
0.000143543
0.000139273
0.000139227
0.000113142
0.000108819
0.000143574
0.000139256
0.000139259
0.000108826
0.000107934
0.000103644
0.000137824
0.000137822
0.000133678
0.000133673
0.000107932
0.000103645
0.000137853
0.00013781
0.00013371
0.000133667
0.000137821
0.00013372
0.000133678
0.000107913
0.000103633
0.000137853
0.000133705
0.000133709
0.000103633
0.000103004
9.90267e-05
0.000132321
0.000132314
0.000128334
0.000128325
0.000103009
9.90454e-05
0.000132351
0.000132308
0.000128365
0.000128322
0.000132321
0.000128377
0.000128338
0.00010299
9.9035e-05
0.000132354
0.000128362
0.000128369
9.9018e-05
9.83446e-05
9.48112e-05
0.00012703
0.00012702
0.000123216
0.000123208
9.83422e-05
9.48609e-05
0.000127058
0.000127017
0.000123246
0.000123206
0.000127033
0.00012326
0.000123223
9.83149e-05
9.48484e-05
0.000127065
0.000123246
0.000123254
9.48074e-05
9.41227e-05
9.12328e-05
0.000121971
0.000121962
0.000118327
0.000118319
9.41006e-05
9.13621e-05
0.000121997
0.000121957
0.00011835
0.000118317
0.000121977
0.000118368
0.000118333
9.40795e-05
9.11966e-05
0.000122007
0.000118352
0.000118362
9.11768e-05
9.05061e-05
8.81504e-05
0.000117173
0.000117163
0.000113747
0.000113743
9.04205e-05
8.8273e-05
0.000117196
0.00011716
0.000113775
0.000113739
0.000117182
0.00011379
0.000113757
9.05143e-05
8.81922e-05
0.000117209
0.000113779
0.000113783
8.80917e-05
8.75629e-05
8.55694e-05
0.00011267
0.00011266
0.000109492
0.000109489
8.74847e-05
8.58071e-05
0.000112684
0.000112654
0.000109519
0.000109485
0.000112673
0.000109534
0.0001095
8.75441e-05
8.5594e-05
0.000112701
0.000109525
0.000109525
8.565e-05
8.52612e-05
8.37077e-05
0.000108516
0.000108504
0.000105625
0.000105619
8.51263e-05
8.40451e-05
0.000108524
0.000108497
0.00010565
0.000105615
0.000108516
0.000105665
0.000105631
8.52295e-05
8.37297e-05
0.000108543
0.000105655
0.000105654
8.38578e-05
8.35249e-05
0.000104763
0.000104745
8.33177e-05
0.000104766
0.000104741
0.000104759
8.35225e-05
0.000104784
0.00023473
0.000234746
0.000234729
0.000234729
0.0002351
0.000234799
0.000234752
0.000234726
0.0002351
0.000234799
0.000234727
0.000234849
0.000234868
0.000233843
0.000233744
0.000104751
3.85368e-05
0.000128443
3.97918e-05
2.14795e-05
2.28591e-05
0.00010474
3.85045e-05
0.000128416
3.97782e-05
0.000233972
0.000233972
0.000233972
0.000232928
0.000232929
0.000232928
0.000232929
0.000206123
9.28002e-05
0.000233967
0.000231962
0.000222376
8.63807e-05
0.000233608
2.15015e-05
2.28532e-05
0.000206027
0.000233966
9.28499e-05
0.00023196
0.000222346
0.000233605
8.65132e-05
4.74978e-05
4.74396e-05
0.000231295
4.37032e-05
4.36836e-05
7.26383e-05
4.24133e-05
8.13813e-05
4.3762e-05
2.47957e-05
2.54787e-05
7.2643e-05
4.24101e-05
8.13783e-05
4.37569e-05
0.000232522
0.000232521
0.000232522
0.000231063
0.000231064
0.000231063
0.000231064
0.000167319
7.88852e-05
0.000232061
0.00022599
0.000180028
7.40137e-05
0.000231349
2.47941e-05
2.54772e-05
0.000167324
0.00023206
7.88818e-05
0.000225983
0.000180021
0.000231349
7.39442e-05
3.90638e-05
3.90605e-05
0.00021943
3.64951e-05
3.65069e-05
5.63498e-05
4.55469e-05
6.12384e-05
4.64223e-05
2.60177e-05
2.61196e-05
5.63758e-05
4.55433e-05
6.12481e-05
4.64187e-05
0.000230492
0.00023049
0.000230491
0.000228503
0.000228507
0.000228504
0.000228507
0.000138551
6.69875e-05
0.000228594
0.000218082
0.000148037
6.31486e-05
0.000227482
2.60155e-05
2.61174e-05
0.000138508
0.000228595
6.70503e-05
0.000218077
0.000148026
0.000227479
6.30973e-05
3.32599e-05
3.32532e-05
0.000204457
3.20361e-05
3.20338e-05
4.70177e-05
4.75013e-05
5.0014e-05
4.80127e-05
2.605e-05
2.59407e-05
4.70631e-05
4.74984e-05
4.99894e-05
4.80103e-05
0.000227759
0.000227755
0.000227759
0.000225273
0.000225277
0.000225272
0.000225277
0.000117545
5.78421e-05
0.00022365
0.000209256
0.000124656
5.52232e-05
0.000222234
2.60465e-05
2.59376e-05
0.000117521
0.000223646
5.78833e-05
0.000209251
0.00012459
0.000222228
5.5233e-05
3.06918e-05
3.06822e-05
0.000189668
3.03889e-05
3.0385e-05
4.14541e-05
4.85822e-05
4.33287e-05
4.88436e-05
2.56713e-05
2.552e-05
4.14968e-05
4.85792e-05
4.32924e-05
4.88408e-05
0.000224379
0.000224373
0.000224378
0.000221496
0.000221499
0.000221493
0.000221499
0.000102141
5.15606e-05
0.000217683
0.000200242
0.000107426
4.98755e-05
0.00021609
2.56691e-05
2.5518e-05
0.000102129
0.000217681
5.15903e-05
0.000200237
0.000107412
0.000216086
4.9887e-05
3.02703e-05
3.02696e-05
0.0001763
3.04691e-05
3.04522e-05
3.81799e-05
4.90913e-05
3.92896e-05
4.91963e-05
2.52345e-05
2.50945e-05
3.81958e-05
4.90884e-05
3.92476e-05
4.91939e-05
0.000220486
0.000220481
0.000220486
0.00021732
0.000217321
0.000217316
0.000217321
9.05324e-05
4.74545e-05
0.000211172
0.000191455
9.45555e-05
4.64142e-05
0.000209506
2.52323e-05
2.5093e-05
9.05265e-05
0.000211172
4.74669e-05
0.000191451
9.45418e-05
0.000209503
4.64638e-05
3.10973e-05
3.10952e-05
0.000164536
3.15825e-05
3.15643e-05
3.63869e-05
4.92753e-05
3.69779e-05
4.92889e-05
2.48469e-05
2.47341e-05
3.64023e-05
4.92724e-05
3.69496e-05
4.92859e-05
0.000216231
0.000216226
0.000216231
0.000212881
0.000212881
0.000212876
0.000212881
8.16347e-05
4.4951e-05
0.000204482
0.000183084
8.4788e-05
4.44311e-05
0.000202812
2.48446e-05
2.47321e-05
8.15916e-05
0.000204481
4.49304e-05
0.000183079
8.47668e-05
0.000202808
4.43826e-05
3.26777e-05
3.26578e-05
0.000154283
3.33156e-05
3.33102e-05
3.56971e-05
4.92865e-05
3.5838e-05
4.92701e-05
2.45348e-05
2.44488e-05
3.56991e-05
4.9283e-05
3.5829e-05
4.9266e-05
0.000211745
0.000211739
0.000211744
0.00020829
0.000208292
0.000208284
0.00020829
7.46726e-05
4.36216e-05
0.000197848
0.000175184
7.72314e-05
4.34461e-05
0.000196215
2.45327e-05
2.44451e-05
7.46901e-05
0.000197844
4.35997e-05
0.000175175
7.7261e-05
0.000196208
4.34066e-05
3.4713e-05
3.46981e-05
0.000145192
3.54404e-05
3.54374e-05
3.57663e-05
4.92525e-05
3.56753e-05
4.92326e-05
2.42939e-05
2.42271e-05
3.58141e-05
4.92487e-05
3.5634e-05
4.92279e-05
0.000207132
0.000207124
0.000207129
0.000203635
0.000203638
0.000203628
0.000203634
6.92301e-05
4.31303e-05
0.0001914
0.000167777
7.13517e-05
4.31258e-05
0.000189822
2.42936e-05
2.42303e-05
6.9272e-05
0.000191395
4.311e-05
0.000167766
7.12944e-05
0.000189812
4.31217e-05
3.70387e-05
3.70298e-05
0.000137196
3.78225e-05
3.78144e-05
3.65433e-05
4.92206e-05
3.6262e-05
4.92165e-05
2.41157e-05
2.40701e-05
3.65845e-05
4.92157e-05
3.62021e-05
4.92128e-05
0.000202473
0.000202462
0.000202468
0.000198975
0.00019898
0.000198968
0.000198973
6.49173e-05
4.33062e-05
0.000185166
0.000160822
6.65939e-05
4.34669e-05
0.000183646
2.41138e-05
2.40641e-05
6.49222e-05
0.00018516
4.33305e-05
0.000160808
6.65617e-05
0.000183636
4.34242e-05
3.95002e-05
3.9495e-05
0.000130049
4.0329e-05
4.03101e-05
3.79568e-05
4.92158e-05
3.74737e-05
4.9223e-05
2.39829e-05
2.39557e-05
3.80212e-05
4.92127e-05
3.74128e-05
4.92177e-05
0.000197821
0.000197808
0.000197813
0.000194349
0.000194356
0.000194342
0.000194347
6.15206e-05
4.39577e-05
0.000179189
0.000154263
6.27967e-05
4.437e-05
0.000177739
2.39884e-05
2.39486e-05
6.15423e-05
0.000179183
4.40234e-05
0.000154246
6.27731e-05
0.000177729
4.42839e-05
4.20027e-05
4.20167e-05
0.000123587
4.28627e-05
4.28353e-05
3.99784e-05
4.923e-05
3.92464e-05
4.92541e-05
2.38919e-05
2.38759e-05
3.99743e-05
4.92366e-05
3.9218e-05
4.92413e-05
0.00019321
0.000193195
0.000193201
0.000189762
0.000189769
0.000189754
0.000189759
5.89909e-05
4.51002e-05
0.00017349
0.000148048
5.98561e-05
4.56302e-05
0.000172105
2.38971e-05
2.38667e-05
5.9011e-05
0.000173485
4.51582e-05
0.000148028
5.98103e-05
0.000172096
4.55408e-05
4.44944e-05
4.44844e-05
0.000117457
4.53217e-05
4.53087e-05
4.24788e-05
4.92664e-05
4.15664e-05
4.92922e-05
2.38281e-05
2.38196e-05
4.24737e-05
4.92715e-05
4.15566e-05
4.92803e-05
0.000188621
0.000188607
0.000188612
0.000185208
0.000185214
0.000185201
0.000185205
5.71878e-05
4.65842e-05
0.00016804
0.000142135
5.76745e-05
4.72545e-05
0.000166713
2.38333e-05
2.38094e-05
5.71853e-05
0.000168034
4.66521e-05
0.000142117
5.76721e-05
0.000166703
4.72167e-05
4.68943e-05
4.68847e-05
0.000111616
4.7647e-05
4.76347e-05
4.53898e-05
4.93076e-05
4.43527e-05
4.93331e-05
2.37827e-05
2.37796e-05
4.54057e-05
4.93117e-05
4.43247e-05
4.93226e-05
0.000184088
0.000184076
0.000184081
0.000180743
0.000180746
0.000180737
0.000180741
5.59317e-05
4.83816e-05
0.000162803
0.000136471
5.62919e-05
4.91233e-05
0.000161524
2.37882e-05
2.37689e-05
5.5987e-05
0.000162798
4.84219e-05
0.000136456
5.62759e-05
0.000161515
4.90798e-05
4.91195e-05
4.91299e-05
0.000106166
4.98484e-05
4.98452e-05
4.863e-05
4.93479e-05
4.7488e-05
4.93712e-05
2.37495e-05
2.37489e-05
4.86278e-05
4.93517e-05
4.74731e-05
4.93618e-05
0.000179642
0.000179633
0.000179638
0.000176356
0.000176358
0.00017635
0.000176356
5.54205e-05
5.04547e-05
0.000157746
0.00013102
5.55448e-05
5.11454e-05
0.000156509
2.37553e-05
2.37401e-05
5.54887e-05
0.000157742
5.04502e-05
0.000131006
5.55106e-05
0.000156501
5.11683e-05
5.11947e-05
5.11846e-05
0.000101269
5.18328e-05
5.18467e-05
5.20501e-05
4.93844e-05
5.08679e-05
4.94056e-05
2.3726e-05
2.37227e-05
5.20749e-05
4.93888e-05
5.08566e-05
4.93968e-05
0.000175272
0.000175264
0.000175271
0.000172036
0.000172037
0.00017203
0.000172037
5.55467e-05
5.26266e-05
0.000152842
0.000125787
5.54636e-05
5.33632e-05
0.00015164
2.37282e-05
2.37187e-05
5.55753e-05
0.000152838
5.26192e-05
0.000125773
5.53987e-05
0.000151633
5.33771e-05
5.30765e-05
5.30656e-05
9.68631e-05
5.36726e-05
5.36679e-05
5.55459e-05
4.94178e-05
5.43395e-05
4.94368e-05
2.37069e-05
2.37023e-05
5.55886e-05
4.94217e-05
5.42996e-05
4.94288e-05
0.000170968
0.00017096
0.000170968
0.000167768
0.00016777
0.000167763
0.00016777
5.62625e-05
5.48605e-05
0.000148087
0.000120791
5.59761e-05
5.56539e-05
0.000146918
2.3706e-05
2.36997e-05
5.62988e-05
0.000148083
5.48749e-05
0.000120776
5.59318e-05
0.000146911
5.56503e-05
5.47763e-05
5.47769e-05
9.28849e-05
5.5295e-05
5.52935e-05
5.89541e-05
4.94481e-05
5.77276e-05
4.94663e-05
2.36891e-05
2.36848e-05
5.90108e-05
4.94519e-05
5.76945e-05
4.94586e-05
0.000166714
0.000166705
0.000166715
0.000163551
0.000163553
0.000163546
0.000163553
5.75836e-05
5.71351e-05
0.000143445
0.000116046
5.7088e-05
5.79178e-05
0.000142303
2.36876e-05
2.36824e-05
5.75514e-05
0.000143443
5.71561e-05
0.000116034
5.70917e-05
0.000142298
5.79322e-05
5.62997e-05
5.62999e-05
8.95664e-05
5.67959e-05
5.67946e-05
6.21571e-05
4.94768e-05
6.09817e-05
4.94942e-05
2.36729e-05
2.36682e-05
6.21981e-05
4.94801e-05
6.09613e-05
4.94865e-05
0.000162511
0.000162502
0.000162512
0.000159369
0.000159372
0.000159365
0.00015937
5.93893e-05
5.94007e-05
0.000138902
0.000111616
5.87143e-05
6.01632e-05
0.000137787
2.36709e-05
2.36663e-05
5.93552e-05
0.0001389
5.94402e-05
0.000111605
5.87498e-05
0.000137783
6.01483e-05
5.76791e-05
5.76809e-05
8.6766e-05
5.81302e-05
5.81337e-05
6.50971e-05
4.95037e-05
6.39779e-05
4.95198e-05
2.36574e-05
2.36534e-05
6.51251e-05
4.95038e-05
6.39639e-05
4.95176e-05
0.000158335
0.000158325
0.000158334
0.000155207
0.000155209
0.000155202
0.000155207
6.16132e-05
6.15985e-05
0.000134463
0.000107548
6.08298e-05
6.23354e-05
0.000133381
2.36555e-05
2.36512e-05
6.16095e-05
0.00013446
6.1616e-05
0.000107538
6.08421e-05
0.000133378
6.23223e-05
5.89315e-05
5.89312e-05
8.46006e-05
5.93451e-05
5.93443e-05
6.77058e-05
4.95286e-05
6.66942e-05
4.95438e-05
2.36433e-05
2.36397e-05
4.95265e-05
6.66814e-05
4.95422e-05
0.000154177
0.000154166
0.000154175
6.41493e-05
6.37332e-05
0.000130143
0.00010392
6.33059e-05
6.43625e-05
0.0001291
2.36411e-05
6.4172e-05
0.000130141
6.37216e-05
6.32981e-05
0.0001291
6.00667e-05
6.00671e-05
8.3504e-05
6.04509e-05
6.04528e-05
0.000234872
0.000233726
0.000233651
2.3606e-05
0.000214184
2.35559e-05
0.00021429
0.000234424
4.98165e-05
5.00305e-05
0.000230314
0.000230156
0.000235114
0.000234799
0.000234745
0.000234726
0.000235095
0.0002348
0.000234897
0.000234726
0.000234508
3.99707e-05
0.000220946
0.00014731
0.00023455
4.01397e-05
0.000216631
0.000147141
0.000233893
0.000234471
9.79995e-05
0.000234271
0.000233563
0.000234597
0.000228354
0.00023398
0.000234471
9.85626e-05
0.000234271
0.000232998
0.000234597
0.000228341
0.000234872
0.000233327
0.000233728
2.35055e-05
0.000214157
0.000234425
5.07364e-05
4.98937e-05
0.000229005
0.000230177
2.35711e-05
0.000214599
0.000235096
0.0002348
0.000234924
0.000234726
0.0002351
0.0002348
0.000234726
0.00023493
0.000234509
4.01532e-05
0.000216719
0.000147257
0.000233965
0.000234471
9.85107e-05
0.000234271
0.00023307
0.000234597
0.000228358
0.000234549
4.01355e-05
0.000216761
0.000147225
0.00023395
0.00023447
0.000234271
9.84866e-05
0.000234597
0.000233078
0.000228367
0.00023473
0.000234746
0.000234729
0.000234729
0.00023473
0.000234746
0.000234729
0.000234729
0.00023473
0.000234746
0.000234729
0.000234729
0.000234591
0.000234573
0.000234253
0.000234253
0.000234592
0.000234592
0.000234252
0.000234591
0.000234573
0.000234253
0.000234253
0.000234592
0.000234592
0.000234252
0.000234591
0.000234573
0.000234253
0.000234253
0.000234592
0.000234592
0.000234252
0.000234591
0.000234574
0.000234253
0.000234253
0.000234592
0.000234592
0.000234252
0.000235102
0.000234798
0.000234726
0.000234747
0.000233953
0.000234472
9.80296e-05
0.000234271
0.000233524
0.000234597
0.000228344
0.000234511
3.99595e-05
0.000220921
0.000147276
0.000233939
0.000234474
0.00023427
9.83965e-05
0.000234597
0.000233453
0.000228291
0.000234563
3.99699e-05
0.000220599
0.000147077
0.000234872
0.000233792
0.0002336
2.35925e-05
0.000214547
0.000234426
5.0464e-05
5.0377e-05
0.00023024
0.000230168
2.35164e-05
0.000214626
0.0002351
0.000234798
0.000234726
0.000234735
0.00023396
0.000234473
0.000234271
9.86708e-05
0.000234597
0.000233144
0.000228302
0.000233955
0.000234474
0.00023427
9.83661e-05
0.000234597
0.000233451
0.000228306
0.000234511
4.01477e-05
0.000216749
0.000147049
0.00023455
3.99691e-05
0.000220761
0.000147087
0.000234432
5.07968e-05
5.07522e-05
0.00022922
0.000229264
2.35053e-05
0.000214224
2.34993e-05
0.00021418
2.14112e-05
2.28982e-05
2.1461e-05
2.28884e-05
4.71982e-05
4.74897e-05
0.000231276
4.34917e-05
4.37228e-05
2.45204e-05
2.33481e-05
2.45137e-05
2.33396e-05
0.00022957
3.97546e-05
3.98954e-05
4.2586e-05
4.27842e-05
0.00010466
3.84944e-05
0.000128217
3.97965e-05
0.000206106
9.20976e-05
0.000233967
0.00023196
0.000222393
8.63536e-05
0.000233607
0.000206015
9.21767e-05
0.000233967
0.000231966
0.000222319
8.63825e-05
0.000233606
9.8361e-05
4.19437e-05
4.03367e-05
8.55434e-05
9.82527e-05
4.19369e-05
4.03305e-05
8.54894e-05
0.000199943
0.000230696
8.0028e-05
0.000232669
8.48705e-05
0.000233181
0.000185441
0.000199848
0.000230704
8.00886e-05
0.000232665
8.49605e-05
0.000233178
0.000185371
4.71578e-05
4.73424e-05
0.000231288
4.35163e-05
4.36774e-05
2.14537e-05
2.28939e-05
2.45073e-05
2.33336e-05
0.000229585
3.98409e-05
3.98654e-05
4.27381e-05
4.27623e-05
2.45161e-05
2.33459e-05
0.000206094
9.21912e-05
0.000233967
0.00023196
0.000222385
8.63803e-05
0.000233607
0.000104645
3.84948e-05
0.000128384
3.97917e-05
0.000206019
0.000233966
9.21713e-05
0.000231957
0.000222369
0.000233605
8.634e-05
9.83532e-05
4.19407e-05
4.03339e-05
8.55427e-05
0.000199939
0.000230699
8.01024e-05
0.000232669
8.49897e-05
0.000233181
0.000185449
9.82766e-05
4.19361e-05
4.03272e-05
8.55095e-05
0.000199876
0.000230693
0.000232666
8.00842e-05
0.000233178
8.49585e-05
0.000185413
0.000104763
3.8521e-05
0.000128391
3.98014e-05
0.000206107
0.000233967
9.20298e-05
0.000231966
0.000222339
0.000233608
8.6277e-05
0.000104743
3.85202e-05
0.000128301
3.97979e-05
0.000199956
0.000230704
8.0198e-05
0.000232671
8.50094e-05
0.000233182
0.000185435
9.83564e-05
4.19398e-05
4.03271e-05
8.55252e-05
0.000199951
0.000230705
0.00023267
8.00415e-05
0.000233182
8.4813e-05
0.000185453
9.83541e-05
4.19374e-05
4.03285e-05
8.55412e-05
4.7574e-05
4.74933e-05
0.000231266
4.36826e-05
4.36789e-05
2.14783e-05
2.28737e-05
2.45067e-05
2.33341e-05
0.000229558
3.98896e-05
3.99088e-05
4.27625e-05
4.27811e-05
2.45025e-05
2.33269e-05
0.000206041
0.000233966
9.20247e-05
0.000231963
0.000222319
0.000233606
8.62837e-05
0.000104644
3.84922e-05
0.000128298
3.97977e-05
0.000104663
3.85159e-05
0.000128278
3.97971e-05
0.000199871
0.000230698
0.000232667
8.01858e-05
0.000233179
8.50459e-05
0.000185409
0.000199889
0.000230703
0.000232668
8.00358e-05
0.00023318
8.48035e-05
0.000185416
9.82885e-05
4.1935e-05
4.03267e-05
8.55073e-05
9.83101e-05
4.19349e-05
4.03265e-05
8.55158e-05
2.14874e-05
2.28729e-05
2.14936e-05
2.28725e-05
0.000229598
3.98955e-05
3.98884e-05
4.27971e-05
4.27725e-05
2.45023e-05
2.33263e-05
2.45023e-05
2.33267e-05
2.48109e-05
2.54917e-05
2.48043e-05
2.54862e-05
3.89466e-05
3.9066e-05
0.00021941
3.63917e-05
3.64856e-05
2.59685e-05
2.56399e-05
2.59655e-05
2.56355e-05
0.000216569
3.37662e-05
3.38153e-05
3.56329e-05
3.56912e-05
7.2628e-05
4.24088e-05
8.13415e-05
4.37556e-05
0.000167342
7.87192e-05
0.00023206
0.000225971
0.000180045
7.3896e-05
0.000231348
0.000167328
7.87899e-05
0.000232056
0.000225984
0.000179989
7.38982e-05
0.000231346
6.97094e-05
4.52443e-05
4.41445e-05
6.33012e-05
6.97086e-05
4.52397e-05
4.41388e-05
6.33115e-05
0.000162786
0.000224129
6.81682e-05
0.00022961
7.2569e-05
0.000230531
0.000151807
0.000162785
0.000224146
6.81765e-05
0.000229614
7.26724e-05
0.000230531
0.000151829
3.90112e-05
3.90553e-05
0.000219429
3.64861e-05
3.64637e-05
2.48061e-05
2.54882e-05
2.59613e-05
2.56287e-05
0.00021659
3.3836e-05
3.38043e-05
3.57067e-05
3.56898e-05
2.59675e-05
2.5637e-05
0.000167377
7.88045e-05
0.000232061
0.000225986
0.000180048
7.38967e-05
0.00023135
7.26264e-05
4.24075e-05
8.13497e-05
4.37541e-05
0.000167358
0.000232058
7.87853e-05
0.000225973
0.000180019
0.000231349
7.39587e-05
6.97242e-05
4.52399e-05
4.41402e-05
6.33288e-05
0.00016281
0.000224146
6.81586e-05
0.000229617
7.26716e-05
0.000230536
0.000151846
6.97081e-05
4.52363e-05
4.4135e-05
6.33088e-05
0.000162791
0.000224133
0.000229614
6.82193e-05
0.000230533
7.26263e-05
0.000151823
7.26197e-05
4.24124e-05
8.1369e-05
4.37604e-05
0.000167377
0.000232062
7.87415e-05
0.000225984
0.000180055
0.000231351
7.38635e-05
7.26476e-05
4.24107e-05
8.13815e-05
4.37572e-05
0.00016279
0.00022415
6.8241e-05
0.000229613
7.26702e-05
0.000230533
0.000151796
6.97064e-05
4.52429e-05
4.41416e-05
6.33089e-05
0.000162811
0.000224144
0.000229618
6.81599e-05
0.000230536
7.26415e-05
0.000151852
6.9729e-05
4.52397e-05
4.41398e-05
6.33183e-05
3.90754e-05
3.90826e-05
0.000219394
3.64961e-05
3.65152e-05
2.47942e-05
2.54781e-05
2.59593e-05
2.56265e-05
0.000216554
3.3846e-05
3.38631e-05
3.57192e-05
3.57327e-05
2.59607e-05
2.56282e-05
0.000167346
0.00023206
7.87326e-05
0.000225984
0.000180021
0.000231349
7.38521e-05
7.26226e-05
4.24085e-05
8.1351e-05
4.37561e-05
7.26261e-05
4.24071e-05
8.13575e-05
4.37541e-05
0.000162791
0.000224145
0.000229614
6.81978e-05
0.000230534
7.27153e-05
0.000151774
0.000162772
0.000224146
0.000229613
6.81459e-05
0.000230533
7.26301e-05
0.000151816
6.97031e-05
4.52385e-05
4.41385e-05
6.33021e-05
6.9701e-05
4.52374e-05
4.41369e-05
6.33053e-05
2.47937e-05
2.54778e-05
2.47939e-05
2.54778e-05
0.000216594
3.3845e-05
3.38474e-05
3.57165e-05
3.57129e-05
2.59605e-05
2.56278e-05
2.59605e-05
2.56283e-05
2.60242e-05
2.61232e-05
2.60215e-05
2.61213e-05
3.31876e-05
3.32242e-05
0.000204415
3.19704e-05
3.19934e-05
2.60761e-05
2.6123e-05
2.60783e-05
2.61212e-05
0.000201143
3.0903e-05
3.09087e-05
3.15691e-05
3.15871e-05
5.63631e-05
4.55428e-05
6.12539e-05
4.64195e-05
0.000138558
6.69231e-05
0.00022859
0.000218055
0.000148007
6.31165e-05
0.000227476
0.000138582
6.70157e-05
0.000228596
0.000218081
0.000148029
6.30899e-05
0.000227484
5.48766e-05
4.73317e-05
4.66534e-05
5.10659e-05
5.48882e-05
4.73301e-05
4.66506e-05
5.10897e-05
0.000135396
0.0002159
5.87508e-05
0.000224995
6.19761e-05
0.000226275
0.000127246
0.000135415
0.000215927
5.87527e-05
0.000225004
6.20684e-05
0.000226284
0.000127261
3.32508e-05
3.32214e-05
0.00020445
3.20174e-05
3.19954e-05
2.60234e-05
2.61235e-05
2.60771e-05
2.61194e-05
0.000201175
3.09319e-05
3.0921e-05
3.16126e-05
3.15884e-05
2.60764e-05
2.61234e-05
0.000138583
6.70053e-05
0.000228599
0.000218078
0.000148035
6.30695e-05
0.000227485
5.63582e-05
4.55383e-05
6.1234e-05
4.64157e-05
0.000138557
0.000228594
6.69628e-05
0.000218063
0.000148016
0.00022748
6.31505e-05
5.48766e-05
4.73291e-05
4.66503e-05
5.11122e-05
0.000135413
0.000215924
5.8734e-05
0.000225002
6.205e-05
0.000226285
0.000127255
5.48635e-05
4.73256e-05
4.66457e-05
5.10955e-05
0.000135397
0.000215908
0.000224996
5.87582e-05
0.000226278
6.20016e-05
0.000127237
5.63765e-05
4.55447e-05
6.12393e-05
4.64222e-05
0.000138594
0.000228599
6.69945e-05
0.000218078
0.000148042
0.000227487
6.30818e-05
5.63684e-05
4.55423e-05
6.12614e-05
4.64183e-05
0.000135436
0.00021593
5.88273e-05
0.000225002
6.20144e-05
0.000226282
0.000127213
5.48741e-05
4.7333e-05
4.66523e-05
5.10854e-05
0.000135424
0.000215925
0.000225005
5.87545e-05
0.000226286
6.20545e-05
0.000127266
5.48933e-05
4.73284e-05
4.66493e-05
5.10916e-05
3.32559e-05
3.32712e-05
0.000204416
3.20339e-05
3.20463e-05
2.60172e-05
2.61191e-05
2.60763e-05
2.61172e-05
0.000201145
3.09499e-05
3.09622e-05
3.16244e-05
3.16412e-05
2.60884e-05
2.61186e-05
0.000138559
0.000228594
6.69849e-05
0.000218081
0.000147999
0.000227481
6.3072e-05
5.63576e-05
4.55411e-05
6.12257e-05
4.64172e-05
5.636e-05
4.55403e-05
6.12278e-05
4.64166e-05
0.000135411
0.000215925
0.000224996
5.88477e-05
0.000226279
6.20908e-05
0.000127245
0.000135387
0.000215929
0.000224999
5.87441e-05
0.00022628
6.20457e-05
0.000127236
5.48536e-05
4.73285e-05
4.66486e-05
5.11e-05
5.48591e-05
4.73275e-05
4.66481e-05
5.10988e-05
2.60169e-05
2.61189e-05
2.60172e-05
2.61189e-05
0.000201187
3.09481e-05
3.09515e-05
3.16311e-05
3.16257e-05
2.6075e-05
2.61186e-05
2.60754e-05
2.61187e-05
2.60538e-05
2.59412e-05
2.60497e-05
2.59389e-05
3.06406e-05
3.06474e-05
0.000189635
3.03496e-05
3.03509e-05
2.57401e-05
2.58811e-05
2.5738e-05
2.58789e-05
0.000186381
3.02268e-05
3.0212e-05
3.02571e-05
3.02511e-05
4.70611e-05
4.74993e-05
5.00126e-05
4.80113e-05
0.000117539
5.78649e-05
0.000223643
0.000209229
0.00012461
5.51551e-05
0.000222229
0.000117564
5.79002e-05
0.000223652
0.00020925
0.000124621
5.51393e-05
0.000222236
4.62566e-05
4.85043e-05
4.81312e-05
4.38829e-05
4.62318e-05
4.85026e-05
4.81294e-05
4.39296e-05
0.000115419
0.000206973
5.22105e-05
0.000219242
5.44299e-05
0.000220759
0.000109277
0.000115423
0.000206992
5.21778e-05
0.000219246
5.445e-05
0.000220765
0.000109291
3.06652e-05
3.06581e-05
0.000189636
3.03658e-05
3.03491e-05
2.60546e-05
2.59409e-05
2.57393e-05
2.58794e-05
0.000186439
3.02328e-05
3.02195e-05
3.02552e-05
3.02705e-05
2.57403e-05
2.58817e-05
0.000117555
5.78895e-05
0.000223651
0.000209247
0.000124611
5.51266e-05
0.000222233
4.70481e-05
4.74939e-05
4.99804e-05
4.80059e-05
0.000117544
0.000223643
5.78983e-05
0.00020923
0.000124596
0.000222226
5.5136e-05
4.62156e-05
4.85016e-05
4.81283e-05
4.39378e-05
0.000115411
0.00020699
5.21786e-05
0.000219241
5.44474e-05
0.000220762
0.000109284
4.62169e-05
4.84966e-05
4.81233e-05
4.39181e-05
0.0001154
0.000206972
0.000219235
5.21768e-05
0.000220754
5.44493e-05
0.000109277
4.7059e-05
4.75008e-05
5.0011e-05
4.80142e-05
0.000117561
0.000223652
5.78855e-05
0.000209249
0.000124625
0.000222236
5.51425e-05
4.70679e-05
4.74974e-05
5.0017e-05
4.80092e-05
0.000115429
0.000207001
5.22802e-05
0.000219243
5.43918e-05
0.000220762
0.000109293
4.62164e-05
4.85052e-05
4.81307e-05
4.39287e-05
0.000115426
0.000206992
0.000219244
5.21816e-05
0.000220764
5.44537e-05
0.000109289
4.62341e-05
4.85006e-05
4.81274e-05
4.39312e-05
3.06808e-05
3.06941e-05
0.000189612
3.03809e-05
3.04041e-05
2.60408e-05
2.59387e-05
2.57371e-05
2.58771e-05
0.000186397
3.023e-05
3.02717e-05
3.02791e-05
3.02838e-05
2.57395e-05
2.58791e-05
0.000117517
0.000223646
5.78872e-05
0.000209258
0.000124587
0.00022223
5.51306e-05
4.70274e-05
4.74969e-05
4.99761e-05
4.80099e-05
4.70194e-05
4.74969e-05
4.9973e-05
4.80092e-05
0.000115392
0.000206995
0.000219238
5.22905e-05
0.000220759
5.44089e-05
0.000109263
0.000115389
0.000207001
0.000219238
5.21755e-05
0.000220758
5.44563e-05
0.000109256
4.62341e-05
4.85017e-05
4.81269e-05
4.38788e-05
4.62288e-05
4.85009e-05
4.81273e-05
4.38729e-05
2.60504e-05
2.59402e-05
2.60496e-05
2.59393e-05
0.000186428
3.0269e-05
3.02541e-05
3.0282e-05
3.02823e-05
2.57392e-05
2.58793e-05
2.57381e-05
2.58787e-05
2.56726e-05
2.55209e-05
2.567e-05
2.55186e-05
3.02713e-05
3.02658e-05
0.000176294
3.04301e-05
3.04183e-05
2.53027e-05
2.5452e-05
2.53002e-05
2.54491e-05
0.000173191
3.09117e-05
3.09029e-05
3.05755e-05
3.05616e-05
4.15006e-05
4.85805e-05
4.32922e-05
4.88424e-05
0.000102141
5.16224e-05
0.000217683
0.000200221
0.000107464
4.97968e-05
0.000216092
0.000102154
5.16433e-05
0.000217686
0.00020023
0.000107438
4.97878e-05
0.000216094
4.10413e-05
4.90648e-05
4.88916e-05
3.96014e-05
4.101e-05
4.90637e-05
4.88899e-05
3.96396e-05
0.000100518
0.000197994
4.78691e-05
0.000212834
4.93864e-05
0.000214473
9.59499e-05
0.000100525