/*--------------------------------*- C++ -*----------------------------------*\
| =========                 |                                                 |
| \\      /  F ield         | OpenFOAM: The Open Source CFD Toolbox           |
|  \\    /   O peration     | Version:  v1906                                 |
|   \\  /    A nd           | Web:      www.OpenFOAM.com                      |
|    \\/     M anipulation  |                                                 |
\*---------------------------------------------------------------------------*/
FoamFile
{
    version     2.0;
    format      ascii;
    class       surfaceScalarField;
    location    "300";
    object      phi;
}
// * * * * * * * * * * * * * * * * * * * * * * * * * * * * * * * * * * * * * //

dimensions      [0 3 -1 0 0 0 0];
oriented        oriented;


internalField   nonuniform List<scalar> 
123728
(
-0.00104218
-1.46323e-05
-1.45287e-05
9.3844e-06
9.21472e-06
0.00105274
-0.00026149
-5.68432e-06
1.45101e-05
6.89056e-06
0.00105925
-4.59375e-06
-1.59788e-06
-2.12141e-06
-2.49149e-06
-6.62499e-06
-7.11592e-06
-2.98652e-06
-0.000263332
-0.000259761
-0.000262856
-0.000261467
-5.68925e-06
1.45382e-05
6.9795e-06
0.00105904
-4.59914e-06
-1.60796e-06
-2.12896e-06
-2.4951e-06
-6.61888e-06
-7.11131e-06
-2.98828e-06
-0.000259733
-0.000263303
-0.00026282
-0.000260564
5.65986e-06
5.69996e-06
-4.95428e-06
-4.94823e-06
0.000259106
-1.65267e-06
-1.65475e-06
-0.0010608
9.34085e-07
9.34916e-07
0.00106224
-0.00106275
-1.6185e-06
1.64909e-06
8.31038e-07
0.00106394
-6.79976e-07
8.3505e-07
-9.90559e-08
4.23108e-07
-8.50587e-07
-1.43182e-06
-2.55028e-07
-0.00106243
-1.61343e-06
1.6593e-06
8.26147e-07
0.00106362
-6.79994e-07
8.29612e-07
-9.91301e-08
4.20572e-07
-8.52933e-07
-1.43133e-06
-2.52413e-07
-0.000261567
1.65084e-06
1.61373e-06
-6.98361e-07
-7.01222e-07
0.000259702
-1.37455e-06
-1.37658e-06
-0.00106636
6.96307e-07
6.96794e-07
0.00106772
-0.00106788
-1.57235e-06
1.3814e-06
6.90493e-07
0.00106923
-6.57048e-07
8.78692e-07
-7.30576e-08
4.61474e-07
-8.37656e-07
-1.39924e-06
-2.2168e-07
-0.00106756
-1.56721e-06
1.37624e-06
6.95812e-07
0.0010689
-6.57083e-07
8.73299e-07
-7.30639e-08
4.61468e-07
-8.37471e-07
-1.39369e-06
-2.19129e-07
-0.000262803
1.60233e-06
1.56742e-06
-6.63473e-07
-6.71567e-07
0.000260968
-1.34965e-06
-1.35113e-06
-0.00107181
6.75577e-07
6.76522e-07
0.00107316
-0.00107323
-1.57218e-06
1.35056e-06
6.66323e-07
0.00107455
-6.53325e-07
9.0094e-07
-5.29596e-08
4.75812e-07
-8.28258e-07
-1.40445e-06
-1.94709e-07
-0.0010729
-1.5669e-06
1.35077e-06
6.66303e-07
0.00107421
-6.50691e-07
8.95565e-07
-5.50437e-08
4.75586e-07
-8.30788e-07
-1.40435e-06
-1.92348e-07
-0.00026408
1.59969e-06
1.56733e-06
-6.5578e-07
-6.6125e-07
0.00026223
-1.30315e-06
-1.30463e-06
-0.00107714
6.5122e-07
6.52094e-07
0.00107845
-0.0010784
-1.56391e-06
1.30412e-06
6.3525e-07
0.00107965
-6.38481e-07
9.25151e-07
-3.46664e-08
4.95032e-07
-8.09685e-07
-1.4032e-06
-1.64778e-07
-0.00107806
-1.55866e-06
1.30419e-06
6.35491e-07
0.00107932
-6.35865e-07
9.19679e-07
-3.66778e-08
4.94862e-07
-8.12292e-07
-1.40316e-06
-1.62449e-07
-0.000265299
1.59162e-06
1.55918e-06
-6.40388e-07
-6.45767e-07
0.000263434
-1.25266e-06
-1.25415e-06
-0.00108229
6.26289e-07
6.27203e-07
0.00108354
-0.00108333
-1.55489e-06
1.25408e-06
6.05946e-07
0.00108452
-6.24067e-07
9.47154e-07
-1.37676e-08
5.1595e-07
-7.89157e-07
-1.39712e-06
-1.36957e-07
-0.00108299
-1.54968e-06
1.25397e-06
6.06427e-07
0.00108418
-6.21489e-07
9.41609e-07
-1.6592e-08
5.16186e-07
-7.91501e-07
-1.39665e-06
-1.34417e-07
-0.000266443
1.58263e-06
1.55e-06
-6.24293e-07
-6.29688e-07
0.000264565
-1.20605e-06
-1.2074e-06
-0.00108722
6.04177e-07
6.051e-07
0.00108843
-0.00108801
-1.54741e-06
1.2076e-06
5.82576e-07
0.00108914
-6.12025e-07
9.6651e-07
3.58495e-09
5.37415e-07
-7.69784e-07
-1.38903e-06
-1.1232e-07
-0.00108766
-1.54211e-06
1.20765e-06
5.8292e-07
0.0010888
-6.09413e-07
9.6101e-07
7.94698e-10
5.37526e-07
-7.72182e-07
-1.38868e-06
-1.09834e-07
-0.000267514
1.57525e-06
1.54227e-06
-6.09998e-07
-6.15664e-07
0.000265622
-1.16583e-06
-1.16653e-06
-0.00109197
5.85613e-07
5.86753e-07
0.00109313
-0.00109245
-1.5419e-06
1.16701e-06
5.64324e-07
0.00109353
-6.02777e-07
9.83552e-07
1.78911e-08
5.5835e-07
-7.52789e-07
-1.38091e-06
-9.10844e-08
-0.00109211
-1.53649e-06
1.16697e-06
5.64364e-07
0.00109319
-6.00053e-07
9.78118e-07
1.51637e-08
5.58418e-07
-7.5523e-07
-1.38064e-06
-8.8656e-08
-0.000268517
1.5698e-06
1.53661e-06
-5.98186e-07
-6.03965e-07
0.000266612
-1.13102e-06
-1.132e-06
-0.00109655
5.70204e-07
5.7156e-07
0.00109767
-0.00109669
-1.53805e-06
1.13252e-06
5.49784e-07
0.00109772
-5.96026e-07
9.98614e-07
2.97315e-08
5.78475e-07
-7.38191e-07
-1.37344e-06
-7.28917e-08
-0.00109635
-1.53265e-06
1.13222e-06
5.49881e-07
0.00109738
-5.93301e-07
9.93126e-07
2.69546e-08
5.78662e-07
-7.40481e-07
-1.37304e-06
-7.04215e-08
-0.000269456
1.56616e-06
1.53283e-06
-5.88586e-07
-5.94383e-07
0.00026754
-1.10067e-06
-1.10191e-06
-0.00110099
5.57129e-07
5.58153e-07
0.00110207
-0.00110074
-1.5362e-06
1.10213e-06
5.37181e-07
0.00110173
-5.91764e-07
1.01178e-06
4.38696e-08
5.97486e-07
-7.25567e-07
-1.3668e-06
-5.75937e-08
-0.0011004
-1.53084e-06
1.10252e-06
5.38057e-07
0.00110138
-5.89078e-07
1.00625e-06
3.97419e-08
5.97667e-07
-7.27865e-07
-1.36639e-06
-5.52217e-08
-0.000270337
1.56436e-06
1.53083e-06
-5.81003e-07
-5.86777e-07
0.00026841
-1.07404e-06
-1.07559e-06
-0.00110529
5.45893e-07
5.46311e-07
0.00110635
-0.00110462
-1.53525e-06
1.0756e-06
5.27438e-07
0.00110557
-5.85811e-07
1.0242e-06
5.212e-08
6.15443e-07
-7.13874e-07
-1.36053e-06
-4.46323e-08
-0.00110428
-1.53009e-06
1.07614e-06
5.28614e-07
0.00110522
-5.86135e-07
1.01843e-06
5.16131e-08
6.15446e-07
-7.16405e-07
-1.36032e-06
-4.24471e-08
-0.000271164
1.5638e-06
1.53012e-06
-5.74836e-07
-5.80667e-07
0.000269226
-1.04966e-06
-1.05145e-06
-0.00110948
5.35266e-07
5.3546e-07
0.00111051
-0.00110835
-1.5348e-06
1.05141e-06
5.18501e-07
0.00110925
-5.83287e-07
1.036e-06
6.1985e-08
6.32362e-07
-7.02217e-07
-1.35396e-06
-3.34089e-08
-0.001108
-1.52965e-06
1.05193e-06
5.19876e-07
0.00110891
-5.8358e-07
1.03019e-06
6.1561e-08
6.32339e-07
-7.04791e-07
-1.35379e-06
-3.14105e-08
-0.00027194
1.56348e-06
1.52975e-06
-5.69231e-07
-5.75035e-07
0.000269991
-1.02632e-06
-1.02749e-06
-0.00111356
5.24345e-07
5.24847e-07
0.00111456
-0.00111192
-1.53463e-06
1.02784e-06
5.09546e-07
0.00111279
-5.8062e-07
1.04742e-06
7.05601e-08
6.47883e-07
-6.90337e-07
-1.34697e-06
-2.10255e-08
-0.00111157
-1.52931e-06
1.02802e-06
5.10283e-07
0.00111244
-5.80745e-07
1.04167e-06
7.03924e-08
6.47778e-07
-6.93016e-07
-1.34689e-06
-1.82635e-08
-0.000272663
1.56332e-06
1.52945e-06
-5.64065e-07
-5.69892e-07
0.000270704
-1.0042e-06
-1.00466e-06
-0.00111754
5.13896e-07
5.14958e-07
0.00111852
-0.00111535
-1.53482e-06
1.00525e-06
5.00026e-07
0.00111618
-5.76968e-07
1.05783e-06
7.88309e-08
6.62186e-07
-6.7753e-07
-1.33909e-06
-8.83296e-09
-0.001115
-1.52917e-06
1.00522e-06
5.0006e-07
0.00111583
-5.76814e-07
1.05242e-06
7.89554e-08
6.62027e-07
-6.80266e-07
-1.33907e-06
-6.13803e-09
-0.000273333
1.56327e-06
1.52936e-06
-5.58619e-07
-5.6438e-07
0.000271363
-9.82519e-07
-9.82511e-07
-0.00112142
5.03794e-07
5.05209e-07
0.00112238
-0.00111862
-1.53455e-06
9.83065e-07
4.89817e-07
0.00111942
-5.71998e-07
1.06758e-06
8.71347e-08
6.75236e-07
-6.63664e-07
-1.3302e-06
2.43696e-09
-0.00111827
-1.52875e-06
9.82866e-07
4.89377e-07
0.00111907
-5.71698e-07
1.06232e-06
8.74047e-08
6.75087e-07
-6.66448e-07
-1.33016e-06
5.13571e-09
-0.000273948
1.56279e-06
1.52885e-06
-5.52058e-07
-5.57763e-07
0.000271966
-9.60705e-07
-9.60947e-07
-0.00112521
4.93947e-07
4.95299e-07
0.00112615
-0.00112175
-1.5333e-06
9.6107e-07
4.79083e-07
0.0011225
-5.65761e-07
1.07737e-06
9.51784e-08
6.87065e-07
-6.49087e-07
-1.32041e-06
1.27619e-08
-0.00112139
-1.52754e-06
9.60692e-07
4.78553e-07
0.00112215
-5.65497e-07
1.072e-06
9.54017e-08
6.87074e-07
-6.51799e-07
-1.3203e-06
1.5536e-08
-0.000274505
1.56155e-06
1.52753e-06
-5.4473e-07
-5.50437e-07
0.000272511
-9.39158e-07
-9.39826e-07
-0.00112891
4.84392e-07
4.85444e-07
0.00112982
-0.00112471
-1.53136e-06
9.3961e-07
4.67847e-07
0.00112543
-5.58164e-07
1.08674e-06
1.03043e-07
6.97804e-07
-6.33949e-07
-1.30971e-06
2.22695e-08
-0.00112436
-1.52572e-06
9.39042e-07
4.67642e-07
0.00112507
-5.58054e-07
1.08126e-06
1.03156e-07
6.97889e-07
-6.3658e-07
-1.3094e-06
2.51503e-08
-0.000275
1.55978e-06
1.5257e-06
-5.36983e-07
-5.42694e-07
0.000272995
-9.1778e-07
-9.18434e-07
-0.00113251
4.7456e-07
4.75498e-07
0.0011334
-0.00112751
-1.5288e-06
9.18449e-07
4.56412e-07
0.00112819
-5.49475e-07
1.09539e-06
1.10636e-07
7.07758e-07
-6.18589e-07
-1.298e-06
3.22045e-08
-0.00112716
-1.52327e-06
9.17633e-07
4.55976e-07
0.00112783
-5.49474e-07
1.08975e-06
1.10622e-07
7.0756e-07
-6.21361e-07
-1.29786e-06
3.65454e-08
-0.000275431
1.55747e-06
1.52327e-06
-5.28689e-07
-5.34464e-07
0.000273413
-8.96914e-07
-8.97547e-07
-0.00113602
4.65174e-07
4.66055e-07
0.00113688
-0.00113014
-1.52565e-06
8.97495e-07
4.44959e-07
0.00113078
-5.39984e-07
1.10324e-06
1.17802e-07
7.16443e-07
-6.03407e-07
-1.28613e-06
4.43507e-08
-0.00112979
-1.52012e-06
8.97e-07
4.44503e-07
0.00113042
-5.39948e-07
1.09765e-06
1.17878e-07
7.16281e-07
-6.06086e-07
-1.28596e-06
4.81764e-08
-0.000275793
1.55452e-06
1.52017e-06
-5.1978e-07
-5.25659e-07
0.000273764
-8.76916e-07
-8.77139e-07
-0.00113944
4.56524e-07
4.57231e-07
0.00114028
-0.0011326
-1.52155e-06
8.77345e-07
4.34433e-07
0.00113319
-5.29534e-07
1.11059e-06
1.24809e-07
7.24505e-07
-5.87937e-07
-1.27327e-06
5.47952e-08
-0.00113224
-1.51604e-06
8.76933e-07
4.34094e-07
0.00113283
-5.29557e-07
1.10496e-06
1.24876e-07
7.24366e-07
-5.9067e-07
-1.27314e-06
5.84032e-08
-0.000276085
1.55062e-06
1.51618e-06
-5.10106e-07
-5.16044e-07
0.000274044
-8.63045e-07
-8.57492e-07
-0.00114275
4.48435e-07
4.49131e-07
0.00114358
-0.00113488
-1.5165e-06
8.5216e-07
4.24072e-07
0.00113542
-5.2141e-07
1.11727e-06
1.34441e-07
7.34934e-07
-5.72532e-07
-1.25937e-06
6.4278e-08
-0.00113452
-1.51103e-06
8.57385e-07
4.13006e-07
-5.18541e-07
1.11163e-06
1.31434e-07
7.32039e-07
-5.75237e-07
-1.25921e-06
6.78184e-08
0.00113507
-0.000276306
1.54563e-06
1.50838e-06
-4.99641e-07
-5.05518e-07
0.000274257
5.2258e-06
5.23687e-06
0.000260566
-0.000259153
-5.94535e-06
-5.93081e-06
5.05362e-06
0.000261439
-0.000258684
-5.96356e-06
3.38108e-06
-5.2259e-06
5.04848e-06
0.000261472
-0.000258699
-5.9713e-06
3.37614e-06
5.22647e-06
0.000260579
-0.000259155
-5.91647e-06
-5.95954e-06
5.04662e-06
0.000261503
-0.000258715
-5.96876e-06
3.37092e-06
5.05324e-06
-5.22806e-06
0.000261446
-0.000258684
3.38593e-06
-5.97335e-06
1.06921e-05
1.05982e-05
-0.000252646
-0.000256096
-0.000255126
-0.000255126
-6.41911e-06
-4.11047e-06
-6.65454e-06
-6.41939e-06
-4.11137e-06
-6.65999e-06
-5.04149e-06
0.0010422
1.06514e-05
1.06035e-05
-0.000252649
-0.000256094
-0.000255129
-0.000255129
-6.42174e-06
-4.11073e-06
-6.65726e-06
-6.41681e-06
-4.10615e-06
-6.65234e-06
-5.04111e-06
0.00104208
1.07115e-05
1.0664e-05
-0.000252641
-0.000256089
-0.000255126
-0.000255121
-6.42141e-06
-4.11806e-06
-6.65707e-06
-6.42161e-06
-4.10829e-06
-6.65466e-06
-5.0559e-06
-5.04396e-06
0.00104214
1.07069e-05
1.06082e-05
-0.000252644
-0.000256091
-0.000255126
-0.000255126
-6.41639e-06
-4.11303e-06
-6.65207e-06
-6.42172e-06
-4.11112e-06
-6.65733e-06
-0.000258709
-5.96118e-06
3.36581e-06
-5.22574e-06
0.000261434
-0.000258681
3.38103e-06
-5.9633e-06
5.22879e-06
0.000260559
-0.00025914
-5.91863e-06
-5.95681e-06
-0.000258694
3.37325e-06
-5.95822e-06
-5.23675e-06
0.0002615
-0.000258709
3.36836e-06
-5.96627e-06
-0.00025915
-5.94514e-06
-5.93099e-06
5.66031e-06
5.69758e-06
-4.95477e-06
-4.94849e-06
0.000259112
-8.12245e-07
-7.76448e-07
0.000261577
-0.000259444
-2.761e-07
-2.6856e-07
7.14235e-06
0.00105866
-4.59157e-06
-1.55102e-06
-2.11626e-06
-2.49187e-06
-6.63919e-06
-7.12115e-06
-2.99273e-06
-0.000263294
-0.000259718
-0.00026282
-5.67057e-06
1.4605e-05
7.08135e-06
0.00105903
-4.61006e-06
-1.54346e-06
-2.11924e-06
-2.50276e-06
-6.67004e-06
-7.13796e-06
-3.00852e-06
-0.000263368
-0.000259749
-0.000262861
0.00106199
2.12376e-06
-0.00106095
1.04483e-06
-1.75888e-06
-1.32131e-07
-7.47165e-07
-1.54236e-06
-2.91924e-07
-9.12739e-07
3.63865e-07
8.2042e-07
0.00106241
2.12391e-06
-0.00106137
1.03959e-06
-1.76911e-06
-1.24814e-07
-7.52229e-07
-1.548e-06
-2.9213e-07
-9.13047e-07
3.69242e-07
-4.95262e-06
-4.94497e-06
0.000259122
-7.79507e-07
0.000261603
-0.000259464
-2.72895e-07
-2.65613e-07
6.86452e-06
0.0010595
-4.61586e-06
-1.61099e-06
-2.1326e-06
-2.50116e-06
-6.6528e-06
-7.13328e-06
-3.0038e-06
-0.000263388
-0.000259777
-0.000262874
-5.67029e-06
1.46394e-05
7.17488e-06
0.0010588
-4.61018e-06
-1.55335e-06
-2.12407e-06
-2.50456e-06
-6.66952e-06
-7.13672e-06
-3.00807e-06
-0.000259718
-0.000263344
-0.000262833
0.00106301
2.13151e-06
-0.00106196
1.03304e-06
-1.7294e-06
-1.34634e-07
-7.4769e-07
-1.54524e-06
-2.91865e-07
-9.10397e-07
3.6641e-07
8.09879e-07
0.0010621
2.13402e-06
-0.00106108
1.05462e-06
-1.75878e-06
-1.29568e-07
-7.47081e-07
-1.54485e-06
-2.89322e-07
-9.15139e-07
3.63854e-07
1.46369e-05
7.16214e-06
0.00105861
-4.5912e-06
-1.55071e-06
-2.11338e-06
-2.49184e-06
-6.63911e-06
-2.9931e-06
-7.11869e-06
-0.000259713
-0.000263288
-0.000262815
2.13101e-06
-0.0010617
1.03781e-06
-1.7289e-06
-1.31569e-07
-7.44093e-07
-1.54293e-06
-2.9451e-07
3.60728e-07
-9.10388e-07
8.09932e-07
0.00106189
2.13416e-06
-0.00106087
1.05442e-06
-1.75855e-06
-1.29505e-07
-7.46739e-07
-1.54515e-06
-2.92037e-07
-9.12679e-07
3.66089e-07
-4.95726e-06
-4.94497e-06
0.000259101
-7.71452e-07
0.000261554
-0.000259425
-2.7596e-07
-2.70848e-07
1.45379e-05
6.88247e-06
0.00105945
-4.61567e-06
-1.61085e-06
-2.13235e-06
-2.50066e-06
-6.6528e-06
-3.00374e-06
-7.13039e-06
-0.000259766
-0.000263386
-0.000262869
2.13607e-06
-0.0010614
1.05335e-06
-1.72644e-06
-1.34097e-07
-7.46926e-07
-1.53957e-06
-2.8966e-07
3.6096e-07
-9.12971e-07
7.71383e-07
0.00106291
2.1362e-06
-0.00106188
1.04294e-06
-1.72407e-06
-1.34376e-07
-7.44762e-07
-1.54261e-06
-2.91896e-07
-9.1303e-07
3.61199e-07
-0.000259441
-2.73353e-07
-2.70944e-07
1.65117e-06
1.61639e-06
-6.95951e-07
-7.04027e-07
0.000259709
-9.07122e-07
-8.68866e-07
0.000262816
-0.00026065
-1.98574e-07
-1.91368e-07
8.32801e-07
0.00106318
-6.82846e-07
8.67789e-07
-9.49595e-08
4.23693e-07
-8.50221e-07
-1.43378e-06
-2.54598e-07
-1.65617e-06
1.65294e-06
8.27308e-07
0.00106361
-6.85327e-07
8.75943e-07
-9.47317e-08
4.28907e-07
-8.53118e-07
-1.4395e-06
-2.52485e-07
0.00106712
1.38929e-06
-0.00106578
7.00101e-07
-1.60533e-06
-7.01902e-08
-6.63451e-07
-1.39301e-06
-2.25938e-07
-8.34613e-07
4.60018e-07
9.1259e-07
0.00106755
1.38974e-06
-0.00106621
6.94924e-07
-1.61038e-06
-7.00588e-08
-6.63363e-07
-1.39636e-06
-2.26342e-07
-8.35172e-07
4.62389e-07
-6.9591e-07
-7.03278e-07
0.000259727
-8.74247e-07
0.000262842
-0.000260663
-1.9834e-07
-1.9381e-07
8.26059e-07
0.0010642
-6.80682e-07
8.32073e-07
-9.72733e-08
4.26176e-07
-8.5293e-07
-1.43667e-06
-2.52129e-07
-1.65096e-06
1.65797e-06
8.32192e-07
0.00106329
-6.85377e-07
8.68092e-07
-9.47107e-08
4.23318e-07
-8.52717e-07
-1.43404e-06
-2.52267e-07
0.00106815
1.39118e-06
-0.00106682
6.98682e-07
-1.56766e-06
-7.44191e-08
-6.58488e-07
-1.39115e-06
-2.23834e-07
-8.351e-07
4.62185e-07
9.0208e-07
0.00106723
1.38965e-06
-0.00106589
6.9982e-07
-1.60258e-06
-7.22496e-08
-6.6341e-07
-1.39358e-06
-2.26187e-07
-8.34855e-07
4.62331e-07
1.65311e-06
8.32247e-07
0.00106309
-6.85157e-07
8.65486e-07
-9.69305e-08
4.2326e-07
-8.52876e-07
-2.52253e-07
-1.4342e-06
1.3909e-06
-0.00106655
7.03984e-07
-1.57519e-06
-7.63505e-08
-6.58047e-07
-1.39135e-06
-2.24177e-07
4.61788e-07
-8.35279e-07
9.0471e-07
0.00106703
1.38444e-06
-0.00106568
6.99744e-07
-1.60242e-06
-7.21708e-08
-6.6319e-07
-1.39356e-06
-2.26211e-07
-8.34816e-07
4.59512e-07
-6.98675e-07
-7.00766e-07
0.000259689
-8.66218e-07
0.00026279
-0.00026063
-1.98724e-07
-1.93693e-07
1.65402e-06
8.20645e-07
0.00106413
-6.80477e-07
8.26923e-07
-1.01669e-07
4.20872e-07
-8.50417e-07
-2.57036e-07
-1.43144e-06
1.3909e-06
-0.00106622
6.98861e-07
-1.5648e-06
-7.63959e-08
-6.5806e-07
-1.38582e-06
-2.2642e-07
4.53752e-07
-8.35139e-07
8.68765e-07
0.00106806
1.39073e-06
-0.00106672
6.98374e-07
-1.56502e-06
-7.65836e-08
-6.58432e-07
-1.39365e-06
-2.26202e-07
-8.37725e-07
4.5963e-07
-0.000260637
-1.98665e-07
-1.93729e-07
1.60513e-06
1.57258e-06
-6.60812e-07
-6.69224e-07
0.000260968
-9.28034e-07
-8.92081e-07
0.000264096
-0.000261921
-1.79723e-07
-1.74854e-07
6.91667e-07
0.00106847
-6.65124e-07
9.11606e-07
-6.69464e-08
4.62319e-07
-8.34318e-07
-1.39304e-06
-2.23399e-07
-1.61026e-06
1.3752e-06
7.02341e-07
0.00106889
-6.65045e-07
9.1708e-07
-6.6794e-08
4.67467e-07
-8.37485e-07
-1.399e-06
-2.19025e-07
0.00107247
1.35906e-06
-0.00107114
6.74673e-07
-1.60619e-06
-5.59756e-08
-6.59017e-07
-1.40287e-06
-2.04113e-07
-8.28599e-07
4.71804e-07
9.33558e-07
0.00107289
1.35961e-06
-0.00107156
6.75023e-07
-1.61133e-06
-5.37756e-08
-6.61607e-07
-1.41127e-06
-1.99601e-07
-8.34271e-07
4.79939e-07
-6.63605e-07
-6.66075e-07
0.000260989
-8.94952e-07
0.000264124
-0.000261947
-1.76834e-07
-1.7207e-07
6.90457e-07
0.0010695
-6.62792e-07
8.75913e-07
-7.11398e-08
4.64498e-07
-8.37461e-07
-1.39902e-06
-2.18973e-07
-1.60242e-06
1.37504e-06
6.96997e-07
0.00106857
-6.65116e-07
9.09148e-07
-6.6831e-08
4.64825e-07
-8.37074e-07
-1.39607e-06
-2.18788e-07
0.0010735
1.36073e-06
-0.00107217
6.73968e-07
-1.57102e-06
-5.80622e-08
-6.56739e-07
-1.40589e-06
-1.99579e-07
-8.3431e-07
4.74439e-07
9.28135e-07
0.00107257
1.359e-06
-0.00107125
6.75078e-07
-1.60616e-06
-5.3867e-08
-6.61739e-07
-1.40532e-06
-1.99252e-07
-8.33697e-07
4.74788e-07
1.3802e-06
6.91433e-07
0.00106838
-6.62285e-07
9.06525e-07
-7.10898e-08
4.64474e-07
-8.37188e-07
-2.21333e-07
-1.39624e-06
1.36027e-06
-0.00107191
6.73746e-07
-1.57338e-06
-5.77683e-08
-6.56269e-07
-1.40336e-06
-2.02112e-07
4.71542e-07
-8.31738e-07
9.22804e-07
0.00107237
1.35944e-06
-0.00107105
6.75057e-07
-1.60086e-06
-5.79887e-08
-6.56244e-07
-1.40326e-06
-2.02075e-07
-8.31539e-07
4.71529e-07
-6.63796e-07
-6.68578e-07
0.000260953
-8.8957e-07
0.000264075
-0.000261906
-1.79491e-07
-1.72195e-07
1.37605e-06
6.95324e-07
0.00106941
-6.57528e-07
8.67927e-07
-7.54741e-08
4.62022e-07
-8.34839e-07
-2.21309e-07
-1.39374e-06
1.36036e-06
-0.00107157
6.73682e-07
-1.56812e-06
-5.98862e-08
-6.53647e-07
-1.4031e-06
-1.99695e-07
4.71469e-07
-8.34215e-07
8.8929e-07
0.00107341
1.36046e-06
-0.00107208
6.73758e-07
-1.56852e-06
-6.01775e-08
-6.54165e-07
-1.40067e-06
-2.01891e-07
-8.31631e-07
4.6919e-07
-0.000261919
-1.7738e-07
-1.72195e-07
1.60498e-06
1.56982e-06
-6.53035e-07
-6.58756e-07
0.000262233
-9.5253e-07
-9.16348e-07
0.000265315
-0.000263143
-1.54026e-07
-1.49044e-07
6.673e-07
0.00107378
-6.5602e-07
9.34105e-07
-5.11516e-08
4.75868e-07
-8.25268e-07
-1.40419e-06
-1.96843e-07
-1.61013e-06
1.35013e-06
6.67599e-07
0.0010742
-6.58633e-07
9.39637e-07
-4.9001e-08
4.84094e-07
-8.30883e-07
-1.41251e-06
-1.92282e-07
0.00107763
1.31565e-06
-0.00107636
6.4413e-07
-1.59918e-06
-3.7206e-08
-6.44991e-07
-1.40414e-06
-1.74456e-07
-8.11986e-07
4.899e-07
9.58102e-07
0.00107805
1.31606e-06
-0.00107678
6.44289e-07
-1.60432e-06
-3.51706e-08
-6.47645e-07
-1.41237e-06
-1.6987e-07
-8.17543e-07
4.9823e-07
-6.55895e-07
-6.60712e-07
0.000262259
-9.19182e-07
0.000265343
-0.000263168
-1.5112e-07
-1.46213e-07
6.66586e-07
0.00107481
-6.53789e-07
8.98071e-07
-5.32435e-08
4.78622e-07
-8.30901e-07
-1.40708e-06
-1.92246e-07
-1.60497e-06
1.34949e-06
6.67722e-07
0.00107388
-6.58767e-07
9.34191e-07
-4.90909e-08
4.78911e-07
-8.30323e-07
-1.40656e-06
-1.91965e-07
0.00107867
1.31694e-06
-0.00107739
6.43282e-07
-1.56392e-06
-3.92275e-08
-6.42799e-07
-1.40689e-06
-1.69785e-07
-8.17487e-07
4.92761e-07
9.5265e-07
0.00107773
1.31573e-06
-0.00107646
6.4448e-07
-1.59915e-06
-3.52201e-08
-6.47743e-07
-1.40659e-06
-1.69724e-07
-8.17159e-07
4.92823e-07
1.35001e-06
6.67826e-07
0.00107368
-6.53289e-07
9.28827e-07
-5.31701e-08
4.75638e-07
-8.28205e-07
-1.94804e-07
-1.40452e-06
1.31632e-06
-0.00107713
6.43099e-07
-1.56631e-06
-3.90047e-08
-6.4239e-07
-1.40413e-06
-1.72165e-07
4.90005e-07
-8.14727e-07
9.47187e-07
0.00107753
1.31632e-06
-0.00107626
6.451e-07
-1.59395e-06
-3.91639e-08
-6.42333e-07
-1.40452e-06
-1.72525e-07
-8.15019e-07
4.89568e-07
-6.53304e-07
-6.60782e-07
0.000262217
-9.13748e-07
0.000265294
-0.000263127
-1.53837e-07
-1.464e-07
1.35089e-06
6.66469e-07
0.00107472
-6.51231e-07
8.95255e-07
-5.53489e-08
4.73348e-07
-8.28237e-07
-1.94562e-07
-1.40187e-06
1.31649e-06
-0.00107679
6.43163e-07
-1.56103e-06
-4.0999e-08
-6.39755e-07
-1.4041e-06
-1.69893e-07
4.89781e-07
-8.17406e-07
9.13445e-07
0.00107858
1.31669e-06
-0.00107731
6.43534e-07
-1.56153e-06
-4.12886e-08
-6.40332e-07
-1.40169e-06
-1.72095e-07
-8.14844e-07
4.87472e-07
-0.00026314
-1.51794e-07
-1.46454e-07
1.59688e-06
1.56153e-06
-6.37525e-07
-6.43192e-07
0.000263437
-9.75318e-07
-9.39082e-07
0.000266459
-0.000264292
-1.29117e-07
-1.23973e-07
6.36168e-07
0.00107889
-6.41139e-07
9.58505e-07
-3.2218e-08
4.9502e-07
-8.06925e-07
-1.40314e-06
-1.67039e-07
-1.60206e-06
1.30348e-06
6.36143e-07
0.00107931
-6.43873e-07
9.64038e-07
-2.94723e-08
5.03311e-07
-8.12522e-07
-1.41142e-06
-1.625e-07
0.00108255
1.26507e-06
-0.00108135
6.13553e-07
-1.59011e-06
-1.62783e-08
-6.30223e-07
-1.39855e-06
-1.45719e-07
-7.91326e-07
5.10923e-07
9.80816e-07
0.00108298
1.26542e-06
-0.00108177
6.13785e-07
-1.59535e-06
-1.35351e-08
-6.32952e-07
-1.40696e-06
-1.41289e-07
-7.96979e-07
5.19101e-07
-6.40427e-07
-6.45123e-07
0.000263463
-9.41906e-07
0.000266488
-0.000264318
-1.26356e-07
-1.21202e-07
6.3545e-07
0.00107992
-6.38869e-07
9.22333e-07
-3.48818e-08
4.9786e-07
-8.12419e-07
-1.40591e-06
-1.62383e-07
-1.59687e-06
1.30325e-06
6.36366e-07
0.00107899
-6.43943e-07
9.58617e-07
-2.95125e-08
4.97845e-07
-8.12171e-07
-1.40569e-06
-1.62381e-07
0.00108359
1.26659e-06
-0.00108239
6.12868e-07
-1.55463e-06
-1.89434e-08
-6.27889e-07
-1.40137e-06
-1.41122e-07
-7.96847e-07
5.13735e-07
9.75474e-07
0.00108266
1.26531e-06
-0.00108145
6.13987e-07
-1.59006e-06
-1.35144e-08
-6.32972e-07
-1.40131e-06
-1.41189e-07
-7.96684e-07
5.13548e-07
1.30406e-06
6.3735e-07
0.00107879
-6.38401e-07
9.53218e-07
-3.4821e-08
4.94626e-07
-8.09995e-07
-1.65143e-07
-1.40359e-06
1.26645e-06
-0.00108212
6.12674e-07
-1.55703e-06
-1.86569e-08
-6.27483e-07
-1.39892e-06
-1.43631e-07
5.10616e-07
-7.94242e-07
9.70101e-07
0.00108246
1.26603e-06
-0.00108125
6.14485e-07
-1.58475e-06
-1.88209e-08
-6.274e-07
-1.39907e-06
-1.43832e-07
-7.94407e-07
5.10488e-07
-6.37887e-07
-6.45217e-07
0.000263421
-9.36371e-07
0.000266438
-0.000264276
-1.29166e-07
-1.21157e-07
1.30431e-06
6.35856e-07
0.00107983
-6.36416e-07
9.19409e-07
-3.69182e-08
4.92592e-07
-8.09763e-07
-1.64664e-07
-1.40069e-06
1.26635e-06
-0.00108178
6.13173e-07
-1.55182e-06
-2.14628e-08
-6.24904e-07
-1.39846e-06
-1.41129e-07
5.10862e-07
-7.96668e-07
9.3624e-07
0.0010835
1.26646e-06
-0.0010823
6.13288e-07
-1.55218e-06
-2.16909e-08
-6.25351e-07
-1.3961e-06
-1.43356e-07
-7.94146e-07
5.0847e-07
-0.000264289
-1.26751e-07
-1.21221e-07
1.588e-06
1.55247e-06
-6.21492e-07
-6.27168e-07
0.000264567
-9.95494e-07
-9.59155e-07
0.00026753
-0.000265367
-1.06725e-07
-1.01547e-07
6.06759e-07
0.00108375
-6.2681e-07
9.80596e-07
-1.13945e-08
5.16317e-07
-7.86186e-07
-1.39668e-06
-1.38998e-07
-1.59328e-06
1.25317e-06
6.07085e-07
0.00108417
-6.29569e-07
9.86075e-07
-8.66543e-09
5.2446e-07
-7.91909e-07
-1.40516e-06
-1.34626e-07
0.00108723
1.21718e-06
-0.00108608
5.88416e-07
-1.58226e-06
1.98666e-09
-6.17491e-07
-1.39063e-06
-1.20116e-07
-7.71392e-07
5.32476e-07
1.00091e-06
0.00108766
1.21782e-06
-0.00108651
5.89054e-07
-1.58761e-06
4.65151e-09
-6.20291e-07
-1.39916e-06
-1.15766e-07
-7.77124e-07
5.40604e-07
-6.24454e-07
-6.29177e-07
0.000264593
-9.61903e-07
0.000267559
-0.000265393
-1.04054e-07
-9.88659e-08
6.0611e-07
0.00108479
-6.24459e-07
9.44336e-07
-1.40504e-08
5.19122e-07
-7.91709e-07
-1.39951e-06
-1.34417e-07
-1.58795e-06
1.25294e-06
6.07284e-07
0.00108385
-6.2956e-07
9.80742e-07
-8.63574e-09
5.18907e-07
-7.91548e-07
-1.39948e-06
-1.34488e-07
0.00108827
1.21855e-06
-0.00108713
5.87832e-07
-1.5466e-06
-6.58826e-10
-6.15101e-07
-1.39345e-06
-1.1559e-07
-7.76924e-07
5.35304e-07
9.95566e-07
0.00108733
1.21756e-06
-0.00108619
5.89251e-07
-1.58227e-06
4.69555e-09
-6.20281e-07
-1.39351e-06
-1.15688e-07
-7.76797e-07
5.3501e-07
1.25353e-06
6.07595e-07
0.00108365
-6.23974e-07
9.75372e-07
-1.39371e-08
5.15923e-07
-7.89228e-07
-1.37071e-07
-1.39717e-06
1.2187e-06
-0.00108686
5.87894e-07
-1.54909e-06
-4.46141e-10
-6.14749e-07
-1.39111e-06
-1.18162e-07
5.32072e-07
-7.74421e-07
9.90201e-07
0.00108713
1.21764e-06
-0.00108598
5.89101e-07
-1.57692e-06
-6.17931e-10
-6.14678e-07
-1.39092e-06
-1.18049e-07
-7.7425e-07
5.32284e-07
-6.21961e-07
-6.29143e-07
0.000264552
-9.56381e-07
0.000267509
-0.000265351
-1.06811e-07
-9.88406e-08
1.25407e-06
6.06415e-07
0.0010847
-6.21893e-07
9.41522e-07
-1.67767e-08
5.13823e-07
-7.89025e-07
-1.36661e-07
-1.39426e-06
1.21869e-06
-0.00108652
5.88291e-07
-1.54383e-06
-3.26143e-09
-6.12166e-07
-1.39065e-06
-1.15654e-07
5.32288e-07
-7.76813e-07
9.56427e-07
0.00108818
1.21871e-06
-0.00108704
5.87925e-07
-1.54402e-06
-3.3152e-09
-6.12442e-07
-1.38831e-06
-1.17874e-07
-7.74315e-07
5.29864e-07
-0.000265365
-1.04205e-07
-9.88763e-08
1.58058e-06
1.54488e-06
-6.07347e-07
-6.13043e-07
0.000265625
-1.01599e-06
-9.76813e-07
0.000268535
-0.000266374
-8.70032e-08
-8.17505e-08
5.83032e-07
0.00108836
-6.1475e-07
1.00282e-06
8.7023e-09
5.37802e-07
-7.66767e-07
-1.38857e-06
-1.14276e-07
-1.58596e-06
1.20676e-06
5.83748e-07
0.00108879
-6.17576e-07
1.00555e-06
8.68746e-09
5.45943e-07
-7.72491e-07
-1.39711e-06
-1.09937e-07
0.00109167
1.17524e-06
-0.00109058
5.6866e-07
-1.57895e-06
1.98075e-08
-6.10177e-07
-1.38253e-06
-9.8024e-08
-7.53791e-07
5.53468e-07
1.01866e-06
0.0010921
1.17586e-06
-0.00109101
5.69525e-07
-1.58175e-06
1.97064e-08
-6.10402e-07
-1.38834e-06
-9.37154e-08
-7.59506e-07
5.59016e-07
-6.10421e-07
-6.15134e-07
0.000265651
-9.79482e-07
0.000268562
-0.0002664
-8.44196e-08
-7.91716e-08
5.82423e-07
0.00108941
-6.12345e-07
9.63788e-07
3.39732e-09
5.40645e-07
-7.72277e-07
-1.39138e-06
-1.09758e-07
-1.58061e-06
1.20646e-06
5.83891e-07
0.00108847
-6.17547e-07
1.00021e-06
8.7493e-09
5.40331e-07
-7.72173e-07
-1.39146e-06
-1.09878e-07
0.00109272
1.17617e-06
-0.00109163
5.68122e-07
-1.54051e-06
1.44375e-08
-6.05093e-07
-1.38523e-06
-9.35132e-08
-7.59236e-07
5.56432e-07
1.01334e-06
0.00109178
1.17546e-06
-0.00109069
5.6948e-07
-1.57635e-06
1.98312e-08
-6.10303e-07
-1.38537e-06
-9.3702e-08
-7.59235e-07
5.56073e-07
1.2064e-06
5.83637e-07
0.00108826
-6.11941e-07
9.94843e-07
3.42999e-09
5.37671e-07
-7.69559e-07
-1.12171e-07
-1.3888e-06
1.17658e-06
-0.00109136
5.685e-07
-1.5431e-06
1.45555e-08
-6.04843e-07
-1.38289e-06
-9.60992e-08
5.53184e-07
-7.56805e-07
1.00794e-06
0.00109157
1.17517e-06
-0.00109048
5.69116e-07
-1.57098e-06
1.44511e-08
-6.04718e-07
-1.38258e-06
-9.5853e-08
-7.56475e-07
5.53511e-07
-6.07828e-07
-6.15134e-07
0.000265609
-9.74041e-07
0.000268511
-0.000266358
-8.71102e-08
-7.91179e-08
1.20761e-06
5.82439e-07
0.00108932
-6.09653e-07
9.61089e-07
7.70805e-10
5.35168e-07
-7.6969e-07
-1.12054e-07
-1.38628e-06
1.17659e-06
-0.00109102
5.68586e-07
-1.53771e-06
1.18257e-08
-6.02139e-07
-1.38257e-06
-9.36878e-08
5.53289e-07
-7.5928e-07
9.74171e-07
0.00109263
1.17652e-06
-0.00109154
5.6798e-07
-1.53782e-06
1.18492e-08
-6.02336e-07
-1.3802e-06
-9.58362e-08
-7.56743e-07
5.50884e-07
-0.000266371
-8.44081e-08
-7.91486e-08
1.57776e-06
1.53928e-06
-5.95621e-07
-6.01265e-07
0.000266615
-1.03175e-06
-9.92297e-07
0.000269474
-0.000267316
-6.98968e-08
-6.42986e-08
5.64433e-07
0.00109274
-6.08088e-07
1.02012e-06
2.32069e-08
5.58601e-07
-7.49758e-07
-1.38058e-06
-9.08024e-08
-1.58058e-06
1.16633e-06
5.65333e-07
0.00109318
-6.08344e-07
1.02277e-06
2.30621e-08
5.64172e-07
-7.55515e-07
-1.38638e-06
-8.87103e-08
0.0010959
1.13941e-06
-0.00109486
5.53118e-07
-1.5749e-06
3.2848e-08
-6.02882e-07
-1.37508e-06
-7.70032e-08
-7.41412e-07
5.73592e-07
1.0344e-06
0.00109634
1.13964e-06
-0.0010953
5.53809e-07
-1.57773e-06
3.26072e-08
-6.03101e-07
-1.38077e-06
-7.4819e-08
-7.44337e-07
5.79299e-07
-5.98743e-07
-6.03455e-07
0.000266641
-9.95035e-07
0.000269501
-0.000267343
-6.7164e-08
-6.17913e-08
5.63906e-07
0.0010938
-6.03001e-07
9.80887e-07
1.77799e-08
5.61599e-07
-7.55221e-07
-1.38325e-06
-8.85045e-08
-1.57516e-06
1.1659e-06
5.65232e-07
0.00109286
-6.08223e-07
1.01747e-06
2.31969e-08
5.61243e-07
-7.55241e-07
-1.3834e-06
-8.8702e-08
0.00109696
1.14e-06
-0.00109592
5.52886e-07
-1.5363e-06
2.68441e-08
-5.97732e-07
-1.37756e-06
-7.45993e-08
-7.43997e-07
5.76782e-07
1.02911e-06
0.00109601
1.13913e-06
-0.00109497
5.53688e-07
-1.5723e-06
3.28112e-08
-6.02989e-07
-1.37771e-06
-7.48148e-08
-7.44058e-07
5.76439e-07
1.16558e-06
5.64849e-07
0.00109265
-6.02639e-07
1.01206e-06
1.78011e-08
5.5868e-07
-7.52444e-07
-9.08289e-08
-1.3806e-06
1.14052e-06
-0.00109565
5.53168e-07
-1.53887e-06
2.69927e-08
-5.97476e-07
-1.37524e-06
-7.7153e-08
5.7353e-07
-7.41625e-07
1.02371e-06
0.00109581
1.13903e-06
-0.00109477
5.53617e-07
-1.56691e-06
2.69638e-08
-5.97332e-07
-1.37493e-06
-7.68945e-08
-7.41248e-07
5.7384e-07
-5.96065e-07
-6.03427e-07
0.000266599
-9.89564e-07
0.000269451
-0.0002673
-6.99348e-08
-6.16309e-08
1.16689e-06
5.6376e-07
0.00109371
-6.00246e-07
9.78259e-07
1.51935e-08
5.56052e-07
-7.52707e-07
-9.08184e-08
-1.37822e-06
1.14024e-06
-0.00109531
5.53161e-07
-1.53346e-06
2.4234e-08
-5.94745e-07
-1.3748e-06
-7.47127e-08
5.73746e-07
-7.43987e-07
9.89794e-07
0.00109687
1.14014e-06
-0.00109583
5.52681e-07
-1.53363e-06
2.43102e-08
-5.94934e-07
-1.3725e-06
-7.68539e-08
-7.41497e-07
5.71262e-07
-0.000267314
-6.70752e-08
-6.1725e-08
1.57422e-06
1.53552e-06
-5.86156e-07
-5.91617e-07
0.000267542
-1.04519e-06
-1.00571e-06
0.000270356
-0.0002682
-5.54857e-08
-4.94762e-08
5.49414e-07
0.00109693
-6.01592e-07
1.03529e-06
3.71506e-08
5.78461e-07
-7.38065e-07
-1.37335e-06
-7.27889e-08
-1.57704e-06
1.13114e-06
5.4996e-07
0.00109737
-6.01791e-07
1.03795e-06
3.69414e-08
5.84243e-07
-7.40932e-07