/*--------------------------------*- C++ -*----------------------------------*\
| =========                 |                                                 |
| \\      /  F ield         | OpenFOAM: The Open Source CFD Toolbox           |
|  \\    /   O peration     | Version:  v1906                                 |
|   \\  /    A nd           | Web:      www.OpenFOAM.com                      |
|    \\/     M anipulation  |                                                 |
\*---------------------------------------------------------------------------*/
FoamFile
{
    version     2.0;
    format      ascii;
    class       volScalarField;
    location    "0.11";
    object      p;
}
// * * * * * * * * * * * * * * * * * * * * * * * * * * * * * * * * * * * * * //

dimensions      [0 2 -2 0 0 0 0];


internalField   nonuniform List<scalar> 
247104
(
4.85314e-10
2.39573e-09
2.28447e-09
2.01354e-09
1.70186e-09
2.06238e-09
2.30144e-09
2.30833e-09
2.39843e-09
2.47467e-09
2.49792e-09
2.23751e-09
2.05832e-09
2.27441e-09
2.51209e-09
2.44076e-09
2.32697e-09
2.51667e-09
2.23788e-09
1.82711e-09
1.65405e-09
1.87046e-09
2.28611e-09
2.51658e-09
2.27482e-09
2.09422e-09
2.27665e-09
1.84263e-09
1.35636e-09
1.17415e-09
1.40445e-09
1.9083e-09
2.29853e-09
2.01824e-09
1.63248e-09
1.82835e-09
2.11122e-09
1.67952e-09
1.1841e-09
1.00094e-09
1.23307e-09
1.74736e-09
2.1288e-09
1.73536e-09
2.15013e-09
2.32298e-09
1.89863e-09
1.41971e-09
1.23941e-09
1.46777e-09
1.96396e-09
2.34512e-09
2.07643e-09
2.34944e-09
2.54902e-09
2.31236e-09
1.9257e-09
1.75757e-09
1.96834e-09
2.35819e-09
2.54843e-09
2.31171e-09
2.34412e-09
2.4701e-09
2.53999e-09
2.31665e-09
2.14169e-09
2.3525e-09
2.55119e-09
2.4358e-09
2.29554e-09
2.03713e-09
1.75121e-09
2.08619e-09
2.31598e-09
-3.20188e-08
-3.4189e-08
-3.36759e-08
-3.48757e-08
-3.54423e-08
-3.54249e-08
-3.54894e-08
-3.32388e-08
-3.30981e-08
-3.36856e-08
-3.59236e-08
-3.93919e-08
-3.96362e-08
-3.96373e-08
-3.93922e-08
-3.55378e-08
-3.52793e-08
-3.48709e-08
-3.93923e-08
-3.95051e-08
-3.9514e-08
-3.9514e-08
-3.95049e-08
-3.93897e-08
-3.49576e-08
-3.37129e-08
-3.20118e-08
-3.54504e-08
-3.96334e-08
-3.95118e-08
-3.93878e-08
-3.9388e-08
-3.95121e-08
-3.9633e-08
-3.53602e-08
-3.31279e-08
-3.41358e-08
-3.54131e-08
-3.96312e-08
-3.95098e-08
-3.93858e-08
-3.93861e-08
-3.95103e-08
-3.96308e-08
-3.52496e-08
-3.56687e-08
-3.54657e-08
-3.93861e-08
-3.94996e-08
-3.95081e-08
-3.95086e-08
-3.95002e-08
-3.93855e-08
-3.52617e-08
-3.42311e-08
-3.3241e-08
-3.55293e-08
-3.93844e-08
-3.96275e-08
-3.96296e-08
-3.93875e-08
-3.55734e-08
-3.49887e-08
-3.31665e-08
-3.30678e-08
-3.5268e-08
-3.49423e-08
-3.53412e-08
-3.52426e-08
-3.52639e-08
-3.49936e-08
-3.18926e-08
-3.37274e-08
-3.30861e-08
-3.5653e-08
-3.42247e-08
-3.3181e-08
-5.21802e-08
-5.23814e-08
-5.25955e-08
-5.48329e-08
-5.4855e-08
-5.48511e-08
-5.48363e-08
-5.228e-08
-5.22508e-08
-5.25851e-08
-5.53773e-08
-5.86072e-08
-5.88401e-08
-5.8842e-08
-5.86107e-08
-5.43343e-08
-5.4361e-08
-5.48322e-08
-5.86145e-08
-5.91392e-08
-5.91702e-08
-5.91707e-08
-5.91393e-08
-5.86064e-08
-5.36069e-08
-5.16836e-08
-5.21762e-08
-5.48523e-08
-5.88415e-08
-5.91716e-08
-5.91794e-08
-5.91794e-08
-5.91711e-08
-5.88397e-08
-5.37184e-08
-5.22585e-08
-5.23754e-08
-5.48474e-08
-5.88412e-08
-5.91717e-08
-5.91795e-08
-5.91794e-08
-5.91704e-08
-5.88395e-08
-5.38594e-08
-5.45256e-08
-5.48333e-08
-5.86106e-08
-5.91389e-08
-5.91711e-08
-5.91715e-08
-5.91386e-08
-5.86092e-08
-5.35966e-08
-5.18046e-08
-5.22793e-08
-5.43346e-08
-5.86095e-08
-5.88405e-08
-5.88442e-08
-5.86098e-08
-5.384e-08
-5.39289e-08
-5.18472e-08
-5.22472e-08
-5.43632e-08
-5.36089e-08
-5.37198e-08
-5.38608e-08
-5.35973e-08
-5.39278e-08
-5.1692e-08
-5.16831e-08
-5.22539e-08
-5.45267e-08
-5.18011e-08
-5.1846e-08
-7.26028e-08
-7.27664e-08
-7.27918e-08
-7.52001e-08
-7.51868e-08
-7.53056e-08
-7.51071e-08
-7.25083e-08
-7.24938e-08
-7.27889e-08
-7.61207e-08
-7.91186e-08
-7.91969e-08
-7.9199e-08
-7.91196e-08
-7.47576e-08
-7.44497e-08
-7.52033e-08
-7.91184e-08
-7.93109e-08
-7.9322e-08
-7.93224e-08
-7.93104e-08
-7.9119e-08
-7.37607e-08
-7.19958e-08
-7.26008e-08
-7.51837e-08
-7.9198e-08
-7.93232e-08
-7.93298e-08
-7.93295e-08
-7.93215e-08
-7.91948e-08
-7.36697e-08
-7.26766e-08
-7.27644e-08
-7.53004e-08
-7.91981e-08
-7.9323e-08
-7.93299e-08
-7.93297e-08
-7.93217e-08
-7.91967e-08
-7.37704e-08
-7.4743e-08
-7.51049e-08
-7.91186e-08
-7.93107e-08
-7.93227e-08
-7.93233e-08
-7.93107e-08
-7.91187e-08
-7.3641e-08
-7.22216e-08
-7.24974e-08
-7.47625e-08
-7.91209e-08
-7.91974e-08
-7.9199e-08
-7.91163e-08
-7.37381e-08
-7.40555e-08
-7.20713e-08
-7.24784e-08
-7.44724e-08
-7.37639e-08
-7.3672e-08
-7.37722e-08
-7.36435e-08
-7.40553e-08
-7.2166e-08
-7.19968e-08
-7.26801e-08
-7.47457e-08
-7.22197e-08
-7.20688e-08
-9.28858e-08
-9.30305e-08
-9.31795e-08
-9.5643e-08
-9.56301e-08
-9.58296e-08
-9.55299e-08
-9.28845e-08
-9.28322e-08
-9.31842e-08
-9.68464e-08
-9.96937e-08
-9.97147e-08
-9.97149e-08
-9.96956e-08
-9.53611e-08
-9.47912e-08
-9.56478e-08
-9.96974e-08
-9.9745e-08
-9.97472e-08
-9.97474e-08
-9.97453e-08
-9.96949e-08
-9.40737e-08
-9.23032e-08
-9.28814e-08
-9.56334e-08
-9.97156e-08
-9.97475e-08
-9.97484e-08
-9.97484e-08
-9.97473e-08
-9.97161e-08
-9.38179e-08
-9.29096e-08
-9.30343e-08
-9.58314e-08
-9.97153e-08
-9.97476e-08
-9.97484e-08
-9.97484e-08
-9.97472e-08
-9.97151e-08
-9.3899e-08
-9.49315e-08
-9.553e-08
-9.96956e-08
-9.97452e-08
-9.97475e-08
-9.97475e-08
-9.97449e-08
-9.9695e-08
-9.38752e-08
-9.24632e-08
-9.28848e-08
-9.536e-08
-9.96939e-08
-9.97158e-08
-9.97164e-08
-9.96956e-08
-9.39481e-08
-9.43652e-08
-9.24012e-08
-9.2835e-08
-9.47911e-08
-9.40738e-08
-9.38199e-08
-9.39001e-08
-9.38765e-08
-9.43649e-08
-9.2474e-08
-9.23041e-08
-9.29118e-08
-9.49327e-08
-9.24595e-08
-9.23975e-08
-1.13292e-07
-1.1343e-07
-1.1363e-07
-1.1611e-07
-1.16088e-07
-1.1634e-07
-1.15988e-07
-1.13331e-07
-1.13278e-07
-1.13631e-07
-1.17384e-07
-1.20205e-07
-1.20211e-07
-1.20211e-07
-1.20205e-07
-1.15889e-07
-1.15225e-07
-1.16114e-07
-1.20203e-07
-1.20217e-07
-1.20218e-07
-1.20217e-07
-1.20216e-07
-1.20203e-07
-1.14499e-07
-1.12724e-07
-1.13286e-07
-1.1609e-07
-1.20212e-07
-1.20218e-07
-1.20218e-07
-1.20217e-07
-1.20217e-07
-1.2021e-07
-1.14196e-07
-1.1329e-07
-1.13428e-07
-1.16346e-07
-1.20211e-07
-1.20218e-07
-1.20218e-07
-1.20217e-07
-1.20217e-07
-1.20209e-07
-1.14267e-07
-1.15301e-07
-1.15988e-07
-1.20205e-07
-1.20218e-07
-1.20218e-07
-1.20218e-07
-1.20217e-07
-1.20205e-07
-1.14276e-07
-1.12852e-07
-1.1333e-07
-1.15897e-07
-1.20205e-07
-1.20211e-07
-1.20211e-07
-1.20204e-07
-1.14329e-07
-1.14783e-07
-1.1283e-07
-1.1328e-07
-1.15222e-07
-1.14498e-07
-1.14187e-07
-1.14265e-07
-1.14275e-07
-1.14785e-07
-1.12916e-07
-1.12724e-07
-1.13285e-07
-1.15297e-07
-1.12847e-07
-1.12829e-07
-1.3375e-07
-1.33883e-07
-1.34101e-07
-1.36586e-07
-1.36564e-07
-1.36831e-07
-1.36464e-07
-1.33803e-07
-1.3375e-07
-1.34099e-07
-1.37875e-07
-1.40692e-07
-1.40694e-07
-1.40694e-07
-1.40692e-07
-1.36387e-07
-1.35689e-07
-1.36592e-07
-1.40693e-07
-1.40695e-07
-1.40695e-07
-1.40695e-07
-1.40695e-07
-1.40691e-07
-1.34965e-07
-1.33187e-07
-1.33744e-07
-1.36562e-07
-1.40694e-07
-1.40696e-07
-1.40695e-07
-1.40695e-07
-1.40696e-07
-1.40694e-07
-1.34638e-07
-1.33741e-07
-1.33885e-07
-1.36831e-07
-1.40695e-07
-1.40696e-07
-1.40696e-07
-1.40696e-07
-1.40696e-07
-1.40695e-07
-1.34709e-07
-1.35746e-07
-1.36466e-07
-1.40694e-07
-1.40696e-07
-1.40696e-07
-1.40696e-07
-1.40696e-07
-1.40692e-07
-1.34741e-07
-1.33307e-07
-1.33803e-07
-1.36393e-07
-1.40694e-07
-1.40694e-07
-1.40695e-07
-1.40693e-07
-1.34778e-07
-1.35244e-07
-1.33295e-07
-1.33752e-07
-1.35692e-07
-1.34964e-07
-1.34638e-07
-1.34713e-07
-1.34736e-07
-1.35248e-07
-1.33387e-07
-1.33191e-07
-1.3374e-07
-1.35748e-07
-1.33309e-07
-1.33294e-07
-1.54223e-07
-1.54356e-07
-1.54577e-07
-1.57062e-07
-1.5704e-07
-1.57308e-07
-1.56942e-07
-1.54279e-07
-1.54227e-07
-1.54573e-07
-1.5836e-07
-1.61173e-07
-1.61174e-07
-1.61174e-07
-1.61173e-07
-1.56869e-07
-1.56162e-07
-1.5707e-07
-1.61175e-07
-1.61175e-07
-1.61174e-07
-1.61174e-07
-1.61175e-07
-1.61174e-07
-1.55444e-07
-1.53663e-07
-1.54216e-07
-1.57039e-07
-1.61174e-07
-1.61175e-07
-1.61174e-07
-1.61174e-07
-1.61174e-07
-1.61174e-07
-1.55108e-07
-1.54216e-07
-1.54357e-07
-1.57308e-07
-1.61174e-07
-1.61175e-07
-1.61174e-07
-1.61174e-07
-1.61174e-07
-1.61175e-07
-1.5518e-07
-1.56218e-07
-1.56946e-07
-1.61174e-07
-1.61175e-07
-1.61175e-07
-1.61175e-07
-1.61175e-07
-1.61174e-07
-1.55215e-07
-1.53781e-07
-1.54282e-07
-1.56872e-07
-1.61173e-07
-1.61176e-07
-1.61174e-07
-1.61174e-07
-1.55251e-07
-1.55725e-07
-1.53771e-07
-1.54232e-07
-1.56165e-07
-1.55442e-07
-1.55108e-07
-1.55179e-07
-1.55216e-07
-1.55723e-07
-1.53862e-07
-1.53665e-07
-1.54212e-07
-1.56217e-07
-1.53782e-07
-1.53767e-07
-1.74698e-07
-1.7483e-07
-1.75055e-07
-1.77541e-07
-1.77515e-07
-1.77786e-07
-1.77422e-07
-1.74757e-07
-1.74705e-07
-1.7505e-07
-1.78838e-07
-1.81653e-07
-1.81653e-07
-1.81653e-07
-1.81653e-07
-1.77351e-07
-1.7664e-07
-1.77547e-07
-1.81652e-07
-1.81653e-07
-1.81653e-07
-1.81653e-07
-1.81653e-07
-1.81652e-07
-1.75918e-07
-1.7414e-07
-1.74692e-07
-1.77516e-07
-1.81652e-07
-1.81653e-07
-1.81653e-07
-1.81653e-07
-1.81653e-07
-1.81653e-07
-1.75585e-07
-1.74692e-07
-1.74832e-07
-1.77787e-07
-1.81653e-07
-1.81653e-07
-1.81653e-07
-1.81653e-07
-1.81653e-07
-1.81653e-07
-1.75655e-07
-1.76696e-07
-1.77421e-07
-1.81653e-07
-1.81653e-07
-1.81653e-07
-1.81653e-07
-1.81653e-07
-1.81653e-07
-1.75691e-07
-1.74258e-07
-1.74758e-07
-1.77355e-07
-1.81652e-07
-1.81652e-07
-1.81652e-07
-1.81653e-07
-1.75723e-07
-1.76196e-07
-1.74247e-07
-1.74708e-07
-1.76644e-07
-1.75921e-07
-1.75586e-07
-1.75655e-07
-1.75692e-07
-1.76199e-07
-1.74338e-07
-1.74143e-07
-1.7469e-07
-1.76693e-07
-1.74258e-07
-1.74244e-07
-1.95176e-07
-1.95309e-07
-1.95535e-07
-1.98018e-07
-1.97994e-07
-1.98264e-07
-1.979e-07
-1.95236e-07
-1.95183e-07
-1.95529e-07
-1.99316e-07
-2.02131e-07
-2.02131e-07
-2.02131e-07
-2.02131e-07
-1.97831e-07
-1.97118e-07
-1.98025e-07
-2.0213e-07
-2.02132e-07
-2.02132e-07
-2.02132e-07
-2.02132e-07
-2.02132e-07
-1.96396e-07
-1.94618e-07
-1.9517e-07
-1.97995e-07
-2.02131e-07
-2.02132e-07
-2.02131e-07
-2.02132e-07
-2.02132e-07
-2.02132e-07
-1.96064e-07
-1.9517e-07
-1.9531e-07
-1.98269e-07
-2.02131e-07
-2.02132e-07
-2.02131e-07
-2.02132e-07
-2.02132e-07
-2.02132e-07
-1.96134e-07
-1.97174e-07
-1.979e-07
-2.02131e-07
-2.02132e-07
-2.02132e-07
-2.02132e-07
-2.02132e-07
-2.02132e-07
-1.96169e-07
-1.94736e-07
-1.95236e-07
-1.97833e-07
-2.02131e-07
-2.02131e-07
-2.02132e-07
-2.02132e-07
-1.96201e-07
-1.96675e-07
-1.94725e-07
-1.95186e-07
-1.97123e-07
-1.96396e-07
-1.96061e-07
-1.96129e-07
-1.9617e-07
-1.96677e-07
-1.94816e-07
-1.9462e-07
-1.95165e-07
-1.97167e-07
-1.94735e-07
-1.94722e-07
-2.15656e-07
-2.15788e-07
-2.16016e-07
-2.18503e-07
-2.18474e-07
-2.18744e-07
-2.1838e-07
-2.15713e-07
-2.15662e-07
-2.16008e-07
-2.19797e-07
-2.22612e-07
-2.2261e-07
-2.22611e-07
-2.22611e-07
-2.1831e-07
-2.17598e-07
-2.18504e-07
-2.22611e-07
-2.22611e-07
-2.22612e-07
-2.22611e-07
-2.22611e-07
-2.22611e-07
-2.16875e-07
-2.15097e-07
-2.15648e-07
-2.18474e-07
-2.22611e-07
-2.22611e-07
-2.22611e-07
-2.22611e-07
-2.22611e-07
-2.22611e-07
-2.16543e-07
-2.15649e-07
-2.15788e-07
-2.18748e-07
-2.22611e-07
-2.22611e-07
-2.22611e-07
-2.22611e-07
-2.22611e-07
-2.22611e-07
-2.16613e-07
-2.17654e-07
-2.18379e-07
-2.22611e-07
-2.22611e-07
-2.22611e-07
-2.22611e-07
-2.22611e-07
-2.22611e-07
-2.16649e-07
-2.15215e-07
-2.15715e-07
-2.18313e-07
-2.22611e-07
-2.22611e-07
-2.22611e-07
-2.22611e-07
-2.16681e-07
-2.17154e-07
-2.15205e-07
-2.15665e-07
-2.17602e-07
-2.16876e-07
-2.16539e-07
-2.16608e-07
-2.1665e-07
-2.17156e-07
-2.15295e-07
-2.15099e-07
-2.15645e-07
-2.17647e-07
-2.15214e-07
-2.15201e-07
-2.36134e-07
-2.36267e-07
-2.36501e-07
-2.38978e-07
-2.38953e-07
-2.39224e-07
-2.38859e-07
-2.36191e-07
-2.3614e-07
-2.36489e-07
-2.4028e-07
-2.43091e-07
-2.43091e-07
-2.4309e-07
-2.4309e-07
-2.38788e-07
-2.38077e-07
-2.38984e-07
-2.43091e-07
-2.43091e-07
-2.43091e-07
-2.43091e-07
-2.4309e-07
-2.4309e-07
-2.37354e-07
-2.35576e-07
-2.36128e-07
-2.38954e-07
-2.43091e-07
-2.43091e-07
-2.43091e-07
-2.4309e-07
-2.4309e-07
-2.4309e-07
-2.37022e-07
-2.36128e-07
-2.36268e-07
-2.39228e-07
-2.43091e-07
-2.43091e-07
-2.4309e-07
-2.4309e-07
-2.4309e-07
-2.4309e-07
-2.37092e-07
-2.38133e-07
-2.38858e-07
-2.43091e-07
-2.43091e-07
-2.43091e-07
-2.43091e-07
-2.43091e-07
-2.4309e-07
-2.37128e-07
-2.35694e-07
-2.36195e-07
-2.38794e-07
-2.4309e-07
-2.4309e-07
-2.4309e-07
-2.4309e-07
-2.3716e-07
-2.37633e-07
-2.35684e-07
-2.36145e-07
-2.38082e-07
-2.37355e-07
-2.37019e-07
-2.37088e-07
-2.37129e-07
-2.37636e-07
-2.35774e-07
-2.35579e-07
-2.36124e-07
-2.38126e-07
-2.35693e-07
-2.3568e-07
-2.56615e-07
-2.56747e-07
-2.5698e-07
-2.5946e-07
-2.59433e-07
-2.59704e-07
-2.59339e-07
-2.5667e-07
-2.56626e-07
-2.56969e-07
-2.60758e-07
-2.63571e-07
-2.63571e-07
-2.63571e-07
-2.63571e-07
-2.59267e-07
-2.58558e-07
-2.59463e-07
-2.6357e-07
-2.6357e-07
-2.6357e-07
-2.6357e-07
-2.63571e-07
-2.63571e-07
-2.57835e-07
-2.56056e-07
-2.56608e-07
-2.59433e-07
-2.63571e-07
-2.63571e-07
-2.63571e-07
-2.63571e-07
-2.63571e-07
-2.63571e-07
-2.57502e-07
-2.56608e-07
-2.56747e-07
-2.59708e-07
-2.6357e-07
-2.63571e-07
-2.63571e-07
-2.63571e-07
-2.6357e-07
-2.63571e-07
-2.57572e-07
-2.58613e-07
-2.59338e-07
-2.6357e-07
-2.6357e-07
-2.63571e-07
-2.63571e-07
-2.63571e-07
-2.6357e-07
-2.57608e-07
-2.56174e-07
-2.56674e-07
-2.59273e-07
-2.6357e-07
-2.6357e-07
-2.6357e-07
-2.6357e-07
-2.5764e-07
-2.58113e-07
-2.56164e-07
-2.56625e-07
-2.58561e-07
-2.57835e-07
-2.57499e-07
-2.57567e-07
-2.57609e-07
-2.58116e-07
-2.56254e-07
-2.56058e-07
-2.56604e-07
-2.58605e-07
-2.56173e-07
-2.5616e-07
-2.77096e-07
-2.77228e-07
-2.77461e-07
-2.7994e-07
-2.79915e-07
-2.80186e-07
-2.79818e-07
-2.77152e-07
-2.77107e-07
-2.77449e-07
-2.81239e-07
-2.84051e-07
-2.84051e-07
-2.84051e-07
-2.84051e-07
-2.79747e-07
-2.79039e-07
-2.79944e-07
-2.84051e-07
-2.84051e-07
-2.84051e-07
-2.84051e-07
-2.84051e-07
-2.84051e-07
-2.78315e-07
-2.76537e-07
-2.77088e-07
-2.79914e-07
-2.84051e-07
-2.84051e-07
-2.84051e-07
-2.84051e-07
-2.84051e-07
-2.84051e-07
-2.77983e-07
-2.77089e-07
-2.77228e-07
-2.80188e-07
-2.84051e-07
-2.84051e-07
-2.84051e-07
-2.84051e-07
-2.84051e-07
-2.84051e-07
-2.78053e-07
-2.79094e-07
-2.79819e-07
-2.84051e-07
-2.84051e-07
-2.84051e-07
-2.84051e-07
-2.84051e-07
-2.84051e-07
-2.78089e-07
-2.76655e-07
-2.77155e-07
-2.79754e-07
-2.84051e-07
-2.84051e-07
-2.84051e-07
-2.84051e-07
-2.78121e-07
-2.78594e-07
-2.76644e-07
-2.77106e-07
-2.79042e-07
-2.78316e-07
-2.77979e-07
-2.78047e-07
-2.7809e-07
-2.78596e-07
-2.76735e-07
-2.76539e-07
-2.77084e-07
-2.79086e-07
-2.76654e-07
-2.76641e-07
-2.97577e-07
-2.97709e-07
-2.97941e-07
-3.00421e-07
-3.00395e-07
-3.00667e-07
-3.00297e-07
-2.97633e-07
-2.97589e-07
-2.97929e-07
-3.0172e-07
-3.04532e-07
-3.04532e-07
-3.04532e-07
-3.04532e-07
-3.00227e-07
-2.9952e-07
-3.00425e-07
-3.04532e-07
-3.04532e-07
-3.04532e-07
-3.04532e-07
-3.04532e-07
-3.04532e-07
-2.98797e-07
-2.97018e-07
-2.97569e-07
-3.00395e-07
-3.04532e-07
-3.04532e-07
-3.04532e-07
-3.04532e-07
-3.04532e-07
-3.04532e-07
-2.98464e-07
-2.9757e-07
-2.97709e-07
-3.00669e-07
-3.04532e-07
-3.04532e-07
-3.04532e-07
-3.04532e-07
-3.04532e-07
-3.04532e-07
-2.98534e-07
-2.99575e-07
-3.003e-07
-3.04532e-07
-3.04532e-07
-3.04532e-07
-3.04532e-07
-3.04532e-07
-3.04532e-07
-2.9857e-07
-2.97136e-07
-2.97636e-07
-3.00235e-07
-3.04532e-07
-3.04532e-07
-3.04532e-07
-3.04532e-07
-2.98601e-07
-2.99075e-07
-2.97125e-07
-2.97586e-07
-2.99523e-07
-2.98796e-07
-2.9846e-07
-2.98528e-07
-2.9857e-07
-2.99077e-07
-2.97216e-07
-2.9702e-07
-2.97565e-07
-2.99567e-07
-2.97134e-07
-2.97121e-07
-3.18058e-07
-3.1819e-07
-3.18422e-07
-3.20901e-07
-3.20876e-07
-3.21148e-07
-3.20778e-07
-3.18113e-07
-3.18069e-07
-3.1841e-07
-3.222e-07
-3.25014e-07
-3.25012e-07
-3.25013e-07
-3.25013e-07
-3.20709e-07
-3.20001e-07
-3.20906e-07
-3.25013e-07
-3.25013e-07
-3.25013e-07
-3.25013e-07
-3.25013e-07
-3.25013e-07
-3.19277e-07
-3.17499e-07
-3.1805e-07
-3.20876e-07
-3.25013e-07
-3.25013e-07
-3.25013e-07
-3.25013e-07
-3.25013e-07
-3.25013e-07
-3.18945e-07
-3.1805e-07
-3.1819e-07
-3.2115e-07
-3.25013e-07
-3.25013e-07
-3.25013e-07
-3.25013e-07
-3.25013e-07
-3.25013e-07
-3.19015e-07
-3.20055e-07
-3.20781e-07
-3.25013e-07
-3.25013e-07
-3.25013e-07
-3.25013e-07
-3.25013e-07
-3.25013e-07
-3.1905e-07
-3.17617e-07
-3.18117e-07
-3.20716e-07
-3.25013e-07
-3.25013e-07
-3.25013e-07
-3.25013e-07
-3.19082e-07
-3.19556e-07
-3.17606e-07
-3.18067e-07
-3.20004e-07
-3.19277e-07
-3.18941e-07
-3.19011e-07
-3.1905e-07
-3.19558e-07
-3.17696e-07
-3.17501e-07
-3.18046e-07
-3.20053e-07
-3.17615e-07
-3.17602e-07
-3.38537e-07
-3.3867e-07
-3.38901e-07
-3.41379e-07
-3.41356e-07
-3.41628e-07
-3.41258e-07
-3.38594e-07
-3.38551e-07
-3.38891e-07
-3.42681e-07
-3.45493e-07
-3.45493e-07
-3.45493e-07
-3.45493e-07
-3.4119e-07
-3.40482e-07
-3.41387e-07
-3.45493e-07
-3.45493e-07
-3.45493e-07
-3.45493e-07
-3.45493e-07
-3.45493e-07
-3.39758e-07
-3.3798e-07
-3.38531e-07
-3.41357e-07
-3.45493e-07
-3.45493e-07
-3.45493e-07
-3.45493e-07
-3.45493e-07
-3.45493e-07
-3.39425e-07
-3.38531e-07
-3.3867e-07
-3.41631e-07
-3.45493e-07
-3.45493e-07
-3.45493e-07
-3.45493e-07
-3.45493e-07
-3.45493e-07
-3.39495e-07
-3.40536e-07
-3.41261e-07
-3.45493e-07
-3.45493e-07
-3.45493e-07
-3.45493e-07
-3.45493e-07
-3.45493e-07
-3.39531e-07
-3.38097e-07
-3.38597e-07
-3.41196e-07
-3.45493e-07
-3.45494e-07
-3.45494e-07
-3.45493e-07
-3.39563e-07
-3.40036e-07
-3.38087e-07
-3.38548e-07
-3.40484e-07
-3.39758e-07
-3.39421e-07
-3.39489e-07
-3.39532e-07
-3.40039e-07
-3.38177e-07
-3.37982e-07
-3.38527e-07
-3.40529e-07
-3.38095e-07
-3.38083e-07
-3.59019e-07
-3.59152e-07
-3.59384e-07
-3.61861e-07
-3.61837e-07
-3.62109e-07
-3.6174e-07
-3.59076e-07
-3.59031e-07
-3.59372e-07
-3.63162e-07
-3.65974e-07
-3.65975e-07
-3.65974e-07
-3.65974e-07
-3.61669e-07
-3.60962e-07
-3.61867e-07
-3.65974e-07
-3.65974e-07
-3.65974e-07
-3.65974e-07
-3.65974e-07
-3.65974e-07
-3.60238e-07
-3.5846e-07
-3.59012e-07
-3.61838e-07
-3.65974e-07
-3.65974e-07
-3.65975e-07
-3.65974e-07
-3.65974e-07
-3.65974e-07
-3.59906e-07
-3.59012e-07
-3.59151e-07
-3.62111e-07
-3.65974e-07
-3.65974e-07
-3.65975e-07
-3.65974e-07
-3.65974e-07
-3.65974e-07
-3.59976e-07
-3.61016e-07
-3.61742e-07
-3.65974e-07
-3.65974e-07
-3.65975e-07
-3.65975e-07
-3.65974e-07
-3.65974e-07
-3.60012e-07
-3.58578e-07
-3.59078e-07
-3.61677e-07
-3.65975e-07
-3.65975e-07
-3.65975e-07
-3.65974e-07
-3.60044e-07
-3.60517e-07
-3.58567e-07
-3.59028e-07
-3.60965e-07
-3.60239e-07
-3.59903e-07
-3.59972e-07
-3.60012e-07
-3.60519e-07
-3.58658e-07
-3.58462e-07
-3.59008e-07
-3.61011e-07
-3.58576e-07
-3.58564e-07
-3.79501e-07
-3.79633e-07
-3.79865e-07
-3.82343e-07
-3.82319e-07
-3.8259e-07
-3.82221e-07
-3.79557e-07
-3.79512e-07
-3.79853e-07
-3.83643e-07
-3.86456e-07
-3.86456e-07
-3.86456e-07
-3.86456e-07
-3.82151e-07
-3.81443e-07
-3.82349e-07
-3.86456e-07
-3.86455e-07
-3.86456e-07
-3.86456e-07
-3.86455e-07
-3.86455e-07
-3.8072e-07
-3.78941e-07
-3.79493e-07
-3.82319e-07
-3.86456e-07
-3.86455e-07
-3.86456e-07
-3.86456e-07
-3.86455e-07
-3.86455e-07
-3.80387e-07
-3.79493e-07
-3.79632e-07
-3.82593e-07
-3.86456e-07
-3.86456e-07
-3.86456e-07
-3.86456e-07
-3.86455e-07
-3.86455e-07
-3.80457e-07
-3.81498e-07
-3.82223e-07
-3.86456e-07
-3.86456e-07
-3.86456e-07
-3.86456e-07
-3.86455e-07
-3.86455e-07
-3.80493e-07
-3.79059e-07
-3.79559e-07
-3.82159e-07
-3.86456e-07
-3.86456e-07
-3.86456e-07
-3.86455e-07
-3.80526e-07
-3.80998e-07
-3.79049e-07
-3.7951e-07
-3.81447e-07
-3.80721e-07
-3.80386e-07
-3.80454e-07
-3.80493e-07
-3.81001e-07
-3.79139e-07
-3.78944e-07
-3.79489e-07
-3.81493e-07
-3.79058e-07
-3.79045e-07
-3.99982e-07
-4.00114e-07
-4.00346e-07
-4.02824e-07
-4.028e-07
-4.03071e-07
-4.02701e-07
-4.00039e-07
-3.99993e-07
-4.00334e-07
-4.04124e-07
-4.06936e-07
-4.06936e-07
-4.06936e-07
-4.06936e-07
-4.02632e-07
-4.01924e-07
-4.0283e-07
-4.06937e-07
-4.06937e-07
-4.06937e-07
-4.06937e-07
-4.06936e-07
-4.06936e-07
-4.012e-07
-3.99422e-07
-3.99974e-07
-4.02799e-07
-4.06937e-07
-4.06937e-07
-4.06937e-07
-4.06937e-07
-4.06937e-07
-4.06936e-07
-4.00868e-07
-3.99974e-07
-4.00114e-07
-4.03074e-07
-4.06937e-07
-4.06937e-07
-4.06937e-07
-4.06937e-07
-4.06937e-07
-4.06937e-07
-4.00938e-07
-4.01979e-07
-4.02704e-07
-4.06937e-07
-4.06937e-07
-4.06937e-07
-4.06937e-07
-4.06937e-07
-4.06937e-07
-4.00974e-07
-3.9954e-07
-4.0004e-07
-4.0264e-07
-4.06937e-07
-4.06937e-07
-4.06937e-07
-4.06937e-07
-4.01007e-07
-4.0148e-07
-3.9953e-07
-3.99991e-07
-4.01928e-07
-4.01202e-07
-4.00866e-07
-4.00934e-07
-4.00975e-07
-4.01482e-07
-3.9962e-07
-3.99425e-07
-3.99971e-07
-4.01974e-07
-3.99539e-07
-3.99526e-07
-4.20463e-07
-4.20595e-07
-4.20827e-07
-4.23306e-07
-4.23281e-07
-4.23552e-07
-4.23183e-07
-4.20519e-07
-4.20472e-07
-4.20816e-07
-4.24605e-07
-4.27417e-07
-4.27418e-07
-4.27418e-07
-4.27418e-07
-4.23114e-07
-4.22405e-07
-4.23311e-07
-4.27418e-07
-4.27418e-07
-4.27418e-07
-4.27418e-07
-4.27418e-07
-4.27418e-07
-4.21682e-07
-4.19903e-07
-4.20455e-07
-4.23281e-07
-4.27418e-07
-4.27418e-07
-4.27418e-07
-4.27418e-07
-4.27418e-07
-4.27418e-07
-4.2135e-07
-4.20456e-07
-4.20595e-07
-4.23555e-07
-4.27418e-07
-4.27418e-07
-4.27418e-07
-4.27418e-07
-4.27418e-07
-4.27418e-07
-4.2142e-07
-4.2246e-07
-4.23186e-07
-4.27418e-07
-4.27418e-07
-4.27418e-07
-4.27418e-07
-4.27418e-07
-4.27418e-07
-4.21456e-07
-4.20022e-07
-4.20522e-07
-4.23121e-07
-4.27418e-07
-4.27418e-07
-4.27418e-07
-4.27418e-07
-4.21488e-07
-4.21961e-07
-4.20011e-07
-4.20472e-07
-4.22409e-07
-4.21683e-07
-4.21347e-07
-4.21415e-07
-4.21456e-07
-4.21963e-07
-4.20102e-07
-4.19906e-07
-4.20452e-07
-4.22455e-07
-4.2002e-07
-4.20009e-07
-4.40945e-07
-4.41077e-07
-4.4131e-07
-4.43789e-07
-4.43764e-07
-4.44035e-07
-4.43665e-07
-4.41002e-07
-4.40955e-07
-4.41298e-07
-4.45088e-07
-4.479e-07
-4.479e-07
-4.47901e-07
-4.47901e-07
-4.43596e-07
-4.42888e-07
-4.43794e-07
-4.47901e-07
-4.47901e-07
-4.47901e-07
-4.47901e-07
-4.47901e-07
-4.47901e-07
-4.42164e-07
-4.40386e-07
-4.40938e-07
-4.43764e-07
-4.47901e-07
-4.47901e-07
-4.47901e-07
-4.47901e-07
-4.47901e-07
-4.47901e-07
-4.41832e-07
-4.40939e-07
-4.41077e-07
-4.44038e-07
-4.47901e-07
-4.47901e-07
-4.47901e-07
-4.47901e-07
-4.47901e-07
-4.47901e-07
-4.41902e-07
-4.42943e-07
-4.43668e-07
-4.47901e-07
-4.47901e-07
-4.47901e-07
-4.47901e-07
-4.47901e-07
-4.47901e-07
-4.41938e-07
-4.40504e-07
-4.41004e-07
-4.43604e-07
-4.47901e-07
-4.47901e-07
-4.47901e-07
-4.47901e-07
-4.41971e-07
-4.42444e-07
-4.40494e-07
-4.40955e-07
-4.42892e-07
-4.42165e-07
-4.4183e-07
-4.41898e-07
-4.41939e-07
-4.42446e-07
-4.40584e-07
-4.40389e-07
-4.40934e-07
-4.42937e-07
-4.40502e-07
-4.40491e-07
-4.61428e-07
-4.6156e-07
-4.61792e-07
-4.64271e-07
-4.64246e-07
-4.64517e-07
-4.64147e-07
-4.61484e-07
-4.61437e-07
-4.6178e-07
-4.6557e-07
-4.68382e-07
-4.68383e-07
-4.68383e-07
-4.68383e-07
-4.64079e-07
-4.6337e-07
-4.64275e-07
-4.68382e-07
-4.68383e-07
-4.68383e-07
-4.68383e-07
-4.68383e-07
-4.68383e-07
-4.62646e-07
-4.60868e-07
-4.6142e-07
-4.64245e-07
-4.68383e-07
-4.68383e-07
-4.68383e-07
-4.68383e-07
-4.68383e-07
-4.68383e-07
-4.62314e-07
-4.61421e-07
-4.61559e-07
-4.6452e-07
-4.68383e-07
-4.68383e-07
-4.68383e-07
-4.68383e-07
-4.68383e-07
-4.68383e-07
-4.62384e-07
-4.63425e-07
-4.6415e-07
-4.68383e-07
-4.68383e-07
-4.68383e-07
-4.68383e-07
-4.68383e-07
-4.68383e-07
-4.6242e-07
-4.60986e-07
-4.61486e-07
-4.64085e-07
-4.68383e-07
-4.68383e-07
-4.68383e-07
-4.68383e-07
-4.62453e-07
-4.62926e-07
-4.60976e-07
-4.61437e-07
-4.63373e-07
-4.62647e-07
-4.62312e-07
-4.6238e-07
-4.62421e-07
-4.62928e-07
-4.61066e-07
-4.60871e-07
-4.61416e-07
-4.63419e-07
-4.60984e-07
-4.60973e-07
-4.81909e-07
-4.82041e-07
-4.82274e-07
-4.84753e-07
-4.84727e-07
-4.84999e-07
-4.84628e-07
-4.81965e-07
-4.81919e-07
-4.82262e-07
-4.86052e-07
-4.88865e-07
-4.88865e-07
-4.88865e-07
-4.88865e-07
-4.84561e-07
-4.83852e-07
-4.84757e-07
-4.88865e-07
-4.88865e-07
-4.88865e-07
-4.88865e-07
-4.88865e-07
-4.88865e-07
-4.83128e-07
-4.8135e-07
-4.81901e-07
-4.84727e-07
-4.88865e-07
-4.88865e-07
-4.88865e-07
-4.88865e-07
-4.88865e-07
-4.88865e-07
-4.82796e-07
-4.81903e-07
-4.82041e-07
-4.85001e-07
-4.88865e-07
-4.88865e-07
-4.88865e-07
-4.88865e-07
-4.88865e-07
-4.88865e-07
-4.82866e-07
-4.83907e-07
-4.84632e-07
-4.88865e-07
-4.88865e-07
-4.88865e-07
-4.88865e-07
-4.88865e-07
-4.88865e-07
-4.82902e-07
-4.81468e-07
-4.81968e-07
-4.84567e-07
-4.88865e-07
-4.88865e-07
-4.88865e-07
-4.88865e-07
-4.82935e-07
-4.83407e-07
-4.81457e-07
-4.81918e-07
-4.83855e-07
-4.83129e-07
-4.82793e-07
-4.82862e-07
-4.82902e-07
-4.8341e-07
-4.81548e-07
-4.81352e-07
-4.81898e-07
-4.83901e-07
-4.81466e-07
-4.81455e-07
-5.02392e-07
-5.02524e-07
-5.02757e-07
-5.05235e-07
-5.0521e-07
-5.05482e-07
-5.05112e-07
-5.02449e-07
-5.02402e-07
-5.02745e-07
-5.06536e-07
-5.09348e-07
-5.09348e-07
-5.09348e-07
-5.09348e-07
-5.05044e-07
-5.04336e-07
-5.05241e-07
-5.09348e-07
-5.09348e-07
-5.09348e-07
-5.09348e-07
-5.09348e-07
-5.09348e-07
-5.03611e-07
-5.01833e-07
-5.02384e-07
-5.0521e-07
-5.09348e-07
-5.09348e-07
-5.09348e-07
-5.09348e-07
-5.09348e-07
-5.09348e-07
-5.03279e-07
-5.02386e-07
-5.02524e-07
-5.05485e-07
-5.09348e-07
-5.09348e-07
-5.09348e-07
-5.09348e-07
-5.09348e-07
-5.09348e-07
-5.03349e-07
-5.0439e-07
-5.05115e-07
-5.09348e-07
-5.09348e-07
-5.09348e-07
-5.09348e-07
-5.09348e-07
-5.09348e-07
-5.03385e-07
-5.01951e-07
-5.02451e-07
-5.05051e-07
-5.09348e-07
-5.09348e-07
-5.09348e-07
-5.09348e-07
-5.03418e-07
-5.0389e-07
-5.0194e-07
-5.02401e-07
-5.04338e-07
-5.03612e-07
-5.03276e-07
-5.03345e-07
-5.03386e-07
-5.03893e-07
-5.02031e-07
-5.01835e-07
-5.02381e-07
-5.04384e-07
-5.01949e-07
-5.01938e-07
-5.22876e-07
-5.23008e-07
-5.23241e-07
-5.25718e-07
-5.25696e-07
-5.25965e-07
-5.25596e-07
-5.22931e-07
-5.22885e-07
-5.23228e-07
-5.27019e-07
-5.29831e-07
-5.29831e-07
-5.29832e-07
-5.29832e-07
-5.25527e-07
-5.24818e-07
-5.25722e-07
-5.29831e-07
-5.29831e-07
-5.29831e-07
-5.29831e-07
-5.29832e-07
-5.29832e-07
-5.24095e-07
-5.22316e-07
-5.22868e-07
-5.25694e-07
-5.29831e-07
-5.29831e-07
-5.29831e-07
-5.29831e-07
-5.29832e-07
-5.29832e-07
-5.23763e-07
-5.22869e-07
-5.23008e-07
-5.25968e-07
-5.29831e-07
-5.29831e-07
-5.29831e-07
-5.29832e-07
-5.29832e-07
-5.29832e-07
-5.23833e-07
-5.24873e-07
-5.25599e-07
-5.29831e-07
-5.29831e-07
-5.29831e-07
-5.29831e-07
-5.29832e-07
-5.29832e-07
-5.23868e-07
-5.22434e-07
-5.22935e-07
-5.25534e-07
-5.29831e-07
-5.29831e-07
-5.29832e-07
-5.29832e-07
-5.23901e-07
-5.24374e-07
-5.22424e-07
-5.22885e-07
-5.24822e-07
-5.24096e-07
-5.2376e-07
-5.23828e-07
-5.23869e-07
-5.24376e-07
-5.22515e-07
-5.22319e-07
-5.22865e-07
-5.24867e-07
-5.22432e-07
-5.22421e-07
-5.4336e-07
-5.43492e-07
-5.43723e-07
-5.46203e-07
-5.4618e-07
-5.46449e-07
-5.4608e-07
-5.43414e-07
-5.43368e-07
-5.43712e-07
-5.47503e-07
-5.50315e-07
-5.50315e-07
-5.50315e-07
-5.50315e-07
-5.46011e-07
-5.45302e-07
-5.46207e-07
-5.50315e-07
-5.50315e-07
-5.50315e-07
-5.50315e-07
-5.50315e-07
-5.50315e-07
-5.44579e-07
-5.428e-07
-5.43351e-07
-5.46177e-07
-5.50315e-07
-5.50315e-07
-5.50315e-07
-5.50315e-07
-5.50315e-07
-5.50315e-07
-5.44246e-07
-5.43353e-07
-5.43491e-07
-5.46451e-07
-5.50315e-07
-5.50315e-07
-5.50315e-07
-5.50315e-07
-5.50315e-07
-5.50315e-07
-5.44316e-07
-5.45357e-07
-5.46082e-07
-5.50315e-07
-5.50315e-07
-5.50315e-07
-5.50315e-07
-5.50315e-07
-5.50315e-07
-5.44352e-07
-5.42918e-07
-5.43418e-07
-5.46017e-07
-5.50315e-07
-5.50315e-07
-5.50315e-07
-5.50315e-07
-5.44384e-07
-5.44857e-07
-5.42907e-07
-5.43368e-07
-5.45305e-07
-5.44579e-07
-5.44243e-07
-5.44311e-07
-5.44352e-07
-5.4486e-07
-5.42998e-07
-5.42802e-07
-5.43348e-07
-5.45351e-07
-5.42915e-07
-5.42905e-07
-5.63843e-07
-5.63975e-07
-5.64207e-07
-5.66686e-07
-5.66664e-07
-5.66933e-07
-5.66563e-07
-5.63899e-07
-5.63852e-07
-5.64196e-07
-5.67987e-07
-5.70799e-07
-5.70799e-07
-5.70799e-07
-5.70799e-07
-5.66495e-07
-5.65786e-07
-5.66691e-07
-5.70798e-07
-5.70798e-07
-5.70799e-07
-5.70799e-07
-5.70799e-07
-5.70799e-07
-5.65062e-07
-5.63283e-07
-5.63834e-07
-5.66659e-07
-5.70798e-07
-5.70799e-07
-5.70799e-07
-5.70799e-07
-5.70799e-07
-5.70799e-07
-5.6473e-07
-5.63836e-07
-5.63974e-07
-5.66935e-07
-5.70798e-07
-5.70799e-07
-5.70799e-07
-5.70799e-07
-5.70799e-07
-5.70799e-07
-5.648e-07
-5.6584e-07
-5.66565e-07
-5.70798e-07
-5.70799e-07
-5.70799e-07
-5.70799e-07
-5.70799e-07
-5.70799e-07
-5.64835e-07
-5.63401e-07
-5.63901e-07
-5.66501e-07
-5.70799e-07
-5.70799e-07
-5.70799e-07
-5.70799e-07
-5.64868e-07
-5.65341e-07
-5.63391e-07
-5.63852e-07
-5.65789e-07
-5.65063e-07
-5.64727e-07
-5.64795e-07
-5.64836e-07
-5.65343e-07
-5.63481e-07
-5.63286e-07
-5.63831e-07
-5.65834e-07
-5.63399e-07
-5.63388e-07
-5.84328e-07
-5.84459e-07
-5.84691e-07
-5.8717e-07
-5.87148e-07
-5.87417e-07
-5.87048e-07
-5.84381e-07
-5.84336e-07
-5.8468e-07
-5.88471e-07
-5.91284e-07
-5.91283e-07
-5.91284e-07
-5.91283e-07
-5.8698e-07
-5.8627e-07
-5.87175e-07
-5.91283e-07
-5.91283e-07
-5.91283e-07
-5.91283e-07
-5.91283e-07
-5.91283e-07
-5.85547e-07
-5.83768e-07
-5.84319e-07
-5.87145e-07
-5.91283e-07
-5.91284e-07
-5.91284e-07
-5.91284e-07
-5.91283e-07
-5.91283e-07
-5.85214e-07
-5.8432e-07
-5.84459e-07
-5.8742e-07
-5.91283e-07
-5.91283e-07
-5.91283e-07
-5.91283e-07
-5.91283e-07
-5.91283e-07
-5.85284e-07
-5.86325e-07
-5.8705e-07
-5.91283e-07
-5.91283e-07
-5.91283e-07
-5.91283e-07
-5.91283e-07
-5.91283e-07
-5.8532e-07
-5.83886e-07
-5.84386e-07
-5.86985e-07
-5.91283e-07
-5.91283e-07
-5.91283e-07
-5.91283e-07
-5.85352e-07
-5.85825e-07
-5.83875e-07
-5.84336e-07
-5.86273e-07
-5.85547e-07
-5.85211e-07
-5.85279e-07
-5.8532e-07
-5.85828e-07
-5.83966e-07
-5.8377e-07
-5.84316e-07
-5.86319e-07
-5.83883e-07
-5.83873e-07
-6.04813e-07
-6.04945e-07
-6.05175e-07
-6.07656e-07
-6.07633e-07
-6.07902e-07
-6.07532e-07
-6.04866e-07
-6.04821e-07
-6.05164e-07
-6.08955e-07
-6.11768e-07
-6.11768e-07
-6.11768e-07
-6.11768e-07
-6.07465e-07
-6.06755e-07
-6.07661e-07
-6.11768e-07
-6.11768e-07
-6.11768e-07
-6.11768e-07
-6.11768e-07
-6.11768e-07
-6.06032e-07
-6.04252e-07
-6.04804e-07
-6.07631e-07
-6.11768e-07
-6.11768e-07
-6.11768e-07
-6.11768e-07