/*--------------------------------*- C++ -*----------------------------------*\
| =========                 |                                                 |
| \\      /  F ield         | OpenFOAM: The Open Source CFD Toolbox           |
|  \\    /   O peration     | Version:  v1906                                 |
|   \\  /    A nd           | Web:      www.OpenFOAM.com                      |
|    \\/     M anipulation  |                                                 |
\*---------------------------------------------------------------------------*/
FoamFile
{
    version     2.0;
    format      ascii;
    class       volScalarField;
    location    "850";
    object      epsilon;
}
// * * * * * * * * * * * * * * * * * * * * * * * * * * * * * * * * * * * * * //

dimensions      [0 2 -3 0 0 0 0];


internalField   nonuniform List<scalar> 
42840
(
6.51842e-07
1.18286e-06
1.18292e-06
1.41523e-06
1.41815e-06
1.41515e-06
1.41592e-06
1.18293e-06
1.18296e-06
1.18525e-06
1.18528e-06
1.41514e-06
1.41584e-06
1.18284e-06
1.18297e-06
1.18517e-06
1.18529e-06
1.183e-06
1.18519e-06
1.18532e-06
1.4152e-06
1.41591e-06
1.1829e-06
1.18524e-06
1.18523e-06
1.41594e-06
1.18604e-06
1.18595e-06
4.23629e-06
9.54928e-06
9.55413e-06
4.23572e-06
1.9061e-05
1.90714e-05
4.23647e-06
9.5511e-06
9.55628e-06
4.23584e-06
6.51849e-07
6.51939e-07
6.51937e-07
6.56501e-07
6.56509e-07
6.56597e-07
6.56598e-07
2.29406e-06
3.64448e-06
9.29872e-07
1.18366e-06
3.64492e-06
9.30979e-07
2.29373e-06
1.90619e-05
1.90724e-05
2.29399e-06
9.29925e-07
3.64449e-06
1.18372e-06
9.31031e-07
3.64498e-06
2.2937e-06
5.64518e-06
5.64712e-06
1.41449e-06
5.64627e-06
5.6482e-06
5.64954e-06
5.65148e-06
1.90593e-05
1.90698e-05
1.90617e-05
1.90722e-05
5.64506e-06
5.64698e-06
1.41448e-06
5.64618e-06
5.64807e-06
1.90809e-05
1.90705e-05
1.90833e-05
1.90729e-05
1.41667e-06
5.64836e-06
5.65025e-06
5.64728e-06
5.6492e-06
4.2364e-06
9.55049e-06
9.55527e-06
4.23582e-06
2.29391e-06
3.64424e-06
9.29803e-07
1.18373e-06
3.64474e-06
9.30912e-07
2.29365e-06
2.29398e-06
3.6448e-06
9.29843e-07
1.18376e-06
3.64527e-06
9.30951e-07
2.29372e-06
4.23706e-06
9.56001e-06
9.55502e-06
4.23758e-06
4.23716e-06
9.56106e-06
9.55635e-06
4.23769e-06
2.29449e-06
1.18452e-06
3.646e-06
9.33023e-07
3.64555e-06
9.31999e-07
2.2947e-06
2.29456e-06
1.18455e-06
3.64653e-06
9.33062e-07
3.6461e-06
9.32039e-07
2.29476e-06
5.64689e-06
5.64524e-06
1.4144e-06
5.64796e-06
5.64621e-06
1.90587e-05
1.90693e-05
1.90825e-05
1.90721e-05
1.41666e-06
5.65013e-06
5.64839e-06
5.64911e-06
5.64746e-06
1.90803e-05
1.90698e-05
2.29408e-06
3.64502e-06
9.29864e-07
1.18364e-06
3.64547e-06
9.30992e-07
2.2938e-06
4.23637e-06
9.55069e-06
9.55547e-06
4.23574e-06
2.29399e-06
9.29886e-07
3.64485e-06
1.18377e-06
9.30994e-07
3.64529e-06
2.29372e-06
4.23718e-06
9.56207e-06
9.55699e-06
4.23776e-06
2.29464e-06
1.18444e-06
3.64673e-06
9.33104e-07
3.64634e-06
9.3206e-07
2.29487e-06
4.23708e-06
9.56126e-06
9.55656e-06
4.23766e-06
2.29456e-06
1.18456e-06
9.33106e-07
3.64655e-06
9.32082e-07
3.64616e-06
2.29478e-06
4.23649e-06
9.55029e-06
9.55546e-06
4.2359e-06
2.29399e-06
9.29891e-07
3.64437e-06
1.1838e-06
9.30996e-07
3.64485e-06
2.29366e-06
4.23638e-06
9.55036e-06
9.55515e-06
4.2358e-06
2.29458e-06
1.18445e-06
3.64618e-06
9.33091e-07
3.64578e-06
9.32068e-07
2.29484e-06
4.23723e-06
9.56122e-06
9.55617e-06
4.23778e-06
2.29451e-06
1.18459e-06
9.33107e-07
3.64611e-06
9.32087e-07
3.64567e-06
2.29477e-06
4.23713e-06
9.56093e-06
9.55622e-06
4.23766e-06
5.647e-06
5.64523e-06
1.41446e-06
5.64798e-06
5.64632e-06
1.90606e-05
1.90711e-05
1.90835e-05
1.9073e-05
1.41672e-06
5.65016e-06
5.6485e-06
5.64922e-06
5.64745e-06
1.90821e-05
1.90718e-05
2.29404e-06
9.29937e-07
3.64499e-06
1.1837e-06
9.31042e-07
3.64546e-06
2.29377e-06
4.2364e-06
9.55067e-06
9.55546e-06
4.23583e-06
4.23644e-06
9.55137e-06
9.55615e-06
4.23581e-06
2.29457e-06
1.18451e-06
9.33141e-07
3.64623e-06
9.32119e-07
3.64579e-06
2.29477e-06
2.29461e-06
1.18449e-06
9.33153e-07
3.64672e-06
9.32132e-07
3.64629e-06
2.29482e-06
4.23716e-06
9.56124e-06
9.55653e-06
4.23768e-06
4.23714e-06
9.56201e-06
9.55722e-06
4.23772e-06
1.90604e-05
1.90709e-05
1.90623e-05
1.90727e-05
1.41675e-06
5.64845e-06
5.65038e-06
5.64739e-06
5.64933e-06
1.90819e-05
1.90716e-05
1.90838e-05
1.90734e-05
9.34118e-07
3.6469e-06
2.29526e-06
9.56199e-06
4.2384e-06
3.64752e-06
9.56275e-06
1.90826e-05
1.90844e-05
1.26397e-05
1.12327e-05
4.88159e-06
4.2364e-06
1.12305e-05
4.88172e-06
1.26434e-05
2.27379e-05
9.55118e-06
7.23778e-06
7.23741e-06
2.27308e-05
2.27372e-05
7.23869e-06
9.55215e-06
7.23906e-06
2.27444e-05
1.26395e-05
4.23562e-06
1.1227e-05
4.88097e-06
1.12292e-05
4.88084e-06
1.26358e-05
1.90659e-05
1.90666e-05
1.26407e-05
4.88192e-06
1.12335e-05
4.23652e-06
4.882e-06
1.12313e-05
1.26432e-05
2.27379e-05
9.55335e-06
7.23924e-06
7.23906e-06
2.2731e-05
2.27374e-05
7.24035e-06
9.55406e-06
7.24053e-06
2.27443e-05
1.26394e-05
4.23578e-06
4.88125e-06
1.12277e-05
4.88116e-06
1.123e-05
1.26368e-05
1.90669e-05
1.90675e-05
9.95768e-06
2.23738e-05
2.2373e-05
2.23676e-05
2.23668e-05
9.95735e-06
4.70058e-06
2.97315e-06
5.64516e-06
9.91391e-06
2.97299e-06
9.91637e-06
4.70092e-06
4.70631e-06
2.97434e-06
5.64708e-06
9.91898e-06
2.97418e-06
9.92087e-06
4.70664e-06
4.70163e-06
9.91936e-06
5.64629e-06
2.9734e-06
2.97357e-06
9.91681e-06
4.70129e-06
4.70735e-06
9.92379e-06
5.64823e-06
2.9746e-06
2.97476e-06
9.92192e-06
4.70702e-06
9.95554e-06
2.23617e-05
2.23609e-05
2.2368e-05
2.23672e-05
9.95587e-06
4.70331e-06
2.97472e-06
9.92548e-06
5.64951e-06
4.70368e-06
2.97453e-06
9.92809e-06
4.70904e-06
2.97591e-06
9.93063e-06
5.65144e-06
4.7094e-06
2.97573e-06
9.93239e-06
9.96267e-06
2.23849e-05
2.23841e-05
9.96303e-06
2.23911e-05
2.23902e-05
1.90642e-05
1.90649e-05
1.90667e-05
1.90673e-05
9.95759e-06
2.23739e-05
2.23732e-05
2.23676e-05
2.23669e-05
9.95726e-06
4.70056e-06
2.97313e-06
5.64507e-06
9.91394e-06
9.91648e-06
2.97298e-06
4.70087e-06
4.70628e-06
2.9743e-06
5.64694e-06
9.91915e-06
9.92105e-06
2.97414e-06
4.70659e-06
4.70159e-06
9.91941e-06
5.64618e-06
2.97339e-06
9.91691e-06
4.70127e-06
2.97355e-06
4.70731e-06
9.92398e-06
5.64809e-06
2.97455e-06
9.9221e-06
4.70699e-06
2.97473e-06
9.95545e-06
2.23618e-05
2.23611e-05
2.23681e-05
2.23673e-05
9.95577e-06
1.9076e-05
1.90753e-05
1.90785e-05
1.90778e-05
9.95906e-06
2.23735e-05
2.23727e-05
9.95939e-06
2.23797e-05
2.2379e-05
4.70298e-06
2.97417e-06
5.64836e-06
9.92524e-06
9.92273e-06
2.97433e-06
4.70264e-06
4.7087e-06
2.97533e-06
5.65029e-06
9.92982e-06
9.92797e-06
2.97551e-06
4.70836e-06
4.70196e-06
9.91986e-06
2.97395e-06
5.64728e-06
4.70229e-06
9.92231e-06
2.97379e-06
4.70768e-06
9.92507e-06
2.97513e-06
5.64917e-06
4.70801e-06
9.92696e-06
2.97495e-06
9.96118e-06
2.23854e-05
2.23847e-05
2.23792e-05
2.23785e-05
9.96084e-06
1.26405e-05
1.12332e-05
4.88192e-06
4.2365e-06
1.12302e-05
4.88199e-06
1.2643e-05
2.27381e-05
9.55236e-06
7.23933e-06
7.23915e-06
2.27311e-05
2.27376e-05
7.24042e-06
9.55342e-06
7.24062e-06
2.27445e-05
1.26392e-05
4.23573e-06
1.12267e-05
4.88124e-06
1.12297e-05
4.88118e-06
1.26366e-05
1.26473e-05
1.1234e-05
4.88245e-06
4.23694e-06
1.26435e-05
1.12363e-05
4.88231e-06
2.275e-05
9.55782e-06
7.24121e-06
2.27571e-05
7.24159e-06
2.27508e-05
7.24033e-06
9.55709e-06
2.27437e-05
7.23996e-06
1.26474e-05
4.2377e-06
1.12397e-05
4.88302e-06
1.2651e-05
1.12375e-05
4.88316e-06
1.26468e-05
1.12338e-05
4.88272e-06
4.23706e-06
1.26443e-05
1.12367e-05
4.88265e-06
2.27504e-05
9.55925e-06
7.24294e-06
7.24315e-06
2.27572e-05
2.27509e-05
7.24189e-06
9.55821e-06
2.2744e-05
7.24169e-06
1.26482e-05
4.2378e-06
1.12402e-05
4.88336e-06
1.12373e-05
4.88343e-06
1.26506e-05
9.95724e-06
2.23725e-05
2.23733e-05
2.23662e-05
2.23671e-05
9.95692e-06
4.70612e-06
2.97421e-06
5.64685e-06
9.91837e-06
9.92087e-06
2.97403e-06
4.70646e-06
4.70041e-06
2.9731e-06
5.6451e-06
9.91384e-06
2.97292e-06
9.91639e-06
4.70073e-06
4.70718e-06
9.92373e-06
5.64801e-06
2.97445e-06
9.92149e-06
2.97463e-06
4.70683e-06
4.70145e-06
9.91932e-06
5.64636e-06
2.97334e-06
2.97352e-06
9.91681e-06
4.70112e-06
9.95511e-06
2.23604e-05
2.23612e-05
2.23667e-05
2.23675e-05
9.95543e-06
1.90637e-05
1.90643e-05
1.90777e-05
1.9077e-05
9.95871e-06
2.2372e-05
2.23729e-05
9.95904e-06
2.23783e-05
2.23791e-05
4.70856e-06
2.97522e-06
5.6502e-06
9.92934e-06
2.97541e-06
9.92747e-06
4.70819e-06
4.70283e-06
2.97411e-06
5.64854e-06
9.92508e-06
9.9226e-06
2.9743e-06
4.70248e-06
4.70752e-06
9.92449e-06
2.97503e-06
5.64906e-06
2.97484e-06
4.70788e-06
9.9265e-06
4.70181e-06
9.91975e-06
2.97392e-06
5.64731e-06
4.70215e-06
9.92222e-06
2.97374e-06
9.96083e-06
2.2384e-05
2.23849e-05
2.23778e-05
2.23787e-05
9.96049e-06
1.90753e-05
1.90748e-05
1.26408e-05
1.12333e-05
4.88171e-06
4.23642e-06
1.12311e-05
4.88187e-06
1.26433e-05
2.27382e-05
9.55256e-06
7.238e-06
7.23764e-06
2.2731e-05
2.27375e-05
7.23892e-06
9.55362e-06
7.23928e-06
2.27446e-05
1.26395e-05
4.23569e-06
1.12275e-05
4.88112e-06
1.12298e-05
4.88097e-06
1.26369e-05
1.26471e-05
4.88273e-06
1.12348e-05
4.23711e-06
1.26446e-05
4.88263e-06
1.1237e-05
2.27502e-05
9.55988e-06
7.24287e-06
2.27571e-05
7.24307e-06
2.27508e-05
7.2418e-06
9.55918e-06
2.27439e-05
7.24161e-06
1.26484e-05
4.23782e-06
4.88336e-06
1.12405e-05
1.26509e-05
4.88344e-06
1.12383e-05
1.26471e-05
1.12346e-05
4.8826e-06
4.23702e-06
1.26446e-05
1.12368e-05
4.88244e-06
2.27503e-05
9.55945e-06
7.24145e-06
7.24182e-06
2.27574e-05
2.2751e-05
7.24056e-06
9.55841e-06
2.27439e-05
7.24019e-06
1.26485e-05
4.23772e-06
1.12403e-05
4.88315e-06
1.12381e-05
4.88331e-06
1.2651e-05
1.26398e-05
4.88182e-06
1.12336e-05
4.23657e-06
4.88187e-06
1.12306e-05
1.26435e-05
2.27372e-05
9.55256e-06
7.23887e-06
7.2387e-06
2.27302e-05
2.27367e-05
7.23997e-06
9.55324e-06
7.24016e-06
2.27436e-05
1.26396e-05
4.23582e-06
4.88112e-06
1.12272e-05
4.88109e-06
1.12301e-05
1.26359e-05
1.26407e-05
1.12334e-05
4.88159e-06
4.23647e-06
1.12305e-05
4.88169e-06
1.26432e-05
2.27377e-05
9.55224e-06
7.23741e-06
7.23722e-06
2.27308e-05
2.27372e-05
7.23849e-06
9.55329e-06
7.23869e-06
2.27441e-05
1.26394e-05
4.23571e-06
1.1227e-05
4.88094e-06
1.12299e-05
4.88085e-06
1.26368e-05
1.26473e-05
4.8826e-06
1.12342e-05
4.23714e-06
1.26437e-05
4.88255e-06
1.12371e-05
2.27495e-05
9.55904e-06
7.24249e-06
7.24268e-06
2.27564e-05
2.275e-05
7.24143e-06
9.55834e-06
2.27431e-05
7.24124e-06
1.26475e-05
4.23787e-06
4.88326e-06
1.12406e-05
4.88331e-06
1.12377e-05
1.26511e-05
1.2647e-05
1.1234e-05
4.88241e-06
4.23703e-06
1.26445e-05
1.1237e-05
4.88231e-06
2.275e-05
9.55912e-06
7.24101e-06
7.24122e-06
2.27569e-05
2.27505e-05
7.23996e-06
9.55809e-06
2.27436e-05
7.23976e-06
1.26484e-05
4.23777e-06
1.12405e-05
4.88302e-06
1.12375e-05
4.88312e-06
1.26508e-05
9.95813e-06
2.23736e-05
2.23741e-05
2.23674e-05
2.23678e-05
9.9578e-06
4.70645e-06
2.97429e-06
5.64686e-06
9.9184e-06
9.92096e-06
2.9741e-06
4.7068e-06
4.70076e-06
2.97325e-06
5.64521e-06
9.91421e-06
2.97308e-06
9.9163e-06
4.70111e-06
4.70752e-06
9.92392e-06
5.64812e-06
2.97452e-06
9.92137e-06
2.97471e-06
4.70716e-06
4.70183e-06
9.91913e-06
5.64635e-06
2.9735e-06
2.97367e-06
9.91723e-06
4.70147e-06
9.95598e-06
2.23615e-05
2.2362e-05
2.23678e-05
2.23683e-05
9.95631e-06
1.90655e-05
1.90662e-05
1.90785e-05
1.9078e-05
9.95959e-06
2.23732e-05
2.23736e-05
9.95993e-06
2.23794e-05
2.23799e-05
4.7089e-06
2.97529e-06
5.65031e-06
9.9297e-06
2.9755e-06
9.92719e-06
4.70852e-06
4.70322e-06
2.97427e-06
5.64853e-06
9.92495e-06
9.92309e-06
2.97445e-06
4.70284e-06
4.70785e-06
9.92433e-06
2.97511e-06
5.64907e-06
2.97492e-06
4.70822e-06
9.92684e-06
4.70216e-06
9.92019e-06
2.97407e-06
5.64742e-06
4.70253e-06
9.92209e-06
2.97389e-06
9.96172e-06
2.23852e-05
2.23856e-05
2.23789e-05
2.23794e-05
9.96137e-06
1.90773e-05
1.90766e-05
1.264e-05
4.88166e-06
1.12335e-05
4.2365e-06
4.88177e-06
1.12305e-05
1.26437e-05
2.27381e-05
9.55256e-06
7.23759e-06
7.23742e-06
2.27312e-05
2.27376e-05
7.23869e-06
9.5536e-06
7.23887e-06
2.27445e-05
1.26398e-05
4.23572e-06
4.88103e-06
1.1227e-05
4.88091e-06
1.123e-05
1.2636e-05
1.26395e-05
4.88184e-06
1.12336e-05
4.23649e-06
4.88199e-06
1.12306e-05
1.26433e-05
2.27372e-05
9.55324e-06
7.23933e-06
7.23893e-06
2.273e-05
2.27365e-05
7.24021e-06
9.5543e-06
7.24061e-06
2.27437e-05
1.26394e-05
4.23577e-06
4.88125e-06
1.12271e-05
4.8811e-06
1.123e-05
1.26357e-05
1.26475e-05
4.8825e-06
1.1234e-05
4.23703e-06
1.26438e-05
4.88236e-06
1.1237e-05
2.27504e-05
9.55943e-06
7.2412e-06
7.2414e-06
2.27573e-05
2.27509e-05
7.24014e-06
9.5584e-06
2.2744e-05
7.23995e-06
1.26476e-05
4.23779e-06
4.88308e-06
1.12405e-05
4.88321e-06
1.12375e-05
1.26512e-05
1.26471e-05
4.88272e-06
1.12341e-05
4.23709e-06
1.26434e-05
4.88256e-06
1.12371e-05
2.27493e-05
9.56009e-06
7.24274e-06
7.24314e-06
2.27564e-05
2.27501e-05
7.24188e-06
9.55911e-06
2.27429e-05
7.24148e-06
1.26472e-05
4.23778e-06
4.88327e-06
1.12405e-05
4.88343e-06
1.12376e-05
1.26509e-05
1.90653e-05
1.9066e-05
1.90672e-05
1.90679e-05
9.95914e-06
2.23734e-05
2.23726e-05
9.95948e-06
2.23796e-05
2.23788e-05
4.70301e-06
2.97418e-06
5.64848e-06
9.92512e-06
4.70265e-06
2.97435e-06
9.92265e-06
4.70873e-06
2.97537e-06
5.65041e-06
9.92961e-06
4.70838e-06
2.97554e-06
9.92776e-06
4.70198e-06
9.9198e-06
2.97397e-06
5.64737e-06
4.70233e-06
2.9738e-06
9.92224e-06
4.70771e-06
9.92487e-06
2.97516e-06
5.6493e-06
4.70805e-06
2.97499e-06
9.92677e-06
9.96126e-06
2.23854e-05
2.23845e-05
9.96091e-06
2.23791e-05
2.23783e-05
1.90771e-05
1.90765e-05
1.90789e-05
1.90783e-05
2.27632e-05
7.24246e-06
9.56372e-06
2.27563e-05
7.24224e-06
1.26549e-05
4.23828e-06
1.1241e-05
4.88382e-06
1.26521e-05
1.1244e-05
4.88371e-06
9.56495e-06
1.90874e-05
1.90892e-05
4.41732e-07
4.41691e-07
6.53427e-07
4.4362e-07
4.43583e-07
2.35584e-07
2.33654e-07
2.82691e-06
1.96719e-06
1.96744e-06
1.41372e-06
1.9665e-06
1.96673e-06
2.82722e-06
2.82822e-06
1.9687e-06
1.96895e-06
1.4166e-06
2.82855e-06
1.96799e-06
1.96822e-06
2.82692e-06
1.96718e-06
1.96741e-06
1.41371e-06
1.96649e-06
1.96672e-06
2.82723e-06
2.82826e-06
1.41738e-06
1.96764e-06
1.96787e-06
1.96835e-06
1.96858e-06
2.82793e-06
2.82682e-06
1.96731e-06
1.9672e-06
1.41363e-06
1.9665e-06
1.9666e-06
2.82715e-06
2.82817e-06
1.41737e-06
1.96775e-06
1.96765e-06
1.96848e-06
1.96837e-06
2.82783e-06
2.82696e-06
1.96735e-06
1.96726e-06
1.4137e-06
1.96657e-06
1.96664e-06
2.82727e-06
2.8283e-06
1.41743e-06
1.96779e-06
1.96772e-06
1.96851e-06
1.96843e-06
2.82798e-06
2.82825e-06
1.41746e-06
1.96766e-06
1.96789e-06
2.82792e-06
1.96836e-06
1.96861e-06
4.41739e-07
4.41692e-07
6.53435e-07
4.43627e-07
4.43581e-07
2.35583e-07
2.33653e-07
4.41818e-07
4.41778e-07
6.53523e-07
4.43706e-07
4.43665e-07
2.3565e-07
2.3372e-07
4.41815e-07
4.41775e-07
6.53523e-07
4.43706e-07
4.43663e-07
2.35649e-07
2.33717e-07
6.54993e-07
4.47307e-07
4.47271e-07
4.4549e-07
4.45449e-07
2.37512e-07
2.39415e-07
6.55001e-07
4.47314e-07
4.47269e-07
4.45497e-07
4.45451e-07
2.37511e-07
2.39414e-07
6.5509e-07
4.47393e-07
4.47352e-07
4.45576e-07
4.45536e-07
2.37577e-07
2.3948e-07
6.55088e-07
4.47394e-07
4.4735e-07
4.45572e-07
4.45533e-07
2.37575e-07
2.39479e-07
1.66439e-06
2.53957e-06
1.54158e-06
2.29417e-06
2.53979e-06
1.54243e-06
1.66314e-06
1.84158e-06
2.22239e-06
3.64426e-06
3.02097e-06
2.22191e-06
3.0206e-06
1.84268e-06
1.84319e-06
3.02108e-06
3.64514e-06
2.22227e-06
2.22275e-06
3.02144e-06
1.84213e-06
1.66258e-06
2.29363e-06
2.53939e-06
1.54185e-06
2.53917e-06
1.541e-06
1.66389e-06
1.66431e-06
1.54152e-06
2.53941e-06
2.29415e-06
1.54244e-06
2.53962e-06
1.66297e-06
1.84146e-06
2.22243e-06
3.64432e-06
3.0206e-06
2.22194e-06
3.02026e-06
1.8426e-06
1.84311e-06
3.02072e-06
3.64515e-06
2.2223e-06
2.22279e-06
3.02108e-06
1.84194e-06
1.66246e-06
2.29355e-06
1.54184e-06
2.53922e-06
1.54095e-06
2.539e-06
1.66381e-06
2.82759e-06
1.416e-06
1.96691e-06
1.96714e-06
1.96761e-06
1.96785e-06
2.82727e-06
2.82759e-06
1.41593e-06
1.9669e-06
1.96713e-06
2.82727e-06
1.96759e-06
1.96783e-06
2.82761e-06
1.41521e-06
1.96798e-06
1.96821e-06
2.82793e-06
1.96728e-06
1.96751e-06
1.66462e-06
2.53934e-06
1.54142e-06
2.29408e-06
2.53955e-06
1.5424e-06
1.66261e-06
1.8413e-06
2.22234e-06
3.64408e-06
3.02053e-06
3.02018e-06
2.22187e-06
1.84258e-06
1.84314e-06
3.02065e-06
3.6449e-06
2.22222e-06
3.021e-06
2.2227e-06
1.84176e-06
1.66215e-06
2.29349e-06
2.53914e-06
1.54181e-06
2.53894e-06
1.54084e-06
1.66397e-06
1.66439e-06
2.53962e-06
1.54148e-06
2.29415e-06
2.53982e-06
1.54243e-06
1.66308e-06
1.84164e-06
2.2227e-06
3.64462e-06
3.02114e-06
3.02078e-06
2.2222e-06
1.84275e-06
1.84326e-06
3.02126e-06
3.64546e-06
2.22256e-06
3.02161e-06
1.84217e-06
2.22306e-06
1.66254e-06
2.29355e-06
2.53942e-06
1.54184e-06
2.53922e-06
1.5409e-06
1.66389e-06
1.66306e-06
2.53993e-06
1.54296e-06
2.29432e-06
1.6651e-06
2.53971e-06
1.54197e-06
1.84431e-06
2.22287e-06
3.64617e-06
3.02154e-06
2.22337e-06
3.02191e-06
1.84265e-06
1.84218e-06
3.02147e-06
2.22305e-06
3.64538e-06
2.22255e-06
1.84371e-06
3.02111e-06
1.66561e-06
2.29488e-06
2.54007e-06
1.54249e-06
2.54029e-06
1.54348e-06
1.66361e-06
1.66361e-06
2.5402e-06
1.54298e-06
2.29438e-06
1.66486e-06
2.53999e-06
1.54203e-06
1.84421e-06
2.2232e-06
3.64673e-06
3.02215e-06
3.02251e-06
2.22372e-06
1.84322e-06
1.8427e-06
3.02207e-06
2.2234e-06
3.64591e-06
1.84375e-06
3.02171e-06
2.22289e-06
1.66529e-06
2.29494e-06
2.54034e-06
1.54255e-06
2.54056e-06
1.5435e-06
1.6641e-06
2.82751e-06
1.41591e-06
1.96701e-06
1.96691e-06
1.96761e-06
1.96773e-06
2.82718e-06
2.82752e-06
1.41513e-06
1.96812e-06
1.968e-06
1.9674e-06
2.82785e-06
1.96729e-06
1.66451e-06
2.53964e-06
1.54155e-06
2.29424e-06
2.53984e-06
1.5425e-06
1.66293e-06
1.84157e-06
2.22276e-06
3.64481e-06
3.02116e-06
3.02077e-06
2.22228e-06
1.84281e-06
1.84334e-06
3.02125e-06
3.64569e-06
2.22264e-06
3.02164e-06
2.22313e-06
1.84206e-06
1.6625e-06
2.29363e-06
2.53943e-06
1.54191e-06
2.53921e-06
1.54096e-06
1.66397e-06
1.66439e-06
1.54149e-06
2.53942e-06
2.29415e-06
1.54245e-06
2.53963e-06
1.66277e-06
1.84137e-06
2.22264e-06
3.64463e-06
3.02065e-06
3.0203e-06
2.22215e-06
1.84265e-06
1.8432e-06
3.02077e-06
3.64552e-06
2.22251e-06
3.02113e-06
1.84184e-06
2.22301e-06
1.66237e-06
2.29357e-06
1.54186e-06
2.53923e-06
1.54091e-06
2.53902e-06
1.66384e-06
1.66328e-06
2.54021e-06
1.54306e-06
2.29446e-06
1.6651e-06
2.53998e-06
1.54208e-06
1.84444e-06
2.22328e-06
3.64696e-06
3.02214e-06
2.22379e-06
3.02254e-06
1.84287e-06
1.84248e-06
3.0221e-06
2.22347e-06
3.64611e-06
2.22297e-06
1.84387e-06
3.0217e-06
1.66575e-06
2.29503e-06
2.54037e-06
1.54261e-06
2.54058e-06
1.54359e-06
1.66377e-06
1.66312e-06
1.54301e-06
2.54001e-06
2.2944e-06
1.66499e-06
1.54203e-06
2.53979e-06
1.84438e-06
2.22315e-06
3.64679e-06
3.02166e-06
3.02204e-06
2.22368e-06
1.84262e-06
1.84225e-06
3.0216e-06
2.22335e-06
3.64593e-06
1.84376e-06
3.02123e-06
2.22284e-06
1.66568e-06
2.29495e-06
1.54255e-06
2.54015e-06
1.54354e-06
2.54037e-06
1.66355e-06
1.66465e-06
1.54148e-06
2.53939e-06
2.2941e-06
1.54243e-06
2.53962e-06
1.66266e-06
1.84134e-06
2.22237e-06
3.64419e-06
3.02058e-06
2.22189e-06
3.0202e-06
1.84264e-06
1.8432e-06
3.02067e-06
3.64503e-06
2.22225e-06
2.22274e-06
3.02106e-06
1.8418e-06
1.66223e-06
2.29356e-06
1.54184e-06
2.53922e-06
1.54091e-06
2.539e-06
1.664e-06
1.66366e-06
2.54017e-06
1.54298e-06
2.29446e-06
1.66485e-06
2.53994e-06
1.54212e-06
1.84415e-06
2.22291e-06
3.64641e-06
3.02197e-06
1.84316e-06
2.22342e-06
3.02234e-06
1.84267e-06
3.0219e-06
2.2231e-06
3.64556e-06
1.84368e-06
2.2226e-06
3.02153e-06
1.66528e-06
2.29497e-06
2.5403e-06
1.54264e-06
1.6641e-06
2.54053e-06
1.5435e-06
1.66307e-06
1.54299e-06
2.54e-06
2.29439e-06
1.66519e-06
1.54203e-06
2.53977e-06
1.8444e-06
2.22289e-06
3.6463e-06
3.02156e-06
3.02196e-06
2.2234e-06
1.8426e-06
1.84221e-06
3.02152e-06
2.22308e-06
3.64549e-06
1.84377e-06
3.02113e-06
2.22258e-06
1.66576e-06
2.29489e-06
1.54255e-06
2.54013e-06
1.54351e-06
2.54036e-06
1.66356e-06
2.82763e-06
1.41598e-06
1.96705e-06
1.96698e-06
1.96767e-06
1.96776e-06
2.82732e-06
2.82766e-06
1.4152e-06
1.96815e-06
1.96806e-06
1.96743e-06
2.82798e-06
1.96736e-06
1.66447e-06
1.54154e-06
2.53958e-06
2.2942e-06
1.54248e-06
2.53981e-06
1.66293e-06
1.84155e-06
2.22279e-06
3.64481e-06
3.02111e-06
2.22229e-06
3.02073e-06
1.84282e-06
1.84337e-06
3.0212e-06
3.64565e-06
2.22265e-06
2.22315e-06
3.02159e-06
1.84202e-06
1.66251e-06
2.29361e-06
1.54189e-06
2.53941e-06
1.54096e-06
2.53919e-06
1.66394e-06
1.6634e-06
1.54299e-06
2.53999e-06
2.29438e-06
1.66477e-06
1.54206e-06
2.53975e-06
1.84412e-06
2.22294e-06
3.64641e-06
3.0216e-06
1.84277e-06
2.22346e-06
3.02197e-06
1.84239e-06
3.02154e-06
2.22314e-06
3.64561e-06
1.84361e-06
2.22263e-06
3.02117e-06
1.66524e-06
2.29496e-06
1.54256e-06
2.54012e-06
1.66368e-06
1.54352e-06
2.54035e-06
1.66329e-06
1.54304e-06
2.54019e-06
2.29444e-06
1.66504e-06
1.54208e-06
2.53995e-06
1.84451e-06
2.2233e-06
3.64692e-06
3.02209e-06
3.02249e-06
2.22382e-06
1.84288e-06
1.84244e-06
3.02205e-06
2.22349e-06
3.6461e-06
1.84392e-06
3.02165e-06
2.22299e-06
1.66568e-06
2.29499e-06
1.54259e-06
2.54031e-06
1.54356e-06
2.54055e-06
1.66374e-06
2.8276e-06
1.41523e-06
1.968e-06
1.96824e-06
2.82793e-06
1.9673e-06
1.96753e-06
1.84291e-06
2.22371e-06
3.02238e-06
3.6467e-06
2.22319e-06
1.84499e-06
3.02197e-06
1.66389e-06
2.29512e-06
1.54401e-06
2.54069e-06
1.54301e-06
1.66617e-06
2.54044e-06
2.22412e-06
3.64732e-06
2.22359e-06
3.23649e-07
8.68842e-07
8.68943e-07
1.15393e-06
3.39684e-07
8.92278e-07
8.92375e-07
1.17341e-06
3.55962e-07
9.14721e-07
9.14815e-07
1.19185e-06
3.72405e-07
9.36155e-07
9.36249e-07
1.20937e-06
3.8893e-07
9.56576e-07
9.56669e-07
1.22605e-06
4.05457e-07
9.76006e-07
9.76096e-07
1.24185e-06
4.21909e-07
9.94446e-07
9.94533e-07
1.25687e-06
4.38209e-07
1.0119e-06
1.01199e-06
1.27105e-06
4.54285e-07
1.02839e-06
1.02847e-06
1.28447e-06
4.70071e-07
1.04392e-06
1.044e-06
1.29721e-06
4.85506e-07
1.05853e-06
1.0586e-06
1.30923e-06
5.00538e-07
1.07222e-06
1.0723e-06
1.32045e-06
5.1512e-07
1.08503e-06
1.08511e-06
1.33101e-06
5.29211e-07
1.09699e-06
1.09707e-06
1.34092e-06
5.42774e-07
1.10812e-06
1.10821e-06
1.35019e-06
5.55781e-07
1.11845e-06
1.11853e-06
1.35885e-06
5.68203e-07
1.128e-06
1.12808e-06
1.36692e-06
5.80021e-07
1.13679e-06
1.13688e-06
1.3744e-06
5.91221e-07
1.14486e-06
1.14494e-06
1.38132e-06
6.01792e-07
1.15223e-06
1.1523e-06
1.38769e-06
6.11727e-07
1.15891e-06
1.15898e-06
1.39353e-06
6.21021e-07
1.16493e-06
1.16499e-06
1.39886e-06
6.29676e-07
1.17031e-06
1.17038e-06
1.40368e-06
6.37693e-07
1.17508e-06
1.17514e-06
1.40801e-06
6.45079e-07
1.17926e-06
1.17932e-06
1.41185e-06
1.15423e-06
1.16793e-06
8.68976e-07
8.69017e-07
8.86623e-07
8.86681e-07
1.15445e-06
1.16783e-06
8.68862e-07
8.69064e-07
8.8654e-07
8.86724e-07
8.69061e-07
8.86508e-07
8.8673e-07
1.15409e-06
1.1682e-06
8.68955e-07
8.86607e-07
8.86624e-07
1.16821e-06
1.17361e-06
1.1865e-06
8.92389e-07
8.92445e-07
9.09315e-07
9.0937e-07
1.17359e-06
1.18646e-06
8.92312e-07
8.9249e-07
9.09229e-07
9.09411e-07
8.92497e-07
9.09202e-07
9.09418e-07
1.17343e-06
1.18675e-06
8.92393e-07
9.09297e-07
9.09318e-07
1.18679e-06
1.192e-06
1.20422e-06
9.14831e-07
9.14883e-07
9.31001e-07
9.31054e-07
1.19189e-06
1.20417e-06
9.14749e-07
9.14927e-07
9.30914e-07
9.31093e-07
9.14936e-07
9.30889e-07
9.31102e-07
1.19185e-06
1.2044e-06
9.14834e-07
9.30983e-07
9.31004e-07
1.20449e-06
1.20953e-06
1.22103e-06
9.36263e-07
9.36314e-07
9.51675e-07
9.51724e-07
1.20936e-06
1.22103e-06
9.36182e-07
9.36355e-07
9.51584e-07
9.51762e-07
9.36367e-07
9.51565e-07
9.51777e-07
1.20937e-06
1.22113e-06
9.36269e-07
9.51659e-07
9.51674e-07
1.22126e-06
1.22616e-06
1.23701e-06
9.56684e-07
9.56731e-07
9.71347e-07
9.71393e-07
1.22596e-06
1.23702e-06
9.56599e-07
9.56771e-07
9.71255e-07
9.71428e-07
9.5679e-07
9.71241e-07
9.71445e-07
1.22609e-06
1.2371e-06
9.56686e-07
9.71331e-07
9.7134e-07
1.23721e-06
1.24197e-06
1.25217e-06
9.76109e-07
9.76154e-07
9.90028e-07
9.90071e-07
1.24179e-06
1.25218e-06
9.76023e-07
9.7619e-07
9.89939e-07
9.90106e-07
9.76211e-07
9.89929e-07
9.90124e-07
1.24193e-06
1.25226e-06
9.76106e-07
9.90016e-07
9.90017e-07
1.25236e-06
1.25697e-06
1.26655e-06
9.94543e-07
9.94585e-07
1.00772e-06
1.00776e-06
1.2568e-06
1.26655e-06
9.9446e-07
9.94621e-07
1.00764e-06
1.0078e-06
9.94643e-07
1.00763e-06
1.00782e-06
1.25692e-06
1.26662e-06
9.94536e-07
1.00771e-06
1.00771e-06
1.2667e-06
1.27115e-06
1.28014e-06
1.01199e-06
1.01203e-06
1.02444e-06
1.02448e-06
1.27101e-06
1.28013e-06
1.01191e-06
1.01207e-06
1.02436e-06
1.02452e-06
1.01209e-06
1.02436e-06
1.02453e-06
1.27112e-06
1.28021e-06
1.01198e-06
1.02444e-06
1.02442e-06
1.28028e-06
1.28457e-06
1.29298e-06
1.02847e-06
1.02851e-06
1.04021e-06
1.04024e-06
1.28444e-06
1.29296e-06
1.02839e-06
1.02854e-06
1.04013e-06
1.04028e-06
1.02857e-06
1.04013e-06
1.04029e-06
1.28455e-06
1.29305e-06
1.02846e-06
1.0402e-06
1.04018e-06
1.293e-06
1.29723e-06
1.30511e-06
1.044e-06
1.04404e-06
1.05504e-06
1.05507e-06
1.29711e-06
1.30509e-06
1.04393e-06
1.04407e-06
1.05496e-06
1.05511e-06
1.04409e-06
1.05496e-06
1.05513e-06
1.2972e-06
1.30514e-06
1.04398e-06
1.05504e-06
1.05501e-06
1.30511e-06
1.30915e-06
1.3165e-06
1.0586e-06
1.05864e-06
1.06896e-06
1.06899e-06
1.30904e-06
1.31648e-06
1.05852e-06
1.05867e-06
1.06887e-06
1.06902e-06
1.05869e-06
1.06888e-06
1.06904e-06
1.30914e-06
1.31654e-06
1.05858e-06
1.06896e-06
1.06893e-06
1.31651e-06
1.32038e-06
1.32723e-06
1.0723e-06
1.07233e-06
1.08199e-06
1.08202e-06
1.32028e-06
1.32714e-06
1.07222e-06
1.07236e-06
1.0819e-06
1.08205e-06
1.07238e-06
1.08191e-06
1.08207e-06
1.3204e-06
1.32725e-06
1.07227e-06
1.08199e-06
1.08196e-06
1.32725e-06
1.33094e-06
1.33727e-06
1.08511e-06
1.08514e-06
1.09416e-06
1.09419e-06
1.33086e-06
1.3372e-06
1.08502e-06
1.08517e-06
1.09406e-06
1.09422e-06
1.0852e-06
1.09408e-06
1.09424e-06
1.33097e-06
1.3373e-06
1.08509e-06
1.09416e-06
1.09413e-06
1.3373e-06
1.34084e-06
1.34669e-06
1.09707e-06
1.0971e-06
1.10549e-06
1.10552e-06
1.34079e-06
1.3466e-06
1.09698e-06
1.09713e-06
1.1054e-06
1.10555e-06
1.09715e-06
1.10541e-06
1.10557e-06
1.34089e-06
1.34671e-06
1.09705e-06
1.1055e-06
1.10547e-06
1.34672e-06
1.35012e-06
1.35548e-06
1.1082e-06
1.10822e-06
1.11602e-06
1.11604e-06
1.35006e-06
1.3554e-06
1.10811e-06
1.10826e-06
1.11592e-06
1.11607e-06
1.10828e-06
1.11594e-06
1.11609e-06
1.35017e-06
1.35551e-06
1.10818e-06
1.11602e-06
1.11599e-06
1.35551e-06
1.35878e-06
1.36369e-06
1.11852e-06
1.11855e-06
1.12576e-06
1.12578e-06
1.35873e-06
1.36359e-06
1.11844e-06
1.11858e-06
1.12567e-06
1.12581e-06
1.1186e-06
1.12568e-06
1.12583e-06
1.35883e-06
1.36369e-06
1.1185e-06
1.12576e-06
1.12573e-06
1.3637e-06
1.36684e-06
1.3713e-06
1.12808e-06
1.1281e-06
1.13474e-06
1.13476e-06
1.3668e-06
1.3712e-06
1.12799e-06
1.12813e-06
1.13465e-06
1.1348e-06
1.12815e-06
1.13466e-06
1.13481e-06
1.3669e-06
1.3713e-06
1.12805e-06
1.13475e-06
1.13471e-06
1.37131e-06
1.37434e-06
1.37834e-06
1.13688e-06
1.13689e-06
1.14299e-06
1.14301e-06
1.37429e-06
1.37824e-06
1.13679e-06
1.13693e-06
1.1429e-06
1.14304e-06
1.13694e-06
1.14291e-06
1.14306e-06
1.37439e-06
1.37833e-06
1.13685e-06
1.14299e-06
1.14296e-06
1.37834e-06
1.38126e-06
1.38482e-06
1.14495e-06
1.14496e-06
1.15053e-06
1.15055e-06
1.38122e-06
1.38473e-06
1.14486e-06
1.14499e-06
1.15044e-06
1.15058e-06
1.14501e-06
1.15045e-06
1.15059e-06
1.3813e-06
1.38482e-06
1.14491e-06
1.15052e-06
1.1505e-06
1.38483e-06
1.38765e-06
1.39074e-06
1.15231e-06
1.15233e-06
1.15738e-06
1.1574e-06
1.38759e-06
1.39068e-06
1.15222e-06
1.15235e-06
1.15729e-06
1.15742e-06
1.15237e-06
1.1573e-06
1.15744e-06
1.38767e-06
1.39077e-06
1.15227e-06
1.15737e-06
1.15734e-06
1.39077e-06
1.39349e-06
1.39616e-06
1.15899e-06
1.15901e-06
1.16356e-06
1.16358e-06
1.39343e-06
1.3961e-06
1.1589e-06
1.15903e-06
1.16347e-06
1.1636e-06
1.15905e-06
1.16348e-06
1.16362e-06
1.3935e-06
1.39618e-06
1.15895e-06
1.16355e-06
1.16353e-06
1.39619e-06
1.39881e-06
1.40109e-06
1.16501e-06
1.16503e-06
1.1691e-06
1.16912e-06
1.39876e-06
1.401e-06
1.16492e-06
1.16505e-06
1.16901e-06
1.16914e-06
1.16507e-06
1.16902e-06
1.16916e-06
1.39882e-06
1.40108e-06
1.16497e-06
1.16909e-06
1.16907e-06
1.4011e-06
1.40361e-06
1.40551e-06
1.17039e-06
1.17041e-06
1.17402e-06
1.17404e-06
1.40358e-06
1.40542e-06
1.1703e-06
1.17043e-06
1.17393e-06
1.17405e-06
1.17045e-06
1.17394e-06
1.17408e-06
1.40364e-06
1.40549e-06
1.17036e-06
1.174e-06
1.17398e-06
1.40552e-06
1.40793e-06
1.40945e-06
1.17516e-06
1.17518e-06
1.17833e-06
1.17836e-06
1.40791e-06
1.40936e-06
1.17507e-06
1.17519e-06
1.17824e-06
1.17837e-06
1.17522e-06
1.17826e-06
1.1784e-06
1.40797e-06
1.40943e-06
1.17513e-06
1.17832e-06
1.1783e-06
1.40946e-06
1.41177e-06
1.41291e-06
1.17933e-06
1.17936e-06
1.18207e-06
1.1821e-06
1.41176e-06
1.41284e-06
1.17924e-06
1.17937e-06
1.18198e-06
1.18211e-06
1.17939e-06
1.182e-06
1.18214e-06
1.41182e-06
1.4129e-06
1.1793e-06
1.18206e-06
1.18204e-06
1.41293e-06
4.09727e-06
9.16253e-06
9.16896e-06
4.09543e-06
1.84294e-05
1.84399e-05
4.09789e-06
9.16434e-06
9.1709e-06
4.0954e-06
3.23645e-07
3.23723e-07
3.23727e-07
3.35649e-07
3.35647e-07
3.35725e-07
3.35733e-07
2.11423e-06
3.47755e-06
5.64104e-07
8.74792e-07
3.48014e-06
5.69972e-07
2.10973e-06
1.843e-05
1.84406e-05
2.11421e-06
5.64206e-07
3.47716e-06
8.74893e-07
5.70075e-07
3.4807e-06
2.10968e-06
5.46406e-06
5.46597e-06
1.15861e-06
5.46687e-06
5.46883e-06
4.105e-06
9.17846e-06
4.10305e-06
9.18511e-06
1.84517e-05
1.84625e-05
4.1055e-06
9.18058e-06
4.10289e-06
9.18728e-06
3.39682e-07
3.3976e-07
3.39769e-07
3.51873e-07
3.51874e-07
3.51953e-07
3.51962e-07
2.12805e-06
3.48854e-06
5.87437e-07
8.97981e-07
2.12379e-06
3.49107e-06
5.93233e-07
1.84522e-05
1.84632e-05
2.12806e-06
5.87542e-07
3.48806e-06
8.98079e-07
2.12374e-06
5.93336e-07
3.49151e-06
5.47327e-06
5.47535e-06
1.17764e-06
5.47602e-06
5.47792e-06
4.11246e-06
9.19484e-06
4.11062e-06
9.20158e-06
1.84748e-05
1.84859e-05
4.11292e-06
9.19703e-06
4.1105e-06
9.20375e-06
3.55963e-07
3.56042e-07
3.56052e-07
3.68283e-07
3.68286e-07
3.68365e-07
3.68376e-07
2.14114e-06
3.49903e-06
6.10443e-07
9.20173e-07
2.13713e-06
3.50152e-06
6.16139e-07
1.84753e-05
1.84866e-05
2.14112e-06
6.10543e-07
3.49874e-06
9.20268e-07
2.13707e-06
6.16238e-07
3.50187e-06
5.48238e-06
5.48445e-06
1.19579e-06
5.48511e-06
5.48707e-06
4.11986e-06
9.21139e-06
4.11793e-06
9.21818e-06
1.84986e-05
1.851e-05
4.12027e-06
9.21357e-06
4.1179e-06