/*--------------------------------*- C++ -*----------------------------------*\
| =========                 |                                                 |
| \\      /  F ield         | OpenFOAM: The Open Source CFD Toolbox           |
|  \\    /   O peration     | Version:  v1906                                 |
|   \\  /    A nd           | Web:      www.OpenFOAM.com                      |
|    \\/     M anipulation  |                                                 |
\*---------------------------------------------------------------------------*/
FoamFile
{
    version     2.0;
    format      ascii;
    class       volScalarField;
    location    "850";
    object      k;
}
// * * * * * * * * * * * * * * * * * * * * * * * * * * * * * * * * * * * * * //

dimensions      [0 2 -2 0 0 0 0];


internalField   nonuniform List<scalar> 
42840
(
3.83841e-05
5.11093e-05
5.11095e-05
5.32905e-05
5.34873e-05
5.33006e-05
5.34316e-05
5.11067e-05
5.11074e-05
5.12929e-05
5.12935e-05
5.32909e-05
5.34426e-05
5.11068e-05
5.1106e-05
5.12929e-05
5.12921e-05
5.11091e-05
5.12955e-05
5.12952e-05
5.32902e-05
5.34419e-05
5.11089e-05
5.12956e-05
5.1295e-05
5.34427e-05
5.13552e-05
5.1355e-05
6.85104e-05
7.3354e-05
7.33804e-05
6.84822e-05
7.1115e-05
7.11411e-05
6.85151e-05
7.33605e-05
7.3385e-05
6.84865e-05
3.8385e-05
3.83874e-05
3.83883e-05
3.86997e-05
3.87006e-05
3.8703e-05
3.87039e-05
6.05228e-05
6.46929e-05
4.63281e-05
5.11725e-05
6.47235e-05
4.64078e-05
6.04776e-05
7.11134e-05
7.11397e-05
6.05221e-05
4.63292e-05
6.46932e-05
5.11727e-05
4.64088e-05
6.47245e-05
6.04732e-05
6.98622e-05
6.98734e-05
5.33451e-05
6.98806e-05
6.98922e-05
6.99175e-05
6.99286e-05
7.11129e-05
7.11389e-05
7.11154e-05
7.11415e-05
6.98625e-05
6.98722e-05
5.33343e-05
6.98809e-05
6.98914e-05
7.11664e-05
7.11407e-05
7.1169e-05
7.11432e-05
5.33989e-05
6.99084e-05
6.9919e-05
6.98909e-05
6.99005e-05
6.85124e-05
7.33589e-05
7.33854e-05
6.84845e-05
6.05212e-05
6.46908e-05
4.63248e-05
5.11699e-05
6.4722e-05
4.64045e-05
6.04724e-05
6.05225e-05
6.46953e-05
4.63261e-05
5.11707e-05
6.47262e-05
4.64058e-05
6.04738e-05
6.85144e-05
7.3409e-05
7.33843e-05
6.85414e-05
6.85163e-05
7.3415e-05
7.3389e-05
6.85434e-05
6.05292e-05
5.12325e-05
6.47576e-05
4.65596e-05
6.4728e-05
4.64834e-05
6.05752e-05
6.05306e-05
5.12332e-05
6.47618e-05
4.65608e-05
6.47323e-05
4.64847e-05
6.05766e-05
6.98723e-05
6.98605e-05
5.33451e-05
6.9891e-05
6.98781e-05
7.11115e-05
7.11377e-05
7.11685e-05
7.11427e-05
5.3389e-05
6.99183e-05
6.99054e-05
6.99001e-05
6.98888e-05
7.11652e-05
7.11393e-05
6.05241e-05
6.46953e-05
4.63267e-05
5.11699e-05
6.47263e-05
4.64064e-05
6.04752e-05
6.85128e-05
7.33542e-05
7.33806e-05
6.84842e-05
6.05221e-05
4.63266e-05
6.46897e-05
5.11692e-05
4.64062e-05
6.47202e-05
6.04731e-05
6.85187e-05
7.34147e-05
7.33906e-05
6.85461e-05
6.0532e-05
5.12326e-05
6.47621e-05
4.65614e-05
6.47327e-05
4.64852e-05
6.05782e-05
6.85165e-05
7.34102e-05
7.33843e-05
6.85438e-05
6.053e-05
5.12317e-05
4.65613e-05
6.47559e-05
4.64851e-05
6.4727e-05
6.05762e-05
6.85127e-05
7.33594e-05
7.33838e-05
6.84865e-05
6.05228e-05
4.63283e-05
6.46913e-05
5.11723e-05
4.64079e-05
6.47226e-05
6.04741e-05
6.85117e-05
7.33553e-05
7.33818e-05
6.8484e-05
6.05344e-05
5.12351e-05
6.47593e-05
4.65629e-05
6.47301e-05
4.64867e-05
6.05766e-05
6.85186e-05
7.34138e-05
7.33894e-05
6.85436e-05
6.05308e-05
5.12349e-05
4.65629e-05
6.47582e-05
4.64868e-05
6.47286e-05
6.05767e-05
6.85158e-05
7.34113e-05
7.33853e-05
6.85426e-05
6.9866e-05
6.9863e-05
5.33444e-05
6.98836e-05
6.98818e-05
7.1114e-05
7.11401e-05
7.11671e-05
7.11412e-05
5.33884e-05
6.9911e-05
6.9909e-05
6.98943e-05
6.98912e-05
7.11675e-05
7.11417e-05
6.05234e-05
4.63296e-05
6.46964e-05
5.11721e-05
4.64091e-05
6.47274e-05
6.04748e-05
6.8511e-05
7.33565e-05
7.3383e-05
6.84831e-05
6.85135e-05
7.33593e-05
7.33857e-05
6.84855e-05
6.05304e-05
5.12352e-05
4.65638e-05
6.47601e-05
4.64877e-05
6.47303e-05
6.0576e-05
6.05315e-05
5.12347e-05
4.65641e-05
6.47633e-05
4.6488e-05
6.47336e-05
6.05774e-05
6.85153e-05
7.34125e-05
7.33865e-05
6.85417e-05
6.85176e-05
7.34152e-05
7.33894e-05
6.85443e-05
7.11132e-05
7.11393e-05
7.1116e-05
7.11421e-05
5.33891e-05
6.99081e-05
6.99194e-05
6.98906e-05
6.99017e-05
7.11667e-05
7.1141e-05
7.11695e-05
7.11437e-05
4.66385e-05
6.47641e-05
6.05842e-05
7.34148e-05
6.85463e-05
6.4769e-05
7.34197e-05
7.11683e-05
7.11711e-05
7.17898e-05
7.15691e-05
7.15383e-05
6.84984e-05
7.15565e-05
7.15267e-05
7.17994e-05
7.16284e-05
7.33654e-05
7.96977e-05
7.97023e-05
7.16134e-05
7.16269e-05
7.97156e-05
7.33692e-05
7.97111e-05
7.16419e-05
7.17849e-05
6.84943e-05
7.15418e-05
7.15119e-05
7.15542e-05
7.15236e-05
7.17751e-05
7.11272e-05
7.11289e-05
7.17907e-05
7.15465e-05
7.15713e-05
6.85026e-05
7.15341e-05
7.15588e-05
7.18045e-05
7.16305e-05
7.33701e-05
7.97154e-05
7.9724e-05
7.16159e-05
7.16295e-05
7.97372e-05
7.33755e-05
7.97286e-05
7.1644e-05
7.17899e-05
6.8499e-05
7.15195e-05
7.15441e-05
7.15318e-05
7.15563e-05
7.17757e-05
7.11258e-05
7.11273e-05
9.49272e-05
7.34527e-05
7.34463e-05
7.3439e-05
7.34326e-05
9.49303e-05
7.40749e-05
6.51193e-05
6.98663e-05
7.31898e-05
6.51331e-05
7.31998e-05
7.40693e-05
7.41228e-05
6.51278e-05
6.9878e-05
7.31988e-05
6.51425e-05
7.32113e-05
7.41173e-05
7.40866e-05
7.32138e-05
6.98766e-05
6.51562e-05
6.51426e-05
7.32045e-05
7.40919e-05
7.41346e-05
7.32257e-05
6.98876e-05
6.51656e-05
6.51511e-05
7.32134e-05
7.41398e-05
9.49157e-05
7.34262e-05
7.34199e-05
7.34399e-05
7.34336e-05
9.49124e-05
7.414e-05
6.52092e-05
7.32473e-05
6.99211e-05
7.4136e-05
6.52217e-05
7.3256e-05
7.41877e-05
6.52177e-05
7.32559e-05
6.9933e-05
7.41838e-05
6.5231e-05
7.32686e-05
9.49726e-05
7.34768e-05
7.34705e-05
9.497e-05
7.34904e-05
7.3484e-05
7.11251e-05
7.11268e-05
7.11276e-05
7.11294e-05
9.49263e-05
7.34527e-05
7.3446e-05
7.34391e-05
7.34324e-05
9.49293e-05
7.40752e-05
6.51188e-05
6.98667e-05
7.31906e-05
7.31999e-05
6.51337e-05
7.40707e-05
7.41217e-05
6.51272e-05
6.98772e-05
7.31983e-05
7.32109e-05
6.51415e-05
7.4116e-05
7.4088e-05
7.32143e-05
6.98768e-05
6.51568e-05
7.32051e-05
7.40921e-05
6.51422e-05
7.41333e-05
7.32253e-05
6.98865e-05
6.51647e-05
7.3213e-05
7.41387e-05
6.51506e-05
9.49146e-05
7.34263e-05
7.34196e-05
7.344e-05
7.34333e-05
9.49115e-05
7.11544e-05
7.11527e-05
7.1157e-05
7.11553e-05
9.49437e-05
7.34518e-05
7.34451e-05
9.49409e-05
7.34654e-05
7.34587e-05
7.41213e-05
6.5201e-05
6.99045e-05
7.3243e-05
7.32339e-05
6.51873e-05
7.4125e-05
7.41667e-05
6.52089e-05
6.99141e-05
7.3254e-05
7.32416e-05
6.51956e-05
7.41711e-05
7.41087e-05
7.32197e-05
6.51651e-05
6.98948e-05
7.41049e-05
7.32289e-05
6.51792e-05
7.41553e-05
7.32275e-05
6.51734e-05
6.99052e-05
7.41502e-05
7.32396e-05
6.51871e-05
9.49553e-05
7.3478e-05
7.34713e-05
7.34645e-05
7.34578e-05
9.49578e-05
7.179e-05
7.15683e-05
7.1545e-05
6.85001e-05
7.15587e-05
7.15359e-05
7.18038e-05
7.16303e-05
7.33704e-05
7.97171e-05
7.97255e-05
7.16157e-05
7.16293e-05
7.97386e-05
7.3374e-05
7.97303e-05
7.16438e-05
7.17893e-05
6.84959e-05
7.15437e-05
7.15211e-05
7.15536e-05
7.15304e-05
7.17753e-05
7.1814e-05
7.15716e-05
7.15414e-05
6.85261e-05
7.18043e-05
7.15841e-05
7.15527e-05
7.16538e-05
7.33996e-05
7.97412e-05
7.16687e-05
7.97368e-05
7.16553e-05
7.9724e-05
7.33947e-05
7.16404e-05
7.97283e-05
7.18191e-05
6.853e-05
7.15991e-05
7.15669e-05
7.18285e-05
7.15865e-05
7.15558e-05
7.18183e-05
7.15736e-05
7.15505e-05
6.85281e-05
7.18047e-05
7.15833e-05
7.15596e-05
7.16561e-05
7.34037e-05
7.97641e-05
7.97562e-05
7.16706e-05
7.16572e-05
7.97434e-05
7.34002e-05
7.16427e-05
7.97515e-05
7.18192e-05
6.85319e-05
7.15981e-05
7.15734e-05
7.15885e-05
7.15648e-05
7.18324e-05
9.49249e-05
7.34461e-05
7.34519e-05
7.34324e-05
7.34382e-05
9.49278e-05
7.41213e-05
6.51266e-05
6.98767e-05
7.31998e-05
7.32092e-05
6.51399e-05
7.4116e-05
7.40744e-05
6.51207e-05
6.98639e-05
7.31896e-05
6.51328e-05
7.31989e-05
7.40701e-05
7.41333e-05
7.32241e-05
6.98862e-05
6.51629e-05
7.32138e-05
6.51498e-05
7.41384e-05
7.40873e-05
7.32133e-05
6.98748e-05
6.5156e-05
6.51441e-05
7.32041e-05
7.40914e-05
9.49131e-05
7.34197e-05
7.34254e-05
7.34334e-05
7.34391e-05
9.49101e-05
7.11239e-05
7.11255e-05
7.11565e-05
7.11549e-05
9.49422e-05
7.34452e-05
7.34509e-05
9.49394e-05
7.34588e-05
7.34646e-05
7.41664e-05
6.5207e-05
6.99137e-05
7.32537e-05
6.51946e-05
7.32411e-05
7.41714e-05
7.41205e-05
6.52002e-05
6.99025e-05
7.32419e-05
7.32329e-05
6.5189e-05
7.41246e-05
7.41551e-05
7.32279e-05
6.51725e-05
6.99047e-05
6.51852e-05
7.41501e-05
7.32389e-05
7.41081e-05
7.32187e-05
6.51668e-05
6.9892e-05
7.41041e-05
7.32279e-05
6.51783e-05
9.49537e-05
7.34714e-05
7.34771e-05
7.34578e-05
7.34635e-05
9.49565e-05
7.1153e-05
7.11515e-05
7.17882e-05
7.15705e-05
7.15382e-05
6.85004e-05
7.1558e-05
7.15266e-05
7.18023e-05
7.1628e-05
7.33657e-05
7.96967e-05
7.97007e-05
7.16129e-05
7.16265e-05
7.97139e-05
7.33693e-05
7.97098e-05
7.16415e-05
7.17878e-05
6.84967e-05
7.15433e-05
7.15119e-05
7.15555e-05
7.15236e-05
7.17734e-05
7.18191e-05
7.15489e-05
7.15739e-05
6.85308e-05
7.18053e-05
7.1561e-05
7.15863e-05
7.16564e-05
7.34054e-05
7.97628e-05
7.16708e-05
7.97546e-05
7.16575e-05
7.97417e-05
7.34001e-05
7.1643e-05
7.97501e-05
7.18198e-05
6.85342e-05
7.15753e-05
7.16009e-05
7.18335e-05
7.15632e-05
7.15887e-05
7.18168e-05
7.15731e-05
7.15413e-05
6.85286e-05
7.18028e-05
7.15855e-05
7.15527e-05
7.16534e-05
7.3399e-05
7.97394e-05
7.97356e-05
7.16683e-05
7.16549e-05
7.97229e-05
7.33954e-05
7.164e-05
7.97268e-05
7.18174e-05
6.8532e-05
7.16001e-05
7.15669e-05
7.15879e-05
7.15557e-05
7.1831e-05
7.17927e-05
7.1545e-05
7.15691e-05
6.85028e-05
7.1536e-05
7.15597e-05
7.18021e-05
7.16302e-05
7.3369e-05
7.97154e-05
7.97234e-05
7.16156e-05
7.16292e-05
7.97366e-05
7.33744e-05
7.97285e-05
7.16437e-05
7.17877e-05
6.84967e-05
7.15212e-05
7.15448e-05
7.15305e-05
7.15543e-05
7.17781e-05
7.17891e-05
7.15686e-05
7.15408e-05
6.84996e-05
7.15591e-05
7.15286e-05
7.18029e-05
7.16288e-05
7.33669e-05
7.96966e-05
7.97051e-05
7.16143e-05
7.16278e-05
7.97182e-05
7.33704e-05
7.97098e-05
7.16423e-05
7.17884e-05
6.84953e-05
7.15442e-05
7.1514e-05
7.15538e-05
7.15262e-05
7.17742e-05
7.18166e-05
7.15505e-05
7.15746e-05
6.85285e-05
7.18072e-05
7.15595e-05
7.15842e-05
7.16561e-05
7.34041e-05
7.97621e-05
7.97543e-05
7.16705e-05
7.16571e-05
7.97415e-05
7.3399e-05
7.16427e-05
7.97495e-05
7.18218e-05
6.85341e-05
7.15735e-05
7.15989e-05
7.15648e-05
7.15895e-05
7.18311e-05
7.18174e-05
7.1574e-05
7.15433e-05
6.85274e-05
7.18037e-05
7.15836e-05
7.15552e-05
7.16547e-05
7.34001e-05
7.97437e-05
7.97357e-05
7.16691e-05
7.16557e-05
7.97228e-05
7.33966e-05
7.16413e-05
7.97311e-05
7.18182e-05
6.85313e-05
7.15984e-05
7.15694e-05
7.15888e-05
7.15576e-05
7.18315e-05
9.49293e-05
7.34462e-05
7.34528e-05
7.34325e-05
7.34391e-05
9.49319e-05
7.41213e-05
6.51252e-05
6.98694e-05
7.3198e-05
7.32075e-05
6.51368e-05
7.41154e-05
7.40769e-05
6.51207e-05
6.98677e-05
7.31896e-05
6.51351e-05
7.32009e-05
7.4071e-05
7.41327e-05
7.32218e-05
6.98804e-05
6.51599e-05
7.32125e-05
6.51486e-05
7.41381e-05
7.40883e-05
7.32159e-05
6.98772e-05
6.51581e-05
6.51439e-05
7.32033e-05
7.40938e-05
9.49172e-05
7.34197e-05
7.34263e-05
7.34335e-05
7.34401e-05
9.49146e-05
7.11262e-05
7.11279e-05
7.11549e-05
7.11535e-05
9.49464e-05
7.34452e-05
7.34519e-05
9.49438e-05
7.34589e-05
7.34655e-05
7.4166e-05
6.52041e-05
6.99081e-05
7.32504e-05
6.51935e-05
7.32414e-05
7.41709e-05
7.41216e-05
6.52023e-05
6.99048e-05
7.32447e-05
7.32322e-05
6.51888e-05
7.41267e-05
7.4155e-05
7.32271e-05
6.51714e-05
6.98975e-05
6.51822e-05
7.41496e-05
7.32365e-05
7.41106e-05
7.32181e-05
6.51667e-05
6.98956e-05
7.41052e-05
7.32302e-05
6.51804e-05
9.49581e-05
7.34715e-05
7.34781e-05
7.34579e-05
7.34645e-05
9.49606e-05
7.11555e-05
7.11539e-05
7.17912e-05
7.15385e-05
7.15687e-05
6.84993e-05
7.15286e-05
7.15593e-05
7.18007e-05
7.16299e-05
7.33681e-05
7.96978e-05
7.97063e-05
7.16153e-05
7.16289e-05
7.97194e-05
7.33716e-05
7.97109e-05
7.16434e-05
7.17862e-05
6.84949e-05
7.15143e-05
7.15444e-05
7.15237e-05
7.15539e-05
7.17766e-05
7.17916e-05
7.15428e-05
7.15693e-05
6.85017e-05
7.15315e-05
7.15599e-05
7.18012e-05
7.16293e-05
7.33709e-05
7.97139e-05
7.97183e-05
7.16143e-05
7.16278e-05
7.97315e-05
7.33744e-05
7.97272e-05
7.16428e-05
7.17868e-05
6.84975e-05
7.15168e-05
7.1545e-05
7.15282e-05
7.15545e-05
7.1777e-05
7.18151e-05
7.15423e-05
7.15741e-05
6.85265e-05
7.18056e-05
7.15532e-05
7.15838e-05
7.16558e-05
7.34013e-05
7.97448e-05
7.97366e-05
7.16701e-05
7.16568e-05
7.97239e-05
7.33978e-05
7.16424e-05
7.97322e-05
7.18202e-05
6.85309e-05
7.15676e-05
7.15984e-05
7.15562e-05
7.1589e-05
7.18296e-05
7.18157e-05
7.15462e-05
7.15747e-05
6.85291e-05
7.18061e-05
7.15572e-05
7.15844e-05
7.16547e-05
7.34041e-05
7.97571e-05
7.97529e-05
7.16696e-05
7.16563e-05
7.97401e-05
7.34005e-05
7.16413e-05
7.97442e-05
7.18208e-05
6.85332e-05
7.15713e-05
7.1599e-05
7.15605e-05
7.15896e-05
7.18302e-05
7.11254e-05
7.11271e-05
7.11282e-05
7.11299e-05
9.49446e-05
7.34517e-05
7.34453e-05
9.49417e-05
7.34653e-05
7.34589e-05
7.41199e-05
6.52004e-05
6.99042e-05
7.32423e-05
7.41241e-05
6.51876e-05
7.32332e-05
7.41677e-05
6.52097e-05
6.99152e-05
7.32541e-05
7.41726e-05
6.51961e-05
7.3242e-05
7.41082e-05
7.3219e-05
6.51654e-05
6.98944e-05
7.41035e-05
6.51785e-05
7.32283e-05
7.41565e-05
7.32279e-05
6.51739e-05
6.99061e-05
7.41513e-05
6.51878e-05
7.32399e-05
9.4956e-05
7.34779e-05
7.34715e-05
9.49587e-05
7.34643e-05
7.3458e-05
7.11547e-05
7.1153e-05
7.11574e-05
7.11558e-05
7.16823e-05
7.97483e-05
7.3426e-05
7.1668e-05
7.9756e-05
7.18463e-05
6.85576e-05
7.16038e-05
7.15713e-05
7.18328e-05
7.16127e-05
7.15832e-05
7.34288e-05
7.11802e-05
7.1183e-05
3.12672e-05
3.12656e-05
3.84908e-05
3.13975e-05
3.1396e-05
2.22592e-05
2.21079e-05
6.58146e-05
5.9303e-05
5.93054e-05
5.32953e-05
5.93087e-05
5.93104e-05
6.58074e-05
6.59109e-05
5.94435e-05
5.94445e-05
5.34907e-05
6.59044e-05
5.94483e-05
5.94494e-05
6.58143e-05
5.93051e-05
5.93068e-05
5.32847e-05
5.93051e-05
5.93062e-05
6.58084e-05
6.58824e-05
5.34489e-05
5.94099e-05
5.94122e-05
5.94104e-05
5.94127e-05
6.58869e-05
6.58145e-05
5.9304e-05
5.93057e-05
5.32955e-05
5.93106e-05
5.93088e-05
6.58077e-05
6.58815e-05
5.34387e-05
5.94126e-05
5.94145e-05
5.94088e-05
5.94106e-05
6.58879e-05
6.58143e-05
5.93015e-05
5.93052e-05
5.32949e-05
5.93101e-05
5.93071e-05
6.58068e-05
6.58808e-05
5.3438e-05
5.94108e-05
5.94138e-05
5.94071e-05
5.94095e-05
6.5887e-05
6.58813e-05
5.34389e-05
5.94144e-05
5.9415e-05
6.58875e-05
5.94075e-05
5.9409e-05
3.12676e-05
3.12663e-05
3.84917e-05
3.13979e-05
3.13967e-05
2.22593e-05
2.2108e-05
3.12706e-05
3.12697e-05
3.84941e-05
3.1401e-05
3.14e-05
2.22628e-05
2.21115e-05
3.12713e-05
3.12698e-05
3.8495e-05
3.14018e-05
3.14002e-05
2.2263e-05
2.21116e-05
3.85966e-05
3.16539e-05
3.16524e-05
3.1527e-05
3.15254e-05
2.24103e-05
2.256e-05
3.85975e-05
3.16543e-05
3.16531e-05
3.15274e-05
3.15261e-05
2.24105e-05
2.25601e-05
3.85999e-05
3.16573e-05
3.16563e-05
3.15304e-05
3.15295e-05
2.24139e-05
2.25636e-05
3.86008e-05
3.16581e-05
3.16565e-05
3.15311e-05
3.15296e-05
2.2414e-05
2.25637e-05
5.61436e-05
6.22264e-05
5.48429e-05
6.05066e-05
6.22121e-05
5.48553e-05
5.61334e-05
5.72093e-05
6.0229e-05
6.4705e-05
6.40878e-05
6.023e-05
6.40997e-05
5.72198e-05
5.72559e-05
6.41222e-05
6.47118e-05
6.02605e-05
6.02595e-05
6.41102e-05
5.72456e-05
5.6092e-05
6.04945e-05
6.21862e-05
5.48083e-05
6.22008e-05
5.47976e-05
5.61018e-05
5.61403e-05
5.48505e-05
6.22228e-05
6.05022e-05
5.48476e-05
6.22059e-05
5.61323e-05
5.72066e-05
6.02261e-05
6.47059e-05
6.40822e-05
6.02326e-05
6.40945e-05
5.72168e-05
5.72518e-05
6.41169e-05
6.4712e-05
6.02632e-05
6.02551e-05
6.41034e-05
5.72458e-05
5.60904e-05
6.04935e-05
5.4803e-05
6.21814e-05
5.48041e-05
6.21965e-05
5.60988e-05
6.58328e-05
5.3341e-05
5.93443e-05
5.93467e-05
5.93391e-05
5.93397e-05
6.58395e-05
6.58337e-05
5.33502e-05
5.93413e-05
5.93417e-05
6.5839e-05
5.93413e-05
5.93426e-05
6.58633e-05
5.33841e-05
5.9376e-05
5.93781e-05
6.58584e-05
5.93768e-05
5.93774e-05
5.61332e-05
6.22218e-05
5.48483e-05
6.05011e-05
6.22024e-05
5.48437e-05
5.61298e-05
5.72102e-05
6.02224e-05
6.47033e-05
6.40782e-05
6.40921e-05
6.02315e-05
5.72064e-05
5.72431e-05
6.41144e-05
6.47096e-05
6.02618e-05
6.41006e-05
6.02532e-05
5.72464e-05
5.6087e-05
6.04927e-05
6.21766e-05
5.47975e-05
6.2196e-05
5.48023e-05
5.609e-05
5.61406e-05
6.22251e-05
5.48491e-05
6.05025e-05
6.22107e-05
5.48449e-05
5.61322e-05
5.7207e-05
6.02286e-05
6.47076e-05
6.4087e-05
6.40996e-05
6.02312e-05
5.72174e-05
5.72535e-05
6.41219e-05
6.47139e-05
6.0263e-05
6.41098e-05
5.72435e-05
6.02564e-05
5.60905e-05
6.04941e-05
6.21846e-05
5.47992e-05
6.21995e-05
5.48032e-05
5.60987e-05
5.61706e-05
6.22281e-05
5.4887e-05
6.05486e-05
5.6175e-05
6.2247e-05
5.48911e-05
5.73146e-05
6.032e-05
6.47459e-05
6.41577e-05
6.03117e-05
6.41444e-05
5.73178e-05
5.72826e-05
6.41229e-05
6.02826e-05
6.474e-05
6.02905e-05
5.72795e-05
6.41363e-05
5.62152e-05
6.05565e-05
6.22717e-05
5.49341e-05
6.22531e-05
5.49303e-05
5.62103e-05
5.6173e-05
6.22362e-05
5.48881e-05
6.055e-05
5.61813e-05
6.22505e-05
5.48923e-05
5.73247e-05
6.03213e-05
6.47503e-05
6.41654e-05
6.41536e-05
6.03138e-05
5.73143e-05
5.72784e-05
6.41317e-05
6.02849e-05
6.47442e-05
5.72895e-05
6.4144e-05
6.02922e-05
5.62213e-05
6.05579e-05
6.22747e-05
5.49351e-05
6.22611e-05
5.49314e-05
5.62128e-05
6.58332e-05
5.33411e-05
5.93438e-05
5.9347e-05
5.93399e-05
5.93393e-05
6.58397e-05
6.58639e-05
5.3393e-05
5.93725e-05
5.93747e-05
5.93784e-05
6.58575e-05
5.93803e-05
5.61396e-05
6.22275e-05
5.48506e-05
6.05039e-05
6.22079e-05
5.4846e-05
5.61344e-05
5.72138e-05
6.02295e-05
6.47077e-05
6.4086e-05
6.41e-05
6.02308e-05
5.72104e-05
5.72471e-05
6.41223e-05
6.47142e-05
6.02611e-05
6.41085e-05
6.02599e-05
5.72502e-05
5.60921e-05
6.04956e-05
6.21822e-05
5.47997e-05
6.22016e-05
5.48045e-05
5.60973e-05
5.61356e-05
5.4849e-05
6.22216e-05
6.05019e-05
5.48444e-05
6.22022e-05
5.61305e-05
5.72084e-05
6.02211e-05
6.47015e-05
6.40758e-05
6.40905e-05
6.02301e-05
5.72047e-05
5.72414e-05
6.41129e-05
6.47086e-05
6.02603e-05
6.40985e-05
5.72447e-05
6.02519e-05
5.60883e-05
6.04937e-05
5.47982e-05
6.21764e-05
5.4803e-05
6.21958e-05
5.60934e-05
5.6175e-05
6.22338e-05
5.48893e-05
6.05515e-05
5.61806e-05
6.22527e-05
5.48935e-05
5.73187e-05
6.03195e-05
6.47507e-05
6.41657e-05
6.03189e-05
6.41524e-05
5.73216e-05
5.72864e-05
6.41309e-05
6.02896e-05
6.47444e-05
6.02907e-05
5.72836e-05
6.41443e-05
5.62204e-05
6.05593e-05
6.22776e-05
5.49366e-05
6.22587e-05
5.49327e-05
5.62147e-05
5.61711e-05
5.48877e-05
6.2228e-05
6.05496e-05
5.61766e-05
5.48919e-05
6.22469e-05
5.73131e-05
6.03173e-05
6.4745e-05
6.41562e-05
6.41423e-05
6.03122e-05
5.73162e-05
5.72809e-05
6.41208e-05
6.02813e-05
6.47382e-05
5.72779e-05
6.41347e-05
6.02891e-05
5.62164e-05
6.05573e-05
5.49348e-05
6.22716e-05
5.4931e-05
6.2253e-05
5.62107e-05
5.61348e-05
5.48497e-05
6.22238e-05
6.05027e-05
5.48458e-05
6.22045e-05
5.6132e-05
5.72118e-05
6.02232e-05
6.4704e-05
6.40792e-05
6.02323e-05
6.40939e-05
5.72081e-05
5.72447e-05
6.41162e-05
6.47101e-05
6.02625e-05
6.02539e-05
6.41019e-05
5.7248e-05
5.60889e-05
6.04945e-05
5.48e-05
6.21789e-05
5.48038e-05
6.21982e-05
5.60911e-05
5.61743e-05
6.22376e-05
5.48987e-05
6.05503e-05
5.61845e-05
6.22517e-05
5.48863e-05
5.73273e-05
6.03185e-05
6.47481e-05
6.41654e-05
5.73163e-05
6.03187e-05
6.41539e-05
5.72807e-05
6.41323e-05
6.02889e-05
6.47417e-05
5.7292e-05
6.02899e-05
6.41441e-05
5.62244e-05
6.05615e-05
6.22761e-05
5.49281e-05
5.6214e-05
6.22624e-05
5.49415e-05
5.61726e-05
5.4889e-05
6.22302e-05
6.05502e-05
5.61766e-05
5.48927e-05
6.2249e-05
5.73161e-05
6.03207e-05
6.47465e-05
6.41592e-05
6.41458e-05
6.03124e-05
5.73193e-05
5.72841e-05
6.4124e-05
6.02833e-05
6.47406e-05
5.72811e-05
6.41378e-05
6.02912e-05
5.62168e-05
6.0558e-05
5.49355e-05
6.22737e-05
5.49321e-05
6.22551e-05
5.62123e-05
6.58322e-05
5.33404e-05
5.93432e-05
5.93451e-05
5.93403e-05
5.93365e-05
6.58389e-05
6.58632e-05
5.33924e-05
5.93714e-05
5.93746e-05
5.93767e-05
6.58569e-05
5.93794e-05
5.61396e-05
5.48507e-05
6.22261e-05
6.05034e-05
5.48464e-05
6.2207e-05
5.61344e-05
5.7214e-05
6.02269e-05
6.47089e-05
6.40852e-05
6.02359e-05
6.40986e-05
5.72103e-05
5.7247e-05
6.41209e-05
6.47152e-05
6.02661e-05
6.02576e-05
6.41076e-05
5.72503e-05
5.60922e-05
6.04951e-05
5.48006e-05
6.21813e-05
5.48047e-05
6.22004e-05
5.60974e-05
5.61734e-05
5.48903e-05
6.22299e-05
6.05494e-05
5.61806e-05
5.48938e-05
6.22485e-05
5.73196e-05
6.03218e-05
6.47483e-05
6.41604e-05
5.73214e-05
6.03141e-05
6.41469e-05
5.72856e-05
6.41251e-05
6.02847e-05
6.47424e-05
5.72855e-05
6.02925e-05
6.41391e-05
5.62201e-05
6.05576e-05
5.49366e-05
6.22734e-05
5.62132e-05
5.4933e-05
6.2255e-05
5.6175e-05
5.48896e-05
6.22328e-05
6.05509e-05
5.61805e-05
5.48938e-05
6.22513e-05
5.73187e-05
6.03232e-05
6.47514e-05
6.41641e-05
6.41517e-05
6.0318e-05
5.73217e-05
5.72865e-05
6.41299e-05
6.02871e-05
6.47456e-05
5.72835e-05
6.41428e-05
6.02948e-05
5.62203e-05
6.05587e-05
5.49367e-05
6.2276e-05
5.49329e-05
6.22577e-05
5.62146e-05
6.58638e-05
5.3393e-05
5.93737e-05
5.93744e-05
6.58573e-05
5.93788e-05
5.93801e-05
5.73538e-05
6.03408e-05
6.41668e-05
6.47753e-05
6.03486e-05
5.73511e-05
6.41798e-05
5.62516e-05
6.0603e-05
5.49747e-05
6.22791e-05
5.4978e-05
5.62562e-05
6.22976e-05
6.03441e-05
6.47805e-05
6.03519e-05
2.10349e-05
3.66874e-05
3.66899e-05
4.19565e-05
2.17933e-05
3.75932e-05
3.75957e-05
4.26741e-05
2.25699e-05
3.84732e-05
3.84754e-05
4.33804e-05
2.33611e-05
3.93261e-05
3.93282e-05
4.40446e-05
2.41627e-05
4.01511e-05
4.01532e-05
4.46986e-05
2.49711e-05
4.09481e-05
4.09499e-05
4.53181e-05
2.57825e-05
4.17162e-05
4.17179e-05
4.59253e-05
2.65933e-05
4.24555e-05
4.24569e-05
4.64962e-05
2.74002e-05
4.31658e-05
4.3167e-05
4.7056e-05
2.81999e-05
4.38473e-05
4.38483e-05
4.75771e-05
2.89897e-05
4.45004e-05
4.45013e-05
4.80851e-05
2.97669e-05
4.51251e-05
4.51261e-05
4.85763e-05
3.05292e-05
4.57218e-05
4.57229e-05
4.90431e-05
3.12742e-05
4.62911e-05
4.62923e-05
4.94894e-05
3.20003e-05
4.68331e-05
4.68343e-05
4.99143e-05
3.27057e-05
4.73483e-05
4.73495e-05
5.03184e-05
3.33889e-05
4.7837e-05
4.78381e-05
5.07029e-05
3.40486e-05
4.82996e-05
4.83006e-05
5.10669e-05
3.46838e-05
4.87365e-05
4.87374e-05
5.14114e-05
3.52936e-05
4.9148e-05
4.91488e-05
5.17368e-05
3.58771e-05
4.95346e-05
4.95352e-05
5.20423e-05
3.64337e-05
4.98968e-05
4.98972e-05
5.23275e-05
3.6963e-05
5.02349e-05
5.02353e-05
5.25948e-05
3.74646e-05
5.05494e-05
5.05497e-05
5.28447e-05
3.79383e-05
5.08407e-05
5.08409e-05
5.30765e-05
4.19429e-05
4.25133e-05
3.66886e-05
3.66896e-05
3.73698e-05
3.73713e-05
4.19387e-05
4.25116e-05
3.66873e-05
3.66898e-05
3.73691e-05
3.73715e-05
3.6693e-05
3.73692e-05
3.73746e-05
4.1953e-05
4.25003e-05
3.66919e-05
3.73717e-05
3.73736e-05
4.24946e-05
4.26646e-05
4.32122e-05
3.7594e-05
3.75953e-05
3.82561e-05
3.82577e-05
4.2657e-05
4.32132e-05
3.75935e-05
3.75955e-05
3.82555e-05
3.82578e-05
3.75986e-05
3.82558e-05
3.82607e-05
4.26715e-05
4.32045e-05
3.75976e-05
3.8258e-05
3.82599e-05
4.31933e-05
4.33609e-05
4.38917e-05
3.84736e-05
3.84751e-05
3.91157e-05
3.91173e-05
4.33589e-05
4.38924e-05
3.84732e-05
3.84752e-05
3.91151e-05
3.91172e-05
3.84781e-05
3.91156e-05
3.912e-05
4.33698e-05
4.38847e-05
3.84774e-05
3.91176e-05
3.91193e-05
4.38847e-05
4.40341e-05
4.45493e-05
3.93264e-05
3.93278e-05
3.99475e-05
3.99491e-05
4.40312e-05
4.45379e-05
3.9326e-05
3.93277e-05
3.99468e-05
3.99489e-05
3.93306e-05
3.99475e-05
3.99518e-05
4.40409e-05
4.45455e-05
3.93298e-05
3.99496e-05
3.9951e-05
4.4532e-05
4.46807e-05
4.51747e-05
4.01511e-05
4.01526e-05
4.0751e-05
4.07528e-05
4.46894e-05
4.51616e-05
4.01507e-05
4.01524e-05
4.07505e-05
4.07524e-05
4.01555e-05
4.07516e-05
4.07553e-05
4.46844e-05
4.51804e-05
4.01545e-05
4.07534e-05
4.07544e-05
4.51673e-05
4.53094e-05
4.57823e-05
4.09475e-05
4.09491e-05
4.15259e-05
4.15277e-05
4.53168e-05
4.57703e-05
4.09473e-05
4.09488e-05
4.15256e-05
4.15273e-05
4.09519e-05
4.1527e-05
4.15302e-05
4.53077e-05
4.57859e-05
4.09509e-05
4.15286e-05
4.15292e-05
4.57669e-05
4.59055e-05
4.63644e-05
4.17152e-05
4.17168e-05
4.22721e-05
4.22737e-05
4.59214e-05
4.63495e-05
4.17152e-05
4.17165e-05
4.22718e-05
4.22733e-05
4.17195e-05
4.22734e-05
4.22762e-05
4.59087e-05
4.63657e-05
4.17185e-05
4.22749e-05
4.2275e-05
4.63545e-05
4.64883e-05
4.69248e-05
4.2454e-05
4.24556e-05
4.29893e-05
4.29908e-05
4.65013e-05
4.69149e-05
4.2454e-05
4.24553e-05
4.29891e-05
4.29905e-05
4.24583e-05
4.29909e-05
4.29933e-05
4.64901e-05
4.69274e-05
4.24571e-05
4.29922e-05
4.29921e-05
4.69107e-05
4.7041e-05
4.74629e-05
4.31642e-05
4.31656e-05
4.36779e-05
4.36793e-05
4.7055e-05
4.74466e-05
4.31642e-05
4.31653e-05
4.36778e-05
4.36789e-05
4.31682e-05
4.36796e-05
4.36817e-05
4.70448e-05
4.74631e-05
4.3167e-05
4.36808e-05
4.36805e-05
4.74667e-05
4.75777e-05
4.7981e-05
4.38456e-05
4.38469e-05
4.43379e-05
4.43392e-05
4.75874e-05
4.79722e-05
4.38457e-05
4.38464e-05
4.43377e-05
4.43387e-05
4.38495e-05
4.43398e-05
4.43417e-05
4.75775e-05
4.79779e-05
4.38482e-05
4.43408e-05
4.43403e-05
4.79797e-05
4.80868e-05
4.847e-05
4.44984e-05
4.44997e-05
4.49695e-05
4.49708e-05
4.80937e-05
4.84613e-05
4.44985e-05
4.44993e-05
4.49692e-05
4.49703e-05
4.45023e-05
4.49716e-05
4.49731e-05
4.80881e-05
4.84718e-05
4.4501e-05
4.49725e-05
4.49719e-05
4.84714e-05
4.85765e-05
4.89423e-05
4.5123e-05
4.51243e-05
4.55731e-05
4.55744e-05
4.85832e-05
4.8942e-05
4.5123e-05
4.51238e-05
4.55728e-05
4.55739e-05
4.51268e-05
4.55752e-05
4.55769e-05
4.85761e-05
4.89443e-05
4.51256e-05
4.55763e-05
4.55757e-05
4.8943e-05
4.90437e-05
4.93913e-05
4.57198e-05
4.57209e-05
4.61492e-05
4.61504e-05
4.90456e-05
4.93925e-05
4.57196e-05
4.57205e-05
4.61488e-05
4.61499e-05
4.57236e-05
4.61514e-05
4.61528e-05
4.90466e-05
4.93919e-05
4.57224e-05
4.61525e-05
4.61518e-05
4.93924e-05
4.94883e-05
4.98212e-05
4.62889e-05
4.62901e-05
4.66979e-05
4.6699e-05
4.94895e-05
4.98194e-05
4.62887e-05
4.62896e-05
4.66975e-05
4.66986e-05
4.62926e-05
4.67002e-05
4.67015e-05
4.94871e-05
4.98209e-05
4.62916e-05
4.67013e-05
4.67005e-05
4.98205e-05
4.99142e-05
5.02272e-05
4.68309e-05
4.68319e-05
4.72198e-05
4.72208e-05
4.99138e-05
5.02293e-05
4.68307e-05
4.68315e-05
4.72194e-05
4.72203e-05
4.68344e-05
4.7222e-05
4.72232e-05
4.99111e-05
5.02313e-05
4.68336e-05
4.72232e-05
4.72224e-05
5.023e-05
5.03183e-05
5.06133e-05
4.73461e-05
4.7347e-05
4.77152e-05
4.7716e-05
5.03186e-05
5.06162e-05
4.73459e-05
4.73467e-05
4.77147e-05
4.77155e-05
4.73495e-05
4.77173e-05
4.77184e-05
5.03192e-05
5.06168e-05
4.73487e-05
4.77184e-05
4.77176e-05
5.06174e-05
5.07057e-05
5.09773e-05
4.7835e-05
4.78356e-05
4.81844e-05
4.81851e-05
5.07033e-05
5.09838e-05
4.78346e-05
4.78351e-05
4.81839e-05
4.81845e-05
4.78381e-05
4.81864e-05
4.81873e-05
5.07031e-05
5.0985e-05
4.78374e-05
4.81874e-05
4.81865e-05
5.09855e-05
5.10714e-05
5.13287e-05
4.82976e-05
4.82983e-05
4.86277e-05
4.86283e-05
5.10674e-05
5.13316e-05
4.82974e-05
4.82977e-05
4.86272e-05
4.86276e-05
4.83005e-05
4.86296e-05
4.86304e-05
5.10677e-05
5.13328e-05
4.82998e-05
4.86305e-05
4.86297e-05
5.13337e-05
5.14133e-05
5.16587e-05
4.87345e-05
4.87351e-05
4.90455e-05
4.90461e-05
5.14114e-05
5.16605e-05
4.87343e-05
4.87344e-05
4.90451e-05
4.90453e-05
4.87373e-05
4.90474e-05
4.90481e-05
5.14117e-05
5.16606e-05
4.87366e-05
4.90482e-05
4.90475e-05
5.16608e-05
5.17378e-05
5.19704e-05
4.91461e-05
4.91467e-05
4.94383e-05
4.94388e-05
5.17365e-05
5.19698e-05
4.91459e-05
4.91458e-05
4.94379e-05
4.94379e-05
4.91486e-05
4.94402e-05
4.94406e-05
5.17362e-05
5.1968e-05
4.91481e-05
4.94408e-05
4.94403e-05
5.19712e-05
5.20424e-05
5.22608e-05
4.95327e-05
4.95331e-05
4.98064e-05
4.98069e-05
5.20418e-05
5.2262e-05
4.95325e-05
4.95322e-05
4.9806e-05
4.98059e-05
4.9535e-05
4.98084e-05
4.98087e-05
5.20424e-05
5.22592e-05
4.95347e-05
4.98089e-05
4.98084e-05
5.22637e-05
5.23283e-05
5.25281e-05
4.98948e-05
4.98952e-05
5.01503e-05
5.01509e-05
5.23279e-05
5.25358e-05
4.98946e-05
4.98942e-05
5.015e-05
5.01497e-05
4.98971e-05
5.01524e-05
5.01527e-05
5.23291e-05
5.25352e-05
4.98968e-05
5.01528e-05
5.01524e-05
5.25371e-05
5.26002e-05
5.27791e-05
5.02327e-05
5.02332e-05
5.04705e-05
5.04712e-05
5.25945e-05
5.27906e-05
5.02326e-05
5.02321e-05
5.04702e-05
5.04698e-05
5.02351e-05
5.04727e-05
5.04729e-05
5.25944e-05
5.27899e-05
5.02348e-05
5.04731e-05
5.04726e-05
5.27911e-05
5.28534e-05
5.30156e-05
5.05471e-05
5.05477e-05
5.07674e-05
5.07681e-05
5.28444e-05
5.30266e-05
5.0547e-05
5.05464e-05
5.07671e-05
5.07667e-05
5.05495e-05
5.07697e-05
5.07698e-05
5.28437e-05
5.3026e-05
5.05492e-05
5.077e-05
5.07695e-05
5.30265e-05
5.30858e-05
5.32331e-05
5.08383e-05
5.08389e-05
5.10414e-05
5.10421e-05
5.30768e-05
5.32442e-05
5.08382e-05
5.08375e-05
5.10412e-05
5.10406e-05
5.08407e-05
5.10439e-05
5.10437e-05
5.30761e-05
5.32435e-05
5.08404e-05
5.10441e-05
5.10435e-05
5.32438e-05
6.4824e-05
7.13579e-05
7.13947e-05
6.4729e-05
6.95348e-05
6.95614e-05
6.4828e-05
7.13641e-05
7.14009e-05
6.47329e-05
2.10348e-05
2.10377e-05
2.1039e-05
2.16018e-05
2.16018e-05
2.16047e-05
2.16062e-05
5.35356e-05
6.02155e-05
2.90733e-05
3.69163e-05
6.03319e-05
2.93181e-05
5.33399e-05
6.95331e-05
6.95596e-05
5.35367e-05
2.90784e-05
6.02144e-05
3.69189e-05
2.93231e-05
6.03353e-05
5.33384e-05
6.69239e-05
6.69343e-05
4.2136e-05
6.69832e-05
6.69966e-05
6.50505e-05
7.14422e-05
6.49576e-05
7.14791e-05
6.95909e-05
6.96183e-05
6.50551e-05
7.14485e-05
6.49622e-05
7.14854e-05
2.17933e-05
2.17962e-05
2.17977e-05
2.23742e-05
2.23744e-05
2.23773e-05
2.23788e-05
5.39991e-05
6.05044e-05
3.00511e-05
3.78157e-05
5.38115e-05
6.06168e-05
3.02946e-05
6.9589e-05
6.96164e-05
5.39992e-05
3.00561e-05
6.05032e-05
3.78181e-05
5.38099e-05
3.02996e-05
6.06196e-05
6.71002e-05
6.71107e-05
4.28443e-05
6.71575e-05
6.71706e-05
6.52704e-05
7.15272e-05
6.51799e-05
7.15644e-05
6.96491e-05
6.96772e-05
6.5275e-05
7.15336e-05
6.51832e-05
7.15708e-05
2.25701e-05
2.2573e-05
2.25746e-05
2.31621e-05
2.31624e-05
2.31653e-05
2.31669e-05
5.44427e-05
6.07822e-05
3.10223e-05
3.86891e-05
5.4262e-05
6.08908e-05
3.12635e-05
6.96471e-05
6.96753e-05
5.44424e-05
3.1027e-05
6.07811e-05
3.86912e-05
5.42611e-05
3.12682e-05
6.08931e-05
6.72711e-05
6.72818e-05
4.35496e-05
6.73268e-05
6.73395e-05
6.54825e-05
7.1613e-05
6.53955e-05
7.16505e-05
6.9709e-05