/*--------------------------------*- C++ -*----------------------------------*\
| =========                 |                                                 |
| \\      /  F ield         | OpenFOAM: The Open Source CFD Toolbox           |
|  \\    /   O peration     | Version:  v1906                                 |
|   \\  /    A nd           | Web:      www.OpenFOAM.com                      |
|    \\/     M anipulation  |                                                 |
\*---------------------------------------------------------------------------*/
FoamFile
{
    version     2.0;
    format      ascii;
    class       volScalarField;
    location    "850";
    object      p;
}
// * * * * * * * * * * * * * * * * * * * * * * * * * * * * * * * * * * * * * //

dimensions      [0 2 -2 0 0 0 0];


internalField   nonuniform List<scalar> 
42840
(
0.000781419
0.000781361
0.000781361
0.000782932
0.000747627
0.000782932
0.000753271
0.000781361
0.000781361
0.000754882
0.000754882
0.000782932
0.000753271
0.000781361
0.000781361
0.000754882
0.000754882
0.000781361
0.000754882
0.000754882
0.000782932
0.000753271
0.000781361
0.000754882
0.000754882
0.000753271
0.000746053
0.000746053
0.000770371
0.000783494
0.000770373
0.000783482
0.000783501
0.000770372
0.000770371
0.000783494
0.000770373
0.000783482
0.000781419
0.000781419
0.000781419
0.000754938
0.000754937
0.000754938
0.000754938
0.000770455
0.000783447
0.000781383
0.000772536
0.000770409
0.000772558
0.000783399
0.000783501
0.000770372
0.000770455
0.000781383
0.000783447
0.000772536
0.000772558
0.000770409
0.000783399
0.000783494
0.000783494
0.000770925
0.000770366
0.000770366
0.000748191
0.000748191
0.000783501
0.000770372
0.000783501
0.000770372
0.000783494
0.000783494
0.000770925
0.000770366
0.000770366
0.000752719
0.000765853
0.000752719
0.000765853
0.000765282
0.000752713
0.000752713
0.000765845
0.000765845
0.000770371
0.000783494
0.000770373
0.000783482
0.000770455
0.000783447
0.000781383
0.000772536
0.000770408
0.000772558
0.000783399
0.000770455
0.000783447
0.000781383
0.000772536
0.000770409
0.000772558
0.000783399
0.000765833
0.00075272
0.000765845
0.000752718
0.000765833
0.00075272
0.000765845
0.000752718
0.00076575
0.00076371
0.000752755
0.000754903
0.000765798
0.000763731
0.000752801
0.00076575
0.00076371
0.000752756
0.000754903
0.000765798
0.000763731
0.000752801
0.000783494
0.000783493
0.000770925
0.000770367
0.000770367
0.000783501
0.000770372
0.000752719
0.000765852
0.000765282
0.000752714
0.000752714
0.000765845
0.000765845
0.000752719
0.000765853
0.000770454
0.000783446
0.000781383
0.000772536
0.000770409
0.000772558
0.000783399
0.000770371
0.000783494
0.000770373
0.000783482
0.000770455
0.000781383
0.000783446
0.000772536
0.000772558
0.000770409
0.000783399
0.000765833
0.00075272
0.000765845
0.000752718
0.00076575
0.00076371
0.000752756
0.000754903
0.000765798
0.000763731
0.000752801
0.000765833
0.00075272
0.000765845
0.000752718
0.00076575
0.00076371
0.000754903
0.000752756
0.000763731
0.000765798
0.000752801
0.000770371
0.000783494
0.000770373
0.000783482
0.000770455
0.000781383
0.000783447
0.000772536
0.000772558
0.000770409
0.000783399
0.000770371
0.000783494
0.000770373
0.000783482
0.00076575
0.00076371
0.000752756
0.000754903
0.000765798
0.000763731
0.000752801
0.000765833
0.00075272
0.000765845
0.000752718
0.00076575
0.00076371
0.000754903
0.000752755
0.000763731
0.000765798
0.000752801
0.000765833
0.00075272
0.000765845
0.000752718
0.000783493
0.000783494
0.000770925
0.000770367
0.000770366
0.000783501
0.000770372
0.000752719
0.000765852
0.000765282
0.000752714
0.000752713
0.000765844
0.000765845
0.000752719
0.000765853
0.000770455
0.000781383
0.000783447
0.000772536
0.000772558
0.000770409
0.000783399
0.000770372
0.000783494
0.000770373
0.000783482
0.000770371
0.000783494
0.000770373
0.000783482
0.00076575
0.00076371
0.000754903
0.000752756
0.000763731
0.000765798
0.000752801
0.00076575
0.00076371
0.000754903
0.000752756
0.000763731
0.000765798
0.000752801
0.000765833
0.00075272
0.000765845
0.000752719
0.000765833
0.00075272
0.000765845
0.000752718
0.000783501
0.000770372
0.000783501
0.000770372
0.000765282
0.000752713
0.000752713
0.000765845
0.000765845
0.000752719
0.000765853
0.000752719
0.000765853
0.000746074
0.000748144
0.000748096
0.000748191
0.000748179
0.000748144
0.000748191
0.000748198
0.000748198
0.00077468
0.000770365
0.00077037
0.000774658
0.000774678
0.000774661
0.000770365
0.000779193
0.000779197
0.000783498
0.000779185
0.000783506
0.000774682
0.00077036
0.00077467
0.000774674
0.000770368
0.000779189
0.000779196
0.000783502
0.000783485
0.000779189
0.000779194
0.000783504
0.000779196
0.000774678
0.00077468
0.000770369
0.000770365
0.000774658
0.000774662
0.000774678
0.000770365
0.000779193
0.000779197
0.000783498
0.000779184
0.000783506
0.000774682
0.00077036
0.00077467
0.000774675
0.000770369
0.000779189
0.000779195
0.000783485
0.000783502
0.000779194
0.000779189
0.000783504
0.000779196
0.000774677
0.000774684
0.000770367
0.000770367
0.000774688
0.000774688
0.000770358
0.000779214
0.000783438
0.000779191
0.000783497
0.000779245
0.000779199
0.00078347
0.000779214
0.000783438
0.000779191
0.000783497
0.000779245
0.000779199
0.000783471
0.000774647
0.000770374
0.00077467
0.00077042
0.000774614
0.000774673
0.00077039
0.000774647
0.000770374
0.00077467
0.00077042
0.000774614
0.000774673
0.00077039
0.000779182
0.000783511
0.000783511
0.000779191
0.000779191
0.000783508
0.000743908
0.000748134
0.000748194
0.000743885
0.000748167
0.000743938
0.000743893
0.000743908
0.000748134
0.000748194
0.000743885
0.000748167
0.000743938
0.000743893
0.000743877
0.000748208
0.000748208
0.000748205
0.000743886
0.000743886
0.000779196
0.000774678
0.000779196
0.000774678
0.000774684
0.000770367
0.000770367
0.000774687
0.000774687
0.000770358
0.000779214
0.000783438
0.00077919
0.000783497
0.000779198
0.000779245
0.00078347
0.000779214
0.000783437
0.00077919
0.000783497
0.000779198
0.000779245
0.00078347
0.000774647
0.000770374
0.00077467
0.00077042
0.000774673
0.00077039
0.000774614
0.000774647
0.000770374
0.00077467
0.00077042
0.000774673
0.00077039
0.000774614
0.000779182
0.000783511
0.000783511
0.000779191
0.000779191
0.000783508
0.000757026
0.000761546
0.000757026
0.000761546
0.000761532
0.000765863
0.000765862
0.000765859
0.000761541
0.000761541
0.000756995
0.000752767
0.000757019
0.000752721
0.000757022
0.000756962
0.000752737
0.000756995
0.000752767
0.000757019
0.000752721
0.000757022
0.000756962
0.000752737
0.000761564
0.000765848
0.000765789
0.00076154
0.000765822
0.000761548
0.000761594
0.000761564
0.000765848
0.000765789
0.00076154
0.000765822
0.000761548
0.000761594
0.000757033
0.000752714
0.000752714
0.000757036
0.000757036
0.000752705
0.00077468
0.000770365
0.000770369
0.000774658
0.000774678
0.000774661
0.000770365
0.000779193
0.000779197
0.000783498
0.000779184
0.000783506
0.000774682
0.00077036
0.00077467
0.000774675
0.000770369
0.000779189
0.000779196
0.000783502
0.000783485
0.000779189
0.000779194
0.000783504
0.000761539
0.000765853
0.000765836
0.000761546
0.000765855
0.000761539
0.000761544
0.000757031
0.000757019
0.000752708
0.000752716
0.000757023
0.000761543
0.000765849
0.000761547
0.000765857
0.000761535
0.000757029
0.000757007
0.000752712
0.000752717
0.000752712
0.000757027
0.00075701
0.000761539
0.000765853
0.000765836
0.000761546
0.000765855
0.000761539
0.000761544
0.000757031
0.000757019
0.000752707
0.000757023
0.000752716
0.000761543
0.00076585
0.000761547
0.000765857
0.000761534
0.000757029
0.000757007
0.000752712
0.000752717
0.000757027
0.00075701
0.000752712
0.000774684
0.000770367
0.000770367
0.000774688
0.000774688
0.000770358
0.000779215
0.000783437
0.000779191
0.000783497
0.000779198
0.000779245
0.00078347
0.000779214
0.000783437
0.000779191
0.000783497
0.000779245
0.000779199
0.00078347
0.000774647
0.000770374
0.00077467
0.000770421
0.000774673
0.000774613
0.00077039
0.000774647
0.000770374
0.00077467
0.00077042
0.000774614
0.000774673
0.00077039
0.000779182
0.000783511
0.000783511
0.000779191
0.000779191
0.000783508
0.000779196
0.000774678
0.000757026
0.000761546
0.000761532
0.000765863
0.000765863
0.000765859
0.000761541
0.000761541
0.000756995
0.000752767
0.000757018
0.000752721
0.000756962
0.000757022
0.000752737
0.000756995
0.000752767
0.000757018
0.000752721
0.000757022
0.000756962
0.000752737
0.000761564
0.000765848
0.000765788
0.000761541
0.000761595
0.000765821
0.000761548
0.000761564
0.000765848
0.000765788
0.000761541
0.000765822
0.000761549
0.000761594
0.000757033
0.000752714
0.000752714
0.000757036
0.000757036
0.000752705
0.000757026
0.000761546
0.00077468
0.000770365
0.00077037
0.000774658
0.000774678
0.000774661
0.000770365
0.000779193
0.000779197
0.000783498
0.000779185
0.000783506
0.000774682
0.000770361
0.00077467
0.000774674
0.000770369
0.000779189
0.000779195
0.000783502
0.000783485
0.000779189
0.000779194
0.000783504
0.000761539
0.000765837
0.000765853
0.000761545
0.000765855
0.000761544
0.000761539
0.000757031
0.000757019
0.000752707
0.000752716
0.000757023
0.000761543
0.00076585
0.000761547
0.000765857
0.000761534
0.000757029
0.000757007
0.000752716
0.000752712
0.000752712
0.00075701
0.000757027
0.000761539
0.000765853
0.000765836
0.000761545
0.000765855
0.000761539
0.000761544
0.000757031
0.000757019
0.000752708
0.000757023
0.000752716
0.000761543
0.000765849
0.000761547
0.000765857
0.000761535
0.000757029
0.000757007
0.000752712
0.000752717
0.000757027
0.00075701
0.000752712
0.00077468
0.00077037
0.000770365
0.000774658
0.000774662
0.000774678
0.000770365
0.000779193
0.000779197
0.000783498
0.000779184
0.000783506
0.000774682
0.00077036
0.00077467
0.000774675
0.000770369
0.000779189
0.000779196
0.000783485
0.000783502
0.000779194
0.000779189
0.000783504
0.00077468
0.000770365
0.000770369
0.000774658
0.000774678
0.000774662
0.000770365
0.000779193
0.000779197
0.000783498
0.000779184
0.000783506
0.000774682
0.00077036
0.00077467
0.000774675
0.000770369
0.000779189
0.000779196
0.000783502
0.000783485
0.000779189
0.000779194
0.000783504
0.000761539
0.000765837
0.000765853
0.000761546
0.000765855
0.000761544
0.000761539
0.000757031
0.000757019
0.000752707
0.000757023
0.000752716
0.000761543
0.00076585
0.000761547
0.000765857
0.000761534
0.000757029
0.000757007
0.000752717
0.000752712
0.00075701
0.000757027
0.000752712
0.000761539
0.000765853
0.000765836
0.000761546
0.000765855
0.000761539
0.000761544
0.000757031
0.000757019
0.000752707
0.000757023
0.000752716
0.000761543
0.00076585
0.000761547
0.000765857
0.000761534
0.000757029
0.000757007
0.000752712
0.000752717
0.000757027
0.00075701
0.000752712
0.000774684
0.000770367
0.000770367
0.000774687
0.000774688
0.000770358
0.000779215
0.000783437
0.000779191
0.000783497
0.000779199
0.000779245
0.00078347
0.000779214
0.000783438
0.000779191
0.000783497
0.000779245
0.000779199
0.00078347
0.000774646
0.000770374
0.000774669
0.000770421
0.000774673
0.000774613
0.00077039
0.000774646
0.000770374
0.00077467
0.00077042
0.000774614
0.000774673
0.00077039
0.000779182
0.000783511
0.000783511
0.000779191
0.000779191
0.000783508
0.000779196
0.000774678
0.000757026
0.000761546
0.000761532
0.000765863
0.000765862
0.000765859
0.000761541
0.000761541
0.000756995
0.000752767
0.000757018
0.000752721
0.000756962
0.000757022
0.000752737
0.000756995
0.000752767
0.000757019
0.000752722
0.000757022
0.000756962
0.000752737
0.000761564
0.000765848
0.000765788
0.000761541
0.000761595
0.000765821
0.000761549
0.000761564
0.000765848
0.000765788
0.000761541
0.000765821
0.000761549
0.000761594
0.000757033
0.000752714
0.000752714
0.000757036
0.000757036
0.000752705
0.000757026
0.000761546
0.00077468
0.00077037
0.000770365
0.000774658
0.000774661
0.000774678
0.000770365
0.000779193
0.000779197
0.000783499
0.000779184
0.000783506
0.000774682
0.00077036
0.00077467
0.000774675
0.000770369
0.000779189
0.000779196
0.000783485
0.000783502
0.000779194
0.000779189
0.000783504
0.00077468
0.00077037
0.000770365
0.000774658
0.000774661
0.000774678
0.000770365
0.000779193
0.000779197
0.000783498
0.000779185
0.000783506
0.000774682
0.000770361
0.00077467
0.000774674
0.000770369
0.000779189
0.000779195
0.000783485
0.000783502
0.000779194
0.000779189
0.000783504
0.000761539
0.000765836
0.000765853
0.000761546
0.000765855
0.000761544
0.000761539
0.000757031
0.000757019
0.000752707
0.000757023
0.000752716
0.000761543
0.00076585
0.000761547
0.000765857
0.000761534
0.000757029
0.000757007
0.000752717
0.000752712
0.00075701
0.000757027
0.000752712
0.000761539
0.000765836
0.000765853
0.000761545
0.000765855
0.000761544
0.000761539
0.000757031
0.000757019
0.000752708
0.000757023
0.000752716
0.000761543
0.000765849
0.000761547
0.000765857
0.000761535
0.000757029
0.000757007
0.000752717
0.000752712
0.00075701
0.000757027
0.000752712
0.000779196
0.000774678
0.000779196
0.000774678
0.000761532
0.000765863
0.000765862
0.000765859
0.000761541
0.000761541
0.000756995
0.000752767
0.000757019
0.000752722
0.000752737
0.000756962
0.000757022
0.000756995
0.000752767
0.000757019
0.000752721
0.000752737
0.000756962
0.000757022
0.000761564
0.000765848
0.000765789
0.00076154
0.000765822
0.000761594
0.000761549
0.000761564
0.000765848
0.000765789
0.00076154
0.000765822
0.000761594
0.000761548
0.000757033
0.000752714
0.000752714
0.000752705
0.000757036
0.000757036
0.000757026
0.000761546
0.000757026
0.000761546
0.000743887
0.000748195
0.000743891
0.000748203
0.000743879
0.000743883
0.00074389
0.000748199
0.000748182
0.000748201
0.000743883
0.000743888
0.000743892
0.00074389
0.00074389
0.000781453
0.000781453
0.000772593
0.000772627
0.000772627
0.000772675
0.000781501
0.000779317
0.000783209
0.00078321
0.00077975
0.00077949
0.00077949
0.000783369
0.00074401
0.000747905
0.000747905
0.000744442
0.000748066
0.000744183
0.000744183
0.000779317
0.000783209
0.00078321
0.00077975
0.000779491
0.00077949
0.000783369
0.000756893
0.000756455
0.000753012
0.000753012
0.000756732
0.000756733
0.000752839
0.000779317
0.000783208
0.000783209
0.000779751
0.000779491
0.000779491
0.000783369
0.000756893
0.000756455
0.000753012
0.000753012
0.000756732
0.000756733
0.000752839
0.000779317
0.000783208
0.00078321
0.00077975
0.00077949
0.000779491
0.000783369
0.000756893
0.000756455
0.000753012
0.000753012
0.000756732
0.000756734
0.000752839
0.000756894
0.000756455
0.000753012
0.000753011
0.000752839
0.000756733
0.000756733
0.000781453
0.000781453
0.000772593
0.000772627
0.000772627
0.000772675
0.000781501
0.000781453
0.000781453
0.000772593
0.000772627
0.000772627
0.000772675
0.000781501
0.000781453
0.000781453
0.000772593
0.000772627
0.000772627
0.000772675
0.000781501
0.000763766
0.000754971
0.000754971
0.0007638
0.0007638
0.000763847
0.000755018
0.000763766
0.000754971
0.000754971
0.0007638
0.0007638
0.000763847
0.000755018
0.000763766
0.000754971
0.000754971
0.0007638
0.0007638
0.000763847
0.000755018
0.000763766
0.000754971
0.000754971
0.0007638
0.0007638
0.000763847
0.000755018
0.000774345
0.000770451
0.000770692
0.000774575
0.000774579
0.000774348
0.000770697
0.000779482
0.0007833
0.000779234
0.000783417
0.000779395
0.00077926
0.000783197
0.000774373
0.000770436
0.000774623
0.00077057
0.000774476
0.000774594
0.000770657
0.000779521
0.000779279
0.000783403
0.000783172
0.000779276
0.000779517
0.000783169
0.000774345
0.000770692
0.000770451
0.000774575
0.000774348
0.000774579
0.000770696
0.000779482
0.0007833
0.000779233
0.000783418
0.000779395
0.00077926
0.000783197
0.000774373
0.000770435
0.000774623
0.000770571
0.000774476
0.000774594
0.000770657
0.000779521
0.000779279
0.000783173
0.000783403
0.000779517
0.000779276
0.00078317
0.000774545
0.000774108
0.000770666
0.000770665
0.000774385
0.000774386
0.000770492
0.000774545
0.000774108
0.000770666
0.000770666
0.000770492
0.000774385
0.000774386
0.000761666
0.000762099
0.000765559
0.00076556
0.00076572
0.00076184
0.000761839
0.000774345
0.000770451
0.000770692
0.000774575
0.00077458
0.000774348
0.000770696
0.000779481
0.000783301
0.000779233
0.000783418
0.00077926
0.000779394
0.000783198
0.000774373
0.000770435
0.000774623
0.00077057
0.000774594
0.000774477
0.000770656
0.000779521
0.000779279
0.000783403
0.000783172
0.000779276
0.000779517
0.00078317
0.000774345
0.000770451
0.000770692
0.000774575
0.000774579
0.000774348
0.000770697
0.000779482
0.000783299
0.000779233
0.000783417
0.00077926
0.000779395
0.000783197
0.000774373
0.000770436
0.000774623
0.000770571
0.000774594
0.000770657
0.000774475
0.000779521
0.000779279
0.000783403
0.000783172
0.000779276
0.000779517
0.000783169
0.00076187
0.000765754
0.000765522
0.000761629
0.00076552
0.000761625
0.000761866
0.000756721
0.000752916
0.000756972
0.000752782
0.000756825
0.000756942
0.000753003
0.00076183
0.000765769
0.000765651
0.000761582
0.000761744
0.000765548
0.000761609
0.000756693
0.000756924
0.000752798
0.000753038
0.000756928
0.000756695
0.000753042
0.00076187
0.000765754
0.000765522
0.000761629
0.00076552
0.000761625
0.000761866
0.000756721
0.000752917
0.000756972
0.000752782
0.000756942
0.000756823
0.000753003
0.000761831
0.000765769
0.00076565
0.000761583
0.000765547
0.00076161
0.000761745
0.000756693
0.000756924
0.000752798
0.000753038
0.000756928
0.000756695
0.000753043
0.000774545
0.000774108
0.000770666
0.000770666
0.000774385
0.000774384
0.000770492
0.000761666
0.000762099
0.000765559
0.00076556
0.00076184
0.00076572
0.000761839
0.000774345
0.000770451
0.000770692
0.000774575
0.00077458
0.000774348
0.000770696
0.000779482
0.0007833
0.000779233
0.000783417
0.00077926
0.000779395
0.000783197
0.000774373
0.000770436
0.000774623
0.000770571
0.000774594
0.000774476
0.000770657
0.000779522
0.000779279
0.000783403
0.000783172
0.000779276
0.000779517
0.000783169
0.000774345
0.000770692
0.000770451
0.000774575
0.000774348
0.00077458
0.000770697
0.000779482
0.0007833
0.000779234
0.000783417
0.00077926
0.000779395
0.000783197
0.000774373
0.000770436
0.000774623
0.000770571
0.000774594
0.000770657
0.000774476
0.000779521
0.000779279
0.000783172
0.000783403
0.000779517
0.000779276
0.00078317
0.00076187
0.000765754
0.000765523
0.000761629
0.00076552
0.000761625
0.000761866
0.000756721
0.000752917
0.000756971
0.000752782
0.000756824
0.000756942
0.000753003
0.000761831
0.000765769
0.000765651
0.000761583
0.000761745
0.000765547
0.00076161
0.000756693
0.000756924
0.000752798
0.000753038
0.000756928
0.000756696
0.000753043
0.00076187
0.000765522
0.000765754
0.000761629
0.00076552
0.000761866
0.000761625
0.000756721
0.000752917
0.000756971
0.000752782
0.000756942
0.000756824
0.000753003
0.000761831
0.000765769
0.00076565
0.000761583
0.000765548
0.00076161
0.000761745
0.000756693
0.000756924
0.000753038
0.000752798
0.000756695
0.000756928
0.000753043
0.000774346
0.000770692
0.000770451
0.000774575
0.000774348
0.00077458
0.000770696
0.000779481
0.000783301
0.000779233
0.000783418
0.000779395
0.00077926
0.000783198
0.000774373
0.000770436
0.000774623
0.00077057
0.000774477
0.000774594
0.000770657
0.000779521
0.000779279
0.000783172
0.000783403
0.000779517
0.000779276
0.00078317
0.00076187
0.000765754
0.000765522
0.000761629
0.00076552
0.000761626
0.000761866
0.000756721
0.000752917
0.000756971
0.000752783
0.000753003
0.000756824
0.000756942
0.000761831
0.000765768
0.000765651
0.000761583
0.000765547
0.000761744
0.00076161
0.000756693
0.000756924
0.000752798
0.000753038
0.000753043
0.000756928
0.000756695
0.00076187
0.000765523
0.000765754
0.000761628
0.00076552
0.000761865
0.000761625
0.000756721
0.000752917
0.000756972
0.000752782
0.000756942
0.000756825
0.000753003
0.00076183
0.000765769
0.000765651
0.000761583
0.000765548
0.00076161
0.000761744
0.000756693
0.000756924
0.000753038
0.000752798
0.000756696
0.000756928
0.000753042
0.000774545
0.000774108
0.000770666
0.000770666
0.000774386
0.000774384
0.000770492
0.000761666
0.000762099
0.000765559
0.00076556
0.00076184
0.00076572
0.000761839
0.000774346
0.000770692
0.000770451
0.000774575
0.000774348
0.000774579
0.000770696
0.000779482
0.0007833
0.000779233
0.000783417
0.000779395
0.00077926
0.000783197
0.000774373
0.000770436
0.000774623
0.000770571
0.000774476
0.000774594
0.000770657
0.000779521
0.000779279
0.000783173
0.000783403
0.000779517
0.000779276
0.00078317
0.00076187
0.000765523
0.000765754
0.000761629
0.00076552
0.000761866
0.000761625
0.000756721
0.000752917
0.000756972
0.000752782
0.000753003
0.000756824
0.000756942
0.000761831
0.000765769
0.00076565
0.000761583
0.000765548
0.000761744
0.000761609
0.000756693
0.000756923
0.000753038
0.000752798
0.000753043
0.000756696
0.000756928
0.00076187
0.000765523
0.000765754
0.000761629
0.00076552
0.000761865
0.000761625
0.000756721
0.000752917
0.000756972
0.000752782
0.000756942
0.000756824
0.000753003
0.000761831
0.000765769
0.00076565
0.000761583
0.000765548
0.00076161
0.000761745
0.000756693
0.000756924
0.000753038
0.000752798
0.000756696
0.000756928
0.000753042
0.000761666
0.000762099
0.00076556
0.00076556
0.00076572
0.000761839
0.000761839
0.000744174
0.000747997
0.000748114
0.000743927
0.000744088
0.000747893
0.000743953
0.000744213
0.000743972
0.000747867
0.0007481
0.000744209
0.000747865
0.000743969
0.000747996
0.000743927
0.000744089
0.00166582
0.00166574
0.00166574
0.00166731
0.00163001
0.00162993
0.00162993
0.00163149
0.00159426
0.00159418
0.00159418
0.00159575
0.00155859
0.0015585
0.0015585
0.00156006
0.00152297
0.00152288
0.00152288
0.00152444
0.0014874
0.00148731
0.00148731
0.00148887
0.00145189
0.0014518
0.0014518
0.00145336
0.00141642
0.00141633
0.00141633
0.00141789
0.001381
0.0013809
0.0013809
0.00138246
0.00134561
0.00134551
0.00134551
0.00134707
0.00131026
0.00131016
0.00131016
0.00131172
0.00127494
0.00127483
0.00127483
0.00127639
0.00123964
0.00123954
0.00123954
0.0012411
0.00120436
0.00120426
0.00120426
0.00120582
0.0011691
0.00116901
0.00116901
0.00117056
0.00113385
0.00113377
0.00113377
0.00113532
0.00109862
0.00109854
0.00109854
0.00110009
0.00106339
0.00106331
0.00106331
0.00106487
0.00102817
0.00102809
0.00102809
0.00102965
0.000992945
0.00099287
0.00099287
0.00099443
0.000957718
0.000957645
0.000957645
0.000959206
0.000922483
0.000922413
0.000922413
0.000923976
0.000887238
0.000887172
0.000887172
0.000888737
0.000851982
0.000851918
0.000851919
0.000853485
0.000816709
0.000816649
0.000816649
0.000818218
0.00166732
0.00163723
0.00166574
0.00166574
0.00163887
0.00163887
0.00166731
0.00163723
0.00166574
0.00166574
0.00163887
0.00163887
0.00166574
0.00163887
0.00163887
0.00166731
0.00163723
0.00166574
0.00163887
0.00163887
0.00163723
0.0016315
0.00160147
0.00162993
0.00162993
0.00160311
0.00160311
0.00163149
0.00160147
0.00162993
0.00162993
0.00160311
0.00160311
0.00162993
0.00160311
0.00160311
0.00163149
0.00160147
0.00162993
0.00160311
0.00160311
0.00160147
0.00159575
0.00156578
0.00159418
0.00159418
0.00156741
0.00156741
0.00159575
0.00156578
0.00159418
0.00159418
0.00156741
0.00156741
0.00159418
0.00156741
0.00156741
0.00159575
0.00156578
0.00159418
0.00156741
0.00156741
0.00156577
0.00156006
0.00153014
0.0015585
0.0015585
0.00153178
0.00153178
0.00156006
0.00153014
0.0015585
0.0015585
0.00153178
0.00153178
0.0015585
0.00153178
0.00153178
0.00156006
0.00153014
0.0015585
0.00153178
0.00153178
0.00153014
0.00152444
0.00149457
0.00152288
0.00152288
0.0014962
0.0014962
0.00152444
0.00149457
0.00152288
0.00152288
0.0014962
0.0014962
0.00152288
0.0014962
0.0014962
0.00152444
0.00149457
0.00152288
0.0014962
0.0014962
0.00149457
0.00148887
0.00145904
0.00148731
0.00148731
0.00146067
0.00146067
0.00148887
0.00145904
0.00148731
0.00148731
0.00146067
0.00146067
0.00148731
0.00146067
0.00146067
0.00148887
0.00145904
0.00148731
0.00146067
0.00146067
0.00145904
0.00145336
0.00142356
0.0014518
0.0014518
0.00142519
0.00142519
0.00145336
0.00142356
0.0014518
0.0014518
0.00142519
0.00142519
0.0014518
0.00142519
0.00142519
0.00145336
0.00142356
0.0014518
0.00142519
0.00142519
0.00142356
0.00141789
0.00138813
0.00141633
0.00141633
0.00138975
0.00138976
0.00141789
0.00138813
0.00141633
0.00141633
0.00138975
0.00138975
0.00141633
0.00138976
0.00138976
0.00141789
0.00138813
0.00141633
0.00138975
0.00138975
0.00138813
0.00138246
0.00135273
0.0013809
0.0013809
0.00135436
0.00135436
0.00138246
0.00135273
0.0013809
0.0013809
0.00135436
0.00135436
0.0013809
0.00135436
0.00135436
0.00138246
0.00135273
0.0013809
0.00135436
0.00135436
0.00135273
0.00134707
0.00131737
0.00134551
0.00134551
0.00131899
0.00131899
0.00134707
0.00131737
0.00134551
0.00134551
0.00131899
0.00131899
0.00134551
0.00131899
0.00131899
0.00134707
0.00131737
0.00134551
0.00131899
0.00131899
0.00131737
0.00131172
0.00128204
0.00131016
0.00131016
0.00128366
0.00128366
0.00131172
0.00128204
0.00131016
0.00131016
0.00128366
0.00128366
0.00131016
0.00128366
0.00128366
0.00131172
0.00128204
0.00131016
0.00128366
0.00128366
0.00128204
0.00127639
0.00124674
0.00127483
0.00127483
0.00124836
0.00124836
0.00127639
0.00124674
0.00127483
0.00127483
0.00124836
0.00124836
0.00127483
0.00124836
0.00124836
0.00127639
0.00124674
0.00127483
0.00124836
0.00124836
0.00124674
0.0012411
0.00121147
0.00123954
0.00123954
0.00121308
0.00121308
0.0012411
0.00121147
0.00123954
0.00123954
0.00121308
0.00121308
0.00123954
0.00121308
0.00121308
0.0012411
0.00121146
0.00123954
0.00121308
0.00121308
0.00121146
0.00120582
0.00117621
0.00120426
0.00120426
0.00117782
0.00117782
0.00120582
0.00117621
0.00120426
0.00120426
0.00117782
0.00117782
0.00120426
0.00117782
0.00117782
0.00120582
0.00117621
0.00120427
0.00117782
0.00117782
0.0011762
0.00117056
0.00114096
0.00116901
0.00116901
0.00114258
0.00114258
0.00117056
0.00114096
0.00116901
0.00116901
0.00114258
0.00114258
0.00116901
0.00114258
0.00114258
0.00117056
0.00114096
0.00116901
0.00114258
0.00114258
0.00114096
0.00113532
0.00110573
0.00113377
0.00113377
0.00110734
0.00110734
0.00113532
0.00110573
0.00113377
0.00113377
0.00110734
0.00110734
0.00113377
0.00110734
0.00110734
0.00113532
0.00110573
0.00113377
0.00110734
0.00110734
0.00110573
0.00110009
0.0010705
0.00109854
0.00109854
0.00107212
0.00107212
0.00110009
0.0010705
0.00109854
0.00109854
0.00107212
0.00107212
0.00109854
0.00107212
0.00107212
0.00110009
0.0010705
0.00109854
0.00107212
0.00107212
0.0010705
0.00106487
0.00103528
0.00106331
0.00106331
0.0010369
0.0010369
0.00106487
0.00103528
0.00106331
0.00106331
0.0010369
0.0010369
0.00106331
0.0010369
0.0010369
0.00106487
0.00103528
0.00106331
0.0010369
0.0010369
0.00103528
0.00102965
0.00100006
0.00102809
0.00102809
0.00100168
0.00100168
0.00102965
0.00100006
0.00102809
0.00102809
0.00100168
0.00100168
0.00102809
0.00100168
0.00100168
0.00102965
0.00100006
0.00102809
0.00100168
0.00100168
0.00100006
0.000994429
0.00096484
0.00099287
0.00099287
0.000966452
0.000966452
0.000994429
0.000964841
0.00099287
0.00099287
0.000966452
0.000966452
0.00099287
0.000966452
0.000966452
0.00099443
0.00096484
0.00099287
0.000966452
0.000966452
0.00096484
0.000959206
0.000929611
0.000957645
0.000957645
0.000931222
0.000931222
0.000959206
0.000929611
0.000957645
0.000957645
0.000931222
0.000931222
0.000957645
0.000931222
0.000931222
0.000959206
0.000929611
0.000957645
0.000931222
0.000931222
0.00092961
0.000923976
0.000894372
0.000922413
0.000922413
0.000895983
0.000895983
0.000923976
0.000894373
0.000922413
0.000922413
0.000895983
0.000895983
0.000922413
0.000895983
0.000895983
0.000923975
0.000894372
0.000922413
0.000895983
0.000895983
0.000894372
0.000888737
0.000859122
0.000887172
0.000887172
0.000860733
0.000860733
0.000888736
0.000859122
0.000887172
0.000887172
0.000860733
0.000860733
0.000887172
0.000860733
0.000860733
0.000888737
0.000859122
0.000887172
0.000860733
0.000860734
0.000859122
0.000853485
0.000823857
0.000851918
0.000851918
0.000825468
0.000825468
0.000853484
0.000823857
0.000851918
0.000851918
0.000825468
0.000825468
0.000851918
0.000825468
0.000825468
0.000853485
0.000823857
0.000851919
0.000825468
0.000825468
0.000823857
0.000818217
0.000788574
0.000816649
0.000816649
0.000790185
0.000790185
0.000818217
0.000788574
0.000816649
0.000816649
0.000790185
0.000790185
0.000816649
0.000790185
0.000790185
0.000818218
0.000788574
0.000816649
0.000790185
0.000790185
0.000788574
0.00165447
0.00166776
0.00165445
0.00166776
0.00166776
0.00165444
0.00165447
0.00166776
0.00165445
0.00166776
0.00166582
0.00166582
0.00166582
0.00163895
0.00163895
0.00163895
0.00163895
0.00165461
0.00166772
0.00166579
0.00165678
0.00165452
0.00165683
0.0016677
0.00166776
0.00165444
0.00165461
0.00166579
0.00166772
0.00165678
0.00165683
0.00165451
0.0016677
0.00166776
0.00166776
0.00165513
0.00165445
0.00165445
0.00161868
0.00163194
0.00163195
0.00161866
0.00163195
0.00161865
0.00161868
0.00163194
0.00163195
0.00161866
0.00163001
0.00163001
0.00163001
0.00160319
0.00160319
0.00160319
0.00160319
0.00161881
0.00163191
0.00162997
0.00162098
0.00163189
0.00161873
0.00162103
0.00163195
0.00161865
0.00161881
0.00162997
0.00163191
0.00162098
0.00163189
0.00162103
0.00161873
0.00163195
0.00163195
0.00161934
0.00161866
0.00161866
0.00158296
0.0015962
0.0015962
0.00158294
0.00159621
0.00158294
0.00158296
0.0015962
0.0015962
0.00158294
0.00159426
0.00159426
0.00159426
0.0015675
0.0015675
0.0015675
0.0015675
0.00158309
0.00159617
0.00159423
0.00158525
0.00159614
0.00158301
0.0015853
0.00159621
0.00158294
0.00158309
0.00159423
0.00159617
0.00158525
0.00159614
0.0015853
0.00158301
0.00159621
0.00159621
0.00158361
0.00158294
0.00158294
0.0015473
0.00156052
0.00156053
0.00154729
0.00156053
0.00154728
0.0015473
0.00156052
0.00156053
0.00154729
0.00155859
0.00155859
0.00155859
0.00153187
0.00153187
0.00153187
0.00153187
0.00154743
0.00156049
0.00155854
0.00154959
0.00156046
0.00154735
0.00154963
0.00156053
0.00154728
0.00154743
0.00155854
0.00156049
0.00154959
0.00156046
0.00154963
0.00154735
0.00156053
0.00156053
0.00154795
0.00154729
0.00154729
0.0015117
0.00152491
0.00152491
0.00151169
0.00152491
0.00151168
0.0015117
0.00152491
0.00152491
0.00151169
0.00152297
0.00152297
0.00152297
0.00149629
0.00149629
0.00149629
0.00149629
0.00151183
0.00152487
0.00152292
0.00151398
0.00152484
0.00151175
0.00151403