/*--------------------------------*- C++ -*----------------------------------*\
| =========                 |                                                 |
| \\      /  F ield         | OpenFOAM: The Open Source CFD Toolbox           |
|  \\    /   O peration     | Version:  v1906                                 |
|   \\  /    A nd           | Web:      www.OpenFOAM.com                      |
|    \\/     M anipulation  |                                                 |
\*---------------------------------------------------------------------------*/
FoamFile
{
    version     2.0;
    format      ascii;
    class       surfaceScalarField;
    location    "850";
    object      phi;
}
// * * * * * * * * * * * * * * * * * * * * * * * * * * * * * * * * * * * * * //

dimensions      [0 3 -1 0 0 0 0];
oriented        oriented;


internalField   nonuniform List<scalar> 
123680
(
1.19221e-07
1.19715e-07
-7.11261e-08
-7.10041e-08
0.00118432
-0.00118442
-1.19692e-06
-1.19515e-07
-4.8729e-08
0.0011323
-2.34254e-07
1.2413e-06
2.72175e-07
9.11175e-07
-2.1267e-07
2.66403e-07
-8.52996e-07
-0.00113233
-1.1915e-06
-1.19689e-07
-4.86437e-08
0.00113194
-2.34297e-07
1.23579e-06
2.72165e-07
9.11033e-07
-2.15341e-07
2.69147e-07
-8.52845e-07
-0.00113196
1.22558e-06
1.19163e-06
-1.98266e-07
-2.03557e-07
0.000268069
-0.000270084
-0.00027009
1.22517e-06
1.19122e-06
-1.98074e-07
-2.03374e-07
0.000268075
1.23093e-06
1.19434e-06
-1.95717e-07
-2.03482e-07
0.000268075
-0.000270101
-1.27513e-06
-1.23848e-06
-0.000268079
2.3915e-07
2.4709e-07
0.000270107
-4.86837e-08
0.00113147
-2.39783e-07
1.27523e-06
2.77561e-07
9.11109e-07
-2.12705e-07
2.66338e-07
-8.53025e-07
-0.00113149
-1.23649e-06
-1.19369e-07
-4.83109e-08
0.00113191
-2.4272e-07
1.28064e-06
2.80302e-07
9.16679e-07
-2.15466e-07
2.69152e-07
-8.58502e-07
-0.00113194
-1.21277e-07
-0.00113142
-4.95181e-08
-1.23061e-06
2.77465e-07
-2.39594e-07
-8.52704e-07
2.66293e-07
-2.12473e-07
9.11124e-07
0.00113139
1.28055e-06
-1.2142e-07
-0.00113186
-4.91497e-08
-1.23618e-06
2.80214e-07
-2.42524e-07
-8.58189e-07
2.69096e-07
-2.15257e-07
9.16685e-07
0.00113184
-1.98358e-07
-2.00865e-07
0.000268097
-0.000270131
-1.2412e-06
-0.000268101
2.41995e-07
2.44272e-07
0.000270136
-4.85244e-08
0.00113257
-2.37214e-07
1.23857e-06
2.74997e-07
9.13979e-07
-2.15414e-07
2.69234e-07
-8.55654e-07
-0.0011326
-1.23101e-06
-1.19287e-07
-4.85384e-08
0.00113157
-2.42679e-07
1.27524e-06
2.80358e-07
9.13794e-07
-2.15417e-07
2.6908e-07
-8.55675e-07
-0.00113159
-1.21789e-07
-0.00113252
-4.93272e-08
-1.19402e-06
2.74911e-07
-2.37009e-07
-8.55347e-07
2.6918e-07
-2.15189e-07
9.13988e-07
0.0011325
1.27514e-06
-1.21346e-07
-0.00113152
-4.93863e-08
-1.23069e-06
2.80266e-07
-2.42467e-07
-8.55352e-07
2.69021e-07
-2.15199e-07
9.1379e-07
0.0011315
-1.19333e-07
-4.84387e-08
0.00113136
-2.37034e-07
1.26976e-06
2.74728e-07
9.11134e-07
-2.12668e-07
2.66349e-07
-8.53024e-07
-0.00113139
-1.21572e-07
-0.00113225
-4.95466e-08
-1.1966e-06
2.7208e-07
-2.34062e-07
-8.52672e-07
2.66341e-07
9.11175e-07
-2.12453e-07
0.00113223
1.26966e-06
0.00113129
-1.21376e-07
-0.00113131
-4.92885e-08
-1.22526e-06
2.74635e-07
-2.36846e-07
-8.52688e-07
2.66301e-07
-2.1244e-07
9.13795e-07
-1.95764e-07
-2.034e-07
0.000268056
-0.000270079
-1.2357e-06
-0.00026806
2.39308e-07
2.46881e-07
0.000270085
-1.19696e-07
-4.85774e-08
0.00113247
-2.34402e-07
1.2359e-06
2.72266e-07
9.11329e-07
-2.15407e-07
2.6919e-07
-8.53049e-07
-0.0011325
-1.21731e-07
-0.00113189
-4.94489e-08
-1.19117e-06
2.72073e-07
-2.34108e-07
-8.52487e-07
2.69078e-07
9.11104e-07
-2.15155e-07
0.00113186
1.2358e-06
0.0011324
-1.21735e-07
-0.00113242
-4.94345e-08
-1.1913e-06
2.72179e-07
-2.34202e-07
-8.52738e-07
2.69135e-07
-2.15187e-07
9.11334e-07
-0.000268073
2.41749e-07
2.47043e-07
-4.9576e-08
-2.36788e-07
1.26965e-06
2.74599e-07
9.138e-07
-2.12389e-07
2.66285e-07
-8.55262e-07
-1.22052e-07
-2.34147e-07
1.23579e-06
2.7215e-07
-2.15133e-07
2.6912e-07
-1.22422e-07
-4.97247e-08
9.11325e-07
-8.52642e-07
-1.77147e-10
-7.01621e-08
0.000229293
3.21213e-08
2.21912e-09
-0.000229257
-5.15458e-09
2.24595e-08
0.000193524
-3.64513e-09
-0.000193538
6.86331e-09
-4.36404e-08
0.000193578
3.25113e-09
-0.000193544
6.63434e-11
2.87178e-08
0.000229238
-1.32007e-08
9.63255e-10
-0.000229254
5.17856e-09
1.11574e-08
9.79803e-05
-9.79967e-05
-6.73596e-09
-2.00846e-08
9.80176e-05
-9.79908e-05
-7.02514e-08
-1.9958e-10
0.000229321
2.14982e-09
3.00662e-08
-0.000229283
-5.1811e-09
2.46707e-08
0.000193545
-4.12914e-09
-0.000193561
6.78837e-09
-4.59731e-08
0.0001936
3.94105e-09
-0.000193565
2.87976e-08
2.40712e-10
0.000229264
8.72592e-10
-1.11434e-08
-0.000229282
-7.09539e-08
-7.10971e-08
0.00118432
-0.00118442
-7.11583e-08
-7.10935e-08
0.00118391
-0.001184
-7.1123e-08
-7.11325e-08
0.00118413
-0.00118423
-0.00118413
-7.36205e-08
-7.34807e-08
0.00118404
-0.00118413
-7.34216e-08
-7.35815e-08
0.00118403
-0.00118371
-7.36311e-08
-7.3565e-08
0.00118362
-0.00118394
-7.35977e-08
-7.36228e-08
0.00118384
7.01589e-08
-1.67995e-09
0.000250196
4.06602e-09
-1.93085e-07
-0.000250076
-9.69534e-09
-2.46686e-08
6.64256e-08
0.0002454
4.03713e-09
-0.000245437
0.00115244
3.54663e-09
-1.40044e-07
1.00834e-06
-7.5768e-07
8.30676e-07
-9.36857e-07
-0.00115249
-4.90054e-08
1.24127e-06
0.00113228
-1.20228e-07
-8.52874e-07
2.66388e-07
-2.12587e-07
9.11185e-07
-1.1968e-06
2.72148e-07
-2.34183e-07
2.07443e-08
4.58897e-08
0.000245474
-1.66994e-08
-0.000245419
-1.05007e-07
-3.78351e-09
0.00115239
-1.41554e-07
-9.36618e-07
8.30766e-07
-7.57435e-07
1.00842e-06
-2.87393e-08
1.58822e-09
0.000250063
1.95752e-09
1.32629e-07
-0.00025017
5.17379e-09
1.34409e-08
9.79616e-05
-9.79802e-05
-6.82355e-09
-2.22759e-08
9.80012e-05
-9.79721e-05
-1.30934e-09
7.00732e-08
0.000250159
-1.93006e-07
4.06346e-09
-0.000250039
0.00115213
3.60791e-09
-1.40195e-07
1.00275e-06
-7.52138e-07
8.25145e-07
-9.31235e-07
-0.00115219
-9.84721e-09
-2.24779e-08
6.64869e-08
0.000245343
4.14651e-09
-0.000245382
-4.89132e-08
1.23576e-06
0.00113191
-1.2039e-07
-8.52654e-07
2.69108e-07
-2.15286e-07
9.1109e-07
-1.19137e-06
2.72131e-07
-2.34226e-07
-3.6302e-09
0.00115208
-1.41705e-07
-9.30989e-07
8.25245e-07
-7.51888e-07
1.00283e-06
2.08367e-08
4.37498e-08
0.00024542
-1.67342e-08
-0.000245362
-1.05131e-07
1.29834e-09
-2.86725e-08
0.000250026
1.32551e-07
1.8772e-09
-0.000250133
1.2309e-08
-1.11352e-08
2.47922e-08
0.000278125
-7.06442e-09
-0.000278144
1.22855e-08
-1.11248e-08
2.25122e-08
0.000278073
-7.50926e-09
-0.000278089
-1.26973e-06
-1.23587e-06
0.000270087
-0.00026807
2.41874e-07
2.47179e-07
-2.31182e-08
2.00306e-08
0.000278195
9.87284e-09
-0.000278151
-5.09912e-08
-2.32657e-08
1.9904e-08
0.00027814
1.05693e-08
-0.000278098
-4.867e-08
-0.000278246
1.2207e-08
-1.12564e-08
2.48601e-08
-6.92802e-09
0.000278227
-0.00027819
1.21746e-08
-1.12465e-08
2.25826e-08
-7.36694e-09
0.000278174
1.11391e-08
9.79782e-05
-9.79945e-05
-1.99185e-08
9.80155e-05
-9.79887e-05
1.11193e-08
9.79773e-05
-9.79936e-05
-2.00078e-08
9.80147e-05
-9.79879e-05
9.84229e-09
2.25398e-08
0.000278124
-7.45412e-09
-0.000278137
1.23334e-08
2.24967e-08
0.00027808
-7.57413e-09
-0.000278096
0.000270104
-1.2752e-06
-1.23854e-06
-0.000268077
2.39276e-07
2.47217e-07
0.000278188
-2.08436e-08
1.04614e-08
-0.000278149
-4.86502e-08
0.000278147
-2.31968e-08
1.04775e-08
-0.000278105
-4.87534e-08
-1.98155e-08
-6.90473e-09
-9.80097e-05
9.80364e-05
1.11926e-08
5.09804e-09
9.79992e-05
-1.98992e-08
-6.83317e-09
-9.80088e-05
9.80356e-05
1.11776e-08
5.1182e-09
9.79984e-05
1.23069e-06
1.19411e-06
0.000268078
-1.95602e-07
-2.03366e-07
-2.0853e-08
-4.85406e-08
-0.0002782
1.05089e-08
0.000278239
-2.32101e-08
-4.86393e-08
-0.000278156
1.05268e-08
0.000278198
9.78829e-09
-7.38705e-09
2.25588e-08
0.000278174
1.22752e-08
-7.49956e-09
2.25184e-08
0.000278131
-7.01887e-08
0.000229329
3.21314e-08
2.16167e-09
-0.000229294
2.25225e-08
0.00019356
-3.65446e-09
-0.000193573
-4.38028e-08
0.000193613
3.51305e-09
-0.000193579
2.87384e-08
0.000229274
-1.32147e-08
8.00842e-10
-0.00022929
-1.49209e-09
0.000250171
3.66169e-09
-1.95682e-07
-0.000250048
6.4105e-08
0.000245344
4.13455e-09
-0.00024538
0.00115251
3.43068e-09
-1.39952e-07
1.00834e-06
-7.57657e-07
8.30654e-07
-9.36836e-07
-0.00115257
-4.89716e-08
0.00113144
-1.19931e-07
-1.23081e-06
2.77525e-07
-2.39715e-07
-8.52899e-07
2.66323e-07
-2.12623e-07
9.11123e-07
0.000245418
-1.6805e-08
-0.000245363
-1.02608e-07
-3.81888e-09
0.00115247
-1.41466e-07
-9.36589e-07
8.30748e-07
-7.57409e-07
1.00841e-06
1.38256e-09
0.000250035
2.38042e-09
1.35202e-07
-0.000250145
0.000250199
4.49858e-09
-1.95716e-07
-0.000250079
-1.23057e-08
6.65331e-08
0.000245357
4.21067e-09
-0.000245393
0.00115267
-1.39992e-07
1.01127e-06
-7.57766e-07
8.30764e-07
-9.39712e-07
-0.00115272
-4.86124e-08
0.00113189
1.28061e-06
-1.20078e-07
-8.58381e-07
2.69144e-07
9.16688e-07
-2.15378e-07
-1.23637e-06
2.80275e-07
-2.4265e-07
0.000245431
2.30572e-08
-1.66088e-08
-0.000245376
-1.05137e-07
0.00115261
-1.41498e-07
-9.39484e-07
8.3086e-07
-7.57512e-07
1.01135e-06
0.000250066
1.30997e-09
1.3524e-07
-0.000250173
6.95285e-11
2.86265e-08
-1.31801e-08
9.73024e-10
0.000229277
-4.35633e-08
-0.000193584
3.19136e-09
0.000193618
2.24707e-08
-3.70926e-09
0.000193564
-1.71585e-10
-7.01345e-08
-0.000229296
3.2075e-08
2.22688e-09
0.000229332
2.865e-08
-1.31965e-08
8.18711e-10
0.000229313
-4.37174e-08
6.78323e-09
-0.000193619
3.43945e-09
0.000193653
2.2538e-08
-5.11285e-09
-3.72919e-09
0.000193599
-7.01582e-08
-0.000229333
3.20832e-08
2.17741e-09
0.000229368
1.38355e-09
2.40097e-09
1.34942e-07
0.000250061
-4.92907e-08
-1.20681e-07
1.27517e-06
-2.39644e-07
2.77505e-07
9.11127e-07
-2.12541e-07
2.6631e-07
-8.52794e-07
-1.02524e-07
-0.000245401
-1.68107e-08
0.000245456
-0.00115241
-3.80738e-09
-1.44393e-07
-9.36184e-07
8.30908e-07
-7.56936e-07
1.00854e-06
0.00115236
4.08368e-09
6.40426e-08
0.000245382
3.43945e-09
-1.43012e-07
1.00847e-06
-7.57169e-07
-9.36399e-07
8.30824e-07
-1.48908e-09
-0.000250074
3.66844e-09
-1.9571e-07
0.000250198
1.33315e-09
1.34983e-07
0.000250093
-4.88971e-08
-1.23627e-06
-1.20821e-07
9.16699e-07
-2.15313e-07
-8.58288e-07
2.69125e-07
1.28058e-06
-2.42584e-07
2.80249e-07
2.30698e-08
-1.0504e-07
-0.000245414
-1.66291e-08
0.000245469
-0.00115257
-1.44424e-07
-9.39063e-07
8.31016e-07
-7.57043e-07
1.01148e-06
0.00115251
-1.22451e-08
4.15019e-09
6.6481e-08
0.000245395
-1.43053e-07
1.01142e-06
-7.5728e-07
-9.39279e-07
8.30934e-07
-0.000250106
4.51248e-09
-1.95741e-07
0.000250225
2.2556e-08
0.00027807
-1.01773e-08
-0.000278084
-1.34883e-08
2.24651e-08
0.000278174
-1.00389e-08
-0.000278182
0.000270133
-0.000268098
2.42124e-07
2.44399e-07
0.000278134
1.2922e-08
-0.000278095
-4.87818e-08
2.22236e-08
0.000278233
1.31489e-08
-0.000278199
-4.85644e-08
5.09995e-09
9.7983e-05
-9.80016e-05
9.80225e-05
-6.84745e-09
-9.79935e-05
-1.99723e-08
-9.80118e-05
9.80385e-05
1.12198e-08
9.80013e-05
1.19669e-06
0.000268099
-1.98248e-07
-2.00755e-07
-4.86664e-08
-0.000278146
1.29791e-08
0.000278185
2.21243e-08
-2.07538e-08
-4.84507e-08
-0.00027825
1.31877e-08
0.000278284
-1.00975e-08
2.25856e-08
0.000278121
-1.35466e-08
9.64131e-09
-9.97446e-09
2.2489e-08
0.000278224
-6.88181e-09
-9.80144e-05
9.80434e-05
5.03916e-09
9.8004e-05
-1.7652e-09
0.000250184
4.01771e-09
-1.90545e-07
-0.000250066
6.40521e-08
0.000245359
4.15614e-09
-0.00024539
0.00115239
3.71884e-09
-1.40049e-07
1.00834e-06
-7.54963e-07
8.30726e-07
-9.34099e-07
-0.00115245
-4.87814e-08
0.00113255
-1.20443e-07
-1.19422e-06
2.74967e-07
-2.37132e-07
-8.55536e-07
2.69224e-07
-2.15329e-07
9.13985e-07
0.000245428
-1.6656e-08
-0.000245378
-1.02716e-07
-3.65489e-09
0.00115235
-1.41636e-07
-9.3656e-07
8.28094e-07
-7.57433e-07
1.00572e-06
1.79107e-09
0.000250053
1.86807e-09
1.3005e-07
-0.000250158
-7.02293e-08
0.000229285
3.0041e-08
2.08077e-09
-0.000229247
2.46656e-08
0.000193492
-3.74097e-09
-0.000193508
-4.58855e-08
0.000193548
3.4487e-09
-0.000193512
2.87951e-08
0.000229228
-1.11297e-08
1.02294e-09
-0.000229246
0.000250153
-1.93131e-07
4.26509e-09
-0.000250036
0.00115236
-1.39999e-07
1.00836e-06
-7.57734e-07
8.30735e-07
-9.36838e-07
-0.00115241
-1.22066e-08
6.4054e-08
0.00024529
6.53015e-09
-0.000245324
-4.88396e-08
0.00113154
1.27521e-06
-1.20002e-07
-8.5555e-07
2.69063e-07
9.138e-07
-2.15337e-07
-1.23089e-06
2.80329e-07
-2.42591e-07
0.00115231
-1.41523e-07
-9.36603e-07
8.30825e-07
-7.57483e-07
1.00843e-06
0.000245362
2.30776e-08
-1.90678e-08
-0.000245309
-1.02593e-07
0.000250023
1.32663e-07
1.68263e-09
-0.000250127
2.87047e-08
2.4217e-10
8.8331e-10
-1.11224e-08
0.000229303
-4.58938e-08
-0.000193605
3.87558e-09
0.00019364
2.46802e-08
-4.19838e-09
0.000193585
-7.02254e-08
-1.96539e-10
-0.000229322
2.15533e-09
3.00287e-08
0.00022936
1.79034e-09
1.88657e-09
1.29791e-07
0.000250079
-4.91291e-08
-1.21179e-07
1.23851e-06
-2.37064e-07
2.74938e-07
9.13992e-07
-2.15254e-07
2.69207e-07
-8.55432e-07
-1.02622e-07
-0.000245416
-1.6671e-08
0.000245466
-0.00115229
-3.65645e-09
-1.44566e-07
-9.36147e-07
8.28251e-07
-7.56962e-07
1.00585e-06
0.00115224
4.09961e-09
6.39924e-08
0.000245397
3.71336e-09
-1.43122e-07
1.00848e-06
-7.54474e-07
-9.33655e-07
8.30892e-07
-1.76498e-09
-0.000250093
4.02496e-09
-1.90571e-07
0.000250211
2.87019e-08
-1.11083e-08
1.03641e-09
0.000229267
-4.58049e-08
6.87015e-09
-0.000193552
3.37876e-09
0.000193587
2.46781e-08
-5.11023e-09
-3.81622e-09
0.000193532
-7.02029e-08
-0.000229286
3.00037e-08
2.09269e-09
0.000229324
1.32405e-07
1.69957e-09
0.000250049
-4.91333e-08
-1.23078e-06
-1.20756e-07
9.13802e-07
-2.15258e-07
-8.55447e-07
2.6905e-07
1.27518e-06
-2.42527e-07
2.80306e-07
-0.00115226
-1.44451e-07
-9.36181e-07
8.3098e-07
-7.57013e-07
1.00855e-06
0.0011522
2.30925e-08
-1.025e-07
-0.000245347
-1.90844e-08
0.0002454
-1.43068e-07
1.0085e-06
-7.57246e-07
-9.36391e-07
8.30901e-07
-1.21464e-08
6.46881e-09
6.39957e-08
0.000245328
-0.000250063
-1.93157e-07
4.27506e-09
0.000250179
-1.90598e-10
0.000229328
2.21675e-09
3.21172e-08
-0.000229292
0.000193557
-3.82716e-09
-0.000193572
0.000193612
3.44701e-09
-0.000193577
1.09818e-10
0.000229272
9.35031e-10
-1.32159e-08
-0.000229289
7.01326e-08
0.000250166
-1.90489e-07
4.26673e-09
-0.000250051
0.00115237
-1.40051e-07
1.00565e-06
-7.57711e-07
8.30703e-07
-9.34117e-07
-0.00115242
-2.24661e-08
6.40681e-08
0.000245337
4.22549e-09
-0.00024537
-4.87403e-08
0.00113134
-1.20033e-07
-1.22546e-06
2.74694e-07
-2.36963e-07
-8.52895e-07
2.66333e-07
-2.12588e-07
9.11142e-07
0.00115231
-1.41553e-07
-9.3388e-07
8.30794e-07
-7.57462e-07
1.00571e-06
4.37207e-08
0.000245408
-1.67047e-08
-0.000245356
-1.02625e-07
-2.87192e-08
0.000250038
1.30046e-07
1.58945e-09
-0.00025014
0.000229292
3.21002e-08
2.17595e-09
-0.000229256
-5.16958e-09
0.000193505
-3.64144e-09
-0.000193519
0.000193559
6.75493e-09
3.46033e-09
-0.000193525
0.000229237
-1.32036e-08
8.16146e-10
-0.000229253
-2.86513e-08
1.58395e-09
1.97377e-09
1.32375e-07
0.000250089
-4.9321e-08
-1.20971e-07
1.24124e-06
-2.34118e-07
2.72119e-07
9.1119e-07
-2.12508e-07
-8.52776e-07
2.66378e-07
4.57964e-08
-1.04908e-07
-0.000245458
-1.67081e-08
0.000245513
-0.00115233
-4.96541e-09
-1.44473e-07
-9.36184e-07
8.3092e-07
1.00854e-06
-7.56973e-07
0.00115229
-2.46769e-08
3.98146e-09
6.63661e-08
0.000245438
3.39966e-09
-1.43099e-07
1.00848e-06
-7.57199e-07
-9.36415e-07
8.3084e-07
7.01326e-08
-1.98559e-09
-0.000250103
4.3132e-09
-1.93112e-07
0.000250223
1.07732e-10
9.46012e-10
-1.31973e-08
0.000229311
-0.000193616
3.38637e-09
0.000193652
-3.89455e-09
0.000193596
-2.51424e-10
-0.000229331
2.2227e-09
3.20797e-08
0.000229367
-2.8635e-08
1.29791e-07
1.61082e-09
0.000250065
-4.90359e-08
-1.22535e-06
-1.20783e-07
9.11146e-07
-2.12504e-07
-8.52786e-07
2.66321e-07
1.2697e-06
-2.369e-07
2.7467e-07
-0.00115226
0.0011522
-1.44469e-07
-9.33473e-07
8.30944e-07
-7.56997e-07
1.00855e-06
4.36404e-08
2.3128e-08
0.000245446
-1.02539e-07
-0.000245394
-1.67099e-08
-1.43101e-07
1.00577e-06
-7.5723e-07
-9.33677e-07
8.30869e-07
-2.24763e-08
-1.22502e-08
4.16806e-09
6.40075e-08
0.000245375
7.01042e-08
0.000250192
-0.000250078
-1.90511e-07
4.51792e-09
-1.31865e-08
8.29128e-10
0.000229276
6.79707e-09
0.000193598
-0.000193565
3.39853e-09
-5.10804e-09
-3.71162e-09
0.000193545
0.00022933
-0.000229295
3.20613e-08
2.18644e-09
2.4762e-08
0.000278034
-7.14085e-09
-0.00027805
-1.11691e-08
2.47856e-08
0.000278132
-6.90876e-09
-0.000278148
0.000270082
-0.000268057
2.39438e-07
2.47003e-07
0.000278101
1.00416e-08
-0.000278059
-5.0939e-08
1.99851e-08
0.000278199
9.95406e-09
-0.000278157
-5.09717e-08
5.13922e-09
9.79718e-05
-9.79881e-05
9.80091e-05
-6.81222e-09
-9.79823e-05
-2.21673e-08
-9.7993e-05
9.80221e-05
1.35005e-08
9.79826e-05
1.19127e-06
0.000268059
-1.95649e-07
-2.03288e-07
-5.08214e-08
-0.00027811
1.00922e-08
0.000278151
1.98818e-08
-2.0837e-08
-5.0866e-08
-0.000278208
9.98965e-09
0.000278249
-7.06555e-09
2.47851e-08
0.000278084
-1.12234e-08
9.80368e-09
-6.85329e-09
2.48101e-08
0.000278182
-6.85275e-09
-9.80032e-05
9.803e-05
5.08539e-09
9.79928e-05
7.01167e-08
0.000250184
-1.90463e-07
4.76696e-09
-0.00025007
0.00115226
-1.40176e-07
1.00565e-06
-7.54988e-07
8.28e-07
-9.34111e-07
-0.00115231
-2.24628e-08
6.64742e-08
0.000245352
4.17303e-09
-0.000245388
-4.88847e-08
0.00113244
-1.20398e-07
-1.19151e-06
2.72242e-07
-2.3433e-07
-8.5293e-07
2.69172e-07
-2.15327e-07
9.11334e-07
0.00115221
-1.4168e-07
-9.33878e-07
8.2809e-07
-7.54741e-07
1.00573e-06
4.37302e-08
0.000245426
-1.67579e-08
-0.000245371
-1.05115e-07
-2.8718e-08
0.000250057
1.30017e-07
1.16508e-09
-0.000250158
-1.0224e-10
0.000229284
2.22595e-09
3.20639e-08
-0.000229248
0.000193509
-3.67099e-09
-0.000193523
0.000193563
3.40912e-09
-0.000193529
1.12402e-10
0.000229229
8.41002e-10
-1.31746e-08
-0.000229245
0.00022932
2.14286e-09
2.99596e-08
-0.000229282
-5.20171e-09
0.000193546
-3.56457e-09
-0.000193559
0.000193599
6.90568e-09
3.26759e-09
-0.000193566
0.000229263
9.44442e-10
-1.10706e-08
-0.000229281
1.30212e-09
-2.85724e-08
1.32289e-07
1.88954e-09
0.000250052
-4.92171e-08
-1.21119e-07
1.23573e-06
-2.34163e-07
2.72111e-07
9.11037e-07
-2.15186e-07
-8.52621e-07
2.69124e-07
-0.00115203
-3.61635e-09
-1.44623e-07
-9.30579e-07
8.25402e-07
1.00297e-06
-7.51423e-07
0.00115198
4.3671e-08
-1.05045e-07
-0.0002454
-1.67373e-08
0.000245458
3.60915e-09
-1.43246e-07
1.0029e-06
-7.51654e-07
-9.30792e-07
8.2532e-07
-2.24942e-08
4.09646e-09
6.64323e-08
0.000245381
-1.30972e-09
7.00275e-08
-0.000250065
-1.93026e-07
4.07595e-09
0.000250186
-2.86126e-08
1.29751e-07
1.1832e-09
0.000250083
-4.91743e-08
-1.1914e-06
-1.21147e-07
9.11343e-07
-2.15247e-07
-8.52828e-07
2.69161e-07
1.23584e-06
-2.34263e-07
2.72216e-07
-0.00115216
-1.44597e-07
-9.33463e-07
8.28242e-07
-7.54272e-07
1.00586e-06
0.0011521
4.36586e-08
2.32782e-08
0.000245464
-1.05027e-07
-0.000245409
-1.67769e-08
-1.43239e-07
1.0058e-06
-7.54501e-07
-9.33672e-07
8.28163e-07
-2.24758e-08
-1.22275e-08
4.11706e-09
6.6416e-08
0.00024539
7.00673e-08
-0.000250097
-1.90478e-07
4.7787e-09
0.000250211
1.18859e-10
8.32741e-10
-1.31479e-08
0.000229268
-0.000193569
3.34756e-09
0.000193602
-3.7309e-09
0.000193549
-1.00193e-10
-0.000229287
2.24649e-09
3.2003e-08
0.000229323
9.49101e-10
-1.10386e-08
0.000229302
6.96002e-09
0.000193639
-0.000193605
3.19203e-09
-5.14165e-09
-3.63245e-09
0.000193585
-0.000229321
2.16992e-09
2.98962e-08
0.000229359
9.7971e-05
-9.79873e-05
9.80083e-05
-9.79815e-05
9.79753e-05
-9.79916e-05
9.80126e-05
-9.79858e-05
0.000268071
-1.98153e-07
-2.03448e-07
1.99239e-08
-5.08821e-08
-0.000278201
9.92245e-09
1.97901e-08
-4.85542e-08
-0.000278149
1.06182e-08
-1.11937e-08
-6.98971e-09
2.48171e-08
0.000278176
-1.11832e-08
-7.43871e-09
2.25399e-08
0.000278123
9.80292e-05
-9.80025e-05
9.7992e-05
9.80335e-05
-9.80067e-05
9.79963e-05
1.00862e-06
-7.5679e-07
8.30978e-07
-9.36017e-07
3.48391e-10
-1.459e-07
-2.25012e-08
6.3979e-08
4.11563e-09
0.000245413
-2.85655e-08
0.000250088
1.29568e-07
2.83588e-09
-1.38658e-10
-5.05247e-09
-3.77784e-09
0.000193585
0.000229314
-1.31749e-08
8.43353e-10
5.79716e-11
-2.25058e-08
6.63909e-08
0.000245428
4.05914e-09
-5.08726e-09
0.000193625
-3.69813e-09
9.80129e-05
9.80171e-05
-7.95873e-10
1.43924e-08
0.000143282
-2.89305e-10
-0.000143295
-0.000171014
-3.01953e-10
-3.30627e-11
0.000171047
-0.000223249
3.09125e-08
4.39998e-09
0.000223285
-6.91786e-08
-1.31861e-08
9.6487e-10
-0.000229273
-7.94514e-11
2.8672e-08
-0.000171028
-5.13327e-11
8.66108e-10
-0.000223265
3.05422e-08
1.65346e-09
0.000143311
-2.65513e-08
-7.92064e-05
7.92346e-05
-1.63958e-09
3.28357e-09
0.000193558
6.83954e-09
-4.36735e-08
0.000263067
-1.90925e-08
-8.49763e-10
3.06446e-08
-0.000263081
0.000263107
-4.39164e-09
-5.9208e-08
3.12214e-10
-7.92258e-05
1.91098e-08
7.92152e-05
-0.000263093
2.65108e-08
0.000263133
-5.91688e-08
-3.67774e-09
-5.12441e-09
2.24608e-08
3.06425e-08
7.92434e-05
3.08378e-10
-3.09285e-08
-0.000143266
3.21384e-08
2.21877e-09
-3.15006e-11
-7.01759e-08
0.000170996
7.87486e-10
-4.43687e-11
-0.00017101
0.000223229
-1.44077e-08
3.05904e-08
-0.000223245
-2.6933e-11
-6.91947e-08
-0.000143279
9.80072e-05
-6.70986e-09
-2.01364e-08
5.14427e-09
1.11884e-08
1.24023e-08
-7.10265e-10
0.000143351
-1.59178e-10
-0.000143363
-0.000223332
2.89426e-08
4.2635e-09
0.00022337
-6.93551e-08
-0.000171047
-3.50444e-10
-2.39615e-11
0.000171077
6.33241e-10
-1.11238e-08
-0.000229304
9.85597e-11
3.11749e-08
8.32392e-10
-0.000223352
3.30938e-08
-0.000171059
6.53596e-11
1.39079e-09
0.000143378
-2.45008e-08
-7.92522e-05
7.92781e-05
-1.37413e-09
3.97593e-09
0.00019358
6.76223e-09
-4.60056e-08
0.000263176
-1.68973e-08
-8.11167e-10
3.31318e-08
-0.000263196
0.000263222
-4.25002e-09
-6.18418e-08
1.83194e-10
-7.92693e-05
1.69137e-08
7.9261e-05
-0.000263202
2.44591e-08
0.000263248
-6.17957e-08
-4.16383e-09
-5.14872e-09
2.4673e-08
3.31277e-08
7.92868e-05
-2.8957e-08
3.58439e-10
-0.000143335
2.39002e-09
3.00813e-08
-5.41495e-11
-7.26949e-08
0.000223311
-1.24203e-08
3.07349e-08
-0.00022333
0.000171028
7.018e-10
7.24529e-11
-0.00017104
-7.17814e-08
-1.78244e-11
-0.000143347
9.79907e-05
-6.7971e-09
-2.2328e-08
5.14065e-09
1.34695e-08
-6.95212e-09
-7.02351e-09
0.000213708
1.01453e-08
1.21865e-08
-0.000213716
-8.05257e-05
-1.23743e-08
-1.1984e-08
8.05501e-05
-8.05145e-05
-1.22779e-08
-1.21038e-08
8.05389e-05
9.48113e-09
-8.05422e-05
9.43277e-09
-8.05309e-05
-2.49946e-08
-2.72329e-08
0.000213736
-3.60364e-08
3.33717e-08
-0.000221861
0.000221899
2.50212e-08
-5.98825e-08
0.000250636
-1.58146e-08
5.86306e-08
2.95362e-08
-0.000250684
-5.10443e-08
9.851e-09
0.00027817
2.00815e-08
-2.31126e-08
0.00018299
1.61381e-08
-9.49868e-09
-0.000183004
0.000250699
-9.74832e-08
-5.23135e-08
0.000183021
1.19862e-08
-1.01436e-08
3.10627e-08
-0.000221882
-3.61793e-08
3.13735e-08
-0.000221801
0.000221838
2.72568e-08
-6.00762e-08
0.000250541
-1.57964e-08
6.35301e-08
2.9542e-08
-0.000250596
-4.87211e-08
1.05412e-08
0.000278114
1.99557e-08
-2.32567e-08
0.000182945
1.42179e-08
-9.44815e-09
-0.000182958
0.000250611
-1.02367e-07
-5.24501e-08
0.000182975
1.2101e-08
-1.21846e-08
3.13004e-08
-0.000221822
1.57999e-08
-1.61509e-08
0.000221878
3.10651e-08
-0.000183008
-3.3322e-08
0.000183039
2.48018e-08
-7.02507e-09
-1.11645e-08
1.228e-08
-0.000250651
3.60234e-08
0.000250714
-9.7426e-08
-5.2317e-08
5.86113e-08
2.95057e-08
0.000221916
-5.98228e-08
1.5782e-08
-1.4235e-08
0.000221818
3.13049e-08
-0.000182963
-3.13259e-08
0.000182993
2.25241e-08
-7.47209e-09
-1.11548e-08
1.22573e-08
-0.000250556
3.61723e-08
0.000250626
-1.02312e-07
-5.24566e-08
6.35146e-08
2.95104e-08
0.000221855
-6.00138e-08
1.23952e-08
1.23018e-08
-0.000213689
8.05178e-05
6.94645e-09
-8.05342e-05
8.05065e-05
7.0177e-09
-8.0523e-05
-0.000213697
-0.000221929
-3.5971e-08
3.31788e-08
2.49018e-08
-5.96215e-08
-1.57886e-08
0.000250697
-0.000250745
5.86033e-08
2.94333e-08
1.62132e-08
0.00018306
-9.44364e-09
-0.000183074
-5.08247e-08
9.94249e-09
1.98712e-08
-2.31338e-08
-1.0169e-08
-0.00022195
3.11065e-08
-9.72418e-08
-5.23169e-08
1.19818e-08
-0.000221869
-3.6128e-08
3.11782e-08
2.71473e-08
-5.98076e-08
-1.57655e-08
0.000250602
-0.000250657
6.35107e-08
2.94326e-08
1.4295e-08
0.000183015
-9.38863e-09
-0.000183028
-4.84976e-08
1.06457e-08
1.97404e-08
-2.32913e-08
-1.22095e-08
-0.000221889
3.13532e-08
-1.0212e-07
-5.24735e-08
1.21035e-08
-0.000213766
1.23098e-08
1.22122e-08
6.97119e-09
8.05495e-05
-8.05659e-05
7.04809e-09
8.05382e-05
-8.05547e-05
-0.000213774
9.8005e-05
-1.99693e-08
1.11655e-08
9.80042e-05
-2.00576e-08
1.11468e-08
-7.0127e-09
-6.97443e-09
0.000213708
1.21653e-08
1.01701e-08
-0.000213717
-8.0526e-05
-1.23453e-08
-1.20257e-08
8.05504e-05
-8.05125e-05
-1.2328e-08
-1.206e-08
8.05369e-05
9.42337e-09
-8.05425e-05
9.47911e-09
-8.0529e-05
-2.71274e-08
-2.51308e-08
0.000213736
3.1397e-08
-3.61303e-08
-0.000221862
0.0002219
2.71551e-08
-6.00356e-08
0.000250635
-1.57638e-08
6.36787e-08
2.69131e-08
-0.000250687
1.04375e-08
-4.86999e-08
0.000278163
-2.08382e-08
0.000182991
1.42448e-08
-9.43793e-09
-0.000183003
0.000183021
1.20242e-08
0.000250702
-1.02452e-07
-4.98404e-08
-1.21641e-08
3.13128e-08
-0.000221883
3.14297e-08
-3.61511e-08
-0.000221797
0.000221839
2.5153e-08
-6.23243e-08
0.000250544
-1.58472e-08
6.35589e-08
3.21043e-08
-0.000250601
1.04488e-08
-4.88038e-08
0.000278122
-2.31836e-08
0.000182941
1.41948e-08
-9.49485e-09
-0.000182953
0.000182971
1.20572e-08
0.000250616
-1.02506e-07
-5.49451e-08
-1.017e-08
3.34618e-08
-0.000221822
-1.42587e-08
0.000221879
1.57519e-08
3.13105e-08
-0.000183008
-3.13518e-08
0.000183038
-7.42053e-09
2.25488e-08
9.81622e-09
3.61174e-08
-0.00025065
0.000250717
-1.02396e-07
-4.98442e-08
0.000221917
-5.99777e-08
6.36591e-08
2.68838e-08
-1.42102e-08
0.000221814
1.58306e-08
3.34646e-08
-0.000182959
-3.13822e-08
0.000182988
-7.5358e-09
2.25039e-08
1.23046e-08
3.61437e-08
-0.000250559
0.000250632
-1.0245e-07
-5.49524e-08
0.000221856
-6.22632e-08
6.35368e-08
3.20775e-08
1.2368e-08
1.23512e-08
-0.000213689
8.05181e-05
7.00829e-09
-8.05345e-05
8.05046e-05
6.96884e-09
-8.0521e-05
-0.000213698
-9.80259e-05
1.12226e-08
5.06626e-09
-1.98678e-08
-6.88363e-09
-9.80251e-05
1.1207e-08
5.0894e-09
-1.99533e-08
-6.80947e-09
-0.000213728
1.23259e-08
1.23088e-08
-2.71002e-08
-2.51046e-08
0.000213755
7.01866e-09
8.0534e-05
9.40865e-09
6.98027e-09
8.05205e-05
9.46465e-09
1.21723e-08
1.01713e-08
-1.20255e-08
8.05583e-05
-1.20586e-08
8.05448e-05
-1.42976e-08
1.57394e-08
0.000221913
-0.000221934
-1.21801e-08
3.13369e-08
-0.00025068
3.60839e-08
-1.02272e-07
-4.98502e-08
0.000250748
-7.35543e-09
2.25824e-08
-0.000278213
9.76545e-09
-0.000183043
-3.12566e-08
1.20237e-08
0.000183073
-0.000183056
-9.39631e-09
-0.000250733
6.36498e-08
2.6831e-08
2.7069e-08
-5.98464e-08
0.000221951
-1.42502e-08
1.58136e-08
0.000221848
-0.000221873
-1.01801e-08
3.34944e-08
-0.00025059
3.61141e-08
-1.02323e-07
-5.49615e-08
0.000250662
-7.46111e-09
2.25407e-08
-0.000278172
1.22467e-08
-0.000182994
-3.12825e-08
1.20602e-08
0.000183023
-0.000183006
-9.44486e-09
-0.000250647
6.3531e-08
3.20204e-08
2.5075e-08
-6.21296e-08
0.00022189
-0.000221896
3.13094e-08
-3.61021e-08
-5.99145e-08
1.42731e-08
0.000183026
-1.57447e-08
0.000250665
6.36463e-08
2.68593e-08
1.04847e-08
-4.85988e-08
-2.08471e-08
3.1318e-08
-1.02338e-07
-4.98457e-08
-0.000221831
3.13356e-08
-3.61271e-08
-6.21997e-08
1.42293e-08
0.000182976
-1.58212e-08
0.000250574
6.35273e-08
3.20484e-08
1.04999e-08
-4.86974e-08
-2.31983e-08
3.34745e-08
-1.02384e-07
-5.49583e-08
-7.02344e-09
-6.99113e-09
0.000213747
-8.05419e-05
-1.23033e-08
8.05662e-05
-8.05284e-05
-1.22814e-08
8.05527e-05
0.000213774
-6.86554e-10
1.24025e-08
0.000143352
-1.71061e-10
-0.000143364
-0.000171049
-3.47534e-10
0.000171081
-0.000223333
2.89506e-08
4.3075e-09
0.000223374
-7.176e-08
-1.32047e-08
5.86049e-10
-0.00022931
2.86941e-08
-0.000171062
7.54675e-10
-0.000223354
3.3064e-08
1.39894e-09
0.000143379
-2.44936e-08
-7.9251e-05
7.92769e-05
-1.38245e-09
3.54714e-09
0.000193593
-4.38359e-08
0.000263174
-1.68936e-08
-7.3566e-10
3.31399e-08
-0.000263193
0.000263219
-4.29379e-09
-6.1803e-08
1.94769e-10
-7.92681e-05
1.69128e-08
7.92598e-05
-0.0002632
2.44503e-08
0.000263245
-6.17593e-08
-3.69196e-09
2.25242e-08
3.31401e-08
7.92857e-05
3.56433e-10
-2.8967e-08
-0.000143336
3.21559e-08
2.37591e-09
-7.01981e-08
0.00017103
6.77471e-10
-0.000171044
0.000223313
-1.24141e-08
3.31123e-08
-0.000223334
-7.17657e-08
-0.000143348
-0.000143297
2.97802e-10
-3.0891e-08
1.66776e-09
0.000143326
8.04766e-10
0.000171033
-3.99685e-11
-1.43864e-08
0.000223269
8.80422e-10
3.0513e-08
3.20984e-08
2.22319e-09
0.000229312
-2.70304e-11
-7.01536e-08
-2.68338e-10
0.000171065
-2.21559e-11
4.40912e-09
0.000223305
-6.91618e-08
7.92327e-05
1.91452e-08
-7.92521e-05
2.47293e-10
-3.74119e-09
-0.000193598
2.24752e-08
2.64215e-08
-0.000263145
-4.42032e-09
-5.9076e-08
0.000263185
-1.68098e-09
7.92608e-05
-0.000263159
-8.96676e-10
3.06529e-08
-7.9224e-05
-2.64637e-08
-1.91279e-08
0.000263119
3.06452e-08
3.22249e-09
-4.36038e-08
-5.91229e-08
0.000143313
-8.15167e-10
1.43752e-08
-1.31665e-08
9.78911e-10
-7.5287e-11
2.85833e-08
-2.90706e-10
-0.000171051
-2.90651e-11
0.000171084
3.08707e-08
-0.000223289
-6.9139e-08
0.000223325
0.000143342
-4.82018e-11
3.04758e-08
-0.000143368
3.38292e-10
-2.8925e-08
1.41504e-09
0.000143395
6.98606e-10
0.000171067
-1.23928e-08
0.000223353
7.74828e-10
3.30357e-08
3.2114e-08
2.38854e-09
0.000229349
-7.01761e-08
-1.46405e-10
0.000171099
4.32418e-09
0.000223394
-7.1737e-08
1.69488e-08
7.92773e-05
-7.92944e-05
1.25855e-10
-3.76813e-09
-0.000193633
-5.07809e-09
2.25459e-08
-0.000263252
2.4351e-08
-4.34106e-09
-6.16599e-08
0.000263297
-0.000263271
-7.95983e-10
3.315e-08
-1.43471e-09
7.93031e-05
-7.92686e-05
-2.43996e-08
-1.69344e-08
0.000263226
3.31479e-08
3.47555e-09
6.75938e-09
-4.376e-08
-6.1715e-08
-7.10891e-10
1.23854e-08
0.000143383
-1.3183e-08
6.03677e-10
2.86076e-08
-0.000171086
-3.29908e-10
0.000171118
-0.000223373
2.8912e-08
-7.17225e-08
0.000223414
3.29902e-08
0.00014341
-6.96831e-09
-7.05858e-09
0.000213715
1.23183e-08
1.00825e-08
-0.000213723
-8.0515e-05
-1.24179e-08
-1.1963e-08
8.05394e-05
-8.05287e-05
-1.22973e-08
-1.20815e-08
8.05531e-05
9.48217e-09
-8.05315e-05
9.39178e-09
-8.05451e-05
-2.71559e-08
-2.51557e-08
0.000213742
3.16857e-08
-3.84945e-08
-0.000221802
0.000221842