/*--------------------------------*- C++ -*----------------------------------*\
| =========                 |                                                 |
| \\      /  F ield         | OpenFOAM: The Open Source CFD Toolbox           |
|  \\    /   O peration     | Version:  v1906                                 |
|   \\  /    A nd           | Web:      www.OpenFOAM.com                      |
|    \\/     M anipulation  |                                                 |
\*---------------------------------------------------------------------------*/
FoamFile
{
    version     2.0;
    format      ascii;
    class       volVectorField;
    location    "850";
    object      U;
}
// * * * * * * * * * * * * * * * * * * * * * * * * * * * * * * * * * * * * * //

dimensions      [0 1 -1 0 0 0 0];


internalField   nonuniform List<vector> 
42840
(
(-9.60329e-06 -9.58188e-06 0.112516)
(1.11228e-05 -5.98291e-06 0.107501)
(-5.97417e-06 1.11397e-05 0.1075)
(-2.39892e-05 -2.39889e-05 0.104199)
(-2.38625e-05 -2.38657e-05 0.104201)
(2.39669e-05 2.39855e-05 0.104199)
(-4.16869e-05 -4.16623e-05 0.104316)
(-5.96791e-06 -1.1098e-05 0.107499)
(5.9316e-06 -1.11143e-05 0.107498)
(-6.06152e-06 -1.12144e-05 0.107492)
(6.02735e-06 -1.12292e-05 0.107491)
(-2.3997e-05 2.39385e-05 0.104199)
(4.16594e-05 -4.16771e-05 0.104317)
(-1.1142e-05 -5.96395e-06 0.1075)
(-1.11097e-05 5.9583e-06 0.107498)
(-1.1257e-05 -6.05832e-06 0.107493)
(-1.12237e-05 6.05278e-06 0.107491)
(1.11082e-05 5.94958e-06 0.107498)
(1.12368e-05 -6.07693e-06 0.107494)
(1.12227e-05 6.04298e-06 0.107491)
(2.39532e-05 -2.39993e-05 0.104199)
(-4.16602e-05 4.16835e-05 0.104316)
(5.97441e-06 1.1143e-05 0.1075)
(-6.06896e-06 1.12577e-05 0.107493)
(6.07148e-06 1.12558e-05 0.107493)
(4.16752e-05 4.16606e-05 0.104316)
(1.12655e-05 6.07725e-06 0.107489)
(6.10496e-06 1.12977e-05 0.107491)
(-3.22298e-07 -1.66116e-05 0.0913962)
(6.97963e-07 7.12538e-06 0.082193)
(-1.23443e-06 -1.20693e-05 0.0822527)
(-2.71241e-07 4.9972e-06 0.0913434)
(-2.65665e-06 4.32206e-06 0.0715116)
(3.27201e-06 -5.94934e-06 0.0715733)
(-1.66446e-05 -2.9777e-07 0.0913957)
(7.12047e-06 6.74726e-07 0.0821921)
(-1.21018e-05 -1.16142e-06 0.0822531)
(5.02831e-06 -2.34985e-07 0.0913439)
(9.58772e-06 -9.59118e-06 0.112516)
(-9.58855e-06 9.60724e-06 0.112515)
(9.59349e-06 9.60377e-06 0.112515)
(-9.88344e-06 -9.85995e-06 0.112489)
(9.86577e-06 -9.87027e-06 0.112489)
(-9.86709e-06 9.88426e-06 0.112488)
(9.87266e-06 9.8804e-06 0.112488)
(2.72626e-05 -7.01891e-07 0.09856)
(-8.73968e-06 3.10991e-06 0.0929748)
(1.3937e-05 -2.51471e-06 0.109933)
(1.11619e-05 -6.01347e-06 0.107499)
(2.04139e-05 -7.78038e-06 0.0930395)
(1.40357e-05 -2.53328e-06 0.109928)
(-8.14431e-06 -4.50935e-07 0.0984983)
(4.26682e-06 -2.60176e-06 0.071509)
(-5.88171e-06 3.25905e-06 0.0715747)
(-7.00733e-07 2.72331e-05 0.0985601)
(-2.50609e-06 1.39525e-05 0.109932)
(3.15068e-06 -8.77268e-06 0.0929755)
(-6.00463e-06 1.11811e-05 0.107498)
(-2.52638e-06 1.40539e-05 0.109927)
(-7.79656e-06 2.04688e-05 0.0930392)
(-4.28088e-07 -8.11447e-06 0.0984983)
(-3.5281e-06 -3.53121e-06 0.0875179)
(-3.51875e-06 -3.53207e-06 0.0875166)
(4.1734e-05 4.17209e-05 0.104315)
(9.95562e-06 6.89538e-06 0.0875758)
(6.95154e-06 9.93278e-06 0.0875739)
(-3.56825e-06 -3.49162e-06 0.0875499)
(-3.47784e-06 -3.57283e-06 0.0875486)
(2.63865e-06 4.30343e-06 0.0715127)
(-3.31981e-06 -5.90125e-06 0.0715737)
(4.30612e-06 2.66866e-06 0.0715116)
(-5.92642e-06 -3.30955e-06 0.0715732)
(3.50014e-06 3.54305e-06 0.0875189)
(3.53005e-06 3.54439e-06 0.0875166)
(-4.1745e-05 -4.17196e-05 0.104315)
(-6.92228e-06 -9.9377e-06 0.0875756)
(-9.96384e-06 -6.92979e-06 0.087574)
(-3.34484e-06 -5.87451e-06 0.071589)
(2.60808e-06 4.31339e-06 0.071528)
(-5.89817e-06 -3.3353e-06 0.0715885)
(4.31692e-06 2.63661e-06 0.0715269)
(2.38947e-05 2.39123e-05 0.1042)
(-6.93209e-06 -9.90308e-06 0.0875915)
(-9.9278e-06 -6.94042e-06 0.0875899)
(3.47928e-06 3.5596e-06 0.0875349)
(3.54806e-06 3.52097e-06 0.0875326)
(2.93093e-07 -1.66178e-05 0.0913961)
(-6.89897e-07 7.14902e-06 0.0821924)
(1.15746e-06 -1.21293e-05 0.0822522)
(2.12439e-07 5.00262e-06 0.0913434)
(-7.31757e-07 -2.7268e-05 0.09856)
(3.1445e-06 8.75277e-06 0.0929751)
(-2.51678e-06 -1.39309e-05 0.109933)
(-5.998e-06 -1.11379e-05 0.107497)
(-7.80498e-06 -2.04185e-05 0.0930381)
(-2.53691e-06 -1.4031e-05 0.109928)
(-4.27307e-07 8.13887e-06 0.0984981)
(6.78073e-07 -2.72728e-05 0.0985598)
(-3.17866e-06 8.78655e-06 0.0929737)
(2.48108e-06 -1.39357e-05 0.109932)
(5.96307e-06 -1.11536e-05 0.107496)
(7.74679e-06 -2.04728e-05 0.0930378)
(2.50229e-06 -1.4034e-05 0.109927)
(3.92418e-07 8.14453e-06 0.0984979)
(-2.69031e-07 4.98504e-06 0.091359)
(-1.2489e-06 -1.20382e-05 0.0822695)
(6.79801e-07 7.13793e-06 0.0822099)
(-3.20919e-07 -1.65928e-05 0.0914118)
(2.12746e-07 4.99115e-06 0.0913589)
(1.17532e-06 -1.20956e-05 0.082269)
(-6.679e-07 7.15994e-06 0.0822093)
(2.95108e-07 -1.65985e-05 0.0914116)
(-4.28211e-07 8.08541e-06 0.0985086)
(-6.03473e-06 -1.11831e-05 0.107494)
(-7.80569e-06 -2.03961e-05 0.0930525)
(-2.57951e-06 -1.42213e-05 0.109918)
(3.12692e-06 8.75055e-06 0.0929896)
(-2.56089e-06 -1.41333e-05 0.109923)
(-7.33476e-07 -2.72709e-05 0.0985704)
(3.9335e-07 8.09195e-06 0.0985084)
(5.99928e-06 -1.11989e-05 0.107494)
(7.74981e-06 -2.04475e-05 0.0930522)
(2.54443e-06 -1.4224e-05 0.109917)
(-3.15847e-06 8.78655e-06 0.0929882)
(2.52399e-06 -1.41375e-05 0.109922)
(6.81364e-07 -2.72745e-05 0.0985702)
(-3.52917e-06 3.52399e-06 0.0875164)
(-3.50463e-06 3.4595e-06 0.0875174)
(4.17159e-05 -4.17351e-05 0.104316)
(6.87233e-06 -9.95949e-06 0.0875745)
(9.88629e-06 -6.90546e-06 0.0875767)
(-4.27699e-06 2.56498e-06 0.0715095)
(5.87553e-06 -3.26912e-06 0.0715749)
(3.29909e-06 -5.92051e-06 0.0715885)
(-2.62227e-06 4.33336e-06 0.071527)
(-2.39264e-05 2.38672e-05 0.1042)
(6.8823e-06 -9.92227e-06 0.0875904)
(9.85075e-06 -6.91349e-06 0.0875926)
(-3.50478e-06 3.54424e-06 0.0875324)
(-3.52249e-06 3.43928e-06 0.0875334)
(5.8488e-06 -3.2928e-06 0.0715901)
(-4.2878e-06 2.53438e-06 0.0715249)
(-2.72856e-05 -6.91477e-07 0.0985595)
(8.74528e-06 3.16805e-06 0.0929742)
(-1.3942e-05 -2.49789e-06 0.109932)
(-1.1182e-05 -5.99402e-06 0.107498)
(-2.04572e-05 -7.7782e-06 0.0930386)
(-1.40489e-05 -2.51746e-06 0.109927)
(8.15143e-06 -4.14942e-07 0.098498)
(-1.66368e-05 2.83084e-07 0.0913957)
(7.11388e-06 -6.665e-07 0.0821915)
(-1.20712e-05 1.17331e-06 0.0822532)
(5.02654e-06 2.85484e-07 0.091344)
(-2.72827e-05 6.97076e-07 0.0985595)
(-1.3938e-05 2.50232e-06 0.109932)
(8.75078e-06 -3.13006e-06 0.0929737)
(-1.11485e-05 5.98882e-06 0.107495)
(-1.40364e-05 2.52274e-06 0.109927)
(-2.04263e-05 7.74645e-06 0.0930385)
(8.1549e-06 4.35063e-07 0.098498)
(5.01567e-06 -2.33211e-07 0.0913595)
(-1.20709e-05 -1.17799e-06 0.0822699)
(7.13002e-06 6.53127e-07 0.0822091)
(-1.66264e-05 -2.95795e-07 0.0914112)
(8.09841e-06 -4.14757e-07 0.0985084)
(-1.1226e-05 -6.03189e-06 0.107496)
(-2.04327e-05 -7.7804e-06 0.093053)
(-1.42383e-05 -2.56032e-06 0.109917)
(8.74416e-06 3.1485e-06 0.0929887)
(-1.41433e-05 -2.5419e-06 0.109922)
(-2.72879e-05 -6.92071e-07 0.0985699)
(5.01374e-06 2.84689e-07 0.0913596)
(-1.20389e-05 1.19079e-06 0.08227)
(7.12612e-06 -6.44357e-07 0.0822084)
(-1.66186e-05 2.83577e-07 0.0914112)
(8.10198e-06 4.34005e-07 0.0985085)
(-1.1194e-05 6.02575e-06 0.107493)
(-1.42253e-05 2.56514e-06 0.109917)
(-2.04023e-05 7.74953e-06 0.0930529)
(-1.41389e-05 2.5451e-06 0.109922)
(8.74952e-06 -3.10943e-06 0.0929882)
(-2.72848e-05 6.98195e-07 0.0985699)
(1.66092e-05 -3.14731e-07 0.0913963)
(-7.12184e-06 6.33054e-07 0.082192)
(1.20789e-05 -1.17415e-06 0.0822535)
(-5.00484e-06 -2.64495e-07 0.0913437)
(2.72559e-05 6.95972e-07 0.0985598)
(1.39359e-05 2.4911e-06 0.109932)
(-8.7498e-06 -3.1749e-06 0.0929749)
(1.11466e-05 5.97989e-06 0.107496)
(1.40342e-05 2.51288e-06 0.109927)
(2.04394e-05 7.76668e-06 0.0930384)
(-8.1404e-06 3.91955e-07 0.0984984)
(1.66035e-05 3.04201e-07 0.0913963)
(-7.13361e-06 -6.9094e-07 0.0821931)
(1.21063e-05 1.16806e-06 0.0822527)
(-4.99719e-06 2.16416e-07 0.0913437)
(-8.0924e-06 -4.49578e-07 0.0985088)
(1.12064e-05 -6.05028e-06 0.107496)
(2.03904e-05 -7.78128e-06 0.0930539)
(1.42248e-05 -2.57561e-06 0.109918)
(-8.73861e-06 3.0915e-06 0.0929893)
(1.41378e-05 -2.5572e-06 0.109923)
(2.72658e-05 -7.01124e-07 0.0985704)
(-4.9929e-06 -2.62672e-07 0.0913593)
(1.20337e-05 -1.18413e-06 0.0822703)
(-7.12994e-06 6.11762e-07 0.0822089)
(1.659e-05 -3.12912e-07 0.0914118)
(-8.08798e-06 3.92131e-07 0.0985089)
(1.11928e-05 6.01567e-06 0.107494)
(1.42237e-05 2.55467e-06 0.109917)
(2.04154e-05 7.76764e-06 0.0930528)
(1.41374e-05 2.53376e-06 0.109922)
(-8.74821e-06 -3.15549e-06 0.0929894)
(2.72578e-05 6.99324e-07 0.0985702)
(-4.98698e-06 2.14899e-07 0.0913593)
(1.20753e-05 1.1835e-06 0.0822695)
(-7.145e-06 -6.70215e-07 0.08221)
(1.65829e-05 3.04903e-07 0.0914118)
(3.51557e-06 -3.52466e-06 0.087515)
(3.49881e-06 -3.54841e-06 0.0875185)
(-4.17161e-05 4.17404e-05 0.104315)
(-9.92713e-06 6.91009e-06 0.0875749)
(-6.9268e-06 9.958e-06 0.087576)
(2.63615e-06 -4.31304e-06 0.0715127)
(-3.31013e-06 5.92133e-06 0.071574)
(-5.85345e-06 3.28506e-06 0.0715899)
(4.27796e-06 -2.56898e-06 0.0715244)
(2.3883e-05 -2.39266e-05 0.1042)
(-9.8897e-06 6.92129e-06 0.0875908)
(-6.93258e-06 9.92268e-06 0.0875919)
(3.53323e-06 -3.50139e-06 0.087531)
(3.48095e-06 -3.56597e-06 0.0875345)
(-3.33399e-06 5.89416e-06 0.0715893)
(2.6076e-06 -4.32365e-06 0.071528)
(7.01588e-07 2.72395e-05 0.0985597)
(2.49976e-06 1.39518e-05 0.109932)
(-3.16898e-06 -8.76294e-06 0.0929744)
(6.00653e-06 1.11807e-05 0.107497)
(2.52202e-06 1.40493e-05 0.109927)
(7.81473e-06 2.04573e-05 0.0930385)
(4.16112e-07 -8.12466e-06 0.0984984)
(-3.05117e-07 1.65832e-05 0.0913969)
(6.76546e-07 -7.1335e-06 0.0821938)
(-1.18474e-06 1.21101e-05 0.0822533)
(-2.50314e-07 -4.98573e-06 0.0913435)
(3.07649e-07 1.65946e-05 0.0913963)
(-7.21024e-07 -7.12408e-06 0.0821927)
(1.24258e-06 1.20944e-05 0.082253)
(2.53563e-07 -4.99892e-06 0.0913439)
(-4.25919e-07 -8.05819e-06 0.0985087)
(-6.04212e-06 1.12258e-05 0.107496)
(-2.56773e-06 1.4243e-05 0.109917)
(-7.79288e-06 2.04448e-05 0.0930536)
(-2.54994e-06 1.4155e-05 0.109922)
(3.13476e-06 -8.77085e-06 0.09299)
(-7.03245e-07 2.72305e-05 0.0985705)
(4.15971e-07 -8.06663e-06 0.0985088)
(6.04268e-06 1.12264e-05 0.107495)
(2.56534e-06 1.42382e-05 0.109917)
(7.81796e-06 2.04319e-05 0.0930529)
(2.54386e-06 1.41531e-05 0.109922)
(-3.14937e-06 -8.76173e-06 0.0929889)
(7.03657e-07 2.72353e-05 0.0985702)
(-2.41628e-07 -4.96965e-06 0.091359)
(-1.19879e-06 1.20761e-05 0.0822701)
(6.58585e-07 -7.14547e-06 0.0822107)
(-3.0774e-07 1.65577e-05 0.0914125)
(2.49917e-07 -4.98072e-06 0.0913593)
(1.26566e-06 1.2073e-05 0.0822698)
(-7.01176e-07 -7.13697e-06 0.0822096)
(3.11605e-07 1.65685e-05 0.091412)
(-4.30988e-06 -2.65083e-06 0.0715121)
(5.93224e-06 3.28108e-06 0.0715736)
(-2.65646e-06 -4.30357e-06 0.0715118)
(3.34678e-06 5.90128e-06 0.0715732)
(-2.39171e-05 -2.39186e-05 0.1042)
(9.92098e-06 6.90486e-06 0.0875916)
(6.96224e-06 9.89528e-06 0.0875898)
(-3.54634e-06 -3.50889e-06 0.0875339)
(-3.49631e-06 -3.55155e-06 0.0875326)
(5.90464e-06 3.30643e-06 0.0715888)
(-4.32129e-06 -2.61914e-06 0.0715275)
(3.37392e-06 5.87246e-06 0.0715885)
(-2.62507e-06 -4.31456e-06 0.0715271)
(1.43191e-05 2.57335e-06 0.109912)
(-8.75326e-06 -3.13837e-06 0.0930039)
(-8.04349e-06 3.93162e-07 0.0985195)
(-7.15507e-06 -6.4966e-07 0.0822269)
(-4.97765e-06 2.15196e-07 0.0913749)
(-3.12981e-06 -8.76709e-06 0.0930034)
(-6.82354e-07 -7.15351e-06 0.0822265)
(-4.33345e-06 -2.59117e-06 0.0715427)
(-2.59651e-06 -4.32706e-06 0.0715424)
(-6.89532e-07 4.21104e-06 0.0768489)
(1.16772e-07 -7.42555e-06 0.0786691)
(-1.16418e-06 -1.5982e-05 0.0899176)
(-2.69961e-07 4.98964e-06 0.0913512)
(-2.04202e-07 3.82867e-06 0.0786259)
(-5.43361e-07 5.48392e-06 0.0898671)
(5.1823e-07 -7.408e-06 0.0768987)
(2.1846e-07 -6.04736e-06 0.0684399)
(-1.22605e-06 -1.2084e-05 0.0822443)
(-7.33547e-07 5.78499e-06 0.0857868)
(-1.38556e-06 -1.23113e-05 0.0858442)
(-8.68708e-07 4.84419e-06 0.0683751)
(-8.8336e-07 4.84516e-06 0.0683827)
(-1.39212e-06 -1.22954e-05 0.0858527)
(6.8809e-07 7.12944e-06 0.0822015)
(-7.42774e-07 5.79122e-06 0.0857953)
(2.06416e-07 -6.03878e-06 0.0684475)
(5.24085e-07 -7.41402e-06 0.0768903)
(-3.24332e-07 -1.6623e-05 0.0913885)
(-2.04205e-07 3.83347e-06 0.0786174)
(-5.38119e-07 5.49153e-06 0.089859)
(1.15646e-07 -7.42907e-06 0.0786606)
(-1.16226e-06 -1.59903e-05 0.0899095)
(-6.81546e-07 4.21534e-06 0.0768405)
(3.25689e-06 -5.96276e-06 0.0715656)
(-2.63893e-06 4.32741e-06 0.0715193)
(4.2625e-06 -6.60182e-07 0.0768514)
(-1.60369e-05 -1.12264e-06 0.089917)
(-7.46747e-06 1.34073e-07 0.0786684)
(5.0184e-06 -2.33539e-07 0.0913518)
(5.53445e-06 -5.14471e-07 0.0898675)
(3.8677e-06 -1.65369e-07 0.0786278)
(-7.46405e-06 5.57532e-07 0.0768983)
(-6.12566e-06 2.42768e-07 0.0684369)
(-1.21167e-05 -1.15208e-06 0.0822447)
(5.83069e-06 -7.11636e-07 0.0857867)
(-1.23897e-05 -1.33467e-06 0.085843)
(4.91486e-06 -8.10509e-07 0.0683758)
(4.91514e-06 -8.26134e-07 0.0683834)
(-1.23742e-05 -1.34334e-06 0.0858515)
(7.12595e-06 6.63751e-07 0.0822006)
(5.83605e-06 -7.21875e-07 0.0857952)
(-6.11693e-06 2.28936e-07 0.0684444)
(-7.46961e-06 5.65018e-07 0.0768899)
(-1.66537e-05 -3.00121e-07 0.091388)
(5.54492e-06 -5.07608e-07 0.0898594)
(3.87286e-06 -1.65084e-07 0.0786192)
(-1.6044e-05 -1.11919e-06 0.089909)
(-7.47002e-06 1.33144e-07 0.0786599)
(4.26413e-06 -6.51727e-07 0.076843)
(-5.89526e-06 3.24441e-06 0.071567)
(4.27215e-06 -2.58507e-06 0.0715167)
(-3.10016e-06 -3.13055e-06 0.0835872)
(3.62775e-06 5.12731e-06 0.0683536)
(5.16716e-06 3.59793e-06 0.0683476)
(-2.62138e-06 -4.09878e-06 0.0682976)
(-4.06961e-06 -2.64737e-06 0.0682918)
(7.29021e-06 7.24774e-06 0.0836336)
(1.68813e-05 1.02859e-05 0.0916919)
(-1.09913e-05 -5.56917e-06 0.0962496)
(9.97336e-06 6.89021e-06 0.0875678)
(-3.80242e-06 -3.05988e-06 0.0815231)
(2.40854e-05 1.41954e-05 0.0962984)
(8.13435e-06 3.98401e-06 0.0815753)
(-7.7575e-06 -3.79695e-06 0.091644)
(1.03488e-05 1.68644e-05 0.0916853)
(-5.56905e-06 -1.09826e-05 0.0962468)
(6.94531e-06 9.94937e-06 0.087566)
(-3.04941e-06 -3.83839e-06 0.0815188)
(1.42497e-05 2.40752e-05 0.0962958)
(4.04509e-06 8.13261e-06 0.0815699)
(-3.79432e-06 -7.78335e-06 0.0916375)
(-7.76335e-06 -3.79555e-06 0.0916511)
(8.11513e-06 3.98482e-06 0.0815831)
(-3.5366e-06 -3.51931e-06 0.0875259)
(2.40628e-05 1.4194e-05 0.0963042)
(-1.09909e-05 -5.55937e-06 0.0962555)
(-3.80757e-06 -3.04876e-06 0.081531)
(1.68596e-05 1.02771e-05 0.0916989)
(-3.79323e-06 -7.78956e-06 0.0916445)
(4.04973e-06 8.11677e-06 0.0815776)
(-3.50712e-06 -3.54242e-06 0.0875246)
(1.42503e-05 2.40524e-05 0.0963016)
(-5.55879e-06 -1.09825e-05 0.0962527)
(-3.04046e-06 -3.84701e-06 0.0815266)
(1.03417e-05 1.68414e-05 0.0916923)
(7.29918e-06 7.25796e-06 0.0836261)
(-2.61964e-06 -4.10222e-06 0.0682908)
(-4.07333e-06 -2.64563e-06 0.068285)
(3.6357e-06 5.12954e-06 0.0683469)
(5.16894e-06 3.60642e-06 0.0683409)
(-3.09759e-06 -3.12771e-06 0.0835796)
(1.67864e-05 1.02451e-05 0.0917199)
(-1.10042e-05 -5.54117e-06 0.0962732)
(-3.83754e-06 -3.02779e-06 0.0815544)
(9.90039e-06 6.90804e-06 0.0875996)
(-7.78792e-06 -3.80199e-06 0.0916722)
(2.39901e-05 1.41866e-05 0.0963218)
(8.06714e-06 3.99463e-06 0.0816064)
(1.03131e-05 1.67669e-05 0.0917133)
(-5.53783e-06 -1.09972e-05 0.0962704)
(-3.01355e-06 -3.8709e-06 0.08155)
(6.9675e-06 9.87657e-06 0.0875977)
(-3.79907e-06 -7.81791e-06 0.0916656)
(1.42462e-05 2.39772e-05 0.0963192)
(4.06024e-06 8.0661e-06 0.081601)
(7.25931e-06 7.21555e-06 0.0836561)
(-2.62765e-06 -4.08811e-06 0.0683178)
(-4.05916e-06 -2.65449e-06 0.068312)
(-3.11123e-06 -3.14361e-06 0.0836098)
(3.60351e-06 5.11943e-06 0.0683737)
(5.15976e-06 3.57331e-06 0.0683677)
(-3.3062e-06 -5.91436e-06 0.0715661)
(2.6232e-06 4.30854e-06 0.0715204)
(-5.93932e-06 -3.29559e-06 0.0715656)
(4.31102e-06 2.65231e-06 0.0715193)
(3.10602e-06 3.12415e-06 0.0835873)
(-5.13657e-06 -3.61972e-06 0.0683537)
(-3.61611e-06 -5.15109e-06 0.0683474)
(4.07153e-06 2.64337e-06 0.068298)
(2.63184e-06 4.09123e-06 0.0682916)
(-7.26615e-06 -7.2754e-06 0.0836337)
(-1.03205e-05 -1.68891e-05 0.0916921)
(5.54689e-06 1.10297e-05 0.09625)
(-6.91752e-06 -9.95457e-06 0.0875676)
(3.03763e-06 3.84699e-06 0.0815244)
(-4.01124e-06 -8.14327e-06 0.0815752)
(-1.42277e-05 -2.40943e-05 0.0962987)
(3.7822e-06 7.80523e-06 0.0916443)
(-1.68938e-05 -1.03384e-05 0.0916854)
(1.09704e-05 5.57941e-06 0.0962468)
(-9.97997e-06 -6.92354e-06 0.0875661)
(3.82784e-06 3.06573e-06 0.0815185)
(-8.15712e-06 -4.02268e-06 0.0815697)
(-2.4106e-05 -1.42356e-05 0.0962961)
(7.77399e-06 3.81623e-06 0.0916376)
(3.78085e-06 7.80954e-06 0.0916513)
(-4.01538e-06 -8.12888e-06 0.081583)
(3.48963e-06 3.55124e-06 0.0875269)
(-1.42262e-05 -2.40724e-05 0.0963045)
(3.02898e-06 3.85428e-06 0.0815322)
(-1.03109e-05 -1.68669e-05 0.0916991)
(5.53828e-06 1.10288e-05 0.0962559)
(7.77987e-06 3.81467e-06 0.0916446)
(-8.1411e-06 -4.02745e-06 0.0815775)
(3.53896e-06 3.53304e-06 0.0875246)
(-2.40837e-05 -1.42358e-05 0.0963019)
(3.83568e-06 3.05637e-06 0.0815264)
(-1.68707e-05 -1.03318e-05 0.0916924)
(1.09695e-05 5.56988e-06 0.0962527)
(-7.27606e-06 -7.28435e-06 0.0836262)
(4.07474e-06 2.64209e-06 0.0682912)
(2.63009e-06 4.09516e-06 0.0682849)
(-5.13898e-06 -3.62802e-06 0.0683469)
(-3.62446e-06 -5.15241e-06 0.0683407)
(3.10332e-06 3.12242e-06 0.0835798)
(2.59354e-06 4.31979e-06 0.0715357)
(-3.3316e-06 -5.8879e-06 0.0715814)
(4.3231e-06 2.62155e-06 0.0715346)
(-5.91233e-06 -3.32241e-06 0.0715809)
(-7.25618e-06 -7.2656e-06 0.0836412)
(4.06788e-06 2.64596e-06 0.0683047)
(2.6345e-06 4.08689e-06 0.0682984)
(3.109e-06 3.12647e-06 0.0835949)
(-5.13383e-06 -3.61183e-06 0.0683604)
(-3.60847e-06 -5.14854e-06 0.0683541)
(3.78376e-06 7.8246e-06 0.0916654)
(-1.42225e-05 -2.40255e-05 0.0963162)
(3.47002e-06 3.57104e-06 0.0875429)
(-4.02171e-06 -8.09626e-06 0.0815986)
(3.01458e-06 3.87336e-06 0.0815478)
(5.52426e-06 1.10343e-05 0.0962677)
(-1.02911e-05 -1.68199e-05 0.0917131)
(7.79692e-06 3.81556e-06 0.0916587)
(-2.40347e-05 -1.42331e-05 0.0963136)
(3.55848e-06 3.51036e-06 0.0875406)
(-8.10629e-06 -4.03414e-06 0.0815931)
(3.85305e-06 3.03781e-06 0.081542)
(1.09768e-05 5.55414e-06 0.0962645)
(-1.68226e-05 -1.03133e-05 0.0917064)
(-1.03026e-05 -1.68448e-05 0.0917061)
(3.0206e-06 3.86084e-06 0.08154)
(5.53179e-06 1.10301e-05 0.0962618)
(-6.92678e-06 -9.9219e-06 0.0875836)
(3.78229e-06 7.81537e-06 0.0916584)
(-4.01949e-06 -8.11434e-06 0.0815908)
(-1.42246e-05 -2.40498e-05 0.0963103)
(-1.68489e-05 -1.03236e-05 0.0916994)
(3.84629e-06 3.04895e-06 0.0815342)
(1.09722e-05 5.5623e-06 0.0962586)
(-9.94631e-06 -6.93558e-06 0.087582)
(7.78645e-06 3.81373e-06 0.0916517)
(-8.1228e-06 -4.02954e-06 0.0815853)
(-2.40601e-05 -1.42343e-05 0.0963077)
(3.11426e-06 3.13024e-06 0.0836024)
(-5.13137e-06 -3.60432e-06 0.0683671)
(-3.59936e-06 -5.14664e-06 0.0683608)
(4.06411e-06 2.64763e-06 0.0683115)
(2.63738e-06 4.08245e-06 0.0683051)
(-7.24454e-06 -7.25526e-06 0.0836488)
(6.46983e-07 4.2638e-06 0.0768506)
(-1.38181e-07 -7.42487e-06 0.078669)
(1.13053e-06 -1.60334e-05 0.0899169)
(2.12799e-07 4.99654e-06 0.0913511)
(1.59378e-07 3.83533e-06 0.0786261)
(4.85755e-07 5.52723e-06 0.089867)
(-5.50076e-07 -7.46861e-06 0.0768979)
(-2.39532e-07 -6.12534e-06 0.0684364)
(1.14851e-06 -1.21425e-05 0.0822438)
(6.99438e-07 5.82812e-06 0.0857862)
(1.33482e-06 -1.2381e-05 0.0858426)
(8.09196e-07 4.91492e-06 0.0683752)
(8.25497e-07 4.91579e-06 0.0683828)
(1.34238e-06 -1.23647e-05 0.085851)
(-6.78566e-07 7.15285e-06 0.0822009)
(7.09745e-07 5.83522e-06 0.0857947)
(-2.26416e-07 -6.11634e-06 0.0684439)
(-5.57844e-07 -7.47329e-06 0.0768895)
(2.93708e-07 -1.66282e-05 0.0913884)
(1.58407e-07 3.83615e-06 0.0786175)
(4.78786e-07 5.53401e-06 0.0898589)
(-1.39058e-07 -7.43462e-06 0.0786605)
(1.12603e-06 -1.60429e-05 0.0899089)
(6.37708e-07 4.26481e-06 0.0768421)
(5.12169e-07 -7.40436e-06 0.0769071)
(-2.03158e-07 3.82875e-06 0.0786345)
(-5.48128e-07 5.48033e-06 0.0898751)
(-3.21559e-07 -1.66023e-05 0.091404)
(-6.97406e-07 4.2099e-06 0.0768574)
(1.18028e-07 -7.41712e-06 0.0786776)
(-1.16738e-06 -1.59696e-05 0.0899256)
(-9.12381e-07 4.84519e-06 0.0683979)
(6.68188e-07 7.13947e-06 0.0822184)
(-1.40511e-06 -1.22624e-05 0.0858696)
(1.82835e-07 -6.02074e-06 0.0684625)
(-7.61191e-07 5.80316e-06 0.0858123)
(1.94437e-07 -6.02985e-06 0.068455)
(-7.523e-07 5.79709e-06 0.0858038)
(-1.24217e-06 -1.20557e-05 0.0822611)
(-8.98793e-07 4.84419e-06 0.0683903)
(-1.39823e-06 -1.22787e-05 0.0858611)
(-7.05495e-07 4.20483e-06 0.0768658)
(-2.68714e-07 4.9779e-06 0.0913668)
(1.18727e-07 -7.40728e-06 0.078686)
(-1.17122e-06 -1.59592e-05 0.0899337)
(5.0581e-07 -7.3977e-06 0.0769154)
(-2.03779e-07 3.82451e-06 0.078643)
(-5.54107e-07 5.47594e-06 0.0898832)
(-5.42596e-07 -7.45998e-06 0.0769063)
(1.59893e-07 3.83371e-06 0.0786346)
(4.93011e-07 5.52224e-06 0.0898751)
(2.9404e-07 -1.66087e-05 0.0914038)
(6.56775e-07 4.26068e-06 0.076859)
(-1.37604e-07 -7.41992e-06 0.0786774)
(1.13607e-06 -1.60225e-05 0.089925)
(8.57875e-07 4.91592e-06 0.068398)
(-6.54869e-07 7.16404e-06 0.0822178)
(1.35994e-06 -1.23286e-05 0.0858679)
(7.32658e-07 5.84605e-06 0.0858117)
(-1.98415e-07 -6.09682e-06 0.068459)
(-2.12427e-07 -6.10653e-06 0.0684514)
(7.2143e-07 5.84154e-06 0.0858032)
(1.16612e-06 -1.2112e-05 0.0822606)
(8.4286e-07 4.91601e-06 0.0683904)
(1.3512e-06 -1.23469e-05 0.0858595)
(6.65527e-07 4.26214e-06 0.0768674)
(2.13404e-07 4.98526e-06 0.0913667)
(-1.37167e-07 -7.4058e-06 0.0786859)
(1.14207e-06 -1.60121e-05 0.089933)
(1.61809e-07 3.82861e-06 0.0786431)
(4.99863e-07 5.51472e-06 0.0898832)
(-5.33712e-07 -7.45915e-06 0.0769146)
(-3.14972e-06 3.10414e-06 0.0835872)
(5.12305e-06 -3.64548e-06 0.0683482)
(3.60153e-06 -5.16866e-06 0.0683536)
(-4.10311e-06 2.62936e-06 0.068292)
(-2.65587e-06 4.06455e-06 0.0682974)
(7.2596e-06 -7.30619e-06 0.0836339)
(1.03127e-05 -1.69083e-05 0.0916859)
(-5.60933e-06 1.09988e-05 0.0962465)
(6.8641e-06 -9.97521e-06 0.0875666)
(-3.06218e-06 3.79229e-06 0.0815184)
(3.97172e-06 -8.14398e-06 0.0815707)
(1.41935e-05 -2.41135e-05 0.0962962)
(-3.85006e-06 7.76442e-06 0.0916374)
(1.68721e-05 -1.0356e-05 0.0916925)
(-1.09846e-05 5.53642e-06 0.0962499)
(9.90202e-06 -6.90068e-06 0.0875687)
(-3.81541e-06 3.03087e-06 0.0815231)
(2.40554e-05 -1.42464e-05 0.0962992)
(8.09104e-06 -4.03942e-06 0.0815756)
(-7.80287e-06 3.7734e-06 0.0916441)
(-3.84835e-06 7.77236e-06 0.0916444)
(3.97764e-06 -8.12888e-06 0.0815785)
(-3.51569e-06 3.53385e-06 0.0875244)
(1.41934e-05 -2.40914e-05 0.096302)
(-3.05088e-06 3.80017e-06 0.0815263)
(-5.59944e-06 1.09987e-05 0.0962524)
(1.03063e-05 -1.68853e-05 0.0916929)
(-7.80935e-06 3.7735e-06 0.0916511)
(8.07732e-06 -4.04315e-06 0.0815834)
(-3.51386e-06 3.44858e-06 0.0875254)
(2.40333e-05 -1.4245e-05 0.096305)
(-1.0984e-05 5.52777e-06 0.0962558)
(-3.82267e-06 3.02241e-06 0.0815309)
(1.68504e-05 -1.03473e-05 0.0916994)
(7.26806e-06 -7.31656e-06 0.0836264)
(-4.10763e-06 2.62618e-06 0.0682852)
(-2.65498e-06 4.067e-06 0.0682906)
(5.12353e-06 -3.65459e-06 0.0683415)
(3.60928e-06 -5.17173e-06 0.0683469)
(-3.14803e-06 3.10021e-06 0.0835797)
(5.88805e-06 -3.25589e-06 0.0715672)
(-4.28211e-06 2.54925e-06 0.0715172)
(-2.60556e-06 4.33985e-06 0.0715346)
(3.28606e-06 -5.93529e-06 0.0715809)
(7.24948e-06 -7.29413e-06 0.0836414)
(-4.09851e-06 2.6329e-06 0.0682987)
(-2.65802e-06 4.06164e-06 0.0683041)
(-3.15211e-06 3.10865e-06 0.0835947)
(5.12057e-06 -3.63608e-06 0.0683549)
(3.59413e-06 -5.16489e-06 0.0683603)
(-3.84844e-06 7.7889e-06 0.0916585)
(1.41919e-05 -2.40422e-05 0.0963137)
(-3.49325e-06 3.5551e-06 0.0875404)
(3.98924e-06 -8.09852e-06 0.081594)
(-5.58273e-06 1.10066e-05 0.0962641)
(-3.0334e-06 3.81968e-06 0.0815419)
(1.02872e-05 -1.68346e-05 0.0917069)
(-7.82334e-06 3.77619e-06 0.0916652)
(2.39854e-05 -1.42398e-05 0.0963167)
(-3.53208e-06 3.42971e-06 0.0875414)
(8.03904e-06 -4.04353e-06 0.081599)
(-3.83767e-06 3.00646e-06 0.0815466)
(-1.09904e-05 5.51375e-06 0.0962675)
(1.68038e-05 -1.03257e-05 0.0917134)
(1.02969e-05 -1.68601e-05 0.0916999)
(-3.04076e-06 3.807e-06 0.0815341)
(-5.59206e-06 1.10016e-05 0.0962582)
(6.87728e-06 -9.94091e-06 0.0875825)
(1.41929e-05 -2.40675e-05 0.0963078)
(-3.84777e-06 7.77888e-06 0.0916514)
(3.98358e-06 -8.11478e-06 0.0815863)
(1.68268e-05 -1.03373e-05 0.0917064)
(-3.82963e-06 3.01481e-06 0.0815387)
(-1.09865e-05 5.52124e-06 0.0962616)
(9.86985e-06 -6.91035e-06 0.0875846)
(-7.81527e-06 3.77511e-06 0.0916582)
(8.06211e-06 -4.04635e-06 0.0815912)
(2.40105e-05 -1.42434e-05 0.0963109)
(-3.15554e-06 3.11357e-06 0.0836023)
(5.11996e-06 -3.62664e-06 0.0683616)
(3.58815e-06 -5.16197e-06 0.068367)
(-4.09377e-06 2.63569e-06 0.0683055)
(-2.65956e-06 4.05799e-06 0.0683108)
(7.24095e-06 -7.28261e-06 0.0836489)
(-4.29366e-06 2.52023e-06 0.0715325)
(5.86142e-06 -3.2809e-06 0.0715825)
(4.21737e-06 7.1264e-07 0.0768492)
(-7.46054e-06 -1.46688e-07 0.0786684)
(-1.59961e-05 1.10346e-06 0.0899174)
(5.01907e-06 2.85707e-07 0.0913518)
(3.86461e-06 2.20322e-07 0.0786275)
(5.50075e-06 5.68142e-07 0.089867)
(-7.42271e-06 -5.69323e-07 0.0768986)
(-6.06489e-06 -2.62138e-07 0.0684397)
(-1.20867e-05 1.16331e-06 0.0822448)
(5.80092e-06 7.558e-07 0.0857863)
(-1.23368e-05 1.32927e-06 0.0858441)
(4.85642e-06 8.86777e-07 0.0683747)
(4.85707e-06 9.03161e-07 0.0683823)
(-1.23198e-05 1.33747e-06 0.0858525)
(7.11839e-06 -6.55011e-07 0.0822)
(5.80785e-06 7.6618e-07 0.0857948)
(-6.05635e-06 -2.48696e-07 0.0684472)
(-7.42779e-06 -5.77605e-07 0.0768902)
(-1.66483e-05 2.82785e-07 0.0913879)
(3.86926e-06 2.19027e-07 0.078619)
(5.50819e-06 5.61876e-07 0.0898589)
(-7.46402e-06 -1.48578e-07 0.0786599)
(-1.60054e-05 1.10009e-06 0.0899094)
(4.21872e-06 7.03086e-07 0.0768408)
(-7.45535e-06 5.5211e-07 0.0769067)
(5.53262e-06 -5.18865e-07 0.0898756)
(3.86785e-06 -1.64395e-07 0.0786363)
(-1.6633e-05 -2.97458e-07 0.0914035)
(4.26058e-06 -6.68774e-07 0.0768599)
(-1.6024e-05 -1.12569e-06 0.0899251)
(-7.45753e-06 1.34205e-07 0.0786769)
(4.9146e-06 -8.56625e-07 0.0683986)
(7.13843e-06 6.43636e-07 0.0822175)
(-1.23411e-05 -1.35838e-06 0.0858684)
(-6.09825e-06 2.03884e-07 0.0684595)
(5.8477e-06 -7.42161e-07 0.0858122)
(-6.10757e-06 2.17468e-07 0.068452)
(5.8428e-06 -7.31928e-07 0.0858037)
(-1.20876e-05 -1.16967e-06 0.0822615)
(4.9153e-06 -8.4263e-07 0.068391)
(-1.23568e-05 -1.34925e-06 0.08586)
(4.25826e-06 -6.76406e-07 0.0768683)
(5.00626e-06 -2.32378e-07 0.0913674)
(-1.60155e-05 -1.12993e-06 0.0899331)
(-7.45805e-06 1.34107e-07 0.0786854)
(-7.44958e-06 5.44038e-07 0.076915)
(5.52408e-06 -5.26356e-07 0.0898837)
(3.86622e-06 -1.64486e-07 0.0786448)
(-7.41502e-06 -5.61996e-07 0.076907)
(3.86403e-06 2.21259e-07 0.078636)
(5.49496e-06 5.74539e-07 0.0898751)
(-1.66277e-05 2.8203e-07 0.0914034)
(4.21493e-06 7.22695e-07 0.0768576)
(-7.45185e-06 -1.4697e-07 0.0786769)
(-1.59846e-05 1.10848e-06 0.0899255)
(4.85736e-06 9.3512e-07 0.0683974)
(7.12939e-06 -6.32623e-07 0.0822169)
(-1.2286e-05 1.35463e-06 0.0858694)
(5.81972e-06 7.88491e-07 0.0858118)
(-6.03705e-06 -2.20625e-07 0.0684623)
(-6.04625e-06 -2.34884e-07 0.0684548)
(5.81359e-06 7.78021e-07 0.0858033)
(-1.20544e-05 1.1808e-06 0.0822616)
(4.85705e-06 9.20421e-07 0.0683899)
(-1.2303e-05 1.34553e-06 0.085861)
(4.21524e-06 7.31302e-07 0.076866)
(5.00671e-06 2.8603e-07 0.0913674)
(-7.45115e-06 -1.44246e-07 0.0786854)
(-1.59754e-05 1.11314e-06 0.0899335)
(3.86305e-06 2.22887e-07 0.0786446)
(5.48869e-06 5.82042e-07 0.0898832)
(-7.41279e-06 -5.51989e-07 0.0769153)
(-4.27109e-06 -6.89803e-07 0.0768511)
(1.60312e-05 -1.15455e-06 0.0899174)
(7.4211e-06 1.24043e-07 0.0786692)
(-4.99838e-06 -2.63531e-07 0.0913515)
(-5.54363e-06 -5.37283e-07 0.0898674)
(-3.83365e-06 -2.01188e-07 0.0786264)
(7.46467e-06 5.35908e-07 0.0768985)
(6.12302e-06 2.19864e-07 0.0684372)
(1.20928e-05 -1.16528e-06 0.082245)
(-5.84275e-06 -7.48908e-07 0.0857868)
(1.23766e-05 -1.35639e-06 0.0858435)
(-4.92524e-06 -8.45471e-07 0.0683759)
(-4.92521e-06 -8.61497e-07 0.0683835)
(1.23615e-05 -1.36318e-06 0.0858519)
(-7.12641e-06 6.22687e-07 0.0822005)
(-5.84966e-06 -7.58465e-07 0.0857953)
(6.11431e-06 2.07933e-07 0.0684447)
(7.46959e-06 5.41791e-07 0.0768901)
(1.66212e-05 -3.16389e-07 0.0913886)
(-5.55074e-06 -5.31526e-07 0.0898593)
(-3.83567e-06 -2.00614e-07 0.0786179)
(1.60419e-05 -1.15207e-06 0.0899094)
(7.4315e-06 1.23328e-07 0.0786607)
(-4.2743e-06 -6.806e-07 0.0768427)
(-4.25749e-06 6.44457e-07 0.0768507)
(7.41765e-06 -1.29731e-07 0.0786691)
(1.60257e-05 1.14122e-06 0.0899173)
(-4.99211e-06 2.15251e-07 0.0913515)
(-3.83107e-06 1.55626e-07 0.0786264)
(-5.52056e-06 4.89851e-07 0.0898674)
(7.4628e-06 -5.44603e-07 0.0768979)
(6.11778e-06 -2.27961e-07 0.0684388)
(1.21214e-05 1.15884e-06 0.0822443)
(-5.82233e-06 6.97114e-07 0.0857876)
(1.23702e-05 1.35097e-06 0.0858438)
(-4.90792e-06 8.03964e-07 0.0683778)
(-4.90854e-06 8.20391e-07 0.0683854)
(1.23532e-05 1.3584e-06 0.0858523)
(-7.13809e-06 -6.80243e-07 0.0822016)
(-5.82901e-06 7.07133e-07 0.0857961)
(6.10883e-06 -2.14999e-07 0.0684464)
(7.46856e-06 -5.51366e-07 0.0768895)
(1.66148e-05 3.056e-07 0.0913885)
(-3.83254e-06 1.55816e-07 0.0786178)
(-5.52852e-06 4.84548e-07 0.0898593)
(7.42812e-06 -1.28889e-07 0.0786606)
(1.60346e-05 1.13827e-06 0.0899092)
(-4.25855e-06 6.35932e-07 0.0768422)
(7.46115e-06 5.29109e-07 0.0769069)
(-5.53848e-06 -5.42679e-07 0.0898755)
(-3.83311e-06 -2.00249e-07 0.078635)
(1.65994e-05 -3.13724e-07 0.0914041)
(-4.2688e-06 -6.97532e-07 0.0768596)
(1.60203e-05 -1.15799e-06 0.0899255)
(7.4164e-06 1.24933e-07 0.0786777)
(-4.92494e-06 -8.91828e-07 0.0683986)
(-7.13209e-06 6.01272e-07 0.0822174)
(1.23277e-05 -1.37804e-06 0.0858688)
(-5.85964e-06 -7.7748e-07 0.0858123)
(6.09621e-06 1.82859e-07 0.0684598)
(6.10486e-06 1.95321e-07 0.0684522)
(-5.85501e-06 -7.68464e-07 0.0858038)
(1.20642e-05 -1.18161e-06 0.0822619)
(-4.92487e-06 -8.76974e-07 0.0683911)
(1.23441e-05 -1.36993e-06 0.0858603)
(-4.26458e-06 -7.06182e-07 0.076868)
(-4.9866e-06 -2.62807e-07 0.0913671)
(1.60103e-05 -1.1615e-06 0.0899335)
(7.41199e-06 1.25428e-07 0.0786862)
(-5.53256e-06 -5.48799e-07 0.0898836)
(-3.83388e-06 -2.00203e-07 0.0786435)
(7.4552e-06 5.22463e-07 0.0769152)
(7.45457e-06 -5.37325e-07 0.0769063)