/*--------------------------------*- C++ -*----------------------------------*\
| =========                 |                                                 |
| \\      /  F ield         | OpenFOAM: The Open Source CFD Toolbox           |
|  \\    /   O peration     | Version:  v1906                                 |
|   \\  /    A nd           | Web:      www.OpenFOAM.com                      |
|    \\/     M anipulation  |                                                 |
\*---------------------------------------------------------------------------*/
FoamFile
{
    version     2.0;
    format      ascii;
    class       volScalarField;
    location    "0.21";
    object      p;
}
// * * * * * * * * * * * * * * * * * * * * * * * * * * * * * * * * * * * * * //

dimensions      [0 2 -2 0 0 0 0];


internalField   nonuniform List<scalar> 
247104
(
-6.09021e-11
6.57932e-11
1.43673e-10
3.27696e-11
-1.27284e-10
6.66575e-11
1.38262e-10
-1.14258e-11
7.44723e-11
1.25602e-10
1.73648e-10
-1.43803e-11
-1.37249e-10
1.29017e-11
1.83491e-10
9.54166e-11
1.78596e-10
1.92002e-10
-1.12905e-10
-4.94045e-10
-6.47135e-10
-4.55191e-10
-6.58008e-11
2.04612e-10
1.68371e-10
8.40321e-11
2.28444e-11
-4.74331e-10
-9.61876e-10
-1.1387e-09
-9.1562e-10
-4.07254e-10
5.87452e-11
5.73708e-11
-6.91938e-11
-6.52283e-11
-8.33826e-11
-6.08954e-10
-1.11949e-09
-1.30191e-09
-1.07157e-09
-5.38185e-10
-4.72133e-11
-1.11195e-10
1.41001e-10
8.02278e-11
-4.01881e-10
-8.80101e-10
-1.0546e-09
-8.3451e-10
-3.36632e-10
1.13634e-10
1.1602e-10
2.21329e-10
2.59477e-10
-2.31725e-12
-3.59956e-10
-5.08082e-10
-3.22712e-10
4.02673e-11
2.65943e-10
2.08589e-10
7.23784e-11
1.74167e-10
2.72579e-10
1.12415e-10
-8.31477e-12
1.38165e-10
2.7714e-10
1.36929e-10
2.34883e-10
1.11382e-10
-6.73447e-11
1.49044e-10
2.28534e-10
-3.3862e-08
-3.59348e-08
-3.6097e-08
-3.72471e-08
-3.73584e-08
-3.74365e-08
-3.74309e-08
-3.60332e-08
-3.56706e-08
-3.60954e-08
-3.81528e-08
-4.10755e-08
-4.11667e-08
-4.11671e-08
-4.1075e-08
-3.77487e-08
-3.75439e-08
-3.72418e-08
-4.10731e-08
-4.11433e-08
-4.10994e-08
-4.10993e-08
-4.11432e-08
-4.10716e-08
-3.73167e-08
-3.63897e-08
-3.38485e-08
-3.73522e-08
-4.11619e-08
-4.10964e-08
-4.09903e-08
-4.09903e-08
-4.10963e-08
-4.11607e-08
-3.74305e-08
-3.57793e-08
-3.59077e-08
-3.74251e-08
-4.11591e-08
-4.10936e-08
-4.09873e-08
-4.09873e-08
-4.10933e-08
-4.11578e-08
-3.72755e-08
-3.74843e-08
-3.74141e-08
-4.10655e-08
-4.1135e-08
-4.10906e-08
-4.10905e-08
-4.11345e-08
-4.10644e-08
-3.7442e-08
-3.65606e-08
-3.60128e-08
-3.77345e-08
-4.10623e-08
-4.11529e-08
-4.11536e-08
-4.10622e-08
-3.76078e-08
-3.73256e-08
-3.59337e-08
-3.564e-08
-3.75296e-08
-3.73007e-08
-3.74171e-08
-3.72663e-08
-3.7437e-08
-3.73238e-08
-3.51175e-08
-3.63668e-08
-3.57662e-08
-3.74738e-08
-3.65541e-08
-3.59266e-08
-5.39459e-08
-5.41473e-08
-5.43019e-08
-5.64803e-08
-5.65432e-08
-5.65516e-08
-5.64978e-08
-5.42355e-08
-5.4056e-08
-5.42885e-08
-5.71835e-08
-6.01862e-08
-6.03514e-08
-6.03521e-08
-6.01891e-08
-5.64788e-08
-5.60155e-08
-5.64777e-08
-6.01978e-08
-6.05945e-08
-6.05939e-08
-6.05938e-08
-6.0594e-08
-6.01897e-08
-5.56711e-08
-5.36921e-08
-5.39395e-08
-5.65397e-08
-6.03522e-08
-6.05945e-08
-6.05757e-08
-6.05753e-08
-6.0593e-08
-6.03487e-08
-5.56425e-08
-5.4019e-08
-5.41405e-08
-5.65462e-08
-6.03516e-08
-6.0594e-08
-6.0575e-08
-6.05743e-08
-6.05914e-08
-6.03475e-08
-5.57147e-08
-5.59932e-08
-5.64927e-08
-6.01916e-08
-6.05928e-08
-6.05919e-08
-6.0591e-08
-6.05898e-08
-6.01859e-08
-5.56089e-08
-5.36532e-08
-5.42294e-08
-5.64747e-08
-6.01879e-08
-6.0347e-08
-6.03477e-08
-6.01831e-08
-5.59795e-08
-5.58009e-08
-5.37428e-08
-5.40486e-08
-5.60088e-08
-5.56659e-08
-5.56398e-08
-5.5713e-08
-5.56076e-08
-5.58023e-08
-5.37559e-08
-5.36874e-08
-5.40129e-08
-5.59909e-08
-5.36471e-08
-5.3747e-08
-7.33863e-08
-7.3561e-08
-7.36677e-08
-7.59479e-08
-7.59989e-08
-7.61026e-08
-7.59066e-08
-7.3637e-08
-7.34277e-08
-7.36681e-08
-7.68037e-08
-7.97242e-08
-7.9783e-08
-7.97838e-08
-7.97257e-08
-7.60251e-08
-7.53308e-08
-7.59436e-08
-7.97219e-08
-7.98918e-08
-7.98963e-08
-7.98966e-08
-7.9892e-08
-7.97231e-08
-7.50638e-08
-7.3117e-08
-7.33794e-08
-7.59937e-08
-7.97811e-08
-7.98962e-08
-7.98953e-08
-7.98952e-08
-7.98958e-08
-7.97806e-08
-7.49632e-08
-7.34747e-08
-7.35551e-08
-7.60975e-08
-7.97816e-08
-7.98958e-08
-7.98947e-08
-7.98947e-08
-7.98951e-08
-7.97811e-08
-7.50035e-08
-7.53175e-08
-7.59036e-08
-7.97236e-08
-7.98902e-08
-7.98947e-08
-7.9895e-08
-7.98903e-08
-7.97221e-08
-7.49816e-08
-7.31142e-08
-7.36324e-08
-7.60236e-08
-7.97207e-08
-7.97785e-08
-7.97796e-08
-7.97195e-08
-7.51953e-08
-7.51425e-08
-7.31295e-08
-7.34261e-08
-7.53289e-08
-7.50603e-08
-7.49607e-08
-7.50011e-08
-7.49798e-08
-7.51427e-08
-7.31459e-08
-7.31126e-08
-7.3471e-08
-7.53084e-08
-7.31099e-08
-7.31285e-08
-9.28355e-08
-9.30043e-08
-9.31856e-08
-9.54644e-08
-9.55267e-08
-9.56766e-08
-9.54287e-08
-9.31332e-08
-9.29346e-08
-9.31899e-08
-9.63594e-08
-9.92733e-08
-9.92921e-08
-9.92923e-08
-9.92751e-08
-9.56112e-08
-9.48081e-08
-9.54623e-08
-9.92733e-08
-9.93214e-08
-9.93242e-08
-9.93246e-08
-9.93227e-08
-9.92744e-08
-9.45236e-08
-9.25811e-08
-9.28287e-08
-9.55247e-08
-9.92906e-08
-9.93234e-08
-9.93239e-08
-9.93241e-08
-9.9324e-08
-9.9292e-08
-9.43637e-08
-9.28844e-08
-9.30027e-08
-9.56741e-08
-9.92903e-08
-9.93231e-08
-9.93233e-08
-9.93235e-08
-9.93235e-08
-9.92912e-08
-9.4385e-08
-9.47203e-08
-9.54247e-08
-9.92719e-08
-9.93203e-08
-9.93226e-08
-9.93228e-08
-9.93206e-08
-9.92727e-08
-9.44194e-08
-9.25328e-08
-9.31249e-08
-9.56037e-08
-9.92707e-08
-9.92896e-08
-9.92898e-08
-9.92718e-08
-9.4573e-08
-9.45878e-08
-9.26047e-08
-9.29199e-08
-9.48001e-08
-9.45183e-08
-9.43605e-08
-9.43833e-08
-9.44179e-08
-9.45866e-08
-9.26704e-08
-9.25752e-08
-9.28797e-08
-9.4716e-08
-9.25282e-08
-9.26022e-08
-1.12335e-07
-1.125e-07
-1.12693e-07
-1.14984e-07
-1.15048e-07
-1.15206e-07
-1.14951e-07
-1.12643e-07
-1.12441e-07
-1.12698e-07
-1.15885e-07
-1.188e-07
-1.18805e-07
-1.18805e-07
-1.188e-07
-1.15153e-07
-1.14329e-07
-1.14985e-07
-1.18799e-07
-1.18812e-07
-1.18812e-07
-1.18812e-07
-1.18811e-07
-1.18799e-07
-1.14027e-07
-1.12086e-07
-1.12328e-07
-1.15047e-07
-1.18805e-07
-1.18812e-07
-1.18812e-07
-1.18812e-07
-1.18812e-07
-1.18804e-07
-1.1385e-07
-1.12364e-07
-1.12498e-07
-1.15205e-07
-1.18804e-07
-1.18812e-07
-1.18812e-07
-1.18812e-07
-1.18812e-07
-1.18804e-07
-1.1386e-07
-1.14202e-07
-1.14949e-07
-1.18799e-07
-1.18811e-07
-1.18812e-07
-1.18812e-07
-1.18812e-07
-1.188e-07
-1.13918e-07
-1.12017e-07
-1.12639e-07
-1.15155e-07
-1.18798e-07
-1.18804e-07
-1.18804e-07
-1.188e-07
-1.14048e-07
-1.14083e-07
-1.12113e-07
-1.12433e-07
-1.14331e-07
-1.14026e-07
-1.1385e-07
-1.13861e-07
-1.13917e-07
-1.1409e-07
-1.12151e-07
-1.12083e-07
-1.12361e-07
-1.142e-07
-1.12016e-07
-1.12112e-07
-1.3184e-07
-1.32005e-07
-1.32201e-07
-1.34493e-07
-1.34559e-07
-1.34718e-07
-1.34463e-07
-1.32152e-07
-1.31942e-07
-1.32202e-07
-1.35395e-07
-1.3831e-07
-1.38311e-07
-1.38311e-07
-1.38311e-07
-1.34673e-07
-1.33848e-07
-1.34495e-07
-1.3831e-07
-1.38313e-07
-1.38313e-07
-1.38313e-07
-1.38313e-07
-1.3831e-07
-1.33537e-07
-1.31593e-07
-1.31835e-07
-1.34558e-07
-1.38311e-07
-1.38313e-07
-1.38312e-07
-1.38312e-07
-1.38313e-07
-1.38312e-07
-1.33353e-07
-1.31867e-07
-1.32005e-07
-1.34717e-07
-1.38311e-07
-1.38313e-07
-1.38312e-07
-1.38312e-07
-1.38313e-07
-1.38312e-07
-1.3336e-07
-1.33703e-07
-1.34463e-07
-1.38311e-07
-1.38312e-07
-1.38313e-07
-1.38313e-07
-1.38313e-07
-1.3831e-07
-1.33425e-07
-1.3152e-07
-1.32151e-07
-1.34673e-07
-1.3831e-07
-1.38311e-07
-1.38311e-07
-1.3831e-07
-1.33542e-07
-1.33585e-07
-1.3162e-07
-1.31936e-07
-1.33839e-07
-1.33534e-07
-1.33354e-07
-1.3336e-07
-1.33426e-07
-1.33593e-07
-1.31661e-07
-1.31593e-07
-1.31864e-07
-1.33703e-07
-1.31523e-07
-1.31622e-07
-1.51338e-07
-1.51502e-07
-1.51699e-07
-1.53991e-07
-1.54058e-07
-1.54217e-07
-1.53962e-07
-1.51651e-07
-1.51442e-07
-1.51701e-07
-1.54893e-07
-1.5781e-07
-1.57811e-07
-1.57811e-07
-1.57811e-07
-1.54174e-07
-1.53347e-07
-1.53994e-07
-1.57811e-07
-1.57812e-07
-1.57811e-07
-1.57811e-07
-1.57812e-07
-1.57811e-07
-1.53038e-07
-1.51093e-07
-1.51332e-07
-1.54059e-07
-1.57811e-07
-1.57812e-07
-1.57811e-07
-1.57811e-07
-1.57812e-07
-1.57811e-07
-1.5285e-07
-1.51365e-07
-1.51503e-07
-1.54218e-07
-1.57811e-07
-1.57811e-07
-1.57811e-07
-1.57811e-07
-1.57811e-07
-1.57811e-07
-1.52856e-07
-1.532e-07
-1.53964e-07
-1.57811e-07
-1.57812e-07
-1.57812e-07
-1.57811e-07
-1.57812e-07
-1.57811e-07
-1.52923e-07
-1.51018e-07
-1.51652e-07
-1.54174e-07
-1.57811e-07
-1.57812e-07
-1.57811e-07
-1.57811e-07
-1.53041e-07
-1.53084e-07
-1.51119e-07
-1.51437e-07
-1.53338e-07
-1.53035e-07
-1.5285e-07
-1.52858e-07
-1.52923e-07
-1.5309e-07
-1.51159e-07
-1.51091e-07
-1.51362e-07
-1.532e-07
-1.51019e-07
-1.5112e-07
-1.70838e-07
-1.71002e-07
-1.712e-07
-1.73493e-07
-1.73559e-07
-1.73719e-07
-1.73464e-07
-1.71151e-07
-1.70942e-07
-1.71201e-07
-1.74393e-07
-1.77313e-07
-1.77313e-07
-1.77313e-07
-1.77313e-07
-1.73676e-07
-1.72847e-07
-1.73496e-07
-1.77313e-07
-1.77313e-07
-1.77313e-07
-1.77313e-07
-1.77313e-07
-1.77313e-07
-1.72537e-07
-1.70593e-07
-1.70832e-07
-1.7356e-07
-1.77313e-07
-1.77313e-07
-1.77313e-07
-1.77313e-07
-1.77313e-07
-1.77313e-07
-1.72351e-07
-1.70864e-07
-1.71002e-07
-1.7372e-07
-1.77313e-07
-1.77313e-07
-1.77313e-07
-1.77313e-07
-1.77313e-07
-1.77313e-07
-1.72357e-07
-1.72701e-07
-1.73465e-07
-1.77313e-07
-1.77313e-07
-1.77313e-07
-1.77313e-07
-1.77313e-07
-1.77313e-07
-1.72423e-07
-1.70518e-07
-1.71152e-07
-1.73676e-07
-1.77313e-07
-1.77313e-07
-1.77312e-07
-1.77313e-07
-1.72539e-07
-1.72583e-07
-1.70619e-07
-1.70937e-07
-1.72839e-07
-1.72538e-07
-1.72352e-07
-1.72358e-07
-1.72425e-07
-1.72591e-07
-1.70659e-07
-1.70592e-07
-1.70863e-07
-1.727e-07
-1.70519e-07
-1.7062e-07
-1.90341e-07
-1.90505e-07
-1.90703e-07
-1.92996e-07
-1.93061e-07
-1.93221e-07
-1.92967e-07
-1.90654e-07
-1.90445e-07
-1.90704e-07
-1.93896e-07
-1.96815e-07
-1.96815e-07
-1.96815e-07
-1.96815e-07
-1.9318e-07
-1.9235e-07
-1.92999e-07
-1.96815e-07
-1.96816e-07
-1.96816e-07
-1.96816e-07
-1.96816e-07
-1.96815e-07
-1.9204e-07
-1.90096e-07
-1.90335e-07
-1.93063e-07
-1.96815e-07
-1.96816e-07
-1.96816e-07
-1.96816e-07
-1.96816e-07
-1.96815e-07
-1.91854e-07
-1.90367e-07
-1.90505e-07
-1.93223e-07
-1.96815e-07
-1.96816e-07
-1.96816e-07
-1.96816e-07
-1.96816e-07
-1.96815e-07
-1.9186e-07
-1.92203e-07
-1.92968e-07
-1.96815e-07
-1.96816e-07
-1.96816e-07
-1.96816e-07
-1.96816e-07
-1.96815e-07
-1.91926e-07
-1.90021e-07
-1.90655e-07
-1.93179e-07
-1.96815e-07
-1.96815e-07
-1.96815e-07
-1.96815e-07
-1.92042e-07
-1.92085e-07
-1.90123e-07
-1.9044e-07
-1.92342e-07
-1.92039e-07
-1.91854e-07
-1.91861e-07
-1.91928e-07
-1.92093e-07
-1.90162e-07
-1.90094e-07
-1.90365e-07
-1.92202e-07
-1.90022e-07
-1.90123e-07
-2.09842e-07
-2.10006e-07
-2.10204e-07
-2.12499e-07
-2.12564e-07
-2.12724e-07
-2.12469e-07
-2.10154e-07
-2.09946e-07
-2.10205e-07
-2.13398e-07
-2.1632e-07
-2.1632e-07
-2.1632e-07
-2.1632e-07
-2.12683e-07
-2.11852e-07
-2.12501e-07
-2.1632e-07
-2.1632e-07
-2.16321e-07
-2.16321e-07
-2.1632e-07
-2.1632e-07
-2.11542e-07
-2.09597e-07
-2.09836e-07
-2.12565e-07
-2.1632e-07
-2.16321e-07
-2.16321e-07
-2.16321e-07
-2.16321e-07
-2.1632e-07
-2.11357e-07
-2.09868e-07
-2.10006e-07
-2.12725e-07
-2.1632e-07
-2.16321e-07
-2.16321e-07
-2.16321e-07
-2.16321e-07
-2.1632e-07
-2.11363e-07
-2.11705e-07
-2.1247e-07
-2.1632e-07
-2.1632e-07
-2.16321e-07
-2.16321e-07
-2.1632e-07
-2.1632e-07
-2.11429e-07
-2.09522e-07
-2.10156e-07
-2.12682e-07
-2.1632e-07
-2.1632e-07
-2.1632e-07
-2.1632e-07
-2.11545e-07
-2.11588e-07
-2.09624e-07
-2.09941e-07
-2.11844e-07
-2.11542e-07
-2.11357e-07
-2.11364e-07
-2.1143e-07
-2.11595e-07
-2.09664e-07
-2.09596e-07
-2.09867e-07
-2.11704e-07
-2.09523e-07
-2.09624e-07
-2.29354e-07
-2.29519e-07
-2.2972e-07
-2.32012e-07
-2.32078e-07
-2.32238e-07
-2.31983e-07
-2.29666e-07
-2.29458e-07
-2.29716e-07
-2.32916e-07
-2.35835e-07
-2.35834e-07
-2.35834e-07
-2.35834e-07
-2.32196e-07
-2.31365e-07
-2.32014e-07
-2.35834e-07
-2.35834e-07
-2.35834e-07
-2.35834e-07
-2.35834e-07
-2.35834e-07
-2.31056e-07
-2.2911e-07
-2.29349e-07
-2.32079e-07
-2.35834e-07
-2.35834e-07
-2.35834e-07
-2.35834e-07
-2.35834e-07
-2.35834e-07
-2.3087e-07
-2.29381e-07
-2.29519e-07
-2.32239e-07
-2.35834e-07
-2.35834e-07
-2.35834e-07
-2.35834e-07
-2.35834e-07
-2.35834e-07
-2.30876e-07
-2.31219e-07
-2.31984e-07
-2.35834e-07
-2.35834e-07
-2.35834e-07
-2.35834e-07
-2.35834e-07
-2.35834e-07
-2.30942e-07
-2.29035e-07
-2.29669e-07
-2.32196e-07
-2.35834e-07
-2.35834e-07
-2.35834e-07
-2.35834e-07
-2.31059e-07
-2.31101e-07
-2.29136e-07
-2.29454e-07
-2.31358e-07
-2.31056e-07
-2.3087e-07
-2.30877e-07
-2.30943e-07
-2.31109e-07
-2.29177e-07
-2.29108e-07
-2.2938e-07
-2.31218e-07
-2.29036e-07
-2.29137e-07
-2.48873e-07
-2.49037e-07
-2.49241e-07
-2.51529e-07
-2.51594e-07
-2.51754e-07
-2.51498e-07
-2.49184e-07
-2.48977e-07
-2.49236e-07
-2.52429e-07
-2.55346e-07
-2.55345e-07
-2.55346e-07
-2.55345e-07
-2.51709e-07
-2.50882e-07
-2.5153e-07
-2.55345e-07
-2.55345e-07
-2.55345e-07
-2.55344e-07
-2.55345e-07
-2.55345e-07
-2.50571e-07
-2.48628e-07
-2.48867e-07
-2.51594e-07
-2.55345e-07
-2.55345e-07
-2.55344e-07
-2.55344e-07
-2.55345e-07
-2.55345e-07
-2.50385e-07
-2.48899e-07
-2.49038e-07
-2.51755e-07
-2.55345e-07
-2.55345e-07
-2.55344e-07
-2.55344e-07
-2.55344e-07
-2.55345e-07
-2.50391e-07
-2.50735e-07
-2.515e-07
-2.55345e-07
-2.55345e-07
-2.55344e-07
-2.55344e-07
-2.55345e-07
-2.55345e-07
-2.50457e-07
-2.48553e-07
-2.49187e-07
-2.5171e-07
-2.55345e-07
-2.55345e-07
-2.55345e-07
-2.55345e-07
-2.50572e-07
-2.50617e-07
-2.48654e-07
-2.48972e-07
-2.50874e-07
-2.50571e-07
-2.50385e-07
-2.50391e-07
-2.50458e-07
-2.50625e-07
-2.48694e-07
-2.48626e-07
-2.48897e-07
-2.50734e-07
-2.48554e-07
-2.48655e-07
-2.68371e-07
-2.68535e-07
-2.68739e-07
-2.71026e-07
-2.71091e-07
-2.71251e-07
-2.70995e-07
-2.68683e-07
-2.68476e-07
-2.68734e-07
-2.71926e-07
-2.74842e-07
-2.74842e-07
-2.74842e-07
-2.74842e-07
-2.71206e-07
-2.70379e-07
-2.71027e-07
-2.74842e-07
-2.74842e-07
-2.74842e-07
-2.74843e-07
-2.74843e-07
-2.74842e-07
-2.70068e-07
-2.68126e-07
-2.68366e-07
-2.71091e-07
-2.74842e-07
-2.74843e-07
-2.74843e-07
-2.74843e-07
-2.74843e-07
-2.74843e-07
-2.69882e-07
-2.68397e-07
-2.68536e-07
-2.71252e-07
-2.74843e-07
-2.74843e-07
-2.74843e-07
-2.74843e-07
-2.74843e-07
-2.74843e-07
-2.69889e-07
-2.70233e-07
-2.70997e-07
-2.74843e-07
-2.74843e-07
-2.74843e-07
-2.74843e-07
-2.74843e-07
-2.74843e-07
-2.69954e-07
-2.68051e-07
-2.68685e-07
-2.71208e-07
-2.74843e-07
-2.74843e-07
-2.74843e-07
-2.74842e-07
-2.7007e-07
-2.70114e-07
-2.68153e-07
-2.6847e-07
-2.70371e-07
-2.70068e-07
-2.69882e-07
-2.69889e-07
-2.69955e-07
-2.70122e-07
-2.68192e-07
-2.68124e-07
-2.68395e-07
-2.70231e-07
-2.68052e-07
-2.68153e-07
-2.87865e-07
-2.88029e-07
-2.8823e-07
-2.90521e-07
-2.90587e-07
-2.90747e-07
-2.9049e-07
-2.88178e-07
-2.87971e-07
-2.88226e-07
-2.91423e-07
-2.94342e-07
-2.94342e-07
-2.94342e-07
-2.94342e-07
-2.90703e-07
-2.89875e-07
-2.90523e-07
-2.94342e-07
-2.94342e-07
-2.94342e-07
-2.94342e-07
-2.94342e-07
-2.94342e-07
-2.89565e-07
-2.87621e-07
-2.87859e-07
-2.90588e-07
-2.94342e-07
-2.94342e-07
-2.94342e-07
-2.94343e-07
-2.94342e-07
-2.94342e-07
-2.8938e-07
-2.87892e-07
-2.8803e-07
-2.90748e-07
-2.94342e-07
-2.94342e-07
-2.94343e-07
-2.94343e-07
-2.94342e-07
-2.94342e-07
-2.89386e-07
-2.89728e-07
-2.90493e-07
-2.94342e-07
-2.94342e-07
-2.94342e-07
-2.94342e-07
-2.94342e-07
-2.94342e-07
-2.89451e-07
-2.87545e-07
-2.8818e-07
-2.90705e-07
-2.94342e-07
-2.94342e-07
-2.94342e-07
-2.94342e-07
-2.89567e-07
-2.89611e-07
-2.87647e-07
-2.87965e-07
-2.89867e-07
-2.89565e-07
-2.89379e-07
-2.89386e-07
-2.89452e-07
-2.89618e-07
-2.87687e-07
-2.87619e-07
-2.8789e-07
-2.89727e-07
-2.87546e-07
-2.87647e-07
-3.07373e-07
-3.07537e-07
-3.07739e-07
-3.10029e-07
-3.10095e-07
-3.10255e-07
-3.09998e-07
-3.07686e-07
-3.07478e-07
-3.07735e-07
-3.10932e-07
-3.13849e-07
-3.13849e-07
-3.13849e-07
-3.13849e-07
-3.10211e-07
-3.09383e-07
-3.10031e-07
-3.13849e-07
-3.13849e-07
-3.13849e-07
-3.13849e-07
-3.13849e-07
-3.13849e-07
-3.09073e-07
-3.07128e-07
-3.07367e-07
-3.10096e-07
-3.13849e-07
-3.13849e-07
-3.13849e-07
-3.13849e-07
-3.13849e-07
-3.13849e-07
-3.08887e-07
-3.07399e-07
-3.07538e-07
-3.10256e-07
-3.13849e-07
-3.13849e-07
-3.13849e-07
-3.13849e-07
-3.13849e-07
-3.13849e-07
-3.08893e-07
-3.09236e-07
-3.10001e-07
-3.13849e-07
-3.13849e-07
-3.13849e-07
-3.13849e-07
-3.13849e-07
-3.13849e-07
-3.08959e-07
-3.07053e-07
-3.07687e-07
-3.10213e-07
-3.13849e-07
-3.13849e-07
-3.13849e-07
-3.13849e-07
-3.09075e-07
-3.09118e-07
-3.07155e-07
-3.07472e-07
-3.09375e-07
-3.09072e-07
-3.08887e-07
-3.08895e-07
-3.0896e-07
-3.09126e-07
-3.07194e-07
-3.07127e-07
-3.07397e-07
-3.09237e-07
-3.07054e-07
-3.07155e-07
-3.26878e-07
-3.27042e-07
-3.27243e-07
-3.29534e-07
-3.296e-07
-3.2976e-07
-3.29503e-07
-3.27191e-07
-3.26984e-07
-3.2724e-07
-3.30438e-07
-3.33354e-07
-3.33354e-07
-3.33354e-07
-3.33354e-07
-3.29716e-07
-3.28888e-07
-3.29536e-07
-3.33354e-07
-3.33354e-07
-3.33354e-07
-3.33354e-07
-3.33355e-07
-3.33354e-07
-3.28578e-07
-3.26633e-07
-3.26872e-07
-3.29601e-07
-3.33354e-07
-3.33355e-07
-3.33355e-07
-3.33355e-07
-3.33355e-07
-3.33354e-07
-3.28392e-07
-3.26904e-07
-3.27043e-07
-3.29761e-07
-3.33354e-07
-3.33355e-07
-3.33355e-07
-3.33355e-07
-3.33355e-07
-3.33354e-07
-3.28398e-07
-3.28741e-07
-3.29506e-07
-3.33354e-07
-3.33354e-07
-3.33355e-07
-3.33355e-07
-3.33354e-07
-3.33354e-07
-3.28464e-07
-3.26558e-07
-3.27192e-07
-3.29718e-07
-3.33354e-07
-3.33354e-07
-3.33354e-07
-3.33354e-07
-3.2858e-07
-3.28623e-07
-3.2666e-07
-3.26977e-07
-3.2888e-07
-3.28577e-07
-3.28392e-07
-3.28398e-07
-3.28464e-07
-3.28631e-07
-3.26699e-07
-3.26632e-07
-3.26903e-07
-3.2874e-07
-3.26559e-07
-3.2666e-07
-3.46386e-07
-3.46551e-07
-3.46753e-07
-3.49043e-07
-3.49109e-07
-3.49268e-07
-3.49012e-07
-3.467e-07
-3.46492e-07
-3.46749e-07
-3.49946e-07
-3.52864e-07
-3.52864e-07
-3.52863e-07
-3.52864e-07
-3.49225e-07
-3.48397e-07
-3.49045e-07
-3.52863e-07
-3.52863e-07
-3.52863e-07
-3.52863e-07
-3.52863e-07
-3.52863e-07
-3.48087e-07
-3.46142e-07
-3.46381e-07
-3.4911e-07
-3.52864e-07
-3.52863e-07
-3.52863e-07
-3.52863e-07
-3.52863e-07
-3.52863e-07
-3.47901e-07
-3.46413e-07
-3.46551e-07
-3.4927e-07
-3.52863e-07
-3.52863e-07
-3.52863e-07
-3.52863e-07
-3.52863e-07
-3.52863e-07
-3.47907e-07
-3.4825e-07
-3.49015e-07
-3.52864e-07
-3.52863e-07
-3.52863e-07
-3.52863e-07
-3.52863e-07
-3.52863e-07
-3.47973e-07
-3.46066e-07
-3.46701e-07
-3.49227e-07
-3.52864e-07
-3.52864e-07
-3.52864e-07
-3.52864e-07
-3.48089e-07
-3.48132e-07
-3.46168e-07
-3.46485e-07
-3.48389e-07
-3.48086e-07
-3.47901e-07
-3.47907e-07
-3.47973e-07
-3.4814e-07
-3.46208e-07
-3.4614e-07
-3.46411e-07
-3.48249e-07
-3.46067e-07
-3.46168e-07
-3.65898e-07
-3.66062e-07
-3.66264e-07
-3.68553e-07
-3.68618e-07
-3.68778e-07
-3.68522e-07
-3.6621e-07
-3.66003e-07
-3.6626e-07
-3.69456e-07
-3.72371e-07
-3.72371e-07
-3.72371e-07
-3.72371e-07
-3.68733e-07
-3.67906e-07
-3.68555e-07
-3.72371e-07
-3.72371e-07
-3.72371e-07
-3.72371e-07
-3.72371e-07
-3.72371e-07
-3.67596e-07
-3.65652e-07
-3.65892e-07
-3.68619e-07
-3.72371e-07
-3.72371e-07
-3.72371e-07
-3.72371e-07
-3.72371e-07
-3.72371e-07
-3.6741e-07
-3.65923e-07
-3.66062e-07
-3.68779e-07
-3.72371e-07
-3.72371e-07
-3.72371e-07
-3.72371e-07
-3.72371e-07
-3.72371e-07
-3.67416e-07
-3.6776e-07
-3.68524e-07
-3.72371e-07
-3.72371e-07
-3.72371e-07
-3.72371e-07
-3.72371e-07
-3.72371e-07
-3.67482e-07
-3.65577e-07
-3.66211e-07
-3.68736e-07
-3.72371e-07
-3.72371e-07
-3.72371e-07
-3.72371e-07
-3.67598e-07
-3.67642e-07
-3.65679e-07
-3.65996e-07
-3.67899e-07
-3.67596e-07
-3.6741e-07
-3.67417e-07
-3.67483e-07
-3.67649e-07
-3.65718e-07
-3.65651e-07
-3.65921e-07
-3.67759e-07
-3.65579e-07
-3.65679e-07
-3.85398e-07
-3.85562e-07
-3.85764e-07
-3.88054e-07
-3.88119e-07
-3.88279e-07
-3.88023e-07
-3.85711e-07
-3.85503e-07
-3.8576e-07
-3.88957e-07
-3.91874e-07
-3.91874e-07
-3.91874e-07
-3.91874e-07
-3.88236e-07
-3.87407e-07
-3.88056e-07
-3.91874e-07
-3.91874e-07
-3.91874e-07
-3.91874e-07
-3.91874e-07
-3.91874e-07
-3.87097e-07
-3.85153e-07
-3.85392e-07
-3.8812e-07
-3.91874e-07
-3.91874e-07
-3.91874e-07
-3.91874e-07
-3.91874e-07
-3.91874e-07
-3.86912e-07
-3.85424e-07
-3.85562e-07
-3.88281e-07
-3.91874e-07
-3.91874e-07
-3.91874e-07
-3.91874e-07
-3.91874e-07
-3.91874e-07
-3.86918e-07
-3.87261e-07
-3.88025e-07
-3.91874e-07
-3.91874e-07
-3.91874e-07
-3.91874e-07
-3.91874e-07
-3.91874e-07
-3.86984e-07
-3.85078e-07
-3.85712e-07
-3.88237e-07
-3.91874e-07
-3.91874e-07
-3.91874e-07
-3.91874e-07
-3.871e-07
-3.87143e-07
-3.85179e-07
-3.85497e-07
-3.874e-07
-3.87097e-07
-3.86912e-07
-3.86918e-07
-3.86984e-07
-3.8715e-07
-3.85219e-07
-3.85152e-07
-3.85423e-07
-3.8726e-07
-3.85079e-07
-3.8518e-07
-4.04906e-07
-4.0507e-07
-4.05272e-07
-4.07563e-07
-4.07628e-07
-4.07787e-07
-4.07531e-07
-4.05219e-07
-4.0501e-07
-4.05268e-07
-4.08465e-07
-4.11382e-07
-4.11382e-07
-4.11382e-07
-4.11382e-07
-4.07744e-07
-4.06916e-07
-4.07564e-07
-4.11382e-07
-4.11382e-07
-4.11382e-07
-4.11382e-07
-4.11382e-07
-4.11382e-07
-4.06606e-07
-4.04661e-07
-4.049e-07
-4.07629e-07
-4.11382e-07
-4.11382e-07
-4.11381e-07
-4.11381e-07
-4.11382e-07
-4.11382e-07
-4.0642e-07
-4.04933e-07
-4.0507e-07
-4.07789e-07
-4.11382e-07
-4.11382e-07
-4.11381e-07
-4.11381e-07
-4.11382e-07
-4.11382e-07
-4.06426e-07
-4.06769e-07
-4.07534e-07
-4.11382e-07
-4.11382e-07
-4.11382e-07
-4.11382e-07
-4.11382e-07
-4.11382e-07
-4.06492e-07
-4.04586e-07
-4.0522e-07
-4.07746e-07
-4.11382e-07
-4.11382e-07
-4.11382e-07
-4.11382e-07
-4.06608e-07
-4.06651e-07
-4.04687e-07
-4.05005e-07
-4.06908e-07
-4.06605e-07
-4.0642e-07
-4.06426e-07
-4.06492e-07
-4.06659e-07
-4.04727e-07
-4.0466e-07
-4.04931e-07
-4.06769e-07
-4.04588e-07
-4.04687e-07
-4.24412e-07
-4.24577e-07
-4.24779e-07
-4.27068e-07
-4.27132e-07
-4.27292e-07
-4.27036e-07
-4.24724e-07
-4.24517e-07
-4.24775e-07
-4.2797e-07
-4.30884e-07
-4.30884e-07
-4.30884e-07
-4.30885e-07
-4.27248e-07
-4.26421e-07
-4.27069e-07
-4.30884e-07
-4.30884e-07
-4.30884e-07
-4.30884e-07
-4.30884e-07
-4.30885e-07
-4.2611e-07
-4.24168e-07
-4.24407e-07
-4.27133e-07
-4.30884e-07
-4.30884e-07
-4.30884e-07
-4.30884e-07
-4.30884e-07
-4.30884e-07
-4.25924e-07
-4.24439e-07
-4.24577e-07
-4.27294e-07
-4.30884e-07
-4.30884e-07
-4.30884e-07
-4.30884e-07
-4.30884e-07
-4.30884e-07
-4.2593e-07
-4.26274e-07
-4.27039e-07
-4.30885e-07
-4.30884e-07
-4.30884e-07
-4.30884e-07
-4.30884e-07
-4.30885e-07
-4.25996e-07
-4.24092e-07
-4.24726e-07
-4.2725e-07
-4.30885e-07
-4.30884e-07
-4.30884e-07
-4.30885e-07
-4.26112e-07
-4.26156e-07
-4.24194e-07
-4.24511e-07
-4.26413e-07
-4.2611e-07
-4.25924e-07
-4.25931e-07
-4.25997e-07
-4.26164e-07
-4.24233e-07
-4.24166e-07
-4.24437e-07
-4.26274e-07
-4.24094e-07
-4.24194e-07
-4.43908e-07
-4.44072e-07
-4.44275e-07
-4.46564e-07
-4.4663e-07
-4.46789e-07
-4.46533e-07
-4.4422e-07
-4.44013e-07
-4.44271e-07
-4.47468e-07
-4.50384e-07
-4.50385e-07
-4.50385e-07
-4.50385e-07
-4.46747e-07
-4.45918e-07
-4.46566e-07
-4.50384e-07
-4.50385e-07
-4.50385e-07
-4.50385e-07
-4.50385e-07
-4.50385e-07
-4.45608e-07
-4.43663e-07
-4.43903e-07
-4.46631e-07
-4.50385e-07
-4.50385e-07
-4.50385e-07
-4.50385e-07
-4.50385e-07
-4.50385e-07
-4.45422e-07
-4.43935e-07
-4.44073e-07
-4.46791e-07
-4.50385e-07
-4.50385e-07
-4.50385e-07
-4.50385e-07
-4.50385e-07
-4.50385e-07
-4.45428e-07
-4.45771e-07
-4.46536e-07
-4.50385e-07
-4.50385e-07
-4.50385e-07
-4.50385e-07
-4.50385e-07
-4.50384e-07
-4.45494e-07
-4.43588e-07
-4.44222e-07
-4.46748e-07
-4.50385e-07
-4.50385e-07
-4.50385e-07
-4.50384e-07
-4.45611e-07
-4.45653e-07
-4.4369e-07
-4.44007e-07
-4.4591e-07
-4.45608e-07
-4.45422e-07
-4.45429e-07
-4.45495e-07
-4.45661e-07
-4.43729e-07
-4.43662e-07
-4.43933e-07
-4.4577e-07
-4.4359e-07
-4.4369e-07
-4.63416e-07
-4.6358e-07
-4.63782e-07
-4.66073e-07
-4.66138e-07
-4.66298e-07
-4.66042e-07
-4.63727e-07
-4.6352e-07
-4.63778e-07
-4.66976e-07
-4.69894e-07
-4.69894e-07
-4.69894e-07
-4.69894e-07
-4.66255e-07
-4.65426e-07
-4.66075e-07
-4.69894e-07
-4.69894e-07
-4.69894e-07
-4.69894e-07
-4.69894e-07
-4.69894e-07
-4.65116e-07
-4.63171e-07
-4.6341e-07
-4.66139e-07
-4.69894e-07
-4.69894e-07
-4.69894e-07
-4.69894e-07
-4.69894e-07
-4.69894e-07
-4.64931e-07
-4.63443e-07
-4.6358e-07
-4.663e-07
-4.69894e-07
-4.69894e-07
-4.69894e-07
-4.69894e-07
-4.69894e-07
-4.69894e-07
-4.64937e-07
-4.65279e-07
-4.66044e-07
-4.69894e-07
-4.69894e-07
-4.69894e-07
-4.69894e-07
-4.69894e-07
-4.69894e-07
-4.65003e-07
-4.63096e-07
-4.6373e-07
-4.66256e-07
-4.69894e-07
-4.69894e-07
-4.69894e-07
-4.69894e-07
-4.65119e-07
-4.65162e-07
-4.63197e-07
-4.63515e-07
-4.65418e-07
-4.65116e-07
-4.64931e-07
-4.64937e-07
-4.65003e-07
-4.65169e-07
-4.63237e-07
-4.63169e-07
-4.63441e-07
-4.65279e-07
-4.63097e-07
-4.63197e-07
-4.82928e-07
-4.83092e-07
-4.83294e-07
-4.85584e-07
-4.85649e-07
-4.85809e-07
-4.85553e-07
-4.83238e-07
-4.83032e-07
-4.8329e-07
-4.86487e-07
-4.89404e-07
-4.89404e-07
-4.89404e-07
-4.89404e-07
-4.85766e-07
-4.84938e-07
-4.85586e-07
-4.89404e-07
-4.89404e-07
-4.89404e-07
-4.89404e-07
-4.89404e-07
-4.89404e-07
-4.84627e-07
-4.82683e-07
-4.82922e-07
-4.8565e-07
-4.89404e-07
-4.89404e-07
-4.89404e-07
-4.89404e-07
-4.89404e-07
-4.89404e-07
-4.84441e-07
-4.82954e-07
-4.83092e-07
-4.85811e-07
-4.89404e-07
-4.89404e-07
-4.89404e-07
-4.89404e-07
-4.89404e-07
-4.89404e-07
-4.84448e-07
-4.84791e-07
-4.85556e-07
-4.89404e-07
-4.89404e-07
-4.89404e-07
-4.89404e-07
-4.89404e-07
-4.89404e-07
-4.84513e-07
-4.82608e-07
-4.83242e-07
-4.85767e-07
-4.89404e-07
-4.89404e-07
-4.89404e-07
-4.89404e-07
-4.8463e-07
-4.84673e-07
-4.82709e-07
-4.83027e-07
-4.8493e-07
-4.84627e-07
-4.84442e-07
-4.84448e-07
-4.84514e-07
-4.84681e-07
-4.82749e-07
-4.82681e-07
-4.82953e-07
-4.8479e-07
-4.82609e-07
-4.82709e-07
-5.02436e-07
-5.02601e-07
-5.02802e-07
-5.05092e-07
-5.05159e-07
-5.05317e-07
-5.05061e-07
-5.02747e-07
-5.02541e-07
-5.02798e-07
-5.05996e-07
-5.08912e-07
-5.08912e-07
-5.08912e-07
-5.08912e-07
-5.05274e-07
-5.04446e-07
-5.05094e-07
-5.08911e-07
-5.08912e-07
-5.08911e-07
-5.08911e-07
-5.08911e-07
-5.08912e-07
-5.04136e-07
-5.02191e-07
-5.02431e-07
-5.05158e-07
-5.08911e-07
-5.08911e-07
-5.08911e-07
-5.08911e-07
-5.08911e-07
-5.08912e-07
-5.0395e-07
-5.02463e-07
-5.02601e-07
-5.05319e-07
-5.08911e-07
-5.08911e-07
-5.08911e-07
-5.08911e-07
-5.08911e-07
-5.08912e-07
-5.03956e-07
-5.04299e-07
-5.05064e-07
-5.08912e-07
-5.08911e-07
-5.08911e-07
-5.08911e-07
-5.08911e-07
-5.08912e-07
-5.04022e-07
-5.02116e-07
-5.0275e-07
-5.05275e-07
-5.08912e-07
-5.08912e-07
-5.08912e-07
-5.08912e-07
-5.04138e-07
-5.04181e-07
-5.02218e-07
-5.02535e-07
-5.04438e-07
-5.04135e-07
-5.0395e-07
-5.03956e-07
-5.04022e-07
-5.04189e-07
-5.02257e-07
-5.0219e-07
-5.02461e-07
-5.04298e-07
-5.02118e-07
-5.02218e-07
-5.21943e-07
-5.22107e-07
-5.22308e-07
-5.24598e-07
-5.24664e-07
-5.24823e-07
-5.24567e-07
-5.22253e-07
-5.22047e-07
-5.22305e-07
-5.25501e-07
-5.28416e-07
-5.28416e-07
-5.28416e-07
-5.28416e-07
-5.2478e-07
-5.23952e-07
-5.246e-07
-5.28416e-07
-5.28416e-07
-5.28416e-07
-5.28416e-07
-5.28416e-07
-5.28416e-07
-5.23641e-07
-5.21698e-07
-5.21937e-07
-5.24664e-07
-5.28416e-07
-5.28416e-07
-5.28416e-07
-5.28416e-07
-5.28416e-07
-5.28416e-07
-5.23455e-07
-5.21969e-07
-5.22107e-07
-5.24825e-07
-5.28416e-07
-5.28416e-07
-5.28416e-07
-5.28416e-07
-5.28416e-07
-5.28416e-07
-5.23461e-07
-5.23805e-07
-5.24569e-07
-5.28416e-07
-5.28416e-07
-5.28416e-07
-5.28416e-07
-5.28416e-07
-5.28416e-07
-5.23527e-07
-5.21622e-07
-5.22256e-07
-5.24781e-07
-5.28416e-07
-5.28416e-07
-5.28416e-07
-5.28416e-07
-5.23643e-07
-5.23687e-07
-5.21724e-07
-5.22041e-07
-5.23944e-07
-5.23641e-07
-5.23455e-07
-5.23461e-07
-5.23528e-07
-5.23694e-07
-5.21763e-07
-5.21696e-07
-5.21967e-07
-5.23804e-07
-5.21624e-07
-5.21724e-07
-5.41443e-07
-5.41607e-07
-5.41809e-07
-5.44098e-07
-5.44165e-07
-5.44323e-07
-5.44067e-07
-5.41754e-07
-5.41548e-07
-5.41805e-07
-5.45001e-07
-5.47916e-07
-5.47916e-07
-5.47916e-07
-5.47916e-07
-5.4428e-07
-5.43452e-07
-5.441e-07
-5.47916e-07
-5.47916e-07
-5.47916e-07
-5.47917e-07
-5.47916e-07
-5.47916e-07
-5.43141e-07
-5.41198e-07
-5.41438e-07
-5.44164e-07
-5.47916e-07
-5.47917e-07
-5.47917e-07
-5.47917e-07
-5.47917e-07
-5.47917e-07
-5.42955e-07
-5.4147e-07
-5.41607e-07
-5.44325e-07
-5.47916e-07
-5.47917e-07
-5.47917e-07
-5.47917e-07
-5.47917e-07
-5.47917e-07
-5.42961e-07
-5.43305e-07
-5.4407e-07
-5.47916e-07
-5.47917e-07
-5.47917e-07
-5.47917e-07
-5.47917e-07
-5.47916e-07
-5.43027e-07
-5.41123e-07
-5.41757e-07
-5.44281e-07
-5.47916e-07
-5.47917e-07
-5.47917e-07
-5.47917e-07
-5.43143e-07
-5.43187e-07
-5.41225e-07
-5.41542e-07
-5.43444e-07
-5.43141e-07
-5.42956e-07
-5.42962e-07
-5.43028e-07
-5.43195e-07
-5.41264e-07
-5.41197e-07
-5.41468e-07
-5.43305e-07
-5.41125e-07
-5.41225e-07
-5.6094e-07
-5.61104e-07
-5.61306e-07
-5.63597e-07
-5.63664e-07
-5.63823e-07
-5.63566e-07
-5.61251e-07
-5.61045e-07
-5.61303e-07
-5.64501e-07
-5.67419e-07
-5.67419e-07
-5.6742e-07
-5.67419e-07
-5.6378e-07
-5.62951e-07
-5.63599e-07
-5.67419e-07
-5.67419e-07
-5.6742e-07
-5.6742e-07
-5.6742e-07
-5.67419e-07
-5.62641e-07
-5.60696e-07
-5.60934e-07
-5.63664e-07
-5.67419e-07
-5.6742e-07
-5.6742e-07
-5.6742e-07
-5.6742e-07
-5.67419e-07
-5.62455e-07
-5.60967e-07
-5.61105e-07
-5.63824e-07
-5.67419e-07
-5.6742e-07
-5.6742e-07
-5.6742e-07
-5.6742e-07
-5.67419e-07
-5.62462e-07
-5.62803e-07
-5.63569e-07
-5.67419e-07
-5.6742e-07
-5.6742e-07
-5.6742e-07
-5.6742e-07
-5.67419e-07
-5.62527e-07
-5.6062e-07
-5.61255e-07
-5.63781e-07
-5.67419e-07
-5.67419e-07
-5.67419e-07
-5.67419e-07
-5.62644e-07
-5.62686e-07
-5.60722e-07
-5.61039e-07
-5.62943e-07
-5.62641e-07
-5.62456e-07
-5.62462e-07
-5.62528e-07
-5.62694e-07
-5.60762e-07
-5.60694e-07
-5.60965e-07
-5.62803e-07
-5.60622e-07
-5.60722e-07
-5.80457e-07
-5.80621e-07
-5.80822e-07
-5.83114e-07
-5.8318e-07
-5.83339e-07
-5.83083e-07
-5.80767e-07
-5.80561e-07
-5.80819e-07
-5.84017e-07
-5.86934e-07
-5.86934e-07
-5.86934e-07
-5.86934e-07
-5.83296e-07
-5.82467e-07
-5.83116e-07
-5.86934e-07
-5.86934e-07
-5.86934e-07
-5.86933e-07
-5.86934e-07
-5.86934e-07
-5.82157e-07
-5.80211e-07
-5.80451e-07
-5.8318e-07
-5.86934e-07
-5.86934e-07