/*--------------------------------*- C++ -*----------------------------------*\
| =========                 |                                                 |
| \\      /  F ield         | OpenFOAM: The Open Source CFD Toolbox           |
|  \\    /   O peration     | Version:  v1912                                 |
|   \\  /    A nd           | Website:  www.openfoam.com                      |
|    \\/     M anipulation  |                                                 |
\*---------------------------------------------------------------------------*/
FoamFile
{
    version     2.0;
    format      ascii;
    class       volScalarField;
    location    "1.35";
    object      nut;
}
// * * * * * * * * * * * * * * * * * * * * * * * * * * * * * * * * * * * * * //

dimensions      [0 2 -1 0 0 0 0];


internalField   nonuniform List<scalar> 
171728
(
1.01044e-06
1.03092e-06
1.03142e-06
4.20968e-07
6.74441e-08
7.78239e-08
7.80046e-08
9.55137e-08
5.33653e-09
6.56097e-09
6.558e-09
9.329e-08
1.55661e-09
3.77615e-09
3.74884e-09
9.34225e-08
1.63166e-09
3.5602e-09
3.56449e-09
9.34267e-08
1.63264e-09
3.55287e-09
3.55846e-09
9.34272e-08
1.62326e-09
3.55941e-09
3.55246e-09
9.34274e-08
1.63603e-09
3.56359e-09
3.56026e-09
9.34263e-08
1.63833e-09
3.56049e-09
3.55296e-09
9.34292e-08
1.63584e-09
3.56008e-09
3.55505e-09
9.34277e-08
1.63431e-09
3.55994e-09
3.55884e-09
9.34286e-08
1.64179e-09
3.55643e-09
3.55727e-09
9.34283e-08
1.64552e-09
3.58684e-09
3.55944e-09
9.34281e-08
1.64996e-09
3.58514e-09
3.55519e-09
9.34279e-08
1.62948e-09
3.54999e-09
3.5602e-09
9.3428e-08
1.63166e-09
3.54883e-09
3.55499e-09
9.34289e-08
1.64084e-09
3.56182e-09
3.55781e-09
9.343e-08
1.63438e-09
3.55193e-09
3.55714e-09
9.34286e-08
1.63597e-09
3.5423e-09
3.55802e-09
9.34275e-08
1.62437e-09
3.57593e-09
3.55301e-09
9.34206e-08
1.7339e-09
3.55738e-09
3.55762e-09
9.34308e-08
1.63376e-09
3.56245e-09
3.55738e-09
9.34305e-08
1.63795e-09
3.56061e-09
3.55781e-09
9.3431e-08
1.63698e-09
3.56125e-09
3.55891e-09
9.34309e-08
1.6389e-09
3.55926e-09
3.55723e-09
9.34314e-08
1.63691e-09
3.56029e-09
3.55751e-09
9.34307e-08
1.63848e-09
3.562e-09
3.55941e-09
9.34312e-08
1.638e-09
3.56035e-09
3.55775e-09
9.34313e-08
1.63736e-09
3.55948e-09
3.55689e-09
9.34306e-08
1.63837e-09
3.56174e-09
3.5593e-09
9.34302e-08
1.6377e-09
3.56055e-09
3.55769e-09
9.34309e-08
1.63816e-09
3.55888e-09
3.55799e-09
9.34312e-08
1.63835e-09
3.56177e-09
3.5578e-09
9.3431e-08
1.6371e-09
3.56232e-09
3.55886e-09
9.34306e-08
1.6383e-09
3.562e-09
3.55852e-09
9.34313e-08
1.63794e-09
3.55995e-09
3.55725e-09
9.34307e-08
1.63873e-09
3.56204e-09
3.55936e-09
9.34308e-08
1.63854e-09
3.56151e-09
3.55883e-09
9.34315e-08
1.63795e-09
3.56254e-09
3.56542e-09
9.34316e-08
1.65564e-09
3.56869e-09
3.56397e-09
9.34163e-08
1.80015e-09
3.54462e-09
3.55941e-09
9.34297e-08
1.63715e-09
3.55161e-09
3.5534e-09
9.34311e-08
1.63939e-09
3.56018e-09
3.55225e-09
9.34319e-08
1.64026e-09
3.55788e-09
3.55228e-09
9.34315e-08
1.64274e-09
3.55899e-09
3.55705e-09
9.34315e-08
1.64117e-09
3.55721e-09
3.55267e-09
9.3432e-08
1.63998e-09
3.55671e-09
3.55611e-09
9.34331e-08
1.6409e-09
3.55817e-09
3.56044e-09
9.34322e-08
1.64123e-09
3.55938e-09
3.56186e-09
9.34317e-08
1.64106e-09
3.55763e-09
3.56013e-09
9.34322e-08
1.64003e-09
3.55686e-09
3.55976e-09
9.34318e-08
1.64166e-09
3.55786e-09
3.55926e-09
9.34316e-08
1.64236e-09
3.55918e-09
3.56064e-09
9.3432e-08
1.64291e-09
3.56632e-09
3.5595e-09
9.3432e-08
1.64417e-09
3.56044e-09
3.5607e-09
9.34311e-08
1.6395e-09
3.55697e-09
3.55975e-09
9.34272e-08
1.63781e-09
3.56266e-09
3.56046e-09
9.3418e-08
1.63761e-09
3.56115e-09
3.55833e-09
9.34182e-08
1.63818e-09
3.56311e-09
3.56045e-09
9.34175e-08
1.6388e-09
3.56212e-09
3.55856e-09
9.34176e-08
1.63869e-09
3.5632e-09
3.56087e-09
9.34173e-08
1.6374e-09
3.56149e-09
3.55854e-09
9.3418e-08
1.63726e-09
3.56327e-09
3.56038e-09
9.34168e-08
1.63875e-09
3.56293e-09
3.56035e-09
9.34171e-08
1.63813e-09
3.56317e-09
3.5604e-09
9.34177e-08
1.63756e-09
3.56274e-09
3.55992e-09
9.34171e-08
1.63764e-09
3.56121e-09
3.55842e-09
9.3417e-08
1.6373e-09
3.56198e-09
3.55965e-09
9.34175e-08
1.63311e-09
3.56079e-09
3.55928e-09
9.34179e-08
1.62986e-09
3.56237e-09
3.54174e-09
9.34193e-08
1.63439e-09
3.5648e-09
3.55698e-09
9.34151e-08
1.63861e-09
3.56286e-09
3.56028e-09
9.34172e-08
1.63724e-09
3.5617e-09
3.55843e-09
9.34174e-08
1.63698e-09
3.56231e-09
3.55885e-09
9.3416e-08
1.63899e-09
3.56262e-09
3.55903e-09
9.34158e-08
1.63696e-09
3.5623e-09
3.55883e-09
9.34161e-08
1.63751e-09
3.56222e-09
3.55857e-09
9.34162e-08
1.63838e-09
3.56245e-09
3.55904e-09
9.3416e-08
1.63824e-09
3.56167e-09
3.55878e-09
9.34157e-08
1.63785e-09
3.56346e-09
3.56063e-09
9.34166e-08
1.63732e-09
3.56182e-09
3.55905e-09
9.34157e-08
1.6379e-09
3.56284e-09
3.55996e-09
9.34161e-08
1.6383e-09
3.56271e-09
3.55986e-09
9.34162e-08
1.64004e-09
3.56236e-09
3.55958e-09
9.34161e-08
1.6401e-09
3.56295e-09
3.56012e-09
9.34161e-08
1.64042e-09
3.56248e-09
3.56013e-09
9.34152e-08
1.6401e-09
3.5634e-09
3.56088e-09
9.3416e-08
1.6387e-09
3.56118e-09
3.55884e-09
9.34155e-08
1.6397e-09
3.5617e-09
3.55863e-09
9.34156e-08
1.64088e-09
3.56263e-09
3.55949e-09
9.34159e-08
1.64326e-09
3.56097e-09
3.55598e-09
9.34186e-08
1.71111e-09
3.58294e-09
3.5886e-09
9.3417e-08
4.03377e-09
4.55704e-09
4.61349e-09
9.33351e-08
4.8896e-08
4.37452e-08
4.36823e-08
9.24194e-08
4.27906e-07
2.24525e-07
2.24555e-07
4.64158e-07
3.52131e-07
6.46237e-07
6.46557e-07
3.52221e-07
6.46313e-07
6.46378e-07
1.83149e-06
1.83156e-06
1.83148e-06
1.83153e-06
6.46137e-07
6.4613e-07
3.51952e-07
6.45996e-07
6.46326e-07
3.51898e-07
4.21032e-07
2.44488e-07
1.03147e-06
1.03155e-06
1.7103e-07
1.71017e-07
4.20984e-07
2.44396e-07
1.03135e-06
1.03204e-06
1.71204e-07
1.71088e-07
1.03177e-06
1.7106e-07
1.70944e-07
4.20952e-07
2.44492e-07
1.03158e-06
1.711e-07
1.71079e-07
2.44495e-07
9.55681e-08
2.38158e-07
7.79028e-08
7.79247e-08
1.01137e-08
1.01986e-08
9.55472e-08
2.38229e-07
7.7929e-08
7.7901e-08
1.00694e-08
1.01229e-08
7.78889e-08
1.001e-08
1.01031e-08
9.55841e-08
2.38181e-07
7.80419e-08
1.00888e-08
1.00374e-08
2.38178e-07
9.32067e-08
2.37721e-07
6.60341e-09
6.5899e-09
3.98237e-09
3.97608e-09
9.32122e-08
2.3773e-07
6.61804e-09
6.59919e-09
3.95343e-09
3.98585e-09
6.61199e-09
3.95767e-09
3.99933e-09
9.3264e-08
2.37746e-07
6.62164e-09
3.92481e-09
3.91459e-09
2.37707e-07
9.34035e-08
2.37697e-07
3.78883e-09
3.82633e-09
3.61324e-09
3.61623e-09
9.33803e-08
2.37695e-07
3.73603e-09
3.79205e-09
3.56916e-09
3.61993e-09
3.80797e-09
3.56659e-09
3.60734e-09
9.34239e-08
2.3772e-07
3.75594e-09
3.55377e-09
3.55876e-09
2.37669e-07
9.34057e-08
2.37694e-07
3.61107e-09
3.61287e-09
3.60429e-09
3.61536e-09
9.33876e-08
2.37687e-07
3.55255e-09
3.61381e-09
3.57378e-09
3.60763e-09
3.59901e-09
3.55229e-09
3.59425e-09
9.34214e-08
2.37715e-07
3.55229e-09
3.54191e-09
3.5458e-09
2.37665e-07
9.34059e-08
2.37698e-07
3.60853e-09
3.62377e-09
3.58769e-09
3.64104e-09
9.33913e-08
2.37697e-07
3.54025e-09
3.60738e-09
3.56578e-09
3.60235e-09
3.59341e-09
3.56375e-09
3.58787e-09
9.34222e-08
2.37723e-07
3.54656e-09
3.53591e-09
3.54009e-09
2.37672e-07
9.34097e-08
2.37701e-07
3.56142e-09
3.63187e-09
3.62347e-09
3.62089e-09
9.33843e-08
2.37697e-07
3.53057e-09
3.60255e-09
3.57038e-09
3.60461e-09
3.58695e-09
3.56251e-09
3.59072e-09
9.3422e-08
2.37721e-07
3.541e-09
3.53914e-09
3.5435e-09
2.37669e-07
9.34102e-08
2.377e-07
3.60968e-09
3.62475e-09
3.60646e-09
3.62321e-09
9.33806e-08
2.37693e-07
3.54606e-09
3.60815e-09
3.57628e-09
3.60689e-09
3.59303e-09
3.56368e-09
3.59313e-09
9.34209e-08
2.37717e-07
3.5481e-09
3.54187e-09
3.5461e-09
2.37664e-07
9.33895e-08
2.37702e-07
3.60563e-09
3.62175e-09
3.57883e-09
3.60365e-09
9.33832e-08
2.37712e-07
3.54231e-09
3.60689e-09
3.557e-09
3.60278e-09
3.5911e-09
3.55663e-09
3.58739e-09
9.34234e-08
2.37727e-07
3.54367e-09
3.53544e-09
3.54024e-09
2.37675e-07
9.33983e-08
2.37686e-07
3.58977e-09
3.57078e-09
3.61738e-09
3.5561e-09
9.33757e-08
2.37695e-07
3.54733e-09
3.60531e-09
3.55379e-09
3.60739e-09
3.58826e-09
3.56093e-09
3.59235e-09
9.34221e-08
2.3772e-07
3.54332e-09
3.54098e-09
3.54569e-09
2.37667e-07
9.34109e-08
2.37697e-07
3.65495e-09
3.58025e-09
3.60539e-09
3.56096e-09
9.33821e-08
2.37696e-07
3.55523e-09
3.60767e-09
3.5618e-09
3.60507e-09
3.591e-09
3.55946e-09
3.58931e-09
9.34224e-08
2.37722e-07
3.5463e-09
3.53883e-09
3.54188e-09
2.37672e-07
9.3398e-08
2.37691e-07
3.60547e-09
3.55083e-09
3.60383e-09
3.55128e-09
9.33827e-08
2.37723e-07
3.55629e-09
3.6058e-09
3.55634e-09
3.60488e-09
3.58983e-09
3.57392e-09
3.59591e-09
9.34231e-08
2.3772e-07
3.54321e-09
3.54109e-09
3.54268e-09
2.3767e-07
9.34002e-08
2.37694e-07
3.60694e-09
3.56613e-09
3.59279e-09
3.62466e-09
9.33774e-08
2.37722e-07
3.55198e-09
3.60628e-09
3.54502e-09
3.60147e-09
3.5967e-09
3.57789e-09
3.5926e-09
9.34237e-08
2.37724e-07
3.54556e-09
3.53732e-09
3.54101e-09
2.37676e-07
9.33983e-08
2.37686e-07
3.5957e-09
3.63311e-09
3.61965e-09
3.61607e-09
9.33836e-08
2.37703e-07
3.54229e-09
3.60267e-09
3.54055e-09
3.60692e-09
3.59163e-09
3.5572e-09
3.59464e-09
9.34235e-08
2.37721e-07
3.54332e-09
3.54132e-09
3.54679e-09
2.37668e-07
9.34026e-08
2.37694e-07
3.62014e-09
3.60581e-09
3.60752e-09
3.66885e-09
9.33936e-08
2.37689e-07
3.56029e-09
3.60894e-09
3.56138e-09
3.60268e-09
3.59528e-09
3.55603e-09
3.58859e-09
9.34231e-08
2.37726e-07
3.54905e-09
3.537e-09
3.54091e-09
2.37676e-07
9.33998e-08
2.37686e-07
3.60737e-09
3.63711e-09
3.61431e-09
3.62263e-09
9.34106e-08
2.37673e-07
3.55805e-09
3.60381e-09
3.56174e-09
3.60616e-09
3.58756e-09
3.55824e-09
3.59337e-09
9.34235e-08
2.37722e-07
3.54209e-09
3.54003e-09
3.54552e-09
2.37669e-07
9.34017e-08
2.37691e-07
3.59776e-09
3.62092e-09
3.61409e-09
3.60782e-09
9.34041e-08
2.37719e-07
3.55995e-09
3.60691e-09
3.56053e-09
3.60382e-09
3.59222e-09
3.55959e-09
3.59095e-09
9.34242e-08
2.37727e-07
3.54633e-09
3.53761e-09
3.54277e-09
2.37674e-07
9.33983e-08
2.37706e-07
3.59179e-09
3.59817e-09
3.5853e-09
3.59201e-09
9.34146e-08
2.37719e-07
3.55809e-09
3.60719e-09
3.55403e-09
3.60705e-09
3.59266e-09
3.53621e-09
3.5905e-09
9.3423e-08
2.37725e-07
3.54594e-09
3.53954e-09
3.53987e-09
2.37676e-07
9.34016e-08
2.37679e-07
3.58551e-09
3.62083e-09
3.64647e-09
3.70312e-09
9.34462e-08
2.37758e-07
3.54931e-09
3.60794e-09
3.57133e-09
3.60199e-09
3.58903e-09
3.58292e-09
3.60217e-09
9.34239e-08
2.37725e-07
3.53753e-09
3.53712e-09
3.53621e-09
2.37689e-07
9.34399e-08
2.37749e-07
3.6137e-09
3.63998e-09
3.59222e-09
3.67126e-09
9.33858e-08
2.37718e-07
3.57369e-09
3.60209e-09
3.40671e-09
3.60702e-09
3.61598e-09
3.54692e-09
3.59333e-09
9.34259e-08
2.37729e-07
3.55485e-09
3.53587e-09
3.54371e-09
2.37678e-07
9.3394e-08
2.37714e-07
3.65206e-09
3.66049e-09
3.62448e-09
3.61721e-09
9.33957e-08
2.37708e-07
3.48622e-09
3.6046e-09
3.57337e-09
3.60395e-09
3.59149e-09
3.5673e-09
3.59027e-09
9.34247e-08
2.37728e-07
3.54391e-09
3.53905e-09
3.54406e-09
2.37677e-07
9.34218e-08
2.37712e-07
3.61739e-09
3.62255e-09
3.60561e-09
3.62319e-09
9.33997e-08
2.37708e-07
3.55857e-09
3.60523e-09
3.5635e-09
3.6055e-09
3.59045e-09
3.56242e-09
3.59133e-09
9.34253e-08
2.37728e-07
3.54548e-09
3.53968e-09
3.54431e-09
2.37675e-07
9.34213e-08
2.3771e-07
3.61111e-09
3.62561e-09
3.60383e-09
3.62344e-09
9.33996e-08
2.37707e-07
3.55711e-09
3.60604e-09
3.56209e-09
3.60565e-09
3.59152e-09
3.56307e-09
3.59101e-09
9.34253e-08
2.37727e-07
3.54636e-09
3.5406e-09
3.55294e-09
2.37675e-07
9.34217e-08
2.37711e-07
3.60987e-09
3.62562e-09
3.60189e-09
3.62185e-09
9.33998e-08
2.37708e-07
3.55584e-09
3.60599e-09
3.56017e-09
3.60399e-09
3.59172e-09
3.56106e-09
3.58998e-09
9.34255e-08
2.37728e-07
3.55448e-09
3.53886e-09
3.54812e-09
2.37676e-07
9.34208e-08
2.37714e-07
3.61068e-09
3.62507e-09
3.60148e-09
3.622e-09
9.33997e-08
2.37709e-07
3.55666e-09
3.60542e-09
3.55975e-09
3.60436e-09
3.58904e-09
3.56245e-09
3.59163e-09
9.34254e-08
2.37728e-07
3.54998e-09
3.53928e-09
3.54734e-09
2.37675e-07
9.34212e-08
2.37709e-07
3.60811e-09
3.62397e-09
3.60519e-09
3.62462e-09
9.33997e-08
2.37706e-07
3.55412e-09
3.60446e-09
3.56344e-09
3.60685e-09
3.59157e-09
3.56362e-09
3.5915e-09
9.34254e-08
2.37725e-07
3.54996e-09
3.54098e-09
3.54847e-09
2.37675e-07
9.34213e-08
2.37712e-07
3.61236e-09
3.62688e-09
3.6012e-09
3.6215e-09
9.33998e-08
2.37708e-07
3.55832e-09
3.60733e-09
3.55947e-09
3.60373e-09
3.59121e-09
3.56164e-09
3.59094e-09
9.34254e-08
2.37728e-07
3.55009e-09
3.53903e-09
3.54795e-09
2.37675e-07
9.3421e-08
2.37713e-07
3.60966e-09
3.62496e-09
3.60256e-09
3.62221e-09
9.33998e-08
2.37709e-07
3.55565e-09
3.60539e-09
3.56083e-09
3.60445e-09
3.59097e-09
3.56143e-09
3.58985e-09
9.34254e-08
2.37729e-07
3.54984e-09
3.53884e-09
3.54688e-09
2.37677e-07
9.34211e-08
2.37712e-07
3.60931e-09
3.62399e-09
3.60308e-09
3.62322e-09
9.33997e-08
2.37708e-07
3.55531e-09
3.60442e-09
3.56132e-09
3.60541e-09
3.59041e-09
3.56258e-09
3.59113e-09
9.34254e-08
2.37728e-07
3.54931e-09
3.54002e-09
3.54814e-09
2.37676e-07
9.34206e-08
2.37712e-07
3.61108e-09
3.62664e-09
3.60305e-09
3.6217e-09
9.33991e-08
2.37709e-07
3.55707e-09
3.60675e-09
3.5609e-09
3.60477e-09
3.59253e-09
3.56216e-09
3.59051e-09
9.34248e-08
2.37728e-07
3.55139e-09
3.53947e-09
3.54757e-09
2.37675e-07
9.34213e-08
2.3771e-07
3.60993e-09
3.60794e-09
3.60316e-09
3.62467e-09
9.34006e-08
2.377e-07
3.55576e-09
3.60536e-09
3.56144e-09
3.60514e-09
3.59053e-09
3.56582e-09
3.59088e-09
9.34255e-08
2.37727e-07
3.54935e-09
3.53988e-09
3.54789e-09
2.37676e-07
9.3421e-08
2.37713e-07
3.6118e-09
3.62884e-09
3.6009e-09
3.62821e-09
9.34017e-08
2.37715e-07
3.55749e-09
3.60571e-09
3.55921e-09
3.6041e-09
3.59041e-09
3.56316e-09
3.5907e-09
9.34255e-08
2.37727e-07
3.54927e-09
3.53932e-09
3.54773e-09
2.37674e-07
9.34206e-08
2.37712e-07
3.60959e-09
3.63031e-09
3.60293e-09
3.62823e-09
9.33956e-08
2.37716e-07
3.5556e-09
3.60539e-09
3.56118e-09
3.6048e-09
3.58962e-09
3.5634e-09
3.59055e-09
9.34251e-08
2.37728e-07
3.54845e-09
3.54014e-09
3.54806e-09
2.37677e-07
9.34214e-08
2.37711e-07
3.60924e-09
3.63052e-09
3.60348e-09
3.6284e-09
9.33958e-08
2.37716e-07
3.55526e-09
3.60525e-09
3.56175e-09
3.60589e-09
3.59077e-09
3.56291e-09
3.59068e-09
9.34252e-08
2.37728e-07
3.55004e-09
3.53601e-09
3.54366e-09
2.37677e-07
9.3421e-08
2.37711e-07
3.61123e-09
3.63165e-09
3.60217e-09
3.62714e-09
9.33958e-08
2.37717e-07
3.55722e-09
3.60648e-09
3.56043e-09
3.60423e-09
3.5901e-09
3.56116e-09
3.58839e-09
9.34257e-08
2.37729e-07
3.54945e-09
3.5365e-09
3.54397e-09
2.37679e-07
9.3421e-08
2.37712e-07
3.60944e-09
3.62939e-09
3.60232e-09
3.62826e-09
9.33958e-08
2.37716e-07
3.55543e-09
3.60397e-09
3.56062e-09
3.60528e-09
3.58924e-09
3.56307e-09
3.5904e-09
9.34257e-08
2.37728e-07
3.54955e-09
3.53847e-09
3.54606e-09
2.37678e-07
9.34201e-08
2.37711e-07
3.61084e-09
3.63139e-09
3.6027e-09
3.6284e-09
9.33951e-08
2.37716e-07
3.55685e-09
3.60592e-09
3.56093e-09
3.60543e-09
3.58998e-09
3.56323e-09
3.59257e-09
9.3425e-08
2.37728e-07
3.55033e-09
3.53866e-09
3.54825e-09
2.37675e-07
9.34209e-08
2.37712e-07
3.60998e-09
3.63025e-09
3.60263e-09
3.62811e-09
9.33959e-08
2.37715e-07
3.55597e-09
3.60474e-09
3.56082e-09
3.60482e-09
3.59081e-09
3.56404e-09
3.59185e-09
9.34258e-08
2.37727e-07
3.55123e-09
3.5398e-09
3.54834e-09
2.37675e-07
9.34208e-08
2.37711e-07
3.61102e-09
3.63031e-09
3.6133e-09
3.62079e-09
9.33958e-08
2.37714e-07
3.55658e-09
3.60443e-09
3.55643e-09
3.60302e-09
3.58829e-09
3.5643e-09
3.56325e-09
9.34251e-08
2.37729e-07
3.55104e-09
3.53487e-09
3.52928e-09
2.37678e-07
9.34159e-08
2.37711e-07
3.6051e-09
3.62906e-09
3.55286e-09
3.62382e-09
9.33988e-08
2.37736e-07
3.53913e-09
3.60252e-09
3.52924e-09
3.61152e-09
3.56466e-09
3.55398e-09
3.63483e-09
9.34247e-08
2.37731e-07
3.45437e-09
3.53774e-09
3.53632e-09
2.37683e-07
9.34149e-08
2.37704e-07
3.58548e-09
3.5864e-09
3.60821e-09
3.62577e-09
9.34042e-08
2.3774e-07
3.43859e-09
3.61323e-09
3.57803e-09
3.60686e-09
3.60722e-09
3.55644e-09
3.59316e-09
9.34243e-08
2.37728e-07
3.56978e-09
3.546e-09
3.54883e-09
2.37677e-07
9.34107e-08
2.377e-07
3.60242e-09
3.62659e-09
3.59603e-09
3.6349e-09
9.34468e-08
2.37734e-07
3.53933e-09
3.60637e-09
3.57314e-09
3.60523e-09
3.59246e-09
3.56279e-09
3.5917e-09
9.34251e-08
2.37729e-07
3.55167e-09
3.54504e-09
3.54671e-09
2.37676e-07
9.34075e-08
2.37697e-07
3.60006e-09
3.62773e-09
3.5962e-09
3.62264e-09
9.34161e-08
2.37735e-07
3.53941e-09
3.60533e-09
3.57491e-09
3.60591e-09
3.59028e-09
3.55917e-09
3.59126e-09
9.34252e-08
2.37729e-07
3.54972e-09
3.5455e-09
3.54654e-09
2.37677e-07
9.3408e-08
2.37698e-07
3.59933e-09
3.62214e-09
3.59605e-09
3.62192e-09
9.34145e-08
2.37735e-07
3.53978e-09
3.60565e-09
3.5722e-09
3.60593e-09
3.59012e-09
3.56004e-09
3.59169e-09
9.34251e-08
2.37728e-07
3.54969e-09
3.54401e-09
3.54725e-09
2.37677e-07
9.34075e-08
2.37697e-07
3.60035e-09
3.6226e-09
3.59573e-09
3.62209e-09
9.34144e-08
2.37734e-07
3.5399e-09
3.60658e-09
3.57594e-09
3.6061e-09
3.59156e-09
3.55944e-09
3.59192e-09
9.34249e-08
2.37728e-07
3.55149e-09
3.54669e-09
3.54997e-09
2.37675e-07
9.3408e-08
2.37698e-07
3.59988e-09
3.62118e-09
3.59534e-09
3.62109e-09
9.34152e-08
2.37735e-07
3.54059e-09
3.60551e-09
3.57588e-09
3.60583e-09
3.59068e-09
3.55911e-09
3.59111e-09
9.34255e-08
2.37729e-07
3.54893e-09
3.54623e-09
3.54802e-09
2.37678e-07
9.3408e-08
2.37698e-07
3.59902e-09
3.62047e-09
3.59596e-09
3.62197e-09
9.34151e-08
2.37735e-07
3.53967e-09
3.60529e-09
3.57594e-09
3.60657e-09
3.58795e-09
3.55898e-09
3.59144e-09
9.34258e-08
2.37729e-07
3.55259e-09
3.53805e-09
3.54634e-09
2.37679e-07
9.34081e-08
2.37698e-07
3.60025e-09
3.62172e-09
3.59576e-09
3.6223e-09
9.34146e-08
2.37735e-07
3.54091e-09
3.60611e-09
3.57564e-09
3.60663e-09
3.58993e-09
3.55955e-09
3.59243e-09
9.34256e-08
2.37729e-07
3.54963e-09
3.53904e-09
3.54827e-09
2.37677e-07
9.34077e-08
2.37699e-07
3.60048e-09
3.62293e-09
3.59468e-09
3.62114e-09
9.34143e-08
2.37736e-07
3.54105e-09
3.60715e-09
3.57455e-09
3.60541e-09
3.5919e-09
3.55844e-09
3.59111e-09
9.34253e-08
2.3773e-07
3.55186e-09
3.53792e-09
3.547e-09
2.37679e-07
9.34077e-08
2.377e-07
3.59966e-09
3.62155e-09
3.59447e-09
3.62128e-09
9.34146e-08
2.37736e-07
3.5402e-09
3.60572e-09
3.57438e-09
3.60549e-09
3.58899e-09
3.55862e-09
3.59094e-09
9.34255e-08
2.3773e-07
3.54906e-09
3.53857e-09
3.54727e-09
2.37679e-07
9.34079e-08
2.37698e-07
3.59827e-09
3.62093e-09
3.59596e-09
3.6222e-09
9.34148e-08
2.37735e-07
3.53888e-09
3.60503e-09
3.57595e-09
3.60652e-09
3.59006e-09
3.55964e-09
3.59125e-09
9.34257e-08
2.37729e-07
3.55326e-09
3.53926e-09
3.54732e-09
2.37678e-07
9.34077e-08
2.37697e-07
3.6003e-09
3.62212e-09
3.59545e-09
3.62274e-09
9.34148e-08
2.37734e-07
3.541e-09
3.60647e-09
3.57567e-09
3.60659e-09
3.59129e-09
3.55992e-09
3.59172e-09
9.34256e-08
2.37728e-07
3.54971e-09
3.53987e-09
3.54926e-09
2.37675e-07
9.34078e-08
2.37698e-07
3.59994e-09
3.62316e-09
3.59352e-09
3.62659e-09
9.34146e-08
2.37738e-07
3.54097e-09
3.60697e-09
3.56554e-09
3.60486e-09
3.59116e-09
3.56253e-09
3.58881e-09
9.34255e-08
2.37729e-07
3.55087e-09
3.53857e-09
3.54773e-09
2.37679e-07
9.34086e-08
2.37697e-07
3.59857e-09
3.6359e-09
3.59036e-09
3.60818e-09
9.34129e-08
2.3775e-07
3.55813e-09
3.60623e-09
3.56042e-09
3.60501e-09
3.58842e-09
3.56546e-09
3.58905e-09
9.34256e-08
2.37729e-07
3.54894e-09
3.53865e-09
3.54786e-09
2.37678e-07
9.34092e-08
2.37699e-07
3.59666e-09
3.57882e-09
3.59359e-09
3.61296e-09
9.34004e-08
2.37737e-07
3.55592e-09
3.60616e-09
3.56009e-09
3.60658e-09
3.59093e-09
3.55641e-09
3.58776e-09
9.34252e-08
2.37728e-07
3.55057e-09
3.54093e-09
3.54061e-09
2.3768e-07
9.34082e-08
2.37698e-07
3.59853e-09
3.6153e-09
3.59571e-09
3.61915e-09
9.34127e-08
2.37737e-07
3.55423e-09
3.60803e-09
3.55872e-09
3.60206e-09
3.58085e-09
3.5642e-09
3.60995e-09
9.3425e-08
2.37724e-07
3.5269e-09
3.54296e-09
3.54628e-09
2.37688e-07
9.34086e-08
2.37697e-07
3.59956e-09
3.6194e-09
3.59575e-09
3.61963e-09
9.3413e-08
2.37738e-07
3.55263e-09
3.60201e-09
3.55817e-09
3.60016e-09
3.61106e-09
3.56384e-09
3.61088e-09
9.34272e-08
2.37724e-07
3.5441e-09
3.5413e-09
3.54677e-09
2.3769e-07
9.34087e-08
2.37696e-07
3.5995e-09
3.61874e-09
3.59653e-09
3.62043e-09
9.34134e-08
2.37738e-07
3.55223e-09
3.60016e-09
3.55889e-09
3.6008e-09
3.60991e-09
3.56431e-09
3.61026e-09
9.34278e-08
2.37723e-07
3.54278e-09
3.54176e-09
3.54618e-09
2.37693e-07
9.34082e-08
2.37697e-07
3.60116e-09
3.62068e-09
3.59598e-09
3.61966e-09
9.34128e-08
2.37739e-07
3.55385e-09
3.60198e-09
3.55835e-09
3.60008e-09
3.61059e-09
3.56269e-09
3.60827e-09
9.34272e-08
2.37724e-07
3.5436e-09
3.53958e-09
3.54461e-09
2.37695e-07
9.34082e-08
2.37694e-07
3.60111e-09
3.62031e-09
3.59637e-09
3.62011e-09
9.34129e-08
2.37737e-07
3.55383e-09
3.60174e-09
3.55874e-09
3.60062e-09
3.60924e-09
3.56343e-09
3.60931e-09
9.34273e-08
2.37723e-07
3.54222e-09
3.54011e-09
3.5432e-09
2.37693e-07
9.34083e-08
2.37696e-07
3.602e-09
3.62085e-09
3.59573e-09
3.62015e-09
9.34128e-08
2.37736e-07
3.55466e-09
3.60223e-09
3.55807e-09
3.60063e-09
3.61084e-09
3.56369e-09
3.61089e-09
9.34272e-08
2.37722e-07
3.54587e-09
3.54088e-09
3.54619e-09
2.3769e-07
9.34088e-08
2.37698e-07
3.60004e-09
3.61944e-09
3.59536e-09
3.61918e-09
9.34134e-08
2.37739e-07
3.55268e-09
3.60086e-09
3.55772e-09
3.59958e-09
3.61016e-09
3.56342e-09
3.61001e-09
9.34278e-08
2.37724e-07
3.54285e-09
3.5408e-09
3.54577e-09
2.37692e-07
9.34083e-08
2.37698e-07
3.60032e-09
3.6201e-09
3.59565e-09
3.61885e-09
9.34125e-08
2.37739e-07
3.55299e-09
3.60147e-09
3.55803e-09
3.59928e-09
3.61224e-09
3.56329e-09
3.60985e-09
9.34269e-08
2.37725e-07
3.54497e-09
3.5406e-09
3.54489e-09
2.37693e-07
9.34079e-08
2.37696e-07
3.60162e-09
3.62039e-09
3.59578e-09
3.62041e-09
9.34125e-08
2.37736e-07
3.55428e-09
3.60171e-09
3.5579e-09
3.60081e-09
3.61087e-09
3.56472e-09
3.61229e-09
9.34269e-08
2.37722e-07
3.5451e-09
3.54223e-09
3.54919e-09
2.37688e-07
9.34082e-08
2.37699e-07
3.6008e-09
3.62054e-09
3.59436e-09
3.61913e-09
9.34131e-08
2.37739e-07
3.55411e-09
3.60197e-09
3.55486e-09
3.59946e-09
3.61245e-09
3.56339e-09
3.60883e-09
9.34275e-08
2.37725e-07
3.54633e-09
3.5408e-09
3.54567e-09
2.37694e-07
9.34083e-08
2.37697e-07
3.59976e-09
3.61942e-09
3.59595e-09
3.62017e-09
9.3413e-08
2.37738e-07
3.55295e-09
3.60077e-09
3.55636e-09
3.6005e-09
3.61122e-09
3.5638e-09
3.60894e-09
9.34274e-08
2.37724e-07
3.54503e-09
3.54122e-09
3.54574e-09
2.37695e-07
9.34084e-08
2.37695e-07
3.60011e-09
3.61911e-09
3.59629e-09
3.62028e-09
9.34132e-08
2.37737e-07
3.5532e-09
3.60048e-09
3.55646e-09
3.60085e-09
3.61021e-09
3.56349e-09
3.61019e-09
9.34276e-08
2.37724e-07
3.54394e-09
3.54082e-09
3.54667e-09
2.37693e-07
9.34085e-08
2.37696e-07
3.60078e-09
3.62054e-09
3.5963e-09
3.61997e-09
9.34131e-08
2.37737e-07
3.55349e-09
3.60239e-09
3.55563e-09
3.60265e-09
3.61086e-09
3.56341e-09
3.61089e-09
9.34273e-08
2.37725e-07
3.54418e-09
3.54264e-09
3.54477e-09
2.37695e-07
9.34088e-08
2.37698e-07
3.60088e-09
3.61911e-09
3.59532e-09
3.6203e-09
9.34135e-08
2.37737e-07
3.55271e-09
3.60392e-09
3.55422e-09
3.60438e-09
3.61054e-09
3.56353e-09
3.61601e-09
9.3428e-08
2.37718e-07
3.5392e-09
3.50373e-09
3.52855e-09
2.37685e-07
9.34082e-08
2.37692e-07
3.60112e-09
3.6212e-09
3.59944e-09
3.62232e-09
9.34128e-08
2.37735e-07
3.55298e-09
3.60386e-09
3.5589e-09
3.60024e-09
3.61511e-09
3.5656e-09
3.61008e-09
9.343e-08
2.3772e-07
3.52635e-09
3.53801e-09
3.54404e-09
2.37688e-07
9.34077e-08
2.37694e-07
3.60356e-09
3.62208e-09
3.59637e-09
3.62075e-09
9.34122e-08
2.37736e-07
3.55596e-09
3.60082e-09
3.55644e-09
3.60003e-09
3.61183e-09
3.56328e-09
3.60895e-09
9.34261e-08
2.37722e-07
3.54081e-09
3.53757e-09
3.52932e-09
2.37695e-07
9.34067e-08
2.37695e-07
3.60279e-09
3.62159e-09
3.59431e-09
3.61933e-09
9.34117e-08
2.37736e-07
3.55568e-09
3.60199e-09
3.55466e-09
3.59934e-09
3.6085e-09
3.56336e-09
3.61026e-09
9.34258e-08
2.37721e-07
3.55226e-09
3.5406e-09
3.53589e-09
2.37691e-07
9.34071e-08
2.37694e-07
3.59868e-09
3.61856e-09
3.59661e-09
3.62055e-09
9.34118e-08
2.37736e-07
3.55177e-09
3.59966e-09
3.55704e-09
3.60076e-09
3.60867e-09
3.56361e-09
3.609e-09
9.34259e-08
2.37721e-07
3.55826e-09
3.54178e-09
3.54542e-09
2.37691e-07
9.34075e-08
2.37694e-07
3.59953e-09
3.61998e-09
3.59606e-09
3.62054e-09
9.34117e-08
2.37735e-07
3.55266e-09
3.6014e-09
3.55657e-09
3.60079e-09
3.61077e-09
3.56341e-09
3.6103e-09
9.34259e-08
2.37721e-07
3.54374e-09
3.54157e-09
3.54692e-09
2.37689e-07
9.34066e-08
2.37695e-07
3.60155e-09
3.62086e-09
3.59514e-09
3.61931e-09
9.34116e-08
2.37736e-07
3.5547e-09
3.60232e-09
3.5556e-09
3.59945e-09
3.61248e-09
3.56344e-09
3.60907e-09
9.34258e-08
2.37721e-07
3.54544e-09
3.54178e-09
3.54614e-09
2.3769e-07
9.34073e-08
2.37695e-07
3.59887e-09
3.61911e-09
3.59617e-09
3.62097e-09
9.34118e-08
2.37736e-07
3.55204e-09
3.60048e-09
3.55667e-09
3.60113e-09
3.61083e-09
3.56388e-09
3.61014e-09
9.3426e-08
2.37721e-07
3.54417e-09
3.54238e-09
3.54646e-09
2.37689e-07
9.34066e-08
2.37697e-07
3.60091e-09
3.61954e-09
3.59466e-09
3.61904e-09
9.34117e-08
2.37737e-07
3.55408e-09
3.60097e-09
3.55518e-09
3.59916e-09
3.61059e-09
3.56309e-09
3.61028e-09
9.34259e-08
2.37722e-07
3.54318e-09
3.54318e-09
3.5476e-09
2.3769e-07
9.34065e-08
2.37694e-07
3.60015e-09
3.62051e-09
3.59634e-09
3.61909e-09
9.34112e-08
2.37737e-07
3.55335e-09
3.60186e-09
3.55681e-09
3.59943e-09
3.612e-09
3.56245e-09
3.60842e-09
9.34256e-08
2.37723e-07
3.54539e-09
3.53977e-09
3.54485e-09
2.37692e-07
9.34072e-08
2.37693e-07
3.60024e-09
3.61944e-09
3.59603e-09
3.62142e-09
9.34115e-08
2.37733e-07
3.55342e-09
3.60074e-09
3.55649e-09
3.6017e-09
3.61084e-09
3.56557e-09
3.61154e-09
9.34259e-08
2.37719e-07
3.54436e-09
3.54304e-09
3.54805e-09
2.37687e-07
9.3407e-08
2.37695e-07
3.60064e-09
3.62047e-09
3.59511e-09
3.61876e-09
9.3412e-08
2.37736e-07
3.55379e-09
3.60177e-09
3.55555e-09
3.59902e-09
3.61149e-09
3.56283e-09
3.60878e-09
9.34264e-08
2.37722e-07
3.54507e-09
3.54035e-09
3.54535e-09
2.3769e-07
9.3407e-08
2.37697e-07
3.59942e-09
3.61938e-09
3.59544e-09
3.61925e-09
9.34115e-08
2.37737e-07
3.55253e-09
3.60066e-09
3.55595e-09
3.59951e-09
3.6107e-09
3.56422e-09
3.60972e-09
9.3426e-08
2.37723e-07
3.54426e-09
3.54169e-09
3.54627e-09
2.37691e-07
9.34067e-08
2.37694e-07
3.60027e-09
3.61932e-09
3.59587e-09
3.61978e-09
9.34114e-08
2.37735e-07
3.55347e-09
3.60055e-09
3.55681e-09
3.60007e-09
3.61017e-09
3.56449e-09
3.61028e-09
9.34258e-08
2.37721e-07
3.54375e-09
3.54192e-09
3.5468e-09
2.37689e-07
9.34068e-08
2.37694e-07
3.60071e-09
3.62011e-09
3.59502e-09
3.6194e-09
9.34118e-08
2.37736e-07
3.55697e-09
3.60153e-09
3.57027e-09
3.59964e-09
3.6111e-09
3.56311e-09
3.60986e-09
9.34261e-08
2.37722e-07
3.54466e-09
3.54064e-09
3.54639e-09
2.37689e-07
9.34054e-08
2.37694e-07
3.60056e-09
3.62072e-09
3.59594e-09
3.62014e-09
9.34111e-08
2.37736e-07
3.53886e-09
3.6019e-09
3.57145e-09
3.60047e-09
3.61034e-09
3.56407e-09
3.60948e-09
9.34255e-08
2.37722e-07
3.54393e-09
3.54155e-09
3.54605e-09
2.37691e-07
9.34055e-08
2.37693e-07
3.60198e-09
3.62035e-09
3.59648e-09
3.62009e-09
9.34114e-08
2.37737e-07
3.54041e-09
3.60161e-09
3.57195e-09
3.60049e-09
3.6094e-09
3.56355e-09
3.60968e-09
9.34258e-08
2.37721e-07
3.54298e-09
3.54105e-09
3.54622e-09
2.37692e-07
9.34058e-08
2.37691e-07
3.60174e-09
3.61956e-09
3.59696e-09
3.62048e-09
9.34113e-08
2.37734e-07
3.54022e-09
3.60345e-09
3.5724e-09
3.60687e-09
3.61185e-09
3.56439e-09
3.61037e-09
9.34255e-08
2.37754e-07
3.5454e-09
3.54109e-09
3.54687e-09
2.37687e-07
9.34059e-08
2.37694e-07
3.60179e-09
3.62073e-09
3.59453e-09
3.61948e-09
9.34113e-08
2.37736e-07
3.54031e-09
3.59564e-09
3.56995e-09
3.60617e-09
3.61172e-09
3.56302e-09
3.60845e-09
9.3428e-08
2.37755e-07
3.54527e-09
3.53998e-09
3.54504e-09
2.3769e-07
9.34061e-08
2.37698e-07
3.5992e-09
3.61902e-09
3.59415e-09
3.61934e-09
9.34114e-08
2.37738e-07
3.53775e-09
3.59408e-09
3.56955e-09
3.60602e-09
3.61026e-09
3.56328e-09
3.60874e-09
9.34281e-08
2.37758e-07
3.54386e-09
3.54018e-09
3.54548e-09
2.37692e-07
9.34053e-08
2.37694e-07
3.60031e-09
3.61929e-09
3.59577e-09
3.62076e-09
9.34113e-08
2.37734e-07
3.53878e-09
3.59452e-09
3.57126e-09
3.61008e-09
3.61059e-09
3.56481e-09
3.61106e-09
9.34279e-08
2.37757e-07
3.54411e-09
3.54183e-09
3.54744e-09
2.37689e-07
9.34057e-08
2.37693e-07
3.6013e-09
3.62023e-09
3.59521e-09
3.62137e-09
9.34118e-08
2.37735e-07
3.53991e-09
3.59542e-09
3.57144e-09
3.59994e-09
3.61178e-09
3.56288e-09
3.61118e-09
9.3429e-08
2.37732e-07
3.54546e-09
3.53896e-09
3.55227e-09
2.37689e-07
9.34052e-08
2.37697e-07
3.60126e-09
3.62252e-09
3.59973e-09
3.6274e-09
9.34114e-08
2.37734e-07
3.54134e-09
3.60123e-09
3.57402e-09
3.62346e-09
3.62058e-09
3.57048e-09
3.60492e-09
9.3426e-08
2.37726e-07
3.56192e-09
3.55429e-09
3.55843e-09
2.37678e-07
9.33989e-08
2.37707e-07
3.61267e-09
3.61144e-09
4.02893e-09
4.00979e-09
9.34064e-08
2.37714e-07
3.53957e-09
3.63145e-09
4.03565e-09
4.04758e-09
3.59056e-09
3.89986e-09
3.94716e-09
9.34196e-08
2.37727e-07
3.53525e-09
3.92991e-09
3.91274e-09
2.3767e-07
9.33882e-08
2.37557e-07
4.65224e-09
4.69049e-09
2.1755e-08
2.18399e-08
9.33496e-08
2.37593e-07
4.63559e-09
4.6068e-09
2.18342e-08
2.18705e-08
4.59928e-09
2.16952e-08
2.17925e-08
9.33882e-08
2.37558e-07
4.56391e-09
2.17176e-08
2.16762e-08
2.37587e-07
9.23974e-08
1.40336e-07
4.38291e-08
4.38666e-08
1.65275e-07
1.64938e-07
9.24532e-08
1.40361e-07
4.37269e-08
4.39266e-08
1.65027e-07
1.64877e-07
4.38961e-08
1.65444e-07
1.65237e-07
9.24719e-08
1.40274e-07
4.37339e-08
1.65185e-07
1.64989e-07
1.40275e-07
4.64177e-07
2.24254e-07
2.24063e-07
4.64116e-07
2.24394e-07
2.24124e-07
4.27895e-07
4.27985e-07
4.27958e-07
2.24269e-07
4.64091e-07
2.24395e-07
6.15578e-08
2.69877e-07
1.75907e-07
1.75928e-07
5.03516e-07
3.5899e-07
4.30099e-07
2.34864e-07
5.03451e-07
3.5897e-07
2.34846e-07
4.29995e-07
4.77778e-07
4.43052e-07
4.42974e-07
2.9132e-06
0.000120004
2.96243e-06
0.000121463
0.00024168
0.000248917
2.91368e-06
0.000120021
2.96206e-06
0.000121481
1.01061e-06
1.01009e-06
1.01036e-06
1.39368e-07
1.39286e-07
1.39327e-07
1.39387e-07
2.23346e-07
4.59705e-06
8.11884e-07
6.03095e-07
1.60141e-07
3.51257e-06
5.21933e-07
0.000241673
0.000248902
2.23057e-07
8.11162e-07
4.59636e-06
6.02994e-07
1.59847e-07
5.2159e-07
3.51179e-06
7.33242e-06
7.33313e-06
2.34525e-07
7.55332e-06
7.555e-06
2.78754e-06
0.000121009
2.78086e-06
0.000121004
0.000249463
0.000249456
2.78794e-06
0.000121025
2.78125e-06
0.00012102
6.74315e-08
6.74176e-08
6.74574e-08
9.4432e-09