/*--------------------------------*- C++ -*----------------------------------*\
| =========                 |                                                 |
| \\      /  F ield         | OpenFOAM: The Open Source CFD Toolbox           |
|  \\    /   O peration     | Version:  v1906                                 |
|   \\  /    A nd           | Web:      www.OpenFOAM.com                      |
|    \\/     M anipulation  |                                                 |
\*---------------------------------------------------------------------------*/
FoamFile
{
    version     2.0;
    format      ascii;
    class       volScalarField;
    location    "200";
    object      epsilon;
}
// * * * * * * * * * * * * * * * * * * * * * * * * * * * * * * * * * * * * * //

dimensions      [0 2 -3 0 0 0 0];


internalField   nonuniform List<scalar> 
171728
(
1.06558e-06
7.75733e-07
7.76232e-07
1.06736e-06
7.75658e-07
7.76964e-07
7.76908e-07
7.77559e-07
1.06685e-06
7.76117e-07
7.76996e-07
1.06885e-06
2.67705e-07
2.6833e-07
2.68201e-07
2.68721e-07
1.81935e-05
1.81927e-05
5.41029e-06
5.41016e-06
4.06425e-06
9.02873e-06
4.06539e-06
4.06422e-06
9.03126e-06
9.02657e-06
4.06533e-06
2.04455e-06
3.42324e-06
4.7659e-07
4.73261e-07
2.04693e-06
2.04488e-06
7.72731e-07
3.42422e-06
4.77169e-07
3.42292e-06
4.73804e-07
2.04704e-06
1.81953e-05
1.81877e-05
1.06655e-06
5.41107e-06
5.41024e-06
5.40989e-06
5.40942e-06
1.81921e-05
1.81851e-05
9.03041e-06
4.06707e-06
3.42396e-06
4.77665e-07
2.04875e-06
9.03185e-06
4.06698e-06
4.77832e-07
3.42487e-06
2.04858e-06
2.04381e-06
7.73304e-07
3.42325e-06
4.77788e-07
3.42237e-06
4.74391e-07
2.0469e-06
4.06453e-06
9.02892e-06
9.02474e-06
4.06559e-06
2.04462e-06
7.7413e-07
4.78052e-07
3.42426e-06
4.74709e-07
3.42246e-06
2.04805e-06
4.06475e-06
9.0311e-06
9.02721e-06
4.06595e-06
1.81962e-05
5.41208e-06
5.40957e-06
1.81908e-05
2.04334e-06
4.77195e-07
3.4229e-06
4.73587e-07
2.04712e-06
2.04447e-06
7.73363e-07
4.77568e-07
3.42433e-06
4.7426e-07
3.42265e-06
2.04721e-06
4.06377e-06
9.02773e-06
4.06503e-06
4.06383e-06
9.03057e-06
9.02694e-06
4.06494e-06
1.06795e-06
5.4105e-06
5.41092e-06
5.40937e-06
5.41001e-06
1.8195e-05
1.81881e-05
1.81938e-05
1.8187e-05
1.81892e-05
1.81889e-05
4.4905e-06
2.75848e-06
5.40999e-06
9.35213e-06
9.34989e-06
2.757e-06
4.49285e-06
4.49656e-06
2.75791e-06
5.41045e-06
9.35276e-06
9.35207e-06
2.7581e-06
4.49449e-06
9.67834e-06
2.15056e-05
2.15023e-05
2.14994e-05
2.1497e-05
9.67735e-06
1.20583e-05
1.06876e-05
4.72233e-06
4.06432e-06
1.20563e-05
1.06892e-05
4.72228e-06
2.1826e-05
9.02673e-06
7.06191e-06
7.06247e-06
2.18328e-05
1.20585e-05
4.06528e-06
1.0691e-05
4.72341e-06
1.06895e-05
4.72345e-06
1.20605e-05
1.20591e-05
1.06878e-05
4.72246e-06
4.06423e-06
1.20571e-05
1.06894e-05
4.7225e-06
2.18288e-05
9.02936e-06
7.0643e-06
7.0647e-06
2.18354e-05
2.18317e-05
7.06366e-06
9.02883e-06
2.18251e-05
7.06323e-06
1.20592e-05
4.06522e-06
1.06912e-05
4.72351e-06
1.06896e-05
4.72347e-06
1.20611e-05
1.81911e-05
1.81919e-05
9.67511e-06
2.14937e-05
2.14948e-05
9.67598e-06
2.14996e-05
2.15007e-05
4.49616e-06
2.75833e-06
5.41105e-06
9.35462e-06
2.75724e-06
9.35228e-06
4.49604e-06
4.49145e-06
2.76018e-06
5.41046e-06
9.35066e-06
9.34927e-06
2.7603e-06
4.4913e-06
4.49476e-06
9.34947e-06
2.75586e-06
5.40981e-06
2.75665e-06
4.49492e-06
9.35209e-06
4.49008e-06
9.34678e-06
2.75835e-06
5.40916e-06
4.49023e-06
9.34827e-06
2.75884e-06
9.67722e-06
2.15027e-05
2.15037e-05
2.14967e-05
2.14978e-05
9.67643e-06
1.8188e-05
1.81891e-05
2.18279e-05
9.02916e-06
7.06415e-06
7.06458e-06
2.18344e-05
1.20605e-05
4.06685e-06
4.72485e-06
1.0693e-05
4.72481e-06
1.06915e-05
1.20624e-05
2.18292e-05
9.03056e-06
7.06339e-06
7.06396e-06
2.18359e-05
1.20612e-05
4.06674e-06
1.06929e-05
4.72486e-06
1.06914e-05
4.7249e-06
1.20631e-05
1.20585e-05
4.7231e-06
1.06876e-05
4.06455e-06
1.20565e-05
4.72306e-06
1.06892e-05
2.18252e-05
9.02713e-06
7.06328e-06
7.06373e-06
2.18317e-05
2.18284e-05
7.06292e-06
9.02672e-06
2.18219e-05
7.06241e-06
1.20586e-05
4.06549e-06
4.72404e-06
1.0691e-05
4.72403e-06
1.06894e-05
1.20605e-05
1.20602e-05
1.06882e-05
4.72297e-06
4.06479e-06
1.20582e-05
1.06897e-05
4.72305e-06
2.18291e-05
9.02966e-06
7.06249e-06
7.06286e-06
2.18358e-05
2.18321e-05
7.06182e-06
9.02869e-06
2.18254e-05
7.0614e-06
1.20604e-05
4.06586e-06
1.06915e-05
4.72417e-06
1.069e-05
4.72406e-06
1.20623e-05
1.81923e-05
4.49855e-06
2.7602e-06
5.41231e-06
9.35625e-06
2.75928e-06
9.35495e-06
4.49825e-06
4.49244e-06
2.75929e-06
5.40967e-06
9.35056e-06
9.34868e-06
2.75837e-06
4.49227e-06
9.67952e-06
2.1504e-05
2.15043e-05
2.14986e-05
2.14988e-05
9.67843e-06
1.8187e-05
1.20574e-05
4.72259e-06
1.06871e-05
4.06396e-06
1.20555e-05
4.72248e-06
1.06887e-05
2.18239e-05
9.02593e-06
7.06126e-06
7.06168e-06
2.18303e-05
2.18271e-05
7.06037e-06
1.20576e-05
4.06486e-06
4.72335e-06
1.06906e-05
4.72338e-06
1.0689e-05
1.20594e-05
1.20582e-05
4.72217e-06
1.06876e-05
4.06393e-06
1.20562e-05
4.72206e-06
1.06892e-05
2.18259e-05
9.02927e-06
7.06287e-06
7.06351e-06
2.18328e-05
2.18293e-05
7.0627e-06
9.02831e-06
2.18224e-05
7.06202e-06
1.20583e-05
4.06477e-06
4.72298e-06
1.06911e-05
4.72308e-06
1.06895e-05
1.20603e-05
9.67747e-06
2.14978e-05
2.14962e-05
9.67831e-06
2.15036e-05
2.1502e-05
4.49239e-06
2.75868e-06
5.41048e-06
9.35274e-06
2.75771e-06
9.35124e-06
4.49233e-06
4.49815e-06
2.75942e-06
5.41102e-06
9.35556e-06
2.75822e-06
9.35341e-06
4.49805e-06
4.49089e-06
9.34846e-06
2.75607e-06
5.40928e-06
4.49099e-06
2.75642e-06
9.35037e-06
4.49675e-06
9.35089e-06
2.75727e-06
5.40982e-06
4.49687e-06
2.75734e-06
9.35332e-06
9.67964e-06
2.15062e-05
2.15048e-05
2.15005e-05
2.14991e-05
9.67882e-06
1.81911e-05
1.8192e-05
1.81899e-05
1.81909e-05
2.61572e-06
1.06759e-06
1.70197e-06
1.70069e-06
1.7013e-06
1.70201e-06
2.61616e-06
2.61458e-06
1.06885e-06
1.70127e-06
1.70276e-06
1.70184e-06
1.70302e-06
2.61479e-06
2.6148e-06
1.06886e-06
1.70307e-06
1.70248e-06
1.70343e-06
1.70279e-06
2.61553e-06
2.61576e-06
1.07008e-06
1.70342e-06
1.70267e-06
1.70369e-06
1.70322e-06
2.61574e-06
1.39021e-07
1.39091e-07
1.37983e-07
7.13163e-08
7.14446e-08
2.66426e-07
1.39187e-07
1.39297e-07
1.38286e-07
1.38411e-07
7.13878e-08
7.15115e-08
1.39288e-07
1.3919e-07
1.38174e-07
7.1376e-08
7.15096e-08
2.66826e-07
1.39448e-07
1.39327e-07
1.38556e-07
1.38429e-07
7.14274e-08
7.15527e-08
1.32964e-06
2.31101e-06
1.18726e-06
2.04533e-06
1.33098e-06
2.31129e-06
1.18657e-06
1.54127e-06
1.9653e-06
3.42287e-06
2.81267e-06
1.96502e-06
2.81283e-06
1.53958e-06
1.33337e-06
2.04596e-06
2.31296e-06
1.1897e-06
2.31183e-06
1.19002e-06
1.33227e-06
1.33181e-06
2.31103e-06
1.18773e-06
2.04505e-06
1.33315e-06
2.31191e-06
1.18701e-06
1.54272e-06
1.96671e-06
3.42402e-06
2.8144e-06
2.81391e-06
1.9668e-06
1.54185e-06
1.53955e-06
2.81262e-06
1.96492e-06
3.42296e-06
1.54054e-06
2.81296e-06
1.96471e-06
1.33549e-06
2.04656e-06
2.31362e-06
1.19003e-06
2.31256e-06
1.19052e-06
1.3344e-06
2.6127e-06
1.06516e-06
1.69993e-06
1.70124e-06
1.69952e-06
2.61294e-06
1.70084e-06
1.5428e-06
1.9665e-06
3.42391e-06
2.81474e-06
1.96674e-06
2.81455e-06
1.54195e-06
1.33651e-06
2.04775e-06
2.31461e-06
1.19141e-06
2.31404e-06
1.19193e-06
1.33522e-06
1.54344e-06
1.96821e-06
3.42467e-06
2.81411e-06
2.81413e-06
1.96797e-06
1.54269e-06
1.33615e-06
2.04798e-06
1.1912e-06
2.31436e-06
1.19169e-06
2.3136e-06
1.33487e-06
1.33233e-06
2.31118e-06
1.18877e-06
2.04486e-06
1.3338e-06
2.31147e-06
1.18794e-06
1.54347e-06
1.96885e-06
3.4232e-06
2.81321e-06
1.96897e-06
2.81305e-06
1.54152e-06
1.54027e-06
2.8118e-06
1.96727e-06
3.42227e-06
1.54142e-06
1.96701e-06
2.8119e-06
1.336e-06
2.04639e-06
2.31325e-06
1.19094e-06
2.31295e-06
1.19132e-06
1.33471e-06
1.33244e-06
1.18879e-06
2.31238e-06
2.04577e-06
1.33375e-06
1.18805e-06
2.31263e-06
1.54343e-06
1.96733e-06
3.42405e-06
2.81407e-06
2.81408e-06
1.96716e-06
1.54166e-06
1.54027e-06
2.81259e-06
1.96556e-06
3.42291e-06
1.54123e-06
2.81256e-06
1.96547e-06
1.33615e-06
2.04743e-06
1.19118e-06
2.31446e-06
1.19159e-06
2.31318e-06
1.33503e-06
1.3314e-06
1.18794e-06
2.31094e-06
2.0448e-06
1.33291e-06
1.18719e-06
2.31117e-06
1.54209e-06
1.96708e-06
3.42269e-06
2.81236e-06
1.96687e-06
2.81259e-06
1.54023e-06
1.53888e-06
2.81143e-06
1.33503e-06
2.04652e-06
1.1897e-06
2.31288e-06
1.19048e-06
2.31266e-06
1.33372e-06
1.33215e-06
1.18806e-06
2.31084e-06
2.04517e-06
1.33353e-06
1.18741e-06
2.31119e-06
1.54293e-06
1.96828e-06
3.42404e-06
2.81315e-06
2.8133e-06
1.96833e-06
1.54202e-06
1.53984e-06
2.81175e-06
1.96647e-06
3.42279e-06
1.54088e-06
2.81161e-06
1.96627e-06
1.3357e-06
2.04663e-06
1.19001e-06
2.31266e-06
1.19075e-06
2.31241e-06
1.33456e-06
2.61417e-06
1.06648e-06
1.70191e-06
1.70144e-06
2.61448e-06
1.70146e-06
1.70105e-06
2.86706e-07
8.05148e-07
8.04673e-07
1.0941e-06
1.09415e-06
1.09392e-06
1.09128e-06
8.04989e-07
8.04728e-07
8.05196e-07
8.05049e-07
1.0934e-06
1.09076e-06
8.05143e-07
8.05024e-07
8.05412e-07
8.05349e-07
8.0558e-07
8.05283e-07
8.05647e-07
1.09351e-06
1.09142e-06
8.0489e-07
8.04726e-07
8.05138e-07
1.09194e-06
8.05749e-07
8.05146e-07
4.0836e-06
9.0614e-06
9.06196e-06
4.08382e-06
1.82414e-05
1.82442e-05
4.08034e-06
9.06585e-06
9.06586e-06
4.08056e-06
2.86878e-07
2.86213e-07
2.8606e-07
2.86758e-07
2.86988e-07
2.86341e-07
2.86219e-07
2.06807e-06
3.44099e-06
5.07404e-07
8.0527e-07
3.44023e-06
5.07547e-07
2.0687e-06
1.82428e-05
1.8245e-05
2.06963e-06
5.06708e-07
3.44443e-06
8.04753e-07
5.06845e-07
3.44367e-06
2.06868e-06
5.43189e-06
5.43447e-06
1.09232e-06
5.43134e-06
5.43405e-06
5.43227e-06
5.43497e-06
1.82374e-05
1.82405e-05
1.82433e-05
1.82459e-05
5.42853e-06
5.4303e-06
1.09196e-06
5.42812e-06
5.42966e-06
1.82413e-05
1.82383e-05
1.82462e-05
1.82435e-05
1.0934e-06
5.42849e-06
5.42978e-06
5.42879e-06
5.43021e-06
4.08279e-06
9.06351e-06
9.06387e-06
4.08319e-06
2.06865e-06
3.44257e-06
5.06606e-07
8.05166e-07
3.44219e-06
5.06909e-07
2.06814e-06
2.06815e-06
3.44255e-06
5.06512e-07
8.05098e-07
3.44188e-06
5.06872e-07
2.06792e-06
4.08388e-06
9.06256e-06
9.06182e-06
4.08326e-06
4.08306e-06
9.06419e-06
9.06364e-06
4.08256e-06
2.06866e-06
8.0517e-07
3.44251e-06
5.06834e-07
3.4426e-06
5.06877e-07
2.06769e-06
2.06872e-06
8.04944e-07
3.44199e-06
5.06845e-07
3.4422e-06
5.06847e-07
2.06823e-06
5.43053e-06
5.42753e-06
1.09136e-06
5.42976e-06
5.42684e-06
1.82454e-05
1.82483e-05
1.82452e-05
1.8242e-05
1.09288e-06
5.43005e-06
5.42695e-06
5.43037e-06
5.42753e-06
1.82487e-05
1.82459e-05
2.06668e-06
3.44292e-06
5.07813e-07
8.05388e-07
3.44214e-06
5.08067e-07
2.0673e-06
4.08047e-06
9.06457e-06
9.06495e-06
4.08035e-06
2.06783e-06
5.07631e-07
3.4434e-06
8.05425e-07
5.07966e-07
3.44282e-06
2.06723e-06
4.08063e-06
9.06578e-06
9.06553e-06
4.08008e-06
2.06701e-06
8.05418e-07
3.44212e-06
5.07991e-07
3.44247e-06
5.08052e-07
2.0671e-06
4.08088e-06
9.06496e-06
9.06468e-06
4.08057e-06
2.06802e-06
8.05263e-07
5.07835e-07
3.44269e-06
5.07837e-07
3.44318e-06
2.0674e-06
4.08445e-06
9.0661e-06
9.06629e-06
4.08496e-06
2.0703e-06
5.06879e-07
3.44498e-06
8.05613e-07
5.07008e-07
3.44416e-06
2.06988e-06
4.08479e-06
9.06605e-06
9.06638e-06
4.08485e-06
2.06876e-06
8.05271e-07
3.43991e-06
5.07461e-07
3.44046e-06
5.07551e-07
2.06786e-06
4.08474e-06
9.0661e-06
9.06592e-06
4.08429e-06
2.06948e-06
8.05632e-07
5.06976e-07
3.44405e-06
5.07041e-07
3.44439e-06
2.06902e-06
4.08522e-06
9.06647e-06
9.0661e-06
4.08503e-06
5.43094e-06
5.43029e-06
1.09134e-06
5.43003e-06
5.42967e-06
1.82406e-05
1.82432e-05
1.82446e-05
1.82423e-05
1.09427e-06
5.42991e-06
5.4295e-06
5.43063e-06
5.43015e-06
1.82432e-05
1.82407e-05
2.06988e-06
5.06373e-07
3.44643e-06
8.05179e-07
5.06623e-07
3.44582e-06
2.0706e-06
4.0838e-06
9.06493e-06
9.0653e-06
4.08392e-06
4.0842e-06
9.06585e-06
9.06613e-06
4.08451e-06
2.06983e-06
8.04699e-07
5.06778e-07
3.44361e-06
5.06831e-07
3.44397e-06
2.07043e-06
2.0704e-06
8.05131e-07
5.06591e-07
3.44571e-06
5.06651e-07
3.44614e-06
2.07025e-06
4.08423e-06
9.06539e-06
9.06505e-06
4.08428e-06
4.0845e-06
9.06624e-06
9.06585e-06
4.0843e-06
1.82444e-05
1.82471e-05
1.82441e-05
1.8247e-05
1.09468e-06
5.43143e-06
5.43422e-06
5.43191e-06
5.43461e-06
1.82474e-05
1.82448e-05
1.82475e-05
1.82447e-05
5.06945e-07
3.44454e-06
2.06975e-06
9.06621e-06
4.08544e-06
3.44617e-06
9.06602e-06
1.82451e-05
1.82451e-05
1.20878e-05
1.0718e-05
4.73917e-06
4.08397e-06
1.07174e-05
4.73969e-06
1.20887e-05
2.1874e-05
9.06174e-06
7.0779e-06
7.07676e-06
2.18689e-05
2.18692e-05
7.0768e-06
9.06156e-06
7.07789e-06
2.18744e-05
1.20888e-05
4.08341e-06
1.07173e-05
4.73984e-06
1.07179e-05
4.73926e-06
1.2088e-05
1.8244e-05
1.82416e-05
1.20952e-05
4.73578e-06
1.07261e-05
4.08063e-06
4.73632e-06
1.07256e-05
1.20959e-05
2.1885e-05
9.06604e-06
7.07796e-06
7.07683e-06
2.18805e-05
2.188e-05
7.07655e-06
9.06567e-06
7.07765e-06
2.18846e-05
1.20963e-05
4.08011e-06
4.73668e-06
1.07256e-05
4.73603e-06
1.07261e-05
1.20957e-05
1.82453e-05
1.82425e-05
9.70697e-06
2.1556e-05
2.1555e-05
2.15516e-05
2.15505e-05
9.70537e-06
4.51227e-06
2.77857e-06
5.4312e-06
9.38934e-06
2.77851e-06
9.38978e-06
4.51308e-06
4.51854e-06
2.77926e-06
5.43384e-06
9.39371e-06
2.77909e-06
9.39426e-06
4.5192e-06
4.51269e-06
9.38978e-06
5.43197e-06
2.77871e-06
2.77889e-06
9.3893e-06
4.51195e-06
4.51908e-06
9.39444e-06
5.43458e-06
2.77949e-06
2.77956e-06
9.39388e-06
4.51842e-06
9.70542e-06
2.15515e-05
2.15503e-05
2.15559e-05
2.15548e-05
9.70693e-06
4.51216e-06
2.77834e-06
9.38952e-06
5.43154e-06
4.5128e-06
2.77822e-06
9.39005e-06
4.51854e-06
2.7796e-06
9.39424e-06
5.43425e-06
4.51921e-06
2.77952e-06
9.39474e-06
9.70537e-06
2.15519e-05
2.15509e-05
9.70689e-06
2.15564e-05
2.15553e-05
1.824e-05
1.82378e-05
1.82458e-05
1.82434e-05
9.70035e-06
2.15487e-05
2.15483e-05
2.15442e-05
2.15438e-05
9.69882e-06
4.50841e-06
2.77629e-06
5.42789e-06
9.38497e-06
9.38556e-06
2.77604e-06
4.50904e-06
4.51431e-06
2.77749e-06
5.42959e-06
9.39008e-06
9.3906e-06
2.7772e-06
4.51498e-06
4.50896e-06
9.38587e-06
5.4287e-06
2.77596e-06
9.38525e-06
4.50837e-06
2.77623e-06
4.51481e-06
9.39074e-06
5.43032e-06
2.77738e-06
9.39022e-06
4.51409e-06
2.77755e-06
9.69872e-06
2.15438e-05
2.15434e-05
2.15484e-05
2.15479e-05
9.70017e-06
1.82387e-05
1.82409e-05
1.82437e-05
1.8246e-05
9.69896e-06
2.15446e-05
2.15442e-05
9.70043e-06
2.15491e-05
2.15487e-05
4.50939e-06
2.7752e-06
5.42906e-06
9.38639e-06
9.38585e-06
2.77539e-06
4.50855e-06
4.51504e-06
2.77668e-06
5.43039e-06
9.39109e-06
9.39056e-06
2.77685e-06
4.51424e-06
4.50858e-06
9.38558e-06
2.77511e-06
5.42826e-06
4.50923e-06
9.38618e-06
2.77494e-06
4.51426e-06
9.3904e-06
2.77653e-06
5.4296e-06
4.51496e-06
9.39094e-06
2.77638e-06
9.70045e-06
2.15494e-05
2.1549e-05
2.15449e-05
2.15445e-05
9.69898e-06
1.20881e-05
1.07181e-05
4.73809e-06
4.08321e-06
1.07175e-05
4.73852e-06
1.2089e-05
2.18793e-05
9.06379e-06
7.08067e-06
7.07969e-06
2.18744e-05
2.18746e-05
7.0797e-06
9.06355e-06
7.08067e-06
2.18795e-05
1.2089e-05
4.08276e-06
1.07175e-05
4.73857e-06
1.0718e-05
4.73811e-06
1.20882e-05
1.20886e-05
1.07174e-05
4.73948e-06
4.08342e-06
1.20877e-05
1.0718e-05
4.73898e-06
2.187e-05
9.0621e-06
7.07709e-06
2.18753e-05
7.07813e-06
2.18748e-05
7.07791e-06
9.06225e-06
2.18695e-05
7.07691e-06
1.20876e-05
4.08378e-06
1.07179e-05
4.73891e-06
1.20885e-05
1.07174e-05
4.73943e-06
1.20889e-05
1.07176e-05
4.73831e-06
4.08257e-06
1.20881e-05
1.07181e-05
4.73785e-06
2.1875e-05
9.0638e-06
7.07961e-06
7.0806e-06
2.18799e-05
2.18797e-05
7.08061e-06
9.064e-06
2.18748e-05
7.07963e-06
1.20881e-05
4.08298e-06
1.07182e-05
4.7377e-06
1.07176e-05
4.73819e-06
1.20889e-05
9.69803e-06
2.15522e-05
2.15551e-05
2.15475e-05
2.15504e-05
9.69662e-06
4.51195e-06
2.77615e-06
5.42975e-06
9.3904e-06
9.39097e-06
2.77593e-06
4.51257e-06
4.50511e-06
2.7737e-06
5.42674e-06
9.38687e-06
2.77345e-06
9.38741e-06
4.50581e-06
4.51263e-06
9.39127e-06
5.43045e-06
2.77608e-06
9.39067e-06
2.77629e-06
4.51203e-06
4.50567e-06
9.38762e-06
5.42755e-06
2.77359e-06
2.77373e-06
9.38705e-06
4.50499e-06
9.69635e-06
2.15469e-05
2.15499e-05
2.15515e-05
2.15545e-05
9.6978e-06
1.82481e-05
1.82456e-05
1.82425e-05
1.82447e-05
9.69693e-06
2.15481e-05
2.1551e-05
9.69832e-06
2.15526e-05
2.15555e-05
4.51307e-06
2.77535e-06
5.43062e-06
9.3919e-06
2.77554e-06
9.39128e-06
4.51228e-06
4.50616e-06
2.77306e-06
5.42768e-06
9.38816e-06
9.38758e-06
2.77323e-06
4.50545e-06
4.5122e-06
9.39097e-06
2.77533e-06
5.4298e-06
2.77513e-06
4.51292e-06
9.39157e-06
4.50526e-06
9.38729e-06
2.77285e-06
5.42683e-06
4.50583e-06
9.3879e-06
2.77254e-06
9.69848e-06
2.1553e-05
2.15559e-05
2.15485e-05
2.15513e-05
9.69708e-06
1.82461e-05
1.82485e-05
1.20935e-05
1.07254e-05
4.73538e-06
4.08065e-06
1.07248e-05
4.73587e-06
1.20944e-05
2.18823e-05
9.06488e-06
7.07582e-06
7.07478e-06
2.18771e-05
2.18774e-05
7.07509e-06
9.06461e-06
7.07602e-06
2.18826e-05
1.20945e-05
4.08004e-06
1.07247e-05
4.73604e-06
1.07253e-05
4.73546e-06
1.20937e-05
1.20956e-05
4.73589e-06
1.07255e-05
4.08017e-06
1.20949e-05
4.73535e-06
1.0726e-05
2.18795e-05
9.06549e-06
7.076e-06
2.18843e-05
7.07706e-06
2.18844e-05
7.07731e-06
9.06577e-06
2.18797e-05
7.07623e-06
1.20946e-05
4.08052e-06
4.73515e-06
1.07258e-05
1.20954e-05
4.73566e-06
1.07253e-05
1.20944e-05
1.07249e-05
4.73571e-06
4.0806e-06
1.20935e-05
1.07254e-05
4.73528e-06
2.18778e-05
9.06469e-06
7.07562e-06
7.07658e-06
2.1883e-05
2.18828e-05
7.07629e-06
9.06495e-06
2.18777e-05
7.07532e-06
1.20936e-05
4.08103e-06
1.07253e-05
4.73558e-06
1.07248e-05
4.73592e-06
1.20946e-05
1.20942e-05
4.73837e-06
1.07244e-05
4.08491e-06
4.73904e-06
1.07239e-05
1.20949e-05
2.18857e-05
9.06641e-06
7.07968e-06
7.07867e-06
2.1881e-05
2.18807e-05
7.07857e-06
9.06606e-06
7.07955e-06
2.18854e-05
1.20952e-05
4.08444e-06
4.73926e-06
1.07239e-05
4.73874e-06
1.07244e-05
1.20944e-05
1.20923e-05
1.07231e-05
4.74027e-06
4.08508e-06
1.07224e-05
4.74059e-06
1.20932e-05
2.1883e-05
9.06634e-06
7.08e-06
7.07913e-06
2.1878e-05
2.18784e-05
7.07927e-06
9.06607e-06
7.08018e-06
2.18833e-05
1.2093e-05
4.08444e-06
1.07222e-05
4.74034e-06
1.07229e-05
4.74003e-06
1.2092e-05
1.20946e-05
4.73846e-06
1.07238e-05
4.08432e-06
1.20939e-05
4.73787e-06
1.07244e-05
2.18802e-05
9.06582e-06
7.07827e-06
7.07931e-06
2.1885e-05
2.18851e-05
7.07942e-06
9.06615e-06
2.18804e-05
7.07841e-06
1.20936e-05
4.08476e-06
4.73771e-06
1.07243e-05
4.73819e-06
1.07238e-05
1.20944e-05
1.20933e-05
1.07226e-05
4.74066e-06
4.08489e-06
1.20924e-05
1.07232e-05
4.74031e-06
2.18786e-05
9.06616e-06
7.07929e-06
7.08027e-06
2.18834e-05
2.18835e-05
7.08025e-06
9.06641e-06
2.18786e-05
7.07932e-06
1.20924e-05
4.08543e-06
1.07233e-05
4.74034e-06
1.07227e-05
4.74076e-06
1.20932e-05
9.70159e-06
2.15475e-05
2.1548e-05
2.15431e-05
2.15437e-05
9.69998e-06
4.51539e-06
2.77808e-06
5.43006e-06
9.38977e-06
9.39022e-06
2.7777e-06
4.51613e-06
4.50998e-06
2.77752e-06
5.42962e-06
9.38579e-06
2.77717e-06
9.38628e-06
4.51073e-06
4.5159e-06
9.39015e-06
5.43082e-06
2.77707e-06
9.38972e-06
2.77734e-06
4.51513e-06
4.51058e-06
9.38637e-06
5.43037e-06
2.77767e-06
2.77781e-06
9.38587e-06
4.5099e-06
9.70008e-06
2.15432e-05
2.15437e-05
2.15475e-05
2.15481e-05
9.70166e-06
1.82431e-05
1.82407e-05
1.82421e-05
1.82447e-05
9.70004e-06
2.15432e-05
2.15437e-05
9.70154e-06
2.15476e-05
2.15481e-05
4.51615e-06
2.77686e-06
5.43069e-06
9.39017e-06
2.77699e-06
9.38969e-06
4.51534e-06
4.51073e-06
2.77695e-06
5.43014e-06
9.38645e-06
9.38592e-06
2.77715e-06
4.50996e-06
4.5153e-06
9.38969e-06
2.77666e-06
5.42988e-06
2.77641e-06
4.51601e-06
9.39015e-06
4.50994e-06
9.38591e-06
2.77703e-06
5.42943e-06
4.51071e-06
9.38637e-06
2.77676e-06
9.70153e-06
2.15478e-05
2.15483e-05
2.15433e-05
2.15439e-05
9.70006e-06
1.82407e-05
1.82431e-05
1.20925e-05
4.73971e-06
1.07226e-05
4.08413e-06
4.74005e-06
1.07219e-05
1.20935e-05
2.1883e-05
9.06527e-06
7.07878e-06
7.07797e-06
2.1878e-05
2.18783e-05
7.07821e-06
9.06501e-06
7.07906e-06
2.18831e-05
1.20932e-05
4.0835e-06
4.73966e-06
1.07216e-05
4.73938e-06
1.07223e-05
1.20922e-05
1.20907e-05
4.74034e-06
1.07224e-05
4.08455e-06
4.74075e-06
1.07217e-05
1.20918e-05
2.18794e-05
9.06614e-06
7.08227e-06
7.08106e-06
2.18743e-05
2.18743e-05
7.08095e-06
9.06583e-06
7.08211e-06
2.18796e-05
1.20915e-05
4.08405e-06
4.74067e-06
1.07216e-05
4.74014e-06
1.07222e-05
1.20904e-05
1.20934e-05
4.74009e-06
1.07221e-05
4.08397e-06
1.20926e-05
4.7396e-06
1.07229e-05
2.18782e-05
9.0651e-06
7.07838e-06
7.07933e-06
2.18829e-05
2.1883e-05
7.07921e-06
9.06534e-06
2.18783e-05
7.07833e-06
1.20925e-05
4.08461e-06
4.73942e-06
1.07231e-05
4.73999e-06
1.07224e-05
1.20933e-05
1.20921e-05
4.74081e-06
1.07219e-05
4.0842e-06
1.20911e-05
4.7404e-06
1.07226e-05
2.18747e-05
9.06591e-06
7.08061e-06
7.08182e-06
2.188e-05
2.18797e-05
7.08194e-06
9.06616e-06
2.18745e-05
7.08075e-06
1.20913e-05
4.08467e-06
4.74052e-06
1.07228e-05
4.74097e-06
1.07222e-05
1.20923e-05
1.82469e-05
1.82446e-05
1.82467e-05
1.82444e-05
9.7054e-06
2.15517e-05
2.15506e-05
9.70692e-06
2.1556e-05
2.15551e-05
4.5127e-06
2.77784e-06
5.43207e-06
9.3899e-06
4.51193e-06
2.77805e-06
9.38937e-06
4.51933e-06
2.77913e-06
5.43485e-06
9.39467e-06
4.51846e-06
2.7793e-06
9.3942e-06
4.51194e-06
9.38933e-06
2.77801e-06
5.43128e-06
4.51272e-06
2.77772e-06
9.38981e-06
4.51855e-06
9.39405e-06
2.77888e-06
5.43407e-06
4.51924e-06
2.77885e-06
9.3946e-06
9.70684e-06
2.15562e-05
2.15552e-05
9.70533e-06
2.15517e-05
2.15508e-05
1.82449e-05
1.82473e-05
1.82449e-05
1.82473e-05
2.18834e-05
7.08021e-06
9.06656e-06
2.18786e-05
7.0792e-06
1.20931e-05
4.08503e-06
1.07228e-05
4.74066e-06
1.20923e-05
1.07234e-05
4.7402e-06
9.06644e-06
1.82476e-05
1.82476e-05
1.4875e-07
1.48925e-07
2.86827e-07
1.48794e-07
1.48982e-07
7.28696e-08
7.28693e-08
2.63381e-06
1.72274e-06
1.72283e-06
1.09243e-06
1.72192e-06
1.72201e-06
2.63419e-06
2.63372e-06
1.72264e-06
1.72276e-06
1.09196e-06
2.63408e-06
1.72185e-06
1.72188e-06
2.63132e-06
1.7221e-06
1.72229e-06
1.09191e-06
1.72109e-06
1.72129e-06
2.63162e-06
2.63135e-06
1.09344e-06
1.71995e-06
1.72009e-06
1.72077e-06
1.72092e-06
2.63088e-06
2.62878e-06
1.72092e-06
1.7204e-06
1.0911e-06
1.71943e-06
1.71995e-06
2.62909e-06
2.62911e-06
1.09263e-06
1.71895e-06
1.71841e-06
1.71976e-06
1.71921e-06
2.6288e-06
2.63244e-06
1.72274e-06
1.72292e-06
1.09111e-06
1.72194e-06
1.72173e-06
2.6327e-06
2.63264e-06
1.09357e-06
1.72057e-06
1.72079e-06
1.72139e-06
1.7216e-06
2.63225e-06
2.63363e-06
1.09425e-06
1.72136e-06
1.72152e-06
2.63339e-06
1.72213e-06
1.7223e-06
1.48718e-07
1.48718e-07
2.87043e-07
1.48815e-07
1.48805e-07
7.28473e-08
7.28478e-08
1.4885e-07
1.48353e-07
2.86382e-07
1.4893e-07
1.48464e-07
7.28112e-08
7.2811e-08
1.48367e-07
1.48241e-07
2.86229e-07
1.48475e-07
1.48333e-07
7.27182e-08
7.27171e-08
2.86797e-07
1.48747e-07
1.49003e-07
1.48792e-07
1.49008e-07
7.28889e-08
7.28894e-08
2.86926e-07
1.48778e-07
1.48796e-07
1.48784e-07
1.48809e-07
7.28557e-08
7.28568e-08
2.86323e-07
1.48943e-07
1.48463e-07
1.48938e-07
1.48475e-07
7.28142e-08
7.2817e-08
2.86219e-07
1.48416e-07
1.48321e-07
1.48469e-07
1.48329e-07
7.27285e-08
7.27249e-08
1.36171e-06
2.33174e-06
1.2196e-06
2.06877e-06
2.33195e-06
1.2207e-06
1.35977e-06
1.5645e-06
1.98742e-06
3.44037e-06
2.82815e-06
1.98647e-06
2.82728e-06
1.56623e-06
1.56625e-06
2.82718e-06
3.44088e-06
1.98668e-06
1.98741e-06
2.82842e-06
1.56452e-06
1.35943e-06
2.0684e-06
2.33258e-06
1.22018e-06
2.33244e-06
1.21905e-06
1.36169e-06
1.36248e-06
1.22048e-06
2.3343e-06
2.0693e-06
1.22158e-06
2.33351e-06
1.36025e-06
1.56605e-06
1.99062e-06
3.44375e-06
2.83076e-06
1.98964e-06
2.83048e-06
1.56765e-06
1.56719e-06
2.83081e-06
3.44427e-06
1.98983e-06
1.99056e-06
2.8311e-06
1.56588e-06
1.36022e-06
2.06797e-06
1.22082e-06
2.33381e-06
1.21973e-06
2.33386e-06
1.36231e-06
2.63309e-06
1.09439e-06
1.72236e-06
1.72247e-06
1.72312e-06
1.72324e-06
2.63257e-06
2.63083e-06
1.0939e-06
1.72116e-06
1.72138e-06
2.63051e-06
1.72202e-06
1.72224e-06
2.63079e-06
1.0915e-06
1.72082e-06
1.72104e-06
2.63113e-06
1.71966e-06
1.71983e-06
1.36141e-06
2.33194e-06
1.22034e-06
2.06864e-06
2.33159e-06
1.22158e-06
1.35923e-06
1.56513e-06
1.98937e-06
3.44194e-06
2.83081e-06
2.83035e-06
1.98841e-06
1.56689e-06
1.56658e-06
2.83031e-06
3.44262e-06
1.98861e-06
2.83089e-06
1.98933e-06
1.5652e-06
1.35942e-06
2.0677e-06
2.33192e-06
1.22156e-06
2.33187e-06
1.22025e-06
1.36125e-06
1.36142e-06
2.33206e-06
1.22032e-06
2.06777e-06
2.33182e-06
1.22157e-06
1.35947e-06
1.56492e-06
1.98878e-06
3.44183e-06
2.83079e-06
2.83001e-06
1.98778e-06
1.56662e-06
1.56603e-06
2.82994e-06
3.44244e-06
1.98798e-06
2.83017e-06
1.56462e-06
1.98872e-06
1.35905e-06
2.06799e-06
2.33231e-06
1.2215e-06
2.33241e-06
1.22024e-06
1.36122e-06
1.3595e-06
2.33253e-06
1.22002e-06
2.06878e-06
1.36175e-06
2.33271e-06
1.21819e-06
1.56676e-06
1.98867e-06
3.44287e-06
2.82999e-06
1.98934e-06
2.83032e-06
1.56508e-06
1.5651e-06
2.83106e-06
1.98907e-06
3.44218e-06
1.98838e-06
1.56683e-06
2.83062e-06
1.36192e-06
2.06837e-06
2.33242e-06
1.21849e-06
2.33274e-06
1.21972e-06
1.35916e-06
1.35948e-06
2.33179e-06
1.22e-06
2.06793e-06
1.36138e-06
2.33133e-06
1.21814e-06
1.56653e-06
1.98803e-06
3.4424e-06
2.83028e-06
2.83062e-06
1.98873e-06
1.56454e-06
1.56474e-06
2.83057e-06
1.98847e-06
3.44172e-06
1.56617e-06
2.83e-06
1.98776e-06
1.36105e-06
2.0688e-06
2.33114e-06
1.21847e-06
2.33065e-06
1.21967e-06
1.35926e-06
2.62826e-06
1.09327e-06
1.72006e-06
1.71952e-06
1.72036e-06
1.72091e-06
2.62784e-06
2.6284e-06
1.09078e-06
1.71977e-06
1.71919e-06
1.71862e-06
2.62868e-06
1.71807e-06
1.36188e-06
2.33105e-06
1.22117e-06
2.06674e-06
2.3316e-06
1.22245e-06
1.35965e-06
1.5658e-06
1.98957e-06
3.44221e-06
2.83066e-06
2.83028e-06
1.98856e-06
1.56763e-06
1.56666e-06
2.82953e-06
3.44278e-06
1.98869e-06
2.8301e-06
1.98947e-06
1.56443e-06
1.35968e-06
2.06666e-06
2.33166e-06
1.22244e-06
2.33175e-06
1.22116e-06
1.36205e-06
1.36173e-06
1.22112e-06
2.33139e-06
2.06712e-06
1.22238e-06
2.33082e-06
1.35985e-06
1.56599e-06
1.99e-06
3.44273e-06
2.82996e-06
2.82968e-06
1.989e-06
1.56778e-06
1.56691e-06
2.82957e-06
3.44336e-06
1.98913e-06
2.83031e-06
1.56472e-06
1.9899e-06
1.35941e-06
2.06749e-06
1.22233e-06
2.33133e-06
1.22107e-06
2.33118e-06
1.36156e-06
1.35966e-06
2.33049e-06
1.22083e-06
2.0675e-06
1.36157e-06
2.33082e-06
1.2189e-06
1.56685e-06
1.98863e-06
3.44264e-06
2.82905e-06
1.98935e-06
2.83013e-06
1.56565e-06
1.56504e-06
2.83043e-06
1.98917e-06
3.44193e-06
1.98841e-06
1.56654e-06
2.83011e-06
1.36123e-06
2.06695e-06
2.33016e-06
1.21913e-06
2.33085e-06
1.22035e-06
1.35941e-06
1.35991e-06
1.22083e-06
2.33156e-06
2.06807e-06
1.36178e-06
1.21895e-06
2.33101e-06
1.56681e-06
1.98906e-06
3.4433e-06
2.82898e-06
2.82931e-06
1.98979e-06
1.56557e-06
1.56511e-06
2.82937e-06
1.98961e-06
3.44259e-06
1.56675e-06
2.82944e-06
1.98885e-06
1.36176e-06
2.06805e-06
1.21919e-06
2.33133e-06
1.22043e-06
2.33177e-06
1.35945e-06
1.36317e-06
1.2215e-06
2.33431e-06
2.07021e-06
1.22281e-06
2.33385e-06
1.3611e-06
1.5661e-06
1.99137e-06
3.44424e-06
2.83248e-06
1.99033e-06
2.83245e-06
1.56932e-06
1.56766e-06
2.83193e-06
3.44475e-06
1.99042e-06
1.9912e-06
2.83238e-06
1.56544e-06
1.36118e-06
2.06953e-06
1.22284e-06
2.33435e-06
1.22156e-06
2.33431e-06
1.36321e-06
1.35975e-06
2.33118e-06
1.21928e-06
2.06864e-06
1.36168e-06
2.33171e-06
1.21765e-06
1.56579e-06
1.98663e-06
3.44045e-06
2.8273e-06
1.56399e-06
1.98735e-06
2.82804e-06
1.56427e-06
2.8284e-06
1.98715e-06
3.43982e-06
1.566e-06
1.98641e-06
2.82689e-06
1.36121e-06
2.06832e-06
2.33143e-06
1.2181e-06
1.35932e-06
2.3311e-06
1.21926e-06
1.36113e-06
1.22115e-06
2.3344e-06
2.06957e-06
1.363e-06
1.21919e-06
2.33452e-06
1.56764e-06
1.99023e-06
3.44453e-06
2.83232e-06
2.83282e-06
1.99098e-06
1.56604e-06
1.56587e-06
2.83274e-06
1.99087e-06
3.44386e-06
1.5672e-06
2.83179e-06
1.99009e-06
1.36271e-06
2.06985e-06
1.21941e-06
2.33396e-06
1.22066e-06
2.33445e-06
1.36059e-06
2.63186e-06
1.09425e-06
1.72179e-06
1.72202e-06
1.72287e-06
1.72267e-06
2.63155e-06
2.63197e-06
1.09156e-06
1.72145e-06
1.72165e-06
1.72026e-06
2.63226e-06
1.72049e-06
1.3632e-06
1.22154e-06
2.33396e-06
2.07059e-06
1.22281e-06
2.3346e-06
1.36121e-06
1.56785e-06
1.99182e-06
3.44582e-06
2.83307e-06
1.99083e-06
2.83264e-06
1.56945e-06
1.569e-06
2.83283e-06
3.44636e-06
1.99099e-06
1.99175e-06
2.83272e-06
1.56733e-06
1.36092e-06
2.0706e-06
1.22279e-06
2.33435e-06
1.22152e-06
2.33455e-06
1.36314e-06
1.36041e-06
1.22019e-06
2.33447e-06
2.06922e-06
1.36231e-06
1.21836e-06
2.33458e-06
1.56796e-06
1.98978e-06
3.44412e-06
2.83094e-06
1.56625e-06
1.99051e-06
2.83182e-06
1.56581e-06
2.83141e-06
1.9903e-06
3.44346e-06
1.56743e-06
1.98957e-06
2.83117e-06
1.36197e-06
2.07026e-06
1.21874e-06
2.33397e-06
1.35994e-06
1.21991e-06
2.33418e-06
1.36123e-06
1.22118e-06
2.33476e-06
2.07053e-06
1.36313e-06
1.21934e-06
2.33427e-06
1.56852e-06
1.9909e-06
3.44622e-06
2.83249e-06
2.83296e-06
1.99163e-06
1.56671e-06
1.56699e-06
2.83345e-06
1.99145e-06
3.44562e-06
1.5688e-06
2.83314e-06
1.9907e-06
1.36273e-06
2.06994e-06
1.21963e-06
2.33517e-06
1.22084e-06
2.33502e-06
1.36085e-06
2.63289e-06
1.09186e-06
1.72204e-06
1.72216e-06
2.63323e-06
1.72098e-06
1.72112e-06
1.56688e-06
1.99084e-06
2.8322e-06
3.44411e-06
1.99009e-06
1.56815e-06
2.83218e-06
1.36096e-06
2.0696e-06
1.22117e-06
2.33357e-06
1.21968e-06
1.36286e-06
2.33408e-06
1.99154e-06
3.44575e-06
1.9908e-06
2.69074e-07
7.79237e-07
7.78751e-07
1.07212e-06
2.73472e-07
7.86294e-07
7.86192e-07
1.07785e-06
2.76999e-07
7.92021e-07
7.92074e-07
1.08296e-06
2.79657e-07
7.96241e-07
7.9629e-07
1.08634e-06
2.81558e-07
7.99113e-07
7.99081e-07
1.08804e-06
2.82873e-07
8.00962e-07
8.00828e-07
1.09047e-06
2.83637e-07
8.02142e-07
8.01986e-07
1.09228e-06
2.84167e-07
8.03052e-07
8.02731e-07
1.09241e-06
2.84518e-07
8.03344e-07
8.03369e-07
1.0925e-06
2.84654e-07
8.03298e-07
8.03594e-07
1.09286e-06
2.84955e-07
8.03177e-07
8.03762e-07
1.09242e-06
2.85122e-07
8.03167e-07
8.04238e-07
1.09161e-06
2.85381e-07
8.03181e-07
8.04295e-07
1.09129e-06
2.85576e-07
8.03359e-07
8.04252e-07
1.09188e-06
2.85695e-07
8.03642e-07
8.04194e-07
1.09248e-06
2.85835e-07
8.0366e-07
8.04116e-07
1.09213e-06
2.85865e-07
8.03683e-07
8.04012e-07
1.0926e-06
2.85916e-07
8.03701e-07
8.03967e-07
1.09213e-06
2.85996e-07
8.03768e-07
8.0393e-07
1.09286e-06
2.86134e-07
8.03969e-07
8.03971e-07
1.09269e-06
2.86231e-07
8.04156e-07
8.04063e-07
1.09313e-06
2.86359e-07
8.04251e-07
8.04128e-07
1.09364e-06
2.86409e-07
8.04698e-07