/*--------------------------------*- C++ -*----------------------------------*\
| =========                 |                                                 |
| \\      /  F ield         | OpenFOAM: The Open Source CFD Toolbox           |
|  \\    /   O peration     | Version:  v1906                                 |
|   \\  /    A nd           | Web:      www.OpenFOAM.com                      |
|    \\/     M anipulation  |                                                 |
\*---------------------------------------------------------------------------*/
FoamFile
{
    version     2.0;
    format      ascii;
    class       volScalarField;
    location    "200";
    object      k;
}
// * * * * * * * * * * * * * * * * * * * * * * * * * * * * * * * * * * * * * //

dimensions      [0 2 -2 0 0 0 0];


internalField   nonuniform List<scalar> 
171728
(
3.86014e-05
3.29889e-05
3.3015e-05
3.86213e-05
3.2996e-05
3.30366e-05
3.30531e-05
3.30673e-05
3.8636e-05
3.30207e-05
3.30485e-05
3.86694e-05
1.83574e-05
1.8383e-05
1.83728e-05
1.84005e-05
6.89455e-05
6.89417e-05
6.59297e-05
6.59167e-05
6.35427e-05
7.06698e-05
6.35916e-05
6.35352e-05
7.06826e-05
7.06613e-05
6.35923e-05
5.0703e-05
5.86275e-05
2.53141e-05
2.52141e-05
5.08106e-05
5.06947e-05
3.29199e-05
5.86417e-05
2.53407e-05
5.85783e-05
2.52399e-05
5.08139e-05
6.89483e-05
6.89293e-05
3.85618e-05
6.593e-05
6.59329e-05
6.58897e-05
6.59016e-05
6.89437e-05
6.89262e-05
7.06777e-05
6.36268e-05
5.86264e-05
2.53593e-05
5.0836e-05
7.06825e-05
6.36245e-05
2.53634e-05
5.865e-05
5.08319e-05
5.07355e-05
3.29775e-05
5.8625e-05
2.53769e-05
5.85673e-05
2.52971e-05
5.08272e-05
6.3559e-05
7.06707e-05
7.06522e-05
6.36019e-05
5.07324e-05
3.29751e-05
2.53785e-05
5.86521e-05
2.52811e-05
5.85885e-05
5.08401e-05
6.35535e-05
7.06804e-05
7.0658e-05
6.36091e-05
6.89485e-05
6.59353e-05
6.59207e-05
6.89385e-05
5.07149e-05
2.53462e-05
5.86134e-05
2.5267e-05
5.08176e-05
5.07037e-05
3.29563e-05
2.53622e-05
5.86526e-05
2.52659e-05
5.85869e-05
5.0808e-05
6.35395e-05
7.06619e-05
6.35898e-05
6.35367e-05
7.06777e-05
7.0656e-05
6.3587e-05
3.86117e-05
6.59419e-05
6.59268e-05
6.59081e-05
6.58949e-05
6.89484e-05
6.8931e-05
6.89437e-05
6.89267e-05
6.89353e-05
6.89317e-05
6.86625e-05
5.73275e-05
6.59212e-05
7.04049e-05
7.03929e-05
5.72909e-05
6.87045e-05
6.87059e-05
5.72936e-05
6.59082e-05
7.0404e-05
7.03935e-05
5.72735e-05
6.87117e-05
9.15478e-05
7.15414e-05
7.1532e-05
7.15283e-05
7.15193e-05
9.15528e-05
6.95716e-05
6.92362e-05
6.72386e-05
6.35649e-05
6.95637e-05
6.92432e-05
6.72554e-05
6.97005e-05
7.06624e-05
7.67974e-05
7.6787e-05
6.9715e-05
6.95724e-05
6.35728e-05
6.92513e-05
6.72825e-05
6.92445e-05
6.72699e-05
6.958e-05
6.95763e-05
6.92369e-05
6.72488e-05
6.35627e-05
6.95688e-05
6.92439e-05
6.72668e-05
6.97076e-05
7.06749e-05
7.6828e-05
7.68148e-05
6.97218e-05
6.97139e-05
7.67953e-05
7.06695e-05
6.96998e-05
7.68086e-05
6.95769e-05
6.35751e-05
6.9252e-05
6.72945e-05
6.92453e-05
6.72773e-05
6.95844e-05
6.89379e-05
6.89398e-05
9.15298e-05
7.15124e-05
7.1519e-05
9.15222e-05
7.15254e-05
7.1532e-05
6.86904e-05
5.73117e-05
6.59193e-05
7.04065e-05
5.72871e-05
7.03986e-05
6.87152e-05
6.86745e-05
5.74267e-05
6.59282e-05
7.04027e-05
7.03918e-05
5.74139e-05
6.86978e-05
6.8677e-05
7.03854e-05
5.72268e-05
6.59037e-05
5.72599e-05
6.86659e-05
7.03934e-05
6.86611e-05
7.03787e-05
5.73459e-05
6.59101e-05
6.86484e-05
7.03913e-05
5.73885e-05
9.15416e-05
7.15323e-05
7.15386e-05
7.15191e-05
7.15255e-05
9.15489e-05
6.89335e-05
6.89363e-05
6.97068e-05
7.06685e-05
7.68294e-05
7.68164e-05
6.97207e-05
6.95821e-05
6.36148e-05
6.73179e-05
6.92591e-05
6.73019e-05
6.92528e-05
6.95893e-05
6.97067e-05
7.06733e-05
7.68145e-05
7.68036e-05
6.97209e-05
6.95816e-05
6.36082e-05
6.92588e-05
6.73154e-05
6.92523e-05
6.72965e-05
6.95892e-05
6.95751e-05
6.72662e-05
6.92363e-05
6.35766e-05
6.95676e-05
6.72832e-05
6.92428e-05
6.97023e-05
7.06641e-05
7.68206e-05
7.68107e-05
6.97161e-05
6.97091e-05
7.67909e-05
7.06591e-05
6.96953e-05
7.68041e-05
6.95756e-05
6.35846e-05
6.73039e-05
6.92504e-05
6.72898e-05
6.9244e-05
6.95827e-05
6.95787e-05
6.92382e-05
6.72669e-05
6.35809e-05
6.95709e-05
6.9245e-05
6.72835e-05
6.97077e-05
7.06713e-05
7.6819e-05
7.68055e-05
6.97219e-05
6.97141e-05
7.67861e-05
7.06687e-05
6.96999e-05
7.6799e-05
6.95796e-05
6.3591e-05
6.92529e-05
6.731e-05
6.92463e-05
6.72985e-05
6.9587e-05
6.89386e-05
6.87393e-05
5.73544e-05
6.59309e-05
7.04168e-05
5.7341e-05
7.04075e-05
6.87538e-05
6.86811e-05
5.7365e-05
6.59139e-05
7.04008e-05
7.03946e-05
5.7341e-05
6.87055e-05
9.1562e-05
7.15345e-05
7.15405e-05
7.15225e-05
7.15284e-05
9.15654e-05
6.89289e-05
6.95688e-05
6.72453e-05
6.92334e-05
6.35649e-05
6.95613e-05
6.72653e-05
6.92403e-05
6.96976e-05
7.06555e-05
7.6795e-05
7.6786e-05
6.97112e-05
6.97045e-05
7.67783e-05
6.95693e-05
6.35751e-05
6.72881e-05
6.92484e-05
6.72737e-05
6.92417e-05
6.95767e-05
6.95732e-05
6.7239e-05
6.92351e-05
6.35591e-05
6.95655e-05
6.72574e-05
6.92421e-05
6.97024e-05
7.06687e-05
7.6807e-05
7.67976e-05
6.9717e-05
6.97096e-05
7.67804e-05
7.06666e-05
6.9695e-05
7.67911e-05
6.95737e-05
6.3577e-05
6.72781e-05
6.92503e-05
6.72627e-05
6.92436e-05
6.9581e-05
9.15566e-05
7.15257e-05
7.15177e-05
9.15487e-05
7.15386e-05
7.15305e-05
6.86934e-05
5.73762e-05
6.59338e-05
7.04119e-05
5.73513e-05
7.04012e-05
6.87201e-05
6.87388e-05
5.737e-05
6.59189e-05
7.04137e-05
5.73436e-05
7.04047e-05
6.8764e-05
6.86799e-05
7.03885e-05
5.72896e-05
6.59171e-05
6.86641e-05
5.7322e-05
7.04001e-05
6.8726e-05
7.03925e-05
5.72838e-05
6.59042e-05
6.87135e-05
5.73157e-05
7.04e-05
9.15697e-05
7.15447e-05
7.15369e-05
7.15319e-05
7.15241e-05
9.15754e-05
6.89385e-05
6.89409e-05
6.89339e-05
6.89364e-05
5.7439e-05
3.86172e-05
4.77611e-05
4.77803e-05
4.77538e-05
4.77699e-05
5.74719e-05
5.7379e-05
3.86403e-05
4.77685e-05
4.77901e-05
4.77587e-05
4.77942e-05
5.74034e-05
5.74094e-05
3.86526e-05
4.78238e-05
4.77976e-05
4.7814e-05
4.77815e-05
5.74414e-05
5.74505e-05
3.86872e-05
4.78498e-05
4.78229e-05
4.78351e-05
4.78102e-05
5.74782e-05
1.33882e-05
1.33963e-05
1.33645e-05
1.02643e-05
1.02612e-05
1.83211e-05
1.33963e-05
1.3404e-05
1.33661e-05
1.33755e-05
1.02649e-05
1.02615e-05
1.33999e-05
1.33945e-05
1.33663e-05
1.02644e-05
1.02614e-05
1.8338e-05
1.34103e-05
1.34042e-05
1.33806e-05
1.33746e-05
1.02676e-05
1.02642e-05
4.23845e-05
5.32695e-05
4.0149e-05
5.07526e-05
4.23915e-05
5.3316e-05
4.01568e-05
4.51172e-05
4.99325e-05
5.86085e-05
5.65952e-05
4.98904e-05
5.6577e-05
4.51221e-05
4.24998e-05
5.07773e-05
5.33681e-05
4.02172e-05
5.33404e-05
4.02418e-05
4.24934e-05
4.25229e-05
5.3303e-05
4.01549e-05
5.075e-05
4.25298e-05
5.33451e-05
4.01662e-05
4.51819e-05
4.99388e-05
5.86284e-05
5.66367e-05
5.66161e-05
4.9905e-05
4.51843e-05
4.50704e-05
5.65537e-05
4.98498e-05
5.86051e-05
4.50929e-05
5.65865e-05
4.9854e-05
4.26284e-05
5.07744e-05
5.34015e-05
4.02932e-05
5.33777e-05
4.02819e-05
4.2596e-05
5.7355e-05
3.85461e-05
4.76929e-05
4.77266e-05
4.77054e-05
5.73335e-05
4.77324e-05
4.51809e-05
4.99562e-05
5.86152e-05
5.6634e-05
4.993e-05
5.66164e-05
4.51819e-05
4.26275e-05
5.08116e-05
5.34296e-05
4.03342e-05
5.34059e-05
4.03259e-05
4.26259e-05
4.51914e-05
4.99793e-05
5.86326e-05
5.66335e-05
5.66152e-05
4.99757e-05
4.51998e-05
4.26207e-05
5.08051e-05
4.03225e-05
5.34157e-05
4.03112e-05
5.3392e-05
4.26165e-05
4.25662e-05
5.3353e-05
4.0236e-05
5.0781e-05
4.25636e-05
5.33839e-05
4.02446e-05
4.52398e-05
5.00743e-05
5.86108e-05
5.66091e-05
5.00421e-05
5.65928e-05
4.52152e-05
4.5179e-05
5.65419e-05
4.99955e-05
5.85895e-05
4.51721e-05
5.00141e-05
5.65693e-05
4.26445e-05
5.08014e-05
5.34382e-05
4.0288e-05
5.33942e-05
4.03141e-05
4.26439e-05
4.25242e-05
4.022e-05
5.33332e-05
5.07778e-05
4.25376e-05
4.02302e-05
5.33786e-05
4.52048e-05
4.99588e-05
5.86387e-05
5.66534e-05
5.66294e-05
4.99529e-05
4.52094e-05
4.50914e-05
5.65714e-05
4.98806e-05
5.86145e-05
4.51169e-05
5.6601e-05
4.98928e-05
4.2638e-05
5.08041e-05
4.03203e-05
5.3433e-05
4.02938e-05
5.34026e-05
4.26296e-05
4.25126e-05
4.01833e-05
5.33247e-05
5.07655e-05
4.25133e-05
4.01591e-05
5.33555e-05
4.51599e-05
4.99992e-05
5.85952e-05
5.65874e-05
4.99589e-05
5.65692e-05
4.51642e-05
4.50908e-05
5.65447e-05
4.25898e-05
5.07854e-05
4.02929e-05
5.33951e-05
4.02852e-05
5.33689e-05
4.25881e-05
4.25425e-05
4.01786e-05
5.33035e-05
5.07506e-05
4.25542e-05
4.01554e-05
5.33403e-05
4.51672e-05
4.99864e-05
5.86349e-05
5.66056e-05
5.65913e-05
4.99831e-05
4.51772e-05
4.50926e-05
5.65355e-05
4.99183e-05
5.86152e-05
4.51076e-05
5.6565e-05
4.99285e-05
4.26437e-05
5.0777e-05
4.03044e-05
5.33904e-05
4.02954e-05
5.33682e-05
4.26073e-05
5.74239e-05
3.85939e-05
4.7746e-05
4.77338e-05
5.74115e-05
4.77717e-05
4.77193e-05
1.92441e-05
3.42275e-05
3.41815e-05
3.97873e-05
3.97988e-05
3.97305e-05
3.97048e-05
3.42012e-05
3.42029e-05
3.42086e-05
3.42152e-05
3.97273e-05
3.97098e-05
3.42171e-05
3.41958e-05
3.42261e-05
3.42067e-05
3.42192e-05
3.42372e-05
3.42233e-05
3.97138e-05
3.9686e-05
3.42012e-05
3.41908e-05
3.42031e-05
3.97514e-05
3.42235e-05
3.42022e-05
6.40909e-05
7.08541e-05
7.08562e-05
6.40766e-05
6.90731e-05
6.908e-05
6.40664e-05
7.08727e-05
7.08729e-05
6.40608e-05
1.92509e-05
1.92129e-05
1.92074e-05
1.92475e-05
1.92567e-05
1.9221e-05
1.92095e-05
5.17963e-05
5.91919e-05
2.66526e-05
3.42328e-05
5.92015e-05
2.6652e-05
5.18328e-05
6.90732e-05
6.90787e-05
5.18336e-05
2.66163e-05
5.925e-05
3.41867e-05
2.66164e-05
5.92356e-05
5.18193e-05
6.63078e-05
6.63154e-05
3.97471e-05
6.63104e-05
6.63264e-05
6.63118e-05
6.63321e-05
6.90645e-05
6.90721e-05
6.90766e-05
6.9083e-05
6.62566e-05
6.62797e-05
3.96982e-05
6.62638e-05
6.62795e-05
6.90742e-05
6.90665e-05
6.90837e-05
6.9077e-05
3.97338e-05
6.6265e-05
6.62792e-05
6.62642e-05
6.62797e-05
6.40852e-05
7.08638e-05
7.08657e-05
6.40773e-05
5.17426e-05
5.92172e-05
2.66212e-05
3.42057e-05
5.9209e-05
2.66211e-05
5.17407e-05
5.17872e-05
5.91879e-05
2.66166e-05
3.4209e-05
5.92079e-05
2.66185e-05
5.1785e-05
6.40808e-05
7.08589e-05
7.08551e-05
6.40815e-05
6.40825e-05
7.08668e-05
7.08643e-05
6.40803e-05
5.17559e-05
3.42059e-05
5.92188e-05
2.66218e-05
5.92038e-05
2.66211e-05
5.17789e-05
5.17802e-05
3.42106e-05
5.92057e-05
2.66208e-05
5.92028e-05
2.66187e-05
5.17736e-05
6.62744e-05
6.62551e-05
3.96972e-05
6.62701e-05
6.62511e-05
6.90849e-05
6.90921e-05
6.9082e-05
6.90742e-05
3.97356e-05
6.62776e-05
6.62546e-05
6.62691e-05
6.62547e-05
6.90932e-05
6.90859e-05
5.18326e-05
5.92241e-05
2.66686e-05
3.42205e-05
5.9228e-05
2.66716e-05
5.18259e-05
6.405e-05
7.08631e-05
7.08652e-05
6.40449e-05
5.17765e-05
2.66556e-05
5.92235e-05
3.42005e-05
2.66614e-05
5.9237e-05
5.18028e-05
6.406e-05
7.08719e-05
7.08711e-05
6.40502e-05
5.18188e-05
3.42229e-05
5.92337e-05
2.66741e-05
5.92292e-05
2.66724e-05
5.18111e-05
6.40594e-05
7.08656e-05
7.08639e-05
6.40581e-05
5.17611e-05
3.42009e-05
2.66661e-05
5.92351e-05
2.66635e-05
5.92385e-05
5.17969e-05
6.41262e-05
7.08763e-05
7.08777e-05
6.41258e-05
5.18167e-05
2.66245e-05
5.92611e-05
3.42219e-05
2.66243e-05
5.92583e-05
5.18235e-05
6.41052e-05
7.08741e-05
7.0876e-05
6.41063e-05
5.18128e-05
3.42353e-05
5.91893e-05
2.66525e-05
5.91943e-05
2.66516e-05
5.18226e-05
6.41244e-05
7.08765e-05
7.08759e-05
6.41237e-05
5.18086e-05
3.42217e-05
2.66234e-05
5.9248e-05
2.66236e-05
5.92528e-05
5.18282e-05
6.4116e-05
7.08763e-05
7.08746e-05
6.41273e-05
6.62731e-05
6.6279e-05
3.96778e-05
6.62727e-05
6.62869e-05
6.90708e-05
6.90776e-05
6.90777e-05
6.90718e-05
3.97139e-05
6.62766e-05
6.62828e-05
6.62694e-05
6.62864e-05
6.90776e-05
6.90715e-05
5.18434e-05
2.66059e-05
5.92536e-05
3.42024e-05
2.66057e-05
5.92651e-05
5.18529e-05
6.40926e-05
7.08672e-05
7.08696e-05
6.4081e-05
6.41019e-05
7.08724e-05
7.0874e-05
6.40961e-05
5.1836e-05
3.41883e-05
2.66156e-05
5.92475e-05
2.66157e-05
5.92404e-05
5.18392e-05
5.18149e-05
3.42015e-05
2.66055e-05
5.92681e-05
2.66054e-05
5.92551e-05
5.18432e-05
6.40917e-05
7.08704e-05
7.08684e-05
6.41082e-05
6.40987e-05
7.08742e-05
7.08723e-05
6.40959e-05
6.90805e-05
6.90874e-05
6.90778e-05
6.90853e-05
3.97926e-05
6.6308e-05
6.633e-05
6.63114e-05
6.63271e-05
6.90881e-05
6.90814e-05
6.90867e-05
6.90795e-05
2.66235e-05
5.92489e-05
5.1805e-05
7.0875e-05
6.41279e-05
5.92665e-05
7.0873e-05
6.90822e-05
6.90808e-05
6.96949e-05
6.93766e-05
6.77031e-05
6.40853e-05
6.93741e-05
6.77019e-05
6.96979e-05
6.98102e-05
7.08556e-05
7.70486e-05
7.70487e-05
6.97994e-05
6.97996e-05
7.70466e-05
7.08544e-05
7.70449e-05
6.98106e-05
6.96986e-05
6.40767e-05
6.93738e-05
6.77046e-05
6.93762e-05
6.77055e-05
6.96956e-05
6.90794e-05
6.90735e-05
6.97242e-05
6.76737e-05
6.94097e-05
6.40525e-05
6.76733e-05
6.94074e-05
6.97266e-05
6.98358e-05
7.08738e-05
7.70583e-05
7.70598e-05
6.98262e-05
6.98251e-05
7.70559e-05
7.08719e-05
7.70539e-05
6.98348e-05
6.97282e-05
6.40615e-05
6.76789e-05
6.94076e-05
6.76787e-05
6.94097e-05
6.97258e-05
6.90793e-05
6.90725e-05
9.18993e-05
7.16611e-05
7.16543e-05
7.16514e-05
7.16445e-05
9.18967e-05
6.92174e-05
5.81383e-05
6.63086e-05
7.06065e-05
5.81427e-05
7.06087e-05
6.92318e-05
6.92833e-05
5.81413e-05
6.63207e-05
7.06157e-05
5.81389e-05
7.06184e-05
6.9288e-05
6.92202e-05
7.06088e-05
6.63103e-05
5.81358e-05
5.81342e-05
7.06063e-05
6.92243e-05
6.92814e-05
7.06192e-05
6.63226e-05
5.81461e-05
5.81446e-05
7.06164e-05
6.92801e-05
9.18973e-05
7.16511e-05
7.1644e-05
7.16609e-05
7.16539e-05
9.18999e-05
6.92205e-05
5.81157e-05
7.06071e-05
6.63105e-05
6.92287e-05
5.81216e-05
7.06097e-05
6.92746e-05
5.81136e-05
7.06186e-05
6.63258e-05
6.9283e-05
5.81017e-05
7.06209e-05
9.18964e-05
7.1652e-05
7.16453e-05
9.18987e-05
7.16618e-05
7.16551e-05
6.90711e-05
6.90655e-05
6.90828e-05
6.90768e-05
9.18408e-05
7.16443e-05
7.16383e-05
7.16343e-05
7.16283e-05
9.18391e-05
6.91765e-05
5.80658e-05
6.62616e-05
7.05835e-05
7.05865e-05
5.80421e-05
6.91743e-05
6.92244e-05
5.80796e-05
6.62796e-05
7.05958e-05
7.05985e-05
5.8088e-05
6.92311e-05
6.91756e-05
7.0588e-05
6.62644e-05
5.80314e-05
7.0585e-05
6.91695e-05
5.8031e-05
6.92209e-05
7.05991e-05
6.62803e-05
5.8088e-05
7.05965e-05
6.92219e-05
5.807e-05
9.1838e-05
7.16335e-05
7.16274e-05
7.16435e-05
7.16374e-05
9.18395e-05
6.90676e-05
6.90732e-05
6.90773e-05
6.90833e-05
9.18404e-05
7.16351e-05
7.16291e-05
9.18421e-05
7.16451e-05
7.16391e-05
6.91835e-05
5.80386e-05
6.62676e-05
7.05908e-05
7.05879e-05
5.80348e-05
6.91815e-05
6.9219e-05
5.80988e-05
6.628e-05
7.06007e-05
7.0598e-05
5.80934e-05
6.92263e-05
6.91728e-05
7.05865e-05
5.80276e-05
6.62636e-05
6.91804e-05
7.05895e-05
5.80166e-05
6.9228e-05
7.05973e-05
5.80915e-05
6.62784e-05
6.92291e-05
7.06e-05
5.80792e-05
9.18431e-05
7.16458e-05
7.16399e-05
7.16358e-05
7.16299e-05
9.18412e-05
6.96972e-05
6.93772e-05
6.76915e-05
6.40821e-05
6.93747e-05
6.76892e-05
6.97004e-05
6.9823e-05
7.08653e-05
7.70844e-05
7.70863e-05
6.98126e-05
6.9813e-05
7.70866e-05
7.0864e-05
7.70853e-05
6.98234e-05
6.97004e-05
6.4085e-05
6.93741e-05
6.76879e-05
6.93768e-05
6.76916e-05
6.96971e-05
6.96974e-05
6.93743e-05
6.76995e-05
6.4088e-05
6.96943e-05
6.93767e-05
6.77006e-05
6.98011e-05
7.08567e-05
7.70517e-05
6.98123e-05
7.7049e-05
6.98113e-05
7.70456e-05
7.08573e-05
6.98002e-05
7.70455e-05
6.96939e-05
6.40761e-05
6.93765e-05
6.76978e-05
6.96971e-05
6.93742e-05
6.76967e-05
6.97003e-05
6.9375e-05
6.76877e-05
6.40829e-05
6.96971e-05
6.93774e-05
6.76893e-05
6.98138e-05
7.08649e-05
7.70866e-05
7.70854e-05
6.98242e-05
6.98238e-05
7.70854e-05
7.0866e-05
6.98134e-05
7.70866e-05
6.9697e-05
6.4079e-05
6.93776e-05
6.76859e-05
6.93751e-05
6.76846e-05
6.97002e-05
9.18115e-05
7.16475e-05
7.16576e-05
7.16371e-05
7.16474e-05
9.18107e-05
6.91915e-05
5.80521e-05
6.62718e-05
7.05985e-05
7.06014e-05
5.80583e-05
6.91817e-05
6.91422e-05
5.80371e-05
6.62501e-05
7.05923e-05
5.80415e-05
7.05951e-05
6.91424e-05
6.91928e-05
7.06026e-05
6.62724e-05
5.80567e-05
7.05997e-05
5.80542e-05
6.91868e-05
6.91437e-05
7.05962e-05
6.62517e-05
5.80446e-05
5.80382e-05
7.05933e-05
6.91435e-05
9.18082e-05
7.1636e-05
7.16465e-05
7.16462e-05
7.16565e-05
9.18102e-05
6.90916e-05
6.90853e-05
6.90752e-05
6.90808e-05
9.18132e-05
7.16384e-05
7.16486e-05
9.18144e-05
7.16486e-05
7.16587e-05
6.92049e-05
5.80636e-05
6.62689e-05
7.06057e-05
5.80598e-05
7.06025e-05
6.92063e-05
6.91402e-05
5.80519e-05
6.62559e-05
7.05986e-05
7.05957e-05
5.80531e-05
6.91363e-05
6.92004e-05
7.06011e-05
5.80538e-05
6.62686e-05
5.80612e-05
6.92015e-05
7.06041e-05
6.91374e-05
7.05945e-05
5.80483e-05
6.62544e-05
6.91422e-05
7.05974e-05
5.8046e-05
9.18167e-05
7.16495e-05
7.16596e-05
7.16394e-05
7.16495e-05
9.18156e-05
6.90865e-05
6.90927e-05
6.97145e-05
6.94064e-05
6.76541e-05
6.4042e-05
6.94039e-05
6.7653e-05
6.97176e-05
6.9826e-05
7.08648e-05
7.70226e-05
7.70208e-05
6.98152e-05
6.98155e-05
7.70281e-05
7.08634e-05
7.70228e-05
6.98266e-05
6.97181e-05
6.40426e-05
6.94037e-05
6.76584e-05
6.9406e-05
6.76595e-05
6.9715e-05
6.97252e-05
6.76651e-05
6.94074e-05
6.40484e-05
6.97226e-05
6.76651e-05
6.94092e-05
6.98235e-05
7.08706e-05
7.70467e-05
6.98335e-05
7.70471e-05
6.9834e-05
7.70497e-05
7.08722e-05
6.98241e-05
7.70513e-05
6.97214e-05
6.40471e-05
6.76607e-05
6.94085e-05
6.97241e-05
6.76601e-05
6.94066e-05
6.97172e-05
6.94044e-05
6.76426e-05
6.40686e-05
6.9714e-05
6.94068e-05
6.76471e-05
6.98165e-05
7.0864e-05
7.70325e-05
7.70299e-05
6.98274e-05
6.9827e-05
7.70297e-05
7.08654e-05
6.98161e-05
7.70297e-05
6.97139e-05
6.4059e-05
6.94065e-05
6.76499e-05
6.94045e-05
6.76402e-05
6.97175e-05
6.97215e-05
6.76926e-05
6.94038e-05
6.41254e-05
6.77077e-05
6.94016e-05
6.97239e-05
6.98384e-05
7.0878e-05
7.70781e-05
7.70786e-05
6.98284e-05
6.98279e-05
7.70741e-05
7.08764e-05
7.70744e-05
6.98377e-05
6.9725e-05
6.41274e-05
6.77149e-05
6.94017e-05
6.77164e-05
6.9404e-05
6.9722e-05
6.97106e-05
6.93973e-05
6.772e-05
6.41037e-05
6.93946e-05
6.77124e-05
6.97143e-05
6.98297e-05
7.08757e-05
7.7074e-05
7.70775e-05
6.9819e-05
6.982e-05
7.70845e-05
7.08744e-05
7.7081e-05
6.98306e-05
6.97131e-05
6.41087e-05
6.93938e-05
6.76944e-05
6.93965e-05
6.77035e-05
6.97092e-05
6.97226e-05
6.76858e-05
6.94014e-05
6.41259e-05
6.972e-05
6.76883e-05
6.94037e-05
6.98267e-05
7.08752e-05
7.70679e-05
7.7068e-05
6.98366e-05
6.98371e-05
7.7071e-05
7.0877e-05
6.98272e-05
7.7071e-05
6.97188e-05
6.41233e-05
6.76882e-05
6.94035e-05
6.76855e-05
6.94013e-05
6.97217e-05
6.9715e-05
6.93954e-05
6.77206e-05
6.41142e-05
6.97115e-05
6.93981e-05
6.77252e-05
6.9821e-05
7.08746e-05
7.70849e-05
7.70838e-05
6.98311e-05
6.98311e-05
7.70845e-05
7.08761e-05
6.98207e-05
7.70866e-05
6.97119e-05
6.41222e-05
6.93988e-05
6.7726e-05
6.93962e-05
6.77233e-05
6.97151e-05
9.18474e-05
7.16359e-05
7.16427e-05
7.16263e-05
7.1633e-05
9.18456e-05
6.92344e-05
5.80801e-05
6.62664e-05
7.05947e-05
7.05969e-05
5.80617e-05
6.9235e-05
6.9184e-05
5.80786e-05
6.62836e-05
7.05883e-05
5.80822e-05
7.05908e-05
6.91858e-05
6.92308e-05
7.05965e-05
6.6272e-05
5.80704e-05
7.05943e-05
5.80728e-05
6.92264e-05
6.91798e-05
7.05914e-05
6.62888e-05
5.80763e-05
5.80828e-05
7.05887e-05
6.91927e-05
9.1845e-05
7.16266e-05
7.16333e-05
7.1636e-05
7.16428e-05
9.18472e-05
6.90772e-05
6.90714e-05
6.90714e-05
6.90781e-05
9.18469e-05
7.16264e-05
7.16331e-05
9.18486e-05
7.16361e-05
7.16428e-05
6.92314e-05
5.8079e-05
6.62767e-05
7.05965e-05
5.80599e-05
7.05941e-05
6.92226e-05
6.91895e-05
5.80555e-05
6.62795e-05
7.05917e-05
7.05892e-05
5.8077e-05
6.91835e-05
6.92345e-05
7.05941e-05
5.80751e-05
6.62732e-05
5.80735e-05
6.92323e-05
7.05965e-05
6.91858e-05
7.05893e-05
5.80639e-05
6.62845e-05
6.91979e-05
7.05916e-05
5.80887e-05
9.185e-05
7.16366e-05
7.16432e-05
7.16266e-05
7.16333e-05
9.18483e-05
6.90714e-05
6.90776e-05
6.97112e-05
6.77075e-05
6.93948e-05
6.40847e-05
6.76994e-05
6.93917e-05
6.97152e-05
6.98294e-05
7.0869e-05
7.70595e-05
7.70648e-05
6.98187e-05
6.98197e-05
7.70731e-05
7.08679e-05
7.70694e-05
6.98302e-05
6.97138e-05
6.40783e-05
6.76775e-05
6.93908e-05
6.7689e-05
6.93936e-05
6.97096e-05
6.97069e-05
6.77004e-05
6.93946e-05
6.40963e-05
6.76987e-05
6.93919e-05
6.97108e-05
6.98241e-05
7.0874e-05
7.70929e-05
7.70931e-05
6.98133e-05
6.98133e-05
7.70928e-05
7.08725e-05
7.70924e-05
6.98243e-05
6.97099e-05
6.4091e-05
6.76995e-05
6.93916e-05
6.77037e-05
6.93939e-05
6.97062e-05
6.97158e-05
6.7707e-05
6.9393e-05
6.40931e-05
6.97123e-05
6.77103e-05
6.9396e-05
6.98202e-05
7.08688e-05
7.70752e-05
7.7074e-05
6.98302e-05
6.98304e-05
7.70731e-05
7.087e-05
6.98202e-05
7.70751e-05
6.97124e-05
6.40965e-05
6.77082e-05
6.93972e-05
6.77069e-05
6.93942e-05
6.97155e-05
6.9712e-05
6.77072e-05
6.93927e-05
6.41016e-05
6.9708e-05
6.7713e-05
6.93955e-05
6.98139e-05
7.08725e-05
7.70874e-05
7.70887e-05
6.9825e-05
6.98245e-05
7.70879e-05
7.08739e-05
6.98135e-05
7.70887e-05
6.97091e-05
6.4091e-05
6.77171e-05
6.93962e-05
6.77134e-05
6.93934e-05
6.97129e-05
6.90869e-05
6.9081e-05
6.90844e-05
6.90786e-05
9.18962e-05
7.16515e-05
7.16448e-05
9.18988e-05
7.16612e-05
7.16546e-05
6.9222e-05
5.81056e-05
6.63105e-05
7.0609e-05
6.92154e-05
5.81254e-05
7.06066e-05
6.92902e-05
5.81149e-05
6.63311e-05
7.06207e-05
6.92818e-05
5.81269e-05
7.06182e-05
6.9222e-05
7.06064e-05
5.81299e-05
6.63105e-05
6.92163e-05
5.81344e-05
7.06088e-05
6.92764e-05
7.06173e-05
5.81382e-05
6.63237e-05
6.92822e-05
5.81435e-05
7.062e-05
9.18987e-05
7.16615e-05
7.16548e-05
9.18962e-05
7.16517e-05
7.1645e-05
6.90818e-05
6.90878e-05
6.90802e-05
6.9086e-05
6.98311e-05
7.70832e-05
7.08766e-05
6.98209e-05
7.70839e-05
6.97149e-05
6.41309e-05
6.93968e-05
6.77229e-05
6.97118e-05
6.93993e-05
6.77249e-05
7.08748e-05
6.90886e-05
6.9087e-05
1.38702e-05
1.38836e-05
1.92461e-05
1.38701e-05
1.38849e-05
1.02646e-05
1.02644e-05
5.82403e-05
4.88585e-05
4.88802e-05
3.9752e-05
4.88058e-05
4.88645e-05
5.82604e-05
5.82604e-05
4.88761e-05
4.88364e-05
3.97599e-05
5.82555e-05
4.88665e-05
4.88302e-05
5.81806e-05
4.87965e-05
4.8803e-05
3.96965e-05
4.8783e-05
4.87923e-05
5.81883e-05
5.81816e-05
3.97374e-05
4.87916e-05
4.87997e-05
4.88008e-05
4.88107e-05
5.81778e-05
5.81299e-05
4.87825e-05
4.87821e-05
3.96937e-05
4.87717e-05
4.87723e-05
5.81463e-05
5.81554e-05
3.97424e-05
4.87898e-05
4.87887e-05
4.87993e-05
4.87977e-05
5.81561e-05
5.81707e-05
4.87927e-05
4.87971e-05
3.96733e-05
4.87854e-05
4.87829e-05
5.8186e-05
5.82173e-05
3.97183e-05
4.87961e-05
4.87986e-05
4.88054e-05
4.88084e-05
5.82114e-05
5.82384e-05
3.97947e-05
4.88617e-05
4.88659e-05
5.82276e-05
4.88728e-05
4.88791e-05
1.38697e-05
1.38698e-05
1.92539e-05
1.38704e-05
1.38711e-05
1.02611e-05
1.02609e-05
1.3873e-05
1.38483e-05
1.92159e-05
1.38756e-05
1.38491e-05
1.02574e-05
1.02572e-05
1.38496e-05
1.3842e-05
1.92082e-05
1.38499e-05
1.3842e-05
1.02513e-05
1.02512e-05
1.92466e-05
1.38703e-05
1.38857e-05
1.38701e-05
1.38849e-05
1.02648e-05
1.02651e-05
1.92555e-05
1.3872e-05
1.38718e-05
1.38709e-05
1.38714e-05
1.02614e-05
1.02618e-05
1.92165e-05
1.38772e-05
1.38499e-05
1.38752e-05
1.3849e-05
1.02583e-05
1.02583e-05
1.92086e-05
1.38499e-05
1.3842e-05
1.38496e-05
1.3842e-05
1.02514e-05
1.02517e-05
4.38124e-05
5.42924e-05
4.16942e-05
5.18084e-05
5.42904e-05
4.1713e-05
4.376e-05
4.62883e-05
5.0997e-05
5.92105e-05
5.73203e-05
5.0991e-05
5.73266e-05
4.63014e-05
4.62737e-05
5.72852e-05
5.92043e-05
5.0992e-05
5.09995e-05
5.7318e-05
4.62479e-05
4.378e-05
5.18256e-05
5.42892e-05
4.17007e-05
5.42926e-05
4.16603e-05
4.38132e-05
4.37563e-05
4.17182e-05
5.42599e-05
5.18021e-05
4.17845e-05
5.42679e-05
4.37205e-05
4.62881e-05
5.10249e-05
5.92387e-05
5.73621e-05
5.10177e-05
5.73702e-05
4.63124e-05
4.62979e-05
5.73664e-05
5.92345e-05
5.10189e-05
5.10262e-05
5.73649e-05
4.62837e-05
4.37238e-05
5.18201e-05
4.17851e-05
5.42701e-05
4.1764e-05
5.42746e-05
4.37651e-05
5.82193e-05
3.9787e-05
4.88216e-05
4.88646e-05
4.88488e-05
4.88785e-05
5.82226e-05
5.81928e-05
3.9732e-05
4.87819e-05
4.87965e-05
5.81956e-05
4.87925e-05
4.88068e-05
5.81768e-05
3.97006e-05
4.87949e-05
4.88088e-05
5.8204e-05
4.87852e-05
4.87998e-05
4.37528e-05
5.42444e-05
4.16856e-05
5.17266e-05
5.42408e-05
4.17086e-05
4.37267e-05
4.62574e-05
5.10036e-05
5.92151e-05
5.73022e-05
5.73066e-05
5.09967e-05
4.62753e-05
4.62856e-05
5.73193e-05
5.92089e-05
5.09985e-05
5.73168e-05
5.10053e-05
4.62675e-05
4.37192e-05
5.175e-05
5.42426e-05
4.17146e-05
5.42444e-05
4.16862e-05
4.37504e-05
4.37634e-05
5.424e-05
4.16875e-05
5.17848e-05
5.4238e-05
4.17165e-05
4.3729e-05
4.62787e-05
5.10006e-05
5.91982e-05
5.73412e-05
5.73447e-05
5.09936e-05
4.62995e-05
4.62995e-05
5.73251e-05
5.92065e-05
5.09961e-05
5.73392e-05
4.62788e-05
5.10029e-05
4.37118e-05
5.1792e-05
5.42346e-05
4.17146e-05
5.42446e-05
4.16851e-05
4.37544e-05
4.37331e-05
5.42428e-05
4.17094e-05
5.17624e-05
4.37592e-05
5.42476e-05
4.16897e-05
4.63075e-05
5.10057e-05
5.92222e-05
5.73201e-05
5.10118e-05
5.73248e-05
4.6276e-05
4.62782e-05
5.73269e-05
5.10077e-05
5.92206e-05
5.10015e-05
4.62968e-05
5.73287e-05
4.37653e-05
5.17743e-05
5.42512e-05
4.16944e-05
5.42449e-05
4.17144e-05
4.37378e-05
4.37331e-05
5.42133e-05
4.172e-05
5.17687e-05
4.37766e-05
5.42264e-05
4.16902e-05
4.63139e-05
5.10029e-05
5.921e-05
5.73464e-05
5.73398e-05
5.10092e-05
4.62932e-05
4.62854e-05
5.73361e-05
5.10056e-05
5.91955e-05
4.6309e-05
5.73252e-05
5.09992e-05
4.37721e-05
5.17913e-05
5.42455e-05
4.16933e-05
5.42122e-05
4.17213e-05
4.37439e-05
5.81501e-05
3.97305e-05
4.87764e-05
4.87753e-05
4.87853e-05
4.87865e-05
5.81496e-05
5.81556e-05
3.97027e-05
4.87917e-05
4.87904e-05
4.87824e-05
5.81444e-05
4.87814e-05
4.37364e-05
5.42611e-05
4.17348e-05
5.18305e-05
5.42628e-05
4.17584e-05
4.37082e-05
4.62549e-05
5.10196e-05
5.92314e-05
5.73642e-05
5.73722e-05
5.10122e-05
4.62727e-05
4.62818e-05
5.73745e-05
5.9233e-05
5.10132e-05
5.7373e-05
5.10206e-05
4.62675e-05
4.36987e-05
5.18313e-05
5.42735e-05
4.17581e-05
5.42747e-05
4.17367e-05
4.37286e-05
4.3762e-05
4.173e-05
5.42498e-05
5.17701e-05
4.1752e-05
5.42563e-05
4.37363e-05
4.6279e-05
5.10151e-05
5.92327e-05
5.73158e-05
5.73274e-05
5.10071e-05
4.63055e-05
4.63005e-05
5.73449e-05
5.92339e-05
5.10083e-05
5.73216e-05
4.62813e-05
5.10158e-05
4.37268e-05
5.18003e-05
4.17494e-05
5.42362e-05
4.17292e-05
5.42343e-05
4.37617e-05
4.37214e-05
5.42489e-05
4.17564e-05
5.18175e-05
4.37499e-05
5.42355e-05
4.17345e-05
4.63086e-05
5.10177e-05
5.92325e-05
5.73622e-05
5.10245e-05
5.73543e-05
4.62951e-05
4.62779e-05
5.73737e-05
5.10222e-05
5.923e-05
5.10152e-05
4.62949e-05
5.73738e-05
4.3764e-05
5.18113e-05
5.42591e-05
4.17362e-05
5.42495e-05
4.17572e-05
4.37364e-05
4.37453e-05
4.17527e-05
5.42665e-05
5.17939e-05
4.37753e-05
4.1732e-05
5.42776e-05
4.63227e-05
5.10131e-05
5.92378e-05
5.73506e-05
5.73623e-05
5.102e-05
4.62906e-05
4.62902e-05
5.73475e-05
5.10175e-05
5.92345e-05
4.63114e-05
5.73574e-05
5.10106e-05
4.37915e-05
5.17919e-05
4.17354e-05
5.42872e-05
4.17559e-05
5.42805e-05
4.37517e-05
4.3808e-05
4.17389e-05
5.43073e-05
5.18171e-05
4.1768e-05
5.43011e-05
4.37524e-05
4.62963e-05
5.10548e-05
5.92592e-05
5.73801e-05
5.10468e-05
5.73815e-05
4.631e-05
4.6281e-05
5.73864e-05
5.92578e-05
5.10444e-05
5.10534e-05
5.73687e-05
4.62569e-05
4.37872e-05
5.18271e-05
4.17699e-05
5.42879e-05
4.17464e-05
5.42986e-05
4.3827e-05
4.37729e-05
5.42856e-05
4.17304e-05
5.18239e-05
4.38082e-05
5.42849e-05
4.17124e-05
4.62764e-05
5.09936e-05
5.91889e-05
5.72865e-05
4.62588e-05
5.10012e-05
5.7286e-05
4.6253e-05
5.72901e-05
5.10004e-05
5.91917e-05
4.62719e-05
5.09928e-05
5.72929e-05
4.38048e-05
5.18152e-05
5.42697e-05
4.17271e-05
4.37765e-05
5.42702e-05
4.17462e-05
4.37615e-05
4.17594e-05
5.4303e-05
5.18197e-05
4.38012e-05
4.17366e-05
5.43044e-05
4.6298e-05
5.10419e-05
5.92339e-05
5.73839e-05
5.73824e-05
5.10502e-05
4.62801e-05
4.62663e-05
5.73709e-05
5.10513e-05
5.92456e-05
4.62839e-05
5.7382e-05
5.10429e-05
4.3806e-05
5.18224e-05
4.17384e-05
5.42924e-05
4.17598e-05
5.42915e-05
4.3776e-05
5.81957e-05
3.97113e-05
4.87847e-05
4.87901e-05
4.87995e-05
4.87949e-05
5.81994e-05
5.82097e-05
3.96811e-05
4.87995e-05
4.88018e-05
4.879e-05
5.82083e-05
4.87928e-05
4.38056e-05
4.17437e-05
5.42656e-05
5.18439e-05
4.17674e-05
5.42781e-05
4.37625e-05
4.62931e-05
5.10544e-05
5.9271e-05
5.73614e-05
5.10464e-05
5.73639e-05
4.63456e-05
4.63147e-05
5.737e-05
5.92698e-05
5.10459e-05
5.10546e-05
5.73706e-05
4.62619e-05
4.37453e-05
5.18545e-05
4.17722e-05
5.42925e-05
4.17447e-05
5.42895e-05
4.38144e-05
4.37254e-05
4.17056e-05
5.42818e-05
5.18273e-05
4.37524e-05
4.16773e-05
5.4274e-05
4.62723e-05
5.10194e-05
5.92461e-05
5.73549e-05
4.62581e-05
5.10277e-05
5.73492e-05
4.62486e-05
5.73589e-05
5.10269e-05
5.9243e-05
4.62715e-05
5.10196e-05
5.73564e-05
4.37598e-05
5.18092e-05
4.16873e-05
5.42839e-05
4.37314e-05
4.1706e-05
5.42917e-05
4.37735e-05
4.17637e-05
5.42822e-05
5.18227e-05
4.38087e-05
4.17415e-05
5.42735e-05
4.63116e-05
5.10476e-05
5.92597e-05
5.7386e-05
5.7378e-05
5.10551e-05
4.62819e-05
4.62758e-05
5.73654e-05
5.10537e-05
5.92699e-05
4.62903e-05
5.73555e-05
5.10465e-05
4.38048e-05
5.18086e-05
4.17433e-05
5.42994e-05
4.1764e-05
5.429e-05
4.37683e-05
5.82373e-05
3.97487e-05
4.88596e-05
4.88746e-05
5.82363e-05
4.88506e-05
4.88632e-05
4.62901e-05
5.10499e-05
5.73758e-05
5.92482e-05
5.10428e-05
4.63099e-05
5.73728e-05
4.37743e-05
5.18124e-05
4.17635e-05
5.42877e-05
4.17396e-05
4.38052e-05
5.42896e-05
5.10563e-05
5.92638e-05
5.10494e-05
1.84179e-05
3.31382e-05
3.31131e-05
3.87566e-05
1.86197e-05
3.34172e-05
3.34092e-05
3.90059e-05
1.87829e-05
3.36488e-05
3.36468e-05
3.9192e-05
1.88984e-05
3.38174e-05
3.38112e-05
3.93354e-05
1.89785e-05
3.39246e-05
3.39179e-05
3.943e-05
1.9037e-05
3.39969e-05
3.39911e-05
3.95223e-05
1.90768e-05
3.40459e-05
3.40408e-05
3.96121e-05
1.91011e-05
3.40835e-05
3.40746e-05
3.96307e-05
1.91179e-05
3.40971e-05
3.41003e-05
3.96383e-05
1.91346e-05
3.41011e-05
3.41181e-05
3.96154e-05
1.91527e-05
3.41035e-05
3.4132e-05
3.96123e-05
1.91685e-05
3.41109e-05
3.41445e-05
3.95658e-05
1.91773e-05
3.41242e-05
3.41449e-05
3.96161e-05
1.91861e-05
3.41366e-05
3.41461e-05
3.96687e-05
1.91948e-05
3.41443e-05
3.41468e-05
3.97041e-05
1.91992e-05
3.41445e-05
3.41451e-05
3.97318e-05
1.9203e-05
3.41463e-05
3.41425e-05
3.97423e-05
1.92058e-05
3.41529e-05
3.41429e-05
3.97429e-05
1.92088e-05
3.41648e-05
3.41475e-05
3.97429e-05
1.92161e-05
3.41763e-05
3.41496e-05
3.97512e-05
1.92232e-05
3.4185e-05
3.41485e-05
3.97607e-05
1.92258e-05
3.41957e-05
3.41498e-05
3.97745e-05
1.92304e-05
3.42083e-05
3.41568e-05
3.97819e-05
1.9235e-05
3.42167e-05