/*--------------------------------*- C++ -*----------------------------------*\
| =========                 |                                                 |
| \\      /  F ield         | OpenFOAM: The Open Source CFD Toolbox           |
|  \\    /   O peration     | Version:  v1906                                 |
|   \\  /    A nd           | Web:      www.OpenFOAM.com                      |
|    \\/     M anipulation  |                                                 |
\*---------------------------------------------------------------------------*/
FoamFile
{
    version     2.0;
    format      ascii;
    class       volScalarField;
    location    "200";
    object      nut;
}
// * * * * * * * * * * * * * * * * * * * * * * * * * * * * * * * * * * * * * //

dimensions      [0 2 -1 0 0 0 0];


internalField   nonuniform List<scalar> 
171728
(
0.000125853
0.00012626
0.000126379
0.000125773
0.000126326
0.000126425
0.00012656
0.000126563
0.000125928
0.000126441
0.00012651
0.000125911
0.000113295
0.000113346
0.000113275
0.000113397
2.35146e-05
2.35131e-05
7.23077e-05
7.22808e-05
8.94114e-05
4.97833e-05
8.9524e-05
8.93912e-05
4.97873e-05
4.97832e-05
8.95274e-05
0.000113165
9.03666e-05
0.00012101
0.000120901
0.000113514
0.00011311
0.000126221
9.03847e-05
0.000121118
9.02235e-05
0.00012101
0.000113523
2.35143e-05
2.3511e-05
0.00012548
7.22978e-05
7.23154e-05
7.22252e-05
7.22578e-05
2.35153e-05
2.35123e-05
4.97851e-05
8.95862e-05
9.03441e-05
0.00012117
0.000113526
4.97841e-05
8.95818e-05
0.000121167
9.03931e-05
0.000113518
0.000113351
0.000126569
9.03587e-05
0.000121307
9.02041e-05
0.000121408
0.00011359
8.94512e-05
4.97834e-05
4.97804e-05
8.95488e-05
0.000113293
0.000126415
0.000121255
9.04155e-05
0.000121174
9.02669e-05
0.000113583
8.94309e-05
4.97852e-05
4.9775e-05
8.95609e-05
2.35132e-05
7.22959e-05
7.22976e-05
2.35133e-05
0.000113285
0.000121164
9.03322e-05
0.000121325
0.000113534
0.000113173
0.000126397
0.000121222
9.04152e-05
0.000121143
9.02568e-05
0.000113486
8.94129e-05
4.97777e-05
8.95268e-05
8.94039e-05
4.97843e-05
4.97737e-05
8.95211e-05
0.00012564
7.23316e-05
7.22928e-05
7.22725e-05
7.22352e-05
2.35147e-05
2.35117e-05
2.35131e-05
2.35102e-05
2.35131e-05
2.35111e-05
9.44903e-05
0.000107226
7.22929e-05
4.77021e-05
4.76972e-05
0.000107146
9.45564e-05
9.44821e-05
0.000107121
7.22583e-05
4.76977e-05
4.7687e-05
0.000107039
9.45416e-05
7.79359e-05
2.14193e-05
2.1417e-05
2.14177e-05
2.14147e-05
7.79524e-05
3.61259e-05
4.03673e-05
8.61634e-05
8.94725e-05
3.61239e-05
4.03693e-05
8.62076e-05
2.00327e-05
4.97839e-05
7.51646e-05
7.51383e-05
2.00348e-05
3.61263e-05
8.94735e-05
4.03718e-05
8.62564e-05
4.03698e-05
8.62235e-05
3.61282e-05
3.61287e-05
4.03675e-05
8.61873e-05
8.94681e-05
3.61268e-05
4.03695e-05
8.62328e-05
2.00343e-05
4.9787e-05
7.51991e-05
7.51689e-05
2.00363e-05
2.00352e-05
7.51419e-05
4.97823e-05
2.00332e-05
7.51726e-05
3.61288e-05
8.94813e-05
4.0372e-05
8.62854e-05
4.03701e-05
8.62419e-05
3.61309e-05
2.35125e-05
2.35128e-05
7.79313e-05
2.14139e-05
2.14167e-05
7.79114e-05
2.14158e-05
2.14186e-05
9.44479e-05
0.000107172
7.22747e-05
4.76915e-05
0.000107123
4.76928e-05
9.45187e-05
9.45034e-05
0.000107531
7.2302e-05
4.77067e-05
4.7699e-05
0.000107478
9.45705e-05
9.44407e-05
4.76892e-05
0.000106951
7.2257e-05
0.000107044
9.44066e-05
4.76867e-05
9.44952e-05
4.76938e-05
0.000107299
7.22797e-05
9.44572e-05
4.77034e-05
0.00010744
7.79343e-05
2.14168e-05
2.14195e-05
2.14148e-05
2.14176e-05
7.79531e-05
2.35136e-05
2.3514e-05
2.00346e-05
4.9779e-05
7.52033e-05
7.51734e-05
2.00366e-05
3.61302e-05
8.95573e-05
8.63209e-05
4.03736e-05
8.62805e-05
4.03718e-05
3.61321e-05
2.00333e-05
4.97781e-05
7.51824e-05
7.51549e-05
2.00354e-05
3.61277e-05
8.95411e-05
4.03735e-05
8.63142e-05
4.03715e-05
8.62652e-05
3.61299e-05
3.61291e-05
8.62203e-05
4.03671e-05
8.95003e-05
3.61271e-05
8.62645e-05
4.03689e-05
2.00345e-05
4.9784e-05
7.51955e-05
7.51712e-05
2.00365e-05
2.00355e-05
7.51411e-05
4.97793e-05
2.00335e-05
7.51725e-05
3.61294e-05
8.95021e-05
8.62996e-05
4.03711e-05
8.62636e-05
4.03694e-05
3.6131e-05
3.61276e-05
4.03674e-05
8.62246e-05
8.95072e-05
3.61257e-05
4.03693e-05
8.62655e-05
2.0034e-05
4.97802e-05
7.52007e-05
7.51703e-05
2.0036e-05
2.00349e-05
7.51435e-05
4.9782e-05
2.00329e-05
7.51731e-05
3.61281e-05
8.9512e-05
4.03718e-05
8.6313e-05
4.03697e-05
8.62854e-05
3.61299e-05
2.35115e-05
9.45323e-05
0.000107259
7.22833e-05
4.76973e-05
0.000107245
4.76913e-05
9.45786e-05
9.45006e-05
0.000107335
7.22811e-05
4.77045e-05
4.77057e-05
0.00010728
9.45712e-05
7.79506e-05
2.14168e-05
2.14201e-05
2.1415e-05
2.14183e-05
7.79651e-05
2.35117e-05
3.61259e-05
8.6176e-05
4.03658e-05
8.94804e-05
3.61238e-05
8.62293e-05
4.03677e-05
2.0033e-05
4.97785e-05
7.51669e-05
7.51448e-05
2.00349e-05
2.0034e-05
7.51435e-05
3.61257e-05
8.94892e-05
8.62717e-05
4.03702e-05
8.62345e-05
4.03682e-05
3.61279e-05
3.6128e-05
8.61675e-05
4.03661e-05
8.94648e-05
3.6126e-05
8.62167e-05
4.03681e-05
2.00339e-05
4.97788e-05
7.51731e-05
7.5148e-05
2.0036e-05
2.0035e-05
7.51229e-05
4.9781e-05
2.00329e-05
7.51511e-05
3.61281e-05
8.94965e-05
8.62529e-05
4.03706e-05
8.62117e-05
4.03687e-05
3.613e-05
7.79578e-05
2.14177e-05
2.14144e-05
7.79377e-05
2.14197e-05
2.14164e-05
9.45356e-05
0.0001074
7.2314e-05
4.77085e-05
0.000107345
4.77017e-05
9.46103e-05
9.45393e-05
0.000107348
7.22741e-05
4.76966e-05
0.000107296
4.76953e-05
9.46108e-05
9.45299e-05
4.76987e-05
0.000107178
7.22935e-05
9.44843e-05
0.000107285
4.77046e-05
9.45334e-05
4.76917e-05
0.000107109
7.2258e-05
9.44965e-05
0.000107226
4.76894e-05
7.79627e-05
2.14207e-05
2.14174e-05
2.14187e-05
2.14155e-05
7.79789e-05
2.3513e-05
2.35134e-05
2.35114e-05
2.35118e-05
0.000113518
0.000125718
0.000120626
0.000120814
0.000120636
0.000120667
0.000113629
0.00011333
0.000125721
0.000120713
0.000120716
0.000120622
0.000120718
0.000113418
0.000113441
0.000125799
0.000120864
0.000120774
0.000120789
0.00012067
0.000113536
0.000113561
0.000125882
0.000120971
0.000120888
0.000120877
0.000120785
0.000113673
0.00011604
0.000116122
0.000116498
0.000132958
0.000132639
0.000113388
0.000116041
0.000116083
0.00011627
0.000116331
0.000132839
0.000132522
0.00011602
0.000116008
0.000116369
0.00013285
0.000132524
0.000113427
0.000116067
0.000116062
0.000116297
0.0001163
0.000132837
0.000132515
0.000121596
0.000110509
0.000122192
0.000113343
0.000121515
0.000110689
0.000122311
0.000118864
0.000114177
9.03177e-05
0.00010249
0.000114001
0.000102418
0.00011902
0.000121917
0.000113419
0.000110825
0.000122357
0.000110764
0.000122474
0.000121981
0.000122193
0.000110647
0.000122181
0.000113347
0.00012211
0.00011078
0.000122323
0.000119092
0.000114125
9.03488e-05
0.000102578
0.000102521
0.000113965
0.000119172
0.00011875
0.000102342
0.000113821
9.03049e-05
0.000118792
0.000102448
0.000113853
0.000122462
0.000113372
0.000110932
0.000122786
0.000110884
0.000122667
0.000122375
0.000113317
0.000125541
0.000120426
0.000120503
0.000120518
0.000113222
0.000120561
0.000119081
0.000114216
9.03111e-05
0.000102556
0.000114082
0.000102499
0.000119152
0.000122363
0.000113473
0.000111001
0.000122893
0.00011093
0.000122789
0.000122472
0.000119087
0.000114222
9.03445e-05
0.000102576
0.00010251
0.00011422
0.000119189
0.000122357
0.000113431
0.000122843
0.000110956
0.000122724
0.000110893
0.00012245
0.000122394
0.000110848
0.000122567
0.000113496
0.000122244
0.000110962
0.000122705
0.00011934
0.00011462
9.03161e-05
0.000102521
0.000114465
0.000102467
0.00011936
0.000119266
0.000102329
0.000114351
9.02752e-05
0.000119141
0.000114451
0.000102425
0.000122508
0.000113503
0.000111102
0.00012266
0.000110934
0.00012278
0.000122622
0.000122143
0.000122468
0.000110708
0.000113432
0.0001221
0.000122606
0.000110885
0.000119159
0.00011418
9.03798e-05
0.00010265
0.000102563
0.000114163
0.00011932
0.000118804
0.000102407
0.000113925
9.03352e-05
0.000118865
0.000102516
0.000113986
0.000122457
0.000113457
0.000122832
0.000111023
0.000122629
0.000110958
0.000122511
0.000122172
0.000122332
0.000110742
0.00011343
0.000122037
0.000122262
0.000110859
0.000119025
0.000114379
9.02815e-05
0.000102473
0.000114207
0.000102399
0.000119191
0.000118909
0.000102353
0.000122282
0.000113424
0.000122818
0.000110941
0.000122691
0.000110843
0.000122393
0.000122274
0.00012229
0.000110658
0.000113343
0.000122215
0.000122216
0.000110794
0.000118998
0.000114251
9.03684e-05
0.00010251
0.000102453
0.000114233
0.000119122
0.000118844
0.000102308
0.000114045
9.03406e-05
0.000118843
0.00010242
0.000114102
0.00012253
0.00011338
0.000122855
0.000110932
0.000122725
0.000110852
0.000122426
0.000113526
0.000125698
0.000120553
0.000120525
0.000113463
0.000120715
0.00012048
0.000116253
0.000130954
0.000130679
0.000130219
0.000130288
0.000129869
0.000130014
0.000130778
0.000130834
0.000130802
0.000130876
0.000129909
0.000130109
0.000130875
0.000130731
0.0001309
0.000130762
0.00013082
0.000131006
0.00013084
0.000129809
0.000129875
0.000130795
0.000130741
0.000130768
0.000130241
0.000130825
0.00013076
9.05299e-05
4.98628e-05
4.98627e-05
9.04848e-05
2.35398e-05
2.35408e-05
9.05329e-05
4.98646e-05
4.98648e-05
9.05122e-05
0.000116265
0.000116074
0.000116071
0.000116272
0.00011629
0.00011612
0.000116032
0.000116755
9.16398e-05
0.000125999
0.000130974
9.16897e-05
0.000125958
0.000116884
2.3538e-05
2.3539e-05
0.000116835
0.000125829
9.1728e-05
0.000130706
0.000125796
9.17035e-05
0.000116824
7.28485e-05
7.28307e-05
0.000130169
7.28617e-05
7.28606e-05
7.28521e-05
7.28607e-05
2.3539e-05
2.35403e-05
2.35397e-05
2.35408e-05
7.27811e-05
7.28081e-05
0.00012989
7.28024e-05
7.28162e-05
2.35406e-05
2.35393e-05
2.35408e-05
2.35397e-05
0.000129952
7.28e-05
7.2814e-05
7.27942e-05
7.28093e-05
9.05318e-05
4.9865e-05
4.98656e-05
9.05007e-05
0.00011648
9.1676e-05
0.000125901
0.000130784
9.16607e-05
0.000125824
0.0001165
0.000116709
9.15859e-05
0.00012588
0.00013082
9.16656e-05
0.000125809
0.000116713
9.04951e-05
4.98632e-05
4.9862e-05
9.05109e-05
9.05181e-05
4.98654e-05
4.98649e-05
9.05231e-05
0.000116539
0.000130785
9.16826e-05
0.000125849
9.16336e-05
0.000125832
0.000116698
0.000116646
0.000130857
9.16558e-05
0.000125837
9.16411e-05
0.000125816
0.000116643
7.27933e-05
7.27912e-05
0.000129956
7.27942e-05
7.27918e-05
2.35426e-05
2.35438e-05
2.3541e-05
2.35397e-05
0.000130026
7.28069e-05
7.2798e-05
7.27839e-05
7.27903e-05
2.3544e-05
2.35428e-05
0.000116997
9.1688e-05
0.000126049
0.000130861
9.17208e-05
0.000126014
0.000116932
9.04837e-05
4.98581e-05
4.9859e-05
9.0472e-05
0.000116679
0.000125971
9.16731e-05
0.000130702
0.000125943
9.17304e-05
0.000116832
9.05085e-05
4.98639e-05
4.9864e-05
9.04928e-05
0.000116916
0.000130874
9.17391e-05
0.000126056
9.17158e-05
0.000126025
0.000116876
9.05012e-05
4.98594e-05
4.98586e-05
9.05043e-05
0.000116599
0.000130732
0.00012602
9.17282e-05
0.000125995
9.17257e-05
0.000116795
9.06108e-05
4.98682e-05
4.98692e-05
9.05985e-05
0.000116721
0.000125864
9.17477e-05
0.000130835
0.00012583
9.17608e-05
0.000116775
9.05439e-05
4.98655e-05
4.98663e-05
9.05456e-05
0.00011679
0.000130993
9.16603e-05
0.000125984
9.16614e-05
0.000125953
0.000116885
9.05993e-05
4.98685e-05
4.98686e-05
9.06074e-05
0.000116731
0.00013083
0.00012583
9.17319e-05
0.000125815
9.17379e-05
0.000116845
9.05648e-05
4.98661e-05
4.98659e-05
9.06011e-05
7.2785e-05
7.28067e-05
0.000129831
7.27964e-05
7.28323e-05
2.35393e-05
2.35406e-05
2.35388e-05
2.35378e-05
0.000129719
7.28066e-05
7.28257e-05
7.27811e-05
7.28248e-05
2.35405e-05
2.35395e-05
0.000116865
0.000125814
9.1686e-05
0.000130756
0.000125749
9.17377e-05
0.000116867
9.05302e-05
4.98618e-05
4.98632e-05
9.0495e-05
9.05475e-05
4.98642e-05
4.98648e-05
9.05244e-05
0.000116835
0.000130727
0.000125805
9.1742e-05
0.000125793
9.17106e-05
0.000116815
0.000116707
0.000130757
0.000125756
9.175e-05
0.00012574
9.16981e-05
0.000116843
9.05181e-05
4.98638e-05
4.98629e-05
9.05639e-05
9.05319e-05
4.98646e-05
4.9864e-05
9.05286e-05
2.3541e-05
2.35421e-05
2.35395e-05
2.35408e-05
0.000130185
7.28551e-05
7.28661e-05
7.28561e-05
7.28544e-05
2.35422e-05
2.35411e-05
2.35412e-05
2.35399e-05
0.000125838
9.17217e-05
0.000116699
4.98657e-05
9.05937e-05
9.17327e-05
4.9864e-05
2.35412e-05
2.35402e-05
3.61656e-05
4.04163e-05
8.70478e-05
9.0506e-05
4.04154e-05
8.70351e-05
3.61663e-05
2.00517e-05
4.98632e-05
7.54862e-05
7.54985e-05
2.00502e-05
2.00501e-05
7.5494e-05
4.98623e-05
7.5479e-05
2.00516e-05
3.61666e-05
9.0494e-05
4.04154e-05
8.70392e-05
4.0416e-05
8.70522e-05
3.61658e-05
2.35408e-05
2.35397e-05
3.61738e-05
8.70342e-05
4.04242e-05
9.04873e-05
8.70235e-05
4.04235e-05
3.61744e-05
2.00564e-05
4.98651e-05
7.55046e-05
7.55195e-05
2.0055e-05
2.00548e-05
7.55149e-05
4.98644e-05
7.54993e-05
2.00561e-05
3.61749e-05
9.05243e-05
8.70312e-05
4.04238e-05
8.70426e-05
4.04244e-05
3.61743e-05
2.3539e-05
2.35379e-05
7.83038e-05
2.14408e-05
2.14378e-05
2.14394e-05
2.14363e-05
7.83124e-05
9.55604e-05
0.000109483
7.28596e-05
4.77856e-05
0.000109502
4.77863e-05
9.55829e-05
9.56095e-05
0.000109467
7.28507e-05
4.77758e-05
0.000109464
4.77766e-05
9.56086e-05
9.55592e-05
4.77864e-05
7.2853e-05
0.000109468
0.000109455
4.77856e-05
9.55861e-05
9.55929e-05
4.77768e-05
7.2845e-05
0.000109476
0.000109468
4.77759e-05
9.56034e-05
7.8313e-05
2.14393e-05
2.14362e-05
2.14408e-05
2.14377e-05
7.83052e-05
9.55714e-05
0.000109407
4.77855e-05
7.28591e-05
9.55805e-05
0.000109434
4.77863e-05
9.55856e-05
0.000109349
4.7777e-05
7.28564e-05
9.55946e-05
0.000109308
4.77776e-05
7.83118e-05
2.14394e-05
2.14365e-05
7.83035e-05
2.14409e-05
2.14379e-05
2.35401e-05
2.35392e-05
2.35408e-05
2.35397e-05
7.82576e-05
2.1438e-05
2.14348e-05
2.14365e-05
2.14333e-05
7.8267e-05
9.55293e-05
0.0001093
7.28006e-05
4.77767e-05
4.77778e-05
0.00010922
9.55099e-05
9.55366e-05
0.000109304
7.28174e-05
4.77673e-05
4.77683e-05
0.000109347
9.55407e-05
9.55151e-05
4.77781e-05
7.27961e-05
0.000109183
4.77773e-05
9.55107e-05
0.000109171
9.55163e-05
4.77684e-05
7.28092e-05
0.00010934
4.77676e-05
9.55344e-05
0.000109266
7.82659e-05
2.14364e-05
2.14332e-05
2.14379e-05
2.14347e-05
7.82568e-05
2.35395e-05
2.35404e-05
2.35397e-05
2.35407e-05
7.8268e-05
2.14366e-05
2.14335e-05
7.82592e-05
2.14381e-05
2.1435e-05
9.55277e-05
0.00010924
7.27982e-05
4.77793e-05
4.77782e-05
0.000109218
9.55402e-05
9.55063e-05
0.000109408
7.28076e-05
4.77688e-05
4.77679e-05
0.000109382
9.55432e-05
9.55155e-05
4.77777e-05
0.000109202
7.28002e-05
9.55226e-05
4.77786e-05
0.000109168
9.55474e-05
4.77677e-05
0.000109387
7.28148e-05
9.55357e-05
4.77687e-05
0.000109347
7.82608e-05
2.14382e-05
2.14351e-05
2.14367e-05
2.14336e-05
7.82693e-05
3.61671e-05
4.04165e-05
8.70378e-05
9.05138e-05
4.04157e-05
8.70237e-05
3.6168e-05
2.00542e-05
4.98655e-05
7.55268e-05
7.55409e-05
2.00527e-05
2.00528e-05
7.55415e-05
4.9865e-05
7.55286e-05
2.00543e-05
3.61679e-05
9.05319e-05
4.04153e-05
8.70197e-05
4.04162e-05
8.70377e-05
3.6167e-05
3.61661e-05
4.04156e-05
8.70328e-05
9.05256e-05
3.61654e-05
4.04164e-05
8.70448e-05
2.00502e-05
4.98626e-05
7.55008e-05
2.00518e-05
7.54845e-05
2.00516e-05
7.54803e-05
4.98627e-05
2.00501e-05
7.54906e-05
3.61651e-05
9.04841e-05
4.04163e-05
8.70389e-05
3.61659e-05
4.04156e-05
8.70266e-05
3.61679e-05
4.04159e-05
8.70239e-05
9.053e-05
3.61671e-05
4.04166e-05
8.70363e-05
2.00529e-05
4.98649e-05
7.55424e-05
7.55295e-05
2.00544e-05
2.00543e-05
7.55295e-05
4.98653e-05
2.00528e-05
7.55423e-05
3.6167e-05
9.05102e-05
4.04165e-05
8.70304e-05
4.04159e-05
8.70183e-05
3.61678e-05
7.82264e-05
2.14365e-05
2.14397e-05
2.1435e-05
2.14382e-05
7.82364e-05
9.54955e-05
0.000109254
7.27981e-05
4.77694e-05
4.77704e-05
0.000109286
9.54555e-05
9.55043e-05
0.000109294
7.27908e-05
4.77789e-05
0.00010932
4.778e-05
9.54902e-05
9.54849e-05
4.77705e-05
7.279e-05
0.000109274
4.77697e-05
0.000109256
9.5481e-05
9.54968e-05
4.77804e-05
7.27835e-05
0.000109326
0.000109296
4.77795e-05
9.55105e-05
7.82342e-05
2.14349e-05
2.14381e-05
2.14363e-05
2.14396e-05
7.8226e-05
2.35437e-05
2.35427e-05
2.35397e-05
2.35408e-05
7.82382e-05
2.14351e-05
2.14383e-05
7.82291e-05
2.14367e-05
2.14398e-05
9.55091e-05
0.000109328
7.278e-05
4.77715e-05
0.000109306
4.77703e-05
9.55296e-05
9.54766e-05
0.000109375
7.2791e-05
4.77808e-05
4.77799e-05
0.000109372
9.5481e-05
9.55149e-05
4.77699e-05
0.000109292
7.27904e-05
0.000109328
9.55029e-05
4.77709e-05
9.54881e-05
4.77797e-05
0.000109369
7.27991e-05
9.54891e-05
4.77805e-05
0.000109373
7.82316e-05
2.14369e-05
2.144e-05
2.14353e-05
2.14385e-05
7.8241e-05
2.35429e-05
2.35439e-05
3.61689e-05
4.04229e-05
8.69913e-05
9.04573e-05
4.04222e-05
8.69794e-05
3.61696e-05
2.00532e-05
4.98587e-05
7.54575e-05
7.5465e-05
2.00517e-05
2.00516e-05
7.5476e-05
4.98583e-05
7.54557e-05
2.00532e-05
3.61698e-05
9.04723e-05
4.04223e-05
8.69903e-05
4.04229e-05
8.70036e-05
3.6169e-05
3.61738e-05
8.70104e-05
4.04236e-05
9.04857e-05
3.61733e-05
8.70203e-05
4.04242e-05
2.00543e-05
4.98635e-05
7.55028e-05
2.00557e-05
7.54922e-05
2.00559e-05
7.54946e-05
4.98643e-05
2.00545e-05
7.55092e-05
3.61727e-05
9.04746e-05
8.70125e-05
4.0424e-05
3.61733e-05
8.70016e-05
4.04235e-05
3.61692e-05
4.04225e-05
8.69555e-05
9.05335e-05
3.61685e-05
4.04234e-05
8.69752e-05
2.00519e-05
4.98588e-05
7.54789e-05
7.54636e-05
2.00534e-05
2.00534e-05
7.54663e-05
4.98593e-05
2.00518e-05
7.54767e-05
3.61682e-05
9.04968e-05
4.04235e-05
8.6977e-05
4.04228e-05
8.69456e-05
3.6169e-05
3.6174e-05
8.70355e-05
4.04237e-05
9.05985e-05
8.70618e-05
4.04231e-05
3.61747e-05
2.00572e-05
4.98689e-05
7.5525e-05
7.55368e-05
2.00558e-05
2.00557e-05
7.5529e-05
4.98687e-05
7.55193e-05
2.00571e-05
3.61749e-05
9.06144e-05
8.70763e-05
4.0423e-05
8.709e-05
4.04237e-05
3.61741e-05
3.61685e-05
4.04211e-05
8.70709e-05
9.05335e-05
4.04204e-05
8.70456e-05
3.61697e-05
2.00546e-05
4.98661e-05
7.55136e-05
7.55297e-05
2.00531e-05
2.00533e-05
7.55419e-05
4.98657e-05
7.55254e-05
2.00549e-05
3.61689e-05
9.05616e-05
4.04203e-05
8.70039e-05
4.04211e-05
8.70329e-05
3.61679e-05
3.61742e-05
8.70162e-05
4.0423e-05
9.06129e-05
3.61736e-05
8.70336e-05
4.04237e-05
2.00555e-05
4.98682e-05
7.55201e-05
7.55091e-05
2.00569e-05
2.0057e-05
7.55139e-05
4.9869e-05
2.00556e-05
7.55246e-05
3.61732e-05
9.05958e-05
8.70363e-05
4.04237e-05
8.70204e-05
4.0423e-05
3.61739e-05
3.61702e-05
4.04207e-05
8.70652e-05
9.05672e-05
3.61691e-05
4.04215e-05
8.70837e-05
2.00537e-05
4.98655e-05
7.55425e-05
7.55299e-05
2.00551e-05
2.00551e-05
7.55315e-05
4.98663e-05
2.00535e-05
7.55455e-05
3.61695e-05
9.05779e-05
4.0422e-05
8.7085e-05
4.04211e-05
8.70704e-05
3.61705e-05
7.82588e-05
2.14342e-05
2.14377e-05
2.14328e-05
2.14363e-05
7.82687e-05
9.55411e-05
0.000109283
7.27821e-05
4.77674e-05
4.77681e-05
0.000109228
9.55273e-05
9.55166e-05
0.000109299
7.28259e-05
4.7779e-05
0.000109326
4.77799e-05
9.55056e-05
9.55204e-05
4.77679e-05
7.27841e-05
0.000109286
4.77672e-05
0.000109284
9.55246e-05
9.54925e-05
4.77802e-05
7.28272e-05
0.000109285
0.000109303
4.77792e-05
9.55425e-05
7.8267e-05
2.14329e-05
2.14364e-05
2.14343e-05
2.14378e-05
7.82579e-05
2.35404e-05
2.35394e-05
2.35378e-05
2.35389e-05
7.82705e-05
2.14328e-05
2.14363e-05
7.82612e-05
2.14342e-05
2.14377e-05
9.55171e-05
0.000109327
7.27962e-05
4.77678e-05
0.000109249
4.77671e-05
9.55096e-05
9.55159e-05
0.000109235
7.28097e-05
4.77802e-05
4.77796e-05
0.000109308
9.55156e-05
9.55434e-05
4.7767e-05
0.00010932
7.27995e-05
0.000109324
9.55223e-05
4.77679e-05
9.55224e-05
4.77797e-05
0.000109263
7.28304e-05
9.55396e-05
4.77805e-05
0.000109367
7.82637e-05
2.14342e-05
2.14377e-05
2.14328e-05
2.14363e-05
7.82728e-05
2.35395e-05
2.35406e-05
3.61686e-05
8.70491e-05
4.04201e-05
9.05007e-05
8.7022e-05
4.04192e-05
3.61699e-05
2.00546e-05
4.98626e-05
7.54982e-05
7.55173e-05
2.0053e-05
2.00533e-05
7.55308e-05
4.98624e-05
7.55146e-05
2.00549e-05
3.6169e-05
9.04964e-05
8.69727e-05
4.04192e-05
8.70076e-05
4.04198e-05
3.61679e-05
3.61694e-05
8.70191e-05
4.04206e-05
9.05243e-05
8.70073e-05
4.04198e-05
3.61702e-05
2.00548e-05
4.98648e-05
7.55265e-05
7.55397e-05
2.00533e-05
2.00532e-05
7.55403e-05
4.98644e-05
7.55271e-05
2.00548e-05
3.61703e-05
9.05202e-05
8.70109e-05
4.04201e-05
8.70316e-05
4.04205e-05
3.61695e-05
3.61705e-05
8.70408e-05
4.04197e-05
9.05279e-05
3.61694e-05
8.70583e-05
4.04205e-05
2.00536e-05
4.98632e-05
7.55333e-05
7.55206e-05
2.00551e-05
2.0055e-05
7.55202e-05
4.98636e-05
2.00535e-05
7.55337e-05
3.61699e-05
9.05233e-05
8.70563e-05
4.04211e-05
8.70423e-05
4.042e-05
3.61708e-05
3.61707e-05
8.7028e-05
4.042e-05
9.05469e-05
3.61696e-05
8.70507e-05
4.04208e-05
2.00532e-05
4.9864e-05
7.55334e-05
7.5523e-05
2.00547e-05
2.00547e-05
7.55201e-05
4.98646e-05
2.00532e-05
7.55345e-05
3.61701e-05
9.05065e-05
8.70589e-05
4.04209e-05
8.70411e-05
4.04201e-05
3.61711e-05
2.3542e-05
2.3541e-05
2.35406e-05
2.35397e-05
7.83113e-05
2.14394e-05
2.14364e-05
7.83034e-05
2.14408e-05
2.14378e-05
9.5564e-05
0.000109388
7.28521e-05
4.77862e-05
9.55622e-05
0.000109455
4.77856e-05
9.5612e-05
0.000109373
7.28599e-05
4.77776e-05
9.56071e-05
0.000109411
4.77767e-05
9.55802e-05
4.77855e-05
0.000109473
7.28627e-05
9.55479e-05
0.000109501
4.77864e-05
9.55905e-05
4.77762e-05
0.00010947
7.28542e-05
9.55917e-05
0.000109491
4.7777e-05
7.83039e-05
2.14409e-05
2.14379e-05
7.83119e-05
2.14394e-05
2.14364e-05
2.35412e-05
2.35422e-05
2.35401e-05
2.3541e-05
2.00551e-05
7.55294e-05
4.98662e-05
2.00537e-05
7.55414e-05
3.61705e-05
9.06111e-05
4.04215e-05
8.70713e-05
3.61697e-05
4.04223e-05
8.70849e-05
4.98643e-05
2.35423e-05
2.35412e-05
0.000116399
0.000116488
0.000116227
0.000116364
0.000116465
0.00013013
0.000130127
0.000115906
0.00012471
0.000124814
0.000130187
0.000124501
0.000124794
0.000115969
0.00011599
0.000124808
0.000124596
0.000130294
0.000115955
0.000124816
0.000124629
0.000115778
0.000124441
0.00012446
0.000129886
0.000124444
0.000124477
0.000115795
0.00011578
0.000129971
0.000124571
0.000124602
0.000124558
0.000124598
0.000115786
0.000115687
0.000124454
0.00012449
0.000129964
0.000124507
0.000124472
0.000115739
0.000115775
0.0001301
0.000124635
0.000124668
0.000124624
0.000124656
0.000115791
0.000115689
0.000124375
0.000124385
0.000129829
0.000124395
0.000124398
0.000115739
0.000115866
0.000129831
0.000124549
0.000124546
0.000124537
0.000124537
0.00011586
0.000115906
0.000130249
0.000124827
0.000124837
0.000115874
0.000124828
0.000124847
0.000116416
0.000116418
0.000116234
0.000116352
0.000116372
0.000130083
0.000130077
0.000116369
0.000116343
0.000116043
0.000116349
0.000116269
0.000130053
0.000130048
0.000116354
0.000116324
0.000116012
0.000116274
0.000116253
0.000130064
0.000130063
0.000116245
0.000116403
0.000116462
0.000116365
0.000116445
0.000130101
0.000130108
0.000116301
0.000116407
0.00011639
0.000116385
0.000116374
0.000130074
0.000130082
0.000116074
0.000116366
0.000116283
0.000116336
0.000116259
0.00013007
0.000130065
0.00011602
0.000116321
0.000116262
0.000116274
0.000116255
0.000130049
0.000130062
0.000126868
0.000113773
0.000128285
0.00011677
0.000113755
0.000128285
0.000126745
0.000123256
0.000117772
9.1714e-05
0.000104558
0.000117801
0.000104613
0.00012319
0.000123041
0.000104466
9.1681e-05
0.000117793
0.000117784
0.000104539
0.00012304
0.000126893
0.000116868
0.000113719
0.000128265
0.00011374
0.000128135
0.000126874
0.000126472
0.00012834
0.000113513
0.000116712
0.000128633
0.000113584
0.000126472
0.000123134
0.000117711
9.17112e-05
0.000104614
0.000117736
0.000104654
0.000123137
0.000123096
0.000104628
9.16842e-05
0.000117731
0.000117721
0.000104612
0.000123123
0.000126494
0.000116868
0.000128716
0.000113579
0.000128702
0.000113596
0.000126538
0.000115854
0.000130183
0.000124549
0.000124761
0.000124634
0.000124776
0.00011589
0.000115848
0.00012988
0.000124434
0.000124493
0.000115873
0.000124426
0.000124483
0.000115786
0.00012996
0.000124525
0.00012458
0.000115879
0.00012456
0.000124621
0.000126551
0.000113563
0.000128155
0.000116409
0.000113565
0.000128166
0.000126602
0.000123042
0.000117687
9.16863e-05
0.000104394
0.000104427
0.000117712
0.000123
0.000123079
0.000104474
9.16491e-05
0.000117708
0.000104444
0.000117697
0.000123091
0.000126542
0.000116567
0.000113556
0.000128205
0.000113566
0.000128168
0.000126552
0.000126612
0.000113538
0.000128169
0.00011672
0.000113542
0.000128215
0.000126594
0.000123172
0.000117708
9.16368e-05
0.000104537
0.000104578
0.000117735
0.000123149
0.000123196
0.000104509
9.16464e-05
0.000117735
0.000104552
0.000123197
0.000117722
0.000126533
0.00011674
0.000113503
0.000128211
0.000113541
0.000128162
0.000126578
0.000126615
0.000113527
0.000128334
0.000116562
0.000126557
0.000113538
0.000128406
0.000123181
0.000117739
9.16835e-05
0.000104489
0.000117727
0.000104494
0.000123146
0.000123155
0.000104475
0.000117723
9.16967e-05
0.000117736
0.000123118
0.000104498
0.000126576
0.000116639
0.000113567
0.000128403
0.000113526
0.000128397
0.000126674
0.000126616
0.00011344
0.000128402
0.000116638
0.000126692
0.000113517
0.000128414
0.000123233
0.000117763
9.16584e-05
0.000104574
0.000104538
0.000117751
0.000123279
0.000123222
0.000104526
0.000117749
9.16313e-05
0.000123235
0.000104507
0.000117762
0.000126696
0.000116691
0.000113606
0.000128399
0.00011349
0.000128445
0.0001267
0.000115791
0.000129946
0.000124485
0.000124519
0.000124509
0.000124475
0.000115808
0.000115807
0.00013006
0.000124584
0.00012462
0.000124621
0.00011575
0.000124656
0.000126413
0.000113676
0.00012837
0.000116984
0.000113656
0.000128381
0.000126457
0.000122976
0.000117749
9.17296e-05
0.000104625
0.000104668
0.000117774
0.000122927
0.000123052
0.000104705
9.17194e-05
0.000117772
0.000104678
0.00011776
0.000123151
0.000126399
0.000116992
0.000113698
0.00012838
0.000113698
0.000128382
0.000126351
0.000126575
0.000128346
0.000113612
0.000116691
0.000128348
0.000113667
0.000126601
0.00012309
0.000117703
9.17198e-05
0.000104475
0.000104527
0.000117725
0.00012309
0.000123131
0.000104595
9.17065e-05
0.000117723
0.000104483
0.000123201
0.000117712
0.000126586
0.000116806
0.000128338
0.000113558
0.000128345
0.000113557
0.000126589
0.000126533
0.000113652
0.000128539
0.000116883
0.000126519
0.00011358
0.000128607
0.000123179
0.000117796
9.17214e-05
0.000104678
0.000117785
0.000104609
0.000123202
0.000123158
0.000104668
0.000117785
9.17328e-05
0.000117797
0.000123131
0.000104681
0.000126632
0.000116886
0.000113711
0.000128593
0.000113637
0.000128594
0.000126642
0.000126648
0.000128516
0.000113674
0.000116744
0.000126646
0.000128586
0.000113747
0.000123258
0.00011775
9.17205e-05
0.000104638
0.000104668
0.000117738
0.000123184
0.000123218
0.000104612
0.000117737
9.17291e-05
0.000123202
0.000104646
0.00011775
0.000126742
0.000116736
0.000128582
0.000113772
0.000128578
0.000113722
0.000126727
0.000126707
0.00012836
0.00011371
0.000116728
0.000128402
0.000113707
0.000126578
0.000123173
0.000117805
9.17615e-05
0.000104616
0.000117829
0.000104622
0.000122993
0.000122969
0.000104659
9.17437e-05
0.000117813
0.000117809
0.000104578
0.000123015
0.000126771
0.000116811
0.00012841
0.000113627
0.0001284
0.000113674
0.000126813
0.000126822
0.000113772
0.000128542
0.000116847
0.000126846
0.000113743
0.000128602
0.000123092
0.000117803
9.1645e-05
0.000104466
0.000123139
0.000117796
0.000104437
0.000123087
0.000104439
0.000117803
9.16703e-05
0.000123051
0.000117812
0.000104505
0.000126871
0.000116826
0.000113694
0.000128646
0.000126883
0.000113712
0.000128641
0.000126627
0.000128523
0.000113688
0.000116776
0.000126684
0.000128589
0.000113688
0.000123061
0.000117813
9.16756e-05
0.000104636
0.000104612
0.000117807
0.000123092
0.000123032
0.000104573
0.000117818
9.17293e-05
0.000123021
0.000104648
0.000117826
0.000126738
0.000116772
0.000128578
0.000113665
0.000128577
0.000113637
0.000126761
0.000115814
0.000129703
0.000124403
0.000124414
0.0001244
0.000124391
0.000115842
0.000115865
0.000129826
0.000124503
0.0001245
0.000124541
0.000115847
0.000124538
0.00012669
0.000128385
0.000113553
0.000116827
0.000128398
0.000113574
0.000126625
0.000123018
0.000117777
9.17558e-05
0.000104526
0.000117799
0.000104551
0.000123172
0.000123043
0.000104566
9.1738e-05
0.000117787
0.000117782
0.000104572
0.000122894
0.000126553
0.000116874
0.00012843
0.000113646
0.000128394
0.000113624
0.000126747
0.000126485
0.000128293
0.000113596
0.00011683
0.000126465
0.000128312
0.000113558
0.0001229
0.000117736
9.17242e-05
0.000104581
0.000122958
0.000117731
0.000104528
0.000122942
0.000104578
0.00011774
9.17323e-05
0.000122937
0.000117749
0.000104578
0.00012654
0.000116689
0.000128333
0.000113629
0.000126564
0.000128325
0.000113652
0.000126688
0.000128547
0.000113584
0.000116735
0.000126714
0.000128604
0.000113571
0.000123064
0.000117799
9.17104e-05
0.000104637
0.00010459
0.000117791
0.000123048
0.000122994
0.000104527
0.000117796
9.17578e-05
0.000122929
0.000104502
0.000117806
0.000126729
0.000116705
0.000128584
0.000113636
0.000128584
0.000113603
0.000126693
0.000115934
0.000130234
0.000124767
0.000124835
0.000115915
0.000124798
0.000124852
0.000123079
0.000117814
0.000104611
9.1731e-05
0.000117825
0.000123084
0.0001046
0.000126717
0.000116741
0.000128546
0.000113665
0.000128557
0.00012672
0.000113648
0.000117802
9.17356e-05
0.000117814
0.000113463
0.000126833
0.00012672
0.000126093
0.000114097
0.00012782
0.000127775
0.000127042
0.000114628
0.000128661
0.000128637
0.000127651
0.000114939
0.000129264
0.000129209
0.000128187
0.000115132
0.000129618
0.000129572
0.000128602
0.000115304
0.00012987
0.000129847
0.000128919
0.000115475
0.000130053
0.000130039
0.000129289
0.000115555
0.000130193
0.000130177
0.000129396
0.000115615
0.000130249
0.00013027
0.000129435
0.000115762
0.000130288
0.000130369
0.000129243
0.000115858
0.000130326
0.000130448
0.000129275
0.000115981
0.000130384
0.000130466
0.000129067
0.000115983
0.000130483
0.00013046
0.000129434
0.00011601
0.000130549
0.000130476
0.000129707
0.000116067
0.000130562
0.000130492
0.000129868
0.000116063
0.000130561
0.000130491
0.000130091
0.000116097
0.00013057
0.000130488
0.000130103
0.00011611
0.000130618
0.000130499
0.000130163
0.000116114
0.000130698
0.000130539
0.000130076
0.000116146
0.000130754
0.000130549
0.000130151
0.000116192
0.00013079
0.000130525
0.00013016
0.000116172
0.000130856
0.000130525
0.000130191
0.000116207
0.00013088
0.00013056
0.000130237
0.000116234