/*--------------------------------*- C++ -*----------------------------------*\
| =========                 |                                                 |
| \\      /  F ield         | OpenFOAM: The Open Source CFD Toolbox           |
|  \\    /   O peration     | Version:  v1906                                 |
|   \\  /    A nd           | Web:      www.OpenFOAM.com                      |
|    \\/     M anipulation  |                                                 |
\*---------------------------------------------------------------------------*/
FoamFile
{
    version     2.0;
    format      ascii;
    class       volScalarField;
    location    "950";
    object      epsilon;
}
// * * * * * * * * * * * * * * * * * * * * * * * * * * * * * * * * * * * * * //

dimensions      [0 2 -3 0 0 0 0];


internalField   nonuniform List<scalar> 
171728
(
1.14838e-06
8.63035e-07
8.63001e-07
1.14814e-06
8.6278e-07
8.6307e-07
8.62828e-07
8.63048e-07
1.14884e-06
8.6295e-07
8.62929e-07
1.14878e-06
3.19689e-07
3.19677e-07
3.1977e-07
3.1976e-07
1.84275e-05
1.84292e-05
5.46216e-06
5.46337e-06
4.09161e-06
9.1613e-06
4.09393e-06
4.09183e-06
9.16211e-06
9.1556e-06
4.09373e-06
2.10221e-06
3.47504e-06
5.58208e-07
5.52302e-07
2.10686e-06
2.1023e-06
8.56926e-07
3.47505e-06
5.58238e-07
3.47174e-06
5.52345e-07
2.10695e-06
1.84288e-05
1.84185e-05
1.14438e-06
5.46393e-06
5.46179e-06
5.46111e-06
5.45948e-06
1.84262e-05
1.84159e-05
9.16296e-06
4.09401e-06
3.47555e-06
5.5828e-07
2.10701e-06
9.16239e-06
4.0936e-06
5.5831e-07
3.47496e-06
2.10693e-06
2.10241e-06
8.56756e-07
3.47469e-06
5.58218e-07
3.47167e-06
5.52327e-07
2.107e-06
4.09191e-06
9.16189e-06
9.15545e-06
4.09363e-06
2.10233e-06
8.56966e-07
5.58273e-07
3.4748e-06
5.5238e-07
3.47188e-06
2.10692e-06
4.09154e-06
9.16188e-06
9.15542e-06
4.09399e-06
1.84296e-05
5.46362e-06
5.46188e-06
1.84282e-05
2.10243e-06
5.58347e-07
3.47512e-06
5.52442e-07
2.10699e-06
2.10248e-06
8.56853e-07
5.58349e-07
3.47565e-06
5.5246e-07
3.47195e-06
2.10704e-06
4.09183e-06
9.16234e-06
4.09406e-06
4.0917e-06
9.1633e-06
9.15657e-06
4.09401e-06
1.14387e-06
5.46204e-06
5.46415e-06
5.45958e-06
5.46123e-06
1.84281e-05
1.84178e-05
1.84301e-05
1.84198e-05
1.84223e-05
1.84244e-05
4.53815e-06
2.81207e-06
5.46185e-06
9.50059e-06
9.49694e-06
2.81011e-06
4.54051e-06
4.54442e-06
2.81183e-06
5.46369e-06
9.50347e-06
9.50127e-06
2.81174e-06
4.54271e-06
9.7362e-06
2.17309e-05
2.17286e-05
2.17241e-05
2.17228e-05
9.73571e-06
1.22035e-05
1.0824e-05
4.74426e-06
4.09192e-06
1.22005e-05
1.08269e-05
4.7444e-06
2.2054e-05
9.15827e-06
7.08846e-06
7.08899e-06
2.20609e-05
1.22038e-05
4.09338e-06
1.08302e-05
4.74602e-06
1.08271e-05
4.74587e-06
1.22071e-05
1.22034e-05
1.08246e-05
4.74458e-06
4.09185e-06
1.22009e-05
1.08266e-05
4.7446e-06
2.20545e-05
9.15959e-06
7.09018e-06
7.09056e-06
2.20611e-05
2.20565e-05
7.08956e-06
9.15816e-06
2.20499e-05
7.08917e-06
1.22042e-05
4.09372e-06
1.08298e-05
4.7461e-06
1.08277e-05
4.74616e-06
1.22069e-05
1.84239e-05
1.84234e-05
9.73345e-06
2.17175e-05
2.17182e-05
9.73383e-06
2.17238e-05
2.17245e-05
4.54454e-06
2.81219e-06
5.46359e-06
9.50442e-06
2.81168e-06
9.50074e-06
4.54482e-06
4.5386e-06
2.81098e-06
5.46182e-06
9.49975e-06
9.49611e-06
2.81049e-06
4.53874e-06
4.54225e-06
9.49608e-06
2.80844e-06
5.46166e-06
2.80902e-06
4.54183e-06
9.49968e-06
4.53606e-06
9.49145e-06
2.80725e-06
5.45949e-06
4.53597e-06
9.49502e-06
2.80782e-06
9.73581e-06
2.17288e-05
2.17295e-05
2.17225e-05
2.17232e-05
9.73542e-06
1.84212e-05
1.84209e-05
2.20541e-05
9.16004e-06
7.09004e-06
7.09039e-06
2.20607e-05
1.22041e-05
4.09363e-06
4.7463e-06
1.08307e-05
4.74602e-06
1.08277e-05
1.22072e-05
2.20542e-05
9.15977e-06
7.08864e-06
7.08915e-06
2.2061e-05
1.22044e-05
4.09379e-06
1.083e-05
4.74602e-06
1.0828e-05
4.74602e-06
1.2207e-05
1.22029e-05
4.74447e-06
1.08246e-05
4.09183e-06
1.22004e-05
4.74432e-06
1.08266e-05
2.20531e-05
9.15945e-06
7.08961e-06
7.08998e-06
2.20597e-05
2.20551e-05
7.08899e-06
9.15796e-06
2.20485e-05
7.08861e-06
1.22038e-05
4.09384e-06
4.74583e-06
1.08298e-05
4.74609e-06
1.08278e-05
1.22066e-05
1.22035e-05
1.0824e-05
4.74415e-06
4.09207e-06
1.22006e-05
1.0827e-05
4.74446e-06
2.20538e-05
9.15942e-06
7.08825e-06
7.08862e-06
2.20604e-05
2.20557e-05
7.08762e-06
9.15793e-06
2.20492e-05
7.08724e-06
1.2204e-05
4.09352e-06
1.08302e-05
4.7461e-06
1.08272e-05
4.74574e-06
1.22069e-05
1.84246e-05
4.54488e-06
2.8126e-06
5.46366e-06
9.50412e-06
2.81153e-06
9.50119e-06
4.54516e-06
4.53884e-06
2.81152e-06
5.46192e-06
9.49951e-06
9.49659e-06
2.81043e-06
4.53921e-06
9.73669e-06
2.17299e-05
2.17303e-05
2.17236e-05
2.1724e-05
9.73633e-06
1.84232e-05
1.22036e-05
4.74419e-06
1.0825e-05
4.09189e-06
1.22009e-05
4.7442e-06
1.0827e-05
2.20542e-05
9.15937e-06
7.08827e-06
7.08862e-06
2.20608e-05
2.20561e-05
7.08724e-06
1.22042e-05
4.09359e-06
4.74607e-06
1.08303e-05
4.74577e-06
1.08281e-05
1.22072e-05
1.22036e-05
4.7445e-06
1.08246e-05
4.09214e-06
1.22006e-05
4.74469e-06
1.08275e-05
2.20539e-05
9.16027e-06
7.08998e-06
7.09048e-06
2.20608e-05
2.20562e-05
7.08949e-06
9.15918e-06
2.20493e-05
7.08897e-06
1.22039e-05
4.0936e-06
4.74627e-06
1.08308e-05
4.74615e-06
1.08278e-05
1.22072e-05
9.73406e-06
2.1719e-05
2.17183e-05
9.73444e-06
2.17252e-05
2.17246e-05
4.53873e-06
2.81108e-06
5.46194e-06
9.49963e-06
2.81049e-06
9.49668e-06
4.53913e-06
4.54486e-06
2.81232e-06
5.46365e-06
9.50481e-06
2.81169e-06
9.50113e-06
4.54492e-06
4.53651e-06
9.49195e-06
2.80722e-06
5.45971e-06
4.5361e-06
2.80812e-06
9.49497e-06
4.54237e-06
9.49646e-06
2.80845e-06
5.46184e-06
4.54225e-06
2.80935e-06
9.50006e-06
9.73644e-06
2.17303e-05
2.17296e-05
2.1724e-05
2.17233e-05
9.73604e-06
1.84232e-05
1.84227e-05
1.84251e-05
1.84247e-05
2.66823e-06
1.14933e-06
1.76792e-06
1.76739e-06
1.76777e-06
1.76779e-06
2.66807e-06
2.66823e-06
1.14941e-06
1.76751e-06
1.76739e-06
1.76814e-06
1.76794e-06
2.66803e-06
2.66799e-06
1.14919e-06
1.76839e-06
1.76828e-06
1.76785e-06
1.76775e-06
2.66868e-06
2.668e-06
1.14901e-06
1.76813e-06
1.76838e-06
1.76763e-06
1.76784e-06
2.6687e-06
1.66591e-07
1.66573e-07
1.6448e-07
7.93908e-08
7.99329e-08
3.15737e-07
1.6659e-07
1.66542e-07
1.64478e-07
1.64431e-07
7.93863e-08
7.99279e-08
1.66638e-07
1.66613e-07
1.64497e-07
7.94076e-08
7.99506e-08
3.15815e-07
1.66619e-07
1.66606e-07
1.64505e-07
1.64494e-07
7.94042e-08
7.9947e-08
1.41082e-06
2.36153e-06
1.27347e-06
2.10319e-06
1.41068e-06
2.36239e-06
1.27401e-06
1.61687e-06
2.03251e-06
3.47447e-06
2.86035e-06
2.03162e-06
2.85968e-06
1.6172e-06
1.41579e-06
2.1059e-06
2.36578e-06
1.27948e-06
2.3649e-06
1.27878e-06
1.41584e-06
1.41101e-06
2.36182e-06
1.27339e-06
2.10326e-06
1.41085e-06
2.36267e-06
1.27421e-06
1.6173e-06
2.03265e-06
3.47484e-06
2.86092e-06
2.86019e-06
2.03204e-06
1.61756e-06
1.61298e-06
2.85724e-06
2.02777e-06
3.47264e-06
1.61253e-06
2.85792e-06
2.02864e-06
1.41595e-06
2.10599e-06
2.36603e-06
1.27949e-06
2.36517e-06
1.27874e-06
1.41599e-06
2.66482e-06
1.14322e-06
1.7638e-06
1.76362e-06
1.76366e-06
2.66476e-06
1.76352e-06
1.61837e-06
2.03214e-06
3.47484e-06
2.86051e-06
2.03246e-06
2.86032e-06
1.61593e-06
1.41664e-06
2.1061e-06
2.36602e-06
1.27834e-06
2.36515e-06
1.28003e-06
1.41502e-06
1.61826e-06
2.03198e-06
3.47525e-06
2.86041e-06
2.85976e-06
2.03261e-06
1.61587e-06
1.41656e-06
2.10606e-06
1.27832e-06
2.36587e-06
1.27999e-06
2.36502e-06
1.41495e-06
1.40971e-06
2.36186e-06
1.2745e-06
2.10335e-06
1.41246e-06
2.36262e-06
1.27314e-06
1.61859e-06
2.03176e-06
3.47459e-06
2.8607e-06
2.03186e-06
2.86016e-06
1.61599e-06
1.61185e-06
2.85727e-06
2.0277e-06
3.47194e-06
1.61368e-06
2.02785e-06
2.85749e-06
1.41761e-06
2.10607e-06
2.36596e-06
1.2782e-06
2.36523e-06
1.27982e-06
1.41453e-06
1.40959e-06
1.274e-06
2.36167e-06
2.10327e-06
1.41223e-06
1.27316e-06
2.36248e-06
1.61841e-06
2.03172e-06
3.47475e-06
2.86005e-06
2.85989e-06
2.03191e-06
1.61593e-06
1.61174e-06
2.85692e-06
2.02775e-06
3.47188e-06
1.61351e-06
2.85713e-06
2.02791e-06
1.41725e-06
2.106e-06
1.27819e-06
2.36584e-06
1.27959e-06
2.36505e-06
1.41467e-06
1.40977e-06
1.27439e-06
2.36174e-06
2.10335e-06
1.4124e-06
1.27323e-06
2.36249e-06
1.61821e-06
2.0324e-06
3.47454e-06
2.85996e-06
2.0318e-06
2.85966e-06
1.61593e-06
1.61151e-06
2.85728e-06
1.41742e-06
2.10609e-06
1.27818e-06
2.36587e-06
1.27978e-06
2.3651e-06
1.41482e-06
1.40971e-06
1.27455e-06
2.36193e-06
2.1034e-06
1.41243e-06
1.27323e-06
2.36265e-06
1.61871e-06
2.03243e-06
3.4751e-06
2.8609e-06
2.86014e-06
2.03248e-06
1.61611e-06
1.61196e-06
2.8572e-06
2.02845e-06
3.47287e-06
1.61378e-06
2.85789e-06
2.0283e-06
1.41757e-06
2.10614e-06
1.27834e-06
2.36599e-06
1.27996e-06
2.3653e-06
1.41452e-06
2.66544e-06
1.14357e-06
1.76345e-06
1.76367e-06
2.66445e-06
1.7638e-06
1.7641e-06
6.51831e-07
1.18285e-06
1.18291e-06
1.41522e-06
1.41814e-06
1.41517e-06
1.4159e-06
1.18292e-06
1.18294e-06
1.18524e-06
1.18527e-06
1.41513e-06
1.41583e-06
1.18283e-06
1.18297e-06
1.18515e-06
1.18529e-06
1.18298e-06
1.18517e-06
1.1853e-06
1.41518e-06
1.41589e-06
1.18289e-06
1.18523e-06
1.18522e-06
1.41592e-06
1.18603e-06
1.18594e-06
4.23629e-06
9.5493e-06
9.55408e-06
4.23572e-06
1.9061e-05
1.90714e-05
4.23646e-06
9.55129e-06
9.55606e-06
4.23583e-06
6.51843e-07
6.51938e-07
6.51929e-07
6.5649e-07
6.56502e-07
6.56596e-07
6.56589e-07
2.29404e-06
3.64446e-06
9.29861e-07
1.18365e-06
3.6449e-06
9.30968e-07
2.29371e-06
1.90619e-05
1.90724e-05
2.29401e-06
9.29913e-07
3.64447e-06
1.18371e-06
9.31019e-07
3.64495e-06
2.29369e-06
5.64516e-06
5.64712e-06
1.41448e-06
5.64624e-06
5.6482e-06
5.64953e-06
5.65148e-06
1.90594e-05
1.90698e-05
1.90618e-05
1.90722e-05
5.64508e-06
5.64697e-06
1.41443e-06
5.64617e-06
5.64805e-06
1.90809e-05
1.90705e-05
1.90833e-05
1.90729e-05
1.41668e-06
5.64835e-06
5.65023e-06
5.64729e-06
5.64918e-06
4.2364e-06
9.55045e-06
9.55525e-06
4.23583e-06
2.29391e-06
3.64425e-06
9.29791e-07
1.18372e-06
3.64474e-06
9.309e-07
2.29365e-06
2.29398e-06
3.64477e-06
9.29831e-07
1.18375e-06
3.64525e-06
9.30938e-07
2.29371e-06
4.23705e-06
9.55994e-06
9.55515e-06
4.23758e-06
4.23717e-06
9.56103e-06
9.55632e-06
4.23769e-06
2.29449e-06
1.18451e-06
3.646e-06
9.33012e-07
3.64555e-06
9.31987e-07
2.2947e-06
2.29456e-06
1.18453e-06
3.6465e-06
9.33051e-07
3.64608e-06
9.32027e-07
2.29476e-06
5.64687e-06
5.64523e-06
1.41438e-06
5.64795e-06
5.6462e-06
1.90587e-05
1.90693e-05
1.90825e-05
1.90721e-05
1.41664e-06
5.65012e-06
5.64837e-06
5.64909e-06
5.64745e-06
1.90803e-05
1.90698e-05
2.29407e-06
3.64501e-06
9.29857e-07
1.18363e-06
3.64544e-06
9.30985e-07
2.29379e-06
4.23636e-06
9.55068e-06
9.55546e-06
4.23574e-06
2.29399e-06
9.29885e-07
3.64486e-06
1.18377e-06
9.30992e-07
3.64529e-06
2.29372e-06
4.23717e-06
9.56193e-06
9.55714e-06
4.23775e-06
2.29463e-06
1.18442e-06
3.6467e-06
9.33097e-07
3.64631e-06
9.32053e-07
2.29486e-06
4.23707e-06
9.56125e-06
9.55654e-06
4.23766e-06
2.29456e-06
1.18456e-06
9.33105e-07
3.64654e-06
9.3208e-07
3.64616e-06
2.29477e-06
4.23647e-06
9.5503e-06
9.55546e-06
4.23588e-06
2.29396e-06
9.2988e-07
3.64434e-06
1.18378e-06
9.30983e-07
3.64482e-06
2.29364e-06
4.23635e-06
9.55035e-06
9.55512e-06
4.23578e-06
2.29455e-06
1.18444e-06
3.64616e-06
9.33079e-07
3.64577e-06
9.32056e-07
2.29482e-06
4.23721e-06
9.56122e-06
9.55617e-06
4.23776e-06
2.29448e-06
1.18457e-06
9.33093e-07
3.64608e-06
9.32074e-07
3.64564e-06
2.29473e-06
4.23711e-06
9.5609e-06
9.5562e-06
4.23764e-06
5.64701e-06
5.64522e-06
1.41444e-06
5.64796e-06
5.64629e-06
1.90606e-05
1.90711e-05
1.90834e-05
1.9073e-05
1.4167e-06
5.65013e-06
5.64847e-06
5.64923e-06
5.64742e-06
1.90821e-05
1.90718e-05
2.29405e-06
9.29926e-07
3.64499e-06
1.18369e-06
9.31031e-07
3.64547e-06
2.29373e-06
4.23639e-06
9.55066e-06
9.55544e-06
4.2358e-06
4.23643e-06
9.55139e-06
9.55617e-06
4.2358e-06
2.29453e-06
1.1845e-06
9.3313e-07
3.64621e-06
9.32108e-07
3.64577e-06
2.29479e-06
2.29457e-06
1.18448e-06
9.33143e-07
3.64672e-06
9.32121e-07
3.6463e-06
2.29483e-06
4.23713e-06
9.56122e-06
9.55652e-06
4.23767e-06
4.23713e-06
9.56203e-06
9.55724e-06
4.23771e-06
1.90604e-05
1.90709e-05
1.90623e-05
1.90728e-05
1.41674e-06
5.64842e-06
5.65038e-06
5.64738e-06
5.64933e-06
1.90819e-05
1.90716e-05
1.90838e-05
1.90735e-05
9.34103e-07
3.64687e-06
2.29522e-06
9.56196e-06
4.23837e-06
3.64753e-06
9.56277e-06
1.90826e-05
1.90845e-05
1.26397e-05
1.12331e-05
4.88159e-06
4.23639e-06
1.12301e-05
4.88172e-06
1.26434e-05
2.2738e-05
9.55117e-06
7.23779e-06
7.23742e-06
2.27308e-05
2.27373e-05
7.2387e-06
9.55223e-06
7.23907e-06
2.27444e-05
1.26396e-05
4.23562e-06
1.12267e-05
4.88098e-06
1.12296e-05
4.88085e-06
1.26358e-05
1.90659e-05
1.90666e-05
1.26407e-05
4.8819e-06
1.12335e-05
4.23651e-06
4.88198e-06
1.12312e-05
1.26432e-05
2.27379e-05
9.55316e-06
7.23923e-06
7.23905e-06
2.27309e-05
2.27374e-05
7.24032e-06
9.55422e-06
7.24051e-06
2.27443e-05
1.26394e-05
4.23577e-06
4.88123e-06
1.12277e-05
4.88115e-06
1.123e-05
1.26368e-05
1.90668e-05
1.90675e-05
9.95768e-06
2.23738e-05
2.2373e-05
2.23676e-05
2.23668e-05
9.95734e-06
4.70056e-06
2.97313e-06
5.64512e-06
9.91421e-06
2.97296e-06
9.91611e-06
4.7009e-06
4.7063e-06
2.97433e-06
5.64708e-06
9.91898e-06
2.97418e-06
9.92088e-06
4.70663e-06
4.70162e-06
9.91903e-06
5.64628e-06
2.97338e-06
2.97355e-06
9.91715e-06
4.70127e-06
4.70735e-06
9.9238e-06
5.64823e-06
2.97459e-06
2.97475e-06
9.92193e-06
4.70701e-06
9.95553e-06
2.23617e-05
2.23609e-05
2.2368e-05
2.23672e-05
9.95586e-06
4.70329e-06
2.97469e-06
9.92586e-06
5.64948e-06
4.70366e-06
2.97451e-06
9.92763e-06
4.70903e-06
2.9759e-06
9.93064e-06
5.65144e-06
4.70939e-06
2.97572e-06
9.9324e-06
9.96266e-06
2.23849e-05
2.23841e-05
9.96303e-06
2.23911e-05
2.23903e-05
1.90643e-05
1.9065e-05
1.90666e-05
1.90674e-05
9.95759e-06
2.23739e-05
2.23732e-05
2.23677e-05
2.23669e-05
9.95726e-06
4.70055e-06
2.97312e-06
5.64506e-06
9.91428e-06
9.91618e-06
2.97297e-06
4.70087e-06
4.70627e-06
2.97429e-06
5.64693e-06
9.91915e-06
9.92104e-06
2.97412e-06
4.70658e-06
4.70159e-06
9.91911e-06
5.6462e-06
2.97339e-06
9.91723e-06
4.70126e-06
2.97354e-06
4.7073e-06
9.92397e-06
5.64808e-06
2.97454e-06
9.92209e-06
4.70698e-06
2.97471e-06
9.95544e-06
2.23618e-05
2.23611e-05
2.23681e-05
2.23674e-05
9.95577e-06
1.90761e-05
1.90754e-05
1.90784e-05
1.90778e-05
9.95905e-06
2.23735e-05
2.23728e-05
9.95939e-06
2.23797e-05
2.2379e-05
4.70298e-06
2.97416e-06
5.64838e-06
9.92492e-06
9.92309e-06
2.97433e-06
4.70263e-06
4.70868e-06
2.97531e-06
5.65027e-06
9.9298e-06
9.92795e-06
2.97549e-06
4.70834e-06
4.70195e-06
9.92019e-06
2.97394e-06
5.64727e-06
4.70229e-06
9.92208e-06
2.97378e-06
4.70767e-06
9.92505e-06
2.97511e-06
5.64915e-06
4.708e-06
9.92694e-06
2.97493e-06
9.96118e-06
2.23855e-05
2.23847e-05
2.23793e-05
2.23785e-05
9.96083e-06
1.26405e-05
1.12329e-05
4.8819e-06
4.23651e-06
1.12307e-05
4.882e-06
1.2643e-05
2.2738e-05
9.55234e-06
7.23932e-06
7.23913e-06
2.27311e-05
2.27376e-05
7.24041e-06
9.55338e-06
7.2406e-06
2.27445e-05
1.26391e-05
4.23573e-06
1.12272e-05
4.88125e-06
1.12294e-05
4.88116e-06
1.26366e-05
1.26473e-05
1.12337e-05
4.88245e-06
4.23695e-06
1.26436e-05
1.12366e-05
4.88231e-06
2.27501e-05
9.55802e-06
7.24122e-06
2.27572e-05
7.2416e-06
2.27508e-05
7.24034e-06
9.55704e-06
2.27437e-05
7.23997e-06
1.26474e-05
4.23769e-06
1.12401e-05
4.88302e-06
1.2651e-05
1.12371e-05
4.88317e-06
1.26468e-05
1.12342e-05
4.88273e-06
4.23705e-06
1.26443e-05
1.12364e-05
4.88263e-06
2.27504e-05
9.55921e-06
7.24292e-06
7.24313e-06
2.27572e-05
2.27509e-05
7.24187e-06
9.55819e-06
2.2744e-05
7.24167e-06
1.26482e-05
4.23781e-06
1.12399e-05
4.88334e-06
1.12377e-05
4.88344e-06
1.26506e-05
9.95723e-06
2.23725e-05
2.23733e-05
2.23662e-05
2.23671e-05
9.9569e-06
4.70611e-06
2.97419e-06
5.64684e-06
9.91836e-06
9.9209e-06
2.97401e-06
4.70644e-06
4.70039e-06
2.97308e-06
5.64508e-06
9.91383e-06
2.9729e-06
9.91638e-06
4.70072e-06
4.70716e-06
9.92384e-06
5.64799e-06
2.97443e-06
9.92133e-06
2.97461e-06
4.70681e-06
4.70144e-06
9.91932e-06
5.64634e-06
2.97332e-06
2.9735e-06
9.91681e-06
4.7011e-06
9.95509e-06
2.23604e-05
2.23612e-05
2.23667e-05
2.23675e-05
9.95541e-06
1.90637e-05
1.90643e-05
1.90776e-05
1.9077e-05
9.95869e-06
2.2372e-05
2.23729e-05
9.95903e-06
2.23783e-05
2.23791e-05
4.70854e-06
2.9752e-06
5.65018e-06
9.9295e-06
2.97539e-06
9.92731e-06
4.70818e-06
4.70282e-06
2.97409e-06
5.64853e-06
9.92508e-06
9.9226e-06
2.97428e-06
4.70246e-06
4.7075e-06
9.92429e-06
2.97501e-06
5.64905e-06
2.97482e-06
4.70786e-06
9.92669e-06
4.70179e-06
9.91975e-06
2.9739e-06
5.64729e-06
4.70214e-06
9.92222e-06
2.97372e-06
9.96082e-06
2.2384e-05
2.23849e-05
2.23778e-05
2.23787e-05
9.96047e-06
1.90754e-05
1.90748e-05
1.26408e-05
1.12333e-05
4.88171e-06
4.23641e-06
1.1231e-05
4.88186e-06
1.26433e-05
2.27381e-05
9.55255e-06
7.23799e-06
7.23763e-06
2.2731e-05
2.27375e-05
7.23891e-06
9.55361e-06
7.23927e-06
2.27446e-05
1.26395e-05
4.23569e-06
1.12275e-05
4.88112e-06
1.12298e-05
4.88097e-06
1.26369e-05
1.2647e-05
4.88271e-06
1.12347e-05
4.2371e-06
1.26445e-05
4.88261e-06
1.1237e-05
2.27502e-05
9.56001e-06
7.24284e-06
2.2757e-05
7.24304e-06
2.27507e-05
7.24178e-06
9.55902e-06
2.27438e-05
7.24159e-06
1.26484e-05
4.23781e-06
4.88334e-06
1.12404e-05
1.26509e-05
4.88342e-06
1.12383e-05
1.26471e-05
1.12345e-05
4.88259e-06
4.23702e-06
1.26446e-05
1.12368e-05
4.88244e-06
2.27503e-05
9.55944e-06
7.24143e-06
7.2418e-06
2.27573e-05
2.2751e-05
7.24054e-06
9.5584e-06
2.27439e-05
7.24018e-06
1.26485e-05
4.23772e-06
1.12402e-05
4.88315e-06
1.12381e-05
4.88331e-06
1.26509e-05
1.26404e-05
4.8818e-06
1.12336e-05
4.23655e-06
4.88186e-06
1.12306e-05
1.26429e-05
2.27372e-05
9.55256e-06
7.23886e-06
7.23869e-06
2.27303e-05
2.27367e-05
7.23997e-06
9.55324e-06
7.24015e-06
2.27436e-05
1.26391e-05
4.2358e-06
4.88112e-06
1.12272e-05
4.88106e-06
1.12301e-05
1.26365e-05
1.26407e-05
1.12333e-05
4.88156e-06
4.23645e-06
1.12307e-05
4.88165e-06
1.26432e-05
2.27377e-05
9.55222e-06
7.23739e-06
7.23719e-06
2.27307e-05
2.27372e-05
7.23847e-06
9.55327e-06
7.23867e-06
2.27441e-05
1.26393e-05
4.23568e-06
1.12274e-05
4.88091e-06
1.12297e-05
4.88082e-06
1.26368e-05
1.26467e-05
4.88259e-06
1.12342e-05
4.23712e-06
1.26442e-05
4.88252e-06
1.12371e-05
2.27495e-05
9.55904e-06
7.24248e-06
7.24268e-06
2.27564e-05
2.275e-05
7.24142e-06
9.55834e-06
2.27431e-05
7.24123e-06
1.26481e-05
4.23785e-06
4.88323e-06
1.12406e-05
4.8833e-06
1.12377e-05
1.26506e-05
1.2647e-05
1.1234e-05
4.88238e-06
4.237e-06
1.26445e-05
1.12369e-05
4.88228e-06
2.275e-05
9.55909e-06
7.24098e-06
7.2412e-06
2.27568e-05
2.27505e-05
7.23994e-06
9.55806e-06
2.27436e-05
7.23973e-06
1.26483e-05
4.23774e-06
1.12405e-05
4.88299e-06
1.12375e-05
4.88309e-06
1.26508e-05
9.95809e-06
2.23736e-05
2.2374e-05
2.23673e-05
2.23678e-05
9.95776e-06
4.70644e-06
2.97429e-06
5.64684e-06
9.91876e-06
9.92065e-06
2.9741e-06
4.70679e-06
4.70074e-06
2.97323e-06
5.64518e-06
9.91427e-06
2.97306e-06
9.91617e-06
4.70109e-06
4.7075e-06
9.92358e-06
5.64813e-06
2.97451e-06
9.9217e-06
2.97471e-06
4.70714e-06
4.7018e-06
9.9191e-06
5.64632e-06
2.97347e-06
2.97365e-06
9.91722e-06
4.70144e-06
9.95596e-06
2.23615e-05
2.2362e-05
2.23678e-05
2.23682e-05
9.95628e-06
1.90655e-05
1.90662e-05
1.90785e-05
1.90779e-05
9.95955e-06
2.23731e-05
2.23736e-05
9.95989e-06
2.23794e-05
2.23798e-05
4.70888e-06
2.97528e-06
5.65031e-06
9.92941e-06
2.97549e-06
9.92756e-06
4.7085e-06
4.70318e-06
2.97424e-06
5.6485e-06
9.92492e-06
9.92307e-06
2.97443e-06
4.7028e-06
4.70783e-06
9.92467e-06
2.97511e-06
5.64905e-06
2.97491e-06
4.7082e-06
9.92656e-06
4.70213e-06
9.92018e-06
2.97404e-06
5.64739e-06
4.7025e-06
9.92207e-06
2.97387e-06
9.96168e-06
2.23851e-05
2.23856e-05
2.23789e-05
2.23794e-05
9.96133e-06
1.90773e-05
1.90766e-05
1.26399e-05
4.88164e-06
1.12335e-05
4.23648e-06
4.88174e-06
1.12305e-05
1.26436e-05
2.27381e-05
9.55253e-06
7.23757e-06
7.2374e-06
2.27311e-05
2.27376e-05
7.23867e-06
9.55359e-06
7.23885e-06
2.27445e-05
1.26398e-05
4.23571e-06
4.881e-06
1.1227e-05
4.88088e-06
1.123e-05
1.2636e-05
1.26402e-05
4.88183e-06
1.12336e-05
4.23647e-06
4.88201e-06
1.12306e-05
1.26427e-05
2.27373e-05
9.55326e-06
7.23934e-06
7.23894e-06
2.27301e-05
2.27366e-05
7.24022e-06
9.55432e-06
7.24062e-06
2.27437e-05
1.26389e-05
4.23577e-06
4.88126e-06
1.12271e-05
4.88109e-06
1.123e-05
1.26363e-05
1.26475e-05
4.88247e-06
1.1234e-05
4.23702e-06
1.26438e-05
4.88234e-06
1.1237e-05
2.27504e-05
9.55941e-06
7.24118e-06
7.24138e-06
2.27572e-05
2.27509e-05
7.24012e-06
9.55838e-06
2.2744e-05
7.23993e-06
1.26476e-05
4.23778e-06
4.88307e-06
1.12405e-05
4.88318e-06
1.12375e-05
1.26513e-05
1.26466e-05
4.88273e-06
1.12341e-05
4.23708e-06
1.26439e-05
4.88255e-06
1.12371e-05
2.27494e-05
9.56012e-06
7.24274e-06
7.24315e-06
2.27565e-05
2.27501e-05
7.24189e-06
9.55913e-06
2.2743e-05
7.24149e-06
1.26477e-05
4.23777e-06
4.88327e-06
1.12405e-05
4.88344e-06
1.12376e-05
1.26505e-05
1.90653e-05
1.9066e-05
1.90672e-05
1.90679e-05
9.95913e-06
2.23734e-05
2.23726e-05
9.95947e-06
2.23796e-05
2.23788e-05
4.703e-06
2.97415e-06
5.64847e-06
9.92485e-06
4.70263e-06
2.97433e-06
9.92299e-06
4.70873e-06
2.97536e-06
5.65042e-06
9.92962e-06
4.70837e-06
2.97554e-06
9.92777e-06
4.70196e-06
9.92011e-06
2.97395e-06
5.64734e-06
4.70232e-06
2.97378e-06
9.92201e-06
4.7077e-06
9.92488e-06
2.97516e-06
5.6493e-06
4.70805e-06
2.97499e-06
9.92678e-06
9.96126e-06
2.23854e-05
2.23845e-05
9.96091e-06
2.23792e-05
2.23784e-05
1.90771e-05
1.90764e-05
1.9079e-05
1.90783e-05
2.27631e-05
7.24244e-06
9.5637e-06
2.27563e-05
7.24222e-06
1.26546e-05
4.23826e-06
1.1241e-05
4.88379e-06
1.26521e-05
1.12439e-05
4.88368e-06
9.56498e-06
1.90874e-05
1.90893e-05
4.41724e-07
4.41688e-07
6.53416e-07
4.43612e-07
4.4358e-07
2.35584e-07
2.33654e-07
2.8269e-06
1.96718e-06
1.96743e-06
1.41371e-06
1.96649e-06
1.96673e-06
2.82721e-06
2.8282e-06
1.96869e-06
1.96894e-06
1.41659e-06
2.82854e-06
1.96798e-06
1.96821e-06
2.8269e-06
1.96717e-06
1.9674e-06
1.41366e-06
1.96647e-06
1.9667e-06
2.82722e-06
2.82824e-06
1.41738e-06
1.96763e-06
1.96786e-06
1.96833e-06
1.96857e-06
2.82791e-06
2.82681e-06
1.9673e-06
1.96718e-06
1.41362e-06
1.96648e-06
1.96659e-06
2.82713e-06
2.82816e-06
1.41736e-06
1.96774e-06
1.96763e-06
1.96846e-06
1.96835e-06
2.82781e-06
2.82695e-06
1.96733e-06
1.96724e-06
1.41368e-06
1.96655e-06
1.96662e-06
2.82725e-06
2.82828e-06
1.41741e-06
1.96778e-06
1.96769e-06
1.9685e-06
1.9684e-06
2.82795e-06
2.82824e-06
1.41745e-06
1.96764e-06
1.96787e-06
2.82791e-06
1.96834e-06
1.96859e-06
4.41734e-07
4.4169e-07
6.53428e-07
4.43622e-07
4.43579e-07
2.35584e-07
2.33654e-07
4.41819e-07
4.41777e-07
6.53522e-07
4.43707e-07
4.43664e-07
2.35652e-07
2.33723e-07
4.41811e-07
4.41771e-07
6.53515e-07
4.43702e-07
4.43658e-07
2.3565e-07
2.33719e-07
6.54983e-07
4.473e-07
4.47267e-07
4.45483e-07
4.45446e-07
2.37511e-07
2.39415e-07
6.54995e-07
4.47309e-07
4.47266e-07
4.45492e-07
4.45449e-07
2.37512e-07
2.39415e-07
6.55089e-07
4.47394e-07
4.47351e-07
4.45577e-07
4.45535e-07
2.3758e-07
2.39483e-07
6.55079e-07
4.4739e-07
4.47346e-07
4.45569e-07
4.45529e-07
2.37576e-07
2.3948e-07
1.66437e-06
2.53955e-06
1.54156e-06
2.29415e-06
2.53977e-06
1.54241e-06
1.66312e-06
1.84157e-06
2.22237e-06
3.64425e-06
3.02095e-06
2.22189e-06
3.02059e-06
1.84266e-06
1.84317e-06
3.02106e-06
3.64512e-06
2.22225e-06
2.22273e-06
3.02142e-06
1.84212e-06
1.66256e-06
2.29361e-06
2.53937e-06
1.54183e-06
2.53915e-06
1.54099e-06
1.66387e-06
1.66438e-06
1.5415e-06
2.53939e-06
2.29412e-06
1.54245e-06
2.53961e-06
1.66281e-06
1.84138e-06
2.22241e-06
3.6443e-06
3.0206e-06
2.22193e-06
3.02023e-06
1.84265e-06
1.84318e-06
3.02071e-06
3.64513e-06
2.22229e-06
2.22278e-06
3.02107e-06
1.8419e-06
1.66239e-06
2.29357e-06
1.54186e-06
2.5392e-06
1.54092e-06
2.53898e-06
1.66385e-06
2.82757e-06
1.41599e-06
1.9669e-06
1.96713e-06
1.96759e-06
1.96784e-06
2.82726e-06
2.82758e-06
1.41594e-06
1.96688e-06
1.96711e-06
2.82726e-06
1.96758e-06
1.96782e-06
2.82759e-06
1.41518e-06
1.96797e-06
1.9682e-06
2.82792e-06
1.96727e-06
1.9675e-06
1.66462e-06
2.53934e-06
1.54141e-06
2.29408e-06
2.53955e-06
1.54239e-06
1.6626e-06
1.84129e-06
2.22233e-06
3.64408e-06
3.02053e-06
3.02018e-06
2.22186e-06
1.84258e-06
1.84314e-06
3.02065e-06
3.64491e-06
2.22222e-06
3.02101e-06
2.2227e-06
1.84176e-06
1.66214e-06
2.29348e-06
2.53914e-06
1.5418e-06
2.53894e-06
1.54083e-06
1.66397e-06
1.66446e-06
2.5396e-06
1.54146e-06
2.29415e-06
2.53982e-06
1.54243e-06
1.66289e-06
1.84154e-06
2.22267e-06
3.64459e-06
3.02113e-06
3.02075e-06
2.22218e-06
1.84279e-06
1.84332e-06
3.02122e-06
3.64543e-06
2.22254e-06
3.0216e-06
1.84201e-06
2.22303e-06
1.66247e-06
2.29355e-06
2.53942e-06
1.54184e-06
2.5392e-06
1.54089e-06
1.66392e-06
1.663e-06
2.53992e-06
1.54295e-06
2.29431e-06
1.66513e-06
2.53971e-06
1.54196e-06
1.84432e-06
2.22286e-06
3.64618e-06
3.02154e-06
2.22336e-06
3.02191e-06
1.84256e-06
1.84217e-06
3.02147e-06
2.22304e-06
3.64538e-06
2.22255e-06
1.84371e-06
3.02111e-06
1.66569e-06
2.29488e-06
2.54007e-06
1.54248e-06
2.54029e-06
1.54348e-06
1.66348e-06
1.66324e-06
2.5402e-06
1.54299e-06
2.29438e-06
1.66504e-06
2.53997e-06
1.54201e-06
1.84443e-06
2.22318e-06
3.6467e-06
3.02211e-06
3.0225e-06
2.2237e-06
1.84283e-06
1.84244e-06
3.02206e-06
2.22337e-06
3.64589e-06
1.84386e-06
3.02168e-06
2.22287e-06
1.6657e-06
2.29494e-06
2.54033e-06
1.54252e-06
2.54056e-06
1.54351e-06
1.66364e-06
2.82749e-06
1.4159e-06
1.96699e-06
1.96689e-06
1.96759e-06
1.96771e-06
2.82716e-06
2.8275e-06
1.41512e-06
1.9681e-06
1.96798e-06
1.96738e-06
2.82783e-06
1.96727e-06
1.6645e-06
2.53962e-06
1.54154e-06
2.29423e-06
2.53982e-06
1.54249e-06
1.6629e-06
1.84154e-06
2.22274e-06
3.64478e-06
3.02114e-06
3.02075e-06
2.22226e-06
1.8428e-06
1.84333e-06
3.02123e-06
3.64567e-06
2.22261e-06
3.02162e-06
2.2231e-06
1.84201e-06
1.66248e-06
2.29362e-06
2.53942e-06
1.54191e-06
2.5392e-06
1.54096e-06
1.66396e-06
1.66439e-06
1.54149e-06
2.53941e-06
2.29415e-06
1.54245e-06
2.53963e-06
1.66277e-06
1.84138e-06
2.22265e-06
3.64463e-06
3.02066e-06
3.0203e-06
2.22215e-06
1.84266e-06
1.84321e-06
3.02077e-06
3.64552e-06
2.22251e-06
3.02114e-06
1.84184e-06
2.22301e-06
1.66236e-06
2.29356e-06
1.54186e-06
2.53923e-06
1.54091e-06
2.53902e-06
1.66384e-06
1.66324e-06
2.5402e-06
1.54305e-06
2.29445e-06
1.66511e-06
2.53997e-06
1.54208e-06
1.84447e-06
2.22326e-06
3.64694e-06
3.02211e-06
2.22377e-06
3.02252e-06
1.84279e-06
1.84243e-06
3.02207e-06
2.22345e-06
3.64608e-06
2.22294e-06
1.84388e-06
3.02168e-06
1.66578e-06
2.29502e-06
2.54035e-06
1.5426e-06
2.54057e-06
1.54358e-06
1.66365e-06
1.66313e-06
1.54301e-06
2.54001e-06
2.29439e-06
1.66499e-06
1.54203e-06
2.53979e-06
1.84437e-06
2.22316e-06
3.64679e-06
3.02166e-06
3.02204e-06
2.22368e-06
1.84272e-06
1.84226e-06
3.0216e-06
2.22335e-06
3.64593e-06
1.84377e-06
3.02123e-06
2.22284e-06
1.66565e-06
2.29494e-06
1.54255e-06
2.54015e-06
1.54353e-06
2.54037e-06
1.66363e-06
1.66426e-06
1.5415e-06
2.53936e-06
2.29407e-06
1.54236e-06
2.53958e-06
1.66289e-06
1.84136e-06
2.22234e-06
3.64416e-06
3.02055e-06
2.22186e-06
3.02017e-06
1.84255e-06
1.84307e-06
3.02064e-06
3.645e-06
2.22222e-06
2.2227e-06
3.02102e-06
1.84186e-06
1.6624e-06
2.29354e-06
1.54178e-06
2.53918e-06
1.54094e-06
2.53897e-06
1.66376e-06
1.66363e-06
2.54014e-06
1.54296e-06
2.29444e-06
1.66483e-06
2.53992e-06
1.54211e-06
1.84413e-06
2.22289e-06
3.64639e-06
3.02195e-06
1.84311e-06
2.2234e-06
3.02232e-06
1.84265e-06
3.02188e-06
2.22308e-06
3.64554e-06
1.84366e-06
2.22258e-06
3.02151e-06
1.66528e-06
2.29494e-06
2.54028e-06
1.54262e-06
1.66406e-06
2.5405e-06
1.54348e-06
1.66331e-06
1.54291e-06
2.53995e-06
2.29436e-06
1.66473e-06
1.54203e-06
2.53973e-06
1.84411e-06
2.22286e-06
3.64627e-06
3.02152e-06
3.02192e-06
2.22337e-06
1.84268e-06
1.84231e-06
3.02148e-06
2.22305e-06
3.64546e-06
1.84358e-06
3.02109e-06
2.22255e-06
1.66526e-06
2.29486e-06
1.54253e-06
2.54008e-06
1.54344e-06
2.54031e-06
1.66362e-06
2.82761e-06
1.41595e-06
1.96703e-06
1.96696e-06
1.96765e-06
1.96774e-06
2.8273e-06
2.82764e-06
1.41518e-06
1.96813e-06
1.96804e-06
1.96742e-06
2.82795e-06
1.96734e-06
1.66447e-06
1.54153e-06
2.53958e-06
2.29416e-06
1.54247e-06
2.53981e-06
1.66292e-06
1.84155e-06
2.22278e-06
3.64481e-06
3.02111e-06
2.22229e-06
3.02073e-06
1.84282e-06
1.84336e-06
3.0212e-06
3.64566e-06
2.22265e-06
2.22315e-06
3.02159e-06
1.84202e-06
1.6625e-06
2.29363e-06
1.54189e-06
2.53941e-06
1.54095e-06
2.53919e-06
1.66394e-06
1.66318e-06
1.543e-06
2.53998e-06
2.29439e-06
1.66494e-06
1.54204e-06
2.53974e-06
1.84407e-06
2.22293e-06
3.64639e-06
3.02159e-06
1.8429e-06
2.22344e-06
3.02195e-06
1.8424e-06
3.02152e-06
2.22312e-06
3.64559e-06
1.84365e-06
2.22262e-06
3.02116e-06
1.66555e-06
2.29492e-06
1.54255e-06
2.54012e-06
1.66359e-06
1.54353e-06
2.54034e-06
1.66328e-06
1.54303e-06
2.54019e-06
2.29445e-06
1.66504e-06
1.54207e-06
2.53995e-06
1.84452e-06
2.2233e-06
3.64692e-06
3.02209e-06
3.02249e-06
2.22382e-06
1.84279e-06
1.84243e-06
3.02205e-06
2.22349e-06
3.64611e-06
1.84392e-06
3.02166e-06
2.22298e-06
1.6657e-06
2.29496e-06
1.54258e-06
2.54031e-06
1.54356e-06
2.54055e-06
1.66364e-06
2.82759e-06
1.41522e-06
1.96798e-06
1.96823e-06
2.82791e-06
1.96728e-06
1.96752e-06
1.84307e-06
2.22367e-06
3.02234e-06
3.64668e-06
2.22315e-06
1.84469e-06
3.02193e-06
1.66395e-06
2.29509e-06
1.54395e-06
2.54065e-06
1.54298e-06
1.66586e-06
2.5404e-06
2.22411e-06
3.64733e-06
2.22358e-06
3.23656e-07
8.68845e-07
8.68962e-07
1.15395e-06
3.39693e-07
8.92282e-07
8.92391e-07
1.17343e-06
3.55971e-07
9.14727e-07
9.14827e-07
1.19187e-06
3.72413e-07
9.36166e-07
9.36259e-07
1.20937e-06
3.88939e-07
9.56589e-07
9.56676e-07
1.22604e-06
4.05469e-07
9.76015e-07
9.76101e-07
1.24186e-06
4.21922e-07
9.94451e-07
9.94534e-07
1.25683e-06
4.38223e-07
1.0119e-06
1.01198e-06
1.27103e-06
4.54299e-07
1.02838e-06
1.02846e-06
1.28444e-06
4.70084e-07
1.04392e-06
1.04399e-06
1.29712e-06
4.85519e-07
1.05852e-06
1.05858e-06
1.30908e-06
5.0055e-07
1.07221e-06
1.07227e-06
1.32036e-06
5.15132e-07
1.08503e-06
1.08509e-06
1.33093e-06
5.29222e-07
1.09699e-06
1.09704e-06
1.34086e-06
5.42784e-07
1.10812e-06
1.10817e-06
1.35015e-06
5.55789e-07
1.11845e-06
1.1185e-06
1.35884e-06
5.68209e-07
1.128e-06
1.12806e-06
1.36691e-06
5.80024e-07
1.1368e-06
1.13685e-06
1.3744e-06
5.91221e-07
1.14486e-06
1.14492e-06
1.38132e-06
6.01788e-07
1.15222e-06
1.15229e-06
1.38769e-06
6.1172e-07
1.1589e-06
1.15897e-06
1.39353e-06
6.21013e-07
1.16492e-06
1.16499e-06
1.39885e-06
6.29667e-07
1.17031e-06
1.17037e-06