/*--------------------------------*- C++ -*----------------------------------*\
| =========                 |                                                 |
| \\      /  F ield         | OpenFOAM: The Open Source CFD Toolbox           |
|  \\    /   O peration     | Version:  v1906                                 |
|   \\  /    A nd           | Web:      www.OpenFOAM.com                      |
|    \\/     M anipulation  |                                                 |
\*---------------------------------------------------------------------------*/
FoamFile
{
    version     2.0;
    format      ascii;
    class       volScalarField;
    location    "950";
    object      nut;
}
// * * * * * * * * * * * * * * * * * * * * * * * * * * * * * * * * * * * * * //

dimensions      [0 2 -1 0 0 0 0];


internalField   nonuniform List<scalar> 
171728
(
0.000136698
0.000138624
0.000138624
0.000136856
0.000138638
0.000138625
0.000138635
0.000138643
0.000136649
0.000138641
0.000138653
0.000136691
0.000122371
0.000122365
0.000122375
0.000122386
2.36123e-05
2.36118e-05
7.3735e-05
7.37396e-05
9.18293e-05
5.00157e-05
9.20514e-05
9.1828e-05
5.00198e-05
5.00043e-05
9.20658e-05
0.000120679
9.38193e-05
0.000133987
0.000133125
0.000121321
0.000120684
0.000137836
9.3834e-05
0.000133983
9.35396e-05
0.00013312
0.000121329
2.36121e-05
2.36076e-05
0.00013586
7.37351e-05
7.37278e-05
7.36303e-05
7.36263e-05
2.36127e-05
2.36082e-05
5.00144e-05
9.20622e-05
9.38171e-05
0.000133992
0.000121336
5.00113e-05
9.20693e-05
0.000133994
9.38143e-05
0.000121333
0.000120681
0.000137847
9.38236e-05
0.000133982
9.35353e-05
0.000133119
0.000121328
9.18249e-05
5.00186e-05
5.00033e-05
9.20698e-05
0.000120682
0.000137855
0.000133994
9.38255e-05
0.00013313
9.3524e-05
0.000121327
9.18336e-05
5.00152e-05
5e-05
9.20529e-05
2.361e-05
7.37181e-05
7.37368e-05
2.36119e-05
0.000120688
0.000134008
9.3821e-05
0.000133145
0.000121339
0.000120685
0.000137864
0.000134014
9.38224e-05
0.00013315
9.35396e-05
0.000121335
9.18326e-05
5.00124e-05
9.20577e-05
9.18402e-05
5.00129e-05
5.00006e-05
9.20615e-05
0.000136022
7.37335e-05
7.37343e-05
7.3633e-05
7.36345e-05
2.36117e-05
2.36072e-05
2.36113e-05
2.36069e-05
2.36104e-05
2.36094e-05
9.72561e-05
0.000112669
7.37009e-05
4.79389e-05
4.79321e-05
0.000112503
9.73176e-05
9.72847e-05
0.000112655
7.36935e-05
4.79376e-05
4.79242e-05
0.000112505
9.73624e-05
7.88192e-05
2.14922e-05
2.14903e-05
2.14904e-05
2.14878e-05
7.88429e-05
3.62671e-05
4.05369e-05
8.80301e-05
9.19324e-05
3.62655e-05
4.05359e-05
8.81082e-05
2.01021e-05
5.00132e-05
7.60357e-05
7.59934e-05
2.01042e-05
3.62692e-05
9.19579e-05
4.05395e-05
8.8205e-05
4.05408e-05
8.81295e-05
3.62708e-05
3.62702e-05
4.05329e-05
8.80361e-05
9.19418e-05
3.62659e-05
4.054e-05
8.813e-05
2.01031e-05
5.00113e-05
7.60627e-05
7.60164e-05
2.01051e-05
2.01037e-05
7.597e-05
5.00121e-05
2.01017e-05
7.60159e-05
3.62693e-05
9.19513e-05
4.05444e-05
8.82276e-05
4.05369e-05
8.81391e-05
3.62735e-05
2.36099e-05
2.36097e-05
7.87961e-05
2.14865e-05
2.1489e-05
7.8778e-05
2.14885e-05
2.1491e-05
9.72743e-05
0.000112663
7.36967e-05
4.79302e-05
0.00011249
4.79291e-05
9.73282e-05
9.72589e-05
0.000112671
7.3694e-05
4.79383e-05
4.79367e-05
0.000112504
9.7315e-05
9.72008e-05
4.79209e-05
0.000112245
7.36665e-05
0.000112417
9.71504e-05
4.79229e-05
9.71904e-05
4.79285e-05
0.000112259
7.36593e-05
9.71333e-05
4.79308e-05
0.000112425
7.88205e-05
2.14902e-05
2.14927e-05
2.14881e-05
2.14906e-05
7.88432e-05
2.36105e-05
2.36103e-05
2.01033e-05
5.00111e-05
7.60607e-05
7.60146e-05
2.01053e-05
3.62705e-05
9.19598e-05
8.82207e-05
4.05392e-05
8.81418e-05
4.05406e-05
3.62717e-05
2.01016e-05
5.0004e-05
7.6033e-05
7.59881e-05
2.01037e-05
3.62666e-05
9.19473e-05
4.05435e-05
8.82123e-05
4.05359e-05
8.81195e-05
3.62709e-05
3.62703e-05
8.80353e-05
4.0532e-05
9.19433e-05
3.62663e-05
8.81306e-05
4.05391e-05
2.01037e-05
5.00103e-05
7.60615e-05
7.60164e-05
2.01057e-05
2.01043e-05
7.59728e-05
5.00109e-05
2.01023e-05
7.60137e-05
3.62697e-05
9.19488e-05
8.82306e-05
4.05436e-05
8.81345e-05
4.0536e-05
3.62734e-05
3.62672e-05
4.05361e-05
8.80361e-05
9.19305e-05
3.62654e-05
4.05352e-05
8.81112e-05
2.01025e-05
5.0007e-05
7.604e-05
7.60006e-05
2.01045e-05
2.01031e-05
7.59536e-05
5.00076e-05
2.01011e-05
7.59937e-05
3.62688e-05
9.19563e-05
4.05388e-05
8.82075e-05
4.054e-05
8.81366e-05
3.62702e-05
2.36079e-05
9.7269e-05
0.000112637
7.36856e-05
4.79319e-05
0.000112497
4.79219e-05
9.73217e-05
9.72619e-05
0.000112663
7.36973e-05
4.79436e-05
4.79336e-05
0.000112513
9.73131e-05
7.88221e-05
2.14891e-05
2.14926e-05
2.14871e-05
2.14905e-05
7.88395e-05
2.36098e-05
3.62683e-05
8.80324e-05
4.05326e-05
9.19407e-05
3.6265e-05
8.81186e-05
4.05391e-05
2.01028e-05
5.00097e-05
7.60418e-05
7.59982e-05
2.01048e-05
2.01034e-05
7.59954e-05
3.62689e-05
9.19595e-05
8.82081e-05
4.05427e-05
8.81358e-05
4.05372e-05
3.62708e-05
3.62689e-05
8.80396e-05
4.05364e-05
9.19383e-05
3.62675e-05
8.81197e-05
4.05356e-05
2.01034e-05
5.00109e-05
7.60542e-05
7.60127e-05
2.01055e-05
2.01041e-05
7.59663e-05
5.00076e-05
2.0102e-05
7.60084e-05
3.62713e-05
9.19641e-05
8.82171e-05
4.05392e-05
8.81376e-05
4.05403e-05
3.62727e-05
7.87979e-05
2.1489e-05
2.14862e-05
7.87799e-05
2.14911e-05
2.14882e-05
9.72616e-05
0.000112678
7.37013e-05
4.79431e-05
0.000112509
4.79332e-05
9.73124e-05
9.72768e-05
0.000112673
7.3701e-05
4.79299e-05
0.000112502
4.79286e-05
9.73345e-05
9.71861e-05
4.79256e-05
0.000112265
7.36658e-05
9.71349e-05
0.000112423
4.79346e-05
9.72072e-05
4.79204e-05
0.000112255
7.36672e-05
9.71503e-05
0.00011242
4.79225e-05
7.88225e-05
2.14928e-05
2.14899e-05
2.14907e-05
2.14878e-05
7.88453e-05
2.36095e-05
2.36094e-05
2.36092e-05
2.3609e-05
0.000119488
0.000136541
0.000129845
0.000129889
0.000129652
0.000129682
0.000119628
0.00011948
0.000136546
0.000129894
0.000129903
0.000129639
0.000129646
0.000119631
0.0001195
0.000136638
0.00012981
0.000129798
0.000129679
0.0001297
0.000119594
0.000119506
0.000136723
0.000129812
0.000129816
0.000129712
0.000129716
0.000119601
0.000120253
0.000120257
0.000119985
0.000132086
0.000131846
0.000121705
0.000120249
0.000120253
0.000119981
0.000119985
0.000132086
0.000131846
0.000120257
0.000120265
0.000119998
0.000132084
0.000131843
0.000121725
0.000120259
0.000120269
0.000119991
0.000120001
0.000132086
0.000131845
0.000132371
0.000117032
0.000134122
0.000120987
0.000132253
0.000117305
0.000134355
0.000128485
0.000122107
9.36858e-05
0.000107729
0.000122
0.000107537
0.0001287
0.000132749
0.000121031
0.000117607
0.000134783
0.000117338
0.000134727
0.000132902
0.000132233
0.000117055
0.00013422
0.000120989
0.000132278
0.0001173
0.000134244
0.000128543
0.000122132
9.36886e-05
0.000107735
0.000107551
0.000122008
0.000128589
0.000128148
0.000107317
0.000121653
9.36673e-05
0.000128103
0.000107508
0.000121762
0.000132863
0.000121028
0.000117599
0.000134811
0.00011736
0.000134786
0.000132778
0.000119345
0.000136227
0.000129194
0.000129208
0.000129421
0.000119212
0.000129422
0.000128383
0.000122197
9.36898e-05
0.00010775
0.000121958
0.000107538
0.000128825
0.00013268
0.000121022
0.000117614
0.000135067
0.000117345
0.000134556
0.000133007
0.000128376
0.000122184
9.36731e-05
0.000107723
0.00010753
0.000121939
0.00012881
0.000132706
0.000121023
0.000135066
0.000117602
0.000134555
0.000117336
0.000133001
0.000132456
0.000117038
0.000134036
0.000120991
0.000132064
0.000117311
0.000134459
0.000128358
0.000122177
9.36893e-05
0.000107738
0.000121987
0.000107542
0.000128808
0.000128287
0.000107307
0.00012163
9.36658e-05
0.000127937
0.000121803
0.000107517
0.000132575
0.000121031
0.000117615
0.000134929
0.000117341
0.000134628
0.000133029
0.000132371
0.000134161
0.000117042
0.000120988
0.000132113
0.000134362
0.0001173
0.000128437
0.000122193
9.36795e-05
0.000107742
0.000107534
0.000121997
0.0001287
0.000128225
0.000107302
0.00012164
9.3673e-05
0.000128004
0.000107511
0.000121781
0.00013271
0.00012103
0.000134953
0.000117601
0.000134699
0.000117347
0.000132901
0.000132375
0.000134142
0.000117044
0.000120992
0.000132113
0.000134375
0.000117299
0.000128457
0.000122115
9.36859e-05
0.000107745
0.000122018
0.000107545
0.000128702
0.000128241
0.000107506
0.000132674
0.000121027
0.000135097
0.000117595
0.000134663
0.00011735
0.000132865
0.000132512
0.000134037
0.00011704
0.000120996
0.000132044
0.000134458
0.000117315
0.000128369
0.000122137
9.36868e-05
0.000107737
0.000107551
0.000121985
0.000128821
0.000128297
0.000107318
0.000121599
9.36662e-05
0.000127944
0.000107509
0.000121804
0.000132625
0.000121033
0.000134932
0.000117619
0.000134635
0.000117345
0.000133055
0.000119325
0.000136055
0.000129257
0.000129263
0.00011924
0.000129387
0.00012939
0.000203424
0.00019875
0.000198741
0.000180598
0.000181559
0.0001806
0.000181466
0.000198718
0.000198719
0.000199775
0.000199776
0.000180612
0.000181552
0.000198732
0.000198707
0.000199789
0.000199764
0.000198725
0.000199808
0.000199783
0.000180598
0.000181535
0.00019874
0.000199798
0.000199798
0.000181541
0.000200128
0.000200143
9.97168e-05
5.0713e-05
5.07241e-05
9.96484e-05
2.38792e-05
2.38836e-05
9.9726e-05
5.07098e-05
5.0721e-05
9.96577e-05
0.000203432
0.000203431
0.00020344
0.000205315
0.000205323
0.000205322
0.00020533
0.000143706
0.000103352
0.000207735
0.000199107
0.000103437
0.000208203
0.000143512
2.3877e-05
2.38815e-05
0.000143707
0.000207732
0.000103354
0.000199097
0.000208199
0.000103437
0.000143496
7.78115e-05
7.78101e-05
0.000181063
7.78388e-05
7.78385e-05
7.78741e-05
7.78728e-05
2.38798e-05
2.38843e-05
2.38785e-05
2.38829e-05
7.78137e-05
7.78096e-05
0.000181056
7.78414e-05
7.78367e-05
2.38889e-05
2.38845e-05
2.38875e-05
2.38831e-05
0.000181065
7.78722e-05
7.78679e-05
7.78464e-05
7.78421e-05
9.97206e-05
5.07133e-05
5.07245e-05
9.96517e-05
0.000143708
0.000103352
0.00020772
0.000199075
0.000103438
0.000208187
0.000143492
0.00014371
0.00010335
0.000207723
0.000199076
0.000103435
0.00020819
0.000143495
9.97108e-05
5.07337e-05
5.07235e-05
9.97766e-05
9.97141e-05
5.07347e-05
5.07237e-05
9.97805e-05
0.000143709
0.000199428
0.000103516
0.000209106
0.000103434
0.000208651
0.000143915
0.000143712
0.000199429
0.000103513
0.000209109
0.000103432
0.000208654
0.000143918
7.78112e-05
7.78076e-05
0.000181075
7.78365e-05
7.78334e-05
2.38798e-05
2.38841e-05
2.38882e-05
2.38839e-05
0.000181084
7.7868e-05
7.78643e-05
7.78435e-05
7.784e-05
2.38887e-05
2.38845e-05
0.000143711
0.000103343
0.000207723
0.000199089
0.000103429
0.000208186
0.000143496
9.97221e-05
5.07058e-05
5.07169e-05
9.96537e-05
0.000143707
0.000207719
0.000103332
0.000199064
0.000208185
0.000103417
0.000143492
9.97199e-05
5.07305e-05
5.07203e-05
9.97857e-05
0.000143713
0.000199443
0.000103507
0.000209105
0.000103425
0.000208655
0.000143918
9.9716e-05
5.07271e-05
5.07162e-05
9.97818e-05
0.000143709
0.000199417
0.000209104
0.000103495
0.00020865
0.000103414
0.000143914
9.97183e-05
5.07151e-05
5.07214e-05
9.96559e-05
0.000143705
0.000207732
0.000103349
0.000199083
0.000208199
0.000103435
0.000143508
9.97182e-05
5.0709e-05
5.07202e-05
9.96496e-05
0.000143728
0.000199461
0.000103516
0.000209121
0.000103434
0.000208667
0.000143912
9.97182e-05
5.07323e-05
5.07254e-05
9.97779e-05
0.000143714
0.000199436
0.000209118
0.000103514
0.000208663
0.000103431
0.000143916
9.97119e-05
5.07304e-05
5.07194e-05
9.97778e-05
7.7794e-05
7.78126e-05
0.000181057
7.78237e-05
7.78406e-05
2.38789e-05
2.38834e-05
2.38861e-05
2.38816e-05
0.000181067
7.78546e-05
7.78715e-05
7.78264e-05
7.78451e-05
2.3888e-05
2.38836e-05
0.00014371
0.000207732
0.000103349
0.000199097
0.0002082
0.000103435
0.000143499
9.9714e-05
5.0709e-05
5.07202e-05
9.9651e-05
9.9721e-05
5.07093e-05
5.07205e-05
9.96581e-05
0.000143713
0.000199451
0.000209118
0.000103516
0.000208663
0.000103435
0.000143914
0.000143716
0.000199451
0.000209118
0.000103514
0.000208664
0.000103431
0.000143918
9.97133e-05
5.07304e-05
5.07195e-05
9.97737e-05
9.97178e-05
5.07301e-05
5.07198e-05
9.97817e-05
2.38786e-05
2.38831e-05
2.38782e-05
2.38827e-05
0.000181073
7.78694e-05
7.78693e-05
7.78438e-05
7.78428e-05
2.38877e-05
2.38833e-05
2.38873e-05
2.38829e-05
0.000209571
0.00010351
0.000143921
5.07295e-05
9.97711e-05
0.00010351
5.07325e-05
2.38879e-05
2.38875e-05
3.66972e-05
4.10372e-05
9.43534e-05
9.96796e-05
4.10372e-05
9.43204e-05
3.66962e-05
2.03078e-05
5.07189e-05
7.89828e-05
7.89949e-05
2.03056e-05
2.03076e-05
7.90069e-05
5.07183e-05
7.8995e-05
2.03097e-05
3.66926e-05
9.96859e-05
4.10328e-05
9.4296e-05
4.10331e-05
9.4329e-05
3.66935e-05
2.38813e-05
2.38815e-05
3.66948e-05
9.43678e-05
4.10398e-05
9.96886e-05
9.43337e-05
4.10336e-05
3.67017e-05
2.0309e-05
5.07158e-05
7.90005e-05
7.90199e-05
2.03069e-05
2.03088e-05
7.90319e-05
5.07151e-05
7.90129e-05
2.03109e-05
3.66974e-05
9.96954e-05
9.43098e-05
4.10296e-05
9.43438e-05
4.10354e-05
3.6692e-05
2.38791e-05
2.38793e-05
8.14449e-05
2.17029e-05
2.16999e-05
2.17009e-05
2.16979e-05
8.14531e-05
0.000105059
0.000128363
7.78226e-05
4.86258e-05
0.000128425
4.86333e-05
0.000105034
0.000105067
0.000128347
7.78222e-05
4.86165e-05
0.000128411
4.86239e-05
0.000105043
0.000105067
4.8638e-05
7.78278e-05
0.000128498
0.000128437
4.86308e-05
0.000105091
0.000105076
4.86286e-05
7.7827e-05
0.000128485
0.00012842
4.86215e-05
0.000105099
8.14428e-05
2.1699e-05
2.1696e-05
2.1701e-05
2.16981e-05
8.14345e-05
0.000105182
0.00012865
4.86446e-05
7.7885e-05
0.000105162
0.000128708
4.86529e-05
0.00010519
0.000128634
4.86353e-05
7.78851e-05
0.000105171
0.000128693
4.86435e-05
8.14823e-05
2.17065e-05
2.17035e-05
8.14747e-05
2.17085e-05
2.17055e-05
2.38819e-05
2.38822e-05
2.38806e-05
2.38808e-05
8.1444e-05
2.17029e-05
2.16996e-05
2.17009e-05
2.16976e-05
8.14523e-05
0.000105061
0.000128363
7.78252e-05
4.86265e-05
4.86338e-05
0.000128428
0.000105039
0.000105063
0.000128344
7.78206e-05
4.8615e-05
4.86224e-05
0.000128408
0.000105041
0.000105072
4.86386e-05
7.78303e-05
0.000128501
4.86315e-05
0.000105094
0.000128437
0.000105074
4.86272e-05
7.78261e-05
0.000128481
4.862e-05
0.000105096
0.000128418
8.14419e-05
2.1699e-05
2.16957e-05
2.1701e-05
2.16977e-05
8.14335e-05
2.38868e-05
2.38866e-05
2.38855e-05
2.38852e-05
8.14623e-05
2.17027e-05
2.16995e-05
8.14543e-05
2.17048e-05
2.17015e-05
0.000105135
0.000128642
7.78617e-05
4.86478e-05
4.86406e-05
0.00012858
0.000105157
0.000105137
0.000128622
7.78573e-05
4.86367e-05
4.86293e-05
0.000128562
0.000105159
0.000105126
4.86362e-05
0.00012851
7.78569e-05
0.000105103
4.8643e-05
0.000128572
0.000105128
4.86247e-05
0.00012849
7.78525e-05
0.000105106
4.86315e-05
0.000128552
8.14642e-05
2.17066e-05
2.17034e-05
2.17046e-05
2.17013e-05
8.1472e-05
3.6695e-05
4.10403e-05
9.43688e-05
9.96828e-05
4.1034e-05
9.43346e-05
3.67019e-05
2.03087e-05
5.07193e-05
7.9003e-05
7.90222e-05
2.03066e-05
2.03085e-05
7.90342e-05
5.07187e-05
7.90152e-05
2.03106e-05
3.66982e-05
9.96897e-05
4.103e-05
9.43105e-05
4.10359e-05
9.43445e-05
3.6691e-05
3.66999e-05
4.10413e-05
9.43451e-05
9.97472e-05
3.67008e-05
4.10416e-05
9.43774e-05
2.03114e-05
5.07286e-05
7.90301e-05
2.03135e-05
7.90183e-05
2.03116e-05
7.9007e-05
5.07288e-05
2.03095e-05
7.90187e-05
3.67047e-05
9.97411e-05
4.10458e-05
9.4401e-05
3.67039e-05
4.10457e-05
9.43691e-05
3.67057e-05
4.10385e-05
9.43595e-05
9.9751e-05
3.66988e-05
4.10445e-05
9.4393e-05
2.03124e-05
5.07288e-05
7.90573e-05
7.90389e-05
2.03144e-05
2.03125e-05
7.90271e-05
5.07294e-05
2.03105e-05
7.90459e-05
3.67023e-05
9.97444e-05
4.1049e-05
9.44168e-05
4.10428e-05
9.43834e-05
3.67093e-05
8.14444e-05
2.17003e-05
2.17029e-05
2.16983e-05
2.17009e-05
8.14526e-05
0.000105066
0.000128346
7.78204e-05
4.86209e-05
4.86207e-05
0.000128406
0.000105044
0.000105062
0.000128372
7.7817e-05
4.86294e-05
0.000128427
4.86293e-05
0.00010504
0.000105077
4.86255e-05
7.78276e-05
0.000128479
4.86255e-05
0.00012842
0.000105099
0.000105073
4.8634e-05
7.78241e-05
0.0001285
0.000128446
4.86341e-05
0.000105095
8.14422e-05
2.16964e-05
2.1699e-05
2.16984e-05
2.1701e-05
8.14339e-05
2.38818e-05
2.38821e-05
2.38862e-05
2.38859e-05
8.14626e-05
2.17002e-05
2.17028e-05
8.14546e-05
2.17022e-05
2.17048e-05
0.00010514
0.00012862
7.78588e-05
4.86369e-05
0.000128563
4.86338e-05
0.000105162
0.000105136
0.000128642
7.78556e-05
4.86438e-05
4.8644e-05
0.000128589
0.000105158
0.000105131
4.86303e-05
0.000128492
7.78526e-05
0.000128551
0.000105109
4.86311e-05
0.000105127
4.86391e-05
0.000128518
7.78492e-05
0.000105105
4.86393e-05
0.000128571
8.14645e-05
2.17041e-05
2.17066e-05
2.1702e-05
2.17046e-05
8.14725e-05
2.38867e-05
2.38864e-05
3.66922e-05
4.10396e-05
9.43509e-05
9.96848e-05
4.10334e-05
9.43172e-05
3.66994e-05
2.03073e-05
5.07118e-05
7.89774e-05
7.89898e-05
2.03052e-05
2.03071e-05
7.90021e-05
5.07111e-05
7.89896e-05
2.03092e-05
3.66956e-05
9.96912e-05
4.10294e-05
9.42928e-05
4.10352e-05
9.43265e-05
3.66883e-05
3.67055e-05
9.43586e-05
4.10382e-05
9.97567e-05
3.66987e-05
9.43924e-05
4.10441e-05
2.03126e-05
5.07255e-05
7.90549e-05
2.03147e-05
7.90365e-05
2.03128e-05
7.90248e-05
5.07257e-05
2.03107e-05
7.90436e-05
3.67023e-05
9.97498e-05
9.44159e-05
4.10483e-05
3.67092e-05
9.43825e-05
4.10423e-05
3.67031e-05
4.10379e-05
9.43421e-05
9.97526e-05
3.66961e-05
4.10439e-05
9.43751e-05
2.03109e-05
5.07212e-05
7.90255e-05
7.90128e-05
2.0313e-05
2.03111e-05
7.90015e-05
5.07218e-05
2.0309e-05
7.90138e-05
3.66996e-05
9.97461e-05
4.10481e-05
9.43988e-05
4.10421e-05
9.4366e-05
3.67067e-05
3.66958e-05
9.43662e-05
4.1037e-05
9.96875e-05
9.43411e-05
4.1037e-05
3.67025e-05
2.03095e-05
5.07163e-05
7.90048e-05
7.90228e-05
2.03074e-05
2.03093e-05
7.90347e-05
5.07202e-05
7.90169e-05
2.03114e-05
3.66988e-05
9.96877e-05
9.43164e-05
4.10325e-05
9.43421e-05
4.10329e-05
3.66919e-05
3.66934e-05
4.10384e-05
9.4359e-05
9.96808e-05
4.1035e-05
9.43248e-05
3.67003e-05
2.03082e-05
5.0715e-05
7.89833e-05
7.90024e-05
2.03061e-05
2.03081e-05
7.90143e-05
5.07144e-05
7.89956e-05
2.03101e-05
3.66966e-05
9.96873e-05
4.10296e-05
9.43005e-05
4.1035e-05
9.43345e-05
3.66895e-05
3.67064e-05
9.43654e-05
4.1041e-05
9.97489e-05
3.66997e-05
9.43906e-05
4.10414e-05
2.03131e-05
5.07304e-05
7.90583e-05
7.90402e-05
2.03152e-05
2.03133e-05
7.90289e-05
5.07271e-05
2.03112e-05
7.90468e-05
3.6703e-05
9.97481e-05
9.44138e-05
4.10454e-05
9.43891e-05
4.10452e-05
3.67099e-05
3.67041e-05
4.10408e-05
9.43498e-05
9.97484e-05
3.66973e-05
4.10415e-05
9.43832e-05
2.03119e-05
5.07244e-05
7.90375e-05
7.90191e-05
2.03139e-05
2.0312e-05
7.90075e-05
5.0725e-05
2.031e-05
7.9026e-05
3.67008e-05
9.97421e-05
4.10453e-05
9.4407e-05
4.1045e-05
9.43737e-05
3.67076e-05
8.14448e-05
2.16993e-05
2.17027e-05
2.16972e-05
2.17007e-05
8.14522e-05
0.000105058
0.000128338
7.78074e-05
4.86142e-05
4.86218e-05
0.000128392
0.000105035
0.000105059
0.000128364
7.78244e-05
4.86264e-05
0.000128428
4.86338e-05
0.000105036
0.000105068
4.86266e-05
7.78106e-05
0.000128465
4.86192e-05
0.000128412
0.000105091
0.000105069
4.86386e-05
7.78293e-05
0.000128501
0.000128438
4.86314e-05
0.000105092
8.14419e-05
2.16953e-05
2.16988e-05
2.16974e-05
2.17008e-05
8.14344e-05
2.38811e-05
2.38813e-05
2.38839e-05
2.38838e-05
8.14623e-05
2.16991e-05
2.17026e-05
8.1455e-05
2.17011e-05
2.17046e-05
0.000105131
0.000128606
7.78416e-05
4.86361e-05
0.000128555
4.86285e-05
0.000105154
0.000105132
0.000128642
7.78605e-05
4.86481e-05
4.86406e-05
0.000128581
0.000105155
0.000105123
4.8624e-05
0.000128484
7.78389e-05
0.000128536
0.000105099
4.86309e-05
0.000105124
4.86361e-05
0.00012851
7.78558e-05
0.0001051
4.8643e-05
0.000128572
8.14648e-05
2.1703e-05
2.17065e-05
2.1701e-05
2.17044e-05
8.14722e-05
2.38859e-05
2.38857e-05
3.66977e-05
9.4351e-05
4.10368e-05
9.96827e-05
9.43251e-05
4.10371e-05
3.66965e-05
2.03085e-05
5.0715e-05
7.89839e-05
7.90028e-05
2.03064e-05
2.03083e-05
7.90147e-05
5.07144e-05
7.89962e-05
2.03104e-05
3.66929e-05
9.96835e-05
9.43002e-05
4.10325e-05
9.43272e-05
4.10327e-05
3.66941e-05
3.66953e-05
9.43609e-05
4.10373e-05
9.96884e-05
9.43278e-05
4.10373e-05
3.67022e-05
2.03089e-05
5.07153e-05
7.89978e-05
7.90102e-05
2.03068e-05
2.03087e-05
7.90223e-05
5.07146e-05
7.901e-05
2.03109e-05
3.66986e-05
9.96897e-05
9.43033e-05
4.10329e-05
9.43366e-05
4.10332e-05
3.66914e-05
3.67002e-05
9.43494e-05
4.10411e-05
9.97446e-05
3.67013e-05
9.43757e-05
4.10412e-05
2.03121e-05
5.07245e-05
7.90377e-05
7.90196e-05
2.03142e-05
2.03123e-05
7.90081e-05
5.0725e-05
2.03102e-05
7.90263e-05
3.67052e-05
9.97435e-05
9.43986e-05
4.10454e-05
9.43733e-05
4.10455e-05
3.6704e-05
3.67056e-05
9.43526e-05
4.10414e-05
9.97522e-05
3.66997e-05
9.43849e-05
4.10417e-05
2.03125e-05
5.07249e-05
7.90456e-05
7.90333e-05
2.03146e-05
2.03128e-05
7.9022e-05
5.07252e-05
2.03106e-05
7.9034e-05
3.67037e-05
9.9748e-05
9.44083e-05
4.10458e-05
9.43765e-05
4.10458e-05
3.67082e-05
2.38808e-05
2.3881e-05
2.38803e-05
2.38806e-05
8.14631e-05
2.17027e-05
2.16998e-05
8.14551e-05
2.17048e-05
2.17018e-05
0.000105131
0.000128639
7.78591e-05
4.86472e-05
0.000105154
0.000128581
4.86401e-05
0.000105139
0.000128625
7.78582e-05
4.86378e-05
0.000105162
0.000128564
4.86308e-05
0.000105123
4.86356e-05
0.00012851
7.78543e-05
0.000105099
0.000128569
4.86423e-05
0.000105132
4.86263e-05
0.000128493
7.78536e-05
0.000105108
0.000128555
4.86329e-05
8.1465e-05
2.17066e-05
2.17037e-05
8.14727e-05
2.17046e-05
2.17016e-05
2.38856e-05
2.38854e-05
2.38852e-05
2.3885e-05
2.03158e-05
7.90304e-05
5.07359e-05
2.03138e-05
7.90486e-05
3.67116e-05
9.98066e-05
4.10499e-05
9.43965e-05
3.67043e-05
4.10491e-05
9.44301e-05
5.07333e-05
2.389e-05
2.38895e-05
0.000199187
0.000199186
0.00020406
0.000199997
0.000199995
0.000189287
0.000188264
0.000137905
0.000160892
0.000160885
0.000180824
0.000160991
0.000160974
0.000137857
0.000138246
0.000161532
0.000161518
0.000181782
0.000138198
0.000161623
0.00016161
0.000137903
0.000160895
0.000160883
0.000180823
0.000160983
0.000160971
0.000137858
0.000138119
0.000181344
0.000161434
0.000161431
0.00016138
0.000161368
0.000138157
0.000137907
0.000160888
0.000160907
0.000180837
0.000160995
0.000160976
0.000137863
0.000138121
0.00018133
0.000161444
0.000161464
0.000161363
0.000161382
0.000138165
0.000137896
0.000160877
0.000160895
0.000180818
0.000160982
0.000160961
0.000137852
0.00013811
0.000181313
0.00016143
0.000161456
0.000161348
0.000161373
0.000138155
0.000138115
0.00018132
0.000161459
0.000161445
0.000138162
0.000161377
0.000161363
0.00019919
0.000199195
0.000204068
0.000199999
0.000200005
0.00018929
0.000188267
0.000199194
0.0001992
0.000204067
0.000200003
0.00020001
0.000189297
0.000188274
0.000199204
0.000199202
0.000204075
0.000200013
0.000200012
0.000189299
0.000188277
0.000204693
0.0002016
0.000201598
0.000200803
0.000200802
0.000190309
0.000191326
0.0002047
0.000201602
0.000201608
0.000200805
0.000200811
0.000190311
0.000191329
0.000204699
0.000201606
0.000201613
0.000200809
0.000200816
0.000190318
0.000191336
0.000204708
0.000201616
0.000201615
0.000200819
0.000200818
0.000190321
0.000191338
0.000170447
0.000137224
0.000175599
0.000143622
0.000137149
0.000175585
0.000170513
0.000159949
0.000146904
0.000103396
0.000122362
0.00014694
0.000122422
0.000159913
0.00016007
0.000122488
0.000103393
0.000147065
0.000147028
0.000122428
0.000160105
0.000170318
0.000143598
0.000137057
0.00017535
0.000137132
0.000175371
0.000170244
0.000170417
0.000175654
0.000137222
0.000143605
0.000175516
0.000137126
0.000170545
0.000159987
0.000146892
0.000103397
0.000122349
0.000146933
0.00012242
0.000159858
0.000160015
0.000122485
0.000103395
0.000147058
0.000147019
0.000122415
0.000160143
0.000170334
0.000143599
0.000175285
0.000137034
0.000175424
0.000137131
0.000170216
0.000137945
0.000180842
0.000161151
0.000161137
0.000161056
0.000161042
0.000137992
0.000137947
0.000180839
0.000161143
0.000161131
0.000137987
0.000161051
0.000161038
0.000138072
0.000181257
0.000161212
0.0001612
0.000138033
0.000161286
0.000161275
0.000170358
0.000137216
0.00017565
0.000143602
0.000137119
0.000175509
0.000170545
0.000159979
0.000146875
0.000103397
0.000122341
0.000122411
0.00014695
0.000159847
0.000160003
0.000122478
0.000103393
0.000147074
0.000122408
0.000147001
0.000160142
0.000170332
0.000143599
0.000137027
0.00017528
0.000137125
0.000175422
0.000170163
0.00017041
0.000137226
0.000175652
0.000143605
0.000137128
0.000175513
0.00017054
0.000159973
0.000146879
0.000103394
0.000122347
0.000122417
0.000146917
0.000159844
0.000160003
0.000122483
0.000103391
0.000147041
0.000122414
0.000160134
0.000147003
0.000170327
0.000143602
0.000137037
0.000175284
0.000137134
0.000175424
0.000170209
0.000170751
0.000137212
0.000175722
0.000143812
0.00017056
0.000137308
0.000175862
0.0001603
0.000147315
0.000103474
0.000122606
0.000147242
0.00012254
0.000160471
0.000160308
0.000122474
0.000147122
0.000103477
0.000147193
0.000160157
0.000122542
0.000170746
0.000143815
0.000137397
0.000176078
0.000137303
0.000175939
0.000170945
0.00017075
0.000137222
0.000175726
0.000143815
0.000170599
0.000137317
0.000175864
0.000160307
0.000147282
0.000103472
0.00012261
0.000122545
0.000147247
0.000160454
0.000160298
0.00012248
0.000147125
0.000103474
0.00016016
0.000122548
0.000147164
0.000170773
0.000143818
0.000137407
0.000176081
0.000137312
0.000175943
0.000170949
0.000137952
0.000180854
0.000161133
0.000161151
0.000161067
0.000161049
0.000137995
0.000138081
0.000181306
0.000161203
0.000161222
0.000161287
0.000138037
0.000161307
0.000170407
0.000137225
0.000175649
0.000143605
0.000137127
0.000175511
0.00017054
0.000159973
0.000146879
0.000103389
0.000122344
0.000122415
0.000146917
0.000159844
0.000160003
0.000122482
0.000103385
0.000147041
0.000122411
0.000147003
0.000160135
0.000170326
0.000143603
0.000137036
0.000175282
0.000137133
0.000175421
0.000170206
0.000170398
0.000175646
0.000137212
0.000143601
0.000175508
0.000137115
0.000170533
0.000159963
0.000146849
0.000103376
0.000122331
0.000122398
0.000146925
0.000159832
0.000159989
0.000122465
0.000103373
0.000147049
0.000122398
0.000160126
0.000146975
0.000170318
0.000143599
0.000175279
0.000137023
0.000175418
0.000137119
0.000170198
0.000170752
0.000137221
0.000175725
0.000143817
0.000170594
0.000137317
0.000175863
0.000160305
0.000147282
0.000103465
0.000122611
0.000147247
0.000122543
0.000160467
0.000160302
0.000122477
0.000147125
0.000103469
0.000147164
0.00016016
0.000122546
0.000170766
0.000143818
0.000137405
0.000176079
0.000137311
0.000175942
0.000170951
0.000170743
0.000175721
0.000137208
0.000143812
0.000170585
0.000175859
0.000137303
0.000160288
0.000147289
0.000103453
0.000122594
0.000122529
0.000147218
0.000160449
0.000160292
0.000122464
0.000147096
0.000103456
0.000160144
0.00012253
0.000147167
0.00017076
0.000143814
0.000176075
0.000137392
0.000175938
0.000137298
0.000170932
0.000170432
0.000175596
0.00013722
0.000143613
0.000175579
0.000137124
0.000170521
0.000159978
0.000146873
0.000103394
0.000122344
0.00014695
0.000122413
0.00015987
0.000160027
0.000122479
0.000103391
0.000147074
0.000147001
0.000122412
0.000160143
0.000170319
0.000143596
0.000175348
0.000137039
0.00017537
0.000137125
0.000170231
0.000170709
0.000137241
0.000175796
0.000143811
0.000170648
0.000137315
0.000175812
0.000160387
0.000147313
0.000103473
0.000122617
0.000160414
0.000147274
0.000122559
0.000160255
0.000122495
0.000147149
0.000103477
0.00016023
0.000147188
0.000122554
0.000170844
0.000143832
0.000137403
0.00017602
0.000170905
0.000137331
0.00017601
0.000170729
0.000175784
0.000137217
0.000143812
0.00017063
0.000175825
0.000137312
0.00016033
0.000147316
0.000103471
0.000122609
0.000122542
0.000147242
0.00016047
0.000160307
0.000122478
0.000147121
0.000103474
0.000160182
0.000122545
0.000147193
0.000170816
0.000143818
0.000176069
0.000137402
0.000175976
0.000137308
0.00017094
0.000137941
0.000180837
0.000161118
0.000161146
0.000161051
0.000161034
0.000137984
0.000138069
0.000181289
0.000161189
0.000161208
0.000161273
0.000138026
0.000161299
0.000170414
0.000175654
0.000137223
0.000143608
0.000175517
0.000137127
0.000170542
0.000159979
0.000146867
0.000103394
0.000122347
0.000146944
0.000122413
0.000159848
0.000160006
0.00012248
0.000103391
0.000147068
0.000146993
0.000122413
0.000160142
0.000170329
0.000143602
0.000175288
0.000137035
0.000175426
0.000137131
0.000170212
0.000170751
0.00017573
0.000137219
0.000143812
0.000170607
0.000175867
0.000137313
0.00016036
0.000147307
0.000103475
0.000122608
0.000160421
0.000147266
0.000122549
0.000160279
0.000122483
0.000147142
0.000103477
0.000160175
0.000147181
0.000122546
0.000170786
0.000143817
0.000176083
0.0001374
0.000170948
0.000175948
0.00013731
0.000170751
0.000175731
0.00013722
0.000143815
0.000170604
0.000175867
0.000137314
0.000160306
0.000147309
0.000103471
0.000122609
0.000122545
0.000147237
0.000160474
0.000160308
0.00012248
0.000147114
0.000103475
0.000160162
0.000122545
0.000147186
0.000170779
0.000143821
0.000176084
0.000137404
0.000175948
0.00013731
0.000170955
0.000138078
0.000181294
0.000161213
0.000161199
0.000138031
0.000161302
0.000161287
0.000160629
0.000147369
0.000122606
0.000103552
0.000147428
0.000160474
0.000122672
0.000171146
0.000144019
0.000176187
0.000137395
0.000176307
0.000170988
0.000137491
0.000147362
0.000103551
0.000147419
0.000123043
0.000139421
0.000139427
0.000137315
0.00012584
0.000142546
0.000142552
0.000139672
0.000128798
0.000145634
0.000145638
0.000142093
0.000131893
0.000148678
0.000148682
0.000144409
0.000135105
0.000151674
0.000151677
0.000146674
0.000138415
0.000154613
0.000154616
0.000148894
0.000141804
0.000157492
0.000157494
0.000151006
0.000145252
0.000160309
0.00016031
0.000153087
0.000148742
0.000163061
0.000163062
0.000155136
0.000152261
0.000165749
0.000165747
0.000157145
0.000155793
0.000168368
0.000168366
0.000159035
0.000159326
0.000170918
0.000170914
0.000160905
0.000162845
0.000173398
0.000173393
0.00016269
0.00016634
0.000175806
0.0001758
0.000164449
0.000169801
0.00017814
0.000178134
0.000166085
0.000173218
0.0001804
0.000180393
0.000167702
0.000176584
0.000182584
0.000182577
0.000169264
0.000179889
0.000184692
0.000184685
0.000170777
0.000183127
0.000186723
0.000186716
0.000172222
0.000186291
0.000188676
0.000188669
0.000173599
0.000189375
0.000190551
0.000190544
0.00017492
0.000192373
0.000192349
0.000192341
0.000176169
0.000195281
0.000194067
0.000194059