/*--------------------------------*- C++ -*----------------------------------*\
| =========                 |                                                 |
| \\      /  F ield         | OpenFOAM: The Open Source CFD Toolbox           |
|  \\    /   O peration     | Version:  v1906                                 |
|   \\  /    A nd           | Web:      www.OpenFOAM.com                      |
|    \\/     M anipulation  |                                                 |
\*---------------------------------------------------------------------------*/
FoamFile
{
    version     2.0;
    format      ascii;
    class       volScalarField;
    location    "950";
    object      p;
}
// * * * * * * * * * * * * * * * * * * * * * * * * * * * * * * * * * * * * * //

dimensions      [0 2 -2 0 0 0 0];


internalField   nonuniform List<scalar> 
171728
(
0.00167306
0.00167471
0.00167471
0.00167306
0.00167471
0.00167471
0.00167471
0.00167471
0.00167306
0.00167471
0.00167471
0.00167306
0.00167479
0.00167479
0.00167479
0.00167479
0.00167236
0.00167236
0.00167237
0.00167238
0.0016857
0.00167237
0.00167239
0.0016857
0.00167237
0.00168569
0.00167239
0.00168564
0.00167244
0.00167476
0.00168372
0.00167253
0.00168564
0.00168368
0.00167244
0.00167476
0.00168566
0.00168373
0.00167253
0.00167236
0.0016857
0.00168525
0.00167237
0.00167238
0.0016857
0.0016857
0.00167236
0.0016857
0.00167237
0.00167239
0.00167244
0.00167475
0.00167253
0.00167237
0.00167239
0.00167475
0.00167244
0.00167253
0.00168564
0.00168368
0.00167244
0.00167476
0.00168566
0.00168372
0.00167253
0.0016857
0.00167237
0.00168569
0.00167239
0.00168564
0.00168368
0.00167476
0.00167244
0.00168372
0.00168566
0.00167253
0.0016857
0.00167237
0.00168569
0.00167239
0.00167236
0.00167238
0.00167237
0.00167236
0.00168564
0.00167475
0.00167244
0.00168372
0.00167253
0.00168564
0.00168368
0.00167476
0.00167244
0.00168373
0.00168566
0.00167253
0.0016857
0.00167237
0.00167239
0.0016857
0.00167237
0.00168569
0.00167239
0.00168525
0.00167237
0.00167237
0.0016857
0.0016857
0.00167236
0.0016857
0.00167236
0.0016857
0.00167673
0.00167673
0.00167672
0.00167245
0.00167673
0.00167238
0.00167673
0.0016767
0.00167241
0.00167671
0.00167247
0.00167673
0.00167237
0.00167672
0.0016767
0.00167242
0.00167674
0.00167236
0.00167236
0.00167674
0.00167674
0.00167236
0.00168133
0.0016857
0.0016857
0.00168136
0.0016857
0.00168133
0.00168135
0.00167673
0.00167672
0.00167236
0.00167674
0.00167236
0.00167673
0.00167673
0.00167236
0.00167238
0.00167673
0.00167673
0.00167236
0.00168133
0.0016857
0.0016857
0.00168136
0.0016857
0.00168133
0.00168135
0.00167673
0.00167672
0.00167236
0.00167674
0.00167236
0.00168133
0.00168571
0.00168134
0.0016857
0.00168133
0.00167673
0.00167673
0.00167236
0.00167238
0.00167673
0.00167673
0.00167236
0.00167673
0.00168133
0.00168133
0.00168571
0.00168571
0.00168571
0.00168133
0.00168133
0.00167671
0.00167246
0.00167673
0.00167237
0.0016767
0.00167673
0.00167241
0.00167671
0.00167246
0.00167673
0.00167237
0.00167673
0.0016767
0.00167241
0.00168138
0.0016857
0.00168567
0.00168134
0.00168143
0.00168568
0.00168134
0.00168138
0.0016857
0.00168567
0.00168134
0.00168568
0.00168134
0.00168143
0.00167674
0.00167236
0.00167236
0.00167674
0.00167674
0.00167236
0.00167673
0.00168133
0.00167673
0.00167672
0.00167236
0.00167674
0.00167236
0.00167673
0.00167673
0.00167238
0.00167236
0.00167673
0.00167673
0.00167236
0.00167673
0.00167672
0.00167236
0.00167674
0.00167236
0.00167673
0.00167673
0.00167236
0.00167238
0.00167673
0.00167673
0.00167236
0.00168133
0.0016857
0.0016857
0.00168136
0.0016857
0.00168135
0.00168133
0.00167673
0.00167672
0.00167236
0.00167674
0.00167236
0.00168133
0.00168571
0.00168134
0.0016857
0.00168133
0.00167673
0.00167673
0.00167238
0.00167236
0.00167673
0.00167673
0.00167236
0.00168133
0.0016857
0.0016857
0.00168136
0.0016857
0.00168133
0.00168135
0.00167673
0.00167672
0.00167236
0.00167674
0.00167236
0.00168133
0.00168571
0.00168134
0.0016857
0.00168133
0.00167673
0.00167673
0.00167236
0.00167238
0.00167673
0.00167673
0.00167236
0.00167673
0.00167671
0.00167246
0.00167673
0.00167237
0.0016767
0.00167673
0.00167241
0.00167671
0.00167246
0.00167673
0.00167237
0.00167673
0.0016767
0.00167241
0.00167674
0.00167236
0.00167236
0.00167674
0.00167674
0.00167236
0.00167673
0.00168133
0.0016857
0.0016857
0.00168136
0.0016857
0.00168135
0.00168133
0.00167673
0.00167672
0.00167236
0.00167674
0.00167236
0.00168133
0.00168133
0.00167673
0.00167673
0.00167238
0.00167236
0.00167673
0.00167673
0.00167236
0.00168133
0.0016857
0.0016857
0.00168136
0.0016857
0.00168135
0.00168133
0.00167673
0.00167672
0.00167236
0.00167674
0.00167236
0.00168133
0.00168571
0.00168134
0.0016857
0.00168133
0.00167673
0.00167673
0.00167238
0.00167236
0.00167673
0.00167673
0.00167236
0.00168133
0.00168571
0.00168571
0.00168571
0.00168133
0.00168133
0.00167671
0.00167246
0.00167673
0.00167237
0.0016767
0.00167673
0.00167241
0.00167671
0.00167246
0.00167673
0.00167237
0.0016767
0.00167673
0.00167241
0.00168138
0.0016857
0.00168567
0.00168134
0.00168568
0.00168143
0.00168134
0.00168138
0.0016857
0.00168567
0.00168134
0.00168568
0.00168143
0.00168134
0.00167674
0.00167236
0.00167236
0.00167674
0.00167674
0.00167236
0.00167673
0.00168133
0.00167673
0.00168133
0.00167662
0.00167628
0.00167274
0.00167277
0.00167649
0.00167649
0.00167257
0.00167662
0.00167628
0.00167276
0.00167276
0.00167649
0.00167649
0.00167256
0.00167662
0.00167628
0.00167276
0.00167276
0.00167649
0.00167649
0.00167256
0.00167662
0.00167628
0.00167276
0.00167276
0.00167649
0.00167649
0.00167256
0.0016748
0.0016748
0.00168377
0.00168377
0.0016748
0.00168376
0.0016748
0.0016748
0.00168377
0.00168377
0.00168377
0.0016748
0.0016748
0.0016748
0.00168377
0.00168377
0.0016748
0.00168376
0.0016748
0.0016748
0.00168377
0.00168377
0.00168377
0.0016748
0.00168174
0.00168564
0.00168545
0.0016815
0.00168544
0.00168149
0.00168175
0.0016765
0.0016726
0.00167669
0.00167249
0.00167655
0.00167668
0.00167274
0.00167647
0.00167667
0.00167252
0.00167279
0.00167667
0.00167648
0.00167277
0.00168174
0.00168564
0.00168545
0.0016815
0.00168544
0.00168148
0.00168175
0.0016765
0.00167261
0.00167669
0.00167249
0.00167667
0.00167656
0.00167274
0.00168171
0.00168565
0.00168553
0.00168141
0.00168547
0.00168146
0.00168157
0.00167647
0.00167667
0.00167252
0.00167279
0.00167667
0.00167648
0.00167278
0.00168153
0.00168203
0.00168546
0.00168546
0.00168173
0.00168559
0.00168172
0.0016765
0.00167261
0.00167669
0.00167249
0.00167656
0.00167668
0.00167274
0.00167647
0.00167667
0.00167252
0.00167279
0.00167667
0.00167648
0.00167277
0.0016765
0.0016726
0.00167669
0.00167249
0.00167668
0.00167656
0.00167274
0.00167647
0.00167667
0.00167279
0.00167252
0.00167648
0.00167667
0.00167277
0.00168174
0.00168564
0.00168546
0.0016815
0.00168544
0.00168149
0.00168175
0.0016765
0.0016726
0.00167669
0.00167249
0.00167656
0.00167668
0.00167274
0.00168171
0.00168565
0.00168553
0.00168141
0.00168547
0.00168157
0.00168146
0.00167647
0.00167667
0.00167252
0.00167279
0.00167667
0.00167648
0.00167278
0.00168174
0.00168546
0.00168564
0.0016815
0.00168544
0.00168175
0.00168148
0.0016765
0.0016726
0.00167669
0.00167249
0.00167667
0.00167656
0.00167274
0.00168171
0.00168565
0.00168553
0.00168141
0.00168547
0.00168146
0.00168157
0.00167647
0.00167667
0.00167279
0.00167252
0.00167648
0.00167667
0.00167277
0.00168174
0.00168546
0.00168564
0.0016815
0.00168544
0.00168175
0.00168149
0.0016765
0.00167261
0.00167669
0.00167249
0.00167656
0.00167667
0.00167274
0.00168171
0.00168146
0.00167647
0.00167667
0.00167279
0.00167252
0.00167648
0.00167667
0.00167277
0.00168174
0.00168546
0.00168564
0.0016815
0.00168544
0.00168175
0.00168149
0.0016765
0.00167261
0.00167669
0.00167249
0.00167668
0.00167656
0.00167274
0.00168171
0.00168565
0.00168553
0.00168141
0.00168547
0.00168146
0.00168157
0.00167647
0.00167667
0.00167279
0.00167252
0.00167648
0.00167667
0.00167277
0.00168153
0.00168203
0.00168546
0.00168546
0.00168559
0.00168172
0.00168172
0.000781421
0.000781363
0.000781363
0.000782935
0.000747629
0.000782934
0.000753273
0.000781363
0.000781363
0.000754884
0.000754884
0.000782934
0.000753273
0.000781363
0.000781363
0.000754884
0.000754884
0.000781363
0.000754884
0.000754884
0.000782934
0.000753273
0.000781363
0.000754884
0.000754884
0.000753273
0.000746055
0.000746055
0.000770373
0.000783496
0.000770375
0.000783484
0.000783503
0.000770374
0.000770373
0.000783496
0.000770375
0.000783484
0.000781421
0.000781421
0.000781421
0.000754939
0.000754939
0.000754939
0.000754939
0.000770457
0.000783449
0.000781385
0.000772538
0.000770411
0.00077256
0.000783401
0.000783503
0.000770373
0.000770457
0.000781385
0.000783449
0.000772538
0.00077256
0.000770411
0.000783401
0.000783496
0.000783496
0.000770927
0.000770368
0.000770368
0.000748193
0.000748193
0.000783503
0.000770373
0.000783503
0.000770373
0.000783496
0.000783496
0.000770927
0.000770368
0.000770368
0.000752721
0.000765854
0.000752721
0.000765854
0.000765284
0.000752715
0.000752715
0.000765847
0.000765847
0.000770373
0.000783496
0.000770375
0.000783484
0.000770457
0.000783449
0.000781385
0.000772538
0.00077041
0.00077256
0.000783401
0.000770457
0.000783449
0.000781385
0.000772538
0.000770411
0.00077256
0.000783401
0.000765835
0.000752722
0.000765847
0.00075272
0.000765835
0.000752722
0.000765847
0.00075272
0.000765752
0.000763712
0.000752757
0.000754905
0.0007658
0.000763733
0.000752803
0.000765752
0.000763712
0.000752757
0.000754905
0.0007658
0.000763733
0.000752803
0.000783495
0.000783495
0.000770927
0.000770368
0.000770369
0.000783503
0.000770374
0.000752721
0.000765854
0.000765284
0.000752715
0.000752716
0.000765847
0.000765846
0.000752721
0.000765855
0.000770456
0.000783448
0.000781385
0.000772538
0.000770411
0.00077256
0.000783401
0.000770373
0.000783496
0.000770375
0.000783484
0.000770457
0.000781385
0.000783448
0.000772538
0.00077256
0.000770411
0.000783401
0.000765835
0.000752722
0.000765847
0.00075272
0.000765752
0.000763712
0.000752757
0.000754905
0.0007658
0.000763733
0.000752803
0.000765835
0.000752722
0.000765847
0.00075272
0.000765752
0.000763712
0.000754905
0.000752758
0.000763733
0.0007658
0.000752803
0.000770373
0.000783496
0.000770375
0.000783484
0.000770457
0.000781385
0.000783449
0.000772538
0.00077256
0.000770411
0.000783401
0.000770373
0.000783496
0.000770375
0.000783484
0.000765752
0.000763712
0.000752758
0.000754905
0.0007658
0.000763733
0.000752803
0.000765835
0.000752722
0.000765847
0.00075272
0.000765753
0.000763712
0.000754905
0.000752757
0.000763733
0.0007658
0.000752803
0.000765835
0.000752722
0.000765847
0.00075272
0.000783495
0.000783496
0.000770927
0.000770369
0.000770368
0.000783503
0.000770374
0.000752721
0.000765854
0.000765284
0.000752716
0.000752715
0.000765846
0.000765847
0.000752721
0.000765855
0.000770457
0.000781385
0.000783449
0.000772538
0.00077256
0.000770411
0.000783401
0.000770374
0.000783496
0.000770375
0.000783484
0.000770373
0.000783496
0.000770375
0.000783484
0.000765752
0.000763712
0.000754905
0.000752758
0.000763733
0.0007658
0.000752803
0.000765752
0.000763712
0.000754905
0.000752757
0.000763733
0.0007658
0.000752803
0.000765835
0.000752722
0.000765847
0.000752721
0.000765835
0.000752722
0.000765847
0.00075272
0.000783503
0.000770373
0.000783503
0.000770374
0.000765284
0.000752715
0.000752715
0.000765847
0.000765847
0.000752721
0.000765854
0.000752721
0.000765854
0.000746076
0.000748146
0.000748097
0.000748193
0.000748181
0.000748146
0.000748193
0.0007482
0.0007482
0.000774682
0.000770366
0.000770372
0.00077466
0.00077468
0.000774663
0.000770367
0.000779195
0.000779199
0.0007835
0.000779187
0.000783508
0.000774684
0.000770362
0.000774672
0.000774676
0.00077037
0.000779191
0.000779198
0.000783504
0.000783487
0.000779191
0.000779196
0.000783506
0.000779198
0.000774679
0.000774682
0.000770371
0.000770367
0.00077466
0.000774664
0.00077468
0.000770367
0.000779195
0.000779199
0.0007835
0.000779186
0.000783508
0.000774684
0.000770362
0.000774672
0.000774677
0.000770371
0.000779191
0.000779197
0.000783487
0.000783504
0.000779196
0.000779191
0.000783506
0.000779198
0.000774679
0.000774686
0.000770369
0.000770369
0.00077469
0.00077469
0.00077036
0.000779216
0.00078344
0.000779193
0.000783499
0.000779247
0.000779201
0.000783472
0.000779216
0.00078344
0.000779193
0.000783499
0.000779247
0.000779201
0.000783472
0.000774649
0.000770376
0.000774672
0.000770422
0.000774616
0.000774675
0.000770392
0.000774649
0.000770376
0.000774672
0.000770422
0.000774616
0.000774675
0.000770392
0.000779184
0.000783513
0.000783513
0.000779193
0.000779193
0.00078351
0.00074391
0.000748136
0.000748196
0.000743887
0.000748169
0.00074394
0.000743895
0.00074391
0.000748136
0.000748196
0.000743887
0.000748169
0.00074394
0.000743895
0.000743878
0.00074821
0.00074821
0.000748207
0.000743888
0.000743888
0.000779198
0.000774679
0.000779198
0.000774679
0.000774686
0.000770369
0.000770369
0.000774689
0.000774689
0.00077036
0.000779216
0.00078344
0.000779192
0.000783499
0.0007792
0.000779247
0.000783472
0.000779216
0.000783439
0.000779192
0.000783499
0.0007792
0.000779247
0.000783472
0.000774649
0.000770376
0.000774672
0.000770422
0.000774675
0.000770392
0.000774616
0.000774649
0.000770376
0.000774672
0.000770422
0.000774675
0.000770392
0.000774616
0.000779184
0.000783513
0.000783513
0.000779193
0.000779193
0.00078351
0.000757028
0.000761548
0.000757028
0.000761548
0.000761534
0.000765864
0.000765864
0.000765861
0.000761543
0.000761543
0.000756997
0.000752768
0.000757021
0.000752723
0.000757024
0.000756964
0.000752738
0.000756997
0.000752769
0.00075702
0.000752723
0.000757024
0.000756964
0.000752738
0.000761566
0.00076585
0.00076579
0.000761542
0.000765823
0.00076155
0.000761596
0.000761566
0.00076585
0.00076579
0.000761542
0.000765823
0.00076155
0.000761596
0.000757035
0.000752716
0.000752716
0.000757038
0.000757038
0.000752707
0.000774682
0.000770367
0.000770371
0.00077466
0.00077468
0.000774663
0.000770367
0.000779195
0.000779199
0.0007835
0.000779186
0.000783508
0.000774684
0.000770362
0.000774672
0.000774677
0.000770371
0.000779191
0.000779198
0.000783504
0.000783487
0.000779191
0.000779196
0.000783506
0.000761541
0.000765855
0.000765838
0.000761547
0.000765857
0.000761541
0.000761546
0.000757033
0.000757021
0.000752709
0.000752718
0.000757025
0.000761545
0.000765851
0.000761549
0.000765859
0.000761536
0.000757031
0.000757008
0.000752714
0.000752719
0.000752714
0.000757029
0.000757012
0.000761541
0.000765855
0.000765838
0.000761547
0.000765857
0.000761541
0.000761546
0.000757032
0.000757021
0.000752709
0.000757025
0.000752718
0.000761545
0.000765851
0.000761549
0.000765859
0.000761536
0.000757031
0.000757009
0.000752714
0.000752718
0.000757029
0.000757012
0.000752714
0.000774686
0.000770369
0.000770369
0.00077469
0.00077469
0.00077036
0.000779216
0.000783439
0.000779193
0.000783499
0.000779201
0.000779247
0.000783472
0.000779216
0.000783439
0.000779193
0.000783499
0.000779247
0.000779201
0.000783472
0.000774649
0.000770376
0.000774672
0.000770422
0.000774675
0.000774615
0.000770392
0.000774649
0.000770376
0.000774672
0.000770422
0.000774616
0.000774675
0.000770392
0.000779184
0.000783513
0.000783513
0.000779193
0.000779193
0.00078351
0.000779198
0.00077468
0.000757028
0.000761548
0.000761534
0.000765864
0.000765864
0.000765861
0.000761543
0.000761543
0.000756997
0.000752769
0.00075702
0.000752723
0.000756963
0.000757024
0.000752739
0.000756997
0.000752769
0.00075702
0.000752723
0.000757024
0.000756964
0.000752739
0.000761566
0.00076585
0.00076579
0.000761543
0.000761596
0.000765823
0.00076155
0.000761566
0.00076585
0.00076579
0.000761543
0.000765823
0.00076155
0.000761596
0.000757035
0.000752716
0.000752716
0.000757038
0.000757038
0.000752707
0.000757028
0.000761548
0.000774682
0.000770367
0.000770372
0.00077466
0.00077468
0.000774663
0.000770367
0.000779195
0.000779199
0.0007835
0.000779187
0.000783508
0.000774684
0.000770362
0.000774672
0.000774676
0.000770371
0.000779191
0.000779197
0.000783504
0.000783487
0.000779191
0.000779196
0.000783506
0.000761541
0.000765838
0.000765855
0.000761547
0.000765857
0.000761545
0.000761541
0.000757032
0.000757021
0.000752709
0.000752718
0.000757025
0.000761545
0.000765851
0.000761549
0.000765859
0.000761536
0.000757031
0.000757009
0.000752718
0.000752714
0.000752714
0.000757012
0.000757029
0.000761541
0.000765855
0.000765838
0.000761547
0.000765857
0.000761541
0.000761546
0.000757032
0.000757021
0.00075271
0.000757025
0.000752718
0.000761545
0.000765851
0.000761549
0.000765859
0.000761537
0.000757031
0.000757009
0.000752714
0.000752719
0.000757029
0.000757012
0.000752714
0.000774682
0.000770371
0.000770367
0.00077466
0.000774663
0.00077468
0.000770367
0.000779195
0.000779199
0.0007835
0.000779186
0.000783508
0.000774684
0.000770362
0.000774672
0.000774677
0.000770371
0.000779191
0.000779198
0.000783487
0.000783504
0.000779196
0.000779191
0.000783506
0.000774682
0.000770367
0.000770371
0.00077466
0.00077468
0.000774664
0.000770367
0.000779195
0.000779199
0.0007835
0.000779186
0.000783508
0.000774684
0.000770362
0.000774672
0.000774677
0.000770371
0.000779191
0.000779197
0.000783504
0.000783487
0.000779191
0.000779196
0.000783506
0.000761541
0.000765838
0.000765855
0.000761548
0.000765857
0.000761546
0.000761541
0.000757033
0.000757021
0.000752709
0.000757025
0.000752718
0.000761545
0.000765852
0.000761549
0.000765859
0.000761536
0.000757031
0.000757009
0.000752719
0.000752714
0.000757012
0.000757029
0.000752714
0.000761541
0.000765855
0.000765838
0.000761547
0.000765857
0.000761541
0.000761546
0.000757033
0.000757021
0.000752709
0.000757025
0.000752718
0.000761545
0.000765852
0.000761549
0.000765859
0.000761536
0.000757031
0.000757009
0.000752714
0.000752718
0.000757029
0.000757012
0.000752714
0.000774686
0.000770369
0.000770369
0.000774689
0.000774689
0.00077036
0.000779216
0.000783439
0.000779193
0.000783499
0.000779201
0.000779247
0.000783472
0.000779216
0.000783439
0.000779193
0.000783499
0.000779247
0.000779201
0.000783472
0.000774648
0.000770376
0.000774671
0.000770422
0.000774675
0.000774615
0.000770392
0.000774648
0.000770376
0.000774672
0.000770422
0.000774616
0.000774675
0.000770392
0.000779184
0.000783513
0.000783513
0.000779193
0.000779193
0.00078351
0.000779198
0.00077468
0.000757028
0.000761548
0.000761534
0.000765864
0.000765864
0.000765861
0.000761543
0.000761543
0.000756997
0.000752769
0.00075702
0.000752723
0.000756963
0.000757024
0.000752739
0.000756997
0.000752769
0.000757021
0.000752723
0.000757024
0.000756964
0.000752739
0.000761566
0.00076585
0.00076579
0.000761543
0.000761596
0.000765823
0.00076155
0.000761566
0.00076585
0.00076579
0.000761542
0.000765823
0.00076155
0.000761596
0.000757035
0.000752716
0.000752716
0.000757038
0.000757038
0.000752707
0.000757028
0.000761548
0.000774682
0.000770372
0.000770367
0.00077466
0.000774663
0.00077468
0.000770367
0.000779195
0.000779199
0.0007835
0.000779186
0.000783508
0.000774684
0.000770362
0.000774672
0.000774677
0.000770371
0.000779191
0.000779198
0.000783487
0.000783504
0.000779196
0.000779191
0.000783506
0.000774682
0.000770372
0.000770367
0.00077466
0.000774663
0.00077468
0.000770367
0.000779195
0.000779199
0.0007835
0.000779187
0.000783508
0.000774684
0.000770363
0.000774672
0.000774676
0.000770371
0.000779191
0.000779197
0.000783487
0.000783504
0.000779196
0.000779191
0.000783506
0.000761541
0.000765838
0.000765855
0.000761548
0.000765857
0.000761546
0.000761541
0.000757033
0.000757021
0.000752709
0.000757025
0.000752718
0.000761545
0.000765852
0.000761549
0.000765859
0.000761536
0.000757031
0.000757008
0.000752719
0.000752714
0.000757012
0.000757029
0.000752714
0.000761541
0.000765838
0.000765855
0.000761547
0.000765857
0.000761546
0.000761541
0.000757033
0.000757021
0.00075271
0.000757025
0.000752718
0.000761545
0.000765851
0.000761549
0.000765859
0.000761537
0.000757031
0.000757009
0.000752719
0.000752714
0.000757012
0.000757029
0.000752714
0.000779198
0.00077468
0.000779198
0.00077468
0.000761534
0.000765864
0.000765864
0.000765861
0.000761543
0.000761543
0.000756997
0.000752769
0.00075702
0.000752723
0.000752739
0.000756964
0.000757024
0.000756997
0.000752769
0.000757021
0.000752723
0.000752739
0.000756964
0.000757024
0.000761566
0.00076585
0.00076579
0.000761542
0.000765824
0.000761596
0.00076155
0.000761566
0.00076585
0.000765791
0.000761542
0.000765824
0.000761596
0.00076155
0.000757035
0.000752716
0.000752716
0.000752707
0.000757038
0.000757038
0.000757028
0.000761548
0.000757028
0.000761548
0.000743889
0.000748197
0.000743893
0.000748205
0.000743881
0.000743885
0.000743892
0.000748201
0.000748184
0.000748203
0.000743885
0.00074389
0.000743893
0.000743892
0.000743892
0.000781455
0.000781455
0.000772595
0.000772629
0.000772629
0.000772677
0.000781503
0.000779319
0.000783211
0.000783212
0.000779752
0.000779492
0.000779492
0.000783371
0.000744012
0.000747907
0.000747907
0.000744444
0.000748067
0.000744185
0.000744185
0.000779319
0.000783211
0.000783212
0.000779752
0.000779493
0.000779492
0.000783371
0.000756895
0.000756457
0.000753014
0.000753014
0.000756734
0.000756735
0.00075284
0.000779319
0.00078321
0.000783211
0.000779752
0.000779493
0.000779493
0.000783371
0.000756895
0.000756457
0.000753014
0.000753014
0.000756734
0.000756735
0.000752841
0.000779319
0.00078321
0.000783212
0.000779752
0.000779492
0.000779493
0.000783371
0.000756895
0.000756457
0.000753014
0.000753014
0.000756734
0.000756735
0.000752841
0.000756896
0.000756457
0.000753014
0.000753013
0.00075284
0.000756735
0.000756735
0.000781455
0.000781455
0.000772595
0.000772629
0.000772629
0.000772677
0.000781503
0.000781455
0.000781455
0.000772595
0.000772629
0.000772629
0.000772677
0.000781503
0.000781455
0.000781455
0.000772595
0.000772629
0.000772629
0.000772677
0.000781503
0.000763768
0.000754973
0.000754973
0.000763802
0.000763802
0.000763849
0.00075502
0.000763768
0.000754973
0.000754973
0.000763802
0.000763802
0.000763849
0.00075502
0.000763768
0.000754973
0.000754973
0.000763802
0.000763802
0.000763849
0.00075502
0.000763768
0.000754973
0.000754973
0.000763802
0.000763802
0.000763849
0.00075502
0.000774347
0.000770453
0.000770694
0.000774577
0.000774581
0.00077435
0.000770699
0.000779484
0.000783302
0.000779235
0.000783419
0.000779397
0.000779262
0.000783199
0.000774375
0.000770438
0.000774625
0.000770572
0.000774478
0.000774596
0.000770659
0.000779523
0.000779281
0.000783405
0.000783174
0.000779278
0.000779519
0.000783171
0.000774347
0.000770694
0.000770453
0.000774577
0.00077435
0.000774581
0.000770698
0.000779484
0.000783302
0.000779235
0.00078342
0.000779397
0.000779262
0.000783199
0.000774375
0.000770438
0.000774625
0.000770573
0.000774478
0.000774596
0.000770659
0.000779523
0.000779281
0.000783175
0.000783405
0.000779519
0.000779278
0.000783172
0.000774547
0.00077411
0.000770668
0.000770667
0.000774387
0.000774388
0.000770494
0.000774547
0.00077411
0.000770668
0.000770667
0.000770494
0.000774387
0.000774387
0.000761668
0.000762101
0.000765561
0.000765562
0.000765722
0.000761842
0.000761841
0.000774347
0.000770453
0.000770694
0.000774577
0.000774582
0.00077435
0.000770698
0.000779483
0.000783303
0.000779235
0.00078342
0.000779262
0.000779396
0.0007832
0.000774375
0.000770437
0.000774625
0.000770572
0.000774596
0.000774479
0.000770658
0.000779523
0.000779281
0.000783405
0.000783174
0.000779278
0.000779519
0.000783172
0.000774347
0.000770453
0.000770694
0.000774577
0.000774581
0.00077435
0.000770698
0.000779484
0.000783301
0.000779235
0.000783419
0.000779262
0.000779397
0.000783199
0.000774375
0.000770438
0.000774625
0.000770573
0.000774596
0.000770659
0.000774477
0.000779523
0.000779281
0.000783405
0.000783174
0.000779278
0.000779519
0.000783171
0.000761872
0.000765756
0.000765524
0.000761631
0.000765522
0.000761627
0.000761868
0.000756723
0.000752918
0.000756974
0.000752784
0.000756827
0.000756944
0.000753004
0.000761832
0.000765771
0.000765653
0.000761584
0.000761746
0.00076555
0.000761611
0.000756695
0.000756925
0.000752799
0.00075304
0.00075693
0.000756697
0.000753044
0.000761872
0.000765756
0.000765524
0.000761631
0.000765522
0.000761627
0.000761868
0.000756722
0.000752919
0.000756973
0.000752784
0.000756944
0.000756825
0.000753005
0.000761833
0.000765771
0.000765652
0.000761585
0.000765549
0.000761612
0.000761747
0.000756695
0.000756925
0.000752799
0.00075304
0.00075693
0.000756697
0.000753044
0.000774547
0.000774109
0.000770668
0.000770668
0.000774387
0.000774386
0.000770494
0.000761668
0.000762101
0.000765561
0.000765562
0.000761842
0.000765722
0.000761841
0.000774347
0.000770453
0.000770694
0.000774577
0.000774581
0.00077435
0.000770698
0.000779484
0.000783302
0.000779235
0.000783419
0.000779262
0.000779397
0.000783199
0.000774375
0.000770438
0.000774625
0.000770572
0.000774596
0.000774478
0.000770659
0.000779523
0.000779281
0.000783405
0.000783174
0.000779278
0.000779519
0.000783171
0.000774347
0.000770694
0.000770453
0.000774577
0.00077435
0.000774581
0.000770699
0.000779484
0.000783302
0.000779235
0.000783419
0.000779262
0.000779397
0.000783199
0.000774375
0.000770438
0.000774625
0.000770573
0.000774596
0.000770659
0.000774478
0.000779523
0.000779281
0.000783174
0.000783405
0.000779519
0.000779278
0.000783171
0.000761872
0.000765756
0.000765525
0.000761631
0.000765522
0.000761627
0.000761868
0.000756723
0.000752919
0.000756973
0.000752784
0.000756826
0.000756944
0.000753005
0.000761833
0.000765771
0.000765653
0.000761585
0.000761746
0.000765549
0.000761612
0.000756695
0.000756926
0.000752799
0.000753039
0.00075693
0.000756697
0.000753044
0.000761872
0.000765524
0.000765756
0.00076163
0.000765522
0.000761867
0.000761627
0.000756723
0.000752919
0.000756973
0.000752784
0.000756944
0.000756826
0.000753005
0.000761833
0.000765771
0.000765652
0.000761585
0.000765549
0.000761612
0.000761746
0.000756695
0.000756926
0.00075304
0.0007528
0.000756697
0.00075693
0.000753045
0.000774348
0.000770694
0.000770453
0.000774577
0.00077435
0.000774581
0.000770698
0.000779483
0.000783303
0.000779235
0.000783419
0.000779396
0.000779262
0.000783199
0.000774375
0.000770437
0.000774625
0.000770572
0.000774479
0.000774596
0.000770658
0.000779523
0.000779281
0.000783174
0.000783405
0.000779519
0.000779278
0.000783172
0.000761872
0.000765756
0.000765524
0.000761631
0.000765522
0.000761627
0.000761867
0.000756723
0.000752919
0.000756973
0.000752785
0.000753005
0.000756826
0.000756944
0.000761833
0.00076577
0.000765653
0.000761585
0.000765549
0.000761746
0.000761612
0.000756695
0.000756925
0.0007528
0.00075304
0.000753045
0.00075693
0.000756697
0.000761872
0.000765525
0.000765756
0.00076163
0.000765522
0.000761867
0.000761627
0.000756723
0.000752918
0.000756974
0.000752784
0.000756944
0.000756827
0.000753005
0.000761832
0.000765771
0.000765653
0.000761585
0.00076555
0.000761611
0.000761746
0.000756695
0.000756926
0.000753039
0.0007528
0.000756697
0.00075693
0.000753044
0.000774547
0.00077411
0.000770668
0.000770667
0.000774388
0.000774386
0.000770494
0.000761668
0.000762101
0.000765561
0.000765562
0.000761842
0.000765722
0.000761841
0.000774347
0.000770694
0.000770453
0.000774577
0.00077435
0.000774581
0.000770698
0.000779484
0.000783302
0.000779235
0.000783419
0.000779397
0.000779262
0.000783199
0.000774375
0.000770438
0.000774625
0.000770573
0.000774478
0.000774596
0.000770659
0.000779523
0.000779281
0.000783175
0.000783405
0.000779519
0.000779278
0.000783172
0.000761872
0.000765525
0.000765756
0.000761631
0.000765522
0.000761867
0.000761627
0.000756723
0.000752919
0.000756974
0.000752784
0.000753005
0.000756826
0.000756944
0.000761833
0.000765771
0.000765652
0.000761585
0.000765549
0.000761746
0.000761611
0.000756695
0.000756925
0.000753039
0.0007528
0.000753044
0.000756698
0.00075693
0.000761872
0.000765525
0.000765756
0.00076163
0.000765522
0.000761867
0.000761627
0.000756723
0.000752919
0.000756974
0.000752784
0.000756944
0.000756826
0.000753005
0.000761833
0.000765771
0.000765652
0.000761585
0.00076555
0.000761612
0.000761747
0.000756695
0.000756926
0.000753039
0.0007528
0.000756698
0.00075693
0.000753044
0.000761668
0.0007621
0.000765562
0.000765562
0.000765722
0.000761841
0.000761841
0.000744176
0.000747998
0.000748116
0.000743929
0.00074409
0.000747894
0.000743955
0.000744215
0.000743974
0.000747869
0.000748102
0.000744211
0.000747867
0.000743971
0.000747998
0.000743929
0.00074409
0.00166582
0.00166574
0.00166574
0.00166732
0.00163001
0.00162993
0.00162993
0.0016315
0.00159427
0.00159418
0.00159418
0.00159575
0.00155859
0.0015585
0.0015585
0.00156007
0.00152297
0.00152288
0.00152288
0.00152444
0.00148741
0.00148732
0.00148732
0.00148888
0.00145189
0.0014518
0.0014518
0.00145336
0.00141643
0.00141633
0.00141633
0.00141789
0.001381
0.00138091
0.0013809
0.00138246
0.00134562
0.00134552
0.00134552
0.00134707
0.00131027
0.00131016
0.00131016
0.00131172
0.00127494
0.00127484
0.00127484
0.00127639
0.00123964
0.00123954
0.00123954
0.0012411
0.00120436
0.00120427
0.00120427
0.00120582
0.0011691
0.00116901
0.00116901
0.00117057
0.00113386
0.00113377
0.00113377
0.00113533
0.00109862
0.00109854
0.00109854
0.00110009
0.0010634
0.00106331
0.00106331
0.00106487
0.00102817
0.00102809
0.00102809
0.00102965
0.000992948
0.000992872
0.000992872
0.000994432
0.00095772
0.000957647
0.000957647
0.000959209
0.000922485
0.000922416
0.000922415
0.000923978
0.000887241
0.000887174
0.000887174
0.000888739
0.000851984
0.00085192
0.000851921
0.000853487
0.000816711
0.000816651
0.000816651
0.00081822
0.00166732
0.00163723
0.00166574
0.00166574
0.00163888
0.00163888
0.00166732
0.00163723
0.00166574
0.00166574
0.00163888
0.00163888
0.00166574
0.00163888
0.00163888
0.00166732
0.00163723
0.00166574
0.00163888
0.00163888
0.00163723
0.0016315
0.00160147
0.00162993
0.00162993
0.00160311
0.00160311
0.0016315
0.00160147
0.00162993
0.00162993
0.00160311
0.00160311
0.00162993
0.00160311
0.00160311
0.0016315
0.00160147
0.00162993
0.00160311
0.00160311
0.00160147
0.00159575
0.00156578
0.00159418
0.00159418
0.00156742
0.00156742
0.00159575
0.00156578
0.00159418
0.00159418
0.00156742
0.00156742
0.00159418
0.00156742
0.00156742
0.00159575