/*--------------------------------*- C++ -*----------------------------------*\
| =========                 |                                                 |
| \\      /  F ield         | OpenFOAM: The Open Source CFD Toolbox           |
|  \\    /   O peration     | Version:  v1912                                 |
|   \\  /    A nd           | Website:  www.openfoam.com                      |
|    \\/     M anipulation  |                                                 |
\*---------------------------------------------------------------------------*/
FoamFile
{
    version     2.0;
    format      ascii;
    class       volScalarField;
    location    "0.3";
    object      nut;
}
// * * * * * * * * * * * * * * * * * * * * * * * * * * * * * * * * * * * * * //

dimensions      [0 2 -1 0 0 0 0];


internalField   nonuniform List<scalar> 
171728
(
3.63397e-07
4.31885e-07
4.31801e-07
1.76922e-07
2.30269e-08
2.93461e-08
2.94984e-08
3.91435e-08
1.4941e-09
2.45718e-09
2.44876e-09
3.80153e-08
2.73973e-10
1.49046e-09
1.4883e-09
3.80379e-08
2.16575e-10
1.41976e-09
1.43184e-09
3.80412e-08
2.14488e-10
1.43069e-09
1.42914e-09
3.80412e-08
2.06576e-10
1.4334e-09
1.42759e-09
3.80422e-08
2.15359e-10
1.42899e-09
1.42929e-09
3.80421e-08
2.14323e-10
1.42879e-09
1.42434e-09
3.80428e-08
2.05519e-10
1.42698e-09
1.42837e-09
3.80424e-08
2.33791e-10
1.42497e-09
1.42867e-09
3.80427e-08
2.18117e-10
1.42432e-09
1.42844e-09
3.80432e-08
2.23309e-10
1.43578e-09
1.43022e-09
3.80431e-08
2.23562e-10
1.43772e-09
1.42974e-09
3.80434e-08
2.09637e-10
1.41477e-09
1.42967e-09
3.80432e-08
2.15751e-10
1.43644e-09
1.42895e-09
3.80434e-08
2.19745e-10
1.4285e-09
1.42982e-09
3.80437e-08
2.12591e-10
1.42018e-09
1.42895e-09
3.80439e-08
2.46104e-10
1.41654e-09
1.42768e-09
3.80433e-08
2.21439e-10
1.44051e-09
1.42466e-09
3.8043e-08
2.67158e-10
1.43413e-09
1.42915e-09
3.80451e-08
2.15644e-10
1.43069e-09
1.43006e-09
3.80454e-08
2.16355e-10
1.42913e-09
1.42972e-09
3.80458e-08
2.16936e-10
1.42988e-09
1.43066e-09
3.80455e-08
2.175e-10
1.42957e-09
1.43064e-09
3.80455e-08
2.17136e-10
1.42941e-09
1.43004e-09
3.80456e-08
2.17335e-10
1.42995e-09
1.4306e-09
3.80455e-08
2.17616e-10
1.42926e-09
1.42991e-09
3.80454e-08
2.17321e-10
1.42989e-09
1.43055e-09
3.80454e-08
2.17021e-10
1.42965e-09
1.4304e-09
3.80454e-08
2.16875e-10
1.43015e-09
1.43025e-09
3.80452e-08
2.17135e-10
1.42725e-09
1.43008e-09
3.80455e-08
2.17689e-10
1.43037e-09
1.43061e-09
3.80455e-08
2.17282e-10
1.42986e-09
1.43144e-09
3.80455e-08
2.17239e-10
1.43011e-09
1.43147e-09
3.80457e-08
2.17286e-10
1.43028e-09
1.43213e-09
3.80456e-08
2.17434e-10
1.42992e-09
1.43176e-09
3.80457e-08
2.17811e-10
1.42993e-09
1.43177e-09
3.80457e-08
2.18635e-10
1.4302e-09
1.43549e-09
3.80458e-08
2.26064e-10
1.43385e-09
1.43376e-09
3.80387e-08
2.93704e-10
1.41285e-09
1.43178e-09
3.80456e-08
2.15007e-10
1.43596e-09
1.42925e-09
3.80453e-08
2.16929e-10
1.43223e-09
1.43024e-09
3.80457e-08
2.18006e-10
1.4288e-09
1.42982e-09
3.8046e-08
2.18387e-10
1.42876e-09
1.43215e-09
3.80461e-08
2.18057e-10
1.42861e-09
1.43097e-09
3.8046e-08
2.1799e-10
1.42871e-09
1.43094e-09
3.80462e-08
2.1818e-10
1.42861e-09
1.43227e-09
3.80463e-08
2.18037e-10
1.42891e-09
1.43256e-09
3.80462e-08
2.1809e-10
1.42866e-09
1.43234e-09
3.80463e-08
2.18348e-10
1.42832e-09
1.43326e-09
3.80466e-08
2.18655e-10
1.4289e-09
1.43135e-09
3.80462e-08
2.18995e-10
1.42933e-09
1.43166e-09
3.80461e-08
2.20755e-10
1.43686e-09
1.43196e-09
3.80464e-08
2.24222e-10
1.42148e-09
1.43257e-09
3.80464e-08
2.19189e-10
1.42729e-09
1.4285e-09
3.80451e-08
2.19115e-10
1.4289e-09
1.4294e-09
3.80426e-08
2.1896e-10
1.42902e-09
1.4293e-09
3.80424e-08
2.1927e-10
1.42937e-09
1.42975e-09
3.80424e-08
2.18709e-10
1.42871e-09
1.42857e-09
3.80426e-08
2.18713e-10
1.42886e-09
1.42957e-09
3.80423e-08
2.18805e-10
1.42898e-09
1.42922e-09
3.80427e-08
2.19102e-10
1.42899e-09
1.42924e-09
3.80427e-08
2.18914e-10
1.42879e-09
1.42916e-09
3.80426e-08
2.18359e-10
1.42911e-09
1.42937e-09
3.80425e-08
2.18733e-10
1.42921e-09
1.42946e-09
3.80425e-08
2.18049e-10
1.42877e-09
1.42907e-09
3.80427e-08
2.16484e-10
1.42832e-09
1.42889e-09
3.80423e-08
2.10897e-10
1.42736e-09
1.43087e-09
3.80428e-08
2.08883e-10
1.42825e-09
1.41313e-09
3.8045e-08
2.13557e-10
1.43007e-09
1.42354e-09
3.80416e-08
2.17404e-10
1.42953e-09
1.42973e-09
3.8042e-08
2.18664e-10
1.42901e-09
1.42984e-09
3.80423e-08
2.18685e-10
1.42853e-09
1.42866e-09
3.80417e-08
2.18825e-10
1.42861e-09
1.42824e-09
3.80417e-08
2.18857e-10
1.42892e-09
1.42861e-09
3.80416e-08
2.1875e-10
1.42878e-09
1.42837e-09
3.80414e-08
2.18703e-10
1.42896e-09
1.42862e-09
3.80415e-08
2.18645e-10
1.42903e-09
1.4292e-09
3.80414e-08
2.18794e-10
1.42857e-09
1.42877e-09
3.80415e-08
2.19012e-10
1.42902e-09
1.42923e-09
3.80415e-08
2.18467e-10
1.42886e-09
1.42906e-09
3.80415e-08
2.18464e-10
1.42885e-09
1.42904e-09
3.80415e-08
2.19072e-10
1.42878e-09
1.429e-09
3.80416e-08
2.1911e-10
1.42904e-09
1.42924e-09
3.80415e-08
2.18876e-10
1.42903e-09
1.42963e-09
3.80416e-08
2.19356e-10
1.42901e-09
1.42902e-09
3.80415e-08
2.18859e-10
1.42879e-09
1.42887e-09
3.80415e-08
2.18595e-10
1.42868e-09
1.42852e-09
3.80415e-08
2.19585e-10
1.42895e-09
1.42929e-09
3.80415e-08
2.24478e-10
1.42959e-09
1.42962e-09
3.80419e-08
3.10344e-10
1.47319e-09
1.47807e-09
3.80426e-08
2.16817e-09
2.58772e-09
2.63599e-09
3.80994e-08
3.45599e-08
3.40408e-08
3.41707e-08
3.90311e-08
2.20788e-07
1.15189e-07
1.15245e-07
1.40134e-07
1.57835e-07
2.5193e-07
2.5196e-07
1.57765e-07
2.5194e-07
2.52015e-07
5.43084e-07
5.43087e-07
5.43077e-07
5.43089e-07
2.51861e-07
2.51941e-07
1.57719e-07
2.51902e-07
2.51918e-07
1.57697e-07
1.7698e-07
1.02973e-07
4.31665e-07
4.31753e-07
6.50187e-08
6.4903e-08
1.76923e-07
1.02756e-07
4.31924e-07
4.31797e-07
6.51065e-08
6.50327e-08
4.31785e-07
6.50975e-08
6.50242e-08
1.76964e-07
1.0306e-07
4.3188e-07
6.51623e-08
6.51605e-08
1.02966e-07
3.91593e-08
9.90537e-08
2.938e-08
2.93969e-08
3.71155e-09
3.76468e-09
3.90652e-08
9.91269e-08
2.94243e-08
2.94283e-08
3.70565e-09
3.75478e-09
2.94475e-08
3.66853e-09
3.72651e-09
3.92225e-08
9.91194e-08
2.95855e-08
3.7266e-09
3.72848e-09
9.91083e-08
3.79573e-08
9.8984e-08
2.44684e-09
2.45514e-09
1.55689e-09
1.55763e-09
3.7963e-08
9.89784e-08
2.47165e-09
2.46607e-09
1.54389e-09
1.56194e-09
2.49712e-09
1.54463e-09
1.56184e-09
3.79852e-08
9.89884e-08
2.49931e-09
1.5281e-09
1.53683e-09
9.89696e-08
3.80187e-08
9.89751e-08
1.5032e-09
1.51193e-09
1.45188e-09
1.43338e-09
3.80156e-08
9.89644e-08
1.48412e-09
1.50801e-09
1.43389e-09
1.45552e-09
1.50495e-09
1.4243e-09
1.44856e-09
3.80279e-08
9.89767e-08
1.48704e-09
1.42609e-09
1.42699e-09
9.89561e-08
3.80225e-08
9.89727e-08
1.44896e-09
1.42168e-09
1.44885e-09
1.4251e-09
3.80221e-08
9.89607e-08
1.42501e-09
1.45131e-09
1.43008e-09
1.44965e-09
1.44588e-09
1.41704e-09
1.44403e-09
3.80309e-08
9.89764e-08
1.42476e-09
1.41923e-09
1.41987e-09
9.89562e-08
3.80234e-08
9.89713e-08
1.44731e-09
1.44302e-09
1.434e-09
1.47384e-09
3.80262e-08
9.89666e-08
1.41941e-09
1.44907e-09
1.42624e-09
1.44954e-09
1.44387e-09
1.43849e-09
1.44204e-09
3.80308e-08
9.89771e-08
1.42175e-09
1.41804e-09
1.41973e-09
9.89566e-08
3.80266e-08
9.89726e-08
1.40098e-09
1.46444e-09
1.46647e-09
1.45473e-09
3.80206e-08
9.89701e-08
1.41425e-09
1.44893e-09
1.43877e-09
1.44891e-09
1.44134e-09
1.42916e-09
1.44084e-09
3.80315e-08
9.89789e-08
1.42139e-09
1.41802e-09
1.42059e-09
9.89581e-08
3.80267e-08
9.89768e-08
1.44371e-09
1.45515e-09
1.44973e-09
1.45531e-09
3.80192e-08
9.89688e-08
1.4283e-09
1.44837e-09
1.43649e-09
1.45048e-09
1.44088e-09
1.42939e-09
1.44198e-09
3.80315e-08
9.89778e-08
1.42325e-09
1.41655e-09
1.42189e-09
9.8957e-08
3.80209e-08
9.89718e-08
1.4485e-09
1.45509e-09
1.43667e-09
1.44673e-09
3.80199e-08
9.89735e-08
1.42408e-09
1.45016e-09
1.4252e-09
1.4501e-09
1.44166e-09
1.42688e-09
1.44066e-09
3.80323e-08
9.89789e-08
1.42196e-09
1.41787e-09
1.42086e-09
9.89585e-08
3.80209e-08
9.89627e-08
1.42713e-09
1.43355e-09
1.46626e-09
1.43112e-09
3.8016e-08
9.89757e-08
1.41834e-09
1.45021e-09
1.43906e-09
1.45124e-09
1.44081e-09
1.42392e-09
1.4417e-09
3.80319e-08
9.89795e-08
1.42294e-09
1.41848e-09
1.42187e-09
9.89583e-08
3.80289e-08
9.89718e-08
1.48724e-09
1.44204e-09
1.44963e-09
1.4376e-09
3.80188e-08
9.89716e-08
1.44036e-09
1.44986e-09
1.43235e-09
1.44885e-09
1.44141e-09
1.4258e-09
1.44019e-09
3.80321e-08
9.89797e-08
1.42354e-09
1.41812e-09
1.42055e-09
9.89589e-08
3.80219e-08
9.89725e-08
1.44699e-09
1.42893e-09
1.44497e-09
1.4357e-09
3.8019e-08
9.89796e-08
1.42855e-09
1.44806e-09
1.42911e-09
1.44896e-09
1.44005e-09
1.43111e-09
1.44157e-09
3.80329e-08
9.89802e-08
1.42237e-09
1.41931e-09
1.422e-09
9.89598e-08
3.80212e-08
9.8977e-08
1.44564e-09
1.43201e-09
1.44274e-09
1.45686e-09
3.80185e-08
9.89803e-08
1.42756e-09
1.44885e-09
1.42383e-09
1.44953e-09
1.4421e-09
1.43478e-09
1.4422e-09
3.80326e-08
9.89787e-08
1.42442e-09
1.4199e-09
1.42207e-09
9.89585e-08
3.8011e-08
9.89669e-08
1.44217e-09
1.45929e-09
1.46759e-09
1.44388e-09
3.80217e-08
9.89746e-08
1.41675e-09
1.44878e-09
1.41367e-09
1.44892e-09
1.44212e-09
1.42255e-09
1.44322e-09
3.80328e-08
9.89805e-08
1.42349e-09
1.41948e-09
1.42094e-09
9.89597e-08
3.80258e-08
9.89679e-08
1.44312e-09
1.42638e-09
1.45032e-09
1.4937e-09
3.80244e-08
9.89694e-08
1.42586e-09
1.44868e-09
1.42983e-09
1.44863e-09
1.44366e-09
1.44149e-09
1.44219e-09
3.80327e-08
9.89804e-08
1.42254e-09
1.41889e-09
1.41954e-09
9.89604e-08
3.80253e-08
9.89676e-08
1.4479e-09
1.4801e-09
1.45236e-09
1.45443e-09
3.80347e-08
9.89555e-08
1.42812e-09
1.44802e-09
1.42887e-09
1.44877e-09
1.44145e-09
1.42629e-09
1.44201e-09
3.80329e-08
9.89813e-08
1.42134e-09
1.41893e-09
1.42067e-09
9.89605e-08
3.80269e-08
9.89647e-08
1.44366e-09
1.45464e-09
1.45456e-09
1.44709e-09
3.80339e-08
9.89814e-08
1.42841e-09
1.44915e-09
1.42888e-09
1.45031e-09
1.44256e-09
1.42624e-09
1.4432e-09
3.8033e-08
9.89814e-08
1.42327e-09
1.41892e-09
1.42101e-09
9.89609e-08
3.80254e-08
9.89775e-08
1.43637e-09
1.43814e-09
1.39419e-09
1.41459e-09
3.80355e-08
9.89849e-08
1.42392e-09
1.45022e-09
1.41243e-09
1.4526e-09
1.44344e-09
1.4091e-09
1.44495e-09
3.80333e-08
9.89825e-08
1.42235e-09
1.41791e-09
1.41993e-09
9.89621e-08
3.80237e-08
9.89588e-08
1.3957e-09
1.42578e-09
1.48097e-09
1.54729e-09
3.80554e-08
9.90119e-08
1.41667e-09
1.4517e-09
1.44844e-09
1.44921e-09
1.44327e-09
1.47166e-09
1.4417e-09
3.80332e-08
9.89856e-08
1.42045e-09
1.41437e-09
1.42069e-09
9.89695e-08
3.80505e-08
9.89988e-08
1.43501e-09
1.48665e-09
1.43131e-09
1.49504e-09
3.8014e-08
9.89541e-08
1.44547e-09
1.44809e-09
1.38176e-09
1.45151e-09
1.44602e-09
1.41368e-09
1.4415e-09
3.8034e-08
9.89851e-08
1.42746e-09
1.41774e-09
1.42218e-09
9.89637e-08
3.80138e-08
9.89762e-08
1.45852e-09
1.46486e-09
1.45941e-09
1.452e-09
3.80379e-08
9.89773e-08
1.41371e-09
1.44987e-09
1.43627e-09
1.44907e-09
1.44122e-09
1.43286e-09
1.4408e-09
3.80347e-08
9.89848e-08
1.42406e-09
1.41909e-09
1.42164e-09
9.8964e-08
3.80353e-08
9.89762e-08
1.45517e-09
1.45696e-09
1.44673e-09
1.45348e-09
3.80267e-08
9.89779e-08
1.43212e-09
1.4488e-09
1.4307e-09
1.4489e-09
1.44131e-09
1.42976e-09
1.44116e-09
3.8035e-08
9.89856e-08
1.42409e-09
1.41967e-09
1.42194e-09
9.89648e-08
3.80347e-08
9.89766e-08
1.44968e-09
1.45615e-09
1.44689e-09
1.45406e-09
3.8027e-08
9.89769e-08
1.42696e-09
1.44771e-09
1.43134e-09
1.44947e-09
1.44065e-09
1.43049e-09
1.44094e-09
3.80352e-08
9.89846e-08
1.42298e-09
1.42048e-09
1.43167e-09
9.89639e-08
3.80346e-08
9.89783e-08
1.44983e-09
1.45668e-09
1.44557e-09
1.45332e-09
3.8027e-08
9.89778e-08
1.42788e-09
1.44813e-09
1.43005e-09
1.44874e-09
1.4406e-09
1.42993e-09
1.44124e-09
3.80352e-08
9.89855e-08
1.42954e-09
1.42009e-09
1.42494e-09
9.8964e-08
3.80344e-08
9.89777e-08
1.44931e-09
1.45654e-09
1.44636e-09
1.45374e-09
3.80268e-08
9.89777e-08
1.42741e-09
1.44802e-09
1.43081e-09
1.44925e-09
1.44132e-09
1.43025e-09
1.44138e-09
3.8035e-08
9.89854e-08
1.42734e-09
1.42004e-09
1.42396e-09
9.89647e-08
3.80344e-08
9.8977e-08
1.44928e-09
1.45639e-09
1.44673e-09
1.45382e-09
3.80269e-08
9.89773e-08
1.42736e-09
1.44791e-09
1.43119e-09
1.44929e-09
1.44127e-09
1.43021e-09
1.44132e-09
3.80351e-08
9.8985e-08
1.42599e-09
1.4201e-09
1.42425e-09
9.89646e-08
3.80343e-08
9.89781e-08
1.45002e-09
1.45694e-09
1.44562e-09
1.45301e-09
3.80268e-08
9.89784e-08
1.4281e-09
1.44844e-09
1.43008e-09
1.44848e-09
1.44142e-09
1.42951e-09
1.4407e-09
3.8035e-08
9.89861e-08
1.42624e-09
1.41942e-09
1.42364e-09
9.89656e-08
3.80342e-08
9.89771e-08
1.44923e-09
1.45624e-09
1.44661e-09
1.45384e-09
3.80267e-08
9.89775e-08
1.42731e-09
1.44775e-09
1.43105e-09
1.44931e-09
1.44074e-09
1.43032e-09
1.44157e-09
3.80349e-08
9.89852e-08
1.42555e-09
1.42023e-09
1.4245e-09
9.89648e-08
3.80342e-08
9.89774e-08
1.4499e-09
1.45672e-09
1.4464e-09
1.45379e-09
3.80267e-08
9.89774e-08
1.42796e-09
1.44822e-09
1.43083e-09
1.4492e-09
1.44136e-09
1.43018e-09
1.44132e-09
3.80349e-08
9.89851e-08
1.42618e-09
1.42012e-09
1.42424e-09
9.89645e-08
3.80344e-08
9.8978e-08
1.44955e-09
1.45677e-09
1.44643e-09
1.45136e-09
3.80268e-08
9.89781e-08
1.42759e-09
1.44806e-09
1.43062e-09
1.44901e-09
1.44127e-09
1.42988e-09
1.44103e-09
3.8035e-08
9.89857e-08
1.42607e-09
1.41992e-09
1.42395e-09
9.8965e-08
3.80343e-08
9.89772e-08
1.44928e-09
1.43748e-09
1.44653e-09
1.46295e-09
3.80274e-08
9.89787e-08
1.42737e-09
1.44797e-09
1.43085e-09
1.44918e-09
1.44144e-09
1.43208e-09
1.44102e-09
3.8035e-08
9.89852e-08
1.42629e-09
1.41999e-09
1.42386e-09
9.89648e-08
3.80343e-08
9.89773e-08
1.44964e-09
1.44914e-09
1.44657e-09
1.45604e-09
3.80277e-08
9.89808e-08
1.42759e-09
1.448e-09
1.43101e-09
1.44936e-09
1.44081e-09
1.43069e-09
1.44164e-09
3.8035e-08
9.89852e-08
1.42567e-09
1.42027e-09
1.4245e-09
9.89643e-08
3.80343e-08
9.89772e-08
1.44995e-09
1.45921e-09
1.44616e-09
1.45549e-09
3.80237e-08
9.8981e-08
1.42801e-09
1.44853e-09
1.43061e-09
1.44868e-09
1.44152e-09
1.43008e-09
1.44055e-09
3.8035e-08
9.89853e-08
1.42639e-09
1.42015e-09
1.42402e-09
9.8965e-08
3.80344e-08
9.89776e-08
1.44939e-09
1.45848e-09
1.44614e-09
1.45555e-09
3.80238e-08
9.89812e-08
1.42746e-09
1.44765e-09
1.43058e-09
1.44937e-09
1.44051e-09
1.43026e-09
1.44191e-09
3.80351e-08
9.89858e-08
1.42689e-09
1.41633e-09
1.42073e-09
9.89648e-08
3.80344e-08
9.89775e-08
1.44963e-09
1.45879e-09
1.44644e-09
1.45599e-09
3.80237e-08
9.89807e-08
1.4277e-09
1.44822e-09
1.43089e-09
1.44941e-09
1.44133e-09
1.43067e-09
1.44182e-09
3.80352e-08
9.89853e-08
1.42722e-09
1.41866e-09
1.42295e-09
9.89643e-08
3.80344e-08
9.89774e-08
1.44974e-09
1.45893e-09
1.44627e-09
1.45578e-09
3.80237e-08
9.89808e-08
1.42781e-09
1.44818e-09
1.43073e-09
1.4492e-09
1.44141e-09
1.43027e-09
1.44118e-09
3.80352e-08
9.89854e-08
1.42798e-09
1.41826e-09
1.42234e-09
9.89647e-08
3.80344e-08
9.89777e-08
1.44959e-09
1.45872e-09
1.44595e-09
1.4556e-09
3.80239e-08
9.8981e-08
1.42767e-09
1.44795e-09
1.43038e-09
1.44902e-09
1.4409e-09
1.43028e-09
1.44124e-09
3.80353e-08
9.89855e-08
1.42747e-09
1.41828e-09
1.4224e-09
9.8965e-08
3.80342e-08
9.89777e-08
1.44966e-09
1.4586e-09
1.4464e-09
1.45541e-09
3.80237e-08
9.8981e-08
1.42772e-09
1.44784e-09
1.43076e-09
1.44868e-09
1.44073e-09
1.43063e-09
1.44148e-09
3.80351e-08
9.89856e-08
1.4273e-09
1.41919e-09
1.42284e-09
9.89648e-08
3.80343e-08
9.89783e-08
1.45e-09
1.45786e-09
1.45748e-09
1.44778e-09
3.80239e-08
9.89808e-08
1.42779e-09
1.44713e-09
1.43015e-09
1.44915e-09
1.44042e-09
1.43226e-09
1.42815e-09
3.80352e-08
9.89869e-08
1.42757e-09
1.41639e-09
1.40998e-09
9.89661e-08
3.8033e-08
9.89878e-08
1.46287e-09
1.45604e-09
1.39145e-09
1.46335e-09
3.80229e-08
9.89994e-08
1.42235e-09
1.44768e-09
1.40442e-09
1.45242e-09
1.42819e-09
1.41469e-09
1.45908e-09
3.80346e-08
9.89878e-08
1.38271e-09
1.41896e-09
1.42915e-09
9.89672e-08
3.80273e-08
9.89799e-08
1.45129e-09
1.43335e-09
1.44442e-09
1.42023e-09
3.80313e-08
9.90083e-08
1.39459e-09
1.45163e-09
1.43758e-09
1.44951e-09
1.44807e-09
1.41415e-09
1.44374e-09
3.80343e-08
9.89882e-08
1.43641e-09
1.41948e-09
1.42174e-09
9.89663e-08
3.80274e-08
9.89777e-08
1.45105e-09
1.46873e-09
1.44208e-09
1.46614e-09
3.80512e-08
9.89947e-08
1.42252e-09
1.44814e-09
1.4336e-09
1.44946e-09
1.44287e-09
1.43551e-09
1.44227e-09
3.80344e-08
9.8988e-08
1.42577e-09
1.41965e-09
1.42149e-09
9.89655e-08
3.80273e-08
9.89774e-08
1.45059e-09
1.45988e-09
1.4407e-09
1.45456e-09
3.8033e-08
9.89961e-08
1.42211e-09
1.44815e-09
1.43388e-09
1.44907e-09
1.44182e-09
1.42912e-09
1.44166e-09
3.80345e-08
9.89882e-08
1.42664e-09
1.41932e-09
1.42208e-09
9.89653e-08
3.80275e-08
9.89771e-08
1.44913e-09
1.45416e-09
1.44072e-09
1.45417e-09
3.8032e-08
9.8996e-08
1.4223e-09
1.44788e-09
1.43358e-09
1.44924e-09
1.44133e-09
1.42907e-09
1.44146e-09
3.80347e-08
9.89879e-08
1.4271e-09
1.41791e-09
1.42219e-09
9.89656e-08
3.80277e-08
9.89771e-08
1.44887e-09
1.45403e-09
1.44019e-09
1.45383e-09
3.80319e-08
9.89964e-08
1.42357e-09
1.44796e-09
1.4344e-09
1.4491e-09
1.44101e-09
1.42869e-09
1.44077e-09
3.80348e-08
9.89886e-08
1.42694e-09
1.42025e-09
1.42393e-09
9.89664e-08
3.80275e-08
9.89772e-08
1.44889e-09
1.45401e-09
1.44004e-09
1.45374e-09
3.80317e-08
9.89964e-08
1.42279e-09
1.44819e-09
1.43557e-09
1.44963e-09
1.4406e-09
1.42861e-09
1.44167e-09
3.80347e-08
9.89886e-08
1.42879e-09
1.41844e-09
1.41998e-09
9.89662e-08
3.80273e-08
9.89769e-08
1.44895e-09
1.45398e-09
1.44055e-09
1.45389e-09
3.80317e-08
9.89962e-08
1.42353e-09
1.44867e-09
1.43477e-09
1.44939e-09
1.44132e-09
1.42878e-09
1.4413e-09
3.80347e-08
9.89884e-08
1.42813e-09
1.4176e-09
1.42183e-09
9.89661e-08
3.80277e-08
9.89769e-08
1.44898e-09
1.45376e-09
1.44055e-09
1.45405e-09
3.80319e-08
9.8996e-08
1.4229e-09
1.44805e-09
1.43467e-09
1.44945e-09
1.44075e-09
1.42908e-09
1.44163e-09
3.8035e-08
9.89882e-08
1.42743e-09
1.41798e-09
1.42253e-09
9.89659e-08
3.80276e-08
9.89774e-08
1.44906e-09
1.45395e-09
1.44022e-09
1.45366e-09
3.80318e-08
9.89965e-08
1.42296e-09
1.4482e-09
1.43432e-09
1.44903e-09
1.44106e-09
1.42873e-09
1.44127e-09
3.80349e-08
9.89887e-08
1.42779e-09
1.41763e-09
1.42221e-09
9.89661e-08
3.80277e-08
9.89771e-08
1.44856e-09
1.45361e-09
1.44056e-09
1.45407e-09
3.80319e-08
9.89962e-08
1.42246e-09
1.44782e-09
1.43473e-09
1.44936e-09
1.44109e-09
1.42895e-09
1.44126e-09
3.8035e-08
9.89883e-08
1.42792e-09
1.41871e-09
1.42435e-09
9.89655e-08
3.80277e-08
9.89767e-08
1.44865e-09
1.4535e-09
1.4406e-09
1.45425e-09
3.8032e-08
9.89959e-08
1.42263e-09
1.44766e-09
1.43492e-09
1.44967e-09
1.44056e-09
1.42921e-09
1.44158e-09
3.80351e-08
9.8988e-08
1.43209e-09
1.41888e-09
1.42282e-09
9.8966e-08
3.80276e-08
9.89767e-08
1.4491e-09
1.45412e-09
1.44019e-09
1.45417e-09
3.80319e-08
9.89965e-08
1.42328e-09
1.44839e-09
1.43515e-09
1.4493e-09
1.44097e-09
1.42929e-09
1.44058e-09
3.8035e-08
9.89881e-08
1.4266e-09
1.41919e-09
1.42331e-09
9.89665e-08
3.80276e-08
9.89761e-08
1.44845e-09
1.45413e-09
1.43798e-09
1.45891e-09
3.80317e-08
9.89983e-08
1.42349e-09
1.44802e-09
1.43299e-09
1.44903e-09
1.44039e-09
1.43292e-09
1.43914e-09
3.8035e-08
9.89877e-08
1.42795e-09
1.4192e-09
1.42414e-09
9.89654e-08
3.8028e-08
9.89745e-08
1.44594e-09
1.46804e-09
1.43565e-09
1.4306e-09
3.80306e-08
9.90106e-08
1.42933e-09
1.44825e-09
1.43112e-09
1.44941e-09
1.43893e-09
1.42294e-09
1.43954e-09
3.80353e-08
9.89868e-08
1.42797e-09
1.41978e-09
1.42464e-09
9.89639e-08
3.80281e-08
9.89747e-08
1.44544e-09
1.41175e-09
1.43923e-09
1.44823e-09
3.80211e-08
9.89955e-08
1.42864e-09
1.44831e-09
1.43176e-09
1.45021e-09
1.43999e-09
1.42671e-09
1.43974e-09
3.80354e-08
9.89861e-08
1.42859e-09
1.4189e-09
1.42248e-09
9.89647e-08
3.80274e-08
9.89752e-08
1.44789e-09
1.45082e-09
1.44006e-09
1.45422e-09
3.80306e-08
9.89951e-08
1.42839e-09
1.44902e-09
1.43059e-09
1.44921e-09
1.43617e-09
1.42943e-09
1.44609e-09
3.80348e-08
9.89859e-08
1.41864e-09
1.42035e-09
1.4266e-09
9.89689e-08
3.8027e-08
9.89753e-08
1.4487e-09
1.45421e-09
1.44015e-09
1.45438e-09
3.80311e-08
9.89951e-08
1.42768e-09
1.4481e-09
1.43024e-09
1.44888e-09
1.44606e-09
1.42935e-09
1.44612e-09
3.80344e-08
9.8986e-08
1.4262e-09
1.4199e-09
1.4264e-09
9.89687e-08
3.80272e-08
9.89747e-08
1.44872e-09
1.45439e-09
1.44038e-09
1.45456e-09
3.80313e-08
9.89949e-08
1.42741e-09
1.44802e-09
1.43038e-09
1.44896e-09
1.44678e-09
1.42927e-09
1.44584e-09
3.80344e-08
9.89857e-08
1.42681e-09
1.41978e-09
1.42612e-09
9.89688e-08
3.80271e-08
9.89752e-08
1.44913e-09
1.45477e-09
1.44023e-09
1.45423e-09
3.80312e-08
9.89952e-08
1.42776e-09
1.44831e-09
1.43021e-09
1.44869e-09
1.44663e-09
1.42909e-09
1.44561e-09
3.80342e-08
9.89861e-08
1.42674e-09
1.41954e-09
1.42611e-09
9.89694e-08
3.80272e-08
9.89753e-08
1.44864e-09
1.45401e-09
1.43993e-09
1.45408e-09
3.80313e-08
9.89952e-08
1.42725e-09
1.44766e-09
1.42989e-09
1.44854e-09
1.44576e-09
1.42903e-09
1.44571e-09
3.80344e-08
9.89861e-08
1.42592e-09
1.4192e-09
1.42528e-09
9.8969e-08
3.80272e-08
9.89752e-08
1.4484e-09
1.45408e-09
1.44042e-09
1.45462e-09
3.80312e-08
9.8995e-08
1.427e-09
1.44767e-09
1.4304e-09
1.44906e-09
1.44615e-09
1.42961e-09
1.44632e-09
3.80343e-08
9.89859e-08
1.42752e-09
1.41999e-09
1.42648e-09
9.89689e-08
3.80272e-08
9.89748e-08
1.44884e-09
1.45427e-09
1.44008e-09
1.45432e-09
3.80314e-08
9.89947e-08
1.42745e-09
1.44784e-09
1.43006e-09
1.44872e-09
1.4458e-09
1.42915e-09
1.44606e-09
3.80344e-08
9.89855e-08
1.42579e-09
1.41959e-09
1.42633e-09
9.89685e-08
3.8027e-08
9.8975e-08
1.44889e-09
1.45458e-09
1.44033e-09
1.45446e-09
3.80312e-08
9.89952e-08
1.42751e-09
1.44813e-09
1.43034e-09
1.44883e-09
1.44599e-09
1.4293e-09
1.44598e-09
3.80342e-08
9.89861e-08
1.42597e-09
1.41971e-09
1.42575e-09
9.89692e-08
3.80273e-08
9.89744e-08
1.4487e-09
1.4541e-09
1.44021e-09
1.45428e-09
3.80315e-08
9.89948e-08
1.42734e-09
1.44762e-09
1.43073e-09
1.44875e-09
1.44573e-09
1.42928e-09
1.4462e-09
3.80345e-08
9.89857e-08
1.42646e-09
1.41974e-09
1.42683e-09
9.89685e-08
3.8027e-08
9.89758e-08
1.44852e-09
1.45435e-09
1.43998e-09
1.45424e-09
3.80313e-08
9.89947e-08
1.4275e-09
1.44796e-09
1.4301e-09
1.44862e-09
1.44629e-09
1.42927e-09
1.44603e-09
3.80343e-08
9.89856e-08
1.42662e-09
1.4197e-09
1.42661e-09
9.89684e-08
3.80271e-08
9.89757e-08
1.44849e-09
1.45426e-09
1.44034e-09
1.45437e-09
3.80313e-08
9.89943e-08
1.42693e-09
1.44794e-09
1.43036e-09
1.4489e-09
1.44675e-09
1.42947e-09
1.44649e-09
3.80344e-08
9.89852e-08
1.42708e-09
1.41994e-09
1.42704e-09
9.89677e-08
3.80273e-08
9.8976e-08
1.44849e-09
1.45401e-09
1.44028e-09
1.45385e-09
3.80316e-08
9.8995e-08
1.42677e-09
1.44789e-09
1.42981e-09
1.44889e-09
1.44657e-09
1.42849e-09
1.44621e-09
3.80346e-08
9.89863e-08
1.42681e-09
1.41886e-09
1.42653e-09
9.89689e-08
3.80273e-08
9.89745e-08
1.44873e-09
1.45399e-09
1.44142e-09
1.45343e-09
3.80314e-08
9.89942e-08
1.42631e-09
1.44868e-09
1.42947e-09
1.45186e-09
1.44773e-09
1.4276e-09
1.44715e-09
3.80342e-08
9.89863e-08
1.42776e-09
1.41999e-09
1.42597e-09
9.89694e-08
3.80275e-08
9.89733e-08
1.44993e-09
1.45324e-09
1.44064e-09
1.45375e-09
3.80314e-08
9.89929e-08
1.42586e-09
1.45187e-09
1.42918e-09
1.45167e-09
1.44794e-09
1.42827e-09
1.44935e-09
3.80345e-08
9.89805e-08
1.42545e-09
1.39706e-09
1.41768e-09
9.89649e-08
3.80276e-08
9.89727e-08
1.44968e-09
1.45398e-09
1.44203e-09
1.45531e-09
3.80314e-08
9.89918e-08
1.42671e-09
1.44973e-09
1.43105e-09
1.45004e-09
1.44833e-09
1.43077e-09
1.4478e-09
3.80368e-08
9.89815e-08
1.41731e-09
1.41179e-09
1.41826e-09
9.89642e-08
3.80272e-08
9.89727e-08
1.45049e-09
1.45478e-09
1.44135e-09
1.45468e-09
3.80311e-08
9.89919e-08
1.42752e-09
1.44901e-09
1.43068e-09
1.44915e-09
1.44735e-09
1.42962e-09
1.44631e-09
3.80335e-08
9.89829e-08
1.4221e-09
1.41665e-09
1.4154e-09
9.89663e-08
3.80262e-08
9.89732e-08
1.44956e-09
1.45465e-09
1.44015e-09
1.45437e-09
3.80303e-08
9.89919e-08
1.42745e-09
1.44821e-09
1.4301e-09
1.44865e-09
1.44639e-09
1.42937e-09
1.44565e-09
3.8033e-08
9.89829e-08
1.43198e-09
1.41954e-09
1.42277e-09
9.8966e-08
3.8026e-08
9.89728e-08
1.44884e-09
1.45432e-09
1.4403e-09
1.45413e-09
3.80303e-08
9.89921e-08
1.42718e-09
1.44786e-09
1.43042e-09
1.44849e-09
1.44613e-09
1.42901e-09
1.44579e-09
3.80332e-08
9.8983e-08
1.43814e-09
1.42014e-09
1.42611e-09
9.89654e-08
3.80261e-08
9.89727e-08
1.44833e-09
1.45396e-09
1.44046e-09
1.45462e-09
3.80303e-08
9.89919e-08
1.42678e-09
1.44759e-09
1.43063e-09
1.44896e-09
1.44579e-09
1.42928e-09
1.44611e-09
3.80333e-08
9.89828e-08
1.42621e-09
1.42018e-09
1.42668e-09
9.89652e-08
3.80259e-08
9.89733e-08
1.44869e-09
1.45427e-09
1.44017e-09
1.45416e-09
3.80303e-08
9.89924e-08
1.42718e-09
1.44791e-09
1.43036e-09
1.44848e-09
1.44584e-09
1.429e-09
1.44581e-09
3.80333e-08
9.89833e-08
1.42573e-09
1.42004e-09
1.42658e-09
9.89658e-08
3.80259e-08
9.89728e-08
1.44861e-09
1.45421e-09
1.44028e-09
1.45426e-09
3.80302e-08
9.89919e-08
1.4271e-09
1.44784e-09
1.43045e-09
1.44858e-09
1.44619e-09
1.42896e-09
1.44582e-09
3.80332e-08
9.89828e-08
1.42622e-09
1.4201e-09
1.42657e-09
9.89651e-08
3.80259e-08
9.89734e-08
1.44861e-09
1.45406e-09
1.44011e-09
1.45427e-09
3.80301e-08
9.89922e-08
1.42709e-09
1.4477e-09
1.43029e-09
1.44856e-09
1.44602e-09
1.42927e-09
1.44591e-09
3.80331e-08
9.8983e-08
1.42557e-09
1.42128e-09
1.42699e-09
9.89652e-08
3.80258e-08
9.89734e-08
1.44856e-09
1.45424e-09
1.44022e-09
1.45413e-09
3.80301e-08
9.89925e-08
1.42706e-09
1.44793e-09
1.43039e-09
1.4485e-09
1.44621e-09
1.429e-09
1.44578e-09
3.80332e-08
9.89834e-08
1.42631e-09
1.41941e-09
1.42622e-09
9.89656e-08
3.80259e-08
9.89738e-08
1.44852e-09
1.45424e-09
1.43989e-09
1.45426e-09
3.803e-08
9.89925e-08
1.42701e-09
1.44785e-09
1.43008e-09
1.44862e-09
1.44624e-09
1.42902e-09
1.44579e-09
3.80331e-08
9.89833e-08
1.42646e-09
1.41949e-09
1.42625e-09
9.89659e-08
3.80258e-08
9.8973e-08
1.44827e-09
1.454e-09
1.44015e-09
1.45432e-09
3.80301e-08
9.89921e-08
1.42678e-09
1.44764e-09
1.43033e-09
1.44865e-09
1.4457e-09
1.42906e-09
1.44572e-09
3.80331e-08
9.8983e-08
1.42591e-09
1.41953e-09
1.42618e-09
9.89655e-08
3.80258e-08
9.89733e-08
1.44851e-09
1.45442e-09
1.44052e-09
1.45437e-09
3.80301e-08
9.89925e-08
1.427e-09
1.44803e-09
1.4307e-09
1.44873e-09
1.44625e-09
1.42922e-09
1.44609e-09
3.80331e-08
9.89834e-08
1.42646e-09
1.4197e-09
1.42654e-09
9.89658e-08
3.80259e-08
9.8973e-08
1.44857e-09
1.45412e-09
1.43994e-09
1.45378e-09
3.80301e-08
9.89922e-08
1.42708e-09
1.44775e-09
1.43043e-09
1.44817e-09
1.44599e-09
1.42907e-09
1.44565e-09
3.80332e-08
9.89831e-08
1.42619e-09
1.41951e-09
1.42609e-09
9.89652e-08
3.80259e-08
9.89736e-08
1.44852e-09
1.45387e-09
1.4401e-09
1.45425e-09
3.80301e-08
9.89924e-08
1.42692e-09
1.44758e-09
1.4346e-09
1.44859e-09
1.44614e-09
1.42927e-09
1.44641e-09
3.80332e-08
9.89833e-08
1.42635e-09
1.41975e-09
1.42691e-09
9.89653e-08
3.80258e-08
9.89736e-08
1.44851e-09
1.45412e-09
1.44017e-09
1.45417e-09
3.80301e-08
9.89922e-08
1.42258e-09
1.44772e-09
1.43486e-09
1.44856e-09
1.44618e-09
1.42914e-09
1.44565e-09
3.80332e-08
9.89831e-08
1.42643e-09
1.41961e-09
1.4261e-09
9.89653e-08
3.80257e-08
9.89732e-08
1.44867e-09
1.45445e-09
1.44064e-09
1.45462e-09
3.803e-08
9.8992e-08
1.42281e-09
1.44806e-09
1.43531e-09
1.44945e-09
1.44597e-09
1.42936e-09
1.44629e-09
3.80331e-08
9.89823e-08
1.42615e-09
1.41988e-09
1.42673e-09
9.89653e-08
3.80258e-08
9.89732e-08
1.44899e-09
1.45457e-09
1.44051e-09
1.4543e-09
3.80301e-08
9.89925e-08
1.42312e-09
1.45025e-09
1.43517e-09
1.453e-09
1.44648e-09
1.42916e-09
1.4456e-09
3.80327e-08
9.90096e-08
1.42666e-09
1.41978e-09
1.42609e-09
9.89662e-08
3.80258e-08
9.89727e-08
1.44891e-09
1.45428e-09
1.44035e-09
1.45458e-09
3.80302e-08
9.89915e-08
1.42308e-09
1.44347e-09
1.43498e-09
1.45328e-09
1.44614e-09
1.42936e-09
1.44582e-09
3.80273e-08
9.90087e-08
1.42639e-09
1.42e-09
1.42633e-09
9.89648e-08
3.80259e-08
9.89739e-08
1.44841e-09
1.45417e-09
1.44028e-09
1.45384e-09
3.80302e-08
9.89924e-08
1.42257e-09
1.44334e-09
1.43487e-09
1.45264e-09
1.44603e-09
1.4292e-09
1.44585e-09
3.80274e-08
9.90097e-08
1.42629e-09
1.41979e-09
1.42642e-09
9.89656e-08
3.80261e-08
9.8974e-08
1.44827e-09
1.45383e-09
1.44028e-09
1.45444e-09
3.80301e-08
9.89925e-08
1.4224e-09
1.4431e-09
1.4348e-09
1.45533e-09
1.44606e-09
1.42939e-09
1.44635e-09
3.80272e-08
9.90077e-08
1.42617e-09
1.42023e-09
1.42667e-09
9.89654e-08
3.80257e-08
9.8974e-08
1.44872e-09
1.45421e-09
1.44084e-09
1.45451e-09
3.80301e-08
9.89927e-08
1.42268e-09
1.44498e-09
1.43504e-09
1.44874e-09
1.4466e-09
1.4292e-09
1.44727e-09
3.80318e-08
9.89923e-08
1.42672e-09
1.41965e-09
1.42801e-09
9.89657e-08
3.80253e-08
9.89726e-08
1.45011e-09
1.45494e-09
1.45711e-09
1.47047e-09
3.80298e-08
9.89903e-08
1.42376e-09
1.44804e-09
1.44957e-09
1.4718e-09
1.45151e-09
1.44703e-09
1.46153e-09
3.8033e-08
9.89802e-08
1.4323e-09
1.44014e-09
1.44222e-09
9.896e-08
3.80268e-08
9.89313e-08
1.48993e-09
1.4816e-09
1.9684e-09
1.96293e-09
3.80307e-08
9.89275e-08
1.43869e-09
1.49284e-09
1.99745e-09
2.00385e-09
1.48003e-09
1.93388e-09
1.91337e-09
3.80337e-08
9.89207e-08
1.45699e-09
1.9688e-09
1.91721e-09
9.88735e-08
3.81244e-08
9.75152e-08
2.60709e-09
2.64336e-09
1.56315e-08
1.55537e-08
3.8118e-08
9.75294e-08
2.64102e-09
2.59624e-09
1.56929e-08
1.5672e-08
2.59174e-09
1.55539e-08
1.56259e-08
3.81186e-08
9.75452e-08
2.61488e-09
1.56477e-08
1.55799e-08
9.74948e-08
3.89811e-08
1.4197e-07
3.3893e-08
3.38779e-08
1.89708e-07
1.89841e-07
3.9045e-08
1.41959e-07
3.41153e-08
3.40339e-08
1.90209e-07
1.90014e-07
3.40283e-08
1.90079e-07
1.89939e-07
3.90106e-08
1.41991e-07
3.41461e-08
1.90124e-07
1.90259e-07
1.41958e-07
1.40137e-07
1.15156e-07
1.15129e-07
1.40087e-07
1.152e-07
1.15181e-07
2.2078e-07
2.20885e-07
2.20901e-07
1.15187e-07
1.40142e-07
1.15232e-07
8.88474e-08
2.27078e-07
1.57553e-07
1.57621e-07
3.33981e-07
2.7671e-07
1.4826e-07
1.93452e-07
3.33894e-07
2.76737e-07
1.93444e-07
1.4821e-07
3.25704e-07
1.76467e-07
1.76462e-07
6.23369e-07
0.000117917
6.22366e-07
0.000121892
0.000248187
0.000255917
6.2369e-07
0.000117935
6.21444e-07
0.000121912
3.63442e-07
3.63328e-07
3.63424e-07
4.92729e-08
4.92122e-08
4.92428e-08
4.93024e-08
1.04032e-07
5.56227e-07
3.73499e-07
2.26404e-07
1.07106e-07
8.67582e-07
2.07444e-07
0.000248179
0.000255902
1.04157e-07
3.73428e-07
5.55954e-07
2.26168e-07
1.07065e-07
2.07346e-07
8.6748e-07
1.87356e-06
1.87334e-06
1.02925e-07
1.84212e-06
1.84284e-06
6.25152e-07
0.000121852
6.22963e-07
0.000121853
0.000255878
0.000255875
6.25245e-07
0.000121871
6.23065e-07
0.000121872
2.30049e-08
2.30002e-08
2.30264e-08
2.78346e-09
2.78183e-09