/*--------------------------------*- C++ -*----------------------------------*\
| =========                 |                                                 |
| \\      /  F ield         | OpenFOAM: The Open Source CFD Toolbox           |
|  \\    /   O peration     | Version:  v1906                                 |
|   \\  /    A nd           | Web:      www.OpenFOAM.com                      |
|    \\/     M anipulation  |                                                 |
\*---------------------------------------------------------------------------*/
FoamFile
{
    version     2.0;
    format      ascii;
    class       volScalarField;
    location    "550";
    object      k;
}
// * * * * * * * * * * * * * * * * * * * * * * * * * * * * * * * * * * * * * //

dimensions      [0 2 -2 0 0 0 0];


internalField   nonuniform List<scalar> 
42616
(
3.58933e-05
3.58914e-05
3.58914e-05
3.59957e-05
3.39293e-05
3.38875e-05
3.38877e-05
3.39599e-05
3.21569e-05
3.20045e-05
3.20045e-05
3.19452e-05
3.05331e-05
3.02238e-05
3.02237e-05
2.9978e-05
2.90305e-05
2.85457e-05
2.85464e-05
2.81102e-05
2.76322e-05
2.69753e-05
2.6978e-05
2.63774e-05
2.63269e-05
2.55176e-05
2.55207e-05
2.47947e-05
2.51066e-05
2.41718e-05
2.41739e-05
2.33654e-05
2.39657e-05
2.29379e-05
2.29388e-05
2.20913e-05
2.28999e-05
2.18141e-05
2.18142e-05
2.09717e-05
2.19055e-05
2.07979e-05
2.07977e-05
1.99977e-05
2.09793e-05
1.98866e-05
1.98863e-05
1.91641e-05
2.01164e-05
1.90784e-05
1.90778e-05
1.84696e-05
1.93154e-05
1.837e-05
1.83693e-05
1.79092e-05
1.85755e-05
1.77582e-05
1.77576e-05
1.74779e-05
1.7894e-05
1.72416e-05
1.72412e-05
1.71671e-05
1.72686e-05
1.68192e-05
1.6819e-05
1.69811e-05
1.66972e-05
1.64902e-05
1.64902e-05
1.69376e-05
1.61785e-05
1.62545e-05
1.62546e-05
1.70297e-05
1.57099e-05
1.61121e-05
1.61126e-05
1.72496e-05
1.52901e-05
1.60626e-05
1.60634e-05
1.75975e-05
3.63061e-05
3.62907e-05
3.62906e-05
3.63062e-05
3.62907e-05
3.62907e-05
3.6423e-05
3.6423e-05
3.6423e-05
3.6423e-05
3.62907e-05
3.62907e-05
3.63061e-05
3.62907e-05
3.62907e-05
3.63062e-05
3.59958e-05
3.4267e-05
3.58914e-05
3.58915e-05
3.43757e-05
3.43749e-05
3.59957e-05
3.42663e-05
3.58914e-05
3.58914e-05
3.43755e-05
3.43754e-05
3.58914e-05
3.43755e-05
3.43756e-05
3.59958e-05
3.4267e-05
3.58914e-05
3.43758e-05
3.43755e-05
3.42667e-05
3.39603e-05
3.22579e-05
3.38877e-05
3.38861e-05
3.24657e-05
3.24621e-05
3.39594e-05
3.22564e-05
3.38875e-05
3.38873e-05
3.24653e-05
3.24649e-05
3.38876e-05
3.24654e-05
3.24653e-05
3.39601e-05
3.22567e-05
3.38874e-05
3.24655e-05
3.24652e-05
3.22571e-05
3.19461e-05
3.02904e-05
3.20047e-05
3.20014e-05
3.06594e-05
3.06577e-05
3.19447e-05
3.02898e-05
3.20044e-05
3.20039e-05
3.06593e-05
3.06587e-05
3.20042e-05
3.06596e-05
3.06588e-05
3.1945e-05
3.02895e-05
3.20042e-05
3.06594e-05
3.06588e-05
3.0289e-05
2.99794e-05
2.84144e-05
3.02236e-05
3.02221e-05
2.89557e-05
2.89533e-05
2.99783e-05
2.84105e-05
3.02236e-05
3.02229e-05
2.89558e-05
2.8955e-05
3.02229e-05
2.89554e-05
2.89547e-05
2.99785e-05
2.84135e-05
3.0223e-05
2.89556e-05
2.8955e-05
2.84129e-05
2.81117e-05
2.66616e-05
2.85465e-05
2.85435e-05
2.73599e-05
2.73552e-05
2.81068e-05
2.66548e-05
2.85466e-05
2.85457e-05
2.736e-05
2.7359e-05
2.85454e-05
2.73574e-05
2.73585e-05
2.81108e-05
2.66615e-05
2.85458e-05
2.73596e-05
2.73593e-05
2.66604e-05
2.63792e-05
2.50526e-05
2.69783e-05
2.69733e-05
2.5875e-05
2.58702e-05
2.63711e-05
2.50484e-05
2.69784e-05
2.69772e-05
2.58751e-05
2.58737e-05
2.69767e-05
2.58715e-05
2.58732e-05
2.63775e-05
2.50531e-05
2.69776e-05
2.58747e-05
2.58742e-05
2.50507e-05
2.47958e-05
2.35976e-05
2.55211e-05
2.55165e-05
2.45003e-05
2.44969e-05
2.47895e-05
2.35971e-05
2.55211e-05
2.55196e-05
2.45003e-05
2.44987e-05
2.55192e-05
2.44977e-05
2.44984e-05
2.47933e-05
2.35972e-05
2.55202e-05
2.45001e-05
2.44994e-05
2.35963e-05
2.33665e-05
2.22972e-05
2.4174e-05
2.41709e-05
2.32369e-05
2.32347e-05
2.33627e-05
2.22987e-05
2.41739e-05
2.41723e-05
2.32368e-05
2.32353e-05
2.41722e-05
2.32359e-05
2.32354e-05
2.33653e-05
2.22964e-05
2.41731e-05
2.32371e-05
2.32362e-05
2.2296e-05
2.20921e-05
2.11531e-05
2.29386e-05
2.29365e-05
2.20847e-05
2.20828e-05
2.20895e-05
2.11535e-05
2.29385e-05
2.29369e-05
2.20845e-05
2.20832e-05
2.2937e-05
2.20848e-05
2.20834e-05
2.20918e-05
2.11524e-05
2.29379e-05
2.20851e-05
2.20842e-05
2.11515e-05
2.0972e-05
2.01551e-05
2.18137e-05
2.18119e-05
2.10413e-05
2.10393e-05
2.0971e-05
2.01551e-05
2.18136e-05
2.18123e-05
2.10412e-05
2.10399e-05
2.18125e-05
2.1042e-05
2.10402e-05
2.09723e-05
2.01544e-05
2.18133e-05
2.10419e-05
2.10409e-05
2.01536e-05
1.99983e-05
1.92979e-05
2.07971e-05
2.07951e-05
2.01039e-05
2.01018e-05
1.99973e-05
1.92975e-05
2.07971e-05
2.07958e-05
2.01039e-05
2.01026e-05
2.0796e-05
2.01048e-05
2.01029e-05
1.99984e-05
1.9297e-05
2.07968e-05
2.01044e-05
2.01037e-05
1.92965e-05
1.91649e-05
1.8571e-05
1.98858e-05
1.98837e-05
1.92699e-05
1.92679e-05
1.91642e-05
1.85706e-05
1.98858e-05
1.98845e-05
1.92701e-05
1.92687e-05
1.98848e-05
1.92708e-05
1.9269e-05
1.91644e-05
1.85701e-05
1.98856e-05
1.92703e-05
1.92698e-05
1.857e-05
1.84707e-05
1.79747e-05
1.90775e-05
1.90755e-05
1.85369e-05
1.85351e-05
1.84702e-05
1.79742e-05
1.90777e-05
1.90763e-05
1.85372e-05
1.85358e-05
1.90766e-05
1.85377e-05
1.85361e-05
1.84696e-05
1.79734e-05
1.90775e-05
1.85371e-05
1.8537e-05
1.79735e-05
1.79104e-05
1.75123e-05
1.83692e-05
1.83674e-05
1.79014e-05
1.78998e-05
1.79098e-05
1.75115e-05
1.83695e-05
1.83681e-05
1.79019e-05
1.79004e-05
1.83684e-05
1.79021e-05
1.79006e-05
1.7909e-05
1.75108e-05
1.83693e-05
1.79014e-05
1.79015e-05
1.7511e-05
1.74791e-05
1.71872e-05
1.77577e-05
1.7756e-05
1.73611e-05
1.73597e-05
1.74783e-05
1.71852e-05
1.77581e-05
1.77566e-05
1.73618e-05
1.73602e-05
1.77568e-05
1.73616e-05
1.73603e-05
1.74777e-05
1.71843e-05
1.77578e-05
1.73611e-05
1.73613e-05
1.71853e-05
1.7168e-05
1.69901e-05
1.72413e-05
1.72399e-05
1.69153e-05
1.69141e-05
1.71683e-05
1.69863e-05
1.72418e-05
1.72403e-05
1.6916e-05
1.69145e-05
1.72404e-05
1.69155e-05
1.69145e-05
1.7168e-05
1.6986e-05
1.72414e-05
1.69153e-05
1.69155e-05
1.69886e-05
1.69831e-05
1.6931e-05
1.68193e-05
1.6818e-05
1.6563e-05
1.65619e-05
1.69859e-05
1.69287e-05
1.68197e-05
1.68183e-05
1.65637e-05
1.65622e-05
1.68183e-05
1.65629e-05
1.6562e-05
1.69854e-05
1.69284e-05
1.68192e-05
1.65628e-05
1.6563e-05
1.69295e-05
1.69393e-05
1.69984e-05
1.64906e-05
1.64894e-05
1.63039e-05
1.6303e-05
1.69375e-05
1.69945e-05
1.64909e-05
1.64896e-05
1.63046e-05
1.63032e-05
1.64894e-05
1.63036e-05
1.63028e-05
1.69372e-05
1.69943e-05
1.64904e-05
1.63036e-05
1.63039e-05
1.69965e-05
1.70317e-05
1.7196e-05
1.62551e-05
1.62541e-05
1.61381e-05
1.61373e-05
1.70311e-05
1.71855e-05
1.62554e-05
1.62543e-05
1.61387e-05
1.61375e-05
1.62539e-05
1.61375e-05
1.61369e-05
1.70313e-05
1.71863e-05
1.62548e-05
1.61378e-05
1.61379e-05
1.71937e-05
1.72517e-05
1.75277e-05
1.6113e-05
1.61121e-05
1.60653e-05
1.60647e-05
1.72562e-05
1.75138e-05
1.61133e-05
1.61123e-05
1.60658e-05
1.60649e-05
1.61117e-05
1.60645e-05
1.60641e-05
1.72575e-05
1.75129e-05
1.61126e-05
1.6065e-05
1.6065e-05
1.75256e-05
1.76002e-05
1.60636e-05
1.60631e-05
1.7608e-05
1.6064e-05
1.60633e-05
1.60625e-05
1.76086e-05
1.60633e-05
3.73774e-05
3.73766e-05
3.7377e-05
3.7377e-05
3.73703e-05
3.73777e-05
3.7305e-05
3.73768e-05
3.73703e-05
3.73777e-05
3.73769e-05
3.73046e-05
3.73741e-05
3.72969e-05
3.72966e-05
3.58677e-05
4.07559e-05
3.66084e-05
4.50517e-05
5.54961e-05
6.50464e-05
3.58609e-05
4.07525e-05
3.66054e-05
4.50451e-05
3.58932e-05
3.58933e-05
3.58933e-05
3.44001e-05
3.44001e-05
3.44001e-05
3.44002e-05
3.52705e-05
3.56133e-05
3.58931e-05
3.53766e-05
3.60491e-05
3.41872e-05
3.53821e-05
5.55241e-05
6.50506e-05
3.5272e-05
3.58931e-05
3.56136e-05
3.53767e-05
3.6049e-05
3.53822e-05
3.41906e-05
3.6592e-05
3.65933e-05
3.52785e-05
3.40172e-05
3.40179e-05
3.39462e-05
5.12824e-05
3.46762e-05
5.45965e-05
7.66213e-05
8.09218e-05
3.39315e-05
5.12777e-05
3.46578e-05
5.45931e-05
3.39292e-05
3.39293e-05
3.39293e-05
3.25848e-05
3.25844e-05
3.25847e-05
3.25848e-05
3.30409e-05
3.24421e-05
3.3929e-05
3.34067e-05
3.38886e-05
3.15372e-05
3.34671e-05
7.66354e-05
8.09371e-05
3.30453e-05
3.39292e-05
3.24386e-05
3.34069e-05
3.38913e-05
3.34673e-05
3.1532e-05
3.16512e-05
3.16532e-05
3.32596e-05
3.08348e-05
3.08426e-05
3.22305e-05
5.91483e-05
3.29142e-05
6.14474e-05
8.44008e-05
8.50738e-05
3.22276e-05
5.91449e-05
3.29058e-05
6.14447e-05
3.21566e-05
3.21569e-05
3.21569e-05
3.09268e-05
3.09266e-05
3.09267e-05
3.09267e-05
3.07726e-05
3.04906e-05
3.21361e-05
3.155e-05
3.16245e-05
2.98651e-05
3.17084e-05
8.4407e-05
8.50751e-05
3.07782e-05
3.21365e-05
3.04841e-05
3.15499e-05
3.16299e-05
3.17088e-05
2.98612e-05
3.01605e-05
3.01665e-05
3.12646e-05
2.99476e-05
2.99495e-05
3.07399e-05
6.4344e-05
3.13326e-05
6.57405e-05
8.45989e-05
8.3916e-05
3.07343e-05
6.4342e-05
3.13343e-05
6.57413e-05
3.05329e-05
3.0533e-05
3.05329e-05
2.93959e-05
2.93956e-05
2.93958e-05
2.93956e-05
2.85822e-05
2.91226e-05
3.04668e-05
2.97945e-05
2.94005e-05
2.86461e-05
3.00658e-05
8.45957e-05
8.3914e-05
2.85854e-05
3.04673e-05
2.91192e-05
2.97944e-05
2.94041e-05
3.00662e-05
2.86558e-05
2.99179e-05
2.9918e-05
2.93369e-05
3.00227e-05
3.00229e-05
2.95055e-05
6.73116e-05
2.99873e-05
6.80406e-05
8.21915e-05
8.12251e-05
2.94974e-05
6.73121e-05
2.99837e-05
6.80433e-05
2.90302e-05
2.90304e-05
2.90303e-05
2.79727e-05
2.79717e-05
2.79725e-05
2.79724e-05
2.6547e-05
2.80877e-05
2.88988e-05
2.81427e-05
2.7306e-05
2.77318e-05
2.85214e-05
8.21881e-05
8.12257e-05
2.65493e-05
2.88991e-05
2.8099e-05
2.81439e-05
2.73077e-05
2.85217e-05
2.77592e-05
3.04639e-05
3.0464e-05
2.75201e-05
3.07862e-05
3.07861e-05
2.85898e-05
6.87329e-05
2.89324e-05
6.90314e-05
7.94211e-05
7.8546e-05
2.85816e-05
6.87351e-05
2.89323e-05
6.90335e-05
2.7631e-05
2.7632e-05
2.76318e-05
2.6645e-05
2.66433e-05
2.66446e-05
2.66445e-05
2.47221e-05
2.73625e-05
2.74232e-05
2.66002e-05
2.54046e-05
2.71392e-05
2.70684e-05
7.94152e-05
7.8542e-05
2.4724e-05
2.74238e-05
2.73872e-05
2.66032e-05
2.5406e-05
2.7069e-05
2.71635e-05
3.16284e-05
3.16273e-05
2.58368e-05
3.21282e-05
3.2123e-05
2.80443e-05
6.92394e-05
2.8224e-05
6.93003e-05
7.70014e-05
7.63041e-05
2.80344e-05
6.92403e-05
2.82278e-05
6.93012e-05
2.63252e-05
2.63265e-05
2.63264e-05
2.5404e-05
2.54024e-05
2.54037e-05
2.54034e-05
2.31442e-05
2.69655e-05
2.60377e-05
2.51706e-05
2.37404e-05
2.68861e-05
2.57053e-05
7.69919e-05
7.62967e-05
2.31446e-05
2.60386e-05
2.69817e-05
2.51736e-05
2.37403e-05
2.57061e-05
2.68941e-05
3.32811e-05
3.32764e-05
2.43044e-05
3.39121e-05
3.39075e-05
2.78996e-05
6.92813e-05
2.7911e-05
6.92566e-05
7.50765e-05
7.45447e-05
2.78933e-05
6.92818e-05
2.79087e-05
6.92568e-05
2.51052e-05
2.51062e-05
2.5106e-05
2.42437e-05
2.42427e-05
2.42433e-05
2.42431e-05
2.18307e-05
2.69123e-05
2.47416e-05
2.38528e-05
2.23335e-05
2.69568e-05
2.44314e-05
7.50701e-05
7.45404e-05
2.18296e-05
2.47423e-05
2.69161e-05
2.38546e-05
2.23322e-05
2.44319e-05
2.69598e-05
3.52902e-05
3.52871e-05
2.29259e-05
3.60137e-05
3.60114e-05
2.81559e-05
6.91754e-05
2.8021e-05
6.91478e-05
7.36146e-05
7.32184e-05
2.81441e-05
6.91751e-05
2.80213e-05
6.91476e-05
2.39648e-05
2.39653e-05
2.39651e-05
2.31594e-05
2.3159e-05
2.31591e-05
2.31589e-05
2.07908e-05
2.71931e-05
2.35335e-05
2.26467e-05
2.11916e-05
2.73381e-05
2.32448e-05
7.36126e-05
7.32204e-05
2.07885e-05
2.35338e-05
2.71806e-05
2.26474e-05
2.11896e-05
2.32448e-05
2.7348e-05
3.75395e-05
3.75399e-05
2.17048e-05
3.83182e-05
3.83203e-05
2.88292e-05
6.90957e-05
2.85512e-05
6.90876e-05
7.25356e-05
7.22484e-05
2.881e-05
6.90944e-05
2.85527e-05
6.90885e-05
2.28995e-05
2.28995e-05
2.28993e-05
2.21475e-05
2.21473e-05
2.21472e-05
2.2147e-05
2.0021e-05
2.77769e-05
2.24095e-05
2.15501e-05
2.03113e-05
2.80256e-05
2.21415e-05
7.25355e-05
7.22545e-05
2.00188e-05
2.24093e-05
2.77644e-05
2.15501e-05
2.03088e-05
2.21411e-05
2.80378e-05
3.9923e-05
3.99239e-05
2.06346e-05
4.07255e-05
4.0733e-05
2.99056e-05
6.9087e-05
2.94975e-05
6.91036e-05
7.17615e-05
7.15556e-05
2.98948e-05
6.90886e-05
2.94971e-05
6.91069e-05
2.19053e-05
2.19052e-05
2.1905e-05
2.12045e-05
2.12043e-05
2.12042e-05
2.12041e-05
1.95132e-05
2.86488e-05
2.13689e-05
2.05604e-05
1.96935e-05
2.8987e-05
2.11218e-05
7.17584e-05
7.15628e-05
1.95088e-05
2.13684e-05
2.86363e-05
2.05601e-05
1.96943e-05
2.11212e-05
2.89913e-05
4.23463e-05
4.23504e-05
1.97079e-05
4.3144e-05
4.31521e-05
3.13913e-05
6.91418e-05
3.08506e-05
6.91775e-05
7.12149e-05
7.10706e-05
3.13835e-05
6.91413e-05
3.08509e-05
6.91853e-05
2.09791e-05
2.09791e-05
2.0979e-05
2.03264e-05
2.03262e-05
2.03262e-05
2.03261e-05
1.92637e-05
2.97775e-05
2.04112e-05
1.96749e-05
1.93429e-05
3.0185e-05
2.01845e-05
7.12094e-05
7.10766e-05
1.92628e-05
2.04107e-05
2.97606e-05
1.96745e-05
1.934e-05
2.01838e-05
3.01892e-05
4.4723e-05
4.47279e-05
1.8917e-05
4.54894e-05
4.54972e-05
3.32531e-05
6.92402e-05
3.25852e-05
6.92852e-05
7.08334e-05
7.07324e-05
3.32442e-05
6.92419e-05
3.25901e-05
6.92943e-05
2.01162e-05
2.01161e-05
2.01161e-05
1.95098e-05
1.95095e-05
1.95095e-05
1.95095e-05
1.92773e-05
3.11151e-05
1.95337e-05
1.8892e-05
1.92526e-05
3.15803e-05
1.93265e-05
7.08258e-05
7.07373e-05
1.9277e-05
1.95332e-05
3.10977e-05
1.88913e-05
1.92518e-05
1.93259e-05
3.15875e-05
4.69803e-05
4.69871e-05
1.82554e-05
4.76937e-05
4.77026e-05
3.54349e-05
6.93544e-05
3.46682e-05
6.94002e-05
7.05651e-05
7.04934e-05
3.54271e-05
6.93575e-05
3.46742e-05
6.94094e-05
1.93152e-05
1.93152e-05
1.93151e-05
1.87548e-05
1.87545e-05
1.87545e-05
1.87545e-05
1.95437e-05
3.26171e-05
1.87333e-05
1.8208e-05
1.94342e-05
3.31297e-05
1.85449e-05
7.05561e-05
7.04981e-05
1.95456e-05
1.87328e-05
3.26042e-05
1.82073e-05
1.94332e-05
1.85444e-05
3.31443e-05
4.90677e-05
4.90768e-05
1.77253e-05
4.97164e-05
4.97275e-05
3.78632e-05
6.94663e-05
3.70276e-05
6.95088e-05
7.03703e-05
7.03176e-05
3.78593e-05
6.94699e-05
3.70327e-05
6.95178e-05
1.85752e-05
1.85752e-05
1.85752e-05
1.80589e-05
1.80585e-05
1.80585e-05
1.80585e-05
2.0065e-05
3.42345e-05
1.80075e-05
1.762e-05
1.98695e-05
3.47819e-05
1.78374e-05
7.03616e-05
7.03211e-05
2.00662e-05
1.80071e-05
3.42291e-05
1.76194e-05
1.98705e-05
1.78371e-05
3.47894e-05
5.09548e-05
5.09642e-05
1.73316e-05
5.15326e-05
5.15455e-05
4.04316e-05
6.9569e-05
3.95674e-05
6.96072e-05
7.02199e-05
7.01798e-05
4.04458e-05
6.95726e-05
3.95656e-05
6.96161e-05
1.78937e-05
1.78936e-05
1.78937e-05
1.74197e-05
1.74193e-05
1.74192e-05
1.74193e-05
2.08307e-05
3.59208e-05
1.73538e-05
1.71268e-05
2.05563e-05
3.64745e-05
1.72015e-05
7.02154e-05
7.01805e-05
2.08335e-05
1.73537e-05
3.59189e-05
1.71265e-05
2.05587e-05
1.72014e-05
3.64865e-05
5.26315e-05
5.26413e-05
1.70716e-05
5.31411e-05
5.31532e-05
4.30528e-05
6.96619e-05
4.21678e-05
6.96972e-05
7.0096e-05
7.00634e-05
4.30715e-05
6.96656e-05
4.21549e-05
6.97057e-05
1.72683e-05
1.72682e-05
1.72682e-05
1.68349e-05
1.68345e-05
1.68345e-05
1.68345e-05
2.18343e-05
3.76226e-05
1.67717e-05
1.67276e-05
2.14844e-05
3.81734e-05
1.66369e-05
7.00948e-05
7.00636e-05
2.18376e-05
1.67718e-05
3.76151e-05
1.67274e-05
2.14866e-05
1.66371e-05
3.81869e-05
5.41037e-05
5.4113e-05
1.69422e-05
5.45476e-05
5.45585e-05
4.55936e-05
6.97476e-05
4.47203e-05
6.97804e-05
6.99883e-05
6.99598e-05
4.56109e-05
6.97514e-05
4.47117e-05
6.97888e-05
1.66968e-05
1.66968e-05
1.66968e-05
1.63031e-05
1.63027e-05
1.63026e-05
1.63026e-05
2.30544e-05
3.92979e-05
1.62587e-05
1.64216e-05
2.26343e-05
3.98318e-05
1.6141e-05
6.99879e-05
6.99599e-05
2.30565e-05
1.6259e-05
3.92931e-05
1.64215e-05
2.26366e-05
1.61413e-05
3.98464e-05
5.53858e-05
5.53945e-05
1.69459e-05
5.57719e-05
5.57818e-05
4.79572e-05
6.98278e-05
4.71371e-05
6.98587e-05
6.98905e-05
6.98648e-05
4.79722e-05
6.98319e-05
4.71315e-05
6.98672e-05
1.61781e-05
1.6178e-05
1.6178e-05
1.58223e-05
1.58219e-05
1.58218e-05
1.58218e-05
2.44574e-05
4.09132e-05
1.58136e-05
1.62089e-05
2.39789e-05
4.14231e-05
1.57127e-05
6.98903e-05
6.98647e-05
2.4459e-05
1.5814e-05
4.09111e-05
1.6209e-05
2.39814e-05
1.57131e-05
4.14354e-05
5.64992e-05
5.65074e-05
1.70783e-05
5.68342e-05
5.6844e-05
5.00799e-05
6.99034e-05
4.93405e-05
6.99323e-05
6.98001e-05
6.97763e-05
5.00927e-05
6.99077e-05
4.93363e-05
6.9941e-05
1.57095e-05
1.57095e-05
1.57094e-05
1.53904e-05
1.539e-05
1.539e-05
1.53899e-05
2.60021e-05
4.24469e-05
1.54359e-05
1.60894e-05
2.54842e-05
4.29245e-05
1.53517e-05
6.97997e-05
6.97761e-05
2.60063e-05
1.54363e-05
4.24458e-05
1.60898e-05
2.54853e-05
1.53521e-05
4.2935e-05
5.74674e-05
5.74767e-05
1.73464e-05
5.77592e-05
5.77694e-05
5.19313e-05
6.99741e-05
5.12844e-05
7.00008e-05
6.97153e-05
6.96933e-05
6.99784e-05
5.12814e-05
7.00099e-05
1.52896e-05
1.52897e-05
1.52896e-05
2.76508e-05
4.38766e-05
1.51253e-05
1.60649e-05
2.70979e-05
4.43265e-05
1.50576e-05
6.9715e-05
2.76553e-05
1.51258e-05
4.38784e-05
2.70997e-05
1.50582e-05
5.83121e-05
5.83224e-05
1.77415e-05
5.85687e-05
5.85787e-05
3.73741e-05
3.72969e-05
3.72966e-05
5.2912e-05
3.71928e-05
5.28939e-05
3.7193e-05
3.70929e-05
3.72421e-05
3.72516e-05
3.71752e-05
3.71751e-05
3.73702e-05
3.73777e-05
3.73051e-05
3.73768e-05
3.73703e-05
3.73777e-05
3.73041e-05
3.73769e-05
3.71722e-05
3.93571e-05
3.71556e-05
3.67208e-05
3.71721e-05
3.93943e-05
3.71609e-05
3.67186e-05
3.70957e-05
3.71021e-05
3.5998e-05
3.64209e-05
3.71648e-05
3.71108e-05
3.6305e-05
3.70957e-05
3.71021e-05
3.60222e-05
3.64209e-05
3.71658e-05
3.71108e-05
3.63048e-05
3.73742e-05
3.72963e-05
3.72966e-05
5.29248e-05
3.71928e-05
3.70928e-05
3.72535e-05
3.72329e-05
3.71761e-05
3.71762e-05
5.29278e-05
3.71928e-05
3.73703e-05
3.73777e-05
3.73049e-05
3.73769e-05
3.73703e-05
3.73777e-05
3.73768e-05
3.73049e-05
3.71722e-05
3.93215e-05
3.71569e-05
3.67189e-05
3.70957e-05
3.71021e-05
3.60012e-05
3.64209e-05
3.71648e-05
3.71108e-05
3.63047e-05
3.71721e-05
3.93278e-05
3.71573e-05
3.67198e-05
3.70957e-05
3.71021e-05
3.64209e-05
3.60021e-05
3.71108e-05
3.71649e-05
3.6305e-05
3.73774e-05
3.73766e-05
3.7377e-05
3.7377e-05
3.73774e-05
3.73766e-05
3.7377e-05
3.7377e-05
3.73773e-05
3.73766e-05
3.7377e-05
3.7377e-05
3.71133e-05
3.71098e-05
3.64241e-05
3.64241e-05
3.71125e-05
3.71125e-05
3.64261e-05
3.71133e-05
3.71098e-05
3.64241e-05
3.64241e-05
3.71125e-05
3.71125e-05
3.64261e-05
3.71133e-05
3.71098e-05
3.64241e-05
3.64241e-05
3.71125e-05
3.71125e-05
3.64261e-05
3.71133e-05
3.71098e-05
3.64241e-05
3.64241e-05
3.71125e-05
3.71125e-05
3.64261e-05
3.73703e-05
3.73777e-05
3.73768e-05
3.7305e-05
3.70957e-05
3.71021e-05
3.59959e-05
3.64209e-05
3.71647e-05
3.71108e-05
3.63051e-05
3.71723e-05
3.93529e-05
3.71552e-05
3.67204e-05
3.70957e-05
3.71021e-05
3.64209e-05
3.59976e-05
3.71108e-05
3.71648e-05
3.6305e-05
3.71721e-05
3.93368e-05
3.71558e-05
3.67203e-05
3.73742e-05
3.72966e-05
3.72965e-05
5.29225e-05
3.71926e-05
3.70928e-05
3.72563e-05
3.72404e-05
3.71753e-05
3.71755e-05
5.28948e-05
3.7193e-05
3.73703e-05
3.73777e-05
3.73769e-05
3.73048e-05
3.70956e-05
3.71021e-05
3.64209e-05
3.60005e-05
3.71108e-05
3.71653e-05
3.6305e-05
3.70957e-05
3.71021e-05
3.64209e-05
3.59988e-05
3.71108e-05
3.71649e-05
3.63051e-05
3.71723e-05
3.93362e-05
3.7157e-05
3.67194e-05
3.71722e-05
3.9356e-05
3.71556e-05
3.67199e-05
3.70929e-05
3.72373e-05
3.72337e-05
3.71751e-05
3.7176e-05
5.29147e-05
3.7193e-05
5.29315e-05
3.71928e-05
5.54608e-05
6.50591e-05
5.54987e-05
6.50677e-05
3.66084e-05
3.66071e-05
3.52786e-05
3.40318e-05
3.40217e-05
7.48545e-05
6.77931e-05
7.48602e-05
6.78005e-05
3.49724e-05
3.19659e-05
3.19398e-05
3.34456e-05
3.34293e-05
3.58602e-05
4.08052e-05
3.66058e-05
4.50813e-05
3.52724e-05
3.56111e-05
3.58931e-05
3.53767e-05
3.60492e-05
3.41844e-05
3.53821e-05
3.52707e-05
3.56229e-05
3.58931e-05
3.5377e-05
3.60487e-05
3.4183e-05
3.53821e-05
3.56337e-05
5.01509e-05
4.63463e-05
3.48829e-05
3.56256e-05
5.0186e-05
4.63703e-05
3.48746e-05
3.49975e-05
3.48717e-05
3.26847e-05
3.44015e-05
3.38251e-05
3.48855e-05
3.41746e-05
3.49955e-05
3.48717e-05
3.25728e-05
3.44014e-05
3.38145e-05
3.48855e-05
3.41718e-05
3.66127e-05
3.6606e-05
3.52785e-05
3.40384e-05
3.40284e-05
5.54784e-05
6.5073e-05
7.48408e-05
6.78062e-05
3.49722e-05
3.193e-05
3.19665e-05
3.34491e-05
3.34419e-05
7.48597e-05
6.78034e-05
3.52708e-05
3.56096e-05
3.58931e-05
3.53766e-05
3.60487e-05
3.4182e-05
3.53821e-05
3.58576e-05
4.07618e-05
3.66065e-05
4.50438e-05
3.52697e-05
3.58931e-05
3.56111e-05
3.53766e-05
3.60487e-05
3.53821e-05
3.41798e-05
3.56244e-05
5.01454e-05
4.63422e-05
3.48684e-05
3.49947e-05
3.48716e-05
3.26787e-05
3.44014e-05
3.38203e-05
3.48854e-05
3.41694e-05
3.56204e-05
5.01479e-05
4.63375e-05
3.48675e-05
3.49937e-05
3.48715e-05
3.44013e-05
3.26777e-05
3.48854e-05
3.3819e-05
3.41688e-05
3.58591e-05
4.0762e-05
3.66082e-05
4.50504e-05
3.52724e-05
3.58931e-05
3.56096e-05
3.53767e-05
3.6049e-05
3.53822e-05
3.4179e-05
3.58677e-05
4.07571e-05
3.6609e-05
4.50481e-05
3.49951e-05
3.48716e-05
3.26877e-05
3.44014e-05
3.3828e-05
3.48854e-05
3.41706e-05
3.5624e-05
5.01515e-05
4.63395e-05
3.48705e-05
3.49974e-05
3.48716e-05
3.44015e-05
3.2677e-05
3.48855e-05
3.38165e-05
3.41742e-05
3.56327e-05
5.01541e-05
4.63444e-05
3.48818e-05
3.66186e-05
3.6609e-05
3.52787e-05
3.40239e-05
3.40368e-05
5.54833e-05
6.50693e-05
7.48575e-05
6.78091e-05
3.49726e-05
3.19577e-05
3.19359e-05
3.3442e-05
3.34533e-05
7.48623e-05
6.78042e-05
3.52709e-05
3.58931e-05
3.56101e-05
3.53766e-05
3.60493e-05
3.53821e-05
3.41789e-05
3.58658e-05
4.07652e-05
3.66076e-05
4.5052e-05
3.58613e-05
4.07632e-05
3.6609e-05
4.50518e-05
3.49967e-05
3.48718e-05
3.44015e-05
3.26883e-05
3.48855e-05
3.3831e-05
3.41735e-05
3.49954e-05
3.48715e-05
3.44014e-05
3.26756e-05
3.48854e-05
3.38157e-05
3.41715e-05
3.56291e-05
5.01536e-05
4.63433e-05
3.48797e-05
3.56242e-05
5.01543e-05
4.63446e-05
3.48731e-05
5.54673e-05
6.50605e-05
5.54878e-05
6.50663e-05
3.49721e-05
3.19571e-05
3.19543e-05
3.34262e-05
3.34271e-05
7.48597e-05
6.77962e-05
7.48598e-05
6.78013e-05
7.66364e-05
8.09386e-05
7.66418e-05
8.0942e-05
3.16642e-05
3.16385e-05
3.32601e-05
3.0844e-05
3.08271e-05
8.40427e-05
8.18968e-05
8.40439e-05
8.18989e-05
3.29505e-05
3.02404e-05
3.02318e-05
3.06923e-05
3.0672e-05
3.39404e-05
5.13209e-05
3.46668e-05
5.46405e-05
3.30461e-05
3.2438e-05
3.39292e-05
3.3407e-05
3.38929e-05
3.15315e-05
3.34674e-05
3.30433e-05
3.23296e-05
3.39289e-05
3.34043e-05
3.38896e-05
3.14243e-05
3.3467e-05
3.37722e-05
5.8363e-05
5.55572e-05
3.30613e-05
3.37676e-05
5.84071e-05
5.56003e-05
3.30606e-05
3.2764e-05
3.29331e-05
3.06145e-05
3.25718e-05
3.13586e-05
3.30152e-05
3.19083e-05
3.27617e-05
3.29297e-05
3.05557e-05
3.25712e-05
3.12494e-05
3.30147e-05
3.19076e-05
3.16256e-05
3.16625e-05
3.32588e-05
3.08097e-05
3.08527e-05
7.66379e-05
8.09374e-05
8.40308e-05
8.18813e-05
3.29489e-05
3.02252e-05
3.0254e-05
3.06494e-05
3.07016e-05
8.40411e-05
8.18941e-05
3.3039e-05
3.24314e-05
3.39289e-05
3.34067e-05
3.38865e-05
3.15265e-05
3.3467e-05
3.39308e-05
5.1278e-05
3.46578e-05
5.45933e-05
3.30386e-05
3.39289e-05
3.24307e-05
3.34064e-05
3.3886e-05
3.3467e-05
3.15235e-05
3.37555e-05
5.83596e-05
5.55539e-05
3.30528e-05
3.27571e-05
3.29327e-05
3.06105e-05
3.25713e-05
3.13512e-05
3.30148e-05
3.19037e-05
3.37558e-05
5.83581e-05
5.55509e-05
3.30538e-05
3.27569e-05
3.29324e-05
3.25712e-05
3.06071e-05
3.30147e-05
3.13504e-05
3.19035e-05
3.39331e-05
5.12808e-05
3.46623e-05
5.45968e-05
3.3045e-05
3.39292e-05
3.24284e-05
3.34068e-05
3.38924e-05
3.34674e-05
3.15231e-05
3.39439e-05
5.1286e-05
3.46746e-05
5.46003e-05
3.27586e-05
3.29328e-05
3.06219e-05
3.25714e-05
3.13644e-05
3.30149e-05
3.1903e-05
3.37582e-05
5.83635e-05
5.55545e-05
3.30494e-05
3.27629e-05
3.29328e-05
3.25717e-05
3.06052e-05
3.30152e-05
3.13477e-05
3.1907e-05
3.37695e-05
5.83677e-05
5.55604e-05
3.30596e-05
3.1654e-05
3.16241e-05
3.32594e-05
3.08248e-05
3.07939e-05
7.66451e-05
8.09418e-05
8.40406e-05
8.18938e-05
3.29497e-05
3.02208e-05
3.02056e-05
3.06744e-05
3.06384e-05
8.40434e-05
8.19007e-05
3.30432e-05
3.3929e-05
3.24272e-05
3.34066e-05
3.38889e-05
3.34672e-05
3.15235e-05
3.39447e-05
5.12848e-05
3.46706e-05
5.4599e-05
3.39392e-05
5.12848e-05
3.46635e-05
5.46e-05
3.27629e-05
3.29329e-05
3.25717e-05
3.06153e-05
3.30152e-05
3.13565e-05
3.19085e-05
3.27612e-05
3.29327e-05
3.25716e-05
3.06063e-05
3.3015e-05
3.13484e-05
3.19077e-05
3.37677e-05
5.83658e-05
5.55581e-05
3.30623e-05
3.37635e-05
5.83665e-05
5.55594e-05
3.30607e-05
7.66432e-05
8.09424e-05
7.66436e-05
8.09428e-05
3.29499e-05
3.02315e-05
3.02399e-05
3.06776e-05
3.06869e-05
8.40448e-05
8.19017e-05
8.40452e-05
8.19022e-05
8.44102e-05
8.50769e-05
8.44102e-05
8.50772e-05
3.01732e-05
3.01622e-05
3.12658e-05
2.99541e-05
2.99501e-05
8.48449e-05
8.50755e-05
8.48421e-05
8.50753e-05
3.09534e-05
2.99049e-05
2.99015e-05
2.99369e-05
2.99314e-05
3.22328e-05
5.91869e-05
3.2914e-05
6.1481e-05
3.07777e-05
3.04836e-05
3.21365e-05
3.15501e-05
3.163e-05
2.98566e-05
3.17088e-05
3.07783e-05
3.04302e-05
3.21359e-05
3.15472e-05
3.16292e-05
2.98423e-05
3.17083e-05
3.20999e-05
6.38848e-05
6.20629e-05
3.14566e-05
3.21015e-05
6.39137e-05
6.20943e-05
3.14596e-05
3.05059e-05
3.11017e-05
2.92105e-05
3.08745e-05
2.97481e-05
3.12883e-05
2.96666e-05
3.05067e-05
3.10994e-05
2.91953e-05
3.08743e-05
2.97279e-05
3.12879e-05
2.96679e-05
3.01575e-05
3.01898e-05
3.12649e-05
2.99497e-05
2.99761e-05
8.44071e-05
8.50761e-05
8.4846e-05
8.50728e-05
3.09523e-05
2.98931e-05
2.99096e-05
2.99309e-05
2.99519e-05
8.48434e-05
8.50748e-05
3.07754e-05
3.04788e-05
3.2136e-05
3.15498e-05
3.1625e-05
2.9856e-05
3.17084e-05
3.2228e-05
5.91419e-05
3.29046e-05
6.14453e-05
3.07753e-05
3.21359e-05
3.04768e-05
3.15492e-05
3.16248e-05
3.17083e-05
2.98519e-05
3.20967e-05
6.38838e-05
6.20587e-05
3.14538e-05
3.05038e-05
3.11015e-05
2.92132e-05
3.08742e-05
2.97449e-05
3.12879e-05
2.96656e-05
3.20968e-05
6.38853e-05
6.20577e-05
3.14542e-05
3.05037e-05
3.11009e-05
3.08742e-05
2.92068e-05
3.12878e-05
2.97439e-05
2.96655e-05
3.22209e-05
5.91464e-05
3.29025e-05
6.14496e-05
3.07764e-05
3.21364e-05
3.04731e-05
3.15495e-05
3.16286e-05
3.17087e-05
2.98493e-05
3.223e-05
5.91519e-05
3.29126e-05
6.14532e-05
3.0501e-05
3.11017e-05
2.92155e-05
3.08741e-05
2.97561e-05
3.12878e-05
2.96623e-05
3.20901e-05
6.38879e-05
6.20619e-05
3.1447e-05
3.05048e-05
3.11011e-05
3.08744e-05
2.92063e-05
3.12881e-05
2.97383e-05
2.96656e-05
3.20989e-05
6.38907e-05
6.20667e-05
3.14556e-05
3.01551e-05
3.01418e-05
3.12647e-05
2.99396e-05
2.99437e-05
8.44111e-05
8.50772e-05
8.48441e-05
8.50737e-05
3.09523e-05
2.98929e-05
2.99006e-05
2.9923e-05
2.99261e-05
8.48325e-05
8.50756e-05
3.07783e-05
3.21364e-05
3.04743e-05
3.15495e-05
3.1629e-05
3.17087e-05
2.98499e-05
3.22319e-05
5.91493e-05
3.29129e-05
6.14501e-05
3.22322e-05
5.91501e-05
3.29113e-05
6.14507e-05
3.0506e-05
3.11016e-05
3.08745e-05
2.9216e-05
3.12883e-05
2.97494e-05
2.96667e-05
3.05064e-05
3.11011e-05
3.08745e-05
2.9206e-05
3.12882e-05
2.97383e-05
2.96678e-05
3.21003e-05
6.38867e-05
6.20636e-05
3.14552e-05
3.21011e-05
6.3888e-05
6.20641e-05
3.14573e-05
8.44126e-05
8.50785e-05
8.44127e-05
8.50776e-05
3.09521e-05
2.98988e-05
2.98988e-05
2.99291e-05
2.99305e-05
8.48441e-05
8.50766e-05
8.48429e-05
8.50758e-05
8.45971e-05
8.39143e-05
8.45987e-05
8.39148e-05
2.99224e-05
2.99197e-05
2.93383e-05
3.00298e-05
3.00246e-05
8.26256e-05
8.35248e-05
8.26274e-05
8.3525e-05
2.90305e-05
3.03326e-05
3.0325e-05
3.01064e-05
3.01062e-05
3.07424e-05
6.43702e-05
3.13359e-05
6.57675e-05
2.85862e-05
2.91203e-05
3.04672e-05
2.97943e-05
2.94047e-05
2.86511e-05
3.00662e-05
2.85873e-05
2.90959e-05
3.04671e-05
2.97927e-05
2.94059e-05
2.86232e-05
3.00661e-05
3.06266e-05
6.7096e-05
6.60651e-05
3.00853e-05
3.06289e-05
6.71215e-05
6.60899e-05
3.009e-05
2.83366e-05
2.93717e-05
2.81693e-05
2.92824e-05
2.8577e-05
2.96713e-05
2.7546e-05
2.83374e-05
2.93698e-05
2.81356e-05
2.92822e-05
2.85357e-05
2.96712e-05
2.75463e-05
2.99091e-05
2.99213e-05
2.93364e-05
3.00035e-05
3.00051e-05
8.4599e-05
8.39142e-05
8.26257e-05
8.35274e-05
2.90282e-05
3.02973e-05
3.02645e-05
3.00851e-05
3.00676e-05
8.26236e-05
8.35238e-05
2.85847e-05
2.91163e-05
3.04671e-05
2.97944e-05
2.94034e-05
2.86561e-05
3.00661e-05
3.07339e-05
6.43413e-05
3.13332e-05
6.57418e-05
2.85844e-05
3.0467e-05
2.91168e-05
2.97936e-05
2.94034e-05
3.0066e-05
2.86481e-05
3.06265e-05
6.70982e-05
6.60643e-05
3.00796e-05
2.83343e-05
2.93718e-05
2.81716e-05
2.92822e-05
2.85713e-05
2.96712e-05
2.75429e-05
3.06255e-05
6.70971e-05
6.60637e-05
3.00769e-05
2.83339e-05
2.9371e-05
2.92821e-05
2.81649e-05
2.96711e-05
2.8574e-05
2.7542e-05
3.07296e-05
6.43434e-05
3.13277e-05
6.57426e-05
2.85849e-05
3.04671e-05
2.91077e-05
2.97935e-05
2.94037e-05
3.00661e-05
2.86499e-05
3.07375e-05
6.43468e-05
3.13336e-05
6.57437e-05
2.83325e-05
2.93717e-05
2.81496e-05
2.9282e-05
2.85695e-05
2.96709e-05
2.75415e-05
3.06231e-05
6.70973e-05
6.60646e-05
3.00764e-05
2.8335e-05
2.93708e-05
2.92822e-05
2.81671e-05
2.96711e-05
2.85613e-05
2.75431e-05
3.06265e-05
6.70972e-05
6.60664e-05
3.00836e-05
2.99113e-05
2.99207e-05
2.93375e-05
3.00208e-05
3.00282e-05
8.4606e-05
8.39149e-05
8.26263e-05
8.35223e-05
2.90296e-05
3.03241e-05
3.03279e-05
3.00976e-05
3.01097e-05
8.26247e-05
8.35272e-05
2.85872e-05
3.04672e-05
2.91098e-05
2.97937e-05
2.94054e-05
3.00662e-05
2.86489e-05
3.07359e-05
6.4343e-05
3.13352e-05
6.57397e-05
3.07412e-05
6.43448e-05
3.13371e-05
6.57431e-05
2.8335e-05
2.93717e-05
2.92822e-05
2.8173e-05
2.96713e-05
2.85728e-05
2.75439e-05
2.83368e-05
2.9371e-05
2.92824e-05
2.81675e-05
2.96713e-05
2.85663e-05
2.7546e-05
3.06274e-05
6.70938e-05
6.60628e-05
3.00805e-05
3.06284e-05
6.70985e-05
6.60659e-05
3.00889e-05
8.45991e-05
8.3915e-05
8.45978e-05
8.39141e-05
2.9029e-05
3.03236e-05
3.03249e-05
3.01058e-05
3.01064e-05
8.26253e-05
8.35267e-05
8.26252e-05
8.35261e-05
8.21908e-05
8.12254e-05
8.21901e-05
8.12264e-05
3.04612e-05
3.04621e-05
2.75216e-05
3.07938e-05
3.07862e-05
7.9842e-05
8.07854e-05
7.98424e-05
8.07838e-05
2.72272e-05
3.13987e-05
3.13915e-05
3.09726e-05
3.09743e-05
2.95082e-05
6.73355e-05
2.99875e-05
6.80649e-05
2.65522e-05
2.81085e-05
2.88993e-05
2.81441e-05
2.73104e-05
2.77594e-05
2.8522e-05
2.6552e-05
2.80601e-05
2.88989e-05
2.81405e-05
2.73106e-05
2.77329e-05
2.85215e-05
2.94184e-05
6.86599e-05
6.81723e-05
2.90051e-05
2.94211e-05
6.86806e-05
6.81942e-05
2.90044e-05
2.63331e-05
2.77486e-05
2.74321e-05
2.77845e-05
2.77132e-05