/*--------------------------------*- C++ -*----------------------------------*\
| =========                 |                                                 |
| \\      /  F ield         | OpenFOAM: The Open Source CFD Toolbox           |
|  \\    /   O peration     | Version:  v1906                                 |
|   \\  /    A nd           | Web:      www.OpenFOAM.com                      |
|    \\/     M anipulation  |                                                 |
\*---------------------------------------------------------------------------*/
FoamFile
{
    version     2.0;
    format      ascii;
    class       volScalarField;
    location    "550";
    object      nut;
}
// * * * * * * * * * * * * * * * * * * * * * * * * * * * * * * * * * * * * * //

dimensions      [0 2 -1 0 0 0 0];


internalField   nonuniform List<scalar> 
42616
(
0.000233972
0.000233083
0.00023309
0.000233399
0.000232523
0.000227706
0.000227724
0.000223713
0.000230494
0.000220187
0.000220196
0.000208926
0.000227763
0.000211524
0.000211522
0.000193649
0.000224385
0.000202513
0.000202506
0.000179613
0.000220494
0.000193642
0.000193636
0.000167291
0.000216241
0.000185154
0.000185152
0.000156598
0.000211755
0.000177123
0.000177125
0.000147263
0.00020714
0.000169591
0.000169593
0.000138984
0.000202479
0.000162529
0.000162526
0.000131685
0.000197825
0.000155877
0.000155868
0.000125024
0.000193213
0.000149579
0.000149567
0.000118922
0.000188623
0.000143594
0.000143582
0.000113162
0.000184091
0.00013787
0.000137859
0.000107923
0.000179646
0.000132367
0.000132359
0.000102995
0.000175277
0.000127077
0.000127071
9.83336e-05
0.000170972
0.000122018
0.000122011
9.40714e-05
0.000166718
0.000117222
0.000117214
9.03793e-05
0.000162515
0.000112714
0.000112705
8.7417e-05
0.000158336
0.000108555
0.000108546
8.50875e-05
0.000154178
0.000104795
0.000104785
8.33575e-05
0.000234268
0.000234456
0.00023445
0.000234262
0.000234458
0.000234458
0.000234275
0.000234275
0.000234275
0.000234275
0.00023446
0.00023446
0.000234264
0.000234458
0.000234461
0.000234265
0.0002334
0.0002261
0.000233088
0.000233101
0.000229296
0.000229245
0.000233395
0.000226054
0.000233085
0.000233086
0.000229285
0.000229276
0.000233089
0.00022928
0.000229286
0.000233404
0.000226098
0.000233085
0.000229298
0.000229277
0.000226071
0.000223742
0.000212087
0.000227721
0.000227635
0.000222225
0.000222062
0.000223689
0.00021203
0.000227709
0.000227697
0.000222212
0.000222197
0.000227707
0.000222211
0.000222206
0.000223737
0.000212066
0.000227698
0.000222223
0.0002222
0.000212058
0.000208956
0.000196928
0.000220197
0.000220046
0.000213746
0.000213671
0.000208902
0.000196926
0.000220186
0.000220169
0.000213744
0.000213724
0.000220177
0.000213748
0.000213725
0.000208933
0.000196919
0.000220174
0.000213749
0.000213729
0.000196898
0.000193674
0.000182771
0.000211517
0.000211459
0.000204752
0.000204716
0.000193657
0.000182801
0.000211518
0.000211497
0.000204758
0.000204737
0.000211496
0.000204766
0.000204729
0.000193642
0.000182793
0.000211503
0.000204759
0.000204741
0.000182756
0.000179662
0.000170193
0.000202497
0.000202457
0.000195813
0.000195755
0.000179616
0.000170242
0.000202504
0.000202482
0.000195822
0.000195798
0.000202474
0.000195829
0.000195788
0.000179614
0.00017024
0.000202488
0.000195821
0.000195806
0.00017019
0.000167346
0.000159181
0.000193626
0.000193564
0.00018722
0.000187155
0.000167274
0.000159256
0.000193636
0.000193611
0.000187231
0.000187204
0.000193601
0.000187234
0.000187195
0.000167287
0.00015926
0.00019362
0.00018723
0.000187216
0.000159184
0.000156641
0.00014961
0.00018514
0.000185078
0.00017907
0.00017902
0.000156562
0.000149669
0.000185152
0.000185124
0.000179084
0.000179056
0.000185116
0.000179083
0.000179049
0.000156561
0.000149576
0.000185137
0.000179085
0.000179072
0.00014957
0.000147208
0.000141163
0.000177109
0.000177064
0.00017141
0.00017138
0.000147203
0.000141135
0.000177123
0.000177096
0.000171427
0.0001714
0.000177089
0.000171427
0.000171394
0.000147324
0.000141166
0.000177112
0.000171429
0.000171418
0.000141134
0.000138976
0.000133579
0.000169573
0.000169547
0.00016423
0.000164214
0.000139026
0.000133613
0.00016959
0.000169562
0.000164248
0.00016422
0.000169557
0.000164254
0.000164216
0.00013896
0.000133654
0.000169582
0.000164251
0.000164243
0.000133629
0.000131736
0.000126811
0.000162504
0.000162491
0.000157473
0.000157465
0.000131741
0.000126832
0.000162523
0.000162494
0.000157495
0.000157463
0.000162491
0.000157505
0.000157463
0.00013166
0.000126733
0.000162518
0.000157496
0.00015749
0.000126815
0.000125021
0.000120547
0.000155845
0.000155838
0.000151087
0.000151083
0.000125027
0.000120564
0.000155868
0.000155835
0.000151112
0.000151076
0.000155835
0.000151123
0.00015108
0.00012513
0.000120438
0.000155863
0.000151111
0.000151107
0.000120541
0.000118879
0.000114478
0.000149543
0.000149539
0.000145024
0.000145021
0.000118943
0.000114505
0.000149568
0.000149531
0.00014505
0.000145013
0.000149536
0.000145063
0.000145019
0.000118999
0.000114428
0.000149564
0.00014505
0.000145047
0.000114496
0.000113256
0.00010882
0.000143556
0.000143552
0.000139239
0.000139235
0.000113188
0.000108822
0.000143582
0.000143544
0.000139267
0.000139228
0.000143551
0.000139279
0.000139237
0.000113238
0.000108783
0.00014358
0.000139267
0.000139265
0.000108815
0.000107936
0.000103647
0.000137831
0.000137826
0.000133686
0.000133679
0.00010793
0.000103643
0.000137859
0.00013782
0.000133716
0.000133676
0.000137829
0.000133726
0.000133685
0.000107904
0.000103629
0.000137857
0.000133717
0.000133714
0.000103635
0.000103008
9.90387e-05
0.000132328
0.00013232
0.000128341
0.000128332
0.000103006
9.90306e-05
0.000132356
0.000132318
0.00012837
0.000128332
0.000132328
0.000128383
0.000128343
0.000102995
9.90171e-05
0.000132357
0.000128375
0.000128371
9.90262e-05
9.83424e-05
9.48617e-05
0.000127037
0.000127027
0.000123224
0.000123214
9.83563e-05
9.48246e-05
0.000127064
0.000127027
0.000123252
0.000123215
0.000127038
0.000123266
0.000123227
9.83502e-05
9.4823e-05
0.000127067
0.000123259
0.000123254
9.48603e-05
9.40945e-05
9.13156e-05
0.000121979
0.000121968
0.000118336
0.000118321
9.41448e-05
9.11862e-05
0.000122003
0.000121968
0.000118356
0.000118319
0.00012198
0.000118374
0.000118337
9.41308e-05
9.1306e-05
0.000122007
0.000118365
0.000118359
9.13631e-05
9.04678e-05
8.82371e-05
0.000117182
0.000117172
0.000113754
0.000113747
9.05301e-05
8.81175e-05
0.000117202
0.000117169
0.000113782
0.000113743
0.000117182
0.000113797
0.000113756
9.04396e-05
8.82068e-05
0.00011721
0.000113788
0.000113782
8.82932e-05
8.75372e-05
8.57783e-05
0.000112677
0.000112663
0.000109496
0.000109491
8.75836e-05
8.56134e-05
0.000112692
0.000112659
0.000109526
0.000109486
0.000112675
0.00010954
0.0001095
8.75415e-05
8.5712e-05
0.0001127
0.000109532
0.000109524
8.58019e-05
8.51397e-05
8.39871e-05
0.000108521
0.000108505
0.000105628
0.000105621
8.52382e-05
8.37441e-05
0.000108532
0.0001085
0.000105657
0.000105615
0.000108518
0.000105669
0.00010563
8.51988e-05
8.38683e-05
0.000108542
0.000105659
0.000105653
8.39928e-05
8.34044e-05
0.000104765
0.000104747
8.3554e-05
0.000104772
0.00010474
0.000104761
8.34461e-05
0.000104783
0.00023473
0.000234746
0.000234729
0.000234729
0.000235129
0.000234799
0.000234832
0.000234726
0.000235131
0.000234799
0.000234726
0.000235031
0.000234871
0.00023358
0.000233468
0.000104697
3.88426e-05
0.000128471
3.97881e-05
2.19657e-05
2.28567e-05
0.000104565
3.88078e-05
0.000128282
3.97811e-05
0.000233972
0.000233972
0.000233972
0.000232929
0.000232928
0.000232929
0.000232929
0.000205975
9.34879e-05
0.000233967
0.000231956
0.000222366
8.65776e-05
0.000233605
2.19904e-05
2.28522e-05
0.000206053
0.000233968
9.32476e-05
0.000231969
0.000222376
0.000233607
8.66802e-05
4.75395e-05
4.76404e-05
0.000231281
4.36503e-05
4.36839e-05
7.26461e-05
4.24046e-05
8.1379e-05
4.37518e-05
2.47888e-05
2.54733e-05
7.25638e-05
4.23977e-05
8.12613e-05
4.37463e-05
0.000232519
0.000232523
0.000232522
0.000231066
0.00023105
0.000231064
0.000231064
0.000167254
7.89575e-05
0.000232053
0.000225988
0.000179917
7.40174e-05
0.000231341
2.4788e-05
2.54732e-05
0.000167344
0.000232061
7.89583e-05
0.000226006
0.000180014
0.00023135
7.40779e-05
3.90803e-05
3.90951e-05
0.000219428
3.64841e-05
3.65035e-05
5.63472e-05
4.55386e-05
6.12516e-05
4.64149e-05
2.6014e-05
2.61176e-05
5.63437e-05
4.55338e-05
6.12128e-05
4.64103e-05
0.000230478
0.000230492
0.000230491
0.00022851
0.0002285
0.000228508
0.000228506
0.000138522
6.70982e-05
0.000228587
0.000218092
0.000147948
6.31521e-05
0.000227474
2.6013e-05
2.61158e-05
0.000138578
0.0002286
6.70294e-05
0.000218098
0.000148025
0.000227487
6.31962e-05
3.32721e-05
3.32756e-05
0.000204446
3.20256e-05
3.20226e-05
4.70541e-05
4.74963e-05
4.99778e-05
4.80091e-05
2.60415e-05
2.59398e-05
4.70157e-05
4.74909e-05
4.99909e-05
4.80051e-05
0.000227754
0.00022776
0.000227758
0.000225283
0.000225279
0.00022528
0.000225276
0.000117503
5.79555e-05
0.000223643
0.000209278
0.00012457
5.51595e-05
0.000222228
2.60387e-05
2.59371e-05
0.000117536
0.000223656
5.79316e-05
0.000209274
0.000124641
0.000222238
5.51845e-05
3.06986e-05
3.06937e-05
0.00018963
3.03708e-05
3.03675e-05
4.14934e-05
4.85795e-05
4.3286e-05
4.88421e-05
2.56721e-05
2.55203e-05
4.14372e-05
4.85751e-05
4.33053e-05
4.88388e-05
0.00022438
0.000224382
0.000224377
0.000221507
0.000221495
0.000221502
0.000221498
0.000102074
5.16423e-05
0.000217681
0.000200268
0.000107438
4.97601e-05
0.000216089
2.56689e-05
2.55183e-05
0.000102098
0.000217689
5.16511e-05
0.00020026
0.000107451
0.000216094
4.98161e-05
3.0291e-05
3.02817e-05
0.000176275
3.04466e-05
3.04432e-05
3.81932e-05
4.90897e-05
3.92522e-05
4.91968e-05
2.52353e-05
2.50957e-05
3.81674e-05
4.90862e-05
3.92808e-05
4.91935e-05
0.00022048
0.00022049
0.000220485
0.000217331
0.000217309
0.000217325
0.00021732
9.0482e-05
4.75133e-05
0.000211173
0.000191479
9.45864e-05
4.63541e-05
0.000209506
2.52322e-05
2.50933e-05
9.04899e-05
0.000211178
4.75628e-05
0.000191472
9.45875e-05
0.000209509
4.63949e-05
3.11179e-05
3.11131e-05
0.000164497
3.15604e-05
3.15467e-05
3.64105e-05
4.92672e-05
3.69493e-05
4.92941e-05
2.4848e-05
2.47353e-05
3.6383e-05
4.92633e-05
3.69635e-05
4.92901e-05
0.000216219
0.000216235
0.00021623
0.000212892
0.000212869
0.000212885
0.00021288
8.15982e-05
4.49924e-05
0.00020448
0.0001831
8.48293e-05
4.43678e-05
0.000202809
2.48444e-05
2.47321e-05
8.16352e-05
0.000204487
4.50311e-05
0.000183098
8.48165e-05
0.000202813
4.43618e-05
3.26934e-05
3.26851e-05
0.000154216
3.32954e-05
3.32954e-05
3.57062e-05
4.92842e-05
3.5835e-05
4.92812e-05
2.45356e-05
2.44483e-05
3.56828e-05
4.92802e-05
3.58357e-05
4.92771e-05
0.000211734
0.000211749
0.000211743
0.000208301
0.000208285
0.000208295
0.000208289
7.47072e-05
4.36374e-05
0.000197844
0.000175192
7.7282e-05
4.33571e-05
0.000196212
2.45317e-05
2.44464e-05
7.4676e-05
0.000197851
4.36524e-05
0.000175195
7.7231e-05
0.000196216
4.33487e-05
3.47225e-05
3.47161e-05
0.00014518
3.54319e-05
3.5439e-05
3.58105e-05
4.92439e-05
3.56505e-05
4.92415e-05
2.42961e-05
2.42291e-05
3.57502e-05
4.92391e-05
3.56674e-05
4.92375e-05
0.000207127
0.000207135
0.000207129
0.000203645
0.000203638
0.00020364
0.000203634
6.92783e-05
4.31717e-05
0.000191399
0.000167784
7.1308e-05
4.30808e-05
0.000189821
2.42913e-05
2.42298e-05
6.92317e-05
0.000191405
4.31276e-05
0.000167784
7.13528e-05
0.000189822
4.31129e-05
3.70196e-05
3.70224e-05
0.000137266
3.78335e-05
3.78373e-05
3.66119e-05
4.92184e-05
3.62106e-05
4.92162e-05
2.41175e-05
2.40672e-05
3.65304e-05
4.92122e-05
3.62467e-05
4.92125e-05
0.000202474
0.000202474
0.000202469
0.000198985
0.000198984
0.000198979
0.000198976
6.49327e-05
4.3325e-05
0.00018517
0.00016083
6.65788e-05
4.34333e-05
0.00018365
2.41124e-05
2.40702e-05
6.49187e-05
0.000185171
4.32525e-05
0.000160825
6.65847e-05
0.000183647
4.35359e-05
3.94866e-05
3.94683e-05
0.000130128
4.0328e-05
4.03408e-05
3.8009e-05
4.92167e-05
3.74289e-05
4.92217e-05
2.39901e-05
2.39504e-05
3.79538e-05
4.92124e-05
3.74621e-05
4.922e-05
0.000197825
0.000197819
0.000197816
0.000194359
0.000194361
0.000194353
0.000194352
6.15415e-05
4.402e-05
0.000179196
0.000154271
6.27763e-05
4.42836e-05
0.000177746
2.39825e-05
2.39552e-05
6.15151e-05
0.000179194
4.39288e-05
0.000154261
6.2791e-05
0.00017774
4.43548e-05
4.20048e-05
4.19965e-05
0.000123593
4.28518e-05
4.28588e-05
3.99569e-05
4.92404e-05
3.92556e-05
4.92453e-05
2.38989e-05
2.38688e-05
3.99351e-05
4.92269e-05
3.92628e-05
4.92508e-05
0.000193215
0.000193206
0.000193206
0.000189771
0.000189774
0.000189765
0.000189765
5.89436e-05
4.51633e-05
0.000173499
0.000148054
5.98805e-05
4.55428e-05
0.000172114
2.38901e-05
2.3874e-05
5.89455e-05
0.000173495
4.50622e-05
0.000148041
5.9877e-05
0.000172105
4.56103e-05
4.44877e-05
4.44868e-05
0.000117468
4.53188e-05
4.53044e-05
4.24699e-05
4.92752e-05
4.15714e-05
4.92837e-05
2.38351e-05
2.38118e-05
4.2423e-05
4.92632e-05
4.15964e-05
4.92895e-05
0.000188626
0.000188617
0.000188618
0.000185216
0.000185219
0.000185211
0.000185211
5.71067e-05
4.66636e-05
0.000168049
0.00014214
5.77162e-05
4.71475e-05
0.000166721
2.38253e-05
2.38172e-05
5.70858e-05
0.000168043
4.65662e-05
0.000142128
5.77159e-05
0.000166712
4.72139e-05
4.6875e-05
4.68735e-05
0.000111597
4.7659e-05
4.76617e-05
4.53757e-05
4.93154e-05
4.43517e-05
4.9325e-05
2.37902e-05
2.37714e-05
4.53566e-05
4.93048e-05
4.4372e-05
4.93299e-05
0.000184094
0.000184086
0.000184087
0.00018075
0.000180752
0.000180746
0.000180747
5.59619e-05
4.8455e-05
0.000162811
0.000136476
5.62762e-05
4.90278e-05
0.000161532
2.37797e-05
2.3777e-05
5.59119e-05
0.000162807
4.84099e-05
0.000136466
5.63143e-05
0.000161524
4.90674e-05
4.91313e-05
4.91142e-05
0.000106152
4.98223e-05
4.98447e-05
4.86162e-05
4.93546e-05
4.75051e-05
4.93638e-05
2.37574e-05
2.37424e-05
4.85952e-05
4.93451e-05
4.75073e-05
4.93681e-05
0.000179648
0.000179642
0.000179643
0.000176363
0.000176364
0.00017636
0.00017636
5.54327e-05
5.04296e-05
0.000157753
0.000131026
5.55242e-05
5.11715e-05
0.000156516
2.3747e-05
2.37462e-05
5.5385e-05
0.000157751
5.04528e-05
0.000131018
5.5567e-05
0.000156511
5.11394e-05
5.1182e-05
5.11916e-05
0.000101274
5.18408e-05
5.18294e-05
5.2026e-05
4.93909e-05
5.08737e-05
4.93986e-05
2.37301e-05
2.37209e-05
5.20446e-05
4.93817e-05
5.08775e-05
4.94028e-05
0.000175279
0.000175274
0.000175275
0.000172043
0.000172044
0.000172041
0.000172039
5.55584e-05
5.26034e-05
0.000152848
0.000125795
5.54206e-05
5.33687e-05
0.000151646
2.37241e-05
2.37206e-05
5.55103e-05
0.000152847
5.26328e-05
0.000125786
5.54751e-05
0.000151643
5.33546e-05
5.30611e-05
5.3075e-05
9.68887e-05
5.36629e-05
5.36489e-05
5.55495e-05
4.94237e-05
5.43188e-05
4.94311e-05
2.37079e-05
2.37017e-05
5.55985e-05
4.94148e-05
5.42843e-05
4.94346e-05
0.000170974
0.00017097
0.00017097
0.000167775
0.000167776
0.000167773
0.000167772
5.62754e-05
5.48897e-05
0.000148091
0.000120797
5.59408e-05
5.55949e-05
0.000146923
2.37049e-05
2.37004e-05
5.62514e-05
0.000148093
5.48724e-05
0.000120789
5.59922e-05
0.000146922
5.56303e-05
5.47623e-05
5.47608e-05
9.30563e-05
5.53081e-05
5.53086e-05
5.8968e-05
4.94539e-05
5.77155e-05
4.94606e-05
2.36893e-05
2.36847e-05
5.89981e-05
4.94454e-05
5.77043e-05
4.94639e-05
0.00016672
0.000166715
0.000166716
0.000163558
0.00016356
0.000163556
0.000163554
5.75667e-05
5.71794e-05
0.000143449
0.000116054
5.7065e-05
5.78654e-05
0.000142307
2.36871e-05
2.36827e-05
5.75789e-05
0.000143453
5.71586e-05
0.000116045
5.70797e-05
0.000142307
5.79075e-05
5.63102e-05
5.63066e-05
8.97547e-05
5.67741e-05
5.67734e-05
6.21805e-05
4.94826e-05
6.09653e-05
4.94887e-05
2.36728e-05
2.36683e-05
6.22122e-05
4.94741e-05
6.09497e-05
4.94914e-05
0.000162517
0.000162511
0.000162513
0.000159376
0.000159378
0.000159373
0.000159372
5.93914e-05
5.94286e-05
0.000138908
0.000111623
5.8702e-05
6.0115e-05
0.000137793
2.36706e-05
2.36666e-05
5.9391e-05
0.000138908
5.93843e-05
0.000111614
5.87158e-05
0.000137791
6.01801e-05
5.7696e-05
5.76912e-05
8.69731e-05
5.81126e-05
5.81112e-05
6.5089e-05
4.95089e-05
6.39899e-05
4.95142e-05
2.36573e-05
2.36535e-05
6.51149e-05
4.95011e-05
6.39734e-05
4.95175e-05
0.00015834
0.000158331
0.000158336
0.000155213
0.000155216
0.000155208
0.000155209
6.1603e-05
6.16227e-05
0.000134467
0.000107554
6.08162e-05
6.22863e-05
0.000133385
2.36553e-05
2.36515e-05
6.16326e-05
0.000134467
6.15851e-05
0.000107544
6.08122e-05
0.000133383
6.23435e-05
5.8947e-05
5.89441e-05
8.48663e-05
5.93255e-05
5.93241e-05
6.76916e-05
4.95337e-05
6.67036e-05
4.95376e-05
2.36432e-05
2.36397e-05
4.95265e-05
6.66963e-05
4.95422e-05
0.000154182
0.000154171
0.000154177
6.41925e-05
6.3722e-05
0.000130146
0.000103921
6.326e-05
6.44251e-05
0.000129102
2.3641e-05
6.41627e-05
0.000130142
6.36924e-05
6.32627e-05
0.0001291
6.00817e-05
6.00801e-05
8.31397e-05
6.04279e-05
6.04249e-05
0.000234868
0.000233429
0.000233505
2.30768e-05
0.000214394
2.30552e-05
0.000214692
0.000234432
5.10007e-05
5.09539e-05
0.000229109
0.000228875
0.000235127
0.0002348
0.000234903
0.000234726
0.000235126
0.000234799
0.000234911
0.000234726
0.000234321
4.03576e-05
0.000218401
0.000147168
0.000234319
4.03978e-05
0.000218416
0.00014705
0.000233832
0.000234471
9.8207e-05
0.00023427
0.000233269
0.000234597
0.000228292
0.000233834
0.000234471
9.93238e-05
0.00023427
0.000233318
0.000234597
0.000228254
0.000234872
0.000233695
0.00023385
2.30761e-05
0.00021442
0.000234426
5.10979e-05
5.09493e-05
0.000230154
0.000229301
2.30775e-05
0.000214111
0.00023513
0.0002348
0.000235322
0.000234726
0.000235127
0.0002348
0.000234726
0.000235329
0.000234333
4.03973e-05
0.000213438
0.000146975
0.000233823
0.00023447
9.95542e-05
0.00023427
0.000232447
0.000234597
0.000228236
0.000234338
4.0402e-05
0.00021347
0.000147197
0.000233832
0.00023447
0.000234271
9.95439e-05
0.000234597
0.000232459
0.000228297
0.00023473
0.000234746
0.000234729
0.000234729
0.00023473
0.000234746
0.000234729
0.000234729
0.00023473
0.000234746
0.000234729
0.000234729
0.000234591
0.000234573
0.000234253
0.000234253
0.000234592
0.000234592
0.000234252
0.000234591
0.000234573
0.000234253
0.000234253
0.000234592
0.000234592
0.000234252
0.000234591
0.000234573
0.000234253
0.000234253
0.000234592
0.000234592
0.000234252
0.000234591
0.000234574
0.000234253
0.000234253
0.000234592
0.000234592
0.000234252
0.000235132
0.000234798
0.000234726
0.000234835
0.000233836
0.000234471
9.82249e-05
0.000234271
0.000233282
0.000234597
0.000228312
0.000234321
4.03405e-05
0.000218362
0.000146955
0.000233819
0.000234473
0.000234271
9.82811e-05
0.000234597
0.000233268
0.000228324
0.000234321
4.03215e-05
0.000218372
0.000147125
0.000234872
0.000233432
0.000233484
2.30627e-05
0.000214015
0.000234427
5.09002e-05
5.10667e-05
0.000228991
0.000228903
2.30617e-05
0.000214443
0.000235129
0.000234798
0.000234726
0.000234805
0.000233823
0.000234472
0.000234271
9.97239e-05
0.000234597
0.000233153
0.000228312
0.000233829
0.000234473
0.000234271
9.81984e-05
0.000234597
0.000233324
0.000228324
0.000234324
4.0414e-05
0.000213484
0.000147075
0.000234341
4.03435e-05
0.000218409
0.000147069
0.000234427
5.09008e-05
5.08321e-05
0.000228994
0.000230222
2.30771e-05
0.000214434
2.30792e-05
0.000214386
2.19498e-05
2.28677e-05
2.19815e-05
2.28681e-05
4.75455e-05
4.75366e-05
0.000231299
4.36646e-05
4.36043e-05
2.45015e-05
2.3319e-05
2.45002e-05
2.33181e-05
0.000229603
3.99343e-05
3.98544e-05
4.2858e-05
4.27857e-05
0.000104593
3.88479e-05
0.000128254
3.98162e-05
0.000206088
9.31212e-05
0.000233967
0.000231967
0.000222368
8.65661e-05
0.000233607
0.000205996
9.34282e-05
0.000233967
0.000231981
0.000222307
8.66196e-05
0.000233607
9.83334e-05
4.19354e-05
4.03306e-05
8.55333e-05
9.82248e-05
4.19435e-05
4.03348e-05
8.54638e-05
0.000199931
0.000230712
8.02122e-05
0.000232671
8.50691e-05
0.000233181
0.000185445
0.000199831
0.000230702
7.93246e-05
0.000232664
8.50403e-05
0.000233179
0.000185342
4.77551e-05
4.76719e-05
0.000231276
4.37354e-05
4.36875e-05
2.1952e-05
2.28713e-05
2.45007e-05
2.33365e-05
0.000229572
3.98638e-05
3.99367e-05
4.28673e-05
4.28283e-05
2.4503e-05
2.33213e-05
0.000205964
9.27652e-05
0.000233966
0.000231961
0.000222309
8.6559e-05
0.000233605
0.000104544
3.88224e-05
0.000128373
3.97888e-05
0.000205927
0.000233966
9.27885e-05
0.000231958
0.000222356
0.000233604
8.64926e-05
9.82012e-05
4.19291e-05
4.03217e-05
8.54121e-05
0.000199795
0.000230702
8.01658e-05
0.000232662
8.49689e-05
0.000233177
0.000185276
9.81886e-05
4.19285e-05
4.031e-05
8.54042e-05
0.000199765
0.000230696
0.000232659
8.01326e-05
0.000233174
8.49228e-05
0.000185249
0.000104572
3.88367e-05
0.000128377
3.97922e-05
0.000206091
0.000233968
9.29293e-05
0.000231962
0.000222373
0.000233608
8.63154e-05
0.000104703
3.88397e-05
0.00012846
3.97881e-05
0.000199816
0.0002307
8.0253e-05
0.000232663
8.51878e-05
0.000233177
0.000185306
9.82178e-05
4.19341e-05
4.03163e-05
8.54289e-05
0.000199929
0.000230704
0.00023267
8.00971e-05
0.000233182
8.4818e-05
0.000185431
9.83371e-05
4.19339e-05
4.03157e-05
8.55237e-05
4.75331e-05
4.77078e-05
0.000231299
4.35778e-05
4.37269e-05
2.19721e-05
2.28677e-05
2.44999e-05
2.3333e-05
0.000229605
3.98885e-05
3.98893e-05
4.27869e-05
4.28883e-05
2.45016e-05
2.33183e-05
0.000205992
0.000233968
9.293e-05
0.000231956
0.000222405
0.000233606
8.6323e-05
0.000104655
3.88281e-05
0.000128433
3.97945e-05
0.000104579
3.88362e-05
0.000128461
3.97898e-05
0.000199908
0.000230715
0.000232669
8.02894e-05
0.000233181
8.51069e-05
0.000185408
0.000199849
0.000230697
0.000232664
8.00896e-05
0.000233178
8.48193e-05
0.000185336
9.8319e-05
4.19333e-05
4.03128e-05
8.55078e-05
9.82567e-05
4.19324e-05
4.03181e-05
8.54518e-05
2.19539e-05
2.28667e-05
2.19626e-05
2.2868e-05
0.000229578
3.98962e-05
3.99053e-05
4.27375e-05
4.27892e-05
2.4501e-05
2.33177e-05
2.45e-05
2.33187e-05
2.47908e-05
2.54766e-05
2.47894e-05
2.54748e-05
3.91226e-05
3.90452e-05
0.000219458
3.65069e-05
3.64804e-05
2.596e-05
2.56269e-05
2.59581e-05
2.5625e-05
0.000216624
3.38545e-05
3.3842e-05
3.57777e-05
3.57187e-05
7.26074e-05
4.24169e-05
8.13134e-05
4.37668e-05
0.000167358
7.89105e-05
0.000232063
0.000226005
0.000180052
7.39717e-05
0.000231353
0.000167284
7.80071e-05
0.00023205
0.000225879
0.000179951
7.31915e-05
0.000231334
6.97197e-05
4.52351e-05
4.41351e-05
6.33088e-05
6.96897e-05
4.52537e-05
4.4149e-05
6.33035e-05
0.000162823
0.000224167
6.82108e-05
0.00022962
7.27493e-05
0.000230538
0.000151814
0.000162759
0.00022401
6.77919e-05
0.000229593
7.18832e-05
0.000230514
0.000151789
3.90482e-05
3.91191e-05
0.000219397
3.64736e-05
3.6546e-05
2.47916e-05
2.54767e-05
2.5957e-05
2.56239e-05
0.000216558
3.38467e-05
3.38913e-05
3.57003e-05
3.57862e-05
2.596e-05
2.56266e-05
0.000167215
7.88494e-05
0.000232052
0.000225992
0.000179883
7.40148e-05
0.000231338
7.25537e-05
4.23967e-05
8.12523e-05
4.37444e-05
0.000167193
0.000232048
7.8835e-05
0.000225979
0.000179858
0.000231335
7.39122e-05
6.96574e-05
4.52309e-05
4.41294e-05
6.3283e-05
0.000162696
0.000224153
6.82577e-05
0.000229603
7.26615e-05
0.000230522
0.000151746
6.96503e-05
4.5227e-05
4.41266e-05
6.32804e-05
0.000162677
0.00022414
0.000229599
6.81732e-05
0.000230518
7.26926e-05
0.000151728
7.25646e-05
4.24024e-05
8.12855e-05
4.37505e-05
0.000167334
0.000232062
7.8773e-05
0.000225989
0.000180035
0.000231351
7.39581e-05
7.26281e-05
4.24032e-05
8.13654e-05
4.37504e-05
0.0001627
0.000224152
6.82566e-05
0.000229606
7.27785e-05
0.000230525
0.000151761
6.96553e-05
4.52341e-05
4.41324e-05
6.32614e-05
0.000162793
0.00022415
0.000229617
6.82179e-05
0.000230536
7.26128e-05
0.000151793
6.97063e-05
4.5234e-05
4.4133e-05
6.33015e-05
3.90744e-05
3.90585e-05
0.000219447
3.64674e-05
3.64345e-05
2.47913e-05
2.54756e-05
2.59565e-05
2.56231e-05
0.000216612
3.38116e-05
3.38054e-05
3.5724e-05
3.56841e-05
2.59589e-05
2.56262e-05
0.000167285
0.000232055
7.87666e-05
0.00022598
0.000179944
0.000231343
7.39518e-05
7.26235e-05
4.24023e-05
8.13481e-05
4.37497e-05
7.2601e-05
4.24015e-05
8.12973e-05
4.3749e-05
0.000162785
0.000224167
0.000229617
6.82937e-05
0.000230536
7.27185e-05
0.000151834
0.000162762
0.000224142
0.000229611
6.82095e-05
0.000230528
7.26137e-05
0.000151792
6.97085e-05
4.52334e-05
4.41319e-05
6.33154e-05
6.9686e-05
4.52327e-05
4.41311e-05
6.33043e-05
2.47906e-05
2.54754e-05
2.47897e-05
2.54745e-05
0.000216594
3.38416e-05
3.38533e-05
3.57448e-05
3.57541e-05
2.59591e-05
2.56261e-05
2.59583e-05
2.56251e-05
2.60168e-05
2.61194e-05
2.60146e-05
2.61172e-05
3.32901e-05
3.32603e-05
0.000204475
3.20346e-05
3.20269e-05
2.60889e-05
2.61191e-05
2.60865e-05
2.61168e-05
0.000201208
3.09475e-05
3.09401e-05
3.16473e-05
3.16298e-05
5.6367e-05
4.55546e-05
6.12351e-05
4.64296e-05
0.000138541
6.70617e-05
0.000228601
0.000218099
0.00014806
6.3121e-05
0.000227488
0.00013854
6.66142e-05
0.000228576
0.000217968
0.000148023
6.30262e-05
0.000227466
5.4881e-05
4.73267e-05
4.66472e-05
5.11089e-05
5.48633e-05
4.73381e-05
4.66602e-05
5.1111e-05
0.00013544
0.000215945
5.88619e-05
0.000225008
6.20962e-05
0.000226288
0.000127206
0.000135429
0.000215842
5.87503e-05
0.000224996
6.18989e-05
0.000226271
0.000127207
3.32774e-05
3.33186e-05
0.000204446
3.2036e-05
3.20782e-05
2.60166e-05
2.61194e-05
2.60882e-05
2.61175e-05
0.000201174
3.09323e-05
3.0968e-05
3.16457e-05
3.16724e-05
2.6089e-05
2.61191e-05
0.000138514
6.69971e-05
0.000228586
0.000218091
0.000147973
6.3176e-05
0.000227474
5.63452e-05
4.55298e-05
6.12066e-05
4.64074e-05
0.000138509
0.000228581
6.70273e-05
0.000218072
0.000147965
0.00022747
6.30968e-05
5.48555e-05
4.73219e-05
4.66412e-05
5.10713e-05
0.000135391
0.00021594
5.88458e-05
0.000224998
6.20381e-05
0.000226278
0.000127179
5.48563e-05
4.73203e-05
4.66382e-05
5.1078e-05
0.000135387
0.000215921
0.000224995
5.88411e-05
0.000226273
6.20727e-05
0.000127179
5.63213e-05
4.55367e-05
6.11967e-05
4.64148e-05
0.000138518
0.000228597
6.69576e-05
0.000218078
0.000148023
0.000227484
6.31434e-05
5.63612e-05
4.55366e-05
6.12278e-05
4.64143e-05
0.000135346
0.000215943
5.88065e-05
0.000224994
6.21284e-05
0.000226274
0.000127211
5.48395e-05
4.73269e-05
4.66457e-05
5.10565e-05
0.000135416
0.000215924
0.000225002
5.88243e-05
0.000226282
6.2013e-05
0.000127187
5.48525e-05
4.73261e-05
4.66451e-05
5.11008e-05
3.32523e-05
3.32428e-05
0.000204453
3.20013e-05
3.20213e-05
2.60157e-05
2.61181e-05
2.60854e-05
2.61155e-05
0.000201184
3.09262e-05
3.09466e-05
3.16205e-05
3.16354e-05
2.60751e-05
2.6118e-05
0.00013853
0.000228594
6.69633e-05
0.000218077
0.000148034
0.000227482
6.31404e-05
5.63537e-05
4.55356e-05
6.12403e-05
4.64131e-05
5.63484e-05
4.55351e-05
6.12353e-05
4.64125e-05
0.000135403
0.000215946
0.000225007
5.88056e-05
0.000226288
6.20615e-05
0.000127208
0.000135438
0.000215926
0.000225004
5.88184e-05
0.000226283
6.20134e-05
0.000127206
5.48794e-05
4.73242e-05
4.66438e-05
5.10756e-05
5.48812e-05
4.73239e-05
4.66433e-05
5.10777e-05
2.60158e-05
2.61182e-05
2.6015e-05
2.61172e-05
0.000201177
3.09375e-05
3.09335e-05
3.1638e-05
3.16362e-05
2.60874e-05
2.61178e-05
2.60863e-05
2.61169e-05
2.60426e-05
2.59403e-05
2.60399e-05
2.59385e-05
3.07022e-05
3.06898e-05
0.000189658
3.03854e-05
3.03712e-05
2.57408e-05
2.58801e-05
2.57386e-05
2.5877e-05
0.000186473
3.02802e-05
3.0258e-05
3.02969e-05
3.02875e-05
4.70352e-05
4.7506e-05
4.99805e-05
4.80181e-05
0.000117539
5.78981e-05
0.000223655
0.000209269
0.000124643
5.52319e-05
0.000222239
0.000117537
5.77795e-05
0.000223646
0.000209224
0.000124642
5.51303e-05
0.000222233
4.62111e-05
4.85018e-05
4.81276e-05
4.39254e-05
4.62372e-05
4.85097e-05
4.81354e-05
4.3898e-05
0.000115419
0.000207012
5.22772e-05
0.000219249
5.4453e-05
0.000220768
0.000109281
0.000115418
0.000206975
5.21713e-05
0.000219243
5.43043e-05
0.000220762
0.000109267
3.06853e-05
3.07053e-05
0.000189668
3.03464e-05
3.0382e-05
2.60423e-05
2.59412e-05
2.57397e-05
2.58794e-05
0.000186454
3.02089e-05
3.02038e-05
3.02666e-05
3.02452e-05
2.57412e-05
2.58795e-05
0.00011752
5.78714e-05
0.000223649
0.000209271
0.00012462
5.52382e-05
0.000222233
4.70164e-05
4.74889e-05
4.99886e-05
4.80035e-05
0.000117521
0.000223645
5.78781e-05
0.000209251
0.00012462
0.000222231
5.52164e-05
4.6229e-05
4.84982e-05
4.81225e-05
4.38686e-05
0.000115398
0.000207017
5.22724e-05
0.000219245
5.44192e-05
0.000220765
0.000109248
4.62315e-05
4.84961e-05
4.81208e-05
4.38647e-05
0.000115399
0.000206995
0.000219243
5.22575e-05
0.000220761
5.44319e-05
0.000109246
4.70022e-05
4.74957e-05
4.99769e-05
4.80092e-05
0.000117522
0.000223649
5.78438e-05
0.000209247
0.000124626
0.000222233
5.52253e-05
4.7022e-05
4.74945e-05
4.99743e-05
4.80078e-05
0.000115381
0.000207024
5.21748e-05
0.00021924
5.44813e-05
0.000220757
0.000109245
4.6224e-05
4.85015e-05
4.8127e-05
4.38621e-05
0.000115404
0.000206989
0.000219242
5.22673e-05
0.000220761
5.43903e-05
0.00010925
4.6233e-05
4.84994e-05
4.8125e-05
4.38842e-05
3.06771e-05
3.07012e-05
0.000189669
3.03677e-05
3.03806e-05
2.60496e-05
2.59396e-05
2.57373e-05
2.5876e-05
0.000186428
3.02631e-05
3.02564e-05
3.02741e-05
3.03056e-05
2.57392e-05
2.58798e-05
0.000117543
0.000223652
5.7852e-05
0.000209256
0.000124644
0.000222237
5.52166e-05
4.70536e-05
4.74931e-05
5.00042e-05
4.80057e-05
4.70659e-05
4.74925e-05
5.00055e-05
4.8006e-05
0.000115417
0.000207019
0.000219247
5.22334e-05
0.000220768
5.44779e-05
0.000109271
0.000115419
0.000207
0.000219247
5.22632e-05
0.000220766
5.44067e-05
0.000109275
4.62227e-05
4.84975e-05
4.81236e-05
4.39124e-05
4.62191e-05
4.84984e-05
4.81233e-05
4.39315e-05
2.60409e-05
2.59387e-05
2.60399e-05
2.59375e-05
0.000186436
3.02467e-05
3.02453e-05
3.02966e-05
3.02911e-05
2.57389e-05
2.58786e-05
2.57379e-05
2.58775e-05
2.5673e-05
2.55218e-05
2.56704e-05
2.55195e-05
3.02763e-05
3.02734e-05
0.000176283
3.04817e-05
3.04597e-05
2.53035e-05
2.54525e-05
2.53011e-05
2.54499e-05
0.000173289
3.09367e-05
3.09046e-05
3.0569e-05
3.05679e-05
4.14667e-05
4.85867e-05
4.33092e-05
4.88497e-05
0.000102109
5.16357e-05
0.00021769
0.000200252
0.000107432
4.98757e-05
0.000216098
0.000102096
5.14779e-05
0.000217681
0.000200208
0.000107459
4.98016e-05
0.000216086
4.10048e-05
4.90641e-05
4.88892e-05
3.9638e-05
4.10371e-05
4.90701e-05
4.88955e-05
3.95958e-05
0.000100568
0.000198024
4.79825e-05
0.000212837
4.93578e-05
0.000214478
9.59074e-05