/*--------------------------------*- C++ -*----------------------------------*\
| =========                 |                                                 |
| \\      /  F ield         | OpenFOAM: The Open Source CFD Toolbox           |
|  \\    /   O peration     | Version:  v1906                                 |
|   \\  /    A nd           | Web:      www.OpenFOAM.com                      |
|    \\/     M anipulation  |                                                 |
\*---------------------------------------------------------------------------*/
FoamFile
{
    version     2.0;
    format      ascii;
    class       surfaceScalarField;
    location    "550";
    object      phi;
}
// * * * * * * * * * * * * * * * * * * * * * * * * * * * * * * * * * * * * * //

dimensions      [0 3 -1 0 0 0 0];
oriented        oriented;


internalField   nonuniform List<scalar> 
123728
(
-0.00104218
-1.46322e-05
-1.45265e-05
9.38357e-06
9.21429e-06
0.00105274
-0.000261489
-5.68374e-06
1.45082e-05
6.88909e-06
0.00105925
-4.593e-06
-1.59759e-06
-2.121e-06
-2.4899e-06
-6.62403e-06
-7.11441e-06
-2.98551e-06
-0.000263331
-0.000259761
-0.000262856
-0.000261467
-5.68843e-06
1.45377e-05
6.97744e-06
0.00105904
-4.59779e-06
-1.60746e-06
-2.12827e-06
-2.49465e-06
-6.61806e-06
-7.11057e-06
-2.98786e-06
-0.000259733
-0.000263303
-0.00026282
-0.000260563
5.65925e-06
5.69925e-06
-4.95328e-06
-4.94735e-06
0.000259105
-1.65243e-06
-1.65318e-06
-0.00106079
9.33453e-07
9.34561e-07
0.00106223
-0.00106274
-1.61809e-06
1.64813e-06
8.29742e-07
0.00106394
-6.79507e-07
8.35475e-07
-9.8715e-08
4.2321e-07
-8.50122e-07
-1.43158e-06
-2.54817e-07
-0.00106242
-1.6133e-06
1.65887e-06
8.25559e-07
0.00106361
-6.797e-07
8.29654e-07
-9.89854e-08
4.20716e-07
-8.52424e-07
-1.43103e-06
-2.5215e-07
-0.000261565
1.65095e-06
1.61382e-06
-6.9843e-07
-7.01328e-07
0.0002597
-1.37471e-06
-1.37661e-06
-0.00106635
6.96783e-07
6.96496e-07
0.00106771
-0.00106788
-1.57175e-06
1.38115e-06
6.89225e-07
0.00106922
-6.56639e-07
8.79195e-07
-7.2819e-08
4.61321e-07
-8.3759e-07
-1.39932e-06
-2.2173e-07
-0.00106755
-1.56721e-06
1.37534e-06
6.95823e-07
0.00106889
-6.56888e-07
8.73179e-07
-7.29794e-08
4.61529e-07
-8.3713e-07
-1.39354e-06
-2.18906e-07
-0.000262802
1.60233e-06
1.56743e-06
-6.63446e-07
-6.71622e-07
0.000260967
-1.34975e-06
-1.35242e-06
-0.00107181
6.76248e-07
6.76528e-07
0.00107316
-0.00107323
-1.57232e-06
1.35051e-06
6.66421e-07
0.00107454
-6.53478e-07
9.00757e-07
-5.3122e-08
4.75657e-07
-8.28249e-07
-1.40455e-06
-1.94752e-07
-0.00107289
-1.56731e-06
1.35039e-06
6.67174e-07
0.0010742
-6.51007e-07
8.95113e-07
-5.53211e-08
4.75644e-07
-8.3073e-07
-1.40429e-06
-1.92338e-07
-0.000264079
1.59967e-06
1.56725e-06
-6.55693e-07
-6.61278e-07
0.000262229
-1.30327e-06
-1.30551e-06
-0.00107714
6.51793e-07
6.52447e-07
0.00107845
-0.0010784
-1.56388e-06
1.30356e-06
6.34907e-07
0.00107965
-6.38363e-07
9.25212e-07
-3.45722e-08
4.95101e-07
-8.09598e-07
-1.40316e-06
-1.64722e-07
-0.00107806
-1.55884e-06
1.30362e-06
6.35886e-07
0.00107931
-6.36027e-07
9.19469e-07
-3.68237e-08
4.95179e-07
-8.12103e-07
-1.40282e-06
-1.62311e-07
-0.000265298
1.59169e-06
1.55912e-06
-6.4029e-07
-6.45888e-07
0.000263433
-1.25292e-06
-1.25495e-06
-0.00108228
6.27268e-07
6.27516e-07
0.00108353
-0.00108332
-1.55437e-06
1.25233e-06
6.04393e-07
0.00108451
-6.23478e-07
9.47677e-07
-1.32416e-08
5.16441e-07
-7.88696e-07
-1.39662e-06
-1.36581e-07
-0.00108298
-1.54965e-06
1.25342e-06
6.0623e-07
0.00108417
-6.21461e-07
9.41588e-07
-1.66091e-08
5.16413e-07
-7.91274e-07
-1.39637e-06
-1.34252e-07
-0.000266442
1.58293e-06
1.54991e-06
-6.24163e-07
-6.30016e-07
0.000264564
-1.20648e-06
-1.20806e-06
-0.00108722
6.05011e-07
6.055e-07
0.00108842
-0.001088
-1.54693e-06
1.20601e-06
5.81205e-07
0.00108913
-6.11557e-07
9.66906e-07
3.93197e-09
5.37833e-07
-7.69286e-07
-1.38855e-06
-1.11949e-07
-0.00108766
-1.54202e-06
1.20698e-06
5.82511e-07
0.00108879
-6.09333e-07
9.61062e-07
8.32247e-10
5.37713e-07
-7.71952e-07
-1.38846e-06
-1.09686e-07
-0.000267513
1.57553e-06
1.54222e-06
-6.09897e-07
-6.15961e-07
0.000265621
-1.16648e-06
-1.1668e-06
-0.00109197
5.85742e-07
5.87438e-07
0.00109313
-0.00109245
-1.542e-06
1.16702e-06
5.64578e-07
0.00109353
-6.02997e-07
9.83402e-07
1.76217e-08
5.58365e-07
-7.52711e-07
-1.38083e-06
-9.10603e-08
-0.0010921
-1.53633e-06
1.16615e-06
5.63853e-07
0.00109318
-5.99916e-07
9.7824e-07
1.527e-08
5.58621e-07
-7.54977e-07
-1.38039e-06
-8.84863e-08
-0.000268515
1.56983e-06
1.5366e-06
-5.98109e-07
-6.0403e-07
0.000266611
-1.13145e-06
-1.13208e-06
-0.00109655
5.69931e-07
5.7217e-07
0.00109767
-0.00109669
-1.53831e-06
1.13385e-06
5.5059e-07
0.00109772
-5.96374e-07
9.98365e-07
2.94101e-08
5.78099e-07
-7.38514e-07
-1.37378e-06
-7.3174e-08
-0.00109634
-1.53243e-06
1.1317e-06
5.49254e-07
0.00109737
-5.93095e-07
9.93322e-07
2.71384e-08
5.78726e-07
-7.40402e-07
-1.37294e-06
-7.0386e-08
-0.000269454
1.566e-06
1.5329e-06
-5.88626e-07
-5.94286e-07
0.000267538
-1.10091e-06
-1.10189e-06
-0.00110098
5.56794e-07
5.58604e-07
0.00110207
-0.00110074
-1.53637e-06
1.10361e-06
5.37703e-07
0.00110172
-5.91962e-07
1.01162e-06
4.36031e-08
5.97118e-07
-7.25936e-07
-1.36716e-06
-5.78718e-08
-0.00110039
-1.53064e-06
1.1021e-06
5.37406e-07
0.00110138
-5.88909e-07
1.00641e-06
3.99423e-08
5.97744e-07
-7.27837e-07
-1.36632e-06
-5.51863e-08
-0.000270336
1.56421e-06
1.53094e-06
-5.81115e-07
-5.86687e-07
0.000268408
-1.0743e-06
-1.07549e-06
-0.00110529
5.45647e-07
5.46703e-07
0.00110634
-0.00110462
-1.53543e-06
1.07657e-06
5.27901e-07
0.00110556
-5.86037e-07
1.02402e-06
5.18238e-08
6.15289e-07
-7.14074e-07
-1.3607e-06
-4.47541e-08
-0.00110427
-1.53e-06
1.07577e-06
5.2817e-07
0.00110522
-5.8607e-07
1.01849e-06
5.16691e-08
6.15604e-07
-7.16311e-07
-1.36017e-06
-4.23764e-08
-0.000271163
1.56377e-06
1.53016e-06
-5.74861e-07
-5.80691e-07
0.000269225
-1.04993e-06
-1.05154e-06
-0.00110947
5.35295e-07
5.35798e-07
0.0011105
-0.00110834
-1.53498e-06
1.05185e-06
5.18991e-07
0.00110925
-5.83486e-07
1.03581e-06
6.1731e-08
6.32369e-07
-7.02253e-07
-1.35397e-06
-3.36212e-08
-0.00110799
-1.52967e-06
1.05151e-06
5.19697e-07
0.0011089
-5.83614e-07
1.03016e-06
6.14886e-08
6.32526e-07
-7.04673e-07
-1.35361e-06
-3.1254e-08
-0.000271939
1.56354e-06
1.5297e-06
-5.69165e-07
-5.75138e-07
0.00026999
-1.02656e-06
-1.02794e-06
-0.00111356
5.24736e-07
5.25177e-07
0.00111456
-0.00111192
-1.53471e-06
1.0278e-06
5.09815e-07
0.00111279
-5.8071e-07
1.04736e-06
7.05008e-08
6.47943e-07
-6.90346e-07
-1.34693e-06
-2.10119e-08
-0.00111157
-1.52941e-06
1.02744e-06
5.10335e-07
0.00111244
-5.80837e-07
1.04155e-06
7.02745e-08
6.47987e-07
-6.92853e-07
-1.34666e-06
-1.8064e-08
-0.000272662
1.56337e-06
1.52939e-06
-5.63989e-07
-5.69972e-07
0.000270703
-1.00448e-06
-1.00533e-06
-0.00111754
5.14514e-07
5.15332e-07
0.00111852
-0.00111534
-1.53474e-06
1.00496e-06
4.99916e-07
0.00111618
-5.76884e-07
1.05792e-06
7.89733e-08
6.62217e-07
-6.77527e-07
-1.33907e-06
-8.82815e-09
-0.00111499
-1.52927e-06
1.00453e-06
5.00177e-07
0.00111583
-5.76913e-07
1.0523e-06
7.88529e-08
6.62227e-07
-6.80082e-07
-1.33885e-06
-5.92661e-09
-0.000273332
1.56331e-06
1.52936e-06
-5.58607e-07
-5.64423e-07
0.000271363
-9.82858e-07
-9.83071e-07
-0.00112142
5.0431e-07
5.05615e-07
0.00112238
-0.00111862
-1.53434e-06
9.82817e-07
4.89449e-07
0.00111941
-5.71805e-07
1.06778e-06
8.73868e-08
6.75182e-07
-6.63743e-07
-1.33025e-06
2.37468e-09
-0.00111827
-1.52878e-06
9.82187e-07
4.8928e-07
0.00111906
-5.71737e-07
1.06229e-06
8.73995e-08
6.75238e-07
-6.66274e-07
-1.32996e-06
5.29747e-09
-0.000273947
1.56285e-06
1.52892e-06
-5.52115e-07
-5.57827e-07
0.000271966
-9.61086e-07
-9.61076e-07
-0.00112521
4.94127e-07
4.95643e-07
0.00112614
-0.00112174
-1.53308e-06
9.61006e-07
4.78579e-07
0.0011225
-5.65552e-07
1.07759e-06
9.54513e-08
6.86968e-07
-6.49223e-07
-1.32051e-06
1.26455e-08
-0.00112139
-1.52749e-06
9.60181e-07
4.78158e-07
0.00112215
-5.65457e-07
1.07206e-06
9.54853e-08
6.87163e-07
-6.51665e-07
-1.32014e-06
1.56617e-08
-0.000274504
1.56166e-06
1.52765e-06
-5.44828e-07
-5.50549e-07
0.00027251
-9.39531e-07
-9.39581e-07
-0.0011289
4.84284e-07
4.85722e-07
0.00112981
-0.00112471
-1.53115e-06
9.39631e-07
4.67366e-07
0.00112542
-5.57961e-07
1.08694e-06
1.03257e-07
6.97716e-07
-6.34065e-07
-1.30976e-06
2.21535e-08
-0.00112435
-1.52565e-06
9.38666e-07
4.67217e-07
0.00112507
-5.58e-07
1.08132e-06
1.03238e-07
6.97953e-07
-6.36473e-07
-1.3093e-06
2.52619e-08
-0.000274999
1.5599e-06
1.52581e-06
-5.37069e-07
-5.42815e-07
0.000272993
-9.18191e-07
-9.18176e-07
-0.00113251
4.74489e-07
4.75766e-07
0.00113339
-0.00112751
-1.52867e-06
9.18333e-07
4.56036e-07
0.00112818
-5.49362e-07
1.09553e-06
1.10778e-07
7.07751e-07
-6.18641e-07
-1.29802e-06
3.21756e-08
-0.00112716
-1.52328e-06
9.17261e-07
4.55845e-07
0.00112783
-5.49524e-07
1.08974e-06
1.10598e-07
7.07696e-07
-6.21309e-07
-1.29775e-06
3.67106e-08
-0.000275429
1.55755e-06
1.52331e-06
-5.28722e-07
-5.34535e-07
0.000273412
-8.97271e-07
-8.97549e-07
-0.00113602
4.65352e-07
4.6626e-07
0.00113688
-0.00113014
-1.5256e-06
8.97126e-07
4.44685e-07
0.00113077
-5.39995e-07
1.10332e-06
1.17847e-07
7.16515e-07
-6.03317e-07
-1.28607e-06
4.44058e-08
-0.00112979
-1.5202e-06
8.96758e-07
4.44882e-07
0.00113042
-5.40088e-07
1.09756e-06
1.17714e-07
7.16352e-07
-6.05972e-07
-1.28589e-06
4.82467e-08
-0.000275791
1.55456e-06
1.52013e-06
-5.19762e-07
-5.25697e-07
0.000273762
-8.77118e-07
-8.77343e-07
-0.00113943
4.56857e-07
4.57278e-07
0.00114028
-0.0011326
-1.52153e-06
8.76838e-07
4.34222e-07
0.00113318
-5.29539e-07
1.11062e-06
1.24845e-07
7.24591e-07
-5.87795e-07
-1.27321e-06
5.49229e-08
-0.00113224
-1.51619e-06
8.76908e-07
4.34795e-07
0.00113283
-5.29758e-07
1.10482e-06
1.2463e-07
7.24389e-07
-5.90624e-07
-1.27314e-06
5.84241e-08
-0.000276084
1.55065e-06
1.51606e-06
-5.10034e-07
-5.16073e-07
0.000274043
-8.6306e-07
-8.57765e-07
-0.00114275
4.48769e-07
4.49e-07
0.00114357
-0.00113487
-1.5165e-06
8.51736e-07
4.23865e-07
0.00113542
-5.21403e-07
1.11728e-06
1.34412e-07
7.35134e-07
-5.72443e-07
-1.25933e-06
6.43574e-08
-0.00113452
-1.51115e-06
8.57668e-07
4.13761e-07
-5.18708e-07
1.11149e-06
1.31284e-07
7.3198e-07
-5.75333e-07
-1.2593e-06
6.77116e-08
0.00113507
-0.000276305
1.5457e-06
1.50825e-06
-4.99551e-07
-5.0563e-07
0.000274256
5.22551e-06
5.23657e-06
0.000260566
-0.000259152
-5.94481e-06
-5.93059e-06
5.05348e-06
0.000261438
-0.000258684
-5.96325e-06
3.38076e-06
-5.22562e-06
5.04839e-06
0.000261472
-0.000258699
-5.97136e-06
3.3759e-06
5.22625e-06
0.000260579
-0.000259155
-5.91624e-06
-5.95915e-06
5.04651e-06
0.000261502
-0.000258714
-5.96878e-06
3.37077e-06
5.05306e-06
-5.22806e-06
0.000261446
-0.000258684
3.38593e-06
-5.9732e-06
1.06913e-05
1.05978e-05
-0.000252646
-0.000256096
-0.000255126
-0.000255126
-6.41887e-06
-4.11047e-06
-6.65431e-06
-6.41905e-06
-4.11115e-06
-6.65975e-06
-5.0414e-06
0.0010422
1.06509e-05
1.06031e-05
-0.000252649
-0.000256094
-0.000255128
-0.000255129
-6.42168e-06
-4.11061e-06
-6.65722e-06
-6.41658e-06
-4.10591e-06
-6.65212e-06
-5.04118e-06
0.00104208
1.07114e-05
1.0663e-05
-0.000252641
-0.000256089
-0.000255126
-0.000255121
-6.42108e-06
-4.11773e-06
-6.65683e-06
-6.42155e-06
-4.10838e-06
-6.65468e-06
-5.05574e-06
-5.04396e-06
0.00104214
1.0707e-05
1.06079e-05
-0.000252644
-0.000256091
-0.000255126
-0.000255126
-6.41621e-06
-4.11306e-06
-6.65191e-06
-6.42172e-06
-4.11125e-06
-6.6574e-06
-0.000258709
-5.96108e-06
3.36565e-06
-5.22547e-06
0.000261433
-0.000258681
3.3808e-06
-5.96306e-06
5.22836e-06
0.000260558
-0.00025914
-5.91817e-06
-5.95673e-06
-0.000258694
3.37292e-06
-5.95849e-06
-5.23629e-06
0.0002615
-0.000258709
3.36806e-06
-5.96641e-06
-0.00025915
-5.94443e-06
-5.93061e-06
5.65949e-06
5.69705e-06
-4.95386e-06
-4.94739e-06
0.00025911
-8.12453e-07
-7.76477e-07
0.000261575
-0.000259442
-2.75951e-07
-2.68301e-07
7.14136e-06
0.00105866
-4.59037e-06
-1.55035e-06
-2.11552e-06
-2.49271e-06
-6.63827e-06
-7.12126e-06
-2.99254e-06
-0.000263293
-0.000259718
-0.000262819
-5.66998e-06
1.46039e-05
7.07963e-06
0.00105902
-4.60927e-06
-1.54309e-06
-2.11872e-06
-2.50263e-06
-6.6692e-06
-7.13733e-06
-3.00761e-06
-0.000263367
-0.000259748
-0.000262861
0.00106199
2.12379e-06
-0.00106095
1.04468e-06
-1.75849e-06
-1.31797e-07
-7.46524e-07
-1.54257e-06
-2.91841e-07
-9.12309e-07
3.6344e-07
8.20404e-07
0.00106241
2.12289e-06
-0.00106136
1.03882e-06
-1.76904e-06
-1.2478e-07
-7.52102e-07
-1.54769e-06
-2.90469e-07
-9.11863e-07
3.69894e-07
-4.95176e-06
-4.94398e-06
0.000259121
-7.79743e-07
0.000261601
-0.000259463
-2.72571e-07
-2.6558e-07
6.86395e-06
0.00105949
-4.61501e-06
-1.61082e-06
-2.13226e-06
-2.49989e-06
-6.65179e-06
-7.13199e-06
-3.00286e-06
-0.000263388
-0.000259776
-0.000262874
-5.66993e-06
1.46369e-05
7.17397e-06
0.0010588
-4.60957e-06
-1.55329e-06
-2.12401e-06
-2.50246e-06
-6.66795e-06
-7.13437e-06
-3.00673e-06
-0.000259718
-0.000263344
-0.000262833
0.001063
2.12986e-06
-0.00106195
1.03227e-06
-1.72925e-06
-1.34589e-07
-7.47522e-07
-1.54431e-06
-2.91088e-07
-9.09205e-07
3.66977e-07
8.09766e-07
0.00106209
2.13246e-06
-0.00106107
1.055e-06
-1.75872e-06
-1.29664e-07
-7.47005e-07
-1.54479e-06
-2.88437e-07
-9.13993e-07
3.63957e-07
1.46365e-05
7.16196e-06
0.0010586
-4.59024e-06
-1.55035e-06
-2.11287e-06
-2.49263e-06
-6.63836e-06
-2.99262e-06
-7.11908e-06
-0.000259713
-0.000263288
-0.000262814
2.12993e-06
-0.0010617
1.03683e-06
-1.72864e-06
-1.3133e-07
-7.43743e-07
-1.5425e-06
-2.94109e-07
3.60979e-07
-9.09661e-07
8.09746e-07
0.00106189
2.13421e-06
-0.00106087
1.05498e-06
-1.75862e-06
-1.2955e-07
-7.46648e-07
-1.54502e-06
-2.91843e-07
-9.12286e-07
3.66138e-07
-4.95615e-06
-4.94421e-06
0.0002591
-7.71448e-07
0.000261552
-0.000259424
-2.75938e-07
-2.70839e-07
1.45376e-05
6.88155e-06
0.00105944
-4.6145e-06
-1.61055e-06
-2.1317e-06
-2.50052e-06
-6.65248e-06
-3.00346e-06
-7.13013e-06
-0.000259766
-0.000263386
-0.000262869
2.13606e-06
-0.00106139
1.05269e-06
-1.72628e-06
-1.33963e-07
-7.46585e-07
-1.53928e-06
-2.8938e-07
3.61053e-07
-9.12379e-07
7.71218e-07
0.00106291
2.13606e-06
-0.00106187
1.04336e-06
-1.72416e-06
-1.34432e-07
-7.44735e-07
-1.5425e-06
-2.9145e-07
-9.12384e-07
3.6113e-07
-0.00025944
-2.73474e-07
-2.71053e-07
1.65089e-06
1.61617e-06
-6.95691e-07
-7.0374e-07
0.000259708
-9.07126e-07
-8.68826e-07
0.000262814
-0.000260648
-1.98602e-07
-1.91326e-07
8.32887e-07
0.00106318
-6.82358e-07
8.67913e-07
-9.47301e-08
4.23304e-07
-8.49818e-07
-1.4339e-06
-2.54507e-07
-1.65607e-06
1.65083e-06
8.26288e-07
0.0010636
-6.85263e-07
8.76019e-07
-9.47095e-08
4.29792e-07
-8.51801e-07
-1.43893e-06
-2.50817e-07
0.00106711
1.38937e-06
-0.00106577
7.00465e-07
-1.60523e-06
-7.01327e-08
-6.63256e-07
-1.39324e-06
-2.26055e-07
-8.34521e-07
4.59637e-07
9.13086e-07
0.00106754
1.38761e-06
-0.0010662
6.93799e-07
-1.6099e-06
-6.98068e-08
-6.63074e-07
-1.39592e-06
-2.25987e-07
-8.3482e-07
4.6283e-07
-6.95407e-07
-7.03236e-07
0.000259726
-8.74914e-07
0.00026284
-0.000260661
-1.97246e-07
-1.93667e-07
8.25414e-07
0.0010642
-6.80471e-07
8.32179e-07
-9.71683e-08
4.26501e-07
-8.52044e-07
-1.43623e-06
-2.51526e-07
-1.65095e-06
1.65651e-06
8.32262e-07
0.00106328
-6.85323e-07
8.67971e-07
-9.48108e-08
4.23663e-07
-8.51645e-07
-1.43385e-06
-2.51385e-07
0.00106814
1.39057e-06
-0.00106681
6.98164e-07
-1.56759e-06
-7.44649e-08
-6.58468e-07
-1.39064e-06
-2.23523e-07
-8.34621e-07
4.62603e-07
9.02261e-07
0.00106722
1.38982e-06
-0.00106588
6.99176e-07
-1.60238e-06
-7.20933e-08
-6.63194e-07
-1.3939e-06
-2.25841e-07
-8.34264e-07
4.61721e-07
1.65318e-06
8.3261e-07
0.00106308
-6.85136e-07
8.65308e-07
-9.69763e-08
4.23259e-07
-8.52644e-07
-2.52155e-07
-1.43407e-06
1.39058e-06
-0.00106655
7.02412e-07
-1.57447e-06
-7.5973e-08
-6.57485e-07
-1.3914e-06
-2.24212e-07
4.61652e-07
-8.35179e-07
9.04686e-07
0.00106702
1.38455e-06
-0.00106568
6.99748e-07
-1.60245e-06
-7.2111e-08
-6.63113e-07
-1.39365e-06
-2.26164e-07
-8.34736e-07
4.59412e-07
-6.98588e-07
-7.00658e-07
0.000259687
-8.66239e-07
0.000262788
-0.000260627
-1.98755e-07
-1.93398e-07
1.65366e-06
8.21145e-07
0.00106412
-6.80515e-07
8.26778e-07
-1.01735e-07
4.20753e-07
-8.49928e-07
-2.56698e-07
-1.43145e-06
1.38993e-06
-0.00106622
6.9862e-07
-1.56468e-06
-7.62118e-08
-6.57755e-07
-1.38558e-06
-2.26135e-07
4.5388e-07
-8.34724e-07
8.68722e-07
0.00106805
1.39068e-06
-0.00106671
6.98634e-07
-1.56506e-06
-7.65659e-08
-6.58412e-07
-1.39372e-06
-2.26161e-07
-8.37618e-07
4.59493e-07
-0.000260636
-1.98652e-07
-1.9379e-07
1.6051e-06
1.57255e-06
-6.60806e-07
-6.69187e-07
0.000260966
-9.27818e-07
-8.92168e-07
0.000264094
-0.000261919
-1.79714e-07
-1.75131e-07
6.91967e-07
0.00106846
-6.64998e-07
9.11539e-07
-6.69331e-08
4.61966e-07
-8.34342e-07
-1.39328e-06
-2.23586e-07
-1.60973e-06
1.37413e-06
7.01441e-07
0.00106888
-6.64658e-07
9.17594e-07
-6.6475e-08
4.67464e-07
-8.37849e-07
-1.39896e-06
-2.19349e-07
0.00107246
1.35923e-06
-0.00107114
6.74755e-07
-1.60634e-06
-5.60394e-08
-6.59033e-07
-1.40301e-06
-2.04282e-07
-8.287e-07
4.71632e-07
9.33846e-07
0.00107288
1.36103e-06
-0.00107156
6.7497e-07
-1.61099e-06
-5.3492e-08
-6.61219e-07
-1.41206e-06
-2.00664e-07
-8.35678e-07
4.79257e-07
-6.62639e-07
-6.65912e-07
0.000260987
-8.94851e-07
0.000264123
-0.000261945
-1.76923e-07
-1.71951e-07
6.89824e-07
0.00106949
-6.62803e-07
8.75867e-07
-7.11947e-08
4.64539e-07
-8.37188e-07
-1.39877e-06
-2.18871e-07
-1.60214e-06
1.37591e-06
6.96251e-07
0.00106856
-6.64793e-07
9.09402e-07
-6.659e-08
4.63699e-07
-8.36854e-07
-1.39694e-06
-2.1878e-07
0.00107349
1.362e-06
-0.00107216
6.73285e-07
-1.57089e-06
-5.79564e-08
-6.56574e-07
-1.40669e-06
-1.99984e-07
-8.3464e-07
4.73527e-07
9.28301e-07
0.00107256
1.36086e-06
-0.00107124
6.74346e-07
-1.60593e-06
-5.3671e-08
-6.61424e-07
-1.40664e-06
-1.99746e-07
-8.3415e-07
4.73487e-07
1.38016e-06
6.91316e-07
0.00106837
-6.62193e-07
9.06526e-07
-7.10171e-08
4.64413e-07
-8.37103e-07
-2.2127e-07
-1.3963e-06
1.36016e-06
-0.0010719
6.73645e-07
-1.57339e-06
-5.79064e-08
-6.56365e-07
-1.40343e-06
-2.02151e-07
4.7141e-07
-8.31708e-07
9.22839e-07
0.00107236
1.35918e-06
-0.00107104
6.74529e-07
-1.60084e-06
-5.79024e-08
-6.56144e-07
-1.40323e-06
-2.01951e-07
-8.31407e-07
4.71565e-07
-6.63862e-07
-6.68254e-07
0.000260951
-8.89127e-07
0.000264074
-0.000261904
-1.79958e-07
-1.72185e-07
1.37608e-06
6.95376e-07
0.0010694
-6.57474e-07
8.67933e-07
-7.54231e-08
4.6186e-07
-8.34813e-07
-2.21335e-07
-1.39383e-06
1.35993e-06
-0.00107157
6.7447e-07
-1.5685e-06
-6.01239e-08
-6.53896e-07
-1.40308e-06
-1.99677e-07
4.71472e-07
-8.34141e-07
8.89382e-07
0.0010734
1.36039e-06
-0.00107208
6.73447e-07
-1.56844e-06
-6.00611e-08
-6.54032e-07
-1.40077e-06
-2.01963e-07
-8.31686e-07
4.69063e-07
-0.000261917
-1.77278e-07
-1.72206e-07
1.60516e-06
1.56968e-06
-6.52967e-07
-6.59004e-07
0.000262231
-9.5225e-07
-9.16356e-07
0.000265314
-0.000263142
-1.54023e-07
-1.49329e-07
6.67391e-07
0.00107377
-6.56078e-07
9.33863e-07
-5.12426e-08
4.75795e-07
-8.25318e-07
-1.40424e-06
-1.9695e-07
-1.60989e-06
1.35168e-06
6.67682e-07
0.0010742
-6.58327e-07
9.39826e-07
-4.87849e-08
4.83487e-07
-8.32139e-07
-1.41328e-06
-1.93169e-07
0.00107763
1.31571e-06
-0.00107636
6.44566e-07
-1.59941e-06
-3.7377e-08
-6.45178e-07
-1.40399e-06
-1.74447e-07
-8.11901e-07
4.89992e-07
9.58232e-07
0.00107805
1.31673e-06
-0.00107678
6.44006e-07
-1.60419e-06
-3.50821e-08
-6.4747e-07
-1.41267e-06
-1.70028e-07
-8.1794e-07
4.98117e-07
-6.56064e-07
-6.60576e-07
0.000262257
-9.19131e-07
0.000265342
-0.000263168
-1.51251e-07
-1.46034e-07
6.66069e-07
0.0010748
-6.53588e-07
8.98168e-07
-5.3119e-08
4.77712e-07
-8.31307e-07
-1.40795e-06
-1.92696e-07
-1.6048e-06
1.35119e-06
6.6704e-07
0.00107388
-6.58523e-07
9.34298e-07
-4.89538e-08
4.77875e-07
-8.30758e-07
-1.40766e-06
-1.92399e-07
0.00107866
1.31793e-06
-0.00107739
6.4349e-07
-1.56386e-06
-3.91827e-08
-6.42684e-07
-1.40743e-06
-1.70168e-07
-8.17854e-07
4.92221e-07
9.52674e-07
0.00107773
1.31633e-06
-0.00107646
6.43817e-07
-1.59908e-06
-3.52351e-08
-6.47645e-07
-1.4068e-06
-1.69741e-07
-8.17158e-07
4.92668e-07
1.34974e-06
6.67186e-07
0.00107368
-6.532e-07
9.28863e-07
-5.30885e-08
4.75697e-07
-8.28063e-07
-1.9467e-07
-1.40447e-06
1.31603e-06
-0.00107713
6.43015e-07
-1.56638e-06
-3.90196e-08
-6.42375e-07
-1.40419e-06
-1.72167e-07
4.89954e-07
-8.14701e-07
9.47153e-07
0.00107753
1.3159e-06
-0.00107626
6.44464e-07
-1.59398e-06
-3.91543e-08
-6.42323e-07
-1.40435e-06
-1.72309e-07
-8.1479e-07
4.89781e-07
-6.53731e-07
-6.60754e-07
0.000262216
-9.13467e-07
0.000265293
-0.000263126
-1.54045e-07
-1.46433e-07
1.35074e-06
6.66168e-07
0.00107472
-6.51097e-07
8.95345e-07
-5.52316e-08
4.73263e-07
-8.28284e-07
-1.94624e-07
-1.40194e-06
1.31598e-06
-0.00107679
6.43741e-07
-1.56129e-06
-4.11911e-08
-6.39989e-07
-1.40382e-06
-1.69793e-07
4.90055e-07
-8.17258e-07
9.13508e-07
0.00107857
1.3165e-06
-0.0010773
6.43454e-07
-1.56147e-06
-4.12109e-08
-6.40224e-07
-1.40167e-06
-1.72158e-07
-8.14881e-07
4.87459e-07
-0.000263139
-1.51699e-07
-1.46545e-07
1.59711e-06
1.5615e-06
-6.37486e-07
-6.43432e-07
0.000263436
-9.75072e-07
-9.38989e-07
0.000266458
-0.00026429
-1.29191e-07
-1.24186e-07
6.36799e-07
0.00107888
-6.41337e-07
9.58232e-07
-3.24647e-08
4.95084e-07
-8.06844e-07
-1.40301e-06
-1.67041e-07
-1.60188e-06
1.30368e-06
6.35477e-07
0.00107931
-6.43673e-07
9.64236e-07
-2.92795e-08
5.03361e-07
-8.12677e-07
-1.41154e-06
-1.62482e-07
0.00108255
1.26532e-06
-0.00108134
6.14708e-07
-1.59032e-06
-1.64998e-08
-6.30413e-07
-1.39857e-06
-1.4581e-07
-7.91359e-07
5.1082e-07
9.81353e-07
0.00108298
1.26422e-06
-0.00108177
6.11794e-07
-1.59484e-06
-1.30614e-08
-6.32481e-07
-1.40661e-06
-1.40867e-07
-7.96582e-07
5.19557e-07
-6.40487e-07
-6.44871e-07
0.000263462
-9.42334e-07
0.000266487
-0.000264317
-1.259e-07
-1.20593e-07
6.35844e-07
0.00107992
-6.38797e-07
9.22306e-07
-3.49144e-08
4.97433e-07
-8.12744e-07
-1.40634e-06
-1.62716e-07
-1.59681e-06
1.3035e-06
6.35664e-07
0.00107898
-6.43863e-07
9.58636e-07
-2.94931e-08
4.97888e-07
-8.12042e-07
-1.40568e-06
-1.6229e-07
0.00108359
1.26739e-06
-0.00108238
6.13376e-07
-1.55467e-06
-1.90082e-08
-6.27909e-07
-1.40159e-06
-1.41345e-07
-7.9706e-07
5.1349e-07
9.75498e-07
0.00108265
1.26501e-06
-0.00108145
6.13211e-07
-1.58999e-06
-1.34818e-08
-6.32889e-07
-1.401e-06
-1.40984e-07
-7.96407e-07
5.13844e-07
1.30352e-06
6.36876e-07
0.00107878
-6.38444e-07
9.53131e-07
-3.48671e-08
4.94923e-07
-8.09725e-07
-1.64894e-07
-1.40335e-06
1.26492e-06
-0.00108211
6.11396e-07
-1.55662e-06
-1.82204e-08
-6.26998e-07
-1.3985e-06
-1.43328e-07
5.11046e-07
-7.93866e-07
9.69824e-07
0.00108245
1.26526e-06
-0.00108124
6.14784e-07
-1.58501e-06
-1.90581e-08
-6.27629e-07
-1.39863e-06
-1.43541e-07
-7.94069e-07
5.10955e-07
-6.38018e-07
-6.45191e-07
0.00026342
-9.36321e-07
0.000266437
-0.000264275
-1.29158e-07
-1.21135e-07
1.30423e-06
6.35847e-07
0.00107983
-6.36317e-07
9.19478e-07
-3.68613e-08
4.92556e-07
-8.09826e-07
-1.64758e-07
-1.40068e-06
1.26578e-06
-0.00108177
6.13087e-07
-1.55184e-06
-2.15026e-08
-6.24907e-07
-1.39813e-06
-1.4097e-07
5.11136e-07
-7.96436e-07
9.3632e-07
0.0010835
1.26691e-06
-0.00108229
6.13349e-07
-1.5521e-06
-2.1596e-08
-6.2525e-07
-1.39625e-06
-1.4357e-07
-7.94363e-07
5.08285e-07
-0.000264288
-1.26621e-07
-1.21533e-07
1.5882e-06
1.55252e-06
-6.21542e-07
-6.27341e-07
0.000264566
-9.95308e-07
-9.59003e-07
0.000267529
-0.000265366
-1.06883e-07
-1.017e-07
6.08037e-07
0.00108374
-6.26987e-07
9.80362e-07
-1.16051e-08
5.16168e-07
-7.86252e-07
-1.39675e-06
-1.39126e-07
-1.59265e-06
1.25163e-06
6.04756e-07
0.00108417
-6.28996e-07
9.86717e-07
-8.09626e-09
5.24975e-07
-7.914e-07
-1.40471e-06
-1.34148e-07
0.00108722
1.21754e-06
-0.00108608
5.89608e-07
-1.58242e-06
1.83332e-09
-6.17622e-07
-1.39078e-06
-1.20304e-07
-7.71548e-07
5.32263e-07
1.00165e-06
0.00108765
1.2164e-06
-0.00108651
5.86713e-07
-1.58684e-06
5.3466e-09
-6.1958e-07
-1.39885e-06
-1.15489e-07
-7.76771e-07
5.4088e-07
-6.23912e-07
-6.28503e-07
0.000264592
-9.62409e-07
0.000267558
-0.000265392
-1.03473e-07
-9.81326e-08
6.06589e-07
0.00108478
-6.24492e-07
9.44234e-07
-1.41287e-08
5.18897e-07
-7.91898e-07
-1.3997e-06
-1.34625e-07
-1.58788e-06
1.25261e-06
6.06505e-07
0.00108385
-6.29468e-07
9.80771e-07
-8.59875e-09
5.19203e-07
-7.91288e-07
-1.39916e-06
-1.34305e-07
0.00108827
1.21928e-06
-0.00108712
5.88349e-07
-1.54671e-06
-7.88339e-10
-6.15196e-07
-1.39359e-06
-1.15741e-07
-7.77055e-07
5.35125e-07
9.95627e-07
0.00108733
1.21717e-06
-0.00108618
5.88456e-07
-1.58217e-06
4.7677e-09
-6.20166e-07
-1.39321e-06
-1.15535e-07
-7.7659e-07
5.35279e-07
1.25276e-06
6.08139e-07
0.00108364
-6.24255e-07
9.7505e-07
-1.42233e-08
5.16393e-07
-7.88895e-07
-1.36799e-07
-1.3967e-06
1.2169e-06
-0.00108685
5.86242e-07
-1.54851e-06
3.97925e-11
-6.1416e-07
-1.39057e-06
-1.17739e-07
5.32554e-07
-7.73866e-07
9.89878e-07
0.00108713
1.21706e-06
-0.00108598
5.8987e-07
-1.57724e-06
-9.25431e-10
-6.14997e-07
-1.3905e-06
-1.17805e-07
-7.73954e-07
5.3268e-07
-6.219e-07
-6.2908e-07
0.00026455
-9.56417e-07
0.000267508
-0.00026535
-1.0675e-07
-9.87798e-08
1.25468e-06
6.06487e-07
0.00108469
-6.21793e-07
9.41602e-07
-1.66819e-08
5.13593e-07
-7.89283e-07
-1.36917e-07
-1.39445e-06
1.21808e-06
-0.00108651
5.87912e-07
-1.54375e-06
-3.22819e-09
-6.121e-07
-1.39043e-06
-1.15511e-07
5.3246e-07
-7.76596e-07
9.56478e-07
0.00108818
1.21936e-06
-0.00108703
5.88058e-07
-1.54396e-06
-3.24197e-09
-6.12356e-07
-1.38852e-06
-1.18128e-07
-7.74601e-07
5.29647e-07
-0.000265364
-1.04104e-07
-9.92007e-08
1.58071e-06
1.54502e-06
-6.07492e-07
-6.13159e-07
0.000265624
-1.01592e-06
-9.76588e-07
0.000268534
-0.000266372
-8.72322e-08
-8.18238e-08
5.84037e-07
0.00108835
-6.14858e-07
1.00266e-06
8.57565e-09
5.37578e-07
-7.66945e-07
-1.38874e-06
-1.14484e-07
-1.58524e-06
1.20576e-06
5.81773e-07
0.00108878
-6.16904e-07
1.00623e-06
9.32348e-09
5.46033e-07
-7.72334e-07
-1.39695e-06
-1.09843e-07
0.00109166
1.17587e-06
-0.00109057
5.68904e-07
-1.579e-06
1.97755e-08
-6.10203e-07
-1.38271e-06
-9.82472e-08
-7.54011e-07
5.53243e-07
1.01891e-06
0.0010921
1.17636e-06
-0.00109101
5.69126e-07
-1.58141e-06
1.999e-08
-6.1007e-07
-1.38869e-06
-9.40774e-08
-7.59921e-07
5.58641e-07
-6.09907e-07
-6.14431e-07
0.00026565
-9.79439e-07
0.00026856
-0.000266399
-8.446e-08
-7.89913e-08
5.83031e-07
0.0010894
-6.12469e-07
9.63611e-07
3.23829e-09
5.40483e-07
-7.72394e-07
-1.3915e-06
-1.0989e-07
-1.5805e-06
1.20603e-06
5.83075e-07
0.00108846
-6.1742e-07
1.00029e-06
8.83015e-09
5.40601e-07
-7.71961e-07
-1.39116e-06
-1.09719e-07
0.00109272
1.17654e-06
-0.00109163
5.69027e-07
-1.5407e-06
1.42285e-08
-6.0528e-07
-1.38534e-06
-9.36311e-08
-7.59343e-07
5.56286e-07
1.01345e-06
0.00109177
1.17483e-06
-0.00109068
5.68566e-07
-1.5762e-06
1.99484e-08
-6.1015e-07
-1.38504e-06
-9.34864e-08
-7.58941e-07
5.56382e-07
1.20588e-06
5.84284e-07
0.00108826
-6.12232e-07
9.94562e-07
3.14735e-09
5.38034e-07
-7.69251e-07
-1.11911e-07
-1.38841e-06
1.17613e-06
-0.00109136
5.68362e-07
-1.54307e-06
1.4407e-08
-6.04915e-07
-1.38269e-06
-9.59558e-08
5.53321e-07
-7.56596e-07
1.00786e-06
0.00109157
1.17496e-06
-0.00109048
5.69053e-07
-1.57107e-06
1.43558e-08
-6.04839e-07
-1.38235e-06
-9.56229e-08
-7.56182e-07
5.53708e-07
-6.0773e-07
-6.15034e-07
0.000265608
-9.74144e-07
0.00026851
-0.000266356
-8.69763e-08
-7.90133e-08
1.20816e-06
5.82624e-07
0.00108931
-6.09576e-07
9.61131e-07
8.32995e-10
5.3499e-07
-7.69959e-07
-1.12283e-07
-1.38645e-06
1.17578e-06
-0.00109101
5.68102e-07
-1.53757e-06
1.19182e-08
-6.02021e-07
-1.38232e-06
-9.35104e-08
5.53506e-07
-7.59031e-07
9.74174e-07
0.00109263
1.17654e-06
-0.00109154
5.68344e-07
-1.5378e-06
1.18951e-08
-6.02276e-07
-1.38024e-06
-9.59592e-08
-7.56881e-07
5.50842e-07
-0.000266369
-8.433e-08
-7.92495e-08
1.57778e-06
1.53948e-06
-5.9583e-07
-6.01315e-07
0.000266614
-1.03173e-06
-9.92112e-07
0.000269473
-0.000267315
-7.0071e-08
-6.43537e-08
5.64453e-07
0.00109274
-6.08088e-07
1.02008e-06
2.31943e-08
5.584e-07
-7.49987e-07
-1.38074e-06
-9.10055e-08
-1.58042e-06
1.16713e-06
5.65459e-07
0.00109318
-6.08165e-07
1.02285e-06
2.31844e-08
5.63748e-07
-7.55985e-07
-1.3868e-06
-8.91228e-08
0.0010959
1.13993e-06
-0.00109486
5.52757e-07
-1.5749e-06
3.28752e-08
-6.02858e-07
-1.37515e-06
-7.71296e-08
-7.41569e-07
5.73501e-07
1.03405e-06
0.00109634
1.14063e-06
-0.00109529
5.5507e-07
-1.57803e-06
3.21575e-08
-6.03318e-07
-1.38107e-06
-7.50885e-08
-7.44692e-07
5.79039e-07
-5.98837e-07
-6.03366e-07
0.00026664
-9.94758e-07
0.0002695
-0.000267342
-6.73554e-08
-6.22599e-08
5.64869e-07
0.0010938
-6.032e-07
9.8066e-07
1.7559e-08
5.61451e-07
-7.5531e-07
-1.38336e-06
-8.86239e-08
-1.57501e-06
1.16518e-06
5.64295e-07
0.00109285
-6.08064e-07
1.01758e-06
2.33205e-08
5.61561e-07
-7.54909e-07
-1.38305e-06
-8.84583e-08
0.00109696
1.14012e-06
-0.00109592
5.53799e-07
-1.53647e-06
2.6674e-08
-5.979e-07
-1.37768e-06
-7.47167e-08
-7.44118e-07
5.76636e-07
1.0292e-06
0.00109601
1.13825e-06
-0.00109497
5.52779e-07
-1.57217e-06
3.29874e-08
-6.0285e-07
-1.37737e-06
-7.45685e-08
-7.43711e-07
5.76743e-07
1.16551e-06
5.64538e-07
0.00109265
-6.02691e-07
1.01204e-06
1.77677e-08
5.58799e-07
-7.52184e-07
-9.06322e-08
-1.38044e-06
1.14165e-06
-0.00109564
5.53972e-07
-1.53915e-06
2.6633e-08
-5.97853e-07
-1.37549e-06
-7.73858e-08
5.73222e-07
-7.41878e-07
1.02383e-06
0.0010958
1.13951e-06
-0.00109476
5.52835e-07
-1.56678e-06
2.70894e-08
-5.9722e-07
-1.37506e-06
-7.69108e-08
-7.41233e-07
5.73662e-07
-5.95894e-07
-6.03294e-07
0.000266598
-9.89747e-07
0.000269449
-0.000267299
-6.97236e-08
-6.15734e-08
1.16675e-06
5.64192e-07
0.00109371
-6.00197e-07
9.78244e-07
1.52251e-08
5.56041e-07
-7.52825e-07
-9.0914e-08
-1.37823e-06
1.13963e-06
-0.0010953
5.52549e-07
-1.53324e-06
2.44064e-08
-5.94548e-07
-1.37467e-06
-7.46348e-08
5.73849e-07
-7.43846e-07
9.89713e-07
0.00109687
1.13972e-06
-0.00109582
5.53242e-07
-1.53368e-06
2.42916e-08
-5.94935e-07
-1.37247e-06
-7.69109e-08
-7.41541e-07
5.71275e-07
-0.000267312
-6.71184e-08
-6.16451e-08
1.57422e-06
1.53567e-06
-5.86299e-07
-5.91661e-07
0.000267541
-1.04518e-06
-1.00559e-06
0.000270355
-0.000268199
-5.5589e-08
-4.95066e-08
5.49029e-07
0.00109693
-6.01564e-07
1.03527e-06
3.71623e-08
5.78399e-07
-7.38176e-07
-1.37339e-06
-7.28929e-08
-1.57743e-06
1.13199e-06
5.51371e-07
0.00109737
-6.02097e-07
1.03753e-06
3.64287e-08
5.84045e-07