/*--------------------------------*- C++ -*----------------------------------*\
| =========                 |                                                 |
| \\      /  F ield         | OpenFOAM: The Open Source CFD Toolbox           |
|  \\    /   O peration     | Version:  v1906                                 |
|   \\  /    A nd           | Web:      www.OpenFOAM.com                      |
|    \\/     M anipulation  |                                                 |
\*---------------------------------------------------------------------------*/
FoamFile
{
    version     2.0;
    format      ascii;
    class       volScalarField;
    location    "550";
    object      epsilon;
}
// * * * * * * * * * * * * * * * * * * * * * * * * * * * * * * * * * * * * * //

dimensions      [0 2 -3 0 0 0 0];


internalField   nonuniform List<scalar> 
171728
(
1.14831e-06
8.63015e-07
8.62981e-07
1.14812e-06
8.62774e-07
8.63057e-07
8.62799e-07
8.63045e-07
1.14866e-06
8.62935e-07
8.62903e-07
1.14817e-06
3.19683e-07
3.19672e-07
3.19765e-07
3.19761e-07
1.84272e-05
1.8429e-05
5.46201e-06
5.46326e-06
4.09153e-06
9.16107e-06
4.09373e-06
4.0917e-06
9.16202e-06
9.15555e-06
4.09376e-06
2.10217e-06
3.47466e-06
5.58163e-07
5.52258e-07
2.10678e-06
2.10223e-06
8.5691e-07
3.47527e-06
5.58208e-07
3.47199e-06
5.52316e-07
2.10686e-06
1.84288e-05
1.84185e-05
1.14433e-06
5.46351e-06
5.46195e-06
5.46128e-06
5.45935e-06
1.84262e-05
1.84158e-05
9.16287e-06
4.0936e-06
3.47542e-06
5.58272e-07
2.10689e-06
9.16228e-06
4.09346e-06
5.58286e-07
3.47517e-06
2.10684e-06
2.10234e-06
8.56727e-07
3.47497e-06
5.58202e-07
3.47136e-06
5.52309e-07
2.10694e-06
4.09179e-06
9.16188e-06
9.15537e-06
4.09371e-06
2.10229e-06
8.56968e-07
5.58278e-07
3.47504e-06
5.52387e-07
3.47143e-06
2.10692e-06
4.09169e-06
9.16195e-06
9.15548e-06
4.09364e-06
1.84295e-05
5.4636e-06
5.46205e-06
1.8428e-05
2.10231e-06
5.58305e-07
3.4749e-06
5.52399e-07
2.10706e-06
2.10233e-06
8.5683e-07
5.58308e-07
3.47531e-06
5.52416e-07
3.47238e-06
2.10696e-06
4.09151e-06
9.16222e-06
4.09382e-06
4.09157e-06
9.16307e-06
9.15643e-06
4.09388e-06
1.14461e-06
5.46223e-06
5.46384e-06
5.4594e-06
5.46139e-06
1.84282e-05
1.84179e-05
1.84299e-05
1.84196e-05
1.8422e-05
1.84243e-05
4.53811e-06
2.81202e-06
5.46178e-06
9.50044e-06
9.49679e-06
2.81008e-06
4.54046e-06
4.54437e-06
2.81177e-06
5.46365e-06
9.50335e-06
9.50115e-06
2.81168e-06
4.54266e-06
9.73609e-06
2.17306e-05
2.17284e-05
2.17238e-05
2.17226e-05
9.7356e-06
1.22031e-05
1.08238e-05
4.74411e-06
4.09183e-06
1.22002e-05
1.08266e-05
4.74426e-06
2.20535e-05
9.15804e-06
7.08829e-06
7.08882e-06
2.20604e-05
1.22036e-05
4.09337e-06
1.08299e-05
4.74588e-06
1.08269e-05
4.74574e-06
1.22066e-05
1.22033e-05
1.08244e-05
4.7444e-06
4.09161e-06
1.22007e-05
1.08264e-05
4.74462e-06
2.20544e-05
9.15954e-06
7.0901e-06
7.09046e-06
2.2061e-05
2.20564e-05
7.08947e-06
9.15807e-06
2.20498e-05
7.08909e-06
1.22041e-05
4.09371e-06
1.08296e-05
4.74622e-06
1.08276e-05
4.74599e-06
1.22067e-05
1.84239e-05
1.84234e-05
9.73343e-06
2.17176e-05
2.17182e-05
9.73383e-06
2.17238e-05
2.17245e-05
4.54464e-06
2.81214e-06
5.46366e-06
9.50403e-06
2.81165e-06
9.5011e-06
4.54451e-06
4.53839e-06
2.81098e-06
5.46169e-06
9.49971e-06
9.49608e-06
2.81046e-06
4.53886e-06
4.54198e-06
9.4964e-06
2.80842e-06
5.46135e-06
2.80897e-06
4.54199e-06
9.49939e-06
4.53623e-06
9.49145e-06
2.80721e-06
5.45961e-06
4.53578e-06
9.49499e-06
2.8078e-06
9.73581e-06
2.17289e-05
2.17295e-05
2.17226e-05
2.17232e-05
9.73542e-06
1.84212e-05
1.84208e-05
2.2054e-05
9.15996e-06
7.08995e-06
7.09029e-06
2.20606e-05
1.22039e-05
4.09345e-06
4.74616e-06
1.08306e-05
4.74587e-06
1.08276e-05
1.22073e-05
2.2054e-05
9.15966e-06
7.08853e-06
7.08904e-06
2.20609e-05
1.22043e-05
4.09365e-06
1.08299e-05
4.74589e-06
1.08278e-05
4.74588e-06
1.22071e-05
1.22029e-05
4.74435e-06
1.08246e-05
4.09188e-06
1.22004e-05
4.74427e-06
1.08266e-05
2.2053e-05
9.15937e-06
7.08958e-06
7.08995e-06
2.20596e-05
2.2055e-05
7.08895e-06
9.15792e-06
2.20484e-05
7.08857e-06
1.22038e-05
4.09368e-06
4.74609e-06
1.08298e-05
4.746e-06
1.08278e-05
1.22063e-05
1.22034e-05
1.08245e-05
4.7442e-06
4.09175e-06
1.22009e-05
1.08265e-05
4.74426e-06
2.2054e-05
9.15947e-06
7.08824e-06
7.08862e-06
2.20606e-05
2.20559e-05
7.08763e-06
9.15799e-06
2.20494e-05
7.08723e-06
1.22043e-05
4.0936e-06
1.08297e-05
4.74585e-06
1.08277e-05
4.74581e-06
1.22067e-05
1.84245e-05
4.54476e-06
2.81256e-06
5.46356e-06
9.50409e-06
2.8116e-06
9.50115e-06
4.54518e-06
4.53883e-06
2.8115e-06
5.4619e-06
9.49946e-06
9.49654e-06
2.81057e-06
4.53915e-06
9.73667e-06
2.17299e-05
2.17303e-05
2.17236e-05
2.17239e-05
9.7363e-06
1.8423e-05
1.22035e-05
4.74401e-06
1.08243e-05
4.09195e-06
1.22004e-05
4.74428e-06
1.08272e-05
2.20538e-05
9.15923e-06
7.0882e-06
7.08854e-06
2.20604e-05
2.20557e-05
7.08717e-06
1.22037e-05
4.09342e-06
4.7459e-06
1.08305e-05
4.74562e-06
1.08275e-05
1.22072e-05
1.22033e-05
4.7444e-06
1.08244e-05
4.09201e-06
1.22004e-05
4.74453e-06
1.08273e-05
2.20536e-05
9.16024e-06
7.08988e-06
7.09038e-06
2.20605e-05
2.20559e-05
7.08939e-06
9.15901e-06
2.2049e-05
7.08887e-06
1.22038e-05
4.09348e-06
4.74612e-06
1.08305e-05
4.746e-06
1.08275e-05
1.22068e-05
9.73401e-06
2.17189e-05
2.17182e-05
9.7344e-06
2.17252e-05
2.17245e-05
4.53865e-06
2.81105e-06
5.46173e-06
9.4996e-06
2.81047e-06
9.49665e-06
4.53911e-06
4.54483e-06
2.81233e-06
5.46376e-06
9.50434e-06
2.81176e-06
9.5014e-06
4.54493e-06
4.53648e-06
9.49183e-06
2.80719e-06
5.45986e-06
4.53602e-06
2.8081e-06
9.49502e-06
4.5423e-06
9.49667e-06
2.80855e-06
5.46156e-06
4.54218e-06
2.80916e-06
9.49969e-06
9.73639e-06
2.17302e-05
2.17295e-05
2.1724e-05
2.17232e-05
9.73598e-06
1.84233e-05
1.84228e-05
1.84249e-05
1.84245e-05
2.66821e-06
1.14936e-06
1.76789e-06
1.76755e-06
1.76773e-06
1.76792e-06
2.66806e-06
2.66822e-06
1.14936e-06
1.7675e-06
1.76736e-06
1.76811e-06
1.76795e-06
2.66799e-06
2.66799e-06
1.14931e-06
1.76829e-06
1.7683e-06
1.76788e-06
1.76777e-06
2.66869e-06
2.66796e-06
1.1495e-06
1.76753e-06
1.7677e-06
1.76783e-06
1.7681e-06
2.66865e-06
1.6658e-07
1.66578e-07
1.6447e-07
7.93924e-08
7.99343e-08
3.15732e-07
1.66584e-07
1.66545e-07
1.64472e-07
1.64435e-07
7.93882e-08
7.99295e-08
1.66639e-07
1.66604e-07
1.6449e-07
7.94096e-08
7.99523e-08
3.15817e-07
1.66628e-07
1.66601e-07
1.64514e-07
1.64489e-07
7.94074e-08
7.99499e-08
1.40943e-06
2.36147e-06
1.2738e-06
2.10311e-06
1.41206e-06
2.36231e-06
1.27316e-06
1.6181e-06
2.03172e-06
3.47428e-06
2.86022e-06
2.03197e-06
2.85963e-06
1.61583e-06
1.4171e-06
2.10584e-06
2.36569e-06
1.27813e-06
2.36486e-06
1.27945e-06
1.41453e-06
1.40961e-06
2.36175e-06
1.27384e-06
2.10318e-06
1.41226e-06
2.36258e-06
1.27319e-06
1.61855e-06
2.03202e-06
3.47516e-06
2.8608e-06
2.8601e-06
2.03214e-06
1.61604e-06
1.61186e-06
2.85717e-06
2.02802e-06
3.47211e-06
1.61363e-06
2.85781e-06
2.02811e-06
1.41742e-06
2.1059e-06
2.36593e-06
1.27816e-06
2.36513e-06
1.27952e-06
1.41446e-06
2.6648e-06
1.14322e-06
1.76376e-06
1.76363e-06
1.76366e-06
2.66475e-06
1.76352e-06
1.61833e-06
2.03209e-06
3.47478e-06
2.86037e-06
2.0324e-06
2.86011e-06
1.61588e-06
1.41745e-06
2.106e-06
2.36593e-06
1.27817e-06
2.36508e-06
1.2798e-06
1.41416e-06
1.6169e-06
2.03238e-06
3.47507e-06
2.86036e-06
2.85973e-06
2.03217e-06
1.61719e-06
1.41556e-06
2.10591e-06
1.27827e-06
2.36579e-06
1.27948e-06
2.36487e-06
1.41541e-06
1.41063e-06
2.36174e-06
1.27335e-06
2.10327e-06
1.411e-06
2.36257e-06
1.274e-06
1.61743e-06
2.03248e-06
3.47446e-06
2.86065e-06
2.03146e-06
2.85992e-06
1.61727e-06
1.61203e-06
2.85699e-06
2.02734e-06
3.47218e-06
1.61333e-06
2.02822e-06
2.85763e-06
1.41623e-06
2.106e-06
2.36596e-06
1.27946e-06
2.36513e-06
1.27871e-06
1.41587e-06
1.40954e-06
1.27353e-06
2.36163e-06
2.10323e-06
1.41216e-06
1.27401e-06
2.36243e-06
1.61772e-06
2.03151e-06
3.47435e-06
2.85999e-06
2.85983e-06
2.03193e-06
1.61587e-06
1.61204e-06
2.85686e-06
2.02758e-06
3.47218e-06
1.61221e-06
2.85708e-06
2.0279e-06
1.41721e-06
2.10593e-06
1.2795e-06
2.36578e-06
1.27885e-06
2.36501e-06
1.41457e-06
1.4111e-06
1.2734e-06
2.36167e-06
2.10335e-06
1.41097e-06
1.27418e-06
2.36245e-06
1.61696e-06
2.03217e-06
3.47471e-06
2.85992e-06
2.03205e-06
2.85964e-06
1.61725e-06
1.61264e-06
2.85724e-06
1.41597e-06
2.10595e-06
1.27948e-06
2.36584e-06
1.27871e-06
2.36501e-06
1.41609e-06
1.41045e-06
1.27347e-06
2.36179e-06
2.10329e-06
1.41115e-06
1.27411e-06
2.36254e-06
1.61701e-06
2.03237e-06
3.47526e-06
2.86081e-06
2.86021e-06
2.03242e-06
1.61701e-06
1.61288e-06
2.85733e-06
2.02805e-06
3.47238e-06
1.61248e-06
2.85754e-06
2.02816e-06
1.41658e-06
2.10603e-06
1.27956e-06
2.36594e-06
1.27884e-06
2.3652e-06
1.41536e-06
2.66539e-06
1.1434e-06
1.76358e-06
1.76395e-06
2.66443e-06
1.76357e-06
1.76392e-06
6.51808e-07
1.18282e-06
1.18288e-06
1.41517e-06
1.41809e-06
1.41512e-06
1.41588e-06
1.18288e-06
1.18292e-06
1.18521e-06
1.18524e-06
1.4151e-06
1.4158e-06
1.18279e-06
1.18291e-06
1.18512e-06
1.18524e-06
1.18293e-06
1.18515e-06
1.18526e-06
1.41516e-06
1.41586e-06
1.18284e-06
1.1852e-06
1.18517e-06
1.41588e-06
1.18598e-06
1.18589e-06
4.23627e-06
9.54926e-06
9.55406e-06
4.23571e-06
1.90609e-05
1.90714e-05
4.23644e-06
9.55111e-06
9.55626e-06
4.2358e-06
6.51823e-07
6.51911e-07
6.51899e-07
6.56467e-07
6.56482e-07
6.56568e-07
6.56558e-07
2.29401e-06
3.64445e-06
9.29825e-07
1.18362e-06
3.64489e-06
9.30933e-07
2.29369e-06
1.90618e-05
1.90724e-05
2.29398e-06
9.29878e-07
3.64445e-06
1.18368e-06
9.30985e-07
3.64494e-06
2.29365e-06
5.64515e-06
5.64707e-06
1.41443e-06
5.64623e-06
5.64817e-06
5.64952e-06
5.65143e-06
1.90593e-05
1.90698e-05
1.90617e-05
1.90722e-05
5.64505e-06
5.64695e-06
1.41444e-06
5.64618e-06
5.64804e-06
1.90809e-05
1.90705e-05
1.90833e-05
1.90729e-05
1.41663e-06
5.64835e-06
5.65022e-06
5.64726e-06
5.64917e-06
4.23638e-06
9.55043e-06
9.55522e-06
4.23581e-06
2.29388e-06
3.64422e-06
9.29755e-07
1.18369e-06
3.64472e-06
9.30864e-07
2.29362e-06
2.29394e-06
3.64475e-06
9.29798e-07
1.18372e-06
3.64523e-06
9.30905e-07
2.29368e-06
4.23704e-06
9.55991e-06
9.55511e-06
4.23756e-06
4.23715e-06
9.56101e-06
9.55629e-06
4.23767e-06
2.29446e-06
1.18448e-06
3.64598e-06
9.32976e-07
3.64553e-06
9.31952e-07
2.29467e-06
2.29452e-06
1.18451e-06
3.64649e-06
9.33017e-07
3.64606e-06
9.31993e-07
2.29473e-06
5.64685e-06
5.64522e-06
1.41436e-06
5.64792e-06
5.64616e-06
1.90586e-05
1.90692e-05
1.90824e-05
1.90721e-05
1.41662e-06
5.6501e-06
5.64833e-06
5.64907e-06
5.64744e-06
1.90802e-05
1.90698e-05
2.29405e-06
3.64499e-06
9.29812e-07
1.18359e-06
3.64543e-06
9.3094e-07
2.29372e-06
4.23635e-06
9.55044e-06
9.55559e-06
4.23571e-06
2.29396e-06
9.29832e-07
3.6448e-06
1.18372e-06
9.30939e-07
3.64524e-06
2.29364e-06
4.23714e-06
9.56204e-06
9.55697e-06
4.23773e-06
2.29456e-06
1.18438e-06
3.64669e-06
9.33052e-07
3.64629e-06
9.32008e-07
2.29482e-06
4.23704e-06
9.56135e-06
9.55631e-06
4.23764e-06
2.29448e-06
1.18451e-06
9.33051e-07
3.6465e-06
9.32027e-07
3.64611e-06
2.29474e-06
4.23646e-06
9.55046e-06
9.55525e-06
4.23587e-06
2.29392e-06
9.29833e-07
3.64432e-06
1.18373e-06
9.30938e-07
3.6448e-06
2.29365e-06
4.23634e-06
9.55033e-06
9.55511e-06
4.23577e-06
2.29454e-06
1.18441e-06
3.64614e-06
9.33045e-07
3.64575e-06
9.32021e-07
2.29479e-06
4.2372e-06
9.56102e-06
9.55632e-06
4.23775e-06
2.29449e-06
1.18453e-06
9.3305e-07
3.64606e-06
9.3203e-07
3.64562e-06
2.2947e-06
4.23711e-06
9.5609e-06
9.55619e-06
4.23763e-06
5.64697e-06
5.6452e-06
1.41442e-06
5.64792e-06
5.64629e-06
1.90606e-05
1.90711e-05
1.90834e-05
1.9073e-05
1.41667e-06
5.6501e-06
5.64847e-06
5.64919e-06
5.64741e-06
1.90821e-05
1.90717e-05
2.29401e-06
9.29882e-07
3.64494e-06
1.18364e-06
9.30987e-07
3.64542e-06
2.29368e-06
4.23636e-06
9.55043e-06
9.5556e-06
4.23579e-06
4.23641e-06
9.55113e-06
9.55629e-06
4.23576e-06
2.29449e-06
1.18447e-06
9.33095e-07
3.6462e-06
9.32072e-07
3.64575e-06
2.29476e-06
2.29452e-06
1.18443e-06
9.33098e-07
3.64667e-06
9.32077e-07
3.64624e-06
2.29479e-06
4.23712e-06
9.56136e-06
9.55631e-06
4.23765e-06
4.2371e-06
9.56207e-06
9.557e-06
4.23769e-06
1.90604e-05
1.90709e-05
1.90623e-05
1.90728e-05
1.41669e-06
5.6484e-06
5.65035e-06
5.64737e-06
5.64928e-06
1.90819e-05
1.90716e-05
1.90838e-05
1.90734e-05
9.34061e-07
3.64686e-06
2.29524e-06
9.56196e-06
4.23838e-06
3.64747e-06
9.56274e-06
1.90826e-05
1.90844e-05
1.26397e-05
1.12327e-05
4.88158e-06
4.23639e-06
1.12305e-05
4.88171e-06
1.26434e-05
2.2738e-05
9.55117e-06
7.23777e-06
7.23741e-06
2.27308e-05
2.27373e-05
7.23869e-06
9.55221e-06
7.23906e-06
2.27444e-05
1.26395e-05
4.2356e-06
1.1227e-05
4.88097e-06
1.12293e-05
4.88084e-06
1.26358e-05
1.90658e-05
1.90665e-05
1.26402e-05
4.88192e-06
1.12335e-05
4.23649e-06
4.88195e-06
1.12312e-05
1.26438e-05
2.27379e-05
9.55335e-06
7.23924e-06
7.23906e-06
2.2731e-05
2.27375e-05
7.24034e-06
9.55405e-06
7.24053e-06
2.27444e-05
1.26399e-05
4.23577e-06
4.8812e-06
1.12276e-05
4.88116e-06
1.12301e-05
1.26362e-05
1.90668e-05
1.90674e-05
9.95766e-06
2.23738e-05
2.2373e-05
2.23676e-05
2.23667e-05
9.95733e-06
4.70053e-06
2.9731e-06
5.64511e-06
9.91418e-06
2.97293e-06
9.91608e-06
4.70087e-06
4.70627e-06
2.97429e-06
5.64707e-06
9.9186e-06
2.97413e-06
9.92114e-06
4.70659e-06
4.70159e-06
9.91901e-06
5.64627e-06
2.97335e-06
2.97352e-06
9.91712e-06
4.70124e-06
4.70731e-06
9.92406e-06
5.64818e-06
2.97455e-06
2.97471e-06
9.92156e-06
4.70698e-06
9.95552e-06
2.23617e-05
2.23609e-05
2.2368e-05
2.23672e-05
9.95585e-06
4.70326e-06
2.97466e-06
9.92583e-06
5.64946e-06
4.70363e-06
2.97448e-06
9.92759e-06
4.709e-06
2.97585e-06
9.9302e-06
5.65142e-06
4.70935e-06
2.97568e-06
9.93278e-06
9.96265e-06
2.23848e-05
2.2384e-05
9.96301e-06
2.2391e-05
2.23902e-05
1.90642e-05
1.90649e-05
1.90667e-05
1.90673e-05
9.9576e-06
2.23739e-05
2.23731e-05
2.23676e-05
2.23669e-05
9.95727e-06
4.70055e-06
2.9731e-06
5.64506e-06
9.91391e-06
9.91645e-06
2.97295e-06
4.70087e-06
4.70626e-06
2.97427e-06
5.64693e-06
9.91909e-06
9.92107e-06
2.9741e-06
4.70657e-06
4.70159e-06
9.91938e-06
5.64617e-06
2.97337e-06
9.91688e-06
4.70126e-06
2.97353e-06
4.70729e-06
9.92395e-06
5.64807e-06
2.97452e-06
9.92206e-06
4.70697e-06
2.97469e-06
9.95546e-06
2.23618e-05
2.23611e-05
2.23681e-05
2.23673e-05
9.95578e-06
1.9076e-05
1.90754e-05
1.90784e-05
1.90778e-05
9.95906e-06
2.23735e-05
2.23727e-05
9.9594e-06
2.23797e-05
2.23789e-05
4.70297e-06
2.97414e-06
5.64835e-06
9.92521e-06
9.9227e-06
2.97431e-06
4.70263e-06
4.70867e-06
2.97529e-06
5.65026e-06
9.92977e-06
9.92789e-06
2.97547e-06
4.70833e-06
4.70195e-06
9.91984e-06
2.97393e-06
5.64726e-06
4.70229e-06
9.92229e-06
2.97377e-06
4.70766e-06
9.92501e-06
2.97509e-06
5.64914e-06
4.70799e-06
9.92691e-06
2.97492e-06
9.96119e-06
2.23854e-05
2.23847e-05
2.23792e-05
2.23785e-05
9.96084e-06
1.26404e-05
1.12329e-05
4.88186e-06
4.23649e-06
1.12307e-05
4.88196e-06
1.26429e-05
2.2738e-05
9.55231e-06
7.2393e-06
7.23911e-06
2.27311e-05
2.27375e-05
7.24038e-06
9.55336e-06
7.24058e-06
2.27444e-05
1.26391e-05
4.2357e-06
1.12271e-05
4.88121e-06
1.12294e-05
4.88112e-06
1.26366e-05
1.26473e-05
1.1234e-05
4.88244e-06
4.23693e-06
1.26436e-05
1.12363e-05
4.8823e-06
2.27501e-05
9.558e-06
7.2412e-06
2.27572e-05
7.24159e-06
2.27508e-05
7.24033e-06
9.55701e-06
2.27437e-05
7.23995e-06
1.26474e-05
4.23768e-06
1.12397e-05
4.88301e-06
1.2651e-05
1.12375e-05
4.88315e-06
1.26468e-05
1.12342e-05
4.88269e-06
4.23703e-06
1.26443e-05
1.12364e-05
4.88259e-06
2.27503e-05
9.55919e-06
7.2429e-06
7.24311e-06
2.27572e-05
2.27508e-05
7.24185e-06
9.55816e-06
2.27439e-05
7.24165e-06
1.26481e-05
4.23779e-06
1.12399e-05
4.8833e-06
1.12377e-05
4.8834e-06
1.26506e-05
9.9572e-06
2.23724e-05
2.23732e-05
2.23661e-05
2.2367e-05
9.95687e-06
4.70608e-06
2.97417e-06
5.6468e-06
9.91864e-06
9.92053e-06
2.97399e-06
4.70642e-06
4.70037e-06
2.97306e-06
5.64504e-06
9.91412e-06
2.97288e-06
9.91601e-06
4.7007e-06
4.70714e-06
9.92347e-06
5.64797e-06
2.97441e-06
9.92158e-06
2.97459e-06
4.70679e-06
4.70142e-06
9.91894e-06
5.64633e-06
2.9733e-06
2.97348e-06
9.91706e-06
4.70108e-06
9.95506e-06
2.23603e-05
2.23611e-05
2.23666e-05
2.23674e-05
9.95538e-06
1.90636e-05
1.90642e-05
1.90776e-05
1.90769e-05
9.95867e-06
2.2372e-05
2.23728e-05
9.959e-06
2.23782e-05
2.2379e-05
4.70852e-06
2.97518e-06
5.65015e-06
9.9294e-06
2.97538e-06
9.92733e-06
4.70816e-06
4.7028e-06
2.97407e-06
5.64852e-06
9.92477e-06
9.92292e-06
2.97426e-06
4.70245e-06
4.70748e-06
9.92455e-06
2.97499e-06
5.64902e-06
2.97481e-06
4.70784e-06
9.92647e-06
4.70177e-06
9.92003e-06
2.97388e-06
5.64726e-06
4.70212e-06
9.92191e-06
2.9737e-06
9.96079e-06
2.2384e-05
2.23848e-05
2.23777e-05
2.23786e-05
9.96045e-06
1.90753e-05
1.90747e-05
1.26402e-05
1.12333e-05
4.8817e-06
4.23638e-06
1.1231e-05
4.88181e-06
1.26438e-05
2.27382e-05
9.55268e-06
7.23796e-06
7.23761e-06
2.2731e-05
2.27375e-05
7.2389e-06
9.55338e-06
7.23925e-06
2.27446e-05
1.26399e-05
4.23568e-06
1.12275e-05
4.88107e-06
1.12298e-05
4.88096e-06
1.26365e-05
1.26476e-05
4.88268e-06
1.12347e-05
4.23708e-06
1.2644e-05
4.88262e-06
1.1237e-05
2.27502e-05
9.55985e-06
7.24285e-06
2.27571e-05
7.24305e-06
2.27507e-05
7.24179e-06
9.55915e-06
2.27439e-05
7.2416e-06
1.26479e-05
4.23779e-06
4.88334e-06
1.12404e-05
1.26514e-05
4.8834e-06
1.12382e-05
1.26477e-05
1.12345e-05
4.88254e-06
4.23701e-06
1.2644e-05
1.12368e-05
4.88243e-06
2.27502e-05
9.55918e-06
7.24142e-06
7.24178e-06
2.27573e-05
2.2751e-05
7.24052e-06
9.55847e-06
2.27439e-05
7.24016e-06
1.26478e-05
4.23768e-06
1.12403e-05
4.88314e-06
1.1238e-05
4.88326e-06
1.26515e-05
1.26398e-05
4.88181e-06
1.12336e-05
4.23655e-06
4.88185e-06
1.12306e-05
1.26435e-05
2.27372e-05
9.55236e-06
7.23886e-06
7.23868e-06
2.27302e-05
2.27367e-05
7.23995e-06
9.5534e-06
7.24014e-06
2.27436e-05
1.26396e-05
4.23579e-06
4.88111e-06
1.12272e-05
4.88107e-06
1.12301e-05
1.26359e-05
1.26407e-05
1.12331e-05
4.88155e-06
4.23645e-06
1.12309e-05
4.88165e-06
1.26432e-05
2.27377e-05
9.5522e-06
7.23739e-06
7.2372e-06
2.27307e-05
2.27372e-05
7.23848e-06
9.55326e-06
7.23868e-06
2.27441e-05
1.26393e-05
4.23567e-06
1.12274e-05
4.8809e-06
1.12296e-05
4.88081e-06
1.26368e-05
1.26473e-05
4.88258e-06
1.12342e-05
4.23712e-06
1.26437e-05
4.88253e-06
1.12371e-05
2.27495e-05
9.55922e-06
7.24246e-06
7.24266e-06
2.27564e-05
2.275e-05
7.24141e-06
9.55818e-06
2.27431e-05
7.24122e-06
1.26475e-05
4.23784e-06
4.88324e-06
1.12406e-05
4.88329e-06
1.12377e-05
1.2651e-05
1.2647e-05
1.12344e-05
4.88238e-06
4.23699e-06
1.26445e-05
1.12366e-05
4.88228e-06
2.275e-05
9.55908e-06
7.241e-06
7.24121e-06
2.27568e-05
2.27505e-05
7.23995e-06
9.55805e-06
2.27436e-05
7.23974e-06
1.26484e-05
4.23775e-06
1.12401e-05
4.88299e-06
1.12379e-05
4.88309e-06
1.26508e-05
9.9581e-06
2.23736e-05
2.2374e-05
2.23673e-05
2.23678e-05
9.95777e-06
4.70642e-06
2.97425e-06
5.64681e-06
9.91844e-06
9.92082e-06
2.97406e-06
4.70676e-06
4.70072e-06
2.97321e-06
5.64517e-06
9.91424e-06
2.97304e-06
9.91614e-06
4.70107e-06
4.70748e-06
9.92359e-06
5.64809e-06
2.97447e-06
9.92162e-06
2.97467e-06
4.70712e-06
4.70179e-06
9.91908e-06
5.64631e-06
2.97346e-06
2.97363e-06
9.91718e-06
4.70143e-06
9.95596e-06
2.23615e-05
2.23619e-05
2.23677e-05
2.23682e-05
9.95628e-06
1.90655e-05
1.90662e-05
1.90785e-05
1.90779e-05
9.95956e-06
2.23731e-05
2.23736e-05
9.9599e-06
2.23794e-05
2.23798e-05
4.70886e-06
2.97525e-06
5.65028e-06
9.92936e-06
2.97545e-06
9.9275e-06
4.70849e-06
4.70317e-06
2.97423e-06
5.6485e-06
9.92493e-06
9.923e-06
2.97441e-06
4.7028e-06
4.70782e-06
9.92458e-06
2.97507e-06
5.64902e-06
2.97487e-06
4.70818e-06
9.9265e-06
4.70212e-06
9.92015e-06
2.97403e-06
5.64739e-06
4.70249e-06
9.92205e-06
2.97385e-06
9.96169e-06
2.23851e-05
2.23856e-05
2.23789e-05
2.23794e-05
9.96134e-06
1.90773e-05
1.90766e-05
1.26399e-05
4.88163e-06
1.12331e-05
4.23647e-06
4.88174e-06
1.12309e-05
1.26436e-05
2.27381e-05
9.5527e-06
7.23756e-06
7.23739e-06
2.27311e-05
2.27376e-05
7.23867e-06
9.55338e-06
7.23885e-06
2.27445e-05
1.26398e-05
4.23568e-06
4.881e-06
1.12271e-05
4.88088e-06
1.12298e-05
1.2636e-05
1.26401e-05
4.88179e-06
1.12335e-05
4.23644e-06
4.88195e-06
1.12305e-05
1.26426e-05
2.27372e-05
9.55338e-06
7.23929e-06
7.23891e-06
2.273e-05
2.27365e-05
7.24019e-06
9.55408e-06
7.24058e-06
2.27436e-05
1.26388e-05
4.23574e-06
4.88121e-06
1.12271e-05
4.88105e-06
1.123e-05
1.26362e-05
1.26475e-05
4.88246e-06
1.12343e-05
4.237e-06
1.26438e-05
4.88234e-06
1.12366e-05
2.27504e-05
9.55918e-06
7.24118e-06
7.24137e-06
2.27572e-05
2.27509e-05
7.24012e-06
9.55848e-06
2.2744e-05
7.23993e-06
1.26476e-05
4.23776e-06
4.88306e-06
1.12401e-05
4.88318e-06
1.12379e-05
1.26512e-05
1.26465e-05
4.88267e-06
1.12341e-05
4.23705e-06
1.26439e-05
4.88251e-06
1.1237e-05
2.27493e-05
9.55988e-06
7.2427e-06
7.2431e-06
2.27564e-05
2.275e-05
7.24185e-06
9.55918e-06
2.27429e-05
7.24145e-06
1.26478e-05
4.23774e-06
4.88322e-06
1.12402e-05
4.88339e-06
1.12379e-05
1.26503e-05
1.90653e-05
1.9066e-05
1.90672e-05
1.90679e-05
9.95912e-06
2.23734e-05
2.23725e-05
9.95946e-06
2.23796e-05
2.23788e-05
4.70297e-06
2.97412e-06
5.64845e-06
9.92482e-06
4.7026e-06
2.9743e-06
9.92296e-06
4.70869e-06
2.97532e-06
5.65037e-06
9.92982e-06
4.70834e-06
2.97549e-06
9.92737e-06
4.70193e-06
9.92008e-06
2.97392e-06
5.64733e-06
4.70228e-06
2.97374e-06
9.92198e-06
4.70767e-06
9.92452e-06
2.97511e-06
5.64927e-06
4.70801e-06
2.97494e-06
9.92694e-06
9.96124e-06
2.23853e-05
2.23845e-05
9.96089e-06
2.23791e-05
2.23783e-05
1.90771e-05
1.90764e-05
1.90789e-05
1.90783e-05
2.27631e-05
7.24245e-06
9.56369e-06
2.27563e-05
7.24223e-06
1.26545e-05
4.23825e-06
1.12413e-05
4.88379e-06
1.26521e-05
1.12437e-05
4.88368e-06
9.56494e-06
1.90874e-05
1.90892e-05
4.4171e-07
4.41671e-07
6.53393e-07
4.43597e-07
4.43563e-07
2.35585e-07
2.33655e-07
2.82686e-06
1.96713e-06
1.96738e-06
1.41366e-06
1.96645e-06
1.96668e-06
2.82717e-06
2.82816e-06
1.96864e-06
1.96889e-06
1.41654e-06
2.82849e-06
1.96793e-06
1.96816e-06
2.82689e-06
1.96714e-06
1.96737e-06
1.41367e-06
1.96646e-06
1.96668e-06
2.8272e-06
2.82823e-06
1.41734e-06
1.96761e-06
1.96783e-06
1.96831e-06
1.96854e-06
2.8279e-06
2.82678e-06
1.96727e-06
1.96716e-06
1.41359e-06
1.96646e-06
1.96656e-06
2.82711e-06
2.82814e-06
1.41733e-06
1.96771e-06
1.96761e-06
1.96844e-06
1.96833e-06
2.8278e-06
2.82692e-06
1.9673e-06
1.96721e-06
1.41365e-06
1.96652e-06
1.96659e-06
2.82723e-06
2.82825e-06
1.41739e-06
1.96774e-06
1.96768e-06
1.96846e-06
1.96838e-06
2.82793e-06
2.82819e-06
1.4174e-06
1.96759e-06
1.96782e-06
2.82787e-06
1.9683e-06
1.96854e-06
4.4172e-07
4.41673e-07
6.53408e-07
4.43608e-07
4.43561e-07
2.35584e-07
2.33655e-07
4.418e-07
4.41764e-07
6.53495e-07
4.43688e-07
4.43651e-07
2.35655e-07
2.33725e-07
4.41791e-07
4.41756e-07
6.53485e-07
4.43682e-07
4.43643e-07
2.35651e-07
2.33721e-07
6.54959e-07
4.47284e-07
4.4725e-07
4.45467e-07
4.45429e-07
2.37512e-07
2.39415e-07
6.54975e-07
4.47295e-07
4.47249e-07
4.45478e-07
4.45431e-07
2.37512e-07
2.39414e-07
6.55061e-07
4.47375e-07
4.47337e-07
4.45558e-07
4.45521e-07
2.37582e-07
2.39485e-07
6.55049e-07
4.4737e-07
4.47329e-07
4.45548e-07
4.45513e-07
2.37577e-07
2.39481e-07
1.66435e-06
2.53954e-06
1.54149e-06
2.29413e-06
2.53975e-06
1.5424e-06
1.66302e-06
1.8415e-06
2.22235e-06
3.64423e-06
3.02094e-06
2.22186e-06
3.02057e-06
1.84265e-06
1.84316e-06
3.02104e-06
3.64511e-06
2.22222e-06
2.22271e-06
3.02141e-06
1.84198e-06
1.6625e-06
2.29359e-06
2.53935e-06
1.5418e-06
2.53914e-06
1.54092e-06
1.66385e-06
1.66425e-06
1.54152e-06
2.53937e-06
2.29409e-06
1.54236e-06
2.53957e-06
1.66303e-06
1.84146e-06
2.22239e-06
3.64428e-06
3.02055e-06
2.22191e-06
3.02023e-06
1.84255e-06
1.84306e-06
3.0207e-06
3.64511e-06
2.22227e-06
2.22276e-06
3.02103e-06
1.84201e-06
1.66247e-06
2.29354e-06
1.54178e-06
2.53917e-06
1.54094e-06
2.53896e-06
1.66376e-06
2.82753e-06
1.41594e-06
1.96685e-06
1.96708e-06
1.96755e-06
1.96779e-06
2.82721e-06
2.82756e-06
1.41589e-06
1.96687e-06
1.96709e-06
2.82725e-06
1.96756e-06
1.96779e-06
2.82758e-06
1.41517e-06
1.96795e-06
1.96817e-06
2.82791e-06
1.96725e-06
1.96747e-06
1.66459e-06
2.53931e-06
1.54137e-06
2.29405e-06
2.53952e-06
1.54236e-06
1.66257e-06
1.84126e-06
2.22231e-06
3.64406e-06
3.0205e-06
3.02015e-06
2.22183e-06
1.84254e-06
1.8431e-06
3.02063e-06
3.64489e-06
2.22219e-06
3.02098e-06
2.22267e-06
1.84172e-06
1.66211e-06
2.29345e-06
2.53911e-06
1.54177e-06
2.53891e-06
1.54079e-06
1.66394e-06
1.66438e-06
2.53956e-06
1.54143e-06
2.29411e-06
2.53978e-06
1.54239e-06
1.66289e-06
1.84151e-06
2.22266e-06
3.64457e-06
3.0211e-06
3.02072e-06
2.22216e-06
1.84276e-06
1.8433e-06
3.02119e-06
3.64542e-06
2.22252e-06
3.02158e-06
1.84199e-06
2.22302e-06
1.66245e-06
2.29351e-06
2.53938e-06
1.5418e-06
2.53917e-06
1.54085e-06
1.66386e-06
1.66298e-06
2.5399e-06
1.54292e-06
2.29428e-06
1.66509e-06
2.53968e-06
1.54193e-06
1.84429e-06
2.22283e-06
3.64616e-06
3.02151e-06
2.22334e-06
3.02188e-06
1.84253e-06
1.84214e-06
3.02144e-06
2.22301e-06
3.64536e-06
2.22252e-06
1.84368e-06
3.02108e-06
1.66564e-06
2.29485e-06
2.54004e-06
1.54244e-06
2.54026e-06
1.54344e-06
1.66347e-06
1.66324e-06
2.54016e-06
1.54295e-06
2.29435e-06
1.66494e-06
2.53993e-06
1.54197e-06
1.84445e-06
2.22317e-06
3.64669e-06
3.02208e-06
3.02248e-06
2.22369e-06
1.84276e-06
1.8424e-06
3.02203e-06
2.22337e-06
3.64587e-06
1.84384e-06
3.02165e-06
2.22285e-06
1.66559e-06
2.29491e-06
2.54029e-06
1.54248e-06
2.54052e-06
1.54347e-06
1.66358e-06
2.82747e-06
1.41587e-06
1.96697e-06
1.96687e-06
1.96757e-06
1.96769e-06
2.82714e-06
2.82748e-06
1.4151e-06
1.96808e-06
1.96796e-06
1.96736e-06
2.82782e-06
1.96725e-06
1.66437e-06
2.53959e-06
1.54154e-06
2.29416e-06
2.53979e-06
1.5424e-06
1.66302e-06
1.84153e-06
2.22271e-06
3.64477e-06
3.02111e-06
3.02073e-06
2.22222e-06
1.84272e-06
1.84324e-06
3.02121e-06
3.64565e-06
2.22258e-06
3.02159e-06
2.22308e-06
1.84203e-06
1.6625e-06
2.29361e-06
2.53938e-06
1.54181e-06
2.53917e-06
1.54096e-06
1.66387e-06
1.66423e-06
1.54148e-06
2.53936e-06
2.29407e-06
1.54234e-06
2.53956e-06
1.66288e-06
1.8414e-06
2.22258e-06
3.64458e-06
3.0206e-06
3.02025e-06
2.22209e-06
1.84253e-06
1.84304e-06
3.02073e-06
3.64547e-06
2.22245e-06
3.02107e-06
1.84193e-06
2.22295e-06
1.66236e-06
2.29354e-06
1.54176e-06
2.53916e-06
1.5409e-06
2.53897e-06
1.66373e-06
1.66351e-06
2.54016e-06
1.54294e-06
2.29443e-06
1.66483e-06
2.53993e-06
1.54208e-06
1.84429e-06
2.22323e-06
3.64691e-06
3.02209e-06
2.22374e-06
3.02248e-06
1.84286e-06
1.84248e-06
3.02204e-06
2.22342e-06
3.64606e-06
2.22291e-06
1.84375e-06
3.02165e-06
1.66526e-06
2.29495e-06
2.54031e-06
1.5426e-06
2.54052e-06
1.54347e-06
1.66392e-06
1.66342e-06
1.54289e-06
2.53994e-06
2.29436e-06
1.6647e-06
1.54203e-06
2.53973e-06
1.84399e-06
2.2231e-06
3.64674e-06
3.02162e-06
3.02198e-06
2.22362e-06
1.84298e-06
1.84246e-06
3.02153e-06
2.22329e-06
3.64588e-06
1.84352e-06
3.02118e-06
2.22279e-06
1.66513e-06
2.29487e-06
1.54255e-06
2.54009e-06
1.54341e-06
2.5403e-06
1.66393e-06
1.6646e-06
1.54142e-06
2.53934e-06
2.29408e-06
1.54238e-06
2.53956e-06
1.66262e-06
1.84128e-06
2.22231e-06
3.64414e-06
3.02052e-06
2.22183e-06
3.02015e-06
1.84257e-06
1.84313e-06
3.02062e-06
3.64498e-06
2.22219e-06
2.22267e-06
3.021e-06
1.84174e-06
1.66216e-06
2.29349e-06
1.54179e-06
2.53916e-06
1.54084e-06
2.53894e-06
1.66395e-06
1.6635e-06
2.54013e-06
1.54296e-06
2.29441e-06
1.66481e-06
2.53991e-06
1.54203e-06
1.84417e-06
2.22286e-06
3.64637e-06
3.02191e-06
1.84281e-06
2.22337e-06
3.02231e-06
1.84244e-06
3.02187e-06
2.22305e-06
3.64552e-06
1.84366e-06
2.22255e-06
3.02148e-06
1.66523e-06
2.29492e-06
2.54025e-06
1.54254e-06
1.66384e-06
2.54048e-06
1.54349e-06
1.66307e-06
1.54294e-06
2.53994e-06
2.29432e-06
1.66509e-06
1.54197e-06
2.53972e-06
1.84432e-06
2.22283e-06
3.64625e-06
3.02151e-06
3.02191e-06
2.22334e-06
1.84264e-06
1.84216e-06
3.02147e-06
2.22302e-06
3.64544e-06
1.84371e-06
3.02108e-06
2.22252e-06
1.66559e-06
2.29487e-06
1.54248e-06
2.54008e-06
1.54347e-06
2.54031e-06
1.6636e-06
2.82759e-06
1.41593e-06
1.967e-06
1.96693e-06
1.96763e-06
1.96771e-06
2.82728e-06
2.82761e-06
1.41516e-06
1.9681e-06
1.96802e-06
1.96738e-06
2.82793e-06
1.96732e-06
1.66435e-06
1.54153e-06
2.53952e-06
2.29412e-06
1.54238e-06
2.53974e-06
1.66297e-06
1.84155e-06
2.22271e-06
3.64476e-06
3.02105e-06
2.22223e-06
3.02068e-06
1.84274e-06
1.84324e-06
3.02115e-06
3.6456e-06
2.22259e-06
2.22308e-06
3.02153e-06
1.84206e-06
1.66248e-06
2.29359e-06
1.5418e-06
2.53934e-06
1.54095e-06
2.53913e-06
1.66386e-06
1.66352e-06
1.54291e-06
2.53995e-06
2.29436e-06
1.66471e-06
1.54206e-06
2.53972e-06
1.84402e-06
2.22292e-06
3.64638e-06
3.02159e-06
1.84301e-06
2.22343e-06
3.02193e-06
1.84255e-06
3.02149e-06
2.2231e-06
3.64558e-06
1.84355e-06
2.22261e-06
3.02115e-06
1.66516e-06
2.29488e-06
1.54258e-06
2.5401e-06
1.66396e-06
1.54343e-06
2.54031e-06
1.66349e-06
1.54293e-06
2.54011e-06
2.29441e-06
1.66482e-06
1.54207e-06
2.5399e-06
1.84417e-06
2.22324e-06
3.64687e-06
3.02204e-06
3.02242e-06
2.22375e-06
1.84309e-06
1.84257e-06
3.02198e-06
2.22342e-06
3.64605e-06
1.84371e-06
3.0216e-06
2.22292e-06
1.66525e-06
2.29491e-06
1.54259e-06
2.54025e-06
1.54345e-06
2.54047e-06
1.66401e-06
2.82755e-06
1.41517e-06
1.96793e-06
1.96818e-06
2.82787e-06
1.96724e-06
1.96747e-06
1.84311e-06
2.22364e-06
3.02234e-06
3.64666e-06
2.22313e-06
1.84472e-06
3.02192e-06
1.66404e-06
2.29506e-06
1.54396e-06
2.54064e-06
1.54294e-06
1.66593e-06
2.54039e-06
2.22405e-06
3.64727e-06
2.22352e-06
3.23651e-07
8.68817e-07
8.68946e-07
1.1546e-06
3.39687e-07
8.92257e-07
8.92377e-07
1.17376e-06
3.55965e-07
9.14703e-07
9.14816e-07
1.1921e-06
3.72409e-07
9.36143e-07
9.36251e-07
1.2096e-06
3.88936e-07
9.56568e-07
9.56675e-07
1.22626e-06
4.05465e-07
9.75996e-07
9.76101e-07
1.24206e-06
4.21917e-07
9.94434e-07
9.94536e-07
1.25705e-06
4.38217e-07
1.01189e-06
1.01199e-06
1.27122e-06
4.54291e-07
1.02837e-06
1.02846e-06
1.28463e-06
4.70074e-07
1.04389e-06
1.04399e-06
1.29729e-06
4.85506e-07
1.05849e-06
1.05858e-06
1.30922e-06
5.00536e-07
1.07219e-06
1.07227e-06
1.32043e-06
5.15116e-07
1.085e-06
1.08508e-06
1.33097e-06
5.29205e-07
1.09695e-06
1.09703e-06
1.34084e-06
5.42766e-07
1.10808e-06
1.10816e-06
1.3501e-06
5.55769e-07
1.11841e-06
1.11849e-06
1.35876e-06
5.68188e-07
1.12796e-06
1.12804e-06
1.36683e-06
5.80002e-07
1.13676e-06
1.13684e-06
1.37433e-06
5.91198e-07
1.14483e-06
1.1449e-06
1.38126e-06
6.01765e-07
1.15219e-06
1.15226e-06
1.38764e-06
6.11697e-07
1.15888e-06
1.15894e-06
1.39347e-06
6.2099e-07
1.1649e-06
1.16496e-06
1.39878e-06
6.29644e-07