/*--------------------------------*- C++ -*----------------------------------*\
| =========                 |                                                 |
| \\      /  F ield         | OpenFOAM: The Open Source CFD Toolbox           |
|  \\    /   O peration     | Version:  v1906                                 |
|   \\  /    A nd           | Web:      www.OpenFOAM.com                      |
|    \\/     M anipulation  |                                                 |
\*---------------------------------------------------------------------------*/
FoamFile
{
    version     2.0;
    format      ascii;
    class       volScalarField;
    location    "550";
    object      k;
}
// * * * * * * * * * * * * * * * * * * * * * * * * * * * * * * * * * * * * * //

dimensions      [0 2 -2 0 0 0 0];


internalField   nonuniform List<scalar> 
171728
(
4.17883e-05
3.64582e-05
3.64581e-05
4.17815e-05
3.64558e-05
3.646e-05
3.64559e-05
3.64626e-05
4.17818e-05
3.64594e-05
3.64597e-05
4.1788e-05
2.08484e-05
2.08478e-05
2.08515e-05
2.08525e-05
6.95306e-05
6.95334e-05
6.68944e-05
6.69042e-05
6.46103e-05
7.13515e-05
6.47078e-05
6.46116e-05
7.13582e-05
7.13221e-05
6.47095e-05
5.30903e-05
6.01856e-05
2.88249e-05
2.85796e-05
5.32919e-05
5.30935e-05
3.62262e-05
6.019e-05
2.88264e-05
6.00671e-05
2.85813e-05
5.32917e-05
6.95336e-05
6.95075e-05
4.15684e-05
6.69056e-05
6.68893e-05
6.6841e-05
6.68299e-05
6.95294e-05
6.95033e-05
7.13578e-05
6.47126e-05
6.01903e-05
2.88294e-05
5.32946e-05
7.13533e-05
6.47101e-05
2.88298e-05
6.01836e-05
5.32928e-05
5.30946e-05
3.6224e-05
6.01849e-05
2.88271e-05
6.00667e-05
2.85821e-05
5.32953e-05
6.46126e-05
7.13569e-05
7.13207e-05
6.47116e-05
5.30934e-05
3.62305e-05
2.88304e-05
6.01871e-05
2.85854e-05
6.00654e-05
5.32937e-05
6.4611e-05
7.1355e-05
7.13189e-05
6.47104e-05
6.95319e-05
6.68962e-05
6.68943e-05
6.95316e-05
5.30945e-05
2.88312e-05
6.01885e-05
2.85859e-05
5.32954e-05
5.30943e-05
3.62278e-05
2.88321e-05
6.01911e-05
2.8587e-05
6.00684e-05
5.32952e-05
6.46135e-05
7.13535e-05
6.4711e-05
6.46145e-05
7.13581e-05
7.13228e-05
6.47116e-05
4.15737e-05
6.68939e-05
6.69065e-05
6.68335e-05
6.68428e-05
6.9532e-05
6.9506e-05
6.95344e-05
6.95084e-05
6.95181e-05
6.95209e-05
7.00281e-05
5.93319e-05
6.68772e-05
7.11366e-05
7.11179e-05
5.92673e-05
7.00685e-05
7.00876e-05
5.93257e-05
6.68853e-05
7.11466e-05
7.11285e-05
5.92856e-05
7.01012e-05
9.23392e-05
7.20367e-05
7.20299e-05
7.20225e-05
7.20161e-05
9.23507e-05
7.01244e-05
6.98217e-05
6.81171e-05
6.46491e-05
7.01144e-05
6.98307e-05
6.81503e-05
7.01836e-05
7.13379e-05
7.73841e-05
7.7366e-05
7.01982e-05
7.01274e-05
6.46688e-05
6.98441e-05
6.81997e-05
6.98353e-05
6.81674e-05
7.01377e-05
7.01277e-05
6.98206e-05
6.81261e-05
6.46521e-05
7.01169e-05
6.98332e-05
6.81583e-05
7.01872e-05
7.13427e-05
7.74064e-05
7.73886e-05
7.02012e-05
7.01914e-05
7.7359e-05
7.13374e-05
7.01775e-05
7.73777e-05
7.01295e-05
6.46708e-05
6.98472e-05
6.82077e-05
6.98342e-05
6.81761e-05
7.01413e-05
6.9521e-05
6.952e-05
9.23148e-05
7.20057e-05
7.2011e-05
9.23026e-05
7.20196e-05
7.20249e-05
7.00842e-05
5.93311e-05
6.68862e-05
7.11471e-05
5.92803e-05
7.11288e-05
7.01057e-05
7.00329e-05
5.93214e-05
6.68751e-05
7.1134e-05
7.11188e-05
5.92722e-05
7.00543e-05
7.00401e-05
7.11056e-05
5.91815e-05
6.68607e-05
5.92329e-05
7.00186e-05
7.11235e-05
6.99886e-05
7.10955e-05
5.91733e-05
6.68443e-05
6.99672e-05
7.11105e-05
5.9223e-05
9.23372e-05
7.20307e-05
7.2036e-05
7.20168e-05
7.20221e-05
9.23501e-05
6.95168e-05
6.95158e-05
7.01869e-05
7.13442e-05
7.74056e-05
7.73866e-05
7.02009e-05
7.01305e-05
6.4671e-05
6.82097e-05
6.98461e-05
6.81725e-05
6.98375e-05
7.01415e-05
7.01838e-05
7.13379e-05
7.73846e-05
7.73644e-05
7.01984e-05
7.01275e-05
6.46684e-05
6.98473e-05
6.82018e-05
6.98342e-05
6.81647e-05
7.0139e-05
7.01274e-05
6.81231e-05
6.98207e-05
6.46532e-05
7.01158e-05
6.81596e-05
6.98335e-05
7.0186e-05
7.13412e-05
7.74055e-05
7.73845e-05
7.02001e-05
7.01902e-05
7.73554e-05
7.1336e-05
7.01763e-05
7.73762e-05
7.01285e-05
6.46717e-05
6.8208e-05
6.98475e-05
6.81741e-05
6.98344e-05
7.0141e-05
7.01268e-05
6.98204e-05
6.81184e-05
6.46518e-05
7.01151e-05
6.98331e-05
6.81559e-05
7.01856e-05
7.13394e-05
7.73886e-05
7.73675e-05
7.01996e-05
7.01898e-05
7.73386e-05
7.13341e-05
7.01758e-05
7.73591e-05
7.01278e-05
6.46703e-05
6.98471e-05
6.82059e-05
6.9834e-05
6.81685e-05
7.01403e-05
6.95192e-05
7.00851e-05
5.93293e-05
6.68817e-05
7.11453e-05
5.92809e-05
7.11268e-05
7.01063e-05
7.00359e-05
5.93254e-05
6.68768e-05
7.11366e-05
7.11182e-05
5.9274e-05
7.00569e-05
9.23429e-05
7.20306e-05
7.20369e-05
7.20166e-05
7.20229e-05
9.23516e-05
6.95191e-05
7.01255e-05
6.81199e-05
6.98232e-05
6.46518e-05
7.01159e-05
6.81525e-05
6.98319e-05
7.01855e-05
7.13404e-05
7.73865e-05
7.73678e-05
7.01995e-05
7.01896e-05
7.73574e-05
7.0129e-05
6.46709e-05
6.8202e-05
6.98455e-05
6.81695e-05
6.98367e-05
7.01396e-05
7.01267e-05
6.81248e-05
6.98235e-05
6.46526e-05
7.01168e-05
6.81554e-05
6.98321e-05
7.01862e-05
7.13438e-05
7.74025e-05
7.73842e-05
7.02008e-05
7.01911e-05
7.73545e-05
7.1338e-05
7.01765e-05
7.73741e-05
7.01297e-05
6.4672e-05
6.82044e-05
6.98457e-05
6.81744e-05
6.9837e-05
7.01399e-05
9.23167e-05
7.20123e-05
7.20062e-05
9.23081e-05
7.20261e-05
7.202e-05
7.00344e-05
5.93244e-05
6.68787e-05
7.11367e-05
5.9273e-05
7.11181e-05
7.0056e-05
7.00868e-05
5.9335e-05
6.68882e-05
7.11479e-05
5.92827e-05
7.11295e-05
7.01081e-05
6.99902e-05
7.10954e-05
5.91743e-05
6.68488e-05
6.99687e-05
5.92257e-05
7.11125e-05
7.00426e-05
7.11062e-05
5.91838e-05
6.68616e-05
7.00211e-05
5.92366e-05
7.11242e-05
9.23424e-05
7.20373e-05
7.20312e-05
7.20234e-05
7.20173e-05
9.23539e-05
6.95195e-05
6.95183e-05
6.95219e-05
6.95208e-05
5.95183e-05
4.17507e-05
5.0504e-05
5.04979e-05
5.04635e-05
5.0472e-05
5.95504e-05
5.95164e-05
4.17554e-05
5.05116e-05
5.0511e-05
5.04654e-05
5.04619e-05
5.95497e-05
5.95177e-05
4.17575e-05
5.05111e-05
5.04984e-05
5.04631e-05
5.04675e-05
5.9551e-05
5.95181e-05
4.17643e-05
5.05124e-05
5.05175e-05
5.0463e-05
5.04668e-05
5.95525e-05
1.49187e-05
1.49191e-05
1.48074e-05
1.07944e-05
1.08213e-05
2.0663e-05
1.49188e-05
1.49176e-05
1.48074e-05
1.48063e-05
1.07941e-05
1.0821e-05
1.49219e-05
1.49207e-05
1.48092e-05
1.07955e-05
1.08224e-05
2.06675e-05
1.49217e-05
1.49208e-05
1.48102e-05
1.48094e-05
1.07954e-05
1.08224e-05
4.55373e-05
5.5413e-05
4.3574e-05
5.317e-05
4.55339e-05
5.54868e-05
4.35929e-05
4.80541e-05
5.25187e-05
6.01379e-05
5.85105e-05
5.24786e-05
5.84523e-05
4.80669e-05
4.57077e-05
5.32126e-05
5.55972e-05
4.37748e-05
5.55256e-05
4.3758e-05
4.56949e-05
4.55467e-05
5.54211e-05
4.35759e-05
5.31705e-05
4.55455e-05
5.54918e-05
4.35942e-05
4.806e-05
5.25166e-05
6.01414e-05
5.85192e-05
5.84615e-05
5.2483e-05
4.80722e-05
4.7922e-05
5.83679e-05
5.23517e-05
6.01161e-05
4.79062e-05
5.84268e-05
5.23852e-05
4.57165e-05
5.32157e-05
5.56019e-05
4.37768e-05
5.55336e-05
4.37599e-05
4.5705e-05
5.94443e-05
4.15922e-05
5.03196e-05
5.03149e-05
5.03604e-05
5.94103e-05
5.03614e-05
4.80474e-05
5.25211e-05
6.01433e-05
5.85198e-05
5.24821e-05
5.84601e-05
4.80918e-05
4.57014e-05
5.3214e-05
5.56039e-05
4.37959e-05
5.55287e-05
4.37416e-05
4.57271e-05
4.80432e-05
5.25191e-05
6.01408e-05
5.85104e-05
5.84515e-05
5.24779e-05
4.80882e-05
4.56989e-05
5.32121e-05
4.37952e-05
5.55983e-05
4.37409e-05
5.55231e-05
4.57245e-05
4.55315e-05
5.54208e-05
4.35789e-05
5.31736e-05
4.55408e-05
5.54913e-05
4.35974e-05
4.80597e-05
5.25142e-05
6.01411e-05
5.85181e-05
5.24808e-05
5.84601e-05
4.80715e-05
4.79208e-05
5.83667e-05
5.235e-05
6.01105e-05
4.79058e-05
5.23826e-05
5.84255e-05
4.57191e-05
5.32164e-05
5.56016e-05
4.37788e-05
5.55331e-05
4.37618e-05
4.57045e-05
4.55558e-05
4.35761e-05
5.54171e-05
5.31722e-05
4.55188e-05
4.35955e-05
5.54906e-05
4.80461e-05
5.25231e-05
6.01401e-05
5.85144e-05
5.84555e-05
5.24775e-05
4.80928e-05
4.79331e-05
5.83621e-05
5.23465e-05
6.0113e-05
4.78937e-05
5.84214e-05
5.23893e-05
4.57009e-05
5.32153e-05
4.37775e-05
5.56014e-05
4.37598e-05
5.55293e-05
4.57259e-05
4.55355e-05
4.35791e-05
5.5418e-05
5.31731e-05
4.55301e-05
4.35981e-05
5.54883e-05
4.80545e-05
5.25219e-05
6.01398e-05
5.85137e-05
5.24797e-05
5.84544e-05
4.80876e-05
4.79181e-05
5.84203e-05
4.56964e-05
5.32151e-05
4.37989e-05
5.55982e-05
4.37551e-05
5.55296e-05
4.57219e-05
4.55365e-05
4.35788e-05
5.54215e-05
5.31735e-05
4.55453e-05
4.3597e-05
5.54911e-05
4.80624e-05
5.25154e-05
6.01433e-05
5.85182e-05
5.84606e-05
5.24879e-05
4.80733e-05
4.79221e-05
5.83672e-05
5.23549e-05
6.01171e-05
4.7908e-05
5.84258e-05
5.2386e-05
4.57235e-05
5.32163e-05
4.37801e-05
5.56027e-05
4.37624e-05
5.55322e-05
4.57093e-05
5.94458e-05
4.1596e-05
5.03173e-05
5.03213e-05
5.9412e-05
5.03619e-05
5.0366e-05
3.83831e-05
5.1108e-05
5.11082e-05
5.3289e-05
5.34854e-05
5.32993e-05
5.34303e-05
5.11054e-05
5.11061e-05
5.12916e-05
5.12922e-05
5.32895e-05
5.34413e-05
5.11053e-05
5.11045e-05
5.12914e-05
5.12906e-05
5.11073e-05
5.12942e-05
5.12933e-05
5.32885e-05
5.34405e-05
5.11071e-05
5.12944e-05
5.12932e-05
5.34409e-05
5.13533e-05
5.13532e-05
6.851e-05
7.33538e-05
7.33803e-05
6.84818e-05
7.11148e-05
7.11409e-05
6.85139e-05
7.33605e-05
7.33849e-05
6.84871e-05
3.83842e-05
3.83868e-05
3.83872e-05
3.86987e-05
3.86997e-05
3.87023e-05
3.87027e-05
6.05231e-05
6.4692e-05
4.63268e-05
5.11713e-05
6.47229e-05
4.64065e-05
6.04759e-05
7.11133e-05
7.11396e-05
6.05198e-05
4.63279e-05
6.4693e-05
5.11714e-05
4.64076e-05
6.47236e-05
6.04747e-05
6.98613e-05
6.9873e-05
5.33433e-05
6.98803e-05
6.98913e-05
6.99165e-05
6.99281e-05
7.11129e-05
7.1139e-05
7.11154e-05
7.11415e-05
6.98624e-05
6.98716e-05
5.33331e-05
6.98807e-05
6.98907e-05
7.11664e-05
7.11407e-05
7.11689e-05
7.11432e-05
5.33977e-05
6.9908e-05
6.99183e-05
6.98907e-05
6.98999e-05
6.85119e-05
7.33586e-05
7.33851e-05
6.84837e-05
6.05203e-05
6.46903e-05
4.63234e-05
5.11686e-05
6.47216e-05
4.64031e-05
6.04715e-05
6.05216e-05
6.4694e-05
4.63247e-05
5.11694e-05
6.47255e-05
4.64044e-05
6.04728e-05
6.8514e-05
7.34098e-05
7.3384e-05
6.85409e-05
6.85159e-05
7.34147e-05
7.33886e-05
6.85429e-05
6.05284e-05
5.12312e-05
6.47571e-05
4.65581e-05
6.47275e-05
4.64819e-05
6.05743e-05
6.05297e-05
5.12318e-05
6.47612e-05
4.65594e-05
6.47314e-05
4.64833e-05
6.05757e-05
6.98713e-05
6.98592e-05
5.33438e-05
6.98901e-05
6.98784e-05
7.11113e-05
7.11377e-05
7.11683e-05
7.11426e-05
5.33878e-05
6.99172e-05
6.99058e-05
6.98996e-05
6.98875e-05
7.11651e-05
7.11391e-05
6.05211e-05
6.46942e-05
4.63253e-05
5.11684e-05
6.47252e-05
4.6405e-05
6.0476e-05
6.85108e-05
7.33549e-05
7.33794e-05
6.84846e-05
6.05188e-05
4.63251e-05
6.46886e-05
5.11677e-05
4.64047e-05
6.4719e-05
6.04738e-05
6.85177e-05
7.34145e-05
7.33905e-05
6.8545e-05
6.05327e-05
5.12311e-05
6.4761e-05
4.656e-05
6.47315e-05
4.64838e-05
6.05749e-05
6.85167e-05
7.34094e-05
7.33849e-05
6.85418e-05
6.05306e-05
5.12302e-05
4.65598e-05
6.47549e-05
4.64836e-05
6.4726e-05
6.05728e-05
6.85121e-05
7.3358e-05
7.33847e-05
6.84858e-05
6.05215e-05
4.63265e-05
6.46903e-05
5.11705e-05
4.64061e-05
6.47214e-05
6.04728e-05
6.85111e-05
7.33551e-05
7.33816e-05
6.84829e-05
6.05313e-05
5.12338e-05
6.47585e-05
4.65615e-05
6.47292e-05
4.64853e-05
6.05772e-05
6.85179e-05
7.34142e-05
7.33882e-05
6.8543e-05
6.05295e-05
5.1233e-05
4.65611e-05
6.4757e-05
4.6485e-05
6.47276e-05
6.05755e-05
6.85151e-05
7.34112e-05
7.33852e-05
6.8542e-05
6.98646e-05
6.98625e-05
5.33428e-05
6.98838e-05
6.98813e-05
7.11139e-05
7.114e-05
7.1167e-05
7.1141e-05
5.33869e-05
6.99112e-05
6.99083e-05
6.98929e-05
6.98908e-05
7.11674e-05
7.11417e-05
6.05206e-05
4.63279e-05
6.46955e-05
5.11703e-05
4.64075e-05
6.4726e-05
6.04756e-05
6.85097e-05
7.33573e-05
7.33818e-05
6.84835e-05
6.85119e-05
7.33601e-05
7.33846e-05
6.84857e-05
6.05314e-05
5.12339e-05
4.65625e-05
6.47595e-05
4.64864e-05
6.47302e-05
6.05735e-05
6.05323e-05
5.12329e-05
4.65625e-05
6.4762e-05
4.64864e-05
6.47327e-05
6.05744e-05
6.85156e-05
7.34118e-05
7.33873e-05
6.85406e-05
6.85179e-05
7.34142e-05
7.33901e-05
6.85428e-05
7.11132e-05
7.11393e-05
7.1116e-05
7.1142e-05
5.33873e-05
6.99075e-05
6.99188e-05
6.98896e-05
6.99013e-05
7.11667e-05
7.11409e-05
7.11694e-05
7.11437e-05
4.66368e-05
6.47632e-05
6.0583e-05
7.34146e-05
6.85457e-05
6.4768e-05
7.34196e-05
7.11682e-05
7.11711e-05
7.17899e-05
7.15692e-05
7.15379e-05
6.84979e-05
7.15565e-05
7.15264e-05
7.17995e-05
7.16285e-05
7.33653e-05
7.96979e-05
7.9702e-05
7.16135e-05
7.16271e-05
7.97151e-05
7.33689e-05
7.97111e-05
7.1642e-05
7.1785e-05
6.84939e-05
7.15419e-05
7.15117e-05
7.15543e-05
7.15233e-05
7.17752e-05
7.11271e-05
7.11287e-05
7.1793e-05
7.15446e-05
7.15711e-05
6.85021e-05
7.15349e-05
7.15585e-05
7.18024e-05
7.16305e-05
7.33701e-05
7.97152e-05
7.97235e-05
7.1616e-05
7.16295e-05
7.97366e-05
7.33755e-05
7.97282e-05
7.1644e-05
7.17879e-05
6.84974e-05
7.15206e-05
7.15446e-05
7.15299e-05
7.15558e-05
7.17783e-05
7.11257e-05
7.11272e-05
9.4927e-05
7.34526e-05
7.34462e-05
7.3439e-05
7.34326e-05
9.49293e-05
7.40734e-05
6.51179e-05
6.98661e-05
7.31881e-05
6.51317e-05
7.32007e-05
7.40688e-05
7.41214e-05
6.51264e-05
6.98771e-05
7.32002e-05
6.51411e-05
7.32096e-05
7.41169e-05
7.40859e-05
7.32151e-05
6.98757e-05
6.51548e-05
6.51413e-05
7.32027e-05
7.40904e-05
7.4134e-05
7.32239e-05
6.98873e-05
6.51642e-05
6.51498e-05
7.32147e-05
7.41383e-05
9.49147e-05
7.34262e-05
7.34199e-05
7.34399e-05
7.34335e-05
9.49123e-05
7.41391e-05
6.52078e-05
7.32452e-05
6.99211e-05
7.4135e-05
6.52203e-05
7.3258e-05
7.4187e-05
6.52164e-05
7.32575e-05
6.9932e-05
7.41831e-05
6.52296e-05
7.32662e-05
9.49717e-05
7.34768e-05
7.34705e-05
9.49697e-05
7.34903e-05
7.3484e-05
7.11251e-05
7.11269e-05
7.11277e-05
7.11294e-05
9.49263e-05
7.34527e-05
7.3446e-05
7.34391e-05
7.34323e-05
9.49289e-05
7.40747e-05
6.51181e-05
6.98664e-05
7.31904e-05
7.31998e-05
6.5133e-05
7.40704e-05
7.41205e-05
6.5126e-05
6.98764e-05
7.31983e-05
7.32103e-05
6.51404e-05
7.41159e-05
7.40875e-05
7.32142e-05
6.98767e-05
6.51562e-05
7.32049e-05
7.4092e-05
6.51416e-05
7.4133e-05
7.32251e-05
6.98859e-05
6.51636e-05
7.32126e-05
7.41377e-05
6.51494e-05
9.49142e-05
7.34263e-05
7.34195e-05
7.344e-05
7.34332e-05
9.49115e-05
7.11544e-05
7.11527e-05
7.11569e-05
7.11553e-05
9.49433e-05
7.34518e-05
7.3445e-05
9.49408e-05
7.34654e-05
7.34587e-05
7.41207e-05
6.52003e-05
6.99044e-05
7.32429e-05
7.32338e-05
6.51866e-05
7.41249e-05
7.41662e-05
6.52078e-05
6.99134e-05
7.32538e-05
7.32412e-05
6.51945e-05
7.41706e-05
7.41087e-05
7.32195e-05
6.51644e-05
6.98945e-05
7.41043e-05
7.32288e-05
6.51785e-05
7.41543e-05
7.32272e-05
6.51722e-05
6.99045e-05
7.41498e-05
7.32394e-05
6.51859e-05
9.49552e-05
7.3478e-05
7.34713e-05
7.34645e-05
7.34577e-05
9.49575e-05
7.17898e-05
7.15697e-05
7.15456e-05
6.84998e-05
7.15571e-05
7.15333e-05
7.18037e-05
7.16301e-05
7.33702e-05
7.97163e-05
7.97249e-05
7.16155e-05
7.16291e-05
7.9738e-05
7.33737e-05
7.97296e-05
7.16436e-05
7.17891e-05
6.84959e-05
7.15424e-05
7.15187e-05
7.15548e-05
7.1531e-05
7.17749e-05
7.1814e-05
7.15717e-05
7.15411e-05
6.85257e-05
7.18044e-05
7.15841e-05
7.15523e-05
7.16539e-05
7.33987e-05
7.97406e-05
7.16688e-05
7.97368e-05
7.16554e-05
7.97241e-05
7.3395e-05
7.16405e-05
7.9728e-05
7.18191e-05
6.85296e-05
7.15991e-05
7.15665e-05
7.18285e-05
7.15866e-05
7.15554e-05
7.18182e-05
7.15722e-05
7.15481e-05
6.85277e-05
7.18044e-05
7.15848e-05
7.15601e-05
7.1656e-05
7.34034e-05
7.97636e-05
7.97554e-05
7.16704e-05
7.1657e-05
7.97426e-05
7.33999e-05
7.16426e-05
7.97509e-05
7.18188e-05
6.85315e-05
7.15994e-05
7.15744e-05
7.1587e-05
7.15625e-05
7.18326e-05
9.49245e-05
7.3446e-05
7.34517e-05
7.34322e-05
7.3438e-05
9.49272e-05
7.4121e-05
6.51254e-05
6.98761e-05
7.31979e-05
7.32104e-05
6.51389e-05
7.4115e-05
7.40746e-05
6.51196e-05
6.98642e-05
7.31876e-05
6.51319e-05
7.32002e-05
7.40685e-05
7.41323e-05
7.32248e-05
6.98857e-05
6.51621e-05
7.32125e-05
6.51488e-05
7.41379e-05
7.40859e-05
7.32146e-05
6.98736e-05
6.5155e-05
6.51429e-05
7.32022e-05
7.40915e-05
9.49125e-05
7.34194e-05
7.34252e-05
7.34332e-05
7.3439e-05
9.49098e-05
7.11238e-05
7.11253e-05
7.11563e-05
7.11547e-05
9.49417e-05
7.3445e-05
7.34507e-05
9.4939e-05
7.34586e-05
7.34644e-05
7.41655e-05
6.52063e-05
6.99134e-05
7.32529e-05
6.51938e-05
7.32416e-05
7.41708e-05
7.41191e-05
6.51993e-05
6.9901e-05
7.32433e-05
7.32308e-05
6.51879e-05
7.41245e-05
7.41547e-05
7.3227e-05
6.51717e-05
6.99037e-05
6.51844e-05
7.41491e-05
7.3239e-05
7.41083e-05
7.32167e-05
6.51658e-05
6.98921e-05
7.41027e-05
7.32288e-05
6.51773e-05
9.49533e-05
7.34712e-05
7.3477e-05
7.34576e-05
7.34634e-05
9.4956e-05
7.11528e-05
7.11514e-05
7.17905e-05
7.15704e-05
7.15362e-05
6.85009e-05
7.15579e-05
7.15272e-05
7.18001e-05
7.16279e-05
7.33645e-05
7.96963e-05
7.96998e-05
7.16129e-05
7.16265e-05
7.9713e-05
7.33699e-05
7.97095e-05
7.16414e-05
7.17861e-05
6.84949e-05
7.15432e-05
7.15123e-05
7.15555e-05
7.15216e-05
7.17756e-05
7.18169e-05
7.15487e-05
7.15738e-05
6.85298e-05
7.18074e-05
7.15594e-05
7.15862e-05
7.16564e-05
7.34053e-05
7.97621e-05
7.16708e-05
7.97539e-05
7.16575e-05
7.97411e-05
7.34e-05
7.1643e-05
7.97495e-05
7.18221e-05
6.85332e-05
7.15737e-05
7.16008e-05
7.18314e-05
7.15621e-05
7.15886e-05
7.18144e-05
7.1573e-05
7.15417e-05
6.85266e-05
7.18048e-05
7.15854e-05
7.15508e-05
7.16533e-05
7.33996e-05
7.97387e-05
7.97353e-05
7.16682e-05
7.16548e-05
7.97226e-05
7.33945e-05
7.16399e-05
7.97261e-05
7.18195e-05
6.85322e-05
7.16e-05
7.15648e-05
7.15878e-05
7.15561e-05
7.18289e-05
7.17927e-05
7.15446e-05
7.15691e-05
6.85021e-05
7.15356e-05
7.15597e-05
7.18021e-05
7.16302e-05
7.33696e-05
7.97148e-05
7.97233e-05
7.16156e-05
7.16292e-05
7.97363e-05
7.33732e-05
7.97281e-05
7.16437e-05
7.17876e-05
6.84962e-05
7.15208e-05
7.15448e-05
7.15301e-05
7.15543e-05
7.17781e-05
7.1789e-05
7.157e-05
7.15401e-05
6.84991e-05
7.15574e-05
7.15278e-05
7.18028e-05
7.16288e-05
7.33666e-05
7.96962e-05
7.97046e-05
7.16142e-05
7.16278e-05
7.97177e-05
7.33702e-05
7.97094e-05
7.16423e-05
7.17883e-05
6.8495e-05
7.15427e-05
7.15132e-05
7.1555e-05
7.15254e-05
7.17741e-05
7.18166e-05
7.15501e-05
7.15745e-05
6.85278e-05
7.18072e-05
7.15591e-05
7.15841e-05
7.1656e-05
7.3403e-05
7.97618e-05
7.97539e-05
7.16705e-05
7.16571e-05
7.97411e-05
7.33994e-05
7.16427e-05
7.97492e-05
7.18218e-05
6.85334e-05
7.15731e-05
7.15989e-05
7.15643e-05
7.15894e-05
7.18311e-05
7.18173e-05
7.15725e-05
7.15426e-05
6.85268e-05
7.18036e-05
7.1585e-05
7.15545e-05
7.16546e-05
7.33999e-05
7.97433e-05
7.97351e-05
7.16691e-05
7.16557e-05
7.97224e-05
7.33964e-05
7.16413e-05
7.97307e-05
7.1818e-05
6.85307e-05
7.15996e-05
7.15688e-05
7.15873e-05
7.15569e-05
7.18318e-05
9.49288e-05
7.34461e-05
7.34527e-05
7.34324e-05
7.3439e-05
9.49315e-05
7.41196e-05
6.5124e-05
6.98695e-05
7.31975e-05
7.32075e-05
6.51355e-05
7.41154e-05
7.40752e-05
6.51198e-05
6.98673e-05
7.31887e-05
6.51341e-05
7.32013e-05
7.40711e-05
7.41326e-05
7.32226e-05
6.98789e-05
6.51587e-05
7.32109e-05
6.51475e-05
7.41367e-05
7.40883e-05
7.32158e-05
6.98768e-05
6.51572e-05
6.51432e-05
7.32034e-05
7.40923e-05
9.49168e-05
7.34196e-05
7.34262e-05
7.34333e-05
7.344e-05
9.49141e-05
7.11261e-05
7.11278e-05
7.11547e-05
7.11533e-05
9.49459e-05
7.34451e-05
7.34517e-05
9.49434e-05
7.34588e-05
7.34654e-05
7.41658e-05
6.5203e-05
6.99064e-05
7.32518e-05
6.51925e-05
7.32392e-05
7.41697e-05
7.41215e-05
6.52015e-05
6.99047e-05
7.32444e-05
7.32319e-05
6.51882e-05
7.41253e-05
7.41533e-05
7.32249e-05
6.51702e-05
6.98974e-05
6.51811e-05
7.41494e-05
7.32373e-05
7.41089e-05
7.32179e-05
6.51659e-05
6.98948e-05
7.41051e-05
7.32301e-05
6.51796e-05
9.49577e-05
7.34714e-05
7.3478e-05
7.34577e-05
7.34644e-05
9.496e-05
7.11554e-05
7.11537e-05
7.17911e-05
7.15375e-05
7.15698e-05
6.84998e-05
7.15285e-05
7.15576e-05
7.18006e-05
7.16298e-05
7.33669e-05
7.96974e-05
7.97057e-05
7.16152e-05
7.16288e-05
7.97188e-05
7.33723e-05
7.97106e-05
7.16433e-05
7.17861e-05
6.84937e-05
7.15137e-05
7.15439e-05
7.15229e-05
7.15543e-05
7.17764e-05
7.17891e-05
7.15408e-05
7.15692e-05
6.8502e-05
7.15318e-05
7.15597e-05
7.18033e-05
7.16293e-05
7.33697e-05
7.97139e-05
7.97172e-05
7.16142e-05
7.16278e-05
7.97302e-05
7.33751e-05
7.97271e-05
7.16428e-05
7.17887e-05
6.8496e-05
7.15168e-05
7.15448e-05
7.15263e-05
7.15544e-05
7.17745e-05
7.1815e-05
7.1543e-05
7.15723e-05
6.85254e-05
7.18055e-05
7.1552e-05
7.1585e-05
7.16557e-05
7.3402e-05
7.97444e-05
7.97363e-05
7.16701e-05
7.16567e-05
7.97236e-05
7.33969e-05
7.16423e-05
7.97318e-05
7.18201e-05
6.85311e-05
7.1566e-05
7.16e-05
7.15573e-05
7.15873e-05
7.18295e-05
7.18179e-05
7.15463e-05
7.15746e-05
6.85277e-05
7.18038e-05
7.15553e-05
7.15844e-05
7.16546e-05
7.34049e-05
7.97559e-05
7.97529e-05
7.16695e-05
7.16562e-05
7.97401e-05
7.33997e-05
7.16412e-05
7.97433e-05
7.18181e-05
6.85333e-05
7.15693e-05
7.16e-05
7.15606e-05
7.15885e-05
7.18322e-05
7.11254e-05
7.11271e-05
7.11281e-05
7.11299e-05
9.49437e-05
7.34516e-05
7.34453e-05
9.49414e-05
7.34653e-05
7.34589e-05
7.4119e-05
6.51989e-05
6.99032e-05
7.32435e-05
7.41232e-05
6.51862e-05
7.32313e-05
7.41671e-05
6.52082e-05
6.99148e-05
7.32525e-05
7.41712e-05
6.51947e-05
7.32434e-05
7.4107e-05
7.32172e-05
6.5164e-05
6.9894e-05
7.41026e-05
6.51771e-05
7.32293e-05
7.4155e-05
7.32292e-05
6.51725e-05
6.99051e-05
7.41508e-05
6.51864e-05
7.32386e-05
9.49557e-05
7.34779e-05
7.34715e-05
9.49579e-05
7.34643e-05
7.34579e-05
7.11546e-05
7.1153e-05
7.11574e-05
7.11557e-05
7.16823e-05
7.97477e-05
7.34258e-05
7.16679e-05
7.97558e-05
7.18462e-05
6.8557e-05
7.16021e-05
7.15706e-05
7.18322e-05
7.1614e-05
7.15825e-05
7.34285e-05
7.11803e-05
7.11829e-05
3.12666e-05
3.12652e-05
3.84898e-05
3.13969e-05
3.13956e-05
2.22598e-05
2.21085e-05
6.58132e-05
5.93014e-05
5.9302e-05
5.32936e-05
5.93071e-05
5.93097e-05
6.58061e-05
6.59101e-05
5.94409e-05
5.94427e-05
5.34889e-05
6.59025e-05
5.94468e-05
5.94477e-05
6.58133e-05
5.93041e-05
5.93049e-05
5.32834e-05
5.93041e-05
5.93049e-05
6.58076e-05
6.58812e-05
5.34477e-05
5.94087e-05
5.94103e-05
5.94095e-05
5.94104e-05
6.58867e-05
6.58143e-05
5.93027e-05
5.93037e-05
5.32942e-05
5.93094e-05
5.93075e-05
6.58063e-05
6.58801e-05
5.34374e-05
5.94113e-05
5.94135e-05
5.94076e-05
5.94095e-05
6.58874e-05
6.58128e-05
5.93e-05
5.93028e-05
5.32933e-05
5.93084e-05
5.93057e-05
6.5806e-05
6.58797e-05
5.34366e-05
5.94095e-05
5.94128e-05
5.94052e-05
5.94084e-05
6.58861e-05
6.58795e-05
5.34371e-05
5.94115e-05
5.94131e-05
6.58865e-05
5.94072e-05
5.94073e-05
3.12671e-05
3.12658e-05
3.84909e-05
3.13974e-05
3.13962e-05
2.22599e-05
2.21086e-05
3.12704e-05
3.12696e-05
3.84934e-05
3.14007e-05
3.13999e-05
2.22637e-05
2.21124e-05
3.12707e-05
3.12694e-05
3.84938e-05
3.14011e-05
3.13998e-05
2.22637e-05
2.21123e-05
3.85955e-05
3.16532e-05
3.1652e-05
3.15263e-05
3.1525e-05
2.24109e-05
2.25605e-05
3.85966e-05
3.16537e-05
3.16525e-05
3.15269e-05
3.15256e-05
2.2411e-05
2.25606e-05
3.85992e-05
3.1657e-05
3.16562e-05
3.15301e-05
3.15293e-05
2.24148e-05
2.25644e-05
3.85996e-05
3.16574e-05
3.1656e-05
3.15304e-05
3.15292e-05
2.24147e-05
2.25644e-05
5.61417e-05
6.22256e-05
5.48499e-05
6.05027e-05
6.22112e-05
5.48487e-05
5.61334e-05
5.72081e-05
6.02239e-05
6.47043e-05
6.40867e-05
6.02327e-05
6.40995e-05
5.72173e-05
5.72518e-05
6.41217e-05
6.47108e-05
6.02629e-05
6.02546e-05
6.41086e-05
5.72491e-05
5.60914e-05
6.04939e-05
6.21854e-05
5.48035e-05
6.22001e-05
5.48012e-05
5.61003e-05
5.61402e-05
5.4841e-05
6.22209e-05
6.05037e-05
5.48538e-05
6.22066e-05
5.61299e-05
5.72059e-05
6.02278e-05
6.47049e-05
6.40812e-05
6.0229e-05
6.40933e-05
5.72164e-05
5.72524e-05
6.41156e-05
6.47118e-05
6.02595e-05
6.02583e-05
6.41037e-05
5.72423e-05
5.60885e-05
6.04915e-05
5.48066e-05
6.21807e-05
5.4795e-05
6.21952e-05
5.60985e-05
6.58314e-05
5.33392e-05
5.93435e-05
5.9345e-05
5.93364e-05
5.93385e-05
6.58383e-05
6.58327e-05
5.3349e-05
5.93402e-05
5.9341e-05
6.58386e-05
5.93402e-05
5.93414e-05
6.58631e-05
5.33829e-05
5.9375e-05
5.93762e-05
6.58573e-05
5.93757e-05
5.93766e-05
5.61321e-05
6.2221e-05
5.48472e-05
6.05003e-05
6.22016e-05
5.48426e-05
5.61287e-05
5.72092e-05
6.02216e-05
6.4703e-05
6.40771e-05
6.40917e-05
6.02307e-05
5.72054e-05
5.72421e-05
6.41141e-05
6.47091e-05
6.02609e-05
6.40997e-05
6.02523e-05
5.72454e-05
5.60858e-05
6.04919e-05
6.21758e-05
5.47963e-05
6.21953e-05
5.48012e-05
5.60888e-05
5.61378e-05
6.2226e-05
5.48481e-05
6.05016e-05
6.22066e-05
5.48436e-05
5.6132e-05
5.72124e-05
6.02239e-05
6.47068e-05
6.40846e-05
6.40993e-05
6.02329e-05
5.72088e-05
5.72454e-05
6.41217e-05
6.4713e-05
6.02631e-05
6.41073e-05
5.72487e-05
6.02547e-05
5.60899e-05
6.04932e-05
6.21808e-05
5.47975e-05
6.22002e-05
5.48022e-05
5.60958e-05
5.61694e-05
6.22273e-05
5.48858e-05
6.05477e-05
5.61738e-05
6.22462e-05
5.489e-05
5.73136e-05
6.03189e-05
6.47456e-05
6.41571e-05
6.03108e-05
6.41438e-05
5.73168e-05
5.72815e-05
6.41219e-05
6.02818e-05
6.47395e-05
6.02897e-05
5.72785e-05
6.41357e-05
5.6214e-05
6.05556e-05
6.22709e-05
5.49329e-05
6.22522e-05
5.49291e-05
5.62092e-05
5.61728e-05
6.22323e-05
5.48869e-05
6.05491e-05
5.61787e-05
6.22513e-05
5.48911e-05
5.73171e-05
6.03212e-05
6.47494e-05
6.41649e-05
6.41513e-05
6.03136e-05
5.73201e-05
5.72849e-05
6.41294e-05
6.02842e-05
6.47434e-05
5.72819e-05
6.41434e-05
6.02919e-05
5.62185e-05
6.0557e-05
6.2276e-05
5.4934e-05
6.22574e-05
5.49302e-05
5.62126e-05
6.58318e-05
5.33398e-05
5.93439e-05
5.93457e-05
5.93386e-05
5.93371e-05
6.58392e-05
6.58636e-05
5.33918e-05
5.9372e-05
5.93735e-05
5.93771e-05
6.58562e-05
5.93793e-05
5.61397e-05
6.22246e-05
5.48406e-05
6.05049e-05
6.22085e-05
5.48533e-05
5.61308e-05
5.72111e-05
6.02243e-05
6.47066e-05
6.4084e-05
6.40986e-05
6.02333e-05
5.72108e-05
5.72474e-05
6.41211e-05
6.47131e-05
6.02637e-05
6.41069e-05
6.02553e-05
5.72488e-05
5.60891e-05
6.04928e-05
6.21836e-05
5.48064e-05
6.21984e-05
5.47949e-05
5.6098e-05
5.61352e-05
5.48386e-05
6.22177e-05
6.05027e-05
5.48514e-05
6.22033e-05
5.6126e-05
5.72e-05
6.02232e-05
6.47003e-05
6.40754e-05
6.40881e-05
6.0224e-05
5.72103e-05
5.72467e-05
6.41107e-05
6.47075e-05
6.02546e-05
6.40981e-05
5.72367e-05
6.02539e-05
5.60842e-05
6.04906e-05
5.48045e-05
6.21772e-05
5.47931e-05
6.2192e-05
5.60929e-05
5.61719e-05
6.22326e-05
5.48963e-05
6.05485e-05
5.61805e-05
6.22504e-05
5.48837e-05
5.73178e-05
6.03209e-05
6.47493e-05
6.41643e-05
6.03157e-05
6.41508e-05
5.73205e-05
5.72854e-05
6.41292e-05
6.02847e-05
6.47433e-05
6.02924e-05
5.72831e-05
6.41428e-05
5.62202e-05
6.05597e-05
6.22754e-05
5.49252e-05
6.22567e-05
5.49393e-05
5.62118e-05
5.61668e-05
5.48946e-05
6.22289e-05
6.05464e-05
5.61764e-05
5.48819e-05
6.22432e-05
5.73186e-05
6.03144e-05
6.4744e-05
6.41542e-05
6.4142e-05
6.03134e-05
5.73077e-05
5.72719e-05
6.41201e-05
6.02833e-05
6.47371e-05
5.7283e-05
6.41328e-05
6.02843e-05
5.62166e-05
6.05577e-05
5.49233e-05
6.22676e-05
5.49376e-05
6.22538e-05
5.62067e-05
5.61331e-05
5.48485e-05
6.22225e-05
6.05015e-05
5.4844e-05
6.22031e-05
5.61303e-05
5.72101e-05
6.02216e-05
6.47028e-05
6.40783e-05
6.02307e-05
6.40923e-05
5.72064e-05
5.7243e-05
6.41146e-05
6.47092e-05
6.02609e-05
6.02523e-05
6.41008e-05
5.72463e-05
5.60872e-05
6.04932e-05
5.47979e-05
6.21775e-05
5.48024e-05
6.21968e-05
5.60894e-05
5.61746e-05
6.22366e-05
5.48915e-05
6.05506e-05
5.61822e-05
6.22508e-05
5.48939e-05
5.73206e-05
6.03212e-05
6.47471e-05
6.41652e-05
5.73226e-05
6.03135e-05
6.41519e-05
5.72874e-05
6.41302e-05
6.02839e-05
6.47409e-05
5.72868e-05
6.02919e-05
6.41438e-05
5.62217e-05
6.05585e-05
6.22758e-05
5.49367e-05
5.62144e-05
6.226e-05
5.49337e-05
5.61709e-05
5.48873e-05
6.22289e-05
6.0549e-05
5.61749e-05
5.48915e-05
6.22477e-05
5.73145e-05
6.03189e-05
6.47456e-05
6.41579e-05
6.41447e-05
6.03108e-05
5.73176e-05
5.72824e-05
6.41231e-05
6.02818e-05
6.47394e-05
5.72794e-05
6.41365e-05
6.02896e-05
5.62152e-05
6.05568e-05
5.49344e-05
6.22724e-05
5.49306e-05
6.22538e-05
5.62107e-05
6.58314e-05
5.33388e-05
5.93405e-05
5.9344e-05
5.93389e-05
5.93358e-05
6.58378e-05
6.58622e-05
5.33909e-05
5.93703e-05
5.93735e-05
5.93751e-05
6.58557e-05
5.93784e-05
5.61388e-05
5.48409e-05
6.22224e-05
6.05045e-05
5.48536e-05
6.22079e-05
5.61305e-05
5.7207e-05
6.02282e-05
6.47075e-05
6.40839e-05
6.02294e-05
6.40967e-05
5.72078e-05
5.72486e-05
6.4119e-05
6.47143e-05
6.026e-05
6.02588e-05
6.41065e-05
5.72427e-05
5.60888e-05
6.04924e-05
5.48067e-05
6.21817e-05
5.47955e-05
6.21969e-05
5.60962e-05
5.61707e-05
5.48966e-05
6.22321e-05
6.05472e-05
5.6181e-05
5.4884e-05
6.22461e-05
5.73238e-05
6.0319e-05
6.4748e-05
6.41588e-05
5.73131e-05
6.03177e-05
6.41475e-05
5.72774e-05
6.41258e-05
6.02877e-05
6.47417e-05
5.72885e-05
6.0289e-05
6.41376e-05
5.62209e-05
6.05585e-05
5.49254e-05
6.22705e-05
5.62104e-05
5.49396e-05
6.22568e-05
5.6171e-05
5.48968e-05
6.22334e-05
6.05481e-05
5.618e-05
5.48842e-05
6.22477e-05
5.7324e-05
6.03182e-05
6.47505e-05
6.41625e-05
6.41502e-05
6.03184e-05
5.73132e-05
5.72774e-05
6.41287e-05
6.02885e-05
6.47442e-05
5.72869e-05
6.41409e-05
6.02896e-05
5.62203e-05
6.05594e-05
5.49256e-05
6.22721e-05
5.49397e-05
6.22583e-05
5.62108e-05
6.58627e-05
5.33912e-05
5.93713e-05
5.93731e-05
6.58556e-05
5.93771e-05
5.93783e-05
5.73521e-05
6.03408e-05
6.41658e-05
6.47742e-05
6.03459e-05
5.73495e-05
6.41785e-05
5.62499e-05
6.06018e-05
5.49733e-05
6.22778e-05
5.49767e-05
5.62547e-05
6.22963e-05
6.03466e-05
6.4779e-05
6.03484e-05
2.10348e-05
3.66864e-05
3.66897e-05
4.1942e-05
2.17933e-05
3.75925e-05
3.75956e-05
4.26619e-05
2.257e-05
3.84724e-05
3.84754e-05
4.33608e-05
2.33613e-05
3.93252e-05
3.93284e-05
4.40352e-05
2.41631e-05
4.01504e-05
4.01533e-05
4.46833e-05
2.49716e-05
4.09472e-05
4.09501e-05
4.5309e-05
2.57831e-05
4.17153e-05
4.17179e-05
4.59087e-05
2.6594e-05
4.24545e-05
4.2457e-05
4.64867e-05
2.74008e-05
4.31647e-05
4.31669e-05
4.70443e-05
2.82005e-05
4.38461e-05
4.38481e-05
4.75806e-05
2.89902e-05
4.44991e-05
4.45011e-05
4.80884e-05
2.97673e-05
4.51239e-05
4.51256e-05
4.85795e-05
3.05295e-05
4.57207e-05
4.57223e-05
4.9043e-05
3.12745e-05
4.629e-05
4.62914e-05
4.94873e-05
3.20005e-05
4.6832e-05
4.68334e-05
4.99217e-05
3.27058e-05
4.73473e-05
4.73487e-05
5.03242e-05
3.33888e-05
4.7836e-05
4.78373e-05
5.07068e-05
3.40484e-05
4.82986e-05
4.82998e-05
5.10696e-05
3.46835e-05
4.87354e-05
4.87366e-05
5.14111e-05
3.5293e-05
4.9147e-05
4.91479e-05
5.17345e-05
3.58764e-05
4.95337e-05
4.95344e-05
5.20439e-05
3.64329e-05
4.98959e-05
4.98965e-05
5.23332e-05
3.69621e-05
5.02339e-05
5.02344e-05