/*--------------------------------*- C++ -*----------------------------------*\
| =========                 |                                                 |
| \\      /  F ield         | OpenFOAM: The Open Source CFD Toolbox           |
|  \\    /   O peration     | Version:  v1906                                 |
|   \\  /    A nd           | Web:      www.OpenFOAM.com                      |
|    \\/     M anipulation  |                                                 |
\*---------------------------------------------------------------------------*/
FoamFile
{
    version     2.0;
    format      ascii;
    class       volScalarField;
    location    "550";
    object      p;
}
// * * * * * * * * * * * * * * * * * * * * * * * * * * * * * * * * * * * * * //

dimensions      [0 2 -2 0 0 0 0];


internalField   nonuniform List<scalar> 
171728
(
0.00167306
0.00167471
0.00167471
0.00167306
0.00167471
0.00167471
0.00167471
0.00167471
0.00167306
0.00167471
0.00167471
0.00167306
0.00167479
0.00167479
0.00167478
0.00167479
0.00167236
0.00167236
0.00167237
0.00167237
0.0016857
0.00167237
0.00167239
0.0016857
0.00167237
0.00168569
0.00167239
0.00168564
0.00167244
0.00167475
0.00168372
0.00167253
0.00168564
0.00168368
0.00167244
0.00167475
0.00168566
0.00168372
0.00167253
0.00167236
0.00168569
0.00168525
0.00167237
0.00167237
0.0016857
0.0016857
0.00167236
0.00168569
0.00167237
0.00167239
0.00167244
0.00167475
0.00167253
0.00167237
0.00167239
0.00167475
0.00167244
0.00167253
0.00168564
0.00168368
0.00167244
0.00167475
0.00168566
0.00168372
0.00167253
0.0016857
0.00167237
0.00168569
0.00167239
0.00168564
0.00168368
0.00167475
0.00167244
0.00168372
0.00168566
0.00167253
0.0016857
0.00167237
0.00168569
0.00167239
0.00167236
0.00167237
0.00167237
0.00167236
0.00168564
0.00167475
0.00167244
0.00168372
0.00167253
0.00168564
0.00168368
0.00167475
0.00167244
0.00168372
0.00168566
0.00167253
0.0016857
0.00167237
0.00167239
0.0016857
0.00167237
0.00168569
0.00167239
0.00168525
0.00167237
0.00167237
0.0016857
0.0016857
0.00167236
0.00168569
0.00167236
0.00168569
0.00167673
0.00167673
0.00167672
0.00167245
0.00167673
0.00167237
0.00167673
0.00167669
0.0016724
0.00167671
0.00167247
0.00167673
0.00167237
0.00167672
0.00167669
0.00167241
0.00167674
0.00167236
0.00167236
0.00167674
0.00167673
0.00167236
0.00168133
0.0016857
0.00168569
0.00168136
0.0016857
0.00168133
0.00168135
0.00167673
0.00167672
0.00167236
0.00167673
0.00167236
0.00167673
0.00167673
0.00167236
0.00167238
0.00167673
0.00167672
0.00167236
0.00168133
0.0016857
0.00168569
0.00168136
0.0016857
0.00168133
0.00168135
0.00167673
0.00167672
0.00167236
0.00167673
0.00167236
0.00168133
0.0016857
0.00168133
0.0016857
0.00168133
0.00167673
0.00167673
0.00167236
0.00167238
0.00167673
0.00167672
0.00167236
0.00167673
0.00168133
0.00168132
0.0016857
0.0016857
0.00168571
0.00168132
0.00168132
0.00167671
0.00167246
0.00167673
0.00167237
0.00167669
0.00167672
0.00167241
0.00167671
0.00167246
0.00167673
0.00167237
0.00167672
0.0016767
0.00167241
0.00168138
0.00168569
0.00168566
0.00168134
0.00168143
0.00168568
0.00168134
0.00168138
0.00168569
0.00168566
0.00168134
0.00168568
0.00168134
0.00168143
0.00167674
0.00167236
0.00167236
0.00167674
0.00167674
0.00167236
0.00167673
0.00168133
0.00167673
0.00167672
0.00167236
0.00167673
0.00167236
0.00167673
0.00167673
0.00167238
0.00167236
0.00167672
0.00167673
0.00167236
0.00167673
0.00167672
0.00167236
0.00167673
0.00167236
0.00167673
0.00167673
0.00167236
0.00167238
0.00167673
0.00167672
0.00167236
0.00168133
0.00168569
0.0016857
0.00168136
0.0016857
0.00168135
0.00168133
0.00167673
0.00167672
0.00167236
0.00167673
0.00167236
0.00168133
0.0016857
0.00168133
0.0016857
0.00168133
0.00167673
0.00167673
0.00167238
0.00167236
0.00167672
0.00167673
0.00167236
0.00168133
0.0016857
0.00168569
0.00168136
0.0016857
0.00168133
0.00168135
0.00167673
0.00167672
0.00167236
0.00167673
0.00167236
0.00168133
0.0016857
0.00168133
0.0016857
0.00168133
0.00167673
0.00167673
0.00167236
0.00167238
0.00167673
0.00167672
0.00167236
0.00167673
0.00167671
0.00167246
0.00167673
0.00167237
0.00167669
0.00167672
0.00167241
0.00167671
0.00167246
0.00167673
0.00167237
0.00167672
0.00167669
0.00167241
0.00167674
0.00167236
0.00167236
0.00167674
0.00167674
0.00167236
0.00167673
0.00168133
0.00168569
0.0016857
0.00168136
0.0016857
0.00168135
0.00168133
0.00167673
0.00167672
0.00167236
0.00167673
0.00167236
0.00168133
0.00168133
0.00167673
0.00167673
0.00167238
0.00167236
0.00167672
0.00167673
0.00167236
0.00168133
0.00168569
0.0016857
0.00168136
0.0016857
0.00168135
0.00168133
0.00167673
0.00167672
0.00167236
0.00167673
0.00167236
0.00168133
0.0016857
0.00168133
0.0016857
0.00168133
0.00167673
0.00167673
0.00167238
0.00167236
0.00167672
0.00167673
0.00167236
0.00168132
0.0016857
0.0016857
0.00168571
0.00168132
0.00168132
0.00167671
0.00167246
0.00167673
0.00167237
0.0016767
0.00167672
0.00167241
0.00167671
0.00167246
0.00167673
0.00167237
0.0016767
0.00167672
0.00167241
0.00168138
0.00168569
0.00168567
0.00168134
0.00168568
0.00168143
0.00168134
0.00168138
0.00168569
0.00168567
0.00168134
0.00168568
0.00168143
0.00168134
0.00167674
0.00167236
0.00167236
0.00167674
0.00167674
0.00167236
0.00167673
0.00168133
0.00167673
0.00168133
0.00167662
0.00167628
0.00167274
0.00167276
0.00167648
0.00167649
0.00167257
0.00167662
0.00167628
0.00167275
0.00167275
0.00167649
0.00167649
0.00167256
0.00167662
0.00167628
0.00167275
0.00167275
0.00167649
0.00167649
0.00167256
0.00167662
0.00167628
0.00167275
0.00167275
0.00167649
0.00167649
0.00167256
0.0016748
0.0016748
0.00168377
0.00168376
0.0016748
0.00168375
0.0016748
0.0016748
0.00168377
0.00168377
0.00168376
0.0016748
0.0016748
0.0016748
0.00168377
0.00168376
0.0016748
0.00168375
0.0016748
0.0016748
0.00168377
0.00168377
0.00168376
0.0016748
0.00168174
0.00168563
0.00168545
0.0016815
0.00168544
0.00168148
0.00168175
0.0016765
0.0016726
0.00167669
0.00167249
0.00167655
0.00167667
0.00167274
0.00167647
0.00167667
0.00167252
0.00167278
0.00167666
0.00167648
0.00167277
0.00168174
0.00168563
0.00168545
0.0016815
0.00168544
0.00168148
0.00168175
0.0016765
0.0016726
0.00167669
0.00167249
0.00167667
0.00167655
0.00167274
0.00168171
0.00168564
0.00168552
0.00168141
0.00168547
0.00168146
0.00168157
0.00167647
0.00167667
0.00167252
0.00167278
0.00167666
0.00167648
0.00167277
0.00168153
0.00168203
0.00168546
0.00168546
0.00168172
0.00168559
0.00168172
0.0016765
0.00167261
0.00167669
0.00167249
0.00167656
0.00167667
0.00167274
0.00167647
0.00167667
0.00167251
0.00167278
0.00167666
0.00167648
0.00167277
0.0016765
0.0016726
0.00167669
0.00167249
0.00167667
0.00167655
0.00167274
0.00167647
0.00167667
0.00167278
0.00167252
0.00167648
0.00167667
0.00167277
0.00168174
0.00168563
0.00168545
0.0016815
0.00168544
0.00168148
0.00168175
0.0016765
0.0016726
0.00167669
0.00167249
0.00167655
0.00167667
0.00167274
0.00168171
0.00168564
0.00168552
0.00168141
0.00168547
0.00168157
0.00168146
0.00167647
0.00167667
0.00167252
0.00167278
0.00167666
0.00167648
0.00167277
0.00168174
0.00168545
0.00168563
0.0016815
0.00168544
0.00168175
0.00168148
0.0016765
0.0016726
0.00167669
0.00167249
0.00167667
0.00167655
0.00167274
0.00168171
0.00168564
0.00168552
0.00168141
0.00168547
0.00168146
0.00168157
0.00167647
0.00167667
0.00167278
0.00167252
0.00167648
0.00167666
0.00167277
0.00168174
0.00168545
0.00168563
0.0016815
0.00168544
0.00168175
0.00168148
0.0016765
0.0016726
0.00167669
0.00167249
0.00167655
0.00167667
0.00167274
0.00168171
0.00168146
0.00167647
0.00167667
0.00167278
0.00167251
0.00167648
0.00167667
0.00167277
0.00168174
0.00168545
0.00168563
0.0016815
0.00168544
0.00168175
0.00168148
0.0016765
0.0016726
0.00167669
0.00167249
0.00167667
0.00167655
0.00167274
0.00168171
0.00168564
0.00168552
0.00168141
0.00168547
0.00168146
0.00168157
0.00167647
0.00167667
0.00167278
0.00167252
0.00167648
0.00167666
0.00167277
0.00168153
0.00168203
0.00168546
0.00168546
0.00168559
0.00168172
0.00168172
0.000781423
0.000781366
0.000781366
0.000782937
0.000747631
0.000782937
0.000753275
0.000781366
0.000781366
0.000754886
0.000754886
0.000782936
0.000753275
0.000781366
0.000781366
0.000754886
0.000754886
0.000781366
0.000754886
0.000754886
0.000782937
0.000753275
0.000781366
0.000754886
0.000754886
0.000753275
0.000746057
0.000746057
0.000770376
0.000783498
0.000770377
0.000783486
0.000783505
0.000770376
0.000770375
0.000783498
0.000770377
0.000783486
0.000781423
0.000781423
0.000781423
0.000754942
0.000754942
0.000754942
0.000754942
0.000770459
0.000783451
0.000781387
0.00077254
0.000770413
0.000772562
0.000783404
0.000783505
0.000770376
0.000770459
0.000781387
0.000783451
0.000772541
0.000772562
0.000770413
0.000783404
0.000783498
0.000783498
0.000770929
0.000770371
0.000770371
0.000748195
0.000748195
0.000783506
0.000770376
0.000783505
0.000770376
0.000783498
0.000783498
0.000770929
0.00077037
0.00077037
0.000752723
0.000765857
0.000752723
0.000765857
0.000765286
0.000752717
0.000752717
0.000765849
0.000765849
0.000770376
0.000783498
0.000770377
0.000783486
0.000770459
0.000783451
0.000781387
0.000772541
0.000770413
0.000772562
0.000783403
0.000770459
0.000783451
0.000781387
0.000772541
0.000770413
0.000772562
0.000783403
0.000765837
0.000752724
0.00076585
0.000752723
0.000765837
0.000752724
0.000765849
0.000752722
0.000765754
0.000763714
0.000752759
0.000754907
0.000765803
0.000763735
0.000752805
0.000765754
0.000763714
0.00075276
0.000754907
0.000765802
0.000763735
0.000752805
0.000783498
0.000783498
0.00077093
0.000770371
0.000770371
0.000783506
0.000770376
0.000752723
0.000765857
0.000765286
0.000752718
0.000752718
0.000765849
0.000765849
0.000752723
0.000765857
0.000770459
0.000783451
0.000781388
0.000772541
0.000770413
0.000772562
0.000783404
0.000770375
0.000783498
0.000770377
0.000783487
0.000770459
0.000781387
0.000783451
0.000772541
0.000772562
0.000770413
0.000783404
0.000765838
0.000752724
0.000765849
0.000752722
0.000765754
0.000763714
0.00075276
0.000754907
0.000765802
0.000763735
0.000752805
0.000765838
0.000752724
0.000765849
0.000752722
0.000765754
0.000763714
0.000754907
0.00075276
0.000763735
0.000765802
0.000752805
0.000770376
0.000783498
0.000770377
0.000783486
0.000770459
0.000781387
0.000783451
0.000772541
0.000772562
0.000770413
0.000783404
0.000770376
0.000783498
0.000770377
0.000783486
0.000765754
0.000763714
0.00075276
0.000754907
0.000765802
0.000763735
0.000752805
0.000765837
0.000752724
0.000765849
0.000752722
0.000765754
0.000763714
0.000754907
0.00075276
0.000763735
0.000765803
0.000752805
0.000765837
0.000752724
0.00076585
0.000752722
0.000783497
0.000783498
0.00077093
0.000770371
0.000770371
0.000783506
0.000770376
0.000752723
0.000765857
0.000765286
0.000752718
0.000752718
0.000765849
0.000765849
0.000752723
0.000765857
0.000770459
0.000781387
0.000783451
0.000772541
0.000772562
0.000770413
0.000783404
0.000770376
0.000783498
0.000770377
0.000783486
0.000770376
0.000783498
0.000770377
0.000783486
0.000765754
0.000763714
0.000754907
0.00075276
0.000763735
0.000765803
0.000752805
0.000765755
0.000763714
0.000754907
0.00075276
0.000763735
0.000765802
0.000752805
0.000765837
0.000752724
0.00076585
0.000752723
0.000765837
0.000752724
0.00076585
0.000752723
0.000783506
0.000770376
0.000783506
0.000770376
0.000765286
0.000752718
0.000752718
0.000765849
0.000765849
0.000752723
0.000765857
0.000752723
0.000765857
0.000746078
0.000748148
0.0007481
0.000748195
0.000748183
0.000748148
0.000748195
0.000748203
0.000748202
0.000774684
0.000770369
0.000770374
0.000774662
0.000774683
0.000774665
0.000770369
0.000779197
0.000779201
0.000783502
0.000779189
0.00078351
0.000774686
0.000770365
0.000774675
0.000774679
0.000770373
0.000779193
0.0007792
0.000783506
0.000783489
0.000779193
0.000779198
0.000783508
0.0007792
0.000774682
0.000774685
0.000770374
0.000770369
0.000774663
0.000774666
0.000774683
0.000770369
0.000779197
0.000779201
0.000783503
0.000779189
0.00078351
0.000774686
0.000770364
0.000774674
0.000774679
0.000770373
0.000779193
0.0007792
0.00078349
0.000783506
0.000779198
0.000779193
0.000783508
0.0007792
0.000774682
0.000774689
0.000770371
0.000770371
0.000774692
0.000774692
0.000770362
0.000779219
0.000783442
0.000779195
0.000783501
0.000779249
0.000779203
0.000783475
0.000779219
0.000783442
0.000779195
0.000783501
0.000779249
0.000779203
0.000783475
0.000774651
0.000770379
0.000774674
0.000770424
0.000774618
0.000774678
0.000770394
0.000774651
0.000770379
0.000774674
0.000770424
0.000774618
0.000774678
0.000770394
0.000779187
0.000783516
0.000783516
0.000779196
0.000779196
0.000783512
0.000743912
0.000748138
0.000748198
0.000743889
0.000748171
0.000743942
0.000743897
0.000743912
0.000748138
0.000748198
0.000743889
0.000748172
0.000743942
0.000743897
0.000743881
0.000748213
0.000748212
0.000748209
0.00074389
0.00074389
0.0007792
0.000774682
0.0007792
0.000774682
0.000774688
0.000770371
0.000770371
0.000774692
0.000774692
0.000770362
0.000779218
0.000783442
0.000779195
0.000783501
0.000779203
0.000779249
0.000783475
0.000779218
0.000783442
0.000779195
0.000783501
0.000779203
0.000779249
0.000783475
0.000774651
0.000770378
0.000774674
0.000770424
0.000774678
0.000770394
0.000774618
0.000774651
0.000770379
0.000774674
0.000770424
0.000774678
0.000770394
0.000774618
0.000779186
0.000783515
0.000783516
0.000779196
0.000779196
0.000783512
0.00075703
0.00076155
0.00075703
0.00076155
0.000761536
0.000765867
0.000765867
0.000765863
0.000761546
0.000761546
0.000756999
0.000752771
0.000757023
0.000752725
0.000757026
0.000756966
0.000752741
0.000756999
0.000752771
0.000757023
0.000752725
0.000757026
0.000756966
0.000752741
0.000761568
0.000765852
0.000765793
0.000761545
0.000765826
0.000761553
0.000761598
0.000761568
0.000765852
0.000765793
0.000761545
0.000765826
0.000761553
0.000761598
0.000757037
0.000752718
0.000752718
0.00075704
0.00075704
0.000752709
0.000774685
0.000770369
0.000770374
0.000774662
0.000774683
0.000774666
0.000770369
0.000779197
0.000779201
0.000783502
0.000779189
0.00078351
0.000774686
0.000770364
0.000774675
0.000774679
0.000770373
0.000779193
0.0007792
0.000783506
0.000783489
0.000779193
0.000779198
0.000783508
0.000761543
0.000765857
0.00076584
0.00076155
0.000765859
0.000761543
0.000761548
0.000757035
0.000757023
0.000752712
0.00075272
0.000757027
0.000761547
0.000765853
0.000761551
0.000765861
0.000761539
0.000757033
0.000757011
0.000752716
0.000752721
0.000752716
0.000757031
0.000757014
0.000761543
0.000765857
0.000765841
0.00076155
0.000765859
0.000761543
0.000761548
0.000757035
0.000757023
0.000752711
0.000757027
0.00075272
0.000761547
0.000765854
0.000761551
0.000765861
0.000761538
0.000757033
0.000757011
0.000752716
0.000752721
0.000757031
0.000757014
0.000752716
0.000774688
0.000770371
0.000770371
0.000774692
0.000774692
0.000770362
0.000779219
0.000783441
0.000779195
0.000783501
0.000779203
0.000779249
0.000783475
0.000779219
0.000783442
0.000779196
0.000783501
0.000779249
0.000779203
0.000783475
0.000774651
0.000770379
0.000774674
0.000770425
0.000774678
0.000774618
0.000770394
0.000774651
0.000770379
0.000774674
0.000770425
0.000774618
0.000774678
0.000770394
0.000779187
0.000783516
0.000783516
0.000779196
0.000779196
0.000783512
0.0007792
0.000774682
0.00075703
0.00076155
0.000761536
0.000765867
0.000765867
0.000765863
0.000761546
0.000761546
0.000756999
0.000752771
0.000757023
0.000752726
0.000756966
0.000757026
0.000752741
0.000756999
0.000752771
0.000757022
0.000752726
0.000757026
0.000756966
0.000752741
0.000761568
0.000765852
0.000765792
0.000761545
0.000761599
0.000765826
0.000761553
0.000761568
0.000765852
0.000765793
0.000761545
0.000765826
0.000761553
0.000761599
0.000757037
0.000752718
0.000752718
0.00075704
0.00075704
0.000752709
0.000757031
0.00076155
0.000774684
0.000770369
0.000770374
0.000774663
0.000774683
0.000774665
0.000770369
0.000779197
0.000779201
0.000783502
0.000779189
0.00078351
0.000774686
0.000770365
0.000774674
0.000774678
0.000770373
0.000779193
0.0007792
0.000783506
0.000783489
0.000779193
0.000779198
0.000783508
0.000761543
0.000765841
0.000765858
0.000761549
0.00076586
0.000761548
0.000761543
0.000757035
0.000757023
0.000752711
0.00075272
0.000757027
0.000761547
0.000765854
0.000761551
0.000765861
0.000761538
0.000757033
0.000757011
0.000752721
0.000752716
0.000752716
0.000757014
0.000757031
0.000761543
0.000765857
0.00076584
0.000761549
0.000765859
0.000761543
0.000761548
0.000757035
0.000757023
0.000752712
0.000757027
0.00075272
0.000761547
0.000765853
0.000761551
0.000765861
0.000761539
0.000757033
0.000757011
0.000752716
0.000752721
0.000757031
0.000757014
0.000752716
0.000774685
0.000770374
0.000770369
0.000774662
0.000774666
0.000774683
0.000770369
0.000779197
0.000779202
0.000783503
0.000779189
0.00078351
0.000774686
0.000770364
0.000774675
0.000774679
0.000770373
0.000779193
0.0007792
0.00078349
0.000783506
0.000779198
0.000779193
0.000783508
0.000774685
0.000770369
0.000770374
0.000774662
0.000774683
0.000774666
0.000770369
0.000779197
0.000779201
0.000783503
0.000779189
0.00078351
0.000774686
0.000770364
0.000774675
0.000774679
0.000770373
0.000779193
0.0007792
0.000783506
0.00078349
0.000779193
0.000779198
0.000783508
0.000761543
0.000765841
0.000765858
0.00076155
0.00076586
0.000761548
0.000761543
0.000757035
0.000757023
0.000752711
0.000757027
0.00075272
0.000761547
0.000765854
0.000761551
0.000765861
0.000761539
0.000757033
0.000757011
0.000752721
0.000752716
0.000757014
0.000757031
0.000752716
0.000761543
0.000765857
0.000765841
0.00076155
0.00076586
0.000761543
0.000761548
0.000757035
0.000757023
0.000752711
0.000757027
0.00075272
0.000761547
0.000765854
0.000761551
0.000765861
0.000761538
0.000757033
0.000757011
0.000752716
0.000752721
0.000757031
0.000757014
0.000752716
0.000774688
0.000770371
0.000770371
0.000774692
0.000774692
0.000770362
0.000779219
0.000783441
0.000779196
0.000783501
0.000779203
0.00077925
0.000783474
0.000779219
0.000783442
0.000779195
0.000783501
0.000779249
0.000779203
0.000783475
0.000774651
0.000770379
0.000774674
0.000770425
0.000774677
0.000774618
0.000770394
0.000774651
0.000770379
0.000774674
0.000770425
0.000774618
0.000774677
0.000770394
0.000779187
0.000783515
0.000783516
0.000779195
0.000779196
0.000783512
0.0007792
0.000774682
0.00075703
0.00076155
0.000761536
0.000765867
0.000765867
0.000765863
0.000761546
0.000761546
0.000756999
0.000752772
0.000757022
0.000752726
0.000756966
0.000757026
0.000752741
0.000756999
0.000752771
0.000757023
0.000752726
0.000757026
0.000756966
0.000752741
0.000761568
0.000765852
0.000765792
0.000761545
0.000761599
0.000765826
0.000761553
0.000761568
0.000765852
0.000765793
0.000761545
0.000765826
0.000761553
0.000761598
0.000757037
0.000752718
0.000752719
0.00075704
0.00075704
0.000752709
0.000757031
0.00076155
0.000774685
0.000770374
0.000770369
0.000774662
0.000774665
0.000774683
0.000770369
0.000779197
0.000779201
0.000783503
0.000779189
0.00078351
0.000774686
0.000770364
0.000774675
0.000774679
0.000770373
0.000779193
0.000779201
0.000783489
0.000783506
0.000779199
0.000779193
0.000783508
0.000774684
0.000770374
0.000770369
0.000774663
0.000774665
0.000774683
0.000770369
0.000779197
0.000779201
0.000783502
0.000779189
0.00078351
0.000774686
0.000770365
0.000774675
0.000774678
0.000770373
0.000779193
0.0007792
0.000783489
0.000783506
0.000779199
0.000779193
0.000783508
0.000761543
0.00076584
0.000765857
0.00076155
0.000765859
0.000761548
0.000761543
0.000757035
0.000757023
0.000752711
0.000757028
0.00075272
0.000761547
0.000765854
0.000761551
0.000765861
0.000761539
0.000757033
0.000757011
0.000752721
0.000752716
0.000757014
0.000757031
0.000752716
0.000761543
0.00076584
0.000765858
0.00076155
0.000765859
0.000761548
0.000761543
0.000757035
0.000757023
0.000752712
0.000757027
0.00075272
0.000761547
0.000765853
0.000761551
0.000765861
0.000761539
0.000757033
0.000757011
0.000752721
0.000752716
0.000757014
0.000757031
0.000752716
0.0007792
0.000774682
0.0007792
0.000774682
0.000761536
0.000765867
0.000765867
0.000765863
0.000761546
0.000761546
0.000756999
0.000752771
0.000757023
0.000752726
0.000752741
0.000756966
0.000757026
0.000756999
0.000752771
0.000757023
0.000752726
0.000752741
0.000756966
0.000757026
0.000761568
0.000765852
0.000765793
0.000761545
0.000765826
0.000761598
0.000761553
0.000761568
0.000765853
0.000765793
0.000761545
0.000765826
0.000761598
0.000761553
0.000757037
0.000752718
0.000752718
0.000752709
0.00075704
0.00075704
0.00075703
0.00076155
0.00075703
0.00076155
0.000743891
0.0007482
0.000743895
0.000748207
0.000743883
0.000743888
0.000743894
0.000748203
0.000748186
0.000748205
0.000743888
0.000743892
0.000743896
0.000743894
0.000743895
0.000781458
0.000781458
0.000772597
0.000772632
0.000772632
0.000772679
0.000781505
0.000779321
0.000783214
0.000783214
0.000779754
0.000779495
0.000779495
0.000783374
0.000744014
0.000747909
0.000747909
0.000744446
0.00074807
0.000744187
0.000744187
0.000779321
0.000783213
0.000783214
0.000779755
0.000779495
0.000779495
0.000783373
0.000756897
0.000756459
0.000753016
0.000753016
0.000756736
0.000756737
0.000752843
0.000779321
0.000783213
0.000783214
0.000779755
0.000779495
0.000779496
0.000783373
0.000756898
0.000756459
0.000753017
0.000753016
0.000756736
0.000756737
0.000752843
0.000779321
0.000783213
0.000783214
0.000779755
0.000779495
0.000779496
0.000783373
0.000756898
0.000756459
0.000753017
0.000753016
0.000756736
0.000756738
0.000752843
0.000756898
0.000756459
0.000753016
0.000753016
0.000752843
0.000756737
0.000756738
0.000781458
0.000781458
0.000772597
0.000772632
0.000772632
0.000772679
0.000781505
0.000781458
0.000781458
0.000772597
0.000772632
0.000772632
0.000772679
0.000781505
0.000781458
0.000781458
0.000772597
0.000772632
0.000772632
0.000772679
0.000781505
0.00076377
0.000754975
0.000754975
0.000763804
0.000763804
0.000763851
0.000755022
0.00076377
0.000754975
0.000754975
0.000763804
0.000763804
0.000763851
0.000755022
0.00076377
0.000754975
0.000754975
0.000763804
0.000763804
0.000763851
0.000755022
0.00076377
0.000754975
0.000754975
0.000763804
0.000763804
0.000763851
0.000755022
0.000774349
0.000770456
0.000770696
0.00077458
0.000774584
0.000774352
0.000770701
0.000779486
0.000783304
0.000779238
0.000783422
0.000779399
0.000779265
0.000783201
0.000774377
0.00077044
0.000774627
0.000770574
0.00077448
0.000774598
0.000770661
0.000779526
0.000779283
0.000783408
0.000783177
0.00077928
0.000779521
0.000783174
0.00077435
0.000770696
0.000770456
0.000774579
0.000774353
0.000774583
0.000770701
0.000779486
0.000783304
0.000779237
0.000783422
0.000779399
0.000779264
0.000783201
0.000774377
0.00077044
0.000774628
0.000770575
0.00077448
0.000774598
0.000770661
0.000779526
0.000779284
0.000783177
0.000783407
0.000779521
0.00077928
0.000783174
0.00077455
0.000774112
0.00077067
0.00077067
0.00077439
0.00077439
0.000770496
0.000774549
0.000774112
0.00077067
0.00077067
0.000770497
0.000774389
0.00077439
0.00076167
0.000762103
0.000765563
0.000765564
0.000765724
0.000761844
0.000761843
0.00077435
0.000770455
0.000770696
0.000774579
0.000774584
0.000774352
0.000770701
0.000779486
0.000783305
0.000779237
0.000783422
0.000779264
0.000779399
0.000783202
0.000774378
0.00077044
0.000774628
0.000770574
0.000774598
0.000774481
0.000770661
0.000779525
0.000779284
0.000783408
0.000783176
0.00077928
0.000779521
0.000783174
0.00077435
0.000770455
0.000770696
0.000774579
0.000774584
0.000774352
0.000770701
0.000779486
0.000783304
0.000779238
0.000783422
0.000779264
0.0007794
0.000783201
0.000774377
0.00077044
0.000774627
0.000770575
0.000774598
0.000770661
0.00077448
0.000779526
0.000779284
0.000783408
0.000783176
0.00077928
0.000779521
0.000783174
0.000761874
0.000765759
0.000765526
0.000761633
0.000765524
0.000761629
0.00076187
0.000756725
0.00075292
0.000756976
0.000752786
0.000756829
0.000756947
0.000753007
0.000761834
0.000765773
0.000765656
0.000761587
0.000761748
0.000765552
0.000761614
0.000756697
0.000756928
0.000752802
0.000753042
0.000756932
0.000756699
0.000753047
0.000761874
0.000765759
0.000765526
0.000761633
0.000765524
0.000761629
0.00076187
0.000756725
0.000752921
0.000756976
0.000752786
0.000756946
0.000756828
0.000753007
0.000761835
0.000765773
0.000765654
0.000761587
0.000765552
0.000761614
0.000761749
0.000756697
0.000756928
0.000752802
0.000753042
0.000756932
0.000756699
0.000753047
0.000774549
0.000774112
0.000770671
0.00077067
0.00077439
0.000774389
0.000770497
0.00076167
0.000762103
0.000765563
0.000765564
0.000761844
0.000765724
0.000761844
0.000774349
0.000770455
0.000770696
0.000774579
0.000774584
0.000774352
0.000770701
0.000779486
0.000783304
0.000779238
0.000783422
0.000779264
0.000779399
0.000783201
0.000774377
0.00077044
0.000774627
0.000770575
0.000774598
0.00077448
0.000770661
0.000779526
0.000779284
0.000783408
0.000783177
0.00077928
0.000779521
0.000783174
0.00077435
0.000770696
0.000770456
0.00077458
0.000774352
0.000774584
0.000770701
0.000779486
0.000783304
0.000779238
0.000783422
0.000779264
0.0007794
0.000783201
0.000774377
0.00077044
0.000774627
0.000770575
0.000774598
0.000770661
0.00077448
0.000779526
0.000779284
0.000783177
0.000783408
0.000779521
0.00077928
0.000783174
0.000761875
0.000765758
0.000765527
0.000761633
0.000765524
0.000761629
0.00076187
0.000756725
0.000752921
0.000756976
0.000752786
0.000756828
0.000756946
0.000753007
0.000761835
0.000765773
0.000765655
0.000761587
0.000761749
0.000765552
0.000761614
0.000756697
0.000756928
0.000752802
0.000753042
0.000756932
0.0007567
0.000753047
0.000761875
0.000765527
0.000765758
0.000761633
0.000765524
0.00076187
0.00076163
0.000756725
0.000752921
0.000756975
0.000752787
0.000756946
0.000756828
0.000753007
0.000761835
0.000765773
0.000765655
0.000761587
0.000765552
0.000761614
0.000761749
0.000756697
0.000756928
0.000753042
0.000752802
0.0007567
0.000756932
0.000753047
0.00077435
0.000770696
0.000770455
0.00077458
0.000774352
0.000774584
0.0007707
0.000779486
0.000783305
0.000779237
0.000783422
0.000779399
0.000779264
0.000783202
0.000774378
0.00077044
0.000774628
0.000770574
0.000774481
0.000774598
0.000770661
0.000779525
0.000779283
0.000783177
0.000783408
0.000779521
0.00077928
0.000783174
0.000761875
0.000765758
0.000765527
0.000761633
0.000765524
0.000761629
0.00076187
0.000756725
0.000752921
0.000756975
0.000752787
0.000753007
0.000756828
0.000756946
0.000761835
0.000765773
0.000765655
0.000761587
0.000765552
0.000761748
0.000761614
0.000756697
0.000756928
0.000752802
0.000753042
0.000753047
0.000756932
0.0007567
0.000761874
0.000765527
0.000765758
0.000761633
0.000765525
0.00076187
0.000761629
0.000756725
0.000752921
0.000756976
0.000752786
0.000756946
0.000756829
0.000753007
0.000761835
0.000765773
0.000765656
0.000761587
0.000765552
0.000761614
0.000761748
0.000756698
0.000756928
0.000753042
0.000752802
0.0007567
0.000756932
0.000753047
0.00077455
0.000774112
0.000770671
0.00077067
0.00077439
0.000774389
0.000770496
0.00076167
0.000762103
0.000765563
0.000765565
0.000761844
0.000765724
0.000761843
0.00077435
0.000770696
0.000770456
0.00077458
0.000774353
0.000774584
0.000770701
0.000779486
0.000783304
0.000779238
0.000783422
0.0007794
0.000779265
0.000783201
0.000774377
0.00077044
0.000774628
0.000770575
0.00077448
0.000774598
0.000770661
0.000779525
0.000779284
0.000783177
0.000783408
0.000779521
0.00077928
0.000783174
0.000761874
0.000765527
0.000765758
0.000761633
0.000765524
0.00076187
0.00076163
0.000756725
0.000752921
0.000756976
0.000752787
0.000753007
0.000756828
0.000756947
0.000761835
0.000765773
0.000765655
0.000761587
0.000765552
0.000761749
0.000761614
0.000756697
0.000756928
0.000753042
0.000752802
0.000753047
0.0007567
0.000756932
0.000761874
0.000765527
0.000765758
0.000761633
0.000765524
0.00076187
0.00076163
0.000756725
0.000752921
0.000756976
0.000752787
0.000756946
0.000756828
0.000753007
0.000761835
0.000765773
0.000765655
0.000761587
0.000765552
0.000761614
0.000761749
0.000756697
0.000756928
0.000753042
0.000752802
0.0007567
0.000756932
0.000753046
0.00076167
0.000762103
0.000765564
0.000765564
0.000765724
0.000761843
0.000761843
0.000744178
0.000748001
0.000748118
0.000743931
0.000744092
0.000747897
0.000743958
0.000744218
0.000743976
0.000747871
0.000748104
0.000744213
0.000747869
0.000743973
0.000748
0.000743931
0.000744093
0.00166582
0.00166574
0.00166574
0.00166732
0.00163001
0.00162993
0.00162993
0.0016315
0.00159427
0.00159418
0.00159418
0.00159575
0.00155859
0.0015585
0.0015585
0.00156007
0.00152297
0.00152288
0.00152288
0.00152444
0.00148741
0.00148732
0.00148732
0.00148888
0.0014519
0.0014518
0.0014518
0.00145336
0.00141643
0.00141633
0.00141633
0.00141789
0.001381
0.00138091
0.00138091
0.00138246
0.00134562
0.00134552
0.00134552
0.00134707
0.00131027
0.00131016
0.00131016
0.00131172
0.00127495
0.00127484
0.00127484
0.0012764
0.00123964
0.00123954
0.00123954
0.0012411
0.00120437
0.00120427
0.00120427
0.00120583
0.00116911
0.00116901
0.00116901
0.00117057
0.00113386
0.00113377
0.00113377
0.00113533
0.00109863
0.00109854
0.00109854
0.0011001
0.0010634
0.00106332
0.00106332
0.00106487
0.00102817
0.0010281
0.0010281
0.00102965
0.00099295
0.000992875
0.000992875
0.000994435
0.000957723
0.00095765
0.00095765
0.000959211
0.000922488
0.000922418
0.000922418
0.000923981
0.000887243
0.000887177
0.000887177
0.000888742
0.000851986
0.000851923
0.000851923
0.00085349
0.000816714
0.000816653
0.000816653
0.000818222
0.00166732
0.00163723
0.00166574
0.00166574
0.00163887
0.00163887
0.00166731
0.00163723
0.00166574
0.00166574
0.00163887
0.00163887
0.00166574
0.00163887
0.00163887
0.00166731
0.00163723
0.00166574
0.00163887
0.00163887
0.00163723
0.0016315
0.00160147
0.00162993
0.00162993
0.00160311
0.00160311
0.0016315
0.00160147
0.00162993
0.00162993
0.00160311
0.00160311
0.00162993
0.00160311
0.00160311
0.0016315
0.00160147
0.00162993
0.00160311
0.00160311
0.00160147
0.00159575
0.00156578
0.00159418
0.00159418
0.00156742
0.00156742
0.00159575
0.00156578
0.00159418
0.00159418
0.00156742
0.00156742
0.00159418
0.00156742
0.00156742
0.00159575
0.00156578