/*--------------------------------*- C++ -*----------------------------------*\
| =========                 |                                                 |
| \\      /  F ield         | OpenFOAM: The Open Source CFD Toolbox           |
|  \\    /   O peration     | Version:  v1906                                 |
|   \\  /    A nd           | Web:      www.OpenFOAM.com                      |
|    \\/     M anipulation  |                                                 |
\*---------------------------------------------------------------------------*/
FoamFile
{
    version     2.0;
    format      ascii;
    class       volScalarField;
    location    "350";
    object      epsilon;
}
// * * * * * * * * * * * * * * * * * * * * * * * * * * * * * * * * * * * * * //

dimensions      [0 2 -3 0 0 0 0];


internalField   nonuniform List<scalar> 
43248
(
1.14811e-06
8.63022e-07
8.62994e-07
1.14817e-06
8.62766e-07
8.63031e-07
8.62801e-07
8.63057e-07
1.1485e-06
8.62914e-07
8.62929e-07
1.14842e-06
3.19705e-07
3.19687e-07
3.19777e-07
3.19794e-07
1.84276e-05
1.84294e-05
5.4624e-06
5.46334e-06
4.09143e-06
9.16114e-06
4.09377e-06
4.09159e-06
9.16235e-06
9.15536e-06
4.09383e-06
2.10217e-06
3.47504e-06
5.58234e-07
5.52332e-07
2.10677e-06
2.10227e-06
8.56922e-07
3.47541e-06
5.58274e-07
3.47177e-06
5.52386e-07
2.10681e-06
1.84288e-05
1.84185e-05
1.1442e-06
5.46385e-06
5.46185e-06
5.46105e-06
5.45943e-06
1.84262e-05
1.84158e-05
9.16295e-06
4.09361e-06
3.47539e-06
5.58314e-07
2.10696e-06
9.16269e-06
4.09398e-06
5.58334e-07
3.47519e-06
2.10686e-06
2.10235e-06
8.56731e-07
3.47442e-06
5.5824e-07
3.47182e-06
5.52348e-07
2.10706e-06
4.0918e-06
9.16198e-06
9.15547e-06
4.09402e-06
2.1023e-06
8.56979e-07
5.58333e-07
3.47512e-06
5.52443e-07
3.47147e-06
2.10697e-06
4.09169e-06
9.16223e-06
9.15567e-06
4.09393e-06
1.84298e-05
5.4636e-06
5.4619e-06
1.84282e-05
2.10241e-06
5.58365e-07
3.47446e-06
5.52458e-07
2.10708e-06
2.10245e-06
8.56856e-07
5.58391e-07
3.47554e-06
5.52504e-07
3.47245e-06
2.10707e-06
4.09194e-06
9.16222e-06
4.09365e-06
4.092e-06
9.16328e-06
9.15665e-06
4.09385e-06
1.14406e-06
5.46223e-06
5.46388e-06
5.45941e-06
5.46153e-06
1.84286e-05
1.84183e-05
1.84304e-05
1.842e-05
1.84224e-05
1.84247e-05
4.53807e-06
2.81201e-06
5.46165e-06
9.5006e-06
9.49688e-06
2.81004e-06
4.54044e-06
4.54429e-06
2.81177e-06
5.46371e-06
9.50353e-06
9.50126e-06
2.81168e-06
4.54264e-06
9.73612e-06
2.17309e-05
2.17287e-05
2.17241e-05
2.17229e-05
9.73563e-06
1.22033e-05
1.0824e-05
4.74425e-06
4.09188e-06
1.22006e-05
1.0827e-05
4.74426e-06
2.2054e-05
9.15856e-06
7.08843e-06
7.08897e-06
2.20609e-05
1.2204e-05
4.09335e-06
1.08302e-05
4.74576e-06
1.08272e-05
4.74586e-06
1.22067e-05
1.22036e-05
1.08242e-05
4.74444e-06
4.09193e-06
1.22008e-05
1.08271e-05
4.74455e-06
2.20546e-05
9.15935e-06
7.09013e-06
7.09051e-06
2.20612e-05
2.20566e-05
7.08953e-06
9.15836e-06
2.20501e-05
7.08913e-06
1.22042e-05
4.09343e-06
1.08303e-05
4.74604e-06
1.08274e-05
4.74613e-06
1.22069e-05
1.84238e-05
1.84234e-05
9.73334e-06
2.17173e-05
2.1718e-05
9.73374e-06
2.17236e-05
2.17243e-05
4.54456e-06
2.81212e-06
5.46352e-06
9.50403e-06
2.81161e-06
9.50098e-06
4.54466e-06
4.53835e-06
2.81093e-06
5.46173e-06
9.49968e-06
9.49604e-06
2.81043e-06
4.53879e-06
4.54198e-06
9.49627e-06
2.80837e-06
5.46155e-06
2.80894e-06
4.54192e-06
9.49928e-06
4.53615e-06
9.4913e-06
2.80719e-06
5.45948e-06
4.53572e-06
9.49495e-06
2.80776e-06
9.73573e-06
2.17286e-05
2.17293e-05
2.17223e-05
2.1723e-05
9.73534e-06
1.84212e-05
1.84208e-05
2.20547e-05
9.16049e-06
7.0901e-06
7.09046e-06
2.20612e-05
1.22046e-05
4.09379e-06
4.746e-06
1.08304e-05
4.7462e-06
1.08284e-05
1.22071e-05
2.20545e-05
9.15969e-06
7.08865e-06
7.08916e-06
2.20614e-05
1.22044e-05
4.09336e-06
1.08306e-05
4.74611e-06
1.08277e-05
4.74587e-06
1.22074e-05
1.22033e-05
4.74426e-06
1.08244e-05
4.09212e-06
1.22003e-05
4.74454e-06
1.08274e-05
2.20532e-05
9.15945e-06
7.08964e-06
7.08999e-06
2.20599e-05
2.20552e-05
7.08899e-06
9.15798e-06
2.20487e-05
7.08863e-06
1.22036e-05
4.09364e-06
4.74619e-06
1.08306e-05
4.74578e-06
1.08276e-05
1.22067e-05
1.22039e-05
1.08244e-05
4.74418e-06
4.09202e-06
1.2201e-05
1.08274e-05
4.74452e-06
2.20545e-05
9.15965e-06
7.08837e-06
7.08874e-06
2.20611e-05
2.20565e-05
7.08775e-06
9.15822e-06
2.20499e-05
7.08736e-06
1.22043e-05
4.09356e-06
1.08304e-05
4.74612e-06
1.08275e-05
4.74581e-06
1.22073e-05
1.84248e-05
4.54473e-06
2.81248e-06
5.46351e-06
9.50417e-06
2.81156e-06
9.50118e-06
4.54505e-06
4.53884e-06
2.81141e-06
5.46191e-06
9.49953e-06
9.49654e-06
2.81054e-06
4.53892e-06
9.7366e-06
2.173e-05
2.17303e-05
2.17236e-05
2.1724e-05
9.73623e-06
1.84233e-05
1.22037e-05
4.7443e-06
1.08252e-05
4.09185e-06
1.22011e-05
4.74426e-06
1.08272e-05
2.20544e-05
9.15971e-06
7.08829e-06
7.08865e-06
2.2061e-05
2.20563e-05
7.08728e-06
1.22045e-05
4.09381e-06
4.74605e-06
1.08304e-05
4.74579e-06
1.08283e-05
1.22071e-05
1.22038e-05
4.74459e-06
1.08253e-05
4.09193e-06
1.22009e-05
4.74471e-06
1.08274e-05
2.20543e-05
9.16075e-06
7.09008e-06
7.09059e-06
2.20612e-05
2.20566e-05
7.0896e-06
9.15938e-06
2.20498e-05
7.08908e-06
1.22043e-05
4.09385e-06
4.74631e-06
1.08305e-05
4.74617e-06
1.08284e-05
1.22072e-05
9.73406e-06
2.17192e-05
2.17185e-05
9.73447e-06
2.17255e-05
2.17248e-05
4.53866e-06
2.81102e-06
5.46189e-06
9.50014e-06
2.81044e-06
9.49649e-06
4.53911e-06
4.54467e-06
2.81234e-06
5.4639e-06
9.50457e-06
2.81178e-06
9.50158e-06
4.5451e-06
4.53648e-06
9.49174e-06
2.80717e-06
5.45992e-06
4.53604e-06
2.80809e-06
9.49541e-06
4.54248e-06
9.49686e-06
2.80856e-06
5.46167e-06
4.54204e-06
2.80917e-06
9.49985e-06
9.73646e-06
2.17306e-05
2.17298e-05
2.17243e-05
2.17235e-05
9.73606e-06
1.84237e-05
1.84232e-05
1.84254e-05
1.8425e-05
2.66818e-06
1.14923e-06
1.76782e-06
1.76673e-06
1.7677e-06
1.76846e-06
2.66797e-06
2.66779e-06
1.14921e-06
1.76823e-06
1.76778e-06
1.76784e-06
1.76763e-06
2.66846e-06
2.66821e-06
1.14913e-06
1.76805e-06
1.7681e-06
1.76778e-06
1.76784e-06
2.66807e-06
2.66793e-06
1.14914e-06
1.76786e-06
1.76775e-06
1.76748e-06
1.76813e-06
2.66863e-06
1.66609e-07
1.66596e-07
1.64503e-07
7.94032e-08
7.99399e-08
3.15747e-07
1.66612e-07
1.66562e-07
1.64502e-07
1.64452e-07
7.9398e-08
7.99357e-08
1.6666e-07
1.6663e-07
1.64516e-07
7.94198e-08
7.99589e-08
3.15849e-07
1.66653e-07
1.66635e-07
1.6454e-07
1.64523e-07
7.94185e-08
7.99582e-08
1.41078e-06
2.36148e-06
1.27372e-06
2.10312e-06
1.41063e-06
2.36233e-06
1.27335e-06
1.61689e-06
2.03252e-06
3.47444e-06
2.86032e-06
2.0317e-06
2.85953e-06
1.61722e-06
1.41569e-06
2.10585e-06
2.36572e-06
1.27821e-06
2.36484e-06
1.27938e-06
1.41583e-06
1.40962e-06
2.36177e-06
1.27422e-06
2.10317e-06
1.41227e-06
2.36259e-06
1.27302e-06
1.6173e-06
2.03259e-06
3.47486e-06
2.86088e-06
2.86011e-06
2.03199e-06
1.61754e-06
1.61294e-06
2.85716e-06
2.0277e-06
3.47256e-06
1.61255e-06
2.85785e-06
2.02861e-06
1.41728e-06
2.10594e-06
2.36595e-06
1.27811e-06
2.36514e-06
1.27975e-06
1.4147e-06
2.66521e-06
1.14322e-06
1.76362e-06
1.76346e-06
1.764e-06
2.66424e-06
1.76374e-06
1.61714e-06
2.03258e-06
3.47516e-06
2.86046e-06
2.03208e-06
2.8602e-06
1.61739e-06
1.41659e-06
2.10601e-06
2.36598e-06
1.27831e-06
2.36512e-06
1.28001e-06
1.41498e-06
1.61823e-06
2.03186e-06
3.4752e-06
2.86036e-06
2.8597e-06
2.03246e-06
1.61584e-06
1.41653e-06
2.10595e-06
1.2783e-06
2.36579e-06
1.27993e-06
2.36493e-06
1.41491e-06
1.41107e-06
2.3618e-06
1.27341e-06
2.10338e-06
1.41095e-06
2.36262e-06
1.27419e-06
1.61722e-06
2.03151e-06
3.47465e-06
2.86066e-06
2.03194e-06
2.86011e-06
1.61641e-06
1.61229e-06
2.85723e-06
2.02777e-06
3.47186e-06
1.61228e-06
2.02784e-06
2.85743e-06
1.41596e-06
2.10601e-06
2.36599e-06
1.27949e-06
2.36515e-06
1.27871e-06
1.41608e-06
1.40958e-06
1.27357e-06
2.36165e-06
2.10328e-06
1.41225e-06
1.27408e-06
2.36246e-06
1.61848e-06
2.03238e-06
3.47439e-06
2.86004e-06
2.85989e-06
2.03173e-06
1.61594e-06
1.61178e-06
2.85692e-06
2.0275e-06
3.47222e-06
1.61357e-06
2.85714e-06
2.02838e-06
1.41725e-06
2.10596e-06
1.27953e-06
2.36582e-06
1.27887e-06
2.36503e-06
1.41462e-06
1.41106e-06
1.27365e-06
2.36173e-06
2.1034e-06
1.41094e-06
1.27416e-06
2.3625e-06
1.61824e-06
2.03174e-06
3.47458e-06
2.86002e-06
2.03195e-06
2.85982e-06
1.61593e-06
1.61156e-06
2.8571e-06
1.41594e-06
2.10607e-06
1.27963e-06
2.36588e-06
1.27896e-06
2.36506e-06
1.41608e-06
1.41111e-06
1.27369e-06
2.3619e-06
2.10341e-06
1.41096e-06
1.27388e-06
2.3627e-06
1.61738e-06
2.03281e-06
3.47536e-06
2.86095e-06
2.86017e-06
2.03198e-06
1.61762e-06
1.61304e-06
2.85723e-06
2.02772e-06
3.47251e-06
1.61263e-06
2.85793e-06
2.02872e-06
1.41599e-06
2.10612e-06
1.2788e-06
2.36607e-06
1.27924e-06
2.36526e-06
1.41613e-06
2.66537e-06
1.14344e-06
1.76325e-06
1.76386e-06
2.66439e-06
1.76376e-06
1.76387e-06
1.33485e-07
2.30083e-07
2.30134e-07
3.56887e-07
3.52074e-07
2.27875e-07
2.27864e-07
3.51888e-07
2.27808e-07
2.27914e-07
2.27771e-07
2.27867e-07
3.51495e-07
2.27818e-07
2.27816e-07
3.52046e-07
3.57116e-07
3.7749e-07
2.30147e-07
2.30177e-07
2.37933e-07
2.37915e-07
3.56786e-07
3.77358e-07
2.3016e-07
2.30227e-07
2.37827e-07
2.37965e-07
2.30175e-07
2.37808e-07
2.37913e-07
3.57515e-07
3.76797e-07
2.30123e-07
2.37865e-07
2.37854e-07
3.77679e-07
1.34155e-07
1.34149e-07
1.34163e-07
1.34159e-07
3.68219e-06
8.90907e-06
3.6516e-06
8.91448e-06
1.84699e-05
1.84619e-05
3.68205e-06
8.91101e-06
3.65233e-06
8.91647e-06
1.33477e-07
1.33491e-07
1.33486e-07
1.31781e-07
1.31775e-07
1.31792e-07
1.31786e-07
1.15735e-06
2.7994e-06
1.58234e-07
2.32527e-07
1.12991e-06
2.82144e-06
1.5844e-07
1.84708e-05
1.84628e-05
1.15732e-06
1.58226e-07
2.79831e-06
2.32579e-07
1.12997e-06
1.58442e-07
2.8231e-06
5.13571e-06
5.13764e-06
3.644e-07
5.14807e-06
5.15006e-06
1.84754e-05
1.84837e-05
1.84776e-05
1.84859e-05
3.44971e-07
5.12955e-06
5.1315e-06
5.11564e-06
5.11747e-06
3.60246e-06
8.90869e-06
8.90292e-06
3.63676e-06
3.60247e-06
8.9096e-06
8.90457e-06
3.63667e-06
1.08646e-06
2.25653e-07
2.7862e-06
1.58124e-07
2.75969e-06
1.58084e-07
1.1154e-06
1.08726e-06
2.25672e-07
2.78666e-06
1.5813e-07
2.7601e-06
1.58087e-07
1.11486e-06
1.84769e-05
1.84853e-05
3.45089e-07
5.13011e-06
5.12804e-06
5.11894e-06
5.11708e-06
1.84751e-05
1.84834e-05
3.60266e-06
8.91067e-06
8.90492e-06
3.63619e-06
1.08655e-06
2.25654e-07
2.78679e-06
1.58123e-07
2.76021e-06
1.58079e-07
1.1156e-06
3.60273e-06
8.90962e-06
8.90469e-06
3.63629e-06
1.08691e-06
2.25721e-07
1.58132e-07
2.78529e-06
1.58089e-07
2.76196e-06
1.11506e-06
1.08739e-06
2.25587e-07
2.78463e-06
1.58124e-07
2.7613e-06
1.58083e-07
1.11463e-06
3.60365e-06
8.90951e-06
8.90456e-06
3.63578e-06
1.08678e-06
2.25671e-07
1.58135e-07
2.78492e-06
1.58091e-07
2.76144e-06
1.11507e-06
3.60302e-06
8.90947e-06
8.90379e-06
3.63621e-06
1.84779e-05
1.84862e-05
3.45785e-07
5.13136e-06
5.12965e-06
5.11748e-06
5.11551e-06
1.84762e-05
1.84846e-05
1.08738e-06
2.25632e-07
1.58124e-07
2.78642e-06
1.5808e-07
2.75994e-06
1.1149e-06
1.08744e-06
2.25624e-07
1.58122e-07
2.78684e-06
1.58079e-07
2.76022e-06
1.11479e-06
3.60358e-06
8.90966e-06
8.90391e-06
3.63598e-06
3.60303e-06
8.91048e-06
8.90533e-06
3.63675e-06
3.45102e-07
5.12966e-06
5.13164e-06
5.11545e-06
5.11738e-06
1.84761e-05
1.84845e-05
1.84776e-05
1.84859e-05
1.84683e-05
1.84603e-05
1.84704e-05
1.84624e-05
5.13556e-06
5.13739e-06
3.64332e-07
5.14774e-06
5.14988e-06
1.84461e-05
1.84534e-05
1.84477e-05
1.84555e-05
3.69595e-07
5.16519e-06
5.16612e-06
5.15376e-06
5.15539e-06
3.6823e-06
8.91075e-06
3.65177e-06
8.91541e-06
1.15791e-06
2.7982e-06
1.58234e-07
2.32637e-07
1.12926e-06
2.82275e-06
1.5844e-07
1.15736e-06
2.79862e-06
1.58238e-07
2.32626e-07
1.12989e-06
2.82326e-06
1.58441e-07
3.69548e-06
8.92005e-06
8.91479e-06
3.7228e-06
3.69573e-06
8.9209e-06
8.91646e-06
3.72284e-06
1.17174e-06
2.3517e-07
2.85759e-06
1.59104e-07
2.83422e-06
1.58732e-07
1.20008e-06
1.17228e-06
2.35204e-07
2.85787e-06
1.59106e-07
2.83467e-06
1.58737e-07
1.19962e-06
5.13866e-06
5.13694e-06
3.64197e-07
5.14845e-06
5.1464e-06
1.8468e-05
1.84601e-05
1.84475e-05
1.84551e-05
3.69433e-07
5.16555e-06
5.16355e-06
5.15662e-06
5.1549e-06
1.84456e-05
1.84532e-05
1.158e-06
2.79867e-06
1.58231e-07
2.32561e-07
1.12931e-06
2.82341e-06
1.58443e-07
3.68114e-06
8.91081e-06
3.65206e-06
8.91543e-06
1.15778e-06
1.58244e-07
2.79993e-06
2.32675e-07
1.12965e-06
1.58446e-07
2.82193e-06
3.69595e-06
8.92192e-06
8.91676e-06
3.72248e-06
1.17184e-06
2.35189e-07
2.85782e-06
1.59108e-07
2.8347e-06
1.5873e-07
1.20008e-06
3.69635e-06
8.92096e-06
8.91654e-06
3.72193e-06
1.17203e-06
2.35256e-07
1.5911e-07
2.85662e-06
1.58743e-07
2.83594e-06
1.19948e-06
3.6813e-06
8.9107e-06
3.6526e-06
8.91533e-06
1.15744e-06
1.58242e-07
2.79945e-06
2.32628e-07
1.12954e-06
1.58447e-07
2.82149e-06
3.68176e-06
8.90994e-06
3.65198e-06
8.91496e-06
1.1723e-06
2.35103e-07
2.85603e-06
1.59103e-07
2.83535e-06
1.58731e-07
1.19965e-06
3.69654e-06
8.92082e-06
8.91642e-06
3.72202e-06
1.17212e-06
2.35203e-07
1.59112e-07
2.8575e-06
1.58742e-07
2.83544e-06
1.19979e-06
3.69591e-06
8.92044e-06
8.91596e-06
3.72269e-06
5.13741e-06
5.13561e-06
3.63595e-07
5.14973e-06
5.14804e-06
1.84692e-05
1.84612e-05
1.84484e-05
1.8456e-05
3.70022e-07
5.16638e-06
5.16502e-06
5.15546e-06
5.1536e-06
1.84467e-05
1.84543e-05
1.15727e-06
1.5823e-07
2.79875e-06
2.32574e-07
1.13003e-06
1.58436e-07
2.82345e-06
3.68138e-06
8.91003e-06
3.65254e-06
8.91549e-06
3.6823e-06
8.91101e-06
3.65198e-06
8.91646e-06
1.17244e-06
2.35157e-07
1.59106e-07
2.85756e-06
1.58723e-07
2.83429e-06
1.19963e-06
1.17245e-06
2.35146e-07
1.59101e-07
2.85807e-06
1.58731e-07
2.83483e-06
1.19955e-06
3.69637e-06
8.921e-06
8.91579e-06
3.72296e-06
3.69592e-06
8.92202e-06
8.91678e-06
3.72275e-06
1.84691e-05
1.8461e-05
1.84705e-05
1.84625e-05
3.69653e-07
5.165e-06
5.16699e-06
5.15356e-06
5.1555e-06
1.84466e-05
1.84542e-05
1.84481e-05
1.84557e-05
1.21311e-05
3.67414e-06
1.06763e-05
4.49116e-06
1.06714e-05
4.48708e-06
1.21341e-05
2.24355e-05
7.2154e-06
8.91162e-06
2.2434e-05
7.21494e-06
1.21308e-05
3.65971e-06
1.0666e-05
4.47153e-06
1.21277e-05
1.0671e-05
4.47576e-06
2.24244e-05
7.21629e-06
8.91197e-06
7.21698e-06
2.24258e-05
1.84693e-05
1.84625e-05
1.21315e-05
3.67439e-06
4.49159e-06
1.06769e-05
4.48747e-06
1.0672e-05
1.21345e-05
2.24364e-05
7.21738e-06
8.9136e-06
2.24351e-05
7.21707e-06
1.21312e-05
3.65979e-06
4.4719e-06
1.06666e-05
1.21281e-05
4.47625e-06
1.06716e-05
2.24254e-05
7.2184e-06
8.91392e-06
7.21891e-06
2.24268e-05
1.84703e-05
1.84633e-05
9.73114e-06
2.19129e-05
2.19123e-05
2.19126e-05
2.1912e-05
9.7294e-06
3.96345e-06
1.92716e-06
9.0377e-06
5.13906e-06
3.95737e-06
1.93335e-06
9.04244e-06
3.96902e-06
1.9284e-06
9.04207e-06
5.14103e-06
3.96559e-06
1.93534e-06
9.04759e-06
9.72895e-06
2.19226e-05
2.1922e-05
9.73056e-06
2.19229e-05
2.19223e-05
3.97382e-06
9.04969e-06
5.14491e-06
1.95494e-06
1.94827e-06
9.04509e-06
3.97942e-06
3.9818e-06
9.05485e-06
5.14687e-06
1.95655e-06
1.94962e-06
9.04948e-06
3.98514e-06
1.84759e-05
1.84832e-05
1.84781e-05
1.84853e-05
9.72713e-06
2.19425e-05
2.19426e-05
9.72843e-06
2.19428e-05
2.19429e-05
3.94151e-06
1.91154e-06
5.12609e-06
9.0347e-06
9.02974e-06
1.90533e-06
3.94517e-06
3.94828e-06
1.91319e-06
5.12789e-06
9.04014e-06
9.03513e-06
1.90692e-06
3.9536e-06
3.92751e-06
9.02187e-06
1.88307e-06
5.1194e-06
3.92367e-06
9.02699e-06
1.88952e-06
3.93472e-06
9.02721e-06
1.8847e-06
5.12137e-06
3.93056e-06
9.03236e-06
1.89124e-06
9.72955e-06
2.19326e-05
2.19328e-05
2.19323e-05
2.19324e-05
9.72809e-06
1.2124e-05
1.06562e-05
4.43657e-06
3.61144e-06
1.21208e-05
1.06607e-05
4.44276e-06
2.24435e-05
8.90607e-06
7.21311e-06
2.24452e-05
7.21332e-06
2.24548e-05
7.2107e-06
8.90565e-06
2.2453e-05
7.21067e-06
1.21243e-05
3.62783e-06
1.06657e-05
4.45943e-06
1.21274e-05
1.0661e-05
4.45468e-06
1.21243e-05
1.06564e-05
4.43783e-06
3.61167e-06
1.21211e-05
1.06609e-05
4.44292e-06
2.24451e-05
8.9077e-06
7.21556e-06
7.2158e-06
2.24465e-05
2.24561e-05
7.21339e-06
8.90653e-06
2.24546e-05
7.21314e-06
1.21246e-05
3.62807e-06
1.0666e-05
4.46042e-06
1.06612e-05
4.45538e-06
1.21277e-05
1.84775e-05
1.84846e-05
9.72695e-06
2.19426e-05
2.1943e-05
9.72819e-06
2.19429e-05
2.19433e-05
3.94757e-06
1.91352e-06
5.12929e-06
9.04037e-06
1.90607e-06
9.03467e-06
3.95155e-06
3.94126e-06
1.9114e-06
5.12755e-06
9.0355e-06
9.02981e-06
1.90507e-06
3.94509e-06
3.93553e-06
9.02671e-06
1.88399e-06
5.12003e-06
1.89138e-06
3.92935e-06
9.03259e-06
3.92739e-06
9.02185e-06
1.88282e-06
5.11787e-06
3.9234e-06
9.02774e-06
1.88944e-06
9.72937e-06
2.19328e-05
2.19332e-05
2.19324e-05
2.19329e-05
9.72795e-06
1.84756e-05
1.84828e-05
1.21243e-05
4.43711e-06
1.06567e-05
3.61185e-06
1.21211e-05
4.44335e-06
1.06613e-05
2.24447e-05
8.90806e-06
7.2153e-06
2.24461e-05
7.2154e-06
2.24557e-05
7.21299e-06
8.90767e-06
2.24542e-05
7.21305e-06
1.21246e-05
3.62802e-06
4.46e-06
1.06663e-05
1.21278e-05
4.45501e-06
1.06615e-05
1.21244e-05
1.06571e-05
4.4368e-06
3.61178e-06
1.21213e-05
1.06606e-05
4.44302e-06
2.2444e-05
8.90778e-06
7.21339e-06
7.2138e-06
2.24457e-05
2.24552e-05
7.21131e-06
8.90654e-06
2.24535e-05
7.21101e-06
1.21248e-05
3.62803e-06
1.06655e-05
4.46077e-06
1.0662e-05
4.45471e-06
1.21279e-05
1.21239e-05
4.43747e-06
1.06572e-05
3.61089e-06
1.21207e-05
4.44261e-06
1.06605e-05
2.24437e-05
8.90768e-06
7.21465e-06
7.21492e-06
2.24451e-05
2.24547e-05
7.21256e-06
8.90643e-06
2.24532e-05
7.21224e-06
1.21242e-05
3.62868e-06
4.45998e-06
1.06654e-05
4.45504e-06
1.06621e-05
1.21274e-05
1.21241e-05
1.06564e-05
4.43741e-06
3.61127e-06
1.2121e-05
1.06609e-05
4.44243e-06
2.24436e-05
8.9069e-06
7.21302e-06
7.21329e-06
2.2445e-05
2.24546e-05
7.21087e-06
8.90649e-06
2.24532e-05
7.21063e-06
1.21245e-05
3.62822e-06
1.0666e-05
4.45985e-06
1.06612e-05
4.45497e-06
1.21276e-05
1.84784e-05
1.84856e-05
9.72775e-06
2.19432e-05
2.19433e-05
9.72902e-06
2.19435e-05
2.19435e-05
3.94761e-06
1.91331e-06
5.12794e-06
9.03991e-06
1.90696e-06
9.03492e-06
3.95353e-06
3.94061e-06
1.9118e-06
5.12608e-06
9.03495e-06
9.02998e-06
1.90537e-06
3.94656e-06
3.93643e-06
9.02699e-06
1.88473e-06
5.1212e-06
1.89114e-06
3.92976e-06
9.03213e-06
3.92943e-06
9.02206e-06
1.88319e-06
5.11947e-06
3.92271e-06
9.02717e-06
1.88961e-06
9.73013e-06
2.19333e-05
2.19334e-05
2.1933e-05
2.19331e-05
9.72872e-06
1.84768e-05
1.84839e-05
1.21243e-05
4.43727e-06
1.06575e-05
3.61112e-06
1.21212e-05
4.44246e-06
1.06607e-05
2.2444e-05
8.90704e-06
7.21299e-06
7.21323e-06
2.24454e-05
2.2455e-05
7.2108e-06
8.90662e-06
2.24536e-05
7.21061e-06
1.21247e-05
3.62862e-06
4.45964e-06
1.06656e-05
4.45499e-06
1.06623e-05
1.21278e-05
1.21241e-05
4.43762e-06
1.06569e-05
3.61187e-06
1.21209e-05
4.44306e-06
1.06613e-05
2.24437e-05
8.90833e-06
7.21512e-06
7.21526e-06
2.24451e-05
2.24548e-05
7.21289e-06
8.90731e-06
2.24533e-05
7.21272e-06
1.21244e-05
3.6281e-06
4.46029e-06
1.06664e-05
4.45523e-06
1.06616e-05
1.21276e-05
9.72729e-06
2.19429e-05
2.19422e-05
9.72862e-06
2.19431e-05
2.19425e-05
3.94047e-06
1.91165e-06
5.12608e-06
9.03497e-06
3.94634e-06
1.90536e-06
9.03002e-06
3.94845e-06
1.91361e-06
5.12802e-06
9.04011e-06
3.95222e-06
1.90663e-06
9.03441e-06
3.92929e-06
9.0221e-06
1.88316e-06
5.11943e-06
3.92256e-06
1.88963e-06
9.02721e-06
3.93453e-06
9.02635e-06
1.88429e-06
5.1214e-06
3.93062e-06
1.89143e-06
9.03236e-06
9.72975e-06
2.1933e-05
2.19323e-05
9.72825e-06
2.19327e-05
2.19321e-05
1.84767e-05
1.84839e-05
1.84781e-05
1.84853e-05
1.84678e-05
1.84608e-05
1.84699e-05
1.84629e-05
9.73097e-06
2.19125e-05
2.19127e-05
2.19122e-05
2.19123e-05
9.72923e-06
3.96197e-06
1.92705e-06
9.03742e-06
5.13877e-06
3.95851e-06
9.04217e-06
1.93327e-06
3.97037e-06
1.9286e-06
9.04282e-06
5.14077e-06
3.96434e-06
9.04761e-06
1.93545e-06
9.72879e-06
2.19222e-05
2.19223e-05
9.7304e-06
2.19225e-05
2.19227e-05
3.97488e-06
9.0494e-06
5.14481e-06
1.95443e-06
9.04479e-06
3.97818e-06
1.94839e-06
3.98081e-06
9.05486e-06
5.1466e-06
1.9566e-06
9.0502e-06
3.98645e-06
1.94949e-06
1.84462e-05
1.8453e-05
1.84484e-05
1.84551e-05
9.7294e-06
2.19023e-05
2.19023e-05
9.73131e-06
2.19028e-05
2.19023e-05
4.00444e-06
1.99654e-06
5.16191e-06
9.06424e-06
9.05917e-06
1.98893e-06
4.01101e-06
4.01286e-06
1.9969e-06
5.16452e-06
9.06755e-06
9.06394e-06
1.99079e-06
4.01459e-06
3.99394e-06
9.052e-06
1.96925e-06
5.15605e-06
3.99041e-06
9.05655e-06
1.9752e-06
4.00223e-06
9.05736e-06
1.97038e-06
5.15843e-06
3.99649e-06
9.06168e-06
1.9774e-06
9.73148e-06
2.18936e-05
2.1892e-05
2.18929e-05
2.18918e-05
9.72946e-06
1.21314e-05
3.67422e-06
1.06766e-05
4.49174e-06
1.06716e-05
4.48746e-06
1.21344e-05
2.24369e-05
7.21778e-06
8.91253e-06
2.24355e-05
7.2174e-06
1.21312e-05
3.65966e-06
1.06663e-05
4.47197e-06
1.06712e-05
1.2128e-05
4.47646e-06
2.24259e-05
7.21872e-06
8.91361e-06
7.21929e-06
2.24272e-05
1.21373e-05
1.06767e-05
4.50162e-06
3.70291e-06
1.21343e-05
1.06817e-05
4.50528e-06
2.24053e-05
8.91757e-06
7.21773e-06
7.21875e-06
2.24067e-05
2.24165e-05
7.21805e-06
8.91726e-06
2.24147e-05
7.21724e-06
1.21375e-05
3.71563e-06
1.06871e-05
4.51857e-06
1.06821e-05
4.5152e-06
1.21403e-05
1.21376e-05
1.06769e-05
4.50206e-06
3.70302e-06
1.21347e-05
1.06819e-05
4.50584e-06
2.24066e-05
8.9192e-06
7.22012e-06
7.22109e-06
2.24077e-05
2.24175e-05
7.2204e-06
8.91817e-06
2.24163e-05
7.21962e-06
1.21377e-05
3.71589e-06
1.06873e-05
4.51962e-06
1.06824e-05
4.51549e-06
1.21405e-05
9.73085e-06
2.19127e-05
2.19132e-05
2.19124e-05
2.19128e-05
9.72918e-06
3.96862e-06
1.92811e-06
9.0423e-06
5.13937e-06
9.04787e-06
3.96515e-06
1.93451e-06
3.96189e-06
1.92685e-06
9.03743e-06
5.1373e-06
1.93304e-06
3.95831e-06
9.04299e-06
9.72869e-06
2.19224e-05
2.19228e-05
2.19227e-05
9.73024e-06
2.19231e-05
3.98162e-06
9.05515e-06
5.14794e-06
1.95565e-06
9.04973e-06
1.9498e-06
3.98491e-06
3.97469e-06
9.05025e-06
5.14622e-06
1.9542e-06
1.94825e-06
9.04486e-06
3.97808e-06
1.84675e-05
1.84606e-05
1.84479e-05
1.84546e-05
9.72946e-06
2.19025e-05
2.19029e-05
9.73125e-06
2.19028e-05
2.19033e-05
4.01152e-06
1.9967e-06
5.16536e-06
9.06897e-06
1.99113e-06
9.06387e-06
4.01681e-06
4.00559e-06
1.99517e-06
5.16371e-06
9.06407e-06
9.059e-06
1.98952e-06
4.00853e-06
4.00174e-06
9.0569e-06
1.97069e-06
5.1572e-06
1.97653e-06
3.99716e-06
9.06217e-06
3.99347e-06
9.05204e-06
1.96908e-06
5.1552e-06
3.99039e-06
9.05727e-06
1.97503e-06
9.73145e-06
2.1893e-05
2.18935e-05
2.18927e-05
2.18931e-05
9.72953e-06
1.8446e-05
1.84528e-05
1.21316e-05
3.67471e-06
1.0676e-05
4.49197e-06
1.06725e-05
4.48672e-06
1.21346e-05
2.2436e-05
7.21581e-06
8.91255e-06
2.24344e-05
7.21526e-06
1.21313e-05
3.65941e-06
1.06672e-05
4.47112e-06
1.06706e-05
1.21282e-05
4.4764e-06
2.24248e-05
7.21659e-06
8.91369e-06
7.21733e-06
2.24264e-05
1.21377e-05
4.50197e-06
1.06773e-05
3.70323e-06
1.21348e-05
4.50571e-06
1.06823e-05
2.24061e-05
8.91957e-06
7.21979e-06
7.2207e-06
2.24073e-05
2.24171e-05
7.22002e-06
8.91925e-06
2.24158e-05
7.2193e-06
1.21379e-05
3.71595e-06
4.51899e-06
1.06877e-05
4.51554e-06
1.06828e-05
1.21407e-05
1.21377e-05
1.06779e-05
4.50131e-06
3.70225e-06
1.21348e-05
1.06814e-05
4.5059e-06
2.24055e-05
8.91929e-06
7.21802e-06
7.21914e-06
2.2407e-05
2.24167e-05
7.21843e-06
8.91821e-06
2.24152e-05
7.21751e-06
1.21379e-05
3.71659e-06
1.06868e-05
4.51939e-06
1.06833e-05
4.51498e-06
1.21407e-05
1.21311e-05
3.67511e-06
4.49136e-06
1.06759e-05
4.4871e-06
1.06725e-05
1.2134e-05
2.24355e-05
7.21689e-06
8.91245e-06
7.21651e-06
2.24341e-05
1.21308e-05
3.659e-06
4.47164e-06
1.06672e-05
4.4761e-06
1.21277e-05
1.06705e-05
2.24245e-05
7.21783e-06
8.91357e-06
7.2184e-06
2.24258e-05
1.21313e-05
3.6746e-06
1.06765e-05
4.49161e-06
1.06716e-05
4.48691e-06
1.21343e-05
2.24353e-05
7.21529e-06
8.91228e-06
2.2434e-05
7.21487e-06
1.2131e-05
3.65932e-06
1.06663e-05
4.47158e-06
1.21279e-05
1.06712e-05
4.47602e-06
2.24244e-05
7.21618e-06
8.91314e-06
7.21679e-06
2.24257e-05
1.21372e-05
4.50165e-06
1.06779e-05
3.70204e-06
1.21343e-05
4.50594e-06
1.06813e-05
2.24052e-05
8.91916e-06
7.21924e-06
7.22019e-06
2.24064e-05
2.24161e-05
7.2195e-06
8.91808e-06
2.24148e-05
7.21873e-06
1.21374e-05
3.71665e-06
4.51934e-06
1.06867e-05
4.5149e-06
1.06832e-05
1.21402e-05
1.21374e-05
1.06769e-05
4.50122e-06
3.70255e-06
1.21345e-05
1.06819e-05
4.50584e-06
2.2405e-05
8.91873e-06
7.21758e-06
7.21856e-06
2.24062e-05
2.24159e-05
7.21788e-06
8.91769e-06
2.24147e-05
7.21708e-06
1.21376e-05
3.71606e-06
1.06873e-05
4.51922e-06
1.06824e-05
4.51479e-06
1.21404e-05
9.73158e-06
2.19133e-05
2.19133e-05
2.19129e-05
2.1913e-05
9.72989e-06
3.97057e-06
1.92874e-06
9.0426e-06
5.1406e-06
9.0474e-06
3.9646e-06
1.93515e-06
3.9636e-06
1.92712e-06
9.03767e-06
5.13891e-06
1.93383e-06
3.95763e-06
9.04243e-06
9.72943e-06
2.19229e-05
2.1923e-05
2.19232e-05
9.73099e-06
2.19233e-05
3.98091e-06
9.05465e-06
5.14661e-06
1.95671e-06
9.05e-06
1.94974e-06
3.98656e-06
3.97392e-06
9.04974e-06
5.14479e-06
1.95509e-06
1.94801e-06
9.04506e-06
3.97959e-06
1.84686e-05
1.84617e-05
1.84488e-05
1.84556e-05
9.73013e-06
2.1903e-05
2.19031e-05
9.73194e-06
2.19034e-05
2.19034e-05
4.01177e-06
1.99777e-06
5.16459e-06
9.06844e-06
1.99065e-06
9.0641e-06
4.01706e-06
4.0048e-06
1.99618e-06
5.16207e-06
9.06351e-06
9.05917e-06
1.989e-06
4.0101e-06
4.00218e-06
9.0572e-06
1.97051e-06
5.15824e-06
1.97742e-06
3.99667e-06
9.06164e-06
3.99525e-06
9.05224e-06
1.96893e-06
5.15653e-06
3.98971e-06
9.05672e-06
1.97585e-06
9.73209e-06
2.18935e-05
2.18936e-05
2.18932e-05
2.18933e-05
9.73014e-06
1.84471e-05
1.84539e-05
1.21315e-05
3.67504e-06
4.49107e-06
1.06762e-05
4.48709e-06
1.06727e-05
1.21344e-05
2.24358e-05
7.21523e-06
8.91258e-06
7.21486e-06
2.24344e-05
1.21312e-05
3.65918e-06
4.4715e-06
1.06675e-05
4.47604e-06
1.21281e-05
1.06708e-05
2.24247e-05
7.21618e-06
8.91296e-06
7.21672e-06
2.24261e-05
1.21312e-05
3.67439e-06
4.49162e-06
1.0677e-05
4.48733e-06
1.06721e-05
1.21343e-05
2.24355e-05
7.21719e-06
8.91354e-06
2.24341e-05
7.21688e-06
1.2131e-05
3.65991e-06
4.47181e-06
1.06667e-05
1.21279e-05
4.47648e-06
1.06717e-05
2.24245e-05
7.2182e-06
8.91391e-06
7.21871e-06
2.24258e-05
1.21376e-05
4.5015e-06
1.06781e-05
3.70291e-06
1.21347e-05
4.50582e-06
1.06816e-05
2.24054e-05
8.91858e-06
7.2176e-06
7.21851e-06
2.24066e-05
2.24163e-05
7.21781e-06
8.91826e-06
2.24151e-05
7.21709e-06
1.21378e-05
3.71597e-06
4.51925e-06
1.0687e-05
4.51477e-06
1.06835e-05
1.21406e-05
1.21374e-05
4.50189e-06
1.06774e-05
3.70301e-06
1.21345e-05
4.50577e-06
1.06824e-05
2.24051e-05
8.91959e-06
7.21962e-06
7.22051e-06
2.24063e-05
2.24161e-05
7.21981e-06
8.91927e-06
2.24148e-05
7.2191e-06
1.21376e-05
3.71611e-06
4.51909e-06
1.06878e-05
4.51553e-06
1.06828e-05
1.21404e-05
1.84685e-05
1.84616e-05
1.847e-05
1.8463e-05
9.72964e-06
2.19027e-05
2.19021e-05
9.73148e-06
2.1903e-05
2.19024e-05
4.00461e-06
1.99574e-06
5.16206e-06
9.06346e-06
1.98925e-06
9.05912e-06
4.00995e-06
4.01264e-06
1.99768e-06
5.164e-06
9.06865e-06
1.99054e-06
9.06358e-06
4.01563e-06
3.9951e-06
9.05221e-06
1.96897e-06
5.15652e-06
3.98953e-06
1.97557e-06
9.05667e-06
4.00048e-06
9.05665e-06
1.97048e-06
5.1585e-06
3.99747e-06
1.97737e-06
9.06187e-06
9.73164e-06
2.18932e-05
2.18926e-05
2.18929e-05
2.18923e-05
9.72968e-06
1.8447e-05
1.84537e-05
1.84485e-05
1.84552e-05
1.17588e-07
1.17583e-07
1.32867e-07
1.16483e-07
1.1648e-07
1.09883e-07
1.11176e-07
1.74136e-06
7.66144e-07
7.66233e-07
3.58275e-07
1.73303e-06
7.71234e-07
7.71808e-07
1.71168e-06
3.51284e-07
7.55995e-07
7.56466e-07
7.51175e-07
7.5133e-07
1.71752e-06
1.7112e-06
3.50909e-07
7.5623e-07
7.5507e-07
7.51291e-07
7.51943e-07
1.71807e-06
1.71152e-06
3.51582e-07
7.55407e-07
7.56019e-07
7.52507e-07
7.51372e-07
1.7184e-06
1.71072e-06
3.51228e-07
7.56441e-07
7.56966e-07
1.71841e-06
7.5116e-07
7.51351e-07
1.74e-06
7.66184e-07
7.66397e-07
3.58026e-07
1.73405e-06
7.7109e-07
7.71428e-07
1.79896e-06
3.76335e-07
8.16928e-07
8.16579e-07
8.11241e-07
8.11927e-07
1.8043e-06
1.74029e-06
7.66283e-07
7.66793e-07
3.57908e-07
7.69894e-07
1.73305e-06
7.71305e-07
1.79813e-06
3.76156e-07
8.16963e-07
8.1547e-07
8.11481e-07
8.12396e-07
1.80515e-06
1.74073e-06
7.67358e-07
7.66367e-07
3.57444e-07
7.71075e-07
1.73349e-06
7.70309e-07
1.79863e-06
3.77259e-07
8.15955e-07
8.16623e-07
8.12927e-07
8.11638e-07
1.80525e-06
1.79804e-06
3.76031e-07
8.16764e-07
8.17354e-07
8.11498e-07
8.11596e-07
1.80551e-06
1.34874e-07
1.18727e-07
1.18723e-07
1.19904e-07
1.19899e-07
1.13848e-07
1.12497e-07
1.34866e-07
1.18726e-07
1.18723e-07
1.19903e-07
1.19899e-07
1.13848e-07
1.12497e-07
1.34879e-07
1.1873e-07
1.18726e-07
1.19905e-07
1.19901e-07
1.13849e-07
1.12498e-07
1.34875e-07
1.1873e-07
1.18725e-07
1.19906e-07
1.19901e-07
1.13849e-07
1.12498e-07
1.17586e-07
1.17583e-07
1.32861e-07
1.16482e-07
1.16479e-07
1.09882e-07
1.11176e-07
1.1759e-07
1.17585e-07
1.32877e-07
1.16486e-07
1.16483e-07
1.09884e-07
1.11177e-07
1.1759e-07
1.17585e-07
1.32872e-07
1.16486e-07
1.16481e-07
1.09884e-07
1.11177e-07
1.32297e-07
1.14382e-07
1.14378e-07
1.15415e-07
1.1541e-07
1.08618e-07
1.0738e-07
1.32289e-07
1.1438e-07
1.14377e-07
1.15414e-07
1.15411e-07
1.08618e-07
1.0738e-07
1.32304e-07
1.14385e-07
1.14381e-07
1.15418e-07
1.15413e-07
1.08619e-07
1.07382e-07
1.32299e-07
1.14385e-07
1.1438e-07
1.15418e-07
1.15413e-07
1.08619e-07
1.07381e-07
4.77123e-07
1.15117e-06
1.47494e-06
3.8827e-07
1.46891e-06
3.8728e-07
4.77492e-07
6.57013e-07
1.00058e-06
2.07532e-06
2.80322e-06
6.5343e-07
1.00488e-06
2.08071e-06
4.68632e-07
1.13609e-06
1.44685e-06
3.801e-07
4.68342e-07
1.45309e-06
3.81049e-07
6.65186e-07
2.10147e-06
2.81769e-06
1.02199e-06
1.01774e-06
2.09612e-06
6.6863e-07
4.76861e-07
1.15133e-06
3.88912e-07
1.4757e-06
3.86623e-07
1.46808e-06
4.77276e-07
6.56934e-07
1.00073e-06
2.075e-06
2.80495e-06
6.53348e-07
1.00504e-06
2.08045e-06
4.68341e-07
1.13609e-06
3.79632e-07
1.4461e-06
4.68022e-07
3.81702e-07
1.4536e-06
6.65109e-07
2.10079e-06
2.81666e-06
1.022e-06
1.01791e-06
2.096e-06
6.68523e-07
1.75522e-06
3.63527e-07
7.86586e-07
7.87103e-07
7.81358e-07
7.81495e-07
1.76285e-06
1.69459e-06
3.46309e-07
7.36154e-07
7.3628e-07
1.68849e-06
7.41061e-07
7.41496e-07
4.52696e-07
1.40126e-06
3.66718e-07
1.09415e-06
4.49832e-07
1.40892e-06
3.67504e-07
6.41962e-07
9.88709e-07
2.77941e-06
2.0596e-06
9.82814e-07
2.05316e-06
6.45047e-07
6.34041e-07
2.03097e-06
9.65887e-07
2.76679e-06
9.71814e-07
6.30497e-07
2.03825e-06
4.58289e-07
1.1079e-06
1.43153e-06
3.74167e-07
1.42374e-06
3.73294e-07
4.60898e-07
4.51694e-07
1.40235e-06
3.66089e-07
1.09357e-06
4.5146e-07
1.40857e-06
3.6816e-07