/*--------------------------------*- C++ -*----------------------------------*\
| =========                 |                                                 |
| \\      /  F ield         | OpenFOAM: The Open Source CFD Toolbox           |
|  \\    /   O peration     | Version:  v1906                                 |
|   \\  /    A nd           | Web:      www.OpenFOAM.com                      |
|    \\/     M anipulation  |                                                 |
\*---------------------------------------------------------------------------*/
FoamFile
{
    version     2.0;
    format      ascii;
    class       volScalarField;
    location    "350";
    object      k;
}
// * * * * * * * * * * * * * * * * * * * * * * * * * * * * * * * * * * * * * //

dimensions      [0 2 -2 0 0 0 0];


internalField   nonuniform List<scalar> 
43248
(
4.17803e-05
3.64595e-05
3.64588e-05
4.1776e-05
3.64563e-05
3.64597e-05
3.64562e-05
3.64641e-05
4.17589e-05
3.6459e-05
3.64619e-05
4.17875e-05
2.08498e-05
2.08486e-05
2.08524e-05
2.08546e-05
6.95315e-05
6.95343e-05
6.68947e-05
6.69044e-05
6.46103e-05
7.13537e-05
6.47086e-05
6.46122e-05
7.13574e-05
7.13236e-05
6.47106e-05
5.30919e-05
6.01866e-05
2.88285e-05
2.85835e-05
5.32927e-05
5.30932e-05
3.62271e-05
6.01911e-05
2.88294e-05
6.00678e-05
2.85847e-05
5.32937e-05
6.95334e-05
6.95075e-05
4.15721e-05
6.69054e-05
6.68892e-05
6.68407e-05
6.68294e-05
6.95295e-05
6.95033e-05
7.13599e-05
6.4714e-05
6.0191e-05
2.8832e-05
5.32966e-05
7.13535e-05
6.47097e-05
2.88325e-05
6.01842e-05
5.32949e-05
5.30961e-05
3.62242e-05
6.01856e-05
2.88287e-05
6.00671e-05
2.85839e-05
5.3297e-05
6.4615e-05
7.13573e-05
7.13211e-05
6.47116e-05
5.30965e-05
3.62322e-05
2.88334e-05
6.01882e-05
2.85886e-05
6.00669e-05
5.32957e-05
6.46144e-05
7.13563e-05
7.13197e-05
6.47104e-05
6.95325e-05
6.68964e-05
6.68943e-05
6.95322e-05
5.30967e-05
2.88346e-05
6.0189e-05
2.85895e-05
5.32987e-05
5.30977e-05
3.62302e-05
2.88365e-05
6.01942e-05
2.85918e-05
6.00716e-05
5.32999e-05
6.46145e-05
7.13559e-05
6.47132e-05
6.46169e-05
7.13606e-05
7.1325e-05
6.47147e-05
4.15634e-05
6.68946e-05
6.69075e-05
6.68341e-05
6.68443e-05
6.95328e-05
6.95069e-05
6.95355e-05
6.95095e-05
6.9519e-05
6.95219e-05
7.00278e-05
5.9332e-05
6.68778e-05
7.11372e-05
7.11187e-05
5.92672e-05
7.0068e-05
7.00868e-05
5.93254e-05
6.68857e-05
7.11473e-05
7.11294e-05
5.92853e-05
7.01e-05
9.23393e-05
7.20373e-05
7.20305e-05
7.20231e-05
7.20168e-05
9.23501e-05
7.01259e-05
6.9823e-05
6.8117e-05
6.46504e-05
7.01153e-05
6.98317e-05
6.81526e-05
7.01848e-05
7.13381e-05
7.73859e-05
7.73668e-05
7.01994e-05
7.01282e-05
6.46689e-05
6.98453e-05
6.82022e-05
6.98366e-05
6.81672e-05
7.0139e-05
7.0128e-05
6.98238e-05
6.81239e-05
6.46523e-05
7.01179e-05
6.98325e-05
6.81606e-05
7.01876e-05
7.13443e-05
7.74085e-05
7.73876e-05
7.02016e-05
7.01919e-05
7.73584e-05
7.13366e-05
7.0178e-05
7.73793e-05
7.01306e-05
6.4671e-05
6.98461e-05
6.82104e-05
6.98373e-05
6.81743e-05
7.01412e-05
6.9521e-05
6.95199e-05
9.23139e-05
7.20052e-05
7.20105e-05
9.23025e-05
7.20191e-05
7.20244e-05
7.00837e-05
5.93312e-05
6.6886e-05
7.11468e-05
5.92804e-05
7.11284e-05
7.01047e-05
7.00323e-05
5.93211e-05
6.68747e-05
7.11334e-05
7.11185e-05
5.92719e-05
7.00534e-05
7.00393e-05
7.11044e-05
5.91816e-05
6.68603e-05
5.9233e-05
7.0018e-05
7.11231e-05
6.99878e-05
7.10949e-05
5.91731e-05
6.68446e-05
6.99664e-05
7.11099e-05
5.92227e-05
9.23369e-05
7.20302e-05
7.20355e-05
7.20162e-05
7.20216e-05
9.23487e-05
6.95168e-05
6.95159e-05
7.01882e-05
7.13445e-05
7.74077e-05
7.73872e-05
7.02022e-05
7.01305e-05
6.46726e-05
6.82112e-05
6.98495e-05
6.81742e-05
6.98368e-05
7.01427e-05
7.01849e-05
7.13404e-05
7.73851e-05
7.73662e-05
7.01995e-05
7.01293e-05
6.46717e-05
6.98466e-05
6.8201e-05
6.98377e-05
6.81684e-05
7.01392e-05
7.01271e-05
6.81263e-05
6.9824e-05
6.46537e-05
7.01175e-05
6.81579e-05
6.98327e-05
7.01865e-05
7.13419e-05
7.74045e-05
7.73867e-05
7.02005e-05
7.01907e-05
7.73575e-05
7.13365e-05
7.01768e-05
7.73752e-05
7.01305e-05
6.46746e-05
6.82075e-05
6.98464e-05
6.81765e-05
6.98377e-05
7.014e-05
7.01271e-05
6.98238e-05
6.81233e-05
6.46519e-05
7.01173e-05
6.98326e-05
6.81544e-05
7.01868e-05
7.13406e-05
7.73898e-05
7.73689e-05
7.02008e-05
7.01909e-05
7.73395e-05
7.13355e-05
7.0177e-05
7.73606e-05
7.01303e-05
6.46733e-05
6.98462e-05
6.82048e-05
6.98375e-05
6.81731e-05
7.01401e-05
6.95199e-05
7.00837e-05
5.93281e-05
6.68817e-05
7.11455e-05
5.928e-05
7.1127e-05
7.01051e-05
7.00347e-05
5.93243e-05
6.68769e-05
7.11368e-05
7.11186e-05
5.92729e-05
7.00559e-05
9.2343e-05
7.20307e-05
7.2037e-05
7.20168e-05
7.20231e-05
9.23517e-05
6.95198e-05
7.01278e-05
6.81197e-05
6.98233e-05
6.46558e-05
7.01166e-05
6.81562e-05
6.98352e-05
7.01868e-05
7.13403e-05
7.73887e-05
7.7368e-05
7.02007e-05
7.01909e-05
7.73594e-05
7.01296e-05
6.46743e-05
6.82043e-05
6.98494e-05
6.81708e-05
6.98365e-05
7.01407e-05
7.01288e-05
6.8127e-05
6.98243e-05
6.46565e-05
7.01187e-05
6.8159e-05
6.98355e-05
7.01879e-05
7.13449e-05
7.74049e-05
7.73868e-05
7.02025e-05
7.01927e-05
7.73573e-05
7.13394e-05
7.01782e-05
7.73763e-05
7.01316e-05
6.46759e-05
6.82084e-05
6.98498e-05
6.81773e-05
6.98369e-05
7.01418e-05
9.23188e-05
7.20129e-05
7.20068e-05
9.2307e-05
7.20268e-05
7.20207e-05
7.00349e-05
5.93247e-05
6.68792e-05
7.11359e-05
5.92737e-05
7.11209e-05
7.00562e-05
7.00874e-05
5.93363e-05
6.68895e-05
7.11488e-05
5.9284e-05
7.11307e-05
7.01086e-05
6.99907e-05
7.10974e-05
5.91749e-05
6.68496e-05
6.9969e-05
5.92263e-05
7.11123e-05
7.00432e-05
7.1107e-05
5.91853e-05
6.68626e-05
7.00217e-05
5.92382e-05
7.11253e-05
9.23416e-05
7.20379e-05
7.20319e-05
7.2024e-05
7.20179e-05
9.23535e-05
6.95204e-05
6.95193e-05
6.9523e-05
6.95219e-05
5.95168e-05
4.17515e-05
5.05113e-05
5.05067e-05
5.04606e-05
5.04682e-05
5.95508e-05
5.95159e-05
4.17514e-05
5.05077e-05
5.05099e-05
5.04642e-05
5.04622e-05
5.95493e-05
5.95166e-05
4.17561e-05
5.04994e-05
5.0498e-05
5.04678e-05
5.0467e-05
5.9548e-05
5.9519e-05
4.17563e-05
5.05066e-05
5.05122e-05
5.04675e-05
5.04702e-05
5.95523e-05
1.49204e-05
1.49203e-05
1.48096e-05
1.07954e-05
1.08217e-05
2.06638e-05
1.49203e-05
1.49185e-05
1.48094e-05
1.48075e-05
1.07951e-05
1.08213e-05
1.49231e-05
1.49224e-05
1.48112e-05
1.07965e-05
1.08228e-05
2.06698e-05
1.49232e-05
1.4923e-05
1.48121e-05
1.48119e-05
1.07966e-05
1.08228e-05
4.55443e-05
5.54146e-05
4.3562e-05
5.31709e-05
4.5517e-05
5.54876e-05
4.36106e-05
4.80475e-05
5.25192e-05
6.01388e-05
5.85127e-05
5.24768e-05
5.84541e-05
4.80863e-05
4.56899e-05
5.32142e-05
5.55993e-05
4.37939e-05
5.5526e-05
4.37438e-05
4.5716e-05
4.55521e-05
5.54196e-05
4.35623e-05
5.31725e-05
4.55313e-05
5.54932e-05
4.36112e-05
4.80518e-05
5.25242e-05
6.01424e-05
5.85207e-05
5.84619e-05
5.24815e-05
4.8088e-05
4.79389e-05
5.83687e-05
5.23519e-05
6.0117e-05
4.78991e-05
5.84281e-05
5.23919e-05
4.56967e-05
5.3215e-05
5.56041e-05
4.37941e-05
5.55314e-05
4.3744e-05
4.57221e-05
5.94444e-05
4.15934e-05
5.03168e-05
5.03157e-05
5.03629e-05
5.94105e-05
5.03621e-05
4.8051e-05
5.25159e-05
6.01442e-05
5.8521e-05
5.24878e-05
5.84621e-05
4.8088e-05
4.56973e-05
5.32173e-05
5.56057e-05
4.38005e-05
5.55315e-05
4.37498e-05
4.57206e-05
4.80479e-05
5.25213e-05
6.01417e-05
5.8512e-05
5.84531e-05
5.24786e-05
4.80868e-05
4.56956e-05
5.3215e-05
4.37873e-05
5.56006e-05
4.37506e-05
5.55262e-05
4.57219e-05
4.55286e-05
5.54226e-05
4.35795e-05
5.31754e-05
4.55265e-05
5.54903e-05
4.35981e-05
4.80605e-05
5.25152e-05
6.01419e-05
5.85194e-05
5.24832e-05
5.84611e-05
4.80745e-05
4.79192e-05
5.83677e-05
5.23516e-05
6.0111e-05
4.79071e-05
5.23826e-05
5.84263e-05
4.57007e-05
5.32185e-05
5.56016e-05
4.37803e-05
5.55339e-05
4.37624e-05
4.57019e-05
4.5557e-05
4.35812e-05
5.54198e-05
5.31738e-05
4.55279e-05
4.35996e-05
5.54916e-05
4.80515e-05
5.2518e-05
6.01415e-05
5.85162e-05
5.84573e-05
5.24841e-05
4.80895e-05
4.79387e-05
5.83642e-05
5.23524e-05
6.01141e-05
4.78995e-05
5.84234e-05
5.23871e-05
4.57014e-05
5.32182e-05
4.3781e-05
5.56036e-05
4.37637e-05
5.55301e-05
4.5724e-05
4.55304e-05
4.35687e-05
5.54202e-05
5.31776e-05
4.55332e-05
4.36176e-05
5.54893e-05
4.80585e-05
5.25155e-05
6.01406e-05
5.85142e-05
5.24817e-05
5.84565e-05
4.80718e-05
4.79184e-05
5.84214e-05
4.57081e-05
5.32192e-05
4.37997e-05
5.55996e-05
4.37509e-05
5.55322e-05
4.57034e-05
4.55476e-05
4.35696e-05
5.54233e-05
5.31786e-05
4.55411e-05
4.36189e-05
5.5496e-05
4.8054e-05
5.25252e-05
6.01461e-05
5.85221e-05
5.84645e-05
5.2486e-05
4.80914e-05
4.79407e-05
5.83713e-05
5.23561e-05
6.01201e-05
4.7903e-05
5.84297e-05
5.23944e-05
4.57045e-05
5.32198e-05
4.38009e-05
5.56062e-05
4.37516e-05
5.55352e-05
4.57177e-05
5.94459e-05
4.1603e-05
5.03179e-05
5.03229e-05
5.94131e-05
5.03578e-05
5.03645e-05
1.49178e-05
1.61048e-05
1.61057e-05
1.80883e-05
1.79805e-05
1.60862e-05
1.60854e-05
1.79648e-05
1.60862e-05
1.60864e-05
1.60855e-05
1.60865e-05
1.79806e-05
1.60862e-05
1.60865e-05
1.79679e-05
1.8074e-05
1.85541e-05
1.61049e-05
1.61049e-05
1.61971e-05
1.61963e-05
1.80856e-05
1.85363e-05
1.61058e-05
1.61058e-05
1.61964e-05
1.61973e-05
1.6106e-05
1.61959e-05
1.61972e-05
1.80747e-05
1.85358e-05
1.61061e-05
1.6197e-05
1.61972e-05
1.85375e-05
1.50063e-05
1.50062e-05
1.50062e-05
1.50065e-05
5.35093e-05
7.00399e-05
5.2955e-05
7.00642e-05
6.96378e-05
6.96178e-05
5.35185e-05
7.00466e-05
5.29528e-05
7.0071e-05
1.49177e-05
1.49178e-05
1.4918e-05
1.46696e-05
1.46694e-05
1.46696e-05
1.46697e-05
2.93465e-05
4.52033e-05
1.48828e-05
1.61294e-05
2.87886e-05
4.5622e-05
1.48319e-05
6.96356e-05
6.96157e-05
2.93495e-05
1.48828e-05
4.52066e-05
1.61303e-05
2.87902e-05
1.48319e-05
4.56239e-05
5.90536e-05
5.9065e-05
1.82383e-05
5.92799e-05
5.92917e-05
6.96522e-05
6.96733e-05
6.96546e-05
6.96756e-05
1.78233e-05
5.89334e-05
5.89472e-05
5.86943e-05
5.87071e-05
5.21536e-05
7.00337e-05
7.00077e-05
5.27537e-05
5.21555e-05
7.00425e-05
7.00121e-05
5.27576e-05
2.79401e-05
1.60725e-05
4.49861e-05
1.49368e-05
4.45605e-05
1.49961e-05
2.84934e-05
2.79391e-05
1.60721e-05
4.49957e-05
1.49366e-05
4.45613e-05
1.49959e-05
2.84994e-05
6.96555e-05
6.96763e-05
1.78308e-05
5.89472e-05
5.89346e-05
5.87076e-05
5.86936e-05
6.96523e-05
6.9673e-05
5.21508e-05
7.00406e-05
7.00145e-05
5.2764e-05
2.7941e-05
1.60731e-05
4.49936e-05
1.49367e-05
4.45639e-05
1.49961e-05
2.84973e-05
5.215e-05
7.00369e-05
7.00069e-05
5.27626e-05
2.79364e-05
1.6073e-05
1.49366e-05
4.49937e-05
1.49959e-05
4.45573e-05
2.85007e-05
2.79412e-05
1.60723e-05
4.49933e-05
1.49367e-05
4.45558e-05
1.4996e-05
2.84974e-05
5.21551e-05
7.00413e-05
7.00111e-05
5.27569e-05
2.79358e-05
1.60732e-05
1.49369e-05
4.49885e-05
1.49963e-05
4.45607e-05
2.84956e-05
5.21544e-05
7.0035e-05
7.00088e-05
5.27545e-05
6.96535e-05
6.96743e-05
1.7822e-05
5.89441e-05
5.89355e-05
5.87026e-05
5.86956e-05
6.96528e-05
6.96739e-05
2.79399e-05
1.6073e-05
1.49367e-05
4.49944e-05
1.4996e-05
4.45578e-05
2.84961e-05
2.79388e-05
1.60733e-05
1.49372e-05
4.49978e-05
1.49966e-05
4.45602e-05
2.85016e-05
5.21489e-05
7.00354e-05
7.00091e-05
5.27665e-05
5.21504e-05
7.00414e-05
7.0012e-05
5.27681e-05
1.78275e-05
5.8936e-05
5.89478e-05
5.86953e-05
5.8707e-05
6.96523e-05
6.96734e-05
6.96541e-05
6.96752e-05
6.96346e-05
6.96144e-05
6.96369e-05
6.96168e-05
5.90526e-05
5.90653e-05
1.82532e-05
5.92766e-05
5.92918e-05
6.9578e-05
6.95971e-05
6.95803e-05
6.95996e-05
1.83561e-05
5.96035e-05
5.96127e-05
5.93892e-05
5.94029e-05
5.35131e-05
7.00445e-05
5.2957e-05
7.00729e-05
2.93468e-05
4.52095e-05
1.48829e-05
1.61302e-05
2.87886e-05
4.56172e-05
1.48321e-05
2.93507e-05
4.5211e-05
1.48828e-05
1.61296e-05
2.87859e-05
4.56268e-05
1.48319e-05
5.36912e-05
7.00931e-05
7.00699e-05
5.42012e-05
5.36933e-05
7.01018e-05
7.00746e-05
5.42049e-05
2.96406e-05
1.61601e-05
4.62273e-05
1.47442e-05
4.5832e-05
1.47867e-05
3.02019e-05
2.9639e-05
1.61602e-05
4.62351e-05
1.47441e-05
4.58344e-05
1.47866e-05
3.02056e-05
5.9066e-05
5.9053e-05
1.82367e-05
5.92921e-05
5.92791e-05
6.96345e-05
6.96146e-05
6.95815e-05
6.96006e-05
1.83693e-05
5.96163e-05
5.96034e-05
5.94035e-05
5.93915e-05
6.95783e-05
6.95973e-05
2.93486e-05
4.52139e-05
1.48829e-05
1.61301e-05
2.87883e-05
4.56247e-05
1.48319e-05
5.35173e-05
7.00387e-05
5.29517e-05
7.00672e-05
2.93529e-05
1.48827e-05
4.52072e-05
1.61306e-05
2.87843e-05
1.48318e-05
4.56229e-05
5.36892e-05
7.00998e-05
7.00766e-05
5.42096e-05
2.96418e-05
1.61612e-05
4.62275e-05
1.47441e-05
4.5837e-05
1.47866e-05
3.02009e-05
5.36886e-05
7.00962e-05
7.00688e-05
5.42087e-05
2.96373e-05
1.61613e-05
1.47439e-05
4.62309e-05
1.47865e-05
4.58329e-05
3.02044e-05
5.35121e-05
7.0043e-05
5.2957e-05
7.00716e-05
2.93465e-05
1.48831e-05
4.52106e-05
1.61305e-05
2.87886e-05
1.48322e-05
4.56248e-05
5.351e-05
7.00405e-05
5.29564e-05
7.00667e-05
2.9642e-05
1.61599e-05
4.62265e-05
1.4744e-05
4.58277e-05
1.47866e-05
3.0205e-05
5.36934e-05
7.01004e-05
7.00732e-05
5.42039e-05
2.96416e-05
1.61613e-05
1.47444e-05
4.62316e-05
1.4787e-05
4.58294e-05
3.02035e-05
5.36928e-05
7.0096e-05
7.00685e-05
5.42017e-05
5.90604e-05
5.90539e-05
1.82541e-05
5.9288e-05
5.92802e-05
6.96352e-05
6.9615e-05
6.95794e-05
6.95983e-05
1.83588e-05
5.96114e-05
5.96046e-05
5.93987e-05
5.93913e-05
6.95786e-05
6.95979e-05
2.9353e-05
1.48835e-05
4.52098e-05
1.61306e-05
2.87881e-05
1.48325e-05
4.56282e-05
5.35211e-05
7.00412e-05
5.29511e-05
7.00659e-05
5.35226e-05
7.00457e-05
5.29528e-05
7.00704e-05
2.96424e-05
1.61611e-05
1.47441e-05
4.62277e-05
1.47866e-05
4.58299e-05
3.02027e-05
2.96411e-05
1.61614e-05
1.47448e-05
4.62295e-05
1.47873e-05
4.58351e-05
3.02077e-05
5.36878e-05
7.00948e-05
7.00715e-05
5.42121e-05
5.36897e-05
7.00993e-05
7.00759e-05
5.42137e-05
6.96346e-05
6.96144e-05
6.96365e-05
6.96163e-05
1.8371e-05
5.96037e-05
5.9615e-05
5.93909e-05
5.94023e-05
6.95781e-05
6.95972e-05
6.958e-05
6.95993e-05
6.98488e-05
5.3331e-05
6.91811e-05
5.95606e-05
6.91663e-05
5.93946e-05
6.98602e-05
7.09919e-05
7.40099e-05
7.00493e-05
7.09886e-05
7.40787e-05
6.98476e-05
5.31396e-05
6.91433e-05
5.91225e-05
6.98359e-05
6.91578e-05
5.92938e-05
7.09682e-05
7.41767e-05
7.00551e-05
7.41067e-05
7.09715e-05
6.96365e-05
6.9619e-05
6.98517e-05
5.33292e-05
5.95719e-05
6.91828e-05
5.93987e-05
6.91678e-05
6.98632e-05
7.09959e-05
7.40355e-05
7.0056e-05
7.09931e-05
7.41002e-05
6.98505e-05
5.31493e-05
5.91261e-05
6.91448e-05
6.98387e-05
5.93055e-05
6.91594e-05
7.09728e-05
7.41983e-05
7.00618e-05
7.41364e-05
7.09755e-05
6.96344e-05
6.96168e-05
8.7516e-05
7.24404e-05
7.24345e-05
7.24397e-05
7.24338e-05
8.75905e-05
5.70433e-05
3.89756e-05
6.8808e-05
5.91111e-05
5.69477e-05
3.91033e-05
6.88359e-05
5.71096e-05
3.89953e-05
6.88218e-05
5.91224e-05
5.70127e-05
3.91199e-05
6.88463e-05
8.74841e-05
7.24618e-05
7.24559e-05
8.74081e-05
7.24624e-05
7.24565e-05
5.72292e-05
6.88727e-05
5.92245e-05
3.94899e-05
3.93651e-05
6.88454e-05
5.73249e-05
5.72944e-05
6.88831e-05
5.92361e-05
3.95064e-05
3.93845e-05
6.88594e-05
5.73887e-05
6.96538e-05
6.96717e-05
6.96561e-05
6.9674e-05
8.72561e-05
7.25071e-05
7.25007e-05
8.71787e-05
7.25076e-05
7.25014e-05
5.66579e-05
3.87091e-05
5.88761e-05
6.87977e-05
6.87692e-05
3.85809e-05
5.67482e-05
5.6725e-05
3.87278e-05
5.8889e-05
6.88108e-05
6.87817e-05
3.8601e-05
5.6817e-05
5.64521e-05
6.87283e-05
3.81806e-05
5.87534e-05
5.63578e-05
6.87584e-05
3.83101e-05
5.65206e-05
6.87414e-05
3.81999e-05
5.87676e-05
5.64251e-05
6.87715e-05
3.83296e-05
8.72969e-05
7.24852e-05
7.2479e-05
7.24847e-05
7.24782e-05
8.73705e-05
6.98213e-05
6.91003e-05
5.85408e-05
5.23514e-05
6.98092e-05
6.91139e-05
5.8722e-05
7.10087e-05
7.0024e-05
7.39733e-05
7.10123e-05
7.39044e-05
7.10324e-05
7.37916e-05
7.00175e-05
7.10288e-05
7.38632e-05
6.98227e-05
5.25626e-05
6.91353e-05
5.90143e-05
6.98346e-05
6.91214e-05
5.88379e-05
6.98241e-05
6.91012e-05
5.8546e-05
5.23551e-05
6.98119e-05
6.91148e-05
5.87362e-05
7.10134e-05
7.00289e-05
7.40051e-05
7.39276e-05
7.10164e-05
7.10366e-05
7.38142e-05
7.00264e-05
7.10335e-05
7.38959e-05
6.98254e-05
5.25645e-05
6.91363e-05
5.90281e-05
6.91223e-05
5.88436e-05
6.98375e-05
6.96569e-05
6.96748e-05
8.72555e-05
7.25025e-05
7.25069e-05
8.71768e-05
7.25032e-05
7.25076e-05
5.67206e-05
3.87234e-05
5.88894e-05
6.88097e-05
3.85959e-05
6.87844e-05
5.68132e-05
5.66557e-05
3.87077e-05
5.88761e-05
6.87965e-05
6.87714e-05
3.85803e-05
5.67484e-05
5.65158e-05
6.87441e-05
3.81959e-05
5.87668e-05
3.83238e-05
5.64213e-05
6.87701e-05
5.64515e-05
6.8731e-05
3.81796e-05
5.87547e-05
5.63552e-05
6.8757e-05
3.83071e-05
8.72947e-05
7.24809e-05
7.24853e-05
7.24802e-05
7.24846e-05
8.73705e-05
6.96536e-05
6.96717e-05
6.9824e-05
5.85435e-05
6.91017e-05
5.23619e-05
6.98119e-05
5.87348e-05
6.91154e-05
7.10134e-05
7.00308e-05
7.39976e-05
7.10163e-05
7.3928e-05
7.10366e-05
7.38157e-05
7.00245e-05
7.10335e-05
7.38884e-05
6.98254e-05
5.25604e-05
5.90267e-05
6.91369e-05
6.98374e-05
5.88411e-05
6.91229e-05
6.98219e-05
6.90995e-05
5.85422e-05
5.23603e-05
6.98098e-05
6.91162e-05
5.87236e-05
7.10087e-05
7.00232e-05
7.39768e-05
7.39012e-05
7.10123e-05
7.10326e-05
7.37894e-05
7.0021e-05
7.10289e-05
7.38682e-05
6.98232e-05
5.25593e-05
6.91387e-05
5.90162e-05
6.91196e-05
5.8839e-05
6.98353e-05
6.98235e-05
5.85427e-05
6.90989e-05
5.23546e-05
6.98112e-05
5.8733e-05
6.91171e-05
7.10123e-05
7.00276e-05
7.39994e-05
7.39218e-05
7.10154e-05
7.10357e-05
7.38089e-05
7.00254e-05
7.10325e-05
7.38906e-05
6.98246e-05
5.25645e-05
5.90249e-05
6.91393e-05
5.88402e-05
6.9119e-05
6.98368e-05
6.98219e-05
6.91007e-05
5.85398e-05
5.2352e-05
6.98098e-05
6.91143e-05
5.87277e-05
7.10099e-05
7.0025e-05
7.39794e-05
7.39032e-05
7.10129e-05
7.10332e-05
7.37904e-05
7.0019e-05
7.10301e-05
7.38709e-05
6.98232e-05
5.25636e-05
6.91357e-05
5.90197e-05
6.91217e-05
5.88371e-05
6.98352e-05
6.96548e-05
6.96729e-05
8.72609e-05
7.25011e-05
7.25069e-05
8.71815e-05
7.25018e-05
7.25075e-05
5.6726e-05
3.87278e-05
5.88846e-05
6.88096e-05
3.86018e-05
6.87806e-05
5.68172e-05
5.66603e-05
3.87116e-05
5.88775e-05
6.87982e-05
6.87695e-05
3.85826e-05
5.67522e-05
5.65213e-05
6.87403e-05
3.82016e-05
5.87635e-05
3.83281e-05
5.64261e-05
6.87703e-05
5.64556e-05
6.87293e-05
3.81822e-05
5.8756e-05
5.63604e-05
6.8759e-05
3.83145e-05
8.72993e-05
7.24794e-05
7.24851e-05
7.24787e-05
7.24845e-05
8.73751e-05
6.96544e-05
6.96722e-05
6.98229e-05
5.85377e-05
6.90991e-05
5.23645e-05
6.98106e-05
5.87294e-05
6.91184e-05
7.10109e-05
7.00254e-05
7.39802e-05
7.39007e-05
7.10139e-05
7.10343e-05
7.37876e-05
7.00193e-05
7.10311e-05
7.38718e-05
6.9824e-05
5.25585e-05
5.90215e-05
6.91404e-05
5.88353e-05
6.91196e-05
6.98362e-05
6.98238e-05
5.85437e-05
6.91022e-05
5.23661e-05
6.98116e-05
5.87368e-05
6.9116e-05
7.10124e-05
7.00287e-05
7.39991e-05
7.39233e-05
7.10153e-05
7.10357e-05
7.38093e-05
7.00265e-05
7.10326e-05
7.38936e-05
6.98252e-05
5.25599e-05
5.90284e-05
6.91375e-05
5.88416e-05
6.91232e-05
6.98372e-05
8.72593e-05
7.25065e-05
7.25006e-05
8.71782e-05
7.2507e-05
7.25011e-05
5.6656e-05
3.87121e-05
5.88774e-05
6.8798e-05
5.6753e-05
3.85804e-05
6.87692e-05
5.67215e-05
3.87265e-05
5.88889e-05
6.88083e-05
5.68207e-05
3.86003e-05
6.87829e-05
5.64549e-05
6.8729e-05
3.81792e-05
5.8756e-05
5.63564e-05
3.83141e-05
6.87589e-05
5.65207e-05
6.87428e-05
3.81985e-05
5.87676e-05
5.64223e-05
3.8329e-05
6.87689e-05
8.72959e-05
7.24846e-05
7.24787e-05
8.73742e-05
7.2484e-05
7.24782e-05
6.96538e-05
6.96717e-05
6.96557e-05
6.96736e-05
6.96331e-05
6.96157e-05
6.96355e-05
6.96181e-05
8.75181e-05
7.24409e-05
7.24347e-05
7.24403e-05
7.24339e-05
8.75864e-05
5.70373e-05
3.89761e-05
6.88079e-05
5.91073e-05
5.69497e-05
6.88356e-05
3.91012e-05
5.71057e-05
3.89964e-05
6.88205e-05
5.9122e-05
5.70167e-05
6.88487e-05
3.91197e-05
8.74811e-05
7.24624e-05
7.2456e-05
8.74086e-05
7.2463e-05
7.24568e-05
5.72327e-05
6.88725e-05
5.92238e-05
3.94882e-05
6.88454e-05
5.73199e-05
3.93648e-05
5.73e-05
6.88855e-05
5.92366e-05
3.95064e-05
6.8858e-05
5.73869e-05
3.93848e-05
6.95789e-05
6.95959e-05
6.95816e-05
6.95984e-05
8.76893e-05
7.24184e-05
7.24119e-05
8.76224e-05
7.24191e-05
7.24129e-05
5.77637e-05
4.02547e-05
5.95505e-05
6.89432e-05
6.89165e-05
4.01188e-05
5.78816e-05
5.78427e-05
4.02515e-05
5.95641e-05
6.89547e-05
6.89297e-05
4.01479e-05
5.79179e-05
5.75994e-05
6.88814e-05
3.97448e-05
5.94417e-05
5.75024e-05
6.89083e-05
3.98716e-05
5.76639e-05
6.88944e-05
3.97674e-05
5.94561e-05
5.75745e-05
6.89207e-05
3.98861e-05
8.77207e-05
7.23975e-05
7.23909e-05
7.23967e-05
7.23902e-05
8.77853e-05
6.98517e-05
5.3333e-05
6.91821e-05
5.95739e-05
6.91672e-05
5.94008e-05
6.98632e-05
7.09961e-05
7.40337e-05
7.00578e-05
7.09932e-05
7.41084e-05
6.98505e-05
5.31434e-05
6.91444e-05
5.91283e-05
6.91587e-05
6.98387e-05
5.93073e-05
7.0973e-05
7.42063e-05
7.00598e-05
7.41348e-05
7.09758e-05
6.98724e-05
6.91896e-05
5.9655e-05
5.38632e-05
6.98612e-05
6.92043e-05
5.98159e-05
7.09274e-05
7.00842e-05
7.43548e-05
7.42982e-05
7.09304e-05
7.09509e-05
7.42079e-05
7.00787e-05
7.09479e-05
7.42671e-05
6.98731e-05
5.40357e-05
6.92277e-05
6.00596e-05
6.92127e-05
5.99042e-05
6.98839e-05
6.98752e-05
6.91905e-05
5.96614e-05
5.38669e-05
6.98641e-05
6.92052e-05
5.98287e-05
7.09322e-05
7.00892e-05
7.43865e-05
7.43219e-05
7.09347e-05
7.09553e-05
7.42308e-05
7.00875e-05
7.09526e-05
7.4299e-05
6.9876e-05
5.4038e-05
6.92286e-05
6.00716e-05
6.92137e-05
5.9911e-05
6.98866e-05
8.75171e-05
7.24367e-05
7.24411e-05
7.24361e-05
7.24404e-05
8.75866e-05
5.71006e-05
3.89909e-05
6.88237e-05
5.91221e-05
6.88478e-05
5.70133e-05
3.91169e-05
5.70371e-05
3.89751e-05
6.88107e-05
5.91089e-05
3.91004e-05
5.69478e-05
6.88346e-05
8.74808e-05
7.24581e-05
7.24625e-05
7.24587e-05
8.74077e-05
7.24631e-05
5.7297e-05
6.88846e-05
5.92375e-05
3.95023e-05
6.88612e-05
3.93807e-05
5.73819e-05
5.72321e-05
6.88715e-05
5.92251e-05
3.9487e-05
3.93634e-05
6.8848e-05
5.73178e-05
6.96333e-05
6.96157e-05
6.95825e-05
6.95995e-05
8.76894e-05
7.24142e-05
7.24186e-05
8.76217e-05
7.24149e-05
7.24194e-05
5.78406e-05
4.02602e-05
5.95647e-05
6.89547e-05
4.01397e-05
6.89328e-05
5.7924e-05
5.7777e-05
4.02428e-05
5.95525e-05
6.89416e-05
6.89195e-05
4.01227e-05
5.78593e-05
5.76565e-05
6.88977e-05
3.97633e-05
5.94569e-05
3.98839e-05
5.75726e-05
6.89202e-05
5.75924e-05
6.88845e-05
3.97462e-05
5.94443e-05
5.75085e-05
6.89071e-05
3.98678e-05
8.77223e-05
7.23933e-05
7.23978e-05
7.23926e-05
7.2397e-05
8.77883e-05
6.95792e-05
6.95963e-05
6.98494e-05
5.33283e-05
6.91851e-05
5.95626e-05
6.91637e-05
5.93952e-05
6.98609e-05
7.09921e-05
7.40076e-05
7.00521e-05
7.09885e-05
7.40804e-05
6.98483e-05
5.3148e-05
6.91404e-05
5.91233e-05
6.91617e-05
6.98365e-05
5.92955e-05
7.09683e-05
7.41785e-05
7.0054e-05
7.41081e-05
7.09717e-05
6.98753e-05
5.96593e-05
6.91911e-05
5.38719e-05
6.98641e-05
5.98265e-05
6.9206e-05
7.0932e-05
7.00911e-05
7.43784e-05
7.4322e-05
7.09345e-05
7.0955e-05
7.42313e-05
7.00855e-05
7.09524e-05
7.42906e-05
6.98761e-05
5.40339e-05
6.00694e-05
6.92295e-05
5.99087e-05
6.92144e-05
6.98868e-05
6.9873e-05
6.91868e-05
5.96555e-05
5.38706e-05
6.98618e-05
6.92083e-05
5.98176e-05
7.09275e-05
7.00835e-05
7.43589e-05
7.42948e-05
7.09308e-05
7.09513e-05
7.42034e-05
7.00818e-05
7.09479e-05
7.42712e-05
6.98737e-05
5.40333e-05
6.92318e-05
6.00613e-05
6.92103e-05
5.99044e-05
6.98845e-05
6.98508e-05
5.33333e-05
5.95705e-05
6.91852e-05
5.93977e-05
6.91639e-05
6.98624e-05
7.09951e-05
7.4028e-05
7.00565e-05
7.41026e-05
7.09921e-05
6.98499e-05
5.31428e-05
5.9125e-05
6.91407e-05
5.9304e-05
6.98379e-05
6.91619e-05
7.09719e-05
7.42006e-05
7.00583e-05
7.41295e-05
7.09747e-05
6.98493e-05
5.33326e-05
6.91814e-05
5.95657e-05
6.91665e-05
5.93942e-05
6.98608e-05
7.09925e-05
7.40095e-05
7.00509e-05
7.09896e-05
7.40825e-05
6.98482e-05
5.31403e-05
6.91437e-05
5.91217e-05
6.98364e-05
6.91581e-05
5.92989e-05
7.09693e-05
7.41805e-05
7.00539e-05
7.41106e-05
7.0972e-05
6.98745e-05
5.96584e-05
6.91869e-05
5.38659e-05
6.98632e-05
5.98253e-05
6.92082e-05
7.09311e-05
7.00878e-05
7.43811e-05
7.43162e-05
7.09338e-05
7.09543e-05
7.42253e-05
7.00861e-05
7.09515e-05
7.42933e-05
6.98751e-05
5.4038e-05
6.00685e-05
6.92316e-05
5.99081e-05
6.92103e-05
6.98859e-05
6.98729e-05
6.91898e-05
5.96548e-05
5.38636e-05
6.98618e-05
6.92045e-05
5.98205e-05
7.09284e-05
7.00833e-05
7.43609e-05
7.42968e-05
7.0931e-05
7.09516e-05
7.42062e-05
7.00817e-05
7.09488e-05
7.42732e-05
6.98736e-05
5.40371e-05
6.92279e-05
6.00638e-05
6.92129e-05
5.99042e-05
6.98843e-05
8.75212e-05
7.24352e-05
7.24409e-05
7.24345e-05
7.24402e-05
8.75907e-05
5.71055e-05
3.89964e-05
6.88194e-05
5.91185e-05
6.88475e-05
5.70185e-05
3.91204e-05
5.70404e-05
3.89781e-05
6.88083e-05
5.91102e-05
3.91047e-05
5.69523e-05
6.88362e-05
8.74849e-05
7.24565e-05
7.24623e-05
7.24572e-05
8.7413e-05
7.24629e-05
5.73016e-05
6.88844e-05
5.92321e-05
3.95087e-05
6.88569e-05
3.93853e-05
5.73891e-05
5.7236e-05
6.88731e-05
5.92253e-05
3.94908e-05
3.93673e-05
6.88458e-05
5.73218e-05
6.96337e-05
6.96164e-05
6.95803e-05
6.95974e-05
8.76939e-05
7.24126e-05
7.24184e-05
8.76261e-05
7.24134e-05
7.24191e-05
5.7844e-05
4.02636e-05
5.95597e-05
6.89544e-05
4.01437e-05
6.89286e-05
5.79288e-05
5.778e-05
4.02468e-05
5.95525e-05
6.89431e-05
6.89173e-05
4.01277e-05
5.78627e-05
5.76618e-05
6.88933e-05
3.97667e-05
5.94526e-05
3.98878e-05
5.75757e-05
6.892e-05
5.75953e-05
6.88821e-05
3.97507e-05
5.94448e-05
5.75127e-05
6.89087e-05
3.98716e-05
8.77237e-05
7.23918e-05
7.23975e-05
7.2391e-05
7.23967e-05
8.77933e-05
6.95798e-05
6.95966e-05
6.98502e-05
5.33276e-05
5.95669e-05
6.91861e-05
5.9393e-05
6.91648e-05
6.98618e-05
7.09936e-05
7.40077e-05
7.00509e-05
7.40828e-05
7.09907e-05
6.98493e-05
5.31521e-05
5.91202e-05
6.91416e-05
5.93003e-05
6.98373e-05
6.91629e-05
7.09704e-05
7.41774e-05
7.00564e-05
7.4112e-05
7.09731e-05
6.98514e-05
5.33292e-05
5.95735e-05
6.91832e-05
5.93994e-05
6.91682e-05
6.98629e-05
7.09949e-05
7.40319e-05
7.00556e-05
7.09921e-05
7.41e-05
6.98503e-05
5.31536e-05
5.91265e-05
6.91454e-05
6.98385e-05
5.93073e-05
6.91599e-05
7.09717e-05
7.41972e-05
7.0061e-05
7.4134e-05
7.09744e-05
6.98738e-05
5.9654e-05
6.91877e-05
5.38743e-05
6.98626e-05
5.98213e-05
6.92091e-05
7.09295e-05
7.00859e-05
7.43558e-05
7.43004e-05
7.0932e-05
7.09526e-05
7.42103e-05
7.00805e-05
7.095e-05
7.42682e-05
6.98745e-05
5.40327e-05
6.00643e-05
6.92325e-05
5.99039e-05
6.92111e-05
6.98852e-05
6.9875e-05
5.96603e-05
6.91915e-05
5.38759e-05
6.98639e-05
5.98278e-05
6.92064e-05
7.09309e-05
7.00904e-05
7.43769e-05
7.43208e-05
7.09334e-05
7.09539e-05
7.42306e-05
7.0085e-05
7.09513e-05
7.4289e-05
6.98758e-05
5.40344e-05
6.00707e-05
6.92298e-05
5.99101e-05
6.92147e-05
6.98865e-05
6.96332e-05
6.96157e-05
6.96351e-05
6.96177e-05
8.76922e-05
7.24178e-05
7.2412e-05
8.76199e-05
7.24185e-05
7.24127e-05
5.7774e-05
4.02457e-05
5.95525e-05
6.89426e-05
4.01245e-05
6.89168e-05
5.78636e-05
5.78404e-05
4.0262e-05
5.95637e-05
6.89529e-05
4.01431e-05
6.89308e-05
5.79281e-05
5.75963e-05
6.88815e-05
3.97477e-05
5.94439e-05
5.75046e-05
3.98711e-05
6.89082e-05
5.76605e-05
6.88957e-05
3.97666e-05
5.94561e-05
5.75712e-05
3.98875e-05
6.89185e-05
8.77218e-05
7.2397e-05
7.23911e-05
7.23962e-05
7.23904e-05
8.77905e-05
6.95791e-05
6.9596e-05
6.95812e-05
6.9598e-05
1.50402e-05
1.50403e-05
1.48321e-05
1.49323e-05
1.49325e-05
1.52913e-05
1.54092e-05
3.78638e-05
2.48713e-05
2.48853e-05
1.81007e-05
3.77276e-05
2.49811e-05
2.49703e-05
3.73159e-05
1.79449e-05
2.46588e-05
2.46678e-05
2.45683e-05
2.45683e-05
3.74504e-05
3.73156e-05
1.79533e-05
2.46515e-05
2.46539e-05
2.45716e-05
2.45716e-05
3.74451e-05
3.73221e-05
1.79441e-05
2.46571e-05
2.46663e-05
2.45787e-05
2.45743e-05
3.7447e-05
3.73153e-05
1.79566e-05
2.46673e-05
2.46544e-05
3.74543e-05
2.45629e-05
2.45725e-05
3.78668e-05
2.48717e-05
2.48778e-05
1.81131e-05
3.77275e-05
2.49741e-05
2.49793e-05
3.89319e-05
1.85094e-05
2.59457e-05
2.59122e-05
2.58213e-05
2.58418e-05
3.90673e-05
3.7857e-05
2.48846e-05
2.4883e-05
1.80986e-05
2.49632e-05
3.77296e-05
2.49683e-05
3.89369e-05
1.85204e-05
2.59241e-05
2.59173e-05
2.58366e-05
2.5838e-05
3.90594e-05
3.78589e-05
2.48911e-05
2.48746e-05
1.81135e-05
2.49805e-05
3.77376e-05
2.4966e-05
3.89401e-05
1.85152e-05
2.5933e-05
2.59444e-05
2.58341e-05
2.58281e-05
3.90657e-05
3.89359e-05
1.85233e-05
2.59351e-05
2.59207e-05
2.58271e-05
2.58446e-05
3.90632e-05
1.50979e-05
1.51502e-05
1.51504e-05
1.52626e-05
1.52628e-05
1.56502e-05
1.55288e-05
1.50978e-05
1.51502e-05
1.51505e-05
1.52626e-05
1.52629e-05
1.56502e-05
1.55289e-05
1.50978e-05
1.515e-05
1.51503e-05
1.52625e-05
1.52628e-05
1.56501e-05
1.55287e-05
1.50981e-05
1.51503e-05
1.51505e-05
1.52627e-05
1.52629e-05
1.56502e-05
1.55288e-05
1.50401e-05
1.50405e-05
1.4832e-05
1.49323e-05
1.49326e-05
1.52914e-05
1.54093e-05
1.504e-05
1.50403e-05
1.4832e-05
1.49322e-05
1.49325e-05
1.52912e-05
1.54091e-05
1.50403e-05
1.50405e-05
1.48323e-05
1.49324e-05
1.49326e-05
1.52913e-05
1.54092e-05
1.47494e-05
1.47235e-05
1.47237e-05
1.48268e-05
1.4827e-05
1.51751e-05
1.50605e-05
1.47493e-05
1.47235e-05
1.47238e-05
1.48268e-05
1.48271e-05
1.51751e-05
1.50606e-05
1.47494e-05
1.47234e-05
1.47237e-05
1.48267e-05
1.4827e-05
1.5175e-05
1.50604e-05
1.47497e-05
1.47236e-05
1.47238e-05
1.48269e-05
1.48271e-05
1.51751e-05
1.50605e-05
1.96188e-05
2.92144e-05
3.35517e-05
1.80083e-05
3.34238e-05
1.79606e-05
1.96474e-05
2.23934e-05
2.75733e-05
3.95904e-05
4.531e-05
2.23163e-05
2.76928e-05
3.97111e-05
1.94528e-05
2.89219e-05
3.30009e-05
1.78068e-05
1.94254e-05
3.31325e-05
1.78523e-05
2.25762e-05
4.00852e-05
4.55184e-05
2.80375e-05
2.79171e-05
3.99673e-05
2.26342e-05
1.96056e-05
2.92162e-05
1.80156e-05
3.35558e-05
1.79574e-05
3.34177e-05
1.96684e-05
2.23978e-05
2.75808e-05
3.95825e-05
4.53138e-05
2.23169e-05
2.76934e-05
3.97057e-05
1.94744e-05
2.89227e-05
1.78037e-05
3.29971e-05
1.94129e-05
1.7861e-05
3.31352e-05
2.25705e-05
4.00798e-05
4.55206e-05
2.80375e-05
2.79241e-05
3.99621e-05
2.26544e-05
3.81344e-05
1.82252e-05
2.52928e-05
2.52845e-05
2.51833e-05
2.52013e-05
3.82689e-05
3.7032e-05
1.78573e-05
2.42693e-05
2.42625e-05
3.69018e-05
2.43421e-05
2.43671e-05
1.90902e-05
3.21484e-05
1.75309e-05
2.8072e-05
1.90655e-05
3.2277e-05
1.75603e-05
2.20823e-05
2.73401e-05
4.48876e-05
3.93109e-05
2.72441e-05
3.92055e-05
2.21196e-05
2.18762e-05
3.88165e-05
2.69039e-05
4.46604e-05
2.69984e-05
2.18365e-05
3.89271e-05
1.9245e-05
2.83637e-05
3.27021e-05
1.76986e-05
3.25741e-05
1.76676e-05
1.92699e-05
1.90912e-05
3.21491e-05
1.75338e-05
2.8075e-05