/*--------------------------------*- C++ -*----------------------------------*\
| =========                 |                                                 |
| \\      /  F ield         | OpenFOAM: The Open Source CFD Toolbox           |
|  \\    /   O peration     | Version:  v1906                                 |
|   \\  /    A nd           | Web:      www.OpenFOAM.com                      |
|    \\/     M anipulation  |                                                 |
\*---------------------------------------------------------------------------*/
FoamFile
{
    version     2.0;
    format      ascii;
    class       volScalarField;
    location    "700";
    object      epsilon;
}
// * * * * * * * * * * * * * * * * * * * * * * * * * * * * * * * * * * * * * //

dimensions      [0 2 -3 0 0 0 0];


internalField   nonuniform List<scalar> 
43248
(
1.1488e-06
8.63038e-07
8.62981e-07
1.1482e-06
8.62784e-07
8.6302e-07
8.62806e-07
8.63043e-07
1.1487e-06
8.62882e-07
8.62924e-07
1.14816e-06
3.19683e-07
3.19666e-07
3.19733e-07
3.19756e-07
1.84273e-05
1.84291e-05
5.46244e-06
5.46332e-06
4.09158e-06
9.16098e-06
4.09344e-06
4.09183e-06
9.16203e-06
9.1555e-06
4.09365e-06
2.1022e-06
3.47456e-06
5.58164e-07
5.52261e-07
2.10684e-06
2.10226e-06
8.56906e-07
3.4755e-06
5.58201e-07
3.47171e-06
5.52308e-07
2.10689e-06
1.84288e-05
1.84184e-05
1.1441e-06
5.46397e-06
5.46179e-06
5.46108e-06
5.45942e-06
1.84262e-05
1.84158e-05
9.16282e-06
4.09397e-06
3.47548e-06
5.58262e-07
2.10706e-06
9.16231e-06
4.09367e-06
5.58271e-07
3.47514e-06
2.10691e-06
2.10232e-06
8.56729e-07
3.47452e-06
5.5821e-07
3.47174e-06
5.5232e-07
2.10702e-06
4.09152e-06
9.16214e-06
9.15516e-06
4.09397e-06
2.10226e-06
8.56962e-07
5.58274e-07
3.47509e-06
5.52384e-07
3.4714e-06
2.10688e-06
4.09144e-06
9.16212e-06
9.15517e-06
4.09389e-06
1.84296e-05
5.46359e-06
5.46202e-06
1.8428e-05
2.10242e-06
5.58304e-07
3.47496e-06
5.52399e-07
2.10694e-06
2.10247e-06
8.56852e-07
5.58336e-07
3.47566e-06
5.52448e-07
3.4724e-06
2.10698e-06
4.09181e-06
9.16203e-06
4.09391e-06
4.0919e-06
9.16329e-06
9.15655e-06
4.09406e-06
1.14457e-06
5.46202e-06
5.46398e-06
5.45953e-06
5.46144e-06
1.84281e-05
1.84178e-05
1.843e-05
1.84197e-05
1.84221e-05
1.84243e-05
4.53796e-06
2.81206e-06
5.46168e-06
9.50089e-06
9.49647e-06
2.81011e-06
4.54087e-06
4.54442e-06
2.81131e-06
5.46373e-06
9.50362e-06
9.50106e-06
2.81218e-06
4.54272e-06
9.73614e-06
2.17307e-05
2.17285e-05
2.17239e-05
2.17227e-05
9.73568e-06
1.22029e-05
1.08241e-05
4.74421e-06
4.09163e-06
1.22003e-05
1.08262e-05
4.74416e-06
2.20534e-05
9.15829e-06
7.08832e-06
7.08886e-06
2.20603e-05
1.22037e-05
4.09353e-06
1.08293e-05
4.74581e-06
1.08273e-05
4.74586e-06
1.22063e-05
1.22032e-05
1.08243e-05
4.74458e-06
4.09187e-06
1.22007e-05
1.08264e-05
4.74451e-06
2.20543e-05
9.15955e-06
7.09013e-06
7.09052e-06
2.20609e-05
2.20563e-05
7.08953e-06
9.15815e-06
2.20498e-05
7.08913e-06
1.22041e-05
4.0936e-06
1.08295e-05
4.7462e-06
1.08275e-05
4.74614e-06
1.22066e-05
1.84238e-05
1.84234e-05
9.73339e-06
2.17174e-05
2.17181e-05
9.73379e-06
2.17237e-05
2.17243e-05
4.54448e-06
2.8125e-06
5.46343e-06
9.50399e-06
2.81142e-06
9.50104e-06
4.54477e-06
4.5384e-06
2.8113e-06
5.46175e-06
9.49931e-06
9.49639e-06
2.81021e-06
4.53884e-06
4.54215e-06
9.49625e-06
2.80824e-06
5.46162e-06
2.80923e-06
4.54189e-06
9.49942e-06
4.5362e-06
9.49167e-06
2.80702e-06
5.45951e-06
4.53577e-06
9.49467e-06
2.80802e-06
9.73577e-06
2.17287e-05
2.17294e-05
2.17224e-05
2.17231e-05
9.73541e-06
1.84211e-05
1.84208e-05
2.2054e-05
9.16024e-06
7.09e-06
7.09036e-06
2.20606e-05
1.22039e-05
4.09357e-06
4.74633e-06
1.08307e-05
4.74586e-06
1.08276e-05
1.22073e-05
2.20542e-05
9.15981e-06
7.08862e-06
7.08914e-06
2.20611e-05
1.22044e-05
4.09344e-06
1.08303e-05
4.7459e-06
1.08275e-05
4.74602e-06
1.2207e-05
1.22031e-05
4.74426e-06
1.08241e-05
4.09207e-06
1.22001e-05
4.7445e-06
1.0827e-05
2.2053e-05
9.15911e-06
7.08959e-06
7.08994e-06
2.20596e-05
2.2055e-05
7.08895e-06
9.15812e-06
2.20484e-05
7.08859e-06
1.22035e-05
4.09352e-06
4.74609e-06
1.08303e-05
4.74581e-06
1.08272e-05
1.22066e-05
1.22035e-05
1.0824e-05
4.74406e-06
4.09198e-06
1.22005e-05
1.08269e-05
4.7444e-06
2.20538e-05
9.15912e-06
7.08818e-06
7.08855e-06
2.20604e-05
2.20557e-05
7.08755e-06
9.15811e-06
2.20492e-05
7.08717e-06
1.22038e-05
4.09343e-06
1.08302e-05
4.74601e-06
1.08271e-05
4.74566e-06
1.22071e-05
1.84246e-05
4.54493e-06
2.81224e-06
5.46362e-06
9.50407e-06
2.81176e-06
9.50114e-06
4.54501e-06
4.53892e-06
2.81106e-06
5.46189e-06
9.49959e-06
9.49637e-06
2.81049e-06
4.53892e-06
9.73664e-06
2.17298e-05
2.17302e-05
2.17235e-05
2.17239e-05
9.73625e-06
1.84231e-05
1.22035e-05
4.7441e-06
1.08249e-05
4.09183e-06
1.22008e-05
4.74436e-06
1.0827e-05
2.20541e-05
9.1596e-06
7.08824e-06
7.0886e-06
2.20607e-05
2.20561e-05
7.08722e-06
1.22042e-05
4.09358e-06
4.74602e-06
1.08303e-05
4.74568e-06
1.0828e-05
1.22071e-05
1.22034e-05
4.74455e-06
1.0825e-05
4.09188e-06
1.22008e-05
4.74457e-06
1.08271e-05
2.20538e-05
9.16025e-06
7.08995e-06
7.09045e-06
2.20607e-05
2.20561e-05
7.08947e-06
9.15917e-06
2.20493e-05
7.08895e-06
1.22041e-05
4.09365e-06
4.74621e-06
1.08302e-05
4.74608e-06
1.08282e-05
1.22068e-05
9.734e-06
2.17189e-05
2.17181e-05
9.73441e-06
2.17251e-05
2.17244e-05
4.53888e-06
2.81147e-06
5.46185e-06
9.49956e-06
2.81052e-06
9.49663e-06
4.53888e-06
4.54484e-06
2.8126e-06
5.46377e-06
9.50474e-06
2.81159e-06
9.50106e-06
4.54482e-06
4.53631e-06
9.4919e-06
2.80738e-06
5.45969e-06
4.53625e-06
2.80796e-06
9.49492e-06
4.54233e-06
9.49639e-06
2.80847e-06
5.46162e-06
4.54221e-06
2.80933e-06
9.49999e-06
9.73638e-06
2.17302e-05
2.17295e-05
2.17239e-05
2.17232e-05
9.73601e-06
1.84231e-05
1.84227e-05
1.8425e-05
1.84246e-05
2.66792e-06
1.14917e-06
1.76885e-06
1.76769e-06
1.76728e-06
1.7678e-06
2.66862e-06
2.66785e-06
1.14915e-06
1.76821e-06
1.76804e-06
1.76779e-06
1.76761e-06
2.66853e-06
2.66828e-06
1.14913e-06
1.76822e-06
1.76783e-06
1.76781e-06
1.76799e-06
2.66813e-06
2.66835e-06
1.14947e-06
1.76762e-06
1.76789e-06
1.76777e-06
1.76803e-06
2.66815e-06
1.66575e-07
1.66567e-07
1.64465e-07
7.93876e-08
7.99295e-08
3.15725e-07
1.66576e-07
1.66542e-07
1.64464e-07
1.64432e-07
7.93844e-08
7.99259e-08
1.66624e-07
1.66598e-07
1.64483e-07
7.94044e-08
7.99472e-08
3.15812e-07
1.66623e-07
1.66603e-07
1.64509e-07
1.64491e-07
7.94044e-08
7.99472e-08
1.40946e-06
2.36149e-06
1.27357e-06
2.10312e-06
1.4121e-06
2.36232e-06
1.27368e-06
1.61809e-06
2.03167e-06
3.47472e-06
2.85986e-06
2.0318e-06
2.85964e-06
1.61579e-06
1.41717e-06
2.10586e-06
2.36571e-06
1.2794e-06
2.36488e-06
1.27899e-06
1.41453e-06
1.40964e-06
2.36179e-06
1.27369e-06
2.1032e-06
1.41226e-06
2.36263e-06
1.27376e-06
1.61858e-06
2.03256e-06
3.47471e-06
2.86055e-06
2.86039e-06
2.03199e-06
1.61609e-06
1.61191e-06
2.85742e-06
2.02773e-06
3.47266e-06
1.61368e-06
2.85764e-06
2.0286e-06
1.41726e-06
2.10593e-06
2.36599e-06
1.27947e-06
2.36516e-06
1.27904e-06
1.41471e-06
2.66528e-06
1.1432e-06
1.76367e-06
1.76341e-06
1.76393e-06
2.66431e-06
1.76378e-06
1.61708e-06
2.03256e-06
3.47498e-06
2.86082e-06
2.03196e-06
2.86021e-06
1.61736e-06
1.41655e-06
2.106e-06
2.36602e-06
1.27961e-06
2.3651e-06
1.27908e-06
1.41569e-06
1.61823e-06
2.03206e-06
3.47505e-06
2.86009e-06
2.85992e-06
2.03219e-06
1.61583e-06
1.41648e-06
2.10599e-06
1.27891e-06
2.36583e-06
1.27933e-06
2.36498e-06
1.41488e-06
1.41111e-06
2.36179e-06
1.27349e-06
2.10332e-06
1.411e-06
2.36258e-06
1.27418e-06
1.6172e-06
2.03232e-06
3.47457e-06
2.86026e-06
2.03183e-06
2.86006e-06
1.61746e-06
1.61288e-06
2.85704e-06
2.0277e-06
3.4719e-06
1.61246e-06
2.02793e-06
2.8576e-06
1.41605e-06
2.10598e-06
2.36594e-06
1.27952e-06
2.36515e-06
1.27879e-06
1.41607e-06
1.40959e-06
1.27368e-06
2.3616e-06
2.10322e-06
1.41219e-06
1.27393e-06
2.36242e-06
1.61838e-06
2.03233e-06
3.4743e-06
2.86032e-06
2.85976e-06
2.03154e-06
1.61592e-06
1.61173e-06
2.85686e-06
2.02745e-06
3.47228e-06
1.61348e-06
2.85709e-06
2.02822e-06
1.41718e-06
2.10595e-06
1.27949e-06
2.36578e-06
1.27899e-06
2.36498e-06
1.41465e-06
1.4097e-06
1.27454e-06
2.36171e-06
2.10331e-06
1.41237e-06
1.27319e-06
2.36246e-06
1.61743e-06
2.03245e-06
3.47474e-06
2.86033e-06
2.03157e-06
2.85968e-06
1.6175e-06
1.61235e-06
2.85704e-06
1.41738e-06
2.10609e-06
1.27824e-06
2.36584e-06
1.27986e-06
2.36506e-06
1.41479e-06
1.40973e-06
1.27457e-06
2.36189e-06
2.10335e-06
1.41245e-06
1.27325e-06
2.36264e-06
1.61868e-06
2.03186e-06
3.47513e-06
2.86052e-06
2.86039e-06
2.03233e-06
1.61611e-06
1.61196e-06
2.8574e-06
2.02822e-06
3.47249e-06
1.61379e-06
2.85763e-06
2.0282e-06
1.41743e-06
2.10614e-06
1.27832e-06
2.36599e-06
1.27996e-06
2.36526e-06
1.41483e-06
2.66497e-06
1.14337e-06
1.76359e-06
1.76384e-06
2.66487e-06
1.7636e-06
1.76387e-06
1.33486e-07
2.30075e-07
2.30113e-07
3.57073e-07
3.51381e-07
2.27861e-07
2.27868e-07
3.50995e-07
2.27793e-07
2.27898e-07
2.27761e-07
2.27839e-07
3.52073e-07
2.27796e-07
2.27796e-07
3.51629e-07
3.57534e-07
3.76758e-07
2.30136e-07
2.30183e-07
2.37919e-07
2.3792e-07
3.5755e-07
3.76919e-07
2.30147e-07
2.30208e-07
2.37811e-07
2.37944e-07
2.30147e-07
2.37798e-07
2.37882e-07
3.5695e-07
3.77628e-07
2.30107e-07
2.37841e-07
2.37839e-07
3.77187e-07
1.34156e-07
1.34151e-07
1.34163e-07
1.34156e-07
3.68083e-06
8.90928e-06
3.6524e-06
8.91391e-06
1.84692e-05
1.84613e-05
3.68119e-06
8.9109e-06
3.65266e-06
8.91632e-06
1.33479e-07
1.33491e-07
1.33483e-07
1.31782e-07
1.31778e-07
1.31791e-07
1.31783e-07
1.15744e-06
2.79796e-06
1.58227e-07
2.32522e-07
1.12957e-06
2.82276e-06
1.58434e-07
1.84707e-05
1.84628e-05
1.15762e-06
1.58228e-07
2.79946e-06
2.3256e-07
1.12951e-06
1.5844e-07
2.82152e-06
5.13698e-06
5.13886e-06
3.63522e-07
5.1466e-06
5.14855e-06
1.84752e-05
1.84836e-05
1.84775e-05
1.84858e-05
3.45513e-07
5.12782e-06
5.12999e-06
5.11703e-06
5.11863e-06
3.60344e-06
8.90812e-06
8.90335e-06
3.63486e-06
3.60359e-06
8.90962e-06
8.90399e-06
3.63534e-06
1.08716e-06
2.25641e-07
2.78457e-06
1.5812e-07
2.76134e-06
1.58076e-07
1.11468e-06
1.08652e-06
2.25678e-07
2.78507e-06
1.58124e-07
2.76175e-06
1.58083e-07
1.11495e-06
1.84763e-05
1.84846e-05
3.45624e-07
5.1313e-06
5.12936e-06
5.11714e-06
5.11543e-06
1.84748e-05
1.84831e-05
3.60382e-06
8.91053e-06
8.9048e-06
3.63557e-06
1.08727e-06
2.2564e-07
2.78516e-06
1.58117e-07
2.76167e-06
1.58075e-07
1.11482e-06
3.60353e-06
8.90985e-06
8.90418e-06
3.63548e-06
1.08643e-06
2.25705e-07
1.58124e-07
2.78666e-06
1.58084e-07
2.76001e-06
1.11503e-06
1.08683e-06
2.25575e-07
2.78616e-06
1.58121e-07
2.7596e-06
1.58078e-07
1.11494e-06
3.60365e-06
8.90933e-06
8.90452e-06
3.63566e-06
1.08689e-06
2.25645e-07
1.58119e-07
2.78621e-06
1.58079e-07
2.7596e-06
1.11493e-06
3.60338e-06
8.90901e-06
8.90415e-06
3.63527e-06
1.84778e-05
1.84861e-05
3.45152e-07
5.12978e-06
5.12819e-06
5.11878e-06
5.1171e-06
1.84763e-05
1.84847e-05
1.08747e-06
2.2561e-07
1.58121e-07
2.78472e-06
1.58081e-07
2.7611e-06
1.11527e-06
1.08681e-06
2.25604e-07
1.58112e-07
2.78529e-06
1.58072e-07
2.76184e-06
1.11514e-06
3.60368e-06
8.9096e-06
8.90392e-06
3.63597e-06
3.60367e-06
8.91057e-06
8.90492e-06
3.63583e-06
3.44754e-07
5.12813e-06
5.13007e-06
5.11708e-06
5.11899e-06
1.84762e-05
1.84846e-05
1.84777e-05
1.8486e-05
1.84682e-05
1.84602e-05
1.84703e-05
1.84623e-05
5.1369e-06
5.13846e-06
3.63529e-07
5.14696e-06
5.14839e-06
1.84459e-05
1.84533e-05
1.84476e-05
1.84555e-05
3.70172e-07
5.1637e-06
5.16543e-06
5.15424e-06
5.15642e-06
3.68092e-06
8.91005e-06
3.65263e-06
8.91543e-06
1.15702e-06
2.79931e-06
1.58227e-07
2.32624e-07
1.12978e-06
2.82113e-06
1.58432e-07
1.15768e-06
2.79976e-06
1.58236e-07
2.32632e-07
1.12945e-06
2.82175e-06
1.58437e-07
3.69625e-06
8.91949e-06
8.91506e-06
3.72139e-06
3.69645e-06
8.92089e-06
8.91581e-06
3.72158e-06
1.17223e-06
2.3516e-07
2.856e-06
1.59097e-07
2.83528e-06
1.58727e-07
1.19919e-06
1.17178e-06
2.35211e-07
2.85646e-06
1.59101e-07
2.83574e-06
1.58734e-07
1.19993e-06
5.13722e-06
5.1354e-06
3.63345e-07
5.14966e-06
5.14773e-06
1.84677e-05
1.84597e-05
1.84468e-05
1.84544e-05
3.70236e-07
5.16667e-06
5.16473e-06
5.15524e-06
5.15344e-06
1.84452e-05
1.84528e-05
1.15729e-06
2.79966e-06
1.58227e-07
2.32545e-07
1.12984e-06
2.82179e-06
1.58436e-07
3.6812e-06
8.91029e-06
3.65261e-06
8.91569e-06
1.15744e-06
1.58238e-07
2.79859e-06
2.32658e-07
1.12944e-06
1.58437e-07
2.82326e-06
3.69663e-06
8.92174e-06
8.91668e-06
3.7219e-06
1.17227e-06
2.35177e-07
2.85632e-06
1.59099e-07
2.83568e-06
1.58723e-07
1.19956e-06
3.69645e-06
8.92115e-06
8.91606e-06
3.72197e-06
1.17204e-06
2.35236e-07
1.59099e-07
2.85786e-06
1.58733e-07
2.83465e-06
1.19979e-06
3.68185e-06
8.91044e-06
3.65262e-06
8.91515e-06
1.15759e-06
1.5823e-07
2.79813e-06
2.32596e-07
1.12953e-06
1.58433e-07
2.82276e-06
3.68089e-06
8.91011e-06
3.65258e-06
8.91484e-06
1.17209e-06
2.35095e-07
2.8572e-06
1.59096e-07
2.83397e-06
1.58726e-07
1.19978e-06
3.69587e-06
8.92061e-06
8.91621e-06
3.72263e-06
1.17188e-06
2.35172e-07
1.59095e-07
2.85563e-06
1.58726e-07
2.83428e-06
1.19973e-06
3.69648e-06
8.92032e-06
8.9159e-06
3.72168e-06
5.13869e-06
5.13679e-06
3.64343e-07
5.14816e-06
5.14654e-06
1.84692e-05
1.84612e-05
1.84484e-05
1.84559e-05
3.69391e-07
5.16529e-06
5.16362e-06
5.15665e-06
5.15472e-06
1.84467e-05
1.84544e-05
1.1577e-06
1.58227e-07
2.79987e-06
2.32557e-07
1.12962e-06
1.5843e-07
2.82189e-06
3.68164e-06
8.91002e-06
3.65261e-06
8.91543e-06
3.68126e-06
8.91101e-06
3.65269e-06
8.91641e-06
1.17211e-06
2.35136e-07
1.59103e-07
2.85608e-06
1.58722e-07
2.83537e-06
1.19992e-06
1.17203e-06
2.35129e-07
1.59094e-07
2.85659e-06
1.58724e-07
2.83584e-06
1.20021e-06
3.69622e-06
8.92088e-06
8.91578e-06
3.72176e-06
3.6966e-06
8.92187e-06
8.91677e-06
3.72195e-06
1.84692e-05
1.84611e-05
1.84706e-05
1.84627e-05
3.70297e-07
5.16365e-06
5.1656e-06
5.1548e-06
5.1567e-06
1.84467e-05
1.84543e-05
1.84482e-05
1.84558e-05
1.21312e-05
3.67508e-06
1.06755e-05
4.49155e-06
1.06721e-05
4.48643e-06
1.21342e-05
2.24358e-05
7.21547e-06
8.91107e-06
2.24342e-05
7.21496e-06
1.21309e-05
3.65862e-06
1.0667e-05
4.47094e-06
1.21278e-05
1.06703e-05
4.47636e-06
2.24246e-05
7.21629e-06
8.91218e-06
7.217e-06
2.24261e-05
1.84687e-05
1.84618e-05
1.21315e-05
3.67536e-06
4.49181e-06
1.0676e-05
4.48707e-06
1.06726e-05
1.21345e-05
2.24365e-05
7.21732e-06
8.91346e-06
2.24352e-05
7.21706e-06
1.21312e-05
3.65913e-06
4.47147e-06
1.06674e-05
1.21282e-05
4.47675e-06
1.06708e-05
2.24255e-05
7.2184e-06
8.91384e-06
7.21891e-06
2.24268e-05
1.84703e-05
1.84633e-05
9.73109e-06
2.1913e-05
2.19124e-05
2.19127e-05
2.19121e-05
9.72939e-06
3.96207e-06
1.92716e-06
9.03727e-06
5.13757e-06
3.95866e-06
1.93305e-06
9.04282e-06
3.97021e-06
1.92802e-06
9.04204e-06
5.13952e-06
3.96413e-06
1.93543e-06
9.04757e-06
9.72893e-06
2.19227e-05
2.19221e-05
9.7305e-06
2.1923e-05
2.19224e-05
3.97486e-06
9.05003e-06
5.14611e-06
1.95448e-06
1.94844e-06
9.04465e-06
3.97819e-06
3.9806e-06
9.0548e-06
5.148e-06
1.95672e-06
1.94943e-06
9.04944e-06
3.9862e-06
1.84759e-05
1.8483e-05
1.8478e-05
1.84852e-05
9.72697e-06
2.19423e-05
2.19424e-05
9.72828e-06
2.19426e-05
2.19428e-05
3.94026e-06
1.91189e-06
5.12748e-06
9.03454e-06
9.02959e-06
1.90462e-06
3.94617e-06
3.94775e-06
1.91303e-06
5.12905e-06
9.04032e-06
9.03456e-06
1.90635e-06
3.95169e-06
3.92905e-06
9.0217e-06
1.88232e-06
5.1177e-06
3.92233e-06
9.02686e-06
1.88982e-06
3.93568e-06
9.02661e-06
1.8839e-06
5.11983e-06
3.92955e-06
9.03256e-06
1.8914e-06
9.7294e-06
2.19324e-05
2.19326e-05
2.19322e-05
2.19323e-05
9.72793e-06
1.2124e-05
1.06571e-05
4.43739e-06
3.61057e-06
1.21209e-05
1.066e-05
4.44212e-06
2.24438e-05
8.90628e-06
7.21302e-06
2.24454e-05
7.21347e-06
2.2455e-05
7.21093e-06
8.90514e-06
2.24533e-05
7.21059e-06
1.21244e-05
3.62853e-06
1.06651e-05
4.46016e-06
1.21275e-05
1.06617e-05
4.45474e-06
1.21242e-05
1.06572e-05
4.43765e-06
3.6108e-06
1.2121e-05
1.06602e-05
4.443e-06
2.24448e-05
8.907e-06
7.2154e-06
7.21548e-06
2.24463e-05
2.24559e-05
7.21301e-06
8.90662e-06
2.24544e-05
7.21311e-06
1.21245e-05
3.62874e-06
1.06651e-05
4.46013e-06
1.06619e-05
4.45527e-06
1.21277e-05
1.84769e-05
1.8484e-05
9.72684e-06
2.19419e-05
2.19426e-05
9.72808e-06
2.19422e-05
2.19429e-05
3.94806e-06
1.91324e-06
5.1277e-06
9.03965e-06
1.90672e-06
9.03471e-06
3.95327e-06
3.94019e-06
1.91186e-06
5.1259e-06
9.0349e-06
9.02999e-06
1.90453e-06
3.94613e-06
3.93435e-06
9.02685e-06
1.88452e-06
5.12113e-06
1.891e-06
3.93033e-06
9.03194e-06
3.929e-06
9.02217e-06
1.88186e-06
5.11919e-06
3.92231e-06
9.02719e-06
1.88971e-06
9.72923e-06
2.19321e-05
2.19328e-05
2.19318e-05
2.19325e-05
9.72783e-06
1.84753e-05
1.84825e-05
1.21243e-05
4.43771e-06
1.06576e-05
3.61093e-06
1.21212e-05
4.44287e-06
1.06605e-05
2.24448e-05
8.90786e-06
7.21523e-06
2.24462e-05
7.21528e-06
2.24558e-05
7.21277e-06
8.90745e-06
2.24543e-05
7.2129e-06
1.21247e-05
3.62877e-06
4.46055e-06
1.06656e-05
1.21278e-05
4.45518e-06
1.06622e-05
1.21243e-05
1.06573e-05
4.43764e-06
3.61075e-06
1.21212e-05
1.06603e-05
4.44257e-06
2.2444e-05
8.90722e-06
7.21351e-06
7.2138e-06
2.24457e-05
2.24553e-05
7.21129e-06
8.90683e-06
2.24535e-05
7.21115e-06
1.21247e-05
3.6288e-06
1.06652e-05
4.4597e-06
1.0662e-05
4.45527e-06
1.21278e-05
1.21239e-05
4.43698e-06
1.06563e-05
3.6107e-06
1.21206e-05
4.44305e-06
1.0661e-05
2.24436e-05
8.90748e-06
7.21471e-06
7.215e-06
2.24451e-05
2.24547e-05
7.2126e-06
8.90638e-06
2.24532e-05
7.21236e-06
1.21242e-05
3.62868e-06
4.4601e-06
1.06659e-05
4.45467e-06
1.06612e-05
1.21273e-05
1.21241e-05
1.06572e-05
4.43676e-06
3.61051e-06
1.21209e-05
1.06602e-05
4.44287e-06
2.24438e-05
8.90716e-06
7.21298e-06
7.21324e-06
2.24452e-05
2.24548e-05
7.2108e-06
8.90607e-06
2.24533e-05
7.21059e-06
1.21245e-05
3.62881e-06
1.06651e-05
4.46035e-06
1.06619e-05
4.45452e-06
1.21276e-05
1.84783e-05
1.84856e-05
9.7277e-06
2.19432e-05
2.19433e-05
9.72895e-06
2.19435e-05
2.19436e-05
3.94859e-06
1.91374e-06
5.12928e-06
9.04014e-06
1.90642e-06
9.03442e-06
3.95221e-06
3.94169e-06
1.91198e-06
5.12745e-06
9.03488e-06
9.02997e-06
1.90485e-06
3.94526e-06
3.93457e-06
9.02653e-06
1.88378e-06
5.11959e-06
1.8915e-06
3.93075e-06
9.03236e-06
3.92762e-06
9.02211e-06
1.88253e-06
5.11811e-06
3.9239e-06
9.02719e-06
1.88994e-06
9.73009e-06
2.19333e-05
2.19334e-05
2.1933e-05
2.19331e-05
9.72867e-06
1.84769e-05
1.8484e-05
1.21243e-05
4.43728e-06
1.06564e-05
3.61097e-06
1.21211e-05
4.44294e-06
1.06611e-05
2.24443e-05
8.90698e-06
7.21317e-06
7.21327e-06
2.24458e-05
2.24554e-05
7.21083e-06
8.90659e-06
2.24539e-05
7.21087e-06
1.21246e-05
3.62868e-06
4.46033e-06
1.06661e-05
4.45453e-06
1.06614e-05
1.21277e-05
1.2124e-05
4.43764e-06
1.06576e-05
3.61124e-06
1.21209e-05
4.44291e-06
1.06606e-05
2.24438e-05
8.90797e-06
7.21504e-06
7.21513e-06
2.24452e-05
2.24548e-05
7.21272e-06
8.90757e-06
2.24533e-05
7.21279e-06
1.21244e-05
3.6288e-06
4.46017e-06
1.06655e-05
4.45521e-06
1.06623e-05
1.21275e-05
9.72723e-06
2.1943e-05
2.19424e-05
9.72853e-06
2.19432e-05
2.19426e-05
3.94149e-06
1.91166e-06
5.12742e-06
9.03532e-06
3.94521e-06
1.90525e-06
9.02957e-06
3.94724e-06
1.91391e-06
5.1293e-06
9.04006e-06
3.9531e-06
1.90627e-06
9.03435e-06
3.92756e-06
9.02173e-06
1.88306e-06
5.11826e-06
3.92375e-06
1.88956e-06
9.02752e-06
3.93604e-06
9.02646e-06
1.88414e-06
5.1202e-06
3.92937e-06
1.89137e-06
9.03226e-06
9.72968e-06
2.19331e-05
2.19325e-05
9.72822e-06
2.19328e-05
2.19322e-05
1.84768e-05
1.84839e-05
1.84783e-05
1.84854e-05
1.84676e-05
1.84607e-05
1.84698e-05
1.84628e-05
9.73086e-06
2.19123e-05
2.19125e-05
2.1912e-05
2.19121e-05
9.72908e-06
3.96317e-06
1.92654e-06
9.03718e-06
5.13696e-06
3.95726e-06
9.04204e-06
1.93366e-06
3.96882e-06
1.92843e-06
9.04224e-06
5.13927e-06
3.96542e-06
9.04783e-06
1.93459e-06
9.72862e-06
2.1922e-05
2.19221e-05
9.73027e-06
2.19223e-05
2.19225e-05
3.97358e-06
9.04924e-06
5.14629e-06
1.95471e-06
9.04462e-06
3.97916e-06
1.94778e-06
3.98174e-06
9.05505e-06
5.14776e-06
1.95588e-06
9.04965e-06
3.9851e-06
1.94995e-06
1.84461e-05
1.84528e-05
1.84483e-05
1.8455e-05
9.72927e-06
2.19021e-05
2.19022e-05
9.73121e-06
2.19026e-05
2.19022e-05
4.00372e-06
1.99618e-06
5.16319e-06
9.06412e-06
9.05903e-06
1.98879e-06
4.01157e-06
4.01394e-06
1.99569e-06
5.16547e-06
9.06778e-06
9.06343e-06
1.99171e-06
4.01359e-06
3.99454e-06
9.05179e-06
1.96879e-06
5.15483e-06
3.9894e-06
9.05648e-06
1.97526e-06
4.00003e-06
9.05688e-06
1.97075e-06
5.15713e-06
3.99751e-06
9.06188e-06
1.9766e-06
9.73137e-06
2.18934e-05
2.18919e-05
2.18927e-05
2.18917e-05
9.72934e-06
1.21314e-05
3.67527e-06
1.06757e-05
4.49144e-06
1.06723e-05
4.48736e-06
1.21344e-05
2.24366e-05
7.21749e-06
8.91259e-06
2.24352e-05
7.2172e-06
1.21311e-05
3.65875e-06
1.06671e-05
4.47184e-06
1.06704e-05
1.2128e-05
4.4764e-06
2.24256e-05
7.21852e-06
8.91296e-06
7.21903e-06
2.24269e-05
1.21374e-05
1.06775e-05
4.50102e-06
3.70164e-06
1.21344e-05
1.0681e-05
4.50583e-06
2.24056e-05
8.9178e-06
7.21773e-06
7.21881e-06
2.24069e-05
2.24167e-05
7.21812e-06
8.91679e-06
2.2415e-05
7.21725e-06
1.21376e-05
3.71657e-06
1.06863e-05
4.51904e-06
1.06829e-05
4.5146e-06
1.21404e-05
1.21375e-05
1.06776e-05
4.50181e-06
3.70185e-06
1.21346e-05
1.06811e-05
4.50616e-06
2.24062e-05
8.9185e-06
7.2199e-06
7.22081e-06
2.24074e-05
2.24172e-05
7.22013e-06
8.9182e-06
2.24159e-05
7.21941e-06
1.21377e-05
3.71669e-06
1.06865e-05
4.51966e-06
1.06831e-05
4.51506e-06
1.21405e-05
9.73068e-06
2.1912e-05
2.19127e-05
2.19117e-05
2.19123e-05
9.72901e-06
3.96999e-06
1.92844e-06
9.04232e-06
5.14055e-06
9.04717e-06
3.96409e-06
1.93518e-06
3.96312e-06
1.92638e-06
9.03759e-06
5.1386e-06
1.93323e-06
3.95717e-06
9.04241e-06
9.72854e-06
2.19217e-05
2.19224e-05
2.1922e-05
9.73009e-06
2.19227e-05
3.98062e-06
9.05438e-06
5.14641e-06
1.95665e-06
9.04976e-06
1.94932e-06
3.98611e-06
3.97351e-06
9.04962e-06
5.1446e-06
1.95464e-06
1.94784e-06
9.04501e-06
3.97913e-06
1.84672e-05
1.84602e-05
1.84472e-05
1.8454e-05
9.72925e-06
2.19017e-05
2.19024e-05
9.73105e-06
2.1902e-05
2.19027e-05
4.0125e-06
1.99753e-06
5.16372e-06
9.0682e-06
1.99043e-06
9.06389e-06
4.01528e-06
4.00439e-06
1.99542e-06
5.16202e-06
9.06342e-06
9.05912e-06
1.98895e-06
4.00968e-06
4.00011e-06
9.05689e-06
1.97014e-06
5.15818e-06
1.97707e-06
3.99665e-06
9.06146e-06
3.99478e-06
9.05213e-06
1.96871e-06
5.15625e-06
3.98928e-06
9.05669e-06
1.97526e-06
9.73119e-06
2.18922e-05
2.18929e-05
2.18919e-05
2.18926e-05
9.72928e-06
1.84456e-05
1.84524e-05
1.21315e-05
3.67525e-06
1.06758e-05
4.49117e-06
1.06724e-05
4.48746e-06
1.21345e-05
2.2436e-05
7.2158e-06
8.91283e-06
2.24344e-05
7.21533e-06
1.21312e-05
3.65908e-06
1.06671e-05
4.47185e-06
1.06705e-05
1.21281e-05
4.476e-06
2.24247e-05
7.21667e-06
8.91319e-06
7.21736e-06
2.24263e-05
1.21377e-05
4.50165e-06
1.06779e-05
3.70213e-06
1.21348e-05
4.50616e-06
1.06815e-05
2.24061e-05
8.9194e-06
7.21982e-06
7.22071e-06
2.24074e-05
2.24171e-05
7.22002e-06
8.91909e-06
2.24158e-05
7.21931e-06
1.21379e-05
3.71682e-06
4.51954e-06
1.06868e-05
4.51519e-06
1.06834e-05
1.21407e-05
1.21376e-05
1.06777e-05
4.50189e-06
3.70207e-06
1.21347e-05
1.06812e-05
4.50537e-06
2.24053e-05
8.91873e-06
7.2181e-06
7.21917e-06
2.24069e-05
2.24166e-05
7.21847e-06
8.91846e-06
2.2415e-05
7.21758e-06
1.21378e-05
3.71672e-06
1.06866e-05
4.51875e-06
1.06831e-05
4.51559e-06
1.21406e-05
1.2131e-05
3.67485e-06
4.4915e-06
1.06764e-05
4.48673e-06
1.06715e-05
1.2134e-05
2.24354e-05
7.21696e-06
8.91231e-06
7.21658e-06
2.2434e-05
1.21307e-05
3.65902e-06
4.47138e-06
1.06664e-05
4.47644e-06
1.21276e-05
1.06711e-05
2.24243e-05
7.21789e-06
8.91338e-06
7.21847e-06
2.24257e-05
1.21313e-05
3.6753e-06
1.06756e-05
4.49097e-06
1.06722e-05
4.4868e-06
1.21343e-05
2.24355e-05
7.2152e-06
8.91202e-06
2.24342e-05
7.21483e-06
1.2131e-05
3.65888e-06
1.0667e-05
4.47106e-06
1.21279e-05
1.06704e-05
4.47612e-06
2.24245e-05
7.21615e-06
8.91306e-06
7.21674e-06
2.24258e-05
1.21371e-05
4.50152e-06
1.0677e-05
3.70288e-06
1.21342e-05
4.50542e-06
1.06819e-05
2.2405e-05
8.91895e-06
7.21929e-06
7.22026e-06
2.24062e-05
2.2416e-05
7.21956e-06
8.91797e-06
2.24147e-05
7.2188e-06
1.21373e-05
3.71598e-06
4.51871e-06
1.06873e-05
4.5153e-06
1.06824e-05
1.21401e-05
1.21374e-05
1.06775e-05
4.50152e-06
3.70183e-06
1.21345e-05
1.06811e-05
4.50528e-06
2.24052e-05
8.91867e-06
7.21758e-06
7.21855e-06
2.24064e-05
2.24161e-05
7.21784e-06
8.91769e-06
2.24149e-05
7.21707e-06
1.21376e-05
3.71669e-06
1.06864e-05
4.5186e-06
1.0683e-05
4.5152e-06
1.21404e-05
9.73154e-06
2.19132e-05
2.19133e-05
2.19129e-05
2.1913e-05
9.72981e-06
3.96904e-06
1.92831e-06
9.04212e-06
5.13904e-06
9.04765e-06
3.96559e-06
1.93472e-06
3.96208e-06
1.92679e-06
9.03757e-06
5.13744e-06
1.93311e-06
3.95873e-06
9.04238e-06
9.72936e-06
2.19229e-05
2.1923e-05
2.19232e-05
9.73095e-06
2.19233e-05
3.98195e-06
9.05491e-06
5.14798e-06
1.95609e-06
9.04952e-06
1.94995e-06
3.98523e-06
3.97506e-06
9.04965e-06
5.14605e-06
1.95452e-06
1.94834e-06
9.04501e-06
3.97835e-06
1.84687e-05
1.84617e-05
1.84487e-05
1.84555e-05
9.73003e-06
2.1903e-05
2.19031e-05
9.73189e-06
2.19033e-05
2.19034e-05
4.01278e-06
1.99707e-06
5.16545e-06
9.06873e-06
1.99116e-06
9.06359e-06
4.01567e-06
4.00587e-06
1.99538e-06
5.16345e-06
9.06343e-06
9.05917e-06
1.98962e-06
4.00879e-06
4.0006e-06
9.05669e-06
1.97079e-06
5.15694e-06
1.97693e-06
3.9976e-06
9.06191e-06
3.99373e-06
9.05219e-06
1.96922e-06
5.15528e-06
3.99069e-06
9.0567e-06
1.97515e-06
9.73203e-06
2.18935e-05
2.18936e-05
2.18931e-05
2.18932e-05
9.73006e-06
1.84471e-05
1.84539e-05
1.21314e-05
3.67511e-06
4.4917e-06
1.06766e-05
4.48661e-06
1.06717e-05
1.21344e-05
2.24361e-05
7.21526e-06
8.91258e-06
7.21496e-06
2.24347e-05
1.21311e-05
3.6591e-06
4.47115e-06
1.06666e-05
4.47636e-06
1.2128e-05
1.06713e-05
2.2425e-05
7.21629e-06
8.91293e-06
7.21682e-06
2.24264e-05
1.21312e-05
3.67534e-06
4.49144e-06
1.0676e-05
4.4873e-06
1.06726e-05
1.21342e-05
2.24355e-05
7.21711e-06
8.91356e-06
2.24342e-05
7.21682e-06
1.21309e-05
3.65918e-06
4.47179e-06
1.06674e-05
1.21278e-05
4.47634e-06
1.06708e-05
2.24245e-05
7.21813e-06
8.91391e-06
7.21864e-06
2.24258e-05
1.21375e-05
4.5013e-06
1.06772e-05
3.70213e-06
1.21346e-05
4.50524e-06
1.06821e-05
2.24056e-05
8.91845e-06
7.21768e-06
7.2186e-06
2.24069e-05
2.24166e-05
7.21791e-06
8.91819e-06
2.24153e-05
7.21718e-06
1.21377e-05
3.71663e-06
4.51858e-06
1.06875e-05
4.51523e-06
1.06825e-05
1.21405e-05
1.21373e-05
4.50177e-06
1.06779e-05
3.70221e-06
1.21345e-05
4.5061e-06
1.06815e-05
2.24051e-05
8.91945e-06
7.2195e-06
7.2204e-06
2.24064e-05
2.24161e-05
7.21972e-06
8.91918e-06
2.24148e-05
7.21901e-06
1.21376e-05
3.7168e-06
4.51945e-06
1.06869e-05
4.51506e-06
1.06834e-05
1.21403e-05
1.84686e-05
1.84617e-05
1.84701e-05
1.84632e-05
9.72964e-06
2.19028e-05
2.19022e-05
9.73145e-06
2.19031e-05
2.19025e-05
4.00576e-06
1.99527e-06
5.16349e-06
9.06384e-06
1.98969e-06
9.05869e-06
4.00862e-06
4.01144e-06
1.99731e-06
5.16539e-06
9.06863e-06
1.99071e-06
9.06351e-06
4.01678e-06
3.99356e-06
9.05181e-06
1.9693e-06
5.15533e-06
3.99055e-06
1.97501e-06
9.05703e-06
4.00187e-06
9.05658e-06
1.97024e-06
5.15727e-06
3.99633e-06
1.97701e-06
9.0618e-06
9.73161e-06
2.18933e-05
2.18927e-05
2.1893e-05
2.18924e-05
9.7297e-06
1.84471e-05
1.84538e-05
1.84486e-05
1.84554e-05
1.17589e-07
1.17584e-07
1.32868e-07
1.16484e-07
1.16481e-07
1.09884e-07
1.11177e-07
1.73978e-06
7.67091e-07
7.67477e-07
3.57334e-07
1.73417e-06
7.69958e-07
7.70109e-07
1.71152e-06
3.51591e-07
7.54828e-07
7.55084e-07
7.52176e-07
7.52445e-07
1.71744e-06
1.71139e-06
3.51415e-07
7.5542e-07
7.56037e-07
7.52213e-07
7.50937e-07
1.71731e-06
1.71099e-06
3.5105e-07
7.56366e-07
7.54805e-07
7.51387e-07
7.52277e-07
1.71727e-06
1.71147e-06
3.50839e-07
7.54984e-07
7.55173e-07
1.71717e-06
7.5206e-07
7.52441e-07
1.73958e-06
7.66982e-07
7.67301e-07
3.57351e-07
1.73413e-06
7.69783e-07
7.70011e-07
1.79888e-06
3.76919e-07
8.16111e-07
8.15075e-07
8.11941e-07
8.13229e-07
1.80403e-06
1.73958e-06
7.6712e-07
7.65908e-07
3.5707e-07
7.71056e-07
1.73394e-06
7.70074e-07
1.79886e-06
3.76928e-07
8.15851e-07
8.16469e-07
8.1259e-07
8.11212e-07
1.80406e-06
1.73989e-06
7.66448e-07
7.67018e-07
3.58029e-07
7.69932e-07
1.73397e-06
7.71455e-07
1.79894e-06
3.7624e-07
8.16924e-07
8.15502e-07
8.11713e-07
8.12624e-07
1.80463e-06
1.79906e-06
3.76942e-07
8.15318e-07
8.15675e-07
8.12645e-07
8.12968e-07
1.80415e-06
1.34876e-07
1.18728e-07
1.18725e-07
1.19905e-07
1.199e-07
1.13849e-07
1.12498e-07
1.34869e-07
1.18727e-07
1.18724e-07
1.19904e-07
1.199e-07
1.13849e-07
1.12498e-07
1.34879e-07
1.18731e-07
1.18727e-07
1.19906e-07
1.19902e-07
1.1385e-07
1.12499e-07
1.34872e-07
1.18729e-07
1.18725e-07
1.19905e-07
1.19901e-07
1.13849e-07
1.12499e-07
1.17588e-07
1.17584e-07
1.32864e-07
1.16483e-07
1.1648e-07
1.09883e-07
1.11176e-07
1.17591e-07
1.17586e-07
1.32876e-07
1.16487e-07
1.16484e-07
1.09885e-07
1.11178e-07
1.17589e-07
1.17585e-07
1.32869e-07
1.16485e-07
1.16481e-07
1.09884e-07
1.11177e-07
1.32299e-07
1.14383e-07
1.1438e-07
1.15417e-07
1.15412e-07
1.08619e-07
1.07381e-07
1.32292e-07
1.14382e-07
1.14378e-07
1.15416e-07
1.15412e-07
1.08619e-07
1.07381e-07
1.32304e-07
1.14386e-07
1.14382e-07
1.15419e-07
1.15414e-07
1.0862e-07
1.07383e-07
1.32296e-07
1.14384e-07
1.1438e-07
1.15417e-07
1.15413e-07
1.08619e-07
1.07382e-07
4.76015e-07
1.15085e-06
1.47513e-06
3.88912e-07
1.46825e-06
3.86657e-07
4.78822e-07
6.55572e-07
9.9992e-07
2.07515e-06
2.80461e-06
6.54635e-07
1.0057e-06
2.08053e-06
4.69812e-07
1.13624e-06
1.44651e-06
3.79545e-07
4.67126e-07
1.45336e-06
3.81778e-07
6.66192e-07
2.10086e-06
2.81636e-06
1.0223e-06
1.01693e-06
2.0961e-06
6.67221e-07
4.75776e-07
1.15089e-06
3.88164e-07
1.4748e-06
3.87288e-07
1.46874e-06
4.7862e-07
6.55575e-07
9.99751e-07
2.07491e-06
2.80324e-06
6.54522e-07
1.00615e-06
2.08004e-06
4.69561e-07
1.13648e-06
3.80193e-07
1.44671e-06
4.66827e-07
3.81018e-07
1.45289e-06
6.66098e-07
2.10105e-06
2.81767e-06
1.02269e-06
1.01684e-06
2.09568e-06
6.67227e-07
1.75618e-06
3.63775e-07
7.85182e-07
7.85384e-07
7.82166e-07
7.82512e-07
1.76174e-06
1.69413e-06
3.45602e-07
7.37238e-07
7.37509e-07
1.68844e-06
7.39954e-07
7.40208e-07
4.51605e-07
1.40189e-06
3.66036e-07
1.09326e-06
4.51121e-07
1.40815e-06
3.68175e-07
6.42852e-07
9.87494e-07
2.78074e-06
2.05996e-06
9.83884e-07
2.05278e-06
6.43811e-07
6.32235e-07
2.0308e-06
9.66901e-07
2.76535e-06
9.70787e-07
6.31357e-07
2.03847e-06
4.59591e-07
1.1084e-06
1.43064e-06
3.74834e-07
1.42426e-06
3.72743e-07
4.59928e-07
4.52684e-07
1.40134e-06
3.66691e-07
1.09408e-06
4.49881e-07