/*--------------------------------*- C++ -*----------------------------------*\
| =========                 |                                                 |
| \\      /  F ield         | OpenFOAM: The Open Source CFD Toolbox           |
|  \\    /   O peration     | Version:  v1906                                 |
|   \\  /    A nd           | Web:      www.OpenFOAM.com                      |
|    \\/     M anipulation  |                                                 |
\*---------------------------------------------------------------------------*/
FoamFile
{
    version     2.0;
    format      ascii;
    class       volScalarField;
    location    "700";
    object      nut;
}
// * * * * * * * * * * * * * * * * * * * * * * * * * * * * * * * * * * * * * //

dimensions      [0 2 -1 0 0 0 0];


internalField   nonuniform List<scalar> 
43248
(
0.000136678
0.000138619
0.00013862
0.000136837
0.000138636
0.000138615
0.000138634
0.000138641
0.000136608
0.000138629
0.000138649
0.000136852
0.000122367
0.000122362
0.000122366
0.000122384
2.36122e-05
2.36117e-05
7.37304e-05
7.37395e-05
9.18209e-05
5.00168e-05
9.20627e-05
9.18205e-05
5.00195e-05
5.00049e-05
9.20647e-05
0.000120671
9.38285e-05
0.000133973
0.00013311
0.000121321
0.000120677
0.000137831
9.3819e-05
0.000133971
9.35375e-05
0.000133109
0.000121328
2.3612e-05
2.36076e-05
0.000135912
7.37331e-05
7.3726e-05
7.36302e-05
7.36261e-05
2.36126e-05
2.36082e-05
5.00156e-05
9.20593e-05
9.38168e-05
0.000133985
0.000121318
5.0012e-05
9.20652e-05
0.000133985
9.38067e-05
0.000121324
0.000120681
0.000137846
9.38265e-05
0.000133979
9.35331e-05
0.000133117
0.000121324
9.18326e-05
5.00149e-05
5.00063e-05
9.20533e-05
0.000120681
0.000137854
0.000133994
9.38146e-05
0.000133131
9.35353e-05
0.000121329
9.18337e-05
5.00119e-05
5.00027e-05
9.20506e-05
2.36101e-05
7.37179e-05
7.37328e-05
2.36119e-05
0.000120676
0.000133996
9.38228e-05
0.000133135
0.000121326
0.000120679
0.000137861
0.000134007
9.38202e-05
0.000133145
9.35257e-05
0.000121335
9.183e-05
5.0015e-05
9.20564e-05
9.18281e-05
5.00128e-05
5.00005e-05
9.20583e-05
0.000135879
7.37325e-05
7.37357e-05
7.36332e-05
7.36298e-05
2.36116e-05
2.36073e-05
2.36113e-05
2.36068e-05
2.36103e-05
2.36093e-05
9.72612e-05
0.00011267
7.37024e-05
4.79343e-05
4.79366e-05
0.000112504
9.73105e-05
9.7291e-05
0.000112675
7.36926e-05
4.79354e-05
4.79255e-05
0.00011249
9.73533e-05
7.88226e-05
2.14921e-05
2.14902e-05
2.14904e-05
2.14878e-05
7.88388e-05
3.62678e-05
4.05325e-05
8.80198e-05
9.19361e-05
3.62642e-05
4.05391e-05
8.8112e-05
2.01019e-05
5.00099e-05
7.60349e-05
7.59914e-05
2.0104e-05
3.6267e-05
9.19432e-05
4.05439e-05
8.82092e-05
4.05361e-05
8.81195e-05
3.6272e-05
3.62702e-05
4.05326e-05
8.80334e-05
9.19373e-05
3.62656e-05
4.05398e-05
8.81287e-05
2.01031e-05
5.0011e-05
7.60609e-05
7.60168e-05
2.01051e-05
2.01037e-05
7.597e-05
5.0011e-05
2.01017e-05
7.60141e-05
3.62685e-05
9.19479e-05
4.05442e-05
8.82227e-05
4.05366e-05
8.81362e-05
3.62746e-05
2.36099e-05
2.36097e-05
7.87981e-05
2.14864e-05
2.14889e-05
7.87748e-05
2.14885e-05
2.1491e-05
9.72752e-05
0.000112648
7.3698e-05
4.79344e-05
0.000112498
4.79243e-05
9.73272e-05
9.72616e-05
0.000112656
7.36944e-05
4.79423e-05
4.79324e-05
0.000112514
9.73108e-05
9.72013e-05
4.79181e-05
0.00011225
7.36659e-05
0.000112406
9.7148e-05
4.79249e-05
9.71852e-05
4.79249e-05
0.000112266
7.36578e-05
9.71352e-05
4.79338e-05
0.000112415
7.88191e-05
2.14901e-05
2.14927e-05
2.14881e-05
2.14906e-05
7.88373e-05
2.36104e-05
2.36103e-05
2.01033e-05
5.00082e-05
7.60593e-05
7.60148e-05
2.01053e-05
3.62711e-05
9.19598e-05
8.82156e-05
4.05391e-05
8.81443e-05
4.05406e-05
3.62721e-05
2.01016e-05
5.00037e-05
7.60322e-05
7.59878e-05
2.01037e-05
3.6267e-05
9.19515e-05
4.05399e-05
8.82128e-05
4.05398e-05
8.81143e-05
3.62705e-05
3.62688e-05
8.80408e-05
4.05362e-05
9.19295e-05
3.62679e-05
8.81201e-05
4.05351e-05
2.01037e-05
5.00138e-05
7.60578e-05
7.60199e-05
2.01057e-05
2.01043e-05
7.5973e-05
5.00081e-05
2.01023e-05
7.60119e-05
3.6271e-05
9.19538e-05
8.82166e-05
4.05387e-05
8.81422e-05
4.054e-05
3.62721e-05
3.62667e-05
4.05361e-05
8.80359e-05
9.19266e-05
3.62657e-05
4.05351e-05
8.81089e-05
2.01025e-05
5.00102e-05
7.60396e-05
7.59993e-05
2.01045e-05
2.01031e-05
7.59527e-05
5.00051e-05
2.01011e-05
7.59931e-05
3.62694e-05
9.19536e-05
4.05387e-05
8.82062e-05
4.054e-05
8.81351e-05
3.62695e-05
2.36079e-05
9.72653e-05
0.000112645
7.36854e-05
4.79318e-05
0.000112484
4.79218e-05
9.73227e-05
9.72567e-05
0.000112676
7.36961e-05
4.79418e-05
4.79342e-05
0.000112504
9.73154e-05
7.88184e-05
2.14891e-05
2.14925e-05
2.1487e-05
2.14904e-05
7.88433e-05
2.36097e-05
3.6268e-05
8.8035e-05
4.05325e-05
9.19396e-05
3.62653e-05
8.81114e-05
4.05389e-05
2.01028e-05
5.00066e-05
7.60414e-05
7.59973e-05
2.01048e-05
2.01034e-05
7.5995e-05
3.62686e-05
9.19592e-05
8.82067e-05
4.0542e-05
8.81351e-05
4.05377e-05
3.62711e-05
3.627e-05
8.80326e-05
4.05324e-05
9.1945e-05
3.62664e-05
8.81243e-05
4.05394e-05
2.01034e-05
5.00109e-05
7.60537e-05
7.60119e-05
2.01055e-05
2.01041e-05
7.59644e-05
5.00076e-05
2.0102e-05
7.60089e-05
3.62701e-05
9.19591e-05
8.82174e-05
4.05438e-05
8.81362e-05
4.05365e-05
3.62729e-05
7.88004e-05
2.1489e-05
2.14861e-05
7.87769e-05
2.14911e-05
2.14882e-05
9.72576e-05
0.000112661
7.37015e-05
4.7943e-05
0.000112506
4.79331e-05
9.73171e-05
9.72757e-05
0.000112661
7.36984e-05
4.79297e-05
0.000112503
4.79285e-05
9.73351e-05
9.71898e-05
4.79255e-05
0.000112257
7.36648e-05
9.7131e-05
0.000112428
4.79345e-05
9.72066e-05
4.79203e-05
0.000112253
7.36681e-05
9.71497e-05
0.000112419
4.79224e-05
7.88213e-05
2.14927e-05
2.14898e-05
2.14907e-05
2.14878e-05
7.88393e-05
2.36095e-05
2.36093e-05
2.36091e-05
2.3609e-05
0.000119505
0.000136677
0.000129776
0.000129833
0.000129714
0.000129727
0.000119604
0.000119499
0.000136544
0.000129846
0.000129839
0.000129656
0.000129668
0.000119599
0.00011948
0.000136695
0.000129789
0.000129816
0.000129687
0.000129669
0.000119614
0.000119486
0.000136529
0.00012989
0.000129858
0.000129658
0.000129674
0.000119623
0.000120247
0.000120255
0.000119979
0.000132085
0.000131845
0.000121701
0.000120244
0.000120253
0.000119976
0.000119985
0.000132085
0.000131845
0.000120253
0.000120261
0.000119994
0.000132083
0.000131843
0.000121724
0.00012026
0.000120268
0.000119992
0.00012
0.000132086
0.000131845
0.000132406
0.000117032
0.000134179
0.000120978
0.000132166
0.000117293
0.000134283
0.000128409
0.000122154
9.36761e-05
0.000107739
0.000121994
0.000107533
0.000128682
0.000132708
0.000121014
0.000117598
0.000134934
0.000117333
0.000134697
0.000133064
0.000132422
0.000117046
0.000134176
0.000120983
0.000132168
0.0001173
0.000134286
0.000128437
0.00012215
9.36897e-05
0.000107747
0.000107538
0.000122007
0.000128696
0.000128229
0.000107307
0.000121654
9.3665e-05
0.000128009
0.000107516
0.000121753
0.000132688
0.000121016
0.000117594
0.000134924
0.000117358
0.000134705
0.000132858
0.000119318
0.0001362
0.000129198
0.00012922
0.000129408
0.000119231
0.000129397
0.000128551
0.000122113
9.36851e-05
0.000107731
0.000122026
0.000107544
0.000128591
0.000132738
0.000121029
0.000117597
0.000134784
0.000117349
0.000134744
0.000132757
0.000128369
0.000122132
9.36771e-05
0.000107731
0.000107521
0.000121973
0.000128801
0.000132682
0.000121016
0.000134822
0.000117596
0.000134658
0.000117324
0.000132978
0.000132271
0.000117039
0.000134203
0.000120981
0.000132276
0.000117302
0.000134251
0.000128537
0.000122127
9.36897e-05
0.000107749
0.000122007
0.000107545
0.000128579
0.000128143
0.000107314
0.000121643
9.36656e-05
0.000128095
0.000121784
0.000107509
0.000132784
0.00012102
0.000117598
0.000134921
0.000117349
0.000134732
0.000132731
0.000132438
0.000134183
0.00011704
0.000120982
0.000132189
0.000134275
0.0001173
0.00012844
0.00012212
9.36901e-05
0.000107729
0.000107536
0.000122024
0.000128697
0.00012823
0.000107301
0.000121658
9.36599e-05
0.000128012
0.00010751
0.000121758
0.000132692
0.000121016
0.000134929
0.000117596
0.000134714
0.000117347
0.000132858
0.000132447
0.000134028
0.000117029
0.000120989
0.000132061
0.000134453
0.000117305
0.000128438
0.00012214
9.3677e-05
0.000107731
0.000121999
0.000107536
0.000128676
0.00012824
0.000107512
0.000132585
0.000121028
0.000134923
0.000117608
0.000134625
0.00011733
0.000132991
0.000132457
0.000134018
0.00011704
0.000120991
0.000132058
0.000134456
0.000117311
0.000128394
0.000122178
9.36848e-05
0.000107746
0.00010754
0.000121986
0.00012868
0.000128282
0.000107308
0.000121617
9.36743e-05
0.000127948
0.000107515
0.000121796
0.000132588
0.000121025
0.00013506
0.000117604
0.000134589
0.000117348
0.000132836
0.000119346
0.000136189
0.000129211
0.000129219
0.000119215
0.000129439
0.000129436
0.000150049
0.000101455
0.000101448
8.24717e-05
8.27092e-05
0.000102203
0.000102193
8.29142e-05
0.00010223
0.000102186
0.00010224
0.000102205
8.26754e-05
0.000102234
0.000102228
8.26386e-05
8.23537e-05
8.21007e-05
0.00010143
0.000101408
9.92372e-05
9.92281e-05
8.22488e-05
8.21885e-05
0.000101433
0.000101405
9.92686e-05
9.92228e-05
0.000101423
9.92741e-05
9.92441e-05
8.23874e-05
8.20568e-05
0.000101444
9.92656e-05
9.9263e-05
8.19968e-05
0.000151075
0.000151076
0.000151066
0.000151071
7.00046e-05
4.9551e-05
6.90949e-05
4.95654e-05
2.36301e-05
2.36266e-05
7.00251e-05
4.95548e-05
6.90882e-05
4.95594e-05
0.000150051
0.000150042
0.000150048
0.000146971
0.000146972
0.000146962
0.000146968
6.69607e-05
6.57339e-05
0.000125986
0.000100695
6.60261e-05
6.63426e-05
0.000124961
2.36276e-05
2.36242e-05
6.69656e-05
0.000125991
6.57006e-05
0.000100687
6.60394e-05
0.000124961
6.63784e-05
6.10973e-05
6.10978e-05
8.23693e-05
6.145e-05
6.145e-05
2.36331e-05
2.36365e-05
2.36318e-05
2.36354e-05
8.28563e-05
6.09562e-05
6.09559e-05
6.05861e-05
6.05947e-05
6.79298e-05
4.95546e-05
4.95388e-05
6.89019e-05
6.7932e-05
4.95523e-05
4.95483e-05
6.89017e-05
6.46055e-05
0.000103038
6.54221e-05
0.00012699
6.46854e-05
0.000128036
6.55575e-05
6.46522e-05
0.000103012
6.54118e-05
0.000126982
6.47185e-05
0.000128026
6.55506e-05
2.3633e-05
2.36367e-05
8.26895e-05
6.09432e-05
6.09386e-05
6.06137e-05
6.06049e-05
2.36334e-05
2.36368e-05
6.79175e-05
4.95486e-05
4.95447e-05
6.8917e-05
6.46071e-05
0.000103039
6.54014e-05
0.000126992
6.47043e-05
0.000128037
6.5556e-05
6.79206e-05
4.95441e-05
4.95404e-05
6.89145e-05
6.46689e-05
0.000103009
0.000126985
6.5364e-05
0.000128028
6.47489e-05
6.55433e-05
6.46452e-05
0.000103059
6.53687e-05
0.000126985
6.47491e-05
0.000128032
6.55396e-05
6.79305e-05
4.95551e-05
4.95401e-05
6.88959e-05
6.46034e-05
0.000103028
0.000126985
6.53914e-05
0.00012803
6.47508e-05
6.55585e-05
6.79347e-05
4.95516e-05
4.95363e-05
6.88981e-05
2.36306e-05
2.36342e-05
8.28138e-05
6.09499e-05
6.09567e-05
6.05858e-05
6.05915e-05
2.36325e-05
2.3636e-05
6.461e-05
0.000103054
0.00012699
6.54062e-05
0.000128035
6.4719e-05
6.55253e-05
6.46534e-05
0.000103052
0.000126998
6.5415e-05
0.000128042
6.47057e-05
6.55382e-05
6.79175e-05
4.9547e-05
4.95432e-05
6.89179e-05
6.79217e-05
4.9548e-05
4.95436e-05
6.89239e-05
8.30365e-05
6.09592e-05
6.09575e-05
6.05942e-05
6.05933e-05
2.36323e-05
2.36356e-05
2.36316e-05
2.36352e-05
2.36299e-05
2.36266e-05
2.3629e-05
2.36256e-05
6.10912e-05
6.11e-05
8.2359e-05
6.14393e-05
6.1451e-05
2.36202e-05
2.36236e-05
2.36197e-05
2.36226e-05
8.20518e-05
6.19176e-05
6.19153e-05
6.15855e-05
6.15861e-05
7.00123e-05
4.95581e-05
6.90955e-05
4.95632e-05
6.70021e-05
6.56877e-05
0.000125988
0.00010066
6.59987e-05
6.6399e-05
0.000124966
6.69689e-05
6.57069e-05
0.000125977
0.000100649
6.60194e-05
6.64021e-05
0.000124957
7.01869e-05
4.95752e-05
4.95618e-05
7.10443e-05
7.01889e-05
4.95734e-05
4.95688e-05
7.10496e-05
6.74232e-05
9.99453e-05
6.73401e-05
0.000122974
6.6657e-05
0.000123972
6.84637e-05
6.74514e-05
9.9924e-05
6.73496e-05
0.000122967
6.66678e-05
0.000123963
6.84251e-05
6.11158e-05
6.11108e-05
8.25307e-05
6.14381e-05
6.14316e-05
2.36303e-05
2.36269e-05
2.36204e-05
2.36237e-05
8.19359e-05
6.19072e-05
6.19005e-05
6.16009e-05
6.15966e-05
2.36207e-05
2.3624e-05
6.69787e-05
6.57051e-05
0.00012599
0.000100687
6.60035e-05
6.63916e-05
0.000124963
7.00219e-05
4.95502e-05
6.90856e-05
4.95548e-05
6.69689e-05
0.00012598
6.57272e-05
0.000100644
6.60331e-05
0.000124961
6.63364e-05
7.01809e-05
4.957e-05
4.95653e-05
7.10613e-05
6.74419e-05
9.99477e-05
6.73388e-05
0.000122974
6.66645e-05
0.000123978
6.84359e-05
7.01804e-05
4.95651e-05
4.9561e-05
7.10568e-05
6.74618e-05
9.99196e-05
0.000122972
6.72871e-05
0.000123968
6.6693e-05
6.84102e-05
6.99943e-05
4.95524e-05
6.90965e-05
4.9566e-05
6.69612e-05
0.000125982
6.57237e-05
0.000100664
6.60037e-05
0.000124961
6.63663e-05
7.00071e-05
4.95484e-05
6.90965e-05
4.95623e-05
6.74582e-05
9.99702e-05
6.72951e-05
0.000122971
6.66997e-05
0.000123969
6.84087e-05
7.02023e-05
4.9576e-05
4.9563e-05
7.10289e-05
6.74542e-05
9.99404e-05
0.000122972
6.73502e-05
0.00012397
6.66841e-05
6.84317e-05
7.01891e-05
4.95724e-05
4.9559e-05
7.10415e-05
6.10907e-05
6.10978e-05
8.23161e-05
6.14461e-05
6.14517e-05
2.36294e-05
2.3626e-05
2.3618e-05
2.36213e-05
8.21215e-05
6.19139e-05
6.192e-05
6.15776e-05
6.15838e-05
2.36198e-05
2.36231e-05
6.69604e-05
0.000125992
6.56996e-05
0.000100684
6.60367e-05
0.00012497
6.63819e-05
7.00242e-05
4.95529e-05
6.90851e-05
4.95577e-05
7.00343e-05
4.95535e-05
6.90878e-05
4.95585e-05
6.74647e-05
9.99629e-05
0.000122971
6.7334e-05
0.00012398
6.66697e-05
6.84155e-05
6.74715e-05
9.99602e-05
0.000122978
6.73336e-05
0.000123978
6.66722e-05
6.8399e-05
7.01838e-05
4.95679e-05
4.95637e-05
7.10691e-05
7.01802e-05
4.95688e-05
4.95644e-05
7.10684e-05
2.36291e-05
2.36258e-05
2.36286e-05
2.36252e-05
8.20364e-05
6.1919e-05
6.19193e-05
6.15848e-05
6.15845e-05
2.36196e-05
2.36228e-05
2.3619e-05
2.36223e-05
3.61959e-05
6.96475e-05
4.03519e-05
7.108e-05
4.03399e-05
7.07637e-05
3.6199e-05
2.02174e-05
6.8315e-05
4.956e-05
2.02169e-05
6.84559e-05
3.61958e-05
6.9459e-05
4.03339e-05
7.03595e-05
3.61926e-05
4.0345e-05
7.06829e-05
2.0214e-05
6.8623e-05
4.95566e-05
6.84886e-05
2.02145e-05
2.36297e-05
2.36269e-05
3.61976e-05
6.96419e-05
7.11048e-05
4.03514e-05
7.07664e-05
4.03394e-05
3.62008e-05
2.02188e-05
6.83504e-05
4.95541e-05
2.02185e-05
6.84728e-05
3.61975e-05
6.94772e-05
7.03622e-05
4.03335e-05
3.61943e-05
7.07061e-05
4.03445e-05
2.02156e-05
6.8641e-05
4.95597e-05
6.85195e-05
2.02159e-05
2.36274e-05
2.36244e-05
7.08389e-05
2.15528e-05
2.155e-05
2.15528e-05
2.15499e-05
7.09653e-05
7.38993e-05
7.09403e-05
4.71525e-05
6.12071e-05
7.37351e-05
7.11802e-05
4.7157e-05
7.39199e-05
7.09779e-05
4.71439e-05
6.12067e-05
7.37935e-05
7.11572e-05
4.71488e-05
7.07975e-05
2.1556e-05
2.15531e-05
7.06657e-05
2.15561e-05
2.15532e-05
7.41654e-05
4.71693e-05
6.13437e-05
7.17981e-05
7.15751e-05
4.71654e-05
7.43313e-05
7.4224e-05
4.71611e-05
6.13435e-05
7.17809e-05
7.16052e-05
4.71567e-05
7.43457e-05
2.36331e-05
2.36364e-05
2.36321e-05
2.36351e-05
7.04481e-05
2.15633e-05
2.15595e-05
7.03042e-05
2.15634e-05
2.15596e-05
7.33175e-05
7.05363e-05
6.08382e-05
4.71492e-05
4.71355e-05
7.03237e-05
7.34479e-05
7.3347e-05
7.05556e-05
6.08472e-05
4.71343e-05
4.71299e-05
7.03345e-05
7.35195e-05
7.29927e-05
4.71214e-05
6.96822e-05
6.07038e-05
7.28765e-05
4.71354e-05
6.98942e-05
7.30547e-05
4.71172e-05
6.97057e-05
6.0704e-05
7.29113e-05
4.7121e-05
6.98978e-05
7.04865e-05
2.15601e-05
2.15562e-05
2.156e-05
2.15561e-05
7.06252e-05
3.6189e-05
4.03199e-05
6.95033e-05
6.83098e-05
3.61855e-05
4.03319e-05
6.98606e-05
2.02198e-05
4.9545e-05
6.8284e-05
2.02203e-05
6.81382e-05
2.02232e-05
6.79492e-05
4.95483e-05
2.02226e-05
6.81052e-05
3.61891e-05
6.8523e-05
4.03391e-05
7.02721e-05
3.61924e-05
4.03274e-05
6.99372e-05
3.61908e-05
4.032e-05
6.95117e-05
6.83151e-05
3.61874e-05
4.03322e-05
6.98788e-05
2.0221e-05
4.95532e-05
6.83015e-05
6.81743e-05
2.02213e-05
2.02243e-05
6.79933e-05
4.95472e-05
2.02239e-05
6.81236e-05
3.6191e-05
6.85235e-05
4.03388e-05
7.0304e-05
4.03272e-05
6.99418e-05
3.61943e-05
2.36333e-05
2.36363e-05
7.04454e-05
2.15605e-05
2.15628e-05
7.03124e-05
2.15605e-05
2.15628e-05
7.33418e-05
7.05444e-05
6.08641e-05
4.71403e-05
7.03129e-05
4.71263e-05
7.34916e-05
7.3319e-05
7.05248e-05
6.0858e-05
4.71478e-05
4.7134e-05
7.03326e-05
7.34519e-05
7.30659e-05
4.7112e-05
6.96738e-05
6.06911e-05
6.99113e-05
7.28976e-05
4.71265e-05
7.29947e-05
4.71197e-05
6.9711e-05
6.06865e-05
7.28759e-05
4.7134e-05
6.98852e-05
7.0492e-05
2.15572e-05
2.15595e-05
2.15571e-05
2.15594e-05
7.0623e-05
2.36335e-05
2.36366e-05
3.61907e-05
6.95058e-05
4.03194e-05
6.83321e-05
3.61872e-05
6.98796e-05
4.03314e-05
2.02213e-05
4.95493e-05
6.83002e-05
2.02217e-05
6.81697e-05
2.02246e-05
6.7992e-05
4.95435e-05
2.02243e-05
6.8121e-05
3.61908e-05
6.85142e-05
7.02971e-05
4.03387e-05
3.61941e-05
6.99392e-05
4.03269e-05
3.61881e-05
4.0319e-05
6.95044e-05
6.83313e-05
3.61847e-05
4.03313e-05
6.98587e-05
2.02194e-05
4.95453e-05
6.82753e-05
6.81423e-05
2.02198e-05
2.02227e-05
6.79572e-05
4.95389e-05
2.02222e-05
6.8098e-05
3.61882e-05
6.85106e-05
4.03379e-05
7.02859e-05
4.03263e-05
6.99338e-05
3.61915e-05
3.6191e-05
6.95159e-05
4.03284e-05
6.83185e-05
3.61882e-05
6.98731e-05
4.03259e-05
2.02217e-05
4.95463e-05
6.83099e-05
6.8163e-05
2.02221e-05
2.0225e-05
6.79725e-05
4.95493e-05
2.02245e-05
6.81312e-05
3.61916e-05
6.85247e-05
7.03003e-05
4.03319e-05
6.99461e-05
4.03334e-05
3.61945e-05
3.61889e-05
4.03193e-05
6.95124e-05
6.83155e-05
3.61856e-05
4.03314e-05
6.98632e-05
2.02203e-05
4.95423e-05
6.82908e-05
6.81397e-05
2.02208e-05
2.02237e-05
6.79558e-05
4.95455e-05
2.02232e-05
6.81096e-05
3.61892e-05
6.8522e-05
4.0338e-05
7.02835e-05
4.03265e-05
6.99405e-05
3.61924e-05
2.36309e-05
2.36339e-05
7.04471e-05
2.15593e-05
2.15626e-05
7.03128e-05
2.15593e-05
2.15626e-05
7.33378e-05
7.0531e-05
6.08373e-05
4.71342e-05
7.03246e-05
4.71294e-05
7.35149e-05
7.32996e-05
7.05374e-05
6.08443e-05
4.71488e-05
4.71349e-05
7.03211e-05
7.34775e-05
7.30689e-05
4.71161e-05
6.97127e-05
6.06995e-05
6.99021e-05
7.28953e-05
4.71213e-05
7.30292e-05
4.71206e-05
6.96818e-05
6.07044e-05
7.28548e-05
4.7135e-05
6.98993e-05
7.0493e-05
2.1556e-05
2.15593e-05
2.15559e-05
2.15592e-05
7.06245e-05
2.36327e-05
2.36358e-05
3.61892e-05
6.95026e-05
4.03284e-05
6.83427e-05
3.61862e-05
6.98702e-05
4.0326e-05
2.02207e-05
4.95478e-05
6.82811e-05
6.81531e-05
2.0221e-05
2.02239e-05
6.79744e-05
4.95418e-05
2.02236e-05
6.81017e-05
3.61896e-05
6.85131e-05
7.02911e-05
4.03319e-05
6.99394e-05
4.03334e-05
3.61926e-05
3.61912e-05
6.95078e-05
4.03194e-05
6.83399e-05
3.61877e-05
6.98846e-05
4.03317e-05
2.02216e-05
4.95485e-05
6.82993e-05
6.81691e-05
2.0222e-05
2.02249e-05
6.79898e-05
4.95427e-05
2.02245e-05
6.81195e-05
3.61913e-05
6.85148e-05
7.03069e-05
4.03382e-05
6.99391e-05
4.03266e-05
3.61946e-05
7.04489e-05
2.15626e-05
2.15598e-05
7.03044e-05
2.15628e-05
2.15599e-05
7.32979e-05
7.05399e-05
6.0847e-05
4.7144e-05
7.34661e-05
7.03061e-05
4.71397e-05
7.33537e-05
7.05178e-05
6.08468e-05
4.71357e-05
7.34942e-05
7.03413e-05
4.71307e-05
7.30276e-05
4.71256e-05
6.96588e-05
6.07025e-05
7.28521e-05
6.99072e-05
4.71315e-05
7.30475e-05
4.7117e-05
6.97027e-05
6.07021e-05
7.29082e-05
6.99011e-05
4.7123e-05
7.04884e-05
2.15594e-05
2.15565e-05
7.06268e-05
2.15593e-05
2.15564e-05
2.36323e-05
2.36355e-05
2.36318e-05
2.36349e-05
2.36298e-05
2.36267e-05
2.36287e-05
2.36258e-05
7.08354e-05
2.15535e-05
2.15496e-05
2.15534e-05
2.15495e-05
7.09667e-05
7.38809e-05
7.09517e-05
4.71492e-05
6.12094e-05
7.37485e-05
4.71621e-05
7.11544e-05
7.39431e-05
7.09588e-05
4.71428e-05
6.12074e-05
7.37763e-05
4.71473e-05
7.11898e-05
7.07986e-05
2.15567e-05
2.15528e-05
7.06629e-05
2.15568e-05
2.15529e-05
7.41792e-05
4.71749e-05
6.13338e-05
7.17957e-05
4.71618e-05
7.4309e-05
7.15911e-05
7.42065e-05
4.71599e-05
6.13447e-05
7.18147e-05
4.71558e-05
7.43714e-05
7.15834e-05
2.36205e-05
2.36235e-05
2.36196e-05
2.36224e-05
7.11315e-05
2.15501e-05
2.15463e-05
7.10013e-05
2.155e-05
2.15468e-05
7.50019e-05
7.30513e-05
6.18126e-05
4.71943e-05
4.71838e-05
7.28284e-05
7.51593e-05
7.50299e-05
7.30615e-05
6.18129e-05
4.71888e-05
4.71823e-05
7.28289e-05
7.51927e-05
7.47451e-05
4.71739e-05
7.21986e-05
6.16877e-05
7.45879e-05
4.71861e-05
7.24262e-05
7.47979e-05
4.71676e-05
7.22118e-05
6.16883e-05
7.4626e-05
4.71734e-05
7.24324e-05
7.11649e-05
2.15462e-05
2.15439e-05
2.15465e-05
2.15437e-05
7.12849e-05
3.61978e-05
6.96487e-05
4.0352e-05
7.11107e-05
4.03399e-05
7.07628e-05
3.62009e-05
2.02185e-05
6.83512e-05
4.9558e-05
2.02181e-05
6.84754e-05
3.61977e-05
6.94659e-05
4.03339e-05
7.03584e-05
4.03449e-05
3.61944e-05
7.07121e-05
2.02152e-05
6.86427e-05
4.95636e-05
6.85231e-05
2.02155e-05
3.6202e-05
4.03472e-05
7.11544e-05
7.05347e-05
3.61992e-05
4.03587e-05
7.14634e-05
2.02079e-05
4.95663e-05
6.89443e-05
6.88158e-05
2.02084e-05
2.02113e-05
6.86549e-05
4.95701e-05
2.02111e-05
6.87856e-05
3.62021e-05
7.07021e-05
4.03655e-05
7.18366e-05
4.03538e-05
7.15348e-05
3.62049e-05
3.62041e-05
4.03474e-05
7.11561e-05
7.05402e-05
3.6201e-05
4.03588e-05
7.14855e-05
2.02094e-05
4.95741e-05
6.89634e-05
6.88513e-05
2.02097e-05
2.02126e-05
6.86895e-05
4.95687e-05
2.02123e-05
6.88068e-05
3.62041e-05
7.07055e-05
4.03657e-05
7.18523e-05
4.0354e-05
7.15422e-05
3.6207e-05
7.08406e-05
2.15506e-05
2.15529e-05
2.15505e-05
2.15528e-05
7.09637e-05
7.39272e-05
7.09516e-05
4.714e-05
6.11941e-05
4.71533e-05
7.37902e-05
7.11712e-05
7.38828e-05
7.0962e-05
4.71477e-05
6.11893e-05
7.11682e-05
7.37513e-05
4.71608e-05
7.0795e-05
2.15538e-05
2.15561e-05
2.15539e-05
7.06684e-05
2.15562e-05
7.42179e-05
4.7166e-05
6.13619e-05
7.179e-05
4.71526e-05
7.15963e-05
7.43559e-05
7.41822e-05
4.71735e-05
6.13571e-05
7.17833e-05
7.1588e-05
4.71603e-05
7.43132e-05
2.36301e-05
2.36271e-05
2.36207e-05
2.36235e-05
7.11273e-05
2.15473e-05
2.15496e-05
7.10063e-05
2.15474e-05
2.15497e-05
7.50353e-05
7.30301e-05
6.18336e-05
4.71899e-05
7.28493e-05
4.71766e-05
7.52133e-05
7.50167e-05
7.30362e-05
6.18279e-05
4.71974e-05
4.71844e-05
7.28406e-05
7.51442e-05
7.48025e-05
4.71652e-05
7.22236e-05
6.16774e-05
7.24204e-05
7.4632e-05
4.71777e-05
7.4732e-05
4.71729e-05
7.22147e-05
6.16717e-05
7.46021e-05
4.71852e-05
7.24126e-05
7.11689e-05
2.15442e-05
2.15464e-05
2.15441e-05
2.15463e-05
7.12875e-05
2.36209e-05
2.36238e-05
3.6195e-05
6.96403e-05
4.0351e-05
7.10931e-05
4.0339e-05
7.07524e-05
3.61981e-05
2.02169e-05
6.83193e-05
4.95497e-05
2.02165e-05
6.84483e-05
3.61949e-05
6.94748e-05
4.0333e-05
7.03498e-05
4.0344e-05
3.61916e-05
7.06946e-05
2.02136e-05
6.86147e-05
4.95558e-05
6.84932e-05
2.0214e-05
3.62039e-05
7.11582e-05
4.03468e-05
7.05526e-05
3.62009e-05
7.1486e-05
4.03582e-05
2.02098e-05
4.95705e-05
6.89623e-05
6.88493e-05
2.021e-05
2.0213e-05
6.86876e-05
4.95651e-05
2.02127e-05
6.88052e-05
3.6204e-05
7.06991e-05
7.18551e-05
4.0365e-05
7.15397e-05
4.03534e-05
3.62068e-05
3.62012e-05
4.03465e-05
7.11453e-05
7.05501e-05
3.61982e-05
4.03579e-05
7.14776e-05
2.02078e-05
4.95666e-05
6.89351e-05
6.88222e-05
2.02081e-05
2.02111e-05
6.86601e-05
4.95605e-05
2.02107e-05
6.87782e-05
3.62013e-05
7.0697e-05
4.03648e-05
7.18481e-05
4.03531e-05
7.1523e-05
3.62042e-05
3.61983e-05
6.96587e-05
7.11055e-05
4.03452e-05
7.07685e-05
4.03467e-05
3.62011e-05
2.02192e-05
6.83397e-05
4.95606e-05
6.84826e-05
2.02188e-05
3.61979e-05
6.94615e-05
7.03607e-05
4.03396e-05
7.07076e-05
3.6195e-05
4.0339e-05
2.02159e-05
6.86508e-05
4.95575e-05
6.85131e-05
2.02163e-05
3.61959e-05
6.96491e-05
4.03511e-05
7.11018e-05
4.03391e-05
7.07585e-05
3.61991e-05
2.02179e-05
6.83181e-05
4.95569e-05
2.02174e-05
6.84634e-05
3.61957e-05
6.94575e-05
4.03331e-05
7.03576e-05
3.61926e-05
4.03441e-05
7.07001e-05
2.02145e-05
6.86316e-05
4.95537e-05
6.8492e-05
2.0215e-05
3.62043e-05
7.11564e-05
4.03528e-05
7.052e-05
3.62015e-05
7.14928e-05
4.0352e-05
2.021e-05
4.95675e-05
6.89711e-05
6.88403e-05
2.02105e-05
2.02134e-05
6.86795e-05
4.95708e-05
2.02129e-05
6.88131e-05
3.62046e-05
7.07218e-05
7.18635e-05
4.03587e-05
7.15344e-05
4.03599e-05
3.62073e-05
3.62022e-05
4.03467e-05
7.11479e-05
7.05344e-05
3.61991e-05
4.0358e-05
7.14838e-05
2.02087e-05
4.95635e-05
6.89512e-05
6.882e-05
2.02092e-05
2.0212e-05
6.86589e-05
4.9567e-05
2.02116e-05
6.87932e-05
3.62022e-05
7.07063e-05
4.03648e-05
7.18541e-05
4.03532e-05
7.15265e-05
3.62051e-05
7.08356e-05
2.15494e-05
2.15527e-05
2.15493e-05
2.15526e-05
7.09678e-05
7.3951e-05
7.09588e-05
4.71422e-05
6.12029e-05
4.71473e-05
7.37678e-05
7.11853e-05
7.39174e-05
7.09517e-05
4.71486e-05
6.12084e-05
7.11851e-05
7.37293e-05
4.71619e-05
7.07992e-05
2.15526e-05
2.15559e-05
2.15527e-05
7.06658e-05
2.1556e-05
7.41966e-05
4.71596e-05
6.13356e-05
7.18009e-05
4.71552e-05
7.15801e-05
7.43759e-05
7.41575e-05
4.71743e-05
6.13423e-05
7.18092e-05
7.15768e-05
4.71611e-05
7.43373e-05
2.36292e-05
2.36262e-05
2.36182e-05
2.36211e-05
7.11315e-05
2.1546e-05
2.15494e-05
7.10037e-05
2.15461e-05
2.15495e-05
7.50318e-05
7.30434e-05
6.18071e-05
4.71835e-05
7.28325e-05
4.71803e-05
7.52059e-05
7.49991e-05
7.30557e-05
6.18139e-05
4.71982e-05
4.7185e-05
7.28233e-05
7.51662e-05
7.48008e-05
4.71678e-05
7.22088e-05
6.1683e-05
7.24194e-05
7.46193e-05
4.71722e-05
7.47583e-05
4.71736e-05
7.22016e-05
6.16887e-05
7.45836e-05
4.7186e-05
7.24332e-05
7.11661e-05
2.15429e-05
2.15463e-05
2.15428e-05
2.15461e-05
7.12912e-05
2.362e-05
2.36229e-05
3.61964e-05
6.96417e-05
7.1096e-05
4.03452e-05
7.0762e-05
4.03467e-05
3.61992e-05
2.02181e-05
6.8331e-05
4.95525e-05
6.84541e-05
2.02178e-05
3.6196e-05
6.94871e-05
7.03561e-05
4.03396e-05
7.07027e-05
3.61931e-05
4.0339e-05
2.02149e-05
6.86217e-05
4.95584e-05
6.85031e-05
2.02152e-05
3.61981e-05
6.96415e-05
7.11129e-05
4.03513e-05
7.07612e-05
4.03393e-05
3.62013e-05
2.02191e-05
6.83468e-05
4.95534e-05
2.02187e-05
6.84727e-05
3.6198e-05
6.94882e-05
7.03565e-05
4.03333e-05
3.61947e-05
7.0716e-05
4.03443e-05
2.02158e-05
6.86398e-05
4.95592e-05
6.85193e-05
2.02162e-05
3.62024e-05
7.11518e-05
4.03528e-05
7.05589e-05
3.61997e-05
7.14887e-05
4.03521e-05
2.02091e-05
4.95692e-05
6.89425e-05
6.88318e-05
2.02093e-05
2.02123e-05
6.86701e-05
4.95633e-05
2.0212e-05
6.87857e-05
3.62027e-05
7.0698e-05
7.18577e-05
4.03588e-05
7.15275e-05
4.03599e-05
3.62054e-05
3.62044e-05
7.11554e-05
4.03469e-05
7.05601e-05
3.62013e-05
7.14879e-05
4.03582e-05
2.021e-05
4.95699e-05
6.896e-05
6.88481e-05
2.02103e-05
2.02133e-05
6.86862e-05
4.95641e-05
2.02129e-05
6.88035e-05
3.62044e-05
7.06977e-05
7.18562e-05
4.03651e-05
7.15411e-05
4.03534e-05
3.62073e-05
2.3629e-05
2.36259e-05
2.36283e-05
2.36254e-05
7.11281e-05
2.15495e-05
2.15466e-05
7.10063e-05
2.15496e-05
2.15467e-05
7.50014e-05
7.30502e-05
6.18157e-05
4.71935e-05
7.2824e-05
4.71905e-05
7.51648e-05
7.50644e-05
7.30401e-05
6.18154e-05
4.71852e-05
7.28495e-05
4.71818e-05
7.51759e-05
7.47499e-05
4.71778e-05
7.22017e-05
6.16881e-05
7.45881e-05
7.24333e-05
4.71822e-05
7.47614e-05
4.71694e-05
7.22325e-05
6.1688e-05
7.46478e-05
7.24225e-05
4.71738e-05
7.11685e-05
2.15464e-05
2.15435e-05
2.15463e-05
2.15434e-05
7.12885e-05
2.36197e-05
2.36226e-05
2.36192e-05
2.36221e-05
0.000173138
0.00017315
0.000149018
0.000172283
0.000172292
0.000191518
0.00019222
7.41502e-05
7.26334e-05
7.26195e-05
8.25224e-05
7.38668e-05
7.28271e-05
7.28507e-05
7.32115e-05
8.25625e-05
7.24235e-05
7.24753e-05
7.22718e-05
7.22455e-05
7.34541e-05
7.32306e-05
8.24834e-05
7.24709e-05
7.2387e-05
7.21974e-05
7.23133e-05
7.34924e-05
7.32641e-05
8.25722e-05
7.2383e-05
7.25475e-05
7.22828e-05
7.21602e-05
7.35129e-05
7.32166e-05
8.27306e-05
7.23976e-05
7.24624e-05
7.35019e-05
7.22645e-05
7.22278e-05
7.41354e-05
7.26535e-05
7.26423e-05
8.25083e-05
7.38825e-05
7.28459e-05
7.286e-05
7.58524e-05
8.19345e-05
7.4124e-05
7.41964e-05
7.39703e-05
7.39208e-05
7.61012e-05
7.41584e-05
7.25916e-05
7.26982e-05
8.26933e-05
7.27815e-05
7.38645e-05
7.28868e-05
7.58338e-05
8.17976e-05
7.41523e-05
7.41197e-05
7.389e-05
7.39977e-05
7.61219e-05
7.41596e-05
7.26808e-05
7.25709e-05
8.24828e-05
7.29185e-05
7.38792e-05
7.28097e-05
7.58485e-05
8.19435e-05
7.41494e-05
7.42545e-05
7.39498e-05
7.38473e-05
7.61074e-05
7.58444e-05
8.19337e-05
7.41284e-05
7.41661e-05
7.39553e-05
7.39226e-05
7.60932e-05
0.00015211
0.000173995
0.000174004
0.000174854
0.000174866
0.000193625
0.000192923
0.000152113
0.000173994
0.000174005
0.000174853
0.000174865
0.000193625
0.000192923
0.000152104
0.000173989
0.000174
0.000174849
0.000174862
0.000193621
0.000192918
0.000152109
0.000173992
0.000174004
0.000174851
0.000174864
0.000193622
0.000192919
0.000173138
0.000173149
0.000149019
0.000172282
0.000172293
0.000191518
0.000192221
0.000173133
0.000173146
0.000149009
0.000172276
0.000172288
0.000191513
0.000192216
0.000173136
0.000173148
0.000149014
0.000172279
0.000172292
0.000191514
0.000192217
0.000147997
0.000170575
0.000170585
0.000171428
0.00017144
0.000190814
0.00019011
0.000148
0.000170575
0.000170586
0.000171428
0.00017144
0.000190814
0.000190111
0.00014799
0.000170569
0.000170581
0.000171423
0.000171437
0.000190809
0.000190106
0.000147996
0.000170572
0.000170584
0.000171426
0.000171439
0.00019081
0.000190107
7.26239e-05
6.67425e-05
6.86962e-05
7.49394e-05
6.84546e-05
7.51433e-05
7.26754e-05
6.87186e-05
6.84829e-05
6.79917e-05
6.58574e-05
6.85828e-05
6.85426e-05
6.81706e-05
7.26086e-05
6.62418e-05
6.77262e-05
7.52436e-05
7.25644e-05
6.79787e-05
7.50381e-05
6.89278e-05
6.87936e-05
6.62181e-05
6.91301e-05
6.90342e-05
6.86026e-05
6.90917e-05
7.2796e-05
6.67498e-05
7.50899e-05
6.86828e-05
7.50485e-05
6.84489e-05
7.2567e-05
6.87622e-05
6.84947e-05
6.79726e-05
6.58997e-05
6.85651e-05
6.85501e-05
6.8182e-05
7.25187e-05
6.624e-05
7.51308e-05
6.77387e-05
7.27537e-05
7.51929e-05
6.79776e-05
6.89196e-05
6.87864e-05
6.61889e-05
6.91363e-05
6.90388e-05
6.85929e-05
6.91338e-05
7.45314e-05
8.21998e-05
7.32044e-05
7.32573e-05
7.30588e-05
7.30516e-05
7.4811e-05
7.28549e-05
8.29216e-05
7.19135e-05
7.18969e-05
7.25519e-05
7.20654e-05
7.20982e-05
7.27652e-05
6.63372e-05
7.55026e-05
6.48842e-05
7.24374e-05
6.65875e-05
7.54261e-05
6.81516e-05
6.81796e-05
6.5186e-05
6.75198e-05
6.78277e-05
6.73745e-05
6.85285e-05
6.8289e-05
6.67654e-05
6.73076e-05
6.49245e-05
6.7596e-05
6.78564e-05
6.68973e-05
7.23622e-05
6.5293e-05
6.72918e-05
7.52585e-05
6.70208e-05
7.5318e-05
7.2746e-05
7.25838e-05
6.63882e-05
7.53619e-05
6.48397e-05
7.26402e-05
6.65608e-05
7.55707e-05
6.82486e-05