/*--------------------------------*- C++ -*----------------------------------*\
| =========                 |                                                 |
| \\      /  F ield         | OpenFOAM: The Open Source CFD Toolbox           |
|  \\    /   O peration     | Version:  v1906                                 |
|   \\  /    A nd           | Web:      www.OpenFOAM.com                      |
|    \\/     M anipulation  |                                                 |
\*---------------------------------------------------------------------------*/
FoamFile
{
    version     2.0;
    format      ascii;
    class       surfaceScalarField;
    location    "700";
    object      phi;
}
// * * * * * * * * * * * * * * * * * * * * * * * * * * * * * * * * * * * * * //

dimensions      [0 3 -1 0 0 0 0];
oriented        oriented;


internalField   nonuniform List<scalar> 
124860
(
-1.25629e-06
-1.24616e-06
-0.000269536
2.65016e-07
1.99909e-07
1.80243e-07
8.45723e-08
-1.29975e-06
2.49328e-07
-2.95135e-07
-9.37085e-07
2.05045e-07
-2.93521e-07
8.77834e-07
-0.00113979
1.26965e-06
2.19456e-07
-0.00114024
7.83012e-08
-1.30001e-06
2.65799e-07
-2.89941e-07
-9.34735e-07
2.35345e-07
-2.83013e-07
8.85902e-07
-1.22998e-06
-0.000269556
2.31161e-07
2.36114e-07
2.29918e-07
1.10846e-07
-1.24967e-06
2.76916e-07
-2.76041e-07
-9.23998e-07
2.6557e-07
-2.66767e-07
8.88556e-07
-0.00114087
1.26424e-06
2.25022e-07
7.24498e-08
-1.29445e-06
2.65924e-07
-2.89827e-07
-9.31926e-07
2.35335e-07
-2.82932e-07
8.83065e-07
-0.00113989
2.19343e-07
-0.00114063
7.78172e-08
-1.26024e-06
2.57575e-07
-2.81508e-07
-9.29159e-07
2.32652e-07
-2.80184e-07
8.80433e-07
1.25874e-06
2.24581e-07
-0.00113968
7.83234e-08
-1.28901e-06
2.60207e-07
-2.8429e-07
-9.31809e-07
2.32632e-07
-2.82811e-07
8.83086e-07
-1.22442e-06
-0.000269515
2.31014e-07
2.36183e-07
2.18957e-07
8.8891e-08
-1.25477e-06
2.5757e-07
-2.81537e-07
-9.28878e-07
2.35533e-07
-2.82775e-07
8.80417e-07
-0.00114027
1.22196e-06
2.19098e-07
-0.0011408
8.30148e-08
-1.25749e-06
2.57771e-07
-2.84326e-07
-9.29154e-07
2.35502e-07
-2.82863e-07
8.8059e-07
-0.00026953
2.31014e-07
2.36292e-07
1.88787e-07
2.1892e-07
-0.00119084
-0.00119086
1.8903e-07
1.89392e-07
1.82622e-07
2.12812e-07
-0.00119045
-0.00119065
1.88684e-07
2.0071e-07
-2.1512e-08
-5.81495e-09
-9.70801e-05
-2.37429e-08
-5.90178e-09
-9.7082e-05
-1.76583e-08
-9.37872e-09
-0.000276411
8.25005e-09
-2.21025e-08
-7.17496e-08
-0.00027639
1.13395e-08
8.87833e-11
6.18021e-08
-2.59954e-08
3.77391e-10
0.000228352
-0.000228388
-3.5167e-08
-0.000192042
3.89962e-09
-1.65926e-10
-5.4292e-08
-0.000228339
2.82482e-08
2.56609e-09
6.18312e-08
-2.60175e-08
4.15636e-10
0.000228388
-0.000228424
-3.52313e-08
5.72092e-09
-0.000192082
1.64309e-09
4.14745e-08
-7.91275e-09
-6.33764e-09
0.000192081
-0.000192108
-5.4317e-08
-0.000228376
2.82626e-08
2.50527e-09
1.48707e-09
-1.69776e-09
2.00324e-07
0.000250187
-0.000250325
-7.46371e-08
-0.000244406
-1.14092e-08
-0.00116202
-3.2473e-09
3.30241e-07
-1.04003e-06
7.83619e-07
-8.64529e-07
9.62114e-07
4.11377e-09
3.42989e-07
9.61015e-07
-8.63885e-07
-1.03938e-06
7.82538e-07
-0.00116213
-8.14124e-08
-1.42998e-09
-0.000250159
1.77877e-09
-1.5951e-07
-2.04541e-09
2.00389e-07
0.000250218
-0.000250353
8.11981e-08
-1.3014e-06
2.25463e-07
8.85285e-07
-2.84496e-07
-9.36394e-07
2.3453e-07
1.26928e-06
-2.91085e-07
2.65357e-07
-0.00114039
1.97613e-08
-8.68711e-08
-0.000244423
-1.37036e-08
-0.00116218
3.36129e-07
-1.03773e-06
7.83681e-07
-8.61962e-07
9.64973e-07
-2.22293e-08
1.28458e-08
1.08267e-07
0.000244434
-0.000244492
3.42995e-07
9.64066e-07
-8.64016e-07
-1.03956e-06
7.82622e-07
-0.00116228
-0.000250191
2.4175e-09
-1.62129e-07
-2.15789e-08
-9.70848e-05
1.6365e-08
9.70816e-05
-9.71059e-05
1.26162e-06
0.000269593
-2.43666e-07
-2.4865e-07
-0.000271664
-4.16127e-08
-0.000276366
1.09062e-08
2.37168e-08
-1.74254e-08
-4.14302e-08
-0.000276471
1.1108e-08
-1.52185e-08
4.20428e-08
0.00027637
-0.000276403
-1.86528e-08
1.96763e-08
-1.51047e-08
4.19086e-08
0.000276475
-0.000276503
-5.81258e-09
-9.70873e-05
7.85152e-09
9.70841e-05
-9.71106e-05
-3.74308e-08
-0.000192069
1.61375e-09
-5.43413e-08
-1.97018e-10
-0.000228368
2.49685e-09
2.6184e-08
-9.67563e-08
-0.000244432
-1.61335e-08
9.87413e-10
3.35555e-07
-1.03225e-06
7.80836e-07
-8.56489e-07
9.62044e-07
-0.00116191
-1.69377e-09
-0.000250174
1.92599e-09
-1.64694e-07
-3.73434e-08
5.80909e-09
-0.000192015
1.62379e-09
-5.43234e-08
-0.00022833
2.6142e-08
2.43235e-09
3.4174e-07
-1.03486e-06
7.80923e-07
-8.56521e-07
9.62022e-07
-0.00116188
1.9867e-08
-8.1993e-08
-0.000244359
-1.61412e-08
-0.00025015
-1.62121e-07
2.22087e-09
-6.18738e-08
1.5897e-09
-1.42495e-09
1.97806e-07
0.000250214
-0.00025035
8.05979e-08
2.31068e-07
1.22962e-06
-2.82622e-07
2.57141e-07
8.79837e-07
-2.81656e-07
-9.30818e-07
2.31842e-07
-0.00114078
3.73377e-08
-8.68072e-08
-0.000244465
-1.37222e-08
-0.00116195
-3.82247e-09
3.35823e-07
-1.03489e-06
7.80749e-07
-8.59164e-07
9.619e-07
-4.35748e-08
1.27221e-08
1.08104e-07
0.000244477
-0.000244535
3.53844e-09
3.48551e-07
9.61046e-07
-8.61223e-07
-1.03675e-06
7.79707e-07
-0.00116207
5.42254e-08
-1.71162e-09
-0.000250186
1.48504e-09
-1.62015e-07
8.57583e-11
5.54655e-10
-2.60404e-08
0.000228385
-0.000228422
-0.000192078
1.62198e-09
-6.47233e-09
0.000192077
-0.000192106
-2.20937e-10
-0.000228373
2.33575e-09
2.8215e-08
-6.18305e-08
1.95182e-07
-2.27362e-09
0.00025019
-0.000250319
8.1088e-08
-1.29048e-06
2.30627e-07
8.82466e-07
-2.84264e-07
-9.33459e-07
2.34588e-07
1.25836e-06
-2.85385e-07
2.59757e-07
-0.00113984
-0.00116188
3.3566e-07
-1.03477e-06
7.80834e-07
-8.59177e-07
9.62123e-07
3.52151e-08
1.9771e-08
-8.44683e-08
-0.000244402
-1.37222e-08
3.48459e-07
9.6115e-07
-8.61207e-07
-1.03668e-06
7.79784e-07
-0.00116199
-4.13454e-08
-2.2289e-08
1.29773e-08
1.05684e-07
0.000244414
-0.000244469
5.4217e-08
-0.000250162
-1.5944e-07
2.10548e-09
-2.60044e-08
1.42403e-10
0.00022835
-0.000228386
5.67521e-09
-0.000192027
1.71554e-09
-7.95753e-09
-6.20577e-09
0.000192026
-0.000192054
-0.000228338
2.82119e-08
2.46129e-09
-2.37468e-08
-9.70666e-05
-4.14675e-08
-0.000276335
8.10532e-09
2.1601e-08
-1.97843e-08
-4.39631e-08
-0.000276429
1.04002e-08
-5.68004e-09
-9.70763e-05
1.24105e-09
-6.43834e-08
2.00364e-07
-1.81019e-09
0.000250176
-0.000250311
-0.00116161
-9.49216e-09
3.35247e-07
-1.03191e-06
7.75241e-07
-8.56396e-07
9.5645e-07
3.53025e-08
-8.70166e-08
-0.000244409
-1.36675e-08
-1.09342e-08
3.4218e-07
9.58121e-07
-8.55619e-07
-1.031e-06
7.76999e-07
-0.0011617
-9.17714e-08
-1.3445e-09
5.67298e-08
-0.000250148
-1.64602e-07
1.88546e-09
-6.43721e-08
2.0038e-07
-2.86169e-09
0.000250208
-0.00025034
8.03225e-08
-1.25626e-06
2.25136e-07
8.79954e-07
-2.84334e-07
-9.30795e-07
2.34699e-07
1.2243e-06
-2.82663e-07
2.57302e-07
-0.00114095
-0.00116177
3.35277e-07
-1.02933e-06
7.75286e-07
-8.53708e-07
9.56495e-07
3.52111e-08
1.99963e-08
-8.69383e-08
-0.000244417
-1.38514e-08
3.42113e-07
9.55561e-07
-8.55709e-07
-1.03119e-06
7.74287e-07
-0.00116188
-4.14094e-08
-2.22454e-08
1.28713e-08
1.08146e-07
0.000244429
-0.000244486
5.66832e-08
-0.00025018
-1.64584e-07
2.65617e-09
2.44316e-10
9.75326e-11
-2.39974e-08
0.00022834
-0.000228381
-0.000192031
1.75906e-09
-1.24141e-10
-0.000228328
2.44142e-09
2.6194e-08
4.17421e-10
-2.4006e-08
0.000228376
-0.000228417
5.88304e-09
-0.000192068
1.43913e-09
-7.94594e-09
-6.25238e-09
0.000192067
-0.000192094
-0.000228364
2.44522e-09
2.61521e-08
0.00026957
-2.43425e-07
-2.4882e-07
-0.000271625
2.15878e-08
-4.38895e-08
-0.000276424
7.81915e-09
2.14217e-08
-4.15561e-08
-0.000276371
8.5991e-09
-1.62854e-08
-1.21928e-08
4.42154e-08
0.000276427
-0.000276465
-1.6319e-08
-1.25886e-08
4.19531e-08
0.000276375
-0.00027641
-9.70758e-05
9.70727e-05
-9.70969e-05
-9.70802e-05
9.7077e-05
-9.71013e-05
1.84538e-08
7.95632e-09
-9.71065e-05
1.61545e-08
7.94852e-09
-9.71061e-05
-3.01642e-08
4.78426e-08
0.000220929
-3.07153e-08
6.19805e-08
-0.000220978
-0.000250161
-1.81446e-08
4.166e-08
-2.48537e-08
-1.68258e-08
4.84156e-08
2.4295e-08
-0.000276448
-0.000181687
-1.05986e-08
9.35687e-09
-1.48419e-08
-0.00018172
1.21194e-07
6.14435e-08
-0.000250248
-3.64577e-08
-9.66743e-09
-2.11982e-08
2.10001e-08
0.000220896
-1.43635e-08
3.86783e-08
-0.00022092
-0.000250108
7.13956e-08
-2.23434e-07
-4.76487e-08
-1.0801e-08
3.22335e-08
1.97511e-08
-0.000276415
-0.000181656
-4.89976e-08
1.74142e-08
-1.30767e-08
-0.000181675
6.33509e-08
4.85417e-08
-0.000250167
8.14378e-08
-1.04311e-07
-1.07637e-08
-1.07219e-08
0.000212361
-0.000212385
-7.98911e-05
-1.41645e-08
-7.98813e-05
-1.08686e-08
-7.99167e-05
-7.99051e-05
-0.000142089
-8.77322e-10
-2.66712e-08
0.000142114
2.20964e-09
1.47912e-09
0.000169659
-5.15114e-11
-0.000169686
-2.69057e-08
0.000222143
6.16403e-08
-0.000222177
-2.8668e-10
2.8113e-08
2.59141e-09
0.000228375
-4.32257e-12
-5.39014e-08
-0.000142114
-9.79056e-10
0.000169686
-3.98253e-11
0.000222168
-5.37713e-08
4.64782e-09
2.60325e-08
7.84786e-05
9.94031e-10
-7.85056e-05
-6.18698e-09
4.31406e-08
-0.000192071
-0.000261305
2.70009e-08
-4.65623e-09
-5.3107e-08
3.41687e-10
5.4196e-08
-0.000261339
-2.17546e-09
-1.46214e-09
2.66502e-08
0.00014209
-2.57021e-08
1.13798e-10
-4.48697e-11
6.10999e-08
-0.000169659
8.40866e-10
-4.91476e-11
-0.000222132
2.68117e-08
-5.65949e-08
-6.01346e-11
6.33758e-08
-0.00014216
-7.77989e-10
-2.47729e-08
1.95023e-09
0.000142183
1.33509e-09
0.000169693
-0.000169721
-2.48968e-08
0.000222228
-4.53568e-10
6.41702e-08
-0.000222266
2.81282e-08
2.50187e-09
0.000228412
-5.39177e-08
-8.55014e-10
-0.000142182
0.000169721
4.5558e-09
0.000222257
-5.6418e-08
2.38715e-08
7.85234e-05
-7.85481e-05
8.73286e-10
-6.19141e-09
-0.000192109
-7.93607e-09
4.10442e-08
-0.000261418
2.49613e-08
-4.52944e-09
-5.31283e-08
-0.000261455
4.65489e-10
5.4333e-08
-1.91196e-09
-7.85213e-05
-2.48993e-08
-2.40542e-08
0.000261421
5.47966e-08
-0.000261458
1.52029e-09
5.76746e-09
-3.49937e-08
-7.85462e-05
-5.29109e-08
-1.32228e-09
2.46493e-08
0.000142161
-2.57313e-08
1.84158e-10
6.11488e-08
-0.000169693
7.61967e-10
-0.000222219
2.48706e-08
-5.67338e-08
6.35669e-08
-9.71089e-05
1.61632e-08
-2.14989e-08
-0.000212369
1.25511e-08
1.2431e-08
-2.33899e-08
-2.13971e-08
0.000212389
1.08135e-08
7.9881e-05
1.32128e-08
-7.9905e-05
1.09086e-08
7.98945e-05
1.31172e-08
-7.99185e-05
2.29242e-08
2.06839e-08
-0.000212391
-1.24559e-08
7.9906e-05
-1.2575e-08
7.99195e-05
3.56784e-08
-2.55528e-08
0.000220882
-0.000220921
-2.26496e-08
5.16185e-08
-0.000250077
2.78735e-08
-9.10471e-08
-3.74305e-08
4.15311e-08
-1.52074e-08
-0.000276399
2.20815e-08
-0.00018165
-2.9692e-08
1.24425e-08
-0.000250153
9.59994e-08
5.63449e-08
-0.000181677
-1.31555e-08
2.3532e-08
-5.68518e-08
-2.55762e-08
3.55284e-08
0.000220953
-0.000220996
-2.04143e-08
5.37953e-08
-0.000250231
2.79872e-08
-9.09228e-08
-3.2465e-08
-1.51034e-08
4.14049e-08
-0.000276498
-1.84539e-08
1.95298e-08
-0.000181702
-2.96112e-08
1.25546e-08
-0.000181729
-1.30615e-08
-0.000250301
9.59348e-08
5.11143e-08
2.15363e-08
-5.88846e-08
-2.76153e-08
-0.000220889
2.95227e-08
-5.66023e-08
2.59035e-08
0.000181649
-0.000181677
0.000250094
-3.60566e-08
5.68118e-08
9.68337e-08
-0.000250169
-4.13477e-08
1.09486e-08
-1.97404e-08
-3.70903e-08
-9.06138e-08
5.22297e-08
-0.000220929
-0.000220961
2.94457e-08
-2.77313e-08
-5.86396e-08
2.59344e-08
0.000181701
-0.000181729
-3.58994e-08
0.000250247
9.67565e-08
5.15918e-08
-0.000250318
1.1151e-08
-4.11648e-08
2.36343e-08
-1.74035e-08
5.44141e-08
-0.000221004
-9.04923e-08
-3.21277e-08
-1.07093e-08
-1.07982e-08
0.000212368
-7.98821e-05
-1.25887e-08
-7.98956e-05
-1.24734e-08
-9.71136e-05
7.8771e-09
-5.86082e-09
2.38277e-08
7.85244e-05
8.86768e-10
-7.85491e-05
-6.17948e-09
4.09952e-08
-0.000192096
-0.000261422
2.49126e-08
-4.50187e-09
-5.07653e-08
3.98748e-10
5.19801e-08
-0.000261457
-1.93069e-09
2.4712e-08
-1.35906e-09
0.00014216
-0.000142182
2.38517e-10
-2.37132e-08
1.01818e-10
6.12786e-08
-0.000228406
-0.000222219
2.48317e-08
-5.42875e-08
-0.000169692
8.05597e-10
-4.95221e-11
6.12482e-08
-0.000222255
4.03477e-11
-0.000169717
2.60557e-08
7.84772e-05
9.96255e-10
-7.85042e-05
-6.27432e-09
-7.91346e-09
4.31425e-08
-0.000192044
-0.000261301
2.71166e-08
-4.46078e-09
-5.06096e-08
2.26794e-10
5.18958e-08
-0.000261334
-2.0682e-09
-1.45981e-09
2.66782e-08
0.000142087
-0.000142111
-2.36827e-08
4.42791e-10
6.12526e-08
-0.000228368
-0.000169657
6.89667e-10
-0.000222126
2.68373e-08
-5.41604e-08
-0.000169682
6.10873e-08
-0.000222159
-0.00014216
-2.4734e-08
-8.33123e-10
1.96906e-09
0.000142184
-2.49538e-08
0.000222232
-3.30505e-10
6.42607e-08
-0.00022227
1.448e-09
0.00016969
-6.44837e-11
-0.000169717
2.55733e-09
2.80826e-08
0.000228408
-6.13096e-11
-5.38394e-08
-8.07979e-10
-0.000142183
4.5769e-09
0.000222261
-5.63546e-08
0.000169717
-3.65677e-11
2.39143e-08
7.8526e-05
-7.85508e-05
8.22916e-10
-6.34098e-09
-0.000192107
4.31556e-08
-0.000261433
2.49409e-08
-4.55824e-09
-5.31049e-08
-0.00026147
3.3833e-10
5.43519e-08
-1.92808e-09
-7.85239e-05
-2.48773e-08
-2.40962e-08
0.000261436
5.48237e-08
-0.000261474
1.50158e-09
-3.71093e-08
-7.85488e-05
-5.28948e-08
2.46945e-08
-1.4188e-09
0.000142161
3.3843e-10
-2.5769e-08
-7.07725e-11
6.12016e-08
-0.000222223
2.48218e-08
-5.66649e-08
-0.00016969
8.13537e-10
-5.71052e-11
6.36396e-08
-8.20763e-11
-0.00014209
-7.68302e-10
-2.4727e-08
1.91623e-09
0.000142113
1.32154e-09
0.000169656
-0.000169683
-2.4898e-08
0.00022214
-5.28449e-10
6.41512e-08
-0.000222179
2.80833e-08
2.70307e-09
0.000228373
-5.38321e-08
-8.97411e-10
-0.000142112
0.000169683
4.50432e-09
0.00022217
-5.63171e-08
2.37811e-08
7.84825e-05
-7.85072e-05
9.23622e-10
-6.05411e-09
-0.000192054
-7.98568e-09
4.09138e-08
-0.000261311
2.49643e-08
-4.46981e-09
-5.31028e-08
-0.000261348
5.44984e-10
5.42456e-08
-1.87895e-09
-7.84804e-05
-2.49004e-08
-2.39718e-08
0.000261314
5.47194e-08
-0.000261351
1.58524e-09
5.73529e-09
-3.49871e-08
-7.85053e-05
-5.2883e-08
-1.27769e-09
2.46286e-08
0.000142091
-2.57313e-08
-8.78718e-11
6.11606e-08
-0.000169656
7.27085e-10
-0.000222131
2.48533e-08
-5.6677e-08
6.35122e-08
1.84332e-08
-9.70929e-05
3.31243e-08
-2.72826e-08
0.000220864
-2.04961e-08
5.37472e-08
-0.000220903
-0.000250043
2.55662e-08
-9.09265e-08
-3.75541e-08
4.14284e-08
-1.21494e-08
2.19653e-08
-0.000276367
-0.00018164
-3.13289e-08
1.26141e-08
9.59532e-08
5.62151e-08
-0.00025012
-1.31684e-08
-0.000181666
2.15905e-08
-5.88726e-08
-2.75e-08
3.55763e-08
0.00022094
-2.25064e-08
4.9204e-08
-0.000220975
-0.000250193
2.787e-08
-8.8546e-08
-3.4974e-08
-1.46776e-08
4.37113e-08
-1.60984e-08
2.21175e-08
-0.000276464
-0.000181699
-3.17039e-08
1.24426e-08
-1.31029e-08
-0.000181728
9.33711e-08
5.3764e-08
-0.000250261
2.34434e-08
-5.4485e-08
-1.07246e-08
-1.07373e-08
0.000212354
-0.000212376
-7.98762e-05
-1.2447e-08
-7.98942e-05
-1.25723e-08
-7.99001e-05
-7.99181e-05
7.9852e-09
-9.71004e-05
-0.00014209
-2.47513e-08
-7.47107e-10
1.90419e-09
0.000142114
-2.49087e-08
0.000222135
6.41667e-08
-0.000222174
-5.25057e-10
1.27412e-09
0.000169657
1.27087e-10
-0.000169682
2.67953e-09
2.60683e-08
0.000228368
1.64321e-11
-5.63568e-08
-0.000142113
-9.34018e-10
4.46126e-09
0.000222167
-5.87667e-08
0.000169682
2.10323e-11
2.37517e-08
7.84829e-05
-7.85076e-05
9.55866e-10
-6.06567e-09
4.09246e-08
-0.000192058
-0.00026131
2.4969e-08
-4.40836e-09
-5.08246e-08
-0.000261347
5.80376e-10
5.42655e-08
-1.8686e-09
-2.49053e-08
-7.84808e-05
-5.2953e-08
-0.000261313
-1.65848e-09
2.4662e-08
-1.25943e-09
0.000142091
-1.16526e-10
-2.37279e-08
1.00557e-10
6.37193e-08
-0.000222127
2.48596e-08
-5.67123e-08
-0.000169657
7.17267e-10
1.9669e-11
6.60061e-08
1.1992e-10
-0.000142159
-2.67486e-08
-7.58228e-10
2.12648e-09
0.000142184
-2.701e-08
0.000222226
-3.201e-10
6.41369e-08
-0.000222262
1.51007e-09
0.000169691
-0.000169716
2.45604e-09
2.60372e-08
0.000228404
-5.63273e-08
-1.01856e-09
-0.000142183
4.5353e-09
0.000222253
-5.62371e-08
0.000169716
2.60809e-08
7.85231e-05
-7.85502e-05
1.03891e-09
-6.12381e-09
-0.000192095
-7.95956e-09
4.09851e-08
-0.000261421
2.71051e-08
-4.51396e-09
-5.06502e-08
-0.000261453
3.27731e-10
5.18627e-08
-2.09972e-09
-7.8521e-05
-2.70417e-08
-2.62566e-08
0.000261424
5.23315e-08
-0.000261456
1.33442e-09
5.93716e-09
-3.49971e-08
-7.85483e-05
-5.04334e-08
2.67765e-08
-1.48906e-09
0.00014216
4.251e-10
-2.37399e-08
6.37104e-08
-0.000222217
2.6877e-08
-5.65765e-08
-0.000169691
7.25738e-10
6.35466e-08
-0.000212363
1.25282e-08
1.24001e-08
-2.1233e-08
-2.34923e-08
0.000212383
1.07761e-08
7.98917e-05
1.32252e-08
-7.99157e-05
1.08747e-08
7.98806e-05
1.31515e-08
-7.99046e-05
2.07373e-08
2.27691e-08
-0.000212385
-1.24621e-08
7.99167e-05
-1.26206e-08
7.99056e-05
3.31714e-08
-2.72204e-08
0.000220942
-0.000220978
-2.04728e-08
5.13354e-08
-0.000250183
2.53715e-08
-8.60836e-08
-3.48616e-08
4.36982e-08
-1.21889e-08
-0.000276461
-1.60775e-08
2.21438e-08
-0.000181696
-3.14082e-08
1.24355e-08
-0.000250253
9.33993e-08
5.3774e-08
-0.000181723
-1.31731e-08
2.13714e-08
-5.66455e-08
3.3098e-08
-2.53385e-08
0.000220881
-0.000220917
-2.2487e-08
5.16313e-08
-0.000250087
2.56121e-08
-9.09417e-08
-3.51064e-08
4.14431e-08
-1.25689e-08
-0.000276406
-1.61255e-08
2.2097e-08
-0.000181652
-2.94056e-08
1.26071e-08
-0.000250162
9.5852e-08
5.37099e-08
-0.000181677
-1.30917e-08
2.36487e-08
-5.67925e-08
-0.000220949
-2.51175e-08
3.12369e-08
-5.63729e-08
2.75748e-08
0.000181696
-0.000181722
-3.35425e-08
0.000250199
5.42327e-08
9.42547e-08
-0.00025027
-4.36085e-08
7.87329e-09
2.14982e-08
-1.97563e-08
5.19564e-08
-0.000220987
-3.45483e-08
-8.80886e-08
-0.000220888
-2.53376e-08
2.92502e-08
-5.65304e-08
2.56783e-08
0.000181652
-0.000181677
-3.34757e-08
0.000250104
5.4184e-08
9.66806e-08
-0.000250179
-4.12792e-08
8.62713e-09
2.13384e-08
-1.99542e-08
5.22395e-08
-0.000220926
-3.47641e-08
-9.04878e-08
-1.06642e-08
-1.0773e-08
0.000212361
-7.98929e-05
-1.25814e-08
-7.98818e-05
-1.24388e-08
-9.70999e-05
-9.71043e-05
1.20133e-07
9.19715e-08
0.000242592
-0.000242703
-2.37295e-07
-2.47735e-07
-0.0002716
-0.000261325
2.60433e-08
-0.000261664
1.8067e-07
-0.000261616
-0.000262032
1.09976e-07
1.07203e-07
0.000242605
-0.000242717
-2.42602e-07
-2.47604e-07
-0.000271626
-0.000261694
1.06416e-07
-0.00026134
1.03836e-07
-0.000262021
-0.000261666
1.07395e-07
1.07116e-07
0.000242578
-0.000242689
-2.42568e-07
-2.47526e-07
-0.000271574
-0.000261658
1.04006e-07
-0.0002613
1.03636e-07
-0.000261987
-0.000261629
1.07149e-07
1.07292e-07
0.000242587
-0.000242699
-2.42328e-07
-2.47742e-07
-0.000271586
-0.00026128
1.03656e-07
-0.000261703
1.03994e-07
-0.000261606
-0.000262032
-0.00121474
2.53445e-07
-2.00945e-09
2.59197e-07
4.78141e-09
-0.00121521
2.62247e-07
-1.6455e-09
-0.00121446
-1.98101e-07
0.00123679
-1.87073e-08
-1.11717e-09
-0.00123623
-2.74183e-07
-7.81276e-09
1.38491e-09
1.92384e-07
1.92747e-07
-0.00119079
-0.00121478
2.53468e-07
-0.0012153
2.59296e-07
-5.24643e-10
2.56371e-07
-0.0012145
2.62198e-07
7.27987e-10
-0.00121502
0.00123684
4.30961e-10
-0.00123634
3.83671e-10
2.76953e-07
-0.00121436
-0.00121479
2.52771e-07
-2.47443e-08
2.55581e-07
-1.21613e-07
-0.00121427
-3.04814e-07
0.00123611
-1.27644e-07
-0.00123536
-3.69853e-07
-2.58432e-08
1.92033e-07
2.09971e-07
-0.0011906
-0.00121444
2.64862e-07
-0.0012149
2.5282e-07
2.79748e-07
-0.00121418
2.55704e-07
-0.00121472
0.00123622
-0.00123582
-0.000266538
1.79337e-07
3.49355e-10
0.000267317
2.27908e-09
2.12444e-07
0.000249313
-0.000249459
-6.96005e-09
-5.27641e-09
0.000266981
4.94156e-09
-0.000267644
2.74741e-09
-1.61405e-07
0.000250292
-4.86856e-11
-0.000267351
-1.85663e-08
0.000249435
6.30624e-09
0.000267604
-1.89412e-09
-3.06801e-08
-1.90782e-07
0.000264512
2.07988e-08
-0.000265248
-0.000260357
-1.08646e-08
1.12168e-07
1.50471e-08
-0.000244466
-0.000250097
-1.65104e-07
-6.40037e-09
-0.000260508
6.80396e-09
-0.000250226
-2.55854e-09
-2.13728e-07
8.44389e-09
0.000266503
-3.31807e-09
1.96394e-07
1.41038e-10
-0.000249288
-1.77518e-07
-0.000266942
-2.74993e-09
-4.78963e-09
2.22622e-09
-0.000266588
1.79553e-07
1.16852e-09
2.1874e-09
0.000267369
2.12508e-07
0.000249378
-7.02941e-09
-0.000249522
-6.08382e-09
0.000267009
-0.000267661
2.58961e-09
-1.61413e-07
0.000250323
-1.86194e-08
-0.000267403
6.19705e-09
0.000249498
0.000267629
-1.85859e-07
-2.83281e-08
0.000264558
-0.000265297
1.83286e-08
-0.000260372
-1.29928e-08
1.2717e-08
1.07357e-07
-0.00024448
-0.000250159
-1.67729e-07
-6.2905e-09
-0.000250284
6.92686e-09
-0.00026052
-2.43077e-09
-0.00026459
1.67308e-07
1.27405e-08
1.86859e-07
0.000250177
-0.000250304
2.86864e-08
0.000260396
-0.000260544
-1.36925e-08
-8.64092e-08
-0.000265329
-2.11338e-07
6.69864e-09
0.000266554
-2.66174e-09
1.9645e-07
-0.000249354
-1.80175e-07
-0.000266972
-1.55383e-09
-1.0609e-07
-0.000242622
-1.03511e-07
2.30735e-07
2.35691e-07
0.000261721
-1.10845e-07
-0.000262048
-1.08049e-07
0.000261367
-0.000261693
-0.000242734
-2.85685e-08
-1.83294e-07
0.000264581
2.86091e-08
-0.000265322
-0.0002604
-1.79634e-08
9.98674e-08
1.27794e-08
-0.000244483
-0.000250167
-1.72785e-07
-6.28233e-09
-0.000260547
6.96904e-09
-0.000250292
-1.00222e-08
-2.11452e-07
1.00495e-08
0.000266548
-0.000267351
-3.13196e-09
1.99101e-07
4.46876e-10
-0.000250309
-0.000249348
-1.82749e-07
-0.000266955
-8.6283e-10
-6.78838e-09
-0.000249494
4.46202e-09
-0.000267607
-1.8573e-07
-3.07905e-08
0.000264492
1.5587e-08
-0.000265223
-0.000260309
-1.57193e-08
1.50003e-08
1.02422e-07
-0.000244412
-0.000250073
-1.67552e-07
-6.28062e-09
6.77459e-09
-0.000250199
-0.000260464
9.66075e-12
6.03658e-09
-2.11303e-07
0.000266486
-0.0002673
1.96515e-07
-2.24649e-09
-0.000250282
-0.00026694
-2.01566e-09
-0.000249267
-1.80011e-07
-0.000267589
-0.000249413
-0.000266591
1.81972e-07
-1.93631e-09
1.24616e-08
0.00026736
2.15131e-07
0.000249386
-9.32587e-09
-0.000249529
-6.44862e-09
0.000266995
6.37642e-09
-0.000267658
3.10959e-09
-1.6131e-07
0.000250318
-3.15104e-10
-2.87865e-08
-0.00026739
8.60591e-09
0.000249506
0.000267615
-3.70134e-09
-3.0858e-08
-1.88254e-07
0.000264593
-0.000265332
2.84906e-08
-0.000260434
-1.57185e-08
1.07213e-07
1.25915e-08
-0.000244523
-0.000250187
-1.70132e-07
-8.68732e-09
-0.000260587
-0.000250317
9.21124e-09
-1.26948e-08
-0.000264624
1.54742e-08
1.69725e-07
1.89264e-07
0.000250206
-0.000250337
3.1213e-08
0.000260458
-0.000260611
-8.63514e-08
-1.37199e-08
-0.000265364
-2.13918e-07
9.63977e-09
0.000266557
-2.97607e-09
1.96482e-07
2.03094e-10
-0.000249362
-1.82583e-07
-0.000266958
-1.31171e-09
-6.47614e-09
3.59245e-09
-0.000266529
1.69922e-09
1.79409e-07
-3.87568e-10
0.000267309
-5.85617e-09
0.000266979
-0.000267633
2.12482e-07
0.000249308
-7.09277e-09
-0.000249452
-1.58722e-07
2.56266e-09
0.000250292
-1.60391e-08
-0.000267343
0.000267598
6.1615e-09
0.000249428
-1.85731e-07
-2.83621e-08
0.000264507
-0.00026524
1.57488e-08
-0.000260353
-1.30684e-08
1.28213e-08
1.04783e-07
-0.000244457
-0.000250095
-1.67693e-07
-6.25401e-09
-0.000250221
6.9651e-09
-0.000260506
1.08903e-10
-0.000264538
1.67255e-07
1.2793e-08
1.86748e-07
0.000250114
-0.00025024
2.87322e-08
0.000260377
-0.00026053
-1.36857e-08
-8.40434e-08
-0.000265272
6.21781e-09
-2.11265e-07
0.000266496
1.9387e-07
-2.68104e-09
-0.000266943
-2.06969e-09
-0.000249284
-1.80083e-07
-0.000266528
-1.3367e-09
1.81936e-07
1.49097e-08
0.00026729
-6.28269e-09
0.000266964
2.83227e-09
-0.000267616
2.1499e-07
0.000249304
-0.000249447
-9.48247e-09
-1.61348e-07
3.09743e-09
0.000250278
2.92031e-11
-0.000267319
-3.14152e-08
0.00026758
-1.09844e-09
8.5419e-09
0.000249422
-3.09065e-08
-1.88206e-07
0.000264521
-0.000265262
3.11209e-08
-0.000260373
-1.56216e-08
1.07182e-07
1.28157e-08
-0.000244466
-0.000250099
-1.70324e-07
-6.21712e-09
-0.000260525
-0.000250229
9.41525e-09
-1.00095e-08
1.69813e-07
-8.79751e-07
-0.000264552
1.53433e-08
-0.000250118
1.36519e-08
9.49372e-09
-2.13836e-07
0.000266494
1.96469e-07
-3.41814e-09
-6.65843e-11
-0.000266929
-1.37471e-09
-3.99217e-09
-0.00024928
-1.82687e-07
7.28345e-10
-0.000266575
-8.97852e-10
1.81894e-07
1.5046e-08
0.000267334
-8.78617e-09
0.000266994
-0.000267638
2.15012e-07
0.000249369
-9.39828e-09
-0.000249513
-1.613e-07
2.87348e-09
0.00025031
-3.13572e-08
-0.000267368
0.000267605
8.62671e-09
0.000249489
-1.88204e-07
-2.8263e-08
0.000264567
-0.000265311
3.10653e-08
-0.000260389
-1.3137e-08
1.27558e-08
1.07252e-07
-0.000244474
-0.000250155
-1.70176e-07
-8.69743e-09
-0.000250288
9.29215e-09
-0.00026054
-1.52815e-08
-0.000264598
1.69744e-07
1.28828e-08
1.89201e-07
0.000250174
-0.000250307
2.86182e-08
0.000260413
-0.000260564
-1.38217e-08
-8.64892e-08
-0.000265343
8.89628e-09
-2.13838e-07
0.000266541
1.9646e-07
-2.77719e-09
-0.000266957
2.35504e-10
-0.000249345
-1.82533e-07
-0.000242605
-1.03321e-07
-1.03655e-07
2.30561e-07
2.35859e-07
-1.08015e-07
0.000261307
-0.000261633
-1.08146e-07
0.000261733
-0.00026206
-0.000242717
-8.38322e-07
-8.38117e-07
-0.00114599
4.40772e-07
4.46921e-07
0.00114678
-0.00113696
-1.51025e-06
8.38569e-07
4.14167e-07
0.00113746
-5.10023e-07
1.1236e-06
1.40976e-07
7.39676e-07
-5.57317e-07
-1.24476e-06
7.29378e-08
-0.0011366
-1.50485e-06
8.38345e-07
4.14319e-07
0.0011371
-5.07421e-07
1.11788e-06
1.37713e-07
7.39547e-07
-5.59968e-07
-1.24458e-06
7.64337e-08
-0.000276455
1.53932e-06
1.50482e-06
-4.8834e-07
-4.94138e-07
0.000274393
-1.15917e-06
-1.11907e-06
0.000276471
-0.000274367
8.35726e-08
9.09734e-08
0.00113613
8.42112e-07
-0.00113563
4.1856e-07
-1.54918e-06
1.45137e-07
-5.18498e-07
-1.25114e-06
6.7609e-08
-5.58305e-07
7.40622e-07
1.16484e-06
0.0011366
8.42179e-07
-0.00113609
4.1812e-07
-1.55498e-06
1.47833e-07
-5.21544e-07
-1.25708e-06
7.42953e-08
-5.6405e-07
7.46282e-07
-1.12204e-06
0.000276499
-0.00027439
8.62318e-08
9.12435e-08
0.00113725
8.4388e-07
-0.00113675
4.17444e-07
-1.50958e-06
1.38977e-07
-5.13328e-07
-1.2541e-06
7.42526e-08
-5.63998e-07
7.40632e-07
1.15665e-06
0.00113625
8.48065e-07
-0.00113575
4.17874e-07
-1.54671e-06
1.45006e-07
-5.18655e-07
-1.2513e-06
7.41023e-08
-5.63854e-07
7.40481e-07
8.48938e-07
-0.00113646
4.16446e-07
-1.51191e-06
1.39346e-07
-5.12856e-07
-1.25124e-06
7.08517e-08
7.37799e-07
-5.61128e-07
1.15123e-06
0.00113604
8.48193e-07
-0.00113554
4.1799e-07
-1.54108e-06
1.39071e-07
-5.12883e-07
-1.25131e-06
7.1002e-08
-5.63692e-07
7.40535e-07
-1.11633e-06
0.000276446
-0.000274351
8.59734e-08
9.13931e-08
8.43087e-07
-0.00113611
4.28046e-07
-1.50655e-06
1.36202e-07
-5.10195e-07
-1.24827e-06
7.43569e-08
7.37709e-07
-5.63819e-07
1.11391e-06
0.00113715
8.42838e-07
-0.00113665
4.22142e-07
-1.50929e-06
1.36419e-07
-5.12865e-07
-1.2458e-06
7.11161e-08
-5.6104e-07
7.3536e-07
-0.000274367
8.62374e-08
9.15341e-08
1.54757e-06
1.50781e-06
-4.86041e-07
-4.94065e-07
0.000274396
-1.1547e-06
-1.13861e-06
-0.000274463
1.29296e-07
6.42095e-08
0.000276563
4.15532e-07
0.00113662
-5.15818e-07
1.16072e-06
1.46751e-07
7.42412e-07
-5.54564e-07
-1.24742e-06
6.95876e-08
-1.55333e-06
8.37423e-07
4.15839e-07
0.00113709
-5.18738e-07
1.1664e-06
1.49464e-07
7.48148e-07
-5.60238e-07
-1.25329e-06
7.63648e-08
7.93447e-07
-0.00113758
4.13352e-07
-1.54469e-06
1.36223e-07
-5.16409e-07
-1.24102e-06
4.55284e-08
-5.61521e-07
7.40344e-07
0.00113816
1.17099e-06
8.23181e-07
-0.00113803
4.08507e-07
-1.5478e-06
1.5415e-07
-5.10328e-07
-1.23918e-06
8.26286e-08
-5.48884e-07
7.50971e-07
0.00113849
-4.88891e-07
-4.93787e-07
0.000274419
-1.12817e-06
-0.000274478
9.60771e-08
1.01136e-07
0.00027658
4.1946e-07
0.00113774
-5.10437e-07
1.12074e-06
1.40781e-07
7.45325e-07
-5.60104e-07
-1.2476e-06
7.64579e-08
-1.545e-06
8.37694e-07
4.15517e-07
0.00113674
-5.15847e-07
1.15824e-06
1.46649e-07
7.42306e-07
-5.60031e-07
-1.24764e-06
7.62297e-08
8.33808e-07
-0.00113867
4.36756e-07
-1.49129e-06
1.59845e-07
-4.91589e-07
-1.22827e-06
1.16729e-07
-5.32839e-07
7.5343e-07
0.00113897
1.16282e-06
8.23434e-07
-0.00113769
4.02814e-07
-1.53951e-06
1.51398e-07
-5.07409e-07
-1.23626e-06
8.24326e-08
-5.4872e-07
7.47913e-07
0.00113815
8.37717e-07
4.15677e-07
0.00113654
-5.10091e-07
1.15285e-06
1.40675e-07
7.42386e-07
-5.5717e-07
7.31215e-08
-1.24755e-06
8.24234e-07
-0.00113841
4.06903e-07
-1.50472e-06
1.45739e-07
-5.01659e-07
-1.23338e-06
7.92974e-08
-5.45915e-07
7.4522e-07
0.00113886
1.15737e-06
8.23289e-07
-0.00113748
4.08393e-07
-1.5338e-06
1.45422e-07
-5.01681e-07
-1.23332e-06
7.93573e-08
-5.45852e-07
7.45274e-07
0.00113794
-4.88878e-07
-4.93836e-07
0.000274379
-1.12243e-06
-0.000274439
9.31867e-08
1.01255e-07
0.00027653
8.37993e-07
4.19738e-07
0.00113764
-5.07257e-07
1.11828e-06
1.38032e-07
7.37238e-07
-5.57238e-07
7.32694e-08
-1.24206e-06
8.23845e-07
-0.00113804
4.07582e-07
-1.49931e-06
1.42578e-07
-4.98947e-07
-1.23322e-06
8.27193e-08
-5.48585e-07
7.45075e-07
0.0011385
1.12283e-06
8.23826e-07
-0.00113859
4.06838e-07
-1.49926e-06
1.42823e-07
-4.98904e-07
-1.2307e-06
7.95515e-08
-5.45892e-07
7.42842e-07
0.00113904
-0.000274453
9.61345e-08
1.01397e-07
0.000276536
-0.00114519
4.42656e-07
4.43326e-07
0.001146
-0.00114519
4.42665e-07
4.42826e-07
0.0011456
-0.00114482
4.42598e-07
4.65616e-07
0.00114581
-0.00114502
4.42458e-07
4.59765e-07
-2.07307e-10
6.25275e-08
0.000235846
-0.000235904
-9.00651e-11
-5.02652e-09
-0.000196887
-5.44047e-09
1.32891e-07
-1.63545e-08
0.000196776
-0.000236249
-7.7781e-11
2.39516e-07
0.000236105
-8.50566e-08
-9.66162e-09
1.34411e-08
1.37556e-08
0.000196616
-2.87708e-09
-0.000196641
-9.89436e-05
5.57255e-09
5.96157e-08
9.88784e-05
-1.32375e-08
1.76158e-09
9.88365e-05
-9.88251e-05
6.00613e-08
-1.57182e-10
0.000235878
-0.000235931
-5.15133e-09
-2.2646e-09
-0.000196917
-5.46555e-09
1.30792e-07
-1.62154e-08
0.000196808
-0.000236279
2.39751e-07
3.73989e-10
0.000236132
-1.02052e-08
-8.31002e-08
1.32932e-08
1.56852e-08
0.000196646
-2.53326e-09
-0.000196673
4.40838e-07
4.40959e-07
0.00114679
4.40705e-07
4.41414e-07
0.00114639
4.40571e-07
4.41185e-07
0.0011466
-0.00114835
4.36008e-07
4.641e-07
0.00114907
-0.00114837
4.35343e-07
4.35523e-07
0.00114915
-0.00114796
4.29666e-07
4.3582e-07
0.00114875
-0.00114818
4.3513e-07
4.35578e-07
0.00114895
-6.2727e-08
-1.64921e-09
0.000260056
-0.000259994
-1.77673e-08
1.99987e-08
-0.000252843
-6.10527e-08
-1.32883e-07
3.07149e-07
6.28302e-08
0.000252667
0.00113889
-0.00113821
3.02152e-09
8.99728e-07
7.92298e-07
-1.19454e-06
-1.36374e-06
5.95625e-07
4.11685e-07
1.12515e-06
0.00113794
8.33833e-07
-1.24103e-06
7.51091e-08
-5.53482e-07
7.41506e-07