/*--------------------------------*- C++ -*----------------------------------*\
| =========                 |                                                 |
| \\      /  F ield         | OpenFOAM: The Open Source CFD Toolbox           |
|  \\    /   O peration     | Version:  v1906                                 |
|   \\  /    A nd           | Web:      www.OpenFOAM.com                      |
|    \\/     M anipulation  |                                                 |
\*---------------------------------------------------------------------------*/
FoamFile
{
    version     2.0;
    format      ascii;
    class       volVectorField;
    location    "700";
    object      U;
}
// * * * * * * * * * * * * * * * * * * * * * * * * * * * * * * * * * * * * * //

dimensions      [0 1 -1 0 0 0 0];


internalField   nonuniform List<vector> 
43248
(
(-3.83356e-05 -3.85366e-05 0.104906)
(1.01224e-05 1.76742e-05 0.10828)
(-1.02535e-05 1.77967e-05 0.10828)
(3.83986e-05 -3.83804e-05 0.104907)
(1.78316e-05 1.02836e-05 0.108283)
(1.77829e-05 -1.02059e-05 0.10828)
(-1.77342e-05 1.01932e-05 0.108283)
(-1.77358e-05 -1.02242e-05 0.10828)
(-3.83493e-05 3.84236e-05 0.104906)
(1.01898e-05 -1.77017e-05 0.108282)
(-1.0155e-05 -1.77191e-05 0.108282)
(3.84304e-05 3.8402e-05 0.104906)
(2.27381e-05 2.27548e-05 0.113134)
(-2.27545e-05 2.2758e-05 0.113135)
(2.27456e-05 -2.27089e-05 0.113134)
(-2.27177e-05 -2.27209e-05 0.113134)
(-2.05771e-06 -6.88397e-06 0.0709174)
(-6.8702e-06 -2.0677e-06 0.0709174)
(-5.15244e-06 -8.26698e-06 0.0870348)
(-8.33966e-06 -5.21593e-06 0.087036)
(-4.25933e-07 1.26956e-05 0.0909879)
(-1.60481e-06 -1.14281e-05 0.0816197)
(-6.14831e-07 -1.39854e-05 0.0910342)
(3.57893e-07 1.27031e-05 0.090988)
(1.53973e-06 -1.14661e-05 0.0816198)
(-5.89585e-07 1.1208e-05 0.081562)
(5.85908e-07 -1.3992e-05 0.0910342)
(1.17212e-07 2.50099e-05 0.0985537)
(-6.7833e-06 -1.35013e-05 0.0926819)
(4.72651e-06 2.77275e-05 0.110832)
(4.87343e-06 2.84719e-05 0.110842)
(-4.82686e-07 -1.71961e-05 0.0986108)
(-1.45036e-07 2.50207e-05 0.0985536)
(-1.06168e-05 1.83917e-05 0.108294)
(6.75374e-06 -1.36551e-05 0.0926824)
(-4.72537e-06 2.77468e-05 0.110832)
(-6.80664e-06 1.93842e-05 0.0926203)
(-4.88138e-06 2.84812e-05 0.110842)
(4.50498e-07 -1.7203e-05 0.0986108)
(2.02485e-06 -6.91984e-06 0.0709173)
(-4.62838e-06 5.59245e-06 0.0708531)
(-4.50004e-05 4.49535e-05 0.104759)
(5.1275e-06 -8.32958e-06 0.0870352)
(8.2663e-06 -5.15871e-06 0.0870372)
(-7.09785e-06 7.44842e-06 0.0869788)
(-7.41779e-06 7.03284e-06 0.0869796)
(6.84164e-06 -2.01924e-06 0.0709186)
(-5.54997e-06 4.53851e-06 0.070851)
(-1.1466e-05 -1.56207e-06 0.0816203)
(-1.40088e-05 -5.88668e-07 0.0910339)
(-1.37517e-05 -6.78313e-06 0.0926834)
(2.77345e-05 4.72284e-06 0.110831)
(-1.72026e-05 -4.53596e-07 0.0986106)
(-1.1421e-05 1.54503e-06 0.081621)
(-1.39999e-05 5.73774e-07 0.0910339)
(2.7728e-05 -4.7178e-06 0.110831)
(-1.36055e-05 6.75664e-06 0.0926832)
(-1.71978e-05 4.75807e-07 0.0986106)
(-2.50395e-05 9.05311e-08 0.0985534)
(-1.83297e-05 1.05499e-05 0.108297)
(1.36127e-05 -6.76832e-06 0.0926839)
(-2.77423e-05 4.71684e-06 0.110832)
(-1.93163e-05 6.75407e-06 0.0926211)
(-2.84782e-05 4.85069e-06 0.110842)
(1.71725e-05 -4.74822e-07 0.0986104)
(-1.27104e-05 -4.17159e-07 0.0909877)
(1.1417e-05 -1.54391e-06 0.0816206)
(-1.11757e-05 5.44079e-07 0.0815614)
(1.39623e-05 -6.12451e-07 0.0910339)
(-2.50267e-05 -1.48889e-07 0.0985537)
(-1.83309e-05 -1.05738e-05 0.108294)
(-2.77246e-05 -4.7448e-06 0.110831)
(1.36408e-05 6.74946e-06 0.0926829)
(-2.84635e-05 -4.88926e-06 0.110841)
(-1.93267e-05 -6.8335e-06 0.0926215)
(1.71652e-05 4.36955e-07 0.0986103)
(-1.27003e-05 3.53666e-07 0.0909879)
(1.14651e-05 1.51456e-06 0.0816201)
(-1.11774e-05 -6.23459e-07 0.0815626)
(1.39644e-05 5.76968e-07 0.091034)
(-6.84442e-06 2.01937e-06 0.0709188)
(-8.2985e-06 5.19119e-06 0.0870357)
(-5.14366e-06 8.3603e-06 0.0870367)
(-2.0212e-06 6.9176e-06 0.0709179)
(1.53873e-07 -2.50433e-05 0.0985532)
(4.72632e-06 -2.77013e-05 0.110831)
(-6.74778e-06 1.36952e-05 0.0926836)
(4.87136e-06 -2.84433e-05 0.110841)
(-4.40904e-07 1.71795e-05 0.0986107)
(-8.87134e-08 -2.50371e-05 0.098553)
(-1.05142e-05 -1.83137e-05 0.108296)
(-4.70237e-06 -2.77097e-05 0.110831)
(6.82673e-06 1.36652e-05 0.0926831)
(-4.85061e-06 -2.84444e-05 0.110841)
(-6.8206e-06 -1.9344e-05 0.0926209)
(4.51718e-07 1.71612e-05 0.0986106)
(-3.48285e-07 -1.27526e-05 0.0909883)
(-1.50475e-06 1.14819e-05 0.0816206)
(-5.69058e-07 1.39995e-05 0.0910341)
(4.58508e-07 -1.27494e-05 0.0909881)
(1.61882e-06 1.14446e-05 0.0816207)
(-6.28697e-07 -1.12001e-05 0.0815624)
(5.72811e-07 1.39871e-05 0.0910342)
(-4.49975e-05 -4.50231e-05 0.104759)
(8.35299e-06 5.13731e-06 0.0870365)
(5.22054e-06 8.32138e-06 0.0870347)
(-7.43116e-06 -7.11496e-06 0.0869804)
(-7.09281e-06 -7.44527e-06 0.0869791)
(6.91606e-06 2.01407e-06 0.0709176)
(-5.57019e-06 -4.64047e-06 0.0708539)
(2.09967e-06 6.87761e-06 0.0709174)
(-4.62959e-06 -5.57614e-06 0.0708535)
(4.58099e-06 5.52554e-06 0.0708562)
(5.52624e-06 4.62844e-06 0.0708553)
(8.45945e-06 1.38366e-05 0.0912639)
(-8.07476e-06 -2.04298e-05 0.0961247)
(7.01256e-06 7.34453e-06 0.0869805)
(-3.95802e-06 -7.66592e-06 0.081001)
(4.47873e-06 6.51385e-06 0.0809459)
(1.42014e-05 2.12162e-05 0.0960746)
(-8.18283e-06 -1.64247e-05 0.0913112)
(1.37589e-05 8.36527e-06 0.0912505)
(-2.06816e-05 -8.30322e-06 0.0961322)
(7.3257e-06 7.02285e-06 0.0869769)
(-7.50539e-06 -3.83666e-06 0.0809991)
(6.45797e-06 4.3776e-06 0.0809382)
(2.11957e-05 1.41651e-05 0.0960654)
(-1.63956e-05 -8.28579e-06 0.0913149)
(5.73822e-06 5.74541e-06 0.0830577)
(-5.5601e-06 -4.08804e-06 0.0678216)
(-4.10445e-06 -5.49949e-06 0.0678166)
(5.53244e-06 3.49198e-06 0.0677588)
(3.47535e-06 5.46154e-06 0.0677521)
(-6.74266e-06 -6.60142e-06 0.0831101)
(2.42368e-08 -6.74034e-06 0.0762633)
(-6.61091e-07 6.33844e-06 0.0780009)
(-1.38214e-09 1.26527e-05 0.0894186)
(-6.24701e-07 -1.38934e-05 0.0910392)
(-9.2365e-07 7.05273e-06 0.0762068)
(-4.34705e-07 -7.02404e-06 0.0780494)
(-1.12988e-06 -1.3345e-05 0.0894766)
(-7.3904e-07 6.39522e-06 0.0677437)
(6.21094e-07 1.10966e-05 0.0815625)
(-1.55841e-06 -1.16899e-05 0.0852752)
(-4.91907e-07 9.67939e-06 0.0852105)
(6.91967e-08 -6.64472e-06 0.067818)
(-9.13091e-07 6.99084e-06 0.0762074)
(-4.21132e-07 1.25183e-05 0.090983)
(-4.21815e-07 -7.04132e-06 0.0780495)
(-1.12766e-06 -1.34424e-05 0.089473)
(-6.52545e-07 6.28512e-06 0.078001)
(-7.78944e-09 1.24966e-05 0.0894152)
(4.21312e-08 -6.75849e-06 0.0762639)
(-7.27357e-08 -6.80826e-06 0.0762629)
(6.01566e-07 6.34385e-06 0.0780012)
(-5.93208e-08 1.26865e-05 0.089419)
(5.81366e-07 -1.38999e-05 0.0910392)
(8.73345e-07 7.09315e-06 0.0762089)
(3.90426e-07 -7.02939e-06 0.0780495)
(1.09132e-06 -1.34327e-05 0.0894762)
(6.87143e-07 6.47497e-06 0.0677446)
(-6.20523e-07 1.11027e-05 0.0815624)
(1.52277e-06 -1.17476e-05 0.0852741)
(4.67901e-07 9.71103e-06 0.0852106)
(-8.66671e-08 -6.71913e-06 0.0678147)
(-6.22183e-08 -6.72366e-06 0.067813)
(4.80979e-07 9.81307e-06 0.0852115)
(1.57171e-06 -1.14213e-05 0.0816195)
(7.03829e-07 6.50866e-06 0.0677428)
(1.54605e-06 -1.1705e-05 0.0852752)
(8.60641e-07 7.03963e-06 0.0762095)
(3.6116e-07 1.2527e-05 0.090983)
(3.86333e-07 -7.04198e-06 0.0780495)
(1.0884e-06 -1.34926e-05 0.0894726)
(5.94418e-07 6.29388e-06 0.0780013)
(-5.48707e-08 1.25371e-05 0.0894156)
(-8.79784e-08 -6.82023e-06 0.0762635)
(-4.63141e-06 5.54622e-06 0.0708555)
(2.03576e-06 -6.9147e-06 0.0709151)
(6.59859e-06 -6.64687e-06 0.083111)
(-5.55477e-06 3.50101e-06 0.067752)
(-3.53002e-06 5.50915e-06 0.0677573)
(-5.85364e-06 5.80455e-06 0.0830585)
(5.50434e-06 -4.11573e-06 0.0678157)
(4.07172e-06 -5.55506e-06 0.067821)
(-8.45922e-06 1.37331e-05 0.0912536)
(8.18283e-06 -2.05986e-05 0.0961274)
(-7.0528e-06 7.33832e-06 0.0869777)
(3.84402e-06 -7.57399e-06 0.0809982)
(-1.42285e-05 2.12319e-05 0.0960681)
(-4.44655e-06 6.44142e-06 0.0809394)
(8.2474e-06 -1.634e-05 0.0913101)
(-1.37608e-05 8.39179e-06 0.0912607)
(2.05518e-05 -8.22586e-06 0.0961307)
(-7.30944e-06 6.99149e-06 0.0869786)
(7.52463e-06 -3.89951e-06 0.081003)
(-6.45412e-06 4.42141e-06 0.0809439)
(-2.12001e-05 1.41636e-05 0.0960717)
(1.63152e-05 -8.27447e-06 0.091317)
(8.1833e-06 -1.62634e-05 0.0913134)
(-4.45669e-06 6.53075e-06 0.0809392)
(-1.44024e-05 2.15013e-05 0.0960743)
(5.11911e-06 -8.26181e-06 0.0870364)
(8.05507e-06 -2.04601e-05 0.0961338)
(-8.5718e-06 1.39187e-05 0.0912568)
(3.85164e-06 -7.51239e-06 0.0809981)
(1.62383e-05 -8.2135e-06 0.0913203)
(-6.54606e-06 4.43178e-06 0.0809437)
(-2.14687e-05 1.43384e-05 0.0960779)
(8.20051e-06 -5.14924e-06 0.0870384)
(-1.39512e-05 8.50281e-06 0.0912638)
(7.46837e-06 -3.91142e-06 0.0810028)
(2.04132e-05 -8.09778e-06 0.096137)
(-5.77837e-06 5.73203e-06 0.0830579)
(5.50071e-06 -4.12017e-06 0.0678166)
(4.07736e-06 -5.55036e-06 0.0678219)
(-5.52362e-06 3.47565e-06 0.067753)
(-3.50202e-06 5.48031e-06 0.0677583)
(6.63856e-06 -6.68588e-06 0.0831103)
(-5.5037e-06 4.54201e-06 0.0708534)
(6.83325e-06 -2.03034e-06 0.0709163)
(6.46824e-06 -6.82499e-07 0.0677451)
(1.10769e-05 6.24591e-07 0.0815625)
(-1.17339e-05 -1.52759e-06 0.0852741)
(9.70836e-06 -4.61285e-07 0.0852112)
(-6.70776e-06 7.4066e-08 0.067815)
(7.07733e-06 -8.68809e-07 0.0762102)
(1.2568e-05 -3.75496e-07 0.0909837)
(-1.34717e-05 -1.08603e-06 0.0894726)
(-7.07162e-06 -4.07597e-07 0.078049)
(1.25573e-05 4.01337e-08 0.089416)
(6.35087e-06 -6.10653e-07 0.0780031)
(-6.81311e-06 7.5846e-08 0.0762637)
(6.40608e-06 7.45272e-07 0.0677439)
(1.10537e-05 -5.95135e-07 0.0815618)
(-1.1701e-05 1.50395e-06 0.0852757)
(9.68613e-06 5.1668e-07 0.0852108)
(-6.66066e-06 -1.2573e-07 0.0678184)
(7.00623e-06 9.15213e-07 0.0762082)
(1.25632e-05 4.35952e-07 0.0909838)
(-7.04962e-06 3.65062e-07 0.078049)
(-1.34392e-05 1.06334e-06 0.0894732)
(6.33345e-06 6.44882e-07 0.0780028)
(1.25143e-05 3.0387e-08 0.0894157)
(-6.77473e-06 -1.12879e-07 0.0762642)
(6.79978e-06 5.54676e-08 0.0762628)
(-1.27188e-05 2.02187e-08 0.0894187)
(-6.35541e-06 -6.59784e-07 0.0780011)
(1.3876e-05 -6.10866e-07 0.0910389)
(-7.10705e-06 -9.1434e-07 0.0762088)
(1.34112e-05 -1.10532e-06 0.089476)
(7.01643e-06 -4.22934e-07 0.0780493)
(-6.4806e-06 -7.09324e-07 0.0677446)
(-1.10783e-05 5.7258e-07 0.0815617)
(1.17407e-05 -1.5277e-06 0.0852744)
(-9.7282e-06 -5.02009e-07 0.0852105)
(6.7175e-06 7.41232e-08 0.067815)
(6.72001e-06 5.46115e-08 0.0678132)
(-9.82947e-06 -5.12236e-07 0.0852114)
(1.13803e-05 -1.57714e-06 0.0816203)
(-6.51541e-06 -7.22991e-07 0.0677428)
(1.16994e-05 -1.54813e-06 0.0852754)
(-7.05567e-06 -8.98176e-07 0.0762094)
(-1.25442e-05 -4.18523e-07 0.0909828)
(1.34705e-05 -1.10445e-06 0.0894724)
(7.03202e-06 -4.14944e-07 0.0780493)
(-1.25571e-05 1.30816e-08 0.0894152)
(-6.30846e-06 -6.47797e-07 0.0780012)
(6.79954e-06 7.35445e-08 0.0762634)
(6.81168e-06 -8.1397e-08 0.0762625)
(-6.34355e-06 5.95649e-07 0.0780011)
(-1.27002e-05 -7.26717e-08 0.089419)
(1.38759e-05 5.85309e-07 0.091039)
(-7.08995e-06 8.58387e-07 0.0762085)
(7.02052e-06 3.95444e-07 0.0780493)
(1.34e-05 1.08035e-06 0.0894761)
(-6.46128e-06 6.49515e-07 0.0677469)
(-1.10722e-05 -6.5668e-07 0.081563)
(1.17492e-05 1.4986e-06 0.0852751)
(-9.69351e-06 4.28299e-07 0.0852116)
(6.71755e-06 -1.06911e-07 0.067817)
(6.7219e-06 -8.67235e-08 0.0678152)
(-9.8011e-06 4.42304e-07 0.0852126)
(1.1427e-05 1.55309e-06 0.0816198)
(-6.49518e-06 6.68672e-07 0.067745)
(1.17028e-05 1.5216e-06 0.0852761)
(-7.03764e-06 8.35752e-07 0.0762092)
(-1.25308e-05 3.44096e-07 0.090983)
(7.03375e-06 3.77853e-07 0.0780493)
(1.34858e-05 1.07217e-06 0.0894726)
(-6.29572e-06 5.76727e-07 0.0780012)
(-1.25323e-05 -7.37123e-08 0.0894156)
(6.82316e-06 -1.04101e-07 0.0762631)
(5.49421e-06 -4.56563e-06 0.0708533)
(1.37192e-05 -8.4198e-06 0.0912533)
(-2.05573e-05 8.23181e-06 0.0961276)
(7.33067e-06 -7.02963e-06 0.0869764)
(-7.53648e-06 3.9229e-06 0.0809978)
(2.12101e-05 -1.41816e-05 0.0960679)
(6.4509e-06 -4.46695e-06 0.0809384)
(-1.62823e-05 8.29398e-06 0.0913098)
(8.40174e-06 -1.37154e-05 0.0912605)
(-8.2032e-06 2.06073e-05 0.0961303)
(7.05009e-06 -7.31802e-06 0.0869796)
(-3.83976e-06 7.59834e-06 0.081003)
(4.42463e-06 -6.43879e-06 0.0809441)
(1.41993e-05 -2.11783e-05 0.0960716)
(-8.21437e-06 1.63477e-05 0.0913167)
(5.74286e-06 -5.74384e-06 0.0830577)
(-4.07156e-06 5.56494e-06 0.0678158)
(-5.50119e-06 4.11094e-06 0.0678218)
(3.48034e-06 -5.51751e-06 0.0677521)
(5.49944e-06 -3.48474e-06 0.0677583)
(-6.62688e-06 6.68493e-06 0.08311)
(4.63968e-06 -5.52535e-06 0.0708565)
(9.44875e-08 6.81051e-06 0.0762629)
(8.18805e-08 -1.26958e-05 0.0894193)
(-5.77647e-07 -6.39828e-06 0.0780029)
(-5.77014e-07 1.39184e-05 0.0910391)
(-8.35394e-07 -7.0989e-06 0.0762092)
(-1.06276e-06 1.34185e-05 0.0894765)
(-3.86219e-07 7.07781e-06 0.0780491)
(-6.33851e-07 -6.4524e-06 0.0677478)
(6.51941e-07 -1.10743e-05 0.0815635)
(-1.48774e-06 1.17591e-05 0.0852752)
(-4.17589e-07 -9.70191e-06 0.0852125)
(1.06797e-07 6.71723e-06 0.0678175)
(8.70917e-08 6.72164e-06 0.0678157)
(-1.50204e-06 1.17067e-05 0.0852763)
(-8.22016e-07 -7.0448e-06 0.0762099)
(-3.46805e-07 -1.25798e-05 0.0909834)
(-1.05726e-06 1.34918e-05 0.0894729)
(-3.73973e-07 7.08971e-06 0.0780491)
(8.19913e-08 -1.25603e-05 0.089416)
(-5.69917e-07 -6.35585e-06 0.078003)
(1.12204e-07 6.82003e-06 0.0762635)
(-9.0588e-08 6.76861e-06 0.0762648)
(1.51445e-08 -1.26837e-05 0.0894182)
(6.87448e-07 -6.39966e-06 0.0780027)
(5.77166e-07 1.39103e-05 0.0910392)
(9.2874e-07 -7.08598e-06 0.076208)
(1.06308e-06 1.33708e-05 0.0894773)
(3.98588e-07 7.05775e-06 0.0780493)
(7.16593e-07 -6.42166e-06 0.0677425)
(-6.52138e-07 -1.10924e-05 0.0815628)
(1.54709e-06 1.17061e-05 0.0852758)
(4.70464e-07 -9.68652e-06 0.0852099)
(-1.05184e-07 6.65855e-06 0.0678176)
(-8.75082e-08 6.66302e-06 0.0678159)
(4.82904e-07 -9.78826e-06 0.0852109)
(1.65487e-06 1.14142e-05 0.0816204)
(7.3487e-07 -6.45468e-06 0.0677408)
(1.56121e-06 1.16615e-05 0.0852767)
(9.15058e-07 -7.04065e-06 0.0762086)
(4.57578e-07 -1.25817e-05 0.0909832)
(1.05855e-06 1.34488e-05 0.0894738)
(3.90086e-07 7.06433e-06 0.0780493)
(1.77911e-08 -1.25408e-05 0.0894147)
(6.79094e-07 -6.35429e-06 0.0780028)
(-1.0759e-07 6.78528e-06 0.0762654)
(6.6377e-06 6.58768e-06 0.0831109)
(-3.48449e-06 -5.55264e-06 0.0677577)
(-5.51171e-06 -3.52345e-06 0.067752)
(-5.79467e-06 -5.82961e-06 0.0830587)
(4.10601e-06 5.50638e-06 0.0678212)
(5.56128e-06 4.06279e-06 0.0678152)
(-1.37089e-05 -8.41381e-06 0.0912608)
(2.05967e-05 8.16299e-06 0.0961299)
(-7.31919e-06 -7.0715e-06 0.0869793)
(7.57802e-06 3.83013e-06 0.0810028)
(-2.11919e-05 -1.4205e-05 0.0960717)
(-6.42182e-06 -4.45699e-06 0.0809442)
(1.63377e-05 8.20416e-06 0.0913166)
(-8.39602e-06 -1.37356e-05 0.091254)
(8.2549e-06 2.05755e-05 0.0961271)
(-7.04462e-06 -7.3405e-06 0.086978)
(3.91911e-06 7.56417e-06 0.0809975)
(-1.41787e-05 -2.11914e-05 0.0960686)
(-4.43485e-06 -6.48563e-06 0.0809399)
(8.29759e-06 1.63127e-05 0.0913098)
(1.6253e-05 8.13964e-06 0.0913199)
(-6.51725e-06 -4.46648e-06 0.080944)
(-2.14675e-05 -1.43779e-05 0.0960779)
(8.28201e-06 5.13095e-06 0.0870377)
(-1.38947e-05 -8.52311e-06 0.091264)
(2.04516e-05 8.04551e-06 0.0961363)
(7.5182e-06 3.84438e-06 0.0810027)
(8.22821e-06 1.62361e-05 0.091313)
(-4.44513e-06 -6.56804e-06 0.0809397)
(-1.4355e-05 -2.14642e-05 0.0960748)
(5.20038e-06 8.24912e-06 0.0870359)
(-8.51013e-06 -1.39183e-05 0.0912572)
(8.12361e-06 2.04347e-05 0.0961335)
(3.92982e-06 7.51207e-06 0.0809974)
(-5.71805e-06 -5.75775e-06 0.083058)
(4.11419e-06 5.49913e-06 0.0678221)
(5.5595e-06 4.06639e-06 0.0678161)
(-3.4556e-06 -5.526e-06 0.0677587)
(-5.47966e-06 -3.49944e-06 0.0677529)
(6.68398e-06 6.62637e-06 0.0831101)
(-5.52085e-06 -4.64368e-06 0.0708562)
(6.90753e-06 2.02757e-06 0.0709153)
(-4.62537e-06 -5.52887e-06 0.0708559)
(2.10872e-06 6.87059e-06 0.0709152)
(1.8801e-05 1.88278e-05 0.0974182)
(4.45325e-05 4.45766e-05 0.104745)
(-3.98755e-05 -2.12596e-05 0.101727)
(-2.11471e-05 -3.98744e-05 0.101732)
(4.32223e-05 2.43386e-05 0.101643)
(2.4293e-05 4.32306e-05 0.101636)
(-1.97927e-05 -2.00963e-05 0.0974883)
(-1.88619e-05 1.87856e-05 0.0974182)
(-4.45443e-05 4.44962e-05 0.104745)
(3.99407e-05 -2.11945e-05 0.101728)
(2.11991e-05 -3.99756e-05 0.101732)
(-4.32685e-05 2.42861e-05 0.101638)
(-2.43141e-05 4.32259e-05 0.101642)
(2.00006e-05 -1.9993e-05 0.0974889)
(1.87906e-05 -1.88267e-05 0.0974183)
(4.45193e-05 -4.45373e-05 0.104745)
(-2.11535e-05 3.99884e-05 0.101728)
(-3.99639e-05 2.12395e-05 0.101731)
(2.42773e-05 -4.32405e-05 0.101638)
(4.32353e-05 -2.42723e-05 0.101642)
(-1.99386e-05 2.00327e-05 0.0974884)
(-1.87886e-05 -1.88029e-05 0.0974185)
(-4.44984e-05 -4.45222e-05 0.104745)
(2.12364e-05 3.99694e-05 0.101731)
(3.99991e-05 2.12063e-05 0.101728)
(-2.42764e-05 -4.32678e-05 0.101642)
(-4.32027e-05 -2.42779e-05 0.101638)
(2.00153e-05 1.9963e-05 0.0974884)
(1.04022e-05 3.15753e-05 0.115006)
(3.15258e-05 1.04246e-05 0.115006)
(1.05504e-05 3.19956e-05 0.11498)
(1.32022e-05 1.32381e-05 0.116309)
(1.30881e-05 1.3125e-05 0.116357)
(-2.32013e-05 2.32022e-05 0.113129)
(-1.04231e-05 3.15739e-05 0.115006)
(-3.15388e-05 1.04279e-05 0.115007)
(-1.0567e-05 3.20037e-05 0.11498)
(-3.19756e-05 1.05708e-05 0.114981)
(-1.32115e-05 1.32398e-05 0.116309)
(-1.30993e-05 1.31242e-05 0.116357)
(3.15423e-05 -1.03927e-05 0.115005)
(1.04257e-05 -3.15002e-05 0.115006)
(1.05808e-05 -3.1934e-05 0.11498)
(1.32149e-05 -1.31657e-05 0.116309)
(1.30941e-05 -1.30568e-05 0.116357)
(-2.31691e-05 -2.31687e-05 0.113128)
(-3.15295e-05 -1.03977e-05 0.115005)
(-1.04029e-05 -3.15019e-05 0.115006)
(-3.19768e-05 -1.05409e-05 0.114979)
(-1.0549e-05 -3.19388e-05 0.11498)
(-1.3208e-05 -1.31679e-05 0.116309)
(-1.30945e-05 -1.30591e-05 0.116357)
(8.90309e-07 -4.18071e-05 0.103364)
(1.59613e-06 2.49951e-05 0.0974886)
(8.5286e-07 5.81506e-05 0.103957)
(-4.92872e-07 -1.69848e-05 0.0986219)
(4.12836e-06 5.77671e-05 0.103208)
(-1.09649e-06 -1.73964e-05 0.0975671)
(6.6158e-07 -3.99702e-05 0.104085)
(8.14258e-06 5.56672e-05 0.101539)
(-5.74236e-06 -4.3791e-05 0.0996179)
(6.72228e-06 1.91401e-05 0.0926171)
(-3.54447e-06 -1.83763e-05 0.0954619)
(1.23946e-05 5.27658e-05 0.0995442)
(3.33517e-06 2.17213e-05 0.0953825)
(-2.01662e-06 -4.54736e-05 0.101674)
(4.01201e-06 5.70957e-05 0.103195)
(1.01931e-07 2.46831e-05 0.0985428)
(-1.12638e-06 -1.76145e-05 0.0975574)
(6.35933e-07 -4.02768e-05 0.104071)
(1.55021e-06 2.46931e-05 0.0974793)
(8.22307e-07 5.7459e-05 0.103943)
(8.02518e-07 -4.21385e-05 0.10335)
(-9.40593e-07 -4.18836e-05 0.103363)
(-1.62447e-06 2.50298e-05 0.0974878)
(-8.50024e-07 5.81561e-05 0.103957)
(4.2115e-07 -1.69838e-05 0.0986218)
(-4.11898e-06 5.77462e-05 0.103207)
(1.03908e-06 -1.74498e-05 0.0975666)
(-6.99131e-07 -3.99625e-05 0.104085)
(-8.14794e-06 5.56543e-05 0.101538)
(5.66223e-06 -4.37754e-05 0.0996183)
(-6.74643e-06 1.91572e-05 0.092616)
(3.49159e-06 -1.84345e-05 0.0954615)
(-3.35608e-06 2.17442e-05 0.0953812)
(-1.23948e-05 5.28001e-05 0.0995416)
(1.85327e-06 -4.54447e-05 0.101674)
(1.76197e-06 -4.52947e-05 0.101686)
(-3.40324e-06 2.19787e-05 0.0953883)
(-1.25556e-05 5.32723e-05 0.0995506)
(6.74194e-06 -1.34961e-05 0.0926869)
(-8.27863e-06 5.61807e-05 0.10155)
(3.47397e-06 -1.82879e-05 0.0954688)
(5.54957e-06 -4.35988e-05 0.0996275)
(-4.04214e-06 5.71938e-05 0.103194)
(-1.24164e-07 2.46956e-05 0.0985426)
(1.06962e-06 -1.76435e-05 0.0975572)
(-6.70403e-07 -4.02655e-05 0.10407)
(-1.58256e-06 2.47279e-05 0.0974785)
(-8.1165e-07 5.74787e-05 0.103943)
(-8.62972e-07 -4.21354e-05 0.10335)
(1.98837e-05 -1.98758e-05 0.0974961)
(3.82467e-05 -3.8227e-05 0.104922)
(-4.36596e-05 2.46275e-05 0.101648)
(-2.46439e-05 4.36044e-05 0.101652)
(3.98415e-05 -2.10196e-05 0.101739)
(-1.91242e-05 1.90463e-05 0.0974251)
(2.10245e-05 -3.98774e-05 0.101742)
(5.56525e-05 8.18957e-06 0.101538)
(-4.38352e-05 -5.69839e-06 0.0996202)
(1.90811e-05 6.74087e-06 0.0926163)
(-1.84569e-05 -3.48109e-06 0.095462)
(5.27513e-05 1.23748e-05 0.099542)
(2.17287e-05 3.38275e-06 0.0953817)
(-4.54765e-05 -1.78476e-06 0.101675)
(5.72879e-05 4.06798e-06 0.103194)
(2.47218e-05 1.2569e-07 0.0985425)
(-1.76465e-05 -1.07111e-06 0.0975572)
(-4.02575e-05 6.81839e-07 0.10407)
(2.47498e-05 1.5876e-06 0.0974786)
(5.75346e-05 8.21167e-07 0.103943)
(-4.21111e-05 8.87206e-07 0.10335)
(5.56605e-05 -8.10552e-06 0.101538)
(-4.37742e-05 5.70275e-06 0.0996185)
(1.91189e-05 -6.6884e-06 0.0926161)
(-1.83997e-05 3.48589e-06 0.0954624)
(2.173e-05 -3.3002e-06 0.0953823)
(5.27798e-05 -1.2346e-05 0.099542)
(-4.54303e-05 1.88148e-06 0.101674)
(5.72172e-05 -3.99145e-06 0.103194)
(2.47168e-05 -7.45075e-08 0.0985428)
(-4.02816e-05 -6.33355e-07 0.10407)
(-1.76081e-05 1.08599e-06 0.0975574)
(5.75429e-05 -7.79684e-07 0.103943)
(2.47147e-05 -1.52151e-06 0.0974791)
(-4.20797e-05 -8.47173e-07 0.10335)
(4.18327e-05 9.29927e-07 0.103364)
(-2.50502e-05 1.57743e-06 0.0974874)
(-5.8176e-05 7.96699e-07 0.103957)
(1.69506e-05 -4.46428e-07 0.0986215)
(-5.77999e-05 4.0847e-06 0.103207)
(1.74263e-05 -1.04435e-06 0.0975669)
(3.99304e-05 6.93734e-07 0.104085)
(-5.56402e-05 8.13919e-06 0.101539)
(4.37725e-05 -5.71803e-06 0.0996204)
(-1.90951e-05 6.69561e-06 0.0926168)
(1.84208e-05 -3.49356e-06 0.0954626)
(-5.27587e-05 1.23702e-05 0.0995442)
(-2.17246e-05 3.31707e-06 0.0953814)
(4.54326e-05 -1.89556e-06 0.101676)
(4.52937e-05 -1.81039e-06 0.101688)
(-2.19649e-05 3.37003e-06 0.0953885)
(-5.3224e-05 1.25323e-05 0.0995532)
(1.34505e-05 -6.75664e-06 0.0926883)
(-5.61683e-05 8.26912e-06 0.101551)
(4.36013e-05 -5.60486e-06 0.0996297)
(1.82748e-05 -3.48262e-06 0.0954699)
(-5.72339e-05 4.0057e-06 0.103194)
(-2.47143e-05 6.32102e-08 0.0985425)
(1.76237e-05 -1.07657e-06 0.0975574)
(4.0222e-05 6.64662e-07 0.10407)
(-2.47461e-05 1.53112e-06 0.0974781)
(-5.75028e-05 7.6262e-07 0.103943)
(4.20469e-05 8.58431e-07 0.103351)
(4.18698e-05 -9.44153e-07 0.103363)
(-5.81634e-05 -8.84799e-07 0.103957)
(-2.50251e-05 -1.63804e-06 0.0974882)
(1.69458e-05 4.35494e-07 0.0986214)
(-5.77747e-05 -4.14456e-06 0.103207)
(3.99476e-05 -6.88913e-07 0.104084)
(1.74077e-05 1.03103e-06 0.0975668)
(-5.5642e-05 -8.17862e-06 0.101539)
(4.38023e-05 5.68295e-06 0.0996193)
(-1.90957e-05 -6.76992e-06 0.0926171)
(1.84284e-05 3.48634e-06 0.0954624)
(-2.17154e-05 -3.38946e-06 0.0953823)
(-5.27593e-05 -1.24008e-05 0.0995438)
(4.54564e-05 1.86027e-06 0.101674)
(4.53012e-05 1.76793e-06 0.101687)
(-2.19533e-05 -3.44946e-06 0.0953894)
(-5.32171e-05 -1.25597e-05 0.0995527)
(1.34855e-05 6.73697e-06 0.0926874)
(-5.61717e-05 -8.31095e-06 0.101551)
(1.8278e-05 3.45523e-06 0.0954697)
(4.3641e-05 5.57227e-06 0.0996286)
(-5.7179e-05 -4.06161e-06 0.103195)
(-2.47056e-05 -1.46745e-07 0.0985428)
(4.02454e-05 -6.51754e-07 0.10407)
(1.76114e-05 1.05612e-06 0.0975573)
(-5.75018e-05 -8.52645e-07 0.103943)
(-2.47201e-05 -1.59484e-06 0.0974789)
(4.2149e-05 -8.66893e-07 0.10335)
(9.59659e-07 4.18206e-05 0.103364)
(8.56031e-07 -5.81685e-05 0.103957)
(1.64055e-06 -2.5023e-05 0.0974879)
(-4.341e-07 1.69635e-05 0.0986217)
(4.11861e-06 -5.77723e-05 0.103207)
(7.05483e-07 3.99647e-05 0.104084)
(-1.04095e-06 1.74386e-05 0.0975672)
(8.16276e-06 -5.56288e-05 0.101539)
(-5.69962e-06 4.38588e-05 0.0996204)
(6.77708e-06 -1.91103e-05 0.0926176)
(-3.47272e-06 1.84608e-05 0.0954629)
(1.24013e-05 -5.27361e-05 0.0995441)
(3.40471e-06 -2.17292e-05 0.0953828)
(-1.86583e-06 4.55128e-05 0.101676)
(-1.7695e-06 4.53479e-05 0.101688)
(-3.45724e-06 1.83161e-05 0.0954703)
(4.0488e-06 -5.72306e-05 0.103195)
(1.30366e-07 -2.47144e-05 0.0985422)
(6.76968e-07 4.02339e-05 0.10407)
(-1.05067e-06 1.76383e-05 0.0975576)
(8.25555e-07 -5.75376e-05 0.103943)
(1.61128e-06 -2.47302e-05 0.0974787)
(8.76044e-07 4.2124e-05 0.10335)
(-9.37027e-07 4.18198e-05 0.103363)
(-8.15667e-07 -5.81618e-05 0.103957)
(-1.58063e-06 -2.5006e-05 0.0974873)
(4.49414e-07 1.69463e-05 0.0986216)
(-4.07859e-06 -5.77818e-05 0.103207)
(-6.85038e-07 3.99325e-05 0.104084)
(1.04258e-06 1.73861e-05 0.097567)
(-8.11931e-06 -5.56149e-05 0.101538)
(5.73671e-06 4.38183e-05 0.0996188)
(-6.76334e-06 -1.91279e-05 0.0926166)
(3.52331e-06 1.84091e-05 0.0954624)
(-3.36886e-06 -2.17023e-05 0.0953813)
(-1.23703e-05 -5.27511e-05 0.0995424)
(1.89281e-06 4.5476e-05 0.101675)
(1.80152e-06 4.53183e-05 0.101687)
(-3.41086e-06 -2.19363e-05 0.0953885)
(-1.25307e-05 -5.32211e-05 0.0995514)
(6.8095e-06 1.35072e-05 0.0926875)
(-8.24897e-06 -5.61372e-05 0.10155)
(3.50016e-06 1.82597e-05 0.0954696)
(5.62296e-06 4.36476e-05 0.0996281)
(-3.99984e-06 -5.72129e-05 0.103194)
(-7.01369e-08 -2.47095e-05 0.0985421)
(-6.5241e-07 4.02101e-05 0.10407)
(1.06044e-06 1.75894e-05 0.0975576)
(-7.83487e-07 -5.75109e-05 0.103943)
(-1.54196e-06 -2.47048e-05 0.097478)
(-8.6039e-07 4.20749e-05 0.10335)
(1.9897e-05 1.98453e-05 0.0974955)
(3.8273e-05 3.82403e-05 0.104921)
(-2.46142e-05 -4.36493e-05 0.101652)
(-4.3584e-05 -2.46119e-05 0.101648)
(-1.90513e-05 -1.90659e-05 0.0974254)
(2.10406e-05 3.98532e-05 0.101741)
(3.9886e-05 2.10199e-05 0.101738)
(6.10482e-05 6.10221e-05 0.108908)
(-9.17095e-05 5.68877e-05 0.107966)
(5.69387e-05 -9.17817e-05 0.107966)
(-0.000146112 -0.000146182 0.106634)
(9.82965e-06 9.73144e-06 0.106791)
(5.73893e-05 9.21584e-05 0.107918)
(-5.74701e-05 9.23121e-05 0.107918)
(-9.73551e-06 9.73597e-06 0.106792)
(9.2351e-05 5.74055e-05 0.107919)
(9.23599e-05 -5.74243e-05 0.107918)
(-9.2204e-05 5.71998e-05 0.107919)
(-9.22546e-05 -5.72958e-05 0.107918)
(9.78975e-06 -9.67298e-06 0.106791)
(5.72383e-05 -9.227e-05 0.107919)
(-5.71613e-05 -9.21351e-05 0.107919)
(-9.67298e-06 -9.67388e-06 0.106791)
(0.000146149 0.000146171 0.106634)
(7.1525e-06 7.14057e-06 0.10683)
(5.70676e-05 9.17983e-05 0.107966)
(-5.71665e-05 9.18226e-05 0.107965)
(5.6206e-05 8.99752e-05 0.1081)
(-5.62753e-05 9.0297e-05 0.1081)
(-0.000146172 0.00014609 0.106634)
(-6.96667e-06 6.96934e-06 0.106831)
(9.17461e-05 5.69546e-05 0.107966)
(9.18655e-05 -5.71153e-05 0.107965)
(9.03806e-05 5.63201e-05 0.108101)
(9.03292e-05 -5.62284e-05 0.1081)
(-9.17539e-05 -5.69877e-05 0.107965)
(-9.01664e-05 5.60043e-05 0.108101)
(-9.02168e-05 -5.60974e-05 0.1081)
(0.000146156 -0.000146203 0.106634)
(7.04123e-06 -6.90226e-06 0.10683)
(-5.6853e-05 -9.16379e-05 0.107966)
(5.60546e-05 -9.02459e-05 0.108101)
(-5.59553e-05 -9.01003e-05 0.108101)
(-6.88823e-06 -6.90774e-06 0.10683)
(6.13579e-05 6.13395e-05 0.108832)
(-6.13804e-05 6.12958e-05 0.108832)
(6.13287e-05 -6.13571e-05 0.108832)
(-6.13405e-05 -6.13374e-05 0.108832)
(1.1765e-06 1.07878e-05 0.0940543)
(-1.49952e-06 3.26534e-05 0.0835755)
(1.87989e-06 5.77663e-05 0.0940778)
(-4.2046e-06 -4.85035e-06 0.0835805)
(-3.62821e-06 1.48141e-05 0.0721603)
(5.46633e-06 -5.58659e-06 0.0721978)
(1.07639e-05 1.2266e-06 0.0940536)
(3.2725e-05 -1.47295e-06 0.0835767)
(5.78833e-05 1.99455e-06 0.0940782)
(-4.8991e-06 -4.13873e-06 0.08358)
(-6.1075e-05 6.09885e-05 0.108908)
(6.1022e-05 -6.10557e-05 0.108908)
(-6.10332e-05 -6.10289e-05 0.108908)
(6.01351e-05 6.01499e-05 0.109132)
(-6.01415e-05 6.00677e-05 0.109132)
(6.00985e-05 -6.01274e-05 0.109132)
(-6.00931e-05 -6.00952e-05 0.109132)
(-4.89773e-05 3.953e-06 0.102491)
(-6.49747e-05 2.62441e-05 0.0957157)
(-0.000101805 2.00668e-05 0.108605)
(-9.12102e-05 5.65825e-05 0.108012)
(-0.000111147 5.63492e-06 0.102466)
(-2.15485e-05 -3.94991e-07 0.0957347)
(-0.000101449 1.99182e-05 0.108671)
(1.47468e-05 -3.49888e-06 0.0721572)
(-5.57384e-06 5.51597e-06 0.0721996)
(3.93959e-06 -4.89893e-05 0.102491)
(2.01243e-05 -0.000101739 0.108605)
(2.63594e-05 -6.49819e-05 0.0957167)
(5.6648e-05 -9.12832e-05 0.108012)
(5.72416e-06 -0.000111165 0.102465)
(1.99812e-05 -0.000101372 0.10867)
(-3.91696e-07 -2.13705e-05 0.0957334)
(-3.18502e-05 -1.7375e-05 0.0893933)
(-1.72508e-05 -3.19203e-05 0.0893916)
(-8.23253e-06 -8.24091e-06 0.106814)
(-1.07346e-05 2.99671e-06 0.0893983)
(3.17176e-06 -1.08175e-05 0.0893959)
(-5.56347e-06 -5.43043e-06 0.0722795)
(3.49845e-06 1.51222e-05 0.0722398)
(-5.4248e-06 -5.53267e-06 0.0722771)
(1.51785e-05 3.58652e-06 0.0722404)
(0.000147883 0.000147949 0.106613)
(-2.797e-06 1.19756e-05 0.0895315)
(1.18052e-05 -2.82778e-06 0.0895291)
(1.77838e-05 3.29997e-05 0.0895287)
(3.31071e-05 1.77978e-05 0.0895265)
(2.08943e-06 6.05917e-05 0.0942445)
(-4.36925e-06 -4.10317e-06 0.0836967)
(-1.69935e-06 3.3861e-05 0.0836952)
(1.364e-06 1.29554e-05 0.0942167)
(-2.26274e-06 6.05894e-05 0.0942445)
(4.25651e-06 -4.18975e-06 0.0836951)
(1.64138e-06 3.38488e-05 0.0836962)
(-1.43943e-06 1.29801e-05 0.0942165)
(6.08701e-06 0.000114886 0.102598)
(5.76888e-05 9.27775e-05 0.10787)
(1.21874e-07 2.35899e-05 0.0958849)
(2.02626e-05 0.000102074 0.108539)
(2.72686e-05 6.73803e-05 0.0958687)
(2.04094e-05 0.000102445 0.108472)
(4.50946e-06 5.2146e-05 0.102625)
(-6.23857e-06 0.000114898 0.102598)
(-5.77602e-05 9.27923e-05 0.10787)
(-1.96236e-07 2.33753e-05 0.095883)
(-2.02796e-05 0.000102115 0.108539)
(-2.74023e-05 6.74169e-05 0.0958686)
(-2.04222e-05 0.000102459 0.108472)
(-4.55615e-06 5.21112e-05 0.102625)
(5.53275e-06 -5.43253e-06 0.0722768)
(-3.63535e-06 1.51505e-05 0.0722412)
(-0.000147911 0.000147817 0.106613)
(2.79611e-06 1.18132e-05 0.0895287)
(-1.18978e-05 -2.8198e-06 0.089532)
(-1.78245e-05 3.30498e-05 0.0895274)
(-3.30073e-05 1.77596e-05 0.0895282)
(5.46227e-06 -5.5503e-06 0.0722793)
(-1.51202e-05 3.50651e-06 0.072239)
(6.06629e-05 2.20279e-06 0.0942452)
(-4.16639e-06 -4.26974e-06 0.0836961)
(3.38758e-05 -1.68562e-06 0.0836963)
(1.29668e-05 1.4468e-06 0.0942161)
(0.000114933 6.19582e-06 0.102598)
(9.27344e-05 5.75757e-05 0.10787)
(2.33701e-05 1.74619e-07 0.0958845)
(0.000102113 2.02612e-05 0.108539)
(6.74367e-05 2.73543e-05 0.0958688)
(0.000102484 2.04074e-05 0.108472)
(5.2128e-05 4.57757e-06 0.102625)
(6.0661e-05 -2.08813e-06 0.094245)
(-4.09938e-06 4.3638e-06 0.0836963)
(3.38664e-05 1.71466e-06 0.0836942)
(1.29834e-05 -1.41577e-06 0.0942157)
(0.000114909 -6.08992e-06 0.102598)
(9.2849e-05 -5.7721e-05 0.107869)
(0.000102103 -2.0263e-05 0.108539)
(2.34564e-05 -1.49907e-07 0.0958843)
(0.000102463 -2.04016e-05 0.108472)
(6.73785e-05 -2.72787e-05 0.0958671)
(5.21031e-05 -4.51798e-06 0.102625)
(-0.000114927 6.09633e-06 0.102598)
(-9.26887e-05 5.74919e-05 0.10787)
(-2.3526e-05 1.77801e-07 0.0958861)
(-0.00010216 2.02162e-05 0.108539)
(-6.73602e-05 2.7305e-05 0.095869)
(-0.000102519 2.03722e-05 0.108472)
(-5.21745e-05 4.52862e-06 0.102625)