/*--------------------------------*- C++ -*----------------------------------*\
| =========                 |                                                 |
| \\      /  F ield         | OpenFOAM: The Open Source CFD Toolbox           |
|  \\    /   O peration     | Version:  v1906                                 |
|   \\  /    A nd           | Web:      www.OpenFOAM.com                      |
|    \\/     M anipulation  |                                                 |
\*---------------------------------------------------------------------------*/
FoamFile
{
    version     2.0;
    format      ascii;
    class       volScalarField;
    location    "400";
    object      nut;
}
// * * * * * * * * * * * * * * * * * * * * * * * * * * * * * * * * * * * * * //

dimensions      [0 2 -1 0 0 0 0];


internalField   nonuniform List<scalar> 
42840
(
0.000203445
0.000198784
0.000198775
0.000180718
0.000181623
0.000180725
0.000181534
0.000198759
0.000198758
0.000199835
0.000199833
0.000180727
0.000181537
0.000198775
0.000198748
0.000199851
0.000199823
0.000198764
0.000199862
0.000199839
0.000180717
0.000181526
0.000198779
0.000199853
0.000199853
0.000181606
0.000200183
0.000200198
9.97421e-05
5.07151e-05
5.07267e-05
9.96757e-05
2.38802e-05
2.38846e-05
9.97541e-05
5.07148e-05
5.0722e-05
9.96806e-05
0.000203453
0.000203454
0.000203463
0.000205365
0.000205368
0.000205368
0.000205376
0.000143767
0.000103377
0.000207764
0.000199153
0.000103466
0.000208245
0.000143549
2.3878e-05
2.38825e-05
0.000143756
0.000207762
0.000103379
0.000199144
0.000208243
0.000103466
0.000143556
7.78223e-05
7.78211e-05
0.000181064
7.7851e-05
7.78495e-05
7.78897e-05
7.78885e-05
2.38809e-05
2.38854e-05
2.38796e-05
2.3884e-05
7.78266e-05
7.78232e-05
0.000181052
7.78552e-05
7.78494e-05
2.38902e-05
2.38857e-05
2.38888e-05
2.38844e-05
0.000181223
7.78881e-05
7.78822e-05
7.78607e-05
7.78573e-05
9.97454e-05
5.07181e-05
5.07249e-05
9.96786e-05
0.000143758
0.000103381
0.000207755
0.000199126
0.000103469
0.000208234
0.000143557
0.000143761
0.000103378
0.000207757
0.000199124
0.000103465
0.000208236
0.00014356
9.97427e-05
5.07373e-05
5.07261e-05
9.98057e-05
9.97456e-05
5.07354e-05
5.07287e-05
9.98089e-05
0.000143783
0.000199479
0.000103552
0.000209163
0.000103468
0.000208695
0.000143977
0.000143786
0.000199478
0.000103548
0.000209165
0.000103464
0.000208697
0.00014398
7.78228e-05
7.78195e-05
0.000181053
7.78493e-05
7.78459e-05
2.38807e-05
2.38852e-05
2.38894e-05
2.3885e-05
0.000181225
7.78821e-05
7.78788e-05
7.78568e-05
7.78535e-05
2.38899e-05
2.38855e-05
0.000143771
0.000103372
0.000207761
0.000199141
0.000103462
0.000208236
0.00014355
9.975e-05
5.07081e-05
5.07191e-05
9.96759e-05
0.000143767
0.000207756
0.000103359
0.000199113
0.000208234
0.000103448
0.000143545
9.9747e-05
5.07342e-05
5.0723e-05
9.98168e-05
0.000143773
0.000199495
0.000103544
0.000209165
0.000103458
0.000208701
0.000143988
9.97424e-05
5.0728e-05
5.07211e-05
9.98129e-05
0.000143769
0.000199467
0.000209162
0.000103531
0.000208696
0.000103445
0.000143985
9.97488e-05
5.07175e-05
5.07238e-05
9.9676e-05
0.000143759
0.000207765
0.000103377
0.00019913
0.000208244
0.000103464
0.000143559
9.9743e-05
5.07137e-05
5.07207e-05
9.96766e-05
0.000143782
0.000199503
0.000103549
0.000209173
0.000103464
0.000208702
0.000143978
9.9742e-05
5.07362e-05
5.07278e-05
9.98112e-05
0.000143784
0.000199483
0.000209171
0.000103547
0.000208703
0.000103463
0.000143976
9.97428e-05
5.07331e-05
5.07228e-05
9.98057e-05
7.78081e-05
7.78257e-05
0.000181042
7.78346e-05
7.78517e-05
2.388e-05
2.38844e-05
2.38873e-05
2.38829e-05
0.000181214
7.78676e-05
7.7885e-05
7.78422e-05
7.78599e-05
2.38892e-05
2.38848e-05
0.00014376
0.000207767
0.000103376
0.000199145
0.000208245
0.000103464
0.00014356
9.97411e-05
5.07135e-05
5.07203e-05
9.96743e-05
9.97469e-05
5.07116e-05
5.0723e-05
9.96815e-05
0.000143782
0.000199494
0.000209171
0.000103549
0.0002087
0.000103465
0.000143974
0.000143785
0.000199498
0.000209173
0.000103546
0.000208705
0.000103462
0.000143978
9.97407e-05
5.07308e-05
5.07242e-05
9.98042e-05
9.97479e-05
5.07336e-05
5.07224e-05
9.981e-05
2.38796e-05
2.38841e-05
2.38792e-05
2.38838e-05
0.000181177
7.78824e-05
7.78811e-05
7.78568e-05
7.78559e-05
2.38889e-05
2.38844e-05
2.38885e-05
2.3884e-05
0.000209619
0.000103545
0.000143999
5.07324e-05
9.98053e-05
0.000103545
5.07328e-05
2.38892e-05
2.38888e-05
3.6696e-05
4.10392e-05
9.4373e-05
9.97094e-05
4.10389e-05
9.43453e-05
3.67005e-05
2.03086e-05
5.07214e-05
7.89932e-05
7.90041e-05
2.03064e-05
2.03084e-05
7.90166e-05
5.07207e-05
7.9006e-05
2.03105e-05
3.6698e-05
9.97088e-05
4.10346e-05
9.43187e-05
4.10346e-05
9.43469e-05
3.66912e-05
2.38822e-05
2.38826e-05
3.67006e-05
9.43888e-05
4.10419e-05
9.97142e-05
9.43551e-05
4.10358e-05
3.67001e-05
2.03098e-05
5.0716e-05
7.90107e-05
7.90298e-05
2.03077e-05
2.03096e-05
7.90423e-05
5.07203e-05
7.90232e-05
2.03117e-05
3.6696e-05
9.97213e-05
9.4332e-05
4.10311e-05
9.43619e-05
4.10376e-05
3.66967e-05
2.38801e-05
2.38804e-05
8.145e-05
2.17037e-05
2.17007e-05
2.17016e-05
2.16987e-05
8.14579e-05
0.000105078
0.0001284
7.78341e-05
4.86281e-05
0.000128464
4.86348e-05
0.000105054
0.000105086
0.000128383
7.78329e-05
4.86188e-05
0.000128449
4.86253e-05
0.000105062
0.000105088
4.86378e-05
7.78396e-05
0.00012854
0.000128478
4.86358e-05
0.000105112
0.000105097
4.86283e-05
7.78385e-05
0.000128525
0.000128461
4.86267e-05
0.00010512
8.14472e-05
2.16997e-05
2.16967e-05
2.17017e-05
2.16988e-05
8.14393e-05
0.00010521
0.000128699
4.86516e-05
7.78986e-05
0.000105187
0.000128761
4.86513e-05
0.000105218
0.000128683
4.86419e-05
7.78974e-05
0.000105195
0.000128746
4.8643e-05
8.14885e-05
2.17074e-05
2.17045e-05
8.14808e-05
2.17095e-05
2.17065e-05
2.3883e-05
2.38833e-05
2.38816e-05
2.3882e-05
8.14503e-05
2.17038e-05
2.17005e-05
2.17017e-05
2.16985e-05
8.14587e-05
0.000105084
0.000128405
7.78382e-05
4.86288e-05
4.86363e-05
0.000128472
0.000105061
0.000105086
0.000128386
7.78327e-05
4.86212e-05
4.86211e-05
0.000128452
0.000105063
0.000105095
4.86412e-05
7.78438e-05
0.000128547
4.86337e-05
0.000105118
0.000128482
0.000105097
4.86265e-05
7.78404e-05
0.000128527
4.86264e-05
0.00010512
0.000128464
8.14481e-05
2.16998e-05
2.16965e-05
2.17018e-05
2.16986e-05
8.14395e-05
2.3888e-05
2.38878e-05
2.38868e-05
2.38864e-05
8.14691e-05
2.17037e-05
2.17004e-05
8.14608e-05
2.17057e-05
2.17024e-05
0.000105161
0.000128695
7.7877e-05
4.86511e-05
4.86438e-05
0.000128632
0.000105184
0.000105163
0.000128675
7.78735e-05
4.86388e-05
4.86323e-05
0.000128612
0.000105185
0.000105151
4.86388e-05
0.000128558
7.78721e-05
0.000105128
4.86463e-05
0.000128622
0.000105153
4.86299e-05
0.000128538
7.78662e-05
0.00010513
4.86324e-05
0.000128602
8.14712e-05
2.17076e-05
2.17044e-05
2.17056e-05
2.17023e-05
8.14792e-05
3.66977e-05
4.10424e-05
9.43867e-05
9.97124e-05
4.10361e-05
9.43601e-05
3.67026e-05
2.03094e-05
5.07194e-05
7.90122e-05
7.90313e-05
2.03074e-05
2.03093e-05
7.90439e-05
5.07235e-05
7.90252e-05
2.03114e-05
3.66971e-05
9.97122e-05
4.10315e-05
9.43334e-05
4.1038e-05
9.43601e-05
3.66957e-05
3.67028e-05
4.10436e-05
9.43716e-05
9.97744e-05
3.6702e-05
4.10436e-05
9.43983e-05
2.03123e-05
5.07314e-05
7.90412e-05
2.03145e-05
7.90308e-05
2.03125e-05
7.90187e-05
5.07321e-05
2.03104e-05
7.90291e-05
3.67069e-05
9.97749e-05
4.1049e-05
9.44228e-05
3.67056e-05
4.10475e-05
9.4397e-05
3.67072e-05
4.10403e-05
9.43862e-05
9.97777e-05
3.67003e-05
4.10469e-05
9.4412e-05
2.03133e-05
5.0734e-05
7.90683e-05
7.905e-05
2.03153e-05
2.03134e-05
7.90376e-05
5.07301e-05
2.03113e-05
7.90563e-05
3.67042e-05
9.97778e-05
4.10512e-05
9.44366e-05
4.10447e-05
9.44115e-05
3.67112e-05
8.1451e-05
2.17011e-05
2.17037e-05
2.16991e-05
2.17017e-05
8.14563e-05
0.000105085
0.000128385
7.78325e-05
4.8623e-05
4.86228e-05
0.000128448
0.000105065
0.000105081
0.000128409
7.78293e-05
4.86315e-05
0.000128468
4.86314e-05
0.000105062
0.0001051
4.86279e-05
7.784e-05
0.000128523
4.8628e-05
0.000128462
0.000105119
0.000105096
4.86364e-05
7.78366e-05
0.000128543
0.000128486
4.86366e-05
0.000105116
8.14454e-05
2.16971e-05
2.16997e-05
2.16992e-05
2.17018e-05
8.14404e-05
2.38828e-05
2.38831e-05
2.38874e-05
2.3887e-05
8.14669e-05
2.1701e-05
2.17036e-05
8.14616e-05
2.1703e-05
2.17056e-05
0.000105165
0.000128671
7.7873e-05
4.86377e-05
0.00012861
4.86378e-05
0.000105184
0.000105162
0.000128691
7.78697e-05
4.86462e-05
4.86464e-05
0.000128634
0.000105181
0.000105152
4.86329e-05
0.000128537
7.78659e-05
0.000128598
0.000105133
4.86327e-05
0.000105148
4.86415e-05
0.000128561
7.78627e-05
0.000105129
4.86412e-05
0.000128618
8.14717e-05
2.1705e-05
2.17076e-05
2.17029e-05
2.17055e-05
8.14773e-05
2.38879e-05
2.38876e-05
3.66939e-05
4.10418e-05
9.43734e-05
9.97101e-05
4.10356e-05
9.43385e-05
3.67012e-05
2.03081e-05
5.07144e-05
7.89866e-05
7.89993e-05
2.03059e-05
2.03079e-05
7.90119e-05
5.07134e-05
7.89995e-05
2.03101e-05
3.66974e-05
9.97172e-05
4.10309e-05
9.43117e-05
4.10374e-05
9.43475e-05
3.66902e-05
3.67055e-05
9.43799e-05
4.104e-05
9.97862e-05
3.67029e-05
9.44153e-05
4.10464e-05
2.03136e-05
5.0728e-05
7.90666e-05
2.03156e-05
7.90478e-05
2.03137e-05
7.90357e-05
5.07284e-05
2.03116e-05
7.90546e-05
3.67044e-05
9.9778e-05
9.44394e-05
4.10506e-05
3.67107e-05
9.4405e-05
4.10443e-05
3.6705e-05
4.10398e-05
9.4364e-05
9.97822e-05
3.66977e-05
4.10462e-05
9.43987e-05
2.03118e-05
5.07268e-05
7.90363e-05
7.90242e-05
2.0314e-05
2.0312e-05
7.9012e-05
5.07234e-05
2.03099e-05
7.90244e-05
3.67016e-05
9.97741e-05
4.10504e-05
9.4423e-05
4.10441e-05
9.43891e-05
3.67089e-05
3.66973e-05
9.43924e-05
4.1042e-05
9.97098e-05
9.43568e-05
4.10357e-05
3.67043e-05
2.03102e-05
5.07186e-05
7.90126e-05
7.90326e-05
2.03081e-05
2.03101e-05
7.90449e-05
5.07226e-05
7.90255e-05
2.03122e-05
3.67005e-05
9.97164e-05
9.43299e-05
4.1031e-05
9.43666e-05
4.10376e-05
3.66935e-05
3.6695e-05
4.10419e-05
9.43775e-05
9.971e-05
4.10356e-05
9.4351e-05
3.67021e-05
2.0309e-05
5.0715e-05
7.89925e-05
7.90117e-05
2.03069e-05
2.03088e-05
7.90241e-05
5.07193e-05
7.90055e-05
2.03109e-05
3.66982e-05
9.97101e-05
4.10309e-05
9.43245e-05
4.10375e-05
9.43514e-05
3.66913e-05
3.67081e-05
9.4382e-05
4.10399e-05
9.97806e-05
3.6701e-05
9.44173e-05
4.10465e-05
2.0314e-05
5.07307e-05
7.90691e-05
7.90501e-05
2.03161e-05
2.03141e-05
7.9038e-05
5.07296e-05
2.0312e-05
7.90572e-05
3.67049e-05
9.97736e-05
9.44412e-05
4.10507e-05
9.44068e-05
4.10442e-05
3.6712e-05
3.67058e-05
4.10398e-05
9.43768e-05
9.97749e-05
3.66988e-05
4.10464e-05
9.44025e-05
2.03128e-05
5.07269e-05
7.90484e-05
7.90302e-05
2.03149e-05
2.03129e-05
7.90179e-05
5.07269e-05
2.03108e-05
7.90365e-05
3.67028e-05
9.97747e-05
4.10506e-05
9.44268e-05
4.10441e-05
9.44019e-05
3.67097e-05
8.145e-05
2.17001e-05
2.17036e-05
2.16981e-05
2.17015e-05
8.14585e-05
0.00010508
0.000128377
7.78178e-05
4.86206e-05
4.86202e-05
0.000128434
0.000105055
0.000105081
0.000128403
7.78349e-05
4.86324e-05
0.000128469
4.86324e-05
0.000105057
0.00010509
4.8626e-05
7.78253e-05
0.00012851
4.8626e-05
0.000128455
0.000105114
0.000105091
4.86374e-05
7.78429e-05
0.000128544
0.000128481
4.86375e-05
0.000105115
8.14479e-05
2.16961e-05
2.16996e-05
2.16982e-05
2.17016e-05
8.14392e-05
2.3882e-05
2.38824e-05
2.38853e-05
2.38849e-05
8.1469e-05
2.17e-05
2.17035e-05
8.14607e-05
2.1702e-05
2.17055e-05
0.000105155
0.000128658
7.78584e-05
4.86388e-05
0.000128603
4.8631e-05
0.000105179
0.000105157
0.000128693
7.78763e-05
4.86477e-05
4.86473e-05
0.00012863
0.000105181
0.000105147
4.86265e-05
0.00012853
7.78514e-05
0.000128585
0.000105123
4.8633e-05
0.000105148
4.86425e-05
0.000128556
7.78686e-05
0.000105124
4.86422e-05
0.00012862
8.14711e-05
2.1704e-05
2.17074e-05
2.17019e-05
2.17054e-05
8.14791e-05
2.38872e-05
2.38868e-05
3.66993e-05
9.43725e-05
4.10421e-05
9.97078e-05
9.43454e-05
4.10356e-05
3.66983e-05
2.03092e-05
5.07149e-05
7.89927e-05
7.90117e-05
2.03071e-05
2.03091e-05
7.90243e-05
5.0719e-05
7.90057e-05
2.03112e-05
3.66944e-05
9.97083e-05
9.43187e-05
4.10309e-05
9.43466e-05
4.10377e-05
3.66954e-05
3.67012e-05
9.4379e-05
4.10424e-05
9.97151e-05
9.43515e-05
4.10361e-05
3.67001e-05
2.03097e-05
5.07177e-05
7.90069e-05
7.90183e-05
2.03075e-05
2.03095e-05
7.90307e-05
5.07169e-05
7.90197e-05
2.03117e-05
3.66962e-05
9.97139e-05
9.43249e-05
4.10314e-05
9.43528e-05
4.1038e-05
3.66972e-05
3.67021e-05
9.43714e-05
4.10398e-05
9.97734e-05
3.67033e-05
9.4398e-05
4.10466e-05
2.0313e-05
5.07295e-05
7.90488e-05
7.90306e-05
2.03151e-05
2.03131e-05
7.90183e-05
5.07255e-05
2.03111e-05
7.90368e-05
3.67069e-05
9.97728e-05
9.44222e-05
4.10508e-05
9.43966e-05
4.10441e-05
3.67059e-05
3.67039e-05
9.43775e-05
4.10403e-05
9.9779e-05
3.67051e-05
9.44043e-05
4.10469e-05
2.03135e-05
5.07277e-05
7.90552e-05
7.90445e-05
2.03156e-05
2.03136e-05
7.90324e-05
5.07284e-05
2.03115e-05
7.90432e-05
3.67088e-05
9.978e-05
9.44287e-05
4.10511e-05
9.44027e-05
4.10446e-05
3.67076e-05
2.38817e-05
2.3882e-05
2.38813e-05
2.38816e-05
8.14684e-05
2.17036e-05
2.17006e-05
8.14605e-05
2.17056e-05
2.17027e-05
0.000105154
0.000128688
7.78737e-05
4.86465e-05
0.000105178
0.000128627
4.86467e-05
0.000105162
0.000128673
7.78726e-05
4.86372e-05
0.000105186
0.000128611
4.86372e-05
0.000105145
4.86421e-05
0.000128554
7.78667e-05
0.000105122
0.000128615
4.86416e-05
0.000105153
4.86326e-05
0.000128537
7.78651e-05
0.00010513
0.0001286
4.86323e-05
8.14708e-05
2.17076e-05
2.17046e-05
8.14787e-05
2.17055e-05
2.17026e-05
2.38868e-05
2.38865e-05
2.38864e-05
2.38861e-05
2.03168e-05
7.90422e-05
5.07387e-05
2.03147e-05
7.90608e-05
3.67137e-05
9.98372e-05
4.10487e-05
9.44258e-05
3.67065e-05
4.10551e-05
9.44513e-05
5.0739e-05
2.38913e-05
2.38909e-05
0.000199196
0.000199198
0.000204102
0.000200029
0.00020003
0.000189303
0.000188272
0.00013794
0.000160963
0.00016095
0.000180793
0.000161014
0.000161001
0.0001379
0.000138298
0.000161597
0.00016159
0.000181842
0.000138253
0.000161682
0.000161668
0.000137946
0.000160959
0.000160956
0.000180802
0.000161021
0.000161007
0.000137906
0.000138174
0.000181457
0.000161505
0.000161488
0.000161453
0.000161437
0.000138212
0.000137946
0.000160955
0.000160967
0.000180803
0.000161025
0.000161005
0.000137907
0.000138174
0.000181459
0.000161492
0.000161506
0.000161436
0.000161454
0.000138212
0.000137938
0.000160945
0.000160962
0.000180792
0.000161011
0.000160994
0.000137898
0.000138166
0.000181448
0.000161483
0.000161507
0.000161424
0.00016145
0.000138205
0.000138166
0.000181397
0.000161527
0.000161516
0.000138212
0.000161446
0.000161429
0.0001992
0.000199206
0.000204105
0.00020003
0.000200035
0.000189311
0.000188271
0.000199209
0.000199214
0.000204106
0.000200038
0.000200043
0.000189321
0.000188281
0.000199217
0.000199217
0.000204114
0.000200044
0.000200045
0.000189324
0.000188283
0.00020472
0.000201638
0.00020164
0.000200816
0.000200818
0.00019032
0.000191345
0.000204727
0.000201639
0.000201645
0.000200821
0.000200826
0.000190317
0.000191355
0.000204728
0.000201647
0.000201652
0.000200829
0.000200833
0.000190327
0.000191364
0.000204738
0.000201653
0.000201654
0.000200837
0.000200837
0.000190328
0.000191367
0.000170471
0.000137284
0.000175658
0.000143664
0.000137184
0.000175605
0.000170595
0.000160042
0.000146931
0.000103425
0.000122391
0.000147007
0.000122465
0.000159909
0.000160076
0.000122534
0.000103421
0.000147135
0.000147059
0.000122462
0.000160212
0.000170384
0.000143661
0.000137086
0.000175348
0.000137189
0.000175443
0.000170261
0.000170499
0.000175649
0.000137263
0.000143669
0.000175637
0.000137186
0.000170543
0.000159988
0.000146944
0.000103424
0.000122388
0.000146984
0.000122452
0.000159952
0.000160123
0.000122521
0.000103422
0.00014711
0.000147072
0.000122459
0.000160156
0.00017032
0.000143645
0.000175414
0.000137088
0.000175423
0.000137168
0.000170322
0.000137992
0.000180966
0.000161185
0.000161171
0.000161133
0.00016112
0.000138031
0.000137997
0.000180977
0.000161184
0.000161184
0.000138037
0.000161126
0.000161126
0.000138124
0.000181292
0.000161294
0.00016128
0.000138086
0.000161346
0.000161334
0.000170498
0.000137264
0.000175648
0.000143671
0.000137186
0.000175635
0.000170557
0.000159988
0.000146944
0.000103427
0.000122387
0.000122451
0.000146983
0.000159951
0.000160122
0.00012252
0.000103425
0.00014711
0.000122457
0.000147072
0.000160157
0.000170348
0.000143646
0.000137088
0.000175411
0.000137167
0.000175421
0.000170291
0.000170505
0.000137272
0.000175653
0.000143674
0.000137194
0.000175639
0.000170571
0.000159985
0.000146925
0.000103423
0.00012239
0.000122456
0.000146966
0.000159947
0.000160118
0.000122525
0.000103421
0.000147095
0.000122461
0.000160154
0.000147057
0.000170364
0.000143649
0.000137095
0.000175415
0.000137175
0.000175426
0.0001703
0.00017076
0.000137282
0.000175866
0.000143869
0.000170703
0.000137358
0.000175876
0.00016045
0.000147361
0.000103509
0.000122654
0.000147323
0.000122594
0.000160479
0.000160321
0.000122527
0.0001472
0.000103511
0.000147236
0.000160287
0.000122588
0.000170904
0.000143893
0.00013745
0.000176101
0.000137376
0.000176088
0.000170962
0.000170771
0.00013729
0.000175869
0.000143872
0.000170709
0.000137366
0.000175879
0.000160445
0.000147346
0.000103505
0.000122659
0.000122599
0.000147309
0.000160475
0.000160318
0.000122531
0.000147186
0.000103507
0.000160283
0.000122593
0.000147222
0.000170909
0.000143896
0.000137458
0.000176104
0.000137384
0.000176091
0.000170967
0.000137998
0.000180978
0.000161181
0.000161189
0.000161133
0.000161125
0.000138037
0.000138124
0.000181294
0.000161278
0.000161296
0.000161333
0.000138087
0.000161349
0.000170476
0.00013728
0.000175715
0.000143663
0.00013718
0.000175581
0.0001706
0.000160033
0.000146916
0.00010342
0.000122386
0.000122459
0.00014699
0.000159913
0.000160075
0.000122528
0.000103416
0.000147118
0.000122457
0.000147043
0.000160203
0.000170383
0.000143661
0.000137081
0.000175362
0.000137185
0.000175489
0.000170273
0.000170466
0.000175713
0.000137268
0.000143658
0.000175577
0.000137167
0.000170598
0.000160018
0.000146897
0.000103406
0.00012237
0.000122442
0.000146974
0.000159894
0.000160058
0.000122511
0.000103403
0.000147102
0.000122441
0.000160187
0.000147026
0.000170377
0.000143656
0.000175357
0.000137067
0.000175485
0.000137171
0.000170262
0.000170821
0.000137275
0.000175803
0.000143882
0.000170667
0.000137376
0.000175943
0.000160394
0.000147368
0.000103499
0.000122662
0.000147294
0.000122593
0.000160537
0.00016037
0.000122525
0.000147169
0.000103504
0.000147245
0.000160237
0.000122596
0.000170847
0.000143882
0.000137467
0.000176164
0.000137369
0.000176024
0.000171025
0.00017082
0.000175799
0.000137263
0.000143877
0.000170659
0.00017594
0.000137363
0.000160381
0.000147353
0.000103487
0.000122646
0.000122578
0.000147278
0.000160522
0.000160355
0.00012251
0.000147154
0.000103491
0.000160222
0.000122579
0.00014723
0.00017084
0.000143878
0.000176161
0.000137455
0.000176021
0.000137357
0.000171022
0.000170501
0.000175649
0.000137266
0.000143672
0.000175636
0.000137189
0.000170554
0.000159986
0.00014694
0.000103422
0.000122387
0.000146979
0.000122452
0.000159951
0.000160121
0.000122521
0.00010342
0.000147106
0.000147068
0.000122458
0.000160155
0.000170342
0.000143648
0.000175411
0.000137091
0.000175423
0.000137171
0.000170295
0.000170806
0.000137279
0.000175848
0.000143872
0.000170673
0.000137378
0.000175877
0.000160396
0.000147384
0.000103505
0.000122668
0.000160543
0.00014731
0.000122598
0.000160379
0.000122531
0.000147186
0.000103509
0.000160239
0.000147262
0.000122602
0.000170864
0.000143892
0.000137469
0.000176103
0.000171013
0.000137372
0.000176083
0.00017076
0.000175865
0.000137284
0.000143869
0.000170705
0.000175876
0.00013736
0.000160448
0.000147356
0.000103504
0.000122654
0.000122594
0.000147319
0.000160475
0.000160318
0.000122527
0.000147196
0.000103506
0.000160286
0.000122589
0.000147232
0.000170904
0.000143894
0.0001761
0.000137451
0.000176088
0.000137378
0.00017096
0.00013799
0.000180968
0.000161171
0.000161187
0.000161133
0.000161114
0.000138029
0.000138116
0.000181283
0.000161267
0.000161292
0.000161323
0.000138079
0.000161345
0.000170502
0.000175652
0.000137268
0.000143673
0.00017564
0.00013719
0.000170547
0.000159984
0.000146932
0.000103422
0.000122387
0.000146972
0.000122453
0.000159948
0.000160119
0.000122522
0.000103419
0.000147099
0.000147061
0.000122458
0.000160152
0.000170325
0.000143648
0.000175416
0.000137092
0.000175426
0.000137172
0.000170325
0.000170755
0.000175867
0.000137282
0.000143867
0.000170704
0.000175876
0.000137357
0.00016045
0.000147361
0.000103507
0.000122656
0.000160475
0.000147323
0.000122596
0.000160319
0.000122529
0.0001472
0.000103508
0.000160288
0.000147236
0.000122589
0.000170902
0.000143891
0.0001761
0.000137448
0.000170956
0.000176088
0.000137375
0.000170756
0.000175868
0.000137286
0.00014387
0.000170707
0.000175878
0.000137361
0.000160446
0.000147349
0.000103504
0.000122656
0.000122595
0.000147312
0.000160473
0.000160316
0.000122527
0.000147189
0.000103506
0.000160284
0.00012259
0.000147225
0.000170905
0.000143895
0.000176102
0.000137453
0.00017609
0.000137379
0.000170958
0.000138123
0.000181359
0.00016129
0.000161278
0.000138081
0.000161367
0.000161353
0.000160631
0.000147441
0.000122661
0.000103589
0.00014748
0.000160607
0.000122722
0.00017116
0.000144084
0.000176301
0.000137469
0.000176316
0.000171098
0.000137543
0.000147434
0.000103588
0.000147472
0.000123051
0.000139424
0.00013943
0.000137217
0.000125849
0.000142549
0.000142555
0.000139707
0.000128806
0.000145636
0.000145641
0.000142073
0.0001319
0.000148681
0.000148684
0.000144379
0.000135111
0.000151675
0.000151678
0.000146609
0.000138419
0.000154613
0.000154615
0.000148818
0.000141807
0.00015749
0.000157494
0.000150955
0.000145254
0.000160306
0.000160311
0.000153011
0.000148745
0.000163059
0.000163063
0.00015506
0.000152263
0.000165746
0.000165748
0.000157023
0.000155795
0.000168366
0.000168366
0.000158955
0.000159327
0.000170916
0.000170914
0.00016086
0.000162847
0.000173395
0.000173394
0.000162691
0.000166341
0.000175802
0.000175801
0.000164405
0.000169802
0.000178137
0.000178135
0.000166074
0.000173219
0.000180397
0.000180395
0.000167696
0.000176584
0.000182582
0.000182579
0.00016926
0.000179889
0.00018469
0.000184686
0.000170767
0.000183127
0.000186721
0.000186718
0.000172236
0.00018629
0.000188676
0.000188671
0.000173619
0.000189375
0.000190553
0.000190547
0.000174933
0.000192374
0.000192353
0.000192346
0.000176181
0.000195284
0.000194076
0.000194067
0.000177372
0.000198101
0.000195722
0.000195713
0.000178592
0.000200822
0.000197291
0.000197282
0.000179688
0.000137089
0.000139224
0.000139415
0.000139411
0.000141762
0.000141757
0.000137255
0.000139057
0.00013943
0.000139419
0.000141775
0.000141765
0.000139442
0.000141771
0.000141787
0.000137289
0.000139101
0.000139444
0.000141777
0.00014179
0.000139135
0.000139542
0.00014153
0.00014254
0.000142536
0.000144859
0.000144854
0.000139674
0.000141472
0.000142553
0.000142544
0.000144871
0.000144861
0.000142565
0.000144868
0.000144882
0.000139662
0.000141498
0.000142569
0.000144874
0.000144887
0.000141516
0.000142017
0.000143834
0.000145627
0.000145623
0.000147913
0.00014791
0.000142043
0.000143874
0.000145639
0.00014563
0.000147924
0.000147914
0.000145651
0.000147924
0.000147935
0.000141999
0.000143969
0.000145655
0.000147929
0.00014794
0.000143855
0.000144388
0.000146095
0.000148669
0.000148667
0.000150918
0.000150917
0.000144329
0.000146096
0.00014868
0.000148671
0.000150928
0.000150919
0.000148692
0.000150932
0.00015094
0.000144276
0.0001461
0.000148697
0.000150934
0.000150947
0.000146139
0.000146619
0.000148478
0.000151662
0.000151661
0.00015387
0.00015387
0.000146623
0.000148342
0.000151672
0.000151663
0.00015388
0.00015387
0.000151682
0.000153884
0.00015389
0.000146626
0.000148338
0.00015169
0.000153887
0.000153898
0.000148369
0.000148777
0.00015063
0.000154599
0.000154599
0.000156764
0.000156762
0.000148837
0.000150473
0.000154609
0.000154599
0.000156774
0.000156762
0.000154619
0.000156777
0.000156781
0.000148845
0.000150508
0.000154627
0.000156781
0.00015679
0.000150628
0.00015087
0.00015273
0.000157478
0.000157476
0.000159595
0.000159593
0.000151017
0.000152647
0.000157488
0.000157476
0.000159606
0.000159593
0.000157495
0.000159609
0.000159611
0.000150996
0.000152637
0.000157503
0.000159613
0.00015962
0.000152734
0.000152967
0.000154788
0.000160293
0.000160291
0.000162362
0.000162361
0.00015306
0.00015466
0.000160304
0.000160292
0.000162374
0.00016236
0.000160309
0.000162378
0.000162379
0.000153083
0.000154672
0.000160317
0.000162381
0.000162388
0.000154783
0.000155038
0.000156786
0.000163043
0.000163043
0.000165065
0.000165064
0.000155159
0.000156728
0.000163056
0.000163042
0.000165077
0.000165062
0.00016306
0.000165082
0.00016508
0.000155126
0.000156685
0.000163069
0.000165084
0.00016509
0.000156785
0.000157024
0.000158734
0.000165729
0.000165728
0.000167699
0.000167699
0.000157074
0.000158647
0.000165741
0.000165726
0.000167711
0.000167695
0.000165744
0.000167718
0.000167714
0.000157083
0.000158725
0.000165755
0.000167719
0.000167725
0.000158718
0.000158981
0.000160589
0.000168346
0.000168347
0.000170264
0.000170266
0.000159042
0.000160537
0.000168359
0.000168343
0.000170277
0.000170259
0.000168361
0.000170286
0.000170279
0.000158992
0.00016052
0.000168372
0.000170285
0.00017029
0.000160552
0.000160808
0.000162375
0.000170894
0.000170896
0.00017276
0.000172762
0.00016091
0.000162339
0.000170907
0.00017089
0.000172773
0.000172755
0.000170908
0.000172783
0.000172775
0.000160879
0.000162328
0.000170919
0.000172781
0.000172785
0.000162364
0.000162651
0.000164151
0.000173372
0.000173374
0.000175184
0.000175185
0.000162709
0.000164125
0.000173385
0.000173368
0.000175197
0.000175179
0.000173387
0.000175209
0.000175199
0.000162704
0.000164144
0.000173398
0.000175207
0.00017521
0.000164133
0.000164389
0.000165871
0.000175778
0.000175779
0.000177536
0.000177537
0.000164418
0.000165838
0.000175792
0.000175774
0.000177549
0.000177531
0.000175793
0.000177562
0.000177551
0.000164417
0.000165883
0.000175805
0.00017756
0.000177562
0.000165889
0.00016607
0.000167464
0.000178111
0.000178113
0.000179814
0.000179815
0.000166081
0.000167524
0.000178125
0.000178107
0.000179827
0.000179809
0.000178126
0.000179841
0.000179828
0.000166075
0.000167501
0.000178137
0.000179839
0.000179839
0.000167501
0.000167742
0.000169041
0.000180371
0.000180372
0.000182017
0.000182019
0.000167709
0.000169107
0.000180385
0.000180366
0.00018203
0.000182012
0.000180385
0.000182045
0.000182031
0.000167689
0.000169083
0.000180396
0.000182042
0.000182042
0.000169093
0.000169287
0.000170607
0.000182555
0.000182557
0.000184145
0.000184145
0.000169284
0.000170601
0.000182569
0.00018255
0.000184157
0.000184138
0.000182568
0.000184172
0.000184157
0.000169243
0.000170599
0.00018258
0.000184169
0.000184168
0.000170604
0.000170772
0.000172062
0.000184663
0.000184664
0.000186195
0.000186196
0.000170769
0.000172048
0.000184676
0.000184657
0.000186208
0.000186188
0.000184676
0.000186223
0.000186207
0.000170764
0.000172054
0.000184687
0.000186219
0.000186219
0.000172042
0.000172222
0.000173435
0.000186695
0.000186695
0.000188169
0.000188169
0.000172225
0.000173442
0.000186708
0.000186687
0.000188182
0.000188161
0.000186707
0.000188197
0.000188181
0.000172207
0.000173427
0.000186718
0.000188192
0.000188192
0.000173433
0.000173609
0.000174792
0.000188648
0.000188649
0.000190066
0.000190066
0.000173624
0.000174766
0.000188662
0.000188641
0.00019008
0.000190057
0.000188661
0.000190094
0.000190077
0.000173618
0.000174757
0.000188672
0.000190089
0.000190089
0.000174794
0.000174933
0.000176089
0.000190526
0.000190526
0.000191885
0.000191885
0.000174957
0.000176021
0.00019054
0.000190518
0.000191899
0.000191876
0.000190537
0.000191914
0.000191896
0.000174944
0.000176045
0.000190549
0.000191907
0.000191908
0.000176088
0.000176176
0.000177313
0.000192326
0.000192326
0.000193628
0.000193627
0.000176245
0.000177233
0.00019234
0.000192317
0.000193642
0.000193618
0.000192336
0.000193657
0.000193637
0.000176194
0.000177301
0.000192349
0.000193649
0.00019365
0.000177312
0.000177375
0.000178473
0.000194049
0.000194049
0.000195294
0.000195293
0.000177467
0.000178397
0.000194064
0.000194039
0.000195309
0.000195283
0.000194058
0.000195323
0.000195302
0.000177378
0.000178465
0.000194071
0.000195313
0.000195315
0.000178396
0.000178524
0.000179574
0.000195695
0.000195695
0.000196884
0.000196882
0.000178613
0.000179501
0.00019571
0.000195684
0.000196899
0.000196872
0.000195703
0.000196912
0.00019689
0.000178518
0.000179514
0.000195716
0.000196902
0.000196904
0.000179494
0.000179612
0.000180544
0.000197265
0.000197264
0.000198397
0.000198395
0.000179701
0.000180549
0.000197281
0.000197254
0.000198412
0.000198385
0.000197272
0.000198424
0.000198402
0.000179649
0.00018054
0.000197286
0.000198415
0.000198416
0.000180539
9.23033e-05
5.00201e-05
5.00304e-05
9.20716e-05
2.36122e-05
2.36168e-05
9.23002e-05
5.0019e-05
5.00285e-05
9.20864e-05
0.000123046
0.000123056
0.000123072
0.000125134
0.000125129
0.000125139
0.000125155
0.00012201
9.38513e-05
0.00013487
0.000140208
9.41212e-05
0.000135736
0.000121373
2.36103e-05
2.36149e-05
0.000122007
0.000134888
9.38456e-05
0.000140215
0.000135754
9.41266e-05
0.000121374
7.37687e-05
7.37656e-05
0.000137906
7.38702e-05
7.38679e-05
9.27739e-05
5.00508e-05
9.25548e-05
5.00604e-05
2.36217e-05
2.36264e-05
9.27742e-05
5.00479e-05
9.25696e-05
5.00576e-05
0.000125844
0.000125855
0.00012587
0.000128053
0.000128048
0.000128059
0.000128074
0.000123322
9.44546e-05
0.000138369
0.000143324
0.000122702
9.47204e-05
0.000139245
2.36198e-05
2.36245e-05
0.000123321
0.000138387
9.44486e-05
0.00014333
0.000122708
0.000139263
9.47264e-05
7.40329e-05
7.40329e-05
0.000140372
7.41266e-05
7.4127e-05
9.32296e-05
5.00806e-05
9.30192e-05
5.00912e-05
2.36316e-05
2.36364e-05
9.32308e-05
5.00775e-05
9.30318e-05
5.00874e-05
0.0001288
0.000128812
0.000128827
0.000131115
0.00013111
0.000131122
0.000131137
0.000124589
9.50362e-05
0.000141898
0.000146401
0.000123994
9.52943e-05
0.000142778
2.36297e-05
2.36345e-05
0.000124586
0.000141917
9.50296e-05
0.000146407
0.000123998
0.000142798
9.52991e-05
7.4287e-05
7.42876e-05
0.000142729
7.43778e-05
7.43772e-05
9.36691e-05
5.01076e-05
9.34647e-05
5.01232e-05
2.36418e-05