/*--------------------------------*- C++ -*----------------------------------*\
| =========                 |                                                 |
| \\      /  F ield         | OpenFOAM: The Open Source CFD Toolbox           |
|  \\    /   O peration     | Version:  v1906                                 |
|   \\  /    A nd           | Web:      www.OpenFOAM.com                      |
|    \\/     M anipulation  |                                                 |
\*---------------------------------------------------------------------------*/
FoamFile
{
    version     2.0;
    format      ascii;
    class       volScalarField;
    location    "400";
    object      p;
}
// * * * * * * * * * * * * * * * * * * * * * * * * * * * * * * * * * * * * * //

dimensions      [0 2 -2 0 0 0 0];


internalField   nonuniform List<scalar> 
42840
(
0.000782482
0.000782424
0.000782424
0.000783994
0.000748699
0.000783994
0.000754341
0.000782424
0.000782424
0.000755952
0.000755952
0.000783994
0.000754341
0.000782424
0.000782424
0.000755952
0.000755952
0.000782424
0.000755952
0.000755952
0.000783994
0.000754341
0.000782424
0.000755952
0.000755952
0.000754341
0.000747126
0.000747126
0.000771436
0.000784555
0.000771437
0.000784543
0.000784562
0.000771436
0.000771435
0.000784555
0.000771437
0.000784543
0.000782482
0.000782482
0.000782482
0.000756008
0.000756008
0.000756008
0.000756008
0.000771519
0.000784508
0.000782446
0.000773601
0.000771473
0.000773623
0.00078446
0.000784562
0.000771436
0.000771519
0.000782446
0.000784508
0.000773601
0.000773623
0.000771473
0.000784461
0.000784555
0.000784555
0.00077199
0.000771431
0.000771431
0.000749262
0.000749262
0.000784563
0.000771436
0.000784563
0.000771436
0.000784555
0.000784555
0.00077199
0.000771431
0.000771431
0.000753788
0.000766918
0.000753789
0.000766919
0.000766349
0.000753783
0.000753783
0.000766911
0.000766911
0.000771436
0.000784555
0.000771437
0.000784543
0.000771519
0.000784508
0.000782446
0.000773601
0.000771473
0.000773623
0.000784461
0.000771519
0.000784508
0.000782446
0.000773601
0.000771473
0.000773623
0.00078446
0.000766899
0.000753789
0.000766911
0.000753788
0.000766899
0.000753789
0.000766911
0.000753788
0.000766816
0.000764777
0.000753825
0.000755974
0.000766864
0.000764799
0.000753871
0.000766816
0.000764777
0.000753825
0.000755973
0.000766864
0.000764799
0.000753871
0.000784555
0.000784554
0.00077199
0.000771431
0.000771431
0.000784562
0.000771436
0.000753788
0.000766918
0.000766348
0.000753783
0.000753783
0.00076691
0.00076691
0.000753788
0.000766918
0.000771519
0.000784508
0.000782446
0.000773601
0.000771474
0.000773623
0.000784461
0.000771435
0.000784555
0.000771437
0.000784543
0.000771519
0.000782446
0.000784508
0.000773601
0.000773623
0.000771473
0.000784461
0.000766899
0.00075379
0.000766911
0.000753787
0.000766816
0.000764777
0.000753825
0.000755973
0.000766864
0.000764799
0.000753871
0.000766899
0.00075379
0.000766911
0.000753787
0.000766816
0.000764777
0.000755973
0.000753826
0.000764799
0.000766863
0.000753871
0.000771436
0.000784555
0.000771437
0.000784543
0.000771519
0.000782446
0.000784508
0.000773601
0.000773623
0.000771473
0.000784461
0.000771436
0.000784555
0.000771437
0.000784543
0.000766816
0.000764777
0.000753825
0.000755973
0.000766864
0.000764799
0.000753871
0.000766899
0.00075379
0.000766911
0.000753788
0.000766816
0.000764777
0.000755973
0.000753825
0.000764799
0.000766864
0.000753871
0.000766899
0.000753789
0.000766911
0.000753788
0.000784554
0.000784555
0.00077199
0.000771431
0.000771431
0.000784563
0.000771436
0.000753788
0.000766918
0.000766349
0.000753783
0.000753783
0.00076691
0.000766911
0.000753789
0.000766918
0.000771519
0.000782446
0.000784508
0.000773601
0.000773623
0.000771473
0.000784461
0.000771436
0.000784555
0.000771437
0.000784543
0.000771436
0.000784555
0.000771437
0.000784543
0.000766816
0.000764777
0.000755973
0.000753825
0.000764799
0.000766864
0.000753871
0.000766816
0.000764777
0.000755973
0.000753825
0.000764799
0.000766864
0.000753871
0.000766898
0.000753789
0.000766911
0.000753788
0.000766899
0.000753789
0.000766911
0.000753788
0.000784562
0.000771436
0.000784563
0.000771436
0.000766349
0.000753783
0.000753783
0.000766911
0.000766911
0.000753788
0.000766918
0.000753788
0.000766918
0.000747147
0.000749215
0.000749167
0.000749262
0.00074925
0.000749215
0.000749262
0.000749269
0.000749269
0.000775743
0.000771429
0.000771434
0.000775721
0.000775741
0.000775724
0.000771429
0.000780255
0.000780259
0.000784559
0.000780247
0.000784567
0.000775745
0.000771425
0.000775734
0.000775737
0.000771433
0.000780251
0.000780258
0.000784563
0.000784546
0.000780251
0.000780256
0.000784565
0.000780258
0.000775741
0.000775744
0.000771434
0.000771429
0.000775722
0.000775725
0.000775742
0.000771429
0.000780255
0.000780259
0.000784559
0.000780246
0.000784567
0.000775746
0.000771424
0.000775734
0.000775738
0.000771433
0.000780251
0.000780258
0.000784546
0.000784563
0.000780256
0.000780251
0.000784565
0.000780258
0.000775741
0.000775747
0.000771432
0.000771432
0.000775751
0.000775751
0.000771422
0.000780276
0.000784499
0.000780253
0.000784558
0.000780307
0.000780261
0.000784532
0.000780276
0.000784499
0.000780253
0.000784558
0.000780307
0.000780261
0.000784532
0.00077571
0.000771439
0.000775733
0.000771485
0.000775677
0.000775737
0.000771454
0.00077571
0.000771439
0.000775733
0.000771485
0.000775677
0.000775737
0.000771454
0.000780244
0.000784573
0.000784572
0.000780254
0.000780254
0.000784569
0.00074498
0.000749205
0.000749265
0.000744957
0.000749238
0.000745011
0.000744965
0.000744981
0.000749205
0.000749265
0.000744957
0.000749238
0.000745011
0.000744965
0.000744949
0.000749279
0.000749279
0.000749276
0.000744958
0.000744958
0.000780258
0.000775741
0.000780258
0.000775741
0.000775748
0.000771432
0.000771432
0.000775751
0.000775751
0.000771422
0.000780276
0.000784499
0.000780253
0.000784558
0.000780261
0.000780307
0.000784532
0.000780276
0.000784499
0.000780253
0.000784558
0.000780261
0.000780307
0.000784532
0.00077571
0.000771439
0.000775733
0.000771485
0.000775737
0.000771454
0.000775677
0.00077571
0.000771439
0.000775733
0.000771485
0.000775737
0.000771454
0.000775677
0.000780244
0.000784573
0.000784573
0.000780254
0.000780254
0.000784569
0.000758095
0.000762613
0.000758095
0.000762613
0.000762599
0.000766929
0.000766929
0.000766925
0.000762609
0.000762608
0.000758064
0.000753836
0.000758087
0.000753791
0.00075809
0.000758031
0.000753806
0.000758064
0.000753837
0.000758087
0.000753791
0.00075809
0.000758031
0.000753806
0.000762631
0.000766914
0.000766855
0.000762607
0.000766887
0.000762616
0.000762661
0.000762631
0.000766914
0.000766855
0.000762607
0.000766887
0.000762615
0.000762661
0.000758101
0.000753784
0.000753784
0.000758105
0.000758105
0.000753775
0.000775744
0.000771429
0.000771434
0.000775721
0.000775741
0.000775725
0.000771429
0.000780255
0.000780259
0.000784559
0.000780246
0.000784567
0.000775745
0.000771424
0.000775734
0.000775738
0.000771433
0.000780251
0.000780258
0.000784563
0.000784546
0.000780251
0.000780256
0.000784565
0.000762606
0.000766919
0.000766902
0.000762612
0.000766921
0.000762606
0.000762611
0.000758099
0.000758087
0.000753777
0.000753785
0.000758091
0.00076261
0.000766915
0.000762614
0.000766923
0.000762601
0.000758097
0.000758075
0.000753781
0.000753786
0.000753781
0.000758095
0.000758078
0.000762606
0.000766919
0.000766902
0.000762612
0.000766921
0.000762606
0.00076261
0.000758099
0.000758087
0.000753776
0.000758091
0.000753785
0.00076261
0.000766915
0.000762614
0.000766923
0.000762601
0.000758097
0.000758075
0.000753781
0.000753786
0.000758095
0.000758078
0.000753781
0.000775748
0.000771432
0.000771432
0.000775751
0.000775751
0.000771422
0.000780277
0.000784498
0.000780253
0.000784558
0.000780261
0.000780307
0.000784531
0.000780277
0.000784499
0.000780253
0.000784558
0.000780307
0.000780261
0.000784532
0.00077571
0.000771439
0.000775733
0.000771485
0.000775737
0.000775677
0.000771454
0.00077571
0.000771439
0.000775733
0.000771485
0.000775677
0.000775737
0.000771454
0.000780244
0.000784573
0.000784573
0.000780254
0.000780254
0.000784569
0.000780258
0.000775741
0.000758095
0.000762613
0.000762599
0.000766928
0.000766928
0.000766925
0.000762608
0.000762608
0.000758063
0.000753837
0.000758087
0.000753791
0.00075803
0.00075809
0.000753806
0.000758063
0.000753837
0.000758086
0.000753791
0.00075809
0.00075803
0.000753806
0.000762631
0.000766914
0.000766854
0.000762607
0.000762662
0.000766887
0.000762615
0.000762631
0.000766914
0.000766854
0.000762608
0.000766887
0.000762616
0.000762662
0.000758101
0.000753784
0.000753784
0.000758105
0.000758105
0.000753775
0.000758095
0.000762613
0.000775743
0.000771429
0.000771434
0.000775722
0.000775742
0.000775724
0.000771429
0.000780255
0.000780259
0.000784559
0.000780247
0.000784567
0.000775745
0.000771425
0.000775733
0.000775737
0.000771433
0.000780251
0.000780258
0.000784563
0.000784546
0.000780251
0.000780256
0.000784565
0.000762606
0.000766902
0.000766919
0.000762612
0.000766921
0.00076261
0.000762606
0.000758099
0.000758087
0.000753777
0.000753786
0.000758091
0.00076261
0.000766915
0.000762614
0.000766923
0.000762601
0.000758097
0.000758075
0.000753786
0.000753781
0.000753781
0.000758078
0.000758095
0.000762606
0.000766919
0.000766902
0.000762612
0.000766921
0.000762606
0.000762611
0.000758099
0.000758087
0.000753777
0.000758091
0.000753785
0.00076261
0.000766915
0.000762614
0.000766923
0.000762601
0.000758097
0.000758075
0.000753781
0.000753786
0.000758095
0.000758078
0.000753782
0.000775744
0.000771434
0.000771429
0.000775721
0.000775725
0.000775742
0.000771429
0.000780255
0.000780259
0.000784559
0.000780247
0.000784567
0.000775745
0.000771424
0.000775734
0.000775738
0.000771433
0.000780251
0.000780258
0.000784546
0.000784563
0.000780256
0.000780251
0.000784565
0.000775744
0.000771429
0.000771434
0.000775721
0.000775742
0.000775725
0.000771429
0.000780255
0.000780259
0.000784559
0.000780246
0.000784567
0.000775745
0.000771424
0.000775734
0.000775738
0.000771433
0.000780251
0.000780258
0.000784563
0.000784546
0.000780251
0.000780256
0.000784565
0.000762606
0.000766902
0.000766919
0.000762612
0.000766921
0.00076261
0.000762606
0.000758099
0.000758087
0.000753777
0.000758091
0.000753786
0.00076261
0.000766915
0.000762614
0.000766923
0.000762601
0.000758097
0.000758075
0.000753786
0.000753781
0.000758078
0.000758095
0.000753781
0.000762606
0.000766919
0.000766902
0.000762612
0.000766921
0.000762606
0.00076261
0.000758099
0.000758087
0.000753776
0.000758091
0.000753785
0.00076261
0.000766915
0.000762614
0.000766923
0.000762601
0.000758097
0.000758075
0.000753781
0.000753786
0.000758095
0.000758078
0.000753781
0.000775747
0.000771431
0.000771432
0.000775751
0.000775751
0.000771422
0.000780277
0.000784498
0.000780253
0.000784558
0.000780261
0.000780307
0.000784531
0.000780277
0.000784499
0.000780253
0.000784558
0.000780307
0.000780261
0.000784531
0.00077571
0.000771439
0.000775733
0.000771485
0.000775737
0.000775677
0.000771455
0.00077571
0.000771439
0.000775733
0.000771485
0.000775677
0.000775737
0.000771454
0.000780244
0.000784573
0.000784573
0.000780254
0.000780254
0.000784569
0.000780258
0.000775741
0.000758094
0.000762613
0.000762599
0.000766929
0.000766928
0.000766925
0.000762609
0.000762608
0.000758063
0.000753837
0.000758086
0.000753791
0.00075803
0.00075809
0.000753806
0.000758063
0.000753837
0.000758087
0.000753791
0.00075809
0.000758031
0.000753807
0.000762631
0.000766914
0.000766854
0.000762608
0.000762662
0.000766887
0.000762616
0.000762631
0.000766914
0.000766854
0.000762607
0.000766887
0.000762616
0.000762661
0.000758101
0.000753784
0.000753784
0.000758105
0.000758105
0.000753775
0.000758095
0.000762613
0.000775744
0.000771434
0.000771429
0.000775721
0.000775725
0.000775742
0.000771429
0.000780255
0.000780259
0.00078456
0.000780246
0.000784567
0.000775746
0.000771424
0.000775734
0.000775738
0.000771433
0.000780251
0.000780258
0.000784546
0.000784563
0.000780256
0.000780251
0.000784565
0.000775743
0.000771434
0.000771429
0.000775722
0.000775724
0.000775742
0.000771429
0.000780255
0.000780259
0.000784559
0.000780247
0.000784567
0.000775745
0.000771425
0.000775734
0.000775737
0.000771433
0.000780251
0.000780258
0.000784546
0.000784563
0.000780256
0.000780251
0.000784565
0.000762606
0.000766902
0.000766919
0.000762613
0.000766921
0.000762611
0.000762606
0.000758099
0.000758087
0.000753777
0.000758092
0.000753786
0.00076261
0.000766915
0.000762614
0.000766923
0.000762601
0.000758097
0.000758075
0.000753786
0.000753781
0.000758078
0.000758095
0.000753781
0.000762606
0.000766902
0.000766919
0.000762612
0.000766921
0.000762611
0.000762606
0.000758099
0.000758087
0.000753777
0.000758091
0.000753786
0.00076261
0.000766915
0.000762614
0.000766923
0.000762602
0.000758097
0.000758075
0.000753786
0.000753781
0.000758078
0.000758095
0.000753782
0.000780258
0.000775741
0.000780258
0.000775741
0.000762599
0.000766928
0.000766928
0.000766925
0.000762608
0.000762608
0.000758063
0.000753836
0.000758087
0.000753791
0.000753806
0.00075803
0.00075809
0.000758063
0.000753836
0.000758087
0.000753791
0.000753806
0.00075803
0.00075809
0.000762631
0.000766914
0.000766855
0.000762607
0.000766887
0.000762661
0.000762615
0.000762631
0.000766914
0.000766855
0.000762607
0.000766888
0.000762661
0.000762615
0.000758101
0.000753784
0.000753784
0.000753774
0.000758105
0.000758105
0.000758095
0.000762613
0.000758095
0.000762613
0.00074496
0.000749266
0.000744964
0.000749274
0.000744951
0.000744956
0.000744962
0.00074927
0.000749253
0.000749272
0.000744955
0.00074496
0.000744964
0.000744963
0.000744963
0.000782517
0.000782517
0.000773659
0.000773693
0.000773693
0.000773741
0.000782565
0.000780379
0.000784271
0.000784271
0.000780813
0.000780553
0.000780553
0.000784431
0.000745082
0.000748976
0.000748977
0.000745515
0.000749137
0.000745256
0.000745255
0.000780379
0.000784271
0.000784271
0.000780813
0.000780554
0.000780553
0.00078443
0.000757962
0.000757524
0.000754082
0.000754082
0.000757801
0.000757802
0.000753908
0.000780379
0.00078427
0.000784271
0.000780813
0.000780553
0.000780554
0.00078443
0.000757962
0.000757524
0.000754082
0.000754082
0.000757801
0.000757802
0.000753908
0.000780379
0.00078427
0.000784272
0.000780813
0.000780553
0.000780554
0.00078443
0.000757962
0.000757524
0.000754083
0.000754082
0.000757801
0.000757803
0.000753908
0.000757962
0.000757524
0.000754082
0.000754081
0.000753908
0.000757802
0.000757802
0.000782517
0.000782517
0.000773659
0.000773693
0.000773693
0.000773741
0.000782565
0.000782517
0.000782517
0.000773659
0.000773693
0.000773693
0.000773741
0.000782564
0.000782517
0.000782517
0.000773658
0.000773693
0.000773693
0.000773741
0.000782564
0.000764834
0.000756042
0.000756042
0.000764868
0.000764868
0.000764916
0.000756089
0.000764834
0.000756042
0.000756042
0.000764868
0.000764868
0.000764916
0.000756089
0.000764834
0.000756042
0.000756042
0.000764868
0.000764868
0.000764916
0.000756089
0.000764834
0.000756042
0.000756042
0.000764868
0.000764868
0.000764915
0.000756089
0.000775409
0.000771516
0.000771757
0.000775639
0.000775643
0.000775412
0.000771762
0.000780544
0.000784362
0.000780296
0.000784479
0.000780457
0.000780323
0.000784259
0.000775437
0.0007715
0.000775686
0.000771635
0.00077554
0.000775657
0.000771722
0.000780584
0.000780342
0.000784464
0.000784234
0.000780338
0.00078058
0.000784231
0.00077541
0.000771757
0.000771516
0.000775639
0.000775412
0.000775643
0.000771761
0.000780545
0.000784361
0.000780295
0.000784479
0.000780458
0.000780322
0.000784259
0.000775437
0.0007715
0.000775687
0.000771635
0.00077554
0.000775657
0.000771722
0.000780584
0.000780342
0.000784235
0.000784465
0.00078058
0.000780339
0.000784232
0.000775609
0.000775172
0.00077173
0.00077173
0.000775449
0.00077545
0.000771556
0.000775609
0.000775172
0.000771731
0.000771731
0.000771557
0.000775449
0.00077545
0.000762733
0.000763166
0.000766626
0.000766627
0.000766786
0.000762907
0.000762907
0.00077541
0.000771515
0.000771757
0.000775639
0.000775643
0.000775412
0.000771761
0.000780544
0.000784362
0.000780295
0.000784479
0.000780322
0.000780457
0.000784259
0.000775437
0.0007715
0.000775687
0.000771635
0.000775657
0.000775541
0.000771721
0.000780584
0.000780342
0.000784465
0.000784234
0.000780338
0.00078058
0.000784232
0.000775409
0.000771516
0.000771757
0.000775639
0.000775643
0.000775412
0.000771761
0.000780544
0.000784361
0.000780295
0.000784479
0.000780322
0.000780458
0.000784259
0.000775437
0.0007715
0.000775686
0.000771635
0.000775657
0.000771722
0.000775539
0.000780584
0.000780342
0.000784465
0.000784234
0.000780338
0.00078058
0.000784231
0.000762938
0.00076682
0.000766589
0.000762696
0.000766586
0.000762692
0.000762933
0.00075779
0.000753986
0.00075804
0.000753852
0.000757894
0.000758011
0.000754072
0.000762898
0.000766835
0.000766718
0.000762649
0.000762811
0.000766614
0.000762676
0.000757762
0.000757992
0.000753867
0.000754108
0.000757996
0.000757764
0.000754112
0.000762938
0.00076682
0.000766589
0.000762696
0.000766586
0.000762692
0.000762933
0.000757789
0.000753987
0.00075804
0.000753852
0.00075801
0.000757892
0.000754073
0.000762898
0.000766834
0.000766716
0.00076265
0.000766614
0.000762677
0.000762812
0.000757762
0.000757992
0.000753867
0.000754108
0.000757996
0.000757764
0.000754113
0.000775609
0.000775172
0.000771731
0.000771731
0.000775449
0.000775448
0.000771557
0.000762733
0.000763167
0.000766625
0.000766626
0.000762907
0.000766786
0.000762907
0.000775409
0.000771515
0.000771757
0.000775639
0.000775643
0.000775412
0.000771762
0.000780544
0.000784362
0.000780295
0.000784479
0.000780322
0.000780458
0.000784259
0.000775437
0.0007715
0.000775686
0.000771635
0.000775657
0.00077554
0.000771722
0.000780584
0.000780342
0.000784465
0.000784234
0.000780338
0.00078058
0.000784231
0.000775409
0.000771757
0.000771516
0.000775639
0.000775412
0.000775643
0.000771762
0.000780544
0.000784361
0.000780296
0.000784479
0.000780322
0.000780458
0.000784259
0.000775437
0.0007715
0.000775686
0.000771635
0.000775657
0.000771722
0.000775539
0.000780584
0.000780342
0.000784234
0.000784465
0.00078058
0.000780338
0.000784231
0.000762938
0.00076682
0.000766589
0.000762696
0.000766586
0.000762692
0.000762933
0.00075779
0.000753987
0.00075804
0.000753852
0.000757893
0.000758011
0.000754073
0.000762898
0.000766834
0.000766717
0.00076265
0.000762812
0.000766614
0.000762677
0.000757762
0.000757992
0.000753867
0.000754108
0.000757996
0.000757765
0.000754113
0.000762938
0.000766589
0.00076682
0.000762695
0.000766586
0.000762933
0.000762692
0.000757789
0.000753987
0.00075804
0.000753852
0.000758011
0.000757893
0.000754073
0.000762898
0.000766834
0.000766717
0.00076265
0.000766614
0.000762677
0.000762812
0.000757762
0.000757992
0.000754108
0.000753868
0.000757764
0.000757996
0.000754113
0.00077541
0.000771757
0.000771516
0.000775639
0.000775412
0.000775643
0.000771761
0.000780544
0.000784362
0.000780295
0.000784479
0.000780457
0.000780322
0.000784259
0.000775437
0.0007715
0.000775687
0.000771635
0.00077554
0.000775657
0.000771721
0.000780584
0.000780342
0.000784234
0.000784465
0.000780579
0.000780338
0.000784232
0.000762938
0.00076682
0.000766589
0.000762696
0.000766586
0.000762692
0.000762933
0.000757789
0.000753987
0.00075804
0.000753852
0.000754073
0.000757893
0.00075801
0.000762898
0.000766834
0.000766717
0.00076265
0.000766614
0.000762812
0.000762677
0.000757762
0.000757992
0.000753867
0.000754108
0.000754113
0.000757996
0.000757764
0.000762937
0.000766589
0.00076682
0.000762695
0.000766587
0.000762933
0.000762692
0.00075779
0.000753986
0.00075804
0.000753852
0.00075801
0.000757893
0.000754073
0.000762898
0.000766834
0.000766718
0.00076265
0.000766614
0.000762676
0.000762811
0.000757762
0.000757992
0.000754108
0.000753867
0.000757765
0.000757996
0.000754112
0.000775609
0.000775172
0.000771731
0.00077173
0.00077545
0.000775448
0.000771557
0.000762733
0.000763166
0.000766625
0.000766627
0.000762908
0.000766786
0.000762907
0.00077541
0.000771757
0.000771516
0.000775639
0.000775413
0.000775643
0.000771761
0.000780544
0.000784361
0.000780295
0.000784479
0.000780458
0.000780323
0.000784259
0.000775437
0.0007715
0.000775687
0.000771635
0.00077554
0.000775657
0.000771722
0.000780584
0.000780342
0.000784235
0.000784465
0.000780579
0.000780338
0.000784232
0.000762937
0.000766589
0.00076682
0.000762696
0.000766586
0.000762933
0.000762692
0.000757789
0.000753987
0.00075804
0.000753852
0.000754073
0.000757893
0.000758011
0.000762898
0.000766835
0.000766717
0.00076265
0.000766614
0.000762812
0.000762677
0.000757762
0.000757992
0.000754108
0.000753867
0.000754112
0.000757765
0.000757996
0.000762937
0.000766589
0.00076682
0.000762695
0.000766586
0.000762933
0.000762692
0.000757789
0.000753987
0.00075804
0.000753852
0.00075801
0.000757892
0.000754073
0.000762898
0.000766834
0.000766717
0.00076265
0.000766614
0.000762677
0.000762812
0.000757762
0.000757992
0.000754108
0.000753867
0.000757765
0.000757996
0.000754112
0.000762733
0.000763166
0.000766626
0.000766627
0.000766786
0.000762907
0.000762906
0.000745247
0.000749068
0.000749185
0.000744999
0.000745161
0.000748964
0.000745026
0.000745286
0.000745045
0.000748939
0.000749171
0.000745282
0.000748937
0.000745041
0.000749067
0.000744999
0.000745161
0.00166686
0.00166679
0.00166678
0.00166836
0.00163105
0.00163097
0.00163097
0.00163254
0.00159531
0.00159522
0.00159522
0.00159679
0.00155963
0.00155954
0.00155954
0.00156111
0.00152401
0.00152392
0.00152392
0.00152548
0.00148845
0.00148835
0.00148835
0.00148991
0.00145293
0.00145284
0.00145284
0.0014544
0.00141747
0.00141737
0.00141737
0.00141893
0.00138204
0.00138194
0.00138194
0.0013835
0.00134665
0.00134655
0.00134655
0.00134811
0.0013113
0.0013112
0.0013112
0.00131276
0.00127598
0.00127587
0.00127587
0.00127743
0.00124068
0.00124058
0.00124058
0.00124213
0.0012054
0.0012053
0.0012053
0.00120686
0.00117014
0.00117005
0.00117005
0.0011716
0.00113489
0.0011348
0.0011348
0.00113636
0.00109966
0.00109957
0.00109957
0.00110113
0.00106443
0.00106435
0.00106435
0.00106591
0.00102921
0.00102913
0.00102913
0.00103069
0.000993983
0.000993907
0.000993907
0.000995467
0.000958756
0.000958683
0.000958683
0.000960245
0.000923524
0.000923454
0.000923453
0.000925017
0.000888283
0.000888216
0.000888216
0.000889781
0.000853031
0.000852967
0.000852967
0.000854534
0.000817765
0.000817704
0.000817704
0.000819272
0.00166836
0.00163827
0.00166679
0.00166679
0.00163992
0.00163992
0.00166836
0.00163827
0.00166678
0.00166679
0.00163992
0.00163992
0.00166679
0.00163992
0.00163992
0.00166836
0.00163827
0.00166679
0.00163992
0.00163992
0.00163827
0.00163254
0.00160251
0.00163097
0.00163097
0.00160415
0.00160415
0.00163254
0.00160251
0.00163097
0.00163097
0.00160415
0.00160415
0.00163097
0.00160415
0.00160415
0.00163254
0.00160251
0.00163097
0.00160415
0.00160415
0.00160251
0.00159679
0.00156682
0.00159522
0.00159522
0.00156846
0.00156846
0.00159679
0.00156682
0.00159522
0.00159522
0.00156846
0.00156846
0.00159522
0.00156846
0.00156846
0.00159679
0.00156682
0.00159522
0.00156846
0.00156846
0.00156682
0.00156111
0.00153118
0.00155954
0.00155954
0.00153282
0.00153282
0.00156111
0.00153118
0.00155954
0.00155954
0.00153282
0.00153282
0.00155954
0.00153282
0.00153282
0.00156111
0.00153118
0.00155954
0.00153282
0.00153282
0.00153118
0.00152548
0.00149561
0.00152392
0.00152392
0.00149724
0.00149724
0.00152548
0.00149561
0.00152392
0.00152392
0.00149724
0.00149724
0.00152392
0.00149724
0.00149724
0.00152548
0.00149561
0.00152392
0.00149724
0.00149724
0.00149561
0.00148991
0.00146008
0.00148835
0.00148835
0.00146171
0.00146171
0.00148991
0.00146008
0.00148835
0.00148835
0.00146171
0.00146171
0.00148835
0.00146171
0.00146171
0.00148991
0.00146008
0.00148835
0.00146171
0.00146171
0.00146008
0.0014544
0.0014246
0.00145284
0.00145284
0.00142623
0.00142623
0.0014544
0.00142461
0.00145284
0.00145284
0.00142623
0.00142623
0.00145284
0.00142623
0.00142623
0.0014544
0.0014246
0.00145284
0.00142623
0.00142623
0.0014246
0.00141893
0.00138917
0.00141737
0.00141737
0.0013908
0.0013908
0.00141893
0.00138917
0.00141737
0.00141737
0.0013908
0.0013908
0.00141737
0.0013908
0.0013908
0.00141893
0.00138917
0.00141737
0.0013908
0.0013908
0.00138917
0.0013835
0.00135377
0.00138194
0.00138194
0.0013554
0.0013554
0.0013835
0.00135377
0.00138194
0.00138194
0.0013554
0.0013554
0.00138194
0.0013554
0.0013554
0.0013835
0.00135377
0.00138194
0.0013554
0.0013554
0.00135377
0.00134811
0.00131841
0.00134655
0.00134655
0.00132003
0.00132003
0.00134811
0.00131841
0.00134655
0.00134655
0.00132003
0.00132003
0.00134655
0.00132003
0.00132003
0.00134811
0.00131841
0.00134655
0.00132003
0.00132003
0.00131841
0.00131276
0.00128308
0.0013112
0.0013112
0.0012847
0.0012847
0.00131276
0.00128308
0.0013112
0.0013112
0.0012847
0.0012847
0.0013112
0.0012847
0.0012847
0.00131276
0.00128308
0.0013112
0.0012847
0.0012847
0.00128308
0.00127743
0.00124778
0.00127587
0.00127587
0.0012494
0.0012494
0.00127743
0.00124778
0.00127587
0.00127587
0.0012494
0.0012494
0.00127587
0.0012494
0.0012494
0.00127743
0.00124778
0.00127587
0.0012494
0.0012494
0.00124778
0.00124213
0.0012125
0.00124058
0.00124058
0.00121412
0.00121412
0.00124213
0.0012125
0.00124058
0.00124058
0.00121412
0.00121412
0.00124058
0.00121412
0.00121412
0.00124213
0.0012125
0.00124058
0.00121412
0.00121412
0.0012125
0.00120686
0.00117724
0.0012053
0.0012053
0.00117886
0.00117886
0.00120686
0.00117724
0.0012053
0.0012053
0.00117886
0.00117886
0.0012053
0.00117886
0.00117886
0.00120686
0.00117724
0.0012053
0.00117886
0.00117886
0.00117724
0.0011716
0.001142
0.00117005
0.00117005
0.00114361
0.00114361
0.0011716
0.001142
0.00117005
0.00117005
0.00114361
0.00114361
0.00117005
0.00114361
0.00114361
0.0011716
0.001142
0.00117005
0.00114361
0.00114361
0.001142
0.00113636
0.00110677
0.0011348
0.0011348
0.00110838
0.00110838
0.00113636
0.00110677
0.0011348
0.0011348
0.00110838
0.00110838
0.00113481
0.00110838
0.00110838
0.00113636
0.00110677
0.0011348
0.00110838
0.00110838
0.00110677
0.00110113
0.00107154
0.00109957
0.00109957
0.00107315
0.00107316
0.00110113
0.00107154
0.00109957
0.00109957
0.00107315
0.00107316
0.00109957
0.00107315
0.00107316
0.00110113
0.00107154
0.00109957
0.00107315
0.00107316
0.00107154
0.00106591
0.00103632
0.00106435
0.00106435
0.00103793
0.00103793
0.00106591
0.00103632
0.00106435
0.00106435
0.00103793
0.00103793
0.00106435
0.00103793
0.00103793
0.00106591
0.00103632
0.00106435
0.00103793
0.00103793
0.00103632
0.00103069
0.0010011
0.00102913
0.00102913
0.00100271
0.00100271
0.00103069
0.0010011
0.00102913
0.00102913
0.00100271
0.00100271
0.00102913
0.00100271
0.00100271
0.00103069
0.0010011
0.00102913
0.00100271
0.00100271
0.0010011
0.000995467
0.000965878
0.000993907
0.000993907
0.00096749
0.00096749
0.000995467
0.000965879
0.000993907
0.000993907
0.00096749
0.00096749
0.000993907
0.00096749
0.00096749
0.000995467
0.000965878
0.000993907
0.00096749
0.00096749
0.000965878
0.000960245
0.000930651
0.000958683
0.000958683
0.000932262
0.000932262
0.000960244
0.000930651
0.000958683
0.000958683
0.000932262
0.000932262
0.000958683
0.000932262
0.000932262
0.000960244
0.00093065
0.000958683
0.000932262
0.000932262
0.00093065
0.000925017
0.000895416
0.000923454
0.000923454
0.000897027
0.000897026
0.000925016
0.000895416
0.000923454
0.000923454
0.000897026
0.000897026
0.000923454
0.000897026
0.000897026
0.000925016
0.000895415
0.000923454
0.000897026
0.000897026
0.000895415
0.000889781
0.00086017
0.000888216
0.000888216
0.000861781
0.000861781
0.00088978
0.00086017
0.000888216
0.000888216
0.000861781
0.000861781
0.000888216
0.00086178
0.000861781
0.00088978
0.00086017
0.000888216
0.000861781
0.000861781
0.00086017
0.000854533
0.00082491
0.000852967
0.000852967
0.000826521
0.000826521
0.000854533
0.00082491
0.000852967
0.000852967
0.000826521
0.000826521
0.000852967
0.000826521
0.000826521
0.000854533
0.00082491
0.000852967
0.000826521
0.000826521
0.00082491
0.000819272
0.000789635
0.000817704
0.000817704
0.000791246
0.000791246
0.000819272
0.000789635
0.000817704
0.000817704
0.000791246
0.000791246
0.000817704
0.000791245
0.000791246
0.000819272
0.000789635
0.000817704
0.000791246
0.000791246
0.000789634
0.00165551
0.0016688
0.00165549
0.00166881
0.0016688
0.00165548
0.00165551
0.0016688
0.00165549
0.00166881
0.00166686
0.00166686
0.00166686
0.00164
0.00164
0.00164
0.00164
0.00165565
0.00166877
0.00166683
0.00165782
0.00165556
0.00165787
0.00166875
0.0016688
0.00165548
0.00165565
0.00166683
0.00166877
0.00165782
0.00165787
0.00165556
0.00166875
0.00166881
0.00166881
0.00165618
0.00165549
0.00165549
0.00161972
0.00163299
0.00163299
0.0016197
0.00163299
0.0016197
0.00161972
0.00163299
0.00163299
0.0016197
0.00163105
0.00163105
0.00163105
0.00160424
0.00160424
0.00160424
0.00160424
0.00161986
0.00163295
0.00163101
0.00162203
0.00163293
0.00161977
0.00162207
0.00163299
0.0016197
0.00161986
0.00163102
0.00163295
0.00162203
0.00163293
0.00162207
0.00161977
0.001633
0.001633
0.00162038
0.00161971
0.00161971
0.001584
0.00159724
0.00159725
0.00158398
0.00159725
0.00158398
0.001584
0.00159724
0.00159725
0.00158398
0.00159531
0.00159531
0.00159531
0.00156854
0.00156854
0.00156854
0.00156854
0.00158413
0.00159721
0.00159527
0.0015863
0.00159719
0.00158405
0.00158634
0.00159725
0.00158398
0.00158413
0.00159527
0.00159721
0.0015863
0.00159719
0.00158634
0.00158405
0.00159725
0.00159725
0.00158466
0.00158399
0.00158399
0.00154834
0.00156157
0.00156157
0.00154833
0.00156157
0.00154832
0.00154834
0.00156157
0.00156157
0.00154833
0.00155963
0.00155963
0.00155963
0.00153291
0.00153291
0.00153291
0.00153291
0.00154847
0.00156153
0.00155959
0.00155063
0.00156151
0.00154839
0.00155068
0.00156157
0.00154832
0.00154847
0.00155959
0.00156153
0.00155063
0.0015615
0.00155068
0.00154839
0.00156157
0.00156157
0.00154899
0.00154833
0.00154833
0.00151275
0.00152595
0.00152595
0.00151273
0.00152595
0.00151273
0.00151275
0.00152595
0.00152595
0.00151273
0.00152401
0.00152401
0.00152401
0.00149733
0.00149733
0.00149733
0.00149733
0.00151287
0.00152591
0.00152397
0.00151502
0.00152589