/*--------------------------------*- C++ -*----------------------------------*\
| =========                 |                                                 |
| \\      /  F ield         | OpenFOAM: The Open Source CFD Toolbox           |
|  \\    /   O peration     | Version:  v1912                                 |
|   \\  /    A nd           | Website:  www.openfoam.com                      |
|    \\/     M anipulation  |                                                 |
\*---------------------------------------------------------------------------*/
FoamFile
{
    version     2.0;
    format      ascii;
    class       volScalarField;
    location    "1";
    object      nut;
}
// * * * * * * * * * * * * * * * * * * * * * * * * * * * * * * * * * * * * * //

dimensions      [0 2 -1 0 0 0 0];


internalField   nonuniform List<scalar> 
171728
(
7.17926e-07
7.53015e-07
7.53496e-07
2.97239e-07
4.7831e-08
5.69198e-08
5.71013e-08
7.70464e-08
3.72648e-09
4.92773e-09
4.92218e-09
7.514e-08
9.9147e-10
2.98188e-09
2.95832e-09
7.52255e-08
1.0183e-09
2.81827e-09
2.82267e-09
7.52296e-08
1.01757e-09
2.81281e-09
2.81701e-09
7.52294e-08
1.00864e-09
2.8215e-09
2.81564e-09
7.52297e-08
1.01908e-09
2.82087e-09
2.81856e-09
7.52297e-08
1.02408e-09
2.81981e-09
2.81302e-09
7.52311e-08
1.01996e-09
2.81838e-09
2.8154e-09
7.52302e-08
1.02046e-09
2.81769e-09
2.81864e-09
7.52302e-08
1.02954e-09
2.81534e-09
2.81799e-09
7.52314e-08
1.03392e-09
2.83985e-09
2.81779e-09
7.52308e-08
1.03919e-09
2.84305e-09
2.8167e-09
7.52304e-08
1.01454e-09
2.81004e-09
2.81905e-09
7.52311e-08
1.01801e-09
2.8111e-09
2.8149e-09
7.52312e-08
1.02687e-09
2.82037e-09
2.81825e-09
7.52315e-08
1.01931e-09
2.81199e-09
2.81714e-09
7.52314e-08
1.0183e-09
2.80459e-09
2.81777e-09
7.52302e-08
1.00447e-09
2.83212e-09
2.81182e-09
7.52251e-08
1.10692e-09
2.82095e-09
2.81808e-09
7.5233e-08
1.02059e-09
2.82142e-09
2.81742e-09
7.52333e-08
1.02408e-09
2.82072e-09
2.81887e-09
7.52334e-08
1.02387e-09
2.81977e-09
2.81824e-09
7.52332e-08
1.02564e-09
2.82041e-09
2.81921e-09
7.52336e-08
1.02469e-09
2.81995e-09
2.81805e-09
7.52337e-08
1.0242e-09
2.82017e-09
2.81842e-09
7.52337e-08
1.02486e-09
2.81982e-09
2.81807e-09
7.52336e-08
1.02441e-09
2.81938e-09
2.81764e-09
7.52332e-08
1.02494e-09
2.82032e-09
2.8187e-09
7.52334e-08
1.02372e-09
2.82006e-09
2.81818e-09
7.52335e-08
1.0249e-09
2.81763e-09
2.81811e-09
7.52336e-08
1.02526e-09
2.82196e-09
2.81923e-09
7.52336e-08
1.02388e-09
2.82052e-09
2.81854e-09
7.52336e-08
1.02407e-09
2.82098e-09
2.81905e-09
7.52337e-08
1.02464e-09
2.82047e-09
2.81932e-09
7.52332e-08
1.02525e-09
2.82177e-09
2.82064e-09
7.52336e-08
1.02504e-09
2.82091e-09
2.81978e-09
7.5234e-08
1.02484e-09
2.82126e-09
2.82562e-09
7.52339e-08
1.04206e-09
2.82827e-09
2.82511e-09
7.52194e-08
1.1784e-09
2.80198e-09
2.82029e-09
7.52329e-08
1.02375e-09
2.8148e-09
2.81269e-09
7.52336e-08
1.02656e-09
2.81997e-09
2.8126e-09
7.5234e-08
1.02806e-09
2.81889e-09
2.81371e-09
7.52342e-08
1.02953e-09
2.81845e-09
2.81687e-09
7.52342e-08
1.02803e-09
2.8181e-09
2.8141e-09
7.52345e-08
1.02771e-09
2.81775e-09
2.81761e-09
7.5235e-08
1.02741e-09
2.81771e-09
2.82005e-09
7.5235e-08
1.02789e-09
2.81851e-09
2.82095e-09
7.52346e-08
1.02799e-09
2.81808e-09
2.82054e-09
7.52344e-08
1.02832e-09
2.81793e-09
2.82099e-09
7.52345e-08
1.0288e-09
2.81833e-09
2.81973e-09
7.52345e-08
1.02902e-09
2.81906e-09
2.82049e-09
7.52344e-08
1.0294e-09
2.82642e-09
2.82018e-09
7.52344e-08
1.03138e-09
2.81816e-09
2.82118e-09
7.52341e-08
1.02764e-09
2.81651e-09
2.81834e-09
7.52306e-08
1.02685e-09
2.82054e-09
2.81795e-09
7.52229e-08
1.02696e-09
2.82086e-09
2.81776e-09
7.52225e-08
1.02702e-09
2.82151e-09
2.81856e-09
7.52229e-08
1.02696e-09
2.82119e-09
2.81744e-09
7.52229e-08
1.02678e-09
2.82118e-09
2.81861e-09
7.52226e-08
1.02657e-09
2.82104e-09
2.81786e-09
7.52228e-08
1.02633e-09
2.82095e-09
2.81782e-09
7.52223e-08
1.02723e-09
2.82075e-09
2.81787e-09
7.52224e-08
1.02712e-09
2.82193e-09
2.81884e-09
7.52225e-08
1.02624e-09
2.82153e-09
2.81842e-09
7.52223e-08
1.02645e-09
2.82016e-09
2.81707e-09
7.52224e-08
1.0255e-09
2.82005e-09
2.81733e-09
7.52225e-08
1.02177e-09
2.81981e-09
2.81819e-09
7.52226e-08
1.01794e-09
2.8217e-09
2.80022e-09
7.52241e-08
1.02235e-09
2.82176e-09
2.8131e-09
7.52201e-08
1.02666e-09
2.82126e-09
2.81835e-09
7.52221e-08
1.0264e-09
2.82149e-09
2.81799e-09
7.52222e-08
1.02642e-09
2.82036e-09
2.81654e-09
7.52214e-08
1.02709e-09
2.82102e-09
2.8169e-09
7.52211e-08
1.02668e-09
2.82061e-09
2.81665e-09
7.52207e-08
1.02701e-09
2.82157e-09
2.81744e-09
7.52213e-08
1.02682e-09
2.82125e-09
2.81743e-09
7.52211e-08
1.02717e-09
2.82046e-09
2.81731e-09
7.52211e-08
1.02718e-09
2.82213e-09
2.81904e-09
7.52212e-08
1.02668e-09
2.82114e-09
2.81804e-09
7.52214e-08
1.02625e-09
2.82041e-09
2.8173e-09
7.52212e-08
1.02658e-09
2.82111e-09
2.818e-09
7.52209e-08
1.02851e-09
2.82135e-09
2.81824e-09
7.52212e-08
1.02823e-09
2.821e-09
2.81789e-09
7.5221e-08
1.02861e-09
2.82122e-09
2.81859e-09
7.52209e-08
1.02855e-09
2.8211e-09
2.81821e-09
7.52215e-08
1.02791e-09
2.82013e-09
2.81734e-09
7.5221e-08
1.02826e-09
2.82081e-09
2.81754e-09
7.52207e-08
1.029e-09
2.82162e-09
2.81835e-09
7.52209e-08
1.03133e-09
2.82092e-09
2.81615e-09
7.5223e-08
1.10421e-09
2.84427e-09
2.85025e-09
7.52217e-08
3.23382e-09
3.83817e-09
3.89646e-09
7.51719e-08
4.24302e-08
3.90645e-08
3.90173e-08
7.4489e-08
3.28243e-07
1.87041e-07
1.87079e-07
3.422e-07
2.29195e-07
4.93684e-07
4.93915e-07
2.29215e-07
4.93727e-07
4.93871e-07
1.36646e-06
1.36647e-06
1.36648e-06
1.36649e-06
4.93546e-07
4.93653e-07
2.29044e-07
4.93517e-07
4.93733e-07
2.29006e-07
2.97306e-07
1.98057e-07
7.53483e-07
7.53341e-07
1.24852e-07
1.24797e-07
2.97224e-07
1.97922e-07
7.53353e-07
7.53963e-07
1.25014e-07
1.24925e-07
7.53741e-07
1.24882e-07
1.24792e-07
2.97263e-07
1.98028e-07
7.5342e-07
1.24951e-07
1.24926e-07
1.98046e-07
7.7099e-08
1.9322e-07
5.69929e-08
5.70092e-08
7.46032e-09
7.53635e-09
7.70584e-08
1.93296e-07
5.70196e-08
5.70125e-08
7.4224e-09
7.48239e-09
5.70055e-08
7.368e-09
7.4493e-09
7.71109e-08
1.93255e-07
5.71424e-08
7.44786e-09
7.40596e-09
1.93255e-07
7.50612e-08
1.92973e-07
4.95745e-09
4.94515e-09
3.12646e-09
3.12186e-09
7.50623e-08
1.92975e-07
4.97517e-09
4.95422e-09
3.10615e-09
3.13006e-09
4.97111e-09
3.10633e-09
3.14096e-09
7.51109e-08
1.92992e-07
4.98532e-09
3.07932e-09
3.0743e-09
1.92957e-07
7.52037e-08
1.92957e-07
2.98859e-09
3.02222e-09
2.8629e-09
2.85948e-09
7.51841e-08
1.92947e-07
2.94636e-09
2.99565e-09
2.82582e-09
2.86717e-09
3.00766e-09
2.82278e-09
2.85695e-09
7.52203e-08
1.92971e-07
2.96659e-09
2.81352e-09
2.81698e-09
1.92926e-07
7.52091e-08
1.92957e-07
2.85941e-09
2.85691e-09
2.85591e-09
2.86082e-09
7.51926e-08
1.92941e-07
2.80991e-09
2.86292e-09
2.83026e-09
2.85674e-09
2.85077e-09
2.81031e-09
2.84625e-09
7.52198e-08
1.9297e-07
2.81253e-09
2.80309e-09
2.80576e-09
1.92926e-07
7.52086e-08
1.92958e-07
2.85782e-09
2.87026e-09
2.84197e-09
2.88926e-09
7.51964e-08
1.92951e-07
2.79946e-09
2.85755e-09
2.82606e-09
2.85565e-09
2.84571e-09
2.82408e-09
2.84368e-09
7.52194e-08
1.92975e-07
2.80711e-09
2.80128e-09
2.80441e-09
1.92929e-07
7.52124e-08
1.9296e-07
2.81348e-09
2.88139e-09
2.87646e-09
2.8686e-09
7.51879e-08
1.92951e-07
2.79474e-09
2.85715e-09
2.83069e-09
2.85627e-09
2.84343e-09
2.82098e-09
2.8444e-09
7.52196e-08
1.92973e-07
2.80631e-09
2.80229e-09
2.80622e-09
1.92927e-07
7.52132e-08
1.92963e-07
2.85693e-09
2.87092e-09
2.85657e-09
2.87017e-09
7.51854e-08
1.9295e-07
2.80552e-09
2.8586e-09
2.83421e-09
2.85811e-09
2.84495e-09
2.82162e-09
2.84557e-09
7.52195e-08
1.92971e-07
2.80934e-09
2.80357e-09
2.80758e-09
1.92925e-07
7.51918e-08
1.9296e-07
2.85681e-09
2.86974e-09
2.8331e-09
2.85153e-09
7.51868e-08
1.92963e-07
2.80352e-09
2.85936e-09
2.8185e-09
2.85534e-09
2.84486e-09
2.81633e-09
2.84184e-09
7.5221e-08
1.92978e-07
2.80675e-09
2.80027e-09
2.80379e-09
1.92932e-07
7.51998e-08
1.92943e-07
2.83924e-09
2.81619e-09
2.87597e-09
2.80756e-09
7.51804e-08
1.92951e-07
2.80847e-09
2.85735e-09
2.8181e-09
2.85821e-09
2.84209e-09
2.81737e-09
2.84472e-09
7.52201e-08
1.92974e-07
2.80633e-09
2.80329e-09
2.80696e-09
1.92927e-07
7.52114e-08
1.92954e-07
2.90195e-09
2.8283e-09
2.85668e-09
2.8133e-09
7.51851e-08
1.92949e-07
2.81708e-09
2.85964e-09
2.82329e-09
2.85716e-09
2.84513e-09
2.81856e-09
2.84405e-09
7.52198e-08
1.92975e-07
2.80947e-09
2.80319e-09
2.80595e-09
1.92929e-07
7.52002e-08
1.92952e-07
2.85537e-09
2.8021e-09
2.85217e-09
2.80547e-09
7.51862e-08
1.92975e-07
2.81734e-09
2.85858e-09
2.81685e-09
2.85565e-09
2.84389e-09
2.82722e-09
2.84665e-09
7.52214e-08
1.92973e-07
2.80723e-09
2.80344e-09
2.80517e-09
1.92929e-07
7.52012e-08
1.92959e-07
2.85354e-09
2.81538e-09
2.84498e-09
2.87657e-09
7.51831e-08
1.92978e-07
2.81123e-09
2.85692e-09
2.80732e-09
2.8542e-09
2.84713e-09
2.83493e-09
2.84613e-09
7.52215e-08
1.92977e-07
2.8078e-09
2.80153e-09
2.80536e-09
1.92934e-07
7.51941e-08
1.92944e-07
2.84685e-09
2.88471e-09
2.87664e-09
2.86346e-09
7.5189e-08
1.92958e-07
2.80368e-09
2.85628e-09
2.80203e-09
2.8582e-09
2.84628e-09
2.81718e-09
2.84764e-09
7.52209e-08
1.92973e-07
2.80825e-09
2.80458e-09
2.80845e-09
1.92927e-07
7.52057e-08
1.92952e-07
2.8625e-09
2.85239e-09
2.85912e-09
2.91804e-09
7.51987e-08
1.92949e-07
2.81766e-09
2.85933e-09
2.82069e-09
2.85409e-09
2.84762e-09
2.819e-09
2.84248e-09
7.52213e-08
1.92979e-07
2.81006e-09
2.80061e-09
2.80311e-09
1.92934e-07
7.5203e-08
1.92949e-07
2.8574e-09
2.88719e-09
2.86383e-09
2.86907e-09
7.52145e-08
1.92931e-07
2.81682e-09
2.8554e-09
2.82075e-09
2.85711e-09
2.84174e-09
2.81688e-09
2.84531e-09
7.52213e-08
1.92977e-07
2.80485e-09
2.80345e-09
2.80645e-09
1.92931e-07
7.52046e-08
1.92947e-07
2.84994e-09
2.86839e-09
2.86716e-09
2.85852e-09
7.52079e-08
1.92973e-07
2.81872e-09
2.8587e-09
2.82147e-09
2.85673e-09
2.84599e-09
2.81977e-09
2.84537e-09
7.52215e-08
1.92978e-07
2.80927e-09
2.80234e-09
2.806e-09
1.92931e-07
7.52024e-08
1.92967e-07
2.84286e-09
2.84909e-09
2.8333e-09
2.84407e-09
7.5218e-08
1.92975e-07
2.81694e-09
2.85879e-09
2.81273e-09
2.85891e-09
2.84603e-09
2.79797e-09
2.84536e-09
7.52214e-08
1.92977e-07
2.80817e-09
2.80304e-09
2.80332e-09
1.92933e-07
7.52061e-08
1.92935e-07
2.83128e-09
2.86493e-09
2.90205e-09
2.95019e-09
7.52483e-08
1.93015e-07
2.80848e-09
2.86051e-09
2.83725e-09
2.85443e-09
2.84318e-09
2.8455e-09
2.85313e-09
7.52215e-08
1.92978e-07
2.80145e-09
2.79919e-09
2.80372e-09
1.92946e-07
7.52453e-08
1.93004e-07
2.85845e-09
2.88661e-09
2.84904e-09
2.91457e-09
7.51913e-08
1.92969e-07
2.83511e-09
2.85434e-09
2.68195e-09
2.85936e-09
2.86569e-09
2.80552e-09
2.84599e-09
7.52236e-08
1.92983e-07
2.82043e-09
2.7999e-09
2.8065e-09
1.92937e-07
7.51986e-08
1.9297e-07
2.89639e-09
2.9017e-09
2.87486e-09
2.86441e-09
7.52052e-08
1.92965e-07
2.76244e-09
2.85783e-09
2.832e-09
2.85588e-09
2.84539e-09
2.82613e-09
2.84388e-09
7.52226e-08
1.92979e-07
2.80814e-09
2.80286e-09
2.80667e-09
1.92934e-07
7.52268e-08
1.9297e-07
2.86653e-09
2.87015e-09
2.85554e-09
2.86991e-09
7.52043e-08
1.92967e-07
2.81914e-09
2.85687e-09
2.8232e-09
2.85727e-09
2.84331e-09
2.82169e-09
2.84463e-09
7.52234e-08
1.92981e-07
2.80777e-09
2.80374e-09
2.80699e-09
1.92935e-07
7.52264e-08
1.9297e-07
2.86103e-09
2.87314e-09
2.85411e-09
2.86849e-09
7.52042e-08
1.92967e-07
2.81657e-09
2.8582e-09
2.82133e-09
2.85577e-09
2.84519e-09
2.82078e-09
2.84296e-09
7.52234e-08
1.92981e-07
2.80939e-09
2.80305e-09
2.8154e-09
1.92935e-07
7.52263e-08
1.9297e-07
2.85898e-09
2.87159e-09
2.8541e-09
2.86944e-09
7.52041e-08
1.92966e-07
2.81529e-09
2.85657e-09
2.82133e-09
2.85667e-09
2.84372e-09
2.82152e-09
2.84435e-09
7.52233e-08
1.9298e-07
2.81585e-09
2.80404e-09
2.8113e-09
1.92934e-07
7.52258e-08
1.92971e-07
2.86047e-09
2.87277e-09
2.85354e-09
2.86887e-09
7.52041e-08
1.92966e-07
2.81677e-09
2.85773e-09
2.82076e-09
2.85628e-09
2.84394e-09
2.8211e-09
2.84466e-09
7.52233e-08
1.9298e-07
2.81384e-09
2.80284e-09
2.80954e-09
1.92934e-07
7.52265e-08
1.92968e-07
2.8587e-09
2.87214e-09
2.85509e-09
2.86998e-09
7.52045e-08
1.92964e-07
2.81504e-09
2.85722e-09
2.82229e-09
2.85727e-09
2.84479e-09
2.8219e-09
2.84384e-09
7.52236e-08
1.92979e-07
2.81234e-09
2.80403e-09
2.80972e-09
1.92934e-07
7.52264e-08
1.92971e-07
2.8598e-09
2.87242e-09
2.85352e-09
2.86867e-09
7.52045e-08
1.92967e-07
2.81609e-09
2.85746e-09
2.82076e-09
2.85596e-09
2.84394e-09
2.82065e-09
2.8435e-09
7.52237e-08
1.92981e-07
2.81185e-09
2.80279e-09
2.8094e-09
1.92936e-07
7.5226e-08
1.9297e-07
2.85962e-09
2.87231e-09
2.85373e-09
2.86879e-09
7.52042e-08
1.92967e-07
2.81593e-09
2.85734e-09
2.82094e-09
2.8561e-09
2.84364e-09
2.82105e-09
2.84395e-09
7.52233e-08
1.92981e-07
2.81155e-09
2.80321e-09
2.80983e-09
1.92936e-07
7.5226e-08
1.9297e-07
2.85879e-09
2.87155e-09
2.85453e-09
2.86957e-09
7.52042e-08
1.92966e-07
2.8151e-09
2.85657e-09
2.82172e-09
2.85683e-09
2.84412e-09
2.82168e-09
2.84442e-09
7.52233e-08
1.9298e-07
2.81203e-09
2.80386e-09
2.81031e-09
1.92934e-07
7.5226e-08
1.92971e-07
2.85986e-09
2.87294e-09
2.85399e-09
2.86777e-09
7.52041e-08
1.92967e-07
2.81616e-09
2.85769e-09
2.82083e-09
2.85643e-09
2.84438e-09
2.82177e-09
2.845e-09
7.52233e-08
1.92981e-07
2.81229e-09
2.80377e-09
2.81095e-09
1.92934e-07
7.52261e-08
1.92969e-07
2.85866e-09
2.85279e-09
2.85436e-09
2.87446e-09
7.52053e-08
1.92961e-07
2.81486e-09
2.85696e-09
2.82152e-09
2.85642e-09
2.84444e-09
2.8244e-09
2.84367e-09
7.52233e-08
1.92981e-07
2.8123e-09
2.80328e-09
2.80954e-09
1.92935e-07
7.5226e-08
1.92969e-07
2.86021e-09
2.87095e-09
2.85438e-09
2.87468e-09
7.52067e-08
1.92972e-07
2.81625e-09
2.85719e-09
2.82163e-09
2.85722e-09
2.84385e-09
2.82297e-09
2.84508e-09
7.52235e-08
1.92979e-07
2.81176e-09
2.80417e-09
2.81098e-09
1.92933e-07
7.52258e-08
1.9297e-07
2.86055e-09
2.8775e-09
2.85405e-09
2.87332e-09
7.52003e-08
1.92973e-07
2.81686e-09
2.85834e-09
2.82125e-09
2.85621e-09
2.84509e-09
2.82199e-09
2.84355e-09
7.52233e-08
1.9298e-07
2.81297e-09
2.80379e-09
2.80997e-09
1.92935e-07
7.52266e-08
1.9297e-07
2.85835e-09
2.87592e-09
2.85439e-09
2.87351e-09
7.52007e-08
1.92974e-07
2.81466e-09
2.85651e-09
2.82162e-09
2.85727e-09
2.84387e-09
2.82195e-09
2.84467e-09
7.52237e-08
1.92981e-07
2.81252e-09
2.79979e-09
2.80617e-09
1.92936e-07
7.52261e-08
1.9297e-07
2.85944e-09
2.87666e-09
2.85394e-09
2.87301e-09
7.52003e-08
1.92974e-07
2.81576e-09
2.8574e-09
2.82115e-09
2.85633e-09
2.84421e-09
2.82138e-09
2.84376e-09
7.52237e-08
1.92982e-07
2.81286e-09
2.80138e-09
2.80789e-09
1.92937e-07
7.52258e-08
1.9297e-07
2.85926e-09
2.87612e-09
2.85406e-09
2.87362e-09
7.52e-08
1.92973e-07
2.81556e-09
2.85659e-09
2.82129e-09
2.85688e-09
2.84411e-09
2.82217e-09
2.84415e-09
7.52234e-08
1.92981e-07
2.81375e-09
2.80221e-09
2.80834e-09
1.92936e-07
7.52258e-08
1.9297e-07
2.86003e-09
2.87719e-09
2.85446e-09
2.87367e-09
7.52001e-08
1.92973e-07
2.81635e-09
2.85763e-09
2.82166e-09
2.85692e-09
2.84434e-09
2.82219e-09
2.84526e-09
7.52235e-08
1.92981e-07
2.81402e-09
2.80224e-09
2.80948e-09
1.92935e-07
7.52259e-08
1.92971e-07
2.8599e-09
2.87668e-09
2.85415e-09
2.87308e-09
7.52003e-08
1.92973e-07
2.8162e-09
2.85709e-09
2.8213e-09
2.85603e-09
2.84363e-09
2.8222e-09
2.84402e-09
7.52237e-08
1.92981e-07
2.81336e-09
2.80279e-09
2.8089e-09
1.92936e-07
7.52261e-08
1.92969e-07
2.85978e-09
2.87586e-09
2.86643e-09
2.86678e-09
7.52005e-08
1.92972e-07
2.8157e-09
2.85595e-09
2.81771e-09
2.85606e-09
2.84228e-09
2.82409e-09
2.81822e-09
7.52234e-08
1.92981e-07
2.81393e-09
2.79956e-09
2.79141e-09
1.92936e-07
7.52222e-08
1.92973e-07
2.85805e-09
2.87745e-09
2.80587e-09
2.87e-09
7.52017e-08
1.92993e-07
2.80035e-09
2.85602e-09
2.79004e-09
2.86317e-09
2.82355e-09
2.80839e-09
2.88457e-09
7.5223e-08
1.92983e-07
2.71883e-09
2.80166e-09
2.80505e-09
1.92941e-07
7.52154e-08
1.92966e-07
2.8468e-09
2.83509e-09
2.85764e-09
2.86944e-09
7.52104e-08
1.93002e-07
2.70584e-09
2.86421e-09
2.83714e-09
2.8574e-09
2.85854e-09
2.8148e-09
2.84612e-09
7.5223e-08
1.92982e-07
2.83168e-09
2.80841e-09
2.8095e-09
1.92936e-07
7.52145e-08
1.92961e-07
2.85291e-09
2.88256e-09
2.84936e-09
2.88058e-09
7.52502e-08
1.92993e-07
2.79987e-09
2.85711e-09
2.83203e-09
2.85633e-09
2.8448e-09
2.82218e-09
2.84445e-09
7.52231e-08
1.92983e-07
2.8125e-09
2.80775e-09
2.80757e-09
1.92937e-07
7.52101e-08
1.92959e-07
2.85151e-09
2.87416e-09
2.84949e-09
2.86952e-09
7.52192e-08
1.92994e-07
2.80042e-09
2.85663e-09
2.83396e-09
2.85719e-09
2.84352e-09
2.81979e-09
2.84535e-09
7.52231e-08
1.92982e-07
2.81199e-09
2.80903e-09
2.80906e-09
1.92936e-07
7.52107e-08
1.92957e-07
2.85145e-09
2.86981e-09
2.84983e-09
2.86927e-09
7.52181e-08
1.92993e-07
2.80163e-09
2.85778e-09
2.83163e-09
2.85765e-09
2.84492e-09
2.8194e-09
2.84442e-09
7.52234e-08
1.92981e-07
2.81377e-09
2.80631e-09
2.80837e-09
1.92935e-07
7.52108e-08
1.92957e-07
2.85155e-09
2.86942e-09
2.84896e-09
2.86894e-09
7.52182e-08
1.92993e-07
2.801e-09
2.85775e-09
2.83497e-09
2.85736e-09
2.84421e-09
2.81914e-09
2.84496e-09
7.52235e-08
1.92982e-07
2.81338e-09
2.80958e-09
2.81153e-09
1.92936e-07
7.52108e-08
1.92958e-07
2.85123e-09
2.86896e-09
2.84858e-09
2.86812e-09
7.52183e-08
1.92994e-07
2.80166e-09
2.85761e-09
2.83519e-09
2.85727e-09
2.8441e-09
2.81843e-09
2.84471e-09
7.52234e-08
1.92983e-07
2.81255e-09
2.80827e-09
2.80859e-09
1.92937e-07
7.52108e-08
1.92959e-07
2.85088e-09
2.86834e-09
2.84898e-09
2.86877e-09
7.52182e-08
1.92994e-07
2.80155e-09
2.85755e-09
2.83476e-09
2.85767e-09
2.84309e-09
2.81891e-09
2.84552e-09
7.52236e-08
1.92983e-07
2.81577e-09
2.80159e-09
2.80868e-09
1.92937e-07
7.52113e-08
1.92958e-07
2.85018e-09
2.86825e-09
2.84915e-09
2.86893e-09
7.52184e-08
1.92994e-07
2.8006e-09
2.857e-09
2.83484e-09
2.85762e-09
2.84337e-09
2.81933e-09
2.84553e-09
7.52241e-08
1.92982e-07
2.8129e-09
2.80222e-09
2.80954e-09
1.92936e-07
7.52107e-08
1.92959e-07
2.85103e-09
2.86916e-09
2.84822e-09
2.86817e-09
7.52178e-08
1.92995e-07
2.80135e-09
2.8578e-09
2.83393e-09
2.85683e-09
2.84385e-09
2.81851e-09
2.84479e-09
7.52235e-08
1.92983e-07
2.81364e-09
2.80138e-09
2.80885e-09
1.92938e-07
7.52103e-08
1.9296e-07
2.85096e-09
2.86889e-09
2.84863e-09
2.86868e-09
7.52178e-08
1.92995e-07
2.80129e-09
2.85748e-09
2.83439e-09
2.85725e-09
2.84354e-09
2.81895e-09
2.84462e-09
7.52234e-08
1.92983e-07
2.81341e-09
2.80239e-09
2.80957e-09
1.92938e-07
7.52106e-08
1.92958e-07
2.85095e-09
2.86915e-09
2.84915e-09
2.86886e-09
7.5218e-08
1.92994e-07
2.80135e-09
2.85767e-09
2.83497e-09
2.85758e-09
2.8438e-09
2.81943e-09
2.84495e-09
7.52236e-08
1.92982e-07
2.81698e-09
2.80248e-09
2.80938e-09
1.92936e-07
7.52107e-08
1.92958e-07
2.85129e-09
2.86908e-09
2.84906e-09
2.86917e-09
7.52181e-08
1.92994e-07
2.8018e-09
2.85784e-09
2.83523e-09
2.85743e-09
2.84412e-09
2.81958e-09
2.84451e-09
7.52236e-08
1.92982e-07
2.81204e-09
2.803e-09
2.8106e-09
1.92936e-07
7.52109e-08
1.92959e-07
2.85085e-09
2.86944e-09
2.84692e-09
2.87369e-09
7.5218e-08
1.92996e-07
2.80181e-09
2.85769e-09
2.82576e-09
2.85675e-09
2.84382e-09
2.82299e-09
2.84303e-09
7.52236e-08
1.92982e-07
2.81324e-09
2.80273e-09
2.81071e-09
1.92937e-07
7.52113e-08
1.92957e-07
2.84899e-09
2.88283e-09
2.84427e-09
2.851e-09
7.52164e-08
1.9301e-07
2.81752e-09
2.8577e-09
2.82241e-09
2.85772e-09
2.84216e-09
2.822e-09
2.84322e-09
7.52236e-08
1.92981e-07
2.81275e-09
2.80345e-09
2.81151e-09
1.92936e-07
7.52118e-08
1.92959e-07
2.84771e-09
2.82744e-09
2.84703e-09
2.86084e-09
7.52044e-08
1.92995e-07
2.81663e-09
2.85855e-09
2.82138e-09
2.85806e-09
2.84357e-09
2.81627e-09
2.84074e-09
7.52235e-08
1.92981e-07
2.81391e-09
2.80385e-09
2.80415e-09
1.92938e-07
7.52108e-08
1.92958e-07
2.84941e-09
2.86367e-09
2.84838e-09
2.86753e-09
7.52163e-08
1.92996e-07
2.81457e-09
2.85957e-09
2.81997e-09
2.85441e-09
2.83359e-09
2.82186e-09
2.85874e-09
7.52231e-08
1.92979e-07
2.7927e-09
2.80436e-09
2.81331e-09
1.92948e-07
7.52105e-08
1.92957e-07
2.85008e-09
2.86759e-09
2.84888e-09
2.86845e-09
7.52166e-08
1.92996e-07
2.81324e-09
2.85425e-09
2.81996e-09
2.85349e-09
2.85991e-09
2.82202e-09
2.85955e-09
7.52242e-08
1.92979e-07
2.81229e-09
2.80341e-09
2.81344e-09
1.9295e-07
7.52107e-08
1.92956e-07
2.85088e-09
2.86829e-09
2.84933e-09
2.86877e-09
7.52168e-08
1.92995e-07
2.81374e-09
2.85406e-09
2.82034e-09
2.8537e-09
2.86023e-09
2.82249e-09
2.85976e-09
7.52243e-08
1.92977e-07
2.81223e-09
2.80388e-09
2.81368e-09
1.9295e-07
7.52107e-08
1.92957e-07
2.85154e-09
2.86889e-09
2.84872e-09
2.86799e-09
7.52169e-08
1.92996e-07
2.81434e-09
2.85457e-09
2.81974e-09
2.85298e-09
2.85986e-09
2.82179e-09
2.85975e-09
7.52244e-08
1.92978e-07
2.81205e-09
2.80285e-09
2.81397e-09
1.9295e-07
7.52106e-08
1.92956e-07
2.85169e-09
2.86873e-09
2.84831e-09
2.86791e-09
7.52169e-08
1.92994e-07
2.8145e-09
2.85457e-09
2.81934e-09
2.85296e-09
2.86008e-09
2.82176e-09
2.85991e-09
7.52244e-08
1.92977e-07
2.8122e-09
2.8025e-09
2.81193e-09
1.92948e-07
7.52105e-08
1.92957e-07
2.85114e-09
2.86861e-09
2.84859e-09
2.86815e-09
7.52166e-08
1.92995e-07
2.81395e-09
2.85437e-09
2.81958e-09
2.85319e-09
2.86042e-09
2.82218e-09
2.86035e-09
7.52242e-08
1.92977e-07
2.81462e-09
2.80337e-09
2.81375e-09
1.92948e-07
7.52108e-08
1.92957e-07
2.85061e-09
2.8684e-09
2.84884e-09
2.86772e-09
7.52169e-08
1.92996e-07
2.81339e-09
2.85418e-09
2.81985e-09
2.85268e-09
2.86058e-09
2.82143e-09
2.85919e-09
7.52244e-08
1.92978e-07
2.81245e-09
2.80277e-09
2.81302e-09
1.92949e-07
7.52106e-08
1.92957e-07
2.85082e-09
2.86817e-09
2.84866e-09
2.8679e-09
7.52165e-08
1.92996e-07
2.81361e-09
2.85391e-09
2.81971e-09
2.85288e-09
2.86027e-09
2.82137e-09
2.85909e-09
7.5224e-08
1.92979e-07
2.81225e-09
2.80262e-09
2.81229e-09
1.9295e-07
7.52103e-08
1.92957e-07
2.85162e-09
2.86867e-09
2.84916e-09
2.86867e-09
7.52165e-08
1.92995e-07
2.81445e-09
2.85435e-09
2.81969e-09
2.85364e-09
2.85928e-09
2.8228e-09
2.86105e-09
7.5224e-08
1.92977e-07
2.81278e-09
2.80422e-09
2.81569e-09
1.92947e-07
7.52104e-08
1.92957e-07
2.8517e-09
2.86903e-09
2.84876e-09
2.86826e-09
7.52166e-08
1.92995e-07
2.81534e-09
2.85481e-09
2.81895e-09
2.85319e-09
2.86144e-09
2.82223e-09
2.85924e-09
7.52241e-08
1.92978e-07
2.81421e-09
2.80357e-09
2.81379e-09
1.9295e-07
7.52109e-08
1.92958e-07
2.85079e-09
2.86845e-09
2.84837e-09
2.86773e-09
7.5217e-08
1.92996e-07
2.81382e-09
2.85417e-09
2.81849e-09
2.85266e-09
2.86125e-09
2.82146e-09
2.85844e-09
7.52245e-08
1.92979e-07
2.81391e-09
2.80282e-09
2.81294e-09
1.9295e-07
7.52105e-08
1.92957e-07
2.85117e-09
2.86789e-09
2.84812e-09
2.86788e-09
7.52169e-08
1.92995e-07
2.81411e-09
2.85364e-09
2.8179e-09
2.85301e-09
2.85918e-09
2.82126e-09
2.85911e-09
7.52244e-08
1.92978e-07
2.81179e-09
2.80249e-09
2.81321e-09
1.92951e-07
7.52105e-08
1.92956e-07
2.85083e-09
2.86817e-09
2.84949e-09
2.86889e-09
7.52168e-08
1.92996e-07
2.81332e-09
2.85431e-09
2.81827e-09
2.856e-09
2.85954e-09
2.82133e-09
2.86163e-09
7.52241e-08
1.92979e-07
2.81158e-09
2.80429e-09
2.81244e-09
1.92952e-07
7.52104e-08
1.92956e-07
2.85237e-09
2.86883e-09
2.84999e-09
2.87037e-09
7.52169e-08
1.92994e-07
2.81372e-09
2.85782e-09
2.8181e-09
2.85919e-09
2.86203e-09
2.82213e-09
2.86662e-09
7.52243e-08
1.92971e-07
2.80842e-09
2.76871e-09
2.79553e-09
1.92943e-07
7.52107e-08
1.92954e-07
2.85285e-09
2.8709e-09
2.85117e-09
2.87031e-09
7.52168e-08
1.92993e-07
2.81405e-09
2.85824e-09
2.82005e-09
2.85347e-09
2.86657e-09
2.82265e-09
2.85913e-09
7.52267e-08
1.92975e-07
2.79415e-09
2.79732e-09
2.80543e-09
1.92946e-07
7.521e-08
1.92955e-07
2.85311e-09
2.8703e-09
2.84873e-09
2.86892e-09
7.5216e-08
1.92993e-07
2.81511e-09
2.85399e-09
2.81836e-09
2.85298e-09
2.85986e-09
2.82218e-09
2.8602e-09
7.52228e-08
1.92976e-07
2.80577e-09
2.80036e-09
2.79852e-09
1.9295e-07
7.52088e-08
1.92955e-07
2.85236e-09
2.86931e-09
2.84832e-09
2.86845e-09
7.52154e-08
1.92993e-07
2.815e-09
2.85421e-09
2.81834e-09
2.8531e-09
2.85914e-09
2.82257e-09
2.86028e-09
7.52226e-08
1.92975e-07
2.82059e-09
2.80401e-09
2.80514e-09
1.92947e-07
7.52093e-08
1.92955e-07
2.8508e-09
2.86848e-09
2.84841e-09
2.86794e-09
7.52156e-08
1.92993e-07
2.81373e-09
2.85395e-09
2.81856e-09
2.8528e-09
2.85992e-09
2.82134e-09
2.85876e-09
7.5223e-08
1.92976e-07
2.82746e-09
2.80367e-09
2.81285e-09
1.92947e-07
7.52094e-08
1.92955e-07
2.85044e-09
2.86801e-09
2.84795e-09
2.86812e-09
7.52155e-08
1.92993e-07
2.81344e-09
2.8538e-09
2.81816e-09
2.85301e-09
2.85976e-09
2.82157e-09
2.85889e-09
7.52229e-08
1.92976e-07
2.81183e-09
2.80374e-09
2.81338e-09
1.92947e-07
7.52086e-08
1.92955e-07
2.85138e-09
2.86879e-09
2.84864e-09
2.86818e-09
7.52152e-08
1.92994e-07
2.81443e-09
2.8546e-09
2.81881e-09
2.85297e-09
2.86054e-09
2.82137e-09
2.85862e-09
7.52226e-08
1.92976e-07
2.81255e-09
2.80379e-09
2.81352e-09
1.92948e-07
7.5209e-08
1.92955e-07
2.85077e-09
2.86805e-09
2.84864e-09
2.86853e-09
7.52153e-08
1.92993e-07
2.8138e-09
2.85379e-09
2.81884e-09
2.85334e-09
2.86046e-09
2.82212e-09
2.86011e-09
7.52227e-08
1.92975e-07
2.81276e-09
2.80468e-09
2.8145e-09
1.92946e-07
7.52087e-08
1.92956e-07
2.85176e-09
2.86931e-09
2.84764e-09
2.86728e-09
7.52151e-08
1.92994e-07
2.81479e-09
2.85509e-09
2.81785e-09
2.85203e-09
2.86082e-09
2.82172e-09
2.85929e-09
7.52225e-08
1.92976e-07
2.81246e-09
2.80569e-09
2.81447e-09
1.92947e-07
7.52088e-08
1.92956e-07
2.85072e-09
2.8684e-09
2.84801e-09
2.86743e-09
7.5215e-08
1.92994e-07
2.81377e-09
2.85417e-09
2.81822e-09
2.85239e-09
2.86051e-09
2.82158e-09
2.85908e-09
7.52226e-08
1.92977e-07
2.81288e-09
2.80286e-09
2.8134e-09
1.92948e-07
7.5209e-08
1.92954e-07
2.85082e-09
2.86759e-09
2.84934e-09
2.8693e-09
7.52154e-08
1.92992e-07
2.81388e-09
2.8533e-09
2.81953e-09
2.8542e-09
2.85982e-09
2.82316e-09
2.86041e-09
7.52229e-08
1.92974e-07
2.81234e-09
2.80455e-09
2.81476e-09
1.92945e-07
7.5209e-08
1.92954e-07
2.85213e-09
2.86944e-09
2.84832e-09
2.86771e-09
7.52153e-08
1.92993e-07
2.81515e-09
2.85513e-09
2.8185e-09
2.85259e-09
2.86096e-09
2.82179e-09
2.85907e-09
7.52229e-08
1.92975e-07
2.81351e-09
2.80318e-09
2.81349e-09
1.92946e-07
7.52091e-08
1.92956e-07
2.85105e-09
2.86821e-09
2.84802e-09
2.8676e-09
7.52155e-08
1.92994e-07
2.81405e-09
2.85389e-09
2.81822e-09
2.85248e-09
2.85995e-09
2.82147e-09
2.85857e-09
7.5223e-08
1.92977e-07
2.81251e-09
2.80286e-09
2.81299e-09
1.92948e-07
7.52089e-08
1.92955e-07
2.85041e-09
2.86754e-09
2.84854e-09
2.86818e-09
7.52152e-08
1.92993e-07
2.81345e-09
2.85323e-09
2.81937e-09
2.8531e-09
2.85919e-09
2.82177e-09
2.85954e-09
7.52228e-08
1.92976e-07
2.81178e-09
2.80315e-09
2.81395e-09
1.92946e-07
7.52088e-08
1.92955e-07
2.85099e-09
2.86861e-09
2.84815e-09
2.86822e-09
7.52151e-08
1.92993e-07
2.81648e-09
2.85441e-09
2.83182e-09
2.85309e-09
2.86048e-09
2.82238e-09
2.86004e-09
7.52226e-08
1.92976e-07
2.81303e-09
2.80379e-09
2.81443e-09
1.92947e-07
7.52081e-08
1.92955e-07
2.85112e-09
2.86862e-09
2.84839e-09
2.86806e-09
7.52151e-08
1.92994e-07
2.80055e-09
2.85421e-09
2.83229e-09
2.85299e-09
2.85978e-09
2.82178e-09
2.85909e-09
7.52226e-08
1.92976e-07
2.81232e-09
2.80315e-09
2.81349e-09
1.92948e-07
7.52082e-08
1.92954e-07
2.85106e-09
2.86816e-09
2.84894e-09
2.86853e-09
7.52152e-08
1.92994e-07
2.80058e-09
2.8538e-09
2.83283e-09
2.85372e-09
2.85961e-09
2.82198e-09
2.85981e-09
7.52227e-08
1.92975e-07
2.8122e-09
2.80337e-09
2.8142e-09
1.92948e-07
7.52083e-08
1.92953e-07
2.85151e-09
2.86868e-09
2.849e-09
2.86863e-09
7.52152e-08
1.92992e-07
2.80108e-09
2.85697e-09
2.83282e-09
2.85941e-09
2.86071e-09
2.82253e-09
2.85961e-09
7.52225e-08
1.93011e-07
2.81327e-09
2.80342e-09
2.81397e-09
1.92946e-07
7.52083e-08
1.92955e-07
2.85175e-09
2.86846e-09
2.84798e-09
2.86794e-09
7.52155e-08
1.92994e-07
2.80132e-09
2.84793e-09
2.83181e-09
2.85891e-09
2.85995e-09
2.82134e-09
2.85874e-09
7.52218e-08
1.93012e-07
2.81249e-09
2.80243e-09
2.81322e-09
1.92947e-07
7.52081e-08
1.92958e-07
2.85088e-09
2.86778e-09
2.84763e-09
2.86808e-09
7.5215e-08
1.92996e-07
2.8005e-09
2.84734e-09
2.83147e-09
2.85905e-09
2.85964e-09
2.82126e-09
2.85901e-09
7.52214e-08
1.93014e-07
2.81229e-09
2.8022e-09
2.81359e-09
1.92949e-07
7.52078e-08
1.92956e-07
2.8511e-09
2.86836e-09
2.84847e-09
2.86833e-09
7.52149e-08
1.92994e-07
2.80069e-09
2.84802e-09
2.83228e-09
2.86204e-09
2.85987e-09
2.8227e-09
2.86024e-09
7.52211e-08
1.93012e-07
2.81235e-09
2.80384e-09
2.81436e-09
1.92947e-07
7.52082e-08
1.92955e-07
2.8514e-09
2.8686e-09
2.84827e-09
2.86861e-09
7.52152e-08
1.92993e-07
2.8009e-09
2.84898e-09
2.83234e-09
2.85225e-09
2.86133e-09
2.82187e-09
2.86173e-09
7.52238e-08
1.92987e-07
2.81377e-09
2.80228e-09
2.81861e-09
1.92946e-07
7.52081e-08
1.92958e-07
2.85117e-09
2.86947e-09
2.85313e-09
2.87474e-09
7.52152e-08
1.92993e-07
2.80145e-09
2.85301e-09
2.83518e-09
2.87463e-09
2.87116e-09
2.82981e-09
2.85785e-09
7.5223e-08
1.9298e-07
2.82772e-09
2.81725e-09
2.82035e-09
1.92937e-07
7.52029e-08
1.92968e-07
2.86501e-09
2.8606e-09
3.28555e-09
3.2826e-09
7.52104e-08
1.92971e-07
2.79981e-09
2.88491e-09
3.31739e-09
3.3099e-09
2.84668e-09
3.1988e-09
3.22232e-09
7.52178e-08
1.92973e-07
2.80262e-09
3.22057e-09
3.17992e-09
1.92918e-07
7.52231e-08
1.92832e-07
3.90381e-09
3.95344e-09
1.89876e-08
1.9002e-08
7.5195e-08
1.92827e-07
3.91798e-09
3.88135e-09
1.90415e-08
1.90801e-08
3.87473e-09
1.89182e-08
1.89962e-08
7.52171e-08
1.9283e-07
3.863e-09
1.89507e-08
1.89009e-08
1.92817e-07
7.45132e-08
1.46976e-07
3.91489e-08
3.91627e-08
1.21884e-07
1.21804e-07
7.45208e-08
1.46984e-07
3.9053e-08
3.92378e-08
1.22031e-07
1.21798e-07
3.92062e-08
1.22221e-07
1.21979e-07
7.4583e-08
1.4694e-07
3.90533e-08
1.22049e-07
1.22005e-07
1.46921e-07
3.42227e-07
1.86846e-07
1.86711e-07
3.42166e-07
1.86958e-07
1.86762e-07
3.28237e-07
3.28328e-07
3.28328e-07
1.86866e-07
3.42148e-07
1.86969e-07
7.63243e-08
2.94098e-07
1.90985e-07
1.9102e-07
4.95581e-07
3.83976e-07
3.91047e-07
2.50622e-07
4.95539e-07
3.83991e-07
2.50619e-07
3.90932e-07
5.05683e-07
3.82764e-07
3.82752e-07
2.16295e-06
0.000119612
2.28266e-06
0.000121549
0.000243219
0.000251173
2.16342e-06
0.000119629
2.28178e-06
0.000121568
7.17999e-07
7.17766e-07
7.17911e-07
9.94273e-08
9.93465e-08
9.93923e-08
9.94528e-08
1.6144e-07
3.21972e-06
6.62077e-07
4.22306e-07
1.21141e-07
2.70447e-06
3.96915e-07
0.000243212
0.000251158
1.61788e-07
6.61449e-07
3.21913e-06
4.2224e-07
1.20829e-07
3.96587e-07
2.70392e-06
6.02501e-06
6.02514e-06
1.91049e-07
5.77286e-06
5.7744e-06
2.07236e-06
0.000121308
2.06765e-06
0.000121306
0.00025146
0.000251455
2.07266e-06
0.000121325
2.06794e-06
0.000121323
4.78186e-08
4.78024e-08
4.78366e-08
6.55902e-09