/*--------------------------------*- C++ -*----------------------------------*\
| =========                 |                                                 |
| \\      /  F ield         | OpenFOAM: The Open Source CFD Toolbox           |
|  \\    /   O peration     | Version:  v1912                                 |
|   \\  /    A nd           | Website:  www.openfoam.com                      |
|    \\/     M anipulation  |                                                 |
\*---------------------------------------------------------------------------*/
FoamFile
{
    version     2.0;
    format      ascii;
    class       volScalarField;
    location    "1";
    object      p;
}
// * * * * * * * * * * * * * * * * * * * * * * * * * * * * * * * * * * * * * //

dimensions      [0 2 -2 0 0 0 0];


internalField   nonuniform List<scalar> 
171728
(
0.0212572
0.0212607
0.0212607
0.021277
0.0210348
0.0210349
0.0210349
0.0210488
0.0208095
0.0208095
0.0208094
0.0208233
0.0205841
0.020584
0.020584
0.0205978
0.0203586
0.0203586
0.0203586
0.0203724
0.0201332
0.0201331
0.0201331
0.0201469
0.0199078
0.0199077
0.0199077
0.0199215
0.0196823
0.0196822
0.0196822
0.019696
0.0194569
0.0194568
0.0194568
0.0194706
0.0192314
0.0192314
0.0192314
0.0192452
0.019006
0.0190059
0.0190059
0.0190197
0.0187806
0.0187805
0.0187805
0.0187943
0.0185551
0.0185551
0.0185551
0.0185689
0.0183297
0.0183296
0.0183296
0.0183434
0.0181043
0.0181042
0.0181042
0.018118
0.0178788
0.0178787
0.0178787
0.0178925
0.0176534
0.0176533
0.0176533
0.0176671
0.0174279
0.0174279
0.0174279
0.0174417
0.0172025
0.0172024
0.0172024
0.0172162
0.0169771
0.016977
0.016977
0.0169908
0.0167516
0.0167516
0.0167516
0.0167654
0.0165262
0.0165261
0.0165261
0.0165399
0.0163008
0.0163007
0.0163007
0.0163145
0.0160753
0.0160753
0.0160753
0.0160891
0.0158499
0.0158498
0.0158498
0.0158636
0.0156245
0.0156244
0.0156244
0.0156382
0.015399
0.015399
0.015399
0.0154128
0.0151736
0.0151735
0.0151735
0.0151873
0.0149482
0.0149481
0.0149481
0.0149619
0.0147227
0.0147227
0.0147227
0.0147365
0.0144973
0.0144972
0.0144972
0.014511
0.0142719
0.0142718
0.0142718
0.0142856
0.0140464
0.0140464
0.0140464
0.0140602
0.013821
0.0138209
0.0138209
0.0138347
0.0135956
0.0135955
0.0135955
0.0136093
0.0133701
0.0133701
0.0133701
0.0133839
0.0131447
0.0131446
0.0131446
0.0131584
0.0129193
0.0129192
0.0129192
0.012933
0.0126938
0.0126938
0.0126938
0.0127076
0.0124684
0.0124683
0.0124683
0.0124821
0.012243
0.0122429
0.0122429
0.0122567
0.0120175
0.0120175
0.0120175
0.0120313
0.0117921
0.011792
0.011792
0.0118058
0.0115667
0.0115666
0.0115666
0.0115804
0.0113412
0.0113411
0.0113411
0.011355
0.0111158
0.0111157
0.0111157
0.0111295
0.0108903
0.0108903
0.0108903
0.0109041
0.0106649
0.0106648
0.0106648
0.0106786
0.0104395
0.0104394
0.0104394
0.0104532
0.010214
0.010214
0.010214
0.0102278
0.0099886
0.00998852
0.00998852
0.0100023
0.00976316
0.00976308
0.00976308
0.00977689
0.00953772
0.00953765
0.00953765
0.00955145
0.00931228
0.00931221
0.00931221
0.00932601
0.00908684
0.00908677
0.00908677
0.00910057
0.0088614
0.00886133
0.00886133
0.00887513
0.00863596
0.00863589
0.00863589
0.00864969
0.00841052
0.00841044
0.00841045
0.00842425
0.00818508
0.008185
0.008185
0.00819881
0.00795964
0.00795956
0.00795956
0.00797337
0.00773419
0.00773411
0.00773412
0.00774792
0.00750875
0.00750867
0.00750867
0.00752248
0.0072833
0.00728323
0.00728323
0.00729703
0.00705786
0.00705778
0.00705778
0.00707159
0.00683241
0.00683234
0.00683234
0.00684615
0.00660697
0.00660689
0.00660689
0.0066207
0.00638152
0.00638145
0.00638145
0.00639526
0.00615608
0.006156
0.006156
0.00616981
0.00593063
0.00593055
0.00593055
0.00594436
0.00570518
0.00570511
0.00570511
0.00571892
0.00547974
0.00547966
0.00547966
0.00549347
0.00525429
0.00525421
0.00525421
0.00526802
0.00502884
0.00502876
0.00502876
0.00504257
0.00480339
0.00480331
0.00480331
0.00481712
0.00457794
0.00457786
0.00457786
0.00459167
0.00435249
0.00435241
0.00435241
0.00436622
0.00412703
0.00412696
0.00412696
0.00414077
0.00390158
0.00390151
0.00390151
0.00391532
0.00367613
0.00367605
0.00367605
0.00368987
0.00345068
0.0034506
0.0034506
0.00346442
0.00322523
0.00322515
0.00322515
0.00323896
0.00299978
0.0029997
0.0029997
0.00301351
0.00277432
0.00277425
0.00277425
0.00278806
0.00254887
0.00254879
0.00254879
0.00256261
0.00232342
0.00232334
0.00232334
0.00233715
0.00209796
0.00209788
0.00209788
0.0021117
0.00187251
0.00187243
0.00187243
0.00188624
0.00164705
0.00164697
0.00164697
0.00166079
0.00142159
0.00142152
0.00142152
0.00143533
0.00119614
0.00119606
0.00119606
0.00120988
0.000970682
0.000970605
0.000970606
0.000984421
0.000745226
0.000745151
0.000745151
0.000758966
0.000519785
0.000519705
0.000519704
0.000533512
0.000295096
0.000294452
0.000294453
0.000308108
8.62825e-05
9.19877e-05
9.19835e-05
9.1622e-05
0.0213072
0.0213021
0.0213022
0.0213072
0.0213021
0.0213021
0.0213101
0.0213101
0.0213101
0.0213101
0.0213022
0.0213021
0.0213071
0.0213021
0.0213021
0.0213072
0.021277
0.0210776
0.0212607
0.0212607
0.0210913
0.0210913
0.021277
0.0210776
0.0212607
0.0212607
0.0210913
0.0210913
0.0212607
0.0210913
0.0210913
0.021277
0.0210775
0.0212607
0.0210913
0.0210913
0.0210776
0.0210488
0.0208521
0.0210349
0.0210349
0.0208658
0.0208658
0.0210488
0.0208521
0.0210349
0.0210349
0.0208658
0.0208658
0.0210349
0.0208658
0.0208658
0.0210488
0.0208521
0.0210349
0.0208658
0.0208658
0.0208521
0.0208233
0.0206266
0.0208094
0.0208095
0.0206404
0.0206404
0.0208233
0.0206266
0.0208094
0.0208094
0.0206404
0.0206404
0.0208094
0.0206404
0.0206404
0.0208233
0.0206266
0.0208094
0.0206404
0.0206404
0.0206266
0.0205978
0.0204012
0.020584
0.020584
0.0204149
0.0204149
0.0205978
0.0204012
0.020584
0.020584
0.0204149
0.0204149
0.020584
0.0204149
0.0204149
0.0205978
0.0204012
0.020584
0.0204149
0.0204149
0.0204012
0.0203724
0.0201757
0.0203586
0.0203586
0.0201895
0.0201895
0.0203724
0.0201757
0.0203586
0.0203586
0.0201895
0.0201895
0.0203586
0.0201895
0.0201895
0.0203724
0.0201757
0.0203586
0.0201895
0.0201895
0.0201757
0.0201469
0.0199503
0.0201331
0.0201331
0.019964
0.019964
0.0201469
0.0199503
0.0201331
0.0201331
0.019964
0.019964
0.0201331
0.019964
0.019964
0.0201469
0.0199503
0.0201331
0.019964
0.019964
0.0199503
0.0199215
0.0197248
0.0199077
0.0199077
0.0197386
0.0197386
0.0199215
0.0197248
0.0199077
0.0199077
0.0197386
0.0197386
0.0199077
0.0197386
0.0197386
0.0199215
0.0197249
0.0199077
0.0197386
0.0197386
0.0197249
0.019696
0.0194994
0.0196822
0.0196822
0.0195132
0.0195132
0.019696
0.0194994
0.0196822
0.0196822
0.0195132
0.0195132
0.0196822
0.0195132
0.0195132
0.019696
0.0194994
0.0196822
0.0195132
0.0195132
0.0194994
0.0194706
0.019274
0.0194568
0.0194568
0.0192877
0.0192877
0.0194706
0.019274
0.0194568
0.0194568
0.0192877
0.0192877
0.0194568
0.0192877
0.0192877
0.0194706
0.019274
0.0194568
0.0192877
0.0192877
0.019274
0.0192452
0.0190485
0.0192314
0.0192314
0.0190623
0.0190623
0.0192452
0.0190485
0.0192314
0.0192314
0.0190623
0.0190623
0.0192314
0.0190623
0.0190623
0.0192452
0.0190485
0.0192314
0.0190623
0.0190623
0.0190485
0.0190197
0.0188231
0.0190059
0.0190059
0.0188368
0.0188369
0.0190197
0.0188231
0.0190059
0.0190059
0.0188368
0.0188369
0.0190059
0.0188369
0.0188369
0.0190197
0.0188231
0.0190059
0.0188369
0.0188369
0.0188231
0.0187943
0.0185977
0.0187805
0.0187805
0.0186114
0.0186114
0.0187943
0.0185977
0.0187805
0.0187805
0.0186114
0.0186114
0.0187805
0.0186114
0.0186114
0.0187943
0.0185977
0.0187805
0.0186114
0.0186114
0.0185977
0.0185689
0.0183722
0.0185551
0.0185551
0.018386
0.018386
0.0185689
0.0183722
0.0185551
0.0185551
0.018386
0.018386
0.0185551
0.018386
0.018386
0.0185689
0.0183722
0.0185551
0.018386
0.018386
0.0183722
0.0183434
0.0181468
0.0183296
0.0183296
0.0181605
0.0181605
0.0183434
0.0181468
0.0183296
0.0183296
0.0181605
0.0181605
0.0183296
0.0181605
0.0181605
0.0183434
0.0181468
0.0183296
0.0181605
0.0181605
0.0181468
0.018118
0.0179214
0.0181042
0.0181042
0.0179351
0.0179351
0.018118
0.0179214
0.0181042
0.0181042
0.0179351
0.0179351
0.0181042
0.0179351
0.0179351
0.018118
0.0179214
0.0181042
0.0179351
0.0179351
0.0179214
0.0178925
0.0176959
0.0178787
0.0178787
0.0177097
0.0177097
0.0178925
0.0176959
0.0178787
0.0178787
0.0177097
0.0177097
0.0178787
0.0177097
0.0177097
0.0178925
0.0176959
0.0178787
0.0177097
0.0177097
0.0176959
0.0176671
0.0174705
0.0176533
0.0176533
0.0174842
0.0174842
0.0176671
0.0174705
0.0176533
0.0176533
0.0174842
0.0174842
0.0176533
0.0174842
0.0174842
0.0176671
0.0174705
0.0176533
0.0174842
0.0174842
0.0174705
0.0174417
0.017245
0.0174279
0.0174279
0.0172588
0.0172588
0.0174417
0.017245
0.0174279
0.0174279
0.0172588
0.0172588
0.0174279
0.0172588
0.0172588
0.0174417
0.017245
0.0174279
0.0172588
0.0172588
0.017245
0.0172162
0.0170196
0.0172024
0.0172024
0.0170334
0.0170334
0.0172162
0.0170196
0.0172024
0.0172024
0.0170334
0.0170334
0.0172024
0.0170334
0.0170334
0.0172162
0.0170196
0.0172024
0.0170334
0.0170334
0.0170196
0.0169908
0.0167942
0.016977
0.016977
0.0168079
0.0168079
0.0169908
0.0167942
0.016977
0.016977
0.0168079
0.0168079
0.016977
0.0168079
0.0168079
0.0169908
0.0167942
0.016977
0.0168079
0.0168079
0.0167942
0.0167654
0.0165687
0.0167516
0.0167516
0.0165825
0.0165825
0.0167654
0.0165687
0.0167516
0.0167516
0.0165825
0.0165825
0.0167516
0.0165825
0.0165825
0.0167654
0.0165687
0.0167516
0.0165825
0.0165825
0.0165687
0.0165399
0.0163433
0.0165261
0.0165261
0.0163571
0.0163571
0.0165399
0.0163433
0.0165261
0.0165261
0.0163571
0.0163571
0.0165261
0.0163571
0.0163571
0.0165399
0.0163433
0.0165261
0.0163571
0.0163571
0.0163433
0.0163145
0.0161179
0.0163007
0.0163007
0.0161316
0.0161316
0.0163145
0.0161179
0.0163007
0.0163007
0.0161316
0.0161316
0.0163007
0.0161316
0.0161316
0.0163145
0.0161179
0.0163007
0.0161316
0.0161316
0.0161179
0.0160891
0.0158924
0.0160753
0.0160753
0.0159062
0.0159062
0.0160891
0.0158924
0.0160753
0.0160753
0.0159062
0.0159062
0.0160753
0.0159062
0.0159062
0.0160891
0.0158924
0.0160753
0.0159062
0.0159062
0.0158924
0.0158636
0.015667
0.0158498
0.0158498
0.0156808
0.0156808
0.0158636
0.015667
0.0158498
0.0158498
0.0156808
0.0156808
0.0158498
0.0156808
0.0156808
0.0158636
0.015667
0.0158498
0.0156808
0.0156808
0.015667
0.0156382
0.0154416
0.0156244
0.0156244
0.0154553
0.0154553
0.0156382
0.0154416
0.0156244
0.0156244
0.0154553
0.0154553
0.0156244
0.0154553
0.0154553
0.0156382
0.0154416
0.0156244
0.0154553
0.0154553
0.0154416
0.0154128
0.0152161
0.015399
0.015399
0.0152299
0.0152299
0.0154128
0.0152161
0.015399
0.015399
0.0152299
0.0152299
0.015399
0.0152299
0.0152299
0.0154128
0.0152161
0.015399
0.0152299
0.0152299
0.0152161
0.0151873
0.0149907
0.0151735
0.0151735
0.0150045
0.0150045
0.0151873
0.0149907
0.0151735
0.0151735
0.0150045
0.0150045
0.0151735
0.0150045
0.0150045
0.0151873
0.0149907
0.0151735
0.0150045
0.0150045
0.0149907
0.0149619
0.0147653
0.0149481
0.0149481
0.014779
0.014779
0.0149619
0.0147653
0.0149481
0.0149481
0.014779
0.014779
0.0149481
0.014779
0.014779
0.0149619
0.0147653
0.0149481
0.014779
0.014779
0.0147653
0.0147365
0.0145398
0.0147227
0.0147227
0.0145536
0.0145536
0.0147365
0.0145398
0.0147227
0.0147227
0.0145536
0.0145536
0.0147227
0.0145536
0.0145536
0.0147365
0.0145398
0.0147227
0.0145536
0.0145536
0.0145398
0.014511
0.0143144
0.0144972
0.0144972
0.0143282
0.0143282
0.014511
0.0143144
0.0144972
0.0144972
0.0143282
0.0143282
0.0144972
0.0143282
0.0143282
0.014511
0.0143144
0.0144972
0.0143282
0.0143282
0.0143144
0.0142856
0.014089
0.0142718
0.0142718
0.0141027
0.0141027
0.0142856
0.014089
0.0142718
0.0142718
0.0141027
0.0141027
0.0142718
0.0141027
0.0141027
0.0142856
0.014089
0.0142718
0.0141027
0.0141027
0.014089
0.0140602
0.0138635
0.0140464
0.0140464
0.0138773
0.0138773
0.0140602
0.0138635
0.0140464
0.0140464
0.0138773
0.0138773
0.0140464
0.0138773
0.0138773
0.0140602
0.0138635
0.0140464
0.0138773
0.0138773
0.0138635
0.0138347
0.0136381
0.0138209
0.0138209
0.0136519
0.0136519
0.0138347
0.0136381
0.0138209
0.0138209
0.0136519
0.0136519
0.0138209
0.0136519
0.0136519
0.0138347
0.0136381
0.0138209
0.0136519
0.0136519
0.0136381
0.0136093
0.0134127
0.0135955
0.0135955
0.0134264
0.0134264
0.0136093
0.0134127
0.0135955
0.0135955
0.0134264
0.0134264
0.0135955
0.0134264
0.0134264
0.0136093
0.0134127
0.0135955
0.0134264
0.0134264
0.0134127
0.0133839
0.0131872
0.0133701
0.0133701
0.013201
0.013201
0.0133839
0.0131872
0.0133701
0.0133701
0.013201
0.013201
0.0133701
0.013201
0.013201
0.0133839
0.0131872
0.0133701
0.013201
0.013201
0.0131872
0.0131584
0.0129618
0.0131446
0.0131446
0.0129756
0.0129756
0.0131584
0.0129618
0.0131446
0.0131446
0.0129756
0.0129756
0.0131446
0.0129756
0.0129756
0.0131584
0.0129618
0.0131446
0.0129756
0.0129756
0.0129618
0.012933
0.0127364
0.0129192
0.0129192
0.0127501
0.0127501
0.012933
0.0127364
0.0129192
0.0129192
0.0127501
0.0127501
0.0129192
0.0127501
0.0127501
0.012933
0.0127364
0.0129192
0.0127501
0.0127501
0.0127364
0.0127076
0.0125109
0.0126938
0.0126938
0.0125247
0.0125247
0.0127076
0.0125109
0.0126938
0.0126938
0.0125247
0.0125247
0.0126938
0.0125247
0.0125247
0.0127076
0.0125109
0.0126938
0.0125247
0.0125247
0.0125109
0.0124821
0.0122855
0.0124683
0.0124683
0.0122993
0.0122992
0.0124821
0.0122855
0.0124683
0.0124683
0.0122993
0.0122993
0.0124683
0.0122993
0.0122993
0.0124821
0.0122855
0.0124683
0.0122993
0.0122993
0.0122855
0.0122567
0.0120601
0.0122429
0.0122429
0.0120738
0.0120738
0.0122567
0.0120601
0.0122429
0.0122429
0.0120738
0.0120738
0.0122429
0.0120738
0.0120738
0.0122567
0.0120601
0.0122429
0.0120738
0.0120738
0.0120601
0.0120313
0.0118346
0.0120175
0.0120175
0.0118484
0.0118484
0.0120313
0.0118346
0.0120175
0.0120175
0.0118484
0.0118484
0.0120175
0.0118484
0.0118484
0.0120313
0.0118346
0.0120175
0.0118484
0.0118484
0.0118346
0.0118058
0.0116092
0.011792
0.011792
0.0116229
0.0116229
0.0118058
0.0116092
0.011792
0.011792
0.0116229
0.0116229
0.011792
0.0116229
0.0116229
0.0118058
0.0116092
0.011792
0.0116229
0.0116229
0.0116092
0.0115804
0.0113838
0.0115666
0.0115666
0.0113975
0.0113975
0.0115804
0.0113838
0.0115666
0.0115666
0.0113975
0.0113975
0.0115666
0.0113975
0.0113975
0.0115804
0.0113838
0.0115666
0.0113975
0.0113975
0.0113838
0.011355
0.0111583
0.0113411
0.0113411
0.0111721
0.0111721
0.011355
0.0111583
0.0113411
0.0113411
0.0111721
0.0111721
0.0113411
0.0111721
0.0111721
0.011355
0.0111583
0.0113411
0.0111721
0.0111721
0.0111583
0.0111295
0.0109329
0.0111157
0.0111157
0.0109466
0.0109466
0.0111295
0.0109329
0.0111157
0.0111157
0.0109466
0.0109466
0.0111157
0.0109466
0.0109466
0.0111295
0.0109329
0.0111157
0.0109466
0.0109466
0.0109329
0.0109041
0.0107074
0.0108903
0.0108903
0.0107212
0.0107212
0.0109041
0.0107074
0.0108903
0.0108903
0.0107212
0.0107212
0.0108903
0.0107212
0.0107212
0.0109041
0.0107074
0.0108903
0.0107212
0.0107212
0.0107074
0.0106786
0.010482
0.0106648
0.0106648
0.0104958
0.0104958
0.0106786
0.010482
0.0106648
0.0106648
0.0104958
0.0104958
0.0106648
0.0104958
0.0104958
0.0106786
0.010482
0.0106648
0.0104958
0.0104958
0.010482
0.0104532
0.0102566
0.0104394
0.0104394
0.0102703
0.0102703
0.0104532
0.0102566
0.0104394
0.0104394
0.0102703
0.0102703
0.0104394
0.0102703
0.0102703
0.0104532
0.0102566
0.0104394
0.0102703
0.0102703
0.0102566
0.0102278
0.0100311
0.010214
0.010214
0.0100449
0.0100449
0.0102278
0.0100311
0.010214
0.010214
0.0100449
0.0100449
0.010214
0.0100449
0.0100449
0.0102278
0.0100311
0.010214
0.0100449
0.0100449
0.0100311
0.0100023
0.00980569
0.00998852
0.00998852
0.00981944
0.00981944
0.0100023
0.00980569
0.00998852
0.00998852
0.00981944
0.00981944
0.00998852
0.00981944
0.00981944
0.0100023
0.00980569
0.00998852
0.00981944
0.00981944
0.00980569
0.00977689
0.00958026
0.00976308
0.00976308
0.00959401
0.00959401
0.00977689
0.00958025
0.00976308
0.00976308
0.00959401
0.00959401
0.00976308
0.00959401
0.00959401
0.00977689
0.00958026
0.00976308
0.00959401
0.00959401
0.00958026
0.00955145
0.00935482
0.00953765
0.00953765
0.00936857
0.00936857
0.00955145
0.00935482
0.00953765
0.00953765
0.00936857
0.00936857
0.00953765
0.00936857
0.00936857
0.00955145
0.00935482
0.00953765
0.00936857
0.00936857
0.00935482
0.00932601
0.00912938
0.00931221
0.00931221
0.00914313
0.00914313
0.00932601
0.00912938
0.00931221
0.00931221
0.00914313
0.00914313
0.00931221
0.00914313
0.00914313
0.00932601
0.00912938
0.00931221
0.00914313
0.00914313
0.00912938
0.00910057
0.00890394
0.00908677
0.00908677
0.00891769
0.00891769
0.00910057
0.00890394
0.00908677
0.00908677
0.00891769
0.00891769
0.00908677
0.00891769
0.00891769
0.00910057
0.00890394
0.00908677
0.00891769
0.00891769
0.00890394
0.00887513
0.0086785
0.00886133
0.00886133
0.00869225
0.00869225
0.00887513
0.0086785
0.00886133
0.00886133
0.00869225
0.00869225
0.00886133
0.00869225
0.00869225
0.00887513
0.0086785
0.00886133
0.00869225
0.00869225
0.0086785
0.00864969
0.00845305
0.00863589
0.00863589
0.00846681
0.0084668
0.00864969
0.00845305
0.00863589
0.00863589
0.0084668
0.00846681
0.00863589
0.00846681
0.00846681
0.00864969
0.00845305
0.00863589
0.00846681
0.0084668
0.00845305
0.00842425
0.00822761
0.00841044
0.00841044
0.00824136
0.00824136
0.00842425
0.00822761
0.00841044
0.00841044
0.00824136
0.00824136
0.00841045
0.00824136
0.00824136
0.00842425
0.00822761
0.00841044
0.00824136
0.00824136
0.00822761
0.00819881
0.00800217
0.008185
0.008185
0.00801592
0.00801592
0.00819881
0.00800217
0.008185
0.008185
0.00801592
0.00801592
0.008185
0.00801592
0.00801592
0.00819881
0.00800217
0.008185
0.00801592
0.00801592
0.00800217
0.00797337
0.00777672
0.00795956
0.00795956
0.00779048
0.00779048
0.00797337
0.00777672
0.00795956
0.00795956
0.00779048
0.00779048
0.00795956
0.00779048
0.00779048
0.00797337
0.00777672
0.00795956
0.00779048
0.00779048
0.00777672
0.00774792
0.00755128
0.00773411
0.00773411
0.00756503
0.00756503
0.00774792
0.00755128
0.00773411
0.00773411
0.00756503
0.00756503
0.00773412
0.00756503
0.00756503
0.00774792
0.00755128
0.00773411
0.00756503
0.00756503
0.00755128
0.00752248
0.00732583
0.00750867
0.00750867
0.00733959
0.00733959
0.00752248
0.00732583
0.00750867
0.00750867
0.00733959
0.00733959
0.00750867
0.00733959
0.00733959
0.00752248
0.00732583
0.00750867
0.00733959
0.00733959
0.00732583
0.00729703
0.00710039
0.00728323
0.00728323
0.00711414
0.00711414
0.00729703
0.00710039
0.00728323
0.00728323
0.00711414
0.00711414
0.00728323
0.00711414
0.00711414
0.00729703
0.00710039
0.00728323
0.00711414
0.00711414
0.00710039
0.00707159
0.00687494
0.00705778
0.00705778
0.0068887
0.0068887
0.00707159
0.00687494
0.00705778
0.00705778
0.0068887
0.0068887
0.00705778
0.0068887
0.0068887
0.00707159
0.00687494
0.00705778
0.0068887
0.0068887
0.00687494
0.00684615
0.0066495
0.00683234
0.00683234
0.00666325
0.00666325
0.00684615
0.0066495
0.00683234
0.00683234
0.00666325
0.00666325
0.00683234
0.00666325
0.00666325
0.00684615
0.0066495
0.00683234
0.00666325
0.00666325
0.0066495
0.0066207
0.00642405
0.00660689
0.00660689
0.00643781
0.00643781
0.0066207
0.00642405
0.00660689
0.00660689
0.00643781
0.00643781
0.00660689
0.00643781
0.00643781
0.0066207
0.00642405
0.00660689
0.00643781
0.00643781
0.00642405
0.00639526
0.00619861
0.00638145
0.00638145
0.00621236
0.00621236
0.00639526
0.00619861
0.00638145
0.00638145
0.00621236
0.00621236
0.00638145
0.00621236
0.00621236
0.00639526
0.00619861
0.00638145
0.00621236
0.00621236
0.00619861
0.00616981
0.00597316
0.006156
0.006156
0.00598692
0.00598692
0.00616981
0.00597316
0.006156
0.006156
0.00598692
0.00598692
0.006156
0.00598692
0.00598692
0.00616981
0.00597316
0.006156
0.00598692
0.00598691
0.00597316
0.00594437
0.00574771
0.00593055
0.00593055
0.00576147
0.00576147
0.00594437
0.00574771
0.00593055
0.00593055
0.00576147
0.00576147
0.00593055
0.00576147
0.00576147
0.00594436
0.00574771
0.00593055
0.00576147
0.00576147
0.00574771
0.00571892
0.00552227
0.00570511
0.00570511
0.00553602
0.00553602
0.00571892
0.00552227
0.00570511
0.00570511
0.00553602
0.00553602
0.00570511
0.00553602
0.00553602
0.00571892
0.00552227
0.00570511
0.00553602
0.00553602
0.00552227
0.00549347
0.00529682
0.00547966
0.00547966
0.00531057
0.00531057
0.00549347
0.00529682
0.00547966
0.00547966
0.00531057
0.00531057
0.00547966
0.00531057
0.00531057
0.00549347
0.00529682
0.00547966
0.00531057
0.00531057
0.00529682
0.00526802
0.00507137
0.00525421
0.00525421
0.00508512
0.00508512
0.00526802
0.00507137
0.00525421
0.00525421
0.00508512
0.00508512
0.00525421
0.00508512
0.00508512
0.00526802
0.00507137
0.00525421
0.00508512
0.00508512
0.00507137
0.00504257
0.00484592
0.00502876
0.00502876
0.00485967
0.00485967
0.00504257
0.00484592
0.00502876
0.00502876
0.00485967
0.00485967
0.00502876
0.00485967
0.00485967
0.00504257
0.00484592
0.00502876
0.00485967
0.00485967
0.00484592
0.00481712
0.00462047
0.00480331
0.00480331
0.00463422
0.00463422
0.00481712
0.00462047
0.00480331
0.00480331
0.00463422
0.00463422
0.00480331
0.00463422
0.00463422
0.00481712
0.00462047
0.00480331
0.00463422
0.00463422
0.00462047
0.00459167
0.00439501
0.00457786
0.00457786
0.00440877
0.00440877
0.00459167
0.00439501
0.00457786
0.00457786
0.00440877
0.00440877
0.00457786
0.00440877
0.00440877
0.00459167
0.00439501
0.00457786
0.00440877
0.00440877
0.00439501
0.00436622
0.00416956
0.00435241
0.00435241
0.00418332
0.00418332
0.00436622
0.00416956
0.00435241
0.00435241
0.00418332
0.00418332
0.00435241
0.00418332
0.00418332
0.00436622
0.00416956
0.00435241
0.00418332
0.00418332
0.00416956
0.00414077
0.00394411
0.00412696
0.00412696
0.00395787
0.00395787
0.00414077
0.00394411
0.00412696
0.00412696
0.00395787
0.00395787
0.00412696
0.00395787
0.00395787
0.00414077
0.00394411
0.00412696
0.00395787
0.00395787
0.00394411
0.00391532
0.00371866
0.00390151
0.00390151
0.00373242
0.00373242
0.00391532
0.00371866
0.00390151
0.00390151
0.00373242
0.00373242
0.00390151
0.00373242
0.00373242
0.00391532
0.00371866
0.00390151
0.00373242
0.00373242
0.00371866
0.00368987
0.00349321
0.00367605
0.00367605
0.00350697
0.00350697
0.00368987
0.00349321
0.00367605
0.00367605
0.00350697
0.00350697
0.00367606
0.00350697
0.00350697
0.00368987
0.00349321
0.00367605
0.00350697
0.00350697
0.00349321
0.00346442
0.00326776
0.0034506
0.0034506
0.00328151
0.00328151
0.00346442
0.00326775
0.0034506
0.0034506
0.00328151
0.00328151
0.0034506
0.00328151
0.00328151
0.00346442
0.00326776
0.0034506
0.00328151
0.00328151
0.00326776
0.00323897
0.0030423
0.00322515
0.00322515
0.00305606
0.00305606
0.00323897
0.0030423
0.00322515
0.00322515
0.00305606
0.00305606
0.00322515
0.00305606
0.00305606
0.00323897
0.0030423
0.00322515
0.00305606
0.00305606
0.0030423
0.00301351
0.00281685
0.0029997
0.0029997
0.00283061
0.00283061
0.00301351
0.00281685
0.0029997
0.0029997
0.00283061
0.00283061
0.0029997
0.00283061
0.00283061
0.00301351
0.00281685
0.0029997
0.00283061
0.00283061
0.00281685
0.00278806
0.0025914
0.00277425
0.00277425
0.00260516
0.00260516
0.00278806
0.0025914
0.00277425
0.00277425
0.00260516
0.00260516
0.00277425
0.00260516
0.00260516
0.00278806
0.0025914
0.00277425
0.00260516
0.00260516
0.0025914
0.00256261
0.00236594
0.00254879
0.00254879
0.0023797
0.0023797
0.00256261
0.00236594
0.00254879
0.00254879
0.0023797
0.0023797
0.00254879
0.0023797
0.0023797
0.00256261
0.00236594
0.00254879
0.0023797
0.0023797
0.00236594
0.00233715
0.00214049
0.00232334
0.00232334
0.00215425
0.00215425
0.00233715
0.00214049
0.00232334
0.00232334
0.00215425
0.00215425
0.00232334
0.00215425
0.00215425
0.00233715
0.00214049
0.00232334
0.00215425
0.00215425
0.00214049
0.0021117
0.00191503
0.00209788
0.00209788
0.00192879
0.00192879
0.0021117
0.00191503
0.00209788
0.00209788
0.00192879
0.00192879
0.00209788
0.00192879
0.00192879
0.0021117
0.00191503
0.00209788
0.00192879
0.00192879
0.00191503
0.00188624
0.00168958
0.00187243
0.00187243
0.00170334
0.00170334
0.00188624
0.00168958
0.00187243
0.00187243
0.00170334
0.00170334
0.00187243
0.00170334
0.00170334
0.00188624
0.00168958
0.00187243
0.00170334
0.00170334
0.00168958
0.00166079
0.00146412
0.00164697
0.00164697
0.00147788
0.00147788
0.00166079
0.00146412
0.00164697
0.00164697
0.00147788
0.00147788
0.00164697
0.00147788
0.00147788
0.00166079
0.00146412
0.00164697
0.00147788
0.00147788
0.00146412
0.00143533
0.00123867
0.00142152
0.00142152
0.00125243
0.00125243
0.00143533
0.00123867
0.00142152
0.00142152
0.00125243
0.00125243
0.00142152
0.00125243
0.00125243
0.00143533
0.00123867
0.00142152
0.00125243
0.00125243
0.00123867
0.00120988
0.00101321
0.00119606
0.00119606
0.00102697
0.00102697
0.00120988
0.00101321
0.00119606
0.00119606
0.00102697
0.00102697
0.00119606
0.00102697
0.00102697
0.00120988
0.00101321
0.00119606
0.00102697
0.00102697
0.00101321
0.000984421
0.000787755
0.000970606
0.000970605
0.000801515
0.000801514
0.000984421
0.000787755
0.000970605
0.000970605
0.000801515
0.000801514
0.000970606
0.000801515
0.000801515
0.000984421
0.000787755
0.000970605
0.000801514
0.000801514
0.000787755
0.000758966
0.0005623
0.000745151
0.000745151
0.000576063
0.000576066
0.000758967
0.0005623
0.000745151
0.000745151
0.000576063
0.000576063
0.000745152
0.000576065
0.000576064
0.000758966
0.0005623
0.000745151
0.000576063
0.000576064
0.000562301
0.000533514
0.000336893
0.000519703
0.000519705
0.000350698
0.000350698
0.000533514
0.000336892
0.000519705
0.000519705
0.000350698
0.000350696
0.000519704
0.000350698
0.000350695
0.000533513
0.000336891
0.000519704
0.000350696
0.000350694
0.000336889
0.000308116
0.000115246
0.000294456
0.000294455
0.000129318
0.000129318
0.000308113
0.000115244
0.000294456
0.000294453
0.000129313
0.000129312
0.000294451
0.000129308
0.000129307
0.000308112
0.00011524
0.000294449
0.000129305
0.000129306
0.000115237
9.16285e-05
9.199e-05
9.19872e-05
9.1628e-05
9.19869e-05
9.19814e-05
8.6282e-05
8.62778e-05
8.62775e-05
9.19828e-05
9.16217e-05
9.19818e-05
0.0213351
0.0213707
0.0213515
0.0213515
0.0214267
0.0213845
0.0214899
0.021363
0.0214266
0.0213845
0.021363
0.0214898
0.0213998
0.021507
0.021507
0.0211939
0.0213176
0.0213021
0.021196
0.0211868
0.0211905
0.0211939
0.0213179
0.0213019
0.021196
0.0212572
0.0212572
0.0212572
0.021091
0.021091
0.021091
0.021091
0.0211901
0.0212954
0.0212604
0.0212035
0.0212708
0.0211938
0.0212034
0.0211868
0.0211904
0.0211901
0.0212603
0.0212952
0.0212035
0.0212709
0.0212033
0.0211937
0.0212959
0.021296
0.0211899
0.0211924
0.0211924
0.0209646
0.0210494
0.0210494
0.0209646
0.0210493
0.0209646
0.0209646
0.0210493
0.0210493
0.0209646
0.0210348
0.0210348
0.0210348
0.0208658
0.0208658
0.0208658
0.0208658
0.0209651
0.0210488
0.0210349
0.0209786
0.0210487
0.0209651
0.0209785
0.0210492
0.0209646
0.0209651
0.0210349
0.0210488
0.0209785
0.0210487
0.0209785
0.0209651
0.0210492
0.0210492
0.0209648
0.0209646
0.0209646
0.0207391
0.0208236
0.0208236
0.0207391
0.0208235
0.0207391
0.0207391
0.0208236
0.0208236
0.0207391
0.0208095
0.0208095
0.0208095
0.0206404
0.0206404
0.0206404
0.0206404
0.0207396
0.0208231
0.0208095
0.0207531
0.020823
0.0207396
0.0207531
0.0208235
0.0207391
0.0207396
0.0208095
0.0208231
0.0207531
0.020823
0.0207531
0.0207396
0.0208235
0.0208235
0.0207393
0.0207391
0.0207391
0.0205136
0.0205981
0.0205981
0.0205136
0.0205981
0.0205137
0.0205136
0.0205981
0.0205981
0.0205136
0.0205841
0.0205841
0.0205841
0.020415
0.020415
0.020415
0.020415
0.0205142
0.0205976
0.020584
0.0205276
0.0205976
0.0205141
0.0205277
0.0205981
0.0205136
0.0205142
0.020584
0.0205976
0.0205276
0.0205976
0.0205277
0.0205141
0.0205981
0.0205981
0.0205139
0.0205137
0.0205137
0.0202882
0.0203727
0.0203727
0.0202882
0.0203726
0.0202882
0.0202882
0.0203727
0.0203727
0.0202882
0.0203586
0.0203586
0.0203586
0.0201896
0.0201896
0.0201896
0.0201896
0.0202887
0.0203722
0.0203586
0.0203022
0.0203721
0.0202887
0.0203022
0.0203726
0.0202882
0.0202887
0.0203586
0.0203722
0.0203022
0.0203721
0.0203022
0.0202887
0.0203726
0.0203726
0.0202884
0.0202882
0.0202882
0.0200627
0.0201472
0.0201472
0.0200627
0.0201472
0.0200628
0.0200627
0.0201472
0.0201472
0.0200627
0.0201332
0.0201332
0.0201332
0.0199641
0.0199641
0.0199641
0.0199641
0.0200633
0.0201467
0.0201331
0.0200768
0.0201467
0.0200632
0.0200768
0.0201472
0.0200628
0.0200633
0.0201331
0.0201467
0.0200768
0.0201467
0.0200768
0.0200632
0.0201472
0.0201472
0.020063
0.0200628
0.0200628
0.0198373
0.0199218
0.0199218
0.0198373
0.0199218
0.0198373
0.0198373
0.0199218
0.0199218
0.0198373
0.0199078
0.0199078
0.0199078
0.0197387
0.0197387
0.0197387
0.0197387
0.0198378
0.0199213
0.0199077
0.0198513
0.0199213
0.0198378
0.0198513
0.0199218
0.0198373
0.0198378
0.0199077
0.0199213
0.0198513
0.0199213
0.0198513
0.0198378
0.0199218
0.0199218
0.0198376
0.0198373
0.0198373
0.0196119
0.0196963
0.0196964
0.0196119
0.0196963
0.0196119
0.0196119
0.0196963
0.0196964
0.0196119
0.0196823
0.0196823
0.0196823
0.0195132
0.0195132
0.0195132
0.0195132
0.0196124
0.0196958
0.0196823
0.0196259
0.0196958
0.0196124
0.0196259
0.0196963
0.0196119
0.0196124
0.0196823
0.0196958
0.0196259
0.0196958
0.0196259
0.0196124
0.0196963
0.0196963
0.0196121
0.0196119
0.0196119
0.0193864
0.0194709
0.0194709
0.0193864
0.0194709
0.0193865
0.0193864
0.0194709
0.0194709
0.0193864
0.0194569
0.0194569
0.0194569
0.0192878
0.0192878
0.0192878
0.0192878
0.019387
0.0194704
0.0194568
0.0194004
0.0194704
0.0193869
0.0194005
0.0194709
0.0193865
0.019387
0.0194568
0.0194704
0.0194004
0.0194704
0.0194005
0.0193869
0.0194709
0.0194709
0.0193867
0.0193865
0.0193865
0.019161
0.0192455
0.0192455
0.019161
0.0192454
0.019161
0.019161
0.0192455
0.0192455
0.019161
0.0192314
0.0192314
0.0192314
0.0190624
0.0190624
0.0190624
0.0190624
0.0191615
0.019245
0.0192314
0.019175
0.0192449
0.0191615
0.019175
0.0192454
0.019161
0.0191615
0.0192314
0.019245
0.019175
0.0192449
0.019175
0.0191615
0.0192454
0.0192454
0.0191613
0.019161
0.019161
0.0189355
0.01902
0.01902
0.0189355
0.01902
0.0189356
0.0189355
0.01902
0.01902
0.0189355
0.019006
0.019006
0.019006
0.0188369
0.0188369
0.0188369
0.0188369
0.0189361
0.0190195
0.019006
0.0189496
0.0190195
0.018936
0.0189496
0.01902
0.0189356
0.0189361
0.019006
0.0190195
0.0189496
0.0190195
0.0189496
0.018936
0.01902
0.01902
0.0189358
0.0189356
0.0189356
0.0187101
0.0187946
0.0187946
0.0187101
0.0187946