/*--------------------------------*- C++ -*----------------------------------*\
| =========                 |                                                 |
| \\      /  F ield         | OpenFOAM: The Open Source CFD Toolbox           |
|  \\    /   O peration     | Version:  v1906                                 |
|   \\  /    A nd           | Web:      www.OpenFOAM.com                      |
|    \\/     M anipulation  |                                                 |
\*---------------------------------------------------------------------------*/
FoamFile
{
    version     2.0;
    format      ascii;
    class       volScalarField;
    location    "250";
    object      epsilon;
}
// * * * * * * * * * * * * * * * * * * * * * * * * * * * * * * * * * * * * * //

dimensions      [0 2 -3 0 0 0 0];


internalField   nonuniform List<scalar> 
43248
(
1.15411e-06
8.68669e-07
8.68617e-07
1.15403e-06
8.6839e-07
8.6869e-07
8.6843e-07
8.68677e-07
1.15417e-06
8.68547e-07
8.68548e-07
1.15419e-06
3.22826e-07
3.22821e-07
3.22907e-07
3.229e-07
1.84372e-05
1.84403e-05
5.4651e-06
5.46672e-06
4.08986e-06
9.16437e-06
4.09319e-06
4.08981e-06
9.16493e-06
9.15494e-06
4.0933e-06
2.10366e-06
3.47709e-06
5.62248e-07
5.56284e-07
2.10983e-06
2.10368e-06
8.62384e-07
3.4774e-06
5.62274e-07
3.47253e-06
5.56318e-07
2.10988e-06
1.84397e-05
1.84208e-05
1.14929e-06
5.46697e-06
5.46456e-06
5.4606e-06
5.45923e-06
1.84361e-05
1.8419e-05
9.16596e-06
4.09359e-06
3.47752e-06
5.6232e-07
2.11001e-06
9.16585e-06
4.09352e-06
5.62351e-07
3.47752e-06
2.10996e-06
2.10366e-06
8.62194e-07
3.47693e-06
5.62255e-07
3.4722e-06
5.563e-07
2.10987e-06
4.08967e-06
9.1646e-06
9.15465e-06
4.09324e-06
2.1036e-06
8.62439e-07
5.62315e-07
3.47694e-06
5.5636e-07
3.47213e-06
2.10981e-06
4.0896e-06
9.16442e-06
9.15472e-06
4.09312e-06
1.84388e-05
5.46621e-06
5.4652e-06
1.84391e-05
2.10373e-06
5.62353e-07
3.47708e-06
5.56383e-07
2.10988e-06
2.10377e-06
8.62314e-07
5.62368e-07
3.47758e-06
5.56413e-07
3.47267e-06
2.10992e-06
4.08942e-06
9.16484e-06
4.09335e-06
4.08951e-06
9.16574e-06
9.15561e-06
4.09341e-06
1.14945e-06
5.46496e-06
5.46719e-06
5.45902e-06
5.46067e-06
1.84386e-05
1.84203e-05
1.84409e-05
1.84217e-05
1.84311e-05
1.84335e-05
4.54377e-06
2.81795e-06
5.46378e-06
9.51252e-06
9.50538e-06
2.81425e-06
4.54925e-06
4.55097e-06
2.81671e-06
5.46587e-06
9.51604e-06
9.51e-06
2.81635e-06
4.55058e-06
9.74982e-06
2.17699e-05
2.17676e-05
2.1752e-05
2.17508e-05
9.75478e-06
1.22033e-05
1.08239e-05
4.74199e-06
4.09084e-06
1.22001e-05
1.08265e-05
4.74298e-06
2.20564e-05
9.16095e-06
7.08642e-06
7.08659e-06
2.20619e-05
1.22044e-05
4.09221e-06
1.08305e-05
4.74497e-06
1.08277e-05
4.74412e-06
1.22075e-05
1.22027e-05
1.08238e-05
4.74161e-06
4.09086e-06
1.21994e-05
1.08265e-05
4.74304e-06
2.20552e-05
9.16074e-06
7.08818e-06
7.08764e-06
2.20625e-05
2.20542e-05
7.08526e-06
9.15876e-06
2.20473e-05
7.08587e-06
1.2204e-05
4.09222e-06
1.08306e-05
4.74544e-06
1.08277e-05
4.74393e-06
1.22076e-05
1.84322e-05
1.84294e-05
9.74022e-06
2.172e-05
2.17208e-05
9.73316e-06
2.17407e-05
2.17414e-05
4.55035e-06
2.81783e-06
5.46563e-06
9.51621e-06
2.81559e-06
9.50915e-06
4.55279e-06
4.5443e-06
2.81657e-06
5.46363e-06
9.51101e-06
9.50437e-06
2.81436e-06
4.54675e-06
4.5465e-06
9.49609e-06
2.81085e-06
5.46269e-06
2.81339e-06
4.54356e-06
9.5042e-06
4.5405e-06
9.49203e-06
2.80969e-06
5.46068e-06
4.53755e-06
9.49997e-06
2.81218e-06
9.74879e-06
2.17675e-05
2.17681e-05
2.17491e-05
2.17498e-05
9.7543e-06
1.84297e-05
1.84275e-05
2.20556e-05
9.1618e-06
7.08831e-06
7.08774e-06
2.20628e-05
1.22044e-05
4.09213e-06
4.74556e-06
1.08313e-05
4.74399e-06
1.08283e-05
1.22079e-05
2.20573e-05
9.16258e-06
7.08677e-06
7.08695e-06
2.20626e-05
1.2205e-05
4.09214e-06
1.08312e-05
4.74523e-06
1.08283e-05
4.74431e-06
1.22082e-05
1.22021e-05
4.74129e-06
1.08238e-05
4.09071e-06
1.21989e-05
4.7427e-06
1.08264e-05
2.20535e-05
9.16036e-06
7.08762e-06
7.08691e-06
2.20613e-05
2.20523e-05
7.08442e-06
9.15836e-06
2.20456e-05
7.08503e-06
1.22034e-05
4.09209e-06
4.74523e-06
1.08306e-05
4.74362e-06
1.08276e-05
1.22071e-05
1.22024e-05
1.08237e-05
4.74114e-06
4.09061e-06
1.21993e-05
1.08263e-05
4.74251e-06
2.20538e-05
9.1603e-06
7.08595e-06
7.08534e-06
2.20612e-05
2.20528e-05
7.08305e-06
9.15837e-06
2.20463e-05
7.08359e-06
1.22038e-05
4.092e-06
1.08305e-05
4.74497e-06
1.08275e-05
4.74342e-06
1.22073e-05
1.84336e-05
4.55083e-06
2.81783e-06
5.46554e-06
9.51587e-06
2.81579e-06
9.50968e-06
4.55311e-06
4.54487e-06
2.81685e-06
5.46401e-06
9.51187e-06
9.50502e-06
2.81465e-06
4.54712e-06
9.74994e-06
2.17683e-05
2.17689e-05
2.17509e-05
2.17514e-05
9.75512e-06
1.84319e-05
1.22025e-05
4.74117e-06
1.0824e-05
4.09081e-06
1.21994e-05
4.74256e-06
1.08266e-05
2.20544e-05
9.16064e-06
7.08622e-06
7.08555e-06
2.2062e-05
2.20533e-05
7.08378e-06
1.22039e-05
4.09186e-06
4.74508e-06
1.08309e-05
4.74347e-06
1.08278e-05
1.22075e-05
1.22023e-05
4.74157e-06
1.08241e-05
4.09087e-06
1.21991e-05
4.74272e-06
1.08267e-05
2.20541e-05
9.16138e-06
7.08792e-06
7.08746e-06
2.20621e-05
2.20531e-05
7.08489e-06
9.15936e-06
2.20461e-05
7.08534e-06
1.22037e-05
4.09196e-06
4.74522e-06
1.0831e-05
4.74401e-06
1.08279e-05
1.22074e-05
9.74073e-06
2.17211e-05
2.17203e-05
9.73362e-06
2.1742e-05
2.17413e-05
4.54458e-06
2.81674e-06
5.46381e-06
9.5116e-06
2.81449e-06
9.50471e-06
4.547e-06
4.55055e-06
2.81803e-06
5.46576e-06
9.51654e-06
2.81569e-06
9.50943e-06
4.55304e-06
4.54071e-06
9.49172e-06
2.80979e-06
5.46099e-06
4.53777e-06
2.81232e-06
9.49992e-06
4.54673e-06
9.49629e-06
2.81093e-06
5.46281e-06
4.54372e-06
2.81356e-06
9.5044e-06
9.74944e-06
2.1769e-05
2.17684e-05
2.17506e-05
2.17499e-05
9.75491e-06
1.84316e-05
1.84289e-05
1.84333e-05
1.84303e-05
2.67346e-06
1.15474e-06
1.77442e-06
1.77353e-06
1.77319e-06
1.77371e-06
2.67478e-06
2.67332e-06
1.15465e-06
1.774e-06
1.77385e-06
1.7735e-06
1.77334e-06
2.67465e-06
2.67353e-06
1.15479e-06
1.7741e-06
1.774e-06
1.77362e-06
1.77349e-06
2.67485e-06
2.67343e-06
1.1548e-06
1.77392e-06
1.77418e-06
1.77339e-06
1.77366e-06
2.67481e-06
1.68115e-07
1.68097e-07
1.65978e-07
7.98841e-08
8.04203e-08
3.18809e-07
1.68115e-07
1.68076e-07
1.65977e-07
1.65939e-07
7.98813e-08
8.04174e-08
1.68163e-07
1.68133e-07
1.6599e-07
7.9901e-08
8.04384e-08
3.18884e-07
1.68152e-07
1.68128e-07
1.66011e-07
1.65989e-07
7.98992e-08
8.04362e-08
1.41431e-06
2.36266e-06
1.27729e-06
2.10594e-06
1.41485e-06
2.36476e-06
1.27742e-06
1.62115e-06
2.03713e-06
3.47608e-06
2.86192e-06
2.03615e-06
2.86111e-06
1.62092e-06
1.42013e-06
2.10751e-06
2.36843e-06
1.28288e-06
2.3663e-06
1.28272e-06
1.41962e-06
1.41444e-06
2.36279e-06
1.27732e-06
2.10596e-06
1.41497e-06
2.36491e-06
1.27746e-06
1.62132e-06
2.03723e-06
3.47638e-06
2.8625e-06
2.86153e-06
2.03645e-06
1.62108e-06
1.61621e-06
2.85803e-06
2.03183e-06
3.47355e-06
1.61647e-06
2.85896e-06
2.03262e-06
1.42026e-06
2.10756e-06
2.36869e-06
1.28291e-06
2.36649e-06
1.28276e-06
1.41974e-06
2.66977e-06
1.14867e-06
1.7686e-06
1.76844e-06
1.76918e-06
2.66826e-06
1.76903e-06
1.62133e-06
2.03715e-06
3.47664e-06
2.86257e-06
2.03658e-06
2.86154e-06
1.62106e-06
1.4203e-06
2.10768e-06
2.36874e-06
1.28301e-06
2.36652e-06
1.28287e-06
1.41978e-06
1.62125e-06
2.03727e-06
3.47668e-06
2.86207e-06
2.86126e-06
2.03651e-06
1.621e-06
1.42023e-06
2.10763e-06
1.28298e-06
2.36857e-06
1.28283e-06
2.36644e-06
1.41971e-06
1.41436e-06
2.36267e-06
1.27732e-06
2.10592e-06
1.41491e-06
2.36477e-06
1.27746e-06
1.62118e-06
2.03686e-06
3.47597e-06
2.86224e-06
2.03606e-06
2.86129e-06
1.62094e-06
1.61605e-06
2.85778e-06
2.03145e-06
3.47315e-06
1.61632e-06
2.03226e-06
2.85865e-06
1.4202e-06
2.10753e-06
2.36858e-06
1.28292e-06
2.36637e-06
1.28276e-06
1.41967e-06
1.41433e-06
1.2773e-06
2.36254e-06
2.10587e-06
1.41486e-06
1.27744e-06
2.36464e-06
1.62112e-06
2.03692e-06
3.47594e-06
2.86187e-06
2.86091e-06
2.03611e-06
1.62088e-06
1.61602e-06
2.85744e-06
2.03151e-06
3.47315e-06
1.61628e-06
2.85833e-06
2.03232e-06
1.42014e-06
2.10746e-06
1.2829e-06
2.36843e-06
1.28273e-06
2.36622e-06
1.41963e-06
1.41437e-06
1.27739e-06
2.36259e-06
2.10594e-06
1.41491e-06
1.27754e-06
2.36467e-06
1.62115e-06
2.03696e-06
3.47608e-06
2.86198e-06
2.03619e-06
2.8609e-06
1.6209e-06
1.61602e-06
2.85839e-06
1.42019e-06
2.10762e-06
1.28299e-06
2.36849e-06
1.28283e-06
2.36628e-06
1.41968e-06
1.41451e-06
1.27742e-06
2.36278e-06
2.10598e-06
1.41504e-06
1.27757e-06
2.36487e-06
1.62136e-06
2.03733e-06
3.47655e-06
2.86242e-06
2.8615e-06
2.03654e-06
1.62111e-06
1.61623e-06
2.85796e-06
2.03192e-06
3.47369e-06
1.6165e-06
2.85884e-06
2.03272e-06
1.42033e-06
2.10767e-06
1.28303e-06
2.36868e-06
1.28287e-06
2.36648e-06
1.41981e-06
2.66994e-06
1.14883e-06
1.76849e-06
1.76876e-06
2.66838e-06
1.7691e-06
1.76935e-06
1.33749e-07
2.30886e-07
2.30922e-07
3.58393e-07
3.5291e-07
2.28647e-07
2.28662e-07
3.52872e-07
2.28583e-07
2.28685e-07
2.28549e-07
2.28628e-07
3.52938e-07
2.28582e-07
2.28591e-07
3.52936e-07
3.58364e-07
3.78395e-07
2.30945e-07
2.31004e-07
2.38811e-07
2.3882e-07
3.5833e-07
3.78354e-07
2.30961e-07
2.31028e-07
2.38707e-07
2.38842e-07
2.30968e-07
2.3869e-07
2.38776e-07
3.58398e-07
3.78435e-07
2.3093e-07
2.38727e-07
2.38737e-07
3.78421e-07
1.34412e-07
1.3441e-07
1.3442e-07
1.34414e-07
3.68234e-06
8.90803e-06
3.64885e-06
8.91306e-06
1.84663e-05
1.8458e-05
3.68289e-06
8.90974e-06
3.64867e-06
8.91482e-06
1.33745e-07
1.33755e-07
1.33749e-07
1.32069e-07
1.32068e-07
1.32078e-07
1.32072e-07
1.1586e-06
2.79619e-06
1.58617e-07
2.33356e-07
1.13071e-06
2.81982e-06
1.58833e-07
1.84683e-05
1.84601e-05
1.15865e-06
1.58615e-07
2.7963e-06
2.33393e-07
1.13075e-06
1.58841e-07
2.82015e-06
5.13146e-06
5.13333e-06
3.65304e-07
5.14381e-06
5.14585e-06
1.8472e-05
1.84808e-05
1.8474e-05
1.84828e-05
3.46455e-07
5.12475e-06
5.12713e-06
5.11154e-06
5.11298e-06
3.5997e-06
8.90714e-06
8.902e-06
3.63706e-06
3.59977e-06
8.90812e-06
8.90295e-06
3.63716e-06
1.08806e-06
2.26405e-07
2.78312e-06
1.58499e-07
2.75811e-06
1.58449e-07
1.11603e-06
1.08809e-06
2.26453e-07
2.78363e-06
1.58507e-07
2.75851e-06
1.58457e-07
1.11606e-06
1.84728e-05
1.84817e-05
3.46426e-07
5.12679e-06
5.12471e-06
5.11298e-06
5.11148e-06
1.84715e-05
1.84804e-05
3.59953e-06
8.90889e-06
8.90372e-06
3.63763e-06
1.08818e-06
2.26411e-07
2.78369e-06
1.58504e-07
2.75855e-06
1.58453e-07
1.11614e-06
3.59949e-06
8.9085e-06
8.90344e-06
3.63755e-06
1.08815e-06
2.26477e-07
1.5851e-07
2.78362e-06
1.58459e-07
2.75873e-06
1.11613e-06
1.08809e-06
2.26342e-07
2.78301e-06
1.58495e-07
2.758e-06
1.58445e-07
1.11605e-06
3.59982e-06
8.90822e-06
8.90306e-06
3.6372e-06
1.08807e-06
2.26419e-07
1.58498e-07
2.78312e-06
1.58449e-07
2.75808e-06
1.11604e-06
3.59977e-06
8.90783e-06
8.9027e-06
3.6371e-06
1.84746e-05
1.84833e-05
3.46482e-07
5.12665e-06
5.12506e-06
5.11325e-06
5.11114e-06
1.84725e-05
1.84812e-05
1.08814e-06
2.26376e-07
1.58499e-07
2.7831e-06
1.58448e-07
2.75805e-06
1.11609e-06
1.08817e-06
2.26382e-07
1.58498e-07
2.78364e-06
1.58448e-07
2.7586e-06
1.11612e-06
3.59942e-06
8.90793e-06
8.9028e-06
3.63758e-06
3.5995e-06
8.90903e-06
8.90385e-06
3.63767e-06
3.4648e-07
5.12508e-06
5.12712e-06
5.11117e-06
5.11305e-06
1.84726e-05
1.84813e-05
1.84741e-05
1.84829e-05
1.84654e-05
1.8457e-05
1.84673e-05
1.8459e-05
5.13145e-06
5.133e-06
3.65274e-07
5.14343e-06
5.14571e-06
1.8443e-05
1.84508e-05
1.84445e-05
1.84528e-05
3.71053e-07
5.16093e-06
5.16208e-06
5.1497e-06
5.15138e-06
3.68245e-06
8.90896e-06
3.64892e-06
8.91401e-06
1.15858e-06
2.79631e-06
1.58621e-07
2.33461e-07
1.1307e-06
2.81987e-06
1.58839e-07
1.15862e-06
2.7967e-06
1.58631e-07
2.33477e-07
1.13072e-06
2.82045e-06
1.58845e-07
3.69296e-06
8.91859e-06
8.91388e-06
3.72275e-06
3.69303e-06
8.91953e-06
8.9148e-06
3.72287e-06
1.17316e-06
2.36018e-07
2.85475e-06
1.59524e-07
2.83239e-06
1.59141e-07
1.20082e-06
1.17319e-06
2.36083e-07
2.85516e-06
1.59532e-07
2.83283e-06
1.59153e-07
1.20085e-06
5.13296e-06
5.13139e-06
3.6523e-07
5.14547e-06
5.14348e-06
1.8465e-05
1.84566e-05
1.84437e-05
1.84518e-05
3.7102e-07
5.16236e-06
5.16045e-06
5.15127e-06
5.14961e-06
1.84423e-05
1.84504e-05
1.15867e-06
2.79676e-06
1.58622e-07
2.33386e-07
1.1308e-06
2.82047e-06
1.58845e-07
3.68283e-06
8.9094e-06
3.64862e-06
8.91453e-06
1.15868e-06
1.58633e-07
2.79691e-06
2.33502e-07
1.13078e-06
1.58847e-07
2.82064e-06
3.69281e-06
8.92029e-06
8.91561e-06
3.72328e-06
1.17329e-06
2.36041e-07
2.85505e-06
1.59532e-07
2.83288e-06
1.59142e-07
1.20089e-06
3.69278e-06
8.91991e-06
8.91533e-06
3.7232e-06
1.17327e-06
2.36107e-07
1.59531e-07
2.85515e-06
1.59152e-07
2.83309e-06
1.20089e-06
3.68249e-06
8.9091e-06
3.64894e-06
8.9141e-06
1.15859e-06
1.58621e-07
2.79632e-06
2.33439e-07
1.13069e-06
1.58836e-07
2.82012e-06
3.68239e-06
8.9087e-06
3.64889e-06
8.91384e-06
1.1732e-06
2.35957e-07
2.85454e-06
1.59517e-07
2.83231e-06
1.59137e-07
1.20082e-06
3.69311e-06
8.91964e-06
8.91492e-06
3.72288e-06
1.17318e-06
2.36042e-07
1.59522e-07
2.85467e-06
1.59141e-07
2.83246e-06
1.20081e-06
3.69306e-06
8.91928e-06
8.91461e-06
3.72277e-06
5.13351e-06
5.13144e-06
3.65315e-07
5.14558e-06
5.14385e-06
1.84663e-05
1.8458e-05
1.84454e-05
1.84537e-05
3.71096e-07
5.16232e-06
5.16056e-06
5.15157e-06
5.14957e-06
1.84432e-05
1.84516e-05
1.15868e-06
1.5862e-07
2.79685e-06
2.33402e-07
1.13079e-06
1.58836e-07
2.82064e-06
3.68289e-06
8.9088e-06
3.64852e-06
8.91394e-06
3.68297e-06
8.90989e-06
3.64859e-06
8.91497e-06
1.17325e-06
2.35995e-07
1.59527e-07
2.85466e-06
1.59134e-07
2.83245e-06
1.20086e-06
1.17328e-06
2.36003e-07
1.59522e-07
2.85518e-06
1.5914e-07
2.83298e-06
1.2009e-06
3.6927e-06
8.91939e-06
8.91471e-06
3.72327e-06
3.69278e-06
8.92046e-06
8.91574e-06
3.72336e-06
1.84663e-05
1.84581e-05
1.84679e-05
1.84596e-05
3.71085e-07
5.16061e-06
5.16261e-06
5.14963e-06
5.15152e-06
1.84434e-05
1.84517e-05
1.84449e-05
1.84532e-05
1.21277e-05
3.67152e-06
1.06712e-05
4.49083e-06
1.06673e-05
4.48226e-06
1.21304e-05
2.24344e-05
7.21065e-06
8.91015e-06
2.24348e-05
7.21116e-06
1.21271e-05
3.66031e-06
1.06621e-05
4.46663e-06
1.21243e-05
1.06659e-05
4.47568e-06
2.24253e-05
7.21262e-06
8.91101e-06
7.21229e-06
2.24247e-05
1.84653e-05
1.8459e-05
1.21277e-05
3.67135e-06
4.49141e-06
1.06715e-05
4.48225e-06
1.06676e-05
1.21304e-05
2.2434e-05
7.21205e-06
8.9119e-06
2.24347e-05
7.21323e-06
1.21271e-05
3.66086e-06
4.46658e-06
1.06624e-05
1.21243e-05
4.47628e-06
1.06662e-05
2.24251e-05
7.21462e-06
8.91273e-06
7.21379e-06
2.24244e-05
1.84674e-05
1.84612e-05
9.72498e-06
2.19068e-05
2.19062e-05
2.19097e-05
2.19091e-05
9.72318e-06
3.96218e-06
1.92633e-06
9.03373e-06
5.13478e-06
3.95499e-06
1.93598e-06
9.04021e-06
3.96919e-06
1.92789e-06
9.03853e-06
5.13682e-06
3.96182e-06
1.93766e-06
9.04502e-06
9.72417e-06
2.19134e-05
2.19128e-05
9.72216e-06
2.19154e-05
2.19148e-05
3.97172e-06
9.04755e-06
5.14087e-06
1.95698e-06
1.94773e-06
9.04261e-06
3.97758e-06
3.97852e-06
9.05237e-06
5.14275e-06
1.95866e-06
1.94929e-06
9.04742e-06
3.98456e-06
1.84731e-05
1.84797e-05
1.84751e-05
1.84817e-05
9.7196e-06
2.19346e-05
2.19347e-05
9.71933e-06
2.19333e-05
2.19335e-05
3.93678e-06
1.91419e-06
5.12177e-06
9.03142e-06
9.02633e-06
1.90415e-06
3.94409e-06
3.94422e-06
1.91516e-06
5.12324e-06
9.03678e-06
9.03167e-06
1.90629e-06
3.9505e-06
3.92682e-06
9.01833e-06
1.88209e-06
5.11474e-06
3.91939e-06
9.02402e-06
1.89209e-06
3.93349e-06
9.02368e-06
1.88406e-06
5.11718e-06
3.9266e-06
9.0294e-06
1.89326e-06
9.72012e-06
2.19216e-05
2.19218e-05
2.19242e-05
2.19242e-05
9.71953e-06
1.21202e-05
1.06523e-05
4.43216e-06
3.61253e-06
1.21173e-05
1.06558e-05
4.44231e-06
2.24444e-05
8.90502e-06
7.20919e-06
2.24439e-05
7.20851e-06
2.24536e-05
7.20594e-06
8.90414e-06
2.24541e-05
7.20678e-06
1.21208e-05
3.62493e-06
1.06607e-05
4.45953e-06
1.21237e-05
1.06571e-05
4.44994e-06
1.21202e-05
1.06524e-05
4.43212e-06
3.61264e-06
1.21173e-05
1.06559e-05
4.44298e-06
2.24446e-05
8.90597e-06
7.21153e-06
7.21009e-06
2.2444e-05
2.24536e-05
7.20746e-06
8.90513e-06
2.24543e-05
7.20921e-06
1.21208e-05
3.625e-06
1.06608e-05
4.46016e-06
1.06572e-05
4.44991e-06
1.21236e-05
1.84739e-05
1.84806e-05
9.71893e-06
2.19361e-05
2.19368e-05
9.71985e-06
2.19329e-05
2.19336e-05
3.94341e-06
1.91544e-06
5.12321e-06
9.03604e-06
1.90585e-06
9.03107e-06
3.95037e-06
3.93636e-06
1.91368e-06
5.12168e-06
9.03138e-06
9.02643e-06
1.90422e-06
3.94354e-06
3.93334e-06
9.02371e-06
1.8838e-06
5.11684e-06
1.89346e-06
3.92629e-06
9.02894e-06
3.92651e-06
9.01908e-06
1.88217e-06
5.1147e-06
3.91924e-06
9.02429e-06
1.8917e-06
9.7187e-06
2.19184e-05
2.19191e-05
2.19211e-05
2.19218e-05
9.71775e-06
1.84726e-05
1.84793e-05
1.21202e-05
4.4321e-06
1.06526e-05
3.6131e-06
1.21174e-05
4.44299e-06
1.06561e-05
2.24442e-05
8.90674e-06
7.21132e-06
2.24435e-05
7.20987e-06
2.24533e-05
7.20724e-06
8.9059e-06
2.2454e-05
7.20899e-06
1.21209e-05
3.62472e-06
4.46017e-06
1.0661e-05
1.21237e-05
4.44987e-06
1.06574e-05
1.21205e-05
1.06525e-05
4.43235e-06
3.61303e-06
1.21177e-05
1.0656e-05
4.44242e-06
2.24446e-05
8.90639e-06
7.20934e-06
7.20881e-06
2.24442e-05
2.24539e-05
7.20625e-06
8.90553e-06
2.24543e-05
7.20695e-06
1.21212e-05
3.62469e-06
1.06609e-05
4.4596e-06
1.06573e-05
4.45011e-06
1.2124e-05
1.21199e-05
4.43199e-06
1.06526e-05
3.61269e-06
1.2117e-05
4.44283e-06
1.0656e-05
2.24436e-05
8.9061e-06
7.21096e-06
7.20954e-06
2.24429e-05
2.24526e-05
7.20689e-06
8.90522e-06
2.24533e-05
7.20864e-06
1.21205e-05
3.62502e-06
4.46e-06
1.0661e-05
4.44977e-06
1.06574e-05
1.21233e-05
1.21202e-05
1.06524e-05
4.43186e-06
3.61259e-06
1.21173e-05
1.06559e-05
4.4426e-06
2.24436e-05
8.90568e-06
7.20923e-06
7.20781e-06
2.2443e-05
2.24526e-05
7.20519e-06
8.90484e-06
2.24533e-05
7.20688e-06
1.21208e-05
3.62497e-06
1.06608e-05
4.45977e-06
1.06572e-05
4.44963e-06
1.21236e-05
1.84755e-05
1.84821e-05
9.71343e-06
2.19272e-05
2.19273e-05
9.71474e-06
2.19238e-05
2.19238e-05
3.94288e-06
1.91551e-06
5.12351e-06
9.03555e-06
1.90587e-06
9.02943e-06
3.95104e-06
3.93595e-06
1.91392e-06
5.12142e-06
9.03048e-06
9.02438e-06
1.90407e-06
3.94393e-06
3.9315e-06
9.02302e-06
1.8836e-06
5.11643e-06
1.89295e-06
3.92458e-06
9.02706e-06
3.92437e-06
9.01795e-06
1.88184e-06
5.11486e-06
3.91763e-06
9.02197e-06
1.89134e-06
9.71471e-06
2.19167e-05
2.19167e-05
2.1915e-05
2.19151e-05
9.71768e-06
1.84734e-05
1.848e-05
1.21201e-05
4.43181e-06
1.06525e-05
3.61309e-06
1.21172e-05
4.44267e-06
1.06559e-05
2.24437e-05
8.90578e-06
7.20924e-06
7.20783e-06
2.24431e-05
2.24527e-05
7.20519e-06
8.90495e-06
2.24534e-05
7.20691e-06
1.21207e-05
3.6246e-06
4.45983e-06
1.06609e-05
4.44956e-06
1.06572e-05
1.21235e-05
1.21199e-05
4.43203e-06
1.06526e-05
3.61318e-06
1.21171e-05
4.44301e-06
1.06561e-05
2.24436e-05
8.90687e-06
7.21117e-06
7.20971e-06
2.2443e-05
2.24526e-05
7.20706e-06
8.90602e-06
2.24533e-05
7.20884e-06
1.21206e-05
3.62468e-06
4.46016e-06
1.0661e-05
4.44979e-06
1.06574e-05
1.21234e-05
9.71386e-06
2.19286e-05
2.19279e-05
9.71534e-06
2.19249e-05
2.19243e-05
3.93587e-06
1.91395e-06
5.12146e-06
9.03074e-06
3.94394e-06
1.90411e-06
9.0248e-06
3.94269e-06
1.91563e-06
5.12333e-06
9.03555e-06
3.95096e-06
1.90566e-06
9.02959e-06
3.92484e-06
9.01831e-06
1.8819e-06
5.11491e-06
3.91782e-06
1.89149e-06
9.02247e-06
3.93184e-06
9.02307e-06
1.88344e-06
5.11697e-06
3.92461e-06
1.89317e-06
9.02725e-06
9.71482e-06
2.19165e-05
2.19159e-05
9.7171e-06
2.19155e-05
2.19149e-05
1.84736e-05
1.84801e-05
1.84751e-05
1.84817e-05
1.84644e-05
1.8458e-05
1.84663e-05
1.84599e-05
9.71999e-06
2.18997e-05
2.18999e-05
2.19005e-05
2.19006e-05
9.72033e-06
3.96109e-06
1.92568e-06
9.03358e-06
5.13428e-06
3.95332e-06
9.03856e-06
1.93591e-06
3.96713e-06
1.92804e-06
9.03892e-06
5.13663e-06
3.96106e-06
9.04394e-06
1.93664e-06
9.71923e-06
2.19112e-05
2.19113e-05
9.71968e-06
2.19091e-05
2.19093e-05
3.96963e-06
9.04607e-06
5.14075e-06
1.95734e-06
9.04083e-06
3.97809e-06
1.94686e-06
3.9778e-06
9.05146e-06
5.14238e-06
1.95776e-06
9.04619e-06
3.98363e-06
1.94949e-06
1.84437e-05
1.84499e-05
1.84457e-05
1.84518e-05
9.72199e-06
2.18929e-05
2.1893e-05
9.72183e-06
2.18924e-05
2.18919e-05
4.00002e-06
1.99905e-06
5.15795e-06
9.06141e-06
9.05592e-06
1.98788e-06
4.01102e-06
4.01014e-06
1.99786e-06
5.15999e-06
9.06462e-06
9.0607e-06
1.991e-06
4.01199e-06
3.99467e-06
9.04842e-06
1.96762e-06
5.15215e-06
3.98539e-06
9.05372e-06
1.97833e-06
3.99928e-06
9.05377e-06
1.97059e-06
5.15431e-06
3.99414e-06
9.05879e-06
1.97832e-06
9.72262e-06
2.18835e-05
2.18818e-05
2.18848e-05
2.18839e-05
9.72202e-06
1.21276e-05
3.67158e-06
1.06713e-05
4.4914e-06
1.06674e-05
4.48227e-06
1.21303e-05
2.24344e-05
7.21226e-06
8.9111e-06
2.24351e-05
7.21341e-06
1.2127e-05
3.66041e-06
1.06622e-05
4.46661e-06
1.0666e-05
1.21243e-05
4.47629e-06
2.24255e-05
7.21478e-06
8.91192e-06
7.21397e-06
2.24248e-05
1.21336e-05
1.06727e-05
4.49688e-06
3.70315e-06
1.21309e-05
1.06766e-05
4.50502e-06
2.24059e-05
8.91661e-06
7.21408e-06
7.21405e-06
2.24053e-05
2.24152e-05
7.21338e-06
8.91584e-06
2.24155e-05
7.2136e-06
1.21341e-05
3.71323e-06
1.0682e-05
4.51818e-06
1.06781e-05
4.51065e-06
1.21366e-05
1.21335e-05
1.06728e-05
4.49694e-06
3.70327e-06
1.21309e-05
1.06767e-05
4.50555e-06
2.2406e-05
8.91757e-06
7.21622e-06
7.21593e-06
2.24052e-05
2.2415e-05
7.21517e-06
8.91681e-06
2.24158e-05
7.21568e-06
1.2134e-05
3.71329e-06
1.06821e-05
4.51877e-06
1.06782e-05
4.51067e-06
1.21365e-05
9.72027e-06
2.19005e-05
2.19012e-05
2.19008e-05
2.19015e-05
9.72098e-06
3.96746e-06
1.92754e-06
9.03827e-06
5.13633e-06
9.04353e-06
3.96042e-06
1.93711e-06
3.96063e-06
1.92591e-06
9.03362e-06
5.13429e-06
1.93536e-06
3.95336e-06
9.03886e-06
9.71852e-06
2.19086e-05
2.19093e-05
2.19076e-05
9.71823e-06
2.19084e-05
3.97737e-06
9.05131e-06
5.14233e-06
1.9584e-06
9.0459e-06
1.94892e-06
3.98415e-06
3.97031e-06
9.04661e-06
5.14072e-06
1.95665e-06
1.94729e-06
9.04123e-06
3.97732e-06
1.8464e-05
1.84576e-05
1.84447e-05
1.84508e-05
9.72196e-06
2.18936e-05
2.18943e-05
9.72214e-06
2.18922e-05
2.1893e-05
4.00855e-06
1.99924e-06
5.15971e-06
9.06516e-06
1.99012e-06
9.06061e-06
4.01432e-06
4.00149e-06
1.9975e-06
5.15803e-06
9.06044e-06
9.05591e-06
1.9885e-06
4.0075e-06
3.99974e-06
9.05356e-06
1.96983e-06
5.15415e-06
1.97912e-06
3.99354e-06
9.05862e-06
3.99291e-06
9.04887e-06
1.9682e-06
5.1522e-06
3.98648e-06
9.0539e-06
1.97738e-06
9.72207e-06
2.1881e-05
2.18817e-05
2.18832e-05
2.1884e-05
9.72116e-06
1.84433e-05
1.84495e-05
1.2128e-05
3.67131e-06
1.06714e-05
4.49087e-06
1.06675e-05
4.48249e-06
1.21307e-05
2.24347e-05
7.21097e-06
8.91157e-06
2.24351e-05
7.21131e-06
1.21274e-05
3.6608e-06
1.06623e-05
4.46682e-06
1.06661e-05
1.21246e-05
4.47575e-06
2.24256e-05
7.21276e-06
8.91245e-06
7.21265e-06
2.2425e-05
1.21335e-05
4.49692e-06
1.0673e-05
3.7037e-06
1.21309e-05
4.50558e-06
1.06769e-05
2.24056e-05
8.91838e-06
7.21606e-06
7.21575e-06
2.24049e-05
2.24146e-05
7.215e-06
8.91762e-06
2.24154e-05
7.21551e-06
1.2134e-05
3.71305e-06
4.51877e-06
1.06823e-05
4.51062e-06
1.06784e-05
1.21365e-05
1.21339e-05
1.06729e-05
4.49716e-06
3.70361e-06
1.21313e-05
1.06768e-05
4.50501e-06
2.24059e-05
8.91802e-06
7.21426e-06
7.21435e-06
2.24053e-05
2.24151e-05
7.21374e-06
8.91726e-06
2.24157e-05
7.21371e-06
1.21344e-05
3.71303e-06
1.06822e-05
4.51821e-06
1.06783e-05
4.51086e-06
1.21368e-05
1.21273e-05
3.67164e-06
4.49125e-06
1.06715e-05
4.48212e-06
1.06676e-05
1.213e-05
2.24333e-05
7.21171e-06
8.9112e-06
7.21284e-06
2.2434e-05
1.21267e-05
3.66045e-06
4.46645e-06
1.06624e-05
4.47612e-06
1.2124e-05
1.06661e-05
2.24244e-05
7.21422e-06
8.91205e-06
7.21341e-06
2.24237e-05
1.21276e-05
3.67159e-06
1.06714e-05
4.49104e-06
1.06675e-05
4.48201e-06
1.21303e-05
2.24335e-05
7.21e-06
8.91089e-06
2.24341e-05
7.21114e-06
1.2127e-05
3.66035e-06
1.06622e-05
4.46633e-06
1.21243e-05
1.0666e-05
4.47591e-06
2.24246e-05
7.21254e-06
8.91173e-06
7.21174e-06
2.24238e-05
1.21332e-05
4.49681e-06
1.0673e-05
3.70329e-06
1.21306e-05
4.5054e-06
1.06769e-05
2.24049e-05
8.9177e-06
7.21569e-06
7.2154e-06
2.24042e-05
2.24139e-05
7.21463e-06
8.91691e-06
2.24147e-05
7.21513e-06
1.21337e-05
3.71336e-06
4.51861e-06
1.06823e-05
4.51054e-06
1.06784e-05
1.21362e-05
1.21335e-05
1.06728e-05
4.4967e-06
3.70319e-06
1.21309e-05
1.06768e-05
4.50518e-06
2.2405e-05
8.91734e-06
7.21397e-06
7.21372e-06
2.24043e-05
2.2414e-05
7.21296e-06
8.9166e-06
2.24148e-05
7.21343e-06
1.2134e-05
3.71331e-06
1.06821e-05
4.51838e-06
1.06782e-05
4.51042e-06
1.21365e-05
9.72568e-06
2.19073e-05
2.19074e-05
2.19107e-05
2.19107e-05
9.72341e-06
3.96949e-06
1.92822e-06
9.03868e-06
5.13647e-06
9.04541e-06
3.96242e-06
1.93762e-06
3.96238e-06
1.9264e-06
9.03363e-06
5.13482e-06
1.93605e-06
3.95546e-06
9.04033e-06
9.72514e-06
2.19142e-05
2.19142e-05
2.19164e-05
9.72316e-06
2.19165e-05
3.97908e-06
9.05275e-06
5.1429e-06
1.9586e-06
9.04784e-06
1.94964e-06
3.98465e-06
3.97208e-06
9.0477e-06
5.14087e-06
1.95705e-06
1.9478e-06
9.04277e-06
3.97757e-06
1.84653e-05
1.84591e-05
1.84463e-05
1.84526e-05
9.71892e-06
2.18932e-05
2.18933e-05
9.72178e-06
2.18889e-05
2.18889e-05
4.00771e-06
1.99912e-06
5.15986e-06
9.06423e-06
1.99015e-06
9.05977e-06
4.01391e-06
4.00072e-06
1.99758e-06
5.15788e-06
9.05915e-06
9.05469e-06
1.98831e-06
4.00686e-06
3.99876e-06
9.05433e-06
1.97005e-06
5.15408e-06
1.97888e-06
3.9933e-06
9.05807e-06
3.99169e-06
9.04927e-06
1.96821e-06
5.15231e-06
3.98629e-06
9.05299e-06
1.97733e-06
9.71865e-06
2.18758e-05
2.18758e-05
2.18769e-05
2.18769e-05
9.7184e-06
1.84442e-05
1.84505e-05
1.21275e-05
3.67122e-06
4.4911e-06
1.06714e-05
4.48193e-06
1.06675e-05
1.21302e-05
2.24335e-05
7.21001e-06
8.91099e-06
7.21114e-06
2.24342e-05
1.21269e-05
3.66084e-06
4.46624e-06
1.06623e-05
4.47596e-06
1.21242e-05
1.06661e-05
2.24246e-05
7.21254e-06
8.91183e-06
7.21174e-06
2.24239e-05
1.21274e-05
3.6713e-06
4.49142e-06
1.06715e-05
4.48214e-06
1.06676e-05
1.21301e-05
2.24334e-05
7.21188e-06
8.91206e-06
2.24341e-05
7.21303e-06
1.21268e-05
3.66093e-06
4.46647e-06
1.06624e-05
1.2124e-05
4.47628e-06
1.06662e-05
2.24244e-05
7.2144e-06
8.91289e-06
7.21357e-06
2.24237e-05
1.21334e-05
4.49663e-06
1.06729e-05
3.70368e-06
1.21308e-05
4.50525e-06
1.06768e-05
2.24051e-05
8.91743e-06
7.214e-06
7.21374e-06
2.24044e-05
2.24141e-05
7.21296e-06
8.91669e-06
2.24149e-05
7.21345e-06
1.21339e-05
3.71295e-06
4.51845e-06
1.06822e-05
4.51035e-06
1.06783e-05
1.21364e-05
1.21333e-05
4.49684e-06
1.0673e-05
3.70378e-06
1.21306e-05
4.50557e-06
1.06769e-05
2.2405e-05
8.91849e-06
7.21588e-06
7.21556e-06
2.24042e-05
2.24139e-05
7.21478e-06
8.91774e-06
2.24147e-05
7.21532e-06
1.21338e-05
3.71303e-06
4.51878e-06
1.06823e-05
4.51056e-06
1.06784e-05
1.21363e-05
1.84654e-05
1.84591e-05
1.84669e-05
1.84606e-05
9.71883e-06
2.18935e-05
2.18929e-05
9.72177e-06
2.18892e-05
2.18886e-05
4.00066e-06
1.99756e-06
5.15798e-06
9.05935e-06
1.98834e-06
9.05489e-06
4.00688e-06
4.00745e-06
1.99924e-06
5.15988e-06
9.06419e-06
1.9899e-06
9.0597e-06
4.01389e-06
3.99187e-06
9.04922e-06
1.96821e-06
5.15235e-06
3.98621e-06
1.97734e-06
9.05314e-06
3.99885e-06
9.05403e-06
1.96976e-06
5.15437e-06
3.99299e-06
1.97901e-06
9.05796e-06
9.71853e-06
2.18758e-05
2.18752e-05
2.18772e-05
2.18766e-05
9.71811e-06
1.84443e-05
1.84506e-05
1.84459e-05
1.84521e-05
1.17709e-07
1.17705e-07
1.3314e-07
1.16608e-07
1.16606e-07
1.09943e-07
1.11234e-07
1.74051e-06
7.67716e-07
7.6802e-07
3.59024e-07
1.7336e-06
7.71737e-07
7.72018e-07
1.71087e-06
3.5231e-07
7.56596e-07
7.56899e-07
7.52653e-07
7.52959e-07
1.71771e-06
1.71065e-06
3.5228e-07
7.56818e-07
7.56538e-07
7.52878e-07
7.52606e-07
1.71755e-06
1.71044e-06
3.52338e-07
7.5689e-07
7.56625e-07
7.52909e-07
7.52629e-07
1.7176e-06
1.71048e-06
3.52335e-07
7.56632e-07
7.56906e-07
1.71759e-06
7.52631e-07
7.52929e-07
1.74006e-06
7.67629e-07
7.67944e-07
3.58994e-07
1.73332e-06
7.71606e-07
7.71917e-07
1.79845e-06
3.77685e-07
8.17848e-07
8.17031e-07
8.12988e-07
8.13809e-07
1.8048e-06
1.73996e-06
7.67856e-07
7.6758e-07
3.58953e-07
7.7155e-07
1.73314e-06
7.71835e-07
1.79834e-06
3.77649e-07
8.17505e-07
8.1721e-07
8.13489e-07
8.13201e-07
1.80466e-06
1.74066e-06
7.68029e-07
7.67743e-07
3.59032e-07
7.71768e-07
1.73371e-06
7.72033e-07
1.79818e-06
3.77722e-07
8.17596e-07
8.17315e-07
8.13569e-07
8.13266e-07
1.8046e-06
1.79814e-06
3.7771e-07
8.17285e-07
8.17583e-07
8.13233e-07
8.13555e-07
1.80454e-06
1.35124e-07
1.18845e-07
1.18843e-07
1.20019e-07
1.20015e-07
1.13904e-07
1.12555e-07
1.35119e-07
1.18845e-07
1.18841e-07
1.20019e-07
1.20014e-07
1.13904e-07
1.12554e-07
1.35129e-07
1.18848e-07
1.18845e-07
1.20021e-07
1.20017e-07
1.13905e-07
1.12556e-07
1.35123e-07
1.18846e-07
1.18843e-07
1.20019e-07
1.20016e-07
1.13905e-07
1.12555e-07
1.17709e-07
1.17704e-07
1.33137e-07
1.16608e-07
1.16603e-07
1.09942e-07
1.11234e-07
1.17712e-07
1.17707e-07
1.33148e-07
1.16611e-07
1.16607e-07
1.09944e-07
1.11235e-07
1.17709e-07
1.17706e-07
1.33142e-07
1.16609e-07
1.16605e-07
1.09943e-07
1.11235e-07
1.32578e-07
1.14513e-07
1.14511e-07
1.15543e-07
1.15539e-07
1.08679e-07
1.07443e-07
1.32573e-07
1.14513e-07
1.14508e-07
1.15543e-07
1.15538e-07
1.08679e-07
1.07442e-07
1.32583e-07
1.14516e-07
1.14512e-07
1.15546e-07
1.15541e-07
1.0868e-07
1.07444e-07
1.32577e-07
1.14514e-07
1.1451e-07
1.15544e-07
1.1554e-07
1.08679e-07
1.07443e-07
4.76659e-07
1.15199e-06
1.47495e-06
3.88743e-07
1.46834e-06
3.87225e-07
4.78143e-07
6.56089e-07
1.00131e-06
2.07337e-06
2.80166e-06
6.53884e-07
1.00615e-06
2.07945e-06
4.69284e-07
1.13735e-06
1.44635e-06
3.80193e-07
4.67843e-07
1.45304e-06
3.81653e-07
6.6566e-07
2.1001e-06
2.8145e-06
1.02323e-06
1.01838e-06
2.09416e-06
6.67899e-07
4.76678e-07
1.15204e-06
3.88775e-07
1.47491e-06
3.87261e-07
1.4683e-06
4.7817e-07
6.56066e-07
1.00142e-06
2.07305e-06
2.80195e-06
6.53843e-07
1.00631e-06
2.07916e-06
4.69308e-07
1.13739e-06
3.80228e-07
1.44629e-06
4.67864e-07
3.81682e-07
1.45299e-06
6.65632e-07
2.09985e-06
2.81474e-06
1.0234e-06
1.01854e-06
2.09389e-06
6.67887e-07
1.75591e-06
3.64645e-07
7.86868e-07
7.87154e-07
7.82865e-07
7.83176e-07
1.76243e-06
1.69495e-06
3.47023e-07
7.37793e-07
7.38089e-07
1.68794e-06
7.4171e-07
7.42007e-07
4.52207e-07
1.40159e-06
3.66837e-07
1.09472e-06
4.50842e-07
1.40847e-06
3.6818e-07
6.42247e-07
9.89296e-07
2.7775e-06
2.05821e-06
9.84452e-07
2.05191e-06
6.44448e-07
6.32988e-07
2.03028e-06
9.67486e-07
2.76391e-06
9.7232e-07
6.30824e-07
2.0367e-06
4.59213e-07
1.10939e-06
1.43086e-06
3.74792e-07
1.42404e-06
3.73397e-07
4.60625e-07
4.52271e-07
1.40179e-06
3.66847e-07
1.09475e-06
4.50907e-07