/*--------------------------------*- C++ -*----------------------------------*\
| =========                 |                                                 |
| \\      /  F ield         | OpenFOAM: The Open Source CFD Toolbox           |
|  \\    /   O peration     | Version:  v1906                                 |
|   \\  /    A nd           | Web:      www.OpenFOAM.com                      |
|    \\/     M anipulation  |                                                 |
\*---------------------------------------------------------------------------*/
FoamFile
{
    version     2.0;
    format      ascii;
    class       volScalarField;
    location    "250";
    object      k;
}
// * * * * * * * * * * * * * * * * * * * * * * * * * * * * * * * * * * * * * //

dimensions      [0 2 -2 0 0 0 0];


internalField   nonuniform List<scalar> 
43248
(
4.19268e-05
3.66499e-05
3.66455e-05
4.19217e-05
3.66442e-05
3.66503e-05
3.66427e-05
3.66491e-05
4.19264e-05
3.66475e-05
3.66464e-05
4.19256e-05
2.10028e-05
2.10015e-05
2.10057e-05
2.10055e-05
6.95558e-05
6.95617e-05
6.69624e-05
6.69848e-05
6.46071e-05
7.13692e-05
6.47141e-05
6.46055e-05
7.13717e-05
7.132e-05
6.471e-05
5.31453e-05
6.02337e-05
2.90012e-05
2.8756e-05
5.33366e-05
5.31456e-05
3.641e-05
6.0223e-05
2.90001e-05
6.00654e-05
2.87563e-05
5.33333e-05
6.95606e-05
6.95129e-05
4.1708e-05
6.6976e-05
6.69472e-05
6.67721e-05
6.67668e-05
6.95543e-05
6.95109e-05
7.1374e-05
6.47143e-05
6.02293e-05
2.90022e-05
5.33354e-05
7.13711e-05
6.47188e-05
2.90043e-05
6.02403e-05
5.33386e-05
5.31484e-05
3.64083e-05
6.02167e-05
2.89999e-05
6.00609e-05
2.87579e-05
5.33261e-05
6.46046e-05
7.13695e-05
7.13179e-05
6.4698e-05
5.31478e-05
3.64139e-05
2.90028e-05
6.02186e-05
2.87602e-05
6.00631e-05
5.33255e-05
6.4604e-05
7.13662e-05
7.1316e-05
6.46968e-05
6.95551e-05
6.69681e-05
6.69701e-05
6.95594e-05
5.31481e-05
2.90046e-05
6.02218e-05
2.87611e-05
5.33269e-05
5.31489e-05
3.6411e-05
2.90049e-05
6.02212e-05
2.87619e-05
6.00664e-05
5.33273e-05
6.46045e-05
7.1368e-05
6.46997e-05
6.46051e-05
7.13719e-05
7.13195e-05
6.47005e-05
4.17119e-05
6.69642e-05
6.69754e-05
6.6764e-05
6.67718e-05
6.95578e-05
6.95117e-05
6.95618e-05
6.95134e-05
6.95408e-05
6.95439e-05
7.00539e-05
5.94332e-05
6.69092e-05
7.11945e-05
7.11621e-05
5.93109e-05
7.02063e-05
7.01173e-05
5.94289e-05
6.69101e-05
7.12075e-05
7.11737e-05
5.93252e-05
7.02324e-05
9.23933e-05
7.21228e-05
7.21158e-05
7.20838e-05
7.20776e-05
9.25597e-05
7.01256e-05
6.98203e-05
6.81026e-05
6.46454e-05
7.01133e-05
6.98317e-05
6.81444e-05
7.01899e-05
7.13517e-05
7.74021e-05
7.73775e-05
7.02015e-05
7.01299e-05
6.46661e-05
6.9849e-05
6.8209e-05
6.98367e-05
6.81642e-05
7.01418e-05
7.01248e-05
6.98201e-05
6.80969e-05
6.46412e-05
7.01124e-05
6.98315e-05
6.81305e-05
7.01887e-05
7.135e-05
7.73961e-05
7.73545e-05
7.02041e-05
7.01865e-05
7.73117e-05
7.13397e-05
7.01719e-05
7.73369e-05
7.01299e-05
6.46616e-05
6.98493e-05
6.81982e-05
6.98366e-05
6.81501e-05
7.01434e-05
6.95418e-05
6.95346e-05
9.22027e-05
7.20099e-05
7.20155e-05
9.20519e-05
7.20555e-05
7.20609e-05
7.0092e-05
5.94235e-05
6.69003e-05
7.12054e-05
5.93095e-05
7.117e-05
7.0227e-05
7.00415e-05
5.94139e-05
6.68941e-05
7.11911e-05
7.11578e-05
5.9305e-05
7.01752e-05
6.99859e-05
7.11048e-05
5.91622e-05
6.68349e-05
5.92336e-05
6.98874e-05
7.11451e-05
6.99364e-05
7.1096e-05
5.91524e-05
6.68415e-05
6.98362e-05
7.11357e-05
5.9229e-05
9.23641e-05
7.21152e-05
7.21204e-05
7.20744e-05
7.20796e-05
9.25361e-05
6.95379e-05
6.95323e-05
7.019e-05
7.13522e-05
7.74004e-05
7.73564e-05
7.02054e-05
7.01309e-05
6.46637e-05
6.82011e-05
6.9851e-05
6.81508e-05
6.98382e-05
7.01445e-05
7.01908e-05
7.13541e-05
7.74077e-05
7.73832e-05
7.02021e-05
7.0131e-05
6.46685e-05
6.98506e-05
6.82138e-05
6.98382e-05
6.81663e-05
7.0143e-05
7.01231e-05
6.80937e-05
6.98193e-05
6.46342e-05
7.0111e-05
6.8122e-05
6.98302e-05
7.01868e-05
7.13474e-05
7.73816e-05
7.73399e-05
7.02035e-05
7.01842e-05
7.73063e-05
7.13371e-05
7.01701e-05
7.73239e-05
7.01284e-05
6.46526e-05
6.81863e-05
6.98486e-05
6.81399e-05
6.98355e-05
7.01425e-05
7.01221e-05
6.98189e-05
6.80916e-05
6.46337e-05
7.01102e-05
6.98298e-05
6.81201e-05
7.0185e-05
7.13448e-05
7.73638e-05
7.7326e-05
7.02008e-05
7.01829e-05
7.72921e-05
7.13348e-05
7.01692e-05
7.73109e-05
7.01272e-05
6.46519e-05
6.9848e-05
6.81821e-05
6.9835e-05
6.81375e-05
7.01409e-05
6.95421e-05
7.01088e-05
5.94365e-05
6.69254e-05
7.12017e-05
5.93287e-05
7.11707e-05
7.024e-05
7.00559e-05
5.94238e-05
6.68976e-05
7.11961e-05
7.11617e-05
5.93097e-05
7.0188e-05
9.23871e-05
7.21146e-05
7.21216e-05
7.2076e-05
7.20826e-05
9.25523e-05
6.95413e-05
7.01227e-05
6.80901e-05
6.982e-05
6.46348e-05
7.01107e-05
6.81195e-05
6.9831e-05
7.01867e-05
7.13462e-05
7.73673e-05
7.73271e-05
7.02026e-05
7.01843e-05
7.73111e-05
7.01279e-05
6.46535e-05
6.81839e-05
6.98494e-05
6.81376e-05
6.98363e-05
7.01418e-05
7.01236e-05
6.80921e-05
6.98202e-05
6.46352e-05
7.01113e-05
6.81207e-05
6.98313e-05
7.0187e-05
7.13493e-05
7.73829e-05
7.73397e-05
7.02042e-05
7.0185e-05
7.73036e-05
7.13388e-05
7.01704e-05
7.73224e-05
7.01288e-05
6.4654e-05
6.81867e-05
6.98498e-05
6.81393e-05
6.98367e-05
7.01431e-05
9.22021e-05
7.20158e-05
7.20097e-05
9.2051e-05
7.20619e-05
7.20559e-05
7.00419e-05
5.9417e-05
6.68969e-05
7.11942e-05
5.93038e-05
7.11596e-05
7.01782e-05
7.00933e-05
5.94251e-05
6.68981e-05
7.12062e-05
5.93103e-05
7.11706e-05
7.023e-05
6.99346e-05
7.10948e-05
5.91549e-05
6.6833e-05
6.98361e-05
5.92277e-05
7.11355e-05
6.99859e-05
7.1105e-05
5.91649e-05
6.68322e-05
6.98883e-05
5.92354e-05
7.11453e-05
9.23685e-05
7.21221e-05
7.21163e-05
7.2081e-05
7.20751e-05
9.25427e-05
6.95401e-05
6.95333e-05
6.95425e-05
6.95351e-05
5.9571e-05
4.18989e-05
5.06305e-05
5.06251e-05
5.05648e-05
5.05714e-05
5.96821e-05
5.95591e-05
4.18948e-05
5.06205e-05
5.06196e-05
5.05618e-05
5.05609e-05
5.96683e-05
5.95685e-05
4.18983e-05
5.06279e-05
5.06251e-05
5.05683e-05
5.05654e-05
5.96786e-05
5.95597e-05
4.18985e-05
5.06206e-05
5.06236e-05
5.05616e-05
5.05647e-05
5.96702e-05
1.50245e-05
1.50238e-05
1.49119e-05
1.08512e-05
1.08791e-05
2.08155e-05
1.50241e-05
1.50227e-05
1.49116e-05
1.49107e-05
1.0851e-05
1.08788e-05
1.50269e-05
1.50258e-05
1.49132e-05
1.08522e-05
1.08801e-05
2.08188e-05
1.50264e-05
1.50256e-05
1.4914e-05
1.49131e-05
1.08522e-05
1.088e-05
4.56233e-05
5.54527e-05
4.36586e-05
5.32161e-05
4.56084e-05
5.55213e-05
4.36867e-05
4.81229e-05
5.26052e-05
6.01595e-05
5.85515e-05
5.25524e-05
5.84791e-05
4.81537e-05
4.57729e-05
5.32567e-05
5.56383e-05
4.38608e-05
5.55606e-05
4.38299e-05
4.57917e-05
4.56245e-05
5.54538e-05
4.36598e-05
5.32143e-05
4.56115e-05
5.55158e-05
4.36872e-05
4.81181e-05
5.2597e-05
6.01489e-05
5.85391e-05
5.84674e-05
5.25471e-05
4.81474e-05
4.79962e-05
5.83799e-05
5.24103e-05
6.01146e-05
4.79749e-05
5.84316e-05
5.24468e-05
4.57707e-05
5.32542e-05
5.56296e-05
4.38595e-05
5.55534e-05
4.38291e-05
4.57884e-05
5.94597e-05
4.17236e-05
5.03914e-05
5.03896e-05
5.04335e-05
5.93768e-05
5.04323e-05
4.81185e-05
5.26006e-05
6.01528e-05
5.8542e-05
5.25515e-05
5.84679e-05
4.81483e-05
4.57706e-05
5.32548e-05
5.56311e-05
4.38606e-05
5.5553e-05
4.38298e-05
4.57887e-05
4.8122e-05
5.26061e-05
6.01657e-05
5.85549e-05
5.84798e-05
5.25546e-05
4.81533e-05
4.57728e-05
5.3257e-05
4.38617e-05
5.56406e-05
4.38305e-05
5.55606e-05
4.57921e-05
4.56243e-05
5.54542e-05
4.36627e-05
5.32128e-05
4.56123e-05
5.55126e-05
4.36891e-05
4.81155e-05
5.25943e-05
6.01456e-05
5.85316e-05
5.25447e-05
5.84615e-05
4.81444e-05
4.79945e-05
5.83775e-05
5.24069e-05
6.01115e-05
4.79738e-05
5.2444e-05
5.84266e-05
4.57689e-05
5.32507e-05
5.56224e-05
4.38578e-05
5.55488e-05
4.38285e-05
4.57857e-05
4.56243e-05
4.36625e-05
5.54529e-05
5.32124e-05
4.56119e-05
4.3689e-05
5.55117e-05
4.8116e-05
5.25955e-05
6.01463e-05
5.85277e-05
5.84587e-05
5.25458e-05
4.81447e-05
4.79953e-05
5.83751e-05
5.24092e-05
6.01126e-05
4.79743e-05
5.84243e-05
5.24459e-05
4.57687e-05
5.32501e-05
4.38578e-05
5.56205e-05
4.38284e-05
5.55476e-05
4.57855e-05
4.56238e-05
4.36632e-05
5.54518e-05
5.32128e-05
4.56114e-05
4.36897e-05
5.55109e-05
4.81158e-05
5.25978e-05
6.01477e-05
5.85291e-05
5.25476e-05
5.84584e-05
4.8145e-05
4.79941e-05
5.84234e-05
4.57687e-05
5.32511e-05
4.38589e-05
5.56214e-05
4.38294e-05
5.55475e-05
4.57859e-05
4.5626e-05
4.36639e-05
5.54546e-05
5.32133e-05
4.56139e-05
4.36904e-05
5.55128e-05
4.81174e-05
5.25978e-05
6.01475e-05
5.85324e-05
5.84618e-05
5.2548e-05
4.81462e-05
4.79967e-05
5.83786e-05
5.24128e-05
6.01137e-05
4.79762e-05
5.8427e-05
5.24488e-05
4.57705e-05
5.32515e-05
4.38594e-05
5.56231e-05
4.38298e-05
5.55493e-05
4.57875e-05
5.94606e-05
4.17277e-05
5.03912e-05
5.03949e-05
5.93774e-05
5.04338e-05
5.0437e-05
1.49374e-05
1.61534e-05
1.61535e-05
1.81334e-05
1.80254e-05
1.61331e-05
1.61334e-05
1.80261e-05
1.61332e-05
1.61333e-05
1.6133e-05
1.61331e-05
1.80262e-05
1.61331e-05
1.61336e-05
1.80268e-05
1.81341e-05
1.85967e-05
1.61531e-05
1.61539e-05
1.62494e-05
1.62494e-05
1.81345e-05
1.85963e-05
1.61542e-05
1.61536e-05
1.62487e-05
1.62496e-05
1.61535e-05
1.62487e-05
1.62491e-05
1.81322e-05
1.85991e-05
1.6154e-05
1.62492e-05
1.62495e-05
1.85986e-05
1.50253e-05
1.50253e-05
1.50253e-05
1.50253e-05
5.35395e-05
7.00323e-05
5.29183e-05
7.00587e-05
6.96288e-05
6.96079e-05
5.35407e-05
7.00377e-05
5.29193e-05
7.00643e-05
1.49374e-05
1.49373e-05
1.49374e-05
1.46906e-05
1.46907e-05
1.46907e-05
1.46908e-05
2.93908e-05
4.52105e-05
1.49118e-05
1.61793e-05
2.88272e-05
4.56354e-05
1.48616e-05
6.96294e-05
6.96089e-05
2.93908e-05
1.49119e-05
4.52004e-05
1.61799e-05
2.88274e-05
1.48617e-05
4.56471e-05
5.90038e-05
5.90157e-05
1.82964e-05
5.9301e-05
5.93131e-05
6.96437e-05
6.96659e-05
6.96456e-05
6.96678e-05
1.78796e-05
5.89514e-05
5.89642e-05
5.86458e-05
5.86589e-05
5.21115e-05
7.00277e-05
7.00008e-05
5.279e-05
5.2113e-05
7.00329e-05
7.00058e-05
5.27913e-05
2.79784e-05
1.61179e-05
4.50018e-05
1.49645e-05
4.45635e-05
1.50231e-05
2.85392e-05
2.7979e-05
1.61185e-05
4.50142e-05
1.49646e-05
4.45623e-05
1.50232e-05
2.85399e-05
6.96452e-05
6.96676e-05
1.78795e-05
5.89625e-05
5.89507e-05
5.86599e-05
5.86484e-05
6.96433e-05
6.96657e-05
5.21141e-05
7.00333e-05
7.00062e-05
5.27913e-05
2.798e-05
1.61188e-05
4.50122e-05
1.49647e-05
4.45629e-05
1.50234e-05
2.85408e-05
5.2113e-05
7.00289e-05
7.00024e-05
5.27902e-05
2.79797e-05
1.61194e-05
1.49645e-05
4.50015e-05
1.50232e-05
4.45735e-05
2.85404e-05
2.79789e-05
1.61182e-05
4.50028e-05
1.49647e-05
4.4562e-05
1.50233e-05
2.85399e-05
5.21144e-05
7.00324e-05
7.00053e-05
5.27913e-05
2.79785e-05
1.61188e-05
1.49646e-05
4.50028e-05
1.50232e-05
4.45628e-05
2.85395e-05
5.21132e-05
7.00281e-05
7.00012e-05
5.27899e-05
6.96451e-05
6.96671e-05
1.78837e-05
5.89516e-05
5.8942e-05
5.86612e-05
5.86511e-05
6.96434e-05
6.96655e-05
2.79795e-05
1.61193e-05
1.49648e-05
4.50035e-05
1.50235e-05
4.45623e-05
2.85403e-05
2.798e-05
1.61193e-05
1.49649e-05
4.50082e-05
1.50235e-05
4.45671e-05
2.85409e-05
5.21144e-05
7.00282e-05
7.00013e-05
5.27901e-05
5.21156e-05
7.00333e-05
7.00062e-05
5.27914e-05
1.78827e-05
5.8944e-05
5.89561e-05
5.86508e-05
5.86634e-05
6.96434e-05
6.96655e-05
6.96455e-05
6.96676e-05
6.96273e-05
6.96062e-05
6.96292e-05
6.96082e-05
5.90086e-05
5.90206e-05
1.82965e-05
5.9291e-05
5.93045e-05
6.95704e-05
6.95905e-05
6.95723e-05
6.95926e-05
1.8416e-05
5.96213e-05
5.96289e-05
5.93462e-05
5.93592e-05
5.35406e-05
7.00373e-05
5.29195e-05
7.00638e-05
2.93907e-05
4.52132e-05
1.49116e-05
1.61797e-05
2.88267e-05
4.56343e-05
1.48614e-05
2.93913e-05
4.52098e-05
1.49117e-05
1.61798e-05
2.88274e-05
4.56468e-05
1.48615e-05
5.36574e-05
7.00875e-05
7.0063e-05
5.42295e-05
5.36586e-05
7.00927e-05
7.00679e-05
5.4231e-05
2.96791e-05
1.6211e-05
4.62455e-05
1.47754e-05
4.58331e-05
1.48171e-05
3.02443e-05
2.96797e-05
1.62119e-05
4.62576e-05
1.47755e-05
4.58312e-05
1.48173e-05
3.02455e-05
5.90191e-05
5.90076e-05
1.82959e-05
5.93045e-05
5.92927e-05
6.96269e-05
6.9606e-05
6.95721e-05
6.95924e-05
1.84154e-05
5.9631e-05
5.96186e-05
5.93595e-05
5.93476e-05
6.957e-05
6.95903e-05
2.93917e-05
4.52121e-05
1.49119e-05
1.61795e-05
2.88281e-05
4.5644e-05
1.48616e-05
5.354e-05
7.00336e-05
5.29182e-05
7.00605e-05
2.93914e-05
1.49116e-05
4.52114e-05
1.61802e-05
2.88275e-05
1.48614e-05
4.56421e-05
5.36589e-05
7.00932e-05
7.00685e-05
5.42311e-05
2.96807e-05
1.62122e-05
4.62539e-05
1.47756e-05
4.5833e-05
1.48174e-05
3.02455e-05
5.36579e-05
7.00887e-05
7.00647e-05
5.42299e-05
2.96802e-05
1.62125e-05
1.47754e-05
4.62469e-05
1.48172e-05
4.58417e-05
3.02453e-05
5.35406e-05
7.0037e-05
5.29192e-05
7.00632e-05
2.93903e-05
1.49117e-05
4.52029e-05
1.61799e-05
2.88265e-05
1.48615e-05
4.56443e-05
5.35395e-05
7.00326e-05
5.29179e-05
7.00596e-05
2.96795e-05
1.62112e-05
4.62463e-05
1.47756e-05
4.58311e-05
1.48174e-05
3.02448e-05
5.36589e-05
7.00922e-05
7.00675e-05
5.42314e-05
2.9679e-05
1.6212e-05
1.47755e-05
4.62484e-05
1.48172e-05
4.58323e-05
3.02444e-05
5.36578e-05
7.00881e-05
7.00636e-05
5.423e-05
5.90117e-05
5.90022e-05
1.82955e-05
5.93109e-05
5.93023e-05
6.96279e-05
6.96071e-05
6.95718e-05
6.95926e-05
1.84175e-05
5.96226e-05
5.96125e-05
5.93644e-05
5.93553e-05
6.957e-05
6.95909e-05
2.93914e-05
1.4912e-05
4.52072e-05
1.61804e-05
2.8828e-05
1.48618e-05
4.56499e-05
5.35396e-05
7.00328e-05
5.29178e-05
7.00597e-05
5.35408e-05
7.00378e-05
5.29191e-05
7.00644e-05
2.96798e-05
1.62122e-05
1.47758e-05
4.62495e-05
1.48175e-05
4.58317e-05
3.02451e-05
2.96805e-05
1.62125e-05
1.47758e-05
4.6254e-05
1.48176e-05
4.58363e-05
3.02458e-05
5.36579e-05
7.00883e-05
7.00637e-05
5.42305e-05
5.36591e-05
7.00932e-05
7.00685e-05
5.42318e-05
6.96277e-05
6.96069e-05
6.96298e-05
6.9609e-05
1.84178e-05
5.96143e-05
5.96265e-05
5.93543e-05
5.93662e-05
6.957e-05
6.95908e-05
6.95722e-05
6.95929e-05
6.98356e-05
5.32954e-05
6.91622e-05
5.95548e-05
6.91454e-05
5.9377e-05
6.98459e-05
7.09894e-05
7.39969e-05
7.00435e-05
7.09904e-05
7.40713e-05
6.98333e-05
5.31726e-05
6.91229e-05
5.91026e-05
6.98227e-05
6.91392e-05
5.92887e-05
7.09703e-05
7.41712e-05
7.0048e-05
7.41004e-05
7.09691e-05
6.96262e-05
6.96104e-05
6.98368e-05
5.32964e-05
5.95587e-05
6.91627e-05
5.93808e-05
6.91459e-05
6.98472e-05
7.09909e-05
7.4017e-05
7.0049e-05
7.09922e-05
7.40915e-05
6.98345e-05
5.31734e-05
5.91072e-05
6.91233e-05
6.98239e-05
5.92925e-05
6.91397e-05
7.09721e-05
7.41913e-05
7.00534e-05
7.41203e-05
7.09706e-05
6.96272e-05
6.96114e-05
8.75499e-05
7.24271e-05
7.24212e-05
7.24334e-05
7.24275e-05
8.7626e-05
5.70994e-05
3.89458e-05
6.87896e-05
5.91263e-05
5.68704e-05
3.91895e-05
6.88225e-05
5.71657e-05
3.89646e-05
6.88018e-05
5.91382e-05
5.6938e-05
3.92083e-05
6.88348e-05
8.74501e-05
7.2441e-05
7.24352e-05
8.72463e-05
7.24455e-05
7.24396e-05
5.72396e-05
6.886e-05
5.91846e-05
3.96006e-05
3.93708e-05
6.88348e-05
5.74191e-05
5.73068e-05
6.88723e-05
5.91964e-05
3.96192e-05
3.93897e-05
6.88471e-05
5.74847e-05
6.96465e-05
6.96632e-05
6.96484e-05
6.9665e-05
8.72233e-05
7.24896e-05
7.24831e-05
8.71061e-05
7.24869e-05
7.24806e-05
5.66274e-05
3.88024e-05
5.88316e-05
6.87794e-05
6.87536e-05
3.85768e-05
5.67989e-05
5.66966e-05
3.88162e-05
5.88445e-05
6.8792e-05
6.8766e-05
3.85992e-05
5.68624e-05
5.65108e-05
6.87129e-05
3.81715e-05
5.87715e-05
5.63183e-05
6.87418e-05
3.84041e-05
5.65759e-05
6.87253e-05
3.81927e-05
5.87851e-05
5.63859e-05
6.87544e-05
3.84199e-05
8.72624e-05
7.24612e-05
7.24549e-05
7.24668e-05
7.24604e-05
8.73326e-05
6.98069e-05
6.90804e-05
5.85165e-05
5.23896e-05
6.97959e-05
6.90955e-05
5.8719e-05
7.10105e-05
7.00166e-05
7.39666e-05
7.10095e-05
7.3891e-05
7.10299e-05
7.37806e-05
7.0012e-05
7.10311e-05
7.386e-05
6.98094e-05
5.2524e-05
6.91169e-05
5.901e-05
6.98203e-05
6.91012e-05
5.88158e-05
6.98085e-05
6.90809e-05
5.85218e-05
5.23911e-05
6.97975e-05
6.9096e-05
5.8725e-05
7.10125e-05
7.00217e-05
7.39894e-05
7.39132e-05
7.10111e-05
7.10315e-05
7.38015e-05
7.00173e-05
7.1033e-05
7.3882e-05
6.9811e-05
5.25254e-05
6.91174e-05
5.9016e-05
6.91017e-05
5.88217e-05
6.98218e-05
6.9648e-05
6.96646e-05
8.72465e-05
7.24884e-05
7.24935e-05
8.71781e-05
7.24814e-05
7.24865e-05
5.66825e-05
3.88154e-05
5.88437e-05
6.87898e-05
3.85946e-05
6.87646e-05
5.68535e-05
5.6617e-05
3.87953e-05
5.8832e-05
6.87777e-05
6.87526e-05
3.85767e-05
5.6787e-05
5.65899e-05
6.87272e-05
3.81992e-05
5.87848e-05
3.84276e-05
5.64049e-05
6.87538e-05
5.65233e-05
6.87153e-05
3.8181e-05
5.87731e-05
5.63391e-05
6.87418e-05
3.84071e-05
8.72625e-05
7.24495e-05
7.24545e-05
7.24555e-05
7.24605e-05
8.72968e-05
6.96461e-05
6.96628e-05
6.98082e-05
5.85214e-05
6.90809e-05
5.23915e-05
6.97973e-05
5.87245e-05
6.90959e-05
7.10124e-05
7.0022e-05
7.3987e-05
7.1011e-05
7.39113e-05
7.10314e-05
7.38003e-05
7.00176e-05
7.1033e-05
7.38804e-05
6.98107e-05
5.25256e-05
5.90151e-05
6.91173e-05
6.98215e-05
5.88212e-05
6.91016e-05
6.9807e-05
6.90804e-05
5.85172e-05
5.23905e-05
6.97961e-05
6.90955e-05
5.87199e-05
7.10101e-05
7.00179e-05
7.39664e-05
7.3891e-05
7.10092e-05
7.10296e-05
7.37806e-05
7.00134e-05
7.10307e-05
7.386e-05
6.98094e-05
5.25245e-05
6.91169e-05
5.90101e-05
6.91011e-05
5.88164e-05
6.98203e-05
6.98081e-05
5.85209e-05
6.9081e-05
5.23921e-05
6.97971e-05
5.87246e-05
6.9096e-05
7.10122e-05
7.00213e-05
7.3987e-05
7.39108e-05
7.10109e-05
7.10313e-05
7.37987e-05
7.00167e-05
7.10327e-05
7.38794e-05
6.98105e-05
5.25261e-05
5.90152e-05
6.91173e-05
5.88214e-05
6.91016e-05
6.98213e-05
6.98067e-05
6.90805e-05
5.85167e-05
5.23908e-05
6.97957e-05
6.90954e-05
5.87199e-05
7.10099e-05
7.00168e-05
7.39665e-05
7.38905e-05
7.10086e-05
7.10289e-05
7.3779e-05
7.00124e-05
7.10304e-05
7.38592e-05
6.98091e-05
5.25247e-05
6.91168e-05
5.90101e-05
6.91011e-05
5.88166e-05
6.982e-05
6.96475e-05
6.96641e-05
8.71195e-05
7.24665e-05
7.24722e-05
8.7145e-05
7.24586e-05
7.24642e-05
5.65771e-05
3.87742e-05
5.88338e-05
6.87854e-05
3.85542e-05
6.87546e-05
5.67617e-05
5.65101e-05
3.87565e-05
5.88239e-05
6.87735e-05
6.87428e-05
3.85339e-05
5.66959e-05
5.64959e-05
6.87223e-05
3.82086e-05
5.87768e-05
3.84011e-05
5.63942e-05
6.87426e-05
5.64275e-05
6.87105e-05
3.81886e-05
5.87669e-05
5.63262e-05
6.87307e-05
3.8383e-05
8.71051e-05
7.24423e-05
7.24479e-05
7.24389e-05
7.24446e-05
8.71309e-05
6.96459e-05
6.96624e-05
6.98066e-05
5.85168e-05
6.90804e-05
5.23917e-05
6.97956e-05
5.87204e-05
6.90954e-05
7.10103e-05
7.0017e-05
7.39671e-05
7.38909e-05
7.1009e-05
7.10294e-05
7.37786e-05
7.00126e-05
7.10308e-05
7.38595e-05
6.9809e-05
5.25253e-05
5.90103e-05
6.91167e-05
5.88171e-05
6.9101e-05
6.98198e-05
6.9808e-05
5.85213e-05
6.90809e-05
5.2393e-05
6.97971e-05
5.87253e-05
6.90959e-05
7.10121e-05
7.0022e-05
7.39874e-05
7.39104e-05
7.10107e-05
7.1031e-05
7.37975e-05
7.00175e-05
7.10324e-05
7.38788e-05
6.98105e-05
5.25266e-05
5.90157e-05
6.91172e-05
5.8822e-05
6.91015e-05
6.98212e-05
8.7139e-05
7.24753e-05
7.24695e-05
8.71543e-05
7.24671e-05
7.24612e-05
5.65298e-05
3.87651e-05
5.88252e-05
6.87744e-05
5.67118e-05
3.85419e-05
6.87445e-05
5.65957e-05
3.87839e-05
5.88375e-05
6.87867e-05
5.67786e-05
3.85608e-05
6.87566e-05
5.6448e-05
6.87117e-05
3.81883e-05
5.87677e-05
5.63326e-05
3.83885e-05
6.87327e-05
5.65125e-05
6.87238e-05
3.82069e-05
5.87803e-05
5.63971e-05
3.84073e-05
6.87449e-05
8.71268e-05
7.2448e-05
7.24421e-05
8.71492e-05
7.24459e-05
7.24401e-05
6.96459e-05
6.96624e-05
6.9648e-05
6.96645e-05
6.96246e-05
6.96086e-05
6.96266e-05
6.96106e-05
8.74236e-05
7.24127e-05
7.24065e-05
7.24145e-05
7.2408e-05
8.74938e-05
5.70644e-05
3.8963e-05
6.87904e-05
5.91229e-05
5.68985e-05
6.88156e-05
3.9186e-05
5.71258e-05
3.89871e-05
6.88028e-05
5.91357e-05
5.69688e-05
6.88282e-05
3.91976e-05
8.73989e-05
7.24382e-05
7.24317e-05
8.73529e-05
7.24336e-05
7.24274e-05
5.71674e-05
6.88537e-05
5.91786e-05
3.95719e-05
6.88271e-05
5.73479e-05
3.93418e-05
5.72403e-05
6.88663e-05
5.91908e-05
3.95802e-05
6.88396e-05
5.74052e-05
3.93687e-05
6.95725e-05
6.95882e-05
6.95748e-05
6.95903e-05
8.76355e-05
7.23977e-05
7.23912e-05
8.75361e-05
7.23961e-05
7.23899e-05
5.77385e-05
4.03506e-05
5.95116e-05
6.89268e-05
6.89022e-05
4.01117e-05
5.79402e-05
5.7824e-05
4.03424e-05
5.95237e-05
6.89379e-05
6.89149e-05
4.01444e-05
5.7959e-05
5.76487e-05
6.88654e-05
3.97267e-05
5.94577e-05
5.74561e-05
6.88919e-05
3.99639e-05
5.76972e-05
6.8878e-05
3.97572e-05
5.94712e-05
5.75346e-05
6.89041e-05
3.99677e-05
8.76785e-05
7.23753e-05
7.23686e-05
7.23791e-05
7.23729e-05
8.77551e-05
6.98371e-05
5.32966e-05
6.91627e-05
5.95598e-05
6.91459e-05
5.9382e-05
6.98474e-05
7.09909e-05
7.40195e-05
7.00485e-05
7.09923e-05
7.40936e-05
6.98348e-05
5.31737e-05
6.91234e-05
5.91082e-05
6.91397e-05
6.98242e-05
5.92939e-05
7.09722e-05
7.41928e-05
7.00528e-05
7.41222e-05
7.09706e-05
6.98581e-05
6.91686e-05
5.96389e-05
5.38922e-05
6.98481e-05
6.91855e-05
5.9809e-05
7.09287e-05
7.00774e-05
7.43487e-05
7.42872e-05
7.09273e-05
7.09482e-05
7.41975e-05
7.00733e-05
7.09497e-05
7.42626e-05
6.986e-05
5.40049e-05
6.92088e-05
6.00523e-05
6.91919e-05
5.98896e-05
6.98696e-05
6.98596e-05
6.91691e-05
5.96439e-05
5.38936e-05
6.98496e-05
6.9186e-05
5.98145e-05
7.0931e-05
7.00824e-05
7.43722e-05
7.43095e-05
7.09294e-05
7.095e-05
7.42191e-05
7.00785e-05
7.09517e-05
7.4285e-05
6.98616e-05
5.40063e-05
6.92093e-05
6.00584e-05
6.91924e-05
5.9895e-05
6.98711e-05
8.74069e-05
7.24096e-05
7.24147e-05
7.24103e-05
7.24153e-05
8.75078e-05
5.71255e-05
3.89769e-05
6.88011e-05
5.91345e-05
6.88277e-05
5.69446e-05
3.91986e-05
5.70591e-05
3.89593e-05
6.87891e-05
5.9123e-05
3.91786e-05
5.6879e-05
6.88156e-05
8.73675e-05
7.24278e-05
7.24328e-05
7.24255e-05
8.73128e-05
7.24306e-05
5.72305e-05
6.88671e-05
5.91903e-05
3.95882e-05
6.88397e-05
3.9362e-05
5.74227e-05
5.71648e-05
6.88549e-05
5.9179e-05
3.95681e-05
3.93443e-05
6.88276e-05
5.73565e-05
6.96243e-05
6.96084e-05
6.95745e-05
6.959e-05
8.76563e-05
7.23947e-05
7.23997e-05
8.75572e-05
7.23917e-05
7.23967e-05
5.78111e-05
4.03553e-05
5.95241e-05
6.89375e-05
4.0137e-05
6.89144e-05
5.79773e-05
5.77457e-05
4.03354e-05
5.95118e-05
6.89252e-05
6.89022e-05
4.01194e-05
5.79114e-05
5.77163e-05
6.88786e-05
3.97528e-05
5.94714e-05
3.99786e-05
5.75316e-05
6.89043e-05
5.76504e-05
6.88664e-05
3.9735e-05
5.94588e-05
5.7466e-05
6.8892e-05
3.99586e-05
8.76869e-05
7.2367e-05
7.23721e-05
7.23719e-05
7.2377e-05
8.7747e-05
6.95724e-05
6.95879e-05
6.98357e-05
5.32955e-05
6.91623e-05
5.95547e-05
6.91455e-05
5.93765e-05
6.9846e-05
7.09892e-05
7.39967e-05
7.0045e-05
7.099e-05
7.4071e-05
6.98334e-05
5.31726e-05
6.91229e-05
5.91023e-05
6.91393e-05
6.98227e-05
5.92881e-05
7.09699e-05
7.41708e-05
7.00496e-05
7.41001e-05
7.09688e-05
6.98594e-05
5.96432e-05
6.91691e-05
5.38938e-05
6.98494e-05
5.98139e-05
6.9186e-05
7.0931e-05
7.0083e-05
7.43704e-05
7.43078e-05
7.09293e-05
7.095e-05
7.42176e-05
7.0079e-05
7.09516e-05
7.42835e-05
6.98614e-05
5.40066e-05
6.00577e-05
6.92093e-05
5.98944e-05
6.91924e-05
6.98709e-05
6.98581e-05
6.91686e-05
5.96391e-05
5.38928e-05
6.98482e-05
6.91856e-05
5.98095e-05
7.09284e-05
7.00788e-05
7.43485e-05
7.42869e-05
7.09272e-05
7.0948e-05
7.41973e-05
7.00749e-05
7.09492e-05
7.42625e-05
6.986e-05
5.40056e-05
6.92088e-05
6.00526e-05
6.91919e-05
5.98899e-05
6.98696e-05
6.98366e-05
5.3296e-05
5.95582e-05
6.91627e-05
5.93805e-05
6.91459e-05
6.9847e-05
7.09907e-05
7.4017e-05
7.0048e-05
7.4091e-05
7.0992e-05
6.98343e-05
5.31731e-05
5.91073e-05
6.91233e-05
5.92924e-05
6.98237e-05
6.91396e-05
7.09718e-05
7.41899e-05
7.00525e-05
7.41195e-05
7.09703e-05
6.98353e-05
5.32948e-05
6.91622e-05
5.9554e-05
6.91454e-05
5.9376e-05
6.98457e-05
7.09885e-05
7.39967e-05
7.00441e-05
7.09898e-05
7.40708e-05
6.9833e-05
5.31718e-05
6.91228e-05
5.91023e-05
6.98224e-05
6.91391e-05
5.92876e-05
7.09697e-05
7.41702e-05
7.00485e-05
7.40996e-05
7.09682e-05
6.98592e-05
5.96428e-05
6.91691e-05
5.38942e-05
6.98492e-05
5.98135e-05
6.91861e-05
7.09307e-05
7.00821e-05
7.43697e-05
7.43067e-05
7.09291e-05
7.09497e-05
7.42161e-05
7.00779e-05
7.09513e-05
7.42821e-05
6.98612e-05
5.40071e-05
6.00577e-05
6.92093e-05
5.98943e-05
6.91924e-05
6.98707e-05
6.98579e-05
6.91686e-05
5.96386e-05
5.3893e-05
6.98478e-05
6.91855e-05
5.98093e-05
7.09285e-05
7.00779e-05
7.43496e-05
7.42871e-05
7.09269e-05
7.09475e-05
7.41967e-05
7.0074e-05
7.09491e-05
7.42626e-05
6.98598e-05
5.40059e-05
6.92087e-05
6.00529e-05
6.91919e-05
5.98899e-05
6.98694e-05
8.75676e-05
7.24224e-05
7.2428e-05
7.24295e-05
7.24352e-05
8.76344e-05
5.7171e-05
3.89606e-05
6.88012e-05
5.91347e-05
6.88355e-05
5.69346e-05
3.92056e-05
5.71048e-05
3.89406e-05
6.87895e-05
5.91258e-05
3.91888e-05
5.68695e-05
6.88236e-05
8.74657e-05
7.24367e-05
7.24424e-05
7.24419e-05
8.72479e-05
7.24476e-05
5.73194e-05
6.8873e-05
5.91938e-05
3.96231e-05
6.88479e-05
3.93941e-05
5.74957e-05
5.72536e-05
6.88611e-05
5.91847e-05
3.96064e-05
3.93743e-05
6.88361e-05
5.7429e-05
6.96255e-05
6.96098e-05
6.95741e-05
6.959e-05
8.76409e-05
7.23915e-05
7.23972e-05
8.7639e-05
7.23818e-05
7.23875e-05
5.77748e-05
4.03294e-05
5.95206e-05
6.8931e-05
4.01255e-05
6.89086e-05
5.79075e-05
5.77077e-05
4.03124e-05
5.95105e-05
6.8919e-05
6.88966e-05
4.01051e-05
5.78411e-05
5.77085e-05
6.88811e-05
3.97818e-05
5.94705e-05
3.9984e-05
5.75815e-05
6.89e-05
5.76412e-05
6.88692e-05
3.97616e-05
5.9461e-05
5.75146e-05
6.8888e-05
3.99669e-05
8.76291e-05
7.23526e-05
7.23582e-05
7.23551e-05
7.23607e-05
8.76315e-05
6.95723e-05
6.95882e-05
6.98351e-05
5.32946e-05
5.95533e-05
6.91622e-05
5.93752e-05
6.91453e-05
6.98455e-05
7.09888e-05
7.39971e-05
7.00442e-05
7.40707e-05
7.09902e-05
6.98328e-05
5.31716e-05
5.91022e-05
6.91227e-05
5.92869e-05
6.98222e-05
6.91391e-05
7.09699e-05
7.41696e-05
7.00486e-05
7.40993e-05
7.09684e-05
6.98365e-05
5.32958e-05
5.95581e-05
6.91627e-05
5.93803e-05
6.91458e-05
6.98469e-05
7.09905e-05
7.40173e-05
7.00492e-05
7.09919e-05
7.4091e-05
6.98342e-05
5.31729e-05
5.91075e-05
6.91232e-05
6.98236e-05
5.92924e-05
6.91396e-05
7.09715e-05
7.41889e-05
7.00535e-05
7.41191e-05
7.097e-05
6.98577e-05
5.9638e-05
6.91685e-05
5.38934e-05
6.98477e-05
5.98091e-05
6.91855e-05
7.09289e-05
7.0078e-05
7.43499e-05
7.42869e-05
7.09273e-05
7.09479e-05
7.4196e-05
7.00741e-05
7.09494e-05
7.42622e-05
6.98597e-05
5.40062e-05
6.0053e-05
6.92087e-05
5.98898e-05
6.91918e-05
6.98692e-05
6.98591e-05
5.96426e-05
6.9169e-05
5.38946e-05
6.98491e-05
5.98137e-05
6.9186e-05
7.09306e-05
7.00828e-05
7.43695e-05
7.43059e-05
7.0929e-05
7.09494e-05
7.4215e-05
7.00789e-05
7.0951e-05
7.42812e-05
6.98611e-05
5.40074e-05
6.0058e-05
6.92092e-05
5.98944e-05
6.91923e-05
6.98707e-05
6.96253e-05
6.96096e-05
6.96274e-05
6.96117e-05
8.76427e-05
7.23981e-05
7.23922e-05
8.76358e-05
7.23886e-05
7.23827e-05
5.77137e-05
4.03157e-05
5.95111e-05
6.89198e-05
4.01068e-05
6.88973e-05
5.78526e-05
5.77781e-05
4.03341e-05
5.95231e-05
6.89321e-05
4.01253e-05
6.89095e-05
5.79171e-05
5.76439e-05
6.88686e-05
3.97569e-05
5.94608e-05
5.75067e-05
3.99649e-05
6.88885e-05
5.7708e-05
6.88808e-05
3.97754e-05
5.94729e-05
5.75722e-05
3.99832e-05
6.89007e-05
8.76349e-05
7.23586e-05
7.23527e-05
7.23617e-05
7.23559e-05
8.76392e-05
6.95724e-05
6.95881e-05
6.95745e-05
6.95903e-05
1.50515e-05
1.50517e-05
1.48521e-05
1.49439e-05
1.49441e-05
1.52981e-05
1.54159e-05
3.78851e-05
2.49344e-05
2.49395e-05
1.81566e-05
3.77362e-05
2.50261e-05
2.5031e-05
3.73622e-05
1.80031e-05
2.47215e-05
2.47266e-05
2.46324e-05
2.46375e-05
3.74949e-05
3.73665e-05
1.8004e-05
2.47274e-05
2.47234e-05
2.46393e-05
2.46355e-05
3.74958e-05
3.73251e-05
1.80054e-05
2.47182e-05
2.47146e-05
2.4634e-05
2.46301e-05
3.74505e-05
3.73359e-05
1.80056e-05
2.47176e-05
2.47223e-05
3.74619e-05
2.46322e-05
2.46371e-05
3.79e-05
2.49434e-05
2.49486e-05
1.81577e-05
3.77721e-05
2.50325e-05
2.50377e-05
3.89796e-05
1.85686e-05
2.59999e-05
2.5991e-05
2.58956e-05
2.59072e-05
3.91086e-05
3.7894e-05
2.49472e-05
2.49433e-05
1.81577e-05
2.50317e-05
3.77658e-05
2.50357e-05
3.89816e-05
1.85682e-05
2.59971e-05
2.59929e-05
2.59035e-05
2.58993e-05
3.91084e-05
3.78826e-05
2.49346e-05
2.49307e-05
1.81553e-05
2.50231e-05
3.77256e-05
2.50267e-05
3.89791e-05
1.85715e-05
2.59993e-05
2.59953e-05
2.59095e-05
2.59052e-05
3.90957e-05
3.89792e-05
1.85711e-05
2.59942e-05
2.59994e-05
2.59036e-05
2.59091e-05
3.90971e-05
1.51164e-05
1.51612e-05
1.51614e-05
1.52734e-05
1.52736e-05
1.56566e-05
1.55353e-05
1.51164e-05
1.51612e-05
1.51615e-05
1.52734e-05
1.52737e-05
1.56566e-05
1.55354e-05
1.51165e-05
1.51611e-05
1.51614e-05
1.52733e-05
1.52736e-05
1.56565e-05
1.55352e-05
1.51165e-05
1.51612e-05
1.51614e-05
1.52734e-05
1.52737e-05
1.56565e-05
1.55353e-05
1.50515e-05
1.50518e-05
1.48521e-05
1.49439e-05
1.49442e-05
1.52981e-05
1.54159e-05
1.50514e-05
1.50517e-05
1.48521e-05
1.49438e-05
1.49441e-05
1.5298e-05
1.54158e-05
1.50515e-05
1.50518e-05
1.48522e-05
1.49439e-05
1.49441e-05
1.5298e-05
1.54158e-05
1.47701e-05
1.47357e-05
1.47359e-05
1.48388e-05
1.4839e-05
1.5182e-05
1.50676e-05
1.47701e-05
1.47357e-05
1.47359e-05
1.48388e-05
1.4839e-05
1.5182e-05
1.50676e-05
1.47701e-05
1.47356e-05
1.47359e-05
1.48387e-05
1.4839e-05
1.51819e-05
1.50675e-05
1.47702e-05
1.47357e-05
1.4736e-05
1.48388e-05
1.4839e-05
1.51819e-05
1.50675e-05
1.96431e-05
2.92527e-05
3.35754e-05
1.80457e-05
3.34417e-05
1.80053e-05
1.96868e-05
2.24241e-05
2.76393e-05
3.95955e-05
4.53221e-05
2.23623e-05
2.77443e-05
3.97126e-05
1.94926e-05
2.89648e-05
3.30199e-05
1.78511e-05
1.94506e-05
3.31544e-05
1.78893e-05
2.26195e-05
4.00888e-05
4.55233e-05
2.80893e-05
2.7983e-05
3.99732e-05
2.26827e-05
1.96428e-05
2.92528e-05
1.8046e-05
3.35731e-05
1.80057e-05
3.34391e-05
1.96866e-05
2.24224e-05
2.76325e-05
3.95883e-05
4.5327e-05
2.23606e-05
2.774e-05
3.97056e-05
1.94925e-05
2.89648e-05
1.78515e-05
3.30176e-05
1.94505e-05
1.78896e-05
3.31519e-05
2.26178e-05
4.00836e-05
4.55209e-05
2.80938e-05
2.79844e-05
3.99668e-05
2.26818e-05
3.81878e-05
1.82706e-05
2.5351e-05
2.5356e-05
2.52563e-05
2.52616e-05
3.83306e-05
3.70724e-05
1.79002e-05
2.43232e-05
2.43282e-05
3.69341e-05
2.44116e-05
2.44166e-05
1.91257e-05
3.21669e-05
1.75669e-05
2.81154e-05
1.90869e-05
3.23033e-05
1.76007e-05
2.21096e-05
2.74035e-05
4.48926e-05
3.9327e-05
2.72981e-05
3.92074e-05
2.21706e-05
2.19233e-05
3.88187e-05
2.69554e-05
4.46732e-05
2.70605e-05
2.18638e-05
3.894e-05
1.92645e-05
2.84017e-05
3.27289e-05
1.77407e-05
3.2593e-05
1.77048e-05
1.93051e-05
1.91271e-05
3.21703e-05
1.75671e-05
2.81161e-05
1.90882e-05
3.2307e-05
1.7601e-05
2.21133e-05