/*--------------------------------*- C++ -*----------------------------------*\
| =========                 |                                                 |
| \\      /  F ield         | OpenFOAM: The Open Source CFD Toolbox           |
|  \\    /   O peration     | Version:  v1906                                 |
|   \\  /    A nd           | Web:      www.OpenFOAM.com                      |
|    \\/     M anipulation  |                                                 |
\*---------------------------------------------------------------------------*/
FoamFile
{
    version     2.0;
    format      ascii;
    class       volScalarField;
    location    "250";
    object      p;
}
// * * * * * * * * * * * * * * * * * * * * * * * * * * * * * * * * * * * * * //

dimensions      [0 2 -2 0 0 0 0];


internalField   nonuniform List<scalar> 
42840
(
0.0016502
0.00165008
0.00165008
0.00165214
0.0016145
0.00161445
0.00161445
0.00161653
0.00157848
0.00157828
0.00157828
0.00158033
0.00154321
0.00154318
0.00154318
0.00154519
0.00150702
0.00150682
0.00150682
0.00150892
0.00147253
0.00147223
0.00147223
0.00147388
0.00144165
0.00144137
0.00144138
0.0014433
0.00140025
0.00140006
0.00140006
0.00140242
0.00135909
0.00135962
0.00135962
0.001362
0.00132744
0.00132756
0.00132756
0.0013294
0.00130008
0.00129926
0.00129926
0.00130055
0.00127128
0.00127024
0.00127024
0.00127154
0.00123931
0.00123865
0.00123866
0.00124028
0.00120447
0.00120421
0.00120421
0.00120613
0.00116823
0.00116817
0.00116817
0.00117022
0.00113162
0.00113161
0.00113161
0.00113371
0.00109503
0.00109501
0.00109501
0.0010971
0.00105849
0.00105845
0.00105845
0.00106053
0.00102194
0.00102191
0.00102191
0.00102399
0.000985385
0.000985356
0.000985356
0.000987442
0.000948817
0.00094879
0.000948789
0.000950876
0.000912244
0.000912217
0.000912217
0.000914304
0.000875666
0.000875638
0.000875639
0.000877727
0.000839086
0.000839059
0.000839059
0.000841146
0.000802505
0.000802477
0.000802477
0.000804564
0.000765926
0.000765899
0.000765899
0.000767987
0.00165696
0.0016591
0.0016591
0.00165697
0.0016591
0.0016591
0.0016591
0.0016591
0.00165697
0.0016591
0.0016591
0.00165697
0.00165214
0.00162132
0.00165008
0.00165008
0.00162333
0.00162332
0.00165214
0.00162131
0.00165008
0.00165008
0.00162333
0.00162332
0.00165008
0.00162332
0.00162331
0.00165214
0.00162132
0.00165008
0.00162332
0.00162331
0.00162131
0.00161654
0.00158518
0.00161445
0.00161445
0.00158737
0.00158739
0.00161654
0.00158519
0.00161445
0.00161445
0.00158737
0.00158737
0.00161444
0.00158738
0.0015874
0.00161654
0.00158518
0.00161444
0.00158739
0.00158741
0.0015852
0.00158031
0.00154983
0.00157828
0.00157829
0.00155178
0.00155177
0.00158032
0.00154982
0.00157828
0.00157827
0.00155178
0.00155178
0.00157829
0.00155177
0.00155176
0.00158031
0.00154983
0.0015783
0.00155177
0.00155176
0.00154981
0.00154522
0.00151401
0.00154319
0.00154318
0.00151628
0.0015163
0.00154521
0.00151402
0.00154319
0.00154319
0.00151629
0.00151628
0.00154317
0.00151629
0.00151631
0.00154521
0.00151402
0.00154317
0.0015163
0.00151631
0.00151404
0.0015089
0.00147802
0.00150681
0.00150682
0.00147997
0.00147996
0.00150891
0.00147802
0.00150681
0.00150681
0.00147996
0.00147997
0.00150683
0.00147997
0.00147995
0.00150891
0.00147802
0.00150683
0.00147996
0.00147995
0.001478
0.00147389
0.00144804
0.00147223
0.00147223
0.00145007
0.00145007
0.00147389
0.00144804
0.00147223
0.00147223
0.00145007
0.00145007
0.00147222
0.00145006
0.00145009
0.00147389
0.00144804
0.00147222
0.00145008
0.00145009
0.00144806
0.00144328
0.00140844
0.00144137
0.00144137
0.00141111
0.0014111
0.00144328
0.00140843
0.00144137
0.00144137
0.00141111
0.00141111
0.00144139
0.0014111
0.0014111
0.00144329
0.00140844
0.00144139
0.00141111
0.0014111
0.00140843
0.00140243
0.00136692
0.00140007
0.00140006
0.00136872
0.00136873
0.00140242
0.00136693
0.00140007
0.00140007
0.00136873
0.00136872
0.00140006
0.00136874
0.00136873
0.00140243
0.00136693
0.00140006
0.00136873
0.00136873
0.00136693
0.00136199
0.00133344
0.00135961
0.00135962
0.00133503
0.00133503
0.001362
0.00133344
0.00135961
0.00135961
0.00133503
0.00133503
0.00135962
0.00133503
0.00133503
0.00136199
0.00133344
0.00135962
0.00133503
0.00133504
0.00133344
0.0013294
0.00130444
0.00132756
0.00132755
0.00130639
0.00130638
0.0013294
0.00130444
0.00132756
0.00132756
0.00130639
0.00130639
0.00132756
0.00130638
0.00130638
0.0013294
0.00130444
0.00132756
0.00130639
0.00130638
0.00130444
0.00130055
0.00127553
0.00129926
0.00129926
0.00127765
0.00127765
0.00130055
0.00127553
0.00129926
0.00129926
0.00127765
0.00127765
0.00129926
0.00127765
0.00127765
0.00130055
0.00127553
0.00129926
0.00127765
0.00127765
0.00127553
0.00127154
0.00124472
0.00127024
0.00127024
0.00124684
0.00124684
0.00127154
0.00124472
0.00127024
0.00127024
0.00124685
0.00124685
0.00127024
0.00124685
0.00124684
0.00127154
0.00124472
0.00127024
0.00124685
0.00124685
0.00124472
0.00124028
0.00121093
0.00123865
0.00123865
0.00121303
0.00121303
0.00124028
0.00121093
0.00123865
0.00123865
0.00121303
0.00121303
0.00123865
0.00121303
0.00121303
0.00124028
0.00121093
0.00123865
0.00121303
0.00121303
0.00121093
0.00120613
0.00117518
0.00120421
0.00120421
0.00117727
0.00117727
0.00120613
0.00117518
0.00120421
0.00120421
0.00117727
0.00117727
0.00120421
0.00117727
0.00117727
0.00120613
0.00117518
0.00120421
0.00117727
0.00117727
0.00117518
0.00117022
0.0011387
0.00116817
0.00116817
0.00114076
0.00114076
0.00117022
0.0011387
0.00116817
0.00116817
0.00114076
0.00114076
0.00116817
0.00114076
0.00114076
0.00117022
0.0011387
0.00116817
0.00114076
0.00114076
0.0011387
0.00113371
0.00110208
0.00113161
0.00113161
0.00110415
0.00110415
0.00113371
0.00110208
0.00113161
0.00113161
0.00110415
0.00110415
0.00113161
0.00110415
0.00110415
0.00113371
0.00110208
0.00113161
0.00110415
0.00110415
0.00110208
0.0010971
0.00106551
0.00109501
0.00109501
0.00106759
0.00106759
0.0010971
0.00106551
0.00109501
0.00109501
0.00106759
0.00106759
0.00109501
0.00106759
0.00106759
0.0010971
0.00106551
0.00109501
0.00106759
0.00106759
0.00106551
0.00106053
0.00102897
0.00105845
0.00105845
0.00103104
0.00103104
0.00106053
0.00102897
0.00105845
0.00105845
0.00103104
0.00103104
0.00105845
0.00103104
0.00103104
0.00106053
0.00102897
0.00105845
0.00103104
0.00103104
0.00102897
0.00102399
0.000992422
0.00102191
0.00102191
0.000994496
0.000994496
0.00102399
0.000992422
0.00102191
0.00102191
0.000994496
0.000994496
0.00102191
0.000994496
0.000994496
0.00102399
0.000992422
0.00102191
0.000994496
0.000994496
0.000992422
0.000987442
0.000955858
0.000985356
0.000985356
0.000957932
0.000957933
0.000987442
0.000955858
0.000985356
0.000985356
0.000957932
0.000957933
0.000985356
0.000957933
0.000957933
0.000987442
0.000955857
0.000985356
0.000957932
0.000957933
0.000955858
0.000950876
0.000919286
0.00094879
0.00094879
0.000921361
0.000921361
0.000950876
0.000919286
0.000948789
0.00094879
0.000921361
0.000921361
0.00094879
0.000921361
0.000921361
0.000950876
0.000919286
0.00094879
0.000921361
0.000921361
0.000919286
0.000914304
0.000882709
0.000912218
0.000912217
0.000884782
0.000884782
0.000914303
0.000882709
0.000912217
0.000912217
0.000884782
0.000884782
0.000912217
0.000884782
0.000884782
0.000914304
0.000882709
0.000912217
0.000884783
0.000884783
0.000882709
0.000877727
0.000846128
0.000875638
0.000875638
0.000848204
0.000848204
0.000877726
0.000846129
0.000875638
0.000875638
0.000848204
0.000848204
0.000875638
0.000848204
0.000848204
0.000877727
0.000846128
0.000875639
0.000848204
0.000848204
0.000846128
0.000841146
0.000809548
0.000839059
0.000839059
0.000811623
0.000811622
0.000841146
0.000809548
0.000839059
0.000839059
0.000811623
0.000811623
0.000839059
0.000811622
0.000811623
0.000841146
0.000809547
0.000839059
0.000811623
0.000811623
0.000809548
0.000804564
0.000772969
0.000802478
0.000802477
0.000775042
0.000775042
0.000804564
0.000772969
0.000802477
0.000802477
0.000775042
0.000775043
0.000802478
0.000775043
0.000775043
0.000804564
0.000772969
0.000802478
0.000775043
0.000775043
0.000772969
0.000767987
0.000765899
0.000765899
0.000767987
0.000765899
0.000765899
0.000765899
0.000767987
0.000765899
0.00167477
0.00167475
0.00167474
0.00167477
0.00167475
0.00165922
0.00165922
0.00165922
0.00165922
0.0016749
0.00167719
0.00167482
0.00167724
0.00167474
0.0016749
0.00167718
0.00167724
0.00167481
0.00167507
0.00167475
0.00167475
0.00163878
0.00165221
0.00165223
0.00163879
0.00165223
0.00163883
0.00163878
0.00165221
0.00165223
0.00163879
0.0016502
0.0016502
0.00165021
0.00162339
0.00162338
0.00162338
0.00162338
0.00163886
0.00165219
0.00165018
0.00164111
0.00165222
0.00163882
0.00164119
0.00165223
0.00163884
0.00163887
0.00165018
0.0016522
0.00164111
0.00165222
0.00164119
0.00163882
0.00165227
0.00165227
0.00163902
0.00163882
0.00163882
0.00160308
0.00161645
0.00161645
0.00160299
0.00161639
0.00160294
0.00160308
0.00161646
0.00161645
0.00160299
0.00161449
0.0016145
0.00161449
0.00158756
0.00158757
0.00158756
0.00158758
0.00160324
0.00161643
0.00161443
0.00160551
0.00161641
0.0016031
0.00160552
0.00161638
0.00160294
0.00160323
0.00161443
0.00161643
0.00160551
0.0016164
0.00160552
0.0016031
0.00161637
0.00161637
0.00160341
0.00160297
0.00160297
0.00156707
0.00158048
0.00158049
0.00156715
0.00158052
0.00156726
0.00156707
0.00158047
0.00158049
0.00156714
0.00157849
0.00157849
0.0015785
0.00155184
0.00155183
0.00155184
0.00155182
0.00156709
0.00158047
0.00157846
0.00156928
0.00158049
0.00156711
0.00156943
0.00158054
0.00156726
0.00156709
0.00157847
0.00158047
0.00156928
0.0015805
0.00156943
0.0015671
0.00158058
0.00158058
0.00156718
0.00156721
0.0015672
0.00153195
0.00154513
0.00154511
0.00153173
0.00154509
0.00153161
0.00153194
0.00154515
0.00154511
0.00153174
0.0015432
0.0015432
0.00154319
0.00151644
0.00151645
0.00151645
0.00151646
0.00153217
0.00154509
0.00154311
0.00153456
0.00154503
0.00153192
0.00153445
0.00154506
0.00153161
0.00153218
0.00154311
0.00154509
0.00153456
0.00154502
0.00153445
0.00153194
0.00154505
0.00154506
0.0015326
0.00153161
0.00153162
0.00149554
0.00150916
0.00150917
0.00149584
0.00150912
0.00149608
0.00149554
0.00150915
0.00150917
0.00149583
0.00150703
0.00150702
0.00150703
0.0014804
0.0014804
0.0014804
0.00148039
0.00149532
0.00150915
0.00150702
0.00149736
0.00150912
0.00149556
0.00149765
0.00150914
0.00149607
0.00149531
0.00150703
0.00150914
0.00149735
0.00150913
0.00149764
0.00149555
0.00150919
0.00150919
0.00149495
0.00149604
0.00149604
0.00146229
0.00147439
0.00147421
0.00146206
0.00147451
0.00146192
0.00146229
0.00147439
0.00147421
0.00146207
0.00147253
0.00147253
0.00147252
0.00144992
0.00144993
0.00144993
0.00144992
0.00146271
0.00147421
0.00147235
0.00146481
0.00147402
0.00146246
0.00146485
0.00147449
0.0014619
0.00146272
0.00147234
0.00147421
0.00146482
0.00147402
0.00146485
0.00146248
0.00147442
0.00147442
0.00146326
0.00146209
0.00146209
0.00142777
0.00144066
0.00144119
0.00142739
0.00144042
0.00142723
0.00142777
0.00144065
0.00144119
0.00142738
0.00144165
0.00144165
0.00144165
0.0014112
0.00141119
0.0014112
0.00141119
0.00142853
0.00144116
0.0014415
0.00143185
0.00144204
0.0014279
0.00143204
0.00144048
0.00142723
0.00142854
0.00144152
0.00144117
0.00143186
0.00144205
0.00143205
0.00142789
0.00144058
0.00144058
0.00142942
0.00142739
0.00142739
0.00138878
0.00140385
0.00140355
0.00138921
0.00140402
0.00138938
0.00138878
0.00140385
0.00140356
0.00138922
0.00140025
0.00140025
0.00140025
0.00136838
0.00136839
0.00136839
0.00136839
0.00138774
0.0014034
0.00140012
0.00138889
0.00140298
0.00138862
0.00138898
0.00140401
0.00138937
0.00138774
0.00140012
0.00140339
0.00138889
0.00140298
0.00138898
0.00138862
0.00140384
0.00140384
0.00138643
0.00138923
0.00138923
0.0013505
0.00136462
0.00136424
0.00135074
0.00136473
0.00135082
0.00135049
0.00136462
0.00136424
0.00135074
0.00135909
0.00135909
0.00135909
0.00133481
0.00133481
0.00133481
0.00133481
0.00135001
0.00136409
0.00135931
0.001351
0.00136328
0.00135045
0.00135077
0.00136473
0.00135082
0.00135001
0.00135931
0.00136408
0.001351
0.00136328
0.00135076
0.00135044
0.00136461
0.00136461
0.00134936
0.00135074
0.00135075
0.00131812
0.00132969
0.00132964
0.0013181
0.00132971
0.00131813
0.00131812
0.00132969
0.00132964
0.0013181
0.00132744
0.00132744
0.00132744
0.00130673
0.00130673
0.00130673
0.00130673
0.00131843
0.00132962
0.00132756
0.00132039
0.00132954
0.00131822
0.00132043
0.00132971
0.00131813
0.00131843
0.00132757
0.00132963
0.00132039
0.00132954
0.00132043
0.00131822
0.00132971
0.00132971
0.00131883
0.00131812
0.00131812
0.00128902
0.00129969
0.00129975
0.00128895
0.00129969
0.00128893
0.00128902
0.00129969
0.00129975
0.00128895
0.00130007
0.00130008
0.00130007
0.00127875
0.00127875
0.00127875
0.00127875
0.00128944
0.00129983
0.0012996
0.00129209
0.00130007
0.00128913
0.00129247
0.00129969
0.00128893
0.00128943
0.0012996
0.00129983
0.00129209
0.00130007
0.00129247
0.00128913
0.0012997
0.0012997
0.00129001
0.00128892
0.00128892
0.00125981
0.0012709
0.00127098
0.00125972
0.00127086
0.00125968
0.0012598
0.0012709
0.00127098
0.00125972
0.00127128
0.00127128
0.00127128
0.00124762
0.00124762
0.00124762
0.00124762
0.00126013
0.00127102
0.00127059
0.00126265
0.00127127
0.00125986
0.00126298
0.00127085
0.00125967
0.00126013
0.00127059
0.00127102
0.00126264
0.00127127
0.00126298
0.00125986
0.00127085
0.00127085
0.00126051
0.00125966
0.00125966
0.0012278
0.00124009
0.00124014
0.00122776
0.00124005
0.00122773
0.0012278
0.00124008
0.00124013
0.00122776
0.00123931
0.00123931
0.00123931
0.00121337
0.00121337
0.00121337
0.00121337
0.00122796
0.00124013
0.0012389
0.00123027
0.00124022
0.00122782
0.00123048
0.00124004
0.00122773
0.00122796
0.0012389
0.00124013
0.00123027
0.00124022
0.00123048
0.00122782
0.00124004
0.00124004
0.00122815
0.00122771
0.00122771
0.00119306
0.00120629
0.00120631
0.00119305
0.00120627
0.00119303
0.00119306
0.00120629
0.00120631
0.00119304
0.00120447
0.00120447
0.00120447
0.00117735
0.00117735
0.00117735
0.00117735
0.00119311
0.00120627
0.00120431
0.0011953
0.00120628
0.00119307
0.00119537
0.00120627
0.00119303
0.00119311
0.00120431
0.00120627
0.0011953
0.00120628
0.00119537
0.00119307
0.00120626
0.00120626
0.00119322
0.00119302
0.00119302
0.00115684
0.00117049
0.00117048
0.00115684
0.00117048
0.00115684
0.00115684
0.00117048
0.00117048
0.00115684
0.00116823
0.00116823
0.00116823
0.00114078
0.00114078
0.00114078
0.00114078
0.00115688
0.00117044
0.00116819
0.00115905
0.00117041
0.00115686
0.00115907
0.00117048
0.00115684
0.00115688
0.00116819
0.00117044
0.00115905
0.00117041
0.00115907
0.00115686
0.00117048
0.00117048
0.00115697
0.00115683
0.00115683
0.00112022
0.00113393
0.00113393
0.00112021
0.00113393
0.00112021
0.00112022
0.00113393
0.00113393
0.00112021
0.00113162
0.00113162
0.00113162
0.00110417
0.00110417
0.00110417
0.00110417
0.00112027
0.0011339
0.00113161
0.00112246
0.00113387
0.00112024
0.00112246
0.00113393
0.00112021
0.00112027
0.00113161
0.0011339
0.00112246
0.00113387
0.00112246
0.00112024
0.00113394
0.00113394
0.00112039
0.00112021
0.00112021
0.0010836
0.00109729
0.00109729
0.0010836
0.00109729
0.0010836
0.0010836
0.0010973
0.00109729
0.0010836
0.00109503
0.00109503
0.00109503
0.00106762
0.00106763
0.00106762
0.00106762
0.00108366
0.00109726
0.00109501
0.00108587
0.00109724
0.00108363
0.00108587
0.00109729
0.0010836
0.00108366
0.00109501
0.00109726
0.00108586
0.00109724
0.00108587
0.00108363
0.0010973
0.0010973
0.00108379
0.00108359
0.00108359
0.00104705
0.00106072
0.00106072
0.00104705
0.00106072
0.00104705
0.00104705
0.00106072
0.00106072
0.00104705
0.00105849
0.00105849
0.00105849
0.00103108
0.00103108
0.00103108
0.00103108
0.0010471
0.00106069
0.00105846
0.00104931
0.00106067
0.00104708
0.00104932
0.00106072
0.00104705
0.0010471
0.00105846
0.00106069
0.00104931
0.00106067
0.00104932
0.00104708
0.00106073
0.00106073
0.00104724
0.00104704
0.00104704
0.00101051
0.00102419
0.00102418
0.00101051
0.00102419
0.00101051
0.00101051
0.00102419
0.00102419
0.00101051
0.00102194
0.00102194
0.00102194
0.000994525
0.000994525
0.000994525
0.000994525
0.00101057
0.00102416
0.00102192
0.00101277
0.00102413
0.00101054
0.00101278
0.00102419
0.00101051
0.00101057
0.00102192
0.00102416
0.00101277
0.00102413
0.00101278
0.00101054
0.00102419
0.00102419
0.0010107
0.00101051
0.00101051
0.000973959
0.00098764
0.000987638
0.000973954
0.00098764
0.000973956
0.000973958
0.00098764
0.000987638
0.000973954
0.000985385
0.000985385
0.000985385
0.000957959
0.00095796
0.00095796
0.00095796
0.000974013
0.00098761
0.000985364
0.000976216
0.000987588
0.000973985
0.000976223
0.00098764
0.000973955
0.000974013
0.000985364
0.000987611
0.000976215
0.000987588
0.000976223
0.000973984
0.000987644
0.000987644
0.000974141
0.000973952
0.000973952
0.000937391
0.000951075
0.000951072
0.000937385
0.000951074
0.000937386
0.00093739
0.000951075
0.000951073
0.000937386
0.000948818
0.000948817
0.000948817
0.000921388
0.000921388
0.000921388
0.000921388
0.000937446
0.000951044
0.000948797
0.000939647
0.00095102
0.000937417
0.000939652
0.000951074
0.000937386
0.000937444
0.000948797
0.000951044
0.000939646
0.000951019
0.000939652
0.000937415
0.000951078
0.000951077
0.000937573
0.000937382
0.000937382
0.000900814
0.000914501
0.000914498
0.00090081
0.000914501
0.000900812
0.000900814
0.000914501
0.000914499
0.00090081
0.000912244
0.000912244
0.000912243
0.000884811
0.00088481
0.000884811
0.00088481
0.000900866
0.000914471
0.000912226
0.000903072
0.000914446
0.00090084
0.000903081
0.000914501
0.000900812
0.000900867
0.000912226
0.000914471
0.000903072
0.000914446
0.000903081
0.000900841
0.000914505
0.000914505
0.000900997
0.000900809
0.000900809
0.000864236
0.000877926
0.000877924
0.000864231
0.000877924
0.000864232
0.000864236
0.000877926
0.000877924
0.000864232
0.000875666
0.000875666
0.000875666
0.000848231
0.000848231
0.000848231
0.000848231
0.00086429
0.000877896
0.000875643
0.000866494
0.000877874
0.000864262
0.000866499
0.000877925
0.000864233
0.000864291
0.000875644
0.000877897
0.000866494
0.000877875
0.0008665
0.000864262
0.000877929
0.00087793
0.000864419
0.000864229
0.000864229
0.000827657
0.000841344
0.000841341
0.000827652
0.000841344
0.000827653
0.000827656
0.000841344
0.000841341
0.000827652
0.000839086
0.000839086
0.000839086
0.000811651
0.00081165
0.000811651
0.00081165
0.00082771
0.000841313
0.000839067
0.000829914
0.000841289
0.000827683
0.00082992
0.000841344
0.000827653
0.00082771
0.000839067
0.000841314
0.000829914
0.000841289
0.00082992
0.000827683
0.000841348
0.000841348
0.00082784
0.000827649
0.000827649
0.000791075
0.000804765
0.000804762
0.000791071
0.000804764
0.000791073
0.000791075
0.000804765
0.000804762
0.000791071
0.000802505
0.000802505
0.000802505
0.000775071
0.000775071
0.000775071
0.000775071
0.000791126
0.000804734
0.000802485
0.000793333
0.000804711
0.000791101
0.000793342
0.000804764
0.000791073
0.000791127
0.000802485
0.000804734
0.000793333
0.00080471
0.000793342
0.000791101
0.000804768
0.000804768
0.000791257
0.00079107
0.00079107
0.000754496
0.000768186
0.000768183
0.000754492
0.000768184
0.000754493
0.000754496
0.000768186
0.000768184
0.000754492
0.000765927
0.000765927
0.000765927
0.000754549
0.000768156
0.000765904
0.000756755
0.000768134
0.000754522
0.000756761
0.000768185
0.000754493
0.000754549
0.000765904
0.000768156
0.000756755
0.000768134
0.000756762
0.000754522
0.000768189
0.000768189
0.00075468
0.00075449
0.00075449
0.00167474
0.00167474
0.00167506
0.00167475
0.00167474
0.00165675
0.00167022
0.00165675
0.00167021
0.00167021
0.00165678
0.00165678
0.00167023
0.00167023
0.00167477
0.00167475
0.00167489
0.00167718
0.00167481
0.00167724
0.00167489
0.00167718
0.00167481
0.00167724
0.00167024
0.00165673
0.00167022
0.00165676
0.00167024
0.00165673
0.00167022
0.00165676
0.00167024
0.00166814
0.0016568
0.0016592
0.00167022
0.00166822
0.00165688
0.00167024
0.00166815
0.0016568
0.0016592
0.00167021
0.00166822
0.00165688
0.00167507
0.00167474
0.00167474
0.00167474
0.00165675
0.00167021
0.00167021
0.00165678
0.00165678
0.00167023
0.00167023
0.00165675
0.00167021
0.00167489
0.00167718
0.00167481
0.00167724
0.00167477
0.00167475
0.00167489
0.00167718
0.00167724
0.00167482
0.00167024
0.00165673
0.00167022
0.00165676
0.00167024
0.00166814
0.0016568
0.0016592
0.00167021
0.00166822
0.00165688
0.00167024
0.00165672
0.00167022
0.00165676
0.00167024
0.00166815
0.0016592
0.0016568
0.00166822
0.00167022
0.00165688
0.00167477
0.00167475
0.0016749
0.00167719
0.00167724
0.00167482
0.00167477
0.00167475
0.00167024
0.00166815
0.0016568
0.0016592
0.00167022
0.00166823
0.00165688
0.00167024
0.00165673
0.00167022
0.00165676
0.00167024
0.00166815
0.0016592
0.0016568
0.00166823
0.00167022
0.00165688
0.00167024
0.00165673
0.00167022
0.00165676
0.00167507
0.00167475
0.00167475
0.00167474
0.00165675
0.00167021
0.00167021
0.00165678
0.00165678
0.00167023
0.00167023
0.00165675
0.00167021
0.0016749
0.00167718
0.00167724
0.00167481
0.00167477
0.00167475
0.00167477
0.00167475
0.00167024
0.00166815
0.0016592
0.0016568
0.00166823
0.00167022
0.00165688
0.00167024
0.00166815
0.0016592
0.0016568
0.00166823
0.00167022
0.00165688
0.00167024
0.00165673
0.00167022
0.00165676
0.00167024
0.00165673
0.00167022
0.00165676
0.00167474
0.00167474
0.00167022
0.00165678
0.00165678
0.00167023
0.00167023
0.00165675
0.00167021
0.00165675
0.00167022
0.00165223
0.00163884
0.00165223
0.00163884
0.00165227
0.00165227
0.00163903
0.00163882
0.00163882
0.00162091
0.00163434
0.00162092
0.00163434
0.00163425
0.00162087
0.00162087
0.00163432
0.00163432
0.00163878
0.00165221
0.00165223
0.00163878
0.00163887
0.0016522
0.00165018
0.00164111
0.00165222
0.00163882
0.0016412
0.00163887
0.0016522
0.00165018
0.00164111
0.00165222
0.00163882
0.00164119
0.00163427
0.00162095
0.0016343
0.00162093
0.00163427
0.00162095
0.0016343
0.00162093
0.00163423
0.0016322
0.00162097
0.00162334
0.00163426
0.00163225
0.001621
0.00163423
0.00163219
0.00162097
0.00162333
0.00163425
0.00163224
0.00162099
0.00165227
0.00165226
0.00163902
0.00163882
0.00163882
0.00165223
0.00163884
0.00162093
0.00163433
0.00163424
0.00162088
0.00162088
0.00163432
0.00163432
0.00162092
0.00163434
0.00163887
0.0016522
0.00165018
0.00164111
0.00165222
0.00163882
0.00164119
0.00163878
0.0016522
0.00165223
0.00163879
0.00163887
0.00165018
0.0016522
0.00164111
0.00165222
0.00164119
0.00163882
0.00163427
0.00162096
0.0016343
0.00162093
0.00163423
0.00163219
0.00162097
0.00162334
0.00163425
0.00163225
0.001621
0.00163427
0.00162096
0.0016343
0.00162093
0.00163423
0.00163219
0.00162334
0.00162098
0.00163225
0.00163425
0.001621
0.00163878
0.00165221
0.00165222
0.00163879
0.00163886
0.00165018
0.0016522
0.00164111
0.00165222
0.00164119
0.00163882
0.00163878
0.00165221
0.00165222
0.00163878
0.00163423
0.00163218
0.00162097
0.00162333
0.00163425
0.00163224
0.00162099
0.00163427
0.00162096
0.0016343
0.00162093
0.00163423
0.00163218
0.00162333
0.00162097
0.00163224
0.00163425
0.00162099
0.00163427
0.00162095
0.0016343
0.00162093
0.00165226
0.00165227
0.00163902
0.00163882
0.00163882
0.00165223
0.00163883
0.00162092
0.00163434
0.00163424
0.00162088
0.00162088
0.00163432
0.00163432
0.00162093
0.00163433
0.00163887
0.00165019
0.0016522
0.00164111
0.00165222
0.00164119
0.00163882
0.00163878
0.00165221
0.00165222
0.00163878
0.00163878
0.00165221
0.00165222
0.00163878
0.00163423
0.00163219
0.00162333
0.00162097
0.00163224
0.00163425
0.00162099
0.00163423
0.00163218
0.00162333
0.00162096
0.00163224
0.00163425
0.00162099
0.00163427
0.00162095
0.0016343
0.00162092
0.00163427
0.00162095
0.00163429
0.00162092
0.00165223
0.00163883
0.00165223
0.00163883
0.00163424
0.00162087
0.00162087
0.00163432
0.00163432
0.00162093
0.00163433
0.00162093
0.00163433
0.00161637
0.00160295
0.00161639
0.00160294
0.00161636
0.00161637
0.0016034
0.00160297
0.00160297
0.00158502
0.00159844
0.00158501
0.00159844
0.00159852
0.00158508
0.00158507
0.00159848
0.00159848
0.00160308
0.00161646
0.00161645
0.00160299
0.00160323
0.00161643
0.00161444
0.00160551
0.00161641
0.00160309
0.00160552
0.00160323
0.00161643
0.00161443
0.00160551
0.00161641
0.00160311
0.00160552
0.00159855
0.00158499
0.00159846
0.00158503
0.00159855
0.00158499
0.00159846
0.00158503
0.00159861
0.00159648
0.00158508
0.00158753
0.0015985
0.00159656
0.00158518
0.00159861
0.00159649
0.00158508
0.00158753
0.00159851
0.00159657
0.00158518
0.00161637
0.00161637
0.0016034
0.00160297
0.00160296
0.00161638
0.00160294
0.00158501
0.00159844
0.00159853
0.00158508
0.00158508
0.00159848
0.00159848
0.00158502
0.00159844
0.00160323
0.00161643
0.00161443
0.00160551
0.00161641
0.0016031
0.00160552
0.00160308
0.00161645
0.00161645
0.00160299
0.00160323
0.00161444
0.00161643
0.00160551
0.00161641
0.00160552
0.0016031
0.00159855
0.00158498
0.00159846
0.00158503
0.00159861
0.00159648
0.00158508
0.00158754
0.00159851
0.00159657
0.00158518
0.00159855
0.00158499
0.00159846
0.00158503
0.00159861
0.00159648
0.00158754
0.00158508
0.00159657
0.0015985
0.00158518
0.00160308
0.00161646
0.00161645
0.00160299
0.00160324
0.00161443
0.00161643
0.00160551
0.0016164
0.00160552
0.00160311
0.00160309
0.00161646
0.00161645
0.001603
0.00159862
0.00159649
0.00158508
0.00158754
0.00159851
0.00159657
0.00158519
0.00159855
0.00158499
0.00159846
0.00158503
0.00159862
0.0015965
0.00158754
0.00158509
0.00159657
0.00159852
0.00158519
0.00159855
0.00158499
0.00159846
0.00158503
0.00161636
0.00161637
0.0016034
0.00160296
0.00160297
0.00161639
0.00160294
0.00158502
0.00159844
0.00159853
0.00158508
0.00158507
0.00159848
0.00159848
0.00158501
0.00159844
0.00160323
0.00161443
0.00161642
0.00160551
0.0016164
0.00160552
0.00160311
0.00160309
0.00161646
0.00161644
0.00160299
0.00160309
0.00161646
0.00161644
0.001603
0.00159862
0.00159649
0.00158754
0.00158508
0.00159657
0.00159851
0.00158519
0.00159862
0.0015965
0.00158754
0.00158509
0.00159657
0.00159852
0.0015852
0.00159856
0.00158499
0.00159846
0.00158503
0.00159856
0.00158499
0.00159847
0.00158504
0.00161639
0.00160295
0.0016164
0.00160295
0.00159854
0.00158508
0.00158508
0.00159848
0.00159849
0.00158501
0.00159844
0.00158501
0.00159844
0.00158054
0.00156725
0.00158052
0.00156726
0.00158058
0.00158057
0.00156718
0.00156722
0.00156721
0.00154955
0.00156277
0.00154956
0.00156278
0.00156247
0.0015495
0.0015495
0.00156275
0.00156275
0.00156707
0.00158047
0.00158049
0.00156715
0.00156709
0.00158047
0.00157845
0.00156928
0.00158048
0.00156712
0.00156942
0.00156709
0.00158047
0.00157846
0.00156928
0.00158049
0.00156711
0.00156943
0.0015626
0.00154955
0.00156271
0.00154949
0.0015626
0.00154955
0.00156271
0.00154949
0.00156249
0.00156045
0.00154954
0.00155177
0.0015626
0.00156052
0.00154951
0.00156248
0.00156044
0.00154954
0.00155176
0.00156259
0.00156051
0.00154951
0.00158057
0.00158058
0.00156718
0.00156723
0.00156723
0.00158053
0.00156726
0.00154956
0.00156278
0.00156246
0.0015495
0.00154949
0.00156275
0.00156275
0.00154955
0.00156277
0.00156709
0.00158046
0.00157846
0.00156928
0.00158048
0.00156711
0.00156942
0.00156707
0.00158048
0.00158049
0.00156715
0.00156709
0.00157845
0.00158046
0.00156927
0.00158048
0.00156942
0.0015671
0.0015626
0.00154955
0.00156271
0.0015495
0.00156248
0.00156045
0.00154954
0.00155177
0.00156259
0.00156051
0.00154951
0.0015626
0.00154955
0.00156271
0.0015495
0.00156248
0.00156045
0.00155177
0.00154955
0.00156051
0.0015626
0.00154952
0.00156707
0.00158048
0.00158049
0.00156714
0.00156709
0.00157847
0.00158047
0.00156928
0.00158049
0.00156943
0.0015671
0.00156707
0.00158048
0.00158049
0.00156714
0.00156248
0.00156045
0.00154954
0.00155176
0.0015626
0.00156051
0.0015495
0.0015626
0.00154954
0.00156271
0.00154949
0.00156248
0.00156044
0.00155175
0.00154953
0.00156051
0.00156259
0.0015495
0.0015626
0.00154955
0.0015627
0.00154949
0.00158058
0.00158057
0.00156718
0.00156723
0.00156721
0.00158052
0.00156724
0.00154955
0.00156278
0.00156246
0.0015495
0.0015495
0.00156275
0.00156274
0.00154956
0.00156277
0.00156709
0.00157847
0.00158047
0.00156928
0.0015805
0.00156943
0.0015671
0.00156707
0.00158047
0.00158049
0.00156714
0.00156707
0.00158047
0.00158049
0.00156714
0.00156248
0.00156044
0.00155176
0.00154954
0.00156051
0.00156259
0.00154949
0.00156248
0.00156044
0.00155175
0.00154953
0.00156051
0.00156258
0.00154949
0.0015626
0.00154955
0.0015627
0.00154949
0.0015626
0.00154955
0.0015627
0.00154949
0.00158052
0.00156725
0.00158051
0.00156723
0.00156245
0.0015495
0.0015495
0.00156274
0.00156274
0.00154956
0.00156277
0.00154956
0.00156277
0.00154506
0.00153161
0.00154508
0.00153161
0.00154504
0.00154505
0.00153259
0.00153161
0.00153161
0.00151367
0.0015271
0.00151365
0.00152709
0.0015277
0.00151372
0.00151371
0.00152712
0.00152712
0.00153195
0.00154515
0.00154511
0.00153175
0.00153218
0.0015451
0.00154312
0.00153456
0.00154504
0.00153191
0.00153445
0.00153218
0.00154509
0.00154311
0.00153456
0.00154504
0.00153193
0.00153445
0.00152742
0.00151371
0.00152722
0.00151378
0.00152741
0.0015137
0.00152723
0.00151378
0.0015276
0.00152561
0.00151383
0.00151641
0.00152733
0.00152559
0.00151393
0.0015276
0.00152562
0.00151383
0.00151642
0.00152734
0.00152559
0.00151393
0.00154505
0.00154504
0.00153259
0.00153161
0.00153161
0.00154507
0.00153161
0.00151365
0.00152708
0.0015277
0.00151372
0.00151373
0.00152711
0.00152712
0.00151366
0.0015271
0.00153218
0.0015451
0.00154312
0.00153457
0.00154505
0.00153193
0.00153446
0.00153194
0.00154513
0.00154511
0.00153173
0.00153218
0.00154312
0.0015451
0.00153457
0.00154505
0.00153446
0.00153191
0.0015274
0.0015137
0.00152722
0.00151378
0.00152759
0.00152561
0.00151383
0.00151641
0.00152733
0.00152559
0.00151393
0.0015274
0.00151371
0.00152722
0.00151378
0.00152759
0.00152561
0.00151641
0.00151385
0.00152559
0.00152732
0.00151392
0.00153195
0.00154513
0.0015451
0.00153174
0.00153217
0.0015431
0.00154509
0.00153456
0.00154503
0.00153445
0.00153193
0.00153195
0.00154514
0.0015451
0.00153175
0.00152759
0.00152561
0.00151386
0.00151641
0.00152733
0.00152559
0.00151394
0.00152741
0.00151369
0.00152723
0.00151378
0.0015276
0.00152563
0.00151642
0.00151384
0.00152559
0.00152734
0.00151394
0.00152741
0.00151371
0.00152725