/*--------------------------------*- C++ -*----------------------------------*\
| =========                 |                                                 |
| \\      /  F ield         | OpenFOAM: The Open Source CFD Toolbox           |
|  \\    /   O peration     | Version:  v1906                                 |
|   \\  /    A nd           | Web:      www.OpenFOAM.com                      |
|    \\/     M anipulation  |                                                 |
\*---------------------------------------------------------------------------*/
FoamFile
{
    version     2.0;
    format      ascii;
    class       surfaceScalarField;
    location    "250";
    object      phi;
}
// * * * * * * * * * * * * * * * * * * * * * * * * * * * * * * * * * * * * * //

dimensions      [0 3 -1 0 0 0 0];
oriented        oriented;


internalField   nonuniform List<scalar> 
124860
(
-1.2413e-06
-1.2319e-06
-0.000269508
2.5606e-07
1.91845e-07
1.89281e-07
9.41745e-08
-1.29277e-06
2.10564e-07
-2.70636e-07
-9.06929e-07
1.70749e-07
-2.5614e-07
8.53438e-07
-0.00113978
1.25542e-06
2.3026e-07
-0.00114023
8.82705e-08
-1.29257e-06
2.2751e-07
-2.65021e-07
-9.04816e-07
2.00041e-07
-2.45895e-07
8.6104e-07
-1.21518e-06
-0.000269527
2.22572e-07
2.2786e-07
2.42667e-07
1.21861e-07
-1.24173e-06
2.38888e-07
-2.5126e-07
-8.94177e-07
2.29596e-07
-2.29978e-07
8.63428e-07
-0.00114087
1.24974e-06
2.34959e-07
8.237e-08
-1.2871e-06
2.275e-07
-2.65036e-07
-9.01942e-07
2.00718e-07
-2.45528e-07
8.58764e-07
-0.00113988
2.28426e-07
-0.00114062
8.80781e-08
-1.25264e-06
2.19358e-07
-2.56793e-07
-8.98684e-07
1.97946e-07
-2.42597e-07
8.55959e-07
1.24388e-06
2.34877e-07
-0.00113967
8.92079e-08
-1.28187e-06
2.21637e-07
-2.59757e-07
-9.0156e-07
1.9753e-07
-2.45543e-07
8.58435e-07
-1.20994e-06
-0.000269486
2.23282e-07
2.27342e-07
2.299e-07
9.91982e-08
-1.24709e-06
2.19571e-07
-2.56744e-07
-8.98776e-07
1.99986e-07
-2.45765e-07
8.55417e-07
-0.00114026
1.20691e-06
2.30709e-07
-0.00114079
9.40929e-08
-1.24997e-06
2.19243e-07
-2.59692e-07
-8.99184e-07
1.99998e-07
-2.45824e-07
8.55506e-07
-0.000269501
2.22448e-07
2.27382e-07
2.01115e-07
2.30122e-07
-0.00119095
-0.00119097
1.99416e-07
2.00749e-07
1.94116e-07
2.24425e-07
-0.00119056
-0.00119077
2.00934e-07
2.1222e-07
-1.10376e-08
-5.10663e-09
-9.7095e-05
-1.35235e-08
-4.95366e-09
-9.70975e-05
-1.29461e-08
2.96192e-09
-0.000276402
9.88644e-09
-1.77943e-08
-5.85066e-08
-0.000276381
1.26084e-08
-3.33869e-11
4.185e-08
-1.31613e-08
2.08658e-09
0.000228324
-0.000228355
-2.48599e-08
-0.00019204
-1.117e-10
-4.41647e-10
-4.03046e-08
-0.000228313
1.86616e-08
2.73807e-09
4.17033e-08
-1.3088e-08
1.8966e-09
0.000228361
-0.000228392
-2.49805e-08
5.02702e-09
-0.000192078
-2.7431e-09
2.83251e-08
-2.56049e-09
-6.95671e-09
0.000192074
-0.000192093
-4.03796e-08
-0.00022835
1.88228e-08
2.27997e-09
1.95144e-09
-9.45113e-11
1.92682e-07
0.00025014
-0.000250292
-7.88155e-08
-0.000244372
-6.19962e-09
-0.00116209
-2.96691e-09
3.18139e-07
-1.01202e-06
7.62185e-07
-8.34926e-07
9.41753e-07
5.69262e-09
3.28612e-07
9.40082e-07
-8.34614e-07
-1.01188e-06
7.60715e-07
-0.0011622
-8.27593e-08
-1.98937e-09
-0.000250113
1.04596e-09
-1.59648e-07
4.21999e-10
1.92488e-07
0.000250172
-0.000250321
7.98103e-08
-1.29088e-06
2.28824e-07
8.60422e-07
-2.46928e-07
-9.06475e-07
1.99789e-07
1.25795e-06
-2.62253e-07
2.30639e-07
-0.00114038
1.5508e-08
-9.04667e-08
-0.000244388
-8.85364e-09
-0.00116225
3.24388e-07
-1.00943e-06
7.62201e-07
-8.32273e-07
9.44476e-07
-1.05033e-08
3.1061e-09
1.06846e-07
0.0002444
-0.000244472
3.27897e-07
9.4347e-07
-8.34506e-07
-1.01147e-06
7.60998e-07
-0.00116235
-0.000250145
6.78506e-10
-1.622e-07
-1.12859e-08
-9.70997e-05
6.65452e-09
9.70918e-05
-9.7101e-05
1.2509e-06
0.000269568
-2.37157e-07
-2.4212e-07
-0.000271631
-2.89128e-08
-0.000276356
1.26153e-08
1.37756e-08
-1.3565e-08
-2.95259e-08
-0.000276462
1.3066e-08
-6.2258e-09
2.42292e-08
0.000276357
-0.000276379
-9.18826e-09
8.11258e-09
-6.41495e-09
2.44178e-08
0.000276462
-0.000276479
-4.84506e-09
-9.71021e-05
2.41961e-09
9.70948e-05
-9.71065e-05
-2.71298e-08
-0.000192066
-2.59324e-09
-4.02815e-08
1.55824e-10
-0.000228341
2.27312e-09
1.67288e-08
-9.97747e-08
-0.000244397
-1.14423e-08
1.12599e-09
3.2486e-07
-1.00397e-06
7.59121e-07
-8.26844e-07
9.41326e-07
-0.00116198
-1.03828e-09
-0.000250128
2.04953e-10
-1.64556e-07
-2.70468e-08
4.74725e-09
-0.000192012
-2.25037e-09
-4.01787e-08
-0.000228302
1.65488e-08
2.71417e-09
3.30596e-07
-1.00687e-06
7.59197e-07
-8.26961e-07
9.4156e-07
-0.00116195
1.51575e-08
-8.61086e-08
-0.000244323
-1.12331e-08
-0.000250103
-1.62006e-07
1.69546e-09
-4.1521e-08
1.74551e-09
4.1292e-10
1.89352e-07
0.000250169
-0.000250319
8.08307e-08
2.31885e-07
1.21765e-06
-2.54164e-07
2.22258e-07
8.55513e-07
-2.43979e-07
-9.00307e-07
1.97461e-07
-0.00114077
2.72764e-08
-9.0816e-08
-0.000244432
-9.56787e-09
-0.00116203
-4.01736e-09
3.21912e-07
-1.00598e-06
7.59846e-07
-8.2871e-07
9.41948e-07
-3.0704e-08
3.43968e-09
1.06911e-07
0.000244444
-0.000244515
3.21265e-09
3.30679e-07
9.41151e-07
-8.30873e-07
-1.00795e-06
7.58914e-07
-0.00116214
4.08467e-08
-1.54358e-09
-0.000250142
1.05092e-10
-1.626e-07
2.73327e-10
1.94211e-09
-1.30966e-08
0.000228359
-0.00022839
-0.000192075
-2.70474e-09
-7.23183e-09
0.00019207
-0.000192092
-1.38017e-10
-0.000228348
2.38572e-09
1.933e-08
-4.15669e-08
1.86873e-07
-1.67619e-10
0.000250144
-0.000250288
8.19204e-08
-1.27994e-06
2.32881e-07
8.5791e-07
-2.46665e-07
-9.03231e-07
1.99883e-07
1.24656e-06
-2.5696e-07
2.24712e-07
-0.00113983
-0.00116196
3.22258e-07
-1.00595e-06
7.59829e-07
-8.2879e-07
9.41968e-07
2.48765e-08
1.5967e-08
-8.81864e-08
-0.000244368
-9.41001e-09
3.31151e-07
9.41102e-07
-8.30984e-07
-1.008e-06
7.58865e-07
-0.00116207
-2.84241e-08
-1.07497e-08
3.53305e-09
1.04446e-07
0.00024438
-0.000244449
4.08152e-08
-0.000250118
-1.60026e-07
1.02769e-09
-1.3127e-08
1.88094e-09
0.000228324
-0.000228354
4.9667e-09
-0.000192024
-2.84391e-09
-2.34346e-09
-7.17815e-09
0.00019202
-0.000192039
-0.000228313
1.92964e-08
2.64662e-09
-1.33811e-08
-9.70806e-05
-2.97366e-08
-0.000276324
9.54587e-09
1.12292e-08
-1.59609e-08
-3.10234e-08
-0.000276419
1.22492e-08
-4.95317e-09
-9.70915e-05
1.29754e-09
-4.40162e-08
1.91913e-07
1.3372e-10
0.00025013
-0.000250279
-0.00116169
-9.70547e-09
3.22774e-07
-1.00319e-06
7.53975e-07
-8.26088e-07
9.36052e-07
2.47688e-08
-9.02255e-08
-0.000244374
-9.44495e-09
-1.03838e-08
3.25136e-07
9.38138e-07
-8.25273e-07
-1.00224e-06
7.56022e-07
-0.00116178
-9.33255e-08
-1.48984e-09
4.32331e-08
-0.000250104
-1.64937e-07
7.6358e-10
-4.40265e-08
1.91956e-07
-8.13274e-10
0.000250162
-0.000250308
8.06819e-08
-1.24543e-06
2.27792e-07
8.55337e-07
-2.46576e-07
-9.00474e-07
2.00077e-07
1.21219e-06
-2.54163e-07
2.22292e-07
-0.00114094
-0.00116185
3.23247e-07
-1.00069e-06
7.53995e-07
-8.23481e-07
9.36045e-07
2.50107e-08
1.58814e-08
-9.04136e-08
-0.000244383
-9.27456e-09
3.25218e-07
9.3551e-07
-8.25384e-07
-1.0024e-06
7.53315e-07
-0.00116196
-2.83245e-08
-1.05219e-08
3.264e-09
1.06643e-07
0.000244395
-0.000244466
4.32049e-08
-0.000250135
-1.64914e-07
1.26191e-09
1.17454e-10
1.78611e-09
-1.10691e-08
0.000228313
-0.000228348
-0.000192028
-2.87023e-09
-2.03521e-10
-0.000228302
2.68477e-09
1.72648e-08
1.80408e-09
-1.10524e-08
0.00022835
-0.000228384
5.13516e-09
-0.000192064
-2.89512e-09
-2.46591e-09
-7.045e-09
0.00019206
-0.000192079
-0.000228338
2.55665e-09
1.72535e-08
0.000269545
-2.36985e-07
-2.42149e-07
-0.000271591
1.12834e-08
-3.1467e-08
-0.000276413
9.91266e-09
1.12519e-08
-2.87457e-08
-0.000276361
1.0364e-08
-6.92174e-09
-3.29127e-09
2.66777e-08
0.000276414
-0.000276441
-6.73359e-09
-3.58134e-09
2.41231e-08
0.000276362
-0.000276386
-9.70905e-05
9.70829e-05
-9.70922e-05
-9.7095e-05
9.7087e-05
-9.70962e-05
9.58736e-09
2.96101e-09
-9.71075e-05
7.10639e-09
2.65756e-09
-9.71073e-05
-1.45945e-08
4.00153e-08
0.000220903
-2.12512e-08
4.38261e-08
-0.000220951
-0.000250133
-3.11466e-08
6.67607e-08
-5.86518e-09
-7.80114e-09
3.01851e-08
1.20293e-08
-0.000276427
-0.000181701
-8.59517e-10
6.21172e-09
-1.96398e-09
-0.000181722
9.54444e-08
4.99133e-08
-0.000250208
-4.98244e-08
1.05577e-08
-5.46378e-09
1.25596e-08
0.000220869
-4.1306e-09
2.10809e-08
-0.000220893
-0.000250081
5.84755e-08
-1.97927e-07
-2.82392e-08
-1.51186e-09
1.47158e-08
7.11961e-09
-0.000276394
-0.00018167
-3.87923e-08
1.43366e-08
-3.54562e-10
-0.000181677
3.79132e-08
3.70373e-08
-0.000250128
6.82163e-08
-8.5403e-08
-5.40379e-09
-5.21844e-09
0.000212353
-0.000212367
-7.99179e-05
-5.7646e-09
-7.99081e-05
-2.39107e-09
-7.99252e-05
-7.99137e-05
-0.000142089
-7.8448e-10
-1.6935e-08
0.000142106
1.22098e-09
2.51325e-09
0.000169656
-9.80205e-11
-0.000169672
-1.45803e-08
0.000222119
4.24219e-08
-0.000222148
2.75088e-09
1.83571e-08
2.80597e-09
0.000228342
-2.52099e-10
-3.92474e-08
-0.000142103
1.60874e-09
0.000169674
7.01081e-11
0.000222139
-3.91239e-08
4.84247e-09
1.4953e-08
7.84874e-05
-1.0566e-09
-7.85013e-05
-6.63381e-09
2.97804e-08
-0.000192061
-0.000261289
1.59958e-08
-4.69489e-09
-4.15965e-08
-2.85912e-09
3.66738e-08
-0.000261314
-7.96055e-10
-1.90646e-09
1.4095e-08
0.000142093
-1.26396e-08
2.08391e-09
-3.39647e-10
4.04818e-08
-0.000169659
2.60403e-10
3.37752e-10
-0.000222109
1.72862e-08
-4.29704e-08
2.23643e-10
4.31413e-08
-0.000142159
-1.04457e-09
-1.53259e-08
1.32947e-09
0.000142174
2.33536e-09
0.00016969
-0.000169706
-1.23501e-08
0.000222205
2.46621e-09
4.44627e-08
-0.000222237
1.85268e-08
2.30053e-09
0.000228379
-3.94459e-08
1.74324e-09
-0.000142171
0.000169708
4.61452e-09
0.000222229
-4.20614e-08
1.25085e-08
7.85317e-05
-7.85425e-05
-1.74921e-09
-6.83712e-09
-0.000192096
-2.54469e-09
2.74613e-08
-0.0002614
1.41144e-08
-4.57502e-09
-4.11709e-08
-0.000261429
-2.63927e-09
3.675e-08
-1.23792e-09
-7.85271e-05
-1.40316e-08
-1.28138e-08
0.000261401
3.79751e-08
-0.000261431
-3.4222e-09
5.93345e-09
-2.4905e-08
-7.85382e-05
-4.05418e-08
-2.40833e-09
1.17794e-08
0.000142163
-1.24803e-08
1.69692e-09
4.03523e-08
-0.000169693
1.05404e-09
-0.000222197
1.55512e-08
-4.29944e-08
4.30227e-08
-9.71094e-05
7.0657e-09
-1.1584e-08
-0.000212362
6.30254e-09
6.14021e-09
-1.19956e-08
-9.73331e-09
0.000212371
3.60384e-09
7.98981e-05
1.0838e-09
-7.99028e-05
3.58023e-09
7.99116e-05
1.10872e-09
-7.99163e-05
1.11118e-08
9.11015e-09
-0.000212375
-9.45954e-09
7.99138e-05
-9.63969e-09
7.99274e-05
2.73138e-08
-9.64549e-09
0.000220855
-0.000220894
-1.24663e-08
3.36105e-08
-0.000250049
1.49915e-08
-6.54937e-08
-1.80229e-08
2.38367e-08
-5.75568e-09
-0.000276376
9.48831e-09
-0.000181663
-2.01951e-08
9.57023e-09
-0.000250113
7.05237e-08
4.48611e-08
-0.000181678
-2.54384e-10
9.96436e-09
-3.75811e-08
-9.69922e-09
2.7542e-08
0.000220927
-0.00022097
-1.04183e-08
3.57051e-08
-0.000250203
1.5047e-08
-6.59786e-08
-1.35347e-08
-5.55342e-09
2.28534e-08
-0.000276477
-8.99033e-09
6.5416e-09
-0.000181715
-1.99536e-08
9.91672e-09
-0.00018173
5.92054e-11
-0.000250262
6.99131e-08
3.94414e-08
8.0427e-09
-3.96866e-08
-1.63499e-08
-0.000220872
2.15775e-08
-3.95317e-08
9.8604e-09
0.000181653
-0.000181668
0.000250074
-2.61642e-08
4.34036e-08
6.98726e-08
-0.000250137
-2.87922e-08
1.30725e-08
-1.53247e-08
-1.87647e-08
-6.59332e-08
3.25212e-08
-0.000220909
-0.000220943
2.16983e-08
-1.60533e-08
-4.1832e-08
9.65604e-09
0.000181705
-0.00018172
-2.62412e-08
0.000250227
7.00952e-08
3.86312e-08
-0.000250285
1.29488e-08
-2.91091e-08
1.36544e-08
-1.30936e-08
3.46192e-08
-0.000220985
-6.60716e-08
-1.37444e-08
-5.01725e-09
-5.32224e-09
0.000212359
-7.99086e-05
-4.29351e-09
-7.99221e-05
-3.97554e-09
-9.71141e-05
2.98641e-09
-5.61565e-09
1.24823e-08
7.85331e-05
-1.70358e-09
-7.85439e-05
-6.74872e-09
2.7546e-08
-0.000192085
-0.000261405
1.40893e-08
-4.50001e-09
-3.86576e-08
-2.67831e-09
3.44859e-08
-0.000261432
-1.19347e-09
1.18119e-08
-2.38056e-09
0.000142162
-0.000142173
1.69947e-09
-1.04888e-08
4.5531e-10
4.04963e-08
-0.000228373
-0.000222197
1.54792e-08
-4.04004e-08
-0.000169691
1.05534e-09
-4.12007e-10
4.07349e-08
-0.000222227
-2.31719e-10
-0.000169703
1.49e-08
7.84855e-05
-9.04735e-10
-7.84995e-05
-6.34464e-09
-3.33969e-09
2.98795e-08
-0.000192033
-0.000261283
1.6045e-08
-4.51346e-09
-3.90262e-08
-2.92443e-09
3.4462e-08
-0.000261306
-6.23246e-10
-1.83129e-09
1.41926e-08
0.000142088
-0.000142101
-1.06671e-08
2.40022e-09
4.06899e-08
-0.000228334
-0.000169656
1.13998e-10
-0.000222102
1.72228e-08
-4.03751e-08
-0.000169669
4.09949e-08
-0.000222129
-0.000142159
-1.54149e-08
-1.14307e-09
1.43548e-09
0.000142174
-1.2374e-08
0.00022221
2.55544e-09
4.42661e-08
-0.000222243
2.45293e-09
0.000169686
1.21715e-11
-0.000169702
2.48995e-09
1.87231e-08
0.000228378
5.63222e-11
-3.98006e-08
1.83092e-09
-0.000142171
4.79767e-09
0.000222235
-4.22635e-08
0.000169704
-3.65331e-11
1.23444e-08
7.85349e-05
-7.85454e-05
-1.84016e-09
-6.80355e-09
-0.000192095
2.96873e-08
-0.000261418
1.43355e-08
-4.83863e-09
-4.1196e-08
-0.000261446
-2.90179e-09
3.67087e-08
-1.30628e-09
-7.85299e-05
-1.40552e-08
-1.2873e-08
0.000261418
3.77801e-08
-0.000261448
-3.42274e-09
-2.67267e-08
-7.85409e-05
-4.06239e-08
1.15436e-08
-2.44808e-09
0.000142164
1.9994e-09
-1.20857e-08
7.74371e-11
3.9906e-08
-0.000222203
1.58843e-08
-4.31985e-08
-0.000169689
1.0175e-09
-4.60912e-11
4.28136e-08
-4.27746e-11
-0.000142089
-1.05781e-09
-1.53855e-08
1.39298e-09
0.000142104
2.43621e-09
0.000169652
-0.000169668
-1.24228e-08
0.000222118
2.60673e-09
4.43481e-08
-0.00022215
1.86862e-08
2.83007e-09
0.000228342
-3.97503e-08
1.81794e-09
-0.0001421
0.00016967
4.85322e-09
0.000222142
-4.22397e-08
1.24468e-08
7.84906e-05
-7.85013e-05
-1.79978e-09
-6.98626e-09
-0.000192042
-2.59289e-09
2.76055e-08
-0.000261294
1.42546e-08
-4.87592e-09
-4.11865e-08
-0.000261322
-2.93053e-09
3.66656e-08
-1.26756e-09
-7.84859e-05
-1.39616e-08
-1.29558e-08
0.000261295
3.78768e-08
-0.000261324
-3.64204e-09
6.04026e-09
-2.46885e-08
-7.8497e-05
-4.06066e-08
-2.35171e-09
1.15623e-08
0.000142093
-1.21177e-08
1.85809e-09
3.99244e-08
-0.000169655
9.38566e-10
-0.00022211
1.58542e-08
-4.32286e-08
4.27561e-08
9.32519e-09
-9.70933e-05
2.55572e-08
-1.1534e-08
0.000220837
-1.08305e-08
3.56044e-08
-0.000220876
-0.000250013
1.21151e-08
-6.64481e-08
-1.83317e-08
2.27287e-08
-3.13357e-09
9.66835e-09
-0.000276344
-0.000181653
-2.14721e-08
9.76024e-09
6.98272e-08
4.45354e-08
-0.000250079
-2.17012e-10
-0.000181668
7.68672e-09
-3.98557e-08
-1.19714e-08
2.70327e-08
0.000220914
-1.22306e-08
3.15325e-08
-0.000220948
-0.000250164
1.53358e-08
-6.2802e-08
-1.60576e-08
-5.14555e-09
2.62863e-08
-7.25393e-09
9.21045e-09
-0.000276443
-0.000181712
-2.1749e-08
9.52642e-09
-2.69043e-10
-0.000181729
6.81045e-08
4.21255e-08
-0.000250221
1.01082e-08
-3.48037e-08
-5.35176e-09
-5.26692e-09
0.000212345
-0.000212358
-7.99026e-05
-3.9139e-09
-7.99207e-05
-4.11546e-09
-7.99082e-05
-7.99262e-05
2.49796e-09
-9.71013e-05
-0.000142089
-1.54309e-08
-1.07564e-09
1.39501e-09
0.000142104
-1.23775e-08
0.000222113
4.42819e-08
-0.000222145
2.6209e-09
2.41387e-09
0.000169653
2.75707e-11
-0.000169666
2.81454e-09
1.67261e-08
0.000228336
-4.57619e-11
-4.2279e-08
-0.0001421
1.79891e-09
4.86702e-09
0.00022214
-4.47132e-08
0.000169668
2.61079e-11
1.24051e-08
7.84912e-05
-7.85018e-05
-1.7746e-09
-7.07817e-09
2.76632e-08
-0.000192046
-0.000261293
1.42674e-08
-4.85093e-09
-3.8749e-08
-0.000261321
-2.96284e-09
3.67009e-08
-1.23838e-09
-1.39983e-08
-7.84864e-05
-4.06694e-08
-0.000261294
3.71603e-09
1.15653e-08
-2.34241e-09
0.000142093
1.85327e-09
-1.0094e-08
-7.64373e-11
4.24721e-08
-0.000222105
1.5835e-08
-4.31234e-08
-0.000169656
9.32883e-10
2.43222e-11
4.52384e-08
3.36292e-11
-0.000142157
-1.74579e-08
-1.12385e-09
1.61483e-09
0.000142174
-1.43334e-08
0.000222203
2.59637e-09
4.42186e-08
-0.000222234
2.4592e-09
0.000169687
-0.0001697
2.48053e-09
1.67275e-08
0.000228373
-4.22591e-08
1.66522e-09
-0.000142171
4.77263e-09
0.000222225
-4.221e-08
0.000169702
1.4509e-08
7.85314e-05
-7.85442e-05
-1.67161e-09
-6.99791e-09
-0.000192082
-2.42825e-09
2.74133e-08
-0.000261403
1.63792e-08
-4.81287e-09
-3.86551e-08
-0.000261427
-2.94746e-09
3.42942e-08
-1.45353e-09
-7.85265e-05
-1.61549e-08
-1.49675e-08
0.000261404
3.54325e-08
-0.000261429
-3.61136e-09
6.07662e-09
-2.48961e-08
-7.85398e-05
-3.81366e-08
1.35115e-08
-2.42083e-09
0.000142161
2.02072e-09
-1.00752e-08
4.24771e-08
-0.000222195
1.78428e-08
-4.30756e-08
-0.00016969
9.7914e-10
4.27548e-08
-0.000212355
6.22396e-09
6.19624e-09
-9.67356e-09
-1.19896e-08
0.000212364
3.54217e-09
7.99087e-05
1.10882e-09
-7.99133e-05
3.65342e-09
7.98975e-05
1.01245e-09
-7.99022e-05
9.14991e-09
1.11115e-08
-0.000212368
-9.61634e-09
7.99245e-05
-9.6701e-09
7.99134e-05
2.51922e-08
-1.14084e-08
0.000220914
-0.000220951
-1.05159e-08
3.34124e-08
-0.000250154
1.23625e-08
-6.0699e-08
-1.56165e-08
2.58539e-08
-2.54263e-09
-0.000276439
-7.21517e-09
9.3011e-09
-0.000181709
-2.17039e-08
9.88185e-09
-0.000250214
6.79007e-08
4.2425e-08
-0.000181723
-6.54531e-11
7.76724e-09
-3.72468e-08
2.48556e-08
-9.53789e-09
0.000220853
-0.00022089
-1.24235e-08
3.37732e-08
-0.000250059
1.27013e-08
-6.52169e-08
-1.56528e-08
2.38551e-08
-2.94699e-09
-0.000276384
-7.10851e-09
9.27792e-09
-0.000181665
-1.98491e-08
9.7491e-09
-0.000250123
7.05173e-08
4.2328e-08
-0.000181677
-1.55028e-10
1.00201e-08
-3.73636e-08
-0.000220931
-1.36367e-08
2.3394e-08
-3.93545e-08
1.14462e-08
0.0001817
-0.000181713
-2.38622e-08
0.000250179
4.1164e-08
6.75437e-08
-0.000250237
-3.1052e-08
1.00581e-08
1.13415e-08
-1.53745e-08
3.23061e-08
-0.000220967
-1.59941e-08
-6.33641e-08
-0.00022087
-1.39322e-08
2.13521e-08
-3.94376e-08
9.66322e-09
0.000181655
-0.000181667
-2.37674e-08
0.000250083
4.09468e-08
6.97205e-08
-0.000250146
-2.88401e-08
1.07919e-08
1.15358e-08
-1.55357e-08
3.26094e-08
-0.000220906
-1.62596e-08
-6.58517e-08
-5.21656e-09
-5.14834e-09
0.000212352
-7.99192e-05
-3.98412e-09
-7.99081e-05
-4.11959e-09
-9.71003e-05
-9.71046e-05
1.22245e-07
9.37441e-08
0.000242537
-0.000242688
-2.32953e-07
-2.44179e-07
-0.000271565
-0.000261295
2.03772e-08
-0.000261634
1.73227e-07
-0.000261581
-0.000261998
1.11595e-07
1.09206e-07
0.00024255
-0.000242702
-2.38817e-07
-2.43234e-07
-0.00027159
-0.000261664
9.99888e-08
-0.00026131
9.73705e-08
-0.000261986
-0.000261631
1.09526e-07
1.08804e-07
0.000242522
-0.000242674
-2.38466e-07
-2.43636e-07
-0.000271538
-0.000261627
9.71809e-08
-0.00026127
9.76454e-08
-0.000261951
-0.000261593
1.09297e-07
1.09245e-07
0.000242532
-0.000242684
-2.38468e-07
-2.4399e-07
-0.000271551
-0.000261249
9.69853e-08
-0.000261673
9.74104e-08
-0.00026157
-0.000261997
-0.00121498
2.52974e-07
-1.30453e-09
2.59695e-07
4.70712e-09
-0.00121545
2.58882e-07
-1.70665e-10
-0.0012147
-2.0426e-07
0.00123715
-1.74285e-08
-8.78858e-10
-0.0012366
-2.71215e-07
-6.8921e-09
1.32775e-09
1.95506e-07
1.97823e-07
-0.0011909
-0.00121502
2.52994e-07
-0.00121554
2.5751e-07
-1.06246e-09
2.52575e-07
-0.00121475
2.56526e-07
5.52856e-10
-0.00121526
0.0012372
6.03603e-10
-0.00123671
1.81755e-10
2.77365e-07
-0.0012146
-0.00121503
2.52179e-07
-2.47853e-08
2.51016e-07
-1.21062e-07
-0.00121452
-3.11092e-07
0.00123647
-1.26746e-07
-0.00123572
-3.66923e-07
-2.51803e-08
1.97131e-07
2.14424e-07
-0.00119072
-0.00121468
2.63491e-07
-0.00121514
2.52554e-07
2.74424e-07
-0.00121442
2.51224e-07
-0.00121497
0.00123658
-0.00123618
-0.000266517
1.78399e-07
3.9184e-09
0.000267281
-6.85946e-09
2.04739e-07
0.000249268
-0.000249429
-1.66025e-09
-3.76182e-09
0.000266962
5.57783e-09
-0.000267605
1.11234e-09
-1.60797e-07
0.00025026
1.17118e-10
-0.000267315
-1.26118e-08
0.000249405
2.76289e-09
0.000267567
-1.42466e-09
-2.15271e-08
-1.84067e-07
0.000264489
1.60056e-08
-0.000265206
-0.000260342
6.03505e-09
1.09987e-07
5.0484e-09
-0.000244445
-0.000250055
-1.67138e-07
-3.52398e-09
-0.00026046
8.42186e-10
-0.000250198
6.98155e-09
-2.04814e-07
7.11455e-09
0.000266483
-8.51916e-10
1.87999e-07
-1.14712e-10
-0.000249244
-1.77635e-07
-0.000266925
-6.13906e-09
-4.96791e-09
2.34925e-09
-0.000266568
1.78919e-07
3.88519e-09
-6.25579e-09
0.000267335
2.04181e-07
0.000249334
-1.16416e-09
-0.000249493
-3.40336e-09
0.00026699
-0.000267623
1.23723e-09
-1.61007e-07
0.000250292
-1.18345e-08
-0.000267367
2.84959e-09
0.00024947
0.000267592
-1.79229e-07
-1.90954e-08
0.000264536
-0.000265256
1.33477e-08
-0.000260357
3.86937e-09
2.57742e-09
1.0534e-07
-0.000244459
-0.000250117
-1.69274e-07
-2.88009e-09
-0.000250258
1.21906e-09
-0.000260472
7.27241e-09
-0.000264567
1.68396e-07
-2.90311e-09
1.81176e-07
0.000250136
-0.000250277
1.71751e-08
0.000260384
-0.000260498
-8.5824e-09
-9.00471e-08
-0.000265287
-2.02184e-07
5.18685e-09
0.000266536
-7.06041e-10
1.87938e-07
-0.000249311
-1.80053e-07
-0.000266955
-5.27243e-09
-1.02651e-07
-0.000242581
-9.99445e-08
2.24309e-07
2.2932e-07
0.000261699
-1.09568e-07
-0.000262019
-1.07007e-07
0.000261345
-0.000261664
-0.00024273
-1.92364e-08
-1.76849e-07
0.000264559
2.38315e-08
-0.000265281
-0.000260386
-1.24516e-09
9.82543e-08
2.44834e-09
-0.000244463
-0.000250126
-1.74026e-07
-2.99051e-09
-0.0002605
1.10568e-09
-0.000250267
-6.47651e-10
-2.02326e-07
8.505e-09
0.00026653
-0.000267317
-1.15853e-09
1.90632e-07
7.31821e-10
-0.000250278
-0.000249305
-1.82372e-07
-0.000266938
-4.52919e-09
-6.61492e-09
-0.000249466
4.31736e-09
-0.00026757
-1.79268e-07
-2.13341e-08
0.000264468
1.06765e-08
-0.00026518
-0.000260292
9.76143e-10
4.81203e-09
1.00464e-07
-0.000244389
-0.000250029
-1.69531e-07
-3.7926e-09
5.3264e-10
-0.00025017
-0.000260414
9.4751e-09
4.78587e-09
-2.02534e-07
0.000266465
-0.000267264
1.88236e-07
2.74509e-10
-0.00025025
-0.000266922
-5.32351e-09
-0.000249221
-1.79986e-07
-0.000267552
-0.000249382
-0.000266572
1.81824e-07
1.43081e-09
3.63066e-09
0.000267326
2.06208e-07
0.000249344
-4.0772e-09
-0.000249501
-4.52541e-09
0.000266977
6.506e-09
-0.00026762
1.50794e-09
-1.61626e-07
0.000250289
-1.95883e-10
-2.29461e-08
-0.000267355
5.10366e-09
0.00024948
0.000267579
-3.60816e-09
-2.13749e-08
-1.81315e-07
0.000264572
-0.000265292
2.38243e-08
-0.00026042
9.00653e-10
1.04979e-07
2.03533e-09
-0.000244502
-0.000250147
-1.71896e-07
-5.7962e-09
-0.00026054
-0.000250293
3.34025e-09
-3.3742e-09
-0.000264603
-7.54652e-10
1.71188e-07
1.83147e-07
0.000250166
-0.000250312
2.03826e-08
0.000260447
-0.000260565
-9.00081e-08
-8.67199e-09
-0.000265323
-2.04284e-07
8.39949e-09
0.00026654
-1.03066e-09
1.87349e-07
4.15151e-10
-0.000249321
-1.82761e-07
-0.000266942
-4.95311e-09
-6.39645e-09
3.75448e-09
-0.000266509
4.83306e-09
1.79307e-07
-9.38751e-09
0.000267276
-3.71187e-09
0.000266961
-0.000267595
2.0376e-07
0.000249265
-1.54735e-09
-0.000249423
-1.59007e-07
1.17029e-09
0.000250262
-9.7101e-09
-0.000267308
0.000267562
2.74166e-09
0.0002494
-1.78939e-07
-1.92643e-08
0.000264485
-0.000265199
1.0811e-08
-0.000260338
3.66934e-09
2.41324e-09
1.02847e-07
-0.000244436
-0.000250055
-1.69356e-07
-3.3986e-09
-0.000250196
9.73702e-10
-0.000260457
9.78015e-09
-0.000264516
1.68585e-07
-3.26494e-09
1.80878e-07
0.000250073
-0.000250214
1.77407e-08
0.000260364
-0.000260483
-8.49973e-09
-8.76438e-08
-0.00026523
4.78694e-09
-2.01733e-07
0.000266478
1.84829e-07
-4.02273e-10
-0.000266927
-5.59284e-09
-0.000249242
-1.80307e-07
-0.000266508
2.02249e-09
1.81765e-07
6.03703e-09
0.000267257
-4.39223e-09
0.000266946
3.00717e-09
-0.000267578
2.06151e-07
0.000249261
-0.000249419
-4.04504e-09
-1.61543e-07
1.54203e-09
0.000250248
2.79121e-11
-0.000267283
-2.55585e-08
0.000267544
-9.77395e-10
5.07177e-09
0.000249394
-2.16245e-08
-1.81425e-07
0.000264499
-0.000265222
2.64822e-08
-0.000260358
1.05974e-09
1.05444e-07
2.3036e-09
-0.000244445
-0.000250058
-1.71751e-07
-3.37493e-09
-0.000260478
-0.000250204
3.43355e-09
-8.41124e-10
1.71126e-07
-8.55177e-07
-0.000264531
-9.22808e-10
-0.000250077
8.54725e-09
8.13048e-09
-2.04335e-07
0.000266476
1.87489e-07
-1.18818e-09
-1.71164e-10
-0.000266913
-4.87177e-09
-4.0612e-09
-0.000249238
-1.8261e-07
7.39853e-10
-0.000266556
2.19409e-09
1.81751e-07
6.4154e-09
0.000267301
-6.51622e-09
0.000266976
-0.0002676
2.06168e-07
0.000249325
-3.82041e-09
-0.000249484
-1.61525e-07
1.36201e-09
0.00025028
-2.51322e-08
-0.000267333
0.000267569
5.17608e-09
0.000249461
-1.81537e-07
-1.91307e-08
0.000264545
-0.00026527
2.63982e-08
-0.000260374
3.74227e-09
2.35981e-09
1.05278e-07
-0.000244454
-0.000250114
-1.7159e-07
-5.58866e-09
-0.000250262
3.49708e-09
-0.000260492
-5.74436e-09
-0.000264577
1.7102e-07
-3.03106e-09
1.83241e-07
0.000250133
-0.000250281
1.74158e-08
0.000260401
-0.000260518
-8.65167e-09
-9.01859e-08
-0.000265302
7.55127e-09
-2.04387e-07
0.000266523
1.87544e-07
-8.11801e-10
-0.000266941
-3.43447e-09
-0.000249302
-1.82536e-07
-0.000242563
-9.97024e-08
-1.00027e-07
2.24004e-07
2.29322e-07
-1.07022e-07
0.000261285
-0.000261604
-1.0713e-07
0.000261711
-0.000262031
-0.000242712
-8.44579e-07
-8.44879e-07
-0.00114621
4.46863e-07
4.52984e-07
0.001147
-0.00113705
-1.51023e-06
8.45112e-07
4.15406e-07
0.00113754
-4.96482e-07
1.12594e-06
1.26517e-07
7.23812e-07
-5.35469e-07
-1.23898e-06
5.31178e-08
-0.00113669
-1.50643e-06
8.46602e-07
4.17941e-07
0.00113719
-4.97062e-07
1.11827e-06
1.2049e-07
7.24296e-07
-5.37488e-07
-1.2384e-06
5.66472e-08
-0.000276415
1.541e-06
1.50624e-06
-4.93227e-07
-4.98927e-07
0.00027436
-1.16209e-06
-1.12153e-06
0.000276433
-0.000274336
8.93972e-08
9.7103e-08
0.00113622
8.49573e-07
-0.00113572
4.18552e-07
-1.55005e-06
1.31422e-07
-5.05499e-07
-1.24568e-06
4.86016e-08
-5.36749e-07
7.24955e-07
1.16812e-06
0.00113668
8.49524e-07
-0.00113618
4.18336e-07
-1.55541e-06
1.34437e-07
-5.07571e-07
-1.25181e-06
5.4229e-08
-5.42613e-07
7.30502e-07
-1.12459e-06
0.000276461
-0.000274358
9.24453e-08
9.74722e-08
0.00113734
8.50234e-07
-0.00113684
4.1747e-07
-1.50984e-06
1.25731e-07
-5.00048e-07
-1.24852e-06
5.45017e-08
-5.42298e-07
7.25203e-07
1.15885e-06
0.00113634
8.55786e-07
-0.00113584
4.19853e-07
-1.5464e-06
1.29441e-07
-5.04629e-07
-1.24665e-06
5.45141e-08
-5.42603e-07
7.24515e-07
8.55442e-07
-0.00113655
4.17209e-07
-1.51217e-06
1.26116e-07
-4.99171e-07
-1.24588e-06
5.1439e-08
7.22179e-07
-5.39686e-07
1.15335e-06
0.00113613
8.55829e-07
-0.00113563
4.19829e-07
-1.54094e-06
1.24144e-07
-4.99027e-07
-1.24654e-06
5.14823e-08
-5.42601e-07
7.24546e-07
-1.11809e-06
0.000276407
-0.000274318
9.15127e-08
9.66161e-08
8.50531e-07
-0.0011362
4.29434e-07
-1.50591e-06
1.21184e-07
-4.9614e-07
-1.24352e-06
5.46851e-08
7.21799e-07
-5.42472e-07
1.11558e-06
0.00113724
8.50653e-07
-0.00113673
4.23965e-07
-1.50894e-06
1.21481e-07
-4.99055e-07
-1.241e-06
5.17072e-08
-5.399e-07
7.19349e-07
-0.000274335
9.15309e-08
9.68731e-08
1.5479e-06
1.50758e-06
-4.88972e-07
-4.97145e-07
0.000274364
-1.15684e-06
-1.14106e-06
-0.000274431
1.33782e-07
7.02672e-08
0.000276525
4.16406e-07
0.00113671
-5.01958e-07
1.1638e-06
1.32534e-07
7.26412e-07
-5.32705e-07
-1.24167e-06
5.0117e-08
-1.5535e-06
8.44694e-07
4.16655e-07
0.00113717
-5.04898e-07
1.16946e-06
1.3481e-07
7.32133e-07
-5.38392e-07
-1.24767e-06
5.5906e-08
7.95628e-07
-0.00113767
4.15814e-07
-1.5454e-06
1.21924e-07
-5.01907e-07
-1.23393e-06
2.87357e-08
-5.39128e-07
7.23304e-07
0.00113825
1.17401e-06
8.29158e-07
-0.00113812
4.10087e-07
-1.54806e-06
1.38973e-07
-4.95904e-07
-1.23173e-06
6.04757e-08
-5.25828e-07
7.3432e-07
0.00113857
-4.91914e-07
-4.96637e-07
0.000274386
-1.13044e-06
-0.000274445
1.01333e-07
1.06377e-07
0.000276542
4.20263e-07
0.00113782
-4.96348e-07
1.12327e-06
1.26937e-07
7.29475e-07
-5.38177e-07
-1.24169e-06
5.6068e-08
-1.54693e-06
8.46278e-07
4.19513e-07
0.00113683
-5.05543e-07
1.15898e-06
1.28714e-07
7.26994e-07
-5.37618e-07
-1.24153e-06
5.64742e-08
8.40794e-07
-0.00113875
4.42513e-07
-1.49133e-06
1.44999e-07
-4.76779e-07
-1.22051e-06
9.1804e-08
-5.09464e-07
7.37107e-07
0.00113905
1.16603e-06
8.28599e-07
-0.00113778
4.04096e-07
-1.53864e-06
1.36539e-07
-4.90991e-07
-1.22928e-06
6.03853e-08
-5.25977e-07
7.30969e-07
0.00113824
8.46082e-07
4.1909e-07
0.00113662
-4.99247e-07
1.15376e-06
1.23618e-07
7.26895e-07
-5.35025e-07
5.3401e-08
-1.24155e-06
8.2924e-07
-0.00113849
4.09256e-07
-1.50481e-06
1.30649e-07
-4.87532e-07
-1.22581e-06
5.76882e-08
-5.22946e-07
7.28763e-07
0.00113895
1.16035e-06
8.28572e-07
-0.00113757
4.09535e-07
-1.53314e-06
1.30991e-07
-4.85559e-07
-1.22635e-06
5.74825e-08
-5.23183e-07
7.28245e-07
0.00113802
-4.94041e-07
-4.98897e-07
0.000274347
-1.1252e-06
-0.000274405
9.92286e-08
1.06961e-07
0.00027649
8.46524e-07
4.2306e-07
0.00113773
-4.96487e-07
1.1188e-06
1.20986e-07
7.21753e-07
-5.35037e-07
5.36137e-08
-1.23598e-06
8.28722e-07
-0.00113813
4.08276e-07
-1.49815e-06
1.28284e-07
-4.82513e-07
-1.22612e-06
6.06118e-08
-5.25791e-07
7.28205e-07
0.00113858
1.12537e-06
8.28815e-07
-0.00113867
4.08254e-07
-1.49836e-06
1.28352e-07
-4.82816e-07
-1.22365e-06
5.7669e-08
-5.23271e-07
7.25798e-07
0.00113913
-0.000274419
1.01678e-07
1.06998e-07
0.000276496
-0.00114541
4.49109e-07
4.49808e-07
0.00114621
-0.00114541
4.49112e-07
4.49575e-07
0.00114582
-0.00114503
4.49326e-07
4.72283e-07
0.00114602
-0.00114523
4.49439e-07
4.66782e-07
-1.31018e-10
9.49588e-08
0.00023579
-0.000235856
-2.24916e-08
-7.17435e-09
-0.000196882
-2.47647e-09
1.09814e-07
-8.59661e-09
0.000196783
-0.000236193
1.43959e-10
2.10807e-07
0.000236057
-6.60439e-08
-8.22737e-09
8.58381e-09
3.13293e-08
0.00019661
-2.93665e-09
-0.000196647
-9.89297e-05
2.4447e-09
4.24425e-08
9.88848e-05
-8.63891e-09
1.71427e-08
9.88231e-05
-9.88316e-05
9.24405e-08
-2.39676e-10
0.000235822
-0.000235883
-7.15138e-09
-2.4569e-08
-0.000196911
-2.45028e-09
1.07689e-07
-8.61191e-09
0.000196814
-0.000236222
2.10898e-07
9.81532e-11
0.000236084
-8.42507e-09
-6.4025e-08
8.60588e-09
3.34359e-08
0.00019664
-2.92826e-09
-0.000196679
4.47031e-07
4.47384e-07
0.00114701
4.47977e-07
4.48415e-07
0.00114661
4.47895e-07
4.48302e-07
0.00114682
-0.00114857
4.40113e-07
4.69166e-07
0.00114929
-0.00114859
4.40156e-07
4.408e-07
0.00114937
-0.00114818
4.34155e-07
4.40533e-07
0.00114897
-0.0011484
4.398e-07
4.40481e-07
0.00114917
-9.49994e-08
-1.80373e-09
0.000260027
-0.000259916
-1.87399e-08
4.617e-09
-0.000252841
-3.9175e-08
-1.09752e-07
3.20054e-07
4.06798e-08
0.000252629
0.00113905
-0.00113837
2.38925e-09
8.95889e-07
7.87924e-07
-1.18682e-06
-1.35565e-06
5.89311e-07
4.14139e-07
1.12703e-06
0.00113802
8.40376e-07
-1.23461e-06
5.47441e-08
-5.31167e-07
7.2555e-07
-1.5088e-06