/*--------------------------------*- C++ -*----------------------------------*\
| =========                 |                                                 |
| \\      /  F ield         | OpenFOAM: The Open Source CFD Toolbox           |
|  \\    /   O peration     | Version:  v1906                                 |
|   \\  /    A nd           | Web:      www.OpenFOAM.com                      |
|    \\/     M anipulation  |                                                 |
\*---------------------------------------------------------------------------*/
FoamFile
{
    version     2.0;
    format      ascii;
    class       volVectorField;
    location    "250";
    object      U;
}
// * * * * * * * * * * * * * * * * * * * * * * * * * * * * * * * * * * * * * //

dimensions      [0 1 -1 0 0 0 0];


internalField   nonuniform List<vector> 
42840
(
(1.94231e-05 1.92637e-05 0.113168)
(-1.29377e-05 3.03033e-06 0.108214)
(3.02427e-06 -1.34854e-05 0.108213)
(-4.12959e-05 -4.13638e-05 0.104669)
(2.26488e-05 2.29843e-05 0.11317)
(-1.24747e-05 1.54241e-05 0.108157)
(1.56607e-05 -1.15291e-05 0.108156)
(-5.01136e-05 -4.97852e-05 0.104611)
(1.36622e-05 1.33721e-05 0.113176)
(-7.80592e-06 -5.19925e-06 0.108107)
(-5.70127e-06 -8.81217e-06 0.108105)
(-3.34384e-05 -3.3894e-05 0.10457)
(1.59799e-05 1.61525e-05 0.113149)
(-3.98277e-06 1.63411e-05 0.108049)
(1.68389e-05 -2.84658e-06 0.108049)
(-4.41558e-05 -4.37713e-05 0.10453)
(1.35493e-05 1.34373e-05 0.113154)
(-5.27746e-06 -9.45135e-06 0.108)
(-9.81e-06 -6.4988e-06 0.107998)
(-3.68494e-05 -3.72031e-05 0.104465)
(-2.663e-05 -2.6193e-05 0.113054)
(3.90819e-05 -2.26e-05 0.107961)
(-2.24063e-05 4.03836e-05 0.107961)
(2.7824e-06 3.32734e-06 0.104524)
(4.57422e-05 4.53682e-05 0.112959)
(-1.81019e-05 2.79128e-05 0.107756)
(2.76992e-05 -1.89072e-05 0.107755)
(-4.86937e-05 -4.92766e-05 0.104291)
(1.36797e-05 1.3613e-05 0.113004)
(-2.91654e-05 9.13333e-06 0.107769)
(9.54183e-06 -2.91233e-05 0.107767)
(-6.50134e-05 -6.48342e-05 0.104272)
(-2.50846e-05 -2.48662e-05 0.113071)
(1.6586e-06 -4.83587e-06 0.108034)
(-5.10541e-06 1.88959e-06 0.108033)
(-4.81358e-05 -4.80644e-05 0.104582)
(-3.2622e-05 -3.27005e-05 0.113017)
(5.36932e-05 -3.27764e-05 0.108021)
(-3.28693e-05 5.36044e-05 0.108021)
(1.06375e-05 1.04495e-05 0.104612)
(-8.07621e-05 -8.07373e-05 0.112712)
(0.000115399 -5.9127e-05 0.107796)
(-5.89784e-05 0.000115277 0.107794)
(5.02107e-05 5.03624e-05 0.104473)
(-9.81605e-05 -9.80292e-05 0.112335)
(0.000109761 -5.68899e-05 0.107671)
(-5.69009e-05 0.000109822 0.10767)
(3.71351e-05 3.716e-05 0.104434)
(-6.83358e-05 -6.83325e-05 0.112105)
(6.31129e-05 -3.58027e-05 0.107659)
(-3.58451e-05 6.31371e-05 0.107659)
(5.22829e-06 5.19941e-06 0.104479)
(-3.14058e-05 -3.14737e-05 0.112016)
(2.37309e-05 -1.46821e-05 0.107696)
(-1.4686e-05 2.36887e-05 0.107695)
(-1.95153e-05 -1.95333e-05 0.104543)
(-8.41936e-06 -8.44223e-06 0.112)
(3.68134e-06 -2.66367e-06 0.107728)
(-2.64973e-06 3.64698e-06 0.107727)
(-3.10255e-05 -3.10314e-05 0.104584)
(3.46334e-07 3.63141e-07 0.112005)
(-1.93979e-06 1.48033e-06 0.10774)
(1.4822e-06 -1.92854e-06 0.107738)
(-3.39162e-05 -3.39029e-05 0.104596)
(6.96967e-07 7.17321e-07 0.112007)
(-9.51492e-07 1.29274e-06 0.107738)
(1.28478e-06 -9.41312e-07 0.107737)
(-3.30711e-05 -3.30719e-05 0.104593)
(-8.54931e-07 -8.47937e-07 0.112005)
(3.28028e-07 4.43057e-07 0.107735)
(4.38085e-07 3.27094e-07 0.107734)
(-3.23404e-05 -3.23406e-05 0.10459)
(-1.23753e-06 -1.23381e-06 0.112003)
(3.07473e-07 3.01668e-07 0.107734)
(3.00756e-07 3.04906e-07 0.107733)
(-3.23805e-05 -3.23817e-05 0.104591)
(-9.35858e-07 -9.35996e-07 0.112002)
(-8.14051e-08 5.10067e-07 0.107735)
(5.1575e-07 -8.42498e-08 0.107734)
(-3.26247e-05 -3.26275e-05 0.104591)
(-6.99099e-07 -6.91237e-07 0.112001)
(-2.68172e-07 6.91124e-07 0.107735)
(6.80951e-07 -2.62671e-07 0.107734)
(-3.27817e-05 -3.27741e-05 0.104592)
(-5.77755e-07 -5.64463e-07 0.112001)
(-3.0443e-07 6.55691e-07 0.107735)
(6.57371e-07 -2.88517e-07 0.107734)
(-3.27597e-05 -3.27375e-05 0.104592)
(-5.4853e-07 -5.49251e-07 0.112001)
(-3.51353e-07 7.40115e-07 0.107735)
(7.50003e-07 -3.46288e-07 0.107734)
(-3.28526e-05 -3.28423e-05 0.104592)
(-5.27395e-07 -5.22056e-07 0.112001)
(-3.51702e-07 7.58951e-07 0.107735)
(7.48575e-07 -3.43602e-07 0.107734)
(-3.28306e-05 -3.28184e-05 0.104592)
(-5.5483e-07 -5.47868e-07 0.112001)
(-3.38284e-07 6.93622e-07 0.107735)
(6.98792e-07 -3.37406e-07 0.107734)
(-3.27826e-05 -3.278e-05 0.104592)
(-5.72749e-07 -5.69231e-07 0.112001)
(-3.21746e-07 6.8638e-07 0.107735)
(6.83363e-07 -3.20625e-07 0.107734)
(-3.27939e-05 -3.27951e-05 0.104592)
(-4.6819e-05 -4.69414e-05 0.104836)
(4.92879e-06 1.49905e-05 0.108224)
(-5.24762e-06 1.52124e-05 0.108223)
(4.67631e-05 -4.67678e-05 0.104836)
(1.51193e-05 4.88531e-06 0.108226)
(1.52646e-05 -5.21819e-06 0.108222)
(-1.52149e-05 5.02006e-06 0.108226)
(-1.52981e-05 -5.15069e-06 0.108223)
(-4.68167e-05 4.66632e-05 0.104835)
(5.01032e-06 -1.52643e-05 0.108225)
(-5.07902e-06 -1.50687e-05 0.108225)
(4.67714e-05 4.68243e-05 0.104835)
(4.13208e-05 4.11439e-05 0.10467)
(-3.80785e-05 -3.75547e-05 0.10478)
(3.07927e-06 1.30294e-05 0.108213)
(-3.1821e-06 1.35313e-05 0.108211)
(1.39422e-05 1.09449e-05 0.108171)
(-1.34263e-05 1.0212e-05 0.10817)
(-4.1164e-05 4.13339e-05 0.104669)
(3.78484e-05 -3.81171e-05 0.104781)
(1.33124e-05 3.14936e-06 0.108214)
(1.30387e-05 -3.05788e-06 0.108211)
(1.01943e-05 1.38691e-05 0.108173)
(1.08563e-05 -1.36009e-05 0.10817)
(-1.33701e-05 -3.45063e-06 0.108211)
(-1.04985e-05 1.37856e-05 0.108174)
(-1.02397e-05 -1.33241e-05 0.108171)
(4.11228e-05 -4.14374e-05 0.104669)
(-3.74311e-05 3.8371e-05 0.10478)
(-3.31015e-06 -1.34737e-05 0.108213)
(1.39129e-05 -9.86302e-06 0.108173)
(-1.33812e-05 -1.004e-05 0.108172)
(3.80363e-05 3.82531e-05 0.10478)
(5.00354e-05 5.04443e-05 0.104611)
(-4.9713e-05 -5.0307e-05 0.104725)
(1.53961e-05 1.27834e-05 0.108154)
(-1.51012e-05 1.18529e-05 0.108154)
(-2.74218e-07 1.22741e-05 0.108113)
(-3.73103e-07 1.3344e-05 0.108112)
(-5.04075e-05 5.00072e-05 0.104612)
(5.00323e-05 -4.95713e-05 0.104724)
(1.2002e-05 1.51986e-05 0.108156)
(1.30341e-05 -1.53321e-05 0.108153)
(1.3119e-05 -2.12963e-07 0.108115)
(1.21113e-05 -1.25225e-07 0.108111)
(-1.20097e-05 -1.47667e-05 0.108154)
(-1.25859e-05 -1.58638e-07 0.108115)
(-1.31722e-05 -6.40752e-07 0.108112)
(5.08146e-05 -4.98644e-05 0.104611)
(-5.07408e-05 4.92218e-05 0.104724)
(-1.49058e-05 -1.14353e-05 0.108155)
(-5.31042e-07 -1.36016e-05 0.108114)
(-4.6147e-07 -1.34889e-05 0.108114)
(4.96006e-05 4.92307e-05 0.104723)
(3.33414e-05 3.28601e-05 0.104571)
(-4.38241e-05 -4.31862e-05 0.104693)
(-5.19212e-06 7.43881e-06 0.108105)
(4.60815e-06 8.53451e-06 0.108103)
(6.5068e-06 -2.07113e-06 0.108068)
(-5.88765e-06 -3.28389e-06 0.108067)
(-3.30538e-05 3.34165e-05 0.10457)
(4.33777e-05 -4.41355e-05 0.104693)
(8.11494e-06 -4.97779e-06 0.108106)
(6.93491e-06 4.91108e-06 0.108103)
(-3.09357e-06 6.24494e-06 0.10807)
(-1.75241e-06 -6.01135e-06 0.108067)
(-8.39868e-06 4.40537e-06 0.108103)
(2.28527e-06 6.23595e-06 0.10807)
(3.07392e-06 -5.23749e-06 0.108067)
(3.21947e-05 -3.38123e-05 0.10457)
(-4.2702e-05 4.44956e-05 0.104693)
(4.59108e-06 -8.9213e-06 0.108105)
(6.60364e-06 3.67637e-06 0.108069)
(-5.34422e-06 3.57524e-06 0.108069)
(4.42045e-05 4.46242e-05 0.104693)
(4.45566e-05 4.49257e-05 0.104529)
(-3.65626e-05 -3.71216e-05 0.104605)
(1.65274e-05 4.31393e-06 0.108047)
(-1.58559e-05 3.21396e-06 0.108047)
(8.8389e-06 1.71193e-05 0.107999)
(-9.15992e-06 1.83354e-05 0.107998)
(-4.48453e-05 4.42447e-05 0.10453)
(3.72042e-05 -3.62641e-05 0.104606)
(3.67429e-06 1.60373e-05 0.108049)
(4.99449e-06 -1.6043e-05 0.108045)
(1.79829e-05 8.92416e-06 0.108)
(1.68571e-05 -9.36361e-06 0.107997)
(-3.27131e-06 -1.55579e-05 0.108047)
(-1.70492e-05 8.95131e-06 0.108001)
(-1.80629e-05 -1.01783e-05 0.107998)
(4.56276e-05 -4.39129e-05 0.104529)
(-3.75144e-05 3.58666e-05 0.104604)
(-1.55714e-05 -2.77355e-06 0.108048)
(8.6762e-06 -1.85491e-05 0.108)
(-9.87011e-06 -1.84921e-05 0.108)
(3.62415e-05 3.58002e-05 0.104604)
(3.63173e-05 3.60348e-05 0.104466)
(-8.39644e-05 -8.31604e-05 0.104671)
(-9.64443e-06 5.41154e-06 0.107998)
(9.16284e-06 6.36556e-06 0.107996)
(-3.46064e-05 -3.89079e-05 0.107983)
(3.45198e-05 -3.98152e-05 0.107982)
(-3.59119e-05 3.66529e-05 0.104466)
(8.31275e-05 -8.41945e-05 0.104671)
(5.75544e-06 -9.19664e-06 0.107999)
(4.7857e-06 9.00816e-06 0.107996)
(-3.97522e-05 -3.442e-05 0.107985)
(-3.87725e-05 3.49774e-05 0.107982)
(-6.24822e-06 8.42289e-06 0.107996)
(3.88766e-05 -3.45982e-05 0.107986)
(3.94687e-05 3.57069e-05 0.107982)
(3.54354e-05 -3.71192e-05 0.104465)
(-8.29836e-05 8.44968e-05 0.10467)
(8.53383e-06 -6.55303e-06 0.107998)
(-3.43711e-05 4.01305e-05 0.107984)
(3.52068e-05 4.00827e-05 0.107983)
(8.39521e-05 8.45807e-05 0.104669)
(-2.60797e-06 -2.09672e-06 0.104524)
(-3.38867e-05 -3.45169e-05 0.104455)
(-2.25101e-05 -3.93316e-05 0.107959)
(2.25615e-05 -4.01689e-05 0.107958)
(2.29473e-05 3.97267e-06 0.107809)
(-2.2874e-05 4.44989e-06 0.107809)
(1.91477e-06 -2.91885e-06 0.104524)
(3.44349e-05 -3.36814e-05 0.104455)
(-3.98527e-05 -2.27125e-05 0.107961)
(-3.88988e-05 2.3054e-05 0.107958)
(4.33146e-06 2.26392e-05 0.107811)
(3.87732e-06 -2.31099e-05 0.107807)
(3.99165e-05 2.37864e-05 0.107958)
(-4.05398e-06 2.28966e-05 0.107811)
(-4.20474e-06 -2.34707e-05 0.107809)
(-1.79096e-06 3.19346e-06 0.104524)
(-3.47146e-05 3.35414e-05 0.104454)
(2.34214e-05 4.04651e-05 0.10796)
(2.25194e-05 -4.57044e-06 0.107811)
(-2.30042e-05 -4.58184e-06 0.107811)
(3.4048e-05 3.34647e-05 0.104455)
(4.87495e-05 4.82679e-05 0.104291)
(-1.36165e-05 -1.35417e-05 0.104372)
(2.80307e-05 1.82249e-05 0.107754)
(-2.7915e-05 1.88331e-05 0.107753)
(1.48089e-05 3.38374e-05 0.107721)
(-1.44287e-05 3.37678e-05 0.10772)
(-4.82629e-05 4.89348e-05 0.104291)
(1.38677e-05 -1.38287e-05 0.104373)
(1.86287e-05 2.79079e-05 0.107755)
(1.79884e-05 -2.82484e-05 0.107752)
(3.38604e-05 1.47238e-05 0.107722)
(3.3955e-05 -1.46283e-05 0.10772)
(-1.86097e-05 -2.88197e-05 0.107754)
(-3.34542e-05 1.45505e-05 0.107724)
(-3.37682e-05 -1.47616e-05 0.10772)
(4.80148e-05 -4.91305e-05 0.104291)
(-1.33311e-05 1.38664e-05 0.104372)
(-2.83414e-05 -1.90221e-05 0.107755)
(1.49523e-05 -3.3591e-05 0.107722)
(-1.4715e-05 -3.36203e-05 0.107721)
(1.36292e-05 1.37649e-05 0.104371)
(6.50321e-05 6.51236e-05 0.104273)
(-2.54029e-05 -2.52763e-05 0.104704)
(9.24818e-06 2.94837e-05 0.107766)
(-9.06212e-06 2.92824e-05 0.107766)
(-1.8276e-06 4.71038e-06 0.107978)
(1.3563e-06 4.6173e-06 0.107978)
(-6.49036e-05 6.48169e-05 0.104274)
(2.50657e-05 -2.53197e-05 0.104704)
(2.9401e-05 9.22966e-06 0.107767)
(2.97006e-05 -9.12319e-06 0.107765)
(4.51597e-06 -1.6708e-06 0.10798)
(4.73158e-06 1.55799e-06 0.107976)
(-2.93345e-05 -9.0406e-06 0.107765)
(-4.86013e-06 -1.6045e-06 0.107981)
(-4.68655e-06 1.93378e-06 0.107978)
(6.53747e-05 -6.48036e-05 0.104273)
(-2.53275e-05 2.52413e-05 0.104703)
(-9.12018e-06 -2.91092e-05 0.107766)
(-1.74669e-06 -4.60063e-06 0.107979)
(1.76999e-06 -4.54029e-06 0.107979)
(2.53232e-05 2.54257e-05 0.104703)
(4.80642e-05 4.81421e-05 0.104583)
(-7.65236e-05 -7.66514e-05 0.104772)
(-5.04079e-06 -1.91988e-06 0.108032)
(4.52975e-06 -1.93601e-06 0.108032)
(-2.3239e-05 -3.676e-05 0.108057)
(2.3266e-05 -3.66738e-05 0.108055)
(-4.8385e-05 4.8114e-05 0.104582)
(7.6611e-05 -7.66494e-05 0.104771)
(-2.06551e-06 -4.91227e-06 0.108034)
(-1.97827e-06 4.74871e-06 0.10803)
(-3.66773e-05 -2.33769e-05 0.108058)
(-3.67884e-05 2.32693e-05 0.108055)
(1.89039e-06 5.05825e-06 0.108032)
(3.65748e-05 -2.34144e-05 0.108058)
(3.66806e-05 2.31644e-05 0.108056)
(4.80246e-05 -4.82653e-05 0.104582)
(-7.67888e-05 7.65248e-05 0.104771)
(4.95204e-06 1.95227e-06 0.108033)
(-2.35991e-05 3.65503e-05 0.108057)
(2.33568e-05 3.65146e-05 0.108057)
(7.66326e-05 7.64419e-05 0.104771)
(-1.05329e-05 -1.06603e-05 0.104613)
(-0.000117346 -0.0001173 0.104611)
(-3.25479e-05 -5.37776e-05 0.10802)
(3.27613e-05 -5.36814e-05 0.108018)
(-5.56579e-05 -0.00010387 0.107847)
(5.59155e-05 -0.000103802 0.107846)
(1.06915e-05 -1.06821e-05 0.104612)
(0.000117458 -0.00011726 0.104611)
(-5.36747e-05 -3.27467e-05 0.108021)
(-5.37644e-05 3.26876e-05 0.108018)
(-0.000103897 -5.57671e-05 0.107848)
(-0.000103843 5.58176e-05 0.107846)
(5.37251e-05 3.25009e-05 0.108019)
(0.000104089 -5.57141e-05 0.107849)
(0.00010386 5.56637e-05 0.107846)
(-1.07763e-05 1.05538e-05 0.104612)
(-0.000117208 0.000117358 0.10461)
(3.27275e-05 5.35539e-05 0.10802)
(-5.55892e-05 0.000103949 0.107848)
(5.56955e-05 0.00010395 0.107847)
(0.000117206 0.000117284 0.10461)
(-5.04233e-05 -5.03061e-05 0.104474)
(-0.000106257 -0.000106204 0.104541)
(-5.91042e-05 -0.000115146 0.107793)
(5.93078e-05 -0.000115115 0.107793)
(-6.00528e-05 -0.000117839 0.107687)
(6.00175e-05 -0.000117888 0.107687)
(5.04488e-05 -5.02987e-05 0.104474)
(0.000106178 -0.000106261 0.104542)
(-0.000115233 -5.91699e-05 0.107795)
(-0.000115137 5.92141e-05 0.107792)
(-0.000117972 -6.00077e-05 0.107688)
(-0.0001178 6.00388e-05 0.107686)
(0.000115142 5.91204e-05 0.107793)
(0.000117954 -5.99797e-05 0.107689)
(0.000117888 6.01023e-05 0.107686)
(-5.02321e-05 5.03892e-05 0.104473)
(-0.000106177 0.000106228 0.104541)
(5.90976e-05 0.000115309 0.107794)
(-5.99389e-05 0.000117984 0.107688)
(6.00279e-05 0.000117986 0.107688)
(0.000106199 0.000106237 0.104541)
(-3.71785e-05 -3.71275e-05 0.104434)
(-7.47662e-05 -7.47669e-05 0.104573)
(-5.69547e-05 -0.000109698 0.107669)
(5.68829e-05 -0.000109756 0.107668)
(-4.16493e-05 -7.51272e-05 0.107653)
(4.16008e-05 -7.51544e-05 0.107652)
(3.70753e-05 -3.72002e-05 0.104434)
(7.47468e-05 -7.48058e-05 0.104573)
(-0.000109819 -5.69201e-05 0.10767)
(-0.000109655 5.6927e-05 0.107667)
(-7.51851e-05 -4.16711e-05 0.107654)
(-7.51475e-05 4.16496e-05 0.107652)
(0.000109764 5.70042e-05 0.107668)
(7.51279e-05 -4.16741e-05 0.107655)
(7.51626e-05 4.16665e-05 0.107653)
(-3.71258e-05 3.71366e-05 0.104434)
(-7.48338e-05 7.47731e-05 0.104572)
(5.69567e-05 0.000109811 0.10767)
(-4.17368e-05 7.51799e-05 0.107654)
(4.16862e-05 7.51647e-05 0.107654)
(7.48055e-05 7.47797e-05 0.104572)
(-5.17893e-06 -5.20714e-06 0.10448)
(-4.91941e-05 -4.92347e-05 0.104636)
(-3.57574e-05 -6.31172e-05 0.107657)
(3.57257e-05 -6.31212e-05 0.107657)
(-1.91606e-05 -3.18256e-05 0.107684)
(1.91544e-05 -3.17714e-05 0.107683)
(5.17714e-06 -5.24855e-06 0.10448)
(4.92127e-05 -4.91997e-05 0.104636)
(-6.31417e-05 -3.57832e-05 0.107659)
(-6.31432e-05 3.57586e-05 0.107656)
(-3.179e-05 -1.92177e-05 0.107685)
(-3.182e-05 1.91532e-05 0.107683)
(6.31275e-05 3.57528e-05 0.107657)
(3.18172e-05 -1.92069e-05 0.107686)
(3.17761e-05 1.91206e-05 0.107683)
(-5.28615e-06 5.16376e-06 0.104479)
(-4.9233e-05 4.91846e-05 0.104636)
(3.57848e-05 6.31286e-05 0.107658)
(-1.92174e-05 3.17861e-05 0.107685)
(1.91804e-05 3.17885e-05 0.107685)
(4.91867e-05 4.91714e-05 0.104635)
(1.95164e-05 1.94625e-05 0.104544)
(-3.66291e-05 -3.66342e-05 0.104682)
(-1.46416e-05 -2.3728e-05 0.107694)
(1.46438e-05 -2.36822e-05 0.107694)
(-4.8045e-06 -6.98792e-06 0.10772)
(4.84639e-06 -6.95522e-06 0.107719)
(-1.94969e-05 1.9491e-05 0.104544)
(3.66718e-05 -3.66261e-05 0.104682)
(-2.3702e-05 -1.46979e-05 0.107696)
(-2.37291e-05 1.4634e-05 0.107693)
(-6.96826e-06 -4.84313e-06 0.107721)
(-6.98537e-06 4.83057e-06 0.107719)
(2.36869e-05 1.46046e-05 0.107694)
(7.01423e-06 -4.84505e-06 0.107722)
(6.9716e-06 4.81076e-06 0.107719)
(1.94623e-05 -1.95418e-05 0.104543)
(-3.66307e-05 3.66449e-05 0.104681)
(1.46651e-05 2.36991e-05 0.107695)
(-4.83378e-06 6.97332e-06 0.107721)
(4.85348e-06 6.97491e-06 0.10772)
(3.66308e-05 3.66256e-05 0.104681)
(3.10333e-05 3.10201e-05 0.104585)
(-3.30763e-05 -3.30594e-05 0.104697)
(-2.6275e-06 -3.6379e-06 0.107726)
(2.67321e-06 -3.62e-06 0.107725)
(1.05434e-06 1.45765e-06 0.107736)
(-1.02104e-06 1.45503e-06 0.107736)
(-3.09969e-05 3.10132e-05 0.104585)
(3.3099e-05 -3.3077e-05 0.104697)
(-3.63642e-06 -2.6558e-06 0.107727)
(-3.63964e-06 2.65963e-06 0.107725)
(1.42725e-06 1.03413e-06 0.107738)
(1.46506e-06 -1.01896e-06 0.107735)
(3.63672e-06 2.64462e-06 0.107725)
(-1.40644e-06 1.02704e-06 0.107738)
(-1.44408e-06 -1.01742e-06 0.107736)
(3.10146e-05 -3.10346e-05 0.104584)
(-3.30574e-05 3.31059e-05 0.104697)
(2.67697e-06 3.6484e-06 0.107726)
(1.03463e-06 -1.39998e-06 0.107737)
(-1.01141e-06 -1.4075e-06 0.107737)
(3.30693e-05 3.30903e-05 0.104696)
(3.39164e-05 3.39167e-05 0.104596)
(-3.37101e-05 -3.36983e-05 0.104695)
(1.49623e-06 1.99148e-06 0.107738)
(-1.47966e-06 1.98146e-06 0.107737)
(1.53117e-06 1.42844e-06 0.107737)
(-1.56894e-06 1.4287e-06 0.107736)
(-3.39014e-05 3.38911e-05 0.104596)
(3.3687e-05 -3.36962e-05 0.104696)
(1.9538e-06 1.47891e-06 0.107739)
(1.99687e-06 -1.47603e-06 0.107736)
(1.39696e-06 1.51348e-06 0.107738)
(1.44134e-06 -1.56242e-06 0.107736)
(-1.97145e-06 -1.47072e-06 0.107737)
(-1.40862e-06 1.53911e-06 0.107739)
(-1.42529e-06 -1.54158e-06 0.107736)
(3.39104e-05 -3.39096e-05 0.104596)
(-3.36841e-05 3.36955e-05 0.104695)
(-1.4646e-06 -1.93297e-06 0.107738)
(1.53144e-06 -1.39408e-06 0.107738)
(-1.52658e-06 -1.3965e-06 0.107738)
(3.36891e-05 3.36955e-05 0.104695)
(3.30572e-05 3.30513e-05 0.104594)
(-3.4496e-05 -3.44931e-05 0.104692)
(1.28394e-06 9.66103e-07 0.107736)
(-1.33275e-06 9.68132e-07 0.107735)
(5.9083e-07 -1.41886e-07 0.107733)
(-6.17492e-07 -1.28926e-07 0.107733)
(-3.30847e-05 3.30453e-05 0.104594)
(3.44813e-05 -3.44851e-05 0.104692)
(9.35113e-07 1.26451e-06 0.107737)
(9.76136e-07 -1.32514e-06 0.107735)
(-1.61744e-07 5.63385e-07 0.107735)
(-1.32928e-07 -6.19422e-07 0.107732)
(-9.62908e-07 -1.30331e-06 0.107735)
(1.47581e-07 5.80419e-07 0.107735)
(1.25549e-07 -6.0571e-07 0.107733)
(3.30573e-05 -3.30935e-05 0.104593)
(-3.44832e-05 3.44802e-05 0.104691)
(-1.28629e-06 -9.37809e-07 0.107737)
(5.73088e-07 1.48851e-07 0.107734)
(-5.79843e-07 1.47424e-07 0.107734)
(3.44775e-05 3.44815e-05 0.104691)
(3.23346e-05 3.23215e-05 0.104591)
(-3.44736e-05 -3.44693e-05 0.104692)
(4.6814e-07 -3.12563e-07 0.107733)
(-4.79942e-07 -3.03896e-07 0.107732)
(3.26484e-07 -3.53284e-07 0.107732)
(-2.96772e-07 -3.46527e-07 0.107732)
(-3.23431e-05 3.23133e-05 0.104591)
(3.44951e-05 -3.44811e-05 0.104692)
(-3.35531e-07 4.36765e-07 0.107734)
(-3.09879e-07 -4.75295e-07 0.107732)
(-3.71235e-07 3.00386e-07 0.107734)
(-3.51437e-07 -2.99998e-07 0.107731)
(3.05502e-07 -4.70125e-07 0.107732)
(3.83777e-07 2.8185e-07 0.107734)
(3.54343e-07 -3.08635e-07 0.107732)
(3.23177e-05 -3.23596e-05 0.104591)
(-3.44811e-05 3.44932e-05 0.104691)
(-4.46281e-07 3.28729e-07 0.107733)
(2.76445e-07 3.81961e-07 0.107733)
(-2.82139e-07 3.82293e-07 0.107733)
(3.44752e-05 3.44796e-05 0.104691)
(3.23912e-05 3.23788e-05 0.104591)
(-3.42501e-05 -3.42464e-05 0.104692)
(3.49378e-07 -2.69416e-07 0.107732)
(-3.18123e-07 -2.68093e-07 0.107732)
(4.84578e-07 2.23987e-08 0.107733)
(-4.776e-07 3.02797e-08 0.107732)
(-3.23695e-05 3.23557e-05 0.104591)
(3.42523e-05 -3.42442e-05 0.104693)
(-2.90638e-07 3.19045e-07 0.107734)
(-2.71574e-07 -3.19107e-07 0.107731)
(7.16158e-09 4.57942e-07 0.107734)
(3.06821e-08 -4.87525e-07 0.107731)
(2.72914e-07 -3.27214e-07 0.107732)
(3.70854e-09 4.57892e-07 0.107735)
(-2.17618e-08 -4.78088e-07 0.107732)
(3.23589e-05 -3.23898e-05 0.104591)
(-3.42359e-05 3.4244e-05 0.104692)
(-3.03158e-07 3.01785e-07 0.107733)
(4.61933e-07 1.54953e-09 0.107734)
(-4.53094e-07 2.25037e-09 0.107733)
(3.42418e-05 3.42435e-05 0.104692)
(3.26219e-05 3.26094e-05 0.104592)
(-3.40999e-05 -3.40901e-05 0.104693)
(5.29942e-07 1.07007e-07 0.107733)
(-5.37798e-07 1.12863e-07 0.107732)
(6.58563e-07 2.53358e-07 0.107733)
(-6.89647e-07 2.64237e-07 0.107733)
(-3.26255e-05 3.26034e-05 0.104592)
(3.40866e-05 -3.40857e-05 0.104693)
(8.78998e-08 5.00125e-07 0.107734)
(1.13522e-07 -5.44738e-07 0.107732)
(2.35008e-07 6.38804e-07 0.107734)
(2.64252e-07 -6.89435e-07 0.107732)
(-1.07674e-07 -5.30705e-07 0.107732)
(-2.368e-07 6.53565e-07 0.107735)
(-2.62101e-07 -6.73487e-07 0.107732)
(3.26148e-05 -3.26497e-05 0.104591)
(-3.408e-05 3.40889e-05 0.104693)
(-5.07383e-07 -8.43858e-08 0.107733)
(6.47674e-07 -2.34136e-07 0.107734)
(-6.55804e-07 -2.37481e-07 0.107734)
(3.40769e-05 3.40881e-05 0.104692)
(3.27686e-05 3.27636e-05 0.104592)
(-3.4112e-05 -3.40971e-05 0.104693)
(6.98574e-07 2.89404e-07 0.107733)
(-7.23372e-07 2.9743e-07 0.107733)
(6.69248e-07 3.19903e-07 0.107733)
(-6.59508e-07 3.31413e-07 0.107733)
(-3.27785e-05 3.2754e-05 0.104592)
(3.41233e-05 -3.41053e-05 0.104693)
(2.65261e-07 6.80868e-07 0.107735)
(2.96781e-07 -7.19353e-07 0.107732)
(2.95815e-07 6.55685e-07 0.107734)
(3.22991e-07 -6.41971e-07 0.107732)
(-2.99149e-07 -7.11381e-07 0.107733)
(-2.93287e-07 6.43151e-07 0.107735)
(-3.34403e-07 -6.50438e-07 0.107732)
(3.27596e-05 -3.27916e-05 0.104592)
(-3.41043e-05 3.41344e-05 0.104693)
(-6.95809e-07 -2.69148e-07 0.107734)
(6.39153e-07 -2.76351e-07 0.107734)
(-6.53803e-07 -2.9542e-07 0.107734)
(3.40897e-05 3.41179e-05 0.104692)
(3.27508e-05 3.27488e-05 0.104592)
(-3.39943e-05 -3.39896e-05 0.104693)
(6.89523e-07 3.37854e-07 0.107733)
(-6.70225e-07 3.45899e-07 0.107733)
(7.9279e-07 3.83255e-07 0.107733)
(-7.84561e-07 3.99925e-07 0.107733)
(-3.27383e-05 3.27286e-05 0.104592)
(3.40039e-05 -3.39922e-05 0.104693)
(3.10549e-07 6.74783e-07 0.107735)
(3.38249e-07 -6.59125e-07 0.107732)
(3.66135e-07 7.66266e-07 0.107734)
(3.96195e-07 -7.90287e-07 0.107732)
(-3.48289e-07 -6.6031e-07 0.107733)
(-3.59163e-07 7.7093e-07 0.107735)
(-3.97486e-07 -7.75456e-07 0.107733)
(3.27321e-05 -3.27455e-05 0.104592)
(-3.39757e-05 3.39995e-05 0.104693)
(-6.61587e-07 -3.06182e-07 0.107734)
(7.85246e-07 -3.51641e-07 0.107734)
(-7.66446e-07 -3.68413e-07 0.107734)
(3.39869e-05 3.40052e-05 0.104693)
(3.2849e-05 3.2837e-05 0.104592)
(-3.40588e-05 -3.40515e-05 0.104693)
(7.57035e-07 3.76485e-07 0.107733)
(-7.61093e-07 3.89026e-07 0.107733)
(7.4763e-07 3.62762e-07 0.107733)
(-7.63065e-07 3.81792e-07 0.107733)
(-3.28462e-05 3.28284e-05 0.104592)
(3.40539e-05 -3.40467e-05 0.104693)
(3.58086e-07 7.29358e-07 0.107735)
(3.86956e-07 -7.67844e-07 0.107732)
(3.44975e-07 7.23568e-07 0.107734)
(3.72807e-07 -7.46512e-07 0.107732)
(-3.87478e-07 -7.48246e-07 0.107733)
(-3.44573e-07 7.4072e-07 0.107735)
(-3.77765e-07 -7.43934e-07 0.107733)
(3.28458e-05 -3.28685e-05 0.104592)
(-3.40516e-05 3.40685e-05 0.104693)
(-7.32625e-07 -3.59537e-07 0.107734)
(7.31169e-07 -3.36804e-07 0.107734)
(-7.3545e-07 -3.557e-07 0.107734)
(3.40432e-05 3.40602e-05 0.104692)
(3.28238e-05 3.28166e-05 0.104592)
(-3.40596e-05 -3.40439e-05 0.104693)
(7.7153e-07 3.76547e-07 0.107733)
(-7.81693e-07 3.92522e-07 0.107733)
(7.32378e-07 3.79819e-07 0.107733)
(-7.17143e-07 3.93122e-07 0.107733)
(-3.2828e-05 3.28081e-05 0.104592)
(3.40743e-05 -3.40565e-05 0.104693)
(3.52869e-07 7.51933e-07 0.107735)
(3.81767e-07 -7.63418e-07 0.107732)
(3.56492e-07 7.15844e-07 0.107734)
(3.80628e-07 -7.19853e-07 0.107732)
(-3.88115e-07 -7.64501e-07 0.107733)
(-3.52777e-07 7.11908e-07 0.107735)
(-3.87474e-07 -7.22836e-07 0.107733)
(3.28047e-05 -3.283e-05 0.104592)
(-3.40563e-05 3.40668e-05 0.104693)
(-7.59585e-07 -3.60911e-07 0.107734)
(7.03311e-07 -3.45569e-07 0.107734)
(-7.01492e-07 -3.64343e-07 0.107734)
(3.4051e-05 3.40595e-05 0.104692)
(3.27853e-05 3.27841e-05 0.104592)
(-3.4058e-05 -3.4047e-05 0.104693)
(7.22655e-07 3.73312e-07 0.107733)
(-7.10715e-07 3.78286e-07 0.107733)
(7.50264e-07 3.57891e-07 0.107733)
(-7.59673e-07 3.6151e-07 0.107733)
(-3.27722e-05 3.27587e-05 0.104592)
(3.40469e-05 -3.4054e-05 0.104694)
(3.436e-07 7.02336e-07 0.107735)
(3.65702e-07 -7.19308e-07 0.107732)
(3.32037e-07 7.26114e-07 0.107735)
(3.49748e-07 -7.7528e-07 0.107732)
(-3.71754e-07 -7.07315e-07 0.107733)
(-3.37941e-07 7.20591e-07 0.107735)
(-3.62451e-07 -7.53092e-07 0.107733)
(3.27645e-05 -3.28004e-05 0.104592)
(-3.40536e-05 3.40395e-05 0.104693)
(-6.89324e-07 -3.50955e-07 0.107734)
(7.19856e-07 -3.39837e-07 0.107734)
(-7.20625e-07 -3.4587e-07 0.107734)
(3.40472e-05 3.40504e-05 0.104693)
(3.27868e-05 3.27808e-05 0.104593)
(7.01807e-07 3.34904e-07 0.107733)
(-7.21311e-07 3.36905e-07 0.107733)
(-3.27993e-05 3.2765e-05 0.104593)
(3.0962e-07 6.78716e-07 0.107735)
(3.27281e-07 -7.3072e-07 0.107732)
(-3.4564e-07 -7.20148e-07 0.107733)
(3.27659e-05 -3.28209e-05 0.104592)
(-6.94378e-07 -3.26802e-07 0.107734)
(-4.66492e-07 -9.18002e-06 0.0910069)
(-1.79753e-06 -7.31656e-06 0.0816121)
(-7.49222e-08 -4.33644e-06 0.0709188)
(-9.16541e-06 -7.26005e-07 0.091006)
(-7.52585e-06 -1.63982e-06 0.0816127)
(2.14263e-05 2.13129e-05 0.113164)
(-2.17118e-05 2.15105e-05 0.113164)
(2.15319e-05 -2.16506e-05 0.113163)
(-2.16061e-05 -2.15039e-05 0.113163)
(1.05383e-05 -3.23266e-07 0.0985705)
(-1.73171e-05 1.13441e-05 0.108253)
(6.6262e-06 -4.6774e-06 0.0926591)
(-2.43865e-05 4.25274e-06 0.11082)
(-4.34313e-06 1.60094e-08 0.0709204)
(-3.56075e-07 1.0555e-05 0.0985704)
(1.11979e-05 -1.69733e-05 0.108252)
(4.09689e-06 -2.42609e-05 0.110819)
(-4.71832e-06 6.83865e-06 0.0926588)
(4.19275e-05 4.20411e-05 0.104858)
(2.35891e-06 2.83192e-06 0.0870209)
(2.83343e-06 2.52554e-06 0.087019)
(-5.5377e-07 -7.36927e-06 0.0909875)
(2.29899e-06 6.2805e-06 0.0815724)
(-8.0643e-07 6.6834e-06 0.0909578)
(-9.35825e-07 -7.11106e-06 0.0816131)
(-5.54586e-06 1.81659e-06 0.0708789)
(1.38989e-06 -2.10018e-06 0.0709174)
(-7.3255e-06 -3.80228e-07 0.0909867)
(6.30604e-06 2.06816e-06 0.0815725)
(6.7202e-06 -6.67258e-07 0.0909581)
(-6.9745e-06 -7.58415e-07 0.0816133)
(-1.94323e-05 1.94674e-05 0.113168)
(1.9313e-05 -1.95724e-05 0.113167)
(-1.95538e-05 -1.96194e-05 0.113167)
(2.04387e-05 2.07465e-05 0.11317)
(-2.01899e-05 2.03868e-05 0.113171)
(2.0601e-05 -2.00995e-05 0.11317)
(-2.02191e-05 -2.01881e-05 0.11317)
(9.65469e-06 -6.56656e-07 0.0985279)
(-1.54773e-05 4.17841e-06 0.0925943)
(-2.34423e-05 5.54806e-07 0.110785)
(-1.07281e-05 4.28617e-06 0.108202)
(-1.73728e-05 -7.96077e-07 0.0984791)
(1.07638e-05 -1.95496e-06 0.0926487)
(-2.1302e-05 5.5143e-07 0.110772)
(1.88362e-06 -5.76507e-06 0.0708757)
(-2.09353e-06 1.54312e-06 0.0709179)
(-6.81315e-07 9.56111e-06 0.0985277)
(6.8428e-07 -2.35917e-05 0.110784)
(4.17309e-06 -1.5698e-05 0.0925949)
(4.2734e-06 -1.13782e-05 0.108201)
(-6.70876e-07 -1.73076e-05 0.0984785)
(6.75014e-07 -2.16963e-05 0.110771)
(-2.00483e-06 1.04624e-05 0.0926475)
(-3.42281e-06 -7.01676e-06 0.0869804)
(-6.90902e-06 -3.5719e-06 0.0869791)
(4.66419e-05 4.63816e-05 0.104816)
(8.63005e-06 3.42399e-06 0.0870197)
(3.39453e-06 8.5335e-06 0.0870176)
(-1.28825e-06 -1.25927e-05 0.0909879)
(-4.91663e-06 4.93437e-06 0.0815839)
(-4.54432e-07 4.80868e-07 0.0909544)
(-2.03003e-06 -9.11701e-06 0.0816347)
(1.29137e-06 2.23758e-06 0.0709073)
(-8.13336e-07 -6.31249e-06 0.0709635)
(-1.27253e-05 -1.00049e-06 0.0909875)
(4.91168e-06 -5.02813e-06 0.0815829)
(4.33915e-07 -4.90178e-07 0.090955)
(-9.37003e-06 -2.28355e-06 0.0816346)
(-2.25414e-05 2.25988e-05 0.11317)
(2.31731e-05 -2.22319e-05 0.113169)
(-2.23468e-05 -2.20697e-05 0.113169)
(1.85199e-05 1.81757e-05 0.113175)
(-1.86618e-05 1.86328e-05 0.113175)
(1.81177e-05 -1.89152e-05 0.113174)
(-1.8855e-05 -1.89606e-05 0.113174)
(1.52573e-05 -2.22653e-07 0.0985073)
(-7.57992e-06 -1.45841e-06 0.092591)
(-1.49588e-05 6.10367e-06 0.110739)
(-1.44015e-05 1.25863e-05 0.10814)
(-7.42972e-06 5.88757e-07 0.0984548)
(7.14905e-06 -8.83251e-06 0.0926387)
(-1.71396e-05 5.58376e-06 0.11073)
(1.99114e-06 1.2274e-06 0.0709074)
(-5.90263e-06 -1.0888e-06 0.0709654)
(-2.58043e-08 1.55121e-05 0.0985077)
(6.08985e-06 -1.44015e-05 0.110738)
(-1.31341e-06 -7.10452e-06 0.0925926)
(1.27701e-05 -1.39008e-05 0.10814)
(5.33037e-07 -7.44139e-06 0.0984541)
(5.66175e-06 -1.65881e-05 0.110729)
(-8.99945e-06 7.18148e-06 0.0926391)
(-2.93895e-06 7.31732e-07 0.0869904)
(7.33743e-07 -2.76599e-06 0.0869892)
(3.98658e-05 4.01779e-05 0.104738)
(1.05574e-06 4.06253e-06 0.0870299)
(4.23266e-06 1.02308e-06 0.0870281)
(1.94721e-07 -5.18556e-06 0.0909722)
(6.28006e-06 7.31173e-06 0.0815963)
(-6.12464e-07 9.65168e-06 0.0909397)
(4.50059e-07 -5.40824e-06 0.0816277)
(-9.14299e-06 2.11766e-06 0.0709099)
(5.20017e-07 -1.00275e-06 0.0709301)
(-5.18236e-06 -3.00227e-07 0.0909714)
(7.29249e-06 6.46896e-06 0.0815965)
(9.8436e-06 -7.2775e-07 0.0909398)
(-5.18281e-06 9.53551e-07 0.0816287)
(-1.39472e-05 1.38585e-05 0.113176)
(1.29272e-05 -1.42879e-05 0.113175)
(-1.42237e-05 -1.4502e-05 0.113175)
(8.81709e-06 9.18526e-06 0.113158)
(-8.93511e-06 8.67612e-06 0.113158)
(9.3091e-06 -8.42075e-06 0.113157)
(-8.3906e-06 -8.22072e-06 0.113157)
(9.46418e-06 -7.58897e-07 0.0984638)
(-1.81789e-05 7.44251e-06 0.0925821)
(-2.07126e-05 -3.14862e-06 0.110694)
(-1.85352e-06 -6.19294e-06 0.108098)
(-1.94826e-05 -1.64329e-06 0.0984142)
(1.06914e-05 2.67343e-06 0.0926408)
(-1.53119e-05 -3.8535e-06 0.110676)
(2.40364e-06 -9.00005e-06 0.0709033)
(-1.48204e-06 1.0515e-06 0.0709305)
(-1.017e-06 9.24558e-06 0.0984632)
(-3.27712e-06 -2.1415e-05 0.110692)
(7.4024e-06 -1.86481e-05 0.0925816)
(-6.52704e-06 -2.11712e-06 0.108097)
(-1.70515e-06 -1.96427e-05 0.0984136)
(-4.10033e-06 -1.57972e-05 0.110675)
(2.94011e-06 1.08018e-05 0.0926395)
(-4.70295e-06 -1.12286e-05 0.0869925)
(-1.13092e-05 -4.93028e-06 0.0869909)
(5.35406e-05 5.33767e-05 0.104721)
(9.60432e-06 1.03308e-06 0.0870308)
(8.74735e-07 9.74548e-06 0.0870288)
(-1.77605e-06 -1.88207e-05 0.090992)
(-9.02921e-06 1.88861e-06 0.0816144)
(-8.07997e-07 -7.3915e-06 0.0909541)
(-6.02222e-06 -1.19678e-05 0.0816882)
(6.97518e-06 2.62611e-06 0.0709512)
(4.88616e-06 -4.85532e-06 0.0710418)
(-1.88402e-05 -1.08468e-06 0.0909915)
(1.84396e-06 -9.46572e-06 0.0816134)
(-7.60934e-06 -4.92757e-07 0.090955)
(-1.22593e-05 -6.4592e-06 0.0816883)
(-1.57555e-05 1.56228e-05 0.113149)
(1.67456e-05 -1.52446e-05 0.113148)
(-1.51735e-05 -1.49715e-05 0.113148)
(2.5588e-05 2.51221e-05 0.113151)
(-2.5169e-05 2.56204e-05 0.113151)
(2.5093e-05 -2.5931e-05 0.11315)
(-2.58773e-05 -2.62023e-05 0.11315)
(2.36357e-05 -2.77817e-07 0.0984658)
(5.20397e-06 -7.93016e-06 0.0925964)
(-2.9673e-06 6.44183e-06 0.110627)
(-1.33913e-05 2.25306e-05 0.108027)
(3.36738e-06 1.11378e-06 0.0984106)
(1.72686e-05 -1.76246e-05 0.0926471)
(-9.76498e-06 8.91588e-06 0.110619)
(2.23306e-06 6.58802e-06 0.0709537)
(-4.2554e-06 4.49613e-06 0.0710442)
(1.5129e-07 2.3891e-05 0.0984663)
(6.53397e-06 -2.14737e-06 0.110626)