/*--------------------------------*- C++ -*----------------------------------*\
| =========                 |                                                 |
| \\      /  F ield         | OpenFOAM: The Open Source CFD Toolbox           |
|  \\    /   O peration     | Version:  v1906                                 |
|   \\  /    A nd           | Web:      www.OpenFOAM.com                      |
|    \\/     M anipulation  |                                                 |
\*---------------------------------------------------------------------------*/
FoamFile
{
    version     2.0;
    format      ascii;
    class       volVectorField;
    location    "250";
    object      U;
}
// * * * * * * * * * * * * * * * * * * * * * * * * * * * * * * * * * * * * * //

dimensions      [0 1 -1 0 0 0 0];


internalField   nonuniform List<vector> 
43248
(
(-4.10314e-05 -4.14693e-05 0.104892)
(1.23627e-05 1.73684e-05 0.108279)
(-1.2443e-05 1.76604e-05 0.108279)
(4.13111e-05 -4.11805e-05 0.104893)
(1.77817e-05 1.25075e-05 0.108282)
(1.74463e-05 -1.2345e-05 0.108278)
(-1.73835e-05 1.23765e-05 0.108282)
(-1.75098e-05 -1.25178e-05 0.108279)
(-4.13682e-05 4.11952e-05 0.104892)
(1.23766e-05 -1.75829e-05 0.108281)
(-1.24527e-05 -1.76509e-05 0.108281)
(4.12072e-05 4.11026e-05 0.104891)
(2.51172e-05 2.50516e-05 0.113145)
(-2.49308e-05 2.50594e-05 0.113145)
(2.50683e-05 -2.5006e-05 0.113144)
(-2.49941e-05 -2.50769e-05 0.113144)
(-1.40057e-06 -3.43659e-06 0.0709135)
(-3.55809e-06 -1.2477e-06 0.070914)
(-4.38482e-06 -4.92935e-06 0.0870208)
(-4.75026e-06 -4.37491e-06 0.0870217)
(-6.87525e-07 5.47254e-06 0.0909843)
(-2.43205e-06 -7.78025e-06 0.0816097)
(-7.43154e-07 -9.1875e-06 0.0910145)
(5.26546e-07 5.42678e-06 0.0909844)
(2.43026e-06 -7.80883e-06 0.0816091)
(7.99384e-07 6.08306e-06 0.0815656)
(4.95437e-07 -9.22829e-06 0.0910144)
(-3.26692e-08 1.63349e-05 0.0985423)
(-4.73903e-06 -8.6385e-06 0.0926652)
(4.35816e-06 2.53783e-05 0.110839)
(4.07976e-06 2.61216e-05 0.110849)
(-5.23858e-07 -1.06132e-05 0.0985915)
(3.52844e-07 1.62605e-05 0.0985422)
(-1.14147e-05 1.7733e-05 0.108294)
(4.94236e-06 -8.71061e-06 0.0926653)
(-4.27007e-06 2.54441e-05 0.110839)
(-2.40473e-06 1.31716e-05 0.0926165)
(-3.75986e-06 2.60488e-05 0.110849)
(6.07069e-08 -1.06195e-05 0.0985916)
(1.30176e-06 -3.60118e-06 0.0709134)
(-2.42285e-06 2.24686e-06 0.0708659)
(-4.89067e-05 4.8895e-05 0.104749)
(4.38322e-06 -4.76671e-06 0.0870206)
(5.06465e-06 -4.51237e-06 0.0870232)
(-3.58845e-06 2.95837e-06 0.0869831)
(-3.0699e-06 3.58868e-06 0.0869839)
(3.52726e-06 -1.20335e-06 0.0709147)
(-2.24195e-06 2.35024e-06 0.0708643)
(-7.75706e-06 -2.34913e-06 0.08161)
(-9.20246e-06 -4.93246e-07 0.0910138)
(-8.69102e-06 -4.97933e-06 0.0926665)
(2.55223e-05 4.30211e-06 0.110839)
(-1.05704e-05 -5.31353e-08 0.0985912)
(-7.6694e-06 2.21152e-06 0.0816104)
(-9.15056e-06 7.54651e-07 0.0910136)
(2.54641e-05 -4.28577e-06 0.110838)
(-8.74802e-06 4.73323e-06 0.0926658)
(-1.05579e-05 5.64046e-07 0.0985909)
(-1.61151e-05 -1.44457e-07 0.0985427)
(-1.74049e-05 1.14783e-05 0.108297)
(8.78678e-06 -5.1736e-06 0.0926673)
(-2.52096e-05 4.30446e-06 0.110839)
(-1.32125e-05 2.45347e-06 0.0926175)
(-2.57489e-05 3.89903e-06 0.110849)
(1.07648e-05 -2.25148e-07 0.0985921)
(-5.40739e-06 -5.39865e-07 0.0909847)
(7.76793e-06 -2.32522e-06 0.0816103)
(-6.13106e-06 -9.07752e-07 0.081565)
(9.42577e-06 -6.16217e-07 0.0910148)
(-1.61401e-05 2.05549e-07 0.0985428)
(-1.75611e-05 -1.15809e-05 0.108294)
(-2.52395e-05 -4.36194e-06 0.110839)
(8.71262e-06 5.12251e-06 0.092666)
(-2.57924e-05 -3.99115e-06 0.110849)
(-1.319e-05 -2.5302e-06 0.0926176)
(1.07508e-05 3.14558e-07 0.0985919)
(-5.42079e-06 6.17252e-07 0.0909847)
(7.74659e-06 2.4055e-06 0.0816095)
(-6.13031e-06 8.99219e-07 0.0815662)
(9.42105e-06 6.39557e-07 0.0910147)
(-3.283e-06 1.25947e-06 0.0709141)
(-5.19055e-06 4.37954e-06 0.0870213)
(-4.48538e-06 4.75892e-06 0.0870223)
(-1.25976e-06 3.58509e-06 0.0709143)
(-1.2729e-07 -1.61355e-05 0.098542)
(4.30529e-06 -2.53115e-05 0.110838)
(-5.15385e-06 8.59342e-06 0.0926667)
(4.01615e-06 -2.57831e-05 0.110848)
(-2.98303e-07 1.07068e-05 0.098592)
(2.26159e-07 -1.61394e-05 0.0985419)
(-1.14771e-05 -1.75675e-05 0.108295)
(-4.32612e-06 -2.53626e-05 0.110838)
(5.10522e-06 8.69724e-06 0.092666)
(-3.88249e-06 -2.57851e-05 0.110848)
(-2.44297e-06 -1.31351e-05 0.0926171)
(1.97486e-07 1.06891e-05 0.0985918)
(-5.77489e-07 -5.43754e-06 0.0909848)
(-2.42941e-06 7.77639e-06 0.0816099)
(-6.41887e-07 9.42211e-06 0.0910145)
(5.8779e-07 -5.4363e-06 0.0909846)
(2.4734e-06 7.84358e-06 0.0816098)
(8.31879e-07 -6.10891e-06 0.0815658)
(5.87884e-07 9.41368e-06 0.0910145)
(-4.89034e-05 -4.88938e-05 0.104749)
(4.93845e-06 4.53089e-06 0.087022)
(4.47782e-06 4.71932e-06 0.08702)
(-3.10624e-06 -3.64838e-06 0.0869845)
(-3.5635e-06 -2.9618e-06 0.0869833)
(3.53317e-06 1.29422e-06 0.0709137)
(-2.28772e-06 -2.33952e-06 0.0708666)
(1.33888e-06 3.62385e-06 0.0709136)
(-2.37373e-06 -2.26884e-06 0.070866)
(2.50203e-06 2.63454e-06 0.0708729)
(2.43746e-06 2.48503e-06 0.0708724)
(4.31063e-06 6.59135e-06 0.091263)
(-2.38238e-06 -1.3074e-05 0.0961029)
(3.33508e-06 2.55325e-06 0.0869858)
(-4.03331e-06 -5.09793e-06 0.0809941)
(-4.26285e-08 1.3648e-06 0.0809617)
(1.14753e-05 1.16215e-05 0.0960689)
(-3.37003e-06 -1.02907e-05 0.0912883)
(6.58909e-06 3.78763e-06 0.0912495)
(-1.30343e-05 -2.57359e-06 0.0961105)
(2.83025e-06 3.31916e-06 0.0869822)
(-5.14936e-06 -3.85147e-06 0.0809923)
(1.17297e-06 -1.51274e-07 0.0809542)
(1.17105e-05 1.12913e-05 0.0960598)
(-1.03208e-05 -3.67638e-06 0.0912922)
(3.67687e-06 3.64889e-06 0.083064)
(-3.5972e-06 -1.56811e-06 0.0678253)
(-1.67592e-06 -3.52399e-06 0.0678201)
(3.13277e-07 1.06545e-06 0.0677885)
(9.67163e-07 3.87109e-07 0.0677819)
(-1.51997e-06 -1.36167e-06 0.0830935)
(-3.40877e-08 -3.54216e-06 0.0762505)
(-8.46e-07 3.10222e-06 0.0780063)
(-1.0184e-06 5.93207e-06 0.0894169)
(-7.44866e-07 -8.96882e-06 0.0910189)
(-1.54696e-06 3.68395e-06 0.0762146)
(-4.91262e-07 -3.95836e-06 0.0780364)
(-1.22789e-06 -8.49786e-06 0.0894569)
(-1.42893e-06 3.19706e-06 0.0677579)
(-6.10417e-07 5.96533e-06 0.0815683)
(-2.17317e-06 -8.1014e-06 0.0852597)
(-1.59456e-06 4.12312e-06 0.0852132)
(2.0789e-07 -2.74243e-06 0.0678081)
(-1.18762e-06 3.67766e-06 0.0762163)
(-7.73218e-07 5.15109e-06 0.0909796)
(-3.10975e-07 -3.99374e-06 0.0780378)
(-1.16272e-06 -8.86105e-06 0.0894542)
(-6.4482e-07 3.00427e-06 0.0780074)
(-1.09302e-06 5.49505e-06 0.0894139)
(2.45819e-07 -3.49807e-06 0.0762523)
(1.99779e-07 -3.70371e-06 0.0762495)
(7.49452e-07 3.08856e-06 0.0780064)
(8.65994e-07 5.79703e-06 0.0894176)
(5.07495e-07 -9.04235e-06 0.091019)
(1.50781e-06 3.7098e-06 0.076216)
(5.40134e-07 -4.01258e-06 0.0780363)
(1.078e-06 -8.67929e-06 0.0894567)
(1.55295e-06 3.08212e-06 0.0677578)
(7.90955e-07 5.91516e-06 0.0815674)
(2.15786e-06 -7.86843e-06 0.085258)
(1.53409e-06 4.24896e-06 0.0852129)
(2.57873e-08 -3.07096e-06 0.0678049)
(8.42039e-08 -3.10611e-06 0.067801)
(1.50533e-06 4.46014e-06 0.0852132)
(2.77098e-06 -7.87212e-06 0.0816072)
(1.57959e-06 3.12351e-06 0.0677539)
(2.19585e-06 -7.74536e-06 0.0852581)
(1.50297e-06 3.58181e-06 0.076218)
(4.82914e-07 5.09545e-06 0.0909798)
(5.95163e-07 -4.06177e-06 0.0780377)
(1.06888e-06 -8.86211e-06 0.0894537)
(8.28497e-07 2.94857e-06 0.0780076)
(9.31119e-07 5.4679e-06 0.0894143)
(1.60196e-07 -3.71407e-06 0.0762517)
(-2.44865e-06 2.40875e-06 0.0708721)
(1.67599e-06 -3.8639e-06 0.0709082)
(2.42408e-06 -2.45283e-06 0.0830948)
(-7.63417e-07 5.8424e-07 0.0677728)
(-6.06523e-07 7.06812e-07 0.0677781)
(-2.70706e-06 2.76566e-06 0.0830652)
(3.4363e-06 -2.3169e-06 0.0678118)
(2.23781e-06 -3.58117e-06 0.0678171)
(-3.92904e-06 6.45712e-06 0.0912527)
(2.41106e-06 -1.30568e-05 0.0961055)
(-3.33134e-06 2.86244e-06 0.0869827)
(4.01945e-06 -5.36676e-06 0.0809911)
(-1.14053e-05 1.17106e-05 0.0960624)
(2.07745e-07 1.14356e-06 0.0809549)
(3.62438e-06 -1.03992e-05 0.0912872)
(-6.49784e-06 4.06519e-06 0.0912597)
(1.32573e-05 -2.47727e-06 0.096109)
(-2.33915e-06 3.14621e-06 0.0869839)
(5.24853e-06 -4.19628e-06 0.0809958)
(-1.13723e-06 -2.99102e-07 0.0809595)
(-1.14762e-05 1.13733e-05 0.0960662)
(1.03076e-05 -3.61081e-06 0.0912941)
(4.17647e-06 -1.10149e-05 0.0912942)
(-7.4317e-08 1.47541e-06 0.08095)
(-1.09286e-05 1.18034e-05 0.0960717)
(4.46188e-06 -4.56261e-06 0.0870207)
(2.74125e-06 -1.30069e-05 0.0961152)
(-3.65346e-06 6.28563e-06 0.0912593)
(4.17137e-06 -5.76024e-06 0.0809869)
(1.10612e-05 -4.03509e-06 0.0913011)
(-1.37028e-06 1.60993e-07 0.0809548)
(-1.18727e-05 1.0975e-05 0.0960754)
(4.79394e-06 -4.52006e-06 0.0870228)
(-6.21551e-06 3.649e-06 0.0912664)
(5.853e-06 -4.13747e-06 0.0809919)
(1.30593e-05 -2.69319e-06 0.0961184)
(-3.70243e-06 3.57761e-06 0.083064)
(3.59238e-06 -1.69788e-06 0.06782)
(1.61423e-06 -3.69834e-06 0.0678254)
(-3.57693e-07 8.81955e-07 0.0677824)
(-9.82575e-07 1.73158e-07 0.0677877)
(1.39611e-06 -1.57201e-06 0.0830934)
(-2.4465e-06 2.55071e-06 0.0708699)
(3.62142e-06 -1.49846e-06 0.0709097)
(3.06751e-06 -1.5214e-06 0.0677588)
(5.92393e-06 -7.34789e-07 0.0815678)
(-7.82986e-06 -2.13657e-06 0.0852582)
(4.28366e-06 -1.53074e-06 0.0852137)
(-3.06615e-06 2.08958e-09 0.0678055)
(3.58606e-06 -1.48339e-06 0.0762187)
(5.15139e-06 -4.72463e-07 0.0909802)
(-8.81984e-06 -1.06186e-06 0.0894536)
(-4.09079e-06 -6.15224e-07 0.078037)
(5.49351e-06 -9.40128e-07 0.0894148)
(3.00248e-06 -8.2524e-07 0.0780091)
(-3.69776e-06 -1.42243e-07 0.0762519)
(3.18475e-06 1.3349e-06 0.0677577)
(6.00399e-06 4.30353e-07 0.0815669)
(-8.07427e-06 2.08108e-06 0.0852595)
(4.16188e-06 1.59156e-06 0.0852126)
(-2.74001e-06 -3.08936e-07 0.0678079)
(3.69062e-06 1.12312e-06 0.0762165)
(5.22284e-06 8.14163e-07 0.0909799)
(-4.01813e-06 2.85256e-07 0.0780369)
(-8.81156e-06 1.1303e-06 0.0894536)
(3.06036e-06 6.33378e-07 0.0780089)
(5.56777e-06 1.12087e-06 0.0894136)
(-3.49087e-06 -3.39424e-07 0.0762522)
(3.74456e-06 -2.76052e-07 0.0762496)
(-5.77981e-06 -8.87345e-07 0.0894179)
(-3.09859e-06 -7.91243e-07 0.0780062)
(9.1357e-06 -5.7762e-07 0.0910193)
(-3.72778e-06 -1.57221e-06 0.076216)
(8.7113e-06 -1.14922e-06 0.0894572)
(4.07507e-06 -5.45666e-07 0.0780361)
(-2.9973e-06 -1.55411e-06 0.0677582)
(-5.98118e-06 -6.34071e-07 0.0815668)
(7.86371e-06 -2.23561e-06 0.085259)
(-4.26254e-06 -1.63787e-06 0.0852135)
(3.17385e-06 -1.74904e-08 0.0678057)
(3.13993e-06 -1.15683e-07 0.0678013)
(-4.43007e-06 -1.56544e-06 0.0852137)
(7.65687e-06 -2.66272e-06 0.0816082)
(-3.14092e-06 -1.6186e-06 0.067754)
(7.73736e-06 -2.28096e-06 0.085259)
(-3.47764e-06 -1.56553e-06 0.0762181)
(-4.94359e-06 -5.9886e-07 0.0909802)
(8.95333e-06 -1.19647e-06 0.0894542)
(4.24109e-06 -5.1242e-07 0.0780377)
(-5.41186e-06 -1.04325e-06 0.0894148)
(-2.81472e-06 -7.90764e-07 0.0780075)
(3.86301e-06 -1.98113e-07 0.0762519)
(3.721e-06 2.33755e-07 0.0762491)
(-3.11025e-06 7.91693e-07 0.0780062)
(-5.80174e-06 9.29211e-07 0.0894179)
(9.12778e-06 6.39401e-07 0.0910192)
(-3.74406e-06 1.55299e-06 0.0762156)
(4.05884e-06 5.15734e-07 0.078036)
(8.72246e-06 1.19071e-06 0.0894571)
(-3.05222e-06 1.56922e-06 0.0677598)
(-6.01333e-06 7.83924e-07 0.0815679)
(7.89685e-06 2.24725e-06 0.0852593)
(-4.22801e-06 1.6251e-06 0.0852142)
(3.13296e-06 2.48774e-08 0.067807)
(3.09174e-06 1.23647e-07 0.0678029)
(-4.44553e-06 1.55866e-06 0.0852144)
(7.77425e-06 2.82231e-06 0.0816076)
(-3.16909e-06 1.62986e-06 0.0677559)
(7.7675e-06 2.27713e-06 0.0852593)
(-3.5067e-06 1.51929e-06 0.0762176)
(-4.94802e-06 6.36744e-07 0.0909802)
(4.22501e-06 4.8207e-07 0.0780376)
(8.97231e-06 1.21453e-06 0.0894541)
(-2.83239e-06 7.50338e-07 0.0780074)
(-5.39149e-06 1.06824e-06 0.0894148)
(3.83289e-06 1.61907e-07 0.0762513)
(2.67935e-06 -2.61226e-06 0.0708694)
(6.46423e-06 -4.31366e-06 0.091252)
(-1.33669e-05 2.37852e-06 0.0961053)
(2.22197e-06 -3.34284e-06 0.0869812)
(-5.13887e-06 4.05212e-06 0.0809904)
(1.14751e-05 -1.14292e-05 0.0960617)
(1.20656e-06 6.89344e-08 0.0809539)
(-1.03057e-05 3.36061e-06 0.0912867)
(3.81999e-06 -6.60157e-06 0.0912594)
(-2.58165e-06 1.29608e-05 0.0961083)
(3.26487e-06 -2.94762e-06 0.0869846)
(-3.98392e-06 5.20042e-06 0.0809961)
(-1.84599e-07 -1.31561e-06 0.0809598)
(1.13027e-05 -1.17756e-05 0.0960659)
(-3.70176e-06 1.02362e-05 0.0912937)
(3.62559e-06 -3.64126e-06 0.0830637)
(-1.54913e-06 3.69514e-06 0.0678191)
(-3.59019e-06 1.61534e-06 0.0678252)
(1.0394e-06 -2.11994e-07 0.0677815)
(3.46626e-07 -9.82267e-07 0.0677878)
(-1.44805e-06 1.53774e-06 0.0830932)
(2.45368e-06 -2.44471e-06 0.0708733)
(-2.44824e-07 3.74475e-06 0.0762493)
(-9.10741e-07 -5.78506e-06 0.0894181)
(-7.7616e-07 -3.14708e-06 0.0780076)
(-6.19321e-07 9.16526e-06 0.0910191)
(-1.5499e-06 -3.73135e-06 0.076216)
(-1.18736e-06 8.72941e-06 0.0894573)
(-5.18969e-07 4.12849e-06 0.0780355)
(-1.5432e-06 -3.03661e-06 0.0677609)
(-8.44699e-07 -5.96313e-06 0.0815686)
(-2.24354e-06 7.883e-06 0.0852593)
(-1.63394e-06 -4.23329e-06 0.0852151)
(2.15368e-09 3.13876e-06 0.0678076)
(-1.08972e-07 3.10319e-06 0.0678035)
(-2.28614e-06 7.77346e-06 0.0852595)
(-1.51558e-06 -3.50434e-06 0.0762181)
(-6.31315e-07 -4.98309e-06 0.0909803)
(-1.22491e-06 8.95089e-06 0.0894542)
(-4.82746e-07 4.27657e-06 0.0780371)
(-1.08301e-06 -5.40055e-06 0.089415)
(-7.45083e-07 -2.87682e-06 0.0780089)
(-1.5503e-07 3.83709e-06 0.0762516)
(2.68459e-07 3.72619e-06 0.0762511)
(9.18204e-07 -5.74817e-06 0.0894169)
(7.94504e-07 -3.13685e-06 0.0780074)
(5.7553e-07 9.16018e-06 0.0910191)
(1.5739e-06 -3.6615e-06 0.0762147)
(1.14554e-06 8.70503e-06 0.089458)
(5.389e-07 4.13117e-06 0.0780356)
(1.60969e-06 -2.93711e-06 0.0677557)
(8.36953e-07 -5.89039e-06 0.0815676)
(2.21222e-06 7.82112e-06 0.0852597)
(1.62232e-06 -4.22017e-06 0.0852123)
(-2.01338e-08 3.07749e-06 0.0678078)
(8.85125e-08 3.0564e-06 0.0678035)
(1.56038e-06 -4.40217e-06 0.0852127)
(2.82861e-06 7.84697e-06 0.0816079)
(1.66097e-06 -3.0499e-06 0.0677515)
(2.25038e-06 7.72126e-06 0.0852597)
(1.55686e-06 -3.42695e-06 0.0762168)
(6.03681e-07 -4.97846e-06 0.0909801)
(1.186e-06 8.9141e-06 0.0894549)
(5.09659e-07 4.27275e-06 0.0780372)
(1.07283e-06 -5.36516e-06 0.0894137)
(7.77423e-07 -2.86705e-06 0.0780087)
(1.72225e-07 3.81253e-06 0.0762534)
(2.42032e-06 2.38034e-06 0.0830944)
(-5.78929e-07 -7.45874e-07 0.0677783)
(-7.21399e-07 -6.02523e-07 0.0677725)
(-2.71354e-06 -2.78446e-06 0.0830652)
(2.2867e-06 3.53032e-06 0.0678172)
(3.50215e-06 2.29641e-06 0.0678112)
(-6.48826e-06 -4.04498e-06 0.0912596)
(1.31254e-05 2.37657e-06 0.0961079)
(-2.75958e-06 -3.27806e-06 0.0869842)
(5.30052e-06 4.12712e-06 0.0809957)
(-1.16602e-05 -1.14695e-05 0.0960658)
(-1.15318e-06 2.39424e-07 0.0809596)
(1.02984e-05 3.5144e-06 0.0912934)
(-3.91131e-06 -6.51981e-06 0.0912528)
(2.4512e-06 1.29865e-05 0.0961051)
(-3.28475e-06 -2.91722e-06 0.0869829)
(4.11175e-06 5.3491e-06 0.0809903)
(-1.13941e-05 -1.17085e-05 0.0960628)
(2.47708e-07 -1.20696e-06 0.0809552)
(3.66664e-06 1.03216e-05 0.0912865)
(1.10412e-05 4.06187e-06 0.0913005)
(-1.43923e-06 -1.13104e-07 0.0809547)
(-1.18433e-05 -1.09855e-05 0.0960751)
(4.5631e-06 4.51113e-06 0.0870219)
(-6.2251e-06 -3.66788e-06 0.0912663)
(1.29988e-05 2.6522e-06 0.0961175)
(5.82076e-06 4.18913e-06 0.0809916)
(4.17616e-06 1.09927e-05 0.0912936)
(-5.6085e-08 -1.51538e-06 0.0809503)
(-1.09284e-05 -1.17484e-05 0.0960721)
(4.55865e-06 4.58115e-06 0.0870202)
(-3.65473e-06 -6.29073e-06 0.0912594)
(2.74989e-06 1.30254e-05 0.0961148)
(4.27596e-06 5.78749e-06 0.0809861)
(-3.68118e-06 -3.67164e-06 0.0830639)
(1.61136e-06 3.72608e-06 0.0678255)
(3.64895e-06 1.65603e-06 0.0678195)
(-9.35184e-07 -2.2235e-07 0.067788)
(-3.06589e-07 -9.04434e-07 0.0677822)
(1.40473e-06 1.46494e-06 0.0830931)
(-2.51862e-06 -2.46238e-06 0.0708726)
(3.76908e-06 1.72422e-06 0.0709086)
(-2.40266e-06 -2.38807e-06 0.0708724)
(1.73687e-06 3.85276e-06 0.0709082)
(1.22773e-05 1.18097e-05 0.0974113)
(4.96724e-05 4.9396e-05 0.104734)
(-3.95578e-05 -1.1003e-05 0.101709)
(-1.05342e-05 -3.96801e-05 0.101713)
(4.75915e-05 1.47959e-05 0.101635)
(1.51891e-05 4.74024e-05 0.101627)
(-1.07315e-05 -1.13265e-05 0.0974646)
(-1.19473e-05 1.20263e-05 0.0974114)
(-4.94247e-05 4.95111e-05 0.104734)
(3.96604e-05 -1.06608e-05 0.10171)
(1.09019e-05 -3.96738e-05 0.101713)
(-4.74388e-05 1.50312e-05 0.101629)
(-1.48435e-05 4.74848e-05 0.101633)
(1.10768e-05 -1.1002e-05 0.0974653)
(1.18384e-05 -1.21676e-05 0.0974111)
(4.95053e-05 -4.95252e-05 0.104734)
(-1.10539e-05 3.96007e-05 0.101709)
(-3.97903e-05 1.06351e-05 0.101712)
(1.48079e-05 -4.75205e-05 0.101629)
(4.74476e-05 -1.50639e-05 0.101633)
(-1.11816e-05 1.08745e-05 0.0974644)
(-1.19909e-05 -1.20858e-05 0.0974114)
(-4.95145e-05 -4.95907e-05 0.104734)
(1.07628e-05 3.95603e-05 0.101712)
(3.96161e-05 1.05924e-05 0.101709)
(-1.49958e-05 -4.75868e-05 0.101633)
(-4.74672e-05 -1.50644e-05 0.101629)
(1.10249e-05 1.09133e-05 0.0974644)
(1.15871e-05 3.34962e-05 0.115028)
(3.35296e-05 1.15284e-05 0.115029)
(1.14639e-05 3.35812e-05 0.115003)
(1.28671e-05 1.2812e-05 0.116343)
(1.29373e-05 1.28787e-05 0.116391)
(-2.44734e-05 2.46873e-05 0.113139)
(-1.14671e-05 3.34973e-05 0.115028)
(-3.3297e-05 1.15256e-05 0.115029)
(-1.11976e-05 3.35267e-05 0.115003)
(-3.3286e-05 1.13527e-05 0.115003)
(-1.26265e-05 1.27948e-05 0.116343)
(-1.27714e-05 1.28773e-05 0.116391)
(3.35489e-05 -1.15098e-05 0.115028)
(1.15568e-05 -3.33679e-05 0.115028)
(1.1487e-05 -3.33254e-05 0.115003)
(1.2889e-05 -1.26942e-05 0.116343)
(1.29316e-05 -1.28338e-05 0.11639)
(-2.4565e-05 -2.46047e-05 0.113139)
(-3.33305e-05 -1.16023e-05 0.115028)
(-1.15401e-05 -3.34076e-05 0.115028)
(-3.33263e-05 -1.13633e-05 0.115002)
(-1.12824e-05 -3.33384e-05 0.115003)
(-1.26467e-05 -1.27048e-05 0.116343)
(-1.27977e-05 -1.28607e-05 0.11639)
(3.18354e-06 -4.59164e-05 0.103352)
(4.65147e-07 1.64642e-05 0.0974785)
(6.36906e-07 5.96248e-05 0.103947)
(-2.0674e-07 -1.00605e-05 0.0986022)
(3.00428e-06 5.92545e-05 0.103198)
(-2.45108e-07 -1.04177e-05 0.0975477)
(1.19031e-06 -4.41582e-05 0.104074)
(5.53225e-06 5.67339e-05 0.101529)
(1.18122e-06 -4.57863e-05 0.0996021)
(2.17093e-06 1.26842e-05 0.092613)
(-1.98355e-06 -1.26645e-05 0.0954435)
(8.07864e-06 5.29549e-05 0.0995352)
(4.0144e-07 1.31005e-05 0.0953746)
(2.89396e-06 -4.96875e-05 0.10166)
(3.08922e-06 5.82413e-05 0.103185)
(-3.43422e-07 1.56688e-05 0.0985318)
(-6.27217e-07 -1.10915e-05 0.0975384)
(1.04382e-06 -4.46539e-05 0.10406)
(8.95103e-08 1.56758e-05 0.0974694)
(6.07076e-07 5.86921e-05 0.103933)
(3.08859e-06 -4.65379e-05 0.103339)
(-2.92735e-06 -4.61233e-05 0.103352)
(-2.02601e-07 1.63033e-05 0.0974782)
(-1.52382e-07 5.95291e-05 0.103946)
(2.66059e-07 -1.01325e-05 0.0986023)
(-2.58119e-06 5.89569e-05 0.103197)
(2.78428e-07 -1.05755e-05 0.0975478)
(-8.7224e-07 -4.42265e-05 0.104073)
(-5.51164e-06 5.67642e-05 0.101527)
(-1.25172e-06 -4.56118e-05 0.0996025)
(-2.01999e-06 1.26432e-05 0.0926118)
(1.89621e-06 -1.26358e-05 0.0954431)
(-4.64175e-07 1.30594e-05 0.0953737)
(-8.13526e-06 5.30367e-05 0.0995327)
(-3.01394e-06 -4.94511e-05 0.10166)
(-2.56201e-06 -4.91212e-05 0.101673)
(-5.06182e-07 1.36888e-05 0.0953808)
(-7.47502e-06 5.36007e-05 0.0995425)
(4.78809e-06 -8.55377e-06 0.0926702)
(-4.81421e-06 5.757e-05 0.101539)
(1.84288e-06 -1.23181e-05 0.0954505)
(-9.60749e-07 -4.5486e-05 0.099613)
(-3.02266e-06 5.81745e-05 0.103185)
(1.13349e-07 1.56289e-05 0.0985318)
(2.41739e-07 -1.10713e-05 0.0975384)
(-1.22233e-06 -4.46322e-05 0.10406)
(-2.89909e-07 1.5627e-05 0.0974692)
(-5.12087e-07 5.86643e-05 0.103933)
(-3.2538e-06 -4.64522e-05 0.103339)
(1.19106e-05 -1.18214e-05 0.097478)
(4.20931e-05 -4.19985e-05 0.104909)
(-4.64583e-05 1.44249e-05 0.101642)
(-1.45507e-05 4.6504e-05 0.101646)
(4.08306e-05 -1.1113e-05 0.101724)
(-1.14191e-05 1.137e-05 0.0974231)
(1.11883e-05 -4.07894e-05 0.101728)
(5.68128e-05 5.53931e-06 0.101528)
(-4.55534e-05 1.09953e-06 0.0996046)
(1.26391e-05 1.97545e-06 0.0926124)
(-1.26015e-05 -1.96616e-06 0.0954437)
(5.30729e-05 8.13116e-06 0.0995333)
(1.30883e-05 4.03274e-07 0.0953745)
(-4.93825e-05 2.99268e-06 0.101662)
(5.82702e-05 3.03808e-06 0.103185)
(1.56703e-05 -1.01011e-07 0.0985316)
(-1.10126e-05 -2.71548e-07 0.0975385)
(-4.45569e-05 1.21917e-06 0.104059)
(1.56477e-05 2.69928e-07 0.0974694)
(5.87415e-05 5.45656e-07 0.103933)
(-4.63499e-05 3.2598e-06 0.103339)
(5.68328e-05 -5.47839e-06 0.101527)
(-4.58784e-05 -1.0105e-06 0.0996021)
(1.26462e-05 -2.10589e-06 0.0926112)
(-1.26896e-05 2.09128e-06 0.0954431)
(1.31357e-05 -2.60428e-07 0.0953735)
(5.29693e-05 -7.9285e-06 0.0995324)
(-4.96599e-05 -2.83256e-06 0.10166)
(5.83583e-05 -3.06831e-06 0.103185)
(1.57273e-05 3.86201e-07 0.0985314)
(-4.45581e-05 -1.02352e-06 0.104059)
(-1.10428e-05 7.03708e-07 0.0975378)
(5.88089e-05 -5.75743e-07 0.103933)
(1.57482e-05 1.51683e-10 0.0974688)
(-4.64627e-05 -3.07538e-06 0.103338)
(4.63143e-05 3.13111e-06 0.103353)
(-1.61528e-05 3.79949e-07 0.0974787)
(-5.9265e-05 4.12979e-07 0.103947)
(1.03103e-05 -1.69362e-07 0.0986027)
(-5.87789e-05 2.82681e-06 0.103198)
(1.07013e-05 -2.06443e-07 0.0975489)
(4.45178e-05 1.07762e-06 0.104074)
(-5.65776e-05 5.47973e-06 0.101529)
(4.58021e-05 9.52348e-07 0.0996049)
(-1.25522e-05 1.80471e-06 0.0926129)
(1.26822e-05 -2.16664e-06 0.0954448)
(-5.28429e-05 7.97504e-06 0.0995356)
(-1.29995e-05 2.77273e-07 0.0953748)
(4.95805e-05 2.81077e-06 0.101662)
(4.93129e-05 2.68588e-06 0.101675)
(-1.35652e-05 6.92416e-07 0.0953819)
(-5.3611e-05 7.7131e-06 0.0995455)
(8.46561e-06 -4.85752e-06 0.0926718)
(-5.73895e-05 5.0679e-06 0.101541)
(4.55306e-05 9.68049e-07 0.0996154)
(1.24023e-05 -1.83083e-06 0.0954523)
(-5.80049e-05 3.09207e-06 0.103186)
(-1.54523e-05 -1.62153e-07 0.0985325)
(1.11322e-05 -4.00058e-07 0.0975395)
(4.48072e-05 1.19316e-06 0.10406)
(-1.55217e-05 2.2796e-07 0.0974698)
(-5.84098e-05 6.02073e-07 0.103934)
(4.65575e-05 3.21551e-06 0.10334)
(4.63175e-05 -3.08433e-06 0.103352)
(-5.9292e-05 -3.98326e-07 0.103947)
(-1.62028e-05 -3.34426e-07 0.0974789)
(1.02833e-05 2.48752e-07 0.0986024)
(-5.87986e-05 -2.8067e-06 0.103198)
(4.4493e-05 -1.02759e-06 0.104073)
(1.06917e-05 2.58227e-07 0.0975484)
(-5.66442e-05 -5.59083e-06 0.101529)
(4.56893e-05 -1.16369e-06 0.0996035)
(-1.26402e-05 -1.94476e-06 0.092613)
(1.26538e-05 2.09703e-06 0.0954443)
(-1.30065e-05 -3.91526e-07 0.0953751)
(-5.29677e-05 -8.18173e-06 0.0995348)
(4.95406e-05 -2.93511e-06 0.101661)
(4.92466e-05 -2.71362e-06 0.101673)
(-1.36295e-05 -6.73609e-07 0.0953821)
(-5.35865e-05 -7.66863e-06 0.0995446)
(8.51e-06 4.76735e-06 0.0926706)
(-5.74673e-05 -5.04075e-06 0.10154)
(1.23626e-05 1.78934e-06 0.0954517)
(4.55073e-05 -1.09024e-06 0.099614)
(-5.79896e-05 -3.08614e-06 0.103186)
(-1.54635e-05 2.42832e-07 0.0985326)
(4.47971e-05 -1.11555e-06 0.10406)
(1.11561e-05 4.53159e-07 0.0975391)
(-5.84239e-05 -5.57628e-07 0.103934)
(-1.55112e-05 -1.92173e-07 0.0974701)
(4.65939e-05 -3.18118e-06 0.103339)
(3.14459e-06 4.63091e-05 0.103353)
(4.95684e-07 -5.92599e-05 0.103947)
(3.84855e-07 -1.61595e-05 0.0974787)
(-1.86745e-07 1.02819e-05 0.0986026)
(2.85719e-06 -5.87699e-05 0.103198)
(1.11491e-06 4.45012e-05 0.104073)
(-2.17299e-07 1.06926e-05 0.0975489)
(5.53377e-06 -5.66561e-05 0.101529)
(1.02546e-06 4.55648e-05 0.0996046)
(1.89889e-06 -1.2746e-05 0.0926135)
(-2.10476e-06 1.26365e-05 0.0954449)
(8.12028e-06 -5.30315e-05 0.0995352)
(3.78053e-07 -1.30421e-05 0.0953757)
(2.86286e-06 4.94881e-05 0.101662)
(2.72074e-06 4.93103e-05 0.101675)
(-1.79596e-06 1.23969e-05 0.0954524)
(3.09129e-06 -5.80595e-05 0.103186)
(-2.05346e-07 -1.55037e-05 0.0985318)
(1.13799e-06 4.47239e-05 0.10406)
(-4.43749e-07 1.10928e-05 0.0975395)
(6.17027e-07 -5.84752e-05 0.103934)
(2.13245e-07 -1.55378e-05 0.0974699)
(3.19088e-06 4.64908e-05 0.10334)
(-3.01794e-06 4.62929e-05 0.103352)
(-3.36836e-07 -5.92665e-05 0.103947)
(-2.93017e-07 -1.61573e-05 0.097478)
(2.09533e-07 1.02677e-05 0.0986025)
(-2.67446e-06 -5.87595e-05 0.103197)
(-1.00996e-06 4.44877e-05 0.104073)
(2.35934e-07 1.06685e-05 0.0975485)
(-5.49695e-06 -5.66949e-05 0.101528)
(-1.21192e-06 4.55844e-05 0.0996031)
(-1.9254e-06 -1.26337e-05 0.0926124)
(2.03934e-06 1.26051e-05 0.0954442)
(-3.90714e-07 -1.30414e-05 0.0953741)
(-8.16138e-06 -5.29979e-05 0.0995335)
(-2.94732e-06 4.94236e-05 0.101661)
(-2.61417e-06 4.92575e-05 0.101673)
(-5.79445e-07 -1.36276e-05 0.0953812)
(-7.56264e-06 -5.34844e-05 0.0995434)
(4.84014e-06 8.58066e-06 0.0926709)
(-4.88547e-06 -5.7376e-05 0.10154)
(1.84637e-06 1.23436e-05 0.0954516)
(-1.00235e-06 4.55623e-05 0.0996137)
(-3.0332e-06 -5.80729e-05 0.103185)
(1.73092e-07 -1.55118e-05 0.0985317)
(-1.19171e-06 4.47022e-05 0.104059)
(3.52623e-07 1.10845e-05 0.0975392)
(-5.76934e-07 -5.84891e-05 0.103933)
(-2.40363e-07 -1.55252e-05 0.097469)
(-3.21403e-06 4.64527e-05 0.103339)
(1.18377e-05 1.17793e-05 0.0974772)
(4.2013e-05 4.20041e-05 0.104908)
(-1.45144e-05 -4.65408e-05 0.101646)
(-4.64601e-05 -1.44177e-05 0.101642)
(-1.14256e-05 -1.14342e-05 0.0974232)
(1.10957e-05 4.07383e-05 0.101726)
(4.07695e-05 1.11145e-05 0.101724)
(6.07831e-05 6.08046e-05 0.108928)
(-9.73622e-05 5.97971e-05 0.107975)
(6.00921e-05 -9.7466e-05 0.107974)
(-0.000158905 -0.000158962 0.106621)
(-5.97402e-06 -5.98268e-06 0.106779)
(6.00529e-05 9.7917e-05 0.107927)
(-6.00779e-05 9.79828e-05 0.107927)
(6.194e-06 -6.12257e-06 0.106779)
(9.79201e-05 6.00661e-05 0.107928)
(9.81722e-05 -6.04094e-05 0.107926)
(-9.78708e-05 5.99664e-05 0.107927)
(-9.81328e-05 -6.03434e-05 0.107926)
(-5.82467e-06 5.90423e-06 0.106778)
(6.02845e-05 -9.80601e-05 0.107927)
(-6.02379e-05 -9.80037e-05 0.107927)
(5.89281e-06 5.92679e-06 0.106778)
(0.000158304 0.000158232 0.106621)
(-8.18927e-06 -8.22672e-06 0.106817)
(5.98568e-05 9.74194e-05 0.107974)
(-5.99229e-05 9.74725e-05 0.107974)
(5.91252e-05 9.55922e-05 0.108108)
(-5.91044e-05 9.56535e-05 0.108109)
(-0.000158205 0.000158164 0.106621)
(8.52733e-06 -8.45296e-06 0.106818)
(9.73506e-05 5.97677e-05 0.107974)
(9.7574e-05 -6.0233e-05 0.107974)
(9.56531e-05 5.92213e-05 0.10811)
(9.56937e-05 -5.91246e-05 0.108108)
(-9.75449e-05 -6.01479e-05 0.107974)
(-9.55063e-05 5.90034e-05 0.10811)
(-9.56535e-05 -5.90619e-05 0.108109)
(0.000159055 -0.000159109 0.106621)
(-8.69812e-06 8.82075e-06 0.106816)
(-6.00282e-05 -9.74212e-05 0.107974)
(5.89807e-05 -9.55731e-05 0.108109)
(-5.89541e-05 -9.55226e-05 0.108109)
(8.71676e-06 8.73526e-06 0.106816)
(6.11601e-05 6.11965e-05 0.108853)
(-6.11654e-05 6.11438e-05 0.108853)
(6.115e-05 -6.11633e-05 0.108852)
(-6.11764e-05 -6.11855e-05 0.108852)
(1.792e-06 2.13955e-05 0.094016)
(-1.3408e-06 1.9622e-05 0.0835894)
(1.94057e-06 4.41844e-05 0.094075)
(-3.63901e-06 -3.16269e-08 0.0835675)
(-1.99287e-06 6.71482e-06 0.0721747)
(3.47506e-06 -1.76149e-06 0.0721782)
(2.13693e-05 1.77411e-06 0.0940154)
(1.96853e-05 -1.34419e-06 0.08359)
(4.42591e-05 1.90546e-06 0.0940752)
(-6.66802e-08 -3.65488e-06 0.0835669)
(-6.08109e-05 6.07826e-05 0.108928)
(6.09366e-05 -6.0956e-05 0.108928)
(-6.09283e-05 -6.09443e-05 0.108928)
(5.97093e-05 5.97839e-05 0.109153)
(-5.97374e-05 5.9726e-05 0.109153)
(5.96626e-05 -5.96637e-05 0.109152)
(-5.96763e-05 -5.96802e-05 0.109153)
(-6.14991e-05 4.26699e-06 0.102462)
(-6.07592e-05 1.6445e-05 0.0957203)
(-0.000101131 1.86007e-05 0.10862)
(-9.68108e-05 5.96277e-05 0.108021)
(-0.000105356 4.70992e-06 0.102453)
(-2.86603e-05 4.77266e-06 0.0957153)
(-0.000100835 1.85338e-05 0.108686)
(6.87189e-06 -1.62999e-06 0.0721723)
(-1.858e-06 3.3014e-06 0.0721803)
(4.32787e-06 -6.15731e-05 0.102462)
(1.87655e-05 -0.000101101 0.10862)
(1.62213e-05 -6.01114e-05 0.0957213)
(5.94663e-05 -9.66891e-05 0.108021)
(4.68344e-06 -0.00010535 0.102452)
(1.85753e-05 -0.000100746 0.108686)
(4.76876e-06 -2.89365e-05 0.0957135)
(-2.84902e-05 -1.23271e-05 0.0894008)
(-1.22871e-05 -2.85e-05 0.0893989)
(7.04872e-06 7.07172e-06 0.106801)
(-1.85751e-05 -1.02704e-06 0.0893671)
(-9.91801e-07 -1.85907e-05 0.0893645)
(-3.32507e-06 -1.68897e-06 0.0722596)
(1.81341e-06 6.81483e-06 0.0722545)
(-1.75716e-06 -3.38242e-06 0.072257)
(6.88873e-06 1.90401e-06 0.0722547)
(0.000160708 0.000160651 0.1066)
(1.35827e-06 1.95409e-05 0.0894995)
(1.94761e-05 1.28472e-06 0.089497)
(1.30085e-05 3.01301e-05 0.0895363)
(3.01863e-05 1.30326e-05 0.0895337)
(2.13771e-06 4.68566e-05 0.0942421)
(-3.78081e-06 6.98371e-07 0.0836837)
(-1.63047e-06 2.05368e-05 0.0837099)
(1.99583e-06 2.37162e-05 0.0941778)
(-2.12667e-06 4.68635e-05 0.0942423)
(3.78329e-06 6.79146e-07 0.0836826)
(1.59471e-06 2.05815e-05 0.0837105)
(-1.95451e-06 2.37259e-05 0.0941777)
(5.14941e-06 0.000109258 0.102585)
(6.04068e-05 9.85422e-05 0.107879)
(5.5292e-06 3.09083e-05 0.0958654)
(1.88433e-05 0.00010139 0.108554)
(1.72064e-05 6.31368e-05 0.0958736)
(1.90312e-05 0.000101695 0.108487)
(4.86071e-06 6.47722e-05 0.102595)
(-5.18924e-06 0.000109277 0.102585)
(-6.03853e-05 9.85366e-05 0.107878)
(-5.56255e-06 3.08602e-05 0.0958635)
(-1.87886e-05 0.000101406 0.108554)
(-1.72929e-05 6.3314e-05 0.0958736)
(-1.8993e-05 0.0001017 0.108487)
(-4.79416e-06 6.47688e-05 0.102595)
(3.38532e-06 -1.78141e-06 0.0722569)
(-1.97542e-06 6.83195e-06 0.0722556)
(-0.00016065 0.000160609 0.1066)
(-1.30791e-06 1.94238e-05 0.0894968)
(-1.95122e-05 1.35088e-06 0.0895)
(-1.31911e-05 3.03752e-05 0.0895345)
(-3.0284e-05 1.31007e-05 0.0895356)
(1.67835e-06 -3.32761e-06 0.0722594)
(-6.73248e-06 1.88205e-06 0.0722539)
(4.69219e-05 2.20757e-06 0.0942424)
(6.57638e-07 -3.78838e-06 0.083683)
(2.05707e-05 -1.60261e-06 0.0837104)
(2.37092e-05 1.98721e-06 0.094177)
(0.000109303 5.20235e-06 0.102584)
(9.84735e-05 6.03759e-05 0.107879)
(3.0821e-05 5.52182e-06 0.0958645)
(0.000101407 1.87394e-05 0.108554)
(6.31418e-05 1.72255e-05 0.0958735)
(0.000101714 1.90094e-05 0.108487)
(6.4722e-05 4.90889e-06 0.102595)
(4.69405e-05 -1.99679e-06 0.0942425)
(7.67462e-07 3.77858e-06 0.0836834)
(2.05667e-05 1.47234e-06 0.083709)
(2.37221e-05 -1.98083e-06 0.0941767)
(0.000109361 -5.12872e-06 0.102585)
(9.84924e-05 -6.01165e-05 0.107878)
(0.000101447 -1.88171e-05 0.108554)
(3.02128e-05 -5.42758e-06 0.0958648)
(0.000101692 -1.88008e-05 0.108487)
(6.38915e-05 -1.75734e-05 0.0958718)
(6.46984e-05 -4.73178e-06 0.102595)
(-0.000109297 5.20672e-06 0.102585)
(-9.84368e-05 6.02977e-05 0.107879)
(-3.09223e-05 5.58756e-06 0.0958666)
(-0.000101418 1.87522e-05 0.108554)
(-6.32551e-05 1.72564e-05 0.095874)
(-0.000101713 1.90142e-05 0.108487)