/*--------------------------------*- C++ -*----------------------------------*\
| =========                 |                                                 |
| \\      /  F ield         | OpenFOAM: The Open Source CFD Toolbox           |
|  \\    /   O peration     | Version:  v1906                                 |
|   \\  /    A nd           | Web:      www.OpenFOAM.com                      |
|    \\/     M anipulation  |                                                 |
\*---------------------------------------------------------------------------*/
FoamFile
{
    version     2.0;
    format      ascii;
    class       volScalarField;
    location    "250";
    object      epsilon;
}
// * * * * * * * * * * * * * * * * * * * * * * * * * * * * * * * * * * * * * //

dimensions      [0 2 -3 0 0 0 0];


internalField   nonuniform List<scalar> 
43248
(
1.33748e-07
2.30885e-07
2.30922e-07
3.58393e-07
1.31605e-07
2.41552e-07
2.41592e-07
3.84522e-07
1.30258e-07
2.54305e-07
2.54349e-07
4.13522e-07
1.29696e-07
2.691e-07
2.69148e-07
4.45039e-07
1.29921e-07
2.8587e-07
2.85923e-07
4.78683e-07
1.3091e-07
3.04529e-07
3.04588e-07
5.14021e-07
1.32666e-07
3.24975e-07
3.25039e-07
5.50613e-07
1.35188e-07
3.47088e-07
3.47155e-07
5.88014e-07
1.38479e-07
3.70729e-07
3.70802e-07
6.25796e-07
1.42541e-07
3.95754e-07
3.95833e-07
6.63578e-07
1.47379e-07
4.22007e-07
4.22087e-07
7.01038e-07
1.52997e-07
4.49315e-07
4.49404e-07
7.37881e-07
1.59404e-07
4.77524e-07
4.77611e-07
7.73939e-07
1.66602e-07
5.06439e-07
5.06535e-07
8.08995e-07
1.74589e-07
5.3589e-07
5.35985e-07
8.4296e-07
1.83371e-07
5.65703e-07
5.65805e-07
8.75763e-07
1.92945e-07
5.95703e-07
5.95804e-07
9.07388e-07
2.03302e-07
6.25721e-07
6.25833e-07
9.37812e-07
2.14424e-07
6.55607e-07
6.55711e-07
9.67016e-07
2.26285e-07
6.85189e-07
6.85303e-07
9.95028e-07
2.38866e-07
7.14338e-07
7.14454e-07
1.02184e-06
2.52132e-07
7.42972e-07
7.43086e-07
1.04752e-06
2.6601e-07
7.70891e-07
7.71012e-07
1.07205e-06
2.80498e-07
7.9809e-07
7.98205e-07
1.09547e-06
2.9552e-07
8.24515e-07
8.24633e-07
1.11799e-06
3.10929e-07
8.49758e-07
8.49874e-07
1.139e-06
3.26859e-07
8.74581e-07
8.74686e-07
1.16006e-06
3.52911e-07
2.28628e-07
2.28662e-07
3.52872e-07
2.286e-07
2.28686e-07
2.28549e-07
2.28625e-07
3.52937e-07
2.28582e-07
2.28591e-07
3.52936e-07
3.58369e-07
3.78401e-07
2.30966e-07
2.31002e-07
2.38774e-07
2.38817e-07
3.5833e-07
3.78356e-07
2.3094e-07
2.31028e-07
2.38746e-07
2.38843e-07
2.30964e-07
2.3869e-07
2.38773e-07
3.58396e-07
3.78433e-07
2.30929e-07
2.38727e-07
2.38737e-07
3.78421e-07
3.84506e-07
4.06786e-07
2.41638e-07
2.41683e-07
2.51014e-07
2.51066e-07
3.84461e-07
4.06741e-07
2.41611e-07
2.4171e-07
2.50985e-07
2.51094e-07
2.41637e-07
2.50925e-07
2.51017e-07
3.84531e-07
4.06829e-07
2.416e-07
2.50966e-07
2.50979e-07
4.06822e-07
4.13492e-07
4.37751e-07
2.54397e-07
2.54449e-07
2.65311e-07
2.65369e-07
4.13448e-07
4.37704e-07
2.54368e-07
2.54479e-07
2.65278e-07
2.654e-07
2.544e-07
2.65214e-07
2.65317e-07
4.13527e-07
4.378e-07
2.54362e-07
2.65259e-07
2.6528e-07
4.37796e-07
4.44999e-07
4.70914e-07
2.69199e-07
2.69258e-07
2.81602e-07
2.81666e-07
4.44954e-07
4.70861e-07
2.69167e-07
2.6929e-07
2.81565e-07
2.81699e-07
2.69205e-07
2.81496e-07
2.81611e-07
4.45041e-07
4.70968e-07
2.69168e-07
2.81547e-07
2.81572e-07
4.70965e-07
4.78636e-07
5.05852e-07
2.85978e-07
2.86042e-07
2.99807e-07
2.99875e-07
4.78586e-07
5.05796e-07
2.85942e-07
2.86077e-07
2.99764e-07
2.99911e-07
2.85987e-07
2.99693e-07
2.99818e-07
4.78683e-07
5.05913e-07
2.85948e-07
2.99748e-07
2.99776e-07
5.05909e-07
5.13968e-07
5.4213e-07
3.04647e-07
3.04715e-07
3.19828e-07
3.199e-07
5.13914e-07
5.42071e-07
3.04604e-07
3.04753e-07
3.19777e-07
3.19937e-07
3.04659e-07
3.19704e-07
3.19841e-07
5.14022e-07
5.42193e-07
3.04616e-07
3.19762e-07
3.19794e-07
5.42193e-07
5.50555e-07
5.79295e-07
3.25102e-07
3.25172e-07
3.41545e-07
3.4162e-07
5.50498e-07
5.79233e-07
3.25053e-07
3.25215e-07
3.41486e-07
3.41659e-07
3.25117e-07
3.41411e-07
3.41562e-07
5.50612e-07
5.79363e-07
3.25069e-07
3.41474e-07
3.41508e-07
5.79366e-07
5.87951e-07
6.1692e-07
3.47225e-07
3.47296e-07
3.64827e-07
3.64904e-07
5.87891e-07
6.16856e-07
3.47167e-07
3.4734e-07
3.64759e-07
3.64946e-07
3.47242e-07
3.64683e-07
3.64848e-07
5.88008e-07
6.16997e-07
3.47186e-07
3.64752e-07
3.64786e-07
6.17e-07
6.25724e-07
6.54628e-07
3.70875e-07
3.70946e-07
3.89531e-07
3.89609e-07
6.25661e-07
6.5456e-07
3.70809e-07
3.70996e-07
3.89453e-07
3.89652e-07
3.70897e-07
3.89378e-07
3.89554e-07
6.2579e-07
6.54703e-07
3.70833e-07
3.8945e-07
3.89484e-07
6.54709e-07
6.63506e-07
6.92063e-07
3.95911e-07
3.95978e-07
4.15498e-07
4.15575e-07
6.63441e-07
6.91995e-07
3.95835e-07
3.96034e-07
4.1541e-07
4.15622e-07
3.95934e-07
4.15337e-07
4.15526e-07
6.63574e-07
6.92142e-07
3.95862e-07
4.15413e-07
4.15447e-07
6.92154e-07
7.00952e-07
7.28974e-07
4.22169e-07
4.22244e-07
4.42572e-07
4.42642e-07
7.00892e-07
7.28885e-07
4.22084e-07
4.22294e-07
4.42474e-07
4.42695e-07
4.222e-07
4.42399e-07
4.426e-07
7.01021e-07
7.29048e-07
4.22119e-07
4.42481e-07
4.42511e-07
7.29053e-07
7.37812e-07
7.65091e-07
4.49491e-07
4.49561e-07
4.7057e-07
4.70647e-07
7.37727e-07
7.65025e-07
4.49396e-07
4.49616e-07
4.70463e-07
4.70697e-07
4.49519e-07
4.70398e-07
4.7061e-07
7.37877e-07
7.65178e-07
4.49429e-07
4.70479e-07
4.70512e-07
7.65199e-07
7.73842e-07
8.00307e-07
4.777e-07
4.77775e-07
4.99333e-07
4.99399e-07
7.73779e-07
8.0021e-07
4.77595e-07
4.77826e-07
4.99216e-07
4.99457e-07
4.77739e-07
4.99147e-07
4.99369e-07
7.73915e-07
8.00388e-07
4.7764e-07
4.99238e-07
4.99262e-07
8.00387e-07
8.08921e-07
8.34437e-07
5.06625e-07
5.06693e-07
5.28672e-07
5.28741e-07
8.08834e-07
8.34357e-07
5.06512e-07
5.06752e-07
5.28548e-07
5.28794e-07
5.06663e-07
5.28487e-07
5.28719e-07
8.08994e-07
8.34512e-07
5.06555e-07
5.28575e-07
5.28605e-07
8.3454e-07
8.42865e-07
8.67451e-07
5.36077e-07
5.36145e-07
5.5842e-07
5.58484e-07
8.42788e-07
8.67362e-07
5.35957e-07
5.36201e-07
5.5829e-07
5.58545e-07
5.36124e-07
5.58231e-07
5.58471e-07
8.42933e-07
8.67537e-07
5.3601e-07
5.58327e-07
5.58347e-07
8.67545e-07
8.75676e-07
8.99301e-07
5.65895e-07
5.65957e-07
5.88393e-07
5.88454e-07
8.75592e-07
8.99215e-07
5.65768e-07
5.66019e-07
5.88257e-07
5.88513e-07
5.65945e-07
5.88202e-07
5.88448e-07
8.75753e-07
8.99374e-07
5.65822e-07
5.88299e-07
5.8832e-07
8.99396e-07
9.07299e-07
9.29952e-07
5.95894e-07
5.95955e-07
6.18425e-07
6.18482e-07
9.0722e-07
9.29862e-07
5.95763e-07
5.96014e-07
6.18288e-07
6.18545e-07
5.9595e-07
6.18233e-07
6.18488e-07
9.07366e-07
9.30026e-07
5.95823e-07
6.18338e-07
6.18355e-07
9.30048e-07
9.37724e-07
9.59392e-07
6.25916e-07
6.25971e-07
6.48346e-07
6.48404e-07
9.37637e-07
9.59312e-07
6.25783e-07
6.26035e-07
6.48204e-07
6.48464e-07
6.25978e-07
6.48161e-07
6.48416e-07
9.37789e-07
9.59469e-07
6.25849e-07
6.4826e-07
6.48273e-07
9.59491e-07
9.66926e-07
9.87663e-07
6.55795e-07
6.55851e-07
6.78022e-07
6.78073e-07
9.66851e-07
9.87563e-07
6.55659e-07
6.5591e-07
6.77884e-07
6.78136e-07
6.55863e-07
6.77832e-07
6.78095e-07
9.66993e-07
9.87718e-07
6.55725e-07
6.77946e-07
6.77961e-07
9.87745e-07
9.94947e-07
1.0147e-06
6.85375e-07
6.85426e-07
7.07284e-07
7.07338e-07
9.9486e-07
1.01463e-06
6.85248e-07
6.8549e-07
7.0715e-07
7.07401e-07
6.85451e-07
7.07106e-07
7.07369e-07
9.94999e-07
1.01477e-06
6.85317e-07
7.07217e-07
7.0723e-07
1.0148e-06
1.02174e-06
1.04064e-06
7.14517e-07
7.14569e-07
7.3605e-07
7.36096e-07
1.02167e-06
1.04054e-06
7.1439e-07
7.14635e-07
7.35921e-07
7.3616e-07
7.14605e-07
7.35872e-07
7.36137e-07
1.02181e-06
1.04069e-06
7.14466e-07
7.35986e-07
7.35997e-07
1.04072e-06
1.04744e-06
1.06538e-06
7.43148e-07
7.43195e-07
7.64155e-07
7.642e-07
1.04736e-06
1.06529e-06
7.43026e-07
7.43258e-07
7.6403e-07
7.64267e-07
7.43236e-07
7.63982e-07
7.64247e-07
1.04749e-06
1.06543e-06
7.43096e-07
7.64101e-07
7.64111e-07
1.06546e-06
1.07196e-06
1.08908e-06
7.71064e-07
7.71107e-07
7.91542e-07
7.91587e-07
1.07188e-06
1.08899e-06
7.70945e-07
7.71175e-07
7.9142e-07
7.91646e-07
7.71157e-07
7.91378e-07
7.91641e-07
1.07201e-06
1.08912e-06
7.71022e-07
7.91493e-07
7.91505e-07
1.08916e-06
1.09539e-06
1.11174e-06
7.98256e-07
7.98298e-07
8.18138e-07
8.18169e-07
1.0953e-06
1.11165e-06
7.98138e-07
7.98358e-07
8.18011e-07
8.18238e-07
7.98353e-07
8.17967e-07
8.18225e-07
1.09543e-06
1.11178e-06
7.98218e-07
8.18085e-07
8.18092e-07
1.11181e-06
1.11791e-06
1.1331e-06
8.2468e-07
8.24716e-07
8.43704e-07
8.43755e-07
1.11783e-06
1.13303e-06
8.24562e-07
8.24781e-07
8.4359e-07
8.43803e-07
8.24772e-07
8.43561e-07
8.43819e-07
1.11796e-06
1.13314e-06
8.24641e-07
8.43674e-07
8.43688e-07
1.1332e-06
1.13891e-06
1.15415e-06
8.49914e-07
8.49951e-07
8.68609e-07
8.68612e-07
1.13883e-06
1.15403e-06
8.49799e-07
8.5001e-07
8.68474e-07
8.68685e-07
8.50017e-07
8.68425e-07
8.68669e-07
1.13895e-06
1.15417e-06
8.49885e-07
8.6854e-07
8.68544e-07
1.15419e-06
1.16001e-06
8.74739e-07
8.74761e-07
1.15991e-06
8.74618e-07
8.7482e-07
8.74817e-07
1.16003e-06
8.74693e-07
1.34413e-07
1.3441e-07
1.3442e-07
1.34414e-07
3.68232e-06
8.90802e-06
3.64886e-06
8.91307e-06
1.84663e-05
1.8458e-05
3.6829e-06
8.90974e-06
3.64867e-06
8.91482e-06
1.33745e-07
1.33755e-07
1.33749e-07
1.32071e-07
1.32068e-07
1.32079e-07
1.32072e-07
1.1586e-06
2.79618e-06
1.58617e-07
2.33356e-07
1.13071e-06
2.81982e-06
1.58832e-07
1.84684e-05
1.84601e-05
1.15865e-06
1.58615e-07
2.79631e-06
2.33393e-07
1.13075e-06
1.58841e-07
2.82016e-06
5.13146e-06
5.13333e-06
3.65305e-07
5.14381e-06
5.14585e-06
3.75852e-06
8.9193e-06
3.73234e-06
8.92373e-06
1.84376e-05
1.84299e-05
3.75908e-06
8.92107e-06
3.73216e-06
8.92553e-06
1.31602e-07
1.31613e-07
1.31606e-07
1.3053e-07
1.30527e-07
1.30539e-07
1.30532e-07
1.24245e-06
2.86627e-06
1.59987e-07
2.44547e-07
1.21525e-06
2.88712e-06
1.60534e-07
1.84394e-05
1.8432e-05
1.24249e-06
1.59985e-07
2.86633e-06
2.44587e-07
1.21529e-06
1.60544e-07
2.88741e-06
5.16607e-06
5.16799e-06
3.92278e-07
5.1762e-06
5.17815e-06
3.81787e-06
8.92925e-06
3.79794e-06
8.93312e-06
1.84112e-05
1.84041e-05
3.81843e-06
8.93105e-06
3.79777e-06
8.93498e-06
1.30255e-07
1.30268e-07
1.3026e-07
1.29778e-07
1.29776e-07
1.29789e-07
1.29781e-07
1.32312e-06
2.92825e-06
1.62691e-07
2.57815e-07
1.29716e-06
2.94656e-06
1.63576e-07
1.84128e-05
1.8406e-05
1.32315e-06
1.62689e-07
2.9283e-06
2.57859e-07
1.2972e-06
1.63588e-07
2.94681e-06
5.19466e-06
5.1966e-06
4.22005e-07
5.20299e-06
5.20496e-06
3.86337e-06
8.93793e-06
3.8485e-06
8.94134e-06
1.8387e-05
1.83806e-05
3.8639e-06
8.93976e-06
3.84834e-06
8.94319e-06
1.29693e-07
1.29707e-07
1.29699e-07
1.29793e-07
1.29791e-07
1.29805e-07
1.29797e-07
1.39919e-06
2.98287e-06
1.6675e-07
2.7311e-07
1.37489e-06
2.99894e-06
1.67979e-07
1.83886e-05
1.83824e-05
1.39921e-06
1.66748e-07
2.98292e-06
2.73157e-07
1.37492e-06
1.67993e-07
2.99913e-06
5.21858e-06
5.22051e-06
4.54126e-07
5.22543e-06
5.22739e-06
3.89796e-06
8.94549e-06
3.887e-06
8.94857e-06
1.8365e-05
1.83595e-05
3.89849e-06
8.94737e-06
3.88687e-06
8.95047e-06
1.29918e-07
1.29933e-07
1.29925e-07
1.30589e-07
1.30587e-07
1.30603e-07
1.30595e-07
1.46971e-06
3.03093e-06
1.72181e-07
2.90362e-07
1.44731e-06
3.04509e-06
1.73754e-07
1.83667e-05
1.83612e-05
1.46974e-06
1.72179e-07
3.03101e-06
2.90413e-07
1.44734e-06
1.7377e-07
3.04525e-06
5.2387e-06
5.24064e-06
4.88243e-07
5.24444e-06
5.2464e-06
3.92426e-06
8.95224e-06
3.91625e-06
8.95504e-06
1.83452e-05
1.83405e-05
3.92477e-06
8.95406e-06
3.91612e-06
8.95697e-06
1.30907e-07
1.30924e-07
1.30915e-07
1.32154e-07
1.32151e-07
1.32169e-07
1.3216e-07
1.53417e-06
3.0733e-06
1.78991e-07
3.09479e-07
1.5138e-06
3.08582e-06
1.8091e-07
1.83469e-05
1.83422e-05
1.5342e-06
1.7899e-07
3.07339e-06
3.09536e-07
1.51382e-06
1.80928e-07
3.08598e-06
5.25576e-06
5.25768e-06
5.23917e-07
5.26071e-06
5.26266e-06
3.94451e-06
8.95838e-06
3.93849e-06
8.96101e-06
1.83277e-05
1.83237e-05
3.94486e-06
8.96021e-06
3.93844e-06
8.96287e-06
1.32663e-07
1.32681e-07
1.32673e-07
1.34485e-07
1.34482e-07
1.34502e-07
1.34493e-07
1.59248e-06
3.11084e-06
1.87183e-07
3.30352e-07
1.57413e-06
3.12192e-06
1.89446e-07
1.83294e-05
1.83255e-05
1.5925e-06
1.87183e-07
3.11091e-06
3.30415e-07
1.57416e-06
1.89466e-07
3.12209e-06
5.27046e-06
5.27239e-06
5.60696e-07
5.27478e-06
5.27673e-06
3.96024e-06
8.9642e-06
3.9556e-06
8.96672e-06
1.83126e-05
1.83093e-05
3.96049e-06
8.96608e-06
3.95569e-06
8.96856e-06
1.35185e-07
1.35206e-07
1.35197e-07
1.37584e-07
1.37581e-07
1.37603e-07
1.37594e-07
1.64486e-06
3.14428e-06
1.96749e-07
3.52861e-07
1.62844e-06
3.15415e-06
1.99353e-07
1.83143e-05
1.83112e-05
1.64488e-06
1.9675e-07
3.14432e-06
3.52926e-07
1.62846e-06
1.99375e-07
3.1543e-06
5.28339e-06
5.2853e-06
5.98149e-07
5.28719e-06
5.28913e-06
3.97268e-06
8.96991e-06
3.96905e-06
8.97235e-06
1.82997e-05
1.82973e-05
3.97293e-06
8.97178e-06
3.96919e-06
8.97427e-06
1.38476e-07
1.38498e-07
1.38489e-07
1.41453e-07
1.4145e-07
1.41473e-07
1.41464e-07
1.69177e-06
3.17425e-06
2.07669e-07
3.76863e-07
1.67708e-06
3.18312e-06
2.10608e-07
1.83014e-05
1.82991e-05
1.69178e-06
2.07672e-07
3.1743e-06
3.76932e-07
1.6771e-06
2.10633e-07
3.18324e-06
5.29497e-06
5.29689e-06
6.35868e-07
5.29838e-06
5.30031e-06
3.98282e-06
8.97565e-06
3.97985e-06
8.97832e-06
1.82892e-05
1.82876e-05
3.98305e-06
8.97746e-06
3.97999e-06
8.98017e-06
1.42537e-07
1.42562e-07
1.42553e-07
1.46096e-07
1.46093e-07
1.46119e-07
1.46109e-07
1.73388e-06
3.20135e-06
2.19917e-07
4.02208e-07
1.72049e-06
3.20937e-06
2.23182e-07
1.82909e-05
1.82895e-05
1.73389e-06
2.19921e-07
3.20141e-06
4.02284e-07
1.72052e-06
2.23211e-07
3.20951e-06
5.30555e-06
5.30746e-06
6.73478e-07
5.3087e-06
5.31062e-06
3.9912e-06
8.98156e-06
3.98874e-06
8.98434e-06
1.82811e-05
1.82804e-05
3.99143e-06
8.98345e-06
3.9889e-06
8.9862e-06
1.47375e-07
1.47402e-07
1.47393e-07
1.51518e-07
1.51514e-07
1.51543e-07
1.51533e-07
1.77162e-06
3.22604e-06
2.33455e-07
4.28744e-07
1.75937e-06
3.2334e-06
2.37036e-07
1.82827e-05
1.82822e-05
1.77164e-06
2.33461e-07
3.22608e-06
4.2882e-07
1.7594e-06
2.37068e-07
3.2335e-06
5.31544e-06
5.31735e-06
7.10696e-07
5.31844e-06
5.32038e-06
3.99851e-06
8.988e-06
3.99638e-06
8.99089e-06
1.82752e-05
1.82754e-05
3.99868e-06
8.98983e-06
3.99649e-06
8.99279e-06
1.52993e-07
1.53023e-07
1.53013e-07
1.57725e-07
1.57722e-07
1.57753e-07
1.57743e-07
1.80566e-06
3.24872e-06
2.48237e-07
4.5629e-07
1.79438e-06
3.2555e-06
2.5212e-07
1.82769e-05
1.82772e-05
1.80568e-06
2.48247e-07
3.24875e-06
4.56374e-07
1.79441e-06
2.52157e-07
3.2556e-06
5.32477e-06
5.32667e-06
7.47223e-07
5.32766e-06
5.32958e-06
4.00499e-06
8.99479e-06
4.00308e-06
8.99798e-06
1.82719e-05
1.82728e-05
4.00512e-06
8.99672e-06
4.00316e-06
8.99985e-06
1.59399e-07
1.59432e-07
1.59423e-07
1.64723e-07
1.64718e-07
1.64753e-07
1.64743e-07
1.83658e-06
3.26986e-06
2.64214e-07
4.84689e-07
1.8261e-06
3.27612e-06
2.68382e-07
1.82734e-05
1.82745e-05
1.83659e-06
2.64225e-07
3.26982e-06
4.84774e-07
1.82612e-06
2.68422e-07
3.27617e-06
5.33404e-06
5.33594e-06
7.82921e-07
5.33678e-06
5.33869e-06
4.01093e-06
9.00221e-06
4.00915e-06
9.00572e-06
1.82707e-05
1.82727e-05
4.01111e-06
9.00415e-06
4.00924e-06
9.0077e-06
1.66597e-07
1.66633e-07
1.66623e-07
1.72517e-07
1.72513e-07
1.72551e-07
1.72541e-07
1.86487e-06
3.28951e-06
2.81318e-07
5.13757e-07
1.85506e-06
3.29543e-06
2.85758e-07
1.82723e-05
1.82742e-05
1.86489e-06
2.81333e-07
3.28954e-06
5.13846e-07
1.85508e-06
2.85802e-07
3.29549e-06
5.343e-06
5.3449e-06
8.17608e-07
5.34586e-06
5.34777e-06
4.01647e-06
9.01029e-06
4.01483e-06
9.01388e-06
1.82719e-05
1.82745e-05
4.01667e-06
9.01219e-06
4.01491e-06
9.01591e-06
1.74583e-07
1.74622e-07
1.74613e-07
1.81108e-07
1.81104e-07
1.81145e-07
1.81134e-07
1.89098e-06
3.30804e-06
2.9948e-07
5.43316e-07
1.88175e-06
3.31357e-06
3.04182e-07
1.82732e-05
1.82761e-05
1.89102e-06
2.99499e-07
3.30806e-06
5.4341e-07
1.88179e-06
3.04232e-07
3.31369e-06
5.35199e-06
5.3539e-06
8.51183e-07
5.35474e-06
5.3567e-06
4.02213e-06
9.0193e-06
4.02043e-06
9.02338e-06
1.82754e-05
1.82789e-05
4.0223e-06
9.02126e-06
4.02053e-06
9.02536e-06
1.83364e-07
1.83407e-07
1.83398e-07
1.90487e-07
1.90482e-07
1.90527e-07
1.90516e-07
1.91539e-06
3.32564e-06
3.18632e-07
5.73201e-07
1.9066e-06
3.33091e-06
3.23581e-07
1.82766e-05
1.82801e-05
1.91543e-06
3.18653e-07
3.32563e-06
5.73298e-07
1.90659e-06
3.23634e-07
3.33101e-06
5.36106e-06
5.36288e-06
8.83621e-07
5.36388e-06
5.36577e-06
4.02762e-06
9.02845e-06
4.02579e-06
9.03331e-06
1.82807e-05
1.82851e-05
4.02787e-06
9.03044e-06
4.02589e-06
9.03529e-06
1.92938e-07
1.92984e-07
1.92976e-07
2.00647e-07
2.00642e-07
2.00692e-07
2.0068e-07
1.93826e-06
3.34227e-06
3.38692e-07
6.03222e-07
1.9298e-06
3.34736e-06
3.43859e-07
1.82819e-05
1.82862e-05
1.93829e-06
3.3872e-07
3.34232e-06
6.03319e-07
1.92985e-06
3.43917e-07
3.34742e-06
5.36991e-06
5.37186e-06
9.14868e-07
5.37292e-06
5.37477e-06
4.03321e-06
9.03905e-06
4.03156e-06
9.04345e-06
1.82884e-05
1.82932e-05
4.03353e-06
9.0413e-06
4.03169e-06
9.04536e-06
2.03292e-07
2.03343e-07
2.03336e-07
2.11576e-07
2.11572e-07
2.11625e-07
2.11612e-07
1.95986e-06
3.35827e-06
3.59584e-07
6.33215e-07
1.95181e-06
3.36304e-06
3.64934e-07
1.82896e-05
1.82945e-05
1.95995e-06
3.59619e-07
3.35843e-06
6.33321e-07
1.95188e-06
3.64999e-07
3.36321e-06
5.37913e-06
5.38114e-06
9.44923e-07
5.38195e-06
5.38391e-06
4.03946e-06
9.05053e-06
4.03755e-06
9.05536e-06
1.82982e-05
1.83037e-05
4.03982e-06
9.05259e-06
4.03749e-06
9.05764e-06
2.14414e-07
2.14468e-07
2.14461e-07
2.23258e-07
2.23253e-07
2.23311e-07
2.23302e-07
1.98056e-06
3.37375e-06
3.81212e-07
6.6304e-07
1.97273e-06
3.37833e-06
3.86731e-07
1.82991e-05
1.83049e-05
1.98061e-06
3.81245e-07
3.3737e-06
6.63146e-07
1.97269e-06
3.86796e-07
3.37849e-06
5.38843e-06
5.39023e-06
9.73767e-07
5.39134e-06
5.39331e-06
4.0456e-06
9.06232e-06
4.04361e-06
9.06736e-06
1.83098e-05
1.83161e-05
4.04595e-06
9.06448e-06
4.04362e-06
9.0696e-06
2.26275e-07
2.26334e-07
2.26326e-07
2.35659e-07
2.35651e-07
2.35712e-07
2.35704e-07
2.00016e-06
3.38844e-06
4.03467e-07
6.92531e-07
1.99263e-06
3.39291e-06
4.09132e-07
1.83105e-05
1.83168e-05
2.00019e-06
4.03516e-07
3.38855e-06
6.92641e-07
1.99273e-06
4.09209e-07
3.39302e-06
5.39772e-06
5.39963e-06
1.00142e-06
5.40066e-06
5.40256e-06
4.05228e-06
9.07476e-06
4.05009e-06
9.08052e-06
1.83229e-05
1.833e-05
4.05266e-06
9.07707e-06
4.05003e-06
9.08279e-06
2.38857e-07
2.3892e-07
2.38912e-07
2.48753e-07
2.48744e-07
2.48809e-07
2.48801e-07
2.01905e-06
3.4027e-06
4.26261e-07
7.21553e-07
2.01174e-06
3.40702e-06
4.32032e-07
1.83237e-05
1.83308e-05
2.01906e-06
4.26311e-07
3.40276e-06
7.21667e-07
2.01182e-06
4.32108e-07
3.40716e-06
5.40705e-06
5.40894e-06
1.0279e-06
5.41013e-06
5.41206e-06
4.05925e-06
9.08864e-06
4.05704e-06
9.09437e-06
1.83384e-05
1.83457e-05
4.05966e-06
9.09084e-06
4.05695e-06
9.09673e-06
2.52122e-07
2.52188e-07
2.5218e-07
2.62498e-07
2.62488e-07
2.62559e-07
2.62551e-07
2.03719e-06
3.41665e-06
4.49502e-07
7.50014e-07
2.03016e-06
3.42071e-06
4.55362e-07
1.83388e-05
1.83463e-05
2.03719e-06
4.49559e-07
3.41669e-06
7.50129e-07
2.03024e-06
4.55441e-07
3.42082e-06
5.41675e-06
5.41861e-06
1.05322e-06
5.4196e-06
5.4215e-06
4.06658e-06
9.10205e-06
4.06394e-06
9.10916e-06
1.8354e-05
1.83636e-05
4.06696e-06
9.10423e-06
4.06389e-06
9.11121e-06
2.66e-07
2.66072e-07
2.66064e-07
2.76824e-07
2.76815e-07
2.76889e-07
2.76883e-07
2.05462e-06
3.42975e-06
4.73021e-07
7.77803e-07
2.04771e-06
3.434e-06
4.78964e-07
1.83547e-05
1.83643e-05
2.05463e-06
4.73092e-07
3.42984e-06
7.77922e-07
2.04782e-06
4.79047e-07
3.43413e-06
5.42593e-06
5.42788e-06
1.07748e-06
5.42953e-06
5.43146e-06
4.07368e-06
9.11749e-06
4.07149e-06
9.12226e-06
1.83725e-05
1.83791e-05
4.07403e-06
9.11988e-06
4.07142e-06
9.12441e-06
2.80489e-07
2.80563e-07
2.80557e-07
2.91715e-07
2.91703e-07
2.91784e-07
2.91775e-07
2.07119e-06
3.44274e-06
4.96801e-07
8.04716e-07
2.06478e-06
3.44617e-06
5.02737e-07
1.83728e-05
1.83795e-05
2.07119e-06
4.9688e-07
3.44278e-06
8.04831e-07
2.06485e-06
5.02816e-07
3.44628e-06
5.43545e-06
5.43736e-06
1.10053e-06
5.43767e-06
5.43961e-06
4.08224e-06
9.1337e-06
4.07925e-06
9.1413e-06
1.83943e-05
1.84045e-05
4.08265e-06
9.13531e-06
4.07917e-06
9.14388e-06
2.95509e-07
2.95589e-07
2.95583e-07
3.07041e-07
3.07034e-07
3.07115e-07
3.07111e-07
2.08762e-06
3.45564e-06
5.20665e-07
8.30975e-07
2.08107e-06
3.45971e-06
5.26647e-07
1.83957e-05
1.84044e-05
2.08763e-06
5.20749e-07
3.45566e-06
8.31091e-07
2.08115e-06
5.26731e-07
3.45981e-06
5.44677e-06
5.44861e-06
1.1228e-06
5.44984e-06
5.45181e-06
4.0886e-06
9.1462e-06
4.08616e-06
9.15317e-06
1.8408e-05
1.8418e-05
4.08883e-06
9.14888e-06
4.08613e-06
9.15424e-06
3.10918e-07
3.11002e-07
3.10996e-07
3.22834e-07
3.22819e-07
3.22907e-07
3.229e-07
2.10213e-06
3.46621e-06
5.44461e-07
8.55956e-07
2.0965e-06
3.46956e-06
5.50369e-07
1.84078e-05
1.84211e-05
2.10215e-06
5.44547e-07
3.46629e-06
8.56077e-07
2.09654e-06
5.50457e-07
3.46967e-06
5.45221e-06
5.45412e-06
1.14352e-06
5.45592e-06
5.4577e-06
9.16611e-06
4.09471e-06
1.84412e-05
9.16796e-06
4.09469e-06
3.26847e-07
3.26933e-07
3.26927e-07
3.47975e-06
5.6822e-07
2.11154e-06
1.84399e-05
5.68307e-07
3.47976e-06
2.11162e-06
5.46701e-06
5.46923e-06
1.8472e-05
1.84738e-05
5.12476e-06
5.12697e-06
8.90714e-06
3.63706e-06
8.90811e-06
3.63718e-06
2.78312e-06
1.58499e-07
1.11603e-06
2.78363e-06
1.58507e-07
1.11606e-06
1.84728e-05
5.12679e-06
5.12471e-06
1.84715e-05
8.9089e-06
3.63762e-06
2.78368e-06
1.58503e-07
1.11614e-06
8.9085e-06
3.63755e-06
1.58511e-07
2.78362e-06
1.11612e-06
2.78301e-06
1.58495e-07
1.11605e-06
8.90822e-06
3.6372e-06
1.58497e-07
2.78312e-06
1.11604e-06
8.90783e-06
3.63709e-06
1.84746e-05
5.12666e-06
5.12509e-06
1.84725e-05
1.58499e-07
2.78311e-06
1.11609e-06
1.58499e-07
2.78364e-06
1.11612e-06
8.90793e-06
3.63758e-06
8.90903e-06
3.63767e-06
5.12508e-06
5.12713e-06
1.84726e-05
1.84741e-05
1.84654e-05
1.84571e-05
1.84673e-05
1.84591e-05
5.13144e-06
5.13316e-06
3.65276e-07
5.14346e-06
5.14562e-06
1.84428e-05
1.84508e-05
1.84449e-05
1.84529e-05
3.71064e-07
5.16047e-06
5.16255e-06
5.14963e-06
5.15144e-06
3.68244e-06
8.90896e-06
3.6489e-06
8.91401e-06
1.15858e-06
2.79632e-06
1.58622e-07
2.33437e-07
1.1307e-06
2.81988e-06
1.58837e-07
1.15861e-06
2.79669e-06
1.5863e-07
2.33475e-07
1.13073e-06
2.82045e-06
1.58846e-07
3.69299e-06
8.91854e-06
8.91388e-06
3.72272e-06
3.69304e-06
8.91953e-06
8.9148e-06
3.72285e-06
1.17317e-06
2.3604e-07
2.8546e-06
1.59523e-07
2.83239e-06
1.59142e-07
1.20079e-06
1.1732e-06
2.3608e-07
2.85516e-06
1.59533e-07
2.83283e-06
1.59151e-07
1.20083e-06
5.13297e-06
5.13139e-06
3.65233e-07
5.14547e-06
5.14348e-06
1.8465e-05
1.84567e-05
1.84437e-05
1.84518e-05
3.71022e-07
5.16235e-06
5.16045e-06
5.15127e-06
5.14962e-06
1.84424e-05
1.84504e-05
1.15869e-06
2.79676e-06
1.58619e-07
2.3341e-07
1.13081e-06
2.82048e-06
1.58846e-07
3.68283e-06
8.9094e-06
3.64862e-06
8.91453e-06
1.15868e-06
1.58633e-07
2.79691e-06
2.33502e-07
1.13079e-06
1.58849e-07
2.82065e-06
3.69283e-06
8.92034e-06
8.9156e-06
3.72328e-06
1.17329e-06
2.36013e-07
2.85521e-06
1.59531e-07
2.83289e-06
1.59139e-07
1.20092e-06
3.69278e-06
8.91991e-06
8.91533e-06
3.72321e-06
1.17327e-06
2.36107e-07
1.59535e-07
2.85514e-06
1.59154e-07
2.83309e-06
1.2009e-06
3.68249e-06
8.90909e-06
3.64894e-06
8.9141e-06
1.15859e-06
1.58619e-07
2.79632e-06
2.33436e-07
1.13069e-06
1.58834e-07
2.82012e-06
3.68239e-06
8.9087e-06
3.64889e-06
8.91384e-06
1.1732e-06
2.35956e-07
2.85454e-06
1.59517e-07
2.83231e-06
1.59136e-07
1.20082e-06
3.69311e-06
8.91964e-06
8.91492e-06
3.72288e-06
1.17318e-06
2.36038e-07
1.59519e-07
2.85467e-06
1.59138e-07
2.83246e-06
1.20081e-06
3.69306e-06
8.91928e-06
8.91462e-06
3.72277e-06
5.13352e-06
5.13141e-06
3.65314e-07
5.14557e-06
5.14384e-06
1.84663e-05
1.8458e-05
1.84454e-05
1.84537e-05
3.71095e-07
5.16231e-06
5.16059e-06
5.15157e-06
5.14957e-06
1.84433e-05
1.84516e-05
1.15868e-06
1.5862e-07
2.79685e-06
2.33402e-07
1.13079e-06
1.58836e-07
2.82064e-06
3.68289e-06
8.9088e-06
3.64851e-06
8.91394e-06
3.68297e-06
8.90989e-06
3.64859e-06
8.91497e-06
1.17325e-06
2.35995e-07
1.59527e-07
2.85466e-06
1.59134e-07
2.83245e-06
1.20086e-06
1.17328e-06
2.36002e-07
1.59522e-07
2.85518e-06
1.5914e-07
2.83298e-06
1.2009e-06
3.6927e-06
8.91939e-06
8.91471e-06
3.72327e-06
3.69278e-06
8.92046e-06
8.91575e-06
3.72336e-06
1.84664e-05
1.84581e-05
1.84679e-05
1.84596e-05
3.71086e-07
5.16061e-06
5.16261e-06
5.14963e-06
5.15152e-06
1.84434e-05
1.84517e-05
1.84449e-05
1.84532e-05
1.84366e-05
1.84289e-05
1.84387e-05
1.8431e-05
5.16605e-06
5.1679e-06
3.92248e-07
5.17585e-06
5.17794e-06
1.84158e-05
1.8423e-05
1.8418e-05
1.84252e-05
3.98661e-07
5.18996e-06
5.19205e-06
5.18102e-06
5.18288e-06
3.75865e-06
8.92026e-06
3.73239e-06
8.92471e-06
1.24242e-06
2.86636e-06
1.59993e-07
2.44634e-07
1.21522e-06
2.88717e-06
1.60541e-07
1.24245e-06
2.86678e-06
1.60004e-07
2.44681e-07
1.21526e-06
2.88773e-06
1.60552e-07
3.76719e-06
8.9286e-06
8.92443e-06
3.79015e-06
3.76724e-06
8.92962e-06
8.92538e-06
3.79028e-06
1.2566e-06
2.47759e-07
2.91787e-06
1.61894e-07
2.89827e-06
1.61178e-07
1.28325e-06
1.25664e-06
2.47808e-07
2.91846e-06
1.61905e-07
2.89872e-06
1.61189e-07
1.28329e-06
5.16771e-06
5.16601e-06
3.92203e-07
5.17775e-06
5.17584e-06
1.84362e-05
1.84285e-05
1.84169e-05
1.84241e-05
3.98618e-07
5.19186e-06
5.18996e-06
5.18272e-06
5.181e-06
1.84155e-05
1.84227e-05
1.24254e-06
2.86686e-06
1.5999e-07
2.44605e-07
1.21534e-06
2.88779e-06
1.60549e-07
3.75901e-06
8.92068e-06
3.73211e-06
8.92519e-06
1.24252e-06
1.60005e-07
2.86693e-06
2.44709e-07
1.21532e-06
1.60553e-07
2.88788e-06
3.76702e-06
8.93043e-06
8.92619e-06
3.7907e-06
1.25673e-06
2.47731e-07
2.91849e-06
1.61903e-07
2.89879e-06
1.61174e-07
1.28338e-06
3.76697e-06
8.92999e-06
8.92589e-06
3.79063e-06
1.25671e-06
2.47837e-07
1.61907e-07
2.91846e-06
1.6119e-07
2.89898e-06
1.28336e-06
3.75869e-06
8.9204e-06
3.73243e-06
8.92481e-06
1.24243e-06
1.59989e-07
2.86635e-06
2.44635e-07
1.21522e-06
1.60536e-07
2.88738e-06
3.75858e-06
8.92002e-06
3.73238e-06
8.92454e-06
1.25663e-06
2.4767e-07
2.91785e-06
1.61886e-07
2.89821e-06
1.61171e-07
1.28329e-06
3.7673e-06
8.92973e-06
8.92551e-06
3.79032e-06
1.25661e-06
2.47761e-07
1.61888e-07
2.91801e-06
1.61173e-07
2.89838e-06
1.28328e-06
3.76724e-06
8.92941e-06
8.92522e-06
3.79021e-06
5.16797e-06
5.16602e-06
3.92289e-07
5.17794e-06
5.17621e-06
1.84373e-05
1.84299e-05
1.84186e-05
1.84261e-05
3.98699e-07
5.19182e-06
5.19009e-06
5.18303e-06
5.18111e-06
1.84165e-05
1.8424e-05
1.24252e-06
1.59992e-07
2.86688e-06
2.44598e-07
1.21533e-06
1.6054e-07
2.8879e-06
3.75907e-06
8.92013e-06
3.73202e-06
8.92466e-06
3.75917e-06
8.9212e-06
3.73209e-06
8.92569e-06
1.25668e-06
2.47713e-07
1.61898e-07
2.918e-06
1.61169e-07
2.89838e-06
1.28332e-06
1.25672e-06
2.47722e-07
1.61893e-07
2.91852e-06
1.61177e-07
2.8989e-06
1.28336e-06
3.76689e-06
8.92951e-06
8.92533e-06
3.7907e-06
3.76696e-06
8.93055e-06
8.92636e-06
3.7908e-06
1.84374e-05
1.84299e-05
1.8439e-05
1.84315e-05
3.98691e-07
5.19014e-06
5.1921e-06
5.18114e-06
5.18306e-06
1.84166e-05
1.84241e-05
1.84181e-05
1.84256e-05
1.84101e-05
1.8403e-05
1.84123e-05
1.84052e-05
5.19467e-06
5.19652e-06
4.21968e-07
5.20272e-06
5.2048e-06
1.83911e-05
1.83976e-05
1.83933e-05
1.83998e-05
4.28954e-07
5.21453e-06
5.2166e-06
5.20711e-06
5.20895e-06
3.818e-06
8.93024e-06
3.798e-06
8.93413e-06
1.32308e-06
2.9283e-06
1.62699e-07
2.57909e-07
1.29712e-06
2.9466e-06
1.63584e-07
1.32312e-06
2.92875e-06
1.62711e-07
2.57963e-07
1.29716e-06
2.94716e-06
1.63597e-07
3.82488e-06
8.93737e-06
8.9337e-06
3.84218e-06
3.82494e-06
8.93842e-06
8.93469e-06
3.84231e-06
1.33657e-06
2.61546e-07
2.97365e-06
1.65615e-07
2.95643e-06
1.64558e-07
1.36175e-06
1.33661e-06
2.61602e-07
2.97424e-06
1.65629e-07
2.95686e-06
1.64571e-07
1.3618e-06
5.19634e-06
5.19464e-06
4.21919e-07
5.2046e-06
5.2027e-06
1.84097e-05
1.84027e-05
1.83923e-05
1.83987e-05
4.28908e-07
5.21642e-06
5.21454e-06
5.20876e-06
5.20707e-06
1.83908e-05
1.83972e-05
1.32321e-06
2.92882e-06
1.62694e-07
2.57878e-07
1.29725e-06
2.94722e-06
1.63594e-07
3.81835e-06
8.93064e-06
3.79771e-06
8.93456e-06
1.32319e-06
1.62712e-07
2.92888e-06
2.57993e-07
1.29722e-06
1.63598e-07
2.94726e-06
3.82472e-06
8.93924e-06
8.93553e-06
3.84273e-06
1.33671e-06
2.61516e-07
2.97428e-06
1.65625e-07
2.95695e-06
1.64553e-07
1.3619e-06
3.82466e-06
8.9388e-06
8.93515e-06
3.84265e-06
1.33668e-06
2.61634e-07
1.6563e-07
2.97427e-06
1.64572e-07
2.9571e-06
1.36187e-06
3.81804e-06
8.93038e-06
3.79805e-06
8.93424e-06
1.3231e-06
1.62694e-07
2.92833e-06
2.57913e-07
1.29714e-06
1.63579e-07
2.94676e-06
3.81793e-06
8.93003e-06
3.79799e-06
8.93395e-06
1.33661e-06
2.61451e-07
2.97365e-06
1.65607e-07
2.95637e-06
1.6455e-07
1.36181e-06
3.82499e-06
8.93853e-06
8.93482e-06
3.84236e-06
1.33659e-06
2.61552e-07
1.65609e-07
2.97383e-06
1.64553e-07
2.95651e-06
1.36179e-06
3.82493e-06
8.93825e-06
8.93452e-06
3.84225e-06
5.19652e-06
5.19461e-06
4.22012e-07
5.20472e-06
5.20302e-06
1.84108e-05
1.8404e-05
1.8394e-05
1.84006e-05
4.28995e-07
5.21643e-06
5.21472e-06
5.20909e-06
5.20719e-06
1.83919e-05
1.83986e-05
1.32319e-06
1.62698e-07
2.92885e-06
2.57875e-07
1.29724e-06
1.63584e-07
2.94729e-06
3.81842e-06
8.93013e-06
3.79763e-06
8.9341e-06
3.81851e-06
8.93117e-06
3.7977e-06
8.93512e-06
1.33665e-06
2.61498e-07
1.65619e-07
2.97383e-06
1.64548e-07
2.95652e-06
1.36183e-06
1.33669e-06
2.61515e-07
1.65615e-07
2.97435e-06
1.64558e-07
2.95703e-06
1.36188e-06
3.82458e-06
8.93835e-06
8.93466e-06
3.84273e-06
3.82465e-06
8.93938e-06
8.93567e-06
3.84281e-06
1.84109e-05
1.8404e-05
1.84125e-05
1.84055e-05
4.2899e-07
5.21476e-06
5.21673e-06
5.20719e-06
5.20913e-06
1.8392e-05
1.83986e-05
1.83936e-05
1.84002e-05
1.83858e-05
1.83795e-05
1.8388e-05
1.83817e-05
5.21856e-06
5.22039e-06
4.54081e-07
5.22524e-06
5.22727e-06
1.83687e-05
1.83744e-05
1.83709e-05
1.83766e-05
4.61575e-07
5.23517e-06
5.23721e-06
5.22898e-06
5.23078e-06
3.8635e-06
8.93895e-06
3.84856e-06
8.94237e-06
1.39914e-06
2.98289e-06
1.66759e-07
2.73211e-07
1.37484e-06
2.99895e-06
1.67988e-07
1.39918e-06
2.98335e-06
1.66772e-07
2.73272e-07
1.37488e-06
2.99952e-06
1.68003e-07
3.86906e-06
8.94502e-06
8.94182e-06
3.88183e-06
3.86912e-06
8.94607e-06
8.94282e-06
3.88196e-06
1.41175e-06
2.77346e-07
3.02275e-06
1.70703e-07
3.00764e-06
1.69303e-07
1.43512e-06
1.41179e-06
2.77407e-07
3.02332e-06
1.70719e-07
3.00807e-06
1.69318e-07
1.43517e-06