/*--------------------------------*- C++ -*----------------------------------*\
| =========                 |                                                 |
| \\      /  F ield         | OpenFOAM: The Open Source CFD Toolbox           |
|  \\    /   O peration     | Version:  v1906                                 |
|   \\  /    A nd           | Web:      www.OpenFOAM.com                      |
|    \\/     M anipulation  |                                                 |
\*---------------------------------------------------------------------------*/
FoamFile
{
    version     2.0;
    format      ascii;
    class       volScalarField;
    location    "250";
    object      epsilon;
}
// * * * * * * * * * * * * * * * * * * * * * * * * * * * * * * * * * * * * * //

dimensions      [0 2 -3 0 0 0 0];


internalField   nonuniform List<scalar> 
43024
(
5.39912e-07
1.09604e-06
1.09613e-06
1.39553e-06
5.39943e-07
1.09608e-06
1.09617e-06
1.39565e-06
5.39961e-07
1.09608e-06
1.09617e-06
1.39561e-06
5.39965e-07
1.09607e-06
1.09616e-06
1.39553e-06
5.39964e-07
1.09604e-06
1.09614e-06
1.39547e-06
5.39968e-07
1.09602e-06
1.09611e-06
1.39547e-06
5.40007e-07
1.09607e-06
1.09615e-06
1.39556e-06
5.40053e-07
1.09613e-06
1.09621e-06
1.39565e-06
5.40068e-07
1.09615e-06
1.09624e-06
1.39562e-06
5.4007e-07
1.09617e-06
1.09626e-06
1.39559e-06
5.40068e-07
1.09617e-06
1.09626e-06
1.39558e-06
5.40066e-07
1.09616e-06
1.09625e-06
1.39568e-06
5.40063e-07
1.09616e-06
1.09624e-06
1.39573e-06
5.40062e-07
1.09616e-06
1.09625e-06
1.39571e-06
5.4006e-07
1.09616e-06
1.09625e-06
1.3957e-06
5.40062e-07
1.09617e-06
1.09626e-06
1.39564e-06
5.40065e-07
1.09618e-06
1.09627e-06
1.39557e-06
5.40074e-07
1.09621e-06
1.0963e-06
1.39558e-06
5.40073e-07
1.09624e-06
1.09632e-06
1.39558e-06
5.39604e-07
1.09593e-06
1.09601e-06
1.39526e-06
5.19157e-07
1.03582e-06
1.03581e-06
1.34567e-06
1.3933e-06
1.09615e-06
1.0962e-06
1.39326e-06
1.09604e-06
1.09625e-06
1.09603e-06
1.09625e-06
1.39336e-06
1.09612e-06
1.09614e-06
1.3934e-06
1.39543e-06
1.39341e-06
1.09616e-06
1.09621e-06
1.09619e-06
1.09625e-06
1.3954e-06
1.39336e-06
1.09605e-06
1.09625e-06
1.09608e-06
1.09629e-06
1.09625e-06
1.09607e-06
1.09629e-06
1.39549e-06
1.39348e-06
1.09614e-06
1.09617e-06
1.09618e-06
1.39351e-06
1.39554e-06
1.39335e-06
1.0962e-06
1.09625e-06
1.0962e-06
1.09624e-06
1.3955e-06
1.39329e-06
1.09609e-06
1.09629e-06
1.09609e-06
1.09629e-06
1.09629e-06
1.09607e-06
1.09629e-06
1.39561e-06
1.3934e-06
1.09618e-06
1.09617e-06
1.09618e-06
1.39345e-06
1.39551e-06
1.39333e-06
1.0962e-06
1.09625e-06
1.0962e-06
1.09624e-06
1.39545e-06
1.39326e-06
1.09609e-06
1.09629e-06
1.09609e-06
1.09628e-06
1.09629e-06
1.09607e-06
1.09629e-06
1.39556e-06
1.39338e-06
1.09619e-06
1.09616e-06
1.09618e-06
1.39342e-06
1.39544e-06
1.3933e-06
1.09619e-06
1.09623e-06
1.09617e-06
1.09622e-06
1.39538e-06
1.39324e-06
1.09608e-06
1.09628e-06
1.09606e-06
1.09626e-06
1.09628e-06
1.09605e-06
1.09626e-06
1.39549e-06
1.39334e-06
1.09617e-06
1.09614e-06
1.09615e-06
1.39336e-06
1.39539e-06
1.39326e-06
1.09616e-06
1.09621e-06
1.09614e-06
1.09618e-06
1.39534e-06
1.3932e-06
1.09605e-06
1.09626e-06
1.09603e-06
1.09623e-06
1.09625e-06
1.09602e-06
1.09623e-06
1.39544e-06
1.39331e-06
1.09614e-06
1.09611e-06
1.09612e-06
1.39334e-06
1.39538e-06
1.39329e-06
1.09614e-06
1.09618e-06
1.09617e-06
1.09621e-06
1.39532e-06
1.39324e-06
1.09603e-06
1.09623e-06
1.09606e-06
1.09625e-06
1.09623e-06
1.09605e-06
1.09626e-06
1.39543e-06
1.39333e-06
1.09612e-06
1.09613e-06
1.09615e-06
1.39338e-06
1.39547e-06
1.39336e-06
1.09619e-06
1.09623e-06
1.09624e-06
1.09628e-06
1.39542e-06
1.3933e-06
1.09608e-06
1.09627e-06
1.09613e-06
1.09632e-06
1.09628e-06
1.09611e-06
1.09633e-06
1.3955e-06
1.3934e-06
1.09617e-06
1.0962e-06
1.09622e-06
1.39346e-06
1.39556e-06
1.39335e-06
1.09626e-06
1.0963e-06
1.09627e-06
1.09631e-06
1.3955e-06
1.39329e-06
1.09615e-06
1.09634e-06
1.09616e-06
1.09635e-06
1.09635e-06
1.09614e-06
1.09636e-06
1.39559e-06
1.39339e-06
1.09623e-06
1.09623e-06
1.09625e-06
1.39343e-06
1.39553e-06
1.39334e-06
1.09627e-06
1.09632e-06
1.09627e-06
1.09632e-06
1.39547e-06
1.39331e-06
1.09616e-06
1.09636e-06
1.09616e-06
1.09637e-06
1.09637e-06
1.09615e-06
1.09637e-06
1.39557e-06
1.39341e-06
1.09625e-06
1.09625e-06
1.09626e-06
1.39344e-06
1.39548e-06
1.3934e-06
1.09628e-06
1.09633e-06
1.09628e-06
1.09633e-06
1.39546e-06
1.39335e-06
1.09617e-06
1.09638e-06
1.09617e-06
1.09638e-06
1.09638e-06
1.09616e-06
1.09638e-06
1.39555e-06
1.39346e-06
1.09627e-06
1.09625e-06
1.09626e-06
1.3935e-06
1.39547e-06
1.39351e-06
1.09628e-06
1.09633e-06
1.09628e-06
1.09633e-06
1.39543e-06
1.39346e-06
1.09617e-06
1.09638e-06
1.09617e-06
1.09637e-06
1.09638e-06
1.09616e-06
1.09638e-06
1.39553e-06
1.39357e-06
1.09627e-06
1.09625e-06
1.09626e-06
1.39362e-06
1.39558e-06
1.39351e-06
1.09628e-06
1.09633e-06
1.09627e-06
1.09631e-06
1.39553e-06
1.39345e-06
1.09617e-06
1.09638e-06
1.09616e-06
1.09636e-06
1.09638e-06
1.09615e-06
1.09636e-06
1.39563e-06
1.39355e-06
1.09627e-06
1.09623e-06
1.09625e-06
1.39361e-06
1.39562e-06
1.39348e-06
1.09627e-06
1.09632e-06
1.09626e-06
1.09631e-06
1.39556e-06
1.39342e-06
1.09617e-06
1.09636e-06
1.09615e-06
1.09635e-06
1.09637e-06
1.09614e-06
1.09635e-06
1.39565e-06
1.39352e-06
1.09626e-06
1.09623e-06
1.09624e-06
1.39354e-06
1.39562e-06
1.39345e-06
1.09627e-06
1.09632e-06
1.09625e-06
1.0963e-06
1.39557e-06
1.39339e-06
1.09617e-06
1.09637e-06
1.09615e-06
1.09635e-06
1.09637e-06
1.09613e-06
1.09635e-06
1.39566e-06
1.39351e-06
1.09625e-06
1.09622e-06
1.09623e-06
1.39351e-06
1.39562e-06
1.3934e-06
1.09628e-06
1.09633e-06
1.09625e-06
1.09629e-06
1.39557e-06
1.39334e-06
1.09617e-06
1.09637e-06
1.09614e-06
1.09634e-06
1.09638e-06
1.09612e-06
1.09634e-06
1.39568e-06
1.39343e-06
1.09626e-06
1.09621e-06
1.09622e-06
1.39344e-06
1.3956e-06
1.39333e-06
1.09629e-06
1.09634e-06
1.09624e-06
1.09629e-06
1.39554e-06
1.39328e-06
1.09618e-06
1.09638e-06
1.09613e-06
1.09633e-06
1.09638e-06
1.09612e-06
1.09633e-06
1.39564e-06
1.39337e-06
1.09627e-06
1.09621e-06
1.09622e-06
1.39341e-06
1.39554e-06
1.3933e-06
1.0963e-06
1.09635e-06
1.09623e-06
1.09628e-06
1.39548e-06
1.39326e-06
1.0962e-06
1.0964e-06
1.09612e-06
1.09632e-06
1.09639e-06
1.09611e-06
1.09633e-06
1.39556e-06
1.39337e-06
1.09628e-06
1.0962e-06
1.09621e-06
1.39345e-06
1.39548e-06
1.39333e-06
1.09633e-06
1.09637e-06
1.09622e-06
1.09626e-06
1.39544e-06
1.39329e-06
1.09622e-06
1.09642e-06
1.09611e-06
1.09632e-06
1.09642e-06
1.0961e-06
1.09631e-06
1.39553e-06
1.39341e-06
1.0963e-06
1.09619e-06
1.09619e-06
1.39348e-06
1.39544e-06
1.39315e-06
1.09636e-06
1.0964e-06
1.09579e-06
1.09584e-06
1.39541e-06
1.39309e-06
1.09625e-06
1.09645e-06
1.09568e-06
1.09587e-06
1.09645e-06
1.09567e-06
1.09588e-06
1.39552e-06
1.39322e-06
1.09633e-06
1.09575e-06
1.09576e-06
1.39327e-06
1.39514e-06
1.37095e-06
1.09606e-06
1.0961e-06
1.07209e-06
1.07213e-06
1.39509e-06
1.37093e-06
1.09594e-06
1.09614e-06
1.07205e-06
1.07209e-06
1.09614e-06
1.0721e-06
1.07215e-06
1.3952e-06
1.37097e-06
1.09602e-06
1.07209e-06
1.0721e-06
1.371e-06
1.34561e-06
1.03577e-06
1.03581e-06
1.34561e-06
1.03576e-06
1.03577e-06
5.19184e-07
5.19154e-07
5.19197e-07
1.03583e-06
1.34563e-06
1.03581e-06
4.3587e-06
9.77709e-06
1.94438e-05
4.35887e-06
9.77916e-06
5.39904e-07
5.39905e-07
5.40003e-07
5.40003e-07
2.33674e-06
1.09602e-06
3.75235e-06
8.03714e-07
1.94447e-05
2.33676e-06
1.09611e-06
8.03793e-07
3.75239e-06
1.39345e-06
5.80313e-06
5.80513e-06
4.35884e-06
9.7771e-06
4.35898e-06
9.77742e-06
1.94429e-05
1.94444e-05
4.35901e-06
9.77919e-06
4.35909e-06
9.77952e-06
5.39913e-07
5.40011e-07
5.40009e-07
5.39936e-07
5.39936e-07
5.40035e-07
5.40036e-07
2.33675e-06
3.75286e-06
8.03733e-07
1.09605e-06
2.33709e-06
3.75248e-06
8.03736e-07
1.94438e-05
1.94454e-05
2.33678e-06
8.03813e-07
3.75286e-06
1.09614e-06
2.33707e-06
8.03817e-07
3.75253e-06
5.80359e-06
5.8056e-06
1.39343e-06
5.80335e-06
5.80538e-06
4.35889e-06
9.77738e-06
4.35909e-06
9.77759e-06
1.94432e-05
1.94445e-05
4.35905e-06
9.77946e-06
4.3592e-06
9.77966e-06
5.39942e-07
5.40041e-07
5.40039e-07
5.39958e-07
5.39956e-07
5.40055e-07
5.40057e-07
2.33675e-06
3.75294e-06
8.03757e-07
1.09607e-06
2.33708e-06
3.75251e-06
8.03755e-07
1.94442e-05
1.94456e-05
2.33676e-06
8.0384e-07
3.75296e-06
1.09616e-06
2.33707e-06
8.03836e-07
3.75257e-06
5.80373e-06
5.80575e-06
1.39346e-06
5.80343e-06
5.80546e-06
4.35883e-06
9.77738e-06
4.35906e-06
9.77751e-06
1.94431e-05
1.94443e-05
4.35898e-06
9.77943e-06
4.35916e-06
9.77957e-06
5.39958e-07
5.40054e-07
5.40056e-07
5.39963e-07
5.39963e-07
5.40058e-07
5.40061e-07
2.33673e-06
3.75293e-06
8.0376e-07
1.09608e-06
2.33703e-06
3.75248e-06
8.03762e-07
1.9444e-05
1.94453e-05
2.33672e-06
8.03841e-07
3.75295e-06
1.09617e-06
2.33702e-06
8.03841e-07
3.75253e-06
5.80377e-06
5.80579e-06
1.39352e-06
5.80343e-06
5.80546e-06
4.35869e-06
9.77715e-06
4.35895e-06
9.77718e-06
1.94427e-05
1.94437e-05
4.35886e-06
9.77923e-06
4.35906e-06
9.77927e-06
5.39961e-07
5.4006e-07
5.40059e-07
5.39965e-07
5.39966e-07
5.40064e-07
5.40062e-07
2.33663e-06
3.75285e-06
8.03762e-07
1.09606e-06
2.33695e-06
3.75235e-06
8.03757e-07
1.94436e-05
1.94448e-05
2.33661e-06
8.0384e-07
3.75286e-06
1.09615e-06
2.33694e-06
8.03835e-07
3.75241e-06
5.80367e-06
5.80568e-06
1.3934e-06
5.80322e-06
5.80524e-06
4.35845e-06
9.77662e-06
4.35875e-06
9.77655e-06
1.94417e-05
1.94426e-05
4.35861e-06
9.77869e-06
4.35886e-06
9.77862e-06
5.39962e-07
5.4006e-07
5.40059e-07
5.39963e-07
5.39965e-07
5.40062e-07
5.40063e-07
2.33647e-06
3.75261e-06
8.03759e-07
1.09603e-06
2.33683e-06
3.75208e-06
8.03749e-07
1.94426e-05
1.94436e-05
2.33644e-06
8.03838e-07
3.75266e-06
1.09612e-06
2.33683e-06
8.03828e-07
3.75217e-06
5.80321e-06
5.80522e-06
1.39328e-06
5.8027e-06
5.80474e-06
4.35833e-06
9.77608e-06
4.35854e-06
9.77625e-06
1.94411e-05
1.94425e-05
4.35849e-06
9.77815e-06
4.35864e-06
9.77831e-06
5.39969e-07
5.40064e-07
5.40064e-07
5.39992e-07
5.39992e-07
5.40085e-07
5.40093e-07
2.33645e-06
3.75245e-06
8.0375e-07
1.09602e-06
2.33674e-06
3.75204e-06
8.03754e-07
1.94418e-05
1.94434e-05
2.33641e-06
8.03826e-07
3.75247e-06
1.09611e-06
2.33673e-06
8.03828e-07
3.75209e-06
5.80293e-06
5.80494e-06
1.39326e-06
5.80267e-06
5.80469e-06
4.35852e-06
9.77629e-06
4.35863e-06
9.77671e-06
1.94418e-05
1.94434e-05
4.35867e-06
9.77835e-06
4.35872e-06
9.77876e-06
5.40006e-07
5.40098e-07
5.40103e-07
5.40041e-07
5.40044e-07
5.40134e-07
5.40143e-07
2.33662e-06
3.7526e-06
8.03787e-07
1.09608e-06
2.33682e-06
3.75226e-06
8.03799e-07
1.94425e-05
1.94443e-05
2.33658e-06
8.03857e-07
3.75258e-06
1.09616e-06
2.33677e-06
8.03869e-07
3.75228e-06
5.80324e-06
5.80523e-06
1.39342e-06
5.80304e-06
5.80504e-06
4.35877e-06
9.77689e-06
4.3589e-06
9.77723e-06
1.94425e-05
1.9444e-05
4.35891e-06
9.77893e-06
4.35897e-06
9.77928e-06
5.40052e-07
5.40143e-07
5.40148e-07
5.40063e-07
5.40064e-07
5.40156e-07
5.40163e-07
2.33676e-06
3.75282e-06
8.03837e-07
1.09613e-06
2.33694e-06
3.75243e-06
8.0384e-07
1.94433e-05
1.94449e-05
2.3367e-06
8.03905e-07
3.75278e-06
1.09621e-06
2.33686e-06
8.03908e-07
3.75244e-06
5.80352e-06
5.80551e-06
1.39355e-06
5.80324e-06
5.80524e-06
4.35884e-06
9.77715e-06
4.35901e-06
9.7774e-06
1.94429e-05
1.94444e-05
4.35899e-06
9.77923e-06
4.3591e-06
9.77953e-06
5.40063e-07
5.4016e-07
5.40162e-07
5.40069e-07
5.40071e-07
5.40168e-07
5.40172e-07
2.33676e-06
3.75291e-06
8.03849e-07
1.09614e-06
2.33701e-06
3.7525e-06
8.03845e-07
1.94437e-05
1.94453e-05
2.33672e-06
8.03917e-07
3.7529e-06
1.09623e-06
2.33693e-06
8.03917e-07
3.75255e-06
5.80365e-06
5.80565e-06
1.39362e-06
5.80334e-06
5.80536e-06
4.3589e-06
9.77729e-06
4.35908e-06
9.77752e-06
1.94431e-05
1.94446e-05
4.35905e-06
9.77942e-06
4.35918e-06
9.77966e-06
5.4007e-07
5.40167e-07
5.4017e-07
5.40066e-07
5.40071e-07
5.40168e-07
5.40175e-07
2.33672e-06
3.75296e-06
8.03863e-07
1.09616e-06
2.3371e-06
3.75253e-06
8.03855e-07
1.9444e-05
1.94456e-05
2.3367e-06
8.03937e-07
3.75299e-06
1.09625e-06
2.33704e-06
8.0393e-07
3.75259e-06
5.80373e-06
5.80574e-06
1.39363e-06
5.80338e-06
5.80541e-06
4.35891e-06
9.77735e-06
4.35911e-06
9.77757e-06
1.94432e-05
1.94447e-05
4.35907e-06
9.77949e-06
4.35921e-06
9.77972e-06
5.40069e-07
5.40166e-07
5.40174e-07
5.40064e-07
5.40072e-07
5.40169e-07
5.40177e-07
2.33676e-06
3.753e-06
8.03866e-07
1.09616e-06
2.33717e-06
3.75253e-06
8.03859e-07
1.94441e-05
1.94457e-05
2.33671e-06
8.03932e-07
3.75301e-06
1.09625e-06
2.33708e-06
8.03924e-07
3.75259e-06
5.80379e-06
5.80582e-06
1.39353e-06
5.8034e-06
5.80544e-06
4.35885e-06
9.77731e-06
4.35909e-06
9.77749e-06
1.9443e-05
1.94445e-05
4.359e-06
9.77945e-06
4.35919e-06
9.77964e-06
5.40072e-07
5.40168e-07
5.40175e-07
5.40061e-07
5.40068e-07
5.40163e-07
5.4017e-07
2.3368e-06
3.75297e-06
8.03866e-07
1.09615e-06
2.33713e-06
3.75246e-06
8.03853e-07
1.94438e-05
1.94454e-05
2.33669e-06
8.03933e-07
3.75299e-06
1.09624e-06
2.33707e-06
8.0392e-07
3.75251e-06
5.80377e-06
5.80577e-06
1.39341e-06
5.80328e-06
5.80529e-06
4.35882e-06
9.77718e-06
4.35903e-06
9.77746e-06
1.94427e-05
1.94445e-05
4.35895e-06
9.77932e-06
4.35911e-06
9.7796e-06
5.40068e-07
5.40162e-07
5.40168e-07
5.40058e-07
5.40064e-07
5.40158e-07
5.40162e-07
2.33679e-06
3.75294e-06
8.03865e-07
1.09614e-06
2.33705e-06
3.75238e-06
8.0385e-07
1.94434e-05
1.94454e-05
2.33669e-06
8.03924e-07
3.75294e-06
1.09622e-06
2.33702e-06
8.03911e-07
3.75243e-06
5.8037e-06
5.8057e-06
1.39342e-06
5.80312e-06
5.80515e-06
4.3588e-06
9.77713e-06
4.35902e-06
9.7775e-06
1.94424e-05
1.94448e-05
4.35896e-06
9.77927e-06
4.35911e-06
9.77966e-06
5.40064e-07
5.40158e-07
5.40162e-07
5.40055e-07
5.4006e-07
5.40155e-07
5.40159e-07
2.3368e-06
3.75294e-06
8.03864e-07
1.09613e-06
2.337e-06
3.7523e-06
8.03848e-07
1.94432e-05
1.94457e-05
2.33671e-06
8.0393e-07
3.75294e-06
1.09622e-06
2.337e-06
8.03911e-07
3.75235e-06
5.8037e-06
5.80572e-06
1.39347e-06
5.80298e-06
5.80501e-06
4.35879e-06
9.77707e-06
4.359e-06
9.77765e-06
1.94422e-05
1.94454e-05
4.35895e-06
9.77924e-06
4.35911e-06
9.77983e-06
5.4006e-07
5.40155e-07
5.40159e-07
5.40053e-07
5.40057e-07
5.40152e-07
5.40154e-07
2.33677e-06
3.75298e-06
8.03872e-07
1.09613e-06
2.33698e-06
3.75215e-06
8.03848e-07
1.94429e-05
1.94463e-05
2.33671e-06
8.03934e-07
3.753e-06
1.09621e-06
2.33699e-06
8.03912e-07
3.75221e-06
5.80376e-06
5.80577e-06
1.39351e-06
5.80274e-06
5.80477e-06
4.35884e-06
9.77707e-06
4.35904e-06
9.778e-06
1.94418e-05
1.94465e-05
4.359e-06
9.77925e-06
4.35914e-06
9.78018e-06
5.4006e-07
5.40156e-07
5.40156e-07
5.40051e-07
5.40054e-07
5.4015e-07
5.4015e-07
2.33675e-06
3.75307e-06
8.03872e-07
1.09612e-06
2.33699e-06
3.75189e-06
8.03842e-07
1.94425e-05
1.94474e-05
2.33671e-06
8.03935e-07
3.75309e-06
1.09621e-06
2.33697e-06
8.03904e-07
3.75194e-06
5.80383e-06
5.80585e-06
1.39357e-06
5.80235e-06
5.80438e-06
4.35891e-06
9.77702e-06
4.35904e-06
9.77868e-06
1.94411e-05
1.94482e-05
4.35908e-06
9.77919e-06
4.35915e-06
9.78085e-06
5.40062e-07
5.40159e-07
5.40158e-07
5.40049e-07
5.40051e-07
5.40146e-07
5.40147e-07
2.3367e-06
3.75325e-06
8.03883e-07
1.09611e-06
2.33701e-06
3.75135e-06
8.03834e-07
1.9442e-05
1.94493e-05
2.33666e-06
8.03947e-07
3.75327e-06
1.0962e-06
2.33697e-06
8.03897e-07
3.75141e-06
5.8043e-06
5.80631e-06
1.39356e-06
5.80245e-06
5.80447e-06
4.35928e-06
9.77692e-06
4.35919e-06
9.77981e-06
1.94397e-05
1.94504e-05
4.35944e-06
9.77903e-06
4.3593e-06
9.7819e-06
5.4007e-07
5.40166e-07
5.40166e-07
5.40041e-07
5.40041e-07
5.40138e-07
5.40138e-07
2.33667e-06
3.75371e-06
8.03903e-07
1.09611e-06
2.3371e-06
3.75044e-06
8.03834e-07
1.94408e-05
1.94517e-05
2.33664e-06
8.03964e-07
3.75374e-06
1.09619e-06
2.33704e-06
8.03896e-07
3.75056e-06
5.80571e-06
5.8077e-06
1.39355e-06
5.80318e-06
5.80519e-06
4.35993e-06
9.77598e-06
4.35941e-06
9.78123e-06
1.94365e-05
1.94523e-05
4.36005e-06
9.77792e-06
4.35951e-06
9.78311e-06
5.40069e-07
5.40164e-07
5.40164e-07
5.39753e-07
5.39761e-07
5.39854e-07
5.39852e-07
2.33647e-06
3.75557e-06
8.03916e-07
1.09605e-06
2.33719e-06
3.74962e-06
8.03785e-07
1.94378e-05
1.94537e-05
2.33644e-06
8.03979e-07
3.75568e-06
1.09613e-06
2.33714e-06
8.03847e-07
3.74974e-06
5.80829e-06
5.81028e-06
1.39349e-06
5.80545e-06
5.80744e-06
4.35807e-06
9.77256e-06
4.3589e-06
9.77922e-06
1.94286e-05
1.94452e-05
4.35822e-06
9.77447e-06
4.359e-06
9.78103e-06
5.39601e-07
5.39675e-07
5.39686e-07
5.31552e-07
5.3157e-07
5.31583e-07
5.31602e-07
2.33152e-06
3.75998e-06
8.0297e-07
1.09263e-06
2.33688e-06
3.74301e-06
8.03129e-07
1.94302e-05
1.94467e-05
2.33149e-06
8.03036e-07
3.76004e-06
1.09269e-06
2.33686e-06
8.03185e-07
3.743e-06
5.81318e-06
5.81516e-06
1.38988e-06
5.80841e-06
5.81029e-06
3.56563e-06
8.99617e-06
4.30365e-06
5.96007e-06
1.72509e-05
8.61285e-06
3.56577e-06
8.99755e-06
4.30384e-06
5.961e-06
1.73142e-07
3.27052e-07
3.27005e-07
5.7886e-07
1.80747e-07
3.53047e-07
3.53015e-07
2.23903e-06
3.65484e-06
7.74814e-07
9.77942e-07
2.29976e-06
3.75983e-06
7.03437e-07
1.72518e-05
8.61287e-06
2.23902e-06
7.74833e-07
3.65475e-06
9.77913e-07
2.29972e-06
7.03441e-07
3.75969e-06
5.72529e-06
5.72733e-06
1.28619e-06
5.36358e-06
5.36473e-06
1.94421e-05
1.94446e-05
1.39336e-06
5.80301e-06
5.80497e-06
1.94424e-05
1.94409e-05
1.94449e-05
1.94434e-05
1.39547e-06
5.80312e-06
5.80509e-06
5.80333e-06
5.8053e-06
4.35881e-06
9.7783e-06
2.3366e-06
1.09614e-06
3.75215e-06
8.0367e-07
2.33667e-06
1.09619e-06
3.75271e-06
8.03708e-07
4.35891e-06
9.77724e-06
9.77693e-06
4.35876e-06
4.35902e-06
9.77848e-06
9.77815e-06
4.35888e-06
2.33692e-06
1.09615e-06
3.7522e-06
8.03684e-07
3.75254e-06
8.03677e-07
2.33665e-06
2.33699e-06
1.0962e-06
3.75278e-06
8.03723e-07
3.75312e-06
8.03715e-07
2.33672e-06
1.3933e-06
5.80488e-06
5.80309e-06
1.94416e-05
1.94441e-05
1.94426e-05
1.39542e-06
5.80501e-06
5.80324e-06
5.80522e-06
5.80353e-06
1.94419e-05
1.94403e-05
2.33677e-06
1.09603e-06
3.75291e-06
8.03744e-07
4.35877e-06
9.77851e-06
2.3367e-06
1.09624e-06
8.03779e-07
3.75275e-06
4.35902e-06
9.77933e-06
9.779e-06
4.35893e-06
2.33709e-06
1.09604e-06
3.75297e-06
8.0376e-07
3.75334e-06
8.03747e-07
2.33681e-06
4.35893e-06
9.77871e-06
9.77836e-06
4.35884e-06
2.33702e-06
1.09624e-06
8.03794e-07
3.75282e-06
8.03786e-07
3.7532e-06
2.33674e-06
4.35892e-06
9.77836e-06
2.33668e-06
1.09624e-06
8.03761e-07
3.7523e-06
4.35882e-06
9.77826e-06
2.33703e-06
1.09603e-06
3.75242e-06
8.03728e-07
3.75279e-06
8.03721e-07
2.33678e-06
4.35913e-06
9.77854e-06
9.7782e-06
4.35898e-06
2.33697e-06
1.09624e-06
8.03775e-07
3.75235e-06
8.03768e-07
3.7527e-06
2.33672e-06
4.35903e-06
9.77841e-06
9.7781e-06
4.35888e-06
1.39341e-06
5.80489e-06
5.80316e-06
1.94433e-05
1.94451e-05
1.94434e-05
1.39553e-06
5.80503e-06
5.80329e-06
5.80533e-06
5.8035e-06
1.94437e-05
1.94421e-05
2.33681e-06
1.09613e-06
8.03821e-07
3.75295e-06
4.35887e-06
9.77847e-06
4.35891e-06
9.77929e-06
2.33705e-06
1.09612e-06
8.03808e-07
3.75246e-06
8.03801e-07
3.75279e-06
2.33674e-06
2.3371e-06
1.09613e-06
8.03834e-07
3.75301e-06
8.03828e-07
3.75336e-06
2.3368e-06
4.35915e-06
9.77866e-06
9.77833e-06
4.35896e-06
4.35915e-06
9.77947e-06
9.77914e-06
4.35901e-06
1.94432e-05
1.94451e-05
1.39556e-06
5.80324e-06
5.80525e-06
5.80347e-06
5.80546e-06
1.94435e-05
1.9442e-05
1.94455e-05
1.94439e-05
1.94412e-05
1.94426e-05
1.94437e-05
1.94452e-05
5.80345e-06
5.80542e-06
1.39334e-06
5.80324e-06
5.80521e-06
1.94428e-05
1.94414e-05
1.94453e-05
1.94439e-05
1.3955e-06
5.80331e-06
5.80527e-06
5.80357e-06
5.80554e-06
4.35895e-06
9.77833e-06
4.35909e-06
9.77867e-06
2.33662e-06
3.7526e-06
8.03688e-07
1.09617e-06
2.33696e-06
3.75227e-06
8.03691e-07
2.33669e-06
3.75319e-06
8.03727e-07
1.09622e-06
2.33703e-06
3.75285e-06
8.0373e-07
4.35905e-06
9.77754e-06
9.77726e-06
4.35889e-06
4.35916e-06
9.77879e-06
9.77851e-06
4.359e-06
2.33693e-06
1.09619e-06
3.75232e-06
8.03714e-07
3.75267e-06
8.03701e-07
2.33665e-06
2.33701e-06
1.09624e-06
3.75289e-06
8.03752e-07
3.75326e-06
8.0374e-07
2.33672e-06
5.80535e-06
5.80367e-06
1.3933e-06
5.80514e-06
5.80336e-06
1.94406e-05
1.94422e-05
1.94445e-05
1.94431e-05
1.39546e-06
5.80519e-06
5.8034e-06
5.80547e-06
5.80378e-06
1.94423e-05
1.94408e-05
2.33679e-06
3.75341e-06
8.03759e-07
1.09606e-06
2.33711e-06
3.75304e-06
8.03767e-07
4.35892e-06
9.77856e-06
4.359e-06
9.77891e-06
2.33671e-06
8.03798e-07
3.75328e-06
1.09626e-06
2.33704e-06
8.03801e-07
3.7529e-06
4.35916e-06
9.77964e-06
9.77936e-06
4.35905e-06
2.3371e-06
1.09608e-06
3.75308e-06
8.0379e-07
3.75348e-06
8.03774e-07
2.33683e-06
4.35908e-06
9.77904e-06
9.77875e-06
4.35896e-06
2.33703e-06
1.09628e-06
8.03823e-07
3.75295e-06
8.03812e-07
3.75335e-06
2.33675e-06
4.35904e-06
9.77838e-06
4.35919e-06
9.7787e-06
2.33668e-06
8.03777e-07
3.75275e-06
1.09626e-06
2.33703e-06
8.0378e-07
3.75241e-06
4.35893e-06
9.77825e-06
4.35908e-06
9.77855e-06
2.33704e-06
1.09607e-06
3.75251e-06
8.03752e-07
3.75292e-06
8.03743e-07
2.33676e-06
4.35924e-06
9.77877e-06
9.77852e-06
4.35906e-06
2.33697e-06
1.09628e-06
8.03799e-07
3.75244e-06
8.03787e-07
3.75281e-06
2.3367e-06
4.35914e-06
9.77863e-06
9.77838e-06
4.35895e-06
5.80547e-06
5.80364e-06
1.3934e-06
5.80516e-06
5.80342e-06
1.94425e-05
1.94439e-05
1.94456e-05
1.9444e-05
1.39556e-06
5.80524e-06
5.80347e-06
5.80559e-06
5.80375e-06
1.9444e-05
1.94427e-05
2.33683e-06
8.03838e-07
3.75342e-06
1.09615e-06
2.33711e-06
8.03842e-07
3.75308e-06
4.35904e-06
9.77852e-06
4.35925e-06
9.77884e-06
4.35908e-06
9.77932e-06
4.35924e-06
9.77964e-06
2.33708e-06
1.09616e-06
8.03834e-07
3.75257e-06
8.03827e-07
3.75293e-06
2.33675e-06
2.33712e-06
1.09617e-06
8.03861e-07
3.75312e-06
8.03852e-07
3.75349e-06
2.3368e-06
4.35932e-06
9.77895e-06
9.77869e-06
4.35908e-06
4.35931e-06
9.77974e-06
9.77948e-06
4.35911e-06
1.94423e-05
1.94437e-05
1.94442e-05
1.94457e-05
1.39559e-06
5.8034e-06
5.80543e-06
5.80369e-06
5.8057e-06
1.94438e-05
1.94425e-05
1.94458e-05
1.94445e-05
1.94415e-05
1.94428e-05
1.9444e-05
1.94453e-05
5.80362e-06
5.80558e-06
1.39336e-06
5.80334e-06
5.8053e-06
1.94428e-05
1.94415e-05
1.94453e-05
1.9444e-05
1.39548e-06
5.80335e-06
5.80531e-06
5.80365e-06
5.80561e-06
4.359e-06
9.77861e-06
4.35919e-06
9.77881e-06
2.33663e-06
3.75271e-06
8.03717e-07
1.0962e-06
2.33697e-06
3.75233e-06
8.03718e-07
2.3367e-06
3.75329e-06
8.03755e-07
1.09624e-06
2.33704e-06
3.7529e-06
8.03755e-07
4.35908e-06
9.77757e-06
9.7774e-06
4.35887e-06
4.35918e-06
9.77878e-06
9.77861e-06
4.35898e-06
2.33693e-06
1.0962e-06
3.75233e-06
8.03717e-07
3.75271e-06
8.03717e-07
2.3366e-06
2.337e-06
1.09624e-06
3.75288e-06
8.03753e-07
3.75329e-06
8.03754e-07
2.33667e-06
5.8055e-06
5.8038e-06
1.39331e-06
5.8052e-06
5.8034e-06
1.94409e-05
1.94423e-05
1.94444e-05
1.94432e-05
1.39542e-06
5.80519e-06
5.80338e-06
5.80551e-06
5.80379e-06
1.94422e-05
1.94408e-05
2.33678e-06
3.75351e-06
8.03789e-07
1.09609e-06
2.33713e-06
3.75309e-06
8.03791e-07
4.35896e-06
9.77885e-06
4.35911e-06
9.77906e-06
2.33671e-06
8.03826e-07
3.75339e-06
1.09629e-06
2.33706e-06
8.03825e-07
3.75295e-06
4.35918e-06
9.77963e-06
9.77946e-06
4.35902e-06
2.33708e-06
1.09609e-06
3.75309e-06
8.03791e-07
3.75351e-06
8.03787e-07
2.33677e-06
4.35909e-06
9.77901e-06
9.77885e-06
4.35893e-06
2.337e-06
1.09629e-06
8.03824e-07
3.75294e-06
8.03824e-07
3.75339e-06
2.3367e-06
4.35905e-06
9.77858e-06
4.35925e-06
9.77876e-06
2.33668e-06
8.03803e-07
3.75284e-06
1.09629e-06
2.33701e-06
8.03803e-07
3.75245e-06
4.35894e-06
9.77844e-06
4.35915e-06
9.77864e-06
2.33703e-06
1.09607e-06
3.7525e-06
8.03755e-07
3.75293e-06
8.03754e-07
2.33671e-06
4.35924e-06
9.77872e-06
9.77855e-06
4.35903e-06
2.33695e-06
1.09629e-06
8.03803e-07
3.75245e-06
8.03802e-07
3.75284e-06
2.33665e-06
4.35913e-06
9.77863e-06
9.77844e-06
4.35893e-06
5.80565e-06
5.80379e-06
1.39342e-06
5.80526e-06
5.80349e-06
1.94428e-05
1.94441e-05
1.94455e-05
1.94441e-05
1.39553e-06
5.80525e-06
5.8035e-06
5.80566e-06
5.8038e-06
1.9444e-05
1.94428e-05
2.33681e-06
8.03864e-07
3.75351e-06
1.09618e-06
2.33711e-06
8.03864e-07
3.75312e-06
4.35906e-06
9.77877e-06
4.35934e-06
9.77896e-06
4.35909e-06
9.77956e-06
4.35932e-06
9.77976e-06
2.33706e-06
1.09616e-06
8.03836e-07
3.75256e-06
8.03836e-07
3.75295e-06
2.33671e-06
2.3371e-06
1.09618e-06
8.03863e-07
3.75312e-06
8.03864e-07
3.75352e-06
2.33676e-06
4.35932e-06
9.77892e-06
9.77876e-06
4.35903e-06
4.3593e-06
9.77973e-06
9.77956e-06
4.35909e-06
1.94426e-05
1.94439e-05
1.94446e-05
1.94459e-05
1.39557e-06
5.80345e-06
5.80548e-06
5.80375e-06
5.80577e-06
1.94439e-05
1.94426e-05
1.94459e-05
1.94446e-05
1.94415e-05
1.94427e-05
1.9444e-05
1.94452e-05
5.80365e-06
5.80561e-06
1.39342e-06
5.80333e-06
5.80529e-06
1.94425e-05
1.94414e-05
1.9445e-05
1.94438e-05
1.39555e-06
5.80327e-06
5.80524e-06
5.80362e-06
5.80559e-06
4.35893e-06
9.77856e-06
4.35916e-06
9.77869e-06
2.33661e-06
3.75271e-06
8.03717e-07
1.0962e-06
2.33692e-06
3.7523e-06
8.03721e-07
2.33667e-06
3.75327e-06
8.03753e-07
1.09625e-06
2.33699e-06
3.75285e-06
8.03757e-07
4.35901e-06
9.77738e-06
9.77729e-06
4.35877e-06
4.35911e-06
9.77856e-06
9.77847e-06
4.35887e-06
2.3369e-06
1.09621e-06
3.75225e-06
8.03719e-07
3.75267e-06
8.03724e-07
2.33653e-06
2.33697e-06
1.09625e-06
3.7528e-06
8.03755e-07
3.75323e-06
8.0376e-07
2.33659e-06
5.8055e-06
5.80378e-06
1.39336e-06
5.80516e-06
5.80337e-06
1.94407e-05
1.94421e-05
1.94441e-05
1.94429e-05
1.39549e-06
5.8051e-06
5.80335e-06
5.80546e-06
5.80376e-06
1.9442e-05
1.94406e-05
2.33676e-06
3.75351e-06
8.0379e-07
1.09609e-06
2.33708e-06
3.75306e-06
8.03797e-07
4.35889e-06
9.7788e-06
4.35907e-06
9.77893e-06
2.33669e-06
8.03825e-07
3.75337e-06
1.09629e-06
2.33701e-06
8.03829e-07
3.75291e-06
4.35911e-06
9.77946e-06
9.77935e-06
4.35893e-06
2.33705e-06
1.0961e-06
3.75302e-06
8.03794e-07
3.75347e-06
8.03794e-07
2.33669e-06
4.35902e-06
9.77882e-06
9.77871e-06
4.35884e-06
2.33697e-06
1.0963e-06
8.03826e-07
3.75286e-06
8.03831e-07
3.75333e-06
2.33662e-06
4.359e-06
9.77851e-06
4.35922e-06
9.77867e-06
2.33666e-06
8.03806e-07
3.75284e-06
1.0963e-06
2.33696e-06
8.03811e-07
3.75243e-06
4.3589e-06
9.77843e-06
4.35912e-06
9.77858e-06
2.33701e-06
1.09608e-06
3.75243e-06
8.03763e-07
3.75289e-06
8.03765e-07
2.33665e-06
4.35919e-06
9.77858e-06
9.77845e-06
4.35896e-06
2.33694e-06
1.0963e-06
8.03809e-07
3.75238e-06
8.03814e-07
3.75281e-06
2.33658e-06
4.35908e-06
9.77848e-06
9.77837e-06
4.35885e-06
5.80565e-06
5.8038e-06
1.39347e-06
5.8052e-06
5.80346e-06
1.94427e-05
1.94439e-05
1.94451e-05
1.94439e-05
1.39559e-06
5.80515e-06
5.8034e-06
5.8056e-06
5.80375e-06
1.94437e-05
1.94425e-05
2.33677e-06
8.03864e-07
3.75351e-06
1.09619e-06
2.33706e-06
8.03869e-07
3.75309e-06
4.35899e-06
9.77871e-06
4.35929e-06
9.77884e-06
4.35908e-06
9.77952e-06
4.35935e-06
9.77967e-06
2.33702e-06
1.09617e-06
8.03842e-07
3.75248e-06
8.03845e-07
3.7529e-06
2.33664e-06
2.33706e-06
1.09619e-06
8.03868e-07
3.75304e-06
8.03873e-07
3.75348e-06
2.3367e-06
4.35925e-06
9.77873e-06
9.77862e-06
4.35893e-06
4.35933e-06
9.77955e-06
9.77945e-06
4.35903e-06
1.94426e-05
1.94438e-05
1.94445e-05
1.94457e-05
1.39563e-06
5.80337e-06
5.80539e-06
5.80374e-06
5.80575e-06
1.94436e-05
1.94424e-05
1.94455e-05
1.94444e-05
1.94411e-05
1.94421e-05
1.94436e-05
1.94446e-05
5.80356e-06
5.80553e-06
1.39332e-06
5.80315e-06
5.80512e-06
1.94415e-05
1.94407e-05
1.9444e-05
1.94432e-05
1.39546e-06
5.80291e-06
5.80486e-06
5.80341e-06
5.80537e-06
4.3588e-06
9.77833e-06
4.35905e-06
9.77837e-06
2.3365e-06
3.75262e-06
8.03714e-07
1.09618e-06
2.33682e-06
3.75217e-06
8.03713e-07
2.33657e-06
3.75318e-06
8.0375e-07
1.09623e-06
2.33689e-06
3.75272e-06
8.03749e-07
4.35887e-06
9.77689e-06
9.77692e-06
4.35857e-06
4.35897e-06
9.77809e-06
9.77812e-06
4.35868e-06
2.33681e-06
1.09618e-06
3.75205e-06
8.03717e-07
3.75253e-06
8.03715e-07
2.33644e-06
2.33688e-06
1.09623e-06
3.7526e-06
8.03754e-07
3.75309e-06
8.03753e-07
2.33651e-06
5.80539e-06
5.80373e-06
1.39325e-06
5.80499e-06
5.8032e-06
1.94405e-05
1.94416e-05
1.94432e-05
1.94423e-05
1.39541e-06
5.80476e-06
5.80289e-06
5.80526e-06
5.80354e-06
1.94408e-05
1.944e-05
2.33668e-06
3.75342e-06
8.03787e-07
1.09607e-06
2.33699e-06
3.75294e-06
8.03789e-07
4.35877e-06
9.77858e-06
4.35896e-06
9.77865e-06
2.3366e-06
8.03822e-07
3.75328e-06
1.09627e-06
2.33692e-06
8.03821e-07
3.75279e-06
4.35898e-06
9.77896e-06
9.77901e-06
4.35874e-06
2.33697e-06
1.09607e-06
3.75281e-06
8.03794e-07
3.75333e-06
8.03789e-07
2.33661e-06
4.35889e-06
9.77837e-06
9.77839e-06
4.35866e-06
2.3369e-06
1.09627e-06
8.03826e-07
3.75267e-06
8.03824e-07
3.7532e-06
2.33653e-06
4.35888e-06
9.77835e-06
4.35913e-06
9.7784e-06
2.33656e-06
8.03805e-07
3.75275e-06
1.09627e-06
2.33688e-06
8.03804e-07
3.75229e-06
4.35878e-06
9.77825e-06
4.35903e-06
9.77828e-06
2.33692e-06
1.09606e-06
3.75222e-06
8.0376e-07
3.75275e-06
8.03759e-07
2.33655e-06
4.35906e-06
9.77808e-06
9.77813e-06
4.35876e-06
2.33685e-06
1.09627e-06
8.03806e-07
3.75216e-06
8.03805e-07
3.75265e-06
2.33648e-06
4.35895e-06
9.77796e-06
9.77802e-06
4.35865e-06
5.80554e-06
5.80369e-06
1.39336e-06
5.80503e-06
5.8033e-06
1.94423e-05
1.94433e-05
1.94442e-05
1.94432e-05
1.3955e-06
5.80478e-06
5.80309e-06
5.80539e-06
5.80357e-06
1.94428e-05
1.94419e-05
2.33666e-06
8.03862e-07
3.75342e-06
1.09616e-06
2.33698e-06
8.03861e-07
3.75296e-06
4.35886e-06
9.77851e-06
4.35918e-06
9.77857e-06
4.35895e-06
9.77931e-06
4.35928e-06
9.77936e-06
2.33691e-06
1.09615e-06
8.03839e-07
3.7523e-06
8.03838e-07
3.75278e-06
2.33654e-06
2.33696e-06
1.09616e-06
8.03864e-07
3.75283e-06
8.03863e-07
3.75332e-06
2.3366e-06
4.3591e-06
9.7783e-06
9.77832e-06
4.35874e-06
4.3592e-06
9.77905e-06
9.77909e-06
4.35882e-06
1.94422e-05
1.94431e-05
1.94442e-05
1.94451e-05
1.39554e-06
5.80295e-06
5.80498e-06
5.80348e-06
5.80549e-06
1.94425e-05
1.94417e-05
1.94445e-05
1.94437e-05
1.94401e-05
1.94409e-05
1.94425e-05
1.94434e-05
5.80314e-06
5.80509e-06
1.39318e-06
5.80265e-06
5.8046e-06
1.94406e-05
1.94395e-05
1.94431e-05
1.9442e-05
1.39533e-06
5.8025e-06
5.80446e-06
5.80289e-06
5.80485e-06
4.35856e-06
9.77782e-06
4.35885e-06
9.77777e-06
2.33633e-06
3.7524e-06
8.03712e-07
1.09615e-06
2.33672e-06
3.75192e-06
8.03704e-07
2.3364e-06
3.75297e-06
8.0375e-07
1.09619e-06
2.33679e-06
3.75248e-06
8.03741e-07
4.35862e-06
9.7763e-06
9.77628e-06
4.35836e-06
4.35873e-06
9.77753e-06
9.77751e-06
4.35847e-06
2.33664e-06
1.09615e-06
3.75184e-06
8.03701e-07
3.75228e-06
8.03701e-07
2.33634e-06
2.33671e-06
1.09619e-06
3.75241e-06
8.03738e-07
3.75285e-06
8.03738e-07
2.3364e-06