/*--------------------------------*- C++ -*----------------------------------*\
| =========                 |                                                 |
| \\      /  F ield         | OpenFOAM: The Open Source CFD Toolbox           |
|  \\    /   O peration     | Version:  v1906                                 |
|   \\  /    A nd           | Web:      www.OpenFOAM.com                      |
|    \\/     M anipulation  |                                                 |
\*---------------------------------------------------------------------------*/
FoamFile
{
    version     2.0;
    format      ascii;
    class       volScalarField;
    location    "250";
    object      p;
}
// * * * * * * * * * * * * * * * * * * * * * * * * * * * * * * * * * * * * * //

dimensions      [0 2 -2 0 0 0 0];


internalField   nonuniform List<scalar> 
43024
(
0.000729308
0.000729279
0.000729279
0.000731366
0.000692725
0.000692697
0.000692698
0.000694785
0.000656138
0.000656109
0.000656109
0.000658197
0.000619547
0.000619517
0.000619517
0.000621606
0.000582954
0.000582927
0.000582928
0.000585015
0.000546367
0.000546341
0.000546341
0.00054843
0.000509795
0.000509768
0.000509767
0.000511854
0.000473227
0.000473196
0.000473196
0.000475282
0.000436651
0.000436622
0.000436623
0.00043871
0.000400073
0.000400047
0.000400047
0.000402134
0.00036349
0.000363462
0.000363461
0.000365548
0.000326905
0.000326876
0.000326877
0.000328964
0.000290318
0.000290292
0.00029029
0.000292378
0.000253733
0.000253706
0.000253706
0.000255791
0.000217148
0.000217122
0.000217122
0.000219205
0.000180564
0.000180538
0.000180538
0.000182619
0.000143979
0.000143953
0.000143953
0.000146028
0.000107391
0.00010737
0.000107369
0.00010943
7.08065e-05
7.0773e-05
7.07716e-05
7.28003e-05
3.49637e-05
3.43806e-05
3.43777e-05
3.62593e-05
6.15671e-06
7.3196e-06
7.3179e-06
5.3119e-06
0.00073635
0.000738425
0.000738425
0.00073635
0.000738425
0.000738425
0.000738425
0.000738425
0.00073635
0.000738425
0.000738425
0.000736349
0.000731366
0.000699769
0.000729279
0.000729279
0.000701845
0.000701845
0.000731366
0.000699769
0.000729279
0.000729279
0.000701845
0.000701845
0.000729279
0.000701844
0.000701845
0.000731366
0.000699769
0.000729279
0.000701845
0.000701845
0.000699769
0.000694785
0.00066318
0.000692698
0.000692697
0.000665255
0.000665255
0.000694784
0.00066318
0.000692698
0.000692698
0.000665255
0.000665255
0.000692698
0.000665255
0.000665255
0.000694785
0.00066318
0.000692698
0.000665255
0.000665255
0.00066318
0.000658197
0.000626591
0.000656109
0.000656109
0.000628667
0.000628667
0.000658197
0.000626592
0.000656109
0.000656109
0.000628666
0.000628667
0.00065611
0.000628667
0.000628667
0.000658197
0.000626591
0.00065611
0.000628667
0.000628667
0.000626591
0.000621606
0.00059
0.000619517
0.000619517
0.000592076
0.000592076
0.000621606
0.000590001
0.000619517
0.000619517
0.000592076
0.000592076
0.000619517
0.000592076
0.000592076
0.000621606
0.000590001
0.000619517
0.000592076
0.000592076
0.00059
0.000585015
0.000553412
0.000582927
0.000582927
0.000555485
0.000555485
0.000585015
0.000553412
0.000582927
0.000582928
0.000555485
0.000555485
0.000582927
0.000555485
0.000555486
0.000585016
0.000553412
0.000582927
0.000555485
0.000555485
0.000553412
0.000548429
0.000516835
0.000546341
0.000546341
0.000518908
0.000518908
0.000548429
0.000516835
0.000546341
0.000546341
0.000518908
0.000518908
0.000546342
0.000518908
0.000518908
0.000548429
0.000516834
0.000546341
0.000518908
0.000518908
0.000516835
0.000511854
0.000480264
0.000509767
0.000509767
0.00048234
0.00048234
0.000511854
0.000480264
0.000509767
0.000509767
0.00048234
0.00048234
0.000509768
0.00048234
0.00048234
0.000511854
0.000480264
0.000509767
0.00048234
0.00048234
0.000480264
0.000475282
0.000443693
0.000473196
0.000473196
0.000445768
0.000445768
0.000475281
0.000443693
0.000473196
0.000473196
0.000445768
0.000445768
0.000473196
0.000445767
0.000445767
0.000475282
0.000443693
0.000473196
0.000445767
0.000445767
0.000443692
0.000438709
0.000407116
0.000436623
0.000436622
0.00040919
0.000409191
0.000438708
0.000407117
0.000436623
0.000436623
0.00040919
0.00040919
0.000436623
0.000409191
0.000409191
0.00043871
0.000407116
0.000436623
0.000409191
0.000409191
0.000407116
0.000402133
0.000370532
0.000400047
0.000400047
0.000372607
0.000372606
0.000402134
0.000370532
0.000400047
0.000400047
0.000372606
0.000372607
0.000400047
0.000372606
0.000372606
0.000402134
0.000370532
0.000400047
0.000372606
0.000372606
0.000370531
0.000365548
0.000333949
0.000363461
0.000363461
0.000336024
0.000336024
0.000365548
0.000333949
0.000363461
0.000363461
0.000336024
0.000336023
0.000363462
0.000336023
0.000336024
0.000365548
0.000333949
0.000363461
0.000336024
0.000336024
0.000333949
0.000328964
0.000297362
0.000326877
0.000326877
0.000299435
0.000299436
0.000328963
0.000297363
0.000326877
0.000326877
0.000299435
0.000299435
0.000326876
0.000299436
0.000299437
0.000328964
0.000297361
0.000326877
0.000299435
0.000299435
0.000297362
0.000292378
0.000260776
0.000290291
0.000290291
0.00026285
0.00026285
0.000292378
0.000260776
0.00029029
0.00029029
0.00026285
0.00026285
0.000290292
0.00026285
0.00026285
0.000292378
0.000260775
0.000290291
0.00026285
0.00026285
0.000260775
0.000255791
0.000224192
0.000253705
0.000253705
0.000226266
0.000226266
0.000255791
0.000224192
0.000253705
0.000253706
0.000226266
0.000226266
0.000253706
0.000226266
0.000226267
0.000255791
0.000224192
0.000253705
0.000226266
0.000226266
0.000224192
0.000219204
0.000187609
0.000217122
0.000217122
0.000189681
0.000189681
0.000219204
0.000187609
0.000217122
0.000217122
0.00018968
0.00018968
0.000217122
0.00018968
0.00018968
0.000219205
0.000187608
0.000217122
0.00018968
0.00018968
0.000187609
0.000182619
0.000151026
0.000180539
0.000180538
0.000153095
0.000153095
0.000182618
0.000151026
0.000180538
0.000180538
0.000153095
0.000153095
0.000180538
0.000153096
0.000153095
0.000182619
0.000151025
0.000180538
0.000153095
0.000153095
0.000151025
0.000146028
0.000114444
0.000143953
0.000143953
0.000116509
0.000116509
0.000146028
0.000114444
0.000143953
0.000143953
0.000116508
0.000116508
0.000143953
0.000116509
0.000116508
0.000146028
0.000114443
0.000143953
0.000116508
0.000116508
0.000114443
0.00010943
7.78507e-05
0.00010737
0.00010737
7.99132e-05
7.99128e-05
0.000109431
7.78519e-05
0.00010737
0.000107369
7.99126e-05
7.9912e-05
0.000107369
7.99126e-05
7.99122e-05
0.00010943
7.78498e-05
0.000107369
7.99121e-05
7.99123e-05
7.78498e-05
7.28014e-05
4.12878e-05
7.07735e-05
7.07732e-05
4.33507e-05
4.33512e-05
7.28014e-05
4.12892e-05
7.07724e-05
7.07716e-05
4.33488e-05
4.3348e-05
7.07722e-05
4.33498e-05
4.33477e-05
7.28008e-05
4.12851e-05
7.07719e-05
4.33474e-05
4.33465e-05
4.12848e-05
3.62633e-05
8.60756e-06
3.43823e-05
3.43825e-05
1.17843e-05
1.17841e-05
3.62635e-05
8.6069e-06
3.43806e-05
3.43786e-05
1.17867e-05
1.17787e-05
3.43776e-05
1.17845e-05
1.17767e-05
3.62602e-05
8.60301e-06
3.4377e-05
1.17824e-05
1.17825e-05
8.60158e-06
5.31653e-06
7.31849e-06
7.31814e-06
5.31659e-06
7.32039e-06
7.31409e-06
6.15585e-06
6.15554e-06
6.15432e-06
7.31322e-06
5.3137e-06
7.31708e-06
0.000754457
0.000754453
0.000754454
0.000754457
0.000754453
0.000738453
0.000738453
0.000738454
0.000738453
0.00075451
0.000756716
0.000754483
0.000756723
0.000754454
0.00075451
0.000756717
0.000756723
0.000754483
0.000754641
0.000754451
0.00075445
0.000717877
0.000731566
0.000731564
0.000717872
0.000731565
0.000717872
0.000717877
0.000731566
0.000731564
0.000717872
0.000729308
0.000729309
0.000729308
0.000701872
0.000701871
0.000701872
0.000701871
0.000717932
0.000731536
0.000729287
0.000720134
0.000731513
0.000717903
0.00072014
0.000731565
0.000717872
0.000717933
0.000729287
0.000731536
0.000720134
0.000731513
0.00072014
0.000717903
0.00073157
0.00073157
0.00071806
0.000717869
0.000717869
0.000681291
0.000694981
0.000694978
0.000681287
0.00069498
0.000681288
0.000681291
0.000694981
0.000694978
0.000681287
0.000692724
0.000692725
0.000692724
0.000665285
0.000665284
0.000665285
0.000665284
0.000681345
0.000694951
0.000692706
0.000683549
0.000694926
0.000681318
0.000683557
0.00069498
0.000681288
0.000681345
0.000692706
0.000694951
0.00068355
0.000694926
0.000683557
0.000681318
0.000694984
0.000694984
0.000681474
0.000681285
0.000681285
0.000644703
0.000658396
0.000658394
0.000644698
0.000658395
0.000644699
0.000644702
0.000658396
0.000658394
0.000644698
0.000656138
0.000656138
0.000656138
0.000628695
0.000628695
0.000628695
0.000628694
0.000644755
0.000658365
0.000656116
0.000646964
0.000658344
0.000644729
0.000646971
0.000658395
0.000644699
0.000644755
0.000656116
0.000658365
0.000646964
0.000658343
0.000646971
0.000644728
0.000658399
0.000658399
0.000644889
0.000644696
0.000644696
0.000608114
0.000621807
0.000621805
0.00060811
0.000621807
0.000608111
0.000608114
0.000621807
0.000621806
0.00060811
0.000619547
0.000619547
0.000619546
0.000592102
0.000592102
0.000592102
0.000592101
0.000608168
0.000621777
0.000619524
0.00061037
0.000621755
0.00060814
0.000610376
0.000621807
0.000608111
0.000608169
0.000619524
0.000621778
0.000610369
0.000621755
0.000610376
0.00060814
0.000621811
0.000621811
0.000608295
0.000608108
0.000608108
0.000571524
0.000585215
0.000585212
0.00057152
0.000585215
0.000571522
0.000571524
0.000585215
0.000585212
0.000571521
0.000582953
0.000582954
0.000582953
0.000555513
0.000555513
0.000555513
0.000555512
0.000571578
0.000585184
0.000582935
0.000573777
0.000585159
0.000571551
0.000573784
0.000585215
0.000571522
0.000571577
0.000582935
0.000585184
0.000573778
0.000585159
0.000573784
0.00057155
0.000585219
0.000585219
0.000571703
0.000571518
0.000571518
0.00053494
0.00054863
0.000548627
0.000534936
0.000548629
0.000534937
0.00053494
0.00054863
0.000548627
0.000534936
0.000546367
0.000546367
0.000546367
0.000518937
0.000518937
0.000518937
0.000518937
0.000534992
0.000548599
0.000546347
0.000537197
0.000548575
0.000534966
0.000537204
0.000548629
0.000534937
0.000534992
0.000546347
0.000548599
0.000537197
0.000548575
0.000537204
0.000534966
0.000548633
0.000548633
0.000535123
0.000534934
0.000534934
0.000498366
0.000512053
0.000512051
0.000498361
0.000512052
0.000498363
0.000498366
0.000512053
0.000512051
0.000498362
0.000509795
0.000509795
0.000509795
0.000482369
0.000482369
0.000482369
0.000482369
0.000498419
0.000512022
0.000509773
0.000500627
0.000512
0.000498392
0.000500634
0.000512052
0.000498362
0.000498419
0.000509773
0.000512023
0.000500627
0.000512001
0.000500634
0.000498392
0.000512056
0.000512056
0.000498552
0.000498359
0.000498359
0.000461795
0.000475481
0.000475478
0.00046179
0.00047548
0.000461791
0.000461794
0.000475481
0.000475479
0.00046179
0.000473227
0.000473226
0.000473226
0.000445795
0.000445794
0.000445795
0.000445794
0.000461848
0.000475451
0.000473203
0.000464053
0.000475429
0.000461821
0.00046406
0.00047548
0.000461792
0.000461849
0.000473203
0.000475451
0.000464053
0.000475428
0.00046406
0.000461821
0.000475484
0.000475484
0.000461978
0.000461788
0.000461788
0.000425223
0.000438908
0.000438905
0.000425218
0.000438907
0.000425219
0.000425222
0.000438908
0.000438905
0.000425218
0.000436651
0.000436651
0.000436651
0.000409218
0.000409218
0.000409219
0.000409218
0.000425277
0.000438878
0.000436629
0.000427477
0.000438854
0.000425248
0.000427483
0.000438907
0.000425218
0.000425278
0.00043663
0.000438878
0.000427477
0.000438854
0.000427483
0.000425248
0.000438911
0.000438911
0.000425403
0.000425215
0.000425215
0.00038864
0.00040233
0.000402327
0.000388636
0.000402329
0.000388637
0.00038864
0.00040233
0.000402327
0.000388636
0.000400073
0.000400073
0.000400073
0.000372635
0.000372636
0.000372636
0.000372635
0.000388695
0.000402299
0.000400055
0.0003909
0.000402275
0.000388668
0.000390907
0.000402329
0.000388637
0.000388694
0.000400055
0.000402299
0.0003909
0.000402274
0.000390908
0.000388667
0.000402334
0.000402333
0.000388825
0.000388635
0.000388634
0.000352058
0.000365749
0.000365746
0.000352053
0.000365748
0.000352054
0.000352057
0.000365749
0.000365747
0.000352053
0.00036349
0.00036349
0.000363489
0.000336051
0.000336051
0.000336051
0.00033605
0.000352108
0.000365717
0.000363469
0.000354316
0.000365695
0.000352083
0.000354325
0.000365748
0.000352054
0.00035211
0.000363467
0.000365719
0.000354315
0.000365696
0.000354323
0.000352083
0.000365751
0.000365752
0.000352241
0.00035205
0.000352051
0.000315472
0.000329163
0.00032916
0.000315468
0.000329162
0.000315469
0.000315471
0.000329163
0.000329161
0.000315467
0.000326904
0.000326904
0.000326904
0.000299464
0.000299464
0.000299464
0.000299463
0.000315526
0.000329133
0.000326881
0.000317728
0.000329112
0.000315499
0.000317735
0.000329162
0.000315468
0.000315525
0.000326883
0.000329132
0.000317728
0.000329109
0.000317735
0.000315499
0.000329166
0.000329166
0.000315653
0.000315466
0.000315466
0.000278886
0.000292577
0.000292575
0.000278882
0.000292577
0.000278882
0.000278886
0.000292577
0.000292576
0.000278882
0.000290318
0.000290318
0.000290318
0.000262878
0.000262878
0.000262878
0.000262878
0.000278941
0.000292545
0.000290298
0.000281143
0.000292522
0.000278914
0.000281148
0.000292577
0.000278882
0.00027894
0.000290295
0.000292547
0.000281143
0.000292525
0.000281149
0.000278913
0.000292579
0.00029258
0.000279069
0.00027888
0.00027888
0.000242302
0.000255991
0.000255988
0.000242297
0.000255992
0.000242296
0.000242302
0.000255991
0.000255988
0.000242297
0.000253733
0.000253733
0.000253732
0.000226292
0.000226292
0.000226293
0.000226292
0.000242357
0.000255959
0.000253714
0.000244558
0.000255936
0.00024233
0.000244563
0.000255992
0.000242297
0.000242357
0.000253713
0.000255959
0.000244558
0.000255936
0.000244563
0.00024233
0.000255994
0.000255994
0.000242486
0.000242296
0.000242296
0.000205717
0.000219405
0.000219402
0.000205713
0.000219407
0.00020571
0.000205716
0.000219405
0.000219402
0.000205713
0.000217148
0.000217148
0.000217148
0.000189707
0.000189707
0.000189707
0.000189706
0.000205771
0.000219372
0.000217131
0.000207973
0.000219348
0.000205747
0.00020798
0.000219407
0.00020571
0.000205769
0.00021713
0.000219372
0.000207973
0.00021935
0.000207981
0.000205745
0.000219407
0.000219407
0.0002059
0.000205713
0.000205713
0.00016913
0.000182819
0.000182818
0.000169128
0.000182825
0.00016912
0.00016913
0.00018282
0.000182819
0.000169128
0.000180564
0.000180564
0.000180564
0.000153118
0.000153118
0.000153118
0.000153118
0.000169185
0.000182785
0.000180544
0.000171388
0.000182767
0.000169164
0.000171395
0.000182825
0.000169119
0.000169186
0.000180543
0.000182786
0.000171388
0.000182768
0.000171394
0.000169165
0.00018282
0.00018282
0.000169317
0.00016913
0.00016913
0.000132545
0.000146231
0.000146233
0.000132545
0.000146247
0.000132524
0.000132545
0.000146231
0.000146232
0.000132546
0.000143979
0.000143978
0.000143979
0.000116526
0.000116526
0.000116526
0.000116527
0.000132604
0.000146191
0.00014396
0.000134801
0.000146177
0.000132589
0.000134804
0.000146246
0.000132524
0.000132603
0.000143961
0.000146191
0.000134801
0.000146176
0.000134805
0.000132589
0.000146228
0.000146228
0.000132733
0.000132551
0.000132551
9.59492e-05
0.000109638
0.000109644
9.59601e-05
0.000109677
9.59065e-05
9.59482e-05
0.000109637
0.000109644
9.59595e-05
0.000107392
0.000107391
0.000107392
7.9919e-05
7.99194e-05
7.99183e-05
7.99187e-05
9.60069e-05
0.000109587
0.000107378
9.82141e-05
0.000109587
9.60143e-05
9.82162e-05
0.000109676
9.59051e-05
9.60062e-05
0.000107377
0.000109586
9.82139e-05
0.000109587
9.8216e-05
9.60136e-05
0.000109627
0.000109627
9.615e-05
9.59764e-05
9.5976e-05
5.93139e-05
7.3017e-05
7.30412e-05
5.93436e-05
7.31282e-05
5.91789e-05
5.93118e-05
7.30165e-05
7.30399e-05
5.93419e-05
7.0807e-05
7.08056e-05
7.08057e-05
4.361e-05
4.36103e-05
4.36075e-05
4.36075e-05
5.93738e-05
7.29474e-05
7.07885e-05
6.16102e-05
7.29886e-05
5.94205e-05
6.16323e-05
7.31237e-05
5.91813e-05
5.93736e-05
7.07874e-05
7.29465e-05
6.16081e-05
7.2988e-05
6.16305e-05
5.94182e-05
7.2983e-05
7.29839e-05
5.95456e-05
5.93847e-05
5.93849e-05
2.20727e-05
3.60545e-05
3.61941e-05
2.15048e-05
3.64229e-05
2.09329e-05
2.2061e-05
3.60475e-05
3.61896e-05
2.14983e-05
3.4964e-05
3.49604e-05
3.49602e-05
1.18848e-05
1.18831e-05
1.18824e-05
1.18814e-05
2.25579e-05
3.6005e-05
3.46418e-05
2.57376e-05
3.62838e-05
2.20328e-05
2.60765e-05
3.64094e-05
2.09384e-05
2.25583e-05
3.46398e-05
3.6002e-05
2.57343e-05
3.62833e-05
2.60737e-05
2.20341e-05
3.5938e-05
3.59376e-05
2.35309e-05
2.18245e-05
2.18217e-05
3.03164e-06
4.49417e-06
3.87352e-06
1.30831e-08
1.99051e-06
-3.68571e-06
3.04084e-06
4.47901e-06
3.85829e-06
2.61418e-08
7.27155e-07
7.39773e-06
7.39724e-06
8.26132e-06
7.81019e-06
4.03894e-06
4.03958e-06
1.81185e-06
3.40154e-06
6.75333e-06
1.38052e-06
4.93867e-06
5.6429e-06
-2.32638e-06
1.95978e-06
-3.67554e-06
1.81913e-06
6.75266e-06
3.4006e-06
1.38121e-06
4.94067e-06
-2.32339e-06
5.65797e-06
7.54077e-07
7.55463e-07
7.08927e-07
3.67349e-06
3.70415e-06
0.000754454
0.000754454
0.000754641
0.00075445
0.000754451
0.000736164
0.000749855
0.000736164
0.000749855
0.000749658
0.000736161
0.000736161
0.000749859
0.000749859
0.000754457
0.000754453
0.00075451
0.000756717
0.000754483
0.000756723
0.00075451
0.000756717
0.000754483
0.000756723
0.000749853
0.000736163
0.000749856
0.000736167
0.000749853
0.000736163
0.000749856
0.000736167
0.0007498
0.000747571
0.000736193
0.000738434
0.000749825
0.00074758
0.00073622
0.0007498
0.000747571
0.000736193
0.000738434
0.000749825
0.00074758
0.00073622
0.000754642
0.000754451
0.000754451
0.000754454
0.000736164
0.000749855
0.000749658
0.000736161
0.000736161
0.000749859
0.000749859
0.000736164
0.000749855
0.00075451
0.000756716
0.000754483
0.000756723
0.000754457
0.000754453
0.00075451
0.000756717
0.000756723
0.000754483
0.000749853
0.000736163
0.000749856
0.000736166
0.0007498
0.000747571
0.000736194
0.000738434
0.000749825
0.00074758
0.00073622
0.000749853
0.000736163
0.000749856
0.000736166
0.000749801
0.000747572
0.000738434
0.000736194
0.00074758
0.000749825
0.00073622
0.000754457
0.000754453
0.00075451
0.000756717
0.000756723
0.000754483
0.000754457
0.000754453
0.000749801
0.000747571
0.000736193
0.000738434
0.000749825
0.00074758
0.00073622
0.000749853
0.000736163
0.000749856
0.000736167
0.000749801
0.000747572
0.000738434
0.000736193
0.00074758
0.000749825
0.00073622
0.000749853
0.000736162
0.000749856
0.000736167
0.000754641
0.000754451
0.00075445
0.000754454
0.000736164
0.000749855
0.000749658
0.000736161
0.000736161
0.000749859
0.000749859
0.000736164
0.000749855
0.00075451
0.000756717
0.000756723
0.000754483
0.000754457
0.000754453
0.000754457
0.000754453
0.0007498
0.000747572
0.000738434
0.000736193
0.00074758
0.000749825
0.00073622
0.000749801
0.000747572
0.000738434
0.000736193
0.00074758
0.000749825
0.00073622
0.000749852
0.000736162
0.000749856
0.000736167
0.000749853
0.000736162
0.000749856
0.000736167
0.000754454
0.000754454
0.000749658
0.000736161
0.000736161
0.000749859
0.000749859
0.000736164
0.000749855
0.000736164
0.000749855
0.000731566
0.000717873
0.000731566
0.000717873
0.00073157
0.00073157
0.000718061
0.000717869
0.000717869
0.000699579
0.000713273
0.000699579
0.000713273
0.000713078
0.000699576
0.000699576
0.000713277
0.000713277
0.000717877
0.000731566
0.000731564
0.000717872
0.000717933
0.000731536
0.000729287
0.000720134
0.000731513
0.000717903
0.00072014
0.000717932
0.000731536
0.000729287
0.000720134
0.000731513
0.000717903
0.00072014
0.000713272
0.000699578
0.000713274
0.000699583
0.000713272
0.000699578
0.000713274
0.000699582
0.000713223
0.00071099
0.000699609
0.000701852
0.000713245
0.000710996
0.000699635
0.000713223
0.00071099
0.000699609
0.000701852
0.000713244
0.000710996
0.000699635
0.00073157
0.000731569
0.000718061
0.000717869
0.00071787
0.000731565
0.000717872
0.000699579
0.000713273
0.000713078
0.000699576
0.000699576
0.000713277
0.000713277
0.000699579
0.000713273
0.000717932
0.000731536
0.000729287
0.000720134
0.000731513
0.000717903
0.00072014
0.000717877
0.000731566
0.000731564
0.000717872
0.000717932
0.000729287
0.000731536
0.000720134
0.000731513
0.00072014
0.000717903
0.000713273
0.000699578
0.000713274
0.000699582
0.000713223
0.00071099
0.000699609
0.000701852
0.000713244
0.000710996
0.000699635
0.000713273
0.000699578
0.000713274
0.000699582
0.000713223
0.00071099
0.000701852
0.000699609
0.000710996
0.000713244
0.000699635
0.000717877
0.000731566
0.000731563
0.000717872
0.000717932
0.000729287
0.000731536
0.000720134
0.000731513
0.00072014
0.000717903
0.000717877
0.000731566
0.000731563
0.000717872
0.000713223
0.00071099
0.000699609
0.000701852
0.000713244
0.000710996
0.000699635
0.000713272
0.000699578
0.000713274
0.000699583
0.000713223
0.00071099
0.000701852
0.000699609
0.000710996
0.000713244
0.000699635
0.000713272
0.000699578
0.000713274
0.000699583
0.000731569
0.00073157
0.00071806
0.00071787
0.000717869
0.000731565
0.000717873
0.000699579
0.000713273
0.000713078
0.000699576
0.000699576
0.000713277
0.000713277
0.000699579
0.000713273
0.000717933
0.000729287
0.000731536
0.000720134
0.000731513
0.00072014
0.000717903
0.000717877
0.000731566
0.000731563
0.000717872
0.000717877
0.000731566
0.000731563
0.000717872
0.000713223
0.00071099
0.000701852
0.000699609
0.000710996
0.000713244
0.000699635
0.000713223
0.00071099
0.000701852
0.000699609
0.000710996
0.000713244
0.000699635
0.000713272
0.000699578
0.000713274
0.000699583
0.000713272
0.000699578
0.000713274
0.000699583
0.000731565
0.000717873
0.000731565
0.000717873
0.000713078
0.000699576
0.000699576
0.000713277
0.000713277
0.000699579
0.000713273
0.000699579
0.000713273
0.00069498
0.000681288
0.00069498
0.000681288
0.000694985
0.000694985
0.000681474
0.000681285
0.000681285
0.000662995
0.000676689
0.000662995
0.000676689
0.000676489
0.000662991
0.000662992
0.000676693
0.000676693
0.000681291
0.000694981
0.000694978
0.000681287
0.000681344
0.000694951
0.000692706
0.00068355
0.000694926
0.000681317
0.000683558
0.000681344
0.000694951
0.000692706
0.000683549
0.000694926
0.000681318
0.000683558
0.000676687
0.000662994
0.00067669
0.000662999
0.000676687
0.000662994
0.00067669
0.000662999
0.000676637
0.000674402
0.000663024
0.000665261
0.00067666
0.000674409
0.000663053
0.000676637
0.000674401
0.000663025
0.000665261
0.00067666
0.000674409
0.000663053
0.000694984
0.000694984
0.000681474
0.000681285
0.000681285
0.00069498
0.000681288
0.000662995
0.000676689
0.000676489
0.000662992
0.000662992
0.000676693
0.000676693
0.000662995
0.000676689
0.000681345
0.000694951
0.000692706
0.00068355
0.000694926
0.000681318
0.000683558
0.000681291
0.000694981
0.000694978
0.000681287
0.000681345
0.000692706
0.000694951
0.00068355
0.000694926
0.000683558
0.000681318
0.000676688
0.000662994
0.00067669
0.000662998
0.000676637
0.000674401
0.000663025
0.000665261
0.00067666
0.000674409
0.000663053
0.000676688
0.000662994
0.00067669
0.000662998
0.000676637
0.000674401
0.000665261
0.000663025
0.000674408
0.00067666
0.000663053
0.000681291
0.000694981
0.000694978
0.000681287
0.000681345
0.000692706
0.000694951
0.00068355
0.000694926
0.000683558
0.000681318
0.000681291
0.000694981
0.000694978
0.000681287
0.000676637
0.000674401
0.000663025
0.000665261
0.00067666
0.000674408
0.000663053
0.000676687
0.000662994
0.00067669
0.000662999
0.000676637
0.000674402
0.000665261
0.000663025
0.000674409
0.00067666
0.000663054
0.000676687
0.000662994
0.00067669
0.000662999
0.000694984
0.000694984
0.000681474
0.000681285
0.000681285
0.00069498
0.000681288
0.000662995
0.000676689
0.000676489
0.000662992
0.000662992
0.000676693
0.000676693
0.000662995
0.000676689
0.000681345
0.000692706
0.000694951
0.00068355
0.000694926
0.000683557
0.000681318
0.000681292
0.000694981
0.000694978
0.000681287
0.000681291
0.000694981
0.000694978
0.000681287
0.000676637
0.000674401
0.000665261
0.000663024
0.000674408
0.00067666
0.000663053
0.000676637
0.000674401
0.000665261
0.000663025
0.000674408
0.00067666
0.000663053
0.000676687
0.000662994
0.00067669
0.000662999
0.000676687
0.000662994
0.00067669
0.000662999
0.00069498
0.000681288
0.00069498
0.000681288
0.000676489
0.000662992
0.000662992
0.000676693
0.000676693
0.000662995
0.000676689
0.000662995
0.000676689
0.000658395
0.000644699
0.000658395
0.000644699
0.000658399
0.000658399
0.000644888
0.000644696
0.000644696
0.000626406
0.000640099
0.000626406
0.0006401
0.000639904
0.000626403
0.000626403
0.000640104
0.000640104
0.000644703
0.000658396
0.000658394
0.000644698
0.000644755
0.000658366
0.000656115
0.000646964
0.000658343
0.000644728
0.000646971
0.000644755
0.000658365
0.000656116
0.000646964
0.000658343
0.000644729
0.000646971
0.000640098
0.000626405
0.000640101
0.00062641
0.000640098
0.000626405
0.000640101
0.00062641
0.000640045
0.000637816
0.000626436
0.000628674
0.00064007
0.000637824
0.000626463
0.000640045
0.000637816
0.000626436
0.000628674
0.00064007
0.000637824
0.000626463
0.000658399
0.000658399
0.000644889
0.000644696
0.000644696
0.000658395
0.000644699
0.000626406
0.0006401
0.000639904
0.000626403
0.000626403
0.000640104
0.000640103
0.000626406
0.0006401
0.000644755
0.000658365
0.000656116
0.000646964
0.000658343
0.000644729
0.000646971
0.000644702
0.000658396
0.000658394
0.000644698
0.000644755
0.000656116
0.000658365
0.000646964
0.000658343
0.000646971
0.000644729
0.000640098
0.000626405
0.000640101
0.000626409
0.000640045
0.000637816
0.000626436
0.000628674
0.00064007
0.000637824
0.000626463
0.000640098
0.000626405
0.000640101
0.000626409
0.000640045
0.000637816
0.000628674
0.000626436
0.000637824
0.00064007
0.000626463
0.000644703
0.000658396
0.000658394
0.000644699
0.000644755
0.000656116
0.000658366
0.000646964
0.000658344
0.000646971
0.000644729
0.000644703
0.000658396
0.000658394
0.000644698
0.000640046
0.000637817
0.000626436
0.000628674
0.00064007
0.000637824
0.000626463
0.000640098
0.000626405
0.000640101
0.000626409
0.000640046
0.000637817
0.000628674
0.000626436
0.000637824
0.00064007
0.000626463
0.000640098
0.000626405
0.000640101
0.000626409
0.000658399
0.000658399
0.000644888
0.000644696
0.000644696
0.000658395
0.000644699
0.000626406
0.0006401
0.000639904
0.000626403
0.000626403
0.000640103
0.000640104
0.000626406
0.0006401
0.000644755
0.000656116
0.000658365
0.000646964
0.000658343
0.000646971
0.000644729
0.000644703
0.000658396
0.000658393
0.000644698
0.000644703
0.000658396
0.000658393
0.000644698
0.000640045
0.000637816
0.000628674
0.000626436
0.000637824
0.00064007
0.000626463
0.000640045
0.000637816
0.000628674
0.000626436
0.000637824
0.00064007
0.000626463
0.000640098
0.000626405
0.000640101
0.00062641
0.000640098
0.000626405
0.000640101
0.00062641
0.000658395
0.000644699
0.000658395
0.000644699
0.000639904
0.000626403
0.000626403
0.000640104
0.000640104
0.000626406
0.000640099
0.000626406
0.000640099
0.000621806
0.000608111
0.000621806
0.000608111
0.000621811
0.000621811
0.000608295
0.000608108
0.000608108
0.000589815
0.00060351
0.000589815
0.00060351
0.000603311
0.000589811
0.000589811
0.000603515
0.000603515
0.000608114
0.000621808
0.000621805
0.00060811
0.000608169
0.000621778
0.000619524
0.00061037
0.000621755
0.00060814
0.000610376
0.000608169
0.000621778
0.000619524
0.00061037
0.000621755
0.00060814
0.000610376
0.000603509
0.000589813
0.000603511
0.000589817
0.000603509
0.000589813
0.000603511
0.000589817
0.000603458
0.000601223
0.000589843
0.000592083
0.000603481
0.00060123
0.000589868
0.000603458
0.000601223
0.000589843
0.000592084
0.000603481
0.00060123
0.000589868
0.000621811
0.000621811
0.000608295
0.000608108
0.000608108
0.000621806
0.000608111
0.000589814
0.00060351
0.000603311
0.000589811
0.000589811
0.000603515
0.000603514
0.000589814
0.00060351
0.000608168
0.000621777
0.000619524
0.00061037
0.000621755
0.00060814
0.000610376
0.000608114
0.000621808
0.000621806
0.00060811
0.000608168
0.000619524
0.000621778
0.00061037
0.000621755
0.000610376
0.000608141
0.000603509
0.000589813
0.000603511
0.000589816
0.000603457
0.000601223
0.000589843
0.000592084
0.00060348
0.00060123
0.000589868
0.000603509
0.000589813
0.000603511
0.000589816
0.000603458
0.000601223
0.000592084
0.000589843
0.00060123
0.000603481
0.000589868
0.000608114
0.000621807
0.000621805
0.00060811
0.000608168
0.000619524
0.000621778
0.00061037
0.000621755
0.000610376
0.00060814
0.000608114
0.000621807
0.000621805
0.00060811
0.000603457
0.000601223
0.000589843
0.000592083
0.00060348
0.00060123
0.000589868
0.000603508
0.000589813
0.000603511
0.000589817
0.000603457
0.000601222
0.000592083
0.000589843
0.00060123
0.000603481
0.000589868
0.000603508
0.000589813
0.000603511
0.000589817
0.000621811
0.000621811
0.000608295
0.000608108
0.000608108
0.000621807
0.000608111
0.000589814
0.000603511
0.000603311
0.000589811
0.000589811
0.000603515
0.000603515
0.000589814
0.00060351
0.000608169
0.000619524
0.000621778
0.000610369
0.000621755
0.000610376
0.00060814
0.000608115
0.000621808
0.000621805
0.00060811
0.000608115
0.000621808
0.000621805
0.00060811
0.000603458
0.000601223
0.000592083
0.000589843
0.00060123
0.000603481
0.000589868
0.000603458
0.000601222
0.000592083
0.000589843
0.00060123
0.000603481
0.000589868
0.000603508
0.000589813
0.000603511
0.000589817
0.000603508
0.000589813
0.000603511
0.000589817
0.000621806
0.000608111
0.000621806
0.000608111
0.000603311
0.000589811
0.000589811
0.000603515
0.000603515
0.000589815
0.00060351
0.000589815
0.000603511
0.000585215
0.000571522
0.000585215
0.000571522
0.000585219
0.000585219
0.000571703
0.000571519
0.000571519
0.000553229
0.000566922
0.000553229
0.000566923
0.000566719
0.000553225
0.000553225
0.000566927
0.000566927
0.000571524
0.000585215
0.000585212
0.00057152
0.000571578
0.000585185
0.000582935
0.000573777
0.000585159
0.00057155
0.000573785
0.000571578
0.000585184
0.000582935
0.000573778
0.000585159
0.00057155
0.000573785
0.00056692
0.000553227
0.000566923
0.000553231
0.00056692
0.000553227
0.000566923
0.000553231
0.000566869
0.000564631
0.000553257
0.000555491
0.000566892
0.000564636
0.000553284
0.000566869
0.00056463
0.000553257
0.000555491
0.000566892
0.000564636
0.000553284
0.000585219
0.000585218
0.000571703
0.000571518