/*--------------------------------*- C++ -*----------------------------------*\
| =========                 |                                                 |
| \\      /  F ield         | OpenFOAM: The Open Source CFD Toolbox           |
|  \\    /   O peration     | Version:  v1906                                 |
|   \\  /    A nd           | Web:      www.OpenFOAM.com                      |
|    \\/     M anipulation  |                                                 |
\*---------------------------------------------------------------------------*/
FoamFile
{
    version     2.0;
    format      ascii;
    class       volScalarField;
    location    "250";
    object      p;
}
// * * * * * * * * * * * * * * * * * * * * * * * * * * * * * * * * * * * * * //

dimensions      [0 2 -2 0 0 0 0];


internalField   nonuniform List<scalar> 
43248
(
0.00266548
0.00266544
0.00266544
0.00266789
0.00262559
0.00262554
0.00262554
0.00262798
0.00258594
0.00258588
0.00258588
0.00258831
0.00254651
0.00254646
0.00254645
0.00254887
0.0025073
0.00250725
0.00250725
0.00250965
0.0024683
0.00246825
0.00246825
0.00247063
0.0024295
0.00242945
0.00242945
0.00243182
0.00239089
0.00239085
0.00239085
0.00239319
0.00235247
0.00235243
0.00235243
0.00235476
0.00231423
0.00231419
0.0023142
0.0023165
0.00227617
0.00227613
0.00227613
0.00227842
0.00223827
0.00223824
0.00223824
0.0022405
0.00220054
0.00220052
0.00220052
0.00220276
0.00216296
0.00216294
0.00216294
0.00216517
0.00212553
0.00212552
0.00212552
0.00212773
0.00208826
0.00208825
0.00208825
0.00209043
0.00205112
0.00205111
0.00205111
0.00205328
0.00201412
0.0020141
0.0020141
0.00201626
0.00197725
0.00197723
0.00197723
0.00197937
0.00194051
0.00194047
0.00194047
0.00194261
0.00190388
0.00190384
0.00190384
0.00190596
0.00186736
0.00186731
0.00186731
0.00186942
0.00183095
0.00183089
0.00183089
0.001833
0.00179462
0.00179455
0.00179455
0.00179665
0.00175842
0.00175835
0.00175835
0.00176045
0.00172225
0.00172216
0.00172216
0.00172424
0.00168627
0.0016862
0.0016862
0.00168828
0.00267311
0.00267545
0.00267545
0.00267311
0.00267545
0.00267544
0.00267545
0.00267544
0.00267311
0.00267544
0.00267544
0.00267311
0.00266788
0.00263318
0.00266544
0.00266543
0.00263549
0.00263549
0.00266788
0.00263318
0.00266543
0.00266544
0.00263549
0.00263548
0.00266544
0.00263549
0.00263549
0.00266789
0.00263318
0.00266544
0.00263549
0.00263549
0.00263318
0.00262798
0.00259349
0.00262554
0.00262554
0.00259578
0.00259578
0.00262798
0.00259349
0.00262554
0.00262554
0.00259578
0.00259577
0.00262554
0.00259578
0.00259577
0.00262798
0.00259348
0.00262554
0.00259577
0.00259577
0.00259348
0.00258831
0.00255402
0.00258588
0.00258588
0.00255629
0.00255629
0.00258831
0.00255402
0.00258588
0.00258588
0.00255629
0.00255629
0.00258588
0.00255629
0.00255629
0.00258831
0.00255402
0.00258588
0.00255629
0.00255629
0.00255402
0.00254887
0.00251477
0.00254645
0.00254646
0.00251703
0.00251703
0.00254887
0.00251477
0.00254645
0.00254645
0.00251703
0.00251703
0.00254645
0.00251703
0.00251703
0.00254887
0.00251477
0.00254645
0.00251703
0.00251703
0.00251477
0.00250965
0.00247573
0.00250725
0.00250725
0.00247798
0.00247798
0.00250965
0.00247573
0.00250725
0.00250725
0.00247798
0.00247798
0.00250725
0.00247798
0.00247798
0.00250965
0.00247573
0.00250725
0.00247798
0.00247798
0.00247573
0.00247063
0.0024369
0.00246825
0.00246825
0.00243913
0.00243913
0.00247063
0.0024369
0.00246825
0.00246825
0.00243913
0.00243913
0.00246825
0.00243913
0.00243913
0.00247063
0.0024369
0.00246825
0.00243913
0.00243913
0.0024369
0.00243182
0.00239825
0.00242945
0.00242945
0.00240048
0.00240048
0.00243181
0.00239825
0.00242945
0.00242945
0.00240048
0.00240048
0.00242945
0.00240048
0.00240048
0.00243182
0.00239825
0.00242945
0.00240048
0.00240048
0.00239825
0.00239319
0.0023598
0.00239085
0.00239085
0.00236202
0.00236202
0.00239319
0.0023598
0.00239085
0.00239085
0.00236202
0.00236202
0.00239085
0.00236202
0.00236202
0.00239319
0.0023598
0.00239085
0.00236202
0.00236202
0.0023598
0.00235476
0.00232152
0.00235243
0.00235243
0.00232374
0.00232374
0.00235476
0.00232153
0.00235243
0.00235243
0.00232374
0.00232374
0.00235243
0.00232374
0.00232374
0.00235476
0.00232153
0.00235243
0.00232374
0.00232374
0.00232152
0.0023165
0.00228343
0.0023142
0.00231419
0.00228563
0.00228563
0.0023165
0.00228343
0.0023142
0.0023142
0.00228563
0.00228563
0.0023142
0.00228563
0.00228563
0.0023165
0.00228343
0.0023142
0.00228563
0.00228563
0.00228343
0.00227842
0.0022455
0.00227613
0.00227613
0.0022477
0.0022477
0.00227842
0.0022455
0.00227613
0.00227613
0.0022477
0.0022477
0.00227613
0.0022477
0.0022477
0.00227842
0.0022455
0.00227613
0.0022477
0.0022477
0.0022455
0.00224051
0.00220773
0.00223824
0.00223824
0.00220993
0.00220993
0.0022405
0.00220774
0.00223824
0.00223824
0.00220993
0.00220993
0.00223824
0.00220993
0.00220994
0.00224051
0.00220773
0.00223824
0.00220993
0.00220994
0.00220774
0.00220276
0.00217013
0.00220052
0.00220052
0.00217232
0.00217232
0.00220276
0.00217013
0.00220052
0.00220052
0.00217232
0.00217232
0.00220052
0.00217232
0.00217232
0.00220276
0.00217013
0.00220052
0.00217232
0.00217232
0.00217013
0.00216517
0.00213267
0.00216294
0.00216294
0.00213486
0.00213486
0.00216517
0.00213267
0.00216294
0.00216295
0.00213486
0.00213486
0.00216294
0.00213486
0.00213486
0.00216517
0.00213267
0.00216294
0.00213486
0.00213486
0.00213267
0.00212773
0.00209537
0.00212552
0.00212552
0.00209755
0.00209755
0.00212772
0.00209537
0.00212552
0.00212552
0.00209755
0.00209755
0.00212552
0.00209755
0.00209755
0.00212773
0.00209537
0.00212552
0.00209755
0.00209755
0.00209537
0.00209043
0.0020582
0.00208825
0.00208825
0.00206038
0.00206038
0.00209043
0.0020582
0.00208825
0.00208825
0.00206038
0.00206038
0.00208825
0.00206038
0.00206038
0.00209043
0.0020582
0.00208825
0.00206038
0.00206038
0.0020582
0.00205328
0.00202117
0.00205111
0.00205111
0.00202334
0.00202334
0.00205328
0.00202117
0.00205111
0.00205111
0.00202334
0.00202334
0.00205111
0.00202334
0.00202334
0.00205328
0.00202117
0.00205111
0.00202334
0.00202334
0.00202117
0.00201626
0.00198427
0.0020141
0.0020141
0.00198643
0.00198643
0.00201626
0.00198427
0.0020141
0.0020141
0.00198643
0.00198643
0.0020141
0.00198643
0.00198643
0.00201626
0.00198427
0.0020141
0.00198643
0.00198643
0.00198427
0.00197937
0.00194749
0.00197723
0.00197723
0.00194965
0.00194965
0.00197937
0.00194749
0.00197723
0.00197723
0.00194965
0.00194965
0.00197723
0.00194965
0.00194965
0.00197937
0.00194749
0.00197723
0.00194965
0.00194965
0.00194749
0.00194261
0.00191084
0.00194047
0.00194047
0.00191298
0.00191298
0.00194261
0.00191084
0.00194047
0.00194047
0.00191298
0.00191298
0.00194047
0.00191298
0.00191298
0.00194261
0.00191084
0.00194047
0.00191298
0.00191298
0.00191084
0.00190596
0.00187429
0.00190384
0.00190384
0.00187643
0.00187643
0.00190596
0.00187429
0.00190384
0.00190384
0.00187643
0.00187643
0.00190384
0.00187643
0.00187643
0.00190596
0.00187429
0.00190384
0.00187643
0.00187643
0.00187429
0.00186942
0.00183785
0.00186731
0.00186731
0.00183998
0.00183998
0.00186942
0.00183785
0.00186731
0.00186731
0.00183998
0.00183998
0.00186731
0.00183998
0.00183998
0.00186942
0.00183785
0.00186731
0.00183998
0.00183998
0.00183785
0.001833
0.0018015
0.00183089
0.00183089
0.00180363
0.00180363
0.001833
0.0018015
0.00183089
0.00183089
0.00180363
0.00180363
0.00183089
0.00180363
0.00180363
0.001833
0.0018015
0.00183089
0.00180363
0.00180363
0.0018015
0.00179665
0.00176529
0.00179456
0.00179455
0.0017674
0.0017674
0.00179665
0.00176529
0.00179455
0.00179455
0.0017674
0.0017674
0.00179455
0.0017674
0.0017674
0.00179665
0.00176529
0.00179455
0.0017674
0.0017674
0.00176529
0.00176044
0.00172907
0.00175835
0.00175835
0.00173119
0.00173119
0.00176045
0.00172907
0.00175835
0.00175835
0.00173119
0.00173119
0.00175835
0.00173119
0.00173119
0.00176045
0.00172907
0.00175835
0.00173119
0.00173119
0.00172907
0.00172424
0.00169311
0.00172216
0.00172216
0.0016952
0.00169519
0.00172424
0.00169311
0.00172216
0.00172216
0.0016952
0.00169519
0.00172216
0.00169519
0.00169519
0.00172424
0.0016931
0.00172216
0.00169519
0.00169519
0.00169311
0.00168827
0.0016862
0.0016862
0.00168828
0.0016862
0.0016862
0.0016862
0.00168827
0.0016862
0.00267549
0.00267549
0.00267549
0.00267549
0.00265285
0.00266773
0.00266781
0.00265277
0.0026677
0.00265274
0.00265285
0.00266773
0.00266781
0.00265277
0.00266548
0.00266548
0.00266548
0.00263554
0.00263554
0.00263554
0.00263554
0.00265312
0.0026678
0.00266546
0.00265544
0.00266792
0.00265294
0.00265547
0.0026677
0.00265274
0.00265312
0.00266547
0.0026678
0.00265545
0.00266793
0.00265547
0.00265294
0.00266778
0.00266778
0.00265312
0.00265281
0.00265281
0.00261303
0.00262782
0.00262789
0.00261295
0.0026278
0.00261293
0.00261303
0.00262782
0.00262789
0.00261295
0.00262559
0.00262559
0.00262559
0.00259583
0.00259583
0.00259583
0.00259583
0.00261328
0.00262788
0.00262557
0.0026156
0.002628
0.00261311
0.00261563
0.0026278
0.00261293
0.00261328
0.00262557
0.00262788
0.00261561
0.00262799
0.00261563
0.00261311
0.00262787
0.00262787
0.00261331
0.00261299
0.00261299
0.00257344
0.00258815
0.00258822
0.00257337
0.00258813
0.00257335
0.00257344
0.00258815
0.00258822
0.00257337
0.00258594
0.00258594
0.00258594
0.00255635
0.00255635
0.00255635
0.00255635
0.00257367
0.0025882
0.0025859
0.002576
0.00258831
0.00257351
0.00257602
0.00258813
0.00257335
0.00257367
0.0025859
0.0025882
0.002576
0.00258831
0.00257602
0.00257352
0.0025882
0.0025882
0.00257372
0.00257341
0.00257341
0.00253408
0.00254871
0.00254878
0.00253401
0.00254869
0.00253399
0.00253408
0.00254871
0.00254878
0.00253401
0.00254651
0.00254651
0.00254651
0.00251709
0.00251709
0.00251709
0.00251709
0.0025343
0.00254875
0.00254647
0.00253663
0.00254885
0.00253415
0.00253664
0.00254869
0.00253399
0.0025343
0.00254647
0.00254875
0.00253663
0.00254885
0.00253664
0.00253415
0.00254875
0.00254875
0.00253437
0.00253405
0.00253405
0.00249493
0.00250949
0.00250955
0.00249486
0.00250947
0.00249485
0.00249493
0.00250949
0.00250955
0.00249486
0.0025073
0.0025073
0.0025073
0.00247803
0.00247803
0.00247803
0.00247803
0.00249514
0.00250952
0.00250726
0.00249748
0.00250961
0.00249499
0.00249748
0.00250947
0.00249485
0.00249514
0.00250725
0.00250952
0.00249748
0.00250961
0.00249748
0.00249499
0.00250952
0.00250952
0.00249522
0.0024949
0.0024949
0.00245599
0.00247047
0.00247053
0.00245592
0.00247046
0.00245591
0.00245599
0.00247047
0.00247053
0.00245592
0.0024683
0.0024683
0.0024683
0.00243918
0.00243918
0.00243918
0.00243918
0.00245618
0.0024705
0.00246825
0.00245853
0.00247058
0.00245604
0.00245853
0.00247046
0.00245591
0.00245618
0.00246825
0.0024705
0.00245853
0.00247058
0.00245853
0.00245604
0.00247051
0.00247051
0.00245629
0.00245595
0.00245595
0.00241725
0.00243166
0.00243171
0.00241718
0.00243164
0.00241717
0.00241725
0.00243166
0.00243171
0.00241718
0.0024295
0.0024295
0.0024295
0.00240052
0.00240052
0.00240052
0.00240052
0.00241743
0.00243168
0.00242945
0.00241978
0.00243175
0.0024173
0.00241978
0.00243164
0.00241717
0.00241743
0.00242945
0.00243168
0.00241978
0.00243175
0.00241978
0.0024173
0.00243169
0.00243169
0.00241755
0.00241721
0.00241721
0.00237869
0.00239304
0.00239309
0.00237863
0.00239302
0.00237862
0.00237869
0.00239304
0.00239309
0.00237863
0.00239089
0.00239089
0.00239089
0.00236206
0.00236206
0.00236206
0.00236206
0.00237887
0.00239306
0.00239085
0.00238122
0.00239312
0.00237874
0.00238123
0.00239302
0.00237862
0.00237887
0.00239085
0.00239306
0.00238122
0.00239312
0.00238123
0.00237874
0.00239307
0.00239307
0.002379
0.00237866
0.00237866
0.00234033
0.0023546
0.00235465
0.00234027
0.00235459
0.00234026
0.00234033
0.0023546
0.00235465
0.00234027
0.00235247
0.00235247
0.00235247
0.00232377
0.00232377
0.00232377
0.00232377
0.00234049
0.00235462
0.00235244
0.00234286
0.00235468
0.00234037
0.00234286
0.00235459
0.00234026
0.00234049
0.00235244
0.00235462
0.00234285
0.00235468
0.00234286
0.00234037
0.00235463
0.00235463
0.00234064
0.00234029
0.00234029
0.00230214
0.00231635
0.0023164
0.00230208
0.00231634
0.00230208
0.00230214
0.00231635
0.0023164
0.00230208
0.00231423
0.00231423
0.00231423
0.00228567
0.00228567
0.00228567
0.00228567
0.0023023
0.00231637
0.0023142
0.00230466
0.00231642
0.00230219
0.00230467
0.00231634
0.00230208
0.0023023
0.0023142
0.00231637
0.00230466
0.00231642
0.00230467
0.00230219
0.00231638
0.00231638
0.00230245
0.00230211
0.00230211
0.00226412
0.00227828
0.00227832
0.00226407
0.00227827
0.00226407
0.00226412
0.00227828
0.00227832
0.00226407
0.00227617
0.00227617
0.00227617
0.00224773
0.00224773
0.00224773
0.00224773
0.00226428
0.00227829
0.00227614
0.00226665
0.00227834
0.00226417
0.00226666
0.00227827
0.00226407
0.00226428
0.00227614
0.00227829
0.00226665
0.00227834
0.00226666
0.00226417
0.00227831
0.00227831
0.00226444
0.00226409
0.00226409
0.00222628
0.00224037
0.00224041
0.00222623
0.00224037
0.00222623
0.00222628
0.00224037
0.00224041
0.00222623
0.00223827
0.00223827
0.00223827
0.00220995
0.00220995
0.00220995
0.00220995
0.00222643
0.00224038
0.00223826
0.0022288
0.00224043
0.00222633
0.00222881
0.00224037
0.00222622
0.00222643
0.00223826
0.00224038
0.0022288
0.00224043
0.00222881
0.00222633
0.0022404
0.0022404
0.0022266
0.00222625
0.00222625
0.00218859
0.00220263
0.00220267
0.00218854
0.00220262
0.00218854
0.00218859
0.00220263
0.00220267
0.00218855
0.00220054
0.00220054
0.00220054
0.00217234
0.00217234
0.00217234
0.00217234
0.00218875
0.00220264
0.00220053
0.00219111
0.00220268
0.00218864
0.00219113
0.00220262
0.00218854
0.00218875
0.00220053
0.00220264
0.00219111
0.00220268
0.00219113
0.00218864
0.00220266
0.00220266
0.00218891
0.00218857
0.00218857
0.00215106
0.00216504
0.00216508
0.00215102
0.00216504
0.00215102
0.00215106
0.00216504
0.00216508
0.00215102
0.00216296
0.00216296
0.00216296
0.00213488
0.00213488
0.00213488
0.00213488
0.00215121
0.00216505
0.00216297
0.00215358
0.00216509
0.00215111
0.0021536
0.00216504
0.00215102
0.00215121
0.00216297
0.00216505
0.00215358
0.00216509
0.0021536
0.00215111
0.00216507
0.00216507
0.00215138
0.00215104
0.00215104
0.00211368
0.00212761
0.00212765
0.00211364
0.00212761
0.00211364
0.00211368
0.00212761
0.00212765
0.00211364
0.00212553
0.00212553
0.00212553
0.00209757
0.00209757
0.00209757
0.00209757
0.00211383
0.00212762
0.00212555
0.00211619
0.00212766
0.00211373
0.00211622
0.00212761
0.00211364
0.00211383
0.00212555
0.00212762
0.00211619
0.00212766
0.00211622
0.00211373
0.00212764
0.00212764
0.002114
0.00211366
0.00211366
0.00207645
0.00209033
0.00209036
0.00207641
0.00209032
0.00207641
0.00207645
0.00209033
0.00209036
0.00207641
0.00208826
0.00208826
0.00208826
0.00206039
0.00206039
0.00206039
0.00206039
0.00207659
0.00209033
0.00208828
0.00207895
0.00209037
0.0020765
0.00207898
0.00209033
0.00207641
0.00207659
0.00208828
0.00209034
0.00207895
0.00209037
0.00207898
0.0020765
0.00209035
0.00209035
0.00207677
0.00207643
0.00207643
0.00203935
0.00205318
0.00205321
0.00203931
0.00205318
0.00203932
0.00203935
0.00205318
0.00205321
0.00203931
0.00205112
0.00205112
0.00205112
0.00202336
0.00202336
0.00202336
0.00202336
0.0020395
0.00205319
0.00205114
0.00204184
0.00205322
0.0020394
0.00204188
0.00205318
0.00203932
0.00203949
0.00205114
0.00205319
0.00204184
0.00205322
0.00204188
0.0020394
0.00205321
0.00205321
0.00203967
0.00203934
0.00203934
0.00200239
0.00201617
0.00201619
0.00200235
0.00201617
0.00200236
0.00200238
0.00201617
0.00201619
0.00200235
0.00201412
0.00201412
0.00201412
0.00198646
0.00198646
0.00198646
0.00198646
0.00200252
0.00201617
0.00201414
0.00200487
0.0020162
0.00200244
0.00200491
0.00201617
0.00200235
0.00200252
0.00201414
0.00201618
0.00200487
0.00201621
0.00200491
0.00200243
0.00201619
0.0020162
0.0020027
0.00200237
0.00200237
0.00196555
0.00197929
0.00197931
0.00196552
0.00197929
0.00196553
0.00196555
0.00197929
0.00197932
0.00196552
0.00197725
0.00197725
0.00197725
0.00194968
0.00194968
0.00194968
0.00194968
0.00196569
0.00197929
0.00197727
0.00196803
0.00197932
0.0019656
0.00196807
0.00197929
0.00196552
0.00196569
0.00197727
0.0019793
0.00196803
0.00197932
0.00196807
0.0019656
0.00197931
0.00197932
0.00196587
0.00196554
0.00196554
0.00192884
0.00194254
0.00194256
0.00192881
0.00194253
0.00192882
0.00192884
0.00194254
0.00194256
0.00192881
0.00194051
0.0019405
0.00194051
0.00191302
0.00191302
0.00191302
0.00191302
0.00192897
0.00194254
0.00194052
0.0019313
0.00194256
0.00192889
0.00193135
0.00194254
0.00192881
0.00192897
0.00194052
0.00194254
0.0019313
0.00194256
0.00193135
0.00192889
0.00194256
0.00194256
0.00192915
0.00192883
0.00192883
0.00189224
0.0019059
0.00190592
0.00189222
0.00190591
0.00189221
0.00189224
0.0019059
0.00190592
0.00189222
0.00190388
0.00190388
0.00190388
0.00187648
0.00187648
0.00187648
0.00187648
0.00189237
0.0019059
0.00190389
0.0018947
0.00190592
0.00189229
0.00189475
0.0019059
0.00189222
0.00189237
0.00190389
0.0019059
0.0018947
0.00190592
0.00189475
0.00189229
0.00190592
0.00190592
0.00189255
0.00189223
0.00189223
0.00185575
0.00186937
0.00186939
0.00185573
0.00186937
0.00185573
0.00185575
0.00186937
0.00186939
0.00185573
0.00186736
0.00186736
0.00186736
0.00184004
0.00184004
0.00184004
0.00184004
0.00185588
0.00186937
0.00186737
0.00185819
0.0018694
0.0018558
0.00185825
0.00186937
0.00185573
0.00185588
0.00186737
0.00186937
0.00185819
0.00186939
0.00185825
0.0018558
0.00186939
0.00186939
0.00185606
0.00185574
0.00185574
0.00181937
0.00183296
0.00183297
0.00181935
0.00183296
0.00181935
0.00181937
0.00183296
0.00183297
0.00181935
0.00183095
0.00183095
0.00183095
0.0018037
0.0018037
0.0018037
0.0018037
0.0018195
0.00183295
0.00183095
0.0018218
0.00183297
0.00181942
0.00182186
0.00183296
0.00181935
0.0018195
0.00183095
0.00183295
0.0018218
0.00183297
0.00182186
0.00181942
0.00183297
0.00183297
0.00181968
0.00181936
0.00181936
0.00178308
0.00179662
0.00179664
0.00178306
0.00179663
0.00178307
0.00178308
0.00179662
0.00179664
0.00178306
0.00179462
0.00179462
0.00179462
0.00176747
0.00176747
0.00176747
0.00176747
0.00178319
0.00179662
0.00179462
0.00178549
0.00179664
0.00178313
0.00178555
0.00179663
0.00178308
0.0017832
0.00179462
0.00179662
0.00178549
0.00179664
0.00178555
0.00178313
0.00179665
0.00179665
0.00178337
0.00178308
0.00178308
0.00174688
0.0017604
0.00176043
0.00174686
0.0017604
0.00174686
0.00174688
0.00176041
0.00176043
0.00174686
0.00175842
0.00175842
0.00175842
0.00173127
0.00173128
0.00173127
0.00173128
0.00174702
0.00176041
0.00175841
0.0017493
0.00176043
0.00174693
0.00174936
0.0017604
0.00174686
0.00174701
0.00175841
0.00176041
0.0017493
0.00176043
0.00174936
0.00174693
0.00176042
0.00176042
0.00174718
0.00174687
0.00174687
0.00171078
0.00172426
0.00172426
0.00171077
0.00172427
0.00171078
0.00171078
0.00172426
0.00172426
0.00171077
0.00172225
0.00172225
0.00172225
0.00169527
0.00169527
0.00169527
0.00169527
0.00171088
0.00172424
0.00172223
0.00171315
0.00172425
0.00171083
0.00171322
0.00172428
0.00171077
0.00171088
0.00172223
0.00172424
0.00171315
0.00172425
0.00171322
0.00171082
0.00172428
0.00172428
0.00171106
0.00171078
0.00171078
0.00168823
0.00168824
0.00168822
0.00168822
0.00168824
0.00168627
0.00168627
0.00168627
0.00168822
0.00168625
0.00168825
0.00168822
0.00168625
0.00168822
0.00168825
0.00168822
0.00168822
0.00267274
0.00267274
0.00267282
0.00267282
0.00267277
0.00267285
0.00267276
0.00267285
0.00267295
0.00267548
0.00267312
0.00267295
0.00267548
0.00267312
0.00267274
0.00267282
0.00267282
0.00267274
0.00267277
0.00267285
0.00267295
0.00267548
0.00267312
0.00267277
0.00267285
0.00267548
0.00267294
0.00267312
0.00267295
0.00267548
0.00267312
0.00267277
0.00267285
0.00267548
0.00267294
0.00267312
0.00267277
0.00267285
0.00267274
0.00267282
0.00267282
0.00267274
0.00267548
0.00267294
0.00267312
0.00267548
0.00267294
0.00267312
0.00267277
0.00267285
0.00267276
0.00267285
0.00267282
0.00267282
0.00267274
0.00267274
0.0026677
0.00265274
0.0026677
0.00265274
0.00266778
0.00266778
0.00265312
0.00265282
0.00265281
0.00263281
0.00264772
0.00263281
0.00264772
0.0026479
0.00263287
0.00263287
0.0026478
0.0026478
0.00265285
0.00266773
0.00266781
0.00265277
0.00265312
0.0026678
0.00266546
0.00265544
0.00266793
0.00265294
0.00265547
0.00265312
0.0026678
0.00266546
0.00265544
0.00266792
0.00265294
0.00265547
0.00264782
0.00263283
0.00264774
0.00263291
0.00264782
0.00263283
0.00264774
0.00263291
0.00264793
0.00264546
0.002633
0.00263552
0.00264781
0.00264549
0.00263316
0.00264793
0.00264546
0.002633
0.00263552
0.00264781
0.00264549
0.00263316
0.00266778
0.00266778
0.00265312
0.00265281
0.00265281
0.0026677
0.00265274
0.00263281
0.00264772
0.00264791
0.00263288
0.00263288
0.0026478
0.0026478
0.00263281
0.00264772
0.00265312
0.0026678
0.00266547
0.00265544
0.00266792
0.00265294
0.00265547
0.00265285
0.00266773
0.00266781
0.00265277
0.00265312
0.00266547
0.0026678
0.00265545
0.00266792
0.00265547
0.00265294
0.00264782
0.00263283
0.00264774
0.00263291
0.00264794
0.00264546
0.002633
0.00263552
0.00264781
0.00264549
0.00263317
0.00264782
0.00263283
0.00264774
0.0026329
0.00264794
0.00264546
0.00263552
0.002633
0.00264548
0.00264781
0.00263317
0.00265285
0.00266773
0.00266781
0.00265277
0.00265311
0.00266547
0.0026678
0.00265545
0.00266792
0.00265547
0.00265294
0.00265285
0.00266773
0.00266781
0.00265277
0.00264794
0.00264546
0.002633
0.00263552
0.00264781
0.00264549
0.00263317
0.00264782
0.00263283
0.00264774
0.00263291
0.00264793
0.00264546
0.00263552
0.002633
0.00264548
0.00264781
0.00263317
0.00264782
0.00263283
0.00264774
0.00263291
0.00266778
0.00266778
0.00265312
0.00265281
0.00265281
0.0026677
0.00265274
0.00263281
0.00264772
0.0026479
0.00263288
0.00263288
0.0026478
0.0026478
0.00263281
0.00264772
0.00265312
0.00266547
0.0026678
0.00265545
0.00266793
0.00265547
0.00265295
0.00265285
0.00266773
0.00266781
0.00265277
0.00265285
0.00266773
0.00266781
0.00265277
0.00264793
0.00264546
0.00263552
0.00263299
0.00264548
0.00264781
0.00263316
0.00264793
0.00264546
0.00263552
0.002633
0.00264548
0.00264781
0.00263316
0.00264782
0.00263283
0.00264774
0.0026329
0.00264782
0.00263283
0.00264774
0.0026329
0.0026677
0.00265274
0.0026677
0.00265274
0.0026479
0.00263288
0.00263288
0.0026478
0.0026478
0.00263281
0.00264772
0.00263281
0.00264772
0.0026278
0.00261293
0.0026278
0.00261293
0.00262787
0.00262787
0.0026133
0.00261299
0.00261299
0.00259311
0.00260793
0.00259311
0.00260793
0.00260812
0.00259317
0.00259317
0.00260801
0.00260801
0.00261303
0.00262782
0.00262789
0.00261295
0.00261328
0.00262788
0.00262557
0.0026156
0.002628
0.00261311
0.00261563
0.00261328
0.00262788
0.00262557
0.0026156
0.002628
0.00261311
0.00261563
0.00260803
0.00259313
0.00260796
0.00259321
0.00260803
0.00259313
0.00260796
0.00259321
0.00260812
0.00260568
0.00259329
0.0025958
0.00260801
0.0026057
0.00259345
0.00260812
0.00260568
0.00259329
0.0025958
0.00260801
0.0026057
0.00259345
0.00262787
0.00262787
0.0026133
0.00261299
0.00261299
0.0026278
0.00261293
0.00259311
0.00260793
0.00260812
0.00259317
0.00259317
0.00260801
0.002608
0.00259311
0.00260794
0.00261328
0.00262788
0.00262557
0.0026156
0.002628
0.00261311
0.00261563
0.00261303
0.00262782
0.00262789
0.00261295
0.00261328
0.00262557
0.00262788
0.00261561
0.00262799
0.00261563
0.00261311
0.00260803
0.00259313
0.00260796
0.00259321
0.00260812
0.00260568
0.00259329
0.0025958
0.00260801
0.00260571
0.00259345
0.00260803
0.00259313
0.00260796
0.00259321
0.00260812
0.00260568
0.0025958
0.00259328
0.00260571
0.00260801
0.00259345
0.00261303
0.00262782
0.00262789
0.00261295
0.00261328
0.00262557
0.00262788
0.00261561
0.002628
0.00261563
0.00261311
0.00261303
0.00262782
0.00262789
0.00261295
0.00260812
0.00260568
0.00259329
0.0025958
0.00260801
0.00260571
0.00259345
0.00260803
0.00259313
0.00260796
0.00259321
0.00260812
0.00260568
0.0025958
0.00259329
0.00260571
0.00260801
0.00259345
0.00260803
0.00259313
0.00260796
0.00259321
0.00262787
0.00262787
0.00261331
0.00261299
0.00261299
0.0026278
0.00261293
0.00259311
0.00260793
0.00260812
0.00259317
0.00259317
0.002608
0.002608
0.00259311
0.00260793
0.00261328
0.00262557
0.00262788
0.00261561
0.00262799
0.00261563
0.00261311
0.00261303
0.00262782
0.00262789
0.00261295
0.00261303
0.00262782
0.00262789
0.00261295
0.00260812
0.00260568
0.00259579
0.00259328
0.0026057
0.00260801
0.00259345
0.00260812
0.00260568
0.00259579
0.00259328
0.0026057
0.00260801
0.00259345
0.00260803
0.00259313
0.00260796
0.00259321
0.00260803
0.00259313
0.00260796
0.00259321
0.0026278
0.00261293
0.0026278
0.00261293
0.00260812
0.00259317
0.00259317
0.002608
0.00260801
0.00259311
0.00260793
0.00259311
0.00260793
0.00258813
0.00257335
0.00258813
0.00257335
0.0025882
0.0025882
0.00257372
0.00257341
0.00257341
0.00255364
0.00256838
0.00255364
0.00256838
0.00256856
0.0025537
0.0025537
0.00256845
0.00256845
0.00257344
0.00258815
0.00258822
0.00257337
0.00257367
0.0025882
0.0025859
0.002576
0.00258831
0.00257352
0.00257602
0.00257367
0.0025882
0.0025859
0.002576
0.00258831
0.00257351
0.00257602
0.00256847
0.00255366
0.0025684
0.00255373
0.00256847
0.00255366
0.0025684
0.00255373
0.00256855
0.00256614
0.0025538
0.00255631
0.00256845
0.00256616
0.00255396
0.00256855
0.00256614
0.0025538
0.00255631
0.00256845
0.00256616
0.00255396
0.0025882
0.0025882
0.00257372
0.00257341
0.00257341
0.00258813
0.00257335
0.00255364
0.00256838
0.00256856
0.0025537
0.0025537
0.00256845
0.00256845
0.00255364
0.00256838
0.00257368
0.0025882
0.0025859
0.002576
0.00258831
0.00257352
0.00257602
0.00257344
0.00258815
0.00258822
0.00257337
0.00257367
0.0025859
0.0025882
0.002576
0.00258831
0.00257602
0.00257352
0.00256847
0.00255366
0.0025684
0.00255373
0.00256855
0.00256614
0.0025538
0.00255631
0.00256845
0.00256616
0.00255396
0.00256847
0.00255366
0.0025684
0.00255373
0.00256855
0.00256614
0.00255631
0.0025538
0.00256616
0.00256845
0.00255396
0.00257344
0.00258815
0.00258822
0.00257337
0.00257367
0.0025859
0.0025882
0.002576
0.00258831
0.00257602
0.00257352
0.00257344
0.00258815
0.00258822
0.00257337
0.00256855
0.00256614
0.0025538
0.00255631
0.00256845
0.00256616
0.00255396
0.00256847
0.00255366
0.0025684
0.00255373
0.00256855
0.00256614
0.00255631
0.0025538
0.00256616
0.00256845
0.00255396
0.00256847
0.00255366
0.0025684
0.00255373
0.0025882
0.0025882
0.00257373
0.00257341
0.00257341
0.00258813
0.00257335
0.00255364
0.00256838
0.00256857
0.0025537
0.0025537
0.00256845
0.00256845
0.00255364
0.00256838
0.00257367
0.0025859
0.0025882
0.002576
0.00258831
0.00257602
0.00257352
0.00257344
0.00258815
0.00258822
0.00257337
0.00257344
0.00258815
0.00258822
0.00257337
0.00256855
0.00256614
0.00255631
0.0025538
0.00256616
0.00256845
0.00255396
0.00256855
0.00256614
0.00255631
0.0025538
0.00256616
0.00256845
0.00255396
0.00256847
0.00255366
0.00256841
0.00255373
0.00256847
0.00255366
0.00256841
0.00255373
0.00258813
0.00257335
0.00258813
0.00257335
0.00256857
0.0025537
0.0025537
0.00256845
0.00256845
0.00255364
0.00256838
0.00255364
0.00256838
0.00254869
0.00253399
0.00254869
0.00253399
0.00254875
0.00254875
0.00253437
0.00253405
0.00253405
0.00251439
0.00252905
0.00251439
0.00252905
0.00252923
0.00251444
0.00251444
0.00252911
0.00252911
0.00253408
0.00254871
0.00254878
0.00253401
0.0025343
0.00254875
0.00254647
0.00253663
0.00254885
0.00253415
0.00253664
0.0025343
0.00254875
0.00254647
0.00253663
0.00254885
0.00253415
0.00253664
0.00252913
0.00251441
0.00252907
0.00251448
0.00252913
0.00251441
0.00252907
0.00251448
0.0025292
0.00252682
0.00251454
0.00251704
0.00252911
0.00252683
0.00251469
0.0025292
0.00252682
0.00251454
0.00251704
0.00252911
0.00252683
0.00251469
0.00254875
0.00254875
0.00253437
0.00253405
0.00253405
0.00254869
0.00253399
0.00251439
0.00252905
0.00252923
0.00251444
0.00251444
0.00252911
0.00252911
0.00251439
0.00252905
0.0025343
0.00254875
0.00254647
0.00253663
0.00254885
0.00253415
0.00253664
0.00253408
0.00254871
0.00254878
0.00253401
0.0025343
0.00254647
0.00254875
0.00253663
0.00254885
0.00253664
0.00253415
0.00252913
0.00251441
0.00252907
0.00251448
0.0025292
0.00252682
0.00251454
0.00251704
0.00252911
0.00252683
0.00251469
0.00252913
0.00251441
0.00252907
0.00251448
0.0025292
0.00252682
0.00251704
0.00251454
0.00252683
0.00252911
0.00251469
0.00253408
0.00254871
0.00254878
0.00253401
0.0025343
0.00254647
0.00254875
0.00253663
0.00254885
0.00253664
0.00253415
0.00253408
0.00254871
0.00254878
0.00253401
0.0025292
0.00252682
0.00251454
0.00251704
0.00252911
0.00252683
0.00251469
0.00252913
0.00251441
0.00252907
0.00251448
0.0025292
0.00252682
0.00251704
0.00251454
0.00252683
0.00252911
0.00251469
0.00252913
0.00251441
0.00252907
0.00251448
0.00254875
0.00254875
0.00253437
0.00253404
0.00253404
0.00254869
0.00253399
0.00251439
0.00252905
0.00252923
0.00251444
0.00251444
0.00252911
0.00252911
0.00251439
0.00252905
0.0025343
0.00254647
0.00254875
0.00253663
0.00254885
0.00253664
0.00253414
0.00253408
0.00254871
0.00254878
0.00253401
0.00253408
0.00254871
0.00254878
0.00253401
0.0025292
0.00252682
0.00251704
0.00251454
0.00252683
0.00252911
0.00251469
0.0025292
0.00252682
0.00251704
0.00251454
0.00252683
0.00252911
0.00251469
0.00252913
0.00251441
0.00252907
0.00251448
0.00252913
0.00251441
0.00252907
0.00251448
0.00254869
0.00253399
0.00254869
0.00253399
0.00252923
0.00251444
0.00251444
0.00252911
0.00252911
0.00251439
0.00252905
0.00251439
0.00252905
0.00250947
0.00249485
0.00250947
0.00249485
0.00250952
0.00250952
0.00249523
0.0024949
0.0024949
0.00247535
0.00248994
0.00247536
0.00248994
0.00249011
0.0024754
0.0024754
0.00248999
0.00248999
0.00249493
0.00250949
0.00250955
0.00249486
0.00249514
0.00250952
0.00250725
0.00249748
0.00250961
0.00249499
0.00249748
0.00249514
0.00250952
0.00250726
0.00249748
0.00250961
0.00249499
0.00249748
0.00249001
0.00247537
0.00248995
0.00247544
0.00249001
0.00247537
0.00248995
0.00247544
0.00249007
0.00248772
0.00247549
0.00247798
0.00248998
0.00248773
0.00247563
0.00249007
0.00248772
0.00247549
0.00247798
0.00248998
0.00248773
0.00247563
0.00250952
0.00250952
0.00249523
0.0024949
0.0024949
0.00250947
0.00249485
0.00247535
0.00248994
0.00249011
0.0024754
0.0024754