/*--------------------------------*- C++ -*----------------------------------*\
| =========                 |                                                 |
| \\      /  F ield         | OpenFOAM: The Open Source CFD Toolbox           |
|  \\    /   O peration     | Version:  v1906                                 |
|   \\  /    A nd           | Web:      www.OpenFOAM.com                      |
|    \\/     M anipulation  |                                                 |
\*---------------------------------------------------------------------------*/
FoamFile
{
    version     2.0;
    format      ascii;
    class       surfaceScalarField;
    location    "250";
    object      phi;
}
// * * * * * * * * * * * * * * * * * * * * * * * * * * * * * * * * * * * * * //

dimensions      [0 3 -1 0 0 0 0];
oriented        oriented;


internalField   nonuniform List<scalar> 
124908
(
1.56455e-09
1.53781e-09
-0.00117895
-1.38568e-09
-1.53705e-09
0.00117895
-0.00113478
-1.20648e-06
-1.49033e-09
3.57551e-09
0.00113478
-2.21354e-07
1.20815e-06
2.19702e-07
8.55932e-07
-2.04762e-07
-8.55257e-07
2.02396e-07
-0.00113441
-1.20092e-06
-1.54768e-09
3.51203e-09
0.00113441
-2.21316e-07
1.20263e-06
2.19743e-07
8.55756e-07
-2.07411e-07
-8.55137e-07
2.05084e-07
-0.000271075
1.23536e-06
1.20101e-06
-2.1177e-07
-2.17043e-07
0.000269068
9.05809e-10
1.1112e-09
-0.00117895
-9.94454e-10
-1.05097e-09
0.00117895
-0.00113478
-1.2065e-06
-1.43382e-09
3.22869e-09
0.00113478
-2.21304e-07
1.20814e-06
2.19741e-07
8.55725e-07
-2.04815e-07
-8.55447e-07
2.02303e-07
-0.00113441
-1.20098e-06
-1.21278e-09
3.2803e-09
0.00113441
-2.21297e-07
1.20257e-06
2.19745e-07
8.55534e-07
-2.07472e-07
-8.55339e-07
2.0498e-07
-0.000271075
1.23541e-06
1.20106e-06
-2.11801e-07
-2.17077e-07
0.000269067
2.98197e-10
5.53661e-10
-0.00117895
-6.32886e-10
-5.63964e-10
0.00117895
-0.00113478
-1.20656e-06
-6.89098e-10
3.29915e-09
0.00113478
-2.21385e-07
1.20809e-06
2.19677e-07
8.55607e-07
-2.04929e-07
-8.55561e-07
2.02269e-07
-0.00113441
-1.20102e-06
-7.00899e-10
3.31688e-09
0.00113441
-2.21378e-07
1.20253e-06
2.19691e-07
8.55428e-07
-2.07597e-07
-8.5545e-07
2.04945e-07
-0.000271075
1.23552e-06
1.20123e-06
-2.11951e-07
-2.17191e-07
0.000269068
-1.36665e-11
-4.42818e-11
-0.00117895
-5.03419e-10
-5.78851e-10
0.00117896
-0.00113478
-1.20671e-06
1.14811e-10
3.76526e-09
0.00113478
-2.21596e-07
1.20799e-06
2.19505e-07
8.55393e-07
-2.05278e-07
-8.55785e-07
2.01907e-07
-0.00113442
-1.20117e-06
-1.47989e-10
3.69256e-09
0.00113442
-2.21567e-07
1.20246e-06
2.19538e-07
8.55226e-07
-2.07908e-07
-8.55653e-07
2.04611e-07
-0.000271075
1.23559e-06
1.20127e-06
-2.12079e-07
-2.17343e-07
0.000269068
2.02972e-10
3.16531e-10
-0.00117896
-6.53495e-10
-7.89145e-10
0.00117896
-0.00113478
-1.2067e-06
-5.12524e-10
3.5705e-09
0.00113478
-2.21473e-07
1.20801e-06
2.19619e-07
8.55537e-07
-2.0512e-07
-8.55706e-07
2.02052e-07
-0.00113442
-1.2012e-06
-1.64425e-10
3.7604e-09
0.00113442
-2.21505e-07
1.20241e-06
2.19588e-07
8.55337e-07
-2.07793e-07
-8.55612e-07
2.04718e-07
-0.000271076
1.23561e-06
1.20123e-06
-2.12008e-07
-2.17305e-07
0.000269068
9.00948e-10
1.00262e-09
-0.00117896
-9.33582e-10
-9.09234e-10
0.00117896
-0.00113479
-1.20655e-06
-1.1743e-09
3.33527e-09
0.00113479
-2.21366e-07
1.20815e-06
2.19732e-07
8.55788e-07
-2.04838e-07
-8.55445e-07
2.02372e-07
-0.00113442
-1.20105e-06
-1.25696e-09
3.40102e-09
0.00113442
-2.21393e-07
1.20255e-06
2.19712e-07
8.55607e-07
-2.07495e-07
-8.55327e-07
2.05052e-07
-0.000271076
1.23548e-06
1.20118e-06
-2.1188e-07
-2.17127e-07
0.000269069
2.27646e-09
2.53589e-09
-0.00117896
-1.70282e-09
-1.58875e-09
0.00117896
-0.00113478
-1.20615e-06
-2.33515e-09
2.53692e-09
0.00113478
-2.20975e-07
1.20851e-06
2.20104e-07
8.56192e-07
-2.04379e-07
-8.54982e-07
2.02812e-07
-0.00113442
-1.20059e-06
-2.36359e-09
2.5265e-09
0.00113442
-2.2096e-07
1.20297e-06
2.20115e-07
8.55978e-07
-2.07096e-07
-8.54909e-07
2.05445e-07
-0.000271076
1.23506e-06
1.20075e-06
-2.11446e-07
-2.16714e-07
0.000269068
3.14749e-09
3.42725e-09
-0.00117895
-2.55913e-09
-2.27363e-09
0.00117895
-0.00113478
-1.206e-06
-3.63316e-09
2.23473e-09
0.00113478
-2.20891e-07
1.20862e-06
2.20135e-07
8.56189e-07
-2.04355e-07
-8.54917e-07
2.02769e-07
-0.00113441
-1.20047e-06
-3.86329e-09
2.10601e-09
0.00113441
-2.2088e-07
1.20307e-06
2.20156e-07
8.5607e-07
-2.06976e-07
-8.54751e-07
2.05487e-07
-0.000271075
1.23492e-06
1.20062e-06
-2.11407e-07
-2.16641e-07
0.000269068
2.60837e-09
2.56692e-09
-0.00117895
-2.18346e-09
-2.45519e-09
0.00117895
-0.00113478
-1.2063e-06
-2.70653e-09
2.52487e-09
0.00113478
-2.21131e-07
1.20839e-06
2.19931e-07
8.5597e-07
-2.04643e-07
-8.55154e-07
2.02452e-07
-0.00113441
-1.20081e-06
-2.64502e-09
2.71099e-09
0.00113441
-2.21136e-07
1.20279e-06
2.19931e-07
8.55811e-07
-2.07289e-07
-8.55028e-07
2.05141e-07
-0.000271075
1.23524e-06
1.2009e-06
-2.11687e-07
-2.16957e-07
0.000269068
1.76286e-09
1.87788e-09
-0.00117895
-1.53504e-09
-1.67734e-09
0.00117895
-0.00113478
-1.20641e-06
-1.93237e-09
2.8755e-09
0.00113478
-2.21175e-07
1.20824e-06
2.19864e-07
8.55861e-07
-2.04616e-07
-8.55261e-07
2.02448e-07
-0.00113441
-1.20082e-06
-1.77756e-09
2.76026e-09
0.00113441
-2.21135e-07
1.20272e-06
2.19907e-07
8.55689e-07
-2.07231e-07
-8.55143e-07
2.05181e-07
-0.000271076
1.23532e-06
1.20097e-06
-2.11732e-07
-2.16978e-07
0.000269068
1.33007e-09
1.451e-09
-0.00117895
-1.27813e-09
-1.30118e-09
0.00117895
-0.00113478
-1.20641e-06
-1.41892e-09
2.95443e-09
0.00113478
-2.21258e-07
1.20825e-06
2.19791e-07
8.55665e-07
-2.04759e-07
-8.55421e-07
2.0233e-07
-0.00113441
-1.20094e-06
-1.48026e-09
3.08839e-09
0.00113441
-2.2131e-07
1.20264e-06
2.19754e-07
8.55505e-07
-2.07484e-07
-8.55291e-07
2.04941e-07
-0.000271076
1.23532e-06
1.20105e-06
-2.11804e-07
-2.17046e-07
0.000269068
1.16502e-09
1.33952e-09
-0.00117895
-1.08028e-09
-1.08394e-09
0.00117895
-0.00113478
-1.20653e-06
-1.36756e-09
3.16311e-09
0.00113478
-2.21326e-07
1.20812e-06
2.19681e-07
8.55601e-07
-2.04859e-07
-8.55385e-07
2.02097e-07
-0.00113441
-1.20098e-06
-1.42697e-09
3.0298e-09
0.00113441
-2.21299e-07
1.20257e-06
2.197e-07
8.55433e-07
-2.07454e-07
-8.55268e-07
2.04821e-07
-0.000271075
1.23545e-06
1.20112e-06
-2.11891e-07
-2.17121e-07
0.000269068
1.24666e-09
1.57751e-09
-0.00117895
-1.17217e-09
-9.39154e-10
0.00117895
-0.00113478
-1.20653e-06
-1.63299e-09
3.16658e-09
0.00113478
-2.21288e-07
1.20803e-06
2.19636e-07
8.55645e-07
-2.04628e-07
-8.55238e-07
2.02103e-07
-0.00113442
-1.20099e-06
-1.68946e-09
3.07103e-09
0.00113442
-2.21239e-07
1.20252e-06
2.19688e-07
8.55454e-07
-2.07332e-07
-8.55113e-07
2.04784e-07
-0.000271076
1.23542e-06
1.20111e-06
-2.11819e-07
-2.17076e-07
0.000269068
1.8712e-09
1.96413e-09
-0.00117895
-1.41433e-09
-1.4657e-09
0.00117895
-0.00113478
-1.20635e-06
-1.99236e-09
2.85862e-09
0.00113478
-2.2115e-07
1.20809e-06
2.19615e-07
8.5551e-07
-2.04382e-07
-8.55082e-07
2.01944e-07
-0.00113441
-1.20084e-06
-1.99549e-09
2.94508e-09
0.00113442
-2.21138e-07
1.20252e-06
2.19594e-07
8.55347e-07
-2.07045e-07
-8.54935e-07
2.04599e-07
-0.000271076
1.2353e-06
1.20095e-06
-2.11651e-07
-2.16935e-07
0.000269068
2.38829e-09
2.44163e-09
-0.00117895
-1.77166e-09
-1.88071e-09
0.00117895
-0.00113478
-1.20615e-06
-2.43759e-09
2.2008e-09
0.00113478
-2.20916e-07
1.20808e-06
2.19504e-07
8.551e-07
-2.03902e-07
-8.54779e-07
2.01474e-07
-0.00113441
-1.20062e-06
-2.46391e-09
2.23769e-09
0.00113442
-2.20864e-07
1.20255e-06
2.19543e-07
8.54873e-07
-2.06541e-07
-8.5469e-07
2.04188e-07
-0.000271076
1.23506e-06
1.20076e-06
-2.11395e-07
-2.16638e-07
0.000269068
2.76895e-09
2.95427e-09
-0.00117895
-2.20927e-09
-2.18713e-09
0.00117895
-0.00113478
-1.20588e-06
-2.92419e-09
2.02405e-09
0.00113478
-2.20526e-07
1.20791e-06
2.19197e-07
8.54362e-07
-2.02922e-07
-8.5404e-07
2.00564e-07
-0.00113441
-1.20043e-06
-2.93867e-09
2.10131e-09
0.00113442
-2.20513e-07
1.2023e-06
2.19171e-07
8.54247e-07
-2.05607e-07
-8.53847e-07
2.03207e-07
-0.000271076
1.23486e-06
1.20053e-06
-2.1089e-07
-2.16166e-07
0.000269067
3.10084e-09
3.36275e-09
-0.00117895
-3.26772e-09
-3.15749e-09
0.00117895
-0.00113478
-1.20556e-06
-3.3939e-09
2.21386e-09
0.00113478
-2.19887e-07
1.2071e-06
2.18133e-07
8.52772e-07
-2.01065e-07
-8.52623e-07
1.98138e-07
-0.00113441
-1.20006e-06
-3.37224e-09
2.27826e-09
0.00113442
-2.19893e-07
1.20149e-06
2.18065e-07
8.52636e-07
-2.03665e-07
-8.52491e-07
2.00864e-07
-0.000271076
1.23447e-06
1.20016e-06
-2.09963e-07
-2.15211e-07
0.000269067
3.00176e-09
2.87245e-09
-0.00117895
-5.17389e-09
-5.38325e-09
0.00117896
-0.00113478
-1.20438e-06
-3.02583e-09
2.68604e-09
0.00113478
-2.18108e-07
1.20533e-06
2.15567e-07
8.49114e-07
-1.96711e-07
-8.49769e-07
1.93095e-07
-0.00113441
-1.19884e-06
-3.15112e-09
2.77483e-09
0.00113442
-2.18115e-07
1.19978e-06
2.15567e-07
8.48938e-07
-1.99373e-07
-8.49597e-07
1.95807e-07
-0.000271078
1.23327e-06
1.19894e-06
-2.0726e-07
-2.12514e-07
0.000269066
1.91098e-08
1.96051e-08
-0.00117895
-1.83279e-08
-2.38291e-08
0.00117896
-0.00113478
-1.20142e-06
-1.37598e-08
-4.24797e-09
0.0011348
-2.1339e-07
1.20249e-06
2.13296e-07
8.44955e-07
-1.9011e-07
-8.45904e-07
1.83362e-07
-0.00113442
-1.19311e-06
-1.93716e-08
1.14794e-09
0.00113445
-2.13315e-07
1.19425e-06
2.10552e-07
8.42024e-07
-1.9013e-07
-8.43074e-07
1.86007e-07
-0.000271088
1.23303e-06
1.19595e-06
-1.98209e-07
-2.03433e-07
0.00026906
9.06355e-07
9.13661e-07
-0.00117882
-7.95134e-07
-7.84189e-07
0.00117858
-0.00113508
-1.10849e-06
-9.07565e-07
-3.90979e-07
0.0011355
-1.31746e-07
1.36584e-06
3.01611e-07
9.94731e-07
-9.04165e-08
-7.4256e-07
2.84589e-07
-0.00113473
-1.10009e-06
-9.19116e-07
-4.02601e-07
0.00113518
-1.31575e-07
1.36046e-06
3.04515e-07
9.91738e-07
-9.57918e-08
-7.39653e-07
2.87374e-07
-0.000271172
1.14284e-06
1.10024e-06
-1.11675e-07
-1.1414e-07
0.000269155
5.45173e-06
5.44447e-06
-0.00116554
-1.16561e-05
-1.15496e-05
0.000283922
0.00028577
0.000285684
0.000285685
4.49466e-06
6.7381e-06
7.15905e-06
4.49865e-06
6.73887e-06
7.16264e-06
-0.000281434
5.40951e-06
-5.44163e-06
5.93517e-06
-3.41098e-06
0.000278942
-0.000281409
-5.44399e-06
5.41484e-06
-3.41921e-06
5.9321e-06
0.000278925
-0.000272124
-5.40609e-06
-5.41776e-06
5.74505e-06
5.73306e-06
0.00027147
-1.2426e-06
-1.20557e-06
0.000271093
-0.000269075
2.1101e-07
2.18779e-07
0.00113394
-1.76494e-09
-0.00113394
3.25977e-09
-1.24076e-06
2.2516e-07
-2.26748e-07
-8.55294e-07
2.02329e-07
-2.04705e-07
8.55813e-07
1.24814e-06
0.00113439
-1.4396e-09
-0.00113439
3.50294e-09
-1.24636e-06
2.27943e-07
-2.29587e-07
-8.60943e-07
2.0507e-07
-2.07543e-07
8.61378e-07
-1.20824e-06
0.000271123
-0.000269096
2.13747e-07
2.16055e-07
0.00113505
-1.72547e-09
-0.00113505
2.96001e-09
-1.20365e-06
2.22635e-07
-2.24047e-07
-8.58072e-07
2.05158e-07
-2.07481e-07
8.58641e-07
1.24264e-06
0.00113405
-1.43955e-09
-0.00113405
3.44701e-09
-1.24083e-06
2.27959e-07
-2.29543e-07
-8.5807e-07
2.0505e-07
-2.07479e-07
8.58486e-07
-1.57176e-09
-0.00113478
3.23504e-09
-1.20638e-06
2.19762e-07
-2.21269e-07
-8.55347e-07
2.0241e-07
8.55864e-07
-2.04735e-07
1.23712e-06
0.00113384
-1.54086e-09
-0.00113384
3.3191e-09
-1.23529e-06
2.2239e-07
-2.23936e-07
-8.55365e-07
2.02287e-07
-2.04735e-07
8.55773e-07
-1.20271e-06
0.000271071
-0.000269055
2.11163e-07
2.18599e-07
-1.64371e-09
-0.00113441
3.14697e-09
-1.20084e-06
2.1981e-07
-2.2123e-07
-8.55164e-07
2.05081e-07
8.55754e-07
-2.07399e-07
1.20281e-06
0.00113495
-1.62122e-09
-0.00113495
3.09504e-09
-1.20095e-06
2.19864e-07
-2.21305e-07
-8.55439e-07
2.05122e-07
-2.07475e-07
8.55961e-07
-0.000269068
2.13523e-07
2.18795e-07
1.24084e-06
1.20372e-06
-2.09221e-07
-2.17009e-07
0.000269075
-1.24259e-06
-1.20551e-06
0.000271093
-0.000269074
2.10998e-07
2.1881e-07
3.54615e-09
0.00113394
-2.26813e-07
1.24254e-06
2.25125e-07
8.55847e-07
-2.04747e-07
-8.55233e-07
2.02307e-07
-1.24642e-06
-1.22024e-09
3.68894e-09
0.00113439
-2.29639e-07
1.24809e-06
2.27918e-07
8.61418e-07
-2.07583e-07
-8.60882e-07
2.05048e-07
0.00113394
-9.95689e-10
-0.00113394
3.18764e-09
-1.24079e-06
2.2525e-07
-2.26666e-07
-8.55407e-07
2.02333e-07
-2.04701e-07
8.55662e-07
1.24819e-06
0.00113439
-7.52136e-10
-0.00113439
2.9076e-09
-1.24632e-06
2.28091e-07
-2.29448e-07
-8.61068e-07
2.05058e-07
-2.07551e-07
8.61217e-07
-2.11992e-07
-2.14318e-07
0.000269096
-1.2082e-06
0.000271122
-0.000269096
2.13744e-07
2.16106e-07
3.20332e-09
0.00113505
-2.24111e-07
1.20551e-06
2.22598e-07
8.58691e-07
-2.07515e-07
-8.57996e-07
2.05143e-07
-1.24088e-06
-1.23029e-09
3.63073e-09
0.00113405
-2.29605e-07
1.24258e-06
2.27919e-07
8.58526e-07
-2.07515e-07
-8.58011e-07
2.05031e-07
0.00113505
-1.11966e-09
-0.00113505
2.98403e-09
-1.20372e-06
2.22673e-07
-2.24012e-07
-8.58146e-07
2.05188e-07
-2.07446e-07
8.58532e-07
1.2426e-06
0.00113404
-7.98968e-10
-0.00113404
3.212e-09
-1.24086e-06
2.28012e-07
-2.29493e-07
-8.58168e-07
2.05054e-07
-2.07469e-07
8.58356e-07
-1.44349e-09
3.58934e-09
0.00113384
-2.24002e-07
1.23705e-06
2.22347e-07
8.55824e-07
-2.04772e-07
2.02268e-07
-8.55292e-07
-1.3785e-09
-0.00113478
3.11709e-09
-1.20644e-06
2.19825e-07
-2.21219e-07
-8.55413e-07
2.0243e-07
8.55758e-07
-2.0471e-07
1.23708e-06
0.00113384
-1.19435e-09
-0.00113384
3.20948e-09
-1.23533e-06
2.22454e-07
-2.23872e-07
-8.55425e-07
2.02329e-07
-2.04695e-07
8.55682e-07
-2.09385e-07
-2.16837e-07
0.000269055
-1.20265e-06
0.00027107
-0.000269055
2.11143e-07
2.18592e-07
-1.49668e-09
3.35061e-09
0.00113495
-2.21364e-07
1.20275e-06
2.19823e-07
8.56011e-07
-2.07516e-07
2.05098e-07
-8.5537e-07
-1.21837e-09
-0.00113441
3.11733e-09
-1.2009e-06
2.19847e-07
-2.21199e-07
-8.5525e-07
2.05095e-07
8.55631e-07
-2.07381e-07
1.20279e-06
0.00113494
-1.09181e-09
-0.00113494
2.82571e-09
-1.20097e-06
2.19938e-07
-2.21226e-07
-8.55518e-07
2.05152e-07
-2.07448e-07
8.55852e-07
-0.000269068
2.13538e-07
2.18801e-07
1.24085e-06
1.20381e-06
-2.09274e-07
-2.17016e-07
0.000269074
-1.24242e-06
-1.20534e-06
0.000271093
-0.000269074
2.10825e-07
2.18624e-07
3.35488e-09
0.00113394
-2.26757e-07
1.24252e-06
2.25153e-07
8.55596e-07
-2.04815e-07
-8.55464e-07
2.02192e-07
-1.24638e-06
-7.5546e-10
3.02198e-09
0.00113439
-2.2953e-07
1.24813e-06
2.28008e-07
8.61165e-07
-2.07664e-07
-8.61115e-07
2.04924e-07
0.00113394
-4.28525e-10
-0.00113394
3.81554e-09
-1.24096e-06
2.2501e-07
-2.26923e-07
-8.55547e-07
2.02083e-07
-2.05011e-07
8.55524e-07
1.24803e-06
0.00113439
-4.56465e-10
-0.00113439
3.56948e-09
-1.24649e-06
2.27859e-07
-2.29694e-07
-8.61177e-07
2.04851e-07
-2.07828e-07
8.61116e-07
-2.12022e-07
-2.14303e-07
0.000269096
-1.20812e-06
0.000271123
-0.000269096
2.13632e-07
2.15946e-07
3.17055e-09
0.00113505
-2.24115e-07
1.20542e-06
2.22569e-07
8.58488e-07
-2.07557e-07
-8.5818e-07
2.05054e-07
-1.24094e-06
-8.05945e-10
3.35835e-09
0.00113404
-2.29591e-07
1.24252e-06
2.27911e-07
8.58306e-07
-2.07579e-07
-8.58211e-07
2.04921e-07
0.00113505
-7.11011e-10
-0.00113505
3.6685e-09
-1.2039e-06
2.22455e-07
-2.24256e-07
-8.58278e-07
2.04943e-07
-2.07749e-07
8.58395e-07
1.24248e-06
0.00113404
-5.36427e-10
-0.00113404
3.7182e-09
-1.241e-06
2.27827e-07
-2.29712e-07
-8.58291e-07
2.04827e-07
-2.07759e-07
8.58232e-07
-1.14458e-09
3.46148e-09
0.00113384
-2.23981e-07
1.23699e-06
2.22336e-07
8.55635e-07
-2.04804e-07
2.02195e-07
-8.55467e-07
-9.24257e-10
-0.00113478
3.41006e-09
-1.20654e-06
2.19686e-07
-2.21387e-07
-8.55529e-07
2.02223e-07
8.55647e-07
-2.04982e-07
1.23693e-06
0.00113384
-4.79224e-10
-0.00113384
3.91667e-09
-1.2355e-06
2.22218e-07
-2.24137e-07
-8.55577e-07
2.02076e-07
-2.05004e-07
8.55527e-07
-2.09439e-07
-2.16886e-07
0.000269054
-1.20257e-06
0.00027107
-0.000269055
2.11025e-07
2.18445e-07
-1.0519e-09
3.09048e-09
0.00113494
-2.21343e-07
1.20269e-06
2.19808e-07
8.55815e-07
-2.07553e-07
2.05021e-07
-8.55552e-07
-7.99724e-10
-0.00113441
3.47635e-09
-1.20101e-06
2.19685e-07
-2.21397e-07
-8.55379e-07
2.04856e-07
8.55505e-07
-2.07684e-07
1.20258e-06
0.00113495
-5.32907e-10
-0.00113495
3.75723e-09
-1.2012e-06
2.19644e-07
-2.21547e-07
-8.55642e-07
2.04911e-07
-2.07745e-07
8.55722e-07
-0.000269068
2.13333e-07
2.18635e-07
1.241e-06
1.20393e-06
-2.09393e-07
-2.17165e-07
0.000269074
-1.24224e-06
-1.20521e-06
0.000271093
-0.000269074
2.10637e-07
2.184e-07
3.7074e-09
0.00113394
-2.26934e-07
1.24236e-06
2.24995e-07
8.55484e-07
-2.0495e-07
-8.55579e-07
2.02142e-07
-1.24654e-06
-3.95517e-10
3.57476e-09
0.00113439
-2.29723e-07
1.24796e-06
2.27821e-07
8.61099e-07
-2.07754e-07
-8.61191e-07
2.04923e-07
0.00113394
5.43399e-11
-0.00113394
4.07235e-09
-1.24119e-06
2.24819e-07
-2.2714e-07
-8.55704e-07
2.01869e-07
-2.05167e-07
8.55388e-07
1.24778e-06
0.00113439
2.63041e-11
-0.00113439
4.19981e-09
-1.2468e-06
2.27616e-07
-2.29967e-07
-8.613e-07
2.04651e-07
-2.0796e-07
8.61004e-07
-2.12088e-07
-2.14434e-07
0.000269096
-1.20795e-06
0.000271123
-0.000269096
2.13429e-07
2.15668e-07
3.54463e-09
0.00113505
-2.24256e-07
1.20531e-06
2.2245e-07
8.5835e-07
-2.07703e-07
-8.58315e-07
2.04987e-07
-1.24102e-06
-4.3724e-10
3.60473e-09
0.00113404
-2.297e-07
1.24244e-06
2.27826e-07
8.582e-07
-2.07697e-07
-8.58321e-07
2.04888e-07
0.00113505
5.59124e-11
-0.00113505
3.82209e-09
-1.20408e-06
2.22296e-07
-2.24437e-07
-8.58482e-07
2.04684e-07
-2.07955e-07
8.58213e-07
1.24229e-06
0.00113405
3.66085e-11
-0.00113405
4.05143e-09
-1.24123e-06
2.27641e-07
-2.29907e-07
-8.58449e-07
2.04606e-07
-2.07921e-07
8.58092e-07
-2.56844e-10
3.79629e-09
0.00113384
-2.2413e-07
1.23689e-06
2.22221e-07
8.55486e-07
-2.04953e-07
2.02125e-07
-8.55612e-07
1.26296e-10
-0.00113478
3.76626e-09
-1.20674e-06
2.19489e-07
-2.21594e-07
-8.55751e-07
2.01938e-07
8.55442e-07
-2.05204e-07
1.23683e-06
0.00113384
1.86866e-10
-0.00113384
3.8811e-09
-1.23565e-06
2.22136e-07
-2.24241e-07
-8.55782e-07
2.01815e-07
-2.05205e-07
8.55337e-07
-2.09506e-07
-2.16979e-07
0.000269055
-1.20239e-06
0.00027107
-0.000269055
2.10813e-07
2.18233e-07
-4.19552e-10
3.69998e-09
0.00113495
-2.21546e-07
1.20253e-06
2.19641e-07
8.55689e-07
-2.07687e-07
2.04965e-07
-8.55675e-07
-1.90441e-10
-0.00113441
3.7133e-09
-1.20122e-06
2.19517e-07
-2.2157e-07
-8.55545e-07
2.04636e-07
8.5535e-07
-2.07839e-07
1.20247e-06
0.00113495
3.16728e-11
-0.00113495
3.84362e-09
-1.20136e-06
2.19565e-07
-2.21656e-07
-8.55849e-07
2.04638e-07
-2.07956e-07
8.55527e-07
-0.000269067
2.13173e-07
2.18464e-07
1.24113e-06
1.20402e-06
-2.0956e-07
-2.17356e-07
0.000269074
-1.2424e-06
-1.20535e-06
0.000271093
-0.000269075
2.10761e-07
2.18552e-07
3.92399e-09
0.00113394
-2.27105e-07
1.24231e-06
2.2488e-07
8.5533e-07
-2.05241e-07
-8.55745e-07
2.01835e-07
-1.24673e-06
6.72728e-11
4.09473e-09
0.00113439
-2.29932e-07
1.24787e-06
2.27678e-07
8.60927e-07
-2.08053e-07
-8.61363e-07
2.04599e-07
0.00113395
-4.35609e-11
-0.00113395
3.47926e-09
-1.24103e-06
2.25052e-07
-2.26909e-07
-8.55812e-07
2.0194e-07
-2.05136e-07
8.55314e-07
1.24801e-06
0.0011344
2.19836e-10
-0.0011344
3.42412e-09
-1.24655e-06
2.27916e-07
-2.29672e-07
-8.61465e-07
2.0467e-07
-2.07989e-07
8.60881e-07
-2.12288e-07
-2.14672e-07
0.000269096
-1.20801e-06
0.000271123
-0.000269097
2.13486e-07
2.15895e-07
3.63355e-09
0.00113505
-2.244e-07
1.20529e-06
2.22356e-07
8.58165e-07
-2.08022e-07
-8.58516e-07
2.04662e-07
-1.24117e-06
3.94647e-11
3.99941e-09
0.00113405
-2.29897e-07
1.24236e-06
2.27671e-07
8.58029e-07
-2.07995e-07
-8.585e-07
2.04576e-07
0.00113506
-5.47471e-11
-0.00113506
3.1195e-09
-1.20393e-06
2.22512e-07
-2.24221e-07
-8.58561e-07
2.04785e-07
-2.07892e-07
8.58177e-07
1.24238e-06
0.00113405
2.27014e-10
-0.00113405
3.7637e-09
-1.24112e-06
2.27801e-07
-2.29752e-07
-8.58553e-07
2.04684e-07
-2.07883e-07
8.58031e-07
1.15005e-10
3.79731e-09
0.00113384
-2.24221e-07
1.23689e-06
2.22167e-07
8.55281e-07
-2.05285e-07
2.0178e-07
-8.55826e-07
-1.56325e-10
-0.00113478
3.40524e-09
-1.20667e-06
2.19649e-07
-2.21444e-07
-8.5579e-07
2.02082e-07
8.55451e-07
-2.05106e-07
1.23689e-06
0.00113384
-9.16974e-11
-0.00113384
3.51002e-09
-1.23556e-06
2.22255e-07
-2.24116e-07
-8.55833e-07
2.01944e-07
-2.05127e-07
8.55344e-07
-2.09704e-07
-2.1718e-07
0.000269055
-1.20244e-06
0.000271071
-0.000269055
2.10886e-07
2.18336e-07
1.84847e-12
3.608e-09
0.00113495
-2.21603e-07
1.20257e-06
2.19633e-07
8.5546e-07
-2.08041e-07
2.046e-07
-8.5591e-07
6.93162e-11
-0.00113442
3.60386e-09
-1.20114e-06
2.19626e-07
-2.21459e-07
-8.55644e-07
2.04718e-07
8.55305e-07
-2.0781e-07
1.20262e-06
0.00113495
8.35018e-11
-0.00113495
3.05931e-09
-1.20118e-06
2.19758e-07
-2.21448e-07
-8.55943e-07
2.04741e-07
-2.07908e-07
8.55493e-07
-0.000269068
2.13302e-07
2.18543e-07
1.24103e-06
1.20395e-06
-2.09474e-07
-2.17243e-07
0.000269075
-1.24244e-06
-1.20539e-06
0.000271094
-0.000269076
2.10881e-07
2.18658e-07
3.603e-09
0.00113395
-2.26942e-07
1.24241e-06
2.25013e-07
8.55375e-07
-2.05168e-07
-8.55769e-07
2.01901e-07
-1.24656e-06
1.18342e-10
3.43028e-09
0.0011344
-2.29685e-07
1.24803e-06
2.27896e-07
8.6094e-07
-2.08015e-07
-8.61416e-07
2.0463e-07
0.00113395
-5.22916e-10
-0.00113395
3.68608e-09
-1.24098e-06
2.25053e-07
-2.26911e-07
-8.55554e-07
2.02146e-07
-2.04975e-07
8.55573e-07
1.24804e-06
0.0011344
-2.86678e-10
-0.0011344
3.48949e-09
-1.24651e-06
2.27879e-07
-2.29704e-07
-8.61211e-07
2.04889e-07
-2.07819e-07
8.61142e-07
-2.1225e-07
-2.14483e-07
0.000269097
-1.20811e-06
0.000271124
-0.000269097
2.13649e-07
2.15959e-07
3.28679e-09
0.00113506
-2.24263e-07
1.20535e-06
2.22466e-07
8.58251e-07
-2.07924e-07
-8.58493e-07
2.04745e-07
-1.24115e-06
1.36981e-10
3.82494e-09
0.00113405
-2.29772e-07
1.24238e-06
2.27787e-07
8.58087e-07
-2.07915e-07
-8.58499e-07
2.04635e-07
0.00113506
-6.56555e-10
-0.00113506
3.45195e-09
-1.20389e-06
2.22509e-07
-2.24228e-07
-8.58328e-07
2.04974e-07
-2.0775e-07
8.58407e-07
1.24249e-06
0.00113405
-2.35377e-10
-0.00113405
3.60205e-09
-1.241e-06
2.27836e-07
-2.29717e-07
-8.58368e-07
2.04834e-07
-2.07783e-07
8.58217e-07
-3.36856e-10
3.7275e-09
0.00113384
-2.24166e-07
1.23688e-06
2.22211e-07
8.55433e-07
-2.05143e-07
2.01914e-07
-8.55747e-07
-9.1071e-10
-0.00113479
3.47518e-09
-1.20657e-06
2.1968e-07
-2.21418e-07
-8.55558e-07
2.02253e-07
8.5567e-07
-2.04971e-07
1.23697e-06
0.00113385
-6.53173e-10
-0.00113385
3.64565e-09
-1.23549e-06
2.22281e-07
-2.24102e-07
-8.5558e-07
2.02148e-07
-2.04961e-07
8.55585e-07
-2.09677e-07
-2.17107e-07
0.000269055
-1.20252e-06
0.000271071
-0.000269056
2.11005e-07
2.18473e-07
-7.80895e-11
3.26267e-09
0.00113495
-2.21509e-07
1.2026e-06
2.19701e-07
8.55579e-07
-2.07921e-07
2.04714e-07
-8.55865e-07
-8.70146e-10
-0.00113442
3.57838e-09
-1.20107e-06
2.19647e-07
-2.21451e-07
-8.55395e-07
2.04905e-07
8.55543e-07
-2.07655e-07
1.20262e-06
0.00113495
-6.42771e-10
-0.00113495
3.51832e-09
-1.20118e-06
2.19709e-07
-2.21508e-07
-8.55667e-07
2.04961e-07
-2.07724e-07
8.55762e-07
-0.000269069
2.13386e-07
2.18678e-07
1.24095e-06
1.20387e-06
-2.09315e-07
-2.17095e-07
0.000269075
-1.24274e-06
-1.20568e-06
0.000271093
-0.000269075
2.11205e-07
2.19007e-07
3.5202e-09
0.00113395
-2.26863e-07
1.24249e-06
2.25106e-07
8.55679e-07
-2.04827e-07
-8.55444e-07
2.0228e-07
-1.24651e-06
-7.79332e-10
3.4136e-09
0.0011344
-2.29665e-07
1.24806e-06
2.27923e-07
8.61282e-07
-2.07645e-07
-8.61069e-07
2.05048e-07
0.00113395
-1.85133e-09
-0.00113395
3.33433e-09
-1.24067e-06
2.25318e-07
-2.26643e-07
-8.55048e-07
2.02512e-07
-2.04562e-07
8.56033e-07
1.24831e-06
0.0011344
-1.99083e-09
-0.0011344
3.35972e-09
-1.24624e-06
2.28141e-07
-2.2944e-07
-8.60649e-07
2.05301e-07
-2.07352e-07
8.61649e-07
-2.12044e-07
-2.14393e-07
0.000269097
-1.20846e-06
0.000271123
-0.000269097
2.1402e-07
2.16313e-07
3.32164e-09
0.00113506
-2.24186e-07
1.20543e-06
2.22554e-07
8.58527e-07
-2.07609e-07
-8.58208e-07
2.05103e-07
-1.241e-06
-7.16237e-10
3.44714e-09
0.00113405
-2.29671e-07
1.24251e-06
2.27887e-07
8.58361e-07
-2.07616e-07
-8.58229e-07
2.04988e-07
0.00113506
-1.99004e-09
-0.00113506
3.12044e-09
-1.20359e-06
2.22774e-07
-2.23961e-07
-8.57801e-07
2.05384e-07
-2.07301e-07
8.58887e-07
1.2428e-06
0.00113405
-2.05306e-09
-0.00113405
3.27075e-09
-1.24071e-06
2.28123e-07
-2.29434e-07
-8.57792e-07
2.05278e-07
-2.07298e-07
8.58742e-07
-9.6362e-10
3.54676e-09
0.00113385
-2.24052e-07
1.237e-06
2.22332e-07
8.55707e-07
-2.04819e-07
2.02272e-07
-8.5546e-07
-1.8183e-09
-0.00113478
2.85204e-09
-1.20621e-06
2.2e-07
-2.21089e-07
-8.55071e-07
2.02645e-07
8.56102e-07
-2.04546e-07
1.23731e-06
0.00113384
-1.68608e-09
-0.00113384
3.2438e-09
-1.23514e-06
2.22589e-07
-2.23788e-07
-8.55108e-07
2.02516e-07
-2.04557e-07
8.55998e-07
-2.09505e-07
-2.16939e-07
0.000269056
-1.20294e-06
0.000271071
-0.000269055
2.11437e-07
2.18817e-07
-1.06326e-09
3.51182e-09
0.00113495
-2.21471e-07
1.20264e-06
2.19751e-07
8.55891e-07
-2.07577e-07
2.05091e-07
-8.55539e-07
-1.91098e-09
-0.00113442
2.79032e-09
-1.20066e-06
2.2003e-07
-2.21066e-07
-8.54956e-07
2.05247e-07
8.55934e-07
-2.0728e-07
1.20298e-06
0.00113495
-1.85032e-09
-0.00113495
3.12991e-09
-1.20083e-06
2.20044e-07
-2.21172e-07
-8.55192e-07
2.05331e-07
-2.07317e-07
8.56182e-07
-0.000269068
2.13782e-07
2.19059e-07
1.2406e-06
1.20352e-06
-2.08962e-07
-2.16717e-07
0.000269075
-1.24297e-06
-1.20588e-06
0.000271093
-0.000269074
2.11357e-07
2.19155e-07
3.01661e-09
0.00113395
-2.26518e-07
1.2428e-06
2.25438e-07
8.56083e-07
-2.04424e-07
-8.54972e-07
2.0266e-07
-1.24616e-06
-2.5024e-09
3.05186e-09
0.0011344
-2.29315e-07
1.24838e-06
2.28264e-07
8.61711e-07
-2.07211e-07
-8.60569e-07
2.05453e-07
0.00113394
-2.83943e-09
-0.00113394
2.45767e-09
-1.24042e-06
2.25537e-07
-2.26368e-07
-8.54897e-07
2.02672e-07
-2.0433e-07
8.5614e-07
1.24856e-06
0.00113439
-2.78117e-09
-0.00113439
2.36728e-09
-1.24596e-06
2.28366e-07
-2.29162e-07
-8.60535e-07
2.05412e-07
-2.0717e-07
8.61717e-07
-2.11655e-07
-2.13994e-07
0.000269096
-1.20862e-06
0.000271123
-0.000269096
2.14135e-07
2.16464e-07
2.82898e-09
0.00113505
-2.23843e-07
1.20573e-06
2.22884e-07
8.58967e-07
-2.07146e-07
-8.57705e-07
2.05547e-07
-1.24063e-06
-2.60129e-09
2.98388e-09
0.00113405
-2.29314e-07
1.24285e-06
2.28232e-07
8.58822e-07
-2.07137e-07
-8.57703e-07
2.05445e-07
0.00113505
-3.2041e-09
-0.00113505
2.4808e-09
-1.20337e-06
2.22957e-07
-2.23724e-07
-8.5763e-07
2.05516e-07
-2.07093e-07
8.59013e-07
1.24302e-06
0.00113405
-2.9693e-09
-0.00113405
2.34711e-09
-1.24046e-06
2.28346e-07
-2.29157e-07
-8.57648e-07
2.05382e-07
-2.07112e-07
8.58841e-07
-2.1728e-09
2.8932e-09
0.00113384
-2.23666e-07
1.23736e-06
2.22699e-07
8.56086e-07
-2.04391e-07
2.02686e-07
-8.55022e-07
-3.32599e-09
-0.00113478
2.36726e-09
-1.20604e-06
2.20151e-07
-2.20891e-07
-8.54877e-07
2.02785e-07
8.5624e-07
-2.04322e-07
1.23748e-06
0.00113384
-2.93356e-09
-0.00113384
2.36942e-09
-1.23494e-06
2.22765e-07
-2.23552e-07
-8.5493e-07
2.02644e-07
-2.04341e-07
8.56119e-07
-2.09052e-07
-2.16553e-07
0.000269055
-1.20307e-06
0.00027107
-0.000269055
2.11513e-07
2.18991e-07
-2.34856e-09
2.83054e-09
0.00113495
-2.21056e-07
1.20303e-06
2.20143e-07
8.56277e-07
-2.07154e-07
2.05501e-07
-8.551e-07
-3.42657e-09
-0.00113441
2.19332e-09
-1.20051e-06
2.20179e-07
-2.20867e-07
-8.54688e-07
2.05481e-07
8.56159e-07
-2.06969e-07
1.20313e-06
0.00113495
-3.1996e-09
-0.00113495
2.29351e-09
-1.20063e-06
2.20198e-07
-2.20957e-07
-8.5498e-07
2.05504e-07
-2.07063e-07
8.56345e-07
-0.000269068
2.13866e-07
2.19173e-07
1.2404e-06
1.20333e-06
-2.08839e-07
-2.16605e-07
0.000269074
-1.24264e-06
-1.2056e-06
0.000271093
-0.000269074
2.1105e-07
2.18834e-07
2.42199e-09
0.00113394
-2.26391e-07
1.24296e-06
2.25502e-07
8.56117e-07
-2.04363e-07
-8.54903e-07
2.02655e-07
-1.24594e-06
-3.01983e-09
2.27877e-09
0.00113439
-2.29177e-07
1.24855e-06
2.28339e-07
8.61685e-07
-2.07199e-07
-8.6055e-07
2.05406e-07
0.00113394
-2.4374e-09
-0.00113394
2.88957e-09
-1.24072e-06
2.25285e-07
-2.26613e-07
-8.55118e-07
2.02469e-07
-2.04492e-07
8.559e-07
1.24826e-06
0.00113439
-2.38293e-09
-0.00113439
2.64242e-09
-1.24624e-06
2.28144e-07
-2.29378e-07
-8.6075e-07
2.05222e-07
-2.07319e-07
8.61485e-07
-2.11566e-07
-2.1389e-07
0.000269096
-1.2083e-06
0.000271123
-0.000269096
2.13814e-07
2.16147e-07
2.3415e-09
0.00113505
-2.23727e-07
1.20589e-06
2.22943e-07
8.58981e-07
-2.07131e-07
-8.57644e-07
2.05503e-07
-1.24042e-06
-3.1349e-09
2.17843e-09
0.00113405
-2.29167e-07
1.24304e-06
2.28328e-07
8.58797e-07
-2.07154e-07
-8.57675e-07
2.05363e-07
0.00113505
-2.43016e-09
-0.00113505
2.54649e-09
-1.20361e-06
2.22754e-07
-2.23918e-07
-8.57868e-07
2.05325e-07
-2.07249e-07
8.5876e-07
1.24271e-06
0.00113405
-2.29925e-09
-0.00113405
2.74347e-09
-1.24073e-06
2.28117e-07
-2.29383e-07
-8.57856e-07
2.05236e-07
-2.0723e-07
8.58626e-07
-3.17754e-09
2.21962e-09
0.00113384
-2.23573e-07
1.23748e-06
2.22736e-07
8.56053e-07
-2.04389e-07
2.0261e-07
-8.54981e-07
-2.5973e-09
-0.00113478
2.69805e-09
-1.20634e-06
2.19906e-07
-2.21131e-07
-8.5512e-07
2.02535e-07
8.56004e-07
-2.04541e-07
1.23715e-06
0.00113384
-2.34144e-09
-0.00113384
2.99393e-09
-1.23525e-06
2.22499e-07
-2.23823e-07
-8.55156e-07
2.02421e-07
-2.04548e-07
8.55913e-07
-2.09001e-07
-2.16422e-07
0.000269055
-1.20274e-06
0.000271071
-0.000269055
2.1122e-07
2.18652e-07
-3.51775e-09
2.19127e-09
0.00113495
-2.2098e-07
1.20313e-06
2.20168e-07
8.56299e-07
-2.071e-07
2.05478e-07
-8.55009e-07
-2.70292e-09
-0.00113441
2.78125e-09
-1.2008e-06
2.19914e-07
-2.21126e-07
-8.54943e-07
2.05219e-07
8.559e-07
-2.07198e-07
1.20284e-06
0.00113495
-2.5254e-09
-0.00113495
2.73212e-09
-1.20091e-06
2.19969e-07
-2.21192e-07
-8.55227e-07
2.05265e-07
-2.07277e-07
8.56102e-07
-0.000269068
2.13571e-07
2.18843e-07
1.24074e-06
1.20363e-06
-2.0917e-07
-2.16945e-07
0.000269074
-1.24266e-06
-1.20557e-06
0.000271093
-0.000269075
2.11072e-07
2.18881e-07
2.92349e-09
0.00113394
-2.26659e-07
1.24266e-06
2.25258e-07
8.55856e-07
-2.04632e-07
-8.55177e-07
2.02334e-07
-1.24626e-06
-2.55986e-09
2.80888e-09
0.00113439
-2.29441e-07
1.24828e-06
2.28091e-07
8.61451e-07
-2.07455e-07
-8.60805e-07
2.05095e-07
0.00113394
-1.54096e-09
-0.00113394
3.10145e-09
-1.24069e-06
2.25283e-07
-2.26632e-07
-8.55272e-07
2.02393e-07
-2.04644e-07
8.55742e-07
1.24816e-06
0.00113439
-1.17671e-09
-0.00113439
3.20861e-09
-1.24632e-06
2.28058e-07
-2.29483e-07
-8.60878e-07
2.05162e-07
-2.07451e-07
8.61345e-07
-2.11888e-07
-2.14208e-07
0.000269096
-1.20824e-06
0.000271123
-0.000269097
2.13821e-07
2.16118e-07
2.51805e-09
0.00113505
-2.23962e-07
1.20563e-06
2.22727e-07
8.58717e-07
-2.07389e-07
-8.57923e-07
2.0519e-07
-1.24078e-06
-2.49557e-09