/*--------------------------------*- C++ -*----------------------------------*\
| =========                 |                                                 |
| \\      /  F ield         | OpenFOAM: The Open Source CFD Toolbox           |
|  \\    /   O peration     | Version:  v1906                                 |
|   \\  /    A nd           | Web:      www.OpenFOAM.com                      |
|    \\/     M anipulation  |                                                 |
\*---------------------------------------------------------------------------*/
FoamFile
{
    version     2.0;
    format      ascii;
    class       volVectorField;
    location    "250";
    object      U;
}
// * * * * * * * * * * * * * * * * * * * * * * * * * * * * * * * * * * * * * //

dimensions      [0 1 -1 0 0 0 0];


internalField   nonuniform List<vector> 
43248
(
(6.07889e-05 6.08111e-05 0.108928)
(-9.73646e-05 5.98104e-05 0.107975)
(6.01258e-05 -9.74725e-05 0.107974)
(-0.000158925 -0.000158979 0.106621)
(5.93445e-05 5.93573e-05 0.109226)
(-9.49421e-05 5.87724e-05 0.108152)
(5.89396e-05 -9.50606e-05 0.108152)
(-0.000154026 -0.000154092 0.106644)
(5.78775e-05 5.78863e-05 0.109515)
(-9.24857e-05 5.77097e-05 0.108311)
(5.77822e-05 -9.25435e-05 0.108311)
(-0.000149194 -0.000149226 0.106643)
(5.63638e-05 5.63832e-05 0.109794)
(-8.98651e-05 5.66611e-05 0.108451)
(5.66258e-05 -8.9865e-05 0.108451)
(-0.000144219 -0.000144233 0.106619)
(5.49146e-05 5.49312e-05 0.110064)
(-8.7085e-05 5.55406e-05 0.108572)
(5.54404e-05 -8.70476e-05 0.108572)
(-0.00013897 -0.00013899 0.106575)
(5.3516e-05 5.35327e-05 0.110324)
(-8.41051e-05 5.417e-05 0.108675)
(5.4126e-05 -8.40859e-05 0.108675)
(-0.000133234 -0.000133255 0.106515)
(5.21915e-05 5.22077e-05 0.110574)
(-8.09531e-05 5.25593e-05 0.10876)
(5.26067e-05 -8.09811e-05 0.108759)
(-0.000127235 -0.000127262 0.10644)
(5.09747e-05 5.09954e-05 0.110813)
(-7.77113e-05 5.0858e-05 0.108827)
(5.08159e-05 -7.77088e-05 0.108826)
(-0.000121321 -0.000121339 0.106355)
(4.9788e-05 4.98041e-05 0.111042)
(-7.43206e-05 4.88787e-05 0.108877)
(4.87985e-05 -7.42906e-05 0.108877)
(-0.000115487 -0.000115506 0.106261)
(4.86429e-05 4.86597e-05 0.11126)
(-7.08067e-05 4.67199e-05 0.108912)
(4.6745e-05 -7.08222e-05 0.108911)
(-0.000109786 -0.000109812 0.106162)
(4.741e-05 4.74264e-05 0.111466)
(-6.72473e-05 4.463e-05 0.108932)
(4.45377e-05 -6.72188e-05 0.108931)
(-0.000104355 -0.000104368 0.10606)
(4.62405e-05 4.62521e-05 0.111661)
(-6.35158e-05 4.21343e-05 0.108939)
(4.21848e-05 -6.35582e-05 0.108938)
(-9.88279e-05 -9.88548e-05 0.105956)
(4.51742e-05 4.52026e-05 0.111843)
(-5.99633e-05 3.97186e-05 0.108934)
(3.96581e-05 -5.99342e-05 0.108933)
(-9.39358e-05 -9.39678e-05 0.105852)
(4.41315e-05 4.41431e-05 0.112014)
(-5.64638e-05 3.73024e-05 0.108917)
(3.7251e-05 -5.64236e-05 0.108917)
(-8.91463e-05 -8.91772e-05 0.10575)
(4.31183e-05 4.31286e-05 0.112172)
(-5.29507e-05 3.4749e-05 0.108892)
(3.47593e-05 -5.30072e-05 0.108891)
(-8.45429e-05 -8.45984e-05 0.10565)
(4.20561e-05 4.20796e-05 0.112318)
(-4.9596e-05 3.22466e-05 0.108859)
(3.2231e-05 -4.95988e-05 0.108858)
(-8.03236e-05 -8.03174e-05 0.105553)
(4.08041e-05 4.08522e-05 0.112452)
(-4.61918e-05 2.97999e-05 0.108819)
(2.97419e-05 -4.60688e-05 0.108818)
(-7.62501e-05 -7.62772e-05 0.105458)
(3.95579e-05 3.95473e-05 0.112573)
(-4.27247e-05 2.73312e-05 0.108773)
(2.72974e-05 -4.2803e-05 0.108772)
(-7.24216e-05 -7.25403e-05 0.105368)
(3.82075e-05 3.82382e-05 0.112682)
(-3.95979e-05 2.49757e-05 0.108723)
(2.50198e-05 -3.95775e-05 0.108722)
(-6.8937e-05 -6.8873e-05 0.105281)
(3.68429e-05 3.6863e-05 0.112779)
(-3.64213e-05 2.28576e-05 0.10867)
(2.27575e-05 -3.63935e-05 0.108669)
(-6.55769e-05 -6.56212e-05 0.105197)
(3.51248e-05 3.51517e-05 0.112864)
(-3.31595e-05 2.04435e-05 0.108614)
(2.04775e-05 -3.3166e-05 0.108613)
(-6.24816e-05 -6.24878e-05 0.105118)
(3.36454e-05 3.36652e-05 0.112937)
(-3.0382e-05 1.85696e-05 0.108557)
(1.85517e-05 -3.03598e-05 0.108556)
(-5.97334e-05 -5.97269e-05 0.105042)
(3.17736e-05 3.17941e-05 0.113)
(-2.7311e-05 1.69664e-05 0.108498)
(1.69414e-05 -2.73134e-05 0.108497)
(-5.70047e-05 -5.70515e-05 0.10497)
(2.9633e-05 2.96424e-05 0.113052)
(-2.41816e-05 1.41052e-05 0.10844)
(1.40795e-05 -2.4162e-05 0.108439)
(-5.37622e-05 -5.37577e-05 0.104902)
(2.8592e-05 2.8599e-05 0.113094)
(-2.24988e-05 1.40373e-05 0.108382)
(1.40162e-05 -2.24958e-05 0.108381)
(-5.29856e-05 -5.30125e-05 0.104837)
(2.50224e-05 2.50501e-05 0.113127)
(-1.82765e-05 1.03507e-05 0.108325)
(1.04128e-05 -1.81556e-05 0.108324)
(-4.84871e-05 -4.84678e-05 0.104778)
(2.53449e-05 2.53662e-05 0.11315)
(-1.74299e-05 1.26516e-05 0.108267)
(1.25045e-05 -1.73802e-05 0.108266)
(-4.96303e-05 -4.97512e-05 0.104718)
(-5.96401e-06 -5.94509e-06 0.106779)
(6.00806e-05 9.79402e-05 0.107927)
(-6.00867e-05 9.79845e-05 0.107927)
(6.17672e-06 -6.1077e-06 0.106779)
(9.79042e-05 6.00483e-05 0.107927)
(9.81719e-05 -6.04324e-05 0.107926)
(-9.78718e-05 5.99784e-05 0.107927)
(-9.81284e-05 -6.03548e-05 0.107926)
(-5.77311e-06 5.81652e-06 0.106778)
(6.03256e-05 -9.80719e-05 0.107927)
(-6.02507e-05 -9.80082e-05 0.107927)
(5.87511e-06 5.90966e-06 0.106778)
(0.000158358 0.000158256 0.106621)
(-8.47821e-06 -8.32497e-06 0.106817)
(5.98671e-05 9.74006e-05 0.107974)
(-5.99323e-05 9.74739e-05 0.107974)
(5.91185e-05 9.56135e-05 0.108109)
(-5.90875e-05 9.56445e-05 0.108109)
(-0.000158229 0.000158188 0.106621)
(8.53852e-06 -8.46818e-06 0.106817)
(9.73761e-05 5.98219e-05 0.107974)
(9.75747e-05 -6.02485e-05 0.107974)
(9.55723e-05 5.90507e-05 0.108109)
(9.56877e-05 -5.91114e-05 0.108108)
(-9.75436e-05 -6.01582e-05 0.107974)
(-9.5504e-05 5.89969e-05 0.10811)
(-9.56499e-05 -5.90565e-05 0.108109)
(0.000159103 -0.000159183 0.106621)
(-8.70668e-06 8.82603e-06 0.106816)
(-6.00397e-05 -9.74258e-05 0.107974)
(5.89762e-05 -9.55717e-05 0.108109)
(-5.89505e-05 -9.5522e-05 0.108109)
(8.72459e-06 8.74416e-06 0.106816)
(0.000154014 0.000154036 0.106644)
(-1.06624e-05 -1.05313e-05 0.106829)
(5.88543e-05 9.49986e-05 0.108151)
(-5.88775e-05 9.50611e-05 0.108151)
(5.81274e-05 9.31893e-05 0.108272)
(-5.81274e-05 9.32285e-05 0.108272)
(-0.000153951 0.000153913 0.106644)
(1.06403e-05 -1.0571e-05 0.10683)
(9.49615e-05 5.87674e-05 0.108152)
(9.51603e-05 -5.90945e-05 0.108151)
(9.31394e-05 5.80405e-05 0.108273)
(9.31816e-05 -5.80314e-05 0.108272)
(-9.51223e-05 -5.90203e-05 0.108151)
(-9.31231e-05 5.80189e-05 0.108273)
(-9.3162e-05 -5.80018e-05 0.108272)
(0.000154085 -0.000154109 0.106644)
(-1.08945e-05 1.1007e-05 0.106829)
(-5.8902e-05 -9.50179e-05 0.108152)
(5.79003e-05 -9.30846e-05 0.108273)
(-5.79231e-05 -9.30811e-05 0.108273)
(1.08221e-05 1.08676e-05 0.106829)
(0.000149355 0.000149364 0.106643)
(-1.2734e-05 -1.26211e-05 0.106818)
(5.78487e-05 9.25549e-05 0.10831)
(-5.7822e-05 9.25901e-05 0.10831)
(5.71081e-05 9.06356e-05 0.108417)
(-5.71656e-05 9.06996e-05 0.108417)
(-0.00014932 0.00014929 0.106643)
(1.26349e-05 -1.25735e-05 0.106818)
(9.25108e-05 5.77502e-05 0.108311)
(9.26349e-05 -5.79146e-05 0.10831)
(9.05814e-05 5.70136e-05 0.108418)
(9.06232e-05 -5.70378e-05 0.108417)
(-9.25904e-05 -5.78302e-05 0.10831)
(-9.05958e-05 5.70474e-05 0.108418)
(-9.06242e-05 -5.70426e-05 0.108417)
(0.000149164 -0.000149188 0.106643)
(-1.27999e-05 1.29062e-05 0.106817)
(-5.77467e-05 -9.25189e-05 0.108311)
(5.69091e-05 -9.05312e-05 0.108418)
(-5.69698e-05 -9.05531e-05 0.108418)
(1.26754e-05 1.2733e-05 0.106817)
(0.000144276 0.000144274 0.106619)
(-1.4769e-05 -1.46733e-05 0.106784)
(5.67649e-05 8.99316e-05 0.10845)
(-5.67758e-05 8.99724e-05 0.10845)
(5.59883e-05 8.78747e-05 0.108543)
(-5.6028e-05 8.79384e-05 0.108543)
(-0.000144341 0.000144306 0.106619)
(1.4721e-05 -1.46609e-05 0.106784)
(8.98741e-05 5.66697e-05 0.108451)
(8.99531e-05 -5.67509e-05 0.10845)
(8.78276e-05 5.58831e-05 0.108543)
(8.78837e-05 -5.59601e-05 0.108542)
(-8.99128e-05 -5.667e-05 0.10845)
(-8.78321e-05 5.59093e-05 0.108544)
(-8.7899e-05 -5.59983e-05 0.108543)
(0.000144109 -0.000144134 0.106619)
(-1.46997e-05 1.48028e-05 0.106783)
(-5.65962e-05 -8.98405e-05 0.108451)
(5.58338e-05 -8.7794e-05 0.108544)
(-5.592e-05 -8.78374e-05 0.108543)
(1.45956e-05 1.46432e-05 0.106783)
(0.000138887 0.000138869 0.106575)
(-1.69095e-05 -1.68102e-05 0.106731)
(5.56226e-05 8.71334e-05 0.108571)
(-5.56601e-05 8.71889e-05 0.108571)
(5.4606e-05 8.49161e-05 0.10865)
(-5.46218e-05 8.49622e-05 0.10865)
(-0.000138947 0.00013891 0.106575)
(1.69134e-05 -1.68495e-05 0.106732)
(8.70848e-05 5.55192e-05 0.108572)
(8.71332e-05 -5.55663e-05 0.108571)
(8.48526e-05 5.45036e-05 0.108651)
(8.49498e-05 -5.4658e-05 0.108649)
(-8.71235e-05 -5.55568e-05 0.108571)
(-8.48513e-05 5.45041e-05 0.108651)
(-8.49452e-05 -5.46277e-05 0.10865)
(0.000138819 -0.000138843 0.106575)
(-1.6753e-05 1.68558e-05 0.106731)
(-5.5482e-05 -8.70578e-05 0.108572)
(5.45319e-05 -8.4859e-05 0.108651)
(-5.45517e-05 -8.4878e-05 0.108651)
(1.67714e-05 1.68172e-05 0.106731)
(0.000133116 0.000133104 0.106514)
(-1.89569e-05 -1.88692e-05 0.106663)
(5.426e-05 8.41611e-05 0.108674)
(-5.42914e-05 8.42131e-05 0.108674)
(5.30812e-05 8.18146e-05 0.108739)
(-5.30953e-05 8.1858e-05 0.108739)
(-0.000133128 0.000133099 0.106515)
(1.89654e-05 -1.8905e-05 0.106663)
(8.4108e-05 5.41545e-05 0.108675)
(8.41702e-05 -5.42544e-05 0.108673)
(8.17492e-05 5.2977e-05 0.10874)
(8.1847e-05 -5.31082e-05 0.108738)
(-8.41771e-05 -5.42625e-05 0.108674)
(-8.17475e-05 5.29788e-05 0.10874)
(-8.18212e-05 -5.30475e-05 0.108739)
(0.000133171 -0.000133193 0.106514)
(-1.8886e-05 1.89848e-05 0.106662)
(-5.41867e-05 -8.41103e-05 0.108675)
(5.29857e-05 -8.17599e-05 0.10874)
(-5.29714e-05 -8.17612e-05 0.10874)
(1.8938e-05 1.89775e-05 0.106662)
(0.000127214 0.000127198 0.10644)
(-2.09227e-05 -2.08428e-05 0.106582)
(5.26568e-05 8.10162e-05 0.108759)
(-5.26801e-05 8.10628e-05 0.108758)
(5.14158e-05 7.86059e-05 0.10881)
(-5.14268e-05 7.86483e-05 0.10881)
(-0.000127208 0.000127178 0.10644)
(2.09278e-05 -2.08715e-05 0.106583)
(8.0955e-05 5.25508e-05 0.108759)
(8.10637e-05 -5.27333e-05 0.108758)
(7.85463e-05 5.1312e-05 0.108811)
(7.85899e-05 -5.13334e-05 0.10881)
(-8.10394e-05 -5.26719e-05 0.108758)
(-7.85426e-05 5.13116e-05 0.108812)
(-7.85941e-05 -5.13384e-05 0.10881)
(0.000127256 -0.000127279 0.10644)
(-2.09681e-05 2.10648e-05 0.106581)
(-5.25943e-05 -8.09774e-05 0.108759)
(5.12161e-05 -7.85027e-05 0.108811)
(-5.12685e-05 -7.85294e-05 0.108811)
(2.09337e-05 2.09795e-05 0.106581)
(0.000121381 0.000121362 0.106354)
(-2.2958e-05 -2.28829e-05 0.106491)
(5.09411e-05 7.777e-05 0.108826)
(-5.09749e-05 7.78207e-05 0.108825)
(4.94827e-05 7.52525e-05 0.108865)
(-4.94684e-05 7.52809e-05 0.108864)
(-0.000121373 0.000121342 0.106355)
(2.29692e-05 -2.2913e-05 0.106492)
(7.77057e-05 5.08385e-05 0.108826)
(7.77895e-05 -5.09361e-05 0.108825)
(7.51921e-05 4.93769e-05 0.108866)
(7.52393e-05 -4.94481e-05 0.108864)
(-7.77714e-05 -5.08966e-05 0.108825)
(-7.5171e-05 4.93516e-05 0.108866)
(-7.52432e-05 -4.94367e-05 0.108865)
(0.000121267 -0.000121289 0.106354)
(-2.28937e-05 2.29797e-05 0.10649)
(-5.08246e-05 -7.77083e-05 0.108826)
(4.93296e-05 -7.51565e-05 0.108866)
(-4.9364e-05 -7.51808e-05 0.108865)
(2.28998e-05 2.29391e-05 0.106491)
(0.000115504 0.000115481 0.106261)
(-2.48556e-05 -2.47839e-05 0.106394)
(4.89875e-05 7.43809e-05 0.108876)
(-4.90003e-05 7.44239e-05 0.108876)
(4.74384e-05 7.17883e-05 0.108903)
(-4.74408e-05 7.18231e-05 0.108903)
(-0.000115477 0.000115446 0.106261)
(2.48287e-05 -2.47712e-05 0.106394)
(7.43285e-05 4.88817e-05 0.108877)
(7.43689e-05 -4.89185e-05 0.108875)
(7.17219e-05 4.73335e-05 0.108904)
(7.18033e-05 -4.74616e-05 0.108902)
(-7.43821e-05 -4.8944e-05 0.108876)
(-7.17202e-05 4.73317e-05 0.108905)
(-7.17838e-05 -4.73951e-05 0.108903)
(0.000115423 -0.00011545 0.106261)
(-2.47052e-05 2.47922e-05 0.106393)
(-4.88755e-05 -7.43183e-05 0.108876)
(4.73477e-05 -7.17266e-05 0.108904)
(-4.73147e-05 -7.1725e-05 0.108904)
(2.47895e-05 2.48217e-05 0.106393)
(0.000109802 0.000109781 0.106162)
(-2.6746e-05 -2.66814e-05 0.106292)
(4.68914e-05 7.09098e-05 0.10891)
(-4.68307e-05 7.0916e-05 0.10891)
(4.51322e-05 6.81415e-05 0.108927)
(-4.52765e-05 6.82395e-05 0.108926)
(-0.000109782 0.000109758 0.106162)
(2.66201e-05 -2.65687e-05 0.106292)
(7.08445e-05 4.67865e-05 0.108911)
(7.0892e-05 -4.68563e-05 0.10891)
(6.80867e-05 4.50268e-05 0.108928)
(6.81885e-05 -4.52014e-05 0.108926)
(-7.08809e-05 -4.67976e-05 0.10891)
(-6.81406e-05 4.51524e-05 0.108928)
(-6.81909e-05 -4.51997e-05 0.108926)
(0.000109842 -0.000109867 0.106162)
(-2.66198e-05 2.66963e-05 0.106291)
(-4.67183e-05 -7.08161e-05 0.108911)
(4.50815e-05 -6.81199e-05 0.108928)
(-4.51281e-05 -6.81298e-05 0.108927)
(2.65941e-05 2.66338e-05 0.106291)
(0.00010423 0.000104208 0.10606)
(-2.84019e-05 -2.83476e-05 0.106187)
(4.46238e-05 6.72506e-05 0.10893)
(-4.47568e-05 6.73375e-05 0.10893)
(4.2889e-05 6.45271e-05 0.108937)
(-4.27639e-05 6.45203e-05 0.108936)
(-0.000104378 0.000104344 0.10606)
(2.85592e-05 -2.85095e-05 0.106187)
(6.71982e-05 4.45214e-05 0.108932)
(6.72803e-05 -4.46623e-05 0.108929)
(6.44568e-05 4.27869e-05 0.108938)
(6.45065e-05 -4.28316e-05 0.108936)
(-6.73013e-05 -4.46875e-05 0.10893)
(-6.44087e-05 4.26692e-05 0.108938)
(-6.44723e-05 -4.27267e-05 0.108936)
(0.000104302 -0.000104335 0.10606)
(-2.84119e-05 2.85128e-05 0.106186)
(-4.46169e-05 -6.72433e-05 0.108931)
(4.27358e-05 -6.4437e-05 0.108938)
(-4.26473e-05 -6.44026e-05 0.108937)
(2.85103e-05 2.85313e-05 0.106186)
(9.89386e-05 9.8905e-05 0.105956)
(-3.00252e-05 -2.99777e-05 0.106082)
(4.22201e-05 6.35853e-05 0.108937)
(-4.22297e-05 6.36308e-05 0.108937)
(4.0465e-05 6.09232e-05 0.108934)
(-4.0535e-05 6.09744e-05 0.108934)
(-9.88361e-05 9.88081e-05 0.105956)
(2.9972e-05 -2.99442e-05 0.106082)
(6.3524e-05 4.21174e-05 0.108938)
(6.36212e-05 -4.22872e-05 0.108936)
(6.08662e-05 4.03745e-05 0.108935)
(6.08949e-05 -4.03989e-05 0.108933)
(-6.35705e-05 -4.21623e-05 0.108937)
(-6.08946e-05 4.04212e-05 0.108936)
(-6.09556e-05 -4.04875e-05 0.108934)
(9.89243e-05 -9.89265e-05 0.105956)
(-3.00531e-05 3.01318e-05 0.106081)
(-4.20897e-05 -6.35096e-05 0.108938)
(4.02776e-05 -6.08288e-05 0.108935)
(-4.04353e-05 -6.08821e-05 0.108935)
(2.99361e-05 2.99429e-05 0.106081)
(9.39691e-05 9.39391e-05 0.105853)
(-3.15873e-05 -3.15453e-05 0.105977)
(3.98716e-05 6.00327e-05 0.108932)
(-3.98267e-05 6.00438e-05 0.108931)
(3.79809e-05 5.73699e-05 0.108921)
(-3.79886e-05 5.73988e-05 0.10892)
(-9.39292e-05 9.38844e-05 0.105853)
(3.15643e-05 -3.15042e-05 0.105977)
(5.99617e-05 3.97834e-05 0.108933)
(5.99785e-05 -3.97721e-05 0.108931)
(5.73271e-05 3.78793e-05 0.108922)
(5.74185e-05 -3.80317e-05 0.108919)
(-6.00227e-05 -3.97816e-05 0.108931)
(-5.73198e-05 3.78959e-05 0.108922)
(-5.7368e-05 -3.79309e-05 0.10892)
(9.38216e-05 -9.38453e-05 0.105852)
(-3.14404e-05 3.15192e-05 0.105976)
(-3.97291e-05 -5.99442e-05 0.108933)
(3.79444e-05 -5.73293e-05 0.108922)
(-3.78696e-05 -5.73105e-05 0.108921)
(3.15516e-05 3.15595e-05 0.105976)
(8.91167e-05 8.908e-05 0.10575)
(-3.29943e-05 -3.29323e-05 0.105874)
(3.73432e-05 5.64899e-05 0.108916)
(-3.73996e-05 5.65384e-05 0.108915)
(3.54523e-05 5.38742e-05 0.108897)
(-3.54589e-05 5.39025e-05 0.108897)
(-8.91592e-05 8.91447e-05 0.10575)
(3.30159e-05 -3.29675e-05 0.105874)
(5.64536e-05 3.72445e-05 0.108917)
(5.65079e-05 -3.73346e-05 0.108914)
(5.3815e-05 3.53705e-05 0.108899)
(5.38514e-05 -3.5424e-05 0.108896)
(-5.65166e-05 -3.73394e-05 0.108915)
(-5.3809e-05 3.53592e-05 0.108899)
(-5.38528e-05 -3.54213e-05 0.108897)
(8.91626e-05 -8.91774e-05 0.10575)
(-3.29873e-05 3.30269e-05 0.105873)
(-3.72909e-05 -5.6435e-05 0.108916)
(3.53051e-05 -5.38364e-05 0.108899)
(-3.53411e-05 -5.38419e-05 0.108898)
(3.30011e-05 3.29913e-05 0.105873)
(8.45978e-05 8.45836e-05 0.10565)
(-3.43197e-05 -3.42932e-05 0.105773)
(3.48562e-05 5.30107e-05 0.10889)
(-3.48468e-05 5.30326e-05 0.10889)
(3.29348e-05 5.04608e-05 0.108866)
(-3.29598e-05 5.04916e-05 0.108865)
(-8.45616e-05 8.45391e-05 0.10565)
(3.43064e-05 -3.42751e-05 0.105773)
(5.29734e-05 3.47636e-05 0.108891)
(5.30409e-05 -3.48723e-05 0.108889)
(5.03938e-05 3.28494e-05 0.108867)
(5.04438e-05 -3.29104e-05 0.108865)
(-5.29957e-05 -3.48128e-05 0.10889)
(-5.04213e-05 3.28619e-05 0.108868)
(-5.04825e-05 -3.28855e-05 0.108866)
(8.45772e-05 -8.46288e-05 0.10565)
(-3.42883e-05 3.43678e-05 0.105772)
(-3.47365e-05 -5.29941e-05 0.108891)
(3.28552e-05 -5.03518e-05 0.108867)
(-3.28675e-05 -5.03367e-05 0.108867)
(3.42767e-05 3.43241e-05 0.105772)
(8.03207e-05 8.02897e-05 0.105553)
(-3.55619e-05 -3.55439e-05 0.105675)
(3.23319e-05 4.96719e-05 0.108857)
(-3.23416e-05 4.96876e-05 0.108856)
(3.04572e-05 4.70013e-05 0.108827)
(-3.0505e-05 4.70189e-05 0.108827)
(-8.03235e-05 8.02962e-05 0.105553)
(3.55614e-05 -3.55266e-05 0.105675)
(4.96022e-05 3.22547e-05 0.108858)
(4.96465e-05 -3.23017e-05 0.108855)
(4.69268e-05 3.03903e-05 0.108829)
(4.69978e-05 -3.04495e-05 0.108826)
(-4.96506e-05 -3.22887e-05 0.108856)
(-4.69573e-05 3.04181e-05 0.108829)
(-4.69923e-05 -3.04442e-05 0.108827)
(8.02747e-05 -8.03005e-05 0.105552)
(-3.55435e-05 3.5591e-05 0.105674)
(-3.22466e-05 -4.95754e-05 0.108858)
(3.03455e-05 -4.69091e-05 0.108829)
(-3.03867e-05 -4.69375e-05 0.108828)
(3.55582e-05 3.55402e-05 0.105674)
(7.62653e-05 7.62179e-05 0.105458)
(-3.66463e-05 -3.66607e-05 0.10558)
(2.98136e-05 4.62011e-05 0.108817)
(-2.98936e-05 4.62416e-05 0.108816)
(2.80722e-05 4.37264e-05 0.108783)
(-2.79977e-05 4.37227e-05 0.108782)
(-7.62805e-05 7.62429e-05 0.105459)
(3.67594e-05 -3.66997e-05 0.10558)
(4.61245e-05 2.97518e-05 0.108818)
(4.61783e-05 -2.98208e-05 0.108815)
(4.37252e-05 2.79527e-05 0.108784)
(4.37588e-05 -2.80246e-05 0.108782)
(-4.62287e-05 -2.9791e-05 0.108816)
(-4.36212e-05 2.79099e-05 0.108785)
(-4.36747e-05 -2.8046e-05 0.108782)
(7.62292e-05 -7.62627e-05 0.105458)
(-3.66774e-05 3.66815e-05 0.105579)
(-2.97786e-05 -4.60756e-05 0.108818)
(2.79228e-05 -4.37361e-05 0.108784)
(-2.79126e-05 -4.37679e-05 0.108784)
(3.67149e-05 3.66478e-05 0.105579)
(7.25313e-05 7.24596e-05 0.105368)
(-3.77841e-05 -3.77396e-05 0.105488)
(2.74632e-05 4.2828e-05 0.108771)
(-2.74163e-05 4.28131e-05 0.10877)
(2.55922e-05 4.04431e-05 0.108734)
(-2.57168e-05 4.05008e-05 0.108733)
(-7.24113e-05 7.24055e-05 0.105368)
(3.76883e-05 -3.76731e-05 0.105489)
(4.27892e-05 2.7355e-05 0.108772)
(4.28391e-05 -2.7408e-05 0.10877)
(4.03671e-05 2.5557e-05 0.108735)
(4.04497e-05 -2.5669e-05 0.108732)
(-4.27799e-05 -2.74501e-05 0.108771)
(-4.04523e-05 2.56199e-05 0.108736)
(-4.04799e-05 -2.55669e-05 0.108733)
(7.24246e-05 -7.2505e-05 0.105368)
(-3.76554e-05 3.77375e-05 0.105488)
(-2.73201e-05 -4.284e-05 0.108772)
(2.56348e-05 -4.03213e-05 0.108735)
(-2.56276e-05 -4.03047e-05 0.108735)
(3.76651e-05 3.78028e-05 0.105487)
(6.88933e-05 6.88597e-05 0.105281)
(-3.86198e-05 -3.8626e-05 0.105401)
(2.50453e-05 3.96281e-05 0.108721)
(-2.50607e-05 3.96601e-05 0.10872)
(2.33982e-05 3.71913e-05 0.108681)
(-2.33639e-05 3.71995e-05 0.108681)
(-6.8932e-05 6.88913e-05 0.105281)
(3.86782e-05 -3.86295e-05 0.105401)
(3.95925e-05 2.49743e-05 0.108722)
(3.96574e-05 -2.50772e-05 0.10872)
(3.7158e-05 2.3306e-05 0.108683)
(3.71687e-05 -2.33128e-05 0.10868)
(-3.96362e-05 -2.50126e-05 0.10872)
(-3.7117e-05 2.32951e-05 0.108683)
(-3.71516e-05 -2.33539e-05 0.108681)
(6.89407e-05 -6.89581e-05 0.10528)
(-3.87108e-05 3.87095e-05 0.1054)
(-2.5005e-05 -3.95595e-05 0.108722)
(2.32118e-05 -3.7136e-05 0.108682)
(-2.3236e-05 -3.71745e-05 0.108682)
(3.8685e-05 3.86425e-05 0.1054)
(6.5641e-05 6.56021e-05 0.105198)
(-3.95576e-05 -3.95279e-05 0.105317)
(2.28617e-05 3.64616e-05 0.108667)
(-2.29367e-05 3.64957e-05 0.108667)
(2.11147e-05 3.40388e-05 0.108626)
(-2.11145e-05 3.40804e-05 0.108625)
(-6.56509e-05 6.56262e-05 0.105198)
(3.95867e-05 -3.95798e-05 0.105317)
(3.64026e-05 2.27863e-05 0.108669)
(3.64356e-05 -2.28417e-05 0.108666)
(3.4002e-05 2.10449e-05 0.108627)
(3.40819e-05 -2.11548e-05 0.108624)
(-3.64333e-05 -2.28323e-05 0.108667)
(-3.40068e-05 2.1035e-05 0.108628)
(-3.40648e-05 -2.11317e-05 0.108625)
(6.55389e-05 -6.56098e-05 0.105197)
(-3.94998e-05 3.95381e-05 0.105316)
(-2.27604e-05 -3.64034e-05 0.108668)
(2.10811e-05 -3.39971e-05 0.108627)
(-2.11026e-05 -3.40111e-05 0.108627)
(3.94886e-05 3.9519e-05 0.105316)
(6.24634e-05 6.24503e-05 0.105118)
(-4.01251e-05 -4.00935e-05 0.105236)
(2.05618e-05 3.32121e-05 0.108612)
(-2.05184e-05 3.32249e-05 0.108611)
(1.92886e-05 3.11985e-05 0.108569)
(-1.93228e-05 3.1233e-05 0.108568)
(-6.24018e-05 6.23523e-05 0.105118)
(4.00659e-05 -4.00527e-05 0.105237)
(3.31679e-05 2.04936e-05 0.108613)
(3.323e-05 -2.05528e-05 0.10861)
(3.11461e-05 1.92326e-05 0.10857)
(3.11899e-05 -1.92725e-05 0.108567)
(-3.32186e-05 -2.05504e-05 0.108611)
(-3.11621e-05 1.92612e-05 0.108571)
(-3.11911e-05 -1.92374e-05 0.108568)
(6.24386e-05 -6.24779e-05 0.105118)
(-4.01052e-05 4.01153e-05 0.105236)
(-2.05126e-05 -3.31851e-05 0.108613)
(1.92162e-05 -3.11296e-05 0.10857)
(-1.92091e-05 -3.11263e-05 0.10857)
(4.01045e-05 4.0139e-05 0.105236)
(5.97312e-05 5.97178e-05 0.105042)
(-4.10332e-05 -4.10145e-05 0.10516)
(1.86159e-05 3.04135e-05 0.108554)
(-1.86373e-05 3.04562e-05 0.108554)
(1.71116e-05 2.78663e-05 0.108511)
(-1.71074e-05 2.78902e-05 0.10851)
(-5.97785e-05 5.97385e-05 0.105042)
(4.10292e-05 -4.1025e-05 0.105161)
(3.0383e-05 1.85448e-05 0.108556)
(3.04172e-05 -1.861e-05 0.108553)
(2.78242e-05 1.70328e-05 0.108512)
(2.78955e-05 -1.7093e-05 0.108509)
(-3.04174e-05 -1.8583e-05 0.108554)
(-2.7822e-05 1.70518e-05 0.108513)
(-2.78533e-05 -1.71088e-05 0.10851)
(5.97129e-05 -5.97724e-05 0.105042)
(-4.10262e-05 4.10447e-05 0.10516)
(-1.85444e-05 -3.0358e-05 0.108555)
(1.70307e-05 -2.78316e-05 0.108512)
(-1.70275e-05 -2.78593e-05 0.108512)
(4.10303e-05 4.10025e-05 0.10516)
(5.70244e-05 5.7014e-05 0.104971)
(-4.19346e-05 -4.19286e-05 0.105088)
(1.7009e-05 2.73916e-05 0.108496)
(-1.70185e-05 2.73901e-05 0.108495)
(1.49036e-05 2.52459e-05 0.108453)
(-1.49342e-05 2.53278e-05 0.108452)
(-5.70434e-05 5.69967e-05 0.104971)
(4.19249e-05 -4.19464e-05 0.105089)
(2.73137e-05 1.69366e-05 0.108498)
(2.7402e-05 -1.70038e-05 0.108495)
(2.52631e-05 1.48556e-05 0.108454)
(2.52424e-05 -1.49098e-05 0.108451)
(-2.73466e-05 -1.70059e-05 0.108495)
(-2.5293e-05 1.48304e-05 0.108455)
(-2.53251e-05 -1.48826e-05 0.108452)
(5.69909e-05 -5.70446e-05 0.10497)
(-4.19522e-05 4.19188e-05 0.105087)
(-1.69331e-05 -2.73349e-05 0.108497)
(1.48066e-05 -2.52849e-05 0.108454)
(-1.48602e-05 -2.52718e-05 0.108453)
(4.1901e-05 4.19328e-05 0.105087)
(5.37575e-05 5.373e-05 0.104903)
(-4.11801e-05 -4.1109e-05 0.105019)
(1.41749e-05 2.41446e-05 0.108438)
(-1.41967e-05 2.4229e-05 0.108437)
(1.45288e-05 2.28885e-05 0.108394)
(-1.44437e-05 2.27503e-05 0.108393)
(-5.37595e-05 5.36912e-05 0.104903)
(4.11828e-05 -4.11583e-05 0.105019)
(2.41435e-05 1.41394e-05 0.108439)
(2.41183e-05 -1.4139e-05 0.108437)
(2.27146e-05 1.44463e-05 0.108395)
(2.29686e-05 -1.45417e-05 0.108392)
(-2.42323e-05 -1.41597e-05 0.108437)
(-2.26675e-05 1.44761e-05 0.108396)
(-2.26849e-05 -1.44606e-05 0.108393)
(5.36842e-05 -5.37803e-05 0.104902)
(-4.10353e-05 4.11844e-05 0.105018)
(-1.41396e-05 -2.41799e-05 0.108439)
(1.4515e-05 -2.26438e-05 0.108395)
(-1.43813e-05 -2.26338e-05 0.108395)
(4.11838e-05 4.11847e-05 0.105018)
(5.30223e-05 5.30262e-05 0.104837)
(-4.38848e-05 -4.392e-05 0.104955)
(1.40881e-05 2.26077e-05 0.108379)
(-1.40777e-05 2.25534e-05 0.108379)
(1.06519e-05 1.91262e-05 0.108337)
(-1.08059e-05 1.93251e-05 0.108336)
(-5.30268e-05 5.29837e-05 0.104837)
(4.38159e-05 -4.38271e-05 0.104956)
(2.25373e-05 1.39921e-05 0.108381)
(2.26448e-05 -1.41348e-05 0.108378)
(1.9173e-05 1.0615e-05 0.108338)
(1.91365e-05 -1.07147e-05 0.108335)
(-2.2487e-05 -1.40523e-05 0.108379)
(-1.93407e-05 1.06562e-05 0.108339)
(-1.93894e-05 -1.0709e-05 0.108336)
(5.30831e-05 -5.30605e-05 0.104837)
(-4.39759e-05 4.38291e-05 0.104955)
(-1.39763e-05 -2.24651e-05 0.10838)
(1.05915e-05 -1.93012e-05 0.108338)
(-1.07052e-05 -1.9312e-05 0.108338)
(4.37727e-05 4.38051e-05 0.104954)
(4.84345e-05 4.84211e-05 0.104779)
(-4.11678e-05 -4.11585e-05 0.104892)
(1.03979e-05 1.83454e-05 0.108323)
(-1.03269e-05 1.82632e-05 0.108322)
(1.2544e-05 1.76869e-05 0.10828)
(-1.24025e-05 1.7699e-05 0.108279)
(-4.84557e-05 4.84377e-05 0.104778)
(4.13231e-05 -4.1146e-05 0.104893)
(1.81604e-05 1.03649e-05 0.108324)
(1.8508e-05 -1.0421e-05 0.108321)
(1.76353e-05 1.24958e-05 0.108281)
(1.745e-05 -1.23255e-05 0.108278)
(-1.83133e-05 -1.03176e-05 0.108322)
(-1.73774e-05 1.2416e-05 0.108282)
(-1.75059e-05 -1.25066e-05 0.108279)
(4.83951e-05 -4.848e-05 0.104778)
(-4.13475e-05 4.1216e-05 0.104892)
(-1.02684e-05 -1.81418e-05 0.108324)
(1.23795e-05 -1.75477e-05 0.108281)
(-1.24587e-05 -1.7645e-05 0.108281)
(4.11993e-05 4.10961e-05 0.104891)
(4.96454e-05 4.95705e-05 0.104718)
(1.2676e-05 1.7349e-05 0.108265)
(-1.27732e-05 1.74114e-05 0.108264)
(-4.96149e-05 4.96377e-05 0.104718)
(1.73605e-05 1.25613e-05 0.108266)
(1.71536e-05 -1.27026e-05 0.108263)
(-1.73738e-05 -1.26295e-05 0.108264)
(4.93954e-05 -4.96972e-05 0.104718)
(-1.2634e-05 -1.74466e-05 0.108266)
(6.11668e-05 6.11957e-05 0.108853)
(-6.11665e-05 6.11484e-05 0.108853)
(6.11595e-05 -6.11646e-05 0.108852)
(-6.1182e-05 -6.11893e-05 0.108852)
(1.7884e-06 2.13697e-05 0.0940162)
(-1.34327e-06 1.96279e-05 0.0835893)
(1.93715e-06 4.4185e-05 0.0940748)
(-3.64232e-06 -3.30869e-08 0.0835676)
(-1.98551e-06 6.71931e-06 0.0721747)
(3.47596e-06 -1.76327e-06 0.0721782)
(2.13787e-05 1.77271e-06 0.0940154)
(1.96866e-05 -1.35338e-06 0.0835898)
(4.42545e-05 1.90091e-06 0.0940752)
(-7.35511e-08 -3.64416e-06 0.0835672)
(-6.08142e-05 6.079e-05 0.108928)
(6.09461e-05 -6.09566e-05 0.108928)
(-6.09348e-05 -6.09486e-05 0.108928)
(5.97341e-05 5.97646e-05 0.109153)
(-5.97347e-05 5.97275e-05 0.109153)
(5.96622e-05 -5.96548e-05 0.109152)
(-5.96756e-05 -5.9679e-05 0.109153)
(-6.14985e-05 4.26971e-06 0.102462)
(-6.07476e-05 1.6437e-05 0.0957203)
(-0.000101129 1.86045e-05 0.10862)
(-9.68117e-05 5.96353e-05 0.108021)
(-0.000105354 4.70806e-06 0.102453)
(-2.86636e-05 4.77323e-06 0.0957153)
(-0.000100834 1.85368e-05 0.108686)
(6.87034e-06 -1.62919e-06 0.0721723)
(-1.86362e-06 3.29355e-06 0.0721803)
(4.32935e-06 -6.15737e-05 0.102462)
(1.87665e-05 -0.000101102 0.10862)
(1.62311e-05 -6.01085e-05 0.0957213)
(5.94783e-05 -9.66901e-05 0.108021)
(4.68699e-06 -0.000105347 0.102452)
(1.85708e-05 -0.000100746 0.108686)
(4.7762e-06 -2.89491e-05 0.0957135)
(-2.84886e-05 -1.23213e-05 0.0894008)
(-1.22813e-05 -2.85006e-05 0.0893989)
(7.04364e-06 7.06974e-06 0.106801)
(-1.85789e-05 -1.0308e-06 0.0893671)
(-9.94317e-07 -1.85956e-05 0.0893645)
(1.48785e-06 1.75021e-05 0.0937162)
(-1.06818e-06 1.80445e-05 0.0833667)
(1.6243e-06 3.95815e-05 0.0937644)
(-3.39965e-06 -1.17735e-06 0.0833525)
(-2.06731e-06 6.42365e-06 0.0720241)
(3.32792e-06 -1.88424e-06 0.0720314)
(1.74404e-05 1.46289e-06 0.0937154)
(1.80928e-05 -1.07501e-06 0.0833671)
(3.96074e-05 1.62606e-06 0.0937648)
(-1.2219e-06 -3.41018e-06 0.0833521)
(-5.9353e-05 5.93324e-05 0.109226)
(5.94064e-05 -5.94111e-05 0.109226)
(-5.93997e-05 -5.94075e-05 0.109226)
(5.82751e-05 5.82936e-05 0.109444)
(-5.82855e-05 5.82792e-05 0.109444)
(5.82267e-05 -5.82205e-05 0.109443)
(-5.82617e-05 -5.82391e-05 0.109444)
(-5.49841e-05 3.43086e-06 0.10219)
(-5.63581e-05 1.49317e-05 0.0954292)
(-9.98784e-05 1.80481e-05 0.108878)
(-9.44146e-05 5.86327e-05 0.108194)
(-9.79072e-05 3.84567e-06 0.102184)
(-2.49432e-05 3.6738e-06 0.0954287)
(-9.96158e-05 1.79382e-05 0.10894)
(6.51564e-06 -1.84967e-06 0.0720215)
(-1.84099e-06 3.29301e-06 0.0720334)
(3.55943e-06 -5.48989e-05 0.10219)
(1.81023e-05 -9.98995e-05 0.108878)
(1.4863e-05 -5.59658e-05 0.0954301)
(5.8629e-05 -9.43804e-05 0.108193)
(3.81681e-06 -9.78486e-05 0.102183)
(1.80119e-05 -9.96124e-05 0.10894)
(3.55267e-06 -2.49407e-05 0.095427)
(-2.62489e-05 -1.17085e-05 0.0891484)
(-1.16668e-05 -2.62402e-05 0.0891466)
(9.31564e-06 9.3306e-06 0.106826)
(-1.60438e-05 -2.22485e-07 0.0891223)
(-2.26827e-07 -1.60352e-05 0.0891197)
(1.18054e-06 1.44849e-05 0.0934454)
(-9.88701e-07 1.68585e-05 0.0831659)
(1.3158e-06 3.59765e-05 0.0934839)
(-3.34038e-06 -1.84479e-06 0.0831582)
(-2.17345e-06 6.21482e-06 0.0718873)
(3.1485e-06 -1.92925e-06 0.0718979)
(1.44254e-05 1.16762e-06 0.0934445)
(1.69064e-05 -9.83737e-07 0.0831663)
(3.60075e-05 1.34793e-06 0.0934843)
(-1.88788e-06 -3.33963e-06 0.0831578)
(-5.78681e-05 5.78597e-05 0.109515)
(5.78722e-05 -5.78699e-05 0.109515)
(-5.78826e-05 -5.78645e-05 0.109515)
(5.67635e-05 5.67854e-05 0.109725)
(-5.67872e-05 5.67817e-05 0.109725)
(5.67526e-05 -5.67513e-05 0.109725)
(-5.67952e-05 -5.6767e-05 0.109725)
(-4.86047e-05 2.88635e-06 0.101918)
(-5.2177e-05 1.36411e-05 0.095159)
(-9.87286e-05 1.75667e-05 0.109122)
(-9.19104e-05 5.75479e-05 0.108348)
(-9.03468e-05 3.23667e-06 0.101912)
(-2.16026e-05 2.78328e-06 0.0951627)
(-9.84291e-05 1.74433e-05 0.109181)
(6.19259e-06 -2.08616e-06 0.0718845)
(-1.81734e-06 3.17077e-06 0.0718998)
(2.95832e-06 -4.85467e-05 0.101918)
(1.75764e-05 -9.87436e-05 0.109122)
(1.37013e-05 -5.20986e-05 0.0951599)
(5.76201e-05 -9.19347e-05 0.108347)
(3.22519e-06 -9.03408e-05 0.101912)
(1.7513e-05 -9.84351e-05 0.10918)
(2.64954e-06 -2.14564e-05 0.0951613)
(-2.43362e-05 -1.1208e-05 0.088919)
(-1.12012e-05 -2.433e-05 0.0889172)
(1.16543e-05 1.1699e-05 0.106826)
(-1.39003e-05 2.20728e-07 0.0888995)
(2.20148e-07 -1.38937e-05 0.0888969)
(8.87257e-07 1.20409e-05 0.0932007)
(-1.03555e-06 1.61111e-05 0.0829846)
(1.01199e-06 3.30076e-05 0.0932307)
(-3.36975e-06 -2.22384e-06 0.0829826)
(-2.13298e-06 6.12165e-06 0.071763)
(3.03709e-06 -1.94887e-06 0.0717766)
(1.19831e-05 8.90658e-07 0.0931998)
(1.61617e-05 -1.0258e-06 0.082985)
(3.30472e-05 1.04796e-06 0.093231)
(-2.2557e-06 -3.36412e-06 0.0829822)
(-5.63759e-05 5.63733e-05 0.109794)
(5.6353e-05 -5.63504e-05 0.109794)
(-5.63744e-05 -5.63491e-05 0.109794)
(5.52817e-05 5.52973e-05 0.109997)
(-5.52885e-05 5.52833e-05 0.109998)
(5.52884e-05 -5.52901e-05 0.109997)
(-5.5324e-05 -5.53021e-05 0.109997)
(-4.26489e-05 2.43743e-06 0.101651)
(-4.8483e-05 1.24747e-05 0.0949091)
(-9.74135e-05 1.72095e-05 0.109352)
(-8.91816e-05 5.63752e-05 0.108483)
(-8.32015e-05 2.73352e-06 0.101645)
(-1.87797e-05 1.97784e-06 0.0949167)