/*--------------------------------*- C++ -*----------------------------------*\
| =========                 |                                                 |
| \\      /  F ield         | OpenFOAM: The Open Source CFD Toolbox           |
|  \\    /   O peration     | Version:  v1906                                 |
|   \\  /    A nd           | Web:      www.OpenFOAM.com                      |
|    \\/     M anipulation  |                                                 |
\*---------------------------------------------------------------------------*/
FoamFile
{
    version     2.0;
    format      ascii;
    class       volVectorField;
    location    "250";
    object      U;
}
// * * * * * * * * * * * * * * * * * * * * * * * * * * * * * * * * * * * * * //

dimensions      [0 1 -1 0 0 0 0];


internalField   nonuniform List<vector> 
43024
(
(-5.65502e-07 -5.80578e-07 0.112001)
(-3.29349e-07 7.75284e-07 0.107735)
(7.65313e-07 -3.24261e-07 0.107734)
(-3.2793e-05 -3.28e-05 0.104592)
(-5.21812e-07 -5.18072e-07 0.112001)
(-3.45378e-07 7.38433e-07 0.107735)
(7.37036e-07 -3.55744e-07 0.107734)
(-3.28212e-05 -3.28285e-05 0.104592)
(-4.65609e-07 -4.53723e-07 0.112001)
(-3.90288e-07 7.46025e-07 0.107735)
(7.48265e-07 -3.83772e-07 0.107734)
(-3.28819e-05 -3.28695e-05 0.104592)
(-4.55239e-07 -4.68391e-07 0.112002)
(-4.81915e-07 8.13986e-07 0.107735)
(8.05033e-07 -4.6592e-07 0.107734)
(-3.29124e-05 -3.29079e-05 0.104592)
(-4.72985e-07 -4.79096e-07 0.112002)
(-4.16266e-07 7.80147e-07 0.107736)
(7.92672e-07 -4.31142e-07 0.107735)
(-3.28981e-05 -3.29128e-05 0.104592)
(-5.07326e-07 -5.0398e-07 0.112002)
(-3.5414e-07 7.47021e-07 0.107736)
(7.54835e-07 -3.44868e-07 0.107735)
(-3.28667e-05 -3.2856e-05 0.104592)
(-6.05137e-07 -5.94906e-07 0.112002)
(-2.09459e-07 6.30568e-07 0.107736)
(6.30856e-07 -2.16362e-07 0.107735)
(-3.26871e-05 -3.26852e-05 0.104592)
(-7.24613e-07 -6.99869e-07 0.112002)
(-1.53664e-07 5.9579e-07 0.107735)
(5.85473e-07 -1.36856e-07 0.107734)
(-3.26552e-05 -3.26442e-05 0.104592)
(-6.74029e-07 -6.97376e-07 0.112001)
(-2.53727e-07 6.48014e-07 0.107735)
(6.59098e-07 -2.55539e-07 0.107735)
(-3.27758e-05 -3.27795e-05 0.104592)
(-5.7141e-07 -5.74889e-07 0.112002)
(-2.88186e-07 6.78264e-07 0.107736)
(6.54154e-07 -2.79772e-07 0.107735)
(-3.28029e-05 -3.28049e-05 0.104592)
(-5.50941e-07 -5.51515e-07 0.112002)
(-3.17983e-07 6.91932e-07 0.107736)
(7.13796e-07 -3.24606e-07 0.107735)
(-3.28283e-05 -3.28076e-05 0.104592)
(-5.26207e-07 -5.24883e-07 0.112002)
(-3.44752e-07 7.1975e-07 0.107736)
(7.05837e-07 -3.30311e-07 0.107735)
(-3.28616e-05 -3.28576e-05 0.104592)
(-5.45015e-07 -5.22344e-07 0.112003)
(-3.04033e-07 7.08618e-07 0.107736)
(6.92539e-07 -3.03687e-07 0.107736)
(-3.28621e-05 -3.28502e-05 0.104592)
(-5.76822e-07 -5.79071e-07 0.112004)
(-2.65427e-07 6.75111e-07 0.107737)
(6.92441e-07 -2.68121e-07 0.107736)
(-3.27906e-05 -3.27985e-05 0.104592)
(-6.32251e-07 -6.42604e-07 0.112005)
(-2.36521e-07 6.29529e-07 0.107738)
(6.18922e-07 -2.27382e-07 0.107737)
(-3.27212e-05 -3.27103e-05 0.104592)
(-6.91318e-07 -6.84327e-07 0.112008)
(-2.16398e-07 6.23568e-07 0.107739)
(6.34638e-07 -2.18455e-07 0.107738)
(-3.26006e-05 -3.26024e-05 0.104592)
(-8.80443e-07 -8.59443e-07 0.112011)
(-3.24445e-07 7.6853e-07 0.10774)
(7.70833e-07 -3.1352e-07 0.107739)
(-3.23431e-05 -3.23389e-05 0.104592)
(-1.19679e-06 -1.21906e-06 0.112016)
(-7.05983e-07 1.15237e-06 0.107742)
(1.15911e-06 -6.94041e-07 0.107741)
(-3.15297e-05 -3.15307e-05 0.104594)
(-2.36282e-06 -2.33346e-06 0.112024)
(-2.00278e-06 2.53137e-06 0.107744)
(2.51741e-06 -2.01863e-06 0.107744)
(-2.93187e-05 -2.93132e-05 0.104601)
(-1.02598e-05 -1.0212e-05 0.112034)
(-1.82968e-06 4.18486e-06 0.107749)
(4.13724e-06 -1.78778e-06 0.107748)
(-1.90147e-05 -1.89745e-05 0.10464)
(-2.51882e-05 -2.51085e-05 0.112144)
(8.37717e-05 -4.94641e-05 0.108034)
(-4.95354e-05 8.37473e-05 0.108033)
(3.87181e-05 3.87142e-05 0.104998)
(-3.40661e-05 -3.40706e-05 0.104693)
(7.56935e-07 3.35917e-07 0.107733)
(-7.77347e-07 3.59633e-07 0.107733)
(3.40598e-05 -3.40567e-05 0.104693)
(3.30897e-07 7.19417e-07 0.107734)
(3.55828e-07 -7.62454e-07 0.107732)
(-3.29561e-07 7.4436e-07 0.107735)
(-3.49384e-07 -7.55305e-07 0.107733)
(-3.40598e-05 3.40718e-05 0.104693)
(7.32349e-07 -3.2178e-07 0.107734)
(-7.25457e-07 -3.32183e-07 0.107734)
(3.40625e-05 3.40624e-05 0.104692)
(3.28007e-05 3.27809e-05 0.104593)
(-3.40566e-05 -3.40401e-05 0.104693)
(7.78589e-07 3.44001e-07 0.107733)
(-7.90528e-07 3.6588e-07 0.107733)
(7.18121e-07 3.62234e-07 0.107733)
(-6.99267e-07 3.86296e-07 0.107732)
(-3.28047e-05 3.27858e-05 0.104592)
(3.40649e-05 -3.40334e-05 0.104693)
(3.33907e-07 7.3825e-07 0.107735)
(3.62047e-07 -7.77499e-07 0.107732)
(3.41893e-07 7.02047e-07 0.107734)
(3.77502e-07 -7.25025e-07 0.107732)
(-3.50031e-07 -7.77856e-07 0.107733)
(-3.2931e-07 7.13917e-07 0.107735)
(-3.56612e-07 -7.22865e-07 0.107732)
(3.27816e-05 -3.28092e-05 0.104592)
(-3.40304e-05 3.40481e-05 0.104692)
(-7.48408e-07 -3.35377e-07 0.107734)
(7.06905e-07 -3.34911e-07 0.107734)
(-6.81446e-07 -3.4781e-07 0.107734)
(3.40457e-05 3.40414e-05 0.104692)
(3.28152e-05 3.28183e-05 0.104592)
(-3.39997e-05 -3.39875e-05 0.104693)
(7.45736e-07 3.88734e-07 0.107733)
(-7.22869e-07 4.05549e-07 0.107732)
(8.06414e-07 4.26276e-07 0.107733)
(-7.9027e-07 4.33745e-07 0.107732)
(-3.28045e-05 3.28091e-05 0.104592)
(3.40131e-05 -3.40074e-05 0.104693)
(3.59195e-07 7.33282e-07 0.107734)
(3.95411e-07 -7.51969e-07 0.107732)
(3.9559e-07 7.90361e-07 0.107734)
(4.21609e-07 -7.99187e-07 0.107732)
(-3.82144e-07 -7.58432e-07 0.107732)
(-3.8726e-07 7.6497e-07 0.107735)
(-4.35308e-07 -8.11722e-07 0.107732)
(3.28156e-05 -3.2842e-05 0.104592)
(-3.40052e-05 3.40095e-05 0.104693)
(-7.21597e-07 -3.69297e-07 0.107734)
(7.70659e-07 -3.91417e-07 0.107734)
(-7.98383e-07 -4.10658e-07 0.107734)
(3.39772e-05 3.39939e-05 0.104692)
(3.28724e-05 3.2864e-05 0.104592)
(-3.39197e-05 -3.39238e-05 0.104693)
(7.9025e-07 4.21767e-07 0.107733)
(-7.84902e-07 4.22473e-07 0.107733)
(8.61867e-07 4.83046e-07 0.107733)
(-8.74875e-07 4.8615e-07 0.107733)
(-3.2861e-05 3.28325e-05 0.104592)
(3.39073e-05 -3.39338e-05 0.104693)
(3.94921e-07 7.70477e-07 0.107735)
(4.15279e-07 -7.80073e-07 0.107732)
(4.79061e-07 8.27728e-07 0.107734)
(4.90463e-07 -8.49716e-07 0.107732)
(-4.34491e-07 -7.91197e-07 0.107733)
(-4.8697e-07 8.1835e-07 0.107735)
(-5.1249e-07 -8.24081e-07 0.107732)
(3.2835e-05 -3.28745e-05 0.104592)
(-3.3925e-05 3.39273e-05 0.104693)
(-7.82777e-07 -4.04519e-07 0.107734)
(8.11167e-07 -4.63257e-07 0.107734)
(-8.18387e-07 -4.83867e-07 0.107734)
(3.39224e-05 3.39387e-05 0.104692)
(3.29308e-05 3.29095e-05 0.104592)
(-3.39734e-05 -3.39665e-05 0.104693)
(8.40397e-07 4.81969e-07 0.107733)
(-8.55249e-07 4.89742e-07 0.107733)
(7.73313e-07 4.61451e-07 0.107734)
(-7.63987e-07 4.89382e-07 0.107733)
(-3.294e-05 3.28947e-05 0.104592)
(3.39923e-05 -3.39487e-05 0.104694)
(4.74712e-07 8.02744e-07 0.107735)
(4.87481e-07 -8.39085e-07 0.107732)
(4.4701e-07 7.40518e-07 0.107735)
(4.74447e-07 -7.94766e-07 0.107732)
(-5.06362e-07 -8.13223e-07 0.107733)
(-4.31002e-07 7.60195e-07 0.107735)
(-4.66853e-07 -7.73184e-07 0.107733)
(3.29e-05 -3.29407e-05 0.104592)
(-3.39449e-05 3.39617e-05 0.104693)
(-7.90203e-07 -4.82373e-07 0.107734)
(7.75373e-07 -4.4371e-07 0.107734)
(-7.27417e-07 -4.65135e-07 0.107734)
(3.39695e-05 3.39576e-05 0.104693)
(3.28947e-05 3.28865e-05 0.104593)
(-3.40043e-05 -3.4001e-05 0.104694)
(7.88289e-07 4.60461e-07 0.107734)
(-7.68956e-07 4.85217e-07 0.107733)
(7.91729e-07 4.19624e-07 0.107734)
(-7.80869e-07 4.40052e-07 0.107733)
(-3.28765e-05 3.28942e-05 0.104593)
(3.40114e-05 -3.4004e-05 0.104694)
(4.38457e-07 7.61339e-07 0.107735)
(4.71144e-07 -8.01264e-07 0.107732)
(4.05722e-07 7.66173e-07 0.107735)
(4.43311e-07 -7.86337e-07 0.107732)
(-4.58427e-07 -7.96886e-07 0.107733)
(-3.89742e-07 7.69467e-07 0.107736)
(-4.24929e-07 -7.84142e-07 0.107733)
(3.29067e-05 -3.29278e-05 0.104592)
(-3.3988e-05 3.40138e-05 0.104693)
(-7.52238e-07 -4.56283e-07 0.107734)
(7.82499e-07 -3.85605e-07 0.107735)
(-7.72778e-07 -4.08258e-07 0.107734)
(3.39889e-05 3.4003e-05 0.104693)
(3.28557e-05 3.2844e-05 0.104593)
(-3.41411e-05 -3.41339e-05 0.104693)
(7.67996e-07 3.76664e-07 0.107734)
(-7.64047e-07 3.86197e-07 0.107733)
(7.417e-07 2.91943e-07 0.107734)
(-7.45678e-07 2.86909e-07 0.107733)
(-3.28535e-05 3.28286e-05 0.104593)
(3.41439e-05 -3.41568e-05 0.104694)
(3.63743e-07 7.44459e-07 0.107735)
(3.93475e-07 -7.60853e-07 0.107733)
(2.68538e-07 7.11465e-07 0.107735)
(2.79955e-07 -7.35151e-07 0.107732)
(-3.84115e-07 -7.63104e-07 0.107733)
(-2.75822e-07 6.8442e-07 0.107735)
(-3.01781e-07 -7.19425e-07 0.107733)
(3.28486e-05 -3.28689e-05 0.104592)
(-3.41649e-05 3.415e-05 0.104693)
(-7.59934e-07 -3.61838e-07 0.107735)
(6.80426e-07 -2.7941e-07 0.107734)
(-7.04017e-07 -2.77438e-07 0.107734)
(3.41501e-05 3.4158e-05 0.104693)
(3.27053e-05 3.2698e-05 0.104593)
(-3.42111e-05 -3.41973e-05 0.104693)
(6.83399e-07 2.35864e-07 0.107734)
(-6.87267e-07 2.25443e-07 0.107733)
(6.30273e-07 2.09522e-07 0.107733)
(-6.23826e-07 2.28912e-07 0.107732)
(-3.2701e-05 3.26655e-05 0.104593)
(3.42209e-05 -3.42037e-05 0.104693)
(2.0188e-07 6.58783e-07 0.107735)
(2.13716e-07 -6.80433e-07 0.107732)
(1.86057e-07 6.26133e-07 0.107734)
(2.2182e-07 -6.19302e-07 0.107732)
(-2.36944e-07 -6.59791e-07 0.107733)
(-1.73608e-07 6.14697e-07 0.107735)
(-2.1737e-07 -6.16592e-07 0.107732)
(3.2659e-05 -3.27133e-05 0.104592)
(-3.41937e-05 3.42188e-05 0.104693)
(-6.50326e-07 -2.14351e-07 0.107734)
(5.95173e-07 -1.62327e-07 0.107734)
(-6.02481e-07 -1.85494e-07 0.107734)
(3.4186e-05 3.42019e-05 0.104692)
(3.26379e-05 3.26323e-05 0.104592)
(-3.40662e-05 -3.40655e-05 0.104693)
(6.2362e-07 1.91897e-07 0.107733)
(-6.07487e-07 2.08703e-07 0.107733)
(6.88102e-07 2.76198e-07 0.107733)
(-6.71511e-07 2.8864e-07 0.107732)
(-3.2631e-05 3.26171e-05 0.104592)
(3.40853e-05 -3.40642e-05 0.104693)
(1.69104e-07 6.05293e-07 0.107735)
(2.08507e-07 -5.97732e-07 0.107732)
(2.64187e-07 6.50774e-07 0.107734)
(2.79622e-07 -6.70131e-07 0.107732)
(-2.03492e-07 -5.9963e-07 0.107733)
(-2.63546e-07 6.69015e-07 0.107735)
(-2.93434e-07 -6.95258e-07 0.107732)
(3.26285e-05 -3.26476e-05 0.104592)
(-3.40595e-05 3.40808e-05 0.104693)
(-5.89491e-07 -1.67401e-07 0.107734)
(6.74193e-07 -2.53733e-07 0.107734)
(-6.66289e-07 -2.68237e-07 0.107733)
(3.40637e-05 3.40641e-05 0.104692)
(3.27859e-05 3.27707e-05 0.104592)
(-3.40915e-05 -3.40758e-05 0.104693)
(6.92731e-07 2.7999e-07 0.107734)
(-6.91405e-07 2.88869e-07 0.107733)
(7.12324e-07 3.35088e-07 0.107733)
(-7.24639e-07 3.56422e-07 0.107732)
(-3.2765e-05 3.275e-05 0.104592)
(3.40639e-05 -3.40581e-05 0.104694)
(2.64691e-07 6.51414e-07 0.107735)
(2.73145e-07 -6.85879e-07 0.107732)
(3.19663e-07 6.96975e-07 0.107734)
(3.43199e-07 -7.46165e-07 0.107731)
(-2.79192e-07 -6.7481e-07 0.107733)
(-3.08919e-07 7.12241e-07 0.107735)
(-3.40505e-07 -7.28974e-07 0.107732)
(3.27658e-05 -3.27953e-05 0.104592)
(-3.4081e-05 3.40722e-05 0.104693)
(-6.48769e-07 -2.64064e-07 0.107734)
(6.9424e-07 -3.14527e-07 0.107734)
(-6.82915e-07 -3.29054e-07 0.107733)
(3.40648e-05 3.40698e-05 0.104693)
(3.27702e-05 3.27705e-05 0.104592)
(-3.40233e-05 -3.40137e-05 0.104693)
(6.46686e-07 3.00486e-07 0.107734)
(-6.58618e-07 3.15309e-07 0.107733)
(8.07377e-07 4.25285e-07 0.107733)
(-8.3637e-07 4.441e-07 0.107732)
(-3.27925e-05 3.27804e-05 0.104593)
(3.40131e-05 -3.40296e-05 0.104693)
(2.78301e-07 6.32766e-07 0.107735)
(3.07686e-07 -6.79872e-07 0.107732)
(4.0459e-07 7.84491e-07 0.107734)
(4.38922e-07 -8.22723e-07 0.107731)
(-3.19719e-07 -6.90994e-07 0.107733)
(-3.99815e-07 7.79065e-07 0.107734)
(-4.29056e-07 -7.92966e-07 0.107732)
(3.27673e-05 -3.28104e-05 0.104592)
(-3.39953e-05 3.40155e-05 0.104693)
(-6.44206e-07 -2.96278e-07 0.107734)
(8.07279e-07 -4.01603e-07 0.107734)
(-8.06976e-07 -4.19303e-07 0.107733)
(3.40117e-05 3.40379e-05 0.104693)
(3.28241e-05 3.28161e-05 0.104593)
(-3.39935e-05 -3.39868e-05 0.104693)
(7.31866e-07 3.54586e-07 0.107734)
(-7.56903e-07 3.7269e-07 0.107733)
(8.07956e-07 4.37387e-07 0.107732)
(-7.974e-07 4.45171e-07 0.107732)
(-3.28378e-05 3.27889e-05 0.104592)
(3.3994e-05 -3.39797e-05 0.104693)
(3.34264e-07 7.08159e-07 0.107735)
(3.67322e-07 -7.4917e-07 0.107733)
(4.20219e-07 7.80876e-07 0.107734)
(4.49934e-07 -7.97322e-07 0.107731)
(-3.48683e-07 -7.13246e-07 0.107733)
(-4.36428e-07 7.98379e-07 0.107734)
(-4.76713e-07 -8.24526e-07 0.107732)
(3.28188e-05 -3.28461e-05 0.104592)
(-3.39905e-05 3.39931e-05 0.104693)
(-7.16898e-07 -3.44201e-07 0.107735)
(7.74021e-07 -4.14626e-07 0.107733)
(-7.86837e-07 -4.29714e-07 0.107733)
(3.39725e-05 3.39807e-05 0.104692)
(3.28556e-05 3.28455e-05 0.104592)
(-3.39733e-05 -3.39502e-05 0.104693)
(7.34852e-07 3.54068e-07 0.107734)
(-7.31646e-07 3.54553e-07 0.107733)
(8.492e-07 4.83073e-07 0.107732)
(-8.54701e-07 4.88061e-07 0.107732)
(-3.28508e-05 3.28344e-05 0.104592)
(3.39707e-05 -3.39898e-05 0.104694)
(3.26848e-07 7.11103e-07 0.107735)
(3.5226e-07 -7.21659e-07 0.107733)
(4.56792e-07 8.47779e-07 0.107733)
(4.78412e-07 -8.53279e-07 0.107731)
(-3.90577e-07 -7.47142e-07 0.107733)
(-4.38841e-07 7.8228e-07 0.107734)
(-4.82566e-07 -7.88387e-07 0.107731)
(3.28344e-05 -3.28703e-05 0.104592)
(-3.39681e-05 3.3966e-05 0.104693)
(-7.20764e-07 -3.33259e-07 0.107735)
(8.27036e-07 -4.52505e-07 0.107733)
(-8.37398e-07 -4.68106e-07 0.107733)
(3.39545e-05 3.39925e-05 0.104693)
(3.28561e-05 3.2861e-05 0.104592)
(-3.40137e-05 -3.40065e-05 0.104693)
(7.12797e-07 3.38207e-07 0.107735)
(-7.19308e-07 3.4364e-07 0.107734)
(8.31771e-07 4.79783e-07 0.107732)
(-8.36494e-07 4.96974e-07 0.107731)
(-3.28633e-05 3.28327e-05 0.104593)
(3.40152e-05 -3.40093e-05 0.104694)
(3.0607e-07 7.08505e-07 0.107736)
(3.28873e-07 -7.26481e-07 0.107733)
(4.58952e-07 8.05947e-07 0.107733)
(4.84081e-07 -8.37169e-07 0.10773)
(-3.40231e-07 -7.09583e-07 0.107734)
(-4.6273e-07 8.13553e-07 0.107734)
(-4.89775e-07 -8.42945e-07 0.107731)
(3.28376e-05 -3.28783e-05 0.104592)
(-3.40162e-05 3.40143e-05 0.104693)
(-6.87458e-07 -3.21423e-07 0.107735)
(8.03048e-07 -4.50865e-07 0.107733)
(-8.03552e-07 -4.81367e-07 0.107732)
(3.40024e-05 3.39954e-05 0.104693)
(3.27922e-05 3.27815e-05 0.104592)
(-3.39633e-05 -3.39728e-05 0.104693)
(7.02399e-07 2.88993e-07 0.107735)
(-7.10755e-07 3.03874e-07 0.107735)
(8.25926e-07 4.9503e-07 0.107731)
(-8.30303e-07 5.09375e-07 0.10773)
(-3.27887e-05 3.27637e-05 0.104592)
(3.3965e-05 -3.39772e-05 0.104693)
(2.71438e-07 6.71935e-07 0.107736)
(2.94152e-07 -7.1918e-07 0.107734)
(4.81612e-07 7.74248e-07 0.107732)
(5.01869e-07 -8.09175e-07 0.10773)
(-2.96605e-07 -7.13092e-07 0.107735)
(-4.75365e-07 7.63369e-07 0.107733)
(-5.10358e-07 -7.85203e-07 0.10773)
(3.27683e-05 -3.28076e-05 0.104592)
(-3.3965e-05 3.39738e-05 0.104693)
(-6.86602e-07 -2.93035e-07 0.107736)
(7.79457e-07 -4.76105e-07 0.107732)
(-7.79426e-07 -4.89231e-07 0.107732)
(3.3955e-05 3.39746e-05 0.104692)
(3.27269e-05 3.27021e-05 0.104592)
(-3.38823e-05 -3.38443e-05 0.104693)
(6.82297e-07 2.62026e-07 0.107736)
(-6.85985e-07 2.72026e-07 0.107735)
(7.8903e-07 5.07593e-07 0.10773)
(-7.97739e-07 5.29819e-07 0.107729)
(-3.27262e-05 3.26867e-05 0.104592)
(3.38802e-05 -3.3849e-05 0.104693)
(2.43156e-07 6.37912e-07 0.107737)
(2.62542e-07 -6.61698e-07 0.107735)
(4.94795e-07 8.05554e-07 0.107731)
(5.23475e-07 -8.36745e-07 0.107729)
(-2.76024e-07 -6.45031e-07 0.107735)
(-4.99998e-07 8.09759e-07 0.107732)
(-5.34513e-07 -8.31389e-07 0.107729)
(3.26922e-05 -3.27288e-05 0.104592)
(-3.38262e-05 3.38362e-05 0.104693)
(-6.2998e-07 -2.48948e-07 0.107736)
(8.22729e-07 -4.92017e-07 0.107731)
(-8.17415e-07 -5.16457e-07 0.107731)
(3.38204e-05 3.38277e-05 0.104692)
(3.25493e-05 3.25693e-05 0.104592)
(-3.35642e-05 -3.35563e-05 0.104693)
(6.14194e-07 2.35605e-07 0.107737)
(-6.22232e-07 2.49417e-07 0.107736)
(7.50215e-07 4.9329e-07 0.107729)
(-7.46101e-07 5.07519e-07 0.107728)
(-3.25481e-05 3.2552e-05 0.104592)
(3.35623e-05 -3.35539e-05 0.104693)
(2.12685e-07 6.21426e-07 0.107738)
(2.38593e-07 -6.49902e-07 0.107736)
(4.48728e-07 7.1402e-07 0.10773)
(4.84191e-07 -7.35618e-07 0.107727)
(-2.47715e-07 -6.34792e-07 0.107736)
(-4.48407e-07 7.17486e-07 0.10773)
(-4.9045e-07 -7.3413e-07 0.107728)
(3.25824e-05 -3.26091e-05 0.104592)
(-3.35731e-05 3.35842e-05 0.104692)
(-6.15296e-07 -2.38945e-07 0.107738)
(7.0702e-07 -4.4326e-07 0.10773)
(-7.03636e-07 -4.59924e-07 0.107729)
(3.35792e-05 3.35868e-05 0.104692)
(3.23417e-05 3.23359e-05 0.104592)
(-3.30276e-05 -3.30399e-05 0.104692)
(7.88941e-07 3.52754e-07 0.107738)
(-7.9573e-07 3.67159e-07 0.107738)
(3.68377e-07 1.91525e-07 0.107727)
(-3.54526e-07 2.04219e-07 0.107726)
(-3.23409e-05 3.23222e-05 0.104592)
(3.30367e-05 -3.30387e-05 0.104692)
(3.28683e-07 7.77051e-07 0.10774)
(3.54997e-07 -8.05019e-07 0.107737)
(1.9218e-07 3.25956e-07 0.107728)
(2.24691e-07 -3.55543e-07 0.107726)
(-3.56845e-07 -7.87925e-07 0.107738)
(-1.83534e-07 3.28534e-07 0.107729)
(-2.16481e-07 -3.54139e-07 0.107726)
(3.23339e-05 -3.23546e-05 0.104592)
(-3.30393e-05 3.3059e-05 0.104691)
(-7.7341e-07 -3.27538e-07 0.107739)
(3.44932e-07 -1.71817e-07 0.107728)
(-3.44249e-07 -1.79469e-07 0.107728)
(3.30427e-05 3.30613e-05 0.104691)
(3.15615e-05 3.15361e-05 0.104594)
(-3.13494e-05 -3.13275e-05 0.104685)
(1.20878e-06 7.2149e-07 0.10774)
(-1.19026e-06 7.20197e-07 0.10774)
(-7.34784e-07 -7.11886e-07 0.107725)
(7.08214e-07 -6.99072e-07 0.107724)
(-3.1553e-05 3.15277e-05 0.104594)
(3.13403e-05 -3.13257e-05 0.104685)
(7.2281e-07 1.16614e-06 0.107741)
(7.30932e-07 -1.18755e-06 0.107739)
(-7.64981e-07 -7.46536e-07 0.107726)
(-7.23696e-07 7.24852e-07 0.107723)
(-7.31775e-07 -1.18922e-06 0.107739)
(7.51465e-07 -7.27302e-07 0.107727)
(7.23528e-07 7.19519e-07 0.107724)
(3.15276e-05 -3.15396e-05 0.104594)
(-3.13367e-05 3.13351e-05 0.104685)
(-1.16254e-06 -6.99585e-07 0.107741)
(-7.49536e-07 7.45385e-07 0.107726)
(7.28925e-07 7.43108e-07 0.107725)
(3.13203e-05 3.13307e-05 0.104684)
(2.93e-05 2.93197e-05 0.104602)
(-2.57073e-05 -2.56648e-05 0.104656)
(2.53487e-06 2.04732e-06 0.107743)
(-2.55225e-06 2.05299e-06 0.107742)
(-5.05381e-06 -5.29275e-06 0.107723)
(5.02826e-06 -5.28507e-06 0.107722)
(-2.93095e-05 2.9323e-05 0.104602)
(2.56711e-05 -2.56771e-05 0.104656)
(1.99842e-06 2.53314e-06 0.107744)
(2.03042e-06 -2.5635e-06 0.107741)
(-5.32374e-06 -5.01425e-06 0.107724)
(-5.30244e-06 5.03102e-06 0.107722)
(-2.03107e-06 -2.54399e-06 0.107742)
(5.30609e-06 -4.99457e-06 0.107725)
(5.29108e-06 5.04e-06 0.107723)
(2.93085e-05 -2.93218e-05 0.104602)
(-2.56973e-05 2.56744e-05 0.104655)
(-2.53061e-06 -2.02346e-06 0.107743)
(-5.04129e-06 5.32941e-06 0.107724)
(5.04162e-06 5.32917e-06 0.107724)
(2.56583e-05 2.56753e-05 0.104655)
(1.89458e-05 1.90144e-05 0.10464)
(-4.62045e-05 -4.60925e-05 0.104613)
(4.1461e-06 1.84253e-06 0.107747)
(-4.17885e-06 1.85492e-06 0.107747)
(-3.61467e-05 -5.35577e-05 0.107781)
(3.61352e-05 -5.35726e-05 0.107781)
(-1.89799e-05 1.90339e-05 0.10464)
(4.62143e-05 -4.60977e-05 0.104613)
(1.78593e-06 4.15703e-06 0.107749)
(1.81612e-06 -4.13225e-06 0.107746)
(-5.37446e-05 -3.60811e-05 0.107783)
(-5.3678e-05 3.61596e-05 0.107781)
(-1.84071e-06 -4.14163e-06 0.107747)
(5.37367e-05 -3.6089e-05 0.107783)
(5.36784e-05 3.61787e-05 0.107781)
(1.89699e-05 -1.89779e-05 0.10464)
(-4.6174e-05 4.61974e-05 0.104613)
(-4.13665e-06 -1.78911e-06 0.107748)
(-3.61249e-05 5.37128e-05 0.107783)
(3.61284e-05 5.37317e-05 0.107782)
(4.61874e-05 4.61976e-05 0.104612)
(-3.8723e-05 -3.86069e-05 0.104998)
(-4.95592e-05 -8.36007e-05 0.108033)
(4.95467e-05 -8.36455e-05 0.108032)
(3.87201e-05 -3.86116e-05 0.104998)
(-8.38069e-05 -4.94524e-05 0.108034)
(-8.37692e-05 4.95529e-05 0.108032)
(2.51921e-05 -2.51001e-05 0.112144)
(-2.5198e-05 2.51951e-05 0.112143)
(2.52234e-05 2.51987e-05 0.112143)
(8.37482e-05 4.95817e-05 0.108032)
(-3.87085e-05 3.87002e-05 0.104998)
(4.95386e-05 8.38006e-05 0.108033)
(-2.85192e-08 -6.28555e-06 0.091848)
(-1.23123e-06 -6.06387e-06 0.08267)
(1.97821e-06 -2.75999e-06 0.0719668)
(-6.31849e-06 -2.63072e-08 0.0918474)
(-6.05003e-06 -1.20794e-06 0.0826704)
(-5.95337e-07 -6.07649e-07 0.112001)
(5.67966e-07 -5.76061e-07 0.112001)
(-5.72525e-07 5.72466e-07 0.112)
(5.83344e-07 5.79187e-07 0.112)
(1.13003e-05 1.60872e-08 0.0990312)
(-3.19975e-07 6.61293e-07 0.107735)
(9.34512e-06 -3.08412e-06 0.0934954)
(-4.54181e-07 -1.27176e-07 0.109919)
(-2.69041e-06 1.93335e-06 0.071968)
(2.29468e-09 1.12935e-05 0.0990312)
(6.65681e-07 -3.09257e-07 0.107734)
(-1.16606e-07 -4.38005e-07 0.109918)
(-3.12058e-06 9.3771e-06 0.0934949)
(3.40723e-05 3.40807e-05 0.104692)
(3.3681e-06 3.50311e-06 0.088002)
(3.51617e-06 3.37074e-06 0.0880002)
(-2.52837e-08 -6.31133e-06 0.091848)
(4.91069e-07 6.4544e-06 0.0826347)
(-6.66125e-08 5.79153e-06 0.0918187)
(-1.26326e-06 -6.05382e-06 0.0826704)
(-1.79426e-06 2.9511e-06 0.0719322)
(2.00031e-06 -2.74372e-06 0.0719673)
(-6.33554e-06 -2.56143e-08 0.0918474)
(6.42693e-06 4.81311e-07 0.0826338)
(5.82907e-06 -5.99091e-08 0.091819)
(-6.03495e-06 -1.24172e-06 0.0826707)
(5.5291e-07 -5.44577e-07 0.112001)
(-5.42448e-07 5.57238e-07 0.112)
(5.66335e-07 5.60019e-07 0.112)
(-5.06326e-07 -5.06765e-07 0.112001)
(5.37182e-07 -4.90597e-07 0.112001)
(-4.89329e-07 5.15967e-07 0.112)
(5.35241e-07 5.08279e-07 0.112)
(1.1253e-05 3.25275e-08 0.0990311)
(-9.9598e-06 2.69774e-06 0.0934514)
(-4.30841e-07 -6.28523e-08 0.109919)
(-3.28855e-07 7.57028e-07 0.107735)
(-1.09352e-05 -3.02235e-08 0.098986)
(9.31645e-06 -3.16062e-06 0.0934955)
(-4.5235e-07 -5.78605e-08 0.109919)
(2.87374e-06 -1.75144e-06 0.0719296)
(-2.66652e-06 1.9631e-06 0.0719685)
(2.63279e-08 1.12395e-05 0.0990311)
(-6.46594e-08 -4.22589e-07 0.109918)
(2.71549e-06 -9.98974e-06 0.0934519)
(7.53332e-07 -3.25737e-07 0.107734)
(-2.5082e-08 -1.09206e-05 0.0989858)
(-5.09946e-08 -4.49034e-07 0.109918)
(-3.18889e-06 9.35645e-06 0.093495)
(-3.73652e-06 -3.46379e-06 0.0879707)
(-3.45101e-06 -3.73035e-06 0.0879694)
(3.40502e-05 3.40471e-05 0.104692)
(3.3095e-06 3.55316e-06 0.0880022)
(3.56468e-06 3.31077e-06 0.0880004)
(-2.70643e-08 -6.28727e-06 0.091848)
(5.14114e-07 6.4832e-06 0.0826348)
(-7.79361e-08 5.89872e-06 0.0918187)
(-1.26943e-06 -6.04073e-06 0.0826704)
(-1.8212e-06 2.9526e-06 0.0719323)
(1.98274e-06 -2.7416e-06 0.0719673)
(-6.31528e-06 -2.34883e-08 0.0918474)
(6.4618e-06 4.87602e-07 0.082634)
(5.92781e-06 -6.78139e-08 0.0918191)
(-6.01642e-06 -1.25861e-06 0.0826707)
(5.62302e-07 -5.10131e-07 0.112001)
(-5.08103e-07 5.35453e-07 0.112)
(5.52222e-07 5.22713e-07 0.112)
(-4.89868e-07 -4.76894e-07 0.112001)
(5.16452e-07 -4.88561e-07 0.112001)
(-4.8857e-07 5.00109e-07 0.112)
(4.94166e-07 4.77151e-07 0.112)
(1.11789e-05 1.30206e-08 0.0990312)
(-1.00162e-05 2.80107e-06 0.0934514)
(-4.63471e-07 -9.33734e-08 0.109919)
(-3.73242e-07 7.70447e-07 0.107735)
(-1.09499e-05 -3.4644e-08 0.0989861)
(9.25103e-06 -3.16894e-06 0.0934954)
(-4.86689e-07 -8.89988e-08 0.109919)
(2.88163e-06 -1.76116e-06 0.0719298)
(-2.65951e-06 1.94738e-06 0.0719685)
(6.92801e-09 1.11588e-05 0.0990312)
(-8.18819e-08 -4.70468e-07 0.109918)
(2.81289e-06 -1.00428e-05 0.093452)
(7.7832e-07 -3.85257e-07 0.107734)
(-2.69652e-08 -1.0941e-05 0.0989858)
(-7.09067e-08 -4.94206e-07 0.109918)
(-3.19459e-06 9.28585e-06 0.093495)
(-3.74564e-06 -3.50576e-06 0.0879708)
(-3.49083e-06 -3.74314e-06 0.0879695)
(3.39788e-05 3.39881e-05 0.104692)
(3.31502e-06 3.52898e-06 0.0880022)
(3.54483e-06 3.31137e-06 0.0880004)
(-3.38749e-08 -6.20952e-06 0.0918478)
(5.14829e-07 6.51406e-06 0.0826347)
(-7.55575e-08 5.94655e-06 0.0918186)
(-1.2539e-06 -6.01886e-06 0.0826701)
(-1.80813e-06 2.97167e-06 0.0719321)
(1.9906e-06 -2.72361e-06 0.071967)
(-6.24093e-06 -3.68367e-08 0.0918471)
(6.48999e-06 4.87014e-07 0.0826338)
(5.97856e-06 -7.06184e-08 0.0918189)
(-6.00241e-06 -1.23941e-06 0.0826705)
(4.82866e-07 -4.68879e-07 0.112001)
(-4.6801e-07 4.77938e-07 0.112)
(4.60941e-07 4.54607e-07 0.112001)
(-4.57914e-07 -4.62691e-07 0.112001)
(4.48025e-07 -4.70896e-07 0.112001)
(-4.73347e-07 4.79683e-07 0.112)
(4.59538e-07 4.67813e-07 0.112001)
(1.11808e-05 1.80078e-08 0.0990312)
(-1.00282e-05 2.80425e-06 0.0934514)
(-5.34693e-07 -8.95806e-08 0.109919)
(-4.23339e-07 7.56273e-07 0.107735)
(-1.10152e-05 -2.45313e-08 0.0989859)
(9.25486e-06 -3.09311e-06 0.0934953)
(-5.65207e-07 -8.97571e-08 0.109919)
(2.89315e-06 -1.76013e-06 0.0719296)
(-2.65538e-06 1.93647e-06 0.0719683)
(7.17327e-09 1.11599e-05 0.0990311)
(-8.82039e-08 -5.21793e-07 0.109918)
(2.81929e-06 -1.00745e-05 0.0934519)
(7.57781e-07 -4.04669e-07 0.107734)
(-2.56879e-08 -1.10077e-05 0.0989857)
(-8.8008e-08 -5.43191e-07 0.109918)
(-3.12505e-06 9.27937e-06 0.0934949)
(-3.77241e-06 -3.50857e-06 0.0879707)
(-3.48538e-06 -3.77832e-06 0.0879694)
(3.39212e-05 3.39447e-05 0.104692)
(3.2879e-06 3.50447e-06 0.0880021)
(3.53023e-06 3.27746e-06 0.0880003)
(-1.26685e-08 -6.16635e-06 0.0918475)
(5.27587e-07 6.51635e-06 0.0826343)
(-5.67032e-08 5.94311e-06 0.0918183)
(-1.21125e-06 -5.99421e-06 0.0826696)
(-1.8188e-06 2.96487e-06 0.0719317)
(1.96434e-06 -2.73064e-06 0.0719665)
(-6.19416e-06 -2.1553e-08 0.0918468)
(6.49034e-06 5.11781e-07 0.0826334)
(5.97616e-06 -5.83477e-08 0.0918186)
(-5.9733e-06 -1.19078e-06 0.08267)
(4.45273e-07 -4.65218e-07 0.112002)
(-4.6906e-07 4.76004e-07 0.112001)
(4.70076e-07 4.71081e-07 0.112001)
(-4.46837e-07 -4.60238e-07 0.112002)
(4.4313e-07 -4.29268e-07 0.112002)
(-4.12529e-07 4.19741e-07 0.112001)
(4.7116e-07 4.37595e-07 0.112001)
(1.10753e-05 3.32516e-08 0.0990309)
(-1.0096e-05 2.7952e-06 0.093451)
(-6.4139e-07 -6.56931e-08 0.109919)
(-4.72277e-07 7.89792e-07 0.107735)
(-1.11336e-05 -5.63104e-09 0.0989858)
(9.17277e-06 -3.04028e-06 0.093495)
(-6.59979e-07 -7.39429e-08 0.109919)
(2.88129e-06 -1.7857e-06 0.0719292)
(-2.65034e-06 1.91048e-06 0.0719678)
(4.18053e-08 1.10604e-05 0.0990309)
(-7.08048e-08 -6.22026e-07 0.109919)
(2.81616e-06 -1.01184e-05 0.0934516)
(7.88014e-07 -4.65899e-07 0.107734)
(4.16036e-09 -1.11218e-05 0.0989858)
(-7.13874e-08 -6.53289e-07 0.109918)
(-3.0605e-06 9.21928e-06 0.0934946)
(-3.81015e-06 -3.5685e-06 0.0879704)
(-3.54081e-06 -3.8147e-06 0.0879691)
(3.39875e-05 3.39835e-05 0.104692)
(3.25329e-06 3.43137e-06 0.0880016)
(3.4521e-06 3.24862e-06 0.0879998)
(-5.52896e-09 -6.22245e-06 0.0918471)
(5.60792e-07 6.52855e-06 0.0826336)
(-5.2733e-08 5.9818e-06 0.0918179)
(-1.22687e-06 -6.00337e-06 0.0826689)
(-1.84341e-06 2.97462e-06 0.0719308)
(1.96774e-06 -2.72032e-06 0.0719656)
(-6.25302e-06 -8.48182e-09 0.0918465)
(6.50619e-06 5.3561e-07 0.0826327)
(6.01545e-06 -4.60928e-08 0.0918182)
(-5.9841e-06 -1.21679e-06 0.0826693)
(4.81106e-07 -4.48945e-07 0.112002)
(-4.30173e-07 4.44164e-07 0.112001)
(4.96759e-07 4.58591e-07 0.112001)
(-4.91895e-07 -4.85086e-07 0.112002)
(5.17056e-07 -4.69307e-07 0.112002)
(-4.65084e-07 5.05762e-07 0.112001)
(5.1164e-07 4.92452e-07 0.112001)
(1.10955e-05 3.12806e-08 0.099031)
(-1.01173e-05 2.84583e-06 0.0934508)
(-5.81165e-07 -6.93538e-08 0.10992)
(-4.24447e-07 8.07022e-07 0.107735)
(-1.11111e-05 -2.47624e-08 0.0989859)
(9.20414e-06 -3.09185e-06 0.0934948)
(-5.80778e-07 -6.11796e-08 0.10992)
(2.90528e-06 -1.78511e-06 0.0719282)
(-2.64243e-06 1.92301e-06 0.0719668)
(2.64435e-08 1.10672e-05 0.0990309)
(-4.55047e-08 -5.95015e-07 0.109919)
(2.85396e-06 -1.01537e-05 0.0934513)
(8.15269e-07 -4.352e-07 0.107735)
(-1.57818e-08 -1.11025e-05 0.0989858)
(-4.3896e-08 -5.99351e-07 0.109919)
(-3.11693e-06 9.23005e-06 0.0934943)
(-3.80024e-06 -3.5581e-06 0.0879698)
(-3.53738e-06 -3.8007e-06 0.0879685)
(3.3979e-05 3.39795e-05 0.104693)
(3.29687e-06 3.49498e-06 0.0880012)
(3.51152e-06 3.29046e-06 0.0879993)
(-3.47555e-08 -6.33468e-06 0.091847)
(5.10951e-07 6.49197e-06 0.0826331)
(-7.23736e-08 5.88893e-06 0.0918177)
(-1.27733e-06 -6.06093e-06 0.0826688)
(-1.80097e-06 2.96497e-06 0.0719303)
(2.01286e-06 -2.74215e-06 0.0719656)
(-6.36524e-06 -4.20468e-08 0.0918464)
(6.46672e-06 4.90547e-07 0.0826322)
(5.92462e-06 -7.23281e-08 0.091818)
(-6.04344e-06 -1.2556e-06 0.0826691)
(5.26421e-07 -4.93259e-07 0.112002)
(-4.9035e-07 5.30616e-07 0.112002)
(5.22633e-07 5.15811e-07 0.112002)
(-5.75312e-07 -5.75984e-07 0.112002)
(5.53928e-07 -5.94177e-07 0.112002)
(-5.97625e-07 5.72966e-07 0.112001)
(5.58236e-07 5.60605e-07 0.112001)
(1.1309e-05 3.58657e-09 0.099031)
(-9.9871e-06 2.8053e-06 0.0934506)
(-4.77943e-07 -8.33864e-08 0.10992)
(-3.47749e-07 7.50578e-07 0.107736)
(-1.09561e-05 -3.37788e-08 0.0989858)
(9.35511e-06 -3.16476e-06 0.0934947)
(-4.65053e-07 -8.67218e-08 0.10992)
(2.88153e-06 -1.76234e-06 0.0719276)
(-2.6721e-06 1.95868e-06 0.0719668)
(2.90033e-09 1.12782e-05 0.0990309)
(-7.85356e-08 -4.67999e-07 0.109919)
(2.82355e-06 -1.00303e-05 0.0934511)
(7.47682e-07 -3.38275e-07 0.107735)
(-3.01652e-08 -1.09532e-05 0.0989857)
(-8.72243e-08 -4.55204e-07 0.109919)
(-3.18648e-06 9.37139e-06 0.0934942)
(-3.71385e-06 -3.50924e-06 0.0879696)
(-3.47924e-06 -3.72434e-06 0.0879682)
(3.40329e-05 3.40489e-05 0.104693)
(3.37216e-06 3.54311e-06 0.0880011)
(3.56903e-06 3.35986e-06 0.0879993)
(-4.67834e-08 -6.40219e-06 0.0918474)
(4.97267e-07 6.42424e-06 0.0826334)
(-8.94814e-08 5.75565e-06 0.0918179)
(-1.243e-06 -6.09486e-06 0.0826696)
(-1.81148e-06 2.91774e-06 0.0719309)
(1.96991e-06 -2.76476e-06 0.0719666)
(-6.4328e-06 -4.07719e-08 0.0918467)
(6.40249e-06 4.83659e-07 0.0826326)
(5.80651e-06 -8.10696e-08 0.0918182)
(-6.08375e-06 -1.2298e-06 0.0826698)
(5.79006e-07 -6.22998e-07 0.112002)
(-6.28138e-07 5.89961e-07 0.112001)
(5.79242e-07 5.85428e-07 0.112001)
(-7.03992e-07 -6.65314e-07 0.112001)
(7.12847e-07 -6.74572e-07 0.112001)
(-7.00714e-07 7.19708e-07 0.112)
(6.90484e-07 7.03617e-07 0.112)
(1.14382e-05 8.05154e-09 0.099031)
(-9.86417e-06 2.74983e-06 0.0934507)
(-3.2484e-07 -1.2263e-07 0.10992)
(-1.9643e-07 6.32125e-07 0.107735)
(-1.07844e-05 -3.30926e-08 0.0989857)
(9.42042e-06 -3.15632e-06 0.093495)
(-3.0796e-07 -1.20229e-07 0.109919)
(2.84706e-06 -1.75915e-06 0.0719282)
(-2.68098e-06 1.94269e-06 0.0719677)
(-9.25582e-09 1.14087e-05 0.0990309)
(-1.24263e-07 -3.10869e-07 0.109919)
(2.76114e-06 -9.91512e-06 0.0934512)
(6.24922e-07 -2.00314e-07 0.107734)
(-2.54033e-08 -1.07906e-05 0.0989857)
(-1.2008e-07 -3.00061e-07 0.109918)
(-3.18357e-06 9.44542e-06 0.0934945)