/*--------------------------------*- C++ -*----------------------------------*\
| =========                 |                                                 |
| \\      /  F ield         | OpenFOAM: The Open Source CFD Toolbox           |
|  \\    /   O peration     | Version:  v1906                                 |
|   \\  /    A nd           | Web:      www.OpenFOAM.com                      |
|    \\/     M anipulation  |                                                 |
\*---------------------------------------------------------------------------*/
FoamFile
{
    version     2.0;
    format      ascii;
    class       volScalarField;
    location    "300";
    object      k;
}
// * * * * * * * * * * * * * * * * * * * * * * * * * * * * * * * * * * * * * //

dimensions      [0 2 -2 0 0 0 0];


internalField   nonuniform List<scalar> 
43248
(
4.17846e-05
3.64575e-05
3.64567e-05
4.17715e-05
3.64546e-05
3.64595e-05
3.64549e-05
3.64632e-05
4.17783e-05
3.64589e-05
3.64615e-05
4.17782e-05
2.0847e-05
2.08465e-05
2.08517e-05
2.08537e-05
6.95303e-05
6.95329e-05
6.68937e-05
6.69031e-05
6.46091e-05
7.1351e-05
6.47048e-05
6.46103e-05
7.1357e-05
7.13206e-05
6.47081e-05
5.30867e-05
6.01845e-05
2.88243e-05
2.85805e-05
5.32854e-05
5.30884e-05
3.62256e-05
6.0188e-05
2.8825e-05
6.00652e-05
2.85811e-05
5.32871e-05
6.95318e-05
6.9506e-05
4.15819e-05
6.6903e-05
6.68888e-05
6.68404e-05
6.68284e-05
6.9528e-05
6.9502e-05
7.13569e-05
6.47111e-05
6.01887e-05
2.88285e-05
5.32889e-05
7.13516e-05
6.47087e-05
2.88291e-05
6.01815e-05
5.32888e-05
5.30908e-05
3.62243e-05
6.01824e-05
2.88262e-05
6.0065e-05
2.85835e-05
5.32917e-05
6.46123e-05
7.13551e-05
7.13206e-05
6.47082e-05
5.30894e-05
3.62321e-05
2.88304e-05
6.01853e-05
2.85869e-05
6.00643e-05
5.32902e-05
6.46106e-05
7.13526e-05
7.13192e-05
6.47069e-05
6.95307e-05
6.68951e-05
6.68921e-05
6.95304e-05
5.30917e-05
2.88317e-05
6.01854e-05
2.85887e-05
5.32902e-05
5.30932e-05
3.62304e-05
2.88345e-05
6.01914e-05
2.85911e-05
6.00693e-05
5.32922e-05
6.46111e-05
7.13525e-05
6.47106e-05
6.46137e-05
7.13586e-05
7.13223e-05
6.47109e-05
4.15906e-05
6.68932e-05
6.69056e-05
6.68331e-05
6.68438e-05
6.95308e-05
6.95051e-05
6.95339e-05
6.9508e-05
6.95179e-05
6.95205e-05
7.00284e-05
5.93311e-05
6.68784e-05
7.11364e-05
7.11174e-05
5.92671e-05
7.00687e-05
7.00891e-05
5.93245e-05
6.68862e-05
7.11445e-05
7.11299e-05
5.92852e-05
7.0099e-05
9.23419e-05
7.20365e-05
7.20297e-05
7.20224e-05
7.2016e-05
9.23493e-05
7.01236e-05
6.98207e-05
6.81172e-05
6.46461e-05
7.01138e-05
6.98293e-05
6.81488e-05
7.01833e-05
7.13379e-05
7.73853e-05
7.73664e-05
7.01979e-05
7.01266e-05
6.4668e-05
6.98428e-05
6.81989e-05
6.98341e-05
6.81676e-05
7.01365e-05
7.01255e-05
6.98212e-05
6.81239e-05
6.46487e-05
7.01158e-05
6.98298e-05
6.81567e-05
7.01854e-05
7.13413e-05
7.74067e-05
7.73867e-05
7.01994e-05
7.01897e-05
7.73584e-05
7.13362e-05
7.01759e-05
7.73768e-05
7.01284e-05
6.46673e-05
6.98438e-05
6.82075e-05
6.98344e-05
6.81722e-05
7.01386e-05
6.95194e-05
6.95184e-05
9.23132e-05
7.20043e-05
7.20097e-05
9.23033e-05
7.20182e-05
7.20236e-05
7.00837e-05
5.93297e-05
6.68856e-05
7.11456e-05
5.92793e-05
7.11273e-05
7.01048e-05
7.00328e-05
5.93199e-05
6.68736e-05
7.11342e-05
7.1116e-05
5.92714e-05
7.00541e-05
7.00391e-05
7.11037e-05
5.91804e-05
6.68581e-05
5.92313e-05
7.00178e-05
7.11221e-05
6.99882e-05
7.10923e-05
5.91726e-05
6.68438e-05
6.99669e-05
7.11107e-05
5.92215e-05
9.23376e-05
7.20293e-05
7.20347e-05
7.20153e-05
7.20208e-05
9.23488e-05
6.95154e-05
6.95145e-05
7.01863e-05
7.13438e-05
7.74055e-05
7.73868e-05
7.02003e-05
7.01291e-05
6.46698e-05
6.82088e-05
6.98449e-05
6.81716e-05
6.98361e-05
7.01397e-05
7.01826e-05
7.13381e-05
7.73842e-05
7.73642e-05
7.01972e-05
7.01261e-05
6.46677e-05
6.9846e-05
6.82004e-05
6.98334e-05
6.81642e-05
7.01374e-05
7.0125e-05
6.81246e-05
6.98192e-05
6.465e-05
7.01149e-05
6.81552e-05
6.98317e-05
7.01846e-05
7.13401e-05
7.74048e-05
7.73843e-05
7.01986e-05
7.01889e-05
7.73548e-05
7.13338e-05
7.0175e-05
7.73756e-05
7.01277e-05
6.46713e-05
6.8205e-05
6.98449e-05
6.81743e-05
6.98325e-05
7.01378e-05
7.01243e-05
6.98188e-05
6.81204e-05
6.46487e-05
7.01143e-05
6.98309e-05
6.81512e-05
7.01842e-05
7.13397e-05
7.7387e-05
7.73688e-05
7.01982e-05
7.01885e-05
7.73396e-05
7.1332e-05
7.01746e-05
7.73578e-05
7.01272e-05
6.46695e-05
6.98437e-05
6.82009e-05
6.98331e-05
6.81707e-05
7.0137e-05
6.95181e-05
7.00845e-05
5.93276e-05
6.68809e-05
7.11425e-05
5.92799e-05
7.11276e-05
7.01058e-05
7.00357e-05
5.93236e-05
6.68765e-05
7.11338e-05
7.11189e-05
5.92725e-05
7.00568e-05
9.23421e-05
7.20297e-05
7.2036e-05
7.20157e-05
7.2022e-05
9.23538e-05
6.9518e-05
7.01254e-05
6.81166e-05
6.98205e-05
6.46521e-05
7.0114e-05
6.81533e-05
6.98329e-05
7.01845e-05
7.1339e-05
7.73858e-05
7.73673e-05
7.01984e-05
7.01887e-05
7.73564e-05
7.01267e-05
6.46695e-05
6.82034e-05
6.98466e-05
6.81664e-05
6.98338e-05
7.01383e-05
7.01267e-05
6.81245e-05
6.9821e-05
6.46527e-05
7.01161e-05
6.81566e-05
6.98335e-05
7.01858e-05
7.13433e-05
7.74039e-05
7.73848e-05
7.02004e-05
7.01908e-05
7.73555e-05
7.13383e-05
7.01763e-05
7.73751e-05
7.0129e-05
6.4672e-05
6.82059e-05
6.98466e-05
6.81741e-05
6.98343e-05
7.01395e-05
9.23165e-05
7.20117e-05
7.20057e-05
9.23077e-05
7.20256e-05
7.20196e-05
7.00347e-05
5.93232e-05
6.68783e-05
7.11361e-05
5.92728e-05
7.11179e-05
7.0056e-05
7.00873e-05
5.93347e-05
6.68891e-05
7.11458e-05
5.92833e-05
7.11308e-05
7.01084e-05
6.99903e-05
7.10942e-05
5.91741e-05
6.68481e-05
6.99688e-05
5.92249e-05
7.11126e-05
7.00428e-05
7.11059e-05
5.91846e-05
6.68606e-05
7.00214e-05
5.92364e-05
7.11233e-05
9.23431e-05
7.20367e-05
7.20307e-05
7.20227e-05
7.20168e-05
9.23518e-05
6.95184e-05
6.95173e-05
6.95214e-05
6.95204e-05
5.95177e-05
4.17536e-05
5.05078e-05
5.04974e-05
5.04612e-05
5.04693e-05
5.95497e-05
5.95172e-05
4.177e-05
5.05064e-05
5.04971e-05
5.04678e-05
5.04696e-05
5.95486e-05
5.95184e-05
4.17731e-05
5.04992e-05
5.05019e-05
5.04706e-05
5.04688e-05
5.955e-05
5.95191e-05
4.17724e-05
5.05004e-05
5.05036e-05
5.04708e-05
5.04748e-05
5.95514e-05
1.49167e-05
1.4917e-05
1.48111e-05
1.07965e-05
1.08199e-05
2.06639e-05
1.49173e-05
1.49163e-05
1.48096e-05
1.48084e-05
1.07959e-05
1.08196e-05
1.49209e-05
1.49206e-05
1.48126e-05
1.07976e-05
1.08214e-05
2.06702e-05
1.49213e-05
1.49214e-05
1.48126e-05
1.48128e-05
1.07974e-05
1.08215e-05
4.55223e-05
5.5412e-05
4.35689e-05
5.31642e-05
4.55209e-05
5.54807e-05
4.35872e-05
4.80532e-05
5.25109e-05
6.01377e-05
5.85093e-05
5.24797e-05
5.84513e-05
4.80672e-05
4.57006e-05
5.32096e-05
5.55923e-05
4.37691e-05
5.55238e-05
4.37532e-05
4.5699e-05
4.55291e-05
5.54167e-05
4.35711e-05
5.31654e-05
4.55347e-05
5.54866e-05
4.35881e-05
4.80445e-05
5.25217e-05
6.01399e-05
5.85166e-05
5.84577e-05
5.24768e-05
4.80826e-05
4.79306e-05
5.83645e-05
5.23448e-05
6.01138e-05
4.78909e-05
5.84239e-05
5.23914e-05
4.57071e-05
5.32107e-05
5.55976e-05
4.37706e-05
5.55281e-05
4.37558e-05
4.57112e-05
5.94426e-05
4.15789e-05
5.0324e-05
5.03229e-05
5.03527e-05
5.94113e-05
5.03505e-05
4.80454e-05
5.25214e-05
6.01425e-05
5.85167e-05
5.24797e-05
5.84583e-05
4.80832e-05
4.57048e-05
5.32123e-05
5.55973e-05
4.37707e-05
5.5529e-05
4.37536e-05
4.56994e-05
4.80411e-05
5.2518e-05
6.01396e-05
5.85077e-05
5.8449e-05
5.24756e-05
4.808e-05
4.56878e-05
5.3209e-05
4.37873e-05
5.5594e-05
4.37416e-05
5.552e-05
4.57167e-05
4.55463e-05
5.54154e-05
4.35604e-05
5.31705e-05
4.55133e-05
5.54891e-05
4.36099e-05
4.80539e-05
5.25107e-05
6.01395e-05
5.85152e-05
5.24798e-05
5.84574e-05
4.8068e-05
4.79141e-05
5.83642e-05
5.23481e-05
6.01083e-05
4.79015e-05
5.23802e-05
5.84225e-05
4.56846e-05
5.32126e-05
5.55996e-05
4.37916e-05
5.55276e-05
4.37422e-05
4.57176e-05
4.55322e-05
4.35596e-05
5.54164e-05
5.31691e-05
4.55291e-05
4.36086e-05
5.54851e-05
4.80512e-05
5.25187e-05
6.01388e-05
5.8512e-05
5.84537e-05
5.24775e-05
4.80821e-05
4.79196e-05
5.83607e-05
5.23449e-05
6.01114e-05
4.79041e-05
5.84193e-05
5.23856e-05
4.57004e-05
5.32115e-05
4.37907e-05
5.55956e-05
4.37413e-05
5.55285e-05
4.57048e-05
4.55457e-05
4.35738e-05
5.54123e-05
5.31689e-05
4.55082e-05
4.35933e-05
5.54859e-05
4.80443e-05
5.25188e-05
6.01375e-05
5.85099e-05
5.24762e-05
5.8451e-05
4.80731e-05
4.79287e-05
5.84172e-05
4.56879e-05
5.32137e-05
4.37741e-05
5.55969e-05
4.37585e-05
5.55239e-05
4.57173e-05
4.55367e-05
4.35779e-05
5.54213e-05
5.31715e-05
4.55424e-05
4.35964e-05
5.54902e-05
4.80609e-05
5.25191e-05
6.0144e-05
5.85182e-05
5.84611e-05
5.24879e-05
4.80766e-05
4.79205e-05
5.83676e-05
5.23569e-05
6.0117e-05
4.79089e-05
5.84254e-05
5.23869e-05
4.57166e-05
5.32156e-05
4.37777e-05
5.56015e-05
4.37618e-05
5.55318e-05
4.57192e-05
5.94461e-05
4.15893e-05
5.0325e-05
5.03291e-05
5.94133e-05
5.03539e-05
5.0359e-05
1.49178e-05
1.6105e-05
1.61057e-05
1.80758e-05
1.79653e-05
1.60861e-05
1.6086e-05
1.79839e-05
1.6086e-05
1.60863e-05
1.60857e-05
1.6086e-05
1.79805e-05
1.60862e-05
1.60863e-05
1.79823e-05
1.80876e-05
1.85356e-05
1.6105e-05
1.61055e-05
1.6197e-05
1.61969e-05
1.80758e-05
1.85571e-05
1.61058e-05
1.61057e-05
1.61962e-05
1.61969e-05
1.61054e-05
1.61959e-05
1.61968e-05
1.80738e-05
1.85541e-05
1.61058e-05
1.61966e-05
1.61971e-05
1.85564e-05
1.50062e-05
1.50061e-05
1.50063e-05
1.50063e-05
5.35095e-05
7.00377e-05
5.29546e-05
7.00661e-05
6.96369e-05
6.96168e-05
5.35183e-05
7.0044e-05
5.29527e-05
7.00725e-05
1.49177e-05
1.49179e-05
1.49179e-05
1.46695e-05
1.46694e-05
1.46695e-05
1.46696e-05
2.93457e-05
4.52083e-05
1.4883e-05
1.61295e-05
2.87891e-05
4.56183e-05
1.48321e-05
6.9636e-05
6.9616e-05
2.93496e-05
1.48831e-05
4.52087e-05
1.61301e-05
2.879e-05
1.48321e-05
4.56198e-05
5.90538e-05
5.90653e-05
1.82535e-05
5.92792e-05
5.92921e-05
6.96526e-05
6.96735e-05
6.96544e-05
6.96752e-05
1.78323e-05
5.89345e-05
5.89462e-05
5.86945e-05
5.87056e-05
5.21531e-05
7.00358e-05
7.0006e-05
5.27537e-05
5.21545e-05
7.00391e-05
7.00133e-05
5.27564e-05
2.79345e-05
1.60728e-05
4.49911e-05
1.49364e-05
4.4557e-05
1.49957e-05
2.85003e-05
2.79399e-05
1.60726e-05
4.49927e-05
1.49362e-05
4.45649e-05
1.49956e-05
2.84954e-05
6.96545e-05
6.96754e-05
1.78232e-05
5.89491e-05
5.89341e-05
5.87083e-05
5.86936e-05
6.96518e-05
6.96728e-05
5.21504e-05
7.00421e-05
7.00122e-05
5.27635e-05
2.79417e-05
1.6073e-05
4.49949e-05
1.4937e-05
4.45619e-05
1.49963e-05
2.84976e-05
5.21502e-05
7.00348e-05
7.00092e-05
5.27621e-05
2.79407e-05
1.6073e-05
1.49368e-05
4.49905e-05
1.49962e-05
4.45617e-05
2.84973e-05
2.79383e-05
1.60724e-05
4.49848e-05
1.4937e-05
4.45598e-05
1.49963e-05
2.84953e-05
5.21543e-05
7.00383e-05
7.00128e-05
5.27559e-05
2.79403e-05
1.60726e-05
1.4937e-05
4.49901e-05
1.49963e-05
4.45601e-05
2.8495e-05
5.21535e-05
7.00347e-05
7.0009e-05
5.2753e-05
6.96537e-05
6.96746e-05
1.78315e-05
5.89426e-05
5.89361e-05
5.87033e-05
5.8697e-05
6.9653e-05
6.9674e-05
2.79413e-05
1.60731e-05
1.49369e-05
4.49885e-05
1.49962e-05
4.45579e-05
2.84991e-05
2.79432e-05
1.6073e-05
1.4937e-05
4.5e-05
1.49963e-05
4.4561e-05
2.84984e-05
5.21494e-05
7.00371e-05
7.00071e-05
5.27671e-05
5.21507e-05
7.00426e-05
7.00126e-05
5.27676e-05
1.78225e-05
5.89353e-05
5.89477e-05
5.86958e-05
5.87072e-05
6.96528e-05
6.96739e-05
6.96551e-05
6.9676e-05
6.96346e-05
6.96146e-05
6.96366e-05
6.96166e-05
5.90521e-05
5.9064e-05
1.8237e-05
5.92794e-05
5.92907e-05
6.95782e-05
6.95971e-05
6.95803e-05
6.95993e-05
1.83715e-05
5.96059e-05
5.96125e-05
5.93889e-05
5.94021e-05
5.35121e-05
7.00451e-05
5.29563e-05
7.00699e-05
2.93492e-05
4.52065e-05
1.48824e-05
1.61302e-05
2.87813e-05
4.56228e-05
1.48316e-05
2.93466e-05
4.52146e-05
1.48824e-05
1.61301e-05
2.87868e-05
4.5626e-05
1.48315e-05
5.36907e-05
7.00951e-05
7.00676e-05
5.42019e-05
5.36926e-05
7.00987e-05
7.00754e-05
5.42041e-05
2.96364e-05
1.61602e-05
4.6233e-05
1.47438e-05
4.58287e-05
1.47862e-05
3.02025e-05
2.96399e-05
1.61609e-05
4.62311e-05
1.47438e-05
4.58387e-05
1.47863e-05
3.01995e-05
5.90666e-05
5.90522e-05
1.82553e-05
5.92935e-05
5.92784e-05
6.9634e-05
6.96139e-05
6.95806e-05
6.95997e-05
1.83591e-05
5.96173e-05
5.96018e-05
5.94038e-05
5.93896e-05
6.95774e-05
6.95966e-05
2.93506e-05
4.52126e-05
1.48831e-05
1.61299e-05
2.879e-05
4.56269e-05
1.48322e-05
5.35168e-05
7.00411e-05
5.29521e-05
7.00655e-05
2.93487e-05
1.4883e-05
4.52114e-05
1.61303e-05
2.8789e-05
1.4832e-05
4.56213e-05
5.36892e-05
7.01014e-05
7.00741e-05
5.42099e-05
2.96404e-05
1.61613e-05
4.62314e-05
1.47443e-05
4.58355e-05
1.47869e-05
3.02056e-05
5.36886e-05
7.00943e-05
7.00713e-05
5.42083e-05
2.96416e-05
1.6161e-05
1.47442e-05
4.62255e-05
1.47867e-05
4.58354e-05
3.02075e-05
5.35112e-05
7.00445e-05
5.29561e-05
7.00689e-05
2.9348e-05
1.48831e-05
4.52088e-05
1.61301e-05
2.87877e-05
1.48323e-05
4.56211e-05
5.35085e-05
7.00408e-05
5.2955e-05
7.00654e-05
2.96417e-05
1.61602e-05
4.62214e-05
1.47442e-05
4.58302e-05
1.47867e-05
3.01999e-05
5.36926e-05
7.00976e-05
7.00747e-05
5.4203e-05
2.96409e-05
1.61608e-05
1.47444e-05
4.62256e-05
1.47869e-05
4.58321e-05
3.01988e-05
5.36917e-05
7.00941e-05
7.0071e-05
5.42007e-05
5.90622e-05
5.90548e-05
1.82526e-05
5.92871e-05
5.92802e-05
6.96352e-05
6.96151e-05
6.95797e-05
6.95987e-05
1.83563e-05
5.96111e-05
5.96041e-05
5.94e-05
5.93922e-05
6.95787e-05
6.95979e-05
2.93496e-05
1.48832e-05
4.52077e-05
1.61304e-05
2.87919e-05
1.48323e-05
4.5628e-05
5.35215e-05
7.00385e-05
5.29515e-05
7.00668e-05
5.35224e-05
7.00439e-05
5.29529e-05
7.00727e-05
2.96427e-05
1.61609e-05
1.47443e-05
4.62255e-05
1.47869e-05
4.58326e-05
3.02084e-05
2.96444e-05
1.61612e-05
1.47445e-05
4.62329e-05
1.4787e-05
4.58332e-05
3.02056e-05
5.36884e-05
7.00942e-05
7.00704e-05
5.42121e-05
5.36897e-05
7.01016e-05
7.00742e-05
5.42135e-05
6.96351e-05
6.96149e-05
6.96372e-05
6.96172e-05
1.83586e-05
5.96034e-05
5.96159e-05
5.93913e-05
5.94021e-05
6.95785e-05
6.95977e-05
6.95808e-05
6.95999e-05
6.9849e-05
5.33309e-05
6.91842e-05
5.95618e-05
6.9163e-05
5.93955e-05
6.98605e-05
7.09925e-05
7.4006e-05
7.0051e-05
7.09891e-05
7.40809e-05
6.9848e-05
5.31397e-05
6.91398e-05
5.91231e-05
6.98361e-05
6.91613e-05
5.92948e-05
7.09688e-05
7.4179e-05
7.0053e-05
7.4109e-05
7.0972e-05
6.96355e-05
6.96182e-05
6.98516e-05
5.33289e-05
5.95712e-05
6.9186e-05
5.9398e-05
6.91648e-05
6.98632e-05
7.09955e-05
7.40295e-05
7.00574e-05
7.09926e-05
7.41046e-05
6.98506e-05
5.31489e-05
5.91253e-05
6.91416e-05
6.98387e-05
5.93047e-05
6.91631e-05
7.09723e-05
7.4202e-05
7.00593e-05
7.41306e-05
7.09751e-05
6.96347e-05
6.96172e-05
8.75183e-05
7.24408e-05
7.2435e-05
7.24402e-05
7.24343e-05
8.75887e-05
5.70385e-05
3.89766e-05
6.881e-05
5.911e-05
5.69479e-05
3.91002e-05
6.88344e-05
5.71035e-05
3.8995e-05
6.88205e-05
5.91224e-05
5.70152e-05
3.9122e-05
6.88484e-05
8.74829e-05
7.24623e-05
7.24564e-05
8.74094e-05
7.24629e-05
7.2457e-05
5.72322e-05
6.8871e-05
5.9225e-05
3.94881e-05
3.93653e-05
6.88477e-05
5.73198e-05
5.72994e-05
6.88851e-05
5.92362e-05
3.95098e-05
3.93829e-05
6.88579e-05
5.73852e-05
6.96539e-05
6.96721e-05
6.96558e-05
6.96739e-05
8.72591e-05
7.25069e-05
7.25005e-05
8.71758e-05
7.25074e-05
7.25013e-05
5.6654e-05
3.87119e-05
5.88761e-05
6.8796e-05
6.87707e-05
3.85811e-05
5.6754e-05
5.67223e-05
3.873e-05
5.88876e-05
6.88084e-05
6.87831e-05
3.85984e-05
5.68147e-05
5.64568e-05
6.87307e-05
3.81805e-05
5.87549e-05
5.63554e-05
6.87569e-05
3.83118e-05
5.65225e-05
6.87428e-05
3.81974e-05
5.87663e-05
5.64225e-05
6.8769e-05
3.83317e-05
8.7293e-05
7.2485e-05
7.24789e-05
7.24844e-05
7.24781e-05
8.73729e-05
6.98217e-05
6.90977e-05
5.85413e-05
5.23511e-05
6.98095e-05
6.91166e-05
5.87229e-05
7.10094e-05
7.00223e-05
7.39753e-05
7.10129e-05
7.39037e-05
7.10331e-05
7.37914e-05
7.00203e-05
7.10296e-05
7.38654e-05
6.98229e-05
5.25624e-05
6.91383e-05
5.90154e-05
6.9835e-05
6.91178e-05
5.88386e-05
6.98237e-05
6.90984e-05
5.85444e-05
5.23537e-05
6.98114e-05
6.91172e-05
5.87342e-05
7.10125e-05
7.00294e-05
7.39974e-05
7.39293e-05
7.10155e-05
7.10357e-05
7.38173e-05
7.00233e-05
7.10326e-05
7.3888e-05
6.9825e-05
5.25639e-05
6.91393e-05
5.90266e-05
6.91186e-05
5.88418e-05
6.98371e-05
6.9656e-05
6.96738e-05
8.72586e-05
7.25015e-05
7.25065e-05
8.71762e-05
7.25022e-05
7.25071e-05
5.67196e-05
3.87296e-05
5.88904e-05
6.88109e-05
3.85983e-05
6.87822e-05
5.68169e-05
5.66547e-05
3.87094e-05
5.88758e-05
6.87982e-05
6.87695e-05
3.85789e-05
5.67516e-05
5.65221e-05
6.87418e-05
3.81981e-05
5.87692e-05
3.83319e-05
5.6421e-05
6.87716e-05
5.64544e-05
6.8729e-05
3.81785e-05
5.87546e-05
5.6355e-05
6.87589e-05
3.83111e-05
8.72932e-05
7.24798e-05
7.24847e-05
7.24791e-05
7.24841e-05
8.73727e-05
6.96533e-05
6.96712e-05
6.98242e-05
5.85425e-05
6.90996e-05
5.23613e-05
6.98119e-05
5.87341e-05
6.91184e-05
7.10129e-05
7.00286e-05
7.40019e-05
7.10159e-05
7.39229e-05
7.10362e-05
7.38091e-05
7.00266e-05
7.1033e-05
7.3894e-05
6.98254e-05
5.25599e-05
5.90258e-05
6.91401e-05
6.98375e-05
5.88402e-05
6.91196e-05
6.98225e-05
6.91009e-05
5.85421e-05
5.236e-05
6.98103e-05
6.91158e-05
5.87236e-05
7.10095e-05
7.00253e-05
7.39741e-05
7.39042e-05
7.10131e-05
7.10333e-05
7.37917e-05
7.0019e-05
7.10296e-05
7.3865e-05
6.98238e-05
5.25597e-05
6.91368e-05
5.90158e-05
6.91223e-05
5.88392e-05
6.98358e-05
6.98232e-05
5.85423e-05
6.91005e-05
5.23535e-05
6.9811e-05
5.87325e-05
6.91153e-05
7.1012e-05
7.00288e-05
7.39944e-05
7.39252e-05
7.1015e-05
7.10353e-05
7.38133e-05
7.00226e-05
7.10322e-05
7.3885e-05
6.98245e-05
5.25638e-05
5.90246e-05
6.91363e-05
5.884e-05
6.91219e-05
6.98365e-05
6.98221e-05
6.90982e-05
5.85388e-05
5.23507e-05
6.98098e-05
6.91168e-05
5.87264e-05
7.10101e-05
7.00251e-05
7.39736e-05
7.39061e-05
7.10131e-05
7.10333e-05
7.3794e-05
7.00189e-05
7.10303e-05
7.38646e-05
6.98233e-05
5.25627e-05
6.91389e-05
5.90186e-05
6.91182e-05
5.8836e-05
6.98354e-05
6.96551e-05
6.96731e-05
8.72633e-05
7.25014e-05
7.25073e-05
8.71804e-05
7.25021e-05
7.25079e-05
5.67267e-05
3.87263e-05
5.88853e-05
6.88078e-05
3.86005e-05
6.87825e-05
5.6816e-05
5.66613e-05
3.87094e-05
5.88786e-05
6.87968e-05
6.87714e-05
3.85835e-05
5.67501e-05
5.65205e-05
6.87422e-05
3.82e-05
5.87621e-05
3.83275e-05
5.64264e-05
6.87684e-05
5.6454e-05
6.87312e-05
3.81833e-05
5.87563e-05
5.63607e-05
6.87576e-05
3.83105e-05
8.72969e-05
7.24796e-05
7.24854e-05
7.2479e-05
7.24848e-05
8.73772e-05
6.96545e-05
6.96725e-05
6.9822e-05
5.85386e-05
6.9101e-05
5.23648e-05
6.98098e-05
5.87304e-05
6.91152e-05
7.10104e-05
7.00235e-05
7.39812e-05
7.39021e-05
7.10134e-05
7.10337e-05
7.37886e-05
7.00213e-05
7.10305e-05
7.38721e-05
6.98233e-05
5.25588e-05
5.90222e-05
6.91364e-05
5.88362e-05
6.91222e-05
6.98354e-05
6.98239e-05
5.8543e-05
6.90997e-05
5.23658e-05
6.98116e-05
5.87361e-05
6.91177e-05
7.10126e-05
7.00288e-05
7.40012e-05
7.39216e-05
7.10156e-05
7.10359e-05
7.38084e-05
7.00269e-05
7.10328e-05
7.38926e-05
6.98251e-05
5.25602e-05
5.90277e-05
6.91399e-05
5.88406e-05
6.91197e-05
6.98373e-05
8.72589e-05
7.25069e-05
7.25011e-05
8.71784e-05
7.25075e-05
7.25017e-05
5.66568e-05
3.8708e-05
5.88775e-05
6.87963e-05
5.67499e-05
3.85814e-05
6.87711e-05
5.67238e-05
3.87283e-05
5.88891e-05
6.88104e-05
5.68158e-05
3.86003e-05
6.87818e-05
5.64535e-05
6.8731e-05
3.81816e-05
5.87555e-05
5.63563e-05
3.83098e-05
6.8757e-05
5.65197e-05
6.8741e-05
3.81994e-05
5.8768e-05
5.64242e-05
3.83303e-05
6.87712e-05
8.72972e-05
7.24851e-05
7.24792e-05
8.73728e-05
7.24845e-05
7.24787e-05
6.96544e-05
6.96723e-05
6.96565e-05
6.96745e-05
6.96334e-05
6.96156e-05
6.96353e-05
6.96177e-05
8.75141e-05
7.24407e-05
7.24346e-05
7.24401e-05
7.24337e-05
8.75889e-05
5.70421e-05
3.89741e-05
6.88096e-05
5.91091e-05
5.69456e-05
6.8834e-05
3.91047e-05
5.71037e-05
3.89922e-05
6.88221e-05
5.91209e-05
5.70152e-05
6.88465e-05
3.91219e-05
8.74827e-05
7.24622e-05
7.24558e-05
8.74058e-05
7.24628e-05
7.24566e-05
5.72299e-05
6.88707e-05
5.92232e-05
3.94898e-05
6.88472e-05
5.7322e-05
3.93628e-05
5.72995e-05
6.88831e-05
5.92356e-05
3.95071e-05
6.88598e-05
5.73856e-05
3.93811e-05
6.95789e-05
6.95961e-05
6.95814e-05
6.95983e-05
8.7691e-05
7.24182e-05
7.24118e-05
8.76192e-05
7.24189e-05
7.24128e-05
5.77645e-05
4.02555e-05
5.95516e-05
6.89411e-05
6.89185e-05
4.01192e-05
5.78822e-05
5.7843e-05
4.02499e-05
5.95633e-05
6.89531e-05
6.89308e-05
4.01469e-05
5.79152e-05
5.75994e-05
6.88835e-05
3.97446e-05
5.9442e-05
5.75016e-05
6.89062e-05
3.9872e-05
5.7662e-05
6.8896e-05
3.97655e-05
5.94554e-05
5.7574e-05
6.89185e-05
3.98859e-05
8.77209e-05
7.23974e-05
7.23909e-05
7.23966e-05
7.23901e-05
8.77865e-05
6.98513e-05
5.33326e-05
6.91851e-05
5.95722e-05
6.91638e-05
5.93991e-05
6.98629e-05
7.09952e-05
7.40365e-05
7.00548e-05
7.09924e-05
7.41015e-05
6.98502e-05
5.31422e-05
6.91405e-05
5.91266e-05
6.91619e-05
6.98383e-05
5.93054e-05
7.09722e-05
7.41993e-05
7.00605e-05
7.41376e-05
7.09749e-05
6.98726e-05
6.91858e-05
5.96557e-05
5.38634e-05
6.98614e-05
6.92073e-05
5.98169e-05
7.09278e-05
7.00824e-05
7.43594e-05
7.42959e-05
7.09308e-05
7.09514e-05
7.42045e-05
7.00808e-05
7.09484e-05
7.42714e-05
6.98732e-05
5.40355e-05
6.92308e-05
6.00607e-05
6.92094e-05
5.9905e-05
6.98841e-05
6.9875e-05
6.91866e-05
5.966e-05
5.38658e-05
6.98638e-05
6.92081e-05
5.98269e-05
7.09315e-05
7.00898e-05
7.43796e-05
7.43236e-05
7.09341e-05
7.09545e-05
7.42332e-05
7.00845e-05
7.09519e-05
7.42918e-05
6.98757e-05
5.40374e-05
6.92316e-05
6.00702e-05
6.92103e-05
5.99096e-05
6.98866e-05
8.75141e-05
7.24355e-05
7.24404e-05
7.24348e-05
7.24397e-05
8.75888e-05
5.71064e-05
3.89927e-05
6.88207e-05
5.91239e-05
6.88487e-05
5.70124e-05
3.91216e-05
5.70413e-05
3.89732e-05
6.88079e-05
5.91088e-05
3.90995e-05
5.69464e-05
6.88358e-05
8.74828e-05
7.24569e-05
7.24618e-05
7.24576e-05
8.74059e-05
7.24625e-05
5.72958e-05
6.88856e-05
5.92378e-05
3.95089e-05
6.88584e-05
3.93816e-05
5.73875e-05
5.72289e-05
6.88728e-05
5.92234e-05
3.94854e-05
3.93627e-05
6.88456e-05
5.73222e-05
6.96327e-05
6.96151e-05
6.95817e-05
6.95985e-05
8.76905e-05
7.24129e-05
7.24178e-05
8.76195e-05
7.24137e-05
7.24186e-05
5.78397e-05
4.02656e-05
5.9565e-05
6.89559e-05
4.01418e-05
6.893e-05
5.79292e-05
5.7774e-05
4.02429e-05
5.95505e-05
6.89427e-05
6.89169e-05
4.01225e-05
5.78592e-05
5.76612e-05
6.88946e-05
3.97646e-05
5.9458e-05
3.98891e-05
5.75716e-05
6.89212e-05
5.75949e-05
6.88815e-05
3.97464e-05
5.94425e-05
5.75047e-05
6.89084e-05
3.98662e-05
8.77208e-05
7.23921e-05
7.23969e-05
7.23913e-05
7.23962e-05
8.77887e-05
6.95785e-05
6.95955e-05
6.98499e-05
5.33284e-05
6.9182e-05
5.95625e-05
6.91672e-05
5.93957e-05
6.98614e-05
7.09927e-05
7.40119e-05
7.00505e-05
7.09893e-05
7.40777e-05
6.98488e-05
5.31475e-05
6.91443e-05
5.91235e-05
6.9159e-05
6.9837e-05
5.92955e-05
7.0969e-05
7.41753e-05
7.00565e-05
7.41129e-05
7.09723e-05
6.98752e-05
5.96588e-05
6.91875e-05
5.38719e-05
6.9864e-05
5.9826e-05
6.9209e-05
7.09314e-05
7.00889e-05
7.43825e-05
7.43179e-05
7.0934e-05
7.09546e-05
7.42262e-05
7.00872e-05
7.09519e-05
7.42947e-05
6.98759e-05
5.40339e-05
6.00692e-05
6.92325e-05
5.99084e-05
6.92111e-05
6.98867e-05
6.98734e-05
6.91903e-05
5.96561e-05
5.38702e-05
6.98623e-05
6.92055e-05
5.98179e-05
7.09281e-05
7.00857e-05
7.43563e-05
7.42988e-05
7.09313e-05
7.09518e-05
7.42087e-05
7.00801e-05
7.09486e-05
7.42677e-05
6.98742e-05
5.40332e-05
6.92288e-05
6.00618e-05
6.92138e-05
5.99052e-05
6.98849e-05
6.98507e-05
5.33323e-05
5.95705e-05
6.91815e-05
5.93974e-05
6.91668e-05
6.98621e-05
7.09946e-05
7.40333e-05
7.00539e-05
7.4098e-05
7.09918e-05
6.98495e-05
5.31416e-05
5.91246e-05
6.91439e-05
5.93037e-05
6.98378e-05
6.91585e-05
7.09714e-05
7.41958e-05
7.00599e-05
7.41344e-05
7.09742e-05
6.98495e-05
5.33313e-05
6.91845e-05
5.95644e-05
6.91634e-05
5.93931e-05
6.98611e-05
7.09927e-05
7.40131e-05
7.00503e-05
7.09899e-05
7.40777e-05
6.98485e-05
5.31388e-05
6.91402e-05
5.91207e-05
6.98366e-05
6.91614e-05
5.92977e-05
7.09696e-05
7.41756e-05
7.00562e-05
7.41141e-05
7.09723e-05
6.98742e-05
5.96582e-05
6.91899e-05
5.38648e-05
6.98631e-05
5.98249e-05
6.92049e-05
7.09305e-05
7.00891e-05
7.43758e-05
7.43206e-05
7.09331e-05
7.09537e-05
7.423e-05
7.00835e-05
7.0951e-05
7.42881e-05
6.9875e-05
5.40371e-05
6.0068e-05
6.92282e-05
5.99079e-05
6.92134e-05
6.98857e-05
6.98732e-05
6.91861e-05
5.96541e-05
5.38623e-05
6.98619e-05
6.92075e-05
5.98194e-05
7.09287e-05
7.00853e-05
7.43558e-05
7.43001e-05
7.09313e-05
7.09518e-05
7.42099e-05
7.00799e-05
7.09492e-05
7.4268e-05
6.98738e-05
5.40364e-05
6.9231e-05
6.0063e-05
6.92097e-05
5.99034e-05
6.98846e-05
8.7519e-05
7.24353e-05
7.24411e-05
7.24346e-05
7.24404e-05
8.75929e-05
5.71066e-05
3.8996e-05
6.88215e-05
5.91173e-05
6.8846e-05
5.70175e-05
3.91209e-05
5.70394e-05
3.89789e-05
6.88104e-05
5.91109e-05
3.91023e-05
5.69526e-05
6.88349e-05
8.7487e-05
7.24567e-05
7.24625e-05
7.24574e-05
8.741e-05
7.24631e-05
5.72998e-05
6.88827e-05
5.92338e-05
3.95075e-05
6.8859e-05
3.93843e-05
5.73878e-05
5.7236e-05
6.88716e-05
5.92259e-05
3.94892e-05
3.93674e-05
6.88479e-05
5.73208e-05
6.96339e-05
6.96164e-05
6.95807e-05
6.95977e-05
8.76932e-05
7.24127e-05
7.24185e-05
8.76242e-05
7.24134e-05
7.24192e-05
5.78438e-05
4.02626e-05
5.95607e-05
6.89526e-05
4.01434e-05
6.89305e-05
5.79273e-05
5.778e-05
4.02446e-05
5.95532e-05
6.89413e-05
6.89193e-05
4.01265e-05
5.78619e-05
5.76612e-05
6.88954e-05
3.97671e-05
5.94522e-05
3.98877e-05
5.75752e-05
6.89182e-05
5.75954e-05
6.88843e-05
3.975e-05
5.94448e-05
5.75114e-05
6.8907e-05
3.98708e-05
8.77257e-05
7.23918e-05
7.23975e-05
7.2391e-05
7.23968e-05
8.77909e-05
6.95798e-05
6.95967e-05
6.98496e-05
5.33278e-05
5.95676e-05
6.91819e-05
5.93937e-05
6.91671e-05
6.98611e-05
7.09931e-05
7.40073e-05
7.00524e-05
7.40836e-05
7.09901e-05
6.98484e-05
5.31523e-05
5.9121e-05
6.91442e-05
5.93012e-05
6.98367e-05
6.91589e-05
7.09699e-05
7.4178e-05
7.00538e-05
7.41108e-05
7.09727e-05
6.98514e-05
5.33293e-05
5.95727e-05
6.91859e-05
5.93985e-05
6.91646e-05
6.9863e-05
7.09952e-05
7.40272e-05
7.00576e-05
7.09923e-05
7.41035e-05
6.98503e-05
5.31532e-05
5.91257e-05
6.91412e-05
6.98384e-05
5.93064e-05
6.91627e-05
7.0972e-05
7.42015e-05
7.00594e-05
7.41289e-05
7.09748e-05
6.98732e-05
5.96549e-05
6.91903e-05
5.38745e-05
6.98621e-05
5.98219e-05
6.92055e-05
7.09291e-05
7.00853e-05
7.43562e-05
7.43009e-05
7.09316e-05
7.09522e-05
7.42101e-05
7.00809e-05
7.09496e-05
7.4269e-05
6.9874e-05
5.40332e-05
6.00647e-05
6.92288e-05
5.99045e-05
6.92138e-05
6.98847e-05
6.9875e-05
5.96592e-05
6.91874e-05
5.38757e-05
6.98638e-05
5.9827e-05
6.9209e-05
7.09312e-05
7.0089e-05
7.43818e-05
7.4316e-05
7.09337e-05
7.09543e-05
7.42245e-05
7.00873e-05
7.09516e-05
7.42941e-05
6.98757e-05
5.40345e-05
6.00698e-05
6.92326e-05
5.99089e-05
6.92111e-05
6.98865e-05
6.96337e-05
6.96163e-05
6.96359e-05
6.96184e-05
8.76904e-05
7.24183e-05
7.24125e-05
8.76234e-05
7.24189e-05
7.24131e-05
5.77775e-05
4.02431e-05
5.95523e-05
6.89408e-05
4.01246e-05
6.89189e-05
5.78594e-05
5.78438e-05
4.02656e-05
5.95635e-05
6.89552e-05
4.01418e-05
6.89294e-05
5.79263e-05
5.75932e-05
6.88839e-05
3.97481e-05
5.94434e-05
5.75085e-05
3.98682e-05
6.89064e-05
5.76587e-05
6.88941e-05
3.97644e-05
5.94565e-05
5.75747e-05
3.98901e-05
6.89208e-05
8.77238e-05
7.23973e-05
7.23915e-05
7.23966e-05
7.23908e-05
8.77887e-05
6.95796e-05
6.95965e-05
6.95818e-05
6.95988e-05
1.504e-05
1.50404e-05
1.4832e-05
1.49321e-05
1.49325e-05
1.52912e-05
1.54092e-05
3.7856e-05
2.48838e-05
2.48772e-05
1.81141e-05
3.7732e-05
2.49588e-05
2.49749e-05
3.73207e-05
1.79545e-05
2.46516e-05
2.46544e-05
2.45704e-05
2.45722e-05
3.74422e-05
3.73155e-05
1.79469e-05
2.46686e-05
2.46719e-05
2.45701e-05
2.45617e-05
3.74484e-05
3.73201e-05
1.7948e-05
2.46548e-05
2.46461e-05
2.45769e-05
2.45758e-05
3.74482e-05
3.73196e-05
1.79459e-05
2.4651e-05
2.46683e-05
3.74436e-05
2.45715e-05
2.45687e-05
3.78553e-05
2.48831e-05
2.48878e-05
1.8099e-05
3.77346e-05
2.49661e-05
2.49604e-05
3.89408e-05
1.85216e-05
2.59255e-05
2.59129e-05
2.58332e-05
2.58455e-05
3.90579e-05
3.78633e-05
2.48777e-05
2.48688e-05
1.81148e-05
2.49804e-05
3.77292e-05
2.49728e-05
3.89317e-05
1.8513e-05
2.59386e-05
2.5929e-05
2.58343e-05
2.58275e-05
3.90671e-05
3.78595e-05
2.48872e-05
2.48877e-05
1.81122e-05
2.49601e-05
3.77337e-05
2.49778e-05
3.89429e-05
1.85094e-05
2.59399e-05
2.59167e-05
2.58283e-05
2.58419e-05
3.90575e-05
3.89394e-05
1.8512e-05
2.59352e-05
2.59399e-05
2.58267e-05
2.58354e-05
3.9065e-05
1.50979e-05
1.515e-05
1.51503e-05
1.52624e-05
1.52628e-05
1.56501e-05
1.55287e-05
1.50978e-05
1.51499e-05
1.51504e-05
1.52624e-05
1.52629e-05
1.56501e-05
1.55287e-05
1.5098e-05
1.515e-05
1.51503e-05
1.52625e-05
1.52628e-05
1.565e-05
1.55286e-05
1.50979e-05
1.51502e-05
1.51503e-05
1.52627e-05
1.52628e-05
1.56501e-05
1.55287e-05
1.504e-05
1.50405e-05
1.48319e-05
1.49321e-05
1.49325e-05
1.52912e-05
1.54092e-05
1.50401e-05
1.50404e-05
1.48321e-05
1.49322e-05
1.49324e-05
1.52911e-05
1.54091e-05
1.50402e-05
1.50404e-05
1.48321e-05
1.49323e-05
1.49325e-05
1.52912e-05
1.54091e-05
1.47495e-05
1.47233e-05
1.47237e-05
1.48267e-05
1.48271e-05
1.5175e-05
1.50604e-05
1.47494e-05
1.47233e-05
1.47237e-05
1.48267e-05
1.48271e-05
1.51751e-05
1.50605e-05
1.47495e-05
1.47234e-05
1.47236e-05
1.48268e-05
1.4827e-05
1.5175e-05
1.50604e-05
1.47496e-05
1.47235e-05
1.47237e-05
1.48269e-05
1.48271e-05
1.5175e-05
1.50604e-05
1.9605e-05
2.92148e-05
3.3558e-05
1.79952e-05
3.34187e-05
1.79683e-05
1.96665e-05
2.23913e-05
2.75814e-05
3.95923e-05
4.53052e-05
2.23182e-05
2.76785e-05
3.9703e-05
1.94735e-05
2.89185e-05
3.29972e-05
1.78166e-05
1.94139e-05
3.31347e-05
1.784e-05
2.25686e-05
4.00764e-05
4.55223e-05
2.80226e-05
2.79271e-05
3.99704e-05
2.26454e-05
1.96213e-05
2.92152e-05
1.8001e-05
3.35513e-05
1.79696e-05
3.34202e-05
1.96498e-05
2.23752e-05
2.75856e-05
3.95817e-05
4.53068e-05
2.2328e-05
2.76803e-05
3.97025e-05
1.94551e-05
2.89225e-05
1.78176e-05
3.29991e-05
1.94277e-05
1.7844e-05
3.31293e-05
2.25897e-05
4.00679e-05
4.55237e-05
2.80257e-05
2.79309e-05
3.99604e-05
2.26342e-05
3.81422e-05
1.82128e-05
2.52752e-05
2.52881e-05
2.52003e-05
2.51914e-05
3.82624e-05
3.70261e-05
1.78405e-05
2.42663e-05
2.42618e-05
3.69009e-05
2.43452e-05
2.43631e-05
1.91095e-05
3.21419e-05
1.75241e-05
2.80777e-05
1.90538e-05
3.22858e-05
1.75697e-05
2.20641e-05
2.73536e-05
4.48852e-05
3.93263e-05
2.72349e-05
3.91981e-05
2.21511e-05
2.19025e-05
3.8816e-05
2.6894e-05
4.46683e-05
2.70145e-05
2.18243e-05
3.89378e-05
1.92274e-05
2.83566e-05
3.27093e-05
1.77105e-05
3.25675e-05
1.76604e-05
1.92875e-05
1.91099e-05
3.2151e-05
1.75243e-05
2.80714e-05
1.90543e-05
3.22848e-05
1.75688e-05