/*--------------------------------*- C++ -*----------------------------------*\
| =========                 |                                                 |
| \\      /  F ield         | OpenFOAM: The Open Source CFD Toolbox           |
|  \\    /   O peration     | Version:  v1906                                 |
|   \\  /    A nd           | Web:      www.OpenFOAM.com                      |
|    \\/     M anipulation  |                                                 |
\*---------------------------------------------------------------------------*/
FoamFile
{
    version     2.0;
    format      ascii;
    class       volScalarField;
    location    "300";
    object      nut;
}
// * * * * * * * * * * * * * * * * * * * * * * * * * * * * * * * * * * * * * //

dimensions      [0 2 -1 0 0 0 0];


internalField   nonuniform List<scalar> 
43248
(
0.000136825
0.000138617
0.000138615
0.000136732
0.000138635
0.000138624
0.000138629
0.000138649
0.000136766
0.000138641
0.000138656
0.000136757
0.000122353
0.000122351
0.000122369
0.000122387
2.36121e-05
2.36116e-05
7.37268e-05
7.37319e-05
9.1821e-05
5.00146e-05
9.20482e-05
9.18279e-05
5.00191e-05
5.00036e-05
9.20533e-05
0.000120661
9.38116e-05
0.000133968
0.000133121
0.0001213
0.000120667
0.000137832
9.38175e-05
0.000133967
9.35175e-05
0.000133116
0.000121304
2.36118e-05
2.36074e-05
0.000136031
7.37302e-05
7.37248e-05
7.36261e-05
7.36241e-05
2.36124e-05
2.3608e-05
5.00132e-05
9.20669e-05
9.38219e-05
0.000133984
0.000121306
5.00094e-05
9.20626e-05
0.000133986
9.37919e-05
0.000121312
0.000120667
0.000137847
9.38063e-05
0.000133977
9.35375e-05
0.00013313
0.000121319
9.18237e-05
5.00172e-05
5.00056e-05
9.2053e-05
0.000120666
0.000137867
0.000133995
9.38129e-05
0.000133145
9.35342e-05
0.000121314
9.18237e-05
5.00119e-05
5.00028e-05
9.20473e-05
2.36098e-05
7.37128e-05
7.37286e-05
2.36116e-05
0.000120671
0.000134
9.38247e-05
0.000133155
0.000121312
0.000120678
0.000137874
0.000134016
9.38255e-05
0.000133165
9.35269e-05
0.000121313
9.18206e-05
5.00119e-05
9.20655e-05
9.18338e-05
5.00149e-05
4.99998e-05
9.20563e-05
0.000136074
7.3732e-05
7.37307e-05
7.36322e-05
7.36326e-05
2.36115e-05
2.36072e-05
2.36112e-05
2.36068e-05
2.36103e-05
2.36093e-05
9.72579e-05
0.000112663
7.37032e-05
4.79382e-05
4.79316e-05
0.000112498
9.73076e-05
9.72908e-05
0.000112668
7.36966e-05
4.79332e-05
4.79281e-05
0.000112485
9.73485e-05
7.88223e-05
2.14921e-05
2.14902e-05
2.14903e-05
2.14878e-05
7.88388e-05
3.62667e-05
4.05365e-05
8.80234e-05
9.19213e-05
3.62652e-05
4.05354e-05
8.81021e-05
2.01019e-05
5.00127e-05
7.60338e-05
7.5991e-05
2.0104e-05
3.62685e-05
9.19462e-05
4.05392e-05
8.82006e-05
4.05403e-05
8.81237e-05
3.627e-05
3.62685e-05
4.05365e-05
8.80361e-05
9.19245e-05
3.62669e-05
4.05358e-05
8.8117e-05
2.01029e-05
5.00109e-05
7.60582e-05
7.60147e-05
2.01049e-05
2.01035e-05
7.597e-05
5.00118e-05
2.01015e-05
7.60103e-05
3.62699e-05
9.19431e-05
4.05408e-05
8.82206e-05
4.05394e-05
8.81326e-05
3.62721e-05
2.36097e-05
2.36095e-05
7.87966e-05
2.14863e-05
2.14888e-05
7.87764e-05
2.14884e-05
2.14909e-05
9.7272e-05
0.000112641
7.36938e-05
4.7934e-05
0.000112492
4.79245e-05
9.73242e-05
9.72609e-05
0.00011265
7.36923e-05
4.79419e-05
4.79324e-05
0.000112509
9.731e-05
9.71974e-05
4.79164e-05
0.000112246
7.36649e-05
0.000112399
9.71475e-05
4.7926e-05
9.7184e-05
4.79243e-05
0.000112263
7.36576e-05
9.71341e-05
4.79339e-05
0.000112408
7.88187e-05
2.149e-05
2.14926e-05
2.14879e-05
2.14905e-05
7.88411e-05
2.36103e-05
2.36101e-05
2.01032e-05
5.00109e-05
7.60563e-05
7.60157e-05
2.01052e-05
3.62695e-05
9.19493e-05
8.82271e-05
4.05394e-05
8.81274e-05
4.05398e-05
3.62725e-05
2.01014e-05
5.00065e-05
7.60301e-05
7.59854e-05
2.01035e-05
3.62663e-05
9.19414e-05
4.05429e-05
8.82071e-05
4.05358e-05
8.81113e-05
3.62703e-05
3.62692e-05
8.80414e-05
4.05318e-05
9.19282e-05
3.62669e-05
8.81144e-05
4.05389e-05
2.01035e-05
5.00104e-05
7.60602e-05
7.60158e-05
2.01055e-05
2.01041e-05
7.59686e-05
5.00083e-05
2.01021e-05
7.60136e-05
3.62704e-05
9.19519e-05
8.82127e-05
4.05424e-05
8.81396e-05
4.05357e-05
3.62724e-05
3.6267e-05
4.05319e-05
8.80324e-05
9.19259e-05
3.6265e-05
4.05382e-05
8.81062e-05
2.01024e-05
5.001e-05
7.60388e-05
7.59991e-05
2.01044e-05
2.0103e-05
7.59525e-05
5.00047e-05
2.01011e-05
7.59922e-05
3.62685e-05
9.19478e-05
4.05405e-05
8.82042e-05
4.05375e-05
8.81326e-05
3.62701e-05
2.36077e-05
9.72676e-05
0.000112646
7.36853e-05
4.79276e-05
0.000112487
4.7926e-05
9.73195e-05
9.72601e-05
0.000112673
7.36983e-05
4.79391e-05
4.79374e-05
0.000112502
9.73105e-05
7.88191e-05
2.1489e-05
2.14924e-05
2.14869e-05
2.14903e-05
7.88421e-05
2.36096e-05
3.62684e-05
8.80209e-05
4.0532e-05
9.19401e-05
3.6264e-05
8.81178e-05
4.0539e-05
2.01026e-05
5.00092e-05
7.60375e-05
7.59975e-05
2.01046e-05
2.01032e-05
7.59909e-05
3.62672e-05
9.19444e-05
8.82182e-05
4.0543e-05
8.81196e-05
4.05358e-05
3.62718e-05
3.62695e-05
8.80357e-05
4.05322e-05
9.19324e-05
3.62665e-05
8.81163e-05
4.05392e-05
2.01033e-05
5.00077e-05
7.60535e-05
7.60105e-05
2.01054e-05
2.0104e-05
7.59638e-05
5.00084e-05
2.01019e-05
7.60078e-05
3.627e-05
9.19536e-05
8.82136e-05
4.05423e-05
8.81334e-05
4.05361e-05
3.62727e-05
7.87965e-05
2.1489e-05
2.14861e-05
7.87783e-05
2.1491e-05
2.14881e-05
9.72562e-05
0.000112658
7.37e-05
4.79427e-05
0.000112502
4.79333e-05
9.73122e-05
9.72776e-05
0.000112652
7.36994e-05
4.79301e-05
0.000112501
4.79285e-05
9.73258e-05
9.71878e-05
4.79251e-05
0.000112254
7.36636e-05
9.71303e-05
0.000112423
4.79348e-05
9.72005e-05
4.79173e-05
0.000112253
7.36626e-05
9.7151e-05
0.000112411
4.79242e-05
7.88225e-05
2.14927e-05
2.14898e-05
2.14906e-05
2.14877e-05
7.88404e-05
2.36095e-05
2.36093e-05
2.36091e-05
2.36089e-05
0.000119498
0.000136547
0.000129803
0.000129807
0.000129676
0.000129673
0.000119594
0.000119497
0.000136663
0.000129838
0.000129795
0.000129669
0.000129692
0.000119593
0.000119492
0.000136667
0.0001298
0.000129818
0.000129672
0.000129668
0.000119614
0.000119499
0.000136666
0.000129808
0.000129812
0.000129694
0.000129702
0.000119598
0.000120218
0.000120227
0.000120021
0.000132111
0.000131825
0.000121715
0.00012022
0.000120232
0.000120008
0.000120014
0.000132123
0.000131809
0.000120234
0.000120248
0.000120031
0.000132124
0.000131809
0.000121747
0.000120243
0.000120255
0.000120022
0.000120034
0.00013213
0.000131806
0.00013227
0.000117026
0.000134168
0.00012096
0.000132148
0.000117274
0.000134224
0.000128523
0.000122102
9.36825e-05
0.000107732
0.00012201
0.000107527
0.000128582
0.000132724
0.000121008
0.000117576
0.000134771
0.00011733
0.000134747
0.000132793
0.000132264
0.000117034
0.000134194
0.000120962
0.000132265
0.000117286
0.000134227
0.000128356
0.000122173
9.36714e-05
0.000107736
0.000107526
0.00012196
0.000128763
0.000128279
0.000107295
0.000121596
9.36688e-05
0.000127925
0.000107505
0.000121806
0.000132779
0.00012101
0.000117587
0.000134783
0.000117336
0.000134769
0.000132841
0.000119314
0.000136086
0.000129242
0.000129245
0.000129359
0.000119232
0.000129355
0.000128381
0.000122186
9.36745e-05
0.000107728
0.000121969
0.000107539
0.000128775
0.000132812
0.000121012
0.000117585
0.00013477
0.00011734
0.000134737
0.00013278
0.000128471
0.000122137
9.3675e-05
0.000107723
0.000107517
0.000121945
0.000128656
0.000132725
0.000121002
0.000134947
0.000117581
0.000134649
0.000117312
0.000132892
0.000132449
0.000117023
0.00013401
0.000120976
0.000132012
0.000117296
0.000134457
0.000128515
0.00012211
9.3687e-05
0.00010774
0.000122008
0.000107535
0.000128571
0.000128111
0.000107306
0.000121654
9.36532e-05
0.000128076
0.000121746
0.0001075
0.000132536
0.000121011
0.000117596
0.000135045
0.000117329
0.000134567
0.000132972
0.000132252
0.000134072
0.000117036
0.000120974
0.000132248
0.000134412
0.000117285
0.000128508
0.00012218
9.36831e-05
0.000107724
0.000107533
0.000121987
0.000128653
0.000128147
0.000107299
0.000121598
9.36602e-05
0.000128098
0.000107506
0.000121783
0.00013277
0.00012101
0.00013502
0.000117585
0.000134597
0.000117343
0.000132783
0.000132425
0.000134165
0.000117017
0.000120972
0.000132
0.000134256
0.000117291
0.000128484
0.000122167
9.36782e-05
0.00010772
0.000121997
0.000107532
0.000128615
0.000128211
0.000107492
0.000132628
0.000121015
0.00013478
0.000117591
0.000134749
0.000117322
0.0001329
0.000132385
0.00013419
0.000117043
0.000120976
0.000132172
0.000134262
0.000117299
0.000128435
0.00012214
9.36818e-05
0.000107741
0.000107536
0.000122016
0.000128719
0.000128217
0.000107305
0.000121643
9.36688e-05
0.000128012
0.000107509
0.000121764
0.000132714
0.000121024
0.000134798
0.000117603
0.000134766
0.000117343
0.000132972
0.000119322
0.000136134
0.000129247
0.00012926
0.000119234
0.000129366
0.000129387
0.000150043
0.000101452
0.000101442
8.21655e-05
8.25847e-05
0.000102198
0.000102192
8.2914e-05
0.000102224
0.000102187
0.000102237
0.000102203
8.264e-05
0.000102227
0.000102228
8.2846e-05
8.23579e-05
8.2095e-05
0.000101425
0.000101408
9.92322e-05
9.92286e-05
8.22242e-05
8.23027e-05
0.000101427
0.000101406
9.92643e-05
9.92225e-05
0.000101422
9.92709e-05
9.92414e-05
8.23717e-05
8.2073e-05
0.000101447
9.92607e-05
9.92663e-05
8.21851e-05
0.000151069
0.000151071
0.000151062
0.000151068
7.00049e-05
4.95514e-05
6.90983e-05
4.95658e-05
2.36302e-05
2.36267e-05
7.00229e-05
4.95499e-05
6.90911e-05
4.95641e-05
0.000150047
0.000150039
0.000150046
0.000146965
0.000146967
0.000146957
0.000146964
6.69335e-05
6.57381e-05
0.000125985
0.000100691
6.60571e-05
6.63471e-05
0.000124963
2.36277e-05
2.36243e-05
6.69559e-05
0.000125991
6.57065e-05
0.000100682
6.60454e-05
0.000124962
6.63814e-05
6.10982e-05
6.10988e-05
8.23885e-05
6.14503e-05
6.14532e-05
2.36332e-05
2.36366e-05
2.36319e-05
2.36353e-05
8.27594e-05
6.09581e-05
6.09579e-05
6.05906e-05
6.05952e-05
6.79324e-05
4.95551e-05
4.95402e-05
6.88955e-05
6.79357e-05
4.95521e-05
4.9547e-05
6.89012e-05
6.45942e-05
0.000103033
6.54156e-05
0.000126982
6.47043e-05
0.000128027
6.55972e-05
6.46398e-05
0.000103011
6.54087e-05
0.000126976
6.47211e-05
0.00012802
6.55236e-05
2.36331e-05
2.36367e-05
8.27e-05
6.09476e-05
6.094e-05
6.06163e-05
6.06101e-05
2.36333e-05
2.3637e-05
6.79232e-05
4.95536e-05
4.95386e-05
6.89137e-05
6.46138e-05
0.000103032
6.54142e-05
0.000126983
6.47106e-05
0.000128032
6.5561e-05
6.7939e-05
4.95441e-05
4.95393e-05
6.89038e-05
6.4621e-05
0.00010301
0.000126983
6.53679e-05
0.000128029
6.47487e-05
6.55628e-05
6.46531e-05
0.000103057
6.53699e-05
0.000126986
6.47571e-05
0.000128032
6.5503e-05
6.79508e-05
4.95506e-05
4.95458e-05
6.88867e-05
6.46245e-05
0.000103027
0.000126985
6.53787e-05
0.000128029
6.47544e-05
6.55578e-05
6.79358e-05
4.95468e-05
4.95424e-05
6.88901e-05
2.36307e-05
2.36343e-05
8.29283e-05
6.09528e-05
6.09579e-05
6.05884e-05
6.05952e-05
2.36325e-05
2.36359e-05
6.4641e-05
0.000103048
0.000126987
6.54089e-05
0.000128032
6.47121e-05
6.55327e-05
6.4661e-05
0.000103051
0.00012699
6.54311e-05
0.000128035
6.47052e-05
6.55156e-05
6.79295e-05
4.95519e-05
4.95368e-05
6.89086e-05
6.79237e-05
4.95532e-05
4.9538e-05
6.89207e-05
8.2644e-05
6.0958e-05
6.09599e-05
6.05941e-05
6.05941e-05
2.36322e-05
2.36358e-05
2.36318e-05
2.36352e-05
2.363e-05
2.36267e-05
2.36289e-05
2.36256e-05
6.10949e-05
6.11008e-05
8.23384e-05
6.14559e-05
6.14522e-05
2.36203e-05
2.36236e-05
2.36197e-05
2.36226e-05
8.20071e-05
6.19228e-05
6.1916e-05
6.15779e-05
6.15872e-05
7.00103e-05
4.95583e-05
6.9101e-05
4.95631e-05
6.69979e-05
6.57021e-05
0.000125981
0.000100656
6.59803e-05
6.63959e-05
0.00012496
6.69442e-05
6.57179e-05
0.000125974
0.000100649
6.60376e-05
6.63916e-05
0.000124954
7.01894e-05
4.95761e-05
4.95618e-05
7.1047e-05
7.01934e-05
4.95733e-05
4.9569e-05
7.10458e-05
6.7432e-05
9.99399e-05
6.73542e-05
0.00012297
6.66665e-05
0.000123966
6.84516e-05
6.7473e-05
9.99251e-05
6.73371e-05
0.000122965
6.66867e-05
0.000123961
6.84368e-05
6.11201e-05
6.11124e-05
8.24856e-05
6.14419e-05
6.14345e-05
2.36304e-05
2.36269e-05
2.36205e-05
2.36238e-05
8.19911e-05
6.19103e-05
6.19063e-05
6.1604e-05
6.15969e-05
2.36207e-05
2.36241e-05
6.7e-05
6.57106e-05
0.000125986
0.000100682
6.60132e-05
6.63935e-05
0.000124957
7.00144e-05
4.95508e-05
6.90999e-05
4.95551e-05
6.69563e-05
0.000125979
6.57331e-05
0.000100645
6.60148e-05
0.00012496
6.63444e-05
7.01827e-05
4.95747e-05
4.95604e-05
7.1061e-05
6.74373e-05
9.99426e-05
6.73407e-05
0.000122966
6.66757e-05
0.000123971
6.8456e-05
7.01891e-05
4.95653e-05
4.95614e-05
7.10469e-05
6.74737e-05
9.99203e-05
0.000122969
6.72894e-05
0.000123965
6.67003e-05
6.84423e-05
6.99936e-05
4.95572e-05
6.91125e-05
4.95615e-05
6.69862e-05
0.000125981
6.57371e-05
0.000100661
6.60173e-05
0.000124963
6.63544e-05
7.00014e-05
4.95534e-05
6.91002e-05
4.95579e-05
6.74836e-05
9.99688e-05
6.72933e-05
0.000122974
6.67012e-05
0.000123969
6.83978e-05
7.02043e-05
4.95716e-05
4.95678e-05
7.10272e-05
6.74574e-05
9.99397e-05
0.000122972
6.73416e-05
0.000123967
6.67011e-05
6.84281e-05
7.01931e-05
4.95681e-05
4.95641e-05
7.10404e-05
6.10944e-05
6.11013e-05
8.23289e-05
6.14475e-05
6.1452e-05
2.36294e-05
2.3626e-05
2.36181e-05
2.36214e-05
8.20388e-05
6.19066e-05
6.19203e-05
6.15801e-05
6.15869e-05
2.36198e-05
2.3623e-05
6.69926e-05
0.000125989
6.56939e-05
0.000100684
6.60555e-05
0.000124968
6.63966e-05
7.00165e-05
4.95476e-05
6.90986e-05
4.9561e-05
7.00303e-05
4.95488e-05
6.90904e-05
4.95634e-05
6.74751e-05
9.99586e-05
0.000122974
6.73312e-05
0.000123979
6.66765e-05
6.84378e-05
6.74605e-05
9.99655e-05
0.000122979
6.73412e-05
0.000123977
6.66686e-05
6.84537e-05
7.01889e-05
4.9568e-05
4.95619e-05
7.1061e-05
7.01841e-05
4.95738e-05
4.95596e-05
7.10646e-05
2.36292e-05
2.36258e-05
2.36286e-05
2.36253e-05
8.19629e-05
6.19193e-05
6.19217e-05
6.1585e-05
6.15841e-05
2.36196e-05
2.36229e-05
2.36192e-05
2.36223e-05
3.6196e-05
6.96533e-05
4.03524e-05
7.10859e-05
4.03405e-05
7.07672e-05
3.6199e-05
2.02174e-05
6.83143e-05
4.95604e-05
2.02169e-05
6.84572e-05
3.61958e-05
6.9457e-05
4.03332e-05
7.03618e-05
3.61926e-05
4.03457e-05
7.06858e-05
2.0214e-05
6.86259e-05
4.95568e-05
6.84897e-05
2.02145e-05
2.36298e-05
2.3627e-05
3.61976e-05
6.96449e-05
7.11033e-05
4.0352e-05
7.07686e-05
4.03402e-05
3.62007e-05
2.02188e-05
6.83403e-05
4.95588e-05
2.02183e-05
6.84824e-05
3.61975e-05
6.94785e-05
7.03631e-05
4.0333e-05
3.61943e-05
7.07064e-05
4.03453e-05
2.02154e-05
6.86501e-05
4.95552e-05
6.85125e-05
2.02159e-05
2.36274e-05
2.36245e-05
7.08393e-05
2.15529e-05
2.155e-05
2.15528e-05
2.15499e-05
7.09656e-05
7.39013e-05
7.09682e-05
4.71525e-05
6.12072e-05
7.37312e-05
7.11627e-05
4.71571e-05
7.39175e-05
7.09611e-05
4.71398e-05
6.1209e-05
7.38e-05
7.11851e-05
4.71531e-05
7.07977e-05
2.15561e-05
2.15532e-05
7.06672e-05
2.15562e-05
2.15533e-05
7.41658e-05
4.71697e-05
6.13439e-05
7.18054e-05
7.15851e-05
4.71657e-05
7.43294e-05
7.42293e-05
4.71657e-05
6.1344e-05
7.18187e-05
7.15881e-05
4.71525e-05
7.43512e-05
2.36333e-05
2.36365e-05
2.3632e-05
2.36352e-05
7.04502e-05
2.15634e-05
2.15595e-05
7.03062e-05
2.15635e-05
2.15596e-05
7.33095e-05
7.05529e-05
6.08421e-05
4.71455e-05
4.71402e-05
7.0314e-05
7.34595e-05
7.33486e-05
7.05505e-05
6.0848e-05
4.71344e-05
4.71295e-05
7.03353e-05
7.3514e-05
7.30095e-05
4.7127e-05
6.96724e-05
6.07077e-05
7.28695e-05
4.71324e-05
6.99123e-05
7.30563e-05
4.71156e-05
6.96934e-05
6.07065e-05
7.29116e-05
4.71209e-05
6.99112e-05
7.04874e-05
2.15601e-05
2.15563e-05
2.156e-05
2.15561e-05
7.06271e-05
3.6189e-05
4.03219e-05
6.95078e-05
6.83093e-05
3.61857e-05
4.03319e-05
6.98608e-05
2.02198e-05
4.95462e-05
6.82797e-05
2.02203e-05
6.81452e-05
2.02232e-05
6.79624e-05
4.95499e-05
2.02227e-05
6.80994e-05
3.61892e-05
6.85287e-05
4.03385e-05
7.02783e-05
3.61924e-05
4.03269e-05
6.99409e-05
3.61907e-05
4.03221e-05
6.95207e-05
6.8313e-05
3.61875e-05
4.03319e-05
6.98762e-05
2.02209e-05
4.95529e-05
6.82994e-05
6.81729e-05
2.02213e-05
2.02241e-05
6.79899e-05
4.95464e-05
2.02237e-05
6.81192e-05
3.6191e-05
6.85279e-05
4.0339e-05
7.0294e-05
4.03271e-05
6.99477e-05
3.61942e-05
2.36334e-05
2.36363e-05
7.04504e-05
2.15605e-05
2.15628e-05
7.03079e-05
2.15606e-05
2.15629e-05
7.33354e-05
7.05659e-05
6.08687e-05
4.71409e-05
7.03156e-05
4.71271e-05
7.34915e-05
7.33135e-05
7.05387e-05
6.08608e-05
4.71483e-05
4.71347e-05
7.03351e-05
7.34559e-05
7.30784e-05
4.71132e-05
6.9678e-05
6.06961e-05
6.99229e-05
7.28928e-05
4.71275e-05
7.30063e-05
4.71209e-05
6.97065e-05
6.06899e-05
7.28706e-05
4.71349e-05
6.98976e-05
7.04886e-05
2.15573e-05
2.15595e-05
2.15572e-05
2.15594e-05
7.06277e-05
2.36337e-05
2.36366e-05
3.61906e-05
6.95069e-05
4.03218e-05
6.83324e-05
3.61873e-05
6.98834e-05
4.03314e-05
2.02212e-05
4.95447e-05
6.83104e-05
2.02217e-05
6.81625e-05
2.02246e-05
6.79756e-05
4.95483e-05
2.02241e-05
6.81342e-05
3.61908e-05
6.85206e-05
7.02973e-05
4.03382e-05
3.61941e-05
6.99413e-05
4.03266e-05
3.61882e-05
4.03251e-05
6.95067e-05
6.832e-05
3.6185e-05
4.03275e-05
6.9861e-05
2.02194e-05
4.95453e-05
6.82741e-05
6.81426e-05
2.02199e-05
2.02228e-05
6.7959e-05
4.95385e-05
2.02223e-05
6.80954e-05
3.61885e-05
6.85281e-05
4.03326e-05
7.02815e-05
4.0333e-05
6.99381e-05
3.61916e-05
3.61911e-05
6.95181e-05
4.03252e-05
6.83057e-05
3.6188e-05
6.98728e-05
4.03275e-05
2.02216e-05
4.95517e-05
6.83004e-05
6.81719e-05
2.0222e-05
2.02249e-05
6.79892e-05
4.9545e-05
2.02245e-05
6.81203e-05
3.61915e-05
6.854e-05
7.0299e-05
4.03326e-05
6.99491e-05
4.0333e-05
3.61945e-05
3.61889e-05
4.03216e-05
6.9513e-05
6.83096e-05
3.61857e-05
4.0331e-05
6.98653e-05
2.02203e-05
4.95482e-05
6.8278e-05
6.81525e-05
2.02207e-05
2.02236e-05
6.79688e-05
4.95414e-05
2.02232e-05
6.80984e-05
3.61892e-05
6.85296e-05
4.03383e-05
7.02835e-05
4.03265e-05
6.99404e-05
3.61924e-05
2.36309e-05
2.3634e-05
7.04519e-05
2.15593e-05
2.15626e-05
7.03086e-05
2.15594e-05
2.15627e-05
7.33439e-05
7.05231e-05
6.08402e-05
4.71342e-05
7.03409e-05
4.71291e-05
7.3506e-05
7.33041e-05
7.05285e-05
6.08479e-05
4.7145e-05
4.71394e-05
7.03317e-05
7.34655e-05
7.30699e-05
4.71151e-05
6.9713e-05
6.07006e-05
6.98898e-05
7.28986e-05
4.71207e-05
7.30277e-05
4.71253e-05
6.96894e-05
6.07056e-05
7.28566e-05
4.71317e-05
6.98891e-05
7.04884e-05
2.1556e-05
2.15593e-05
2.15559e-05
2.15593e-05
7.06289e-05
2.36326e-05
2.36358e-05
3.6189e-05
6.95126e-05
4.03262e-05
6.83304e-05
3.61859e-05
6.98698e-05
4.03264e-05
2.02205e-05
4.95428e-05
6.82923e-05
6.81439e-05
2.02209e-05
2.02238e-05
6.79573e-05
4.95462e-05
2.02233e-05
6.81137e-05
3.61895e-05
6.85242e-05
7.02917e-05
4.03319e-05
6.99407e-05
4.03335e-05
3.61925e-05
3.61911e-05
6.95147e-05
4.03224e-05
6.83412e-05
3.61879e-05
6.98815e-05
4.03306e-05
2.02216e-05
4.9544e-05
6.83102e-05
6.81611e-05
2.02221e-05
2.0225e-05
6.79752e-05
4.95477e-05
2.02245e-05
6.81323e-05
3.61914e-05
6.85182e-05
7.0304e-05
4.0338e-05
6.99447e-05
4.03269e-05
3.61946e-05
7.04475e-05
2.15627e-05
2.15598e-05
7.03083e-05
2.15628e-05
2.15599e-05
7.32966e-05
7.05155e-05
6.0847e-05
4.71441e-05
7.34672e-05
7.0335e-05
4.71391e-05
7.33599e-05
7.0549e-05
6.08479e-05
4.71402e-05
7.34908e-05
7.03285e-05
4.71266e-05
7.30289e-05
4.71252e-05
6.97091e-05
6.07033e-05
7.28494e-05
6.98887e-05
4.71305e-05
7.30434e-05
4.71121e-05
6.96858e-05
6.07053e-05
7.29175e-05
6.99144e-05
4.71267e-05
7.0492e-05
2.15595e-05
2.15566e-05
7.06247e-05
2.15594e-05
2.15565e-05
2.36325e-05
2.36355e-05
2.36319e-05
2.36351e-05
2.36299e-05
2.36268e-05
2.36288e-05
2.36257e-05
7.08344e-05
2.15535e-05
2.15497e-05
2.15534e-05
2.15495e-05
7.09683e-05
7.38883e-05
7.0938e-05
4.71537e-05
6.12101e-05
7.37486e-05
4.71585e-05
7.11961e-05
7.3943e-05
7.09583e-05
4.71431e-05
6.12089e-05
7.37791e-05
4.71474e-05
7.11962e-05
7.07997e-05
2.15567e-05
2.15528e-05
7.06635e-05
2.15568e-05
2.15529e-05
7.41809e-05
4.7171e-05
6.1338e-05
7.18162e-05
4.71666e-05
7.4316e-05
7.1569e-05
7.4211e-05
4.71599e-05
6.13456e-05
7.18223e-05
4.71562e-05
7.43709e-05
7.15796e-05
2.36205e-05
2.36236e-05
2.36195e-05
2.36225e-05
7.11325e-05
2.15502e-05
2.15463e-05
7.1002e-05
2.15501e-05
2.15469e-05
7.50032e-05
7.30554e-05
6.18162e-05
4.71898e-05
4.71898e-05
7.28231e-05
7.51647e-05
7.50162e-05
7.30595e-05
6.18138e-05
4.71898e-05
4.71816e-05
7.28272e-05
7.52164e-05
7.47499e-05
4.7179e-05
7.21906e-05
6.16855e-05
7.45898e-05
4.71821e-05
7.24389e-05
7.48104e-05
4.71684e-05
7.22109e-05
6.16892e-05
7.46274e-05
4.71726e-05
7.24383e-05
7.11657e-05
2.15463e-05
2.1544e-05
2.15466e-05
2.15437e-05
7.12871e-05
3.61978e-05
6.96558e-05
4.03525e-05
7.11016e-05
4.03406e-05
7.07703e-05
3.62009e-05
2.02184e-05
6.83516e-05
4.95577e-05
2.0218e-05
6.84746e-05
3.61976e-05
6.94593e-05
4.03335e-05
7.03669e-05
4.03457e-05
3.61944e-05
7.07096e-05
2.02151e-05
6.86427e-05
4.95639e-05
6.85238e-05
2.02155e-05
3.6202e-05
4.03467e-05
7.11559e-05
7.05319e-05
3.61992e-05
4.03587e-05
7.14655e-05
2.02079e-05
4.95673e-05
6.89465e-05
6.88184e-05
2.02083e-05
2.02113e-05
6.86557e-05
4.9571e-05
2.02111e-05
6.87878e-05
3.6202e-05
7.07054e-05
4.03657e-05
7.18402e-05
4.03538e-05
7.15372e-05
3.62049e-05
3.6204e-05
4.03469e-05
7.11616e-05
7.05338e-05
3.6201e-05
4.03589e-05
7.14893e-05
2.02093e-05
4.95741e-05
6.89632e-05
6.88508e-05
2.02097e-05
2.02126e-05
6.869e-05
4.95682e-05
2.02122e-05
6.88054e-05
3.62041e-05
7.07097e-05
4.03659e-05
7.18659e-05
4.0354e-05
7.15391e-05
3.6207e-05
7.08355e-05
2.15507e-05
2.1553e-05
2.15506e-05
2.15528e-05
7.0969e-05
7.39281e-05
7.09529e-05
4.714e-05
6.11991e-05
4.71536e-05
7.37949e-05
7.11737e-05
7.38888e-05
7.09599e-05
4.71477e-05
6.11918e-05
7.11621e-05
7.37531e-05
4.7161e-05
7.08007e-05
2.15538e-05
2.15561e-05
2.1554e-05
7.06647e-05
2.15562e-05
7.42215e-05
4.71664e-05
6.13652e-05
7.18061e-05
4.7153e-05
7.15983e-05
7.43579e-05
7.41807e-05
4.7174e-05
6.13576e-05
7.17864e-05
7.15927e-05
4.71606e-05
7.43186e-05
2.36301e-05
2.36272e-05
2.36208e-05
2.36236e-05
7.11321e-05
2.15473e-05
2.15496e-05
7.10035e-05
2.15474e-05
2.15497e-05
7.5036e-05
7.30513e-05
6.18371e-05
4.71906e-05
7.28553e-05
4.71775e-05
7.52149e-05
7.50179e-05
7.30387e-05
6.18212e-05
4.71975e-05
4.71851e-05
7.28393e-05
7.51396e-05
7.48047e-05
4.71652e-05
7.22238e-05
6.16812e-05
7.24268e-05
7.4636e-05
4.71786e-05
7.47327e-05
4.71727e-05
7.22187e-05
6.16732e-05
7.46013e-05
4.71861e-05
7.24145e-05
7.11666e-05
2.15442e-05
2.15465e-05
2.15441e-05
2.15464e-05
7.12912e-05
2.3621e-05
2.36238e-05
3.61953e-05
6.96565e-05
4.03451e-05
7.10897e-05
4.03465e-05
7.07578e-05
3.61982e-05
2.0217e-05
6.83223e-05
4.95497e-05
2.02166e-05
6.84482e-05
3.6195e-05
6.94678e-05
4.03399e-05
7.03536e-05
4.03384e-05
3.6192e-05
7.06939e-05
2.02137e-05
6.86159e-05
4.95563e-05
6.84941e-05
2.02141e-05
3.62038e-05
7.11598e-05
4.03465e-05
7.05505e-05
3.62008e-05
7.14864e-05
4.03584e-05
2.02096e-05
4.95659e-05
6.89709e-05
6.88419e-05
2.021e-05
2.0213e-05
6.86789e-05
4.95693e-05
2.02125e-05
6.8813e-05
3.62039e-05
7.07008e-05
7.18551e-05
4.03654e-05
7.1541e-05
4.03535e-05
3.62068e-05
3.62013e-05
4.03531e-05
7.11484e-05
7.05402e-05
3.61985e-05
4.0352e-05
7.14754e-05
2.02079e-05
4.95665e-05
6.89375e-05
6.88207e-05
2.02083e-05
2.02112e-05
6.86606e-05
4.95602e-05
2.02108e-05
6.87783e-05
3.62016e-05
7.0708e-05
4.03588e-05
7.18474e-05
4.036e-05
7.15266e-05
3.62043e-05
3.61983e-05
6.96713e-05
7.11035e-05
4.03451e-05
7.07711e-05
4.03466e-05
3.62011e-05
2.02191e-05
6.83522e-05
4.95562e-05
6.84743e-05
2.02188e-05
3.61979e-05
6.94513e-05
7.03638e-05
4.03399e-05
7.07079e-05
3.6195e-05
4.03384e-05
2.02159e-05
6.86423e-05
4.95628e-05
6.85241e-05
2.02162e-05
3.6196e-05
6.96562e-05
4.03518e-05
7.11006e-05
4.034e-05
7.07594e-05
3.61991e-05
2.02178e-05
6.83309e-05
4.95525e-05
2.02175e-05
6.84531e-05
3.61958e-05
6.9455e-05
4.03328e-05
7.03581e-05
3.61926e-05
4.03449e-05
7.07006e-05
2.02146e-05
6.86214e-05
4.9559e-05
6.85026e-05
2.02149e-05
3.62043e-05
7.11596e-05
4.03532e-05
7.05234e-05
3.62015e-05
7.14949e-05
4.0352e-05
2.021e-05
4.95731e-05
6.89621e-05
6.88513e-05
2.02104e-05
2.02133e-05
6.86903e-05
4.95666e-05
2.0213e-05
6.88046e-05
3.62046e-05
7.0722e-05
7.18614e-05
4.03588e-05
7.15363e-05
4.03601e-05
3.62073e-05
3.62022e-05
4.03463e-05
7.11495e-05
7.05284e-05
3.61992e-05
4.03581e-05
7.14822e-05
2.02087e-05
4.95691e-05
6.89417e-05
6.88297e-05
2.02091e-05
2.0212e-05
6.86692e-05
4.9563e-05
2.02117e-05
6.87839e-05
3.62023e-05
7.07098e-05
4.03651e-05
7.18543e-05
4.03533e-05
7.1528e-05
3.62052e-05
7.08375e-05
2.15494e-05
2.15527e-05
2.15493e-05
2.15526e-05
7.09698e-05
7.39468e-05
7.09732e-05
4.71426e-05
6.12043e-05
4.71474e-05
7.37798e-05
7.11744e-05
7.39025e-05
7.09634e-05
4.7153e-05
6.12095e-05
7.11807e-05
7.3741e-05
4.71581e-05
7.08015e-05
2.15526e-05
2.15559e-05
2.15527e-05
7.06653e-05
2.1556e-05
7.4206e-05
4.716e-05
6.13392e-05
7.18174e-05
4.71554e-05
7.15936e-05
7.43733e-05
7.41707e-05
4.71703e-05
6.13456e-05
7.17996e-05
7.15876e-05
4.71659e-05
7.43289e-05
2.36292e-05
2.36262e-05
2.36183e-05
2.36212e-05
7.11308e-05
2.15461e-05
2.15494e-05
7.10056e-05
2.15462e-05
2.15495e-05
7.50408e-05
7.306e-05
6.18082e-05
4.71838e-05
7.28278e-05
4.71798e-05
7.52045e-05
7.50061e-05
7.30443e-05
6.18167e-05
4.71939e-05
4.71903e-05
7.2834e-05
7.51642e-05
7.47956e-05
4.71679e-05
7.22137e-05
6.16842e-05
7.24385e-05
7.46277e-05
4.7172e-05
7.47543e-05
4.71783e-05
7.22127e-05
6.16892e-05
7.45926e-05
4.71823e-05
7.24274e-05
7.11693e-05
2.15429e-05
2.15463e-05
2.15428e-05
2.15462e-05
7.12892e-05
2.362e-05
2.36229e-05
3.61963e-05
6.96544e-05
7.10967e-05
4.03451e-05
7.07633e-05
4.03465e-05
3.61991e-05
2.0218e-05
6.83193e-05
4.95569e-05
6.84637e-05
2.02176e-05
3.61958e-05
6.94774e-05
7.03576e-05
4.03397e-05
7.07038e-05
3.61929e-05
4.03383e-05
2.02147e-05
6.86257e-05
4.95532e-05
6.84961e-05
2.02151e-05
3.61982e-05
6.96462e-05
7.11087e-05
4.03519e-05
7.0769e-05
4.034e-05
3.62012e-05
2.02192e-05
6.83374e-05
4.9558e-05
2.02187e-05
6.84817e-05
3.6198e-05
6.9487e-05
7.03622e-05
4.03328e-05
3.61948e-05
7.07123e-05
4.0345e-05
2.02158e-05
6.86505e-05
4.95544e-05
6.85108e-05
2.02162e-05
3.62023e-05
7.11538e-05
4.03531e-05
7.05599e-05
3.61995e-05
7.14887e-05
4.0352e-05
2.02089e-05
4.9569e-05
6.89423e-05
6.8831e-05
2.02092e-05
2.02122e-05
6.86696e-05
4.95647e-05
2.02118e-05
6.87855e-05
3.62026e-05
7.07007e-05
7.18554e-05
4.03588e-05
7.15296e-05
4.036e-05
3.62053e-05
3.62044e-05
7.11599e-05
4.03464e-05
7.05561e-05
3.62014e-05
7.14878e-05
4.03583e-05
2.021e-05
4.95652e-05
6.8971e-05
6.88399e-05
2.02104e-05
2.02133e-05
6.86773e-05
4.95686e-05
2.02129e-05
6.88133e-05
3.62045e-05
7.07026e-05
7.18582e-05
4.03654e-05
7.15421e-05
4.03534e-05
3.62074e-05
2.3629e-05
2.3626e-05
2.36285e-05
2.36254e-05
7.1129e-05
2.15495e-05
2.15467e-05
7.10069e-05
2.15496e-05
2.15468e-05
7.50033e-05
7.30408e-05
6.1815e-05
4.71933e-05
7.28303e-05
4.719e-05
7.51601e-05
7.50503e-05
7.30688e-05
6.18151e-05
4.71899e-05
7.28335e-05
4.71771e-05
7.52071e-05
7.47516e-05
4.7178e-05
7.22117e-05
6.16869e-05
7.45889e-05
7.24195e-05
4.71815e-05
7.47919e-05
4.71648e-05
7.22086e-05
6.16901e-05
7.46433e-05
7.24412e-05
4.7178e-05
7.11688e-05
2.15464e-05
2.15435e-05
2.15463e-05
2.15434e-05
7.12882e-05
2.36198e-05
2.36226e-05
2.36192e-05
2.36222e-05
0.000173133
0.000173146
0.000149011
0.000172277
0.000172286
0.000191513
0.000192216
7.41372e-05
7.26512e-05
7.25983e-05
8.26173e-05
7.38834e-05
7.27948e-05
7.28528e-05
7.32744e-05
8.24524e-05
7.24114e-05
7.24122e-05
7.22532e-05
7.22251e-05
7.3416e-05
7.32425e-05
8.2475e-05
7.24905e-05
7.24594e-05
7.22226e-05
7.22872e-05
7.3499e-05
7.32541e-05
8.25915e-05
7.23197e-05
7.23681e-05
7.23346e-05
7.22801e-05
7.34898e-05
7.32302e-05
8.23703e-05
7.24163e-05
7.24965e-05
7.34694e-05
7.22517e-05
7.22195e-05
7.40737e-05
7.26652e-05
7.26606e-05
8.25495e-05
7.39424e-05
7.28414e-05
7.27737e-05
7.59083e-05
8.1892e-05
7.41228e-05
7.41181e-05
7.39624e-05
7.3937e-05
7.60492e-05
7.41575e-05
7.26109e-05
7.26543e-05
8.25783e-05
7.2854e-05
7.389e-05
7.28502e-05
7.58268e-05
8.18642e-05
7.42258e-05
7.41042e-05
7.39016e-05
7.39864e-05
7.61328e-05
7.41512e-05
7.27208e-05
7.26889e-05
8.24847e-05
7.28007e-05
7.38915e-05
7.27999e-05
7.58652e-05
8.19293e-05
7.4122e-05
7.41046e-05
7.39574e-05
7.39694e-05
7.60782e-05
7.58528e-05
8.17903e-05
7.42279e-05
7.42173e-05
7.38784e-05
7.39098e-05
7.61296e-05
0.000152104
0.000173989
0.000173999
0.000174848
0.000174861
0.000193621
0.000192918
0.000152109
0.000173989
0.000174002
0.000174848
0.000174862
0.000193622
0.000192919
0.000152101
0.000173985
0.000173996
0.000174846
0.000174858
0.000193617
0.000192914
0.000152108
0.000173989
0.000174
0.000174849
0.00017486
0.000193619
0.000192916
0.000173133
0.000173146
0.000149014
0.000172276
0.00017229
0.000191514
0.000192217
0.00017313
0.000173142
0.000149004
0.000172273
0.000172284
0.000191509
0.000192212
0.000173134
0.000173145
0.000149011
0.000172276
0.000172288
0.00019151
0.000192214
0.000147991
0.000170569
0.000170579
0.000171423
0.000171436
0.00019081
0.000190105
0.000147996
0.000170569
0.000170583
0.000171423
0.000171437
0.000190811
0.000190106
0.000147987
0.000170565
0.000170577
0.00017142
0.000171433
0.000190806
0.000190101
0.000147995
0.000170569
0.000170581
0.000171424
0.000171435
0.000190807
0.000190103
7.26735e-05
6.67643e-05
6.86835e-05
7.49302e-05
6.84619e-05
7.51438e-05
7.26998e-05
6.88248e-05
6.84812e-05
6.80065e-05
6.58658e-05
6.84884e-05
6.85638e-05
6.81475e-05
7.26454e-05
6.62193e-05
6.77606e-05
7.52661e-05
7.26176e-05
6.798e-05
7.5017e-05
6.88214e-05
6.87499e-05
6.62189e-05
6.90661e-05
6.90173e-05
6.86252e-05
6.91595e-05
7.28288e-05
6.67491e-05
7.5129e-05
6.8701e-05
7.5045e-05
6.84325e-05
7.26052e-05
6.87255e-05
6.84837e-05
6.79692e-05
6.58954e-05
6.85447e-05
6.85674e-05
6.81712e-05
7.25454e-05
6.6241e-05
7.51656e-05
6.77328e-05
7.27673e-05
7.51978e-05
6.79911e-05
6.89444e-05
6.87471e-05
6.61935e-05
6.9079e-05
6.90271e-05
6.85948e-05
6.90906e-05
7.45545e-05
8.20027e-05
7.32188e-05
7.32512e-05
7.30699e-05
7.30016e-05
7.47938e-05
7.27526e-05
8.29048e-05
7.18956e-05
7.18281e-05
7.26146e-05
7.20443e-05
7.21336e-05
7.27798e-05
6.63147e-05
7.55002e-05
6.48967e-05
7.2393e-05
6.66112e-05
7.54698e-05
6.81414e-05
6.81434e-05
6.52037e-05
6.76016e-05
6.78541e-05
6.73242e-05
6.85787e-05
6.82747e-05
6.67324e-05
6.73259e-05
6.49289e-05
6.76253e-05
6.78883e-05
6.69707e-05
7.24153e-05
6.52792e-05
6.73104e-05
7.53095e-05
6.70109e-05
7.52982e-05
7.28117e-05
7.25932e-05
6.63674e-05
7.53742e-05
6.48358e-05
7.26177e-05
6.65724e-05
7.55961e-05
6.82313e-05
6.80627e-05
6.52186e-05