/*--------------------------------*- C++ -*----------------------------------*\
| =========                 |                                                 |
| \\      /  F ield         | OpenFOAM: The Open Source CFD Toolbox           |
|  \\    /   O peration     | Version:  v1906                                 |
|   \\  /    A nd           | Web:      www.OpenFOAM.com                      |
|    \\/     M anipulation  |                                                 |
\*---------------------------------------------------------------------------*/
FoamFile
{
    version     2.0;
    format      ascii;
    class       surfaceScalarField;
    location    "150";
    object      phi;
}
// * * * * * * * * * * * * * * * * * * * * * * * * * * * * * * * * * * * * * //

dimensions      [0 3 -1 0 0 0 0];
oriented        oriented;


internalField   nonuniform List<scalar> 
123680
(
3.8219e-09
3.74563e-09
-4.13157e-09
-4.05631e-09
0.00117696
-0.00117696
-1.2782e-06
-2.01458e-09
5.95854e-09
0.00114742
-2.91622e-07
1.28462e-06
2.88364e-07
9.39317e-07
-2.82186e-07
2.75856e-07
-9.3926e-07
-0.00114742
-1.27316e-06
3.33329e-10
9.01941e-09
0.00114728
-2.91832e-07
1.27926e-06
2.89e-07
9.39913e-07
-2.85801e-07
2.78987e-07
-9.39881e-07
-0.00114729
1.30822e-06
1.27292e-06
-2.5855e-07
-2.64971e-07
0.000272732
-0.00027479
-0.000274785
1.30827e-06
1.27237e-06
-2.57963e-07
-2.64989e-07
0.000272728
1.31341e-06
1.27597e-06
-2.56502e-07
-2.64919e-07
0.00027275
-0.000274818
-1.31929e-06
-1.28206e-06
-0.000272751
2.62759e-07
2.70631e-07
0.000274819
8.55952e-09
0.00114681
-2.97605e-07
1.31944e-06
2.94303e-07
9.39977e-07
-2.82707e-07
2.76347e-07
-9.39952e-07
-0.00114681
-1.31851e-06
-5.80803e-09
8.88646e-09
0.00114718
-3.00192e-07
1.32461e-06
2.97163e-07
9.454e-07
-2.86578e-07
2.78487e-07
-9.45859e-07
-0.00114718
-4.80926e-09
-0.00114681
8.92134e-09
-1.31352e-06
2.94074e-07
-2.97832e-07
-9.3993e-07
2.76275e-07
-2.83046e-07
9.40448e-07
0.00114681
1.32451e-06
-6.82517e-09
-0.00114719
7.81143e-09
-1.31864e-06
2.9696e-07
-3.00418e-07
-9.45868e-07
2.78587e-07
-2.86709e-07
9.4588e-07
0.0011472
-2.59534e-07
-2.61479e-07
0.000272726
-0.000274802
-1.28434e-06
-0.000272728
2.64849e-07
2.6774e-07
0.000274804
8.74795e-09
0.00114789
-2.94546e-07
1.2824e-06
2.92021e-07
9.41716e-07
-2.86537e-07
2.78132e-07
-9.43548e-07
-0.00114788
-1.31467e-06
-3.65948e-09
1.51617e-08
0.00114685
-3.01504e-07
1.3182e-06
2.95963e-07
9.42326e-07
-2.85825e-07
2.78589e-07
-9.42953e-07
-0.00114686
-5.52164e-09
-0.00114789
8.76152e-09
-1.27623e-06
2.91766e-07
-2.94865e-07
-9.43142e-07
2.78295e-07
-2.86608e-07
9.42636e-07
0.00114789
1.31775e-06
-5.02175e-09
-0.00114685
1.60552e-08
-1.31491e-06
2.95483e-07
-3.02099e-07
-9.42656e-07
2.78619e-07
-2.86038e-07
9.42939e-07
0.00114685
-4.43078e-09
9.03779e-09
0.00114667
-2.94816e-07
1.3135e-06
2.91211e-07
9.40884e-07
-2.8217e-07
2.76938e-07
-9.39184e-07
-0.00114667
-4.79349e-09
-0.00114742
6.12861e-09
-1.27836e-06
2.88175e-07
-2.91916e-07
-9.39006e-07
2.76023e-07
9.39935e-07
-2.82269e-07
0.00114743
1.31298e-06
0.00114666
-7.22467e-09
-0.00114666
1.04113e-08
-1.30855e-06
2.90616e-07
-2.95295e-07
-9.39062e-07
2.77259e-07
-2.82134e-07
9.44212e-07
-2.56608e-07
-2.65206e-07
0.000272727
-0.000274793
-1.27877e-06
-0.000272722
2.6246e-07
2.69712e-07
0.000274787
-3.21484e-09
6.42107e-09
0.00114777
-2.91271e-07
1.27983e-06
2.89647e-07
9.40281e-07
-2.85631e-07
2.79124e-07
-9.39635e-07
-0.00114777
6.40081e-10
-0.00114727
9.73154e-09
-1.27366e-06
2.88609e-07
-2.92421e-07
-9.39996e-07
2.78742e-07
9.40109e-07
-2.86288e-07
0.00114727
1.27985e-06
0.00114776
-3.55941e-09
-0.00114776
5.78883e-09
-1.27294e-06
2.89324e-07
-2.91512e-07
-9.39652e-07
2.79135e-07
-2.85866e-07
9.40719e-07
-0.000272729
2.66282e-07
2.7016e-07
1.03195e-08
-2.94739e-07
1.31303e-06
2.90648e-07
9.43232e-07
-2.8176e-07
2.7696e-07
-9.4174e-07
-6.21051e-09
-2.90703e-07
1.28015e-06
2.89546e-07
-2.85605e-07
2.78585e-07
-1.91033e-09
5.05687e-09
9.39459e-07
-9.39899e-07
-5.6331e-10
-7.30751e-08
0.000230189
3.52846e-08
3.43954e-09
-0.000230154
-7.26467e-09
4.81587e-08
0.000192663
-7.97857e-09
-0.000192696
9.50507e-09
-4.50669e-08
0.000192698
1.40951e-09
-0.000192664
-6.62696e-10
7.07025e-08
0.000230154
-3.44331e-08
-6.86177e-10
-0.000230189
6.2177e-09
2.75028e-08
9.71215e-05
-9.71552e-05
-1.04863e-08
-2.13988e-08
9.71513e-05
-9.71194e-05
-7.1459e-08
-1.25868e-09
0.00023024
3.84223e-09
3.23511e-08
-0.000230203
-5.89043e-09
5.22771e-08
0.000192694
-1.07735e-08
-0.000192729
1.0981e-08
-4.55671e-08
0.000192728
-5.04048e-10
-0.000192693
7.22921e-08
-2.36433e-10
0.000230205
-8.60908e-11
-3.32487e-08
-0.000230244
-3.20368e-09
-5.66329e-09
0.0011769
-0.0011769
6.58201e-10
-3.09694e-09
0.00117654
-0.00117654
-3.16226e-09
-3.81521e-09
0.00117675
-0.00117675
-0.00117696
-4.09328e-09
-4.07808e-09
0.00117696
-0.0011769
-4.173e-09
-5.93456e-09
0.0011769
-0.00117653
1.9158e-09
-2.59e-09
0.00117653
-0.00117675
-2.46825e-09
-4.39337e-09
0.00117675
7.33611e-08
-1.71389e-09
0.000253758
3.87232e-09
-2.08295e-07
-0.000253625
-2.5349e-08
-4.95977e-08
1.16815e-07
0.000246516
1.81167e-08
-0.000246576
0.00116064
1.60506e-09
2.82852e-09
1.03651e-06
-8.54139e-07
8.57655e-07
-1.03222e-06
-0.00116064
6.27271e-09
1.28449e-06
0.00114742
-3.94329e-09
-9.38751e-07
2.75829e-07
-2.82018e-07
9.39818e-07
-1.27814e-06
2.88068e-07
-2.9175e-07
2.4821e-08
4.74049e-08
0.000246577
-2.03613e-08
-0.000246517
-1.12185e-07
-6.14958e-09
0.00116064
1.90817e-09
-1.03178e-06
8.57852e-07
-8.54094e-07
1.03702e-06
-6.92507e-08
1.60402e-09
0.000253624
-3.32752e-09
2.03321e-07
-0.000253757
6.46324e-09
2.83088e-08
9.71159e-05
-9.71507e-05
-1.04741e-08
-2.46386e-08
9.71511e-05
-9.7116e-05
-1.85693e-10
7.30034e-08
0.000253712
-2.07852e-07
3.02541e-09
-0.00025358
0.00116038
5.04242e-09
3.54667e-09
1.03111e-06
-8.48699e-07
8.51482e-07
-1.02692e-06
-0.00116038
-2.4868e-08
-4.80503e-08
1.17996e-07
0.000246436
1.79158e-08
-0.000246499
9.49706e-09
1.279e-06
0.00114728
-2.13779e-10
-9.39483e-07
2.78826e-07
-2.85807e-07
9.40274e-07
-1.27338e-06
2.88597e-07
-2.92078e-07
-2.09093e-09
0.00116038
2.78194e-09
-1.02643e-06
8.51849e-07
-8.48621e-07
1.03168e-06
2.5522e-08
4.53233e-08
0.000246498
-2.05289e-08
-0.000246436
-1.12375e-07
2.53873e-09
-7.00459e-08
0.000253581
2.03902e-07
-3.7808e-09
-0.000253714
2.7116e-08
-2.51344e-08
5.3595e-08
0.000277828
-1.24877e-08
-0.000277871
2.52315e-08
-2.63946e-08
5.20723e-08
0.000277774
-1.14643e-08
-0.000277813
-1.31336e-06
-1.27971e-06
0.000274788
-0.000272731
2.66055e-07
2.70536e-07
-2.79603e-08
2.32858e-08
0.000277873
1.35713e-08
-0.000277829
-5.2729e-08
-3.00669e-08
2.23317e-08
0.000277817
1.61786e-08
-0.000277775
-4.981e-08
-0.000277874
2.7323e-08
-2.44431e-08
5.3046e-08
-1.31569e-08
0.000277831
-0.000277821
2.51962e-08
-2.6344e-08
5.20556e-08
-1.15922e-08
0.000277782
2.51234e-08
9.71252e-05
-9.71575e-05
-2.36476e-08
9.71588e-05
-9.71256e-05
2.67401e-08
9.71225e-05
-9.71551e-05
-2.1902e-08
9.71553e-05
-9.71224e-05
2.42054e-08
5.14426e-08
0.000277805
-1.33228e-08
-0.000277842
2.57109e-08
5.2789e-08
0.000277758
-1.15767e-08
-0.000277798
0.000274819
-1.31922e-06
-1.28215e-06
-0.000272751
2.62816e-07
2.70509e-07
0.000277845
-2.59043e-08
1.36622e-08
-0.000277807
-5.01895e-08
0.0002778
-2.93856e-08
1.57157e-08
-0.000277759
-4.90465e-08
-2.38651e-08
-9.0861e-09
-9.71271e-05
9.71601e-05
2.48962e-08
7.45208e-09
9.71264e-05
-2.16672e-08
-1.1207e-08
-9.71232e-05
9.71561e-05
2.67302e-08
5.88461e-09
9.71227e-05
1.31321e-06
1.27588e-06
0.000272751
-2.56549e-07
-2.64842e-07
-2.55955e-08
-5.04599e-08
-0.000277809
1.33062e-08
0.000277848
-2.95334e-08
-4.91205e-08
-0.00027776
1.60577e-08
0.000277801
2.46752e-08
-1.39294e-08
5.16456e-08
0.000277808
2.59713e-08
-1.19055e-08
5.29051e-08
0.00027776
-7.24286e-08
0.000230236
3.49538e-08
1.8283e-09
-0.000230201
5.00551e-08
0.000192691
-8.05554e-09
-0.000192727
-4.35514e-08
0.000192719
8.98055e-10
-0.000192687
7.12742e-08
0.0002302
-3.47874e-08
-2.39692e-09
-0.000230235
-1.36757e-09
0.000253752
3.79378e-09
-2.11309e-07
-0.000253616
1.1517e-07
0.000246428
1.71363e-08
-0.000246488
0.00116086
3.93169e-09
4.62838e-10
1.03757e-06
-8.54694e-07
8.58642e-07
-1.03276e-06
-0.00116086
8.76873e-09
0.00114681
-5.29445e-09
-1.3134e-06
2.93994e-07
-2.9771e-07
-9.39614e-07
2.76277e-07
-2.82725e-07
9.40439e-07
0.000246488
-2.13829e-08
-0.000246428
-1.09902e-07
-2.96383e-09
0.00116086
-6.68334e-10
-1.03257e-06
8.58927e-07
-8.54615e-07
1.0379e-06
1.30984e-09
0.000253615
-2.39462e-09
2.07164e-07
-0.000253751
0.000253771
4.97178e-09
-2.10571e-07
-0.000253639
-2.6415e-08
1.19389e-07
0.00024645
1.72373e-08
-0.00024651
0.00116094
5.10185e-10
1.03998e-06
-8.55075e-07
8.58201e-07
-1.0358e-06
-0.00116094
8.70706e-09
0.00114719
1.32441e-06
-7.24863e-09
-9.45513e-07
2.78423e-07
9.45764e-07
-2.86466e-07
-1.3185e-06
2.96843e-07
-3.00229e-07
0.00024651
2.91e-08
-2.16645e-08
-0.00024645
-1.11024e-07
0.00116094
-1.18914e-09
-1.03536e-06
8.58575e-07
-8.55138e-07
1.04071e-06
0.000253639
-3.43687e-09
2.0782e-07
-0.000253771
-4.34785e-10
7.07058e-08
-3.44158e-08
-4.9367e-10
0.000230153
-4.5368e-08
-0.000192666
2.21228e-09
0.0001927
4.81035e-08
-7.45304e-09
0.000192665
-8.78603e-10
-7.33209e-08
-0.000230153
3.56764e-08
3.55446e-09
0.000230188
7.12358e-08
-3.47948e-08
-1.90286e-09
0.000230201
-4.38687e-08
1.11325e-08
-0.000192682
4.01113e-10
0.000192714
5.01362e-08
-6.29021e-09
-8.73831e-09
0.000192684
-7.31644e-08
-0.0002302
3.5596e-08
2.7329e-09
0.000230234
1.70436e-09
-2.89784e-09
2.069e-07
0.000253617
8.77214e-09
-3.06705e-09
1.31931e-06
-2.97237e-07
2.94074e-07
9.39393e-07
-2.82759e-07
2.75854e-07
-9.40078e-07
-1.10069e-07
-0.000246429
-2.12135e-08
0.000246489
-0.00116086
-2.09796e-09
7.39657e-10
-1.03268e-06
8.58488e-07
-8.54946e-07
1.03787e-06
0.00116086
1.74082e-08
1.15247e-07
0.000246429
4.95613e-09
7.63147e-10
1.03705e-06
-8.54369e-07
-1.03276e-06
8.58549e-07
-9.55007e-10
-0.000253617
3.43104e-09
-2.11205e-07
0.000253753
-3.47004e-09
2.0743e-07
0.00025364
8.13637e-09
-1.31827e-06
-5.05661e-09
9.44823e-07
-2.86556e-07
-9.46175e-07
2.78183e-07
1.32449e-06
-2.99867e-07
2.97007e-07
2.95852e-08
-1.11401e-07
-0.000246449
-2.20924e-08
0.000246509
-0.00116094
-5.09322e-10
-1.0354e-06
8.58675e-07
-8.55044e-07
1.04063e-06
0.00116094
-2.61619e-08
1.7065e-08
1.19559e-07
0.000246449
2.18567e-10
1.03994e-06
-8.54601e-07
-1.03551e-06
8.58444e-07
-0.000253641
5.16772e-09
-2.11166e-07
0.000253773
5.3695e-08
0.000277745
-1.34581e-08
-0.000277785
-2.64687e-08
5.10382e-08
0.000277953
-1.71391e-08
-0.000277986
0.000274803
-0.000272727
2.65035e-07
2.67638e-07
0.00027778
1.89333e-08
-0.000277743
-4.83417e-08
2.60066e-08
0.000277986
1.58983e-08
-0.000277953
-5.02481e-08
8.04418e-09
9.71763e-05
-9.72108e-05
9.72115e-05
-9.03254e-09
-9.71765e-05
-2.14114e-08
-9.71169e-05
9.71494e-05
2.7381e-08
9.71177e-05
1.27807e-06
0.000272728
-2.59542e-07
-2.61492e-07
-4.84368e-08
-0.000277741
1.89285e-08
0.000277779
2.51456e-08
-2.55799e-08
-4.98351e-08
-0.000277955
1.69312e-08
0.000277989
-1.39642e-08
5.36016e-08
0.000277742
-2.73255e-08
2.46602e-08
-1.61892e-08
5.1275e-08
0.000277954
-9.57151e-09
-9.71772e-05
9.72119e-05
7.40887e-09
9.71768e-05
-1.98067e-09
0.000253748
4.29445e-09
-2.04521e-07
-0.000253617
1.16849e-07
0.000246441
1.66248e-08
-0.000246497
0.00116062
1.16179e-09
-1.88678e-09
1.03681e-06
-8.51806e-07
8.58284e-07
-1.03032e-06
-0.00116062
8.97903e-09
0.00114789
-5.67228e-09
-1.27597e-06
2.91688e-07
-2.94721e-07
-9.42936e-07
2.78218e-07
-2.86345e-07
9.42413e-07
0.000246497
-2.19321e-08
-0.000246441
-1.08357e-07
-6.33936e-09
0.00116064
-3.16955e-09
-1.03254e-06
8.55674e-07
-8.545e-07
1.03474e-06
1.80908e-09
0.000253616
-3.22219e-09
2.02918e-07
-0.000253745
-7.16987e-08
0.000230195
3.25063e-08
2.46629e-09
-0.00023016
5.16423e-08
0.000192641
-9.28624e-09
-0.000192677
-4.59328e-08
0.000192676
-1.13015e-10
-0.00019264
7.23148e-08
0.000230163
-3.3087e-08
-9.89277e-10
-0.000230201
0.000253722
-2.0765e-07
4.03378e-09
-0.000253592
0.0011606
-1.98453e-09
1.03748e-06
-8.54539e-07
8.58694e-07
-1.03282e-06
-0.00116059
-2.66513e-08
1.16207e-07
0.000246378
2.00128e-08
-0.000246436
1.54218e-08
0.00114685
1.31802e-06
-5.42206e-09
-9.42489e-07
2.78549e-07
9.42793e-07
-2.85705e-07
-1.31466e-06
2.95627e-07
-3.01702e-07
0.00116061
-3.47015e-09
-1.03245e-06
8.5883e-07
-8.5442e-07
1.0379e-06
0.000246436
2.83424e-08
-2.33707e-08
-0.000246378
-1.08802e-07
0.00025359
2.05586e-07
-3.76398e-09
-0.000253717
7.25956e-08
-7.9404e-10
-2.17645e-10
-3.33918e-08
0.000230201
-4.53792e-08
-0.000192692
-1.11776e-09
0.000192727
5.22084e-08
-1.06633e-08
0.000192692
-7.19445e-08
-8.39434e-10
-0.000230199
3.90806e-09
3.28397e-08
0.000230235
1.64761e-09
-3.01358e-09
2.03008e-07
0.000253619
8.86184e-09
-3.55255e-09
1.28217e-06
-2.9429e-07
2.91758e-07
9.41516e-07
-2.86361e-07
2.77895e-07
-9.43482e-07
-1.0811e-07
-0.000246441
-2.19589e-08
0.000246496
-0.00116063
-7.04457e-09
-2.98009e-09
-1.0321e-06
8.55786e-07
-8.5447e-07
1.03522e-06
0.00116065
1.67088e-08
1.16829e-07
0.000246441
5.38896e-10
-1.4188e-09
1.03694e-06
-8.51562e-07
-1.02984e-06
8.58245e-07
-2.33987e-09
-0.000253621
4.69797e-09
-2.05076e-07
0.000253752
7.21474e-08
-3.30472e-08
-1.09634e-09
0.000230156
-4.609e-08
1.04466e-08
-0.00019264
8.11724e-11
0.000192675
5.16739e-08
-6.40567e-09
-9.30539e-09
0.00019264
-7.2298e-08
-0.000230153
3.3064e-08
2.68582e-09
0.000230189
2.05173e-07
-3.87698e-09
0.000253595
1.58323e-08
-1.31453e-06
-3.30656e-09
9.4195e-07
-2.85816e-07
-9.43053e-07
2.78216e-07
1.31794e-06
-3.0148e-07
2.95535e-07
-0.00116062
-3.36584e-09
-1.03225e-06
8.58752e-07
-8.54548e-07
1.03815e-06
0.00116062
2.83162e-08
-1.08893e-07
-0.000246378
-2.34136e-08
0.000246436
-2.11741e-09
1.03728e-06
-8.54147e-07
-1.03267e-06
8.58688e-07
-2.66758e-08
2.01051e-08
1.16123e-07
0.000246378
-0.000253597
-2.07853e-07
3.66492e-09
0.000253726
-3.04505e-10
0.000230263
2.69807e-09
3.56624e-08
-0.000230227
0.000192752
-6.46318e-09
-0.000192787
0.000192789
2.39378e-09
-0.000192753
3.37258e-10
0.000230227
-1.55486e-09
-3.33697e-08
-0.000230261
7.31444e-08
0.000253737
-2.0565e-07
4.30043e-09
-0.00025361
0.00116068
3.37699e-09
1.03466e-06
-8.54822e-07
8.57786e-07
-1.02994e-06
-0.00116068
-4.78853e-08
1.14941e-07
0.000246432
1.77546e-08
-0.00024649
9.69151e-09
0.00114667
-6.32022e-09
-1.30813e-06
2.90729e-07
-2.95033e-07
-9.38779e-07
2.76853e-07
-2.82125e-07
9.41294e-07
0.00116067
1.93668e-09
-1.02942e-06
8.58089e-07
-8.54653e-07
1.03527e-06
4.53093e-08
0.00024649
-2.08076e-08
-0.000246432
-1.10293e-07
-7.01375e-08
0.000253611
2.01605e-07
-3.09227e-09
-0.000253737
0.0002302
3.54184e-08
1.83452e-09
-0.000230164
-7.56746e-09
0.000192625
-6.44914e-09
-0.000192659
0.000192658
9.30275e-09
2.5646e-09
-0.000192625
0.000230163
-3.39456e-08
-2.17276e-09
-0.000230196
-6.97986e-08
1.62838e-09
-3.27232e-09
2.03375e-07
0.000253626
6.33558e-09
-2.93676e-09
1.28442e-06
-2.91471e-07
2.88052e-07
9.39058e-07
-2.82041e-07
-9.3919e-07
2.75571e-07
4.69911e-08
-1.12101e-07
-0.000246518
-2.09489e-08
0.000246578
-0.00116063
-7.76716e-09
1.33282e-09
-1.0315e-06
8.57679e-07
1.03724e-06
-8.53827e-07
0.00116064
-5.00581e-08
1.76509e-08
1.16915e-07
0.000246517
9.56774e-10
1.84743e-09
1.03661e-06
-8.53599e-07
-1.03169e-06
8.57896e-07
7.34762e-08
-2.33662e-09
-0.000253627
4.63816e-09
-2.08185e-07
0.000253759
2.17963e-11
-1.27113e-09
-3.36549e-08
0.000230228
-0.000192754
1.89145e-09
0.00019279
-7.32727e-09
0.000192753
-3.77782e-10
-0.000230228
2.90751e-09
3.5859e-08
0.000230263
-7.01088e-08
2.01165e-07
-3.3796e-09
0.000253611
1.01182e-08
-1.30804e-06
-5.03415e-09
9.40387e-07
-2.82043e-07
-9.39432e-07
2.76858e-07
1.31326e-06
-2.94686e-07
2.90929e-07
-0.00116067
0.00116066
1.51921e-09
-1.02929e-06
8.5798e-07
-8.54202e-07
1.03808e-06
4.55953e-08
2.77097e-08
0.000246491
-1.10523e-07
-0.000246433
-2.07254e-08
2.46532e-09
1.03466e-06
-8.54146e-07
-1.02954e-06
8.58058e-07
-4.79209e-08
-2.71716e-08
1.7734e-08
1.14826e-07
0.000246433
7.36293e-08
0.000253736
-0.000253611
-2.0581e-07
4.31053e-09
-3.39911e-08
-1.89929e-09
0.000230166
8.97061e-09
0.000192658
-0.000192624
3.04505e-09
-7.39242e-09
-6.6471e-09
0.000192624
0.000230201
-0.000230166
3.5877e-08
2.57952e-09
5.4529e-08
0.000277735
-1.22289e-08
-0.000277775
-2.51714e-08
5.40743e-08
0.000277824
-1.28007e-08
-0.000277865
0.00027479
-0.000272726
2.62743e-07
2.69883e-07
0.000277777
1.40444e-08
-0.000277735
-5.1671e-08
2.35619e-08
0.000277864
1.35749e-08
-0.000277823
-5.23129e-08
7.77536e-09
9.71165e-05
-9.71495e-05
9.7148e-05
-8.7876e-09
-9.71156e-05
-2.46179e-08
-9.71168e-05
9.71518e-05
2.85062e-08
9.71162e-05
1.27332e-06
0.000272724
-2.56922e-07
-2.65176e-07
-5.17344e-08
-0.000277738
1.39471e-08
0.00027778
2.33696e-08
-2.55791e-08
-5.21126e-08
-0.000277823
1.37481e-08
0.000277863
-1.27631e-08
5.45753e-08
0.000277737
-2.52235e-08
2.48679e-08
-1.27884e-08
5.4239e-08
0.000277823
-9.06534e-09
-9.71141e-05
9.71465e-05
7.94815e-09
9.71148e-05
7.24935e-08
0.000253738
-2.04625e-07
6.11505e-09
-0.000253612
0.00116048
2.72692e-09
1.03398e-06
-8.51425e-07
8.54444e-07
-1.02955e-06
-0.00116048
-4.87299e-08
1.1806e-07
0.000246459
1.57443e-08
-0.000246519
6.52467e-09
0.00114777
-4.8636e-09
-1.27282e-06
2.89199e-07
-2.91348e-07
-9.39381e-07
2.79185e-07
-2.85542e-07
9.40741e-07
0.00116047
1.84012e-09
-1.0293e-06
8.54526e-07
-8.51471e-07
1.03438e-06
4.4742e-08
0.00024652
-2.28835e-08
-0.000246459
-1.12361e-07
-6.99756e-08
0.000253612
2.01081e-07
-2.43446e-09
-0.000253738
1.69096e-09
0.000230239
1.00644e-09
3.54772e-08
-0.000230204
0.000192631
-6.57812e-09
-0.000192665
0.000192664
3.00938e-09
-0.00019263
1.36437e-09
0.000230203
-2.70824e-09
-3.40827e-08
-0.000230238
0.000230275
3.72837e-09
3.28883e-08
-0.000230238
-5.99308e-09
0.000192687
-9.21198e-09
-0.00019272
0.000192721
1.08423e-08
1.0886e-10
-0.000192687
0.000230237
2.48534e-10
-3.18666e-08
-0.000230274
2.43679e-09
-7.0086e-08
2.03565e-07
-4.12365e-09
0.00025358
9.73447e-09
1.22299e-09
1.27889e-06
-2.91836e-07
2.88534e-07
9.39225e-07
-2.8587e-07
-9.40219e-07
2.78484e-07
-0.00116037
-1.65936e-09
3.32012e-09
-1.02657e-06
8.51351e-07
1.03151e-06
-8.48755e-07
0.00116037
4.50455e-08
-1.11936e-07
-0.000246433
-2.04223e-08
0.000246495
5.38695e-09
3.55039e-09
1.03082e-06
-8.48315e-07
-1.02673e-06
8.51539e-07
-4.828e-08
1.80989e-08
1.18074e-07
0.000246435
-2.49379e-10
7.29999e-08
-0.000253581
-2.07521e-07
2.98998e-09
0.000253713
-7.05203e-08
2.01484e-07
-2.53554e-09
0.000253612
5.85342e-09
-1.2727e-06
-2.04838e-09
9.39793e-07
-2.85593e-07
-9.39876e-07
2.78803e-07
1.27978e-06
-2.91006e-07
2.89347e-07
-0.00116048
2.87953e-09
-1.02922e-06
8.54042e-07
-8.51715e-07
1.03439e-06
0.00116047
4.48066e-08
3.00646e-08
0.000246521
-1.12261e-07
-0.000246461
-2.28506e-08
3.26646e-09
1.03383e-06
-8.51298e-07
-1.02933e-06
8.54236e-07
-4.86065e-08
-2.52564e-08
1.57016e-08
1.17797e-07
0.00024646
7.26246e-08
-0.000253612
-2.04505e-07
6.06639e-09
0.000253737
2.19604e-09
-3.03608e-09
-3.40348e-08
0.000230204
-0.00019263
2.22455e-09
0.000192664
-6.58662e-09
0.00019263
1.93661e-09
-0.000230203
8.99908e-10
3.52472e-08
0.000230238
8.39553e-11
-3.22865e-08
0.000230239
1.09924e-08
0.000192722
-0.000192687
-2.69072e-10
-6.00004e-09
-8.91518e-09
0.000192687
-0.000230241
3.90465e-09
3.27164e-08
0.000230279
9.71215e-05
-9.71542e-05
9.71538e-05
-9.71212e-05
9.71256e-05
-9.7158e-05
9.71592e-05
-9.7126e-05
0.00027273
-2.58487e-07
-2.65015e-07
2.41084e-08
-5.32505e-08
-0.000277831
1.34502e-08
2.2205e-08
-4.96912e-08
-0.000277779
1.60218e-08
-2.53106e-08
-1.28577e-08
5.36958e-08
0.00027783
-2.63541e-08
-1.1528e-08
5.21778e-08
0.000277777
9.71548e-05
-9.71217e-05
9.71211e-05
9.7161e-05
-9.71278e-05
9.71268e-05
1.03736e-06
-8.53859e-07
8.57908e-07
-1.03235e-06
3.38268e-09
1.76359e-09
-4.75882e-08
1.14463e-07
1.77811e-08
0.000246434
-6.96463e-08
0.000253607
2.00907e-07
-2.36959e-09
1.36398e-10
-7.72282e-09
-6.44869e-09
0.000192624
0.000230166
-3.35766e-08
-1.36428e-09
-9.21825e-12
-4.84859e-08
1.17762e-07
0.000246461
1.55976e-08
-5.71758e-09
0.000192688
-9.5869e-09
9.71226e-05
9.7129e-05
-1.41627e-09
3.34608e-08
0.000142328
-8.58947e-10
-0.000142359
-0.000169981
1.78109e-09
-9.83612e-10
0.000170016
-0.00022358
3.38758e-08
6.05976e-09
0.000223615
-7.17003e-08
-3.4301e-08
-6.52904e-10
-0.000230189
-3.28132e-10
7.05418e-08
-0.000170016
-7.92169e-10
-1.39204e-09
-0.000223615
6.89621e-08
4.01146e-09
0.000142359
-3.14181e-08
-7.85397e-05
7.85752e-05
-4.06117e-09
1.24185e-09
0.000192697
9.48732e-09
-4.479e-08
0.000262418
-3.42663e-08
1.27867e-09
6.12819e-08
-0.000262454
0.000262455
-6.28471e-09
-6.1411e-08
8.18859e-10
-7.85748e-05
3.42673e-08
7.85401e-05
-0.000262419
3.16457e-08
0.000262456
-6.16274e-08
-7.97272e-09
-7.37273e-09
4.82913e-08
6.12865e-08
7.85757e-05
-1.70128e-09
-3.40722e-08
-0.000142327
3.51731e-08
3.24115e-09
-5.25195e-10
-7.30965e-08
0.000169982
1.44174e-09
-8.96016e-10
-0.000170017
0.00022358
-3.33583e-08
6.89409e-08
-0.000223615
-9.10939e-10
-7.18737e-08
-0.000142358
9.71531e-05
-1.05165e-08
-2.10471e-08
6.36803e-09
2.72688e-08
3.26517e-08
-1.71468e-09
0.000142417
2.73621e-10
-0.000142448
-0.000223689
3.10016e-08
7.23e-09
0.000223725
-7.02882e-08
-0.000170032
1.85006e-09
-7.06075e-10
0.000170064
-1.61668e-10
-3.30249e-08
-0.000230244
-7.84662e-10
7.46096e-08
-4.96766e-11
-0.000223729
7.33579e-08
-0.000170066
-6.06579e-10
4.84109e-09
0.000142445
-2.74732e-08
-7.85958e-05
7.86282e-05
-4.90349e-09
-3.77044e-10
0.000192728
1.08534e-08
-4.52767e-08
0.000262549
-3.38586e-08
1.85216e-10
6.59398e-08
-0.000262592
0.00026259
-7.25831e-09
-6.1802e-08
-2.88022e-10
-7.86294e-05
3.38427e-08
7.85946e-05
-0.000262548
2.77391e-08
0.000262589
-6.22144e-08
-1.08645e-08
-5.90833e-09
5.22093e-08
6.58147e-08
7.86272e-05
-3.08734e-08
-2.11213e-09
-0.00014242
4.07224e-09
3.23311e-08
-7.98758e-10
-7.40878e-08
0.000223691
-3.2799e-08
7.10714e-08
-0.000223729
0.000170035
1.7782e-09
-8.00538e-10
-0.00017007
-7.26442e-08
-8.3174e-10
-0.000142452
9.71508e-05
-1.03906e-08
-2.44571e-08
6.40175e-09
2.83867e-08
-1.43817e-08
-1.48452e-08
0.000213393
2.61913e-08
2.76127e-08
-0.000213418
-8.01015e-05
-1.43036e-08
-1.69004e-08
8.01327e-05
-8.00897e-05
-1.36309e-08
-1.77311e-08
8.01211e-05
1.62495e-08
-8.01321e-05
1.57411e-08
-8.01203e-05
-2.57205e-08
-2.88641e-08
0.00021342
-3.25538e-08
3.73162e-08
-0.000222582
0.000222621
2.5932e-08
-7.02452e-08
0.000252704
-3.45643e-08
1.03101e-07
5.01258e-08
-0.000252769
-5.25924e-08
1.36165e-08
0.000277872
2.32157e-08
-2.78678e-08
0.000182362
3.66025e-08
-1.61118e-08
-0.000182395
0.000252771
-1.05468e-07
-4.58667e-08
0.000182396
1.70466e-08
-2.61156e-08
6.63382e-08
-0.00022262
-3.38747e-08
3.46866e-08
-0.000222518
0.000222557
2.8942e-08
-6.91699e-08
0.000252611
-3.33881e-08
1.09091e-07
4.87634e-08
-0.000252683
-4.97486e-08
1.61659e-08
0.000277815
2.19951e-08
-2.98236e-08
0.000182314
3.53262e-08
-1.57626e-08
-0.000182345
0.000252684
-1.09581e-07
-4.7594e-08
0.000182347
1.76652e-08
-2.74945e-08
6.77163e-08
-0.000222556
3.44555e-08
-3.66783e-08
0.000222583
6.64031e-08
-0.000182363
-3.71296e-08
0.000182397
5.36094e-08
-1.26294e-08
-2.52429e-08
2.71037e-08
-0.000252705
3.28084e-08
0.000252771
-1.05401e-07
-4.58052e-08
1.0307e-07
5.01909e-08
0.000222623
-7.00284e-08
3.33689e-08
-3.5354e-08
0.000222519
6.79013e-08
-0.000182316
-3.46475e-08
0.000182349
5.18491e-08
-1.13376e-08
-2.61438e-08
2.53372e-08
-0.000252612
3.43483e-08
0.000252685
-1.0948e-07
-4.7669e-08
1.08908e-07
4.86383e-08
0.000222559
-6.92263e-08
1.42963e-08
1.38227e-08
-0.000213391
8.01008e-05
1.43769e-08
-8.01313e-05
8.00888e-05
1.46886e-08
-8.01193e-05
-0.000213416
-0.000222587
-3.24486e-08
3.76794e-08
2.57452e-08
-7.05415e-08
-3.46813e-08
0.000252708
-0.000252773
1.02583e-07
5.02687e-08
3.63472e-08
0.000182366
-1.66757e-08
-0.000182399
-5.3227e-08
1.27024e-08
2.42827e-08
-2.77071e-08
-2.61987e-08
-0.000222625
6.60525e-08
-1.05836e-07
-4.5819e-08
1.64273e-08
-0.000222525
-3.45241e-08
3.46741e-08
2.93223e-08
-6.94299e-08
-3.28761e-08
0.000252613
-0.000252686
1.08906e-07
4.85869e-08
3.52765e-08
0.000182322
-1.5668e-08
-0.000182353
-4.95701e-08
1.5807e-08
2.19994e-08
-3.01293e-08
-2.70489e-08
-0.000222563
6.73593e-08
-1.09303e-07
-4.77964e-08
1.76153e-08
-0.0002134
1.48824e-08
1.37697e-08
1.3783e-08
8.01037e-05
-8.01342e-05
1.47807e-08
8.00924e-05
-8.01228e-05
-0.000213425
9.7158e-05
-2.33382e-08
2.49718e-08
9.7155e-05
-2.17005e-08
2.6656e-08
-1.41407e-08
-1.50332e-08
0.000213367
2.85556e-08
2.57546e-08
-0.000213392
-8.00889e-05
-1.46326e-08
-1.66211e-08
8.01202e-05
-8.00745e-05
-1.36189e-08
-1.76748e-08
8.01058e-05
1.66735e-08
-8.01197e-05
1.58206e-08
-8.01054e-05
-2.77364e-08
-2.66128e-08
0.000213393
3.55644e-08
-3.26492e-08
-0.000222569
0.000222609
2.79027e-08
-7.0086e-08
0.000252697
-3.46594e-08
1.08954e-07
4.73246e-08
-0.000252767
1.38598e-08
-5.02338e-08
0.000277844
-2.60056e-08
0.000182339
3.45278e-08
-1.66098e-08
-0.000182371
0.000182372
1.672e-08
0.000252767
-1.09915e-07
-4.37371e-08
-2.84056e-08
6.69024e-08
-0.000222608
3.45122e-08
-3.33416e-08
-0.000222501
0.000222545
2.67759e-08
-7.14551e-08
0.000252601
-3.40415e-08
1.09691e-07
5.24202e-08
-0.000252676
1.57237e-08
-4.89255e-08
0.000277799
-2.92957e-08
0.000182288
3.55284e-08
-1.55737e-08
-0.00018232
0.000182321
1.77288e-08
0.000252676
-1.09e-07
-4.90365e-08
-2.54892e-08
6.99557e-08
-0.000222544
-3.47128e-08
0.00022257
3.45965e-08
6.708e-08
-0.00018234
-3.5424e-08
0.000182373
-1.35454e-08
5.15676e-08
2.43438e-08
3.3057e-08
-0.000252697
0.000252768
-1.09781e-07
-4.38124e-08
0.00022261
-6.99114e-08
1.09004e-07
4.72722e-08
-3.56687e-08
0.000222502
3.40591e-08
7.01553e-08
-0.000182289
-3.44465e-08
0.000182321
-1.18281e-08
5.28222e-08
2.57573e-08
3.37381e-08
-0.000252601
0.000252676
-1.09021e-07
-4.91497e-08
0.000222546
-7.13276e-08
1.0977e-07
5.23966e-08
1.46932e-08
1.36364e-08
-0.000213366
8.00883e-05
1.39882e-08
-8.01189e-05
8.0074e-05
1.50985e-08
-8.01047e-05
-0.000213391
-9.71593e-05
2.44507e-08
7.70914e-09
-2.36103e-08
-9.23812e-09
-9.71555e-05
2.65918e-08
5.70353e-09
-2.17749e-08
-1.09882e-08
-0.000213368
1.49284e-08
1.3705e-08
-2.78872e-08
-2.69702e-08
0.000213395
1.38948e-08
8.00894e-05
1.68676e-08
1.49613e-08
8.00751e-05
1.58221e-08
2.83176e-08
2.54987e-08
-1.64015e-08
8.01207e-05
-1.76797e-08
8.01064e-05
-3.46526e-08
3.45769e-08
0.000222572
-0.00022261
-2.85762e-08
6.70929e-08
-0.000252698
3.29818e-08
-1.09813e-07
-4.38581e-08
0.000252768
-1.39268e-08
5.12108e-08
-0.000277847
2.46523e-08
-0.000182342
-3.55361e-08
1.6328e-08
0.000182375
-0.000182374
-1.69727e-08
-0.000252768
1.08998e-07
4.72263e-08
2.76798e-08
-6.99781e-08
0.000222612
-3.55999e-08
3.37778e-08
0.000222504
-0.000222546
-2.54152e-08
6.99627e-08
-0.000252602
3.38891e-08
-1.09214e-07
-4.93155e-08
0.000252678
-1.16363e-08
5.26691e-08
-0.0002778
2.57384e-08
-0.000182291
-3.43902e-08
1.78805e-08
0.000182323
-0.000182322
-1.56223e-08
-0.000252678
1.09523e-07
5.22303e-08
2.68755e-08
-7.13825e-08
0.000222548
-0.000222571
3.55823e-08
-3.24839e-08
-7.00745e-08
3.46774e-08
0.000182341
-3.47777e-08
0.000252698
1.08918e-07
4.73487e-08
1.33474e-08
-5.0272e-08
-2.56129e-08
6.6884e-08
-1.09839e-07
-4.36316e-08
-0.000222503
3.46226e-08
-3.33482e-08
-7.16427e-08
3.56497e-08
0.00018229
-3.42286e-08
0.000252602
1.09536e-07
5.24061e-08
1.56022e-08
-4.89457e-08
-2.93371e-08
6.99552e-08
-1.09114e-07
-4.90634e-08
-1.38138e-08
-1.51185e-08
0.00021337
-8.00899e-05
-1.49427e-08
8.01212e-05
-8.00757e-05
-1.34527e-08
8.0107e-05
0.000213396
1.82501e-10
3.17848e-08
0.000142432
-1.44054e-09
-0.000142462
-0.000170031
1.02696e-10
0.000170065
-0.000223697
3.19861e-08
5.31807e-09
0.000223736
-7.37682e-08
-3.47815e-08
-2.47712e-09
-0.000230235
7.14852e-08
-0.000170067
-2.72087e-09
-0.000223738
7.24381e-08
3.27757e-09
0.000142461
-2.91912e-08
-7.85961e-05
7.86282e-05
-2.88235e-09
1.30946e-09
0.000192722
-4.33735e-08
0.000262546
-3.23005e-08
3.08648e-09
6.53265e-08
-0.00026259
0.000262585
-4.68362e-09
-6.2741e-08
1.73899e-09
-7.86302e-05
3.25749e-08
7.85942e-05
-0.000262541
2.90016e-08
0.000262582
-6.29002e-08
-8.32786e-09
5.00874e-08
6.5308e-08
7.86265e-05
6.02319e-11
-3.16833e-08
-0.000142434
3.4808e-08
1.92618e-09
-7.2484e-08
0.000170033
-3.34665e-10
-0.000170068
0.000223699
-3.18378e-08
7.23999e-08
-0.000223739
-7.34126e-08
-0.000142464
-0.000142328
-1.90958e-09
-3.36653e-08
3.97263e-09
0.00014236
1.55798e-09
0.000169981
-9.54506e-10
-3.37665e-08
0.000223581
-1.66802e-09
6.91175e-08
3.51243e-08
3.65436e-09
0.000230188
-6.29662e-10
-7.30191e-08
-9.53769e-10
0.000170015
-1.02437e-09
6.00701e-09
0.000223617
-7.15377e-08
7.85415e-05
3.38964e-08
-7.85762e-05
8.85017e-10
-6.89931e-09
-0.000192699
4.76787e-08
3.19921e-08
-0.000262421
-5.88938e-09
-6.17873e-08
0.000262459
-3.97426e-09
7.85774e-05
-0.000262458
1.84492e-09
6.12088e-08
-7.85407e-05
-3.16261e-08
-3.41347e-08
0.00026242
6.1456e-08
1.8344e-09
-4.50884e-08
-6.13436e-08
0.000142329
-1.7281e-09
3.3581e-08
-3.42359e-08
-2.6862e-10
-7.05545e-10
7.05189e-08
1.95431e-09
-0.00016998
-1.09736e-09
0.000170015
3.4198e-08
-0.000223583
-7.19646e-08
0.000223618
0.000142361
-1.00989e-09
6.89689e-08
-0.00014243
-2.49126e-10
-3.18073e-08
3.39639e-09
0.000142459
-1.40521e-11
0.000170029
-3.18528e-08
0.000223695
-2.26756e-09
7.25236e-08
3.49487e-08
2.62872e-09
0.000230235
-7.27759e-08
-1.15859e-09
0.000170063
5.69289e-09
0.000223734
-7.36173e-08
3.25166e-08
7.85911e-05
-7.86247e-05
1.07474e-09
-9.04832e-09
-0.000192716
-5.92707e-09
4.97082e-08
-0.000262534
2.90923e-08
-5.60193e-09
-6.30313e-08
0.000262574
-0.000262578
2.06706e-09
6.49997e-08
-3.3482e-09
7.86236e-05
-7.85925e-05
-2.88339e-08
-3.28355e-08
0.000262538
6.55085e-08
4.74083e-10
1.06694e-08
-4.35559e-08
-6.26648e-08
-1.01732e-10
3.17809e-08
0.000142428
-3.45615e-08
-1.80402e-09
7.0987e-08
-0.000170027
3.65068e-10
0.000170061
-0.000223694
3.18877e-08
-7.36006e-08
0.000223733
7.2302e-08
0.000142457
-1.59714e-08
-1.36236e-08
0.000213403
2.76408e-08
2.73958e-08
-0.000213428
-8.00861e-05
-1.26897e-08
-1.83387e-08
8.01171e-05
-8.01118e-05
-1.50061e-08
-1.61095e-08
8.01429e-05
1.50773e-08
-8.01172e-05
1.71949e-08
-8.01426e-05
-2.89311e-08
-2.46178e-08
0.000213429
3.35665e-08
-3.54691e-08
-0.000222517