/*--------------------------------*- C++ -*----------------------------------*\
| =========                 |                                                 |
| \\      /  F ield         | OpenFOAM: The Open Source CFD Toolbox           |
|  \\    /   O peration     | Version:  v1906                                 |
|   \\  /    A nd           | Web:      www.OpenFOAM.com                      |
|    \\/     M anipulation  |                                                 |
\*---------------------------------------------------------------------------*/
FoamFile
{
    version     2.0;
    format      ascii;
    class       volVectorField;
    location    "150";
    object      U;
}
// * * * * * * * * * * * * * * * * * * * * * * * * * * * * * * * * * * * * * //

dimensions      [0 1 -1 0 0 0 0];


internalField   nonuniform List<vector> 
42840
(
(-1.63663e-06 -1.61492e-06 0.111812)
(-1.43935e-06 1.81514e-06 0.108936)
(2.08116e-06 -1.41652e-06 0.108957)
(-5.21376e-05 -5.25212e-05 0.10596)
(-5.19234e-05 -5.25416e-05 0.105958)
(5.23984e-05 5.2251e-05 0.105964)
(-5.66382e-05 -5.66449e-05 0.106188)
(2.00925e-06 1.33183e-06 0.108956)
(-2.07836e-06 1.21977e-06 0.108947)
(2.08415e-06 1.20905e-06 0.108956)
(-2.09734e-06 1.12074e-06 0.108948)
(-5.21728e-05 5.21764e-05 0.105947)
(5.65269e-05 -5.64129e-05 0.106171)
(1.39085e-06 1.98898e-06 0.108953)
(1.21482e-06 -2.64935e-06 0.108949)
(1.14811e-06 2.11405e-06 0.108953)
(1.00937e-06 -2.90611e-06 0.108948)
(-1.18135e-06 -2.05238e-06 0.108952)
(-1.20682e-06 1.91463e-06 0.108935)
(-8.80241e-07 -2.30662e-06 0.108951)
(5.22145e-05 -5.27686e-05 0.105963)
(-5.6447e-05 5.61876e-05 0.106184)
(-1.84907e-06 -1.30812e-06 0.108951)
(2.21041e-06 -1.38999e-06 0.108955)
(-1.88539e-06 -1.1782e-06 0.10895)
(5.69344e-05 5.63642e-05 0.106182)
(-1.06506e-06 -2.21641e-06 0.108951)
(-1.76021e-06 -1.3927e-06 0.10895)
(-5.66517e-07 -1.82837e-05 0.0917747)
(4.80105e-07 1.49433e-05 0.0818135)
(-2.16431e-06 -1.4203e-05 0.0818962)
(-6.39571e-08 1.73015e-05 0.0916912)
(-3.20066e-06 8.96334e-06 0.0708708)
(4.8442e-06 -7.70083e-06 0.0709592)
(-1.7814e-05 -8.11566e-07 0.0917831)
(1.55993e-05 -1.95854e-07 0.0818172)
(-1.35599e-05 -2.84098e-06 0.0819001)
(1.79579e-05 -1.95603e-07 0.091702)
(1.47413e-06 -1.77754e-06 0.111807)
(-1.48808e-06 1.09033e-06 0.11181)
(1.55305e-06 1.5214e-06 0.11181)
(-1.65683e-06 -1.60278e-06 0.111811)
(1.5929e-06 -1.79944e-06 0.111806)
(-1.44654e-06 9.77658e-07 0.111809)
(1.63927e-06 1.44015e-06 0.111808)
(2.60145e-05 -6.69679e-07 0.0999898)
(-1.93262e-05 9.31569e-06 0.0933757)
(-1.43666e-06 -4.56378e-07 0.110713)
(-1.24713e-06 1.88897e-06 0.108935)
(1.78912e-05 -9.65242e-06 0.0934824)
(-1.2878e-06 -4.20597e-07 0.110712)
(-2.47682e-05 5.00135e-07 0.0998767)
(8.5842e-06 -3.52668e-06 0.0708771)
(-7.79017e-06 4.58971e-06 0.0709722)
(-2.23658e-07 2.59769e-05 0.0999872)
(-1.23735e-07 -1.48729e-06 0.110716)
(9.1811e-06 -1.96572e-05 0.0933678)
(2.16976e-06 -1.29591e-06 0.108956)
(-7.23762e-08 -1.30989e-06 0.110715)
(-9.80169e-06 1.78097e-05 0.0934736)
(8.654e-07 -2.52002e-05 0.0998745)
(-9.6039e-06 -7.791e-06 0.0874067)
(-7.20095e-06 -9.86967e-06 0.0874047)
(5.68688e-05 5.6556e-05 0.106182)
(8.72527e-06 7.79588e-06 0.0874957)
(8.49065e-06 8.4349e-06 0.0874937)
(-9.43968e-06 -7.94844e-06 0.0874077)
(-7.23916e-06 -9.83397e-06 0.0874072)
(3.84111e-06 8.50254e-06 0.0708756)
(-4.19623e-06 -8.16551e-06 0.0709662)
(8.83382e-06 3.27258e-06 0.0708732)
(-7.71995e-06 -4.8512e-06 0.0709638)
(7.71359e-06 9.49922e-06 0.087401)
(1.01281e-05 7.3961e-06 0.0873976)
(-5.66271e-05 -5.67169e-05 0.106188)
(-7.7448e-06 -8.75707e-06 0.0874891)
(-8.25143e-06 -8.2563e-06 0.0874863)
(-4.0826e-06 -8.20063e-06 0.0709671)
(3.91292e-06 8.35928e-06 0.0708766)
(-7.68541e-06 -4.95399e-06 0.0709643)
(8.83237e-06 3.2907e-06 0.0708735)
(5.23404e-05 5.22533e-05 0.105965)
(-7.64855e-06 -8.91405e-06 0.0874899)
(-8.24627e-06 -8.3381e-06 0.0874867)
(7.92384e-06 9.54112e-06 0.0874019)
(1.01278e-05 7.44823e-06 0.0873979)
(1.4056e-07 -1.82207e-05 0.0917787)
(-1.83909e-07 1.55843e-05 0.0818105)
(2.44822e-06 -1.36943e-05 0.0818904)
(-5.54697e-07 1.74923e-05 0.0916947)
(-7.26433e-07 -2.6029e-05 0.0999984)
(8.91501e-06 1.95366e-05 0.0933642)
(-1.68563e-07 1.2119e-06 0.110726)
(2.0699e-06 1.12689e-06 0.108956)
(-1.00681e-05 -1.78409e-05 0.0934691)
(-9.7838e-08 1.01008e-06 0.110726)
(4.69057e-07 2.53855e-05 0.0998834)
(7.42198e-07 -2.56174e-05 0.0999948)
(-9.03962e-06 2.03014e-05 0.0933654)
(1.62442e-07 1.27431e-06 0.110719)
(-2.13847e-06 1.04668e-06 0.108947)
(1.01739e-05 -1.71646e-05 0.0934727)
(1.96337e-07 1.02654e-06 0.110719)
(-5.50546e-07 2.56823e-05 0.0998801)
(-7.81036e-08 1.74581e-05 0.091691)
(-1.96479e-06 -1.42998e-05 0.0818969)
(5.39782e-07 1.48528e-05 0.0818144)
(-7.5507e-07 -1.83956e-05 0.0917741)
(-3.91472e-07 1.75479e-05 0.0916951)
(2.68525e-06 -1.37564e-05 0.0818882)
(-1.15484e-07 1.54944e-05 0.0818074)
(2.6066e-07 -1.82786e-05 0.0917782)
(6.29736e-07 2.51267e-05 0.0998838)
(2.04881e-06 1.42067e-06 0.108956)
(-9.99942e-06 -1.79706e-05 0.0934696)
(-3.01626e-08 1.19126e-06 0.110725)
(9.03217e-06 1.95211e-05 0.0933645)
(-7.21008e-08 1.26686e-06 0.110726)
(-5.55201e-07 -2.61032e-05 0.0999984)
(-4.47552e-07 2.54089e-05 0.0998801)
(-2.06888e-06 1.36028e-06 0.108948)
(1.04854e-05 -1.74687e-05 0.0934724)
(3.03668e-07 1.06515e-06 0.110719)
(-8.92852e-06 2.04643e-05 0.0933653)
(2.50515e-07 1.19186e-06 0.110719)
(9.31073e-07 -2.61464e-05 0.0999949)
(-7.4185e-06 1.04807e-05 0.0873966)
(-9.37336e-06 8.18345e-06 0.0874303)
(5.65366e-05 -5.65327e-05 0.106171)
(8.25352e-06 -7.93093e-06 0.0874849)
(8.81004e-06 -7.49501e-06 0.0875204)
(-8.15336e-06 4.10084e-06 0.0709064)
(8.10661e-06 -4.01958e-06 0.0710008)
(5.04668e-06 -7.71494e-06 0.0709576)
(-3.27426e-06 8.9508e-06 0.070868)
(-5.21416e-05 5.21482e-05 0.105947)
(8.33794e-06 -8.02192e-06 0.0874844)
(8.67277e-06 -7.84673e-06 0.0875211)
(-7.4243e-06 1.03555e-05 0.0873954)
(-9.48052e-06 7.8332e-06 0.0874306)
(7.85313e-06 -4.22767e-06 0.0710012)
(-8.36594e-06 3.80136e-06 0.0709068)
(-2.52175e-05 -7.20947e-07 0.0999911)
(2.03358e-05 8.62878e-06 0.0933625)
(9.81623e-07 -1.10101e-07 0.110715)
(1.13672e-06 2.08357e-06 0.108953)
(-1.71642e-05 -1.03803e-05 0.0934693)
(8.03884e-07 -8.67078e-08 0.110715)
(2.59414e-05 5.86167e-07 0.0998762)
(-1.7749e-05 6.02331e-08 0.0917799)
(1.53414e-05 -2.26256e-08 0.0818163)
(-1.37194e-05 2.58276e-06 0.0819004)
(1.79003e-05 -1.69561e-07 0.0916994)
(-2.54969e-05 5.86493e-07 0.0999934)
(9.36433e-07 -4.14943e-07 0.110715)
(2.0107e-05 -9.02618e-06 0.0933639)
(9.8117e-07 -2.78936e-06 0.108949)
(7.61042e-07 -4.64824e-07 0.110715)
(-1.73044e-05 1.0009e-05 0.0934712)
(2.59816e-05 -6.12006e-07 0.0998778)
(1.80464e-05 -2.56513e-07 0.0917005)
(-1.3492e-05 -2.97248e-06 0.0818999)
(1.55457e-05 -2.37839e-07 0.0818166)
(-1.78567e-05 -7.45927e-07 0.0917812)
(2.59868e-05 5.08672e-07 0.0998774)
(1.41914e-06 2.05791e-06 0.108953)
(-1.71118e-05 -1.04426e-05 0.0934692)
(7.03403e-07 -1.46245e-07 0.110716)
(2.02733e-05 8.70709e-06 0.0933624)
(1.02248e-06 -1.09038e-07 0.110716)
(-2.56371e-05 -8.89267e-07 0.0999922)
(1.80454e-05 -3.65403e-07 0.0916971)
(-1.37312e-05 2.58094e-06 0.0819002)
(1.53435e-05 -3.15595e-08 0.0818159)
(-1.80429e-05 1.85828e-07 0.0917771)
(2.56152e-05 -6.2557e-07 0.0998795)
(1.26435e-06 -2.8495e-06 0.108949)
(6.75163e-07 -5.10356e-07 0.110716)
(-1.74386e-05 1.00307e-05 0.0934712)
(9.31388e-07 -4.77434e-07 0.110716)
(2.00696e-05 -8.9961e-06 0.0933639)
(-2.5573e-05 4.49337e-07 0.0999948)
(1.84553e-05 -4.15418e-07 0.0917899)
(-1.46062e-05 8.29884e-07 0.081837)
(1.42407e-05 -1.88771e-06 0.081921)
(-1.68474e-05 2.98351e-07 0.0917069)
(2.59281e-05 6.38738e-07 0.0999938)
(-1.52154e-06 6.47818e-08 0.110723)
(-1.95356e-05 -9.22815e-06 0.093368)
(-9.47848e-07 -2.22106e-06 0.108951)
(-1.27061e-06 2.26172e-08 0.110722)
(1.7862e-05 9.82315e-06 0.0934739)
(-2.52018e-05 -5.29203e-07 0.0998812)
(1.83941e-05 2.99725e-07 0.091779)
(-1.47734e-05 -7.37118e-07 0.0818062)
(1.43608e-05 1.99463e-06 0.0818875)
(-1.71063e-05 -2.46328e-07 0.0916955)
(-2.49438e-05 5.31541e-07 0.0998771)
(-1.42055e-06 1.90921e-06 0.108936)
(1.79216e-05 -9.94127e-06 0.0934829)
(-1.16376e-06 -4.61878e-07 0.110711)
(-1.93906e-05 9.14334e-06 0.0933761)
(-1.2943e-06 -4.43364e-07 0.110712)
(2.60245e-05 -8.31145e-07 0.09999)
(-1.70181e-05 1.14179e-07 0.0917073)
(1.40469e-05 -2.0942e-06 0.0819216)
(-1.47809e-05 5.46623e-07 0.0818376)
(1.8405e-05 -4.58049e-07 0.0917897)
(-2.50409e-05 -5.56943e-07 0.0998811)
(-1.18879e-06 -2.22526e-06 0.108951)
(-1.18416e-06 -5.21074e-08 0.110721)
(1.80589e-05 9.84312e-06 0.0934743)
(-1.39978e-06 -1.31584e-08 0.110722)
(-1.94619e-05 -9.14987e-06 0.0933682)
(2.61712e-05 5.6517e-07 0.0999936)
(-1.71837e-05 -2.21968e-07 0.0916967)
(1.43769e-05 1.805e-06 0.0818872)
(-1.47613e-05 -6.21447e-07 0.0818059)
(1.84133e-05 4.23363e-07 0.0917793)
(9.9513e-06 -7.69896e-06 0.0874029)
(7.85895e-06 -9.61037e-06 0.0874041)
(-5.65891e-05 5.63204e-05 0.106186)
(-8.41933e-06 7.89727e-06 0.0874945)
(-7.76361e-06 8.70156e-06 0.0874921)
(3.92803e-06 -8.50911e-06 0.0708741)
(-3.99969e-06 8.1772e-06 0.0709635)
(-7.75506e-06 4.61328e-06 0.0709727)
(8.69605e-06 -3.41384e-06 0.0708773)
(5.2356e-05 -5.27003e-05 0.105962)
(-8.49347e-06 7.92191e-06 0.0874955)
(-7.77871e-06 8.63597e-06 0.0874921)
(9.84493e-06 -7.74283e-06 0.0874036)
(7.88279e-06 -9.72577e-06 0.0874038)
(-4.09631e-06 8.08934e-06 0.0709623)
(4.06436e-06 -8.41169e-06 0.070873)
(1.15711e-06 2.55423e-05 0.0999867)
(4.07578e-07 -1.38322e-06 0.110714)
(-8.43765e-06 -1.97573e-05 0.0933717)
(-1.94256e-06 -1.07292e-06 0.108951)
(4.26073e-07 -1.21765e-06 0.110713)
(1.06659e-05 1.78127e-05 0.0934789)
(3.33725e-09 -2.49919e-05 0.0998745)
(3.05662e-07 1.83816e-05 0.0917985)
(7.51046e-07 -1.47933e-05 0.0818073)
(-1.749e-06 1.44006e-05 0.0818888)
(6.65815e-07 -1.71395e-05 0.0917145)
(9.61736e-07 1.82704e-05 0.0917977)
(4.93776e-08 -1.51688e-05 0.0818144)
(2.69483e-06 1.40451e-05 0.0818973)
(4.39067e-07 -1.7156e-05 0.0917152)
(9.31082e-07 -2.49502e-05 0.099874)
(2.18639e-06 -1.55213e-06 0.108956)
(-2.2684e-08 -1.31645e-06 0.110714)
(-9.86319e-06 1.76894e-05 0.0934726)
(-4.45088e-08 -1.43784e-06 0.110715)
(9.25041e-06 -1.97719e-05 0.0933671)
(-2.37536e-07 2.57334e-05 0.099987)
(-9.33856e-08 -2.53302e-05 0.0998743)
(-1.82253e-06 -1.40051e-06 0.108951)
(4.54316e-07 -1.30793e-06 0.110712)
(1.07241e-05 1.78498e-05 0.0934794)
(4.38957e-07 -1.45372e-06 0.110713)
(-8.44992e-06 -1.96425e-05 0.0933722)
(1.09978e-06 2.55252e-05 0.0999861)
(9.52813e-07 -1.72114e-05 0.0917145)
(-1.93157e-06 1.43086e-05 0.0818889)
(8.17785e-07 -1.4793e-05 0.081807)
(4.6218e-07 1.83816e-05 0.0917982)
(5.87421e-07 -1.71858e-05 0.0917156)
(2.79568e-06 1.40352e-05 0.0818977)
(3.5151e-08 -1.50716e-05 0.0818145)
(1.06485e-06 1.82781e-05 0.0917992)
(-8.43091e-06 -3.8215e-06 0.0708778)
(8.06444e-06 4.2389e-06 0.0709677)
(-3.22444e-06 -8.77245e-06 0.0708771)
(4.8219e-06 7.91272e-06 0.070968)
(-5.21275e-05 -5.24618e-05 0.105959)
(8.81444e-06 7.66985e-06 0.0874963)
(8.45449e-06 8.4823e-06 0.087495)
(-9.57931e-06 -7.80944e-06 0.0874073)
(-7.21143e-06 -9.90473e-06 0.0874057)
(8.33785e-06 4.10767e-06 0.0709683)
(-8.55928e-06 -3.79988e-06 0.0708776)
(4.89844e-06 7.81801e-06 0.0709694)
(-3.27686e-06 -8.67731e-06 0.070878)
(-1.34475e-06 -9.37029e-08 0.110721)
(-1.93753e-05 -9.21431e-06 0.0933688)
(-2.50676e-05 -6.35161e-07 0.0998814)
(-1.46975e-05 -7.48714e-07 0.0818057)
(-1.69576e-05 -6.64153e-08 0.0916973)
(-8.36557e-06 -1.95824e-05 0.0933727)
(1.86675e-07 -1.51409e-05 0.0818151)
(-8.20731e-06 -3.95929e-06 0.0708784)
(-3.16826e-06 -8.74693e-06 0.0708794)
(-1.09783e-06 8.59431e-06 0.0763238)
(-6.39479e-07 -8.31209e-06 0.0782113)
(-1.73835e-06 -1.74543e-05 0.0900719)
(2.55974e-08 1.73899e-05 0.0916912)
(-5.59761e-07 8.4505e-06 0.078139)
(3.02961e-07 1.6591e-05 0.0899828)
(-5.38762e-07 -8.50483e-06 0.0764059)
(-7.12059e-07 -8.06287e-06 0.0678884)
(-2.17075e-06 -1.41244e-05 0.0818956)
(-3.72367e-07 1.35208e-05 0.0855589)
(-2.1136e-06 -1.36009e-05 0.0856517)
(-1.29682e-06 8.45257e-06 0.0677851)
(-1.24402e-06 8.47474e-06 0.0677856)
(-2.01204e-06 -1.36047e-05 0.085652)
(5.15597e-07 1.49637e-05 0.0818141)
(-3.37143e-07 1.35677e-05 0.0855595)
(-6.00852e-07 -8.12265e-06 0.0678887)
(-4.95925e-07 -8.57166e-06 0.0764057)
(-5.46261e-07 -1.82846e-05 0.091775)
(-5.69573e-07 8.4744e-06 0.0781393)
(3.14616e-07 1.65628e-05 0.0899829)
(-5.85466e-07 -8.24556e-06 0.0782116)
(-1.70451e-06 -1.73963e-05 0.090072)
(-1.08707e-06 8.57683e-06 0.0763234)
(4.94204e-06 -7.63965e-06 0.0709606)
(-3.2791e-06 8.9409e-06 0.0708692)
(9.10143e-06 -1.44339e-06 0.0763378)
(-1.69952e-05 -2.02318e-06 0.0900816)
(-8.21172e-06 -4.88442e-07 0.0782188)
(1.79239e-05 -2.63273e-07 0.0917012)
(1.7195e-05 -7.38138e-08 0.0899938)
(8.56838e-06 -5.11575e-07 0.0781499)
(-8.19607e-06 -8.36973e-07 0.076416)
(-7.86822e-06 -1.58209e-06 0.067894)
(-1.35323e-05 -2.7738e-06 0.0819003)
(1.41776e-05 -8.56765e-07 0.0855662)
(-1.30666e-05 -2.60422e-06 0.0856576)
(8.76026e-06 -2.04354e-06 0.0677957)
(8.80928e-06 -2.05481e-06 0.0677948)
(-1.30434e-05 -2.5914e-06 0.0856569)
(1.55679e-05 -2.11359e-07 0.081817)
(1.42146e-05 -8.66428e-07 0.0855659)
(-7.95565e-06 -1.47325e-06 0.067893)
(-8.2212e-06 -8.48885e-07 0.0764177)
(-1.77992e-05 -7.38184e-07 0.0917842)
(1.71597e-05 2.01254e-09 0.0899947)
(8.56654e-06 -6.06357e-07 0.0781513)
(-1.69521e-05 -2.03122e-06 0.0900827)
(-8.20387e-06 -5.96539e-07 0.0782202)
(9.01916e-06 -1.41354e-06 0.0763395)
(-7.79411e-06 4.55202e-06 0.070972)
(8.68306e-06 -3.45021e-06 0.0708772)
(-7.50175e-06 -7.76893e-06 0.0834499)
(4.43412e-06 7.3618e-06 0.0680164)
(7.59423e-06 4.23182e-06 0.06801)
(-4.7362e-06 -7.15142e-06 0.067924)
(-7.02517e-06 -4.88064e-06 0.0679177)
(8.03201e-06 7.68167e-06 0.0835276)
(2.03116e-05 1.00393e-05 0.0920123)
(-2.62054e-05 -1.32226e-05 0.0970222)
(8.69551e-06 7.77575e-06 0.0874955)
(-8.60278e-06 -4.95426e-06 0.0812275)
(2.6572e-05 1.19551e-05 0.0971184)
(8.1969e-06 5.40793e-06 0.0813158)
(-1.92643e-05 -1.0235e-05 0.0919229)
(1.04024e-05 1.98444e-05 0.0920044)
(-1.26961e-05 -2.65567e-05 0.09702)
(8.48146e-06 8.40212e-06 0.0874932)
(-4.72121e-06 -8.96073e-06 0.0812215)
(1.26674e-05 2.64217e-05 0.0971169)
(5.82141e-06 7.93345e-06 0.0813089)
(-9.88156e-06 -1.96532e-05 0.0919152)
(-1.92389e-05 -1.02272e-05 0.0919235)
(8.18129e-06 5.35135e-06 0.0813162)
(-9.66285e-06 -7.82975e-06 0.0874071)
(2.65268e-05 1.19656e-05 0.0971186)
(-2.62294e-05 -1.32725e-05 0.097023)
(-8.61763e-06 -5.02308e-06 0.081228)
(2.02446e-05 1.00153e-05 0.092013)
(-9.99396e-06 -1.97188e-05 0.0919155)
(5.8561e-06 8.00061e-06 0.08131)
(-7.19231e-06 -9.91136e-06 0.0874054)
(1.26612e-05 2.63185e-05 0.0971171)
(-1.26614e-05 -2.64231e-05 0.0970209)
(-4.67054e-06 -8.83932e-06 0.0812225)
(1.04732e-05 1.98711e-05 0.092005)
(7.96718e-06 7.7118e-06 0.0835267)
(-4.71769e-06 -7.11111e-06 0.0679233)
(-6.97989e-06 -4.83721e-06 0.0679168)
(4.4674e-06 7.42047e-06 0.0680157)
(7.60069e-06 4.31042e-06 0.0680092)
(-7.5879e-06 -7.75685e-06 0.083449)
(2.04586e-05 9.97846e-06 0.0920146)
(-2.60254e-05 -1.32369e-05 0.0970237)
(-8.47235e-06 -5.16709e-06 0.0812295)
(8.9476e-06 7.58071e-06 0.0874967)
(-1.92099e-05 -1.0302e-05 0.0919252)
(2.67002e-05 1.18716e-05 0.0971198)
(8.41132e-06 5.15923e-06 0.0813179)
(1.07057e-05 1.99997e-05 0.0920076)
(-1.25866e-05 -2.65812e-05 0.0970213)
(-4.74907e-06 -8.97422e-06 0.081225)
(8.41236e-06 8.421e-06 0.0874959)
(-9.66366e-06 -1.95656e-05 0.0919181)
(1.2675e-05 2.61731e-05 0.0971179)
(5.71817e-06 7.8352e-06 0.0813124)
(8.11886e-06 7.71044e-06 0.0835302)
(-4.50584e-06 -7.32687e-06 0.0679258)
(-6.90066e-06 -4.87102e-06 0.0679198)
(-7.40465e-06 -7.77364e-06 0.0834526)
(4.70732e-06 7.15391e-06 0.0680181)
(7.65694e-06 4.27894e-06 0.068012)
(-4.27135e-06 -8.08278e-06 0.0709657)
(3.89251e-06 8.44534e-06 0.0708759)
(-7.75227e-06 -4.87804e-06 0.0709637)
(8.83819e-06 3.2831e-06 0.0708732)
(7.86319e-06 7.51236e-06 0.0834398)
(-7.24834e-06 -4.5812e-06 0.0680057)
(-4.21331e-06 -7.63599e-06 0.0679987)
(7.3363e-06 4.61988e-06 0.0679133)
(4.95567e-06 6.98569e-06 0.0679063)
(-7.62402e-06 -8.01728e-06 0.0835174)
(-1.00221e-05 -2.03028e-05 0.0920071)
(1.31868e-05 2.64664e-05 0.0970202)
(-7.84151e-06 -8.80015e-06 0.0874886)
(5.16063e-06 8.4475e-06 0.0812183)
(-5.28897e-06 -8.42225e-06 0.0813055)
(-1.20768e-05 -2.64693e-05 0.0971164)
(1.03095e-05 1.93686e-05 0.0919176)
(-1.98181e-05 -1.03458e-05 0.0919994)
(2.68928e-05 1.31006e-05 0.0970151)
(-8.20407e-06 -8.21299e-06 0.0874861)
(8.98435e-06 4.67144e-06 0.0812118)
(-7.87583e-06 -5.78138e-06 0.0812992)
(-2.5951e-05 -1.22012e-05 0.0971122)
(1.97782e-05 1.00243e-05 0.0919098)
(1.03427e-05 1.94108e-05 0.0919179)
(-5.21677e-06 -8.36586e-06 0.081306)
(7.82031e-06 9.60587e-06 0.0874017)
(-1.21195e-05 -2.64184e-05 0.0971163)
(5.20962e-06 8.47429e-06 0.0812189)
(-1.00705e-05 -2.02772e-05 0.0920075)
(1.32369e-05 2.64976e-05 0.0970208)
(1.97998e-05 1.00672e-05 0.09191)
(-7.8542e-06 -5.74593e-06 0.0812996)
(1.01106e-05 7.44266e-06 0.087398)
(-2.6008e-05 -1.22856e-05 0.0971121)
(8.98779e-06 4.77648e-06 0.0812123)
(-1.98511e-05 -1.04081e-05 0.0919998)
(2.69338e-05 1.31675e-05 0.0970157)
(-7.62895e-06 -8.07286e-06 0.083517)
(7.31975e-06 4.59687e-06 0.0679127)
(4.99632e-06 6.86713e-06 0.0679057)
(-7.25452e-06 -4.62969e-06 0.0680052)
(-4.2407e-06 -7.71073e-06 0.0679982)
(7.89356e-06 7.42079e-06 0.0834392)
(4.00072e-06 8.32593e-06 0.070877)
(-4.1262e-06 -8.16244e-06 0.0709665)
(8.83954e-06 3.21913e-06 0.0708737)
(-7.71253e-06 -4.88406e-06 0.0709639)
(-7.63646e-06 -8.09298e-06 0.0835179)
(7.35466e-06 4.53548e-06 0.0679138)
(4.92269e-06 6.99751e-06 0.0679067)
(7.90034e-06 7.49201e-06 0.0834402)
(-7.19512e-06 -4.73565e-06 0.0680061)
(-4.29728e-06 -7.63061e-06 0.0679991)
(1.03843e-05 1.94226e-05 0.0919186)
(-1.21186e-05 -2.6444e-05 0.0971167)
(7.97212e-06 9.45396e-06 0.0874024)
(-5.11217e-06 -8.44946e-06 0.0813068)
(5.34451e-06 8.46461e-06 0.0812195)
(1.32029e-05 2.64654e-05 0.0970208)
(-1.00206e-05 -2.02942e-05 0.0920081)
(1.96913e-05 9.95949e-06 0.0919107)
(-2.60765e-05 -1.23757e-05 0.0971126)
(1.01274e-05 7.40413e-06 0.0873982)
(-7.8067e-06 -5.8369e-06 0.0813004)
(9.05688e-06 4.72321e-06 0.0812128)
(2.6805e-05 1.30408e-05 0.0970157)
(-1.98466e-05 -1.04411e-05 0.0920004)
(-9.96132e-06 -2.02846e-05 0.0920078)
(5.34069e-06 8.55319e-06 0.0812191)
(1.31664e-05 2.65089e-05 0.0970205)
(-7.65201e-06 -8.80293e-06 0.0874897)
(1.02905e-05 1.94184e-05 0.0919187)
(-5.11273e-06 -8.39339e-06 0.0813064)
(-1.20357e-05 -2.6402e-05 0.0971172)
(-1.99342e-05 -1.04085e-05 0.092)
(9.04021e-06 4.79599e-06 0.0812125)
(2.68469e-05 1.30508e-05 0.0970154)
(-8.21279e-06 -8.22866e-06 0.0874867)
(1.98182e-05 1.0042e-05 0.0919107)
(-7.86456e-06 -5.73267e-06 0.0813)
(-2.59916e-05 -1.22202e-05 0.097113)
(7.9003e-06 7.43868e-06 0.0834405)
(-7.13691e-06 -4.73593e-06 0.0680066)
(-4.1905e-06 -7.74075e-06 0.0679997)
(7.41171e-06 4.44499e-06 0.0679141)
(4.92265e-06 6.91434e-06 0.0679071)
(-7.57428e-06 -8.1287e-06 0.0835184)
(4.23554e-07 8.7996e-06 0.0763441)
(-2.06717e-07 -8.16187e-06 0.0782183)
(1.14622e-06 -1.72356e-05 0.0900843)
(-3.89498e-07 1.75368e-05 0.091695)
(-1.6737e-07 8.55605e-06 0.0781465)
(-9.57978e-07 1.68988e-05 0.089996)
(-8.38719e-08 -8.61049e-06 0.0764231)
(3.8956e-07 -8.15975e-06 0.0678947)
(2.42154e-06 -1.36226e-05 0.0818919)
(-1.91161e-07 1.4103e-05 0.0855656)
(1.56519e-06 -1.31599e-05 0.0856568)
(8.60548e-07 8.50044e-06 0.0677965)
(9.97653e-07 8.58744e-06 0.067795)
(1.8278e-06 -1.32163e-05 0.0856554)
(-1.72821e-07 1.55786e-05 0.0818088)
(-8.07317e-08 1.4152e-05 0.0855642)
(5.90337e-07 -8.15768e-06 0.067893)
(-2.25595e-07 -8.52812e-06 0.0764241)
(7.72832e-08 -1.81709e-05 0.0917786)
(-2.34175e-07 8.49414e-06 0.0781472)
(-1.04499e-06 1.68748e-05 0.0899964)
(-2.27704e-07 -8.18465e-06 0.078219)
(1.02413e-06 -1.72139e-05 0.0900852)
(3.03991e-07 8.70438e-06 0.076345)
(-5.49214e-07 -8.42384e-06 0.0764062)
(-6.46274e-07 8.39246e-06 0.0781388)
(2.87162e-07 1.65931e-05 0.0899832)
(-7.32718e-07 -1.82194e-05 0.0917745)
(-1.11898e-06 8.75018e-06 0.076324)
(-6.88727e-07 -8.37332e-06 0.0782111)
(-1.79597e-06 -1.74208e-05 0.0900723)
(-1.16048e-06 8.46037e-06 0.0677867)
(7.50404e-07 1.48258e-05 0.0818148)
(-1.74287e-06 -1.36777e-05 0.0856529)
(-5.46628e-07 -8.16843e-06 0.0678901)
(8.4806e-08 1.35021e-05 0.0855601)
(-5.59289e-07 -8.08574e-06 0.0678894)
(-1.26641e-07 1.35894e-05 0.0855596)
(-2.03871e-06 -1.42374e-05 0.0818967)
(-1.13239e-06 8.44258e-06 0.0677859)
(-1.84866e-06 -1.35803e-05 0.0856525)
(-1.18388e-06 8.84663e-06 0.0763243)
(-2.42829e-07 1.73513e-05 0.0916912)
(-7.31281e-07 -8.30151e-06 0.0782108)
(-1.74108e-06 -1.75219e-05 0.0900728)
(-5.98572e-07 -8.411e-06 0.0764065)
(-7.37393e-07 8.43328e-06 0.0781385)
(2.67866e-07 1.65109e-05 0.0899841)
(-1.02256e-08 -8.63653e-06 0.0764221)
(-1.91221e-07 8.57257e-06 0.0781457)
(-8.33503e-07 1.69536e-05 0.0899951)
(2.22583e-07 -1.8136e-05 0.0917787)
(5.4448e-07 8.65959e-06 0.0763431)
(-2.12347e-07 -8.30907e-06 0.0782175)
(1.37964e-06 -1.72169e-05 0.0900837)
(1.21925e-06 8.60981e-06 0.0677921)
(-1.3053e-08 1.54355e-05 0.0818064)
(1.99071e-06 -1.32496e-05 0.0856529)
(2.5569e-07 1.40497e-05 0.0855619)
(6.50194e-07 -8.16567e-06 0.0678904)
(6.77977e-07 -8.07451e-06 0.0678917)
(1.98986e-07 1.40886e-05 0.085563)
(2.52689e-06 -1.37424e-05 0.0818893)
(1.18783e-06 8.62076e-06 0.0677933)
(2.02066e-06 -1.32189e-05 0.0856544)
(6.61104e-07 8.74392e-06 0.0763421)
(-3.26923e-07 1.75152e-05 0.0916951)
(-1.73872e-07 -8.29216e-06 0.0782166)
(1.38685e-06 -1.72993e-05 0.0900829)
(-1.78516e-07 8.50167e-06 0.0781448)
(-6.83919e-07 1.69062e-05 0.0899946)
(3.96229e-08 -8.58519e-06 0.076421)
(-7.29819e-06 8.29902e-06 0.0834512)
(7.8733e-06 -3.94265e-06 0.068007)
(4.69922e-06 -7.01564e-06 0.0680226)
(-6.75072e-06 5.23457e-06 0.0679144)
(-4.45081e-06 7.54262e-06 0.06793)
(8.21416e-06 -7.21089e-06 0.0835289)
(1.0263e-05 -1.93045e-05 0.0920039)
(-1.32467e-05 2.71751e-05 0.097015)
(8.25371e-06 -7.84846e-06 0.0874857)
(-4.41231e-06 9.41717e-06 0.0812144)
(6.07547e-06 -7.38888e-06 0.0813028)
(1.21018e-05 -2.57036e-05 0.0971129)
(-1.01267e-05 2.01792e-05 0.0919138)
(2.02722e-05 -9.58005e-06 0.0920187)
(-2.62894e-05 1.34955e-05 0.0970163)
(8.83845e-06 -7.31871e-06 0.0875203)
(-8.238e-06 5.4282e-06 0.0812454)
(2.62868e-05 -1.16827e-05 0.0971127)
(8.53483e-06 -5.00537e-06 0.081334)
(-1.92672e-05 1.0709e-05 0.0919291)
(-1.01272e-05 2.01809e-05 0.0919136)
(6.02648e-06 -7.44017e-06 0.0813024)
(-7.41166e-06 1.04414e-05 0.087396)
(1.22299e-05 -2.57266e-05 0.0971133)
(-4.44395e-06 9.32806e-06 0.0812141)
(-1.31637e-05 2.70602e-05 0.0970159)
(1.04225e-05 -1.9437e-05 0.092004)
(-1.92277e-05 1.06288e-05 0.0919292)
(8.42729e-06 -5.13065e-06 0.0813344)
(-9.43294e-06 8.07766e-06 0.0874306)
(2.63437e-05 -1.18228e-05 0.0971127)
(-2.63287e-05 1.34894e-05 0.097017)
(-8.32552e-06 5.37908e-06 0.0812459)
(2.021e-05 -9.63509e-06 0.0920192)
(8.25181e-06 -7.18336e-06 0.0835287)
(-6.65636e-06 5.25476e-06 0.0679145)
(-4.34792e-06 7.60651e-06 0.0679298)
(7.92741e-06 -3.91043e-06 0.0680069)
(4.80839e-06 -6.91991e-06 0.0680223)
(-7.29243e-06 8.28917e-06 0.083451)
(8.16159e-06 -3.86649e-06 0.0710006)
(-8.28588e-06 3.95895e-06 0.0709065)
(-3.21027e-06 8.87034e-06 0.070867)
(4.87647e-06 -7.67828e-06 0.0709579)
(8.21321e-06 -7.37441e-06 0.0835294)
(-6.75045e-06 5.17786e-06 0.0679145)
(-4.52518e-06 7.49031e-06 0.0679304)
(-7.3613e-06 8.18913e-06 0.0834515)
(7.83607e-06 -4.0875e-06 0.0680071)
(4.67732e-06 -7.05582e-06 0.068023)
(-9.99215e-06 1.99758e-05 0.091914)
(1.22335e-05 -2.56857e-05 0.0971139)
(-7.39473e-06 1.03051e-05 0.0873951)
(5.91285e-06 -7.61327e-06 0.0813022)
(-1.30728e-05 2.70384e-05 0.0970163)
(-4.57147e-06 9.18108e-06 0.0812134)
(1.04836e-05 -1.95786e-05 0.0920043)
(-1.92394e-05 1.04223e-05 0.0919299)
(2.62585e-05 -1.19322e-05 0.0971131)
(-9.4552e-06 7.6148e-06 0.087431)
(8.26486e-06 -5.40568e-06 0.081336)
(-8.44681e-06 5.08228e-06 0.0812472)
(-2.63138e-05 1.33247e-05 0.0970168)
(2.02823e-05 -9.93524e-06 0.0920198)
(1.03712e-05 -1.9498e-05 0.0920041)
(-4.55322e-06 9.3119e-06 0.0812136)
(-1.31421e-05 2.72026e-05 0.0970159)
(8.25391e-06 -8.00857e-06 0.0874848)
(1.22579e-05 -2.58146e-05 0.0971143)
(-9.97749e-06 2.00716e-05 0.0919142)
(5.91094e-06 -7.54548e-06 0.0813021)
(2.03018e-05 -9.76683e-06 0.0920194)
(-8.35286e-06 5.19998e-06 0.0812465)
(-2.63458e-05 1.34122e-05 0.0970167)
(8.69395e-06 -7.67409e-06 0.0875209)
(-1.93314e-05 1.05841e-05 0.0919298)
(8.4182e-06 -5.21737e-06 0.0813353)
(2.61153e-05 -1.16899e-05 0.0971135)
(-7.3501e-06 8.02718e-06 0.083452)
(7.73375e-06 -4.1532e-06 0.0680076)
(4.49486e-06 -7.30258e-06 0.0680237)
(-6.79277e-06 5.00821e-06 0.0679147)
(-4.56388e-06 7.34352e-06 0.0679308)
(8.10245e-06 -7.52213e-06 0.0835302)
(-8.48519e-06 3.63532e-06 0.070907)
(7.96935e-06 -4.22136e-06 0.071001)
(8.60734e-06 1.00938e-06 0.0763241)
(-8.31617e-06 -1.25413e-07 0.0782129)
(-1.70742e-05 1.57009e-06 0.0900757)
(1.80392e-05 -3.26642e-07 0.0916982)
(8.51467e-06 -7.37375e-08 0.0781435)
(1.70315e-05 -2.89738e-07 0.089987)
(-8.64254e-06 3.01041e-07 0.0764054)
(-7.96831e-06 1.08142e-06 0.0678896)
(-1.37273e-05 2.57028e-06 0.0819005)
(1.40756e-05 5.90097e-07 0.08556)
(-1.31338e-05 2.34574e-06 0.085653)
(8.56582e-06 1.64042e-06 0.0677865)
(8.60788e-06 1.70116e-06 0.0677857)
(-1.31972e-05 2.37692e-06 0.0856523)
(1.53651e-05 -2.03657e-08 0.0818162)
(1.4059e-05 7.00236e-07 0.0855595)
(-8.04608e-06 1.0865e-06 0.0678887)
(-8.51298e-06 4.33081e-07 0.0764069)
(-1.78023e-05 1.72693e-07 0.0917814)
(8.51877e-06 -6.67208e-08 0.0781452)
(1.70226e-05 -2.60001e-07 0.0899885)
(-8.22205e-06 -1.44129e-07 0.0782142)
(-1.70396e-05 1.60598e-06 0.0900773)
(8.78141e-06 1.12218e-06 0.0763255)
(-8.2804e-06 -7.58142e-07 0.0764142)
(1.71635e-05 2.58846e-08 0.0899929)
(8.67544e-06 -4.19082e-07 0.0781485)
(-1.76851e-05 -7.88341e-07 0.0917825)
(9.10356e-06 -1.37987e-06 0.0763359)
(-1.69772e-05 -2.0088e-06 0.0900806)
(-8.17848e-06 -3.86902e-07 0.0782175)
(8.75001e-06 -2.04539e-06 0.0677929)
(1.55982e-05 -2.95486e-07 0.0818165)
(-1.30636e-05 -2.82745e-06 0.0856557)
(-8.00359e-06 -1.54718e-06 0.0678913)
(1.42172e-05 -9.2058e-07 0.0855645)
(-7.88519e-06 -1.51977e-06 0.0678921)
(1.4245e-05 -8.3091e-07 0.0855652)
(-1.35233e-05 -2.82887e-06 0.0819)
(8.78739e-06 -1.96851e-06 0.0677937)
(-1.30339e-05 -2.6491e-06 0.0856566)
(8.98052e-06 -1.30828e-06 0.0763342)
(1.79927e-05 -1.93253e-07 0.0917001)
(-1.69692e-05 -2.0221e-06 0.090079)
(-8.27256e-06 -3.68184e-07 0.0782163)
(-8.49358e-06 -7.20018e-07 0.0764124)
(1.71915e-05 5.83606e-08 0.089992)
(8.66833e-06 -3.14599e-07 0.0781472)
(-8.54246e-06 2.94759e-07 0.0764039)
(8.50208e-06 -1.06232e-08 0.0781422)
(1.7008e-05 -3.55928e-07 0.0899857)
(-1.77853e-05 1.09704e-07 0.0917786)
(8.66562e-06 9.38528e-07 0.0763226)
(-8.40175e-06 -7.34138e-08 0.0782115)
(-1.70847e-05 1.61708e-06 0.0900748)
(8.53616e-06 1.61536e-06 0.067784)
(1.53117e-05 -2.46031e-08 0.0818158)
(-1.3274e-05 2.28434e-06 0.0856509)
(1.39579e-05 5.10093e-07 0.085558)
(-8.10284e-06 1.02901e-06 0.0678873)
(-8.00932e-06 1.04149e-06 0.067888)
(1.40248e-05 5.83402e-07 0.0855587)
(-1.37278e-05 2.56879e-06 0.0819004)
(8.57977e-06 1.63744e-06 0.0677846)
(-1.31947e-05 2.27767e-06 0.0856518)
(8.67939e-06 1.00685e-06 0.0763213)
(1.78722e-05 -3.02519e-07 0.091696)
(-8.51035e-06 5.53402e-08 0.0782101)
(-1.71142e-05 1.67344e-06 0.0900734)
(8.42696e-06 7.9706e-08 0.0781408)
(1.7017e-05 -3.36851e-07 0.0899848)
(-8.66407e-06 4.45934e-07 0.0764028)
(-8.53043e-06 -6.71623e-07 0.0763524)
(1.77662e-05 -1.45447e-06 0.0900954)
(8.52735e-06 -6.93006e-09 0.0782319)
(-1.69169e-05 1.3412e-07 0.0917071)
(-1.61335e-05 5.75041e-07 0.0900071)
(-8.12029e-06 4.22938e-08 0.0781602)
(8.69695e-06 -1.00081e-07 0.0764315)
(8.165e-06 -3.1108e-07 0.0679076)
(1.43166e-05 -1.7147e-06 0.0819207)
(-1.32708e-05 2.19028e-07 0.0855819)
(1.38272e-05 -1.50571e-06 0.0856739)
(-8.39158e-06 -8.3564e-07 0.067809)
(-8.48415e-06 -9.24602e-07 0.0678092)
(1.37372e-05 -1.67807e-06 0.0856742)
(-1.47086e-05 7.0423e-07 0.0818374)
(-1.34015e-05 8.56136e-08 0.0855825)
(8.19079e-06 -3.92921e-07 0.0679077)
(8.65346e-06 7.29868e-08 0.076431)
(1.85424e-05 -3.19089e-07 0.0917899)
(-1.60717e-05 7.33421e-07 0.0900066)
(-8.12686e-06 1.24964e-07 0.0781598)
(1.78241e-05 -1.32018e-06 0.0900952)
(8.49711e-06 1.2635e-07 0.0782316)
(-8.46199e-06 -4.87399e-07 0.0763517)
(-8.4994e-06 -4.38275e-08 0.0763284)
(8.40738e-06 1.88069e-07 0.0782195)
(1.75637e-05 9.2781e-07 0.0900716)
(-1.70967e-05 -1.67107e-07 0.0916961)
(-8.21707e-06 2.01861e-07 0.0781477)
(-1.64379e-05 -1.07285e-06 0.0899838)
(8.82376e-06 -6.00123e-07 0.0764077)
(8.38068e-06 -2.66342e-07 0.0678845)
(1.43552e-05 1.89305e-06 0.0818878)
(-1.33876e-05 -4.55242e-07 0.0855538)
(1.37959e-05 1.28486e-06 0.0856448)
(-8.2941e-06 3.00756e-07 0.0677862)
(-8.28497e-06 3.81971e-07 0.067786)
(1.37831e-05 1.45885e-06 0.0856442)
(-1.47955e-05 -6.09634e-07 0.081806)
(-1.34786e-05 -3.6765e-07 0.0855533)
(8.44765e-06 -1.20414e-07 0.0678842)
(8.73374e-06 -7.32477e-07 0.0764068)
(1.82948e-05 3.03068e-07 0.0917787)
(-8.32367e-06 1.55653e-07 0.0781463)
(-1.63853e-05 -1.17381e-06 0.0899833)
(8.35299e-06 1.5701e-07 0.0782183)
(1.75877e-05 8.22701e-07 0.0900717)
(-8.43665e-06 -6.20707e-08 0.0763274)
(8.73782e-06 -1.35965e-07 0.0764321)
(-1.62666e-05 5.57259e-07 0.0900074)
(-8.18984e-06 -2.64719e-08 0.0781605)
(1.83536e-05 -3.42167e-07 0.0917901)
(-8.57736e-06 -7.66799e-07 0.0763528)
(1.7646e-05 -1.46154e-06 0.0900955)
(8.46196e-06 -5.25643e-09 0.0782321)
(-8.42938e-06 -1.0303e-06 0.0678095)
(-1.48767e-05 3.85444e-07 0.0818379)
(1.36511e-05 -1.87266e-06 0.0856744)
(-1.35288e-05 -1.89207e-07 0.0855828)
(8.24925e-06 -4.23655e-07 0.0679081)
(8.15725e-06 -4.30382e-07 0.0679079)
(-1.35098e-05 -2.00923e-08 0.0855827)
(1.41361e-05 -2.07339e-06 0.0819214)
(-8.49224e-06 -9.72567e-07 0.0678091)
(1.36224e-05 -1.83951e-06 0.0856746)
(-8.44251e-06 -7.53192e-07 0.0763533)
(-1.71424e-05 1.77987e-07 0.0917075)
(1.77434e-05 -1.55566e-06 0.0900954)
(8.63235e-06 3.50881e-08 0.0782325)
(-1.62888e-05 4.73618e-07 0.0900074)
(-8.07845e-06 2.50001e-09 0.0781607)
(8.78447e-06 -6.33008e-08 0.0764324)