/*--------------------------------*- C++ -*----------------------------------*\
| =========                 |                                                 |
| \\      /  F ield         | OpenFOAM: The Open Source CFD Toolbox           |
|  \\    /   O peration     | Version:  v1906                                 |
|   \\  /    A nd           | Web:      www.OpenFOAM.com                      |
|    \\/     M anipulation  |                                                 |
\*---------------------------------------------------------------------------*/
FoamFile
{
    version     2.0;
    format      ascii;
    class       volScalarField;
    location    "400";
    object      epsilon;
}
// * * * * * * * * * * * * * * * * * * * * * * * * * * * * * * * * * * * * * //

dimensions      [0 2 -3 0 0 0 0];


internalField   nonuniform List<scalar> 
43248
(
1.1484e-06
8.63028e-07
8.62993e-07
1.14857e-06
8.62791e-07
8.63061e-07
8.62829e-07
8.63074e-07
1.14865e-06
8.62924e-07
8.62937e-07
1.14836e-06
3.19712e-07
3.19704e-07
3.19788e-07
3.19799e-07
1.84276e-05
1.84294e-05
5.4622e-06
5.46363e-06
4.09142e-06
9.16141e-06
4.09357e-06
4.09165e-06
9.16223e-06
9.1557e-06
4.09355e-06
2.1022e-06
3.4746e-06
5.58242e-07
5.5234e-07
2.10679e-06
2.10222e-06
8.56922e-07
3.4749e-06
5.58277e-07
3.47203e-06
5.52387e-07
2.10689e-06
1.84289e-05
1.84186e-05
1.14393e-06
5.46375e-06
5.46188e-06
5.46119e-06
5.45931e-06
1.84262e-05
1.84159e-05
9.16324e-06
4.09405e-06
3.47554e-06
5.5835e-07
2.10695e-06
9.16254e-06
4.0939e-06
5.58374e-07
3.47549e-06
2.10691e-06
2.10242e-06
8.56757e-07
3.47501e-06
5.5828e-07
3.47131e-06
5.52392e-07
2.10696e-06
4.09198e-06
9.16221e-06
9.15526e-06
4.09363e-06
2.10232e-06
8.56994e-07
5.58362e-07
3.47478e-06
5.52473e-07
3.47172e-06
2.10691e-06
4.09178e-06
9.16244e-06
9.15542e-06
4.09362e-06
1.84299e-05
5.46357e-06
5.46217e-06
1.84282e-05
2.10244e-06
5.58378e-07
3.47519e-06
5.52475e-07
2.10697e-06
2.1025e-06
8.56865e-07
5.58403e-07
3.4754e-06
5.52518e-07
3.47248e-06
2.10698e-06
4.09181e-06
9.16244e-06
4.09404e-06
4.092e-06
9.16323e-06
9.15673e-06
4.09368e-06
1.1444e-06
5.46205e-06
5.46387e-06
5.45958e-06
5.46148e-06
1.84285e-05
1.84182e-05
1.84303e-05
1.84199e-05
1.84224e-05
1.84246e-05
4.53801e-06
2.81199e-06
5.46182e-06
9.50059e-06
9.49685e-06
2.81006e-06
4.54049e-06
4.54424e-06
2.81127e-06
5.46351e-06
9.50383e-06
9.50092e-06
2.81212e-06
4.54281e-06
9.73612e-06
2.17308e-05
2.17286e-05
2.1724e-05
2.17228e-05
9.73563e-06
1.22035e-05
1.08241e-05
4.74425e-06
4.09185e-06
1.22007e-05
1.08271e-05
4.74428e-06
2.20542e-05
9.15835e-06
7.08843e-06
7.08897e-06
2.20611e-05
1.22041e-05
4.09343e-06
1.08303e-05
4.74588e-06
1.08273e-05
4.74587e-06
1.22069e-05
1.22036e-05
1.08244e-05
4.74451e-06
4.09177e-06
1.2201e-05
1.08271e-05
4.7444e-06
2.20548e-05
9.15968e-06
7.09017e-06
7.09054e-06
2.20614e-05
2.20568e-05
7.08956e-06
9.15823e-06
2.20503e-05
7.08917e-06
1.22044e-05
4.09368e-06
1.083e-05
4.74605e-06
1.08279e-05
4.7462e-06
1.2207e-05
1.8424e-05
1.84235e-05
9.73331e-06
2.17174e-05
2.1718e-05
9.73371e-06
2.17236e-05
2.17243e-05
4.54443e-06
2.81242e-06
5.4636e-06
9.504e-06
2.81136e-06
9.50101e-06
4.54473e-06
4.53842e-06
2.81123e-06
5.4617e-06
9.49967e-06
9.49604e-06
2.81017e-06
4.53858e-06
4.54215e-06
9.4963e-06
2.80817e-06
5.46135e-06
2.80914e-06
4.54173e-06
9.49929e-06
4.536e-06
9.49128e-06
2.80698e-06
5.45956e-06
4.5358e-06
9.49495e-06
2.80796e-06
9.73569e-06
2.17287e-05
2.17293e-05
2.17224e-05
2.1723e-05
9.7353e-06
1.84212e-05
1.84208e-05
2.20547e-05
9.16031e-06
7.09012e-06
7.09046e-06
2.20613e-05
1.22043e-05
4.09342e-06
4.74634e-06
1.08309e-05
4.74594e-06
1.0828e-05
1.22074e-05
2.20548e-05
9.16e-06
7.08868e-06
7.0892e-06
2.20616e-05
1.22046e-05
4.09351e-06
1.08308e-05
4.746e-06
1.08278e-05
4.74591e-06
1.22075e-05
1.22031e-05
4.74447e-06
1.08249e-05
4.09183e-06
1.22006e-05
4.74432e-06
1.0827e-05
2.20533e-05
9.15926e-06
7.0896e-06
7.08996e-06
2.20599e-05
2.20553e-05
7.08897e-06
9.15822e-06
2.20487e-05
7.0886e-06
1.2204e-05
4.09388e-06
4.74584e-06
1.08301e-05
4.74606e-06
1.08281e-05
1.22065e-05
1.22037e-05
1.08249e-05
4.74426e-06
4.09166e-06
1.22011e-05
1.08269e-05
4.74428e-06
2.20545e-05
9.15944e-06
7.08834e-06
7.08873e-06
2.2061e-05
2.20564e-05
7.08774e-06
9.15844e-06
2.20499e-05
7.08734e-06
1.22045e-05
4.0938e-06
1.083e-05
4.74593e-06
1.0828e-05
4.74593e-06
1.22071e-05
1.84249e-05
4.54473e-06
2.81214e-06
5.46362e-06
9.50417e-06
2.81157e-06
9.50118e-06
4.54512e-06
4.53879e-06
2.81109e-06
5.46172e-06
9.49987e-06
9.49622e-06
2.8105e-06
4.53913e-06
9.73662e-06
2.17299e-05
2.17303e-05
2.17236e-05
2.1724e-05
9.73625e-06
1.84232e-05
1.22038e-05
4.74418e-06
1.08252e-05
4.09188e-06
1.2201e-05
4.74438e-06
1.08272e-05
2.20544e-05
9.15944e-06
7.0883e-06
7.08864e-06
2.2061e-05
2.20563e-05
7.08727e-06
1.22043e-05
4.09361e-06
4.74599e-06
1.08304e-05
4.74574e-06
1.08284e-05
1.22072e-05
1.22036e-05
4.74464e-06
1.08253e-05
4.09189e-06
1.2201e-05
4.74463e-06
1.08274e-05
2.20543e-05
9.16071e-06
7.09005e-06
7.09056e-06
2.20612e-05
2.20566e-05
7.08957e-06
9.15924e-06
2.20498e-05
7.08905e-06
1.22044e-05
4.09387e-06
4.74618e-06
1.08305e-05
4.74621e-06
1.08285e-05
1.2207e-05
9.73399e-06
2.1719e-05
2.17183e-05
9.73437e-06
2.17253e-05
2.17246e-05
4.53879e-06
2.81141e-06
5.46194e-06
9.49971e-06
2.81048e-06
9.49671e-06
4.53882e-06
4.54476e-06
2.81256e-06
5.46386e-06
9.50482e-06
2.81153e-06
9.50117e-06
4.54484e-06
4.53625e-06
9.49199e-06
2.80735e-06
5.45966e-06
4.53617e-06
2.80792e-06
9.49499e-06
4.54224e-06
9.49643e-06
2.80851e-06
5.46158e-06
4.54214e-06
2.80926e-06
9.5001e-06
9.73635e-06
2.17303e-05
2.17296e-05
2.1724e-05
2.17233e-05
9.73598e-06
1.84236e-05
1.84231e-05
1.84253e-05
1.84249e-05
2.66782e-06
1.1493e-06
1.76877e-06
1.76801e-06
1.76724e-06
1.76798e-06
2.66852e-06
2.66777e-06
1.14895e-06
1.76819e-06
1.76809e-06
1.76765e-06
1.76758e-06
2.66846e-06
2.66792e-06
1.1491e-06
1.76831e-06
1.76822e-06
1.76787e-06
1.76776e-06
2.66862e-06
2.66827e-06
1.14935e-06
1.76756e-06
1.76788e-06
1.7677e-06
1.768e-06
2.66808e-06
1.66615e-07
1.66611e-07
1.64504e-07
7.94042e-08
7.99468e-08
3.15764e-07
1.6662e-07
1.66579e-07
1.64507e-07
1.64469e-07
7.94006e-08
7.99426e-08
1.66676e-07
1.66637e-07
1.64522e-07
7.9422e-08
7.99654e-08
3.15855e-07
1.66664e-07
1.66639e-07
1.6455e-07
1.64526e-07
7.94201e-08
7.99633e-08
1.40947e-06
2.3615e-06
1.27386e-06
2.10312e-06
1.4121e-06
2.36233e-06
1.27337e-06
1.61813e-06
2.03172e-06
3.4747e-06
2.85996e-06
2.03186e-06
2.85981e-06
1.61584e-06
1.41711e-06
2.10586e-06
2.36571e-06
1.27938e-06
2.36488e-06
1.27912e-06
1.41458e-06
1.41096e-06
2.36175e-06
1.27352e-06
2.1032e-06
1.41081e-06
2.3626e-06
1.27396e-06
1.61863e-06
2.03232e-06
3.47524e-06
2.86053e-06
2.86038e-06
2.03229e-06
1.61611e-06
1.61194e-06
2.85741e-06
2.02829e-06
3.47211e-06
1.61373e-06
2.85764e-06
2.02815e-06
1.41586e-06
2.10588e-06
2.36597e-06
1.2795e-06
2.36511e-06
1.27885e-06
1.416e-06
2.6652e-06
1.14348e-06
1.76348e-06
1.7634e-06
1.76392e-06
2.66423e-06
1.76378e-06
1.61712e-06
2.03223e-06
3.47489e-06
2.86085e-06
2.03237e-06
2.86024e-06
1.61739e-06
1.41598e-06
2.10603e-06
2.366e-06
1.27967e-06
2.36511e-06
1.27894e-06
1.41589e-06
1.61698e-06
2.0328e-06
3.47501e-06
2.86002e-06
2.85979e-06
2.03181e-06
1.61728e-06
1.41586e-06
2.10594e-06
1.27963e-06
2.36581e-06
1.27889e-06
2.36493e-06
1.41577e-06
1.40974e-06
2.36182e-06
1.27452e-06
2.10332e-06
1.41241e-06
2.3626e-06
1.27316e-06
1.61858e-06
2.03203e-06
3.4743e-06
2.86027e-06
2.03178e-06
2.86006e-06
1.616e-06
1.61184e-06
2.85705e-06
2.02794e-06
3.47212e-06
1.61367e-06
2.02787e-06
2.85761e-06
1.4174e-06
2.10608e-06
2.36595e-06
1.2782e-06
2.3652e-06
1.27985e-06
1.41473e-06
1.41096e-06
1.27401e-06
2.36166e-06
2.10327e-06
1.41081e-06
1.27332e-06
2.36249e-06
1.61717e-06
2.03241e-06
3.4746e-06
2.86042e-06
2.85966e-06
2.03162e-06
1.61743e-06
1.61284e-06
2.85672e-06
2.02751e-06
3.47201e-06
1.61243e-06
2.8574e-06
2.0282e-06
1.41586e-06
2.10599e-06
1.27826e-06
2.36585e-06
1.27959e-06
2.36501e-06
1.41599e-06
1.40976e-06
1.27424e-06
2.36172e-06
2.10333e-06
1.41236e-06
1.27333e-06
2.36248e-06
1.61758e-06
2.03232e-06
3.47435e-06
2.86034e-06
2.03162e-06
2.85959e-06
1.61713e-06
1.6116e-06
2.85733e-06
1.41737e-06
2.10611e-06
1.27828e-06
2.36586e-06
1.27978e-06
2.36508e-06
1.41481e-06
1.40974e-06
1.27457e-06
2.36194e-06
2.10337e-06
1.41252e-06
1.27327e-06
2.36266e-06
1.61879e-06
2.03247e-06
3.47535e-06
2.86057e-06
2.86044e-06
2.03244e-06
1.61616e-06
1.61204e-06
2.85746e-06
2.02843e-06
3.47248e-06
1.61387e-06
2.85767e-06
2.02828e-06
1.41762e-06
2.10618e-06
1.27836e-06
2.366e-06
1.27999e-06
2.36531e-06
1.41455e-06
2.66488e-06
1.14345e-06
1.76351e-06
1.7638e-06
2.66479e-06
1.76355e-06
1.76378e-06
1.33491e-07
2.30102e-07
2.30136e-07
3.57742e-07
3.51474e-07
2.27889e-07
2.27898e-07
3.51343e-07
2.27834e-07
2.27908e-07
2.27787e-07
2.27864e-07
3.52154e-07
2.27819e-07
2.27816e-07
3.51309e-07
3.57553e-07
3.77166e-07
2.30161e-07
2.30213e-07
2.37948e-07
2.37953e-07
3.57366e-07
3.76661e-07
2.30185e-07
2.30221e-07
2.37855e-07
2.37959e-07
2.30176e-07
2.37828e-07
2.37913e-07
3.56958e-07
3.77476e-07
2.3013e-07
2.37863e-07
2.37864e-07
3.76714e-07
1.34162e-07
1.34156e-07
1.34165e-07
1.34159e-07
3.68095e-06
8.90945e-06
3.65233e-06
8.91411e-06
1.84693e-05
1.84613e-05
3.6814e-06
8.91095e-06
3.65253e-06
8.91629e-06
1.33485e-07
1.33492e-07
1.33486e-07
1.31788e-07
1.31784e-07
1.31793e-07
1.31787e-07
1.15751e-06
2.79821e-06
1.58234e-07
2.32548e-07
1.12972e-06
2.82282e-06
1.58442e-07
1.84709e-05
1.8463e-05
1.15784e-06
1.58238e-07
2.79954e-06
2.32582e-07
1.12951e-06
1.5845e-07
2.82169e-06
5.13706e-06
5.13895e-06
3.63709e-07
5.14667e-06
5.14864e-06
1.84753e-05
1.84837e-05
1.84774e-05
1.84857e-05
3.45851e-07
5.12799e-06
5.13012e-06
5.11717e-06
5.11877e-06
3.60327e-06
8.9083e-06
8.90334e-06
3.635e-06
3.60344e-06
8.90942e-06
8.9043e-06
3.63535e-06
1.08731e-06
2.25665e-07
2.78484e-06
1.58136e-07
2.76149e-06
1.58092e-07
1.11447e-06
1.08677e-06
2.25706e-07
2.78529e-06
1.58138e-07
2.76175e-06
1.58096e-07
1.11532e-06
1.84763e-05
1.84847e-05
3.45676e-07
5.13134e-06
5.12949e-06
5.1172e-06
5.11558e-06
1.8475e-05
1.84833e-05
3.6036e-06
8.91057e-06
8.90488e-06
3.63571e-06
1.08735e-06
2.25678e-07
2.78542e-06
1.58142e-07
2.76183e-06
1.58096e-07
1.11482e-06
3.60361e-06
8.91008e-06
8.90434e-06
3.63591e-06
1.08727e-06
2.25716e-07
1.58132e-07
2.7868e-06
1.58092e-07
2.76017e-06
1.11483e-06
1.08669e-06
2.25599e-07
2.78622e-06
1.58128e-07
2.75996e-06
1.58084e-07
1.11491e-06
3.60302e-06
8.90959e-06
8.90455e-06
3.63592e-06
1.08659e-06
2.25667e-07
1.5813e-07
2.78629e-06
1.58089e-07
2.75979e-06
1.11534e-06
3.60354e-06
8.9092e-06
8.90419e-06
3.63554e-06
1.8478e-05
1.84863e-05
3.45056e-07
5.12987e-06
5.12831e-06
5.11891e-06
5.11719e-06
1.84763e-05
1.84847e-05
1.08702e-06
2.25632e-07
1.58126e-07
2.78499e-06
1.58086e-07
2.76128e-06
1.11545e-06
1.08719e-06
2.25621e-07
1.58124e-07
2.78544e-06
1.58082e-07
2.76191e-06
1.11506e-06
3.60268e-06
8.90974e-06
8.90402e-06
3.63647e-06
3.60366e-06
8.91084e-06
8.90511e-06
3.63601e-06
3.45526e-07
5.12821e-06
5.13014e-06
5.11715e-06
5.11906e-06
1.84763e-05
1.84847e-05
1.84778e-05
1.84862e-05
1.84683e-05
1.84603e-05
1.84702e-05
1.84623e-05
5.13697e-06
5.1386e-06
3.6343e-07
5.14616e-06
5.14851e-06
1.8446e-05
1.84534e-05
1.84476e-05
1.84554e-05
3.70371e-07
5.16375e-06
5.16506e-06
5.15495e-06
5.15654e-06
3.6811e-06
8.91049e-06
3.6524e-06
8.91521e-06
1.15713e-06
2.79945e-06
1.58241e-07
2.32652e-07
1.12992e-06
2.82132e-06
1.58449e-07
1.15754e-06
2.79977e-06
1.5825e-07
2.32661e-07
1.12933e-06
2.82186e-06
1.58453e-07
3.69613e-06
8.91966e-06
8.9152e-06
3.72154e-06
3.69624e-06
8.92071e-06
8.91624e-06
3.7218e-06
1.17225e-06
2.35184e-07
2.85619e-06
1.59113e-07
2.8354e-06
1.58741e-07
1.19929e-06
1.17199e-06
2.35242e-07
2.85654e-06
1.59118e-07
2.83577e-06
1.58749e-07
1.19981e-06
5.13727e-06
5.13552e-06
3.6354e-07
5.14969e-06
5.14783e-06
1.84679e-05
1.846e-05
1.84469e-05
1.84545e-05
3.69968e-07
5.1667e-06
5.16481e-06
5.15528e-06
5.15355e-06
1.84455e-05
1.8453e-05
1.15746e-06
2.79983e-06
1.58247e-07
2.32587e-07
1.12995e-06
2.82197e-06
1.5846e-07
3.68132e-06
8.9104e-06
3.65248e-06
8.91587e-06
1.15734e-06
1.58246e-07
2.79869e-06
2.32671e-07
1.12991e-06
1.58448e-07
2.82337e-06
3.69652e-06
8.92148e-06
8.91694e-06
3.72197e-06
1.17233e-06
2.35216e-07
2.85645e-06
1.59125e-07
2.83585e-06
1.58746e-07
1.1997e-06
3.69635e-06
8.92139e-06
8.91616e-06
3.72233e-06
1.17239e-06
2.35249e-07
1.5911e-07
2.85803e-06
1.58743e-07
2.83475e-06
1.19991e-06
3.6817e-06
8.9104e-06
3.65212e-06
8.91563e-06
1.15787e-06
1.58241e-07
2.79829e-06
2.32625e-07
1.12932e-06
1.58446e-07
2.82289e-06
3.68112e-06
8.91028e-06
3.65248e-06
8.91502e-06
1.17212e-06
2.35122e-07
2.85736e-06
1.59105e-07
2.8342e-06
1.58734e-07
1.19984e-06
3.6959e-06
8.92118e-06
8.91597e-06
3.7228e-06
1.17187e-06
2.35203e-07
1.5911e-07
2.85577e-06
1.5874e-07
2.83443e-06
1.19946e-06
3.69629e-06
8.9205e-06
8.91604e-06
3.72181e-06
5.13878e-06
5.1369e-06
3.64472e-07
5.14823e-06
5.14666e-06
1.84693e-05
1.84612e-05
1.84485e-05
1.8456e-05
3.69554e-07
5.16604e-06
5.16369e-06
5.1567e-06
5.15481e-06
1.84467e-05
1.84544e-05
1.15766e-06
1.58235e-07
2.7999e-06
2.3258e-07
1.12977e-06
1.5844e-07
2.82205e-06
3.68186e-06
8.91008e-06
3.65195e-06
8.91552e-06
3.68149e-06
8.91116e-06
3.6526e-06
8.91661e-06
1.17199e-06
2.35157e-07
1.59112e-07
2.85619e-06
1.58728e-07
2.83546e-06
1.20004e-06
1.17213e-06
2.35155e-07
1.59105e-07
2.85669e-06
1.58734e-07
2.8359e-06
1.19996e-06
3.69612e-06
8.92101e-06
8.91582e-06
3.72219e-06
3.69648e-06
8.92212e-06
8.91691e-06
3.72223e-06
1.84693e-05
1.84612e-05
1.84708e-05
1.84628e-05
3.70208e-07
5.1637e-06
5.16564e-06
5.15488e-06
5.15678e-06
1.84467e-05
1.84544e-05
1.84483e-05
1.8456e-05
1.21312e-05
3.6749e-06
1.06757e-05
4.49136e-06
1.06723e-05
4.48641e-06
1.21342e-05
2.24357e-05
7.21534e-06
8.91125e-06
2.24341e-05
7.21491e-06
1.21309e-05
3.65883e-06
1.0667e-05
4.47099e-06
1.21279e-05
1.06703e-05
4.47636e-06
2.24245e-05
7.21626e-06
8.91236e-06
7.21691e-06
2.24261e-05
1.84687e-05
1.84618e-05
1.21315e-05
3.6751e-06
4.492e-06
1.06762e-05
4.48696e-06
1.06727e-05
1.21345e-05
2.24362e-05
7.21732e-06
8.91353e-06
2.24348e-05
7.21696e-06
1.21312e-05
3.65909e-06
4.47136e-06
1.06674e-05
1.21281e-05
4.47667e-06
1.06708e-05
2.24252e-05
7.21829e-06
8.91388e-06
7.21885e-06
2.24265e-05
1.84704e-05
1.84634e-05
9.73123e-06
2.19131e-05
2.19125e-05
2.19128e-05
2.19122e-05
9.72952e-06
3.96219e-06
1.92668e-06
9.03739e-06
5.13766e-06
3.95866e-06
1.93363e-06
9.04291e-06
3.97027e-06
1.92872e-06
9.04254e-06
5.1396e-06
3.96423e-06
1.93488e-06
9.04733e-06
9.72905e-06
2.19229e-05
2.19222e-05
9.73061e-06
2.19231e-05
2.19225e-05
3.97489e-06
9.05017e-06
5.14619e-06
1.95445e-06
1.94825e-06
9.04478e-06
3.97828e-06
3.98071e-06
9.0546e-06
5.1481e-06
1.95596e-06
1.95005e-06
9.04997e-06
3.98633e-06
1.84759e-05
1.84831e-05
1.8478e-05
1.84851e-05
9.72702e-06
2.19424e-05
2.19425e-05
9.72836e-06
2.19426e-05
2.19428e-05
3.94041e-06
1.91212e-06
5.12761e-06
9.03499e-06
9.02941e-06
1.9046e-06
3.94625e-06
3.94782e-06
1.91364e-06
5.12918e-06
9.04046e-06
9.03473e-06
1.90645e-06
3.95181e-06
3.92917e-06
9.02136e-06
1.88218e-06
5.11781e-06
3.92252e-06
9.02725e-06
1.89008e-06
3.93589e-06
9.0268e-06
1.88447e-06
5.11998e-06
3.92963e-06
9.03273e-06
1.89158e-06
9.72948e-06
2.19325e-05
2.19327e-05
2.19322e-05
2.19323e-05
9.72799e-06
1.21241e-05
1.06571e-05
4.43729e-06
3.61048e-06
1.21209e-05
1.06602e-05
4.44225e-06
2.24436e-05
8.90646e-06
7.21307e-06
2.24453e-05
7.21335e-06
2.24549e-05
7.21087e-06
8.90524e-06
2.24532e-05
7.21064e-06
1.21244e-05
3.62852e-06
1.06651e-05
4.45998e-06
1.21275e-05
1.06619e-05
4.45471e-06
1.21244e-05
1.06573e-05
4.43715e-06
3.61097e-06
1.21212e-05
1.06604e-05
4.44322e-06
2.24448e-05
8.90748e-06
7.21541e-06
7.21549e-06
2.24462e-05
2.24559e-05
7.213e-06
8.90654e-06
2.24544e-05
7.21312e-06
1.21247e-05
3.62859e-06
1.06654e-05
4.46077e-06
1.06622e-05
4.45484e-06
1.21278e-05
1.84769e-05
1.84841e-05
9.72688e-06
2.19421e-05
2.19428e-05
9.72818e-06
2.19423e-05
2.1943e-05
3.94811e-06
1.91308e-06
5.12775e-06
9.03973e-06
1.90689e-06
9.03475e-06
3.95329e-06
3.94026e-06
1.9122e-06
5.12603e-06
9.03508e-06
9.0301e-06
1.90435e-06
3.94622e-06
3.93441e-06
9.02681e-06
1.88466e-06
5.12118e-06
1.89106e-06
3.93038e-06
9.03196e-06
3.92906e-06
9.02219e-06
1.88226e-06
5.11933e-06
3.92239e-06
9.02733e-06
1.89003e-06
9.72932e-06
2.19322e-05
2.19329e-05
2.19319e-05
2.19326e-05
9.72785e-06
1.84756e-05
1.84827e-05
1.21243e-05
4.43771e-06
1.06575e-05
3.61119e-06
1.21211e-05
4.44276e-06
1.06606e-05
2.24444e-05
8.90799e-06
7.21513e-06
2.24458e-05
7.21534e-06
2.24554e-05
7.21289e-06
8.90759e-06
2.2454e-05
7.21275e-06
1.21247e-05
3.62857e-06
4.4606e-06
1.06656e-05
1.21278e-05
4.45509e-06
1.06623e-05
1.21245e-05
1.06573e-05
4.43766e-06
3.61087e-06
1.21213e-05
1.06605e-05
4.44251e-06
2.24442e-05
8.90746e-06
7.21349e-06
7.21376e-06
2.24459e-05
2.24555e-05
7.21125e-06
8.90706e-06
2.24538e-05
7.2111e-06
1.21249e-05
3.62856e-06
1.06655e-05
4.46002e-06
1.06622e-05
4.45514e-06
1.2128e-05
1.21239e-05
4.43683e-06
1.06567e-05
3.61166e-06
1.21207e-05
4.44321e-06
1.06609e-05
2.24436e-05
8.90764e-06
7.21472e-06
7.21481e-06
2.24451e-05
2.24547e-05
7.21234e-06
8.90649e-06
2.24532e-05
7.21244e-06
1.21242e-05
3.62807e-06
4.46036e-06
1.0666e-05
4.45455e-06
1.06613e-05
1.21273e-05
1.21242e-05
1.06571e-05
4.43668e-06
3.61083e-06
1.2121e-05
1.06603e-05
4.44298e-06
2.24438e-05
8.90727e-06
7.21306e-06
7.21318e-06
2.24452e-05
2.24548e-05
7.21075e-06
8.90614e-06
2.24534e-05
7.21079e-06
1.21245e-05
3.62863e-06
1.06653e-05
4.46028e-06
1.0662e-05
4.4545e-06
1.21277e-05
1.84785e-05
1.84857e-05
9.7278e-06
2.19433e-05
2.19435e-05
9.7291e-06
2.19436e-05
2.19437e-05
3.9487e-06
1.91375e-06
5.12939e-06
9.0403e-06
1.90649e-06
9.0346e-06
3.95249e-06
3.94172e-06
1.91221e-06
5.12754e-06
9.03535e-06
9.02968e-06
1.90487e-06
3.94545e-06
3.93481e-06
9.02668e-06
1.88417e-06
5.11968e-06
1.89169e-06
3.93086e-06
9.03255e-06
3.92776e-06
9.02176e-06
1.88239e-06
5.11823e-06
3.92395e-06
9.02761e-06
1.89006e-06
9.73025e-06
2.19334e-05
2.19335e-05
2.19332e-05
2.19333e-05
9.72877e-06
1.84769e-05
1.8484e-05
1.21242e-05
4.43684e-06
1.06568e-05
3.6117e-06
1.2121e-05
4.44301e-06
1.06611e-05
2.24439e-05
8.90713e-06
7.21303e-06
7.21315e-06
2.24453e-05
2.24549e-05
7.21072e-06
8.9067e-06
2.24534e-05
7.21076e-06
1.21245e-05
3.62809e-06
4.45994e-06
1.06662e-05
4.4545e-06
1.06614e-05
1.21276e-05
1.21241e-05
4.43771e-06
1.06575e-05
3.61128e-06
1.2121e-05
4.44286e-06
1.06607e-05
2.2444e-05
8.90822e-06
7.21514e-06
7.21522e-06
2.24454e-05
2.2455e-05
7.21279e-06
8.9078e-06
2.24536e-05
7.21287e-06
1.21245e-05
3.62872e-06
4.46022e-06
1.06656e-05
4.45529e-06
1.06624e-05
1.21276e-05
9.72737e-06
2.19431e-05
2.19425e-05
9.72862e-06
2.19434e-05
2.19428e-05
3.94152e-06
1.91229e-06
5.12749e-06
9.03546e-06
3.94535e-06
1.90482e-06
9.02978e-06
3.94736e-06
1.91324e-06
5.12939e-06
9.03983e-06
3.95319e-06
1.90701e-06
9.03487e-06
3.92767e-06
9.02185e-06
1.88227e-06
5.11833e-06
3.92378e-06
1.8899e-06
9.02771e-06
3.93608e-06
9.02694e-06
1.88478e-06
5.12027e-06
3.92947e-06
1.89105e-06
9.03208e-06
9.72975e-06
2.19332e-05
2.19326e-05
9.72834e-06
2.19329e-05
2.19323e-05
1.84769e-05
1.8484e-05
1.84784e-05
1.84855e-05
1.84677e-05
1.84608e-05
1.84697e-05
1.84627e-05
9.73093e-06
2.19124e-05
2.19126e-05
2.19121e-05
2.19122e-05
9.72914e-06
3.96335e-06
1.92656e-06
9.03702e-06
5.13719e-06
3.95739e-06
9.04246e-06
1.93363e-06
3.96897e-06
1.92842e-06
9.04235e-06
5.1394e-06
3.96547e-06
9.04794e-06
1.93482e-06
9.72869e-06
2.19221e-05
2.19222e-05
9.73034e-06
2.19224e-05
2.19226e-05
3.9737e-06
9.04973e-06
5.14626e-06
1.9548e-06
9.0444e-06
3.97928e-06
1.94794e-06
3.9818e-06
9.05519e-06
5.14789e-06
1.95594e-06
9.04977e-06
3.98519e-06
1.94998e-06
1.84461e-05
1.84529e-05
1.84483e-05
1.8455e-05
9.72934e-06
2.19022e-05
2.19022e-05
9.73128e-06
2.19027e-05
2.19022e-05
4.00388e-06
1.99649e-06
5.16317e-06
9.06462e-06
9.05871e-06
1.98888e-06
4.0116e-06
4.01412e-06
1.99562e-06
5.1655e-06
9.06789e-06
9.06358e-06
1.99188e-06
4.01344e-06
3.9946e-06
9.05153e-06
1.96891e-06
5.1552e-06
3.98955e-06
9.05692e-06
1.97537e-06
4.00003e-06
9.05694e-06
1.97087e-06
5.15719e-06
3.99762e-06
9.06203e-06
1.97659e-06
9.73143e-06
2.18935e-05
2.18919e-05
2.18928e-05
2.18917e-05
9.72939e-06
1.21315e-05
3.675e-06
1.0676e-05
4.49207e-06
1.06725e-05
4.48689e-06
1.21345e-05
2.24366e-05
7.2175e-06
8.91233e-06
2.24352e-05
7.2172e-06
1.21312e-05
3.65919e-06
1.06673e-05
4.47133e-06
1.06706e-05
1.21281e-05
4.47662e-06
2.24256e-05
7.21854e-06
8.91341e-06
7.21906e-06
2.24269e-05
1.21375e-05
1.06777e-05
4.5011e-06
3.70203e-06
1.21345e-05
1.06811e-05
4.50583e-06
2.24055e-05
8.91794e-06
7.21766e-06
7.21874e-06
2.24069e-05
2.24166e-05
7.21806e-06
8.91688e-06
2.24149e-05
7.2172e-06
1.21376e-05
3.7164e-06
1.06865e-05
4.51897e-06
1.0683e-05
4.51462e-06
1.21405e-05
1.21376e-05
1.06779e-05
4.5015e-06
3.70218e-06
1.21347e-05
1.06813e-05
4.50597e-06
2.24063e-05
8.91901e-06
7.21996e-06
7.22088e-06
2.24075e-05
2.24172e-05
7.22018e-06
8.91799e-06
2.2416e-05
7.21945e-06
1.21378e-05
3.71652e-06
1.06867e-05
4.51889e-06
1.06833e-05
4.51531e-06
1.21406e-05
9.73074e-06
2.1912e-05
2.19127e-05
2.19118e-05
2.19124e-05
9.72903e-06
3.97003e-06
1.92854e-06
9.04245e-06
5.14059e-06
9.04723e-06
3.96412e-06
1.93526e-06
3.96325e-06
1.92637e-06
9.03782e-06
5.13872e-06
1.93387e-06
3.95722e-06
9.04256e-06
9.72856e-06
2.19218e-05
2.19225e-05
2.19221e-05
9.73016e-06
2.19228e-05
3.98064e-06
9.05446e-06
5.14645e-06
1.95621e-06
9.04984e-06
1.94952e-06
3.98607e-06
3.97353e-06
9.04979e-06
5.14472e-06
1.95484e-06
1.94763e-06
9.04516e-06
3.97923e-06
1.84674e-05
1.84604e-05
1.84473e-05
1.8454e-05
9.72927e-06
2.19018e-05
2.19025e-05
9.73112e-06
2.19021e-05
2.19028e-05
4.01247e-06
1.9971e-06
5.16376e-06
9.06824e-06
1.99077e-06
9.06392e-06
4.01536e-06
4.00445e-06
1.99555e-06
5.16213e-06
9.06357e-06
9.05922e-06
1.98902e-06
4.00977e-06
4.00015e-06
9.05703e-06
1.97049e-06
5.15821e-06
1.97694e-06
3.9967e-06
9.06143e-06
3.99488e-06
9.05231e-06
1.96866e-06
5.15634e-06
3.98931e-06
9.05678e-06
1.97534e-06
9.73127e-06
2.18923e-05
2.1893e-05
2.1892e-05
2.18927e-05
9.7293e-06
1.84458e-05
1.84526e-05
1.21317e-05
3.67497e-06
1.0676e-05
4.49131e-06
1.06726e-05
4.48723e-06
1.21346e-05
2.24363e-05
7.21576e-06
8.91298e-06
2.24346e-05
7.21531e-06
1.21314e-05
3.65902e-06
1.06673e-05
4.47176e-06
1.06707e-05
1.21283e-05
4.476e-06
2.2425e-05
7.21665e-06
8.91334e-06
7.21732e-06
2.24266e-05
1.21376e-05
4.50144e-06
1.06781e-05
3.70205e-06
1.21347e-05
4.50618e-06
1.06815e-05
2.24059e-05
8.91981e-06
7.21969e-06
7.22064e-06
2.24071e-05
2.24168e-05
7.21996e-06
8.91896e-06
2.24155e-05
7.21919e-06
1.21378e-05
3.71662e-06
4.51941e-06
1.0687e-05
4.515e-06
1.06835e-05
1.21406e-05
1.21378e-05
1.0678e-05
4.50185e-06
3.7027e-06
1.21349e-05
1.06814e-05
4.50542e-06
2.24056e-05
8.91896e-06
7.21808e-06
7.21915e-06
2.24072e-05
2.24169e-05
7.21844e-06
8.91866e-06
2.24153e-05
7.21757e-06
1.2138e-05
3.71603e-06
1.06868e-05
4.51882e-06
1.06833e-05
4.51546e-06
1.21408e-05
1.2131e-05
3.67444e-06
4.4917e-06
1.06767e-05
4.4866e-06
1.06718e-05
1.2134e-05
2.24355e-05
7.21681e-06
8.91269e-06
7.21653e-06
2.2434e-05
1.21307e-05
3.65951e-06
4.47118e-06
1.06664e-05
4.47644e-06
1.21276e-05
1.06713e-05
2.24244e-05
7.21787e-06
8.91307e-06
7.21837e-06
2.24258e-05
1.21313e-05
3.67498e-06
1.06758e-05
4.49102e-06
1.06724e-05
4.48675e-06
1.21343e-05
2.24356e-05
7.21518e-06
8.91214e-06
2.24342e-05
7.21486e-06
1.2131e-05
3.65889e-06
1.06671e-05
4.4711e-06
1.2128e-05
1.06704e-05
4.47614e-06
2.24245e-05
7.21621e-06
8.91319e-06
7.21674e-06
2.24259e-05
1.21372e-05
4.50137e-06
1.06771e-05
3.70268e-06
1.21342e-05
4.50532e-06
1.0682e-05
2.24051e-05
8.91877e-06
7.21926e-06
7.22016e-06
2.24063e-05
2.24161e-05
7.21948e-06
8.91845e-06
2.24148e-05
7.21877e-06
1.21374e-05
3.716e-06
4.51878e-06
1.06875e-05
4.51523e-06
1.06825e-05
1.21402e-05
1.21375e-05
1.06778e-05
4.50151e-06
3.70209e-06
1.21346e-05
1.06812e-05
4.50536e-06
2.24052e-05
8.9188e-06
7.21763e-06
7.21856e-06
2.24064e-05
2.24162e-05
7.21786e-06
8.91778e-06
2.24149e-05
7.21712e-06
1.21377e-05
3.71652e-06
1.06866e-05
4.51865e-06
1.06831e-05
4.51517e-06
1.21405e-05
9.73165e-06
2.19133e-05
2.19134e-05
2.1913e-05
2.19131e-05
9.72994e-06
3.96921e-06
1.92849e-06
9.04223e-06
5.13913e-06
9.04778e-06
3.96573e-06
1.93488e-06
3.96218e-06
1.92681e-06
9.03732e-06
5.13756e-06
1.93317e-06
3.95876e-06
9.04282e-06
9.72948e-06
2.19231e-05
2.19232e-05
2.19234e-05
9.73105e-06
2.19235e-05
3.98211e-06
9.05503e-06
5.14803e-06
1.95592e-06
9.04964e-06
1.95011e-06
3.98536e-06
3.97512e-06
9.05014e-06
5.14615e-06
1.95462e-06
1.94842e-06
9.04471e-06
3.97839e-06
1.84687e-05
1.84618e-05
1.84489e-05
1.84557e-05
9.73016e-06
2.19031e-05
2.19032e-05
9.732e-06
2.19034e-05
2.19035e-05
4.01295e-06
1.99698e-06
5.16551e-06
9.06883e-06
1.99145e-06
9.06375e-06
4.01575e-06
4.00594e-06
1.99543e-06
5.16353e-06
9.06392e-06
9.05882e-06
1.98973e-06
4.00884e-06
4.00071e-06
9.05679e-06
1.97102e-06
5.15708e-06
1.9768e-06
3.99776e-06
9.06205e-06
3.9938e-06
9.05188e-06
1.96928e-06
5.15538e-06
3.99075e-06
9.05715e-06
1.97528e-06
9.73214e-06
2.18936e-05
2.18937e-05
2.18932e-05
2.18934e-05
9.73018e-06
1.84472e-05
1.84539e-05
1.21313e-05
3.67448e-06
4.49143e-06
1.06768e-05
4.4866e-06
1.06718e-05
1.21343e-05
2.24356e-05
7.21515e-06
8.91264e-06
7.21483e-06
2.24342e-05
1.2131e-05
3.65962e-06
4.47125e-06
1.06665e-05
4.4763e-06
1.21279e-05
1.06714e-05
2.24246e-05
7.21617e-06
8.91299e-06
7.2167e-06
2.2426e-05
1.21313e-05
3.67515e-06
4.49192e-06
1.06762e-05
4.48725e-06
1.06727e-05
1.21343e-05
2.24357e-05
7.21721e-06
8.91374e-06
2.24343e-05
7.21692e-06
1.2131e-05
3.65935e-06
4.47189e-06
1.06675e-05
1.21279e-05
4.4764e-06
1.06708e-05
2.24247e-05
7.21825e-06
8.91409e-06
7.21875e-06
2.2426e-05
1.21374e-05
4.50135e-06
1.06772e-05
3.7021e-06
1.21345e-05
4.50528e-06
1.06821e-05
2.24053e-05
8.91862e-06
7.2176e-06
7.21852e-06
2.24065e-05
2.24163e-05
7.21782e-06
8.91831e-06
2.2415e-05
7.21708e-06
1.21376e-05
3.71653e-06
4.5188e-06
1.06876e-05
4.51513e-06
1.06826e-05
1.21404e-05
1.21374e-05
4.5016e-06
1.06781e-05
3.70245e-06
1.21345e-05
4.50618e-06
1.06816e-05
2.24053e-05
8.91971e-06
7.21964e-06
7.22054e-06
2.24066e-05
2.24163e-05
7.21985e-06
8.9194e-06
2.2415e-05
7.21914e-06
1.21376e-05
3.71665e-06
4.51949e-06
1.0687e-05
4.51517e-06
1.06835e-05
1.21404e-05
1.84687e-05
1.84618e-05
1.84702e-05
1.84633e-05
9.72975e-06
2.19029e-05
2.19023e-05
9.73158e-06
2.19032e-05
2.19026e-05
4.00577e-06
1.9955e-06
5.16357e-06
9.06394e-06
1.98964e-06
9.05887e-06
4.00871e-06
4.01148e-06
1.99691e-06
5.16547e-06
9.06838e-06
1.99137e-06
9.064e-06
4.01686e-06
3.99365e-06
9.05194e-06
1.96918e-06
5.15538e-06
3.99059e-06
1.97531e-06
9.05717e-06
4.002e-06
9.05708e-06
1.97096e-06
5.15736e-06
3.99641e-06
1.97677e-06
9.06158e-06
9.7317e-06
2.18934e-05
2.18928e-05
2.18931e-05
2.18925e-05
9.72977e-06
1.84472e-05
1.84539e-05
1.84488e-05
1.84555e-05
1.1759e-07
1.17587e-07
1.32874e-07
1.16486e-07
1.16485e-07
1.09884e-07
1.11177e-07
1.74012e-06
7.66995e-07
7.67344e-07
3.57511e-07
1.73399e-06
7.70293e-07
7.70498e-07
1.71077e-06
3.51543e-07
7.55147e-07
7.55558e-07
7.52015e-07
7.52352e-07
1.71809e-06
1.71094e-06
3.51472e-07
7.55676e-07
7.56039e-07
7.52229e-07
7.51059e-07
1.7173e-06
1.71124e-06
3.50977e-07
7.56551e-07
7.55429e-07
7.5142e-07
7.52088e-07
1.71746e-06
1.71135e-06
3.51614e-07
7.55356e-07
7.5556e-07
1.71771e-06
7.51993e-07
7.52305e-07
1.74116e-06
7.66964e-07
7.67277e-07
3.57399e-07
1.73328e-06
7.69797e-07
7.70325e-07
1.79809e-06
3.76967e-07
8.16114e-07
8.15333e-07
8.12126e-07
8.13234e-07
1.80498e-06
1.73992e-06
7.67106e-07
7.6611e-07
3.57327e-07
7.70923e-07
1.73377e-06
7.70416e-07
1.79897e-06
3.76694e-07
8.15669e-07
8.16384e-07
8.12851e-07
8.11496e-07
1.80408e-06
1.74e-06
7.66448e-07
7.66964e-07
3.58153e-07
7.70122e-07
1.73411e-06
7.71468e-07
1.79927e-06
3.76451e-07
8.17077e-07
8.15654e-07
8.11751e-07
8.12646e-07
1.80438e-06
1.79909e-06
3.77005e-07
8.15639e-07
8.15825e-07
8.12577e-07
8.12994e-07
1.80423e-06
1.3488e-07
1.1873e-07
1.18728e-07
1.19906e-07
1.19903e-07
1.13849e-07
1.12499e-07
1.34873e-07
1.18729e-07
1.18725e-07
1.19905e-07
1.19901e-07
1.13849e-07
1.12498e-07
1.34881e-07
1.18732e-07
1.18728e-07
1.19907e-07
1.19902e-07
1.1385e-07
1.12499e-07
1.34874e-07
1.18729e-07
1.18725e-07
1.19905e-07
1.19901e-07
1.13849e-07
1.12499e-07
1.1759e-07
1.17585e-07
1.3287e-07
1.16486e-07
1.16481e-07
1.09884e-07
1.11177e-07
1.17592e-07
1.17587e-07
1.32878e-07
1.16488e-07
1.16484e-07
1.09885e-07
1.11178e-07
1.1759e-07
1.17585e-07
1.32872e-07
1.16486e-07
1.16482e-07
1.09884e-07
1.11177e-07
1.32304e-07
1.14385e-07
1.14383e-07
1.15418e-07
1.15415e-07
1.08619e-07
1.07382e-07
1.32298e-07
1.14385e-07
1.1438e-07
1.15418e-07
1.15413e-07
1.08619e-07
1.07382e-07
1.32306e-07
1.14387e-07
1.14383e-07
1.1542e-07
1.15414e-07
1.0862e-07
1.07383e-07
1.323e-07
1.14385e-07
1.14381e-07
1.15418e-07
1.15414e-07
1.0862e-07
1.07382e-07
4.76052e-07
1.15077e-06
1.47517e-06
3.88988e-07
1.46838e-06
3.86674e-07
4.78861e-07
6.55705e-07
1.00003e-06
2.07471e-06
2.80477e-06
6.54728e-07
1.00575e-06
2.08128e-06
4.69859e-07
1.13631e-06
1.44643e-06
3.79566e-07
4.67164e-07
1.4534e-06
3.81847e-07
6.66268e-07
2.10179e-06
2.81655e-06
1.02276e-06
1.01702e-06
2.09561e-06
6.67391e-07
4.7713e-07
1.15062e-06
3.8821e-07
1.47497e-06
3.87307e-07
1.46886e-06
4.77514e-07
6.55654e-07
1.00016e-06
2.07466e-06
2.80362e-06
6.54647e-07
1.00557e-06
2.08075e-06
4.68623e-07
1.13668e-06
3.80174e-07
1.44694e-06
4.68364e-07
3.81076e-07
1.45286e-06
6.66199e-07
2.10165e-06
2.81779e-06
1.02341e-06
1.01721e-06
2.0955e-06
6.67339e-07
1.75614e-06
3.63814e-07
7.85353e-07
7.85629e-07
7.82167e-07
7.82519e-07
1.76199e-06
1.69603e-06
3.45816e-07
7.37093e-07
7.37521e-07
1.6876e-06
7.40169e-07
7.40615e-07
4.51712e-07
1.40203e-06
3.66105e-07
1.09324e-06
4.51496e-07
1.40848e-06
3.68208e-07
6.43054e-07
9.87678e-07
2.78091e-06
2.05906e-06
9.84132e-07
2.05402e-06
6.43978e-07
6.32428e-07
2.03239e-06
9.67119e-07
2.76571e-06
9.70818e-07
6.31515e-07
2.0375e-06
4.59599e-07
1.10861e-06
1.43052e-06
3.74899e-07
1.42449e-06
3.72813e-07
4.59952e-07
4.52796e-07
1.40184e-06
3.66738e-07
1.09404e-06
4.5001e-07
1.409e-06
3.67525e-07
6.43196e-07