/*--------------------------------*- C++ -*----------------------------------*\
| =========                 |                                                 |
| \\      /  F ield         | OpenFOAM: The Open Source CFD Toolbox           |
|  \\    /   O peration     | Version:  v1906                                 |
|   \\  /    A nd           | Web:      www.OpenFOAM.com                      |
|    \\/     M anipulation  |                                                 |
\*---------------------------------------------------------------------------*/
FoamFile
{
    version     2.0;
    format      ascii;
    class       volScalarField;
    location    "750";
    object      epsilon;
}
// * * * * * * * * * * * * * * * * * * * * * * * * * * * * * * * * * * * * * //

dimensions      [0 2 -3 0 0 0 0];


internalField   nonuniform List<scalar> 
43024
(
4.95567e-07
4.9733e-07
4.9733e-07
4.99575e-07
4.45573e-07
4.53735e-07
4.53737e-07
4.6371e-07
4.03752e-07
4.18513e-07
4.18517e-07
4.39411e-07
3.68363e-07
3.88552e-07
3.88558e-07
4.17667e-07
3.38015e-07
3.62102e-07
3.6211e-07
3.96081e-07
3.11646e-07
3.38273e-07
3.38281e-07
3.74581e-07
2.88473e-07
3.16638e-07
3.16646e-07
3.5371e-07
2.67923e-07
2.97021e-07
2.97031e-07
3.34147e-07
2.4958e-07
2.7937e-07
2.79379e-07
3.16484e-07
2.33137e-07
2.63679e-07
2.63688e-07
3.01161e-07
2.18366e-07
2.49955e-07
2.49964e-07
2.88493e-07
2.0509e-07
2.38198e-07
2.38208e-07
2.78694e-07
1.93172e-07
2.28411e-07
2.28421e-07
2.71875e-07
1.82498e-07
2.206e-07
2.20611e-07
2.68161e-07
1.72979e-07
2.14772e-07
2.14785e-07
2.67641e-07
1.64541e-07
2.10937e-07
2.10952e-07
2.70491e-07
1.57121e-07
2.09106e-07
2.09125e-07
2.76695e-07
1.50668e-07
2.09295e-07
2.09318e-07
2.86281e-07
1.45137e-07
2.1155e-07
2.11577e-07
2.99232e-07
1.40492e-07
2.15886e-07
2.15917e-07
3.15611e-07
1.36703e-07
2.22326e-07
2.22361e-07
3.35367e-07
5.06417e-07
5.05584e-07
5.05582e-07
5.06417e-07
5.05583e-07
5.05582e-07
5.09649e-07
5.09649e-07
5.09649e-07
5.09649e-07
5.05584e-07
5.05584e-07
5.06418e-07
5.05584e-07
5.05583e-07
5.06418e-07
4.99575e-07
4.67237e-07
4.97331e-07
4.97335e-07
4.63713e-07
4.63721e-07
4.99575e-07
4.67235e-07
4.97335e-07
4.97336e-07
4.63718e-07
4.63724e-07
4.97332e-07
4.63709e-07
4.63714e-07
4.99575e-07
4.67241e-07
4.97334e-07
4.6371e-07
4.63719e-07
4.6724e-07
4.63709e-07
4.41426e-07
4.5374e-07
4.53748e-07
4.26738e-07
4.26747e-07
4.63708e-07
4.4142e-07
4.53744e-07
4.53751e-07
4.26739e-07
4.26751e-07
4.53741e-07
4.26729e-07
4.26741e-07
4.63711e-07
4.41431e-07
4.53744e-07
4.26734e-07
4.26741e-07
4.41429e-07
4.39407e-07
4.19283e-07
4.18522e-07
4.1853e-07
3.95676e-07
3.95682e-07
4.39405e-07
4.19275e-07
4.18522e-07
4.18535e-07
3.95672e-07
3.95689e-07
4.18525e-07
3.95663e-07
3.95679e-07
4.39413e-07
4.19289e-07
4.18523e-07
3.95669e-07
3.95673e-07
4.19287e-07
4.17662e-07
3.97645e-07
3.88566e-07
3.88571e-07
3.68461e-07
3.68466e-07
4.17656e-07
3.97636e-07
3.8856e-07
3.88578e-07
3.68452e-07
3.68473e-07
3.88569e-07
3.68444e-07
3.68464e-07
4.17669e-07
3.97651e-07
3.88562e-07
3.68452e-07
3.68454e-07
3.97649e-07
3.96076e-07
3.76085e-07
3.6212e-07
3.62124e-07
3.44033e-07
3.44036e-07
3.96069e-07
3.76076e-07
3.62109e-07
3.62131e-07
3.4402e-07
3.44043e-07
3.62123e-07
3.44013e-07
3.44036e-07
3.96082e-07
3.76091e-07
3.62111e-07
3.44022e-07
3.44021e-07
3.7609e-07
3.74575e-07
3.55111e-07
3.38293e-07
3.38295e-07
3.21875e-07
3.21876e-07
3.74568e-07
3.55101e-07
3.38279e-07
3.38303e-07
3.21858e-07
3.21884e-07
3.38296e-07
3.21853e-07
3.21877e-07
3.74581e-07
3.55117e-07
3.3828e-07
3.21862e-07
3.2186e-07
3.55116e-07
3.53704e-07
3.35395e-07
3.16659e-07
3.16661e-07
3.01763e-07
3.01764e-07
3.53696e-07
3.35385e-07
3.16643e-07
3.16668e-07
3.01745e-07
3.01771e-07
3.16662e-07
3.0174e-07
3.01765e-07
3.5371e-07
3.35401e-07
3.16644e-07
3.01749e-07
3.01746e-07
3.35401e-07
3.34141e-07
3.17533e-07
2.97044e-07
2.97045e-07
2.83623e-07
2.83623e-07
3.34134e-07
3.17523e-07
2.97026e-07
2.97053e-07
2.83603e-07
2.83631e-07
2.97047e-07
2.83599e-07
2.83625e-07
3.34148e-07
3.17539e-07
2.97027e-07
2.83608e-07
2.83604e-07
3.17539e-07
3.16478e-07
3.01975e-07
2.79394e-07
2.79394e-07
2.67442e-07
2.67442e-07
3.1647e-07
3.01964e-07
2.79374e-07
2.79402e-07
2.67421e-07
2.67449e-07
2.79396e-07
2.67417e-07
2.67443e-07
3.16485e-07
3.01981e-07
2.79375e-07
2.67426e-07
2.67421e-07
3.01981e-07
3.01154e-07
2.89041e-07
2.63704e-07
2.63704e-07
2.53227e-07
2.53227e-07
3.01146e-07
2.89029e-07
2.63682e-07
2.63711e-07
2.53204e-07
2.53234e-07
2.63705e-07
2.532e-07
2.53228e-07
3.01162e-07
2.89047e-07
2.63683e-07
2.5321e-07
2.53205e-07
2.89046e-07
2.88486e-07
2.7895e-07
2.49981e-07
2.49981e-07
2.40981e-07
2.4098e-07
2.88477e-07
2.78938e-07
2.49958e-07
2.49989e-07
2.40956e-07
2.40988e-07
2.49982e-07
2.40952e-07
2.4098e-07
2.88493e-07
2.78957e-07
2.49959e-07
2.40961e-07
2.40957e-07
2.78955e-07
2.78688e-07
2.71829e-07
2.38227e-07
2.38227e-07
2.30702e-07
2.30702e-07
2.78678e-07
2.71816e-07
2.38203e-07
2.38235e-07
2.30676e-07
2.3071e-07
2.38227e-07
2.3067e-07
2.30701e-07
2.78696e-07
2.71837e-07
2.38204e-07
2.30681e-07
2.30676e-07
2.71835e-07
2.71867e-07
2.67861e-07
2.28441e-07
2.28443e-07
2.22398e-07
2.224e-07
2.71858e-07
2.67847e-07
2.28417e-07
2.28451e-07
2.22372e-07
2.22408e-07
2.28442e-07
2.22364e-07
2.22397e-07
2.71877e-07
2.67871e-07
2.28417e-07
2.22375e-07
2.22371e-07
2.67869e-07
2.68153e-07
2.66978e-07
2.20632e-07
2.20637e-07
2.16076e-07
2.1608e-07
2.68141e-07
2.66963e-07
2.20608e-07
2.20645e-07
2.16048e-07
2.16088e-07
2.20634e-07
2.16038e-07
2.16074e-07
2.68163e-07
2.6699e-07
2.20608e-07
2.1605e-07
2.16047e-07
2.66988e-07
2.67632e-07
2.69151e-07
2.1481e-07
2.14815e-07
2.11744e-07
2.11752e-07
2.67617e-07
2.69135e-07
2.14783e-07
2.14824e-07
2.11717e-07
2.11761e-07
2.14809e-07
2.11701e-07
2.11741e-07
2.67642e-07
2.69165e-07
2.14782e-07
2.11716e-07
2.11714e-07
2.69163e-07
2.70481e-07
2.7466e-07
2.10981e-07
2.10989e-07
2.09414e-07
2.09422e-07
2.70464e-07
2.74639e-07
2.10954e-07
2.10999e-07
2.09386e-07
2.09435e-07
2.10978e-07
2.09363e-07
2.09408e-07
2.70493e-07
2.74675e-07
2.1095e-07
2.09381e-07
2.0938e-07
2.74672e-07
2.76685e-07
2.83545e-07
2.09157e-07
2.09166e-07
2.09128e-07
2.09136e-07
2.76663e-07
2.8352e-07
2.0913e-07
2.09178e-07
2.091e-07
2.09153e-07
2.09152e-07
2.0907e-07
2.09121e-07
2.76697e-07
2.83562e-07
2.09123e-07
2.09092e-07
2.09091e-07
2.83558e-07
2.86271e-07
2.95813e-07
2.09354e-07
2.09363e-07
2.10851e-07
2.10857e-07
2.86242e-07
2.95783e-07
2.09327e-07
2.09381e-07
2.10821e-07
2.10881e-07
2.09347e-07
2.10784e-07
2.10841e-07
2.86283e-07
2.95832e-07
2.09318e-07
2.1081e-07
2.10811e-07
2.95827e-07
2.99219e-07
3.11501e-07
2.11616e-07
2.11626e-07
2.14675e-07
2.14684e-07
2.99188e-07
3.11467e-07
2.11588e-07
2.11649e-07
2.14644e-07
2.14709e-07
2.11607e-07
2.14599e-07
2.14662e-07
2.99235e-07
3.11522e-07
2.11577e-07
2.14628e-07
2.14632e-07
3.11517e-07
3.15596e-07
3.30565e-07
2.15962e-07
2.15975e-07
2.20595e-07
2.20616e-07
3.15561e-07
3.30527e-07
2.15933e-07
2.16e-07
2.20565e-07
2.20641e-07
2.15951e-07
2.20517e-07
2.20587e-07
3.15616e-07
3.30591e-07
2.1592e-07
2.20549e-07
2.20555e-07
3.30585e-07
3.35347e-07
2.22404e-07
2.22429e-07
3.35309e-07
2.22377e-07
2.22455e-07
2.22398e-07
3.35372e-07
2.22365e-07
5.35663e-07
5.35601e-07
5.35655e-07
5.35655e-07
5.34573e-07
5.35516e-07
5.33634e-07
5.35654e-07
5.34573e-07
5.35517e-07
5.35654e-07
5.33634e-07
5.35256e-07
5.35986e-07
5.35987e-07
1.10713e-06
3.88082e-06
9.33891e-07
4.60617e-06
1.26081e-05
1.66011e-05
1.10725e-06
3.88106e-06
9.33924e-07
4.60653e-06
4.95567e-07
4.95567e-07
4.95567e-07
4.57231e-07
4.57231e-07
4.57232e-07
4.57232e-07
5.43144e-07
1.22026e-06
4.95565e-07
4.85522e-07
5.25341e-07
1.20946e-06
4.82301e-07
1.26097e-05
1.66037e-05
5.43162e-07
4.95565e-07
1.22025e-06
4.85523e-07
5.2532e-07
4.82302e-07
1.20945e-06
2.52172e-06
2.52242e-06
4.8419e-07
2.37248e-06
2.37288e-06
1.4308e-06
5.59329e-06
1.32967e-06
6.13637e-06
2.12844e-05
2.31105e-05
1.4312e-06
5.59395e-06
1.32973e-06
6.13703e-06
4.45572e-07
4.45573e-07
4.45573e-07
4.13542e-07
4.13542e-07
4.13543e-07
4.13543e-07
5.87084e-07
1.19483e-06
4.46434e-07
4.44291e-07
5.73801e-07
1.20431e-06
4.3569e-07
2.12866e-05
2.31142e-05
5.87102e-07
4.46435e-07
1.19484e-06
4.44294e-07
5.73811e-07
4.35692e-07
1.2044e-06
2.31171e-06
2.31222e-06
4.53488e-07
2.35332e-06
2.35378e-06
1.66327e-06
6.91799e-06
1.59584e-06
7.32012e-06
2.46404e-05
2.4937e-05
1.66337e-06
6.91882e-06
1.59576e-06
7.32108e-06
4.03752e-07
4.03753e-07
4.03753e-07
3.76689e-07
3.76689e-07
3.76691e-07
3.7669e-07
6.15569e-07
1.24281e-06
4.06546e-07
4.10617e-07
6.0838e-07
1.26558e-06
3.97729e-07
2.46436e-05
2.49405e-05
6.15585e-07
4.06547e-07
1.24291e-06
4.10622e-07
6.08396e-07
3.97732e-07
1.26574e-06
2.47396e-06
2.47444e-06
4.3018e-07
2.53268e-06
2.53316e-06
1.81233e-06
7.84639e-06
1.77234e-06
8.09938e-06
2.47364e-05
2.44304e-05
1.81247e-06
7.84736e-06
1.77234e-06
8.1007e-06
3.68362e-07
3.68365e-07
3.68364e-07
3.45192e-07
3.45192e-07
3.45195e-07
3.45194e-07
6.26293e-07
1.31312e-06
3.73478e-07
3.81656e-07
6.24882e-07
1.33369e-06
3.66029e-07
2.47388e-05
2.4434e-05
6.26306e-07
3.7348e-07
1.31321e-06
3.81662e-07
6.24894e-07
3.66032e-07
1.33386e-06
2.63523e-06
2.63572e-06
4.08471e-07
2.67932e-06
2.67982e-06
1.89282e-06
8.39548e-06
1.87319e-06
8.52954e-06
2.36922e-05
2.3265e-05
1.89299e-06
8.39662e-06
1.87321e-06
8.53098e-06
3.38014e-07
3.38017e-07
3.38016e-07
3.17912e-07
3.17911e-07
3.17915e-07
3.17914e-07
6.22109e-07
1.37211e-06
3.45239e-07
3.55922e-07
6.25445e-07
1.3871e-06
3.38764e-07
2.3694e-05
2.32683e-05
6.22123e-07
3.45241e-07
1.37219e-06
3.5593e-07
6.25457e-07
3.38768e-07
1.38726e-06
2.76349e-06
2.76402e-06
3.86837e-07
2.80529e-06
2.80584e-06
1.92987e-06
8.66301e-06
1.9218e-06
8.71885e-06
2.25015e-05
2.21201e-05
1.93005e-06
8.66439e-06
1.92183e-06
8.72027e-06
3.11645e-07
3.11649e-07
3.11648e-07
2.94001e-07
2.94e-07
2.94004e-07
2.94002e-07
6.08887e-07
1.41603e-06
3.20492e-07
3.32668e-07
6.15378e-07
1.42751e-06
3.14745e-07
2.25027e-05
2.2123e-05
6.08901e-07
3.20493e-07
1.4161e-06
3.32677e-07
6.15391e-07
3.14749e-07
1.42768e-06
2.89511e-06
2.8957e-06
3.65488e-07
2.94361e-06
2.94424e-06
1.94789e-06
8.75945e-06
1.94364e-06
8.77083e-06
2.14771e-05
2.11783e-05
1.94807e-06
8.76088e-06
1.94367e-06
8.77224e-06
2.88472e-07
2.88476e-07
2.88475e-07
2.72839e-07
2.72838e-07
2.72842e-07
2.72841e-07
5.91864e-07
1.45273e-06
2.98409e-07
3.11548e-07
5.99369e-07
1.464e-06
2.93242e-07
2.14782e-05
2.11809e-05
5.91878e-07
2.98411e-07
1.4528e-06
3.11557e-07
5.99382e-07
2.93246e-07
1.46416e-06
3.04893e-06
3.04961e-06
3.45061e-07
3.10625e-06
3.10703e-06
1.9656e-06
8.76862e-06
1.95959e-06
8.76338e-06
2.0674e-05
2.04527e-05
1.96576e-06
8.77006e-06
1.95963e-06
8.7648e-06
2.67922e-07
2.67926e-07
2.67925e-07
2.53976e-07
2.53976e-07
2.5398e-07
2.53978e-07
5.75448e-07
1.49165e-06
2.785e-07
2.92425e-07
5.82273e-07
1.50547e-06
2.73825e-07
2.06753e-05
2.04548e-05
5.75465e-07
2.78501e-07
1.49171e-06
2.92434e-07
5.82287e-07
2.73829e-07
1.50563e-06
3.22609e-06
3.2269e-06
3.26206e-07
3.29162e-06
3.29256e-06
1.99555e-06
8.74923e-06
1.98438e-06
8.74308e-06
2.00717e-05
1.99104e-05
1.9957e-06
8.7507e-06
1.98439e-06
8.74455e-06
2.49579e-07
2.49583e-07
2.49581e-07
2.37082e-07
2.37081e-07
2.37086e-07
2.37084e-07
5.629e-07
1.5398e-06
2.60474e-07
2.75263e-07
5.67829e-07
1.55769e-06
2.56239e-07
2.00735e-05
1.99122e-05
5.62916e-07
2.60475e-07
1.53986e-06
2.75272e-07
5.67845e-07
2.56243e-07
1.55785e-06
3.42158e-06
3.42252e-06
3.0945e-07
3.49252e-06
3.49369e-06
2.04524e-06
8.73349e-06
2.02679e-06
8.73133e-06
1.96319e-05
1.95161e-05
2.04537e-06
8.73499e-06
2.02681e-06
8.73287e-06
2.33136e-07
2.3314e-07
2.33138e-07
2.21911e-07
2.2191e-07
2.21914e-07
2.21913e-07
5.565e-07
1.60098e-06
2.44157e-07
2.60063e-07
5.58642e-07
1.62361e-06
2.4033e-07
1.96337e-05
1.9518e-05
5.56518e-07
2.44158e-07
1.60103e-06
2.60072e-07
5.5866e-07
2.40334e-07
1.62379e-06
3.62744e-06
3.62855e-06
2.95169e-07
3.70096e-06
3.70233e-06
2.11899e-06
8.73089e-06
2.092e-06
8.73367e-06
1.93171e-05
1.92359e-05
2.11916e-06
8.73252e-06
2.09199e-06
8.73533e-06
2.18365e-07
2.18369e-07
2.18367e-07
2.08276e-07
2.08275e-07
2.08279e-07
2.08277e-07
5.57605e-07
1.67645e-06
2.29438e-07
2.4683e-07
5.56738e-07
1.70372e-06
2.25997e-07
1.93189e-05
1.92378e-05
5.57624e-07
2.29439e-07
1.67651e-06
2.46839e-07
5.56754e-07
2.26001e-07
1.70392e-06
3.8356e-06
3.83686e-06
2.83637e-07
3.90901e-06
3.91059e-06
2.21871e-06
8.74033e-06
2.18282e-06
8.74733e-06
1.9096e-05
1.904e-05
2.2189e-06
8.74207e-06
2.18285e-06
8.74908e-06
2.05089e-07
2.05093e-07
2.05092e-07
1.9603e-07
1.96029e-07
1.96033e-07
1.96031e-07
5.66945e-07
1.76536e-06
2.16237e-07
2.35565e-07
5.63101e-07
1.79676e-06
2.13166e-07
1.90978e-05
1.90418e-05
5.66971e-07
2.16238e-07
1.76546e-06
2.35575e-07
5.63124e-07
2.1317e-07
1.79694e-06
4.03853e-06
4.03995e-06
2.75008e-07
4.10926e-06
4.11101e-06
2.34378e-06
8.75828e-06
2.2994e-06
8.76717e-06
1.89422e-05
1.89036e-05
2.34439e-06
8.7601e-06
2.29928e-06
8.76898e-06
1.93171e-07
1.93175e-07
1.93173e-07
1.85053e-07
1.85052e-07
1.85056e-07
1.85055e-07
5.85869e-07
1.86568e-06
2.04494e-07
2.2627e-07
5.78753e-07
1.90031e-06
2.01779e-07
1.8944e-05
1.89054e-05
5.85899e-07
2.04495e-07
1.86578e-06
2.26281e-07
5.78782e-07
2.01783e-07
1.9005e-06
4.22968e-06
4.23123e-06
2.69469e-07
4.29525e-06
4.29714e-06
2.49196e-06
8.77938e-06
2.43872e-06
8.78839e-06
1.88344e-05
1.88075e-05
2.49252e-06
8.78125e-06
2.43845e-06
8.79025e-06
1.82497e-07
1.82501e-07
1.82499e-07
1.75253e-07
1.75252e-07
1.75256e-07
1.75254e-07
6.149e-07
1.97458e-06
1.94157e-07
2.18952e-07
6.04378e-07
2.01136e-06
1.91785e-07
1.88362e-05
1.88092e-05
6.14935e-07
1.94158e-07
1.97469e-06
2.18964e-07
6.04413e-07
1.9179e-07
2.01156e-06
4.40386e-06
4.40553e-06
2.67053e-07
4.4627e-06
4.46469e-06
2.65682e-06
8.80012e-06
2.59693e-06
8.80849e-06
1.87566e-05
1.87368e-05
2.65737e-06
8.80203e-06
2.59667e-06
8.81037e-06
1.72978e-07
1.72982e-07
1.7298e-07
1.66551e-07
1.66549e-07
1.66554e-07
1.66552e-07
6.5432e-07
2.08873e-06
1.85183e-07
2.13621e-07
6.40333e-07
2.1265e-06
1.83145e-07
1.87583e-05
1.87386e-05
6.54357e-07
1.85183e-07
2.08886e-06
2.13634e-07
6.40371e-07
1.83149e-07
2.12672e-06
4.55803e-06
4.55978e-06
2.67665e-07
4.60935e-06
4.61141e-06
2.83135e-06
8.81917e-06
2.7677e-06
8.82676e-06
1.86972e-05
1.86816e-05
2.8319e-06
8.8211e-06
2.76746e-06
8.82865e-06
1.6454e-07
1.64545e-07
1.64542e-07
1.58882e-07
1.5888e-07
1.58886e-07
1.58883e-07
7.04079e-07
2.20468e-06
1.77535e-07
2.10281e-07
6.86696e-07
2.24233e-06
1.75823e-07
1.86988e-05
1.86832e-05
7.04119e-07
1.77535e-07
2.20481e-06
2.10297e-07
6.86735e-07
1.75827e-07
2.24255e-06
4.69101e-06
4.69281e-06
2.71499e-07
4.73481e-06
4.7369e-06
3.00734e-06
8.83648e-06
2.94324e-06
8.84345e-06
1.86483e-05
1.86352e-05
3.0079e-06
8.83841e-06
2.94301e-06
8.84535e-06
1.5712e-07
1.57125e-07
1.57122e-07
1.52192e-07
1.5219e-07
1.52196e-07
1.52193e-07
7.63687e-07
2.31921e-06
1.71187e-07
2.0895e-07
7.43128e-07
2.35576e-06
1.69794e-07
1.86499e-05
1.86368e-05
7.63728e-07
1.71186e-07
2.31933e-06
2.08971e-07
7.4317e-07
1.69799e-07
2.35598e-06
4.8035e-06
4.80534e-06
2.78689e-07
4.83998e-06
4.84207e-06
3.17669e-06
8.85247e-06
3.11526e-06
8.859e-06
1.86058e-05
1.85938e-05
3.17727e-06
8.85439e-06
3.11505e-06
8.86089e-06
1.50666e-07
1.50672e-07
1.50669e-07
1.46434e-07
1.46432e-07
1.46438e-07
1.46435e-07
8.32136e-07
2.42956e-06
1.6612e-07
2.09658e-07
8.08798e-07
2.46425e-06
1.65045e-07
1.86073e-05
1.85956e-05
8.32179e-07
1.6612e-07
2.42969e-06
2.09682e-07
8.0884e-07
1.6505e-07
2.46447e-06
4.8971e-06
4.89897e-06
2.89264e-07
4.92701e-06
4.92909e-06
3.33254e-06
8.86748e-06
3.27631e-06
8.87371e-06
1.85669e-05
1.85564e-05
3.3331e-06
8.86946e-06
3.27614e-06
8.87564e-06
1.45134e-07
1.45141e-07
1.45137e-07
1.41572e-07
1.41569e-07
1.41576e-07
1.41572e-07
9.07928e-07
2.53362e-06
1.62328e-07
2.1243e-07
8.8236e-07
2.56586e-06
1.61567e-07
1.85686e-05
1.85579e-05
9.07971e-07
1.62328e-07
2.53375e-06
2.12458e-07
8.82405e-07
1.61571e-07
2.56608e-06
4.97426e-06
4.97613e-06
3.03246e-07
4.99841e-06
5.00049e-06
3.47003e-06
8.8819e-06
3.42077e-06
8.88785e-06
1.85313e-05
1.85213e-05
3.47061e-06
8.88381e-06
3.42061e-06
8.88967e-06
1.40489e-07
1.40497e-07
1.40492e-07
1.37573e-07
1.3757e-07
1.37579e-07
1.37574e-07
9.89105e-07
2.62988e-06
1.59809e-07
2.17293e-07
9.62004e-07
2.65932e-06
1.59362e-07
1.85327e-05
1.85229e-05
9.89148e-07
1.5981e-07
2.63001e-06
2.17325e-07
9.62049e-07
1.59366e-07
2.65953e-06
5.03745e-06
5.03933e-06
3.20633e-07
5.0568e-06
5.05887e-06
3.58668e-06
8.89549e-06
3.54529e-06
8.90103e-06
1.84976e-05
1.84883e-05
3.58726e-06
8.89727e-06
3.54512e-06
8.90278e-06
1.367e-07
1.36709e-07
1.36704e-07
1.07343e-06
2.7175e-06
1.58573e-07
2.24269e-07
1.04556e-06
2.744e-06
1.5844e-07
1.84994e-05
1.84903e-05
1.07347e-06
1.58575e-07
2.71759e-06
2.24303e-07
1.0456e-06
1.58444e-07
2.74421e-06
5.08911e-06
5.09099e-06
3.41359e-07
5.10455e-06
5.10661e-06
5.35256e-07
5.3599e-07
5.35988e-07
1.0916e-05
5.81346e-07
1.09173e-05
5.81338e-07
5.28206e-07
2.43128e-06
2.43221e-06
5.40833e-07
5.4083e-07
5.34573e-07
5.35517e-07
5.33635e-07
5.35654e-07
5.34573e-07
5.35517e-07
5.33634e-07
5.35655e-07
5.30398e-07
3.47217e-06
5.68207e-07
8.21115e-07
5.30398e-07
3.47219e-06
5.68206e-07
8.21079e-07
5.29522e-07
5.2838e-07
1.1669e-06
5.09601e-07
5.32664e-07
5.28352e-07
5.19211e-07
5.29522e-07
5.2838e-07
1.16705e-06
5.09601e-07
5.32664e-07
5.28352e-07
5.19213e-07
5.35256e-07
5.35989e-07
5.35988e-07
1.09162e-05
5.81325e-07
5.28207e-07
2.43175e-06
2.4319e-06
5.40834e-07
5.4083e-07
1.09169e-05
5.81319e-07
5.34573e-07
5.35516e-07
5.33634e-07
5.35654e-07
5.34573e-07
5.35517e-07
5.35654e-07
5.33634e-07
5.30398e-07
3.47251e-06
5.68204e-07
8.21259e-07
5.29522e-07
5.2838e-07
1.16717e-06
5.09601e-07
5.32663e-07
5.28352e-07
5.19219e-07
5.30398e-07
3.4726e-06
5.68203e-07
8.21162e-07
5.29522e-07
5.2838e-07
5.09601e-07
1.16707e-06
5.28352e-07
5.32663e-07
5.19214e-07
5.35663e-07
5.35601e-07
5.35655e-07
5.35655e-07
5.35663e-07
5.35601e-07
5.35655e-07
5.35655e-07
5.35663e-07
5.35601e-07
5.35655e-07
5.35655e-07
5.28434e-07
5.28376e-07
5.09725e-07
5.09725e-07
5.28408e-07
5.28408e-07
5.09782e-07
5.28434e-07
5.28375e-07
5.09725e-07
5.09725e-07
5.28408e-07
5.28408e-07
5.09782e-07
5.28434e-07
5.28375e-07
5.09725e-07
5.09725e-07
5.28408e-07
5.28408e-07
5.09782e-07
5.28434e-07
5.28375e-07
5.09725e-07
5.09725e-07
5.28408e-07
5.28408e-07
5.09782e-07
5.34573e-07
5.35517e-07
5.35654e-07
5.33634e-07
5.29522e-07
5.2838e-07
1.16711e-06
5.09601e-07
5.32663e-07
5.28352e-07
5.19217e-07
5.30398e-07
3.47239e-06
5.68198e-07
8.21168e-07
5.29522e-07
5.2838e-07
5.09601e-07
1.16699e-06
5.28352e-07
5.32662e-07
5.19213e-07
5.30398e-07
3.47253e-06
5.68203e-07
8.21114e-07
5.35256e-07
5.35987e-07
5.35986e-07
1.09175e-05
5.81335e-07
5.28206e-07
2.43203e-06
2.43187e-06
5.4083e-07
5.40827e-07
1.09174e-05
5.81314e-07
5.34573e-07
5.35517e-07
5.35654e-07
5.33634e-07
5.29522e-07
5.2838e-07
5.09602e-07
1.16705e-06
5.28352e-07
5.32662e-07
5.19217e-07
5.29522e-07
5.2838e-07
5.09601e-07
1.16717e-06
5.28352e-07
5.32664e-07
5.19219e-07
5.30398e-07
3.47256e-06
5.68197e-07
8.21239e-07
5.30397e-07
3.47257e-06
5.68208e-07
8.21326e-07
5.28206e-07
2.43168e-06
2.43234e-06
5.40828e-07
5.40829e-07
1.09172e-05
5.81318e-07
1.09174e-05
5.81332e-07
1.26079e-05
1.66002e-05
1.26095e-05
1.66028e-05
2.52167e-06
2.52241e-06
4.84189e-07
2.37214e-06
2.37287e-06
2.05303e-05
1.76846e-05
2.05338e-05
1.76876e-05
4.793e-07
2.30606e-06
2.30672e-06
2.33927e-06
2.34001e-06
1.10698e-06
3.88079e-06
9.34005e-07
4.60605e-06
5.4313e-07
1.22014e-06
4.95565e-07
4.85525e-07
5.25354e-07
1.20939e-06
4.82301e-07
5.43126e-07
1.22032e-06
4.95565e-07
4.85532e-07
5.25362e-07
1.20963e-06
4.82301e-07
1.16104e-06
5.4082e-06
4.81014e-06
1.28052e-06
1.16115e-06
5.40814e-06
4.81019e-06
1.28052e-06
5.50998e-07
4.74299e-07
1.19322e-06
4.57763e-07
1.20475e-06
4.69711e-07
5.66396e-07
5.51001e-07
4.74307e-07
1.1934e-06
4.57763e-07
1.20492e-06
4.69711e-07
5.66391e-07
2.52215e-06
2.5219e-06
4.84188e-07
2.37275e-06
2.37224e-06
1.26086e-05
1.66014e-05
2.05315e-05
1.76864e-05
4.793e-07
2.30659e-06
2.30629e-06
2.33979e-06
2.33961e-06
2.05316e-05
1.76853e-05
5.43162e-07
1.22041e-06
4.95565e-07
4.85529e-07
5.25355e-07
1.20967e-06
4.82302e-07
1.1072e-06
3.88129e-06
9.33771e-07
4.60692e-06
5.43157e-07
4.95565e-07
1.22037e-06
4.85533e-07
5.25344e-07
4.82302e-07
1.20966e-06
1.16106e-06
5.40868e-06
4.81048e-06
1.28068e-06
5.51e-07
4.74305e-07
1.19342e-06
4.57763e-07
1.20493e-06
4.6971e-07
5.66412e-07
1.16105e-06
5.40921e-06
4.81091e-06
1.28067e-06
5.51e-07
4.74309e-07
4.57764e-07
1.19347e-06
4.69711e-07
1.20498e-06
5.66419e-07
1.10713e-06
3.88077e-06
9.33861e-07
4.60639e-06
5.43142e-07
4.95565e-07
1.22023e-06
4.85525e-07
5.2533e-07
4.82302e-07
1.20952e-06
1.10715e-06
3.88128e-06
9.33699e-07
4.60654e-06
5.50996e-07
4.74296e-07
1.19322e-06
4.57762e-07
1.20475e-06
4.6971e-07
5.66399e-07
1.16107e-06
5.40829e-06
4.80989e-06
1.28062e-06
5.50994e-07
4.743e-07
4.57763e-07
1.19328e-06
4.69711e-07
1.20474e-06
5.66397e-07
1.16098e-06
5.40859e-06
4.81077e-06
1.28059e-06
2.52234e-06
2.52183e-06
4.84191e-07
2.37286e-06
2.37211e-06
1.26094e-05
1.66017e-05
2.05349e-05
1.76878e-05
4.79301e-07
2.30678e-06
2.30623e-06
2.33994e-06
2.33946e-06
2.05324e-05
1.76872e-05
5.4317e-07
4.95565e-07
1.2204e-06
4.8553e-07
5.25332e-07
4.82302e-07
1.20966e-06
1.1074e-06
3.88125e-06
9.33639e-07
4.60662e-06
1.10746e-06
3.88114e-06
9.33755e-07
4.60652e-06
5.50995e-07
4.74297e-07
4.57763e-07
1.19327e-06
4.6971e-07
1.20481e-06
5.66411e-07
5.50994e-07
4.74304e-07
4.57763e-07
1.1934e-06
4.69711e-07
1.20491e-06
5.66418e-07
1.16083e-06
5.40885e-06
4.81075e-06
1.2807e-06
1.16085e-06
5.40882e-06
4.8105e-06
1.28073e-06
1.2609e-05
1.66017e-05
1.26095e-05
1.66024e-05
4.79301e-07
2.30619e-06
2.3067e-06
2.33915e-06
2.33997e-06
2.05317e-05
1.76866e-05
2.05333e-05
1.76879e-05
2.12824e-05
2.31089e-05
2.12862e-05
2.31129e-05
2.31156e-06
2.31225e-06
4.53484e-07
2.35305e-06
2.35365e-06
2.44706e-05
2.35336e-05
2.44741e-05
2.35373e-05
4.50883e-07
2.44249e-06
2.44307e-06
2.38111e-06
2.38167e-06
1.43079e-06
5.59336e-06
1.32965e-06
6.1365e-06
5.87083e-07
1.19482e-06
4.46435e-07
4.44297e-07
5.73802e-07
1.20433e-06
4.35691e-07
5.87078e-07
1.19497e-06
4.46435e-07
4.44306e-07
5.73798e-07
1.20451e-06
4.35692e-07
1.47493e-06
6.77814e-06
6.30104e-06
1.55763e-06
1.47489e-06
6.77822e-06
6.30107e-06
1.5576e-06
5.93329e-07
4.35315e-07
1.23132e-06
4.15788e-07
1.21235e-06
4.2549e-07
6.03618e-07
5.9332e-07
4.35324e-07
1.23144e-06
4.15789e-07
1.21251e-06
4.2549e-07
6.03613e-07
2.31203e-06
2.31174e-06
4.5348e-07
2.3535e-06
2.35316e-06
2.12832e-05
2.311e-05
2.44716e-05
2.35355e-05
4.50881e-07
2.44294e-06
2.44241e-06
2.38152e-06
2.38146e-06
2.44713e-05
2.35344e-05
5.87101e-07
1.19503e-06
4.46435e-07
4.443e-07
5.73817e-07
1.20451e-06
4.35692e-07
1.4312e-06
5.59427e-06
1.32973e-06
6.13778e-06
5.87103e-07
4.46436e-07
1.19504e-06
4.44309e-07
5.73819e-07
4.35693e-07
1.20458e-06
1.47467e-06
6.77883e-06
6.30183e-06
1.55789e-06
5.93343e-07
4.35318e-07
1.23145e-06
4.1579e-07
1.21252e-06
4.2549e-07
6.03633e-07
1.47467e-06
6.77962e-06
6.30217e-06
1.5579e-06
5.93349e-07
4.35328e-07
4.15791e-07
1.23151e-06
4.25492e-07
1.21265e-06
6.0364e-07
1.43097e-06
5.59324e-06
1.32963e-06
6.13658e-06
5.87088e-07
4.46435e-07
1.19486e-06
4.44299e-07
5.73804e-07
4.35692e-07
1.20444e-06
1.43085e-06
5.59394e-06
1.32973e-06
6.13703e-06
5.93324e-07
4.35309e-07
1.23124e-06
4.15787e-07
1.21237e-06
4.25489e-07
6.0362e-07
1.47479e-06
6.77836e-06
6.30098e-06
1.55767e-06
5.93328e-07
4.35318e-07
4.15789e-07
1.23137e-06
4.2549e-07
1.21244e-06
6.03623e-07
1.47482e-06
6.77892e-06
6.30175e-06
1.55769e-06
2.3123e-06
2.31148e-06
4.53489e-07
2.35376e-06
2.35319e-06
2.12849e-05
2.31112e-05
2.44755e-05
2.35385e-05
4.50886e-07
2.44313e-06
2.44261e-06
2.38207e-06
2.38128e-06
2.44723e-05
2.35363e-05
5.87099e-07
4.46435e-07
1.19496e-06
4.44303e-07
5.73809e-07
4.35692e-07
1.20454e-06
1.4312e-06
5.59401e-06
1.32972e-06
6.13721e-06
1.43107e-06
5.59388e-06
1.32971e-06
6.13717e-06
5.93341e-07
4.35311e-07
4.15789e-07
1.23134e-06
4.2549e-07
1.21241e-06
6.03638e-07
5.93338e-07
4.35318e-07
4.15789e-07
1.23146e-06
4.2549e-07
1.21254e-06
6.03636e-07
1.47465e-06
6.77894e-06
6.30178e-06
1.5579e-06
1.47468e-06
6.77903e-06
6.30183e-06
1.55791e-06
2.12848e-05
2.31114e-05
2.12865e-05
2.31129e-05
4.50885e-07
2.44269e-06
2.44316e-06
2.38133e-06
2.38178e-06
2.44726e-05
2.35365e-05
2.4474e-05
2.35381e-05
2.46394e-05
2.49361e-05
2.46423e-05
2.49391e-05
2.47403e-06
2.47431e-06
4.30176e-07
2.53246e-06
2.53308e-06
2.48375e-05
2.49381e-05
2.48402e-05
2.49408e-05
4.28476e-07
2.61088e-06
2.6115e-06
2.56085e-06
2.56116e-06
1.66324e-06
6.91797e-06
1.59581e-06
7.32032e-06
6.15566e-07
1.24289e-06
4.06547e-07
4.10628e-07
6.0838e-07
1.26565e-06
3.9773e-07
6.15561e-07
1.24295e-06
4.06548e-07
4.10635e-07
6.08375e-07
1.26579e-06
3.97731e-07
1.69464e-06
7.75898e-06
7.43355e-06
1.74774e-06
1.69461e-06
7.75933e-06
7.43353e-06
1.74771e-06
6.18842e-07
4.03022e-07
1.30099e-06
3.81227e-07
1.27831e-06
3.89301e-07
6.23022e-07
6.18837e-07
4.03029e-07
1.30115e-06
3.81228e-07
1.2784e-06
3.89302e-07
6.23018e-07
2.47423e-06
2.47401e-06
4.30168e-07
2.53298e-06
2.53235e-06
2.46395e-05
2.49364e-05
2.48384e-05
2.49388e-05
4.28472e-07
2.61141e-06
2.61071e-06
2.5611e-06
2.56078e-06
2.48376e-05
2.49381e-05
6.15589e-07
1.24297e-06
4.06548e-07
4.10626e-07
6.08402e-07
1.26581e-06
3.97732e-07
1.66337e-06
6.91915e-06
1.59576e-06
7.32178e-06
6.15591e-07
4.0655e-07
1.24309e-06
4.10641e-07
6.084e-07
3.97733e-07
1.26586e-06
1.69462e-06
7.76019e-06
7.43444e-06
1.74786e-06
6.18862e-07
4.03019e-07
1.30119e-06
3.8123e-07
1.27848e-06
3.89301e-07
6.23046e-07
1.69462e-06
7.76081e-06
7.43475e-06
1.74786e-06
6.18864e-07
4.03035e-07
3.81231e-07
1.30121e-06
3.89304e-07
1.27854e-06
6.23047e-07
1.66332e-06
6.9179e-06
1.59588e-06
7.32049e-06
6.15572e-07
4.06548e-07
1.24288e-06
4.10631e-07
6.08382e-07
3.97731e-07
1.26572e-06
1.66332e-06
6.91867e-06
1.5959e-06
7.32102e-06
6.18843e-07
4.0301e-07
1.30093e-06
3.81226e-07
1.27825e-06
3.893e-07
6.23026e-07
1.69468e-06
7.75954e-06
7.43349e-06
1.74778e-06
6.18845e-07
4.03025e-07
3.81228e-07
1.30108e-06
3.89302e-07
1.27833e-06
6.23028e-07
1.69468e-06
7.75999e-06
7.43421e-06
1.74777e-06
2.47471e-06
2.47394e-06
4.30181e-07
2.53314e-06
2.53265e-06
2.46412e-05
2.49377e-05
2.48413e-05
2.4942e-05
4.28482e-07
2.61154e-06
2.61106e-06
2.56153e-06
2.56075e-06
2.48391e-05
2.49395e-05
6.15584e-07
4.06549e-07
1.24298e-06
4.10628e-07
6.08396e-07
3.97732e-07
1.26582e-06
1.66336e-06
6.91872e-06
1.59575e-06
7.3211e-06
1.66338e-06
6.91882e-06
1.59577e-06
7.32121e-06
6.18858e-07
4.03015e-07
3.81229e-07
1.30109e-06
3.89301e-07
1.27833e-06
6.2304e-07
6.18859e-07
4.03021e-07
3.81229e-07
1.30117e-06
3.89303e-07
1.27843e-06
6.2304e-07
1.69461e-06
7.76011e-06
7.43433e-06
1.74785e-06
1.69462e-06
7.76027e-06
7.43444e-06
1.74786e-06
2.46414e-05
2.4938e-05
2.46429e-05
2.49393e-05
4.2848e-07
2.61107e-06
2.61156e-06
2.56079e-06
2.56127e-06
2.48393e-05
2.49398e-05
2.48404e-05
2.4941e-05
2.47357e-05
2.443e-05
2.47378e-05
2.44325e-05
2.63526e-06
2.63561e-06
4.08467e-07
2.67915e-06
2.67976e-06
2.38693e-05
2.42708e-05
2.38719e-05
2.4273e-05
4.06875e-07
2.74224e-06
2.74285e-06
2.7009e-06
2.70152e-06
1.81231e-06
7.84639e-06
1.77232e-06
8.09975e-06
6.26287e-07
1.31319e-06
3.7348e-07
3.81671e-07
6.24879e-07
1.33375e-06
3.6603e-07
6.26284e-07
1.31328e-06
3.73481e-07
3.81676e-07
6.24876e-07
1.33392e-06
3.66031e-07
1.83091e-06
8.35167e-06
8.16319e-06
1.85965e-06
1.8309e-06
8.3521e-06
8.16332e-06
1.85964e-06
6.26731e-07
3.74974e-07
1.36249e-06
3.51931e-07
1.34469e-06
3.58854e-07
6.25634e-07
6.26729e-07
3.74979e-07
1.36267e-06
3.51932e-07
1.34488e-06
3.58856e-07
6.25632e-07
2.63556e-06
2.63517e-06
4.08458e-07
2.67968e-06
2.67895e-06
2.47353e-05
2.44304e-05
2.38699e-05
2.42719e-05
4.06869e-07
2.74276e-06
2.742e-06
2.70148e-06
2.70106e-06
2.38701e-05
2.42707e-05
6.26314e-07
1.31332e-06
3.7348e-07
3.81664e-07
6.249e-07
1.33396e-06
3.66032e-07
1.81246e-06
7.84758e-06
1.77233e-06
8.10119e-06
6.26314e-07
3.73483e-07
1.31342e-06
3.81683e-07
6.24902e-07
3.66034e-07
1.33398e-06
1.83093e-06
8.3531e-06
8.16428e-06
1.85981e-06
6.26755e-07
3.74966e-07
1.36271e-06
3.51933e-07
1.34491e-06
3.58855e-07
6.25664e-07
1.83092e-06
8.35344e-06
8.16445e-06
1.8598e-06
6.26756e-07
3.74986e-07
3.51935e-07
1.36272e-06
3.58858e-07
1.34502e-06
6.25663e-07
1.81237e-06
7.84636e-06
1.77239e-06
8.09998e-06
6.26294e-07
3.73481e-07
1.31321e-06
3.81674e-07
6.24882e-07
3.66031e-07
1.33384e-06
1.81236e-06
7.84703e-06
1.77238e-06
8.10034e-06
6.26736e-07
3.74958e-07
1.36244e-06
3.5193e-07
1.34471e-06
3.58853e-07
6.25642e-07
1.83096e-06
8.35233e-06
8.1633e-06
1.8597e-06
6.26735e-07
3.74977e-07
3.51932e-07
1.36259e-06
3.58855e-07
1.3448e-06
6.25641e-07
1.83095e-06
8.35262e-06
8.16392e-06
1.85969e-06
2.63596e-06
2.6352e-06
4.08473e-07
2.67981e-06
2.6793e-06
2.47372e-05
2.44309e-05
2.38734e-05
2.42739e-05
4.06882e-07
2.7429e-06
2.74236e-06
2.70188e-06
2.70109e-06
2.38705e-05
2.42726e-05
6.26308e-07
3.73481e-07
1.31332e-06
3.81666e-07
6.24897e-07
3.66032e-07
1.33394e-06
1.81245e-06
7.84716e-06
1.77232e-06
8.10049e-06
1.81247e-06
7.84734e-06
1.77234e-06
8.1007e-06
6.26748e-07
3.74965e-07
3.51933e-07
1.3626e-06
3.58855e-07
1.3448e-06
6.25655e-07
6.26751e-07
3.74968e-07
3.51933e-07
1.3627e-06
3.58856e-07
1.34491e-06
6.25657e-07
1.83091e-06
8.35277e-06
8.16404e-06
1.85979e-06
1.83092e-06
8.35305e-06
8.1643e-06
1.85981e-06
2.47374e-05
2.44312e-05
2.47385e-05
2.44321e-05
4.0688e-07
2.74237e-06
2.7429e-06
2.70113e-06
2.70163e-06
2.38708e-05
2.42728e-05
2.38714e-05
2.42738e-05
2.36914e-05
2.32643e-05
2.36932e-05
2.32668e-05
2.76335e-06
2.76401e-06
3.86832e-07
2.80516e-06
2.80579e-06
2.26714e-05
2.30854e-05
2.26738e-05
2.30868e-05
3.85288e-07
2.87161e-06
2.87223e-06
2.82702e-06
2.82766e-06
1.89282e-06
8.39568e-06
1.87318e-06
8.52999e-06
6.22101e-07
1.37209e-06
3.4524e-07
3.5594e-07
6.25439e-07
1.38716e-06
3.38766e-07
6.221e-07
1.37227e-06
3.45242e-07
3.55944e-07
6.25438e-07
1.38734e-06
3.38767e-07
1.90237e-06
8.64738e-06
8.55725e-06
1.91515e-06
1.90237e-06
8.6478e-06
8.55758e-06
1.91514e-06
6.21488e-07
3.49913e-07
1.40848e-06
3.26405e-07