/*--------------------------------*- C++ -*----------------------------------*\
| =========                 |                                                 |
| \\      /  F ield         | OpenFOAM: The Open Source CFD Toolbox           |
|  \\    /   O peration     | Version:  v1906                                 |
|   \\  /    A nd           | Web:      www.OpenFOAM.com                      |
|    \\/     M anipulation  |                                                 |
\*---------------------------------------------------------------------------*/
FoamFile
{
    version     2.0;
    format      ascii;
    class       volScalarField;
    location    "750";
    object      k;
}
// * * * * * * * * * * * * * * * * * * * * * * * * * * * * * * * * * * * * * //

dimensions      [0 2 -2 0 0 0 0];


internalField   nonuniform List<scalar> 
42840
(
3.88416e-05
5.17154e-05
5.15944e-05
5.35686e-05
5.21698e-05
5.37258e-05
5.25424e-05
5.15146e-05
5.17345e-05
5.09571e-05
5.14054e-05
5.40266e-05
5.30528e-05
5.15187e-05
5.16422e-05
5.08909e-05
5.10391e-05
5.14434e-05
5.13583e-05
5.0682e-05
5.38953e-05
5.26363e-05
5.14241e-05
5.0991e-05
5.06108e-05
5.23092e-05
5.03319e-05
5.02879e-05
6.83941e-05
7.31741e-05
7.29832e-05
6.88963e-05
7.10008e-05
7.08535e-05
6.82233e-05
7.31533e-05
7.29687e-05
6.88397e-05
3.89886e-05
3.89215e-05
3.87509e-05
3.87779e-05
3.89888e-05
3.8823e-05
3.85866e-05
6.06349e-05
6.52608e-05
4.6833e-05
5.1712e-05
6.48245e-05
4.68338e-05
6.09395e-05
7.09291e-05
7.08108e-05
6.03842e-05
4.67345e-05
6.51032e-05
5.15709e-05
4.67244e-05
6.45087e-05
6.08043e-05
6.96156e-05
6.95669e-05
5.31301e-05
6.91065e-05
6.90844e-05
6.84694e-05
6.85075e-05
7.0912e-05
7.08439e-05
7.09061e-05
7.08432e-05
6.98534e-05
6.98225e-05
5.34534e-05
6.9293e-05
6.92765e-05
7.08733e-05
7.083e-05
7.08782e-05
7.08309e-05
5.33068e-05
6.85619e-05
6.85707e-05
6.90895e-05
6.90789e-05
6.8467e-05
7.33027e-05
7.304e-05
6.89404e-05
6.07426e-05
6.49684e-05
4.67982e-05
5.14877e-05
6.44003e-05
4.6799e-05
6.09837e-05
6.08425e-05
6.53092e-05
4.6881e-05
5.1734e-05
6.49019e-05
4.68892e-05
6.10356e-05
6.81213e-05
7.28659e-05
7.29293e-05
6.73732e-05
6.81818e-05
7.27993e-05
7.29525e-05
6.73952e-05
6.0447e-05
5.13586e-05
6.35088e-05
4.66055e-05
6.41612e-05
4.67644e-05
5.95767e-05
6.05378e-05
5.16746e-05
6.36954e-05
4.67287e-05
6.45903e-05
4.68642e-05
5.96287e-05
7.04382e-05
7.03878e-05
5.40059e-05
6.97748e-05
6.97325e-05
7.09915e-05
7.08533e-05
7.07746e-05
7.08069e-05
5.39376e-05
6.86578e-05
6.86597e-05
6.94877e-05
6.94584e-05
7.07825e-05
7.08091e-05
6.05453e-05
6.49243e-05
4.67808e-05
5.14836e-05
6.43469e-05
4.67737e-05
6.09573e-05
6.82515e-05
7.31969e-05
7.29519e-05
6.88732e-05
6.05894e-05
4.68267e-05
6.51865e-05
5.16207e-05
4.68209e-05
6.45516e-05
6.09853e-05
6.79586e-05
7.28635e-05
7.29181e-05
6.72504e-05
6.02487e-05
5.13297e-05
6.34751e-05
4.64826e-05
6.41111e-05
4.67152e-05
5.9406e-05
6.79767e-05
7.27799e-05
7.28805e-05
6.72361e-05
6.02818e-05
5.14908e-05
4.65298e-05
6.34259e-05
4.67638e-05
6.42551e-05
5.94059e-05
6.83107e-05
7.32739e-05
7.30304e-05
6.88335e-05
6.05072e-05
4.6727e-05
6.46928e-05
5.13643e-05
4.67176e-05
6.41781e-05
6.08791e-05
6.8222e-05
7.3112e-05
7.29698e-05
6.87685e-05
6.03615e-05
5.16458e-05
6.36817e-05
4.66408e-05
6.45297e-05
4.67998e-05
5.95662e-05
6.80633e-05
7.28195e-05
7.29514e-05
6.73882e-05
6.02468e-05
5.10986e-05
4.64318e-05
6.34492e-05
4.6657e-05
6.39708e-05
5.95014e-05
6.79872e-05
7.29156e-05
7.29353e-05
6.7358e-05
7.02068e-05
7.01668e-05
5.37742e-05
6.94524e-05
6.94452e-05
7.0933e-05
7.08231e-05
7.07848e-05
7.0779e-05
5.35907e-05
6.84393e-05
6.84838e-05
6.91843e-05
6.91877e-05
7.08028e-05
7.07944e-05
6.02999e-05
4.66677e-05
6.4602e-05
5.13185e-05
4.66467e-05
6.41066e-05
6.07491e-05
6.81265e-05
7.31857e-05
7.29698e-05
6.86664e-05
6.80689e-05
7.30898e-05
7.29693e-05
6.85776e-05
6.01309e-05
5.14377e-05
4.64073e-05
6.34687e-05
4.66584e-05
6.42314e-05
5.94123e-05
6.00604e-05
5.1006e-05
4.6263e-05
6.344e-05
4.65529e-05
6.39131e-05
5.93906e-05
6.79034e-05
7.28268e-05
7.29078e-05
6.73042e-05
6.78578e-05
7.29408e-05
7.29429e-05
6.73028e-05
7.08819e-05
7.08463e-05
7.08799e-05
7.08534e-05
5.29707e-05
6.85448e-05
6.85722e-05
6.89367e-05
6.89265e-05
7.09269e-05
7.08443e-05
7.0946e-05
7.08541e-05
4.60429e-05
6.3312e-05
5.92449e-05
7.2944e-05
6.71681e-05
6.33197e-05
7.29846e-05
7.09696e-05
7.09901e-05
7.15554e-05
7.13165e-05
7.12814e-05
6.86276e-05
7.13492e-05
7.14936e-05
7.15268e-05
7.14235e-05
7.31109e-05
7.98475e-05
7.96695e-05
7.14479e-05
7.13711e-05
7.92614e-05
7.30394e-05
7.9459e-05
7.13572e-05
7.16049e-05
6.88359e-05
7.14333e-05
7.18707e-05
7.13974e-05
7.17394e-05
7.16406e-05
7.09576e-05
7.08897e-05
7.15325e-05
7.11593e-05
7.12904e-05
6.84415e-05
7.13636e-05
7.13183e-05
7.15075e-05
7.14038e-05
7.30914e-05
7.97636e-05
7.96006e-05
7.14253e-05
7.13576e-05
7.92029e-05
7.30222e-05
7.93904e-05
7.13457e-05
7.15771e-05
6.8692e-05
7.17827e-05
7.13985e-05
7.16065e-05
7.13619e-05
7.16118e-05
7.08924e-05
7.08358e-05
9.40705e-05
7.3094e-05
7.30893e-05
7.30965e-05
7.30914e-05
9.38544e-05
7.37048e-05
6.51319e-05
6.94541e-05
7.28405e-05
6.49706e-05
7.27918e-05
7.38885e-05
7.37235e-05
6.50837e-05
6.94119e-05
7.28415e-05
6.49216e-05
7.27957e-05
7.39048e-05
7.34832e-05
7.27101e-05
6.92768e-05
6.45467e-05
6.47505e-05
7.27416e-05
7.32789e-05
7.35047e-05
7.27212e-05
6.92436e-05
6.4504e-05
6.4703e-05
7.27494e-05
7.33046e-05
9.42828e-05
7.3139e-05
7.3132e-05
7.31239e-05
7.31176e-05
9.44984e-05
7.23637e-05
6.35428e-05
7.27758e-05
6.84306e-05
7.24331e-05
6.34349e-05
7.28611e-05
7.24152e-05
6.35496e-05
7.28027e-05
6.84782e-05
7.24812e-05
6.34515e-05
7.2888e-05
9.31162e-05
7.3229e-05
7.3225e-05
9.31429e-05
7.33298e-05
7.33246e-05
7.08906e-05
7.08553e-05
7.08865e-05
7.0853e-05
9.43604e-05
7.30994e-05
7.30927e-05
7.3113e-05
7.31058e-05
9.41157e-05
7.40177e-05
6.54474e-05
6.96825e-05
7.29224e-05
7.28589e-05
6.52873e-05
7.41984e-05
7.4042e-05
6.54266e-05
6.96558e-05
7.29226e-05
7.2861e-05
6.52625e-05
7.42194e-05
7.37873e-05
7.27378e-05
6.9487e-05
6.48477e-05
7.27893e-05
7.35649e-05
6.50612e-05
7.38124e-05
7.27439e-05
6.94651e-05
6.48225e-05
7.27934e-05
7.3594e-05
6.50363e-05
9.45901e-05
7.3182e-05
7.31728e-05
7.31575e-05
7.31488e-05
9.48082e-05
7.08393e-05
7.08322e-05
7.08425e-05
7.08341e-05
9.36411e-05
7.30794e-05
7.30737e-05
9.38776e-05
7.30812e-05
7.30759e-05
7.28452e-05
6.38349e-05
6.87174e-05
7.26526e-05
7.26509e-05
6.40647e-05
7.26429e-05
7.28841e-05
6.38226e-05
6.87199e-05
7.26643e-05
7.26619e-05
6.4048e-05
7.26852e-05
7.30809e-05
7.26907e-05
6.45798e-05
6.88987e-05
7.33127e-05
7.26645e-05
6.4335e-05
7.31169e-05
7.26987e-05
6.45563e-05
6.88946e-05
7.33446e-05
7.26742e-05
6.43139e-05
9.34303e-05
7.31209e-05
7.31167e-05
7.30862e-05
7.30815e-05
9.32423e-05
7.15783e-05
7.13213e-05
7.14865e-05
6.87122e-05
7.13569e-05
7.17318e-05
7.15403e-05
7.14771e-05
7.32242e-05
8.01811e-05
8.00312e-05
7.15119e-05
7.1402e-05
7.95534e-05
7.3126e-05
7.97799e-05
7.13747e-05
7.16366e-05
6.88966e-05
7.14446e-05
7.20153e-05
7.14077e-05
7.19538e-05
7.16765e-05
7.14842e-05
7.12842e-05
7.10203e-05
6.78765e-05
7.14959e-05
7.12687e-05
7.07907e-05
7.13224e-05
7.2871e-05
7.84535e-05
7.13439e-05
7.86335e-05
7.13263e-05
7.90419e-05
7.28942e-05
7.13269e-05
7.88372e-05
7.14776e-05
6.76067e-05
7.12629e-05
7.03214e-05
7.14837e-05
7.12603e-05
7.05363e-05
7.14781e-05
7.12855e-05
7.11911e-05
6.79258e-05
7.14988e-05
7.1267e-05
7.09313e-05
7.12862e-05
7.28303e-05
7.85465e-05
7.87809e-05
7.12906e-05
7.13081e-05
7.92884e-05
7.28857e-05
7.13215e-05
7.90422e-05
7.1463e-05
6.76422e-05
7.12567e-05
7.0384e-05
7.12558e-05
7.06367e-05
7.14631e-05
9.51385e-05
7.31127e-05
7.31222e-05
7.31623e-05
7.31699e-05
9.47922e-05
7.4858e-05
6.59138e-05
7.03094e-05
7.31502e-05
7.30557e-05
6.59053e-05
7.48986e-05
7.47967e-05
6.58809e-05
7.02508e-05
7.31274e-05
6.58711e-05
7.30356e-05
7.48358e-05
7.46698e-05
7.28325e-05
7.0041e-05
6.56085e-05
7.29365e-05
6.58331e-05
7.43521e-05
7.46123e-05
7.28194e-05
6.99922e-05
6.5566e-05
6.5795e-05
7.29199e-05
7.42987e-05
9.54726e-05
7.33099e-05
7.33148e-05
7.32526e-05
7.32591e-05
9.57076e-05
7.09514e-05
7.08857e-05
7.07722e-05
7.07888e-05
9.40574e-05
7.30435e-05
7.30542e-05
9.4434e-05
7.30124e-05
7.30245e-05
7.32816e-05
6.41804e-05
6.89222e-05
7.2531e-05
6.45296e-05
7.2573e-05
7.29379e-05
7.32405e-05
6.41698e-05
6.89149e-05
7.25291e-05
7.25691e-05
6.45106e-05
7.29005e-05
7.36506e-05
7.2726e-05
6.52525e-05
6.92061e-05
6.49146e-05
7.39959e-05
7.2644e-05
7.36053e-05
7.27163e-05
6.52172e-05
6.91852e-05
7.39466e-05
7.26373e-05
6.48862e-05
9.36896e-05
7.29717e-05
7.2985e-05
7.29767e-05
7.29896e-05
9.33274e-05
7.07788e-05
7.07938e-05
7.15311e-05
7.1288e-05
7.12376e-05
6.84798e-05
7.13178e-05
7.14704e-05
7.15007e-05
7.14201e-05
7.31172e-05
7.9965e-05
7.97602e-05
7.14505e-05
7.13559e-05
7.92995e-05
7.30264e-05
7.95245e-05
7.13361e-05
7.15829e-05
6.87399e-05
7.14013e-05
7.19073e-05
7.13635e-05
7.17376e-05
7.16221e-05
7.14744e-05
7.09034e-05
7.12649e-05
6.77247e-05
7.14823e-05
7.06841e-05
7.12548e-05
7.13214e-05
7.28665e-05
7.84257e-05
7.13477e-05
7.85934e-05
7.1322e-05
7.89856e-05
7.28862e-05
7.13208e-05
7.87922e-05
7.14718e-05
6.74675e-05
7.02384e-05
7.12591e-05
7.14831e-05
7.04392e-05
7.12515e-05
7.14568e-05
7.12605e-05
7.09558e-05
6.77322e-05
7.1469e-05
7.1249e-05
7.07054e-05
7.12779e-05
7.27938e-05
7.83623e-05
7.85757e-05
7.12926e-05
7.12888e-05
7.90499e-05
7.28301e-05
7.12942e-05
7.88133e-05
7.14504e-05
6.7464e-05
7.1251e-05
7.01982e-05
7.12446e-05
7.04313e-05
7.14571e-05
7.157e-05
7.1361e-05
7.13209e-05
6.8513e-05
7.15685e-05
7.13475e-05
7.154e-05
7.14663e-05
7.32e-05
8.00693e-05
7.9902e-05
7.14963e-05
7.14017e-05
7.94694e-05
7.31085e-05
7.96744e-05
7.13803e-05
7.162e-05
6.87387e-05
7.19096e-05
7.14216e-05
7.18092e-05
7.13895e-05
7.16552e-05
7.15467e-05
7.13168e-05
7.11141e-05
6.84132e-05
7.13395e-05
7.12939e-05
7.1528e-05
7.14003e-05
7.30627e-05
7.96367e-05
7.94882e-05
7.14172e-05
7.13625e-05
7.9129e-05
7.30086e-05
7.92968e-05
7.13551e-05
7.15837e-05
6.86319e-05
7.14075e-05
7.1667e-05
7.13774e-05
7.15105e-05
7.16114e-05
7.14929e-05
7.10982e-05
7.12946e-05
6.7843e-05
7.15071e-05
7.08702e-05
7.12834e-05
7.13096e-05
7.28445e-05
7.8562e-05
7.87698e-05
7.13172e-05
7.13262e-05
7.92274e-05
7.28925e-05
7.1335e-05
7.90054e-05
7.14837e-05
6.75978e-05
7.03897e-05
7.1283e-05
7.06093e-05
7.12783e-05
7.14868e-05
7.15048e-05
7.1295e-05
7.08859e-05
6.77797e-05
7.15088e-05
7.12873e-05
7.06945e-05
7.13484e-05
7.29111e-05
7.847e-05
7.86048e-05
7.13833e-05
7.13438e-05
7.89371e-05
7.2918e-05
7.13388e-05
7.87716e-05
7.15048e-05
6.75507e-05
7.12936e-05
7.03097e-05
7.12851e-05
7.04805e-05
7.15212e-05
9.47397e-05
7.30594e-05
7.3071e-05
7.30965e-05
7.31068e-05
9.44048e-05
7.45564e-05
6.5772e-05
6.99675e-05
7.30158e-05
7.29201e-05
6.57059e-05
7.4723e-05
7.44998e-05
6.57199e-05
6.99391e-05
7.30037e-05
6.56574e-05
7.29119e-05
7.46575e-05
7.42384e-05
7.27241e-05
6.97111e-05
6.51778e-05
7.2812e-05
6.54778e-05
7.39331e-05
7.41877e-05
7.27232e-05
6.96897e-05
6.51479e-05
6.54374e-05
7.28075e-05
7.38869e-05
9.50541e-05
7.32212e-05
7.32292e-05
7.31724e-05
7.3182e-05
9.5363e-05
7.08983e-05
7.08463e-05
7.07686e-05
7.07724e-05
9.37179e-05
7.30083e-05
7.30206e-05
9.40662e-05
7.29915e-05
7.3004e-05
7.29318e-05
6.38204e-05
6.86703e-05
7.25152e-05
6.41404e-05
7.25337e-05
7.26254e-05
7.29002e-05
6.38387e-05
6.87009e-05
7.25235e-05
7.25407e-05
6.4145e-05
7.2598e-05
7.32683e-05
7.2639e-05
6.48283e-05
6.89221e-05
6.44997e-05
7.3593e-05
7.25791e-05
7.32319e-05
7.26412e-05
6.48079e-05
6.89414e-05
7.35521e-05
7.25841e-05
6.44926e-05
9.33883e-05
7.29813e-05
7.29936e-05
7.29749e-05
7.29874e-05
9.30735e-05
7.07861e-05
7.07888e-05
7.15458e-05
7.11552e-05
7.13111e-05
6.83096e-05
7.13474e-05
7.13296e-05
7.15246e-05
7.14306e-05
7.31153e-05
7.98473e-05
7.96699e-05
7.14553e-05
7.13778e-05
7.9264e-05
7.30347e-05
7.94575e-05
7.13628e-05
7.15865e-05
6.85163e-05
7.17321e-05
7.13894e-05
7.15737e-05
7.13629e-05
7.16159e-05
7.15409e-05
7.09932e-05
7.13129e-05
6.82397e-05
7.11565e-05
7.13283e-05
7.15291e-05
7.13912e-05
7.3047e-05
7.95285e-05
7.93888e-05
7.14028e-05
7.13624e-05
7.90627e-05
7.30007e-05
7.92183e-05
7.13599e-05
7.15698e-05
6.84336e-05
7.14805e-05
7.13813e-05
7.13477e-05
7.13576e-05
7.15902e-05
7.1496e-05
7.09152e-05
7.12939e-05
6.77044e-05
7.1502e-05
7.07069e-05
7.12897e-05
7.13217e-05
7.28361e-05
7.84483e-05
7.86292e-05
7.13387e-05
7.13277e-05
7.90414e-05
7.28655e-05
7.13302e-05
7.88386e-05
7.14941e-05
6.74877e-05
7.02818e-05
7.13047e-05
7.04747e-05
7.129e-05
7.15063e-05
7.15179e-05
7.07902e-05
7.12992e-05
6.76725e-05
7.15175e-05
7.06183e-05
7.12972e-05
7.13687e-05
7.29304e-05
7.84849e-05
7.86022e-05
7.1412e-05
7.13599e-05
7.88946e-05
7.29322e-05
7.13503e-05
7.87449e-05
7.15232e-05
6.74704e-05
7.02816e-05
7.13202e-05
7.04311e-05
7.12996e-05
7.15529e-05
7.08695e-05
7.08485e-05
7.08702e-05
7.08534e-05
9.34758e-05
7.30904e-05
7.30862e-05
9.36582e-05
7.3107e-05
7.31032e-05
7.26908e-05
6.37043e-05
6.86504e-05
7.27093e-05
7.25486e-05
6.38791e-05
7.26832e-05
7.27304e-05
6.37001e-05
6.86654e-05
7.27335e-05
7.25926e-05
6.38638e-05
7.27022e-05
7.28718e-05
7.26864e-05
6.43062e-05
6.87852e-05
7.30609e-05
6.40974e-05
7.26804e-05
7.29067e-05
7.27009e-05
6.42708e-05
6.87878e-05
7.30909e-05
6.40716e-05
7.26971e-05
9.33277e-05
7.31846e-05
7.31807e-05
9.32121e-05
7.31268e-05
7.31231e-05
7.0877e-05
7.08587e-05
7.08933e-05
7.08731e-05
7.14875e-05
7.83567e-05
7.30106e-05
7.14119e-05
7.82851e-05
7.16225e-05
6.70297e-05
7.1324e-05
7.01428e-05
7.15574e-05
7.13817e-05
7.0029e-05
7.30554e-05
7.10577e-05
7.10792e-05
3.17709e-05
3.17828e-05
3.8858e-05
3.18836e-05
3.18632e-05
2.27674e-05
2.25438e-05
6.56408e-05
5.94824e-05
5.9464e-05
5.34418e-05
5.93319e-05
5.93103e-05
6.58128e-05
6.40907e-05
5.79373e-05
5.79287e-05
5.20006e-05
6.42024e-05
5.7793e-05
5.77885e-05
6.59786e-05
5.973e-05
5.97285e-05
5.36689e-05
5.96289e-05
5.96211e-05
6.61433e-05
6.47599e-05
5.28292e-05
5.82989e-05
5.82846e-05
5.8562e-05
5.85471e-05
6.45198e-05
6.66222e-05
6.00849e-05
6.00763e-05
5.40225e-05
6.00767e-05
6.00857e-05
6.66256e-05
6.52957e-05
5.34109e-05
5.87611e-05
5.87544e-05
5.91254e-05
5.91161e-05
6.4926e-05
6.64244e-05
5.99483e-05
5.99288e-05
5.38801e-05
5.99105e-05
5.99296e-05
6.64711e-05
6.48822e-05
5.29912e-05
5.83553e-05
5.83575e-05
5.87024e-05
5.8699e-05
6.45443e-05
6.45417e-05
5.25434e-05
5.81037e-05
5.80893e-05
6.43614e-05
5.83124e-05
5.82936e-05
3.18168e-05
3.18033e-05
3.90344e-05
3.19509e-05
3.19176e-05
2.27705e-05
2.25291e-05
3.18326e-05
3.17834e-05
3.89314e-05
3.19049e-05
3.18438e-05
2.27955e-05
2.25952e-05
3.17413e-05
3.17175e-05
3.87479e-05
3.1811e-05
3.17615e-05
2.2747e-05
2.25578e-05
3.88467e-05
3.19137e-05
3.18704e-05
3.19181e-05
3.18808e-05
2.29219e-05
2.29937e-05
3.90335e-05
3.19941e-05
3.19493e-05
3.19961e-05
3.19532e-05
2.29422e-05
2.30269e-05
3.8915e-05
3.19025e-05
3.18378e-05
3.19172e-05
3.18528e-05
2.29221e-05
2.29707e-05
3.87139e-05
3.18141e-05
3.1749e-05
3.18247e-05
3.17654e-05
2.28711e-05
2.29224e-05
5.66424e-05
6.2399e-05
5.51732e-05
6.08262e-05
6.26017e-05
5.52752e-05
5.65303e-05
5.78353e-05
6.09108e-05
6.52291e-05
6.46756e-05
6.09061e-05
6.46501e-05
5.7845e-05
5.78251e-05
6.42871e-05
6.50796e-05
6.07412e-05
6.08761e-05
6.453e-05
5.77152e-05
5.66427e-05
6.09195e-05
6.27147e-05
5.52952e-05
6.26963e-05
5.52817e-05
5.66587e-05
5.6455e-05
5.4952e-05
6.21097e-05
6.05739e-05
5.51069e-05
6.23203e-05
5.62761e-05
5.76695e-05
6.07589e-05
6.49999e-05
6.45071e-05
6.07302e-05
6.44312e-05
5.76965e-05
5.76137e-05
6.39608e-05
6.47487e-05
6.03787e-05
6.06263e-05
6.42035e-05
5.74015e-05
5.64913e-05
6.07469e-05
5.51798e-05
6.25619e-05
5.51469e-05
6.25059e-05
5.6526e-05
6.54249e-05
5.33535e-05
5.89632e-05
5.89362e-05
5.91709e-05
5.91463e-05
6.52105e-05
6.57646e-05
5.36197e-05
5.92837e-05
5.92732e-05
6.55447e-05
5.94808e-05
5.94719e-05
6.5029e-05
5.3043e-05
5.90704e-05
5.90575e-05
6.52838e-05
5.88156e-05
5.88009e-05
5.65471e-05
6.22832e-05
5.52423e-05
6.09155e-05
6.24927e-05
5.53188e-05
5.64072e-05
5.76262e-05
6.06414e-05
6.48139e-05
6.44946e-05
6.44115e-05
6.05644e-05
5.76603e-05
5.75627e-05
6.39667e-05
6.46004e-05
6.01982e-05
6.41905e-05
6.04044e-05
5.73554e-05
5.65593e-05
6.09752e-05
6.26487e-05
5.53261e-05
6.2619e-05
5.53173e-05
5.65812e-05
5.67324e-05
6.25707e-05
5.53232e-05
6.09895e-05
6.27422e-05
5.53817e-05
5.66547e-05
5.7894e-05
6.09508e-05
6.5287e-05
6.47466e-05
6.47331e-05
6.09485e-05
5.7899e-05
5.78914e-05
6.44168e-05
6.5162e-05
6.08091e-05
6.46486e-05
5.7807e-05
6.09257e-05
5.67216e-05
6.10326e-05
6.28016e-05
5.53795e-05
6.27966e-05
5.53744e-05
5.67307e-05
5.59733e-05
6.1986e-05
5.51258e-05
6.01774e-05
5.62858e-05
6.17288e-05
5.48362e-05
5.66389e-05
5.91992e-05
6.37094e-05
6.28899e-05
5.94594e-05
6.31364e-05
5.63364e-05
5.68767e-05
6.36827e-05
5.99735e-05
6.39426e-05
5.97173e-05
5.71671e-05
6.34278e-05
5.57721e-05
5.98552e-05
6.11532e-05
5.42892e-05
6.14134e-05
5.46176e-05
5.54337e-05
5.62232e-05
6.22411e-05
5.52184e-05
6.02571e-05
5.65438e-05
6.19499e-05
5.49307e-05
5.70021e-05
5.95387e-05
6.39818e-05
6.30951e-05
6.34076e-05
5.98848e-05
5.6637e-05
5.72934e-05
6.40757e-05
6.05397e-05
6.43003e-05
5.7623e-05
6.37666e-05
6.02212e-05
5.59904e-05
5.99209e-05
6.12906e-05
5.43642e-05
6.15918e-05
5.47026e-05
5.56144e-05
6.65739e-05
5.40434e-05
6.00018e-05
5.9991e-05
6.00687e-05
6.00783e-05
6.63899e-05
6.56877e-05
5.36909e-05
5.97915e-05
5.9779e-05
5.94707e-05
6.60407e-05
5.94597e-05
5.64946e-05
6.21401e-05
5.51142e-05
6.07711e-05
6.23581e-05
5.52591e-05
5.63057e-05
5.76069e-05
6.06398e-05
6.47594e-05
6.44804e-05
6.43417e-05
6.05295e-05
5.76657e-05
5.75088e-05
6.3876e-05
6.45462e-05
6.01472e-05
6.40977e-05
6.03589e-05
5.72732e-05
5.65376e-05
6.09193e-05
6.26364e-05
5.5301e-05
6.25669e-05
5.52818e-05
5.6577e-05
5.661e-05
5.51616e-05
6.22618e-05
6.08214e-05
5.52961e-05
6.25103e-05
5.64383e-05
5.77764e-05
6.0836e-05
6.5078e-05
6.46354e-05
6.45638e-05
6.08079e-05
5.77997e-05
5.77252e-05
6.40558e-05
6.48125e-05
6.04445e-05
6.4331e-05
5.75119e-05
6.07036e-05
5.66317e-05
6.09542e-05
5.5329e-05
6.27221e-05
5.53126e-05
6.26796e-05
5.66562e-05
5.58386e-05
6.18438e-05
5.49561e-05
5.99836e-05
5.61638e-05
6.15906e-05
5.46521e-05
5.65516e-05
5.91514e-05
6.36695e-05
6.28191e-05
5.94073e-05
6.30572e-05
5.6254e-05
5.6788e-05
6.35931e-05
5.99197e-05
6.38964e-05
5.9662e-05
5.70817e-05
6.33419e-05
5.56353e-05
5.96715e-05
6.1033e-05
5.41056e-05
6.12829e-05
5.4429e-05
5.53005e-05
5.59213e-05
5.4998e-05
6.19329e-05
6.00064e-05
5.62727e-05
5.4686e-05
6.16483e-05
5.66419e-05
5.91803e-05
6.36858e-05
6.28015e-05
6.30893e-05
5.95077e-05
5.6291e-05
5.69322e-05
6.37237e-05
6.01545e-05
6.3978e-05
5.72702e-05
6.34253e-05
5.98349e-05
5.56881e-05
5.96824e-05
5.41191e-05
6.10257e-05
5.44529e-05
6.13076e-05
5.53222e-05
5.63619e-05
5.50484e-05
6.20376e-05
6.06987e-05
5.51837e-05
6.22178e-05
5.61766e-05
5.74108e-05
6.04246e-05
6.45495e-05
6.42753e-05
6.02795e-05
6.4129e-05
5.75318e-05
5.73043e-05
6.37207e-05
6.43566e-05
5.99175e-05
6.0119e-05
6.39135e-05
5.70786e-05
5.64121e-05
6.08397e-05
5.52325e-05
6.25177e-05
5.52096e-05
6.24249e-05
5.64822e-05
5.60972e-05
6.20972e-05
5.50541e-05
6.01159e-05
5.6413e-05
6.18356e-05
5.47741e-05
5.69307e-05
5.95081e-05
6.39531e-05
6.3064e-05
5.65849e-05
5.98404e-05
6.33508e-05
5.72039e-05
6.39693e-05
6.0471e-05
6.42536e-05
5.75193e-05
6.0164e-05
6.36833e-05
5.58867e-05
5.98194e-05
6.12434e-05
5.42636e-05
5.55344e-05
6.15117e-05
5.45728e-05
5.577e-05
5.4925e-05
6.17784e-05
6.0015e-05
5.60617e-05
5.46499e-05
6.15602e-05
5.64441e-05
5.90552e-05
6.36016e-05
6.2822e-05
6.30179e-05
5.92647e-05
5.61906e-05
5.66405e-05
6.34734e-05
5.97073e-05
6.37888e-05
5.69061e-05
6.3259e-05
5.9478e-05
5.55994e-05
5.97365e-05
5.41636e-05
6.10783e-05
5.44581e-05
6.12917e-05
5.53013e-05
6.62451e-05
5.3876e-05
5.96587e-05
5.96433e-05
5.98495e-05
5.98676e-05
6.59408e-05
6.52491e-05
5.32794e-05
5.937e-05
5.93574e-05
5.90424e-05
6.55923e-05
5.90335e-05
5.62205e-05
5.48613e-05
6.1877e-05
6.04711e-05
5.50262e-05
6.20447e-05
5.60252e-05
5.72972e-05
6.0345e-05
6.44612e-05
6.4131e-05
6.01951e-05
6.39934e-05
5.74389e-05
5.71855e-05
6.36071e-05
6.42753e-05
5.98321e-05
6.00322e-05
6.37899e-05
5.69606e-05
5.62796e-05
6.06605e-05
5.51377e-05
6.23583e-05
5.50769e-05
6.22471e-05
5.63884e-05
5.5819e-05
5.48203e-05
6.18254e-05
5.99052e-05
5.61398e-05
5.45444e-05
6.15838e-05
5.66134e-05
5.91938e-05
6.37061e-05
6.28424e-05
5.62926e-05
5.9499e-05
6.30953e-05
5.68733e-05
6.36605e-05
6.01052e-05
6.39776e-05
5.71852e-05
5.98052e-05
6.33968e-05
5.56219e-05
5.96376e-05
5.40657e-05
6.10517e-05
5.52941e-05
5.4354e-05
6.12901e-05
5.56279e-05
5.4734e-05
6.16367e-05
5.98495e-05
5.59114e-05
5.44668e-05
6.14376e-05
5.6364e-05
5.90211e-05
6.35759e-05
6.27885e-05
6.29633e-05
5.92145e-05
5.61313e-05
5.65423e-05
6.33779e-05
5.96296e-05
6.37462e-05
5.67948e-05
6.3181e-05
5.94119e-05
5.54728e-05
5.95985e-05
5.40179e-05
6.10062e-05
5.42893e-05
6.11953e-05
5.51977e-05
6.47569e-05
5.27136e-05
5.87537e-05
5.87276e-05
6.49742e-05
5.85212e-05
5.84971e-05
5.58262e-05
5.88806e-05
6.26259e-05
6.32195e-05
5.87333e-05
5.60172e-05
6.24892e-05
5.48874e-05
5.90582e-05
5.39559e-05
6.08434e-05
5.37056e-05
5.51296e-05
6.06821e-05
5.8864e-05
6.32417e-05
5.87318e-05
2.11976e-05
3.68992e-05
3.69018e-05
4.21274e-05
2.1964e-05
3.78087e-05
3.78109e-05
4.2851e-05
2.27449e-05
3.86882e-05
3.86908e-05
4.35482e-05
2.35432e-05
3.95441e-05
3.95464e-05
4.42234e-05
2.43466e-05
4.03672e-05
4.03694e-05
4.48709e-05
2.51634e-05
4.11687e-05
4.11713e-05
4.55001e-05
2.59769e-05
4.1935e-05
4.1936e-05
4.60999e-05
2.67845e-05
4.2669e-05
4.26721e-05
4.66746e-05
2.76012e-05
4.33884e-05
4.33903e-05
4.72382e-05
2.84055e-05
4.40665e-05
4.40664e-05
4.77688e-05
2.91924e-05
4.47144e-05
4.47188e-05
4.82748e-05
2.99738e-05
4.53493e-05
4.53492e-05
4.87711e-05
3.07291e-05
4.59353e-05
4.59345e-05
4.923e-05
3.15071e-05
4.65153e-05
4.65209e-05
4.96887e-05
3.21803e-05
4.7037e-05
4.70363e-05
5.00876e-05
3.29361e-05
4.75841e-05
4.7581e-05
5.05286e-05
3.35985e-05
4.8036e-05
4.80587e-05
5.0887e-05
3.42678e-05
4.85326e-05
4.84988e-05
5.12542e-05
3.48718e-05
4.89042e-05
4.89129e-05
5.15438e-05
3.54049e-05
4.92853e-05
4.93281e-05
5.18966e-05
3.62083e-05
4.99119e-05
4.98637e-05
5.23713e-05
3.67999e-05
5.01444e-05
5.0174e-05
5.2525e-05
3.69093e-05
5.02525e-05
5.01887e-05
5.25009e-05
3.76891e-05
5.0725e-05
5.07847e-05
5.31855e-05
3.82843e-05
5.11381e-05
5.13165e-05
5.36316e-05
4.2125e-05
4.26875e-05
3.69009e-05
3.69007e-05
3.75855e-05
3.75854e-05
4.21239e-05
4.2686e-05
3.68989e-05
3.69021e-05
3.75836e-05
3.75861e-05
3.69041e-05
3.75838e-05
3.75885e-05
4.21256e-05
4.26877e-05
3.6902e-05
3.75862e-05
3.75866e-05
4.26894e-05
4.28491e-05
4.33901e-05
3.78101e-05
3.78103e-05
3.84721e-05
3.84723e-05
4.28479e-05
4.3389e-05
3.78084e-05
3.78108e-05
3.84704e-05
3.84729e-05
3.78132e-05
3.84711e-05
3.84757e-05
4.28492e-05
4.33905e-05
3.78112e-05
3.84735e-05
3.8474e-05
4.33925e-05
4.35459e-05
4.40704e-05
3.86891e-05
3.86894e-05
3.93343e-05
3.93336e-05
4.35448e-05
4.40685e-05
3.86878e-05
3.86905e-05
3.93328e-05
3.93346e-05
3.86926e-05
3.93325e-05
3.93376e-05
4.35463e-05
4.40703e-05
3.86909e-05
3.9335e-05
3.9336e-05
4.40723e-05
4.42215e-05
4.47237e-05
3.95458e-05
3.95452e-05
4.01649e-05
4.01657e-05
4.42197e-05
4.47232e-05
3.95443e-05
3.9546e-05
4.0163e-05
4.01656e-05
3.95489e-05
4.01646e-05
4.01686e-05
4.42212e-05
4.47242e-05
3.95473e-05
4.01667e-05
4.0167e-05
4.47261e-05
4.48683e-05
4.53577e-05
4.03674e-05
4.0368e-05
4.09726e-05
4.09714e-05
4.48679e-05
4.53555e-05
4.03657e-05
4.03681e-05
4.09711e-05
4.09726e-05
4.03715e-05
4.097e-05
4.09741e-05
4.48689e-05
4.53574e-05
4.03701e-05
4.09727e-05
4.09728e-05
4.53589e-05
4.54991e-05
4.59638e-05
4.11709e-05
4.117e-05
4.17473e-05
4.17489e-05
4.5497e-05
4.59641e-05
4.11697e-05
4.11711e-05
4.17457e-05
4.17482e-05
4.11727e-05
4.17486e-05
4.17517e-05
4.54987e-05
4.59644e-05
4.11716e-05
4.17495e-05
4.175e-05
4.59667e-05
4.60969e-05
4.65417e-05
4.1935e-05
4.19357e-05
4.24866e-05
4.2486e-05
4.60973e-05
4.65398e-05
4.19334e-05
4.19346e-05
4.24851e-05
4.24869e-05
4.19385e-05
4.24853e-05
4.24897e-05
4.60974e-05
4.65417e-05
4.19368e-05
4.24884e-05
4.24888e-05
4.65438e-05
4.6672e-05
4.71106e-05
4.26689e-05
4.26692e-05
4.32112e-05
4.32127e-05
4.66705e-05
4.71109e-05
4.26678e-05
4.26703e-05
4.32107e-05
4.3214e-05
4.26738e-05
4.32119e-05
4.32136e-05
4.66726e-05
4.71121e-05
4.26728e-05
4.32141e-05
4.32128e-05
4.71128e-05
4.72372e-05
4.76496e-05
4.33896e-05
4.33896e-05
4.3903e-05
4.39011e-05
4.72369e-05
4.76462e-05
4.33891e-05
4.33904e-05
4.39002e-05
4.38984e-05
4.33903e-05
4.39009e-05
4.39054e-05
4.72376e-05
4.76452e-05
4.33895e-05
4.39007e-05
4.3904e-05
4.76503e-05
4.77673e-05
4.81566e-05
4.40671e-05
4.40669e-05
4.45551e-05
4.45555e-05
4.77648e-05
4.81575e-05
4.40648e-05
4.40646e-05
4.45543e-05
4.45571e-05
4.40699e-05
4.45547e-05
4.45578e-05
4.77638e-05
4.81604e-05
4.40684e-05
4.4558e-05
4.45564e-05
4.81592e-05
4.82719e-05
4.86544e-05
4.47136e-05
4.47144e-05
4.519e-05
4.51934e-05
4.82728e-05
4.86561e-05
4.47137e-05
4.47174e-05
4.51898e-05
4.51939e-05
4.47183e-05
4.51938e-05
4.5196e-05
4.82763e-05
4.86571e-05
4.47173e-05
4.51963e-05
4.51963e-05
4.86598e-05
4.87663e-05
4.91264e-05
4.53475e-05
4.53492e-05
4.5788e-05
4.57859e-05
4.8768e-05
4.91228e-05
4.53463e-05
4.53466e-05
4.57865e-05
4.57833e-05
4.53518e-05
4.57866e-05
4.57886e-05
4.87671e-05
4.91199e-05
4.53519e-05
4.57849e-05
4.57871e-05
4.91245e-05
4.92326e-05
4.95894e-05
4.59367e-05
4.59353e-05
4.63901e-05
4.63873e-05
4.92284e-05
4.95865e-05
4.59354e-05
4.59334e-05
4.63874e-05
4.63874e-05
4.59366e-05
4.63842e-05
4.63874e-05
4.92267e-05
4.95906e-05
4.59349e-05
4.63877e-05
4.63863e-05
4.95889e-05
4.96878e-05
4.99761e-05
4.65194e-05
4.65174e-05
4.68826e-05
4.68876e-05
4.96856e-05
4.99816e-05
4.65183e-05
4.65207e-05
4.68864e-05
4.68961e-05
4.65193e-05
4.68932e-05
4.68988e-05
4.96905e-05
4.99852e-05
4.65186e-05
4.68989e-05
4.68991e-05
4.99882e-05
5.00752e-05
5.04433e-05
4.70248e-05
4.70319e-05
4.7466e-05
4.74698e-05
5.00827e-05
5.04442e-05
4.70267e-05
4.70326e-05
4.74588e-05
4.74489e-05
4.70407e-05
4.74651e-05
4.74564e-05
5.00825e-05
5.04303e-05
4.704e-05
4.74519e-05
4.74544e-05
5.04357e-05
5.05393e-05
5.07918e-05
4.75943e-05
4.75901e-05
4.79238e-05
4.79124e-05
5.05349e-05
5.07776e-05
4.75889e-05
4.75786e-05
4.79279e-05
4.79399e-05
4.75807e-05
4.79133e-05
4.79339e-05
5.05258e-05
5.0806e-05
4.7581e-05
4.79436e-05
4.79394e-05
5.08009e-05
5.08729e-05
5.11789e-05
4.8032e-05
4.80326e-05
4.84107e-05
4.8418e-05
5.08658e-05
5.11894e-05
4.80358e-05
4.80548e-05
4.84073e-05
4.83917e-05
4.80487e-05
4.84214e-05
4.8407e-05
5.08914e-05
5.11574e-05
4.80521e-05
4.83902e-05
4.83982e-05
5.11694e-05
5.12712e-05
5.14767e-05
4.85376e-05
4.85297e-05
4.88183e-05
4.88169e-05
5.12731e-05
5.14742e-05
4.85359e-05
4.85039e-05
4.8819e-05
4.88204e-05
4.85267e-05
4.88163e-05
4.88151e-05
5.1238e-05
5.14817e-05
4.85159e-05
4.88135e-05
4.881e-05
5.14782e-05
5.15307e-05
5.17491e-05
4.88841e-05
4.89058e-05
4.91455e-05
4.91667e-05
5.1541e-05
5.1777e-05
4.88825e-05
4.89139e-05
4.91471e-05
4.91919e-05
4.88929e-05
4.917e-05
4.91875e-05
5.15574e-05
5.18057e-05
4.88926e-05
4.92177e-05
4.92071e-05
5.17941e-05
5.18607e-05
5.23327e-05
4.92877e-05
4.92825e-05
4.9803e-05
4.97665e-05
5.18686e-05
5.22846e-05
4.92899e-05
4.93028e-05
4.97923e-05
4.97309e-05
4.93176e-05
4.97601e-05
4.97597e-05
5.18927e-05
5.225e-05
4.93372e-05
4.97225e-05
4.97477e-05
5.22842e-05
5.24234e-05
5.25021e-05
4.99483e-05
4.99188e-05
5.01333e-05
5.01377e-05
5.23846e-05
5.25047e-05
4.99372e-05
4.98791e-05
5.01405e-05
5.01559e-05
4.98978e-05
5.01365e-05
5.01386e-05
5.23479e-05
5.25197e-05
4.98796e-05
5.0149e-05
5.01369e-05
5.25041e-05
5.25107e-05
5.2442e-05
5.01341e-05
5.01428e-05
5.01202e-05
5.01555e-05
5.25197e-05
5.25219e-05
5.01436e-05
5.01753e-05
5.01294e-05
5.0171e-05
5.01527e-05
5.01641e-05
5.01486e-05
5.25439e-05
5.24836e-05
5.01566e-05
5.01738e-05
5.0152e-05
5.24601e-05
5.25068e-05
5.30618e-05
5.01546e-05
5.02343e-05
5.07294e-05
5.07055e-05
5.26244e-05
5.29868e-05
5.01536e-05
5.0186e-05
5.06911e-05
5.06288e-05
5.01663e-05
5.0681e-05
5.06752e-05
5.25234e-05
5.29936e-05
5.01633e-05
5.06478e-05
5.06697e-05
5.30385e-05
5.31643e-05
5.34204e-05
5.08457e-05
5.07544e-05
5.11202e-05
5.08679e-05
5.30229e-05
5.3122e-05
5.08314e-05
5.0752e-05
5.11732e-05
5.11374e-05
5.08614e-05
5.09061e-05
5.12739e-05
5.30964e-05
5.33861e-05
5.08802e-05
5.11624e-05
5.13081e-05
5.35692e-05
5.35125e-05
5.3715e-05
5.12573e-05
5.10601e-05
5.15123e-05
5.16869e-05
5.32706e-05
5.39597e-05
5.13055e-05
5.13126e-05
5.15196e-05
5.16328e-05
5.13674e-05
5.1678e-05
5.1459e-05
5.34993e-05
5.38564e-05
5.13869e-05
5.15881e-05
5.14487e-05
5.36009e-05
6.4854e-05
7.13703e-05
7.1406e-05
6.47553e-05
6.95461e-05
6.95718e-05
6.48579e-05
7.1376e-05
7.14118e-05
6.47592e-05
2.11973e-05
2.12003e-05
2.12011e-05
2.17707e-05
2.17699e-05
2.17735e-05
2.1774e-05
5.36084e-05
6.02722e-05
2.92557e-05
3.71289e-05
6.03953e-05
2.95021e-05
5.34094e-05
6.95442e-05
6.95701e-05
5.36086e-05
2.92593e-05
6.02735e-05
3.71317e-05
2.9506e-05
6.03967e-05
5.34098e-05
6.69558e-05
6.69673e-05
4.23279e-05
6.7031e-05
6.70425e-05
6.50819e-05
7.1455e-05
6.49862e-05
7.14911e-05
6.96027e-05
6.96292e-05
6.50859e-05
7.1461e-05
6.49901e-05
7.14972e-05
2.19635e-05
2.19667e-05
2.19673e-05
2.25488e-05
2.25486e-05
2.25517e-05
2.25527e-05
5.40744e-05
6.05633e-05
3.02404e-05
3.80317e-05
5.38836e-05
6.06815e-05
3.04856e-05
6.96008e-05
6.96276e-05
5.40746e-05
3.02441e-05
6.05644e-05
3.80338e-05
5.3884e-05
3.04891e-05
6.06827e-05
6.71333e-05
6.71448e-05
4.30444e-05
6.72061e-05
6.72177e-05
6.53032e-05
7.1541e-05
6.521e-05
7.15777e-05
6.96613e-05
6.96887e-05
6.53074e-05
7.1547e-05
6.52142e-05
7.15837e-05
2.27447e-05
2.27482e-05
2.27489e-05
2.3342e-05
2.3341e-05
2.3345e-05
2.33456e-05
5.45207e-05
6.08425e-05
3.12152e-05
3.89042e-05
5.43378e-05
6.09565e-05
3.14571e-05
6.96596e-05
6.96871e-05
5.45209e-05
3.12193e-05
6.08437e-05
3.89069e-05
5.43382e-05
3.14612e-05
6.09579e-05
6.73052e-05
6.73167e-05
4.37346e-05
6.73763e-05
6.73878e-05
6.55182e-05
7.1628e-05
6.54282e-05
7.16647e-05
6.97219e-05
6.97498e-05
6.55218e-05
7.16339e-05