/*--------------------------------*- C++ -*----------------------------------*\
| =========                 |                                                 |
| \\      /  F ield         | OpenFOAM: The Open Source CFD Toolbox           |
|  \\    /   O peration     | Version:  v1906                                 |
|   \\  /    A nd           | Web:      www.OpenFOAM.com                      |
|    \\/     M anipulation  |                                                 |
\*---------------------------------------------------------------------------*/
FoamFile
{
    version     2.0;
    format      ascii;
    class       volScalarField;
    location    "750";
    object      p;
}
// * * * * * * * * * * * * * * * * * * * * * * * * * * * * * * * * * * * * * //

dimensions      [0 2 -2 0 0 0 0];


internalField   nonuniform List<scalar> 
42840
(
0.000783575
0.000783504
0.000783495
0.000785521
0.000750027
0.000785514
0.000754632
0.000783499
0.000783495
0.000756518
0.000756434
0.00078556
0.000754538
0.000783496
0.000783477
0.000756555
0.000756546
0.000783513
0.000756475
0.000756667
0.000785536
0.000754663
0.000783519
0.00075659
0.000756703
0.000754759
0.00074796
0.000747986
0.000772336
0.000785794
0.000772455
0.000785708
0.000785691
0.000772418
0.000772403
0.000785825
0.000772493
0.000785727
0.000783556
0.000783539
0.000783591
0.000756528
0.000756487
0.000756531
0.000756648
0.000772312
0.000785666
0.000783532
0.000774414
0.000772344
0.00077447
0.000785689
0.000785759
0.000772517
0.000772378
0.000783526
0.000785694
0.000774407
0.000774477
0.000772433
0.00078569
0.000785902
0.000785912
0.000772437
0.000772535
0.000772547
0.000750457
0.000750463
0.000785832
0.000772471
0.000785845
0.00077249
0.000785811
0.000785819
0.000772316
0.000772427
0.000772441
0.000754864
0.000768012
0.000754883
0.000768032
0.000767441
0.0007548
0.000754818
0.00076797
0.000767985
0.000772325
0.000785691
0.000772397
0.000785696
0.000772242
0.000785716
0.000783528
0.0007744
0.000772383
0.000774444
0.000785674
0.000772225
0.000785642
0.000783521
0.000774394
0.000772294
0.00077444
0.000785667
0.000767888
0.00075487
0.000768002
0.000754776
0.000767883
0.000754894
0.000767968
0.000754781
0.000767662
0.000765376
0.000754764
0.000756456
0.00076786
0.000765377
0.000754634
0.000767646
0.00076531
0.000754793
0.000756426
0.000767802
0.000765363
0.00075463
0.000785674
0.000785682
0.000772288
0.00077236
0.00077238
0.000785711
0.000772442
0.000754932
0.000767991
0.000767367
0.000754867
0.000754877
0.000767938
0.000767957
0.000754935
0.000768013
0.0007723
0.000785732
0.000783513
0.000774409
0.00077242
0.000774436
0.000785659
0.000772404
0.000785744
0.000772491
0.000785718
0.000772292
0.000783505
0.000785654
0.000774375
0.00077443
0.000772398
0.000785652
0.000767952
0.000754901
0.000768042
0.000754837
0.00076773
0.0007654
0.000754802
0.000756526
0.000767901
0.0007654
0.000754709
0.000767959
0.000754972
0.00076806
0.000754852
0.000767727
0.000765363
0.000756485
0.000754875
0.000765385
0.000767905
0.000754718
0.000772406
0.00078573
0.000772445
0.000785744
0.000772345
0.000783544
0.000785803
0.000774475
0.000774486
0.000772493
0.000785698
0.000772427
0.000785883
0.000772548
0.000785767
0.000767737
0.000765346
0.000754808
0.000756505
0.00076785
0.000765422
0.000754696
0.000767953
0.000754905
0.000768009
0.000754821
0.000767767
0.000765507
0.000756572
0.000754835
0.000765462
0.000767969
0.000754711
0.000767969
0.000754905
0.000768092
0.000754824
0.000785717
0.000785731
0.000772298
0.000772464
0.000772476
0.000785778
0.000772527
0.000755005
0.000768087
0.00076743
0.000754947
0.000754952
0.000768039
0.000768055
0.000755003
0.000768087
0.000772403
0.000783536
0.000785828
0.000774492
0.000774498
0.000772527
0.000785705
0.000772463
0.000785782
0.000772517
0.000785777
0.000772473
0.00078591
0.000772574
0.000785802
0.000767809
0.000765407
0.000756592
0.000754888
0.000765465
0.000767938
0.000754768
0.000767831
0.000765537
0.000756643
0.000754853
0.000765502
0.000768002
0.00075477
0.000768008
0.000754963
0.000768079
0.000754869
0.000768016
0.00075492
0.000768116
0.000754862
0.000785919
0.000772571
0.000785934
0.000772584
0.000767583
0.00075485
0.000754857
0.000768072
0.000768084
0.000754897
0.000768106
0.000754904
0.000768117
0.00074787
0.000750387
0.000750218
0.00075051
0.000750454
0.000750389
0.000750534
0.000750493
0.000750502
0.000776859
0.000772435
0.000772369
0.000776739
0.000776844
0.000776772
0.000772447
0.000781367
0.000781357
0.000785767
0.000781324
0.000785794
0.000776885
0.000772425
0.000776875
0.000776852
0.000772474
0.000781324
0.000781235
0.00078574
0.000785715
0.000781303
0.000781258
0.000785755
0.000781264
0.000776805
0.000776915
0.000772425
0.000772495
0.000776805
0.000776833
0.000776908
0.000772502
0.000781404
0.000781391
0.000785797
0.000781355
0.000785828
0.000776919
0.000772456
0.000776911
0.000776881
0.000772511
0.000781381
0.000781279
0.000785742
0.000785788
0.000781308
0.000781369
0.000785803
0.000781354
0.000776904
0.000776988
0.000772591
0.000772594
0.000777019
0.000777022
0.000772548
0.000781407
0.000785789
0.000781452
0.000785921
0.000781336
0.00078148
0.00078584
0.000781415
0.000785795
0.000781463
0.000785936
0.000781345
0.000781495
0.000785849
0.000776898
0.000772572
0.000776968
0.000772401
0.000776827
0.000776996
0.000772486
0.000776908
0.000772584
0.00077698
0.000772414
0.000776839
0.000777009
0.000772493
0.000781466
0.000785947
0.000785951
0.000781504
0.000781507
0.000785921
0.000746104
0.000750336
0.000750488
0.000746121
0.000750401
0.000746036
0.000746159
0.000746101
0.000750343
0.000750489
0.000746128
0.000750401
0.000746042
0.000746156
0.000746136
0.000750488
0.000750484
0.000750467
0.000746164
0.000746165
0.000781385
0.000776896
0.000781401
0.000776913
0.000776875
0.000772481
0.000772486
0.000776911
0.000776914
0.000772429
0.000781307
0.000785715
0.000781356
0.000785833
0.000781383
0.000781242
0.000785752
0.000781313
0.000785716
0.000781365
0.000785846
0.000781399
0.000781246
0.000785759
0.000776782
0.000772464
0.000776865
0.00077227
0.000776891
0.000772357
0.000776713
0.00077679
0.000772483
0.000776876
0.00077228
0.000776907
0.000772364
0.000776721
0.000781363
0.000785855
0.000785858
0.000781403
0.000781408
0.00078583
0.000759221
0.000763629
0.000759229
0.000763647
0.000763574
0.000768022
0.000768025
0.000767977
0.000763631
0.000763636
0.000759066
0.000754646
0.000759156
0.000754844
0.000759194
0.000758978
0.000754741
0.000759076
0.000754664
0.000759175
0.000754858
0.000759212
0.000758996
0.000754749
0.000763498
0.000768003
0.00076779
0.000763572
0.000767875
0.000763614
0.000763403
0.000763508
0.000768021
0.000767804
0.000763589
0.000767885
0.000763632
0.000763419
0.000759168
0.000754861
0.000754866
0.000759211
0.000759216
0.000754809
0.00077682
0.00077243
0.000772335
0.000776726
0.000776831
0.000776728
0.000772419
0.00078129
0.000781244
0.000785683
0.00078123
0.000785699
0.000776822
0.000772384
0.000776786
0.000776772
0.000772437
0.000781278
0.000781221
0.000785724
0.000785684
0.000781285
0.000781213
0.000785711
0.000763624
0.000767998
0.000767917
0.000763513
0.000768006
0.000763613
0.000763541
0.000759226
0.000759212
0.000754825
0.000754894
0.000759173
0.000763642
0.000767972
0.00076362
0.000768017
0.000763581
0.000759225
0.000759103
0.000754872
0.0007548
0.000754881
0.000759214
0.00075913
0.000763611
0.000767997
0.000767896
0.000763514
0.000767989
0.000763617
0.00076353
0.000759254
0.000759214
0.000754876
0.000759203
0.000754946
0.00076365
0.000767959
0.000763602
0.000768004
0.000763592
0.000759218
0.000759104
0.00075488
0.000754801
0.000759222
0.000759125
0.00075488
0.000776748
0.000772423
0.00077243
0.000776807
0.000776814
0.00077235
0.000781149
0.000785679
0.000781209
0.000785674
0.000781234
0.000781164
0.000785632
0.000781159
0.000785683
0.000781224
0.000785692
0.000781171
0.000781252
0.000785641
0.000776631
0.000772395
0.000776748
0.000772148
0.000776778
0.000776596
0.000772241
0.000776641
0.000772423
0.000776768
0.000772163
0.000776608
0.0007768
0.00077225
0.000781187
0.000785686
0.00078569
0.000781263
0.000781275
0.000785648
0.000781297
0.000776836
0.000759245
0.000763636
0.000763569
0.000768001
0.000768016
0.000767935
0.000763649
0.000763653
0.00075905
0.000754625
0.00075919
0.000754913
0.000758927
0.00075923
0.000754758
0.000759057
0.000754638
0.000759203
0.000754916
0.00075924
0.000758944
0.000754761
0.000763449
0.000767971
0.00076769
0.000763577
0.000763325
0.000767797
0.000763617
0.000763458
0.000767992
0.000767707
0.000763591
0.000767808
0.000763633
0.000763341
0.000759199
0.00075495
0.000754951
0.000759265
0.000759268
0.000754876
0.000759253
0.00076365
0.000776901
0.000772499
0.000772423
0.0007768
0.000776907
0.000776813
0.000772495
0.000781368
0.00078133
0.000785731
0.000781314
0.000785769
0.00077691
0.000772477
0.000776885
0.000776869
0.000772526
0.000781355
0.000781269
0.000785775
0.000785712
0.000781361
0.000781276
0.000785767
0.000763681
0.000767974
0.000768058
0.000763579
0.000768063
0.000763598
0.000763675
0.000759265
0.000759246
0.000754862
0.000754934
0.00075921
0.000763684
0.000768006
0.000763658
0.000768055
0.000763617
0.000759279
0.000759168
0.000754855
0.000754923
0.000754933
0.000759189
0.000759275
0.000763689
0.000768067
0.000767979
0.000763589
0.000768066
0.000763687
0.000763613
0.000759333
0.0007593
0.000754954
0.000759285
0.000755015
0.000763736
0.000768049
0.000763695
0.000768092
0.00076368
0.000759293
0.00075918
0.000754949
0.000754873
0.00075929
0.000759207
0.000754944
0.00077689
0.000772407
0.000772492
0.000776808
0.000776802
0.000776907
0.00077248
0.00078134
0.000781297
0.000785717
0.000781274
0.000785745
0.00077687
0.000772427
0.000776841
0.000776822
0.00077248
0.000781351
0.00078129
0.000785731
0.000785784
0.000781278
0.000781366
0.000785772
0.000776945
0.000772508
0.00077246
0.000776838
0.000776929
0.000776877
0.000772524
0.000781461
0.000781447
0.000785868
0.000781426
0.000785889
0.000776974
0.000772517
0.000776967
0.000776944
0.000772562
0.000781412
0.00078132
0.000785829
0.000785793
0.000781396
0.000781358
0.000785845
0.000763658
0.000767959
0.000768053
0.000763575
0.000768044
0.000763585
0.000763665
0.000759272
0.000759236
0.00075489
0.000759226
0.000754951
0.00076368
0.000767995
0.000763636
0.000768041
0.000763622
0.000759256
0.000759158
0.000754837
0.000754907
0.000759172
0.00075926
0.000754907
0.000763687
0.000768065
0.000768002
0.000763587
0.000768079
0.000763672
0.000763616
0.00075928
0.000759271
0.000754867
0.000759236
0.000754926
0.000763714
0.000768062
0.000763699
0.000768099
0.000763659
0.000759274
0.000759165
0.000754903
0.000754849
0.000759262
0.000759196
0.000754916
0.000776857
0.000772527
0.00077253
0.000776912
0.000776915
0.000772457
0.000781208
0.000785661
0.000781296
0.000785735
0.00078133
0.000781168
0.000785643
0.000781215
0.00078567
0.000781309
0.000785751
0.000781178
0.000781349
0.000785653
0.000776732
0.000772499
0.000776853
0.000772248
0.000776885
0.000776653
0.000772355
0.00077674
0.000772514
0.000776868
0.000772261
0.000776666
0.000776899
0.000772363
0.000781291
0.000785761
0.000785765
0.000781358
0.000781361
0.000785709
0.00078137
0.00077692
0.000759325
0.000763728
0.000763675
0.000768105
0.000768108
0.000768044
0.000763748
0.000763749
0.000759164
0.000754736
0.000759284
0.000754994
0.000759047
0.000759324
0.000754861
0.000759165
0.000754745
0.000759289
0.000754988
0.000759325
0.000759059
0.00075486
0.000763567
0.000768074
0.000767802
0.000763672
0.000763444
0.000767911
0.000763717
0.000763571
0.000768085
0.000767817
0.000763684
0.000767918
0.000763721
0.000763457
0.000759297
0.000755028
0.000755027
0.000759357
0.000759357
0.000754963
0.000759331
0.000763735
0.000776947
0.000772471
0.00077254
0.000776869
0.000776871
0.000776955
0.000772534
0.0007814
0.000781367
0.000785761
0.000781347
0.000785801
0.000776939
0.000772501
0.000776917
0.000776899
0.000772549
0.000781406
0.000781344
0.000785767
0.000785841
0.000781339
0.000781418
0.000785824
0.000776978
0.000772499
0.000772547
0.000776886
0.000776913
0.000776967
0.000772559
0.000781484
0.000781474
0.000785892
0.000781449
0.000785913
0.000776998
0.000772538
0.000776994
0.000776968
0.000772583
0.000781447
0.000781368
0.000785833
0.000785867
0.000781398
0.000781434
0.000785885
0.000763712
0.000768021
0.000768101
0.000763631
0.000768098
0.000763646
0.000763712
0.000759333
0.000759305
0.000754946
0.000759292
0.000755003
0.000763747
0.000768067
0.000763709
0.00076811
0.000763692
0.000759305
0.00075921
0.000754889
0.000754944
0.00075923
0.000759304
0.00075495
0.00076372
0.000768043
0.000768104
0.000763633
0.000768114
0.000763655
0.00076371
0.000759298
0.000759288
0.000754887
0.000759255
0.000754944
0.000763734
0.00076808
0.000763719
0.000768119
0.00076368
0.000759303
0.000759208
0.000754877
0.000754932
0.00075923
0.000759297
0.000754939
0.000781478
0.000776994
0.000781493
0.000777008
0.000763673
0.000768124
0.000768125
0.000768091
0.000763717
0.000763719
0.000759163
0.000754736
0.000759231
0.000754888
0.000754815
0.000759088
0.000759268
0.000759166
0.000754745
0.000759239
0.000754888
0.000754816
0.000759099
0.000759271
0.000763616
0.000768108
0.000767925
0.000763663
0.000768003
0.000763532
0.000763704
0.000763622
0.000768116
0.000767938
0.000763673
0.00076801
0.000763544
0.00076371
0.000759244
0.000754895
0.000754895
0.000754858
0.000759273
0.000759275
0.000759267
0.000763708
0.000759276
0.000763717
0.000746208
0.00075048
0.000746183
0.000750523
0.000746152
0.00074621
0.000746144
0.000750533
0.000750492
0.000750542
0.000746206
0.000746158
0.000746191
0.000746169
0.000746176
0.000783621
0.000783602
0.000774524
0.000774552
0.000774543
0.000774654
0.000783745
0.000781454
0.000785684
0.000785678
0.000781408
0.000781385
0.000781382
0.000785721
0.000746098
0.000750177
0.000750197
0.000746087
0.000750243
0.000746033
0.000746054
0.00078136
0.000785642
0.000785627
0.000781359
0.000781304
0.000781292
0.000785643
0.000758895
0.000758614
0.000754628
0.000754642
0.000758803
0.000758821
0.00075472
0.000781279
0.000785643
0.000785638
0.000781398
0.00078129
0.000781294
0.000785606
0.000758841
0.000758508
0.000754571
0.000754596
0.000758715
0.000758745
0.000754699
0.000781271
0.000785626
0.000785629
0.000781373
0.000781271
0.000781269
0.000785588
0.000758959
0.00075863
0.000754693
0.000754719
0.000758845
0.000758877
0.00075481
0.000759003
0.000758751
0.000754731
0.000754746
0.00075481
0.000758926
0.000758943
0.000783626
0.000783622
0.000774505
0.000774543
0.000774559
0.000774672
0.000783763
0.000783586
0.000783589
0.000774505
0.000774536
0.00077455
0.000774643
0.000783722
0.000783619
0.000783604
0.000774554
0.000774581
0.000774574
0.000774656
0.000783723
0.00076548
0.000756566
0.000756574
0.000765526
0.000765522
0.00076561
0.000756658
0.000765471
0.000756553
0.000756584
0.000765516
0.000765538
0.000765619
0.000756663
0.000765471
0.00075657
0.000756613
0.000765519
0.000765546
0.000765616
0.000756673
0.000765545
0.000756633
0.000756649
0.000765573
0.000765572
0.000765633
0.000756692
0.000776585
0.000772301
0.00077228
0.000776646
0.000776635
0.000776598
0.000772278
0.000781296
0.00078571
0.000781247
0.000785654
0.000781236
0.000781243
0.000785657
0.00077656
0.000772293
0.000776689
0.000772176
0.00077661
0.000776627
0.000772222
0.000781357
0.000781294
0.000785677
0.000785685
0.000781277
0.00078135
0.000785678
0.000776597
0.000772324
0.000772376
0.000776695
0.000776611
0.000776691
0.000772325
0.000781283
0.000785697
0.000781298
0.000785651
0.000781226
0.000781274
0.000785643
0.000776574
0.000772377
0.00077677
0.000772248
0.000776636
0.000776694
0.000772278
0.000781347
0.000781317
0.000785673
0.000785678
0.00078134
0.000781302
0.000785667
0.000776763
0.000776511
0.000772428
0.000772435
0.000776694
0.0007767
0.000772515
0.000776649
0.000776421
0.000772292
0.00077229
0.000772388
0.000776581
0.000776579
0.000763503
0.000763404
0.000767625
0.000767634
0.000767719
0.000763399
0.000763407
0.000776561
0.000772276
0.000772237
0.000776593
0.000776616
0.000776574
0.000772253
0.000781295
0.000785704
0.000781315
0.00078567
0.000781268
0.000781244
0.000785665
0.000776575
0.000772317
0.000776757
0.000772248
0.000776663
0.000776655
0.000772255
0.000781335
0.000781265
0.000785667
0.00078568
0.000781262
0.000781339
0.000785664
0.000776556
0.000772226
0.000772222
0.000776582
0.000776578
0.000776567
0.000772226
0.000781288
0.000785692
0.000781212
0.000785637
0.000781215
0.000781217
0.000785652
0.000776547
0.000772235
0.000776641
0.000772139
0.000776585
0.000772192
0.000776585
0.000781338
0.000781258
0.000785656
0.000785669
0.000781244
0.000781331
0.000785661
0.000763331
0.000767703
0.000767531
0.000763381
0.000767549
0.00076342
0.000763291
0.000758786
0.000754622
0.000759052
0.000754693
0.00075891
0.000758946
0.000754598
0.00076336
0.00076776
0.000767717
0.00076353
0.000763377
0.000767606
0.000763454
0.000758719
0.000758859
0.000754666
0.000754533
0.000758899
0.000758688
0.00075458
0.000763283
0.00076766
0.000767511
0.000763371
0.000767503
0.000763389
0.000763271
0.000758723
0.000754572
0.000759045
0.000754687
0.000758931
0.000758827
0.000754558
0.000763283
0.000767702
0.000767604
0.000763491
0.000767525
0.000763419
0.00076327
0.000758672
0.000758853
0.000754652
0.00075452
0.000758876
0.000758671
0.000754538
0.000776519
0.000776456
0.000772189
0.000772195
0.000776543
0.000776537
0.000772248
0.000763422
0.000763299
0.000767506
0.000767527
0.000763287
0.000767607
0.000763306
0.00077656
0.000772327
0.000772254
0.000776624
0.000776652
0.000776564
0.00077228
0.000781284
0.000785704
0.000781344
0.000785671
0.000781283
0.000781257
0.00078565
0.000776578
0.000772351
0.000776787
0.000772277
0.000776695
0.000776674
0.00077227
0.000781321
0.000781263
0.00078566
0.000785668
0.000781276
0.00078132
0.000785652
0.000776545
0.000772244
0.000772304
0.000776613
0.000776554
0.00077662
0.000772255
0.000781264
0.000785675
0.000781261
0.000785629
0.000781232
0.000781198
0.000785635
0.000776544
0.000772331
0.00077673
0.000772212
0.000776648
0.000772238
0.000776604
0.000781314
0.000781253
0.000785656
0.000785643
0.000781309
0.000781246
0.000785647
0.000763398
0.000767762
0.000767576
0.000763455
0.000767596
0.000763483
0.000763357
0.000758809
0.000754658
0.000759093
0.000754737
0.000758951
0.00075899
0.000754639
0.000763394
0.000767796
0.000767755
0.000763571
0.000763415
0.000767625
0.000763497
0.000758802
0.000758935
0.000754732
0.000754613
0.000758966
0.000758766
0.000754657
0.000763376
0.000767569
0.000767751
0.000763456
0.000767571
0.000763354
0.000763481
0.000758844
0.000754692
0.000759144
0.000754795
0.000759035
0.00075896
0.000754674
0.000763392
0.000767802
0.000767709
0.000763597
0.000767614
0.00076352
0.000763394
0.000758779
0.00075894
0.000754621
0.000754748
0.00075877
0.000758972
0.000754649
0.000776626
0.000772317
0.000772386
0.000776675
0.000776622
0.000776716
0.000772351
0.000781351
0.000785747
0.000781415
0.000785734
0.000781326
0.000781366
0.000785684
0.000776672
0.000772433
0.000776861
0.000772381
0.000776767
0.000776774
0.000772377
0.000781364
0.000781312
0.000785697
0.000785704
0.000781362
0.000781334
0.000785678
0.000763362
0.000767738
0.00076759
0.000763458
0.000767573
0.000763463
0.00076336
0.000758765
0.000754599
0.000759079
0.000754736
0.000754599
0.000758863
0.000758978
0.000763329
0.000767756
0.000767643
0.000763537
0.000767565
0.000763311
0.00076347
0.000758749
0.00075893
0.000754714
0.000754599
0.000754612
0.000758945
0.000758758
0.000763455
0.000767638
0.000767813
0.000763485
0.000767668
0.000763408
0.000763525
0.000758908
0.000754724
0.000759141
0.000754772
0.000759042
0.000759031
0.000754707
0.000763495
0.000767875
0.00076786
0.000763633
0.000767743
0.000763563
0.000763516
0.00075884
0.00075895
0.000754632
0.000754741
0.000758803
0.000758992
0.000754684
0.000776569
0.000776431
0.000772243
0.000772257
0.000776546
0.000776531
0.000772349
0.000763536
0.0007634
0.000767608
0.000767634
0.00076341
0.000767722
0.000763432
0.000776652
0.00077236
0.000772438
0.000776722
0.00077664
0.000776759
0.000772396
0.000781362
0.000785762
0.000781442
0.000785758
0.000781349
0.000781395
0.000785684
0.00077669
0.00077246
0.000776891
0.000772416
0.000776795
0.000776806
0.000772401
0.000781375
0.000781342
0.000785685
0.000785724
0.00078136
0.000781369
0.000785673
0.000763454
0.00076766
0.000767818
0.000763532
0.000767649
0.000763445
0.000763543
0.00075888
0.000754708
0.000759167
0.000754821
0.000754707
0.000758985
0.000759067
0.000763436
0.000767845
0.000767743
0.000763624
0.000767654
0.000763427
0.000763557
0.000758851
0.000759004
0.000754689
0.00075479
0.000754708
0.000758851
0.000759025
0.000763521
0.000767696
0.000767877
0.000763547
0.000767723
0.000763476
0.000763578
0.000758933
0.000754743
0.000759165
0.0007548
0.000759075
0.000759061
0.000754733
0.000763527
0.00076789
0.000767893
0.00076366
0.00076777
0.000763596
0.000763547
0.0007589
0.000759012
0.0007547
0.00075479
0.000758873
0.000759041
0.000754744
0.000763628
0.00076355
0.000767773
0.000767786
0.000767853
0.00076354
0.00076355
0.000746025
0.000750294
0.000750299
0.000746126
0.000746028
0.000750172
0.000746084
0.000746028
0.000746044
0.000750082
0.000750235
0.000745976
0.000750134
0.000746067
0.0007503
0.000746136
0.000746038
0.00167242
0.00167234
0.00167234
0.00167441
0.00163644
0.00163635
0.00163635
0.00163842
0.00160054
0.00160044
0.00160044
0.0016025
0.0015647
0.0015646
0.0015646
0.00156665
0.00152892
0.00152881
0.00152881
0.00153086
0.0014932
0.00149308
0.00149308
0.00149513
0.00145752
0.00145741
0.00145741
0.00145944
0.0014219
0.00142178
0.00142178
0.00142381
0.00138632
0.00138619
0.00138619
0.00138822
0.00135077
0.00135064
0.00135065
0.00135267
0.00131526
0.00131513
0.00131513
0.00131716
0.00127978
0.00127965
0.00127965
0.00128167
0.00124432
0.0012442
0.0012442
0.00124622
0.00120888
0.00120876
0.00120876
0.00121078
0.00117349
0.00117336
0.00117336
0.00117537
0.00113807
0.00113795
0.00113796
0.00113996
0.00110267
0.00110257
0.00110256
0.00110457
0.00106728
0.00106717
0.00106718
0.00106918
0.00103189
0.0010318
0.00103181
0.00103382
0.000996611
0.000996504
0.000996485
0.000998489
0.000961198
0.000961055
0.000961081
0.000963063
0.000925686
0.000925645
0.000925618
0.000927643
0.000890377
0.000890287
0.000890315
0.000892344
0.000854997
0.000854899
0.000854918
0.000856884
0.000819611
0.000819565
0.000819471
0.000821456
0.00167441
0.00164324
0.00167234
0.00167234
0.00164534
0.00164534
0.00167441
0.00164324
0.00167234
0.00167234
0.00164534
0.00164534
0.00167234
0.00164534
0.00164534
0.00167441
0.00164324
0.00167234
0.00164534
0.00164534
0.00164324
0.00163842
0.00160732
0.00163635
0.00163635
0.00160941
0.00160941
0.00163842
0.00160732
0.00163635
0.00163635
0.00160941
0.00160941
0.00163635
0.00160941
0.00160941
0.00163842
0.00160732
0.00163635
0.00160941
0.00160941
0.00160732
0.0016025
0.00157146
0.00160044
0.00160044
0.00157355
0.00157355
0.0016025
0.00157146
0.00160044
0.00160044
0.00157355
0.00157355
0.00160044
0.00157355
0.00157355
0.0016025
0.00157146
0.00160044
0.00157355
0.00157355
0.00157146
0.00156665
0.00153567
0.0015646
0.0015646
0.00153775
0.00153775
0.00156665
0.00153567
0.0015646
0.0015646
0.00153775
0.00153775
0.0015646
0.00153775
0.00153775
0.00156665
0.00153567
0.0015646
0.00153775
0.00153775
0.00153567
0.00153086
0.00149993
0.00152881
0.00152881
0.00150201
0.00150201
0.00153086
0.00149993
0.00152881
0.00152881
0.00150201
0.00150201
0.00152881
0.00150201
0.00150201
0.00153086
0.00149993
0.00152881
0.00150201
0.00150201
0.00149993
0.00149513
0.00146425
0.00149308
0.00149308
0.00146632
0.00146632
0.00149513
0.00146424
0.00149308
0.00149308
0.00146632
0.00146632
0.00149308
0.00146632
0.00146632
0.00149513
0.00146425
0.00149308
0.00146632
0.00146632
0.00146424
0.00145944
0.00142861
0.00145741
0.00145741
0.00143068
0.00143068
0.00145944
0.00142861
0.00145741
0.00145741
0.00143068
0.00143068
0.00145741
0.00143068
0.00143068
0.00145944
0.00142861
0.00145741
0.00143068
0.00143068
0.00142861
0.00142381
0.00139302
0.00142178
0.00142178
0.00139509
0.00139509
0.00142381
0.00139302
0.00142178
0.00142178
0.00139509
0.00139509
0.00142178
0.00139509
0.00139509
0.00142381
0.00139302
0.00142178
0.00139509
0.00139509
0.00139302
0.00138822
0.00135746
0.00138619
0.00138619
0.00135953
0.00135953
0.00138822
0.00135746
0.00138619
0.00138619
0.00135953
0.00135953
0.00138619
0.00135953
0.00135953
0.00138822
0.00135746
0.00138619
0.00135953
0.00135953
0.00135746
0.00135267
0.00132195
0.00135064
0.00135064
0.00132401
0.00132401
0.00135267
0.00132195
0.00135064
0.00135065
0.00132401
0.00132401
0.00135064
0.00132401
0.00132401
0.00135267
0.00132195
0.00135064
0.00132401
0.00132401
0.00132195
0.00131716
0.00128646
0.00131513
0.00131513
0.00128852
0.00128852
0.00131715
0.00128646
0.00131513
0.00131513
0.00128852
0.00128852
0.00131513
0.00128852
0.00128852
0.00131715
0.00128646
0.00131513
0.00128852
0.00128852
0.00128646
0.00128167
0.001251
0.00127965
0.00127965
0.00125306
0.00125306
0.00128167
0.001251
0.00127965
0.00127965
0.00125306
0.00125306
0.00127965
0.00125306
0.00125306
0.00128167
0.00125101
0.00127965
0.00125306
0.00125306
0.001251
0.00124621
0.00121556
0.0012442
0.0012442
0.00121762
0.00121762
0.00124621
0.00121556
0.0012442
0.0012442
0.00121762
0.00121762
0.0012442
0.00121762
0.00121762
0.00124622
0.00121556
0.0012442
0.00121762
0.00121762
0.00121556
0.00121077
0.00118016
0.00120876
0.00120876
0.00118222
0.00118221
0.00121078
0.00118016
0.00120876
0.00120876
0.00118221
0.00118221
0.00120876
0.00118221
0.00118221
0.00121078
0.00118015
0.00120876
0.00118221
0.00118221
0.00118015
0.00117537
0.00114475
0.00117337
0.00117336
0.0011468
0.0011468
0.00117537
0.00114475
0.00117336
0.00117336
0.00114681
0.00114681
0.00117336
0.0011468
0.00114681
0.00117537
0.00114476
0.00117336
0.00114681
0.00114681
0.00114475
0.00113996
0.00110936
0.00113795
0.00113795
0.00111141
0.00111142
0.00113996
0.00110937
0.00113795
0.00113796
0.00111141
0.00111141
0.00113796
0.00111142
0.00111141
0.00113996
0.00110936
0.00113796
0.00111141
0.00111141
0.00110936
0.00110458
0.00107397
0.00110257
0.00110258
0.00107602
0.00107602
0.00110458
0.00107397
0.00110257
0.00110256
0.00107603
0.00107603
0.00110257
0.00107602
0.00107602
0.00110457
0.00107397
0.00110257
0.00107603
0.00107602
0.00107397
0.00106917
0.0010386
0.00106717
0.00106717
0.00104063
0.00104064
0.00106917
0.0010386
0.00106717
0.00106718
0.00104063
0.00104064
0.00106717
0.00104064
0.00104064
0.00106918
0.0010386
0.00106717
0.00104065
0.00104065
0.0010386
0.00103381
0.0010033
0.00103181
0.0010318
0.00100534
0.00100533
0.00103381
0.00100329
0.00103181
0.0010318
0.00100534
0.00100532
0.00103181
0.00100533
0.00100533
0.00103381
0.00100328
0.00103181
0.00100531
0.00100532
0.00100328
0.000998506
0.000967856
0.000996508
0.000996508
0.00096992
0.000969931
0.000998503
0.000967863
0.000996503
0.000996496
0.000969927
0.000969944
0.000996492
0.000969936
0.000969932
0.000998489
0.00096788
0.000996483
0.000969949
0.000969938
0.000967871
0.000963045
0.000932437
0.000961045
0.000961047
0.000934471
0.000934477
0.000963048
0.000932442
0.000961055
0.000961071
0.000934468
0.000934469
0.000961065
0.00093448
0.000934481
0.00096307
0.000932431
0.000961075
0.000934471
0.000934479
0.000932443
0.000927645
0.000897152
0.000925638
0.000925648
0.000899172
0.000899154
0.000927651
0.000897128
0.000925627
0.00092562
0.000899164
0.000899133
0.000925632
0.000899142
0.000899141
0.000927631
0.000897124
0.000925623
0.000899129
0.000899141
0.000897129
0.000892354
0.000861669
0.000890338
0.000890292
0.000863711
0.000863698
0.000892315
0.00086167
0.000890342
0.000890315
0.000863735
0.000863765
0.000890323
0.000863716
0.00086376
0.00089234
0.00086171
0.000890333
0.00086377
0.00086377
0.000861695
0.000856869
0.000826319
0.000854864
0.000854887
0.000828388
0.000828461
0.000856887
0.00082639
0.000854876
0.000854919
0.000828364
0.000828386
0.000854895
0.000828448
0.00082833
0.000856909
0.000826302
0.000854895
0.000828367
0.000828306
0.000826271
0.000821504
0.000790461
0.000819517
0.000819588
0.000792578
0.000792555
0.000821561
0.000790477
0.000819489
0.000819488
0.000792569
0.000792528
0.000819448
0.000792548
0.000792558
0.000821472
0.00079045
0.000819426
0.000792533
0.000792552
0.000790435
0.00166095
0.00167441
0.00166094
0.00167442
0.00167441
0.00166094
0.00166095
0.00167441
0.00166093
0.00167442
0.00167242
0.00167242
0.00167242
0.00164543
0.00164543
0.00164543
0.00164543
0.00166106
0.0016744
0.0016724
0.00166333
0.00166099
0.00166339
0.00167441
0.00167441
0.00166094
0.00166106
0.0016724
0.0016744
0.00166333
0.00166339
0.00166099
0.00167441
0.00167442
0.00167442
0.00166123
0.00166094
0.00166094
0.001625
0.00163843
0.00163844
0.00162498
0.00163843
0.00162499
0.001625
0.00163843
0.00163844
0.00162498
0.00163644
0.00163644
0.00163644
0.00160951
0.00160951
0.00160951
0.00160951
0.00162511
0.00163842
0.00163641
0.00162737
0.00163843
0.00162504
0.00162743
0.00163843
0.00162499
0.00162511
0.00163641
0.00163842
0.00162737
0.00163843
0.00162743
0.00162504
0.00163844
0.00163844
0.00162527
0.00162499
0.00162499
0.00158912
0.00160252
0.00160253
0.0015891
0.00160253
0.00158911
0.00158912
0.00160252
0.00160253
0.0015891
0.00160054
0.00160054
0.00160054
0.00157366
0.00157366
0.00157366
0.00157366
0.00158922
0.00160251
0.0016005
0.00159147
0.00160252
0.00158916
0.00159153
0.00160253
0.00158911
0.00158922
0.0016005
0.00160251
0.00159147
0.00160252
0.00159153
0.00158916
0.00160254
0.00160254
0.00158938
0.00158911
0.00158911
0.0015533
0.00156668
0.00156669
0.00155329
0.00156668
0.00155329
0.0015533
0.00156668
0.00156669
0.00155329
0.0015647
0.0015647
0.0015647
0.00153786
0.00153786
0.00153786
0.00153786
0.0015534
0.00156667
0.00156466
0.00155564
0.00156667
0.00155334
0.0015557
0.00156668
0.00155329
0.0015534
0.00156466
0.00156667
0.00155564
0.00156667
0.0015557
0.00155334
0.00156669
0.00156669
0.00155356
0.00155329
0.00155329
0.00151754
0.00153091
0.00153091
0.00151753
0.00153091
0.00151753
0.00151754
0.00153091
0.00153091
0.00151753
0.00152892
0.00152892
0.00152892
0.00150213
0.00150213
0.00150213
0.00150213
0.00151764
0.00153089
0.00152887
0.00151988
0.00153089
0.00151758