/*--------------------------------*- C++ -*----------------------------------*\
| =========                 |                                                 |
| \\      /  F ield         | OpenFOAM: The Open Source CFD Toolbox           |
|  \\    /   O peration     | Version:  v1906                                 |
|   \\  /    A nd           | Web:      www.OpenFOAM.com                      |
|    \\/     M anipulation  |                                                 |
\*---------------------------------------------------------------------------*/
FoamFile
{
    version     2.0;
    format      ascii;
    class       surfaceScalarField;
    location    "750";
    object      phi;
}
// * * * * * * * * * * * * * * * * * * * * * * * * * * * * * * * * * * * * * //

dimensions      [0 3 -1 0 0 0 0];
oriented        oriented;


internalField   nonuniform List<scalar> 
124908
(
-0.00104221
-1.45815e-05
-1.44777e-05
9.34771e-06
9.17762e-06
0.00105274
-0.00026146
-5.64183e-06
1.44583e-05
6.83957e-06
0.00105941
-4.53274e-06
-1.62486e-06
-2.21805e-06
-2.57554e-06
-6.59143e-06
-7.04427e-06
-3.16375e-06
-0.000263303
-0.000259727
-0.000262829
-0.000261437
-5.64682e-06
1.44873e-05
6.92911e-06
0.0010592
-4.53785e-06
-1.63504e-06
-2.22565e-06
-2.57985e-06
-6.58553e-06
-7.04034e-06
-3.16594e-06
-0.000259699
-0.000263274
-0.000262793
-0.000260564
5.61732e-06
5.65742e-06
-4.87815e-06
-4.87221e-06
0.00025904
-1.63187e-06
-1.63376e-06
-0.00106073
8.98537e-07
8.99307e-07
0.0010622
-0.00106267
-1.60665e-06
1.62783e-06
8.28417e-07
0.00106395
-6.53887e-07
7.84506e-07
-1.48151e-07
3.78012e-07
-8.00666e-07
-1.39484e-06
-2.90554e-07
-0.00106235
-1.60156e-06
1.63834e-06
8.23606e-07
0.00106363
-6.53864e-07
7.79017e-07
-1.48198e-07
3.75394e-07
-8.03194e-07
-1.39453e-06
-2.88008e-07
-0.000261533
1.63927e-06
1.60171e-06
-7.13269e-07
-7.16419e-07
0.000259722
-1.36113e-06
-1.36255e-06
-0.0010664
6.82252e-07
6.83062e-07
0.00106775
-0.0010679
-1.55714e-06
1.3673e-06
6.90355e-07
0.00106925
-6.21813e-07
8.38623e-07
-1.06575e-07
4.24393e-07
-7.8041e-07
-1.35997e-06
-2.45165e-07
-0.00106758
-1.55189e-06
1.36211e-06
6.95679e-07
0.00106892
-6.21815e-07
8.33209e-07
-1.06553e-07
4.24341e-07
-7.80332e-07
-1.35442e-06
-2.42611e-07
-0.000262766
1.58732e-06
1.55204e-06
-6.74952e-07
-6.83128e-07
0.000260984
-1.34099e-06
-1.3423e-06
-0.00107186
6.64412e-07
6.65263e-07
0.00107322
-0.00107326
-1.55557e-06
1.34197e-06
6.67277e-07
0.00107457
-6.19946e-07
8.63793e-07
-8.16012e-08
4.38223e-07
-7.79442e-07
-1.36934e-06
-2.20259e-07
-0.00107292
-1.55024e-06
1.34186e-06
6.67351e-07
0.00107424
-6.17253e-07
8.58383e-07
-8.40157e-08
4.3816e-07
-7.81904e-07
-1.36911e-06
-2.17706e-07
-0.000264044
1.58323e-06
1.55041e-06
-6.64566e-07
-6.70221e-07
0.000262245
-1.29597e-06
-1.29716e-06
-0.00107721
6.42272e-07
6.43165e-07
0.00107852
-0.00107844
-1.54743e-06
1.29686e-06
6.34114e-07
0.00107969
-6.07434e-07
8.91681e-07
-5.6161e-08
4.6016e-07
-7.68227e-07
-1.37181e-06
-1.88994e-07
-0.0010781
-1.54201e-06
1.29669e-06
6.34113e-07
0.00107936
-6.0461e-07
8.8626e-07
-5.8564e-08
4.60065e-07
-7.70711e-07
-1.3716e-06
-1.86438e-07
-0.000265263
1.57524e-06
1.54224e-06
-6.47626e-07
-6.53293e-07
0.000263446
-1.2484e-06
-1.24948e-06
-0.00108237
6.20369e-07
6.21287e-07
0.00108362
-0.00108337
-1.53902e-06
1.24923e-06
6.04448e-07
0.00108457
-5.95087e-07
9.17315e-07
-3.38112e-08
4.84431e-07
-7.53973e-07
-1.36933e-06
-1.58448e-07
-0.00108303
-1.53358e-06
1.24902e-06
6.04419e-07
0.00108423
-5.92257e-07
9.11869e-07
-3.62579e-08
4.84362e-07
-7.56486e-07
-1.36914e-06
-1.55888e-07
-0.000266408
1.56705e-06
1.53388e-06
-6.30852e-07
-6.36529e-07
0.000264575
-1.20431e-06
-1.2052e-06
-0.00108732
6.00843e-07
6.01737e-07
0.00108852
-0.00108806
-1.53237e-06
1.20494e-06
5.80551e-07
0.00108919
-5.85381e-07
9.40158e-07
-1.53334e-08
5.09155e-07
-7.40226e-07
-1.3652e-06
-1.30476e-07
-0.00108772
-1.52698e-06
1.20473e-06
5.80597e-07
0.00108885
-5.8269e-07
9.34666e-07
-1.76746e-08
5.09096e-07
-7.42719e-07
-1.36498e-06
-1.27945e-07
-0.00026748
1.56062e-06
1.5273e-06
-6.16319e-07
-6.22014e-07
0.00026563
-1.16554e-06
-1.16682e-06
-0.00109208
5.84398e-07
5.85344e-07
0.00109324
-0.00109251
-1.52797e-06
1.16664e-06
5.62531e-07
0.00109359
-5.7893e-07
9.60099e-07
-1.33608e-09
5.33226e-07
-7.28059e-07
-1.36111e-06
-1.05613e-07
-0.00109217
-1.5226e-06
1.16646e-06
5.62679e-07
0.00109325
-5.76355e-07
9.54666e-07
-3.15686e-09
5.33171e-07
-7.30505e-07
-1.36085e-06
-1.03091e-07
-0.000268483
1.55636e-06
1.52285e-06
-6.04358e-07
-6.1011e-07
0.000266618
-1.13184e-06
-1.13313e-06
-0.00109667
5.70311e-07
5.70989e-07
0.00109779
-0.00109676
-1.52678e-06
1.13304e-06
5.4885e-07
0.00109779
-5.75714e-07
9.76688e-07
1.64174e-08
5.55805e-07
-7.17638e-07
-1.35794e-06
-8.39718e-08
-0.00109641
-1.52133e-06
1.13297e-06
5.48909e-07
0.00109744
-5.73169e-07
9.71374e-07
1.35855e-08
5.55849e-07
-7.19989e-07
-1.35756e-06
-8.1377e-08
-0.000269423
1.55484e-06
1.52122e-06
-5.95721e-07
-6.01391e-07
0.000267544
-1.10324e-06
-1.10437e-06
-0.00110111
5.5861e-07
5.59273e-07
0.0011022
-0.00110081
-1.52705e-06
1.10432e-06
5.38128e-07
0.0011018
-5.73728e-07
9.91835e-07
3.0766e-08
5.77126e-07
-7.08226e-07
-1.35527e-06
-6.51205e-08
-0.00110046
-1.52163e-06
1.10425e-06
5.38196e-07
0.00110145
-5.71374e-07
9.86435e-07
2.77618e-08
5.77235e-07
-7.10593e-07
-1.35493e-06
-6.24703e-08
-0.000270305
1.55542e-06
1.52166e-06
-5.8952e-07
-5.95246e-07
0.000268412
-1.07838e-06
-1.07936e-06
-0.00110542
5.48678e-07
5.49358e-07
0.00110648
-0.0011047
-1.52813e-06
1.07926e-06
5.28862e-07
0.00110564
-5.69895e-07
1.00614e-06
4.07768e-08
5.97114e-07
-6.98986e-07
-1.35248e-06
-4.897e-08
-0.00110435
-1.52272e-06
1.07929e-06
5.2904e-07
0.0011053
-5.70241e-07
1.00052e-06
3.99759e-08
5.97227e-07
-7.01488e-07
-1.35227e-06
-4.62611e-08
-0.000271132
1.55697e-06
1.52308e-06
-5.84672e-07
-5.90431e-07
0.000269227
-1.05583e-06
-1.05685e-06
-0.00110962
5.39698e-07
5.40362e-07
0.00111065
-0.00110843
-1.52982e-06
1.05651e-06
5.19892e-07
0.00110933
-5.70334e-07
1.02e-06
5.2412e-08
6.15987e-07
-6.88836e-07
-1.34876e-06
-3.48477e-08
-0.00110808
-1.52418e-06
1.05634e-06
5.19876e-07
0.00110899
-5.69738e-07
1.01436e-06
5.22023e-08
6.15845e-07
-6.91471e-07
-1.3486e-06
-3.23591e-08
-0.000271907
1.55858e-06
1.52457e-06
-5.79591e-07
-5.85381e-07
0.000269989
-1.03422e-06
-1.03515e-06
-0.00111371
5.30909e-07
5.31585e-07
0.00111472
-0.001112
-1.53137e-06
1.03505e-06
5.10732e-07
0.00111288
-5.69362e-07
1.03322e-06
6.1928e-08
6.33147e-07
-6.7781e-07
-1.34427e-06
-2.2572e-08
-0.00111166
-1.52574e-06
1.0348e-06
5.10635e-07
0.00111253
-5.69241e-07
1.02777e-06
6.2225e-08
6.33128e-07
-6.80279e-07
-1.34393e-06
-2.01014e-08
-0.00027263
1.56001e-06
1.52586e-06
-5.74781e-07
-5.80664e-07
0.0002707
-1.0133e-06
-1.01419e-06
-0.0011177
5.22284e-07
5.23023e-07
0.00111868
-0.00111543
-1.53287e-06
1.01408e-06
5.0058e-07
0.00111627
-5.66575e-07
1.04592e-06
7.13381e-08
6.48698e-07
-6.65157e-07
-1.33811e-06
-1.1936e-08
-0.00111508
-1.52715e-06
1.01387e-06
5.00593e-07
0.00111592
-5.66472e-07
1.04045e-06
7.13943e-08
6.48708e-07
-6.67679e-07
-1.33783e-06
-9.53767e-09
-0.0002733
1.5616e-06
1.52744e-06
-5.69799e-07
-5.75422e-07
0.000271356
-9.92414e-07
-9.93168e-07
-0.00112159
5.13341e-07
5.14072e-07
0.00112255
-0.00111871
-1.53331e-06
9.93126e-07
4.90242e-07
0.00111951
-5.62645e-07
1.05888e-06
7.99985e-08
6.62614e-07
-6.51021e-07
-1.33028e-06
-3.11839e-09
-0.00111836
-1.52771e-06
9.92914e-07
4.90113e-07
0.00111916
-5.62495e-07
1.05331e-06
8.01086e-08
6.62641e-07
-6.53524e-07
-1.32997e-06
-9.71471e-10
-0.000273915
1.56214e-06
1.5279e-06
-5.6252e-07
-5.68222e-07
0.000271955
-9.71263e-07
-9.72031e-07
-0.00112539
5.04138e-07
5.04868e-07
0.00112633
-0.00112184
-1.53313e-06
9.71958e-07
4.77939e-07
0.00112259
-5.5717e-07
1.07112e-06
8.77088e-08
6.74776e-07
-6.35946e-07
-1.32124e-06
7.437e-09
-0.00112148
-1.52755e-06
9.71698e-07
4.77376e-07
0.00112224
-5.57002e-07
1.06551e-06
8.78831e-08
6.7467e-07
-6.38544e-07
-1.32102e-06
1.07962e-08
-0.000274471
1.56192e-06
1.52758e-06
-5.54723e-07
-5.60448e-07
0.000272497
-9.49984e-07
-9.50732e-07
-0.00112909
4.9464e-07
4.95307e-07
0.00113
-0.0011248
-1.53205e-06
9.5061e-07
4.66085e-07
0.00112552
-5.49554e-07
1.08256e-06
9.50159e-08
6.85095e-07
-6.20007e-07
-1.3109e-06
1.72586e-08
-0.00112445
-1.52654e-06
9.50452e-07
4.65766e-07
0.00112516
-5.49473e-07
1.07685e-06
9.50476e-08
6.85031e-07
-6.22605e-07
-1.31071e-06
2.04621e-08
-0.000274965
1.56116e-06
1.52673e-06
-5.46599e-07
-5.52328e-07
0.000272976
-9.28165e-07
-9.28942e-07
-0.0011327
4.84436e-07
4.85101e-07
0.00113359
-0.0011276
-1.53016e-06
9.28722e-07
4.55351e-07
0.00112828
-5.40561e-07
1.09304e-06
1.01626e-07
6.94282e-07
-6.03309e-07
-1.29931e-06
2.59379e-08
-0.00112725
-1.52467e-06
9.28705e-07
4.54981e-07
0.00112792
-5.40539e-07
1.08734e-06
1.01714e-07
6.94216e-07
-6.05855e-07
-1.29899e-06
2.90453e-08
-0.000275395
1.55926e-06
1.52474e-06
-5.37407e-07
-5.43147e-07
0.000273391
-9.06916e-07
-9.07474e-07
-0.00113622
4.7453e-07
4.75266e-07
0.00113708
-0.00113024
-1.52721e-06
9.07392e-07
4.44812e-07
0.00113087
-5.30185e-07
1.10259e-06
1.07813e-07
7.02689e-07
-5.86224e-07
-1.28588e-06
3.35238e-08
-0.00112988
-1.52164e-06
9.07133e-07
4.44402e-07
0.00113051
-5.30012e-07
1.09693e-06
1.08026e-07
7.02569e-07
-5.88771e-07
-1.28569e-06
3.66268e-08
-0.000275756
1.55629e-06
1.52172e-06
-5.27344e-07
-5.33072e-07
0.000273738
-8.85938e-07
-8.8656e-07
-0.00113964
4.65104e-07
4.65805e-07
0.00114048
-0.00113269
-1.52301e-06
8.86431e-07
4.34432e-07
0.00113328
-5.18591e-07
1.11119e-06
1.13618e-07
7.10231e-07
-5.69151e-07
-1.27128e-06
4.04157e-08
-0.00113233
-1.51748e-06
8.86196e-07
4.34173e-07
0.00113292
-5.18554e-07
1.10547e-06
1.137e-07
7.10126e-07
-5.71703e-07
-1.27109e-06
4.34967e-08
-0.000276047
1.55222e-06
1.51758e-06
-5.16485e-07
-5.22213e-07
0.000274016
-8.65293e-07
-8.6585e-07
-0.00114296
4.55922e-07
4.56614e-07
0.00114378
-0.00113497
-1.51757e-06
8.65793e-07
4.25031e-07
0.00113551
-5.09382e-07
1.11881e-06
1.21578e-07
7.17251e-07
-5.52207e-07
-1.25552e-06
4.68714e-08
-0.00113461
-1.51204e-06
8.65535e-07
4.24748e-07
0.00113515
-5.06433e-07
1.11308e-06
1.18919e-07
7.17154e-07
-5.54697e-07
-1.25531e-06
4.99237e-08
-0.000276267
1.54682e-06
1.51213e-06
-5.04698e-07
-5.10413e-07
0.000274223
5.22146e-06
5.23231e-06
0.000260567
-0.000259171
-5.93189e-06
-5.91777e-06
5.08158e-06
0.000261409
-0.000258686
-5.96204e-06
3.37916e-06
-5.22153e-06
5.07656e-06
0.000261442
-0.000258702
-5.97005e-06
3.37432e-06
5.22214e-06
0.000260579
-0.000259173
-5.90328e-06
-5.94651e-06
5.07467e-06
0.000261473
-0.000258717
-5.96755e-06
3.369e-06
5.0814e-06
-5.22378e-06
0.000261417
-0.000258686
3.38421e-06
-5.97225e-06
1.07111e-05
1.06174e-05
-0.000252649
-0.000256079
-0.000255118
-0.000255118
-6.41734e-06
-4.12515e-06
-6.6623e-06
-6.41771e-06
-4.12609e-06
-6.66784e-06
-5.06963e-06
0.00104223
1.06707e-05
1.06227e-05
-0.000252651
-0.000256076
-0.000255121
-0.000255121
-6.41996e-06
-4.12544e-06
-6.66504e-06
-6.41517e-06
-4.12087e-06
-6.66025e-06
-5.06927e-06
0.00104211
1.0731e-05
1.06833e-05
-0.000252643
-0.000256071
-0.000255118
-0.000255113
-6.41981e-06
-4.13282e-06
-6.66497e-06
-6.42001e-06
-4.12309e-06
-6.66258e-06
-5.08397e-06
-5.07209e-06
0.00104217
1.07263e-05
1.06276e-05
-0.000252646
-0.000256074
-0.000255118
-0.000255118
-6.4147e-06
-4.12777e-06
-6.65997e-06
-6.42014e-06
-4.12593e-06
-6.6653e-06
-0.000258712
-5.95991e-06
3.36395e-06
-5.22138e-06
0.000261404
-0.000258684
3.37919e-06
-5.96198e-06
5.22453e-06
0.000260559
-0.000259158
-5.9056e-06
-5.94373e-06
-0.000258697
3.37148e-06
-5.95704e-06
-5.23228e-06
0.000261471
-0.000258712
3.36649e-06
-5.96502e-06
-0.000259168
-5.93177e-06
-5.9178e-06
5.61757e-06
5.65479e-06
-4.87838e-06
-4.87223e-06
0.000259045
-7.80481e-07
-7.44603e-07
0.000261544
-0.000259462
-2.82246e-07
-2.74853e-07
7.09202e-06
0.00105882
-4.53008e-06
-1.57833e-06
-2.21273e-06
-2.57666e-06
-6.60588e-06
-7.05009e-06
-3.17074e-06
-0.000263264
-0.000259684
-0.000262793
-5.62803e-06
1.4555e-05
7.03143e-06
0.00105919
-4.54921e-06
-1.57071e-06
-2.21587e-06
-2.58757e-06
-6.6374e-06
-7.067e-06
-3.18641e-06
-0.000263338
-0.000259715
-0.000262834
0.00106192
2.02401e-06
-0.00106086
9.73753e-07
-1.71809e-06
-1.69109e-07
-6.92239e-07
-1.46543e-06
-3.07557e-07
-8.28052e-07
3.43222e-07
7.88563e-07
0.00106234
2.02437e-06
-0.00106128
9.68688e-07
-1.7285e-06
-1.61613e-07
-6.97738e-07
-1.47114e-06
-3.07708e-07
-8.28418e-07
3.48638e-07
-4.87646e-06
-4.86912e-06
0.000259055
-7.47277e-07
0.000261569
-0.000259482
-2.79599e-07
-2.71985e-07
6.81326e-06
0.00105966
-4.55437e-06
-1.63766e-06
-2.22893e-06
-2.58587e-06
-6.61991e-06
-7.06238e-06
-3.18164e-06
-0.000263359
-0.000259742
-0.000262847
-5.62773e-06
1.45894e-05
7.12546e-06
0.00105896
-4.54903e-06
-1.58079e-06
-2.2209e-06
-2.58953e-06
-6.6367e-06
-7.06587e-06
-3.18603e-06
-0.000259684
-0.000263315
-0.000262806
0.00106294
2.03159e-06
-0.00106187
9.6225e-07
-1.68817e-06
-1.71618e-07
-6.92517e-07
-1.46847e-06
-3.07669e-07
-8.25819e-07
3.45597e-07
7.77942e-07
0.00106203
2.0346e-06
-0.00106099
9.84064e-07
-1.71815e-06
-1.66659e-07
-6.92435e-07
-1.46825e-06
-3.0509e-07
-8.30807e-07
3.43166e-07
1.45864e-05
7.11279e-06
0.00105877
-4.53002e-06
-1.57822e-06
-2.2101e-06
-2.57669e-06
-6.60589e-06
-3.17079e-06
-7.04777e-06
-0.000259679
-0.000263259
-0.000262788
2.03091e-06
-0.00106161
9.67484e-07
-1.68807e-06
-1.68943e-07
-6.89597e-07
-1.46576e-06
-3.10042e-07
3.40406e-07
-8.25541e-07
7.77917e-07
0.00106182
2.03422e-06
-0.00106078
9.84099e-07
-1.71806e-06
-1.66543e-07
-6.92194e-07
-1.46811e-06
-3.0753e-07
-8.28006e-07
3.45756e-07
-4.88128e-06
-4.8689e-06
0.000259035
-7.39134e-07
0.000261521
-0.000259444
-2.82646e-07
-2.77212e-07
1.44875e-05
6.83175e-06
0.00105961
-4.55451e-06
-1.63767e-06
-2.22898e-06
-2.58569e-06
-6.61978e-06
-3.18154e-06
-7.05965e-06
-0.000259732
-0.000263356
-0.000262842
2.03595e-06
-0.00106131
9.83007e-07
-1.68559e-06
-1.71492e-07
-6.92267e-07
-1.46262e-06
-3.05022e-07
3.40449e-07
-8.28068e-07
7.39228e-07
0.00106284
2.03659e-06
-0.00106179
9.72565e-07
-1.68313e-06
-1.71646e-07
-6.89938e-07
-1.4657e-06
-3.07508e-07
-8.28234e-07
3.40607e-07
-0.000259459
-2.79779e-07
-2.77428e-07
1.63935e-06
1.60415e-06
-7.10559e-07
-7.19029e-07
0.00025973
-8.66327e-07
-8.27633e-07
0.000262778
-0.000260667
-2.12635e-07
-2.05062e-07
8.29639e-07
0.00106319
-6.5644e-07
8.17757e-07
-1.43305e-07
3.78168e-07
-8.00556e-07
-1.39714e-06
-2.9047e-07
-1.64463e-06
1.63226e-06
8.24416e-07
0.00106362
-6.59296e-07
8.25831e-07
-1.4331e-07
3.83593e-07
-8.03529e-07
-1.40283e-06
-2.88164e-07
0.00106713
1.38301e-06
-0.0010658
7.02154e-07
-1.59182e-06
-1.0351e-07
-6.28653e-07
-1.35465e-06
-2.49024e-07
-7.76783e-07
4.22402e-07
8.71694e-07
0.00106757
1.38328e-06
-0.00106623
6.97077e-07
-1.59715e-06
-1.03622e-07
-6.28889e-07
-1.35764e-06
-2.49138e-07
-7.77133e-07
4.25207e-07
-7.11052e-07
-7.18361e-07
0.000259748
-8.32892e-07
0.000262804
-0.000260679
-2.1267e-07
-2.07557e-07
8.23145e-07
0.00106421
-6.54077e-07
7.81856e-07
-1.4576e-07
3.80614e-07
-8.03598e-07
-1.40028e-06
-2.88113e-07
-1.63935e-06
1.63749e-06
8.297e-07
0.0010633
-6.59281e-07
8.17861e-07
-1.43345e-07
3.78182e-07
-8.03264e-07
-1.39733e-06
-2.87989e-07
0.00106816
1.38438e-06
-0.00106684
7.01114e-07
-1.5539e-06
-1.08443e-07
-6.23651e-07
-1.35235e-06
-2.46599e-07
-7.77125e-07
4.25055e-07
8.61114e-07
0.00106725
1.38304e-06
-0.00106591
7.02235e-07
-1.58922e-06
-1.06081e-07
-6.28804e-07
-1.35478e-06
-2.48993e-07
-7.76838e-07
4.25177e-07
1.63205e-06
8.29733e-07
0.0010631
-6.59065e-07
8.15185e-07
-1.45742e-07
3.78103e-07
-8.03182e-07
-2.88027e-07
-1.39723e-06
1.38399e-06
-0.00106657
7.06471e-07
-1.56169e-06
-1.10857e-07
-6.23503e-07
-1.35226e-06
-2.4662e-07
4.24924e-07
-7.76929e-07
8.63708e-07
0.00106704
1.37773e-06
-0.0010657
7.02254e-07
-1.58914e-06
-1.0596e-07
-6.28627e-07
-1.35472e-06
-2.49057e-07
-7.7678e-07
4.22415e-07
-7.13822e-07
-7.15803e-07
0.000259709
-8.24829e-07
0.000262753
-0.000260646
-2.12853e-07
-2.07507e-07
1.63355e-06
8.18033e-07
0.00106413
-6.54136e-07
7.76438e-07
-1.50871e-07
3.75478e-07
-8.00812e-07
-2.92947e-07
-1.39476e-06
1.38398e-06
-0.00106625
7.01388e-07
-1.55117e-06
-1.10853e-07
-6.2346e-07
-1.34669e-06
-2.49034e-07
4.16863e-07
-7.76852e-07
8.27502e-07
0.00106807
1.38438e-06
-0.00106674
7.01192e-07
-1.55136e-06
-1.11006e-07
-6.23725e-07
-1.35492e-06
-2.49052e-07
-7.7971e-07
4.2239e-07
-0.000260654
-2.1273e-07
-2.07646e-07
1.58996e-06
1.55721e-06
-6.72234e-07
-6.8057e-07
0.000260984
-8.90504e-07
-8.54294e-07
0.00026406
-0.000261937
-1.91582e-07
-1.86521e-07
6.91216e-07
0.00106848
-6.29688e-07
8.72078e-07
-9.92366e-08
4.24534e-07
-7.77656e-07
-1.35445e-06
-2.47569e-07
-1.59532e-06
1.36146e-06
7.01847e-07
0.00106891
-6.29898e-07
8.77479e-07
-9.93163e-08
4.30069e-07
-7.80621e-07
-1.36007e-06
-2.42706e-07
0.00107249
1.34952e-06
-0.00107117
6.75824e-07
-1.58992e-06
-8.55009e-08
-6.24963e-07
-1.36699e-06
-2.29949e-07
-7.78105e-07
4.33837e-07
8.95944e-07
0.00107292
1.34982e-06
-0.00107159
6.76037e-07
-1.59526e-06
-8.30838e-08
-6.27776e-07
-1.3753e-06
-2.25039e-07
-7.83683e-07
4.42084e-07
-6.75276e-07
-6.77487e-07
0.000261005
-8.56956e-07
0.000264088
-0.000261963
-1.88985e-07
-1.83784e-07
6.90227e-07
0.00106952
-6.27346e-07
8.35996e-07
-1.04163e-07
4.27149e-07
-7.80587e-07
-1.36003e-06
-2.42666e-07
-1.58735e-06
1.36128e-06
6.96573e-07
0.00106859
-6.29849e-07
8.69495e-07
-9.92955e-08
4.27294e-07
-7.80301e-07
-1.35721e-06
-2.42537e-07
0.00107352
1.35084e-06
-0.0010722
6.74833e-07
-1.5544e-06
-8.79375e-08
-6.22566e-07
-1.36992e-06
-2.2501e-07
-7.8367e-07
4.36502e-07
8.90565e-07
0.0010726
1.34961e-06
-0.00107127
6.75982e-07
-1.58992e-06
-8.307e-08
-6.27692e-07
-1.36968e-06
-2.24874e-07
-7.83382e-07
4.366e-07
1.36625e-06
6.9133e-07
0.00106839
-6.27011e-07
8.6681e-07
-1.04151e-07
4.27181e-07
-7.80249e-07
-2.45104e-07
-1.35716e-06
1.3505e-06
-0.00107193
6.74951e-07
-1.55696e-06
-8.78326e-08
-6.22351e-07
-1.36723e-06
-2.27525e-07
4.33712e-07
-7.80927e-07
8.85163e-07
0.0010724
1.34944e-06
-0.00107107
6.75944e-07
-1.58463e-06
-8.79859e-08
-6.22221e-07
-1.36706e-06
-2.2745e-07
-7.80699e-07
4.33844e-07
-6.75369e-07
-6.80009e-07
0.000260969
-8.51519e-07
0.000264039
-0.000261921
-1.91701e-07
-1.83818e-07
1.36252e-06
6.95525e-07
0.00106942
-6.22105e-07
8.27957e-07
-1.09161e-07
4.2457e-07
-7.77911e-07
-2.45117e-07
-1.35476e-06
1.35041e-06
-0.0010716
6.7503e-07
-1.55163e-06
-9.03159e-08
-6.19631e-07
-1.36694e-06
-2.24975e-07
4.33712e-07
-7.83418e-07
8.51502e-07
0.00107344
1.35087e-06
-0.00107211
6.74887e-07
-1.55187e-06
-9.04972e-08
-6.19965e-07
-1.36468e-06
-2.27461e-07
-7.80988e-07
4.31221e-07
-0.000261934
-1.89161e-07
-1.83965e-07
1.58853e-06
1.55297e-06
-6.61882e-07
-6.6761e-07
0.000262248
-9.18498e-07
-8.82128e-07
0.000265279
-0.000263155
-1.63921e-07
-1.58775e-07
6.68151e-07
0.00107381
-6.22449e-07
8.97344e-07
-7.93293e-08
4.38332e-07
-7.76657e-07
-1.36913e-06
-2.22676e-07
-1.59391e-06
1.34129e-06
6.68356e-07
0.00107423
-6.25376e-07
9.02822e-07
-7.6861e-08
4.46602e-07
-7.82197e-07
-1.37743e-06
-2.17761e-07
0.00107767
1.30796e-06
-0.0010764
6.43161e-07
-1.5827e-06
-6.00393e-08
-6.13142e-07
-1.37176e-06
-1.99352e-07
-7.68833e-07
4.54348e-07
9.2392e-07
0.00107809
1.30829e-06
-0.00107682
6.43425e-07
-1.5881e-06
-5.77556e-08
-6.1603e-07
-1.38012e-06
-1.94372e-07
-7.74401e-07
4.62674e-07
-6.65051e-07
-6.69752e-07
0.000262274
-8.84758e-07
0.000265307
-0.000263181
-1.61399e-07
-1.5614e-07
6.67166e-07
0.00107484
-6.20045e-07
8.61091e-07
-8.17618e-08
4.41009e-07
-7.82221e-07
-1.37206e-06
-2.1773e-07
-1.58858e-06
1.34108e-06
6.68294e-07
0.00107391
-6.25323e-07
8.97471e-07
-7.67759e-08
4.41096e-07
-7.81897e-07
-1.37179e-06
-2.17626e-07
0.0010787
1.30917e-06
-0.00107743
6.42183e-07
-1.54701e-06
-6.24556e-08
-6.10726e-07
-1.37468e-06
-1.94376e-07
-7.74401e-07
4.57076e-07
9.18527e-07
0.00107777
1.30806e-06
-0.0010765
6.4334e-07
-1.58276e-06
-5.77504e-08
-6.16028e-07
-1.37442e-06
-1.9422e-07
-7.74079e-07
4.57202e-07
1.34089e-06
6.68225e-07
0.00107371
-6.19686e-07
8.92044e-07
-8.16595e-08
4.38311e-07
-7.79253e-07
-2.20211e-07
-1.36919e-06
1.3089e-06
-0.00107716
6.4234e-07
-1.54962e-06
-6.24781e-08
-6.10594e-07
-1.37198e-06
-1.9688e-07
4.54291e-07
-7.7164e-07
9.13174e-07
0.00107757
1.30788e-06
-0.0010763
6.43266e-07
-1.57747e-06
-6.23951e-08
-6.10586e-07
-1.37178e-06
-1.96854e-07
-7.71383e-07
4.54379e-07
-6.62485e-07
-6.69705e-07
0.000262232
-8.79332e-07
0.000265258
-0.00026314
-1.64089e-07
-1.56174e-07
1.34229e-06
6.67183e-07
0.00107475
-6.17419e-07
8.58357e-07
-8.41592e-08
4.35686e-07
-7.79543e-07
-2.2022e-07
-1.36681e-06
1.30876e-06
-0.00107683
6.42365e-07
-1.54427e-06
-6.4941e-08
-6.07926e-07
-1.3717e-06
-1.9431e-07
4.54308e-07
-7.74122e-07
8.79405e-07
0.00107861
1.30916e-06
-0.00107734
6.42222e-07
-1.54451e-06
-6.48614e-08
-6.08289e-07
-1.36938e-06
-1.9685e-07
-7.71668e-07
4.51756e-07
-0.000263153
-1.6136e-07
-1.5611e-07
1.58059e-06
1.54486e-06
-6.45059e-07
-6.5077e-07
0.000263449
-9.44904e-07
-9.08393e-07
0.000266424
-0.000264302
-1.37046e-07
-1.31823e-07
6.34961e-07
0.00107892
-6.10081e-07
9.25391e-07
-5.39482e-08
4.60288e-07
-7.65397e-07
-1.37162e-06
-1.91396e-07
-1.58596e-06
1.29629e-06
6.3519e-07
0.00107935
-6.12878e-07
9.30884e-07
-5.14508e-08
4.68538e-07
-7.70983e-07
-1.37995e-06
-1.865e-07
0.0010826
1.26014e-06
-0.00108139
6.12154e-07
-1.57418e-06
-3.70188e-08
-6.00395e-07
-1.3701e-06
-1.68285e-07
-7.54809e-07
4.78354e-07
9.50398e-07
0.00108302
1.26054e-06
-0.00108181
6.12471e-07
-1.57966e-06
-3.4644e-08
-6.03461e-07
-1.37843e-06
-1.63309e-07
-7.60352e-07
4.86705e-07
-6.48126e-07
-6.52818e-07
0.000263475
-9.11086e-07
0.000266453
-0.000264328
-1.3438e-07
-1.29093e-07
6.34e-07
0.00107996
-6.07665e-07
8.88989e-07
-5.6353e-08
4.6299e-07
-7.70969e-07
-1.37453e-06
-1.8642e-07
-1.58055e-06
1.29602e-06
6.35073e-07
0.00107903
-6.1271e-07
9.2549e-07
-5.13932e-08
4.63037e-07
-7.70707e-07
-1.37431e-06
-1.86337e-07
0.00108364
1.26124e-06
-0.00108243
6.11217e-07
-1.53833e-06
-3.93991e-08
-5.97969e-07
-1.37297e-06
-1.63293e-07
-7.60386e-07
4.81102e-07
9.45038e-07
0.0010827
1.26024e-06
-0.00108149
6.12327e-07
-1.57429e-06
-3.45144e-08
-6.03475e-07
-1.37267e-06
-1.63186e-07
-7.6001e-07
4.81211e-07
1.29589e-06
6.3503e-07
0.00107883
-6.07142e-07
9.19948e-07
-5.6475e-08
4.60283e-07
-7.68041e-07
-1.8889e-07
-1.3717e-06
1.26102e-06
-0.00108216
6.11414e-07
-1.54102e-06
-3.93073e-08
-5.98027e-07
-1.37023e-06
-1.65842e-07
4.78302e-07
-7.57578e-07
9.39604e-07
0.0010825
1.26003e-06
-0.00108129
6.12209e-07
-1.5689e-06
-3.912e-08
-5.97709e-07
-1.37008e-06
-1.65864e-07
-7.57376e-07
4.78315e-07
-6.45436e-07
-6.52685e-07
0.000263433
-9.05696e-07
0.000266403
-0.000264287
-1.36971e-07
-1.29021e-07
1.29712e-06
6.34006e-07
0.00107987
-6.04838e-07
8.86151e-07
-5.89309e-08
4.5766e-07
-7.68325e-07
-1.8888e-07
-1.36931e-06
1.2608e-06
-0.00108182
6.11349e-07
-1.53562e-06
-4.16076e-08
-5.95347e-07
-1.36993e-06
-1.63281e-07
4.78292e-07
-7.60048e-07
9.05724e-07
0.00108355
1.26116e-06
-0.00108234
6.11192e-07
-1.53577e-06
-4.15355e-08
-5.95382e-07
-1.36766e-06
-1.65845e-07
-7.57656e-07
4.75692e-07
-0.0002643
-1.34307e-07
-1.28996e-07
1.57234e-06
1.53645e-06
-6.28128e-07
-6.33839e-07
0.000264577
-9.68588e-07
-9.31943e-07
0.000267496
-0.000265375
-1.12642e-07
-1.0735e-07
6.05234e-07
0.00108379
-5.97832e-07
9.51222e-07
-3.14714e-08
4.84498e-07
-7.51106e-07
-1.3691e-06
-1.60912e-07
-1.57771e-06
1.24878e-06
6.05503e-07
0.00108422
-6.00535e-07
9.56684e-07
-2.91667e-08
4.92833e-07
-7.56761e-07
-1.37753e-06
-1.55976e-07
0.00108728
1.21483e-06
-0.00108613
5.86873e-07
-1.56727e-06
-1.7565e-08
-5.90229e-07
-1.36611e-06
-1.39558e-07
-7.40695e-07
5.03164e-07
9.74126e-07
0.00108771
1.21515e-06
-0.00108656
5.87024e-07
-1.57274e-06
-1.51783e-08
-5.93212e-07
-1.37439e-06
-1.34564e-07
-7.46207e-07
5.11523e-07
-6.3118e-07
-6.3584e-07
0.000264603
-9.34689e-07
0.000267525
-0.000265402
-1.09839e-07
-1.04586e-07
6.04292e-07
0.00108483
-5.95398e-07
9.14689e-07
-3.38299e-08
4.8727e-07
-7.56687e-07
-1.37202e-06
-1.55912e-07
-1.5723e-06
1.2485e-06
6.05388e-07
0.0010839
-6.00388e-07
9.51233e-07
-2.92083e-08
4.87322e-07
-7.56466e-07
-1.37183e-06
-1.55774e-07
0.00108833
1.2158e-06
-0.00108718
5.85875e-07
-1.53128e-06
-1.98713e-08
-5.87795e-07
-1.369e-06
-1.3457e-07
-7.463e-07
5.05882e-07
9.68721e-07
0.00108739
1.21492e-06
-0.00108624
5.86961e-07
-1.56733e-06
-1.50976e-08
-5.9314e-07
-1.36873e-06
-1.34474e-07
-7.45921e-07
5.06e-07
1.24836e-06
6.0534e-07
0.00108369
-5.95071e-07
9.45702e-07
-3.41216e-08
4.84589e-07
-7.53738e-07
-1.5833e-07
-1.3692e-06
1.21554e-06
-0.00108691
5.85994e-07
-1.53393e-06
-1.96876e-08
-5.87772e-07
-1.36621e-06
-1.37171e-07
5.03045e-07
-7.43465e-07
9.63183e-07
0.00108718
1.21468e-06
-0.00108603
5.86864e-07
-1.56195e-06
-1.96843e-08
-5.87361e-07
-1.3661e-06
-1.37173e-07
-7.43325e-07
5.03058e-07
-6.28452e-07
-6.35768e-07
0.000264562
-9.29229e-07
0.000267475
-0.00026536
-1.12525e-07
-1.04537e-07
1.24946e-06
6.04341e-07
0.00108474
-5.92739e-07
9.11797e-07
-3.65214e-08
4.81962e-07
-7.54016e-07
-1.58311e-07
-1.36679e-06
1.2153e-06
-0.00108657
5.85959e-07
-1.52849e-06
-2.1977e-08
-5.85001e-07
-1.36596e-06
-1.34607e-07
5.03004e-07
-7.45988e-07
9.29203e-07
0.00108824
1.2157e-06
-0.00108709
5.8583e-07
-1.52866e-06
-2.20137e-08
-5.85001e-07
-1.36369e-06
-1.37148e-07
-7.43606e-07
5.00426e-07
-0.000265373
-1.0999e-07
-1.04625e-07
1.56584e-06
1.52981e-06
-6.13404e-07
-6.19161e-07
0.000265633
-9.92271e-07
-9.52844e-07
0.000268502
-0.00026638
-9.09433e-08
-8.56489e-08
5.81553e-07
0.00108841
-5.88077e-07
9.76861e-07
-1.07814e-08
5.09211e-07
-7.37343e-07
-1.36494e-06
-1.32944e-07
-1.57125e-06
1.20457e-06
5.81606e-07
0.00108884
-5.9085e-07
9.79651e-07
-1.08971e-08
5.17657e-07
-7.42929e-07
-1.37338e-06
-1.2791e-07
0.00109173
1.17495e-06
-0.00109063
5.67443e-07
-1.56526e-06
4.96603e-11
-5.85906e-07
-1.36184e-06
-1.13995e-07
-7.28038e-07
5.27428e-07
9.95164e-07
0.00109216
1.17509e-06
-0.00109107
5.67398e-07
-1.56795e-06
2.96796e-10
-5.85848e-07
-1.3675e-06
-1.0907e-07
-7.33655e-07
5.33033e-07
-6.16486e-07
-6.2125e-07
0.000265659
-9.55604e-07
0.000268528
-0.000266406
-8.80876e-08
-8.27438e-08
5.80457e-07
0.00108946
-5.85642e-07
9.37503e-07
-1.53145e-08
5.1199e-07
-7.42949e-07
-1.36788e-06
-1.27969e-07
-1.56587e-06
1.20441e-06
5.81616e-07
0.00108852
-5.90844e-07
9.74182e-07
-1.09016e-08
5.12079e-07
-7.42694e-07
-1.36763e-06
-1.278e-07
0.00109278
1.17593e-06
-0.00109169
5.66554e-07
-1.52634e-06
-4.23692e-09
-5.80725e-07
-1.36474e-06
-1.09025e-07
-7.33656e-07
5.30181e-07
9.8963e-07
0.00109184
1.1749e-06
-0.00109074
5.67421e-07
-1.56252e-06
2.04025e-10
-5.85681e-07
-1.36455e-06
-1.08928e-07
-7.33412e-07
5.30174e-07
1.20418e-06
5.81526e-07
0.00108832
-5.85503e-07
9.68647e-07
-1.54752e-08
5.093e-07
-7.39964e-07
-1.30403e-07
-1.36505e-06
1.17563e-06
-0.00109142
5.66568e-07
-1.52888e-06
-3.94832e-09
-5.80334e-07
-1.362e-06
-1.11638e-07
5.27257e-07
-7.30894e-07
9.83941e-07
0.00109163
1.17483e-06
-0.00109054
5.67604e-07
-1.55719e-06
-4.40016e-09
-5.80115e-07
-1.36191e-06
-1.11495e-07
-7.30722e-07
5.27395e-07
-6.13888e-07
-6.21261e-07
0.000265617
-9.50036e-07
0.000268478
-0.000266364
-9.09217e-08
-8.29083e-08
1.20516e-06
5.8051e-07
0.00108937
-5.83145e-07
9.34636e-07
-1.7778e-08
5.06652e-07
-7.40243e-07
-1.30387e-07
-1.36263e-06
1.17539e-06
-0.00109108
5.66588e-07
-1.52341e-06
-6.14566e-09
-5.77465e-07
-1.36178e-06
-1.09078e-07
5.2721e-07
-7.33481e-07
9.49864e-07
0.00109269
1.17577e-06
-0.0010916
5.66543e-07
-1.52374e-06
-6.49423e-09
-5.77723e-07
-1.35951e-06
-1.11483e-07
-7.31004e-07
5.24739e-07
-0.000266377
-8.87221e-08
-8.33246e-08
1.56426e-06
1.52521e-06
-6.0137e-07
-6.07017e-07
0.00026662
-1.00985e-06
-9.70264e-07
0.000269441
-0.000267321
-7.30679e-08
-6.75804e-08
5.63056e-07
0.0010928
-5.84099e-07
9.96924e-07
5.46878e-09
5.33159e-07
-7.25297e-07
-1.36095e-06
-1.05661e-07
-1.56716e-06
1.16582e-06
5.63159e-07
0.00109324
-5.84568e-07
9.99683e-07
5.0585e-09
5.38961e-07
-7.30822e-07
-1.36667e-06
-1.0309e-07
0.00109596
1.13977e-06
-0.00109492
5.5266e-07
-1.56334e-06
1.8968e-08
-5.82247e-07
-1.35847e-06
-8.92465e-08
-7.19958e-07
5.5025e-07
1.0127e-06
0.0010964
1.13989e-06
-0.00109536
5.52607e-07
-1.56595e-06
1.92841e-08
-5.81845e-07
-1.36424e-06
-8.68475e-08
-7.23011e-07
5.55791e-07
-6.04774e-07
-6.09463e-07
0.000266647
-9.72987e-07
0.000269468
-0.000267347
-7.02139e-08
-6.46995e-08
5.6241e-07
0.00109386
-5.78784e-07
9.57484e-07
-1.17253e-09
5.35973e-07
-7.30896e-07
-1.36386e-06
-1.03129e-07
-1.56184e-06
1.1656e-06
5.63159e-07
0.00109292
-5.8471e-07
9.9427e-07
5.30778e-09
5.36121e-07
-7.30522e-07
-1.36358e-06
-1.03017e-07
0.00109703
1.14113e-06
-0.00109598
5.51776e-07
-1.52433e-06
1.28305e-08
-5.769e-07
-1.36125e-06
-8.66348e-08
-7.22794e-07
5.53173e-07
1.00722e-06
0.00109608
1.13965e-06
-0.00109504
5.52503e-07
-1.56038e-06
1.90621e-08
-5.81545e-07
-1.36129e-06
-8.67141e-08
-7.22811e-07
5.52882e-07
1.16564e-06
5.63369e-07
0.00109271
-5.78818e-07
9.88963e-07
-8.34615e-10
5.33241e-07
-7.27828e-07
-1.05676e-07
-1.3609e-06
1.14083e-06
-0.00109571
5.51714e-07
-1.52679e-06
1.33357e-08
-5.76204e-07
-1.35856e-06
-8.92805e-08
5.50143e-07
-7.20122e-07
1.00167e-06
0.00109587
1.13994e-06
-0.00109483
5.52668e-07
-1.55503e-06
1.22104e-08
-5.76267e-07
-1.35852e-06
-8.90685e-08
-7.19897e-07
5.50372e-07
-6.0228e-07
-6.09607e-07
0.000266605
-9.67452e-07
0.000269417
-0.000267305
-7.31079e-08
-6.47974e-08
1.16666e-06
5.62447e-07
0.00109377
-5.76406e-07
9.54869e-07
-2.87384e-09
5.30599e-07
-7.28103e-07
-1.05641e-07
-1.35848e-06
1.14081e-06
-0.00109537
5.51818e-07
-1.52119e-06
9.91011e-09
-5.73108e-07
-1.35829e-06
-8.66315e-08
5.50189e-07
-7.22667e-07
9.67478e-07
0.00109694
1.14117e-06
-0.00109589
5.51747e-07
-1.52145e-06
9.08165e-09
-5.73772e-07
-1.35602e-06
-8.89574e-08
-7.20102e-07
5.47811e-07
-0.000267318
-7.07589e-08
-6.51941e-08
1.56297e-06
1.52391e-06
-5.92929e-07
-5.98576e-07
0.000267546
-1.02538e-06
-9.85691e-07
0.000270323
-0.000268203
-5.7514e-08
-5.20112e-08
5.49584e-07
0.00109699
-5.80685e-07
1.01368e-06
2.27563e-08
5.55613e-07
-7.17672e-07
-1.35789e-06
-8.41138e-08
-1.566e-06
1.13219e-06
5.49759e-07
0.00109743
-5.81368e-07