/*--------------------------------*- C++ -*----------------------------------*\
| =========                 |                                                 |
| \\      /  F ield         | OpenFOAM: The Open Source CFD Toolbox           |
|  \\    /   O peration     | Version:  v1906                                 |
|   \\  /    A nd           | Web:      www.OpenFOAM.com                      |
|    \\/     M anipulation  |                                                 |
\*---------------------------------------------------------------------------*/
FoamFile
{
    version     2.0;
    format      ascii;
    class       volVectorField;
    location    "750";
    object      U;
}
// * * * * * * * * * * * * * * * * * * * * * * * * * * * * * * * * * * * * * //

dimensions      [0 1 -1 0 0 0 0];


internalField   nonuniform List<vector> 
42840
(
(-1.34383e-05 -6.23975e-06 0.112541)
(1.73548e-06 -7.94602e-06 0.107499)
(-1.14181e-05 3.77061e-06 0.107515)
(-2.93451e-05 -3.25218e-05 0.104226)
(-2.4377e-05 -3.06377e-05 0.104207)
(3.25884e-05 3.13936e-05 0.104215)
(-3.77028e-05 -4.66318e-05 0.104339)
(-3.86266e-07 -6.62512e-06 0.107522)
(2.78306e-06 -3.49387e-06 0.107492)
(3.16941e-06 -1.32326e-05 0.107527)
(7.12742e-06 -2.04186e-05 0.10753)
(-3.42134e-05 3.0083e-05 0.104186)
(4.32044e-05 -5.23344e-05 0.10435)
(-7.41422e-06 -1.36261e-06 0.107528)
(-7.60026e-06 4.08452e-06 0.10751)
(-7.30045e-06 -8.56935e-06 0.107533)
(-1.99794e-05 4.68608e-06 0.107546)
(1.02991e-05 -6.60482e-07 0.107535)
(1.25713e-05 -2.05161e-05 0.107534)
(9.75729e-06 -8.3506e-06 0.107525)
(2.72136e-05 -3.30667e-05 0.104201)
(-5.07838e-05 4.36351e-05 0.104357)
(2.92198e-06 9.50098e-06 0.107541)
(-1.6739e-05 1.23538e-05 0.107545)
(2.20128e-06 3.46757e-06 0.107527)
(4.36665e-05 3.62764e-05 0.104329)
(1.01145e-05 -5.03992e-06 0.107512)
(4.44817e-06 4.389e-06 0.107511)
(-1.46272e-06 -3.97206e-06 0.0913788)
(9.15021e-07 1.02649e-05 0.0821713)
(-3.3495e-06 -2.91014e-06 0.0821932)
(3.00348e-06 1.12073e-05 0.0913444)
(-2.66673e-06 5.76295e-06 0.071483)
(1.2465e-06 -9.24487e-07 0.0714915)
(-5.24205e-06 -4.86293e-06 0.0913764)
(1.08336e-05 -1.88709e-06 0.0821666)
(-3.48297e-06 -4.12808e-06 0.0821904)
(1.07141e-05 -6.40259e-07 0.0913451)
(6.0419e-06 -3.05879e-06 0.112515)
(-1.08156e-05 1.08033e-05 0.112525)
(1.18197e-05 1.62006e-05 0.112552)
(-7.56304e-06 -1.3844e-05 0.112516)
(1.56044e-05 -2.79477e-05 0.112504)
(-2.70529e-05 1.28769e-05 0.112527)
(7.69724e-06 -6.11803e-07 0.112527)
(1.11213e-05 -9.49426e-06 0.0985661)
(-1.79683e-05 1.99094e-06 0.0929702)
(6.99994e-06 -6.63089e-06 0.109944)
(3.78438e-06 -1.3993e-05 0.107508)
(3.75819e-06 -7.43245e-07 0.0930262)
(9.08015e-06 -1.54291e-05 0.109946)
(-1.30781e-05 -1.09053e-05 0.0985022)
(5.44432e-06 -2.41082e-06 0.0714673)
(-1.57938e-06 1.689e-06 0.0714881)
(-4.85544e-06 1.27642e-05 0.0985682)
(-1.02514e-05 9.18209e-06 0.109957)
(3.76489e-06 -1.57447e-05 0.0929736)
(-1.53539e-05 5.71586e-06 0.107526)
(-1.59305e-05 1.05073e-05 0.109961)
(5.68541e-07 7.484e-06 0.093027)
(-8.75697e-06 -1.20041e-05 0.0985071)
(-3.66404e-06 -6.11473e-06 0.0874985)
(-3.40069e-06 -4.80378e-06 0.0874966)
(4.11841e-05 3.40874e-05 0.104345)
(5.26053e-06 5.46614e-06 0.0875303)
(6.68676e-06 5.15522e-06 0.0875278)
(8.78518e-06 5.75396e-06 0.0875201)
(4.63433e-06 9.84206e-06 0.0875184)
(5.6834e-07 5.63332e-06 0.0714701)
(-4.74415e-06 -9.45857e-07 0.071497)
(6.19375e-06 -1.8394e-06 0.0714667)
(-1.2243e-06 -5.32396e-06 0.0714957)
(7.26459e-06 5.5025e-06 0.0875063)
(7.84507e-06 3.46473e-06 0.0875029)
(-3.45711e-05 -4.09398e-05 0.104338)
(-3.50034e-06 -3.53049e-06 0.0875342)
(-2.5673e-06 -6.03617e-06 0.0875318)
(-3.82043e-06 -5.16615e-06 0.0715266)
(-1.11782e-06 3.82484e-06 0.0714648)
(-5.94021e-06 -2.50811e-06 0.0715264)
(3.33454e-06 -1.12028e-06 0.0714634)
(3.57361e-05 2.80656e-05 0.104223)
(-9.63909e-06 -1.35247e-05 0.0875451)
(-1.44027e-05 -9.3076e-06 0.0875431)
(2.00035e-06 1.57827e-06 0.0875034)
(2.02866e-06 1.68698e-07 0.0875004)
(-1.60892e-06 -3.58142e-06 0.091379)
(-2.86228e-06 9.94821e-06 0.082182)
(-8.58478e-07 -2.96133e-06 0.0821965)
(2.41797e-06 1.21192e-05 0.0913436)
(3.98892e-06 -1.14187e-05 0.0985671)
(1.00779e-05 1.28002e-05 0.0929761)
(1.08601e-06 -7.41823e-06 0.109948)
(3.07519e-06 -8.41439e-06 0.107524)
(1.20265e-07 -6.3123e-06 0.0930224)
(5.23037e-06 -1.06004e-05 0.109948)
(5.39968e-06 1.26596e-05 0.0985017)
(3.0741e-06 -1.06167e-05 0.0985658)
(-7.53302e-06 1.63079e-05 0.0929701)
(4.78397e-06 -5.07442e-06 0.109936)
(3.9466e-06 -8.46073e-06 0.107501)
(-3.42886e-06 -4.37448e-06 0.0930263)
(8.29815e-06 -9.58018e-06 0.109937)
(4.98975e-06 1.39092e-05 0.0984983)
(-3.04785e-06 5.99344e-06 0.0913487)
(-3.38469e-06 -9.61561e-06 0.0821985)
(-1.97584e-06 8.36711e-06 0.0821547)
(-5.46121e-06 -1.75081e-05 0.0913813)
(-2.77416e-06 6.23315e-06 0.0913494)
(1.5305e-06 -8.69587e-06 0.0821892)
(-2.15373e-06 8.3583e-06 0.0821545)
(-4.00812e-06 -1.75571e-05 0.0913827)
(2.27399e-06 9.35723e-06 0.0985239)
(4.37328e-06 -1.09069e-05 0.107527)
(-8.90924e-06 -1.74851e-05 0.0930254)
(7.70086e-06 -1.93785e-05 0.109949)
(4.05397e-06 1.12015e-05 0.0929789)
(7.78524e-06 -1.49994e-05 0.109948)
(-3.63402e-06 -2.31057e-05 0.0985819)
(1.62451e-06 9.88739e-06 0.0985236)
(5.26172e-06 -1.46157e-05 0.107515)
(1.53134e-06 -1.81879e-05 0.093034)
(1.03599e-05 -2.19862e-05 0.109949)
(-9.00097e-06 1.26564e-05 0.0929837)
(1.0246e-05 -1.57247e-05 0.109942)
(-2.59206e-06 -2.34554e-05 0.0985845)
(-8.51726e-06 7.55172e-06 0.0875121)
(-8.9541e-06 5.41239e-06 0.0875102)
(3.7644e-05 -4.66428e-05 0.104319)
(-1.49726e-06 -2.00214e-06 0.0875406)
(2.18787e-06 2.72013e-07 0.0875408)
(-5.43846e-06 1.55176e-06 0.0714795)
(2.01989e-06 -3.56653e-08 0.0714942)
(2.87558e-06 -3.98932e-06 0.0714996)
(-2.18507e-06 3.94009e-06 0.0714526)
(-3.11909e-05 2.1348e-05 0.104212)
(5.52004e-06 -1.32118e-05 0.0875401)
(1.52645e-05 -2.80119e-06 0.0875411)
(-7.29913e-06 2.71932e-06 0.0875061)
(-1.87327e-06 6.96001e-06 0.0875054)
(5.37974e-06 4.10372e-07 0.0715039)
(-2.44929e-06 3.96247e-06 0.0714523)
(-1.18648e-05 -1.50351e-06 0.0985716)
(1.48379e-05 5.0311e-06 0.092975)
(-1.12836e-05 3.95981e-06 0.109956)
(-6.57907e-06 -2.66303e-06 0.107531)
(-5.12767e-06 -4.78019e-06 0.0930215)
(-1.2929e-05 3.77133e-06 0.109958)
(1.20995e-05 2.61199e-06 0.0985077)
(-5.56907e-06 -4.458e-06 0.0913772)
(9.76959e-06 -3.01784e-06 0.0821718)
(-4.2716e-06 -5.05352e-07 0.0821909)
(1.09762e-05 -7.68599e-07 0.091345)
(-1.22536e-05 -1.45865e-06 0.0985726)
(-9.91581e-06 7.4411e-06 0.109948)
(1.48693e-05 -8.21041e-06 0.0929746)
(-1.1915e-05 4.10313e-06 0.107522)
(-1.37922e-05 7.88622e-06 0.109954)
(-7.02982e-06 -2.79637e-06 0.0930291)
(1.27073e-05 2.58961e-06 0.0985065)
(4.56205e-06 -5.76533e-06 0.0913469)
(-1.07074e-05 -2.04988e-06 0.0821982)
(7.49875e-06 -2.14797e-06 0.0821511)
(-1.90824e-05 -5.68412e-06 0.0913784)
(8.7464e-06 -3.36483e-06 0.0985274)
(-6.59241e-06 -5.30284e-06 0.107534)
(-1.7926e-05 -9.90829e-06 0.0930237)
(-1.71033e-05 -2.47187e-06 0.109961)
(1.19078e-05 -1.60301e-07 0.0929763)
(-1.5185e-05 1.54291e-06 0.109961)
(-2.40721e-05 -7.42097e-06 0.0985804)
(4.12297e-06 -5.01546e-06 0.0913481)
(-9.67814e-06 2.39114e-06 0.0821921)
(6.97064e-06 -1.60937e-06 0.0821488)
(-1.95386e-05 -4.06489e-06 0.09138)
(8.06232e-06 -2.96799e-06 0.0985293)
(-1.65492e-05 4.17684e-06 0.107535)
(-2.18164e-05 3.3102e-06 0.109966)
(-2.06368e-05 3.51004e-06 0.0930329)
(-1.82701e-05 6.24089e-06 0.109961)
(9.55601e-06 -7.95823e-06 0.0929847)
(-2.52703e-05 -5.58537e-06 0.0985837)
(5.14834e-06 -4.76893e-07 0.0913758)
(-9.64385e-06 1.33477e-06 0.0821781)
(4.49523e-06 1.67967e-06 0.0821962)
(-1.06594e-05 -6.73458e-06 0.0913422)
(1.30258e-05 -9.23536e-06 0.0985668)
(1.1025e-05 -2.48141e-06 0.109959)
(-1.02669e-05 -1.03391e-05 0.092974)
(1.06992e-05 -5.60298e-06 0.107537)
(1.26015e-05 -1.0755e-05 0.10996)
(9.37163e-06 1.15971e-06 0.0930178)
(-1.07539e-05 -1.08796e-05 0.098506)
(6.01668e-06 -1.22075e-07 0.0913746)
(-9.36812e-06 -2.8721e-07 0.0821625)
(3.7185e-06 4.50932e-06 0.0821904)
(-9.11488e-06 -6.87773e-06 0.0913425)
(-9.52056e-06 -7.30321e-06 0.0985223)
(7.66346e-06 -1.85387e-05 0.107521)
(1.9483e-05 1.53256e-08 0.0930329)
(1.61196e-05 -2.44412e-05 0.109954)
(-1.26489e-05 6.00767e-06 0.0929828)
(1.24343e-05 -2.2009e-05 0.10995)
(2.31719e-05 9.18023e-07 0.0985766)
(-4.74011e-06 1.71647e-06 0.0913458)
(1.04631e-05 1.76271e-06 0.082192)
(-6.51588e-06 3.71066e-06 0.0821534)
(1.82011e-05 6.33041e-06 0.0913785)
(-7.8994e-06 -6.8096e-06 0.0985218)
(1.03856e-05 -8.45564e-06 0.107534)
(1.54643e-05 -1.83952e-05 0.109954)
(1.76906e-05 1.14128e-05 0.0930181)
(1.4398e-05 -1.67339e-05 0.109958)
(-8.6729e-06 -2.35318e-06 0.092973)
(2.31936e-05 2.45649e-06 0.098572)
(-4.16082e-06 2.32236e-06 0.0913445)
(9.40264e-06 5.32039e-06 0.0822035)
(-7.79713e-06 3.44433e-06 0.0821542)
(1.7914e-05 7.68313e-06 0.0913765)
(6.32486e-06 -8.21767e-06 0.0875075)
(6.48167e-06 -6.66876e-06 0.0875085)
(-4.81136e-05 3.87615e-05 0.104336)
(-4.15437e-06 1.89215e-07 0.0875375)
(1.47941e-08 5.27661e-06 0.0875375)
(2.856e-06 -4.64607e-06 0.0714715)
(3.03276e-07 3.0187e-06 0.0714904)
(-4.52247e-06 3.40271e-06 0.0715101)
(3.18386e-06 -1.57654e-06 0.0714487)
(2.11278e-05 -3.06143e-05 0.104227)
(-1.49141e-05 7.5836e-06 0.0875413)
(-4.36485e-06 1.70403e-05 0.0875421)
(4.53568e-07 -5.42427e-06 0.087502)
(6.49216e-06 9.61592e-07 0.0875047)
(-4.3278e-07 5.72601e-06 0.0715127)
(4.06145e-06 -1.79237e-06 0.0714555)
(-4.25828e-06 1.36077e-05 0.0985668)
(-4.05561e-06 1.23997e-05 0.109968)
(-6.24492e-06 -1.12954e-05 0.0929721)
(1.60798e-06 7.32309e-06 0.107542)
(-8.34134e-06 1.21897e-05 0.109969)
(4.25839e-06 9.10841e-06 0.0930152)
(-8.28924e-06 -1.0302e-05 0.0985094)
(2.61533e-06 7.3446e-06 0.0913746)
(2.93773e-06 -8.67104e-06 0.0821721)
(2.35189e-06 6.1493e-06 0.0821924)
(-3.56739e-06 -9.07369e-06 0.0913412)
(3.01423e-06 7.52954e-06 0.0913725)
(1.12596e-06 -9.21584e-06 0.0821585)
(4.52984e-06 4.51752e-06 0.0821896)
(-3.41287e-06 -8.18693e-06 0.0913412)
(-2.53321e-06 -7.51551e-06 0.0985227)
(-1.73204e-05 8.84226e-06 0.107538)
(-1.76982e-05 1.42818e-05 0.109964)
(-6.17698e-07 2.22514e-05 0.0930316)
(-1.86583e-05 1.25242e-05 0.109964)
(6.95862e-06 -8.7806e-06 0.0929839)
(4.10794e-06 2.50835e-05 0.0985728)
(-1.7654e-06 -7.06271e-06 0.0985205)
(1.24326e-06 4.91106e-06 0.107538)
(-8.47659e-06 1.11619e-05 0.109959)
(1.12093e-05 1.84485e-05 0.0930154)
(-1.01301e-05 1.1945e-05 0.109966)
(3.36928e-08 -8.68944e-06 0.0929697)
(5.77022e-06 2.40796e-05 0.0985673)
(4.27468e-06 -2.46563e-06 0.091344)
(8.73563e-07 1.12467e-05 0.0821971)
(3.97654e-06 -5.15212e-06 0.0821537)
(6.70075e-06 2.0066e-05 0.0913788)
(4.91899e-06 -2.56992e-06 0.0913425)
(4.21445e-06 1.02262e-05 0.0822069)
(3.04529e-06 -6.87832e-06 0.0821539)
(8.10004e-06 1.93814e-05 0.091376)
(-5.21674e-06 -1.13891e-07 0.0714633)
(1.24532e-06 5.52436e-06 0.0714999)
(9.60328e-07 -5.13314e-06 0.071462)
(5.261e-06 1.80809e-06 0.0715007)
(-2.90306e-05 -3.6705e-05 0.104226)
(1.31687e-05 1.16234e-05 0.087545)
(1.07709e-05 1.41344e-05 0.0875427)
(-3.08891e-07 7.15175e-08 0.0874995)
(6.94745e-07 -8.77955e-08 0.0874976)
(5.02379e-06 4.8711e-06 0.071539)
(-3.69255e-06 2.01e-06 0.0714702)
(3.71304e-06 5.57507e-06 0.0715414)
(1.38644e-06 -3.03876e-06 0.0714718)
(1.56238e-05 -1.51609e-05 0.109945)
(2.05825e-06 7.69151e-06 0.0929755)
(4.79524e-06 5.32277e-06 0.098523)
(-1.20289e-06 3.12482e-06 0.082177)
(9.45118e-06 8.5022e-06 0.0913487)
(6.73017e-06 3.07109e-06 0.0929726)
(1.97655e-06 -4.06216e-07 0.0821808)
(6.14942e-07 4.76086e-07 0.0715209)
(-6.87771e-07 1.05463e-06 0.0715236)
(-4.02955e-06 6.0798e-06 0.0768037)
(-2.19018e-06 -1.26269e-06 0.078603)
(-2.41045e-06 -4.77182e-06 0.0898955)
(2.09445e-07 9.99014e-06 0.0913477)
(-2.23507e-06 6.42182e-06 0.078581)
(-1.80497e-07 9.13143e-06 0.0898608)
(-3.12226e-06 -1.74078e-06 0.0768321)
(-2.67069e-06 -4.67074e-07 0.0683783)
(-1.94675e-06 -1.87539e-06 0.082202)
(2.14199e-06 7.66303e-06 0.0857761)
(2.7322e-07 -3.20303e-06 0.085815)
(-3.43632e-06 5.31687e-06 0.0683388)
(-4.40208e-06 4.62432e-06 0.0683303)
(-2.64492e-06 -5.55377e-06 0.0858133)
(-1.13337e-06 1.03166e-05 0.082161)
(-7.38939e-07 6.71305e-06 0.0857736)
(-2.85781e-06 -1.40055e-06 0.0683741)
(-1.94775e-06 4.22836e-07 0.0768403)
(1.84638e-06 -1.53018e-06 0.0913766)
(-9.08193e-07 7.31353e-06 0.0785936)
(3.53475e-06 9.72944e-06 0.0898591)
(-1.41715e-06 9.21759e-07 0.0786135)
(1.86957e-06 -2.7517e-06 0.0898948)
(-1.98327e-06 7.25519e-06 0.0768145)
(9.15126e-07 1.94921e-07 0.0715075)
(-2.59992e-06 5.30946e-06 0.0714634)
(5.57133e-06 -5.87061e-06 0.076802)
(-5.47453e-06 -6.35106e-06 0.0898923)
(-2.08094e-06 -2.94959e-06 0.0785978)
(9.17699e-06 -3.61273e-06 0.091347)
(8.9354e-06 -4.76375e-06 0.0898588)
(5.76561e-06 -3.52637e-06 0.078577)
(-2.42895e-06 -4.24903e-06 0.0768285)
(-3.95556e-07 -4.4892e-06 0.0683705)
(-1.73045e-06 -4.07553e-06 0.0821986)
(8.60879e-06 -1.28324e-06 0.0857707)
(-2.72306e-06 -2.98232e-06 0.0858088)
(5.65886e-06 -5.73773e-06 0.0683336)
(4.72987e-06 -5.57028e-06 0.0683278)
(-5.87543e-06 -4.71047e-06 0.0858085)
(1.00103e-05 -2.6054e-06 0.0821566)
(6.82117e-06 -3.44671e-06 0.0857689)
(-1.57656e-06 -3.51873e-06 0.0683689)
(-4.02016e-08 -4.49333e-06 0.0768351)
(-2.18272e-06 -2.06493e-06 0.0913758)
(1.01641e-05 -1.0786e-06 0.089858)
(7.34824e-06 -3.108e-06 0.0785884)
(-2.57092e-06 -2.96667e-06 0.0898923)
(3.77708e-07 -3.25379e-06 0.0786062)
(7.3209e-06 -5.08707e-06 0.0768118)
(-4.37279e-07 1.27427e-06 0.0714978)
(4.45994e-06 -2.12696e-06 0.0714529)
(1.52907e-06 5.9709e-07 0.0835629)
(1.12968e-06 2.97651e-06 0.0682894)
(2.92864e-06 1.26042e-06 0.0682834)
(-2.04204e-06 -9.53581e-07 0.0682548)
(-7.26649e-07 -2.08678e-06 0.068249)
(7.24937e-06 6.85846e-06 0.0835914)
(8.62725e-06 5.20028e-07 0.0916731)
(-9.40605e-06 -1.04295e-05 0.0962622)
(3.5526e-06 2.25021e-06 0.08753)
(-5.66094e-06 -3.53557e-06 0.0814855)
(1.1961e-05 2.02194e-06 0.0963003)
(5.76555e-07 7.634e-07 0.0815132)
(-6.32676e-06 -7.13984e-06 0.0916429)
(3.92195e-06 5.68821e-06 0.0916667)
(-5.61795e-06 -1.23707e-05 0.0962605)
(4.56439e-06 2.7363e-06 0.0875275)
(-2.22392e-06 -6.75367e-06 0.0814817)
(7.19344e-06 8.97742e-06 0.0962983)
(1.70747e-06 -5.07817e-08 0.0815081)
(-3.56456e-06 -9.58619e-06 0.0916368)
(-6.08705e-06 -5.33944e-06 0.0916419)
(1.6661e-06 2.03698e-06 0.0815111)
(-2.77952e-06 -3.24307e-06 0.0874974)
(1.25511e-05 4.44833e-06 0.0963012)
(-9.38344e-06 -9.25847e-06 0.0962646)
(-5.30786e-06 -2.26893e-06 0.081481)
(9.30355e-06 3.14988e-06 0.0916718)
(-2.37721e-06 -8.56342e-06 0.0916353)
(2.20001e-06 1.78815e-06 0.0815058)
(-1.42076e-06 -3.24384e-06 0.0874954)
(9.27706e-06 1.01352e-05 0.0962981)
(-4.12736e-06 -1.21044e-05 0.0962618)
(-1.7641e-06 -5.6059e-06 0.0814768)
(5.5784e-06 7.46049e-06 0.091665)
(6.03213e-06 4.53104e-06 0.0835882)
(-2.32184e-06 -1.73187e-06 0.0682521)
(-7.89279e-07 -2.86246e-06 0.0682465)
(5.85294e-07 2.29823e-06 0.0682832)
(2.90347e-06 3.18201e-07 0.0682772)
(5.53841e-07 -1.46353e-06 0.0835615)
(1.99926e-05 1.61609e-05 0.0916746)
(1.22761e-07 4.02228e-06 0.0962595)
(3.58287e-06 1.04792e-06 0.0815101)
(1.84857e-05 1.39239e-05 0.087562)
(2.19224e-06 6.54529e-06 0.0916422)
(2.48167e-05 1.8629e-05 0.0962933)
(1.22475e-05 5.4894e-06 0.0815553)
(1.48117e-05 2.20094e-05 0.0916676)
(4.2659e-06 1.27173e-06 0.0962542)
(5.21531e-07 4.23002e-06 0.0815067)
(1.25965e-05 1.95428e-05 0.0875597)
(5.65756e-06 3.6973e-06 0.0916352)
(1.7919e-05 2.67098e-05 0.0962881)
(5.11217e-06 1.28874e-05 0.0815514)
(1.23619e-05 1.37417e-05 0.0836288)
(1.75338e-06 -1.295e-07 0.068314)
(-5.91397e-07 1.75006e-06 0.0683084)
(6.55268e-06 7.8872e-06 0.0835924)
(5.60077e-06 3.5597e-06 0.0683642)
(3.30424e-06 5.40876e-06 0.0683584)
(-3.92188e-06 -6.29746e-08 0.0715001)
(-7.69586e-07 5.23108e-06 0.071463)
(2.03664e-07 -5.72694e-06 0.0714978)
(5.20148e-06 -1.96264e-06 0.0714606)
(1.44247e-06 -6.41832e-07 0.0835658)
(-2.72441e-06 -6.30195e-07 0.0682837)
(-4.93571e-07 -3.25736e-06 0.068277)
(1.23822e-06 2.54641e-06 0.0682521)
(2.9482e-06 3.12923e-07 0.0682455)
(-5.10609e-06 -6.62737e-06 0.0835931)
(1.38856e-06 -6.74737e-06 0.0916783)
(1.03684e-05 1.15719e-05 0.0962604)
(-7.38091e-07 -1.51186e-06 0.087536)
(4.38451e-06 6.5732e-06 0.0814955)
(2.14951e-07 4.34278e-07 0.0815196)
(-1.44707e-06 -9.51943e-06 0.0963002)
(8.62058e-06 8.16719e-06 0.0916475)
(-2.51135e-06 -2.93053e-06 0.091672)
(1.52829e-05 5.53084e-06 0.0962589)
(4.51271e-07 -4.31115e-06 0.0875334)
(8.50702e-06 2.24477e-06 0.08149)
(1.93108e-06 -1.53881e-06 0.081514)
(-5.47187e-06 -7.124e-06 0.096299)
(1.24141e-05 4.40683e-06 0.0916413)
(7.53656e-06 7.88703e-06 0.0916475)
(-7.76275e-07 -7.05635e-07 0.0815121)
(4.97253e-06 4.79426e-06 0.0875036)
(-3.03481e-06 -1.03063e-05 0.0963048)
(3.40917e-06 6.37256e-06 0.081486)
(-9.19828e-07 -7.83338e-06 0.0916776)
(1.03603e-05 1.19187e-05 0.0962664)
(1.1845e-05 3.36664e-06 0.091641)
(-2.11056e-07 -1.6619e-06 0.081506)
(6.27597e-06 1.85243e-06 0.0875003)
(-6.54763e-06 -9.42059e-06 0.096303)
(7.37891e-06 2.09291e-06 0.0814798)
(-4.34443e-06 -4.76174e-06 0.091671)
(1.58442e-05 4.18887e-06 0.0962643)
(-2.33716e-06 -4.95323e-06 0.0835923)
(2.04104e-06 2.73893e-06 0.0682552)
(3.75523e-06 3.3295e-07 0.0682487)
(-2.03194e-06 -8.56549e-08 0.0682832)
(6.37228e-07 -3.37737e-06 0.0682766)
(3.62529e-06 6.03363e-07 0.0835666)
(-6.13484e-07 1.77421e-06 0.071479)
(-4.62876e-06 -2.73506e-06 0.071505)
(1.00781e-06 3.37279e-07 0.0714781)
(-3.37582e-06 -4.11886e-06 0.0715044)
(-8.57443e-06 -8.84462e-06 0.0835984)
(6.32789e-07 1.61572e-06 0.0682569)
(1.5173e-06 5.17441e-07 0.0682502)
(-1.74501e-06 -2.62476e-06 0.0835686)
(-3.17457e-06 -1.87507e-06 0.0682938)
(-2.15519e-06 -2.9675e-06 0.068287)
(-3.26137e-07 2.44315e-06 0.091647)
(-1.26859e-05 -1.89941e-05 0.0963081)
(-1.07833e-06 -3.4863e-06 0.0875087)
(-3.1004e-06 -7.5672e-06 0.0815213)
(1.24482e-06 9.08015e-07 0.0814854)
(2.11723e-06 5.29092e-06 0.0962718)
(-9.91175e-06 -1.49277e-05 0.0916783)
(3.54263e-06 -1.98534e-06 0.0916399)
(-1.81127e-05 -1.60304e-05 0.0963048)
(-3.98129e-06 -1.42742e-06 0.0875058)
(-8.51539e-06 -2.5002e-06 0.081515)
(2.28572e-07 1.57818e-06 0.0814788)
(7.04764e-06 -2.38104e-06 0.0962683)
(-1.4722e-05 -1.07182e-05 0.0916712)
(-5.00368e-06 -1.05947e-05 0.0916771)
(2.35473e-06 4.3404e-06 0.0814813)
(7.23668e-06 9.74876e-06 0.09627)
(-6.60186e-06 -7.80374e-06 0.0875365)
(4.244e-06 5.95246e-06 0.0916467)
(-1.90878e-06 -3.63099e-06 0.0815116)
(-7.3112e-06 -1.363e-05 0.0963072)
(-8.59258e-06 -7.54512e-06 0.0916702)
(4.38884e-06 1.92294e-06 0.0814748)
(1.29589e-05 1.10407e-06 0.0962672)
(-7.85329e-06 -7.69244e-06 0.0875344)
(8.76157e-06 9.93982e-07 0.0916399)
(-4.01244e-06 -1.9454e-06 0.0815053)
(-1.10007e-05 -1.28099e-05 0.0963046)
(-5.35019e-06 -5.0052e-06 0.0835766)
(-3.42638e-06 -3.58464e-06 0.0683153)
(-4.03887e-06 -2.72798e-06 0.0683087)
(2.7108e-07 1.7877e-07 0.0682722)
(-2.15959e-07 8.10162e-07 0.0682655)
(-1.21914e-05 -1.13478e-05 0.0836094)
(-1.12142e-06 5.93657e-06 0.0768066)
(-2.10208e-06 -1.04021e-06 0.0786036)
(-2.55039e-06 -4.82799e-06 0.0898974)
(-1.97366e-07 1.057e-05 0.0913476)
(-1.5503e-06 6.63079e-06 0.0785819)
(-1.77594e-06 9.6419e-06 0.0898625)
(-2.68157e-06 -1.94624e-06 0.0768319)
(-9.29259e-07 -8.62599e-07 0.0683794)
(-1.30776e-06 -1.97628e-06 0.0822111)
(-1.89045e-06 9.07854e-06 0.0857809)
(-2.12019e-06 -2.41747e-06 0.0858191)
(9.19582e-07 4.94998e-06 0.0683475)
(2.7531e-08 4.30669e-06 0.0683312)
(-2.59813e-06 -5.28208e-06 0.0858155)
(-2.80291e-06 1.03271e-05 0.0821674)
(-3.09016e-06 7.36063e-06 0.0857783)
(-1.71855e-06 -1.81034e-06 0.0683668)
(-1.91999e-06 1.22761e-07 0.0768416)
(1.17412e-06 -7.39678e-07 0.091376)
(-2.11978e-07 7.40587e-06 0.0785946)
(4.20542e-07 1.15653e-05 0.0898589)
(-1.23329e-06 1.07662e-06 0.0786143)
(-6.79801e-07 -1.66764e-06 0.089895)
(-7.20984e-08 6.92113e-06 0.0768191)
(-2.61925e-06 -4.94948e-06 0.0768331)
(-2.32813e-06 3.49354e-06 0.078574)
(-4.28913e-06 5.44563e-06 0.0898611)
(-4.24278e-06 -9.61534e-06 0.0913793)
(-4.35691e-06 3.33156e-06 0.0767993)
(-1.632e-06 -4.7298e-06 0.0786013)
(-5.91937e-06 -9.941e-06 0.0898962)
(-2.29648e-06 1.66733e-06 0.0683449)
(-1.91124e-06 5.0314e-06 0.0821567)
(-5.80779e-06 -1.57554e-05 0.0858264)
(2.73242e-07 -4.8938e-06 0.0684027)
(-4.80916e-06 -2.00281e-06 0.0857799)
(-1.71575e-06 -2.90509e-06 0.0683814)
(-3.26297e-06 3.18836e-06 0.0857737)
(-3.73678e-06 -5.71985e-06 0.0821907)
(-3.9254e-06 3.37473e-06 0.0683313)
(-4.69007e-06 -1.00527e-05 0.0858162)
(-3.20485e-06 -1.32034e-07 0.0768061)
(-5.09474e-06 -8.97364e-07 0.0913496)
(-1.20159e-07 -8.73586e-06 0.0786125)
(-7.79162e-06 -1.70857e-05 0.0898998)
(-1.00616e-06 -8.70942e-06 0.0768469)
(-1.21871e-06 -2.20743e-07 0.0785782)
(-7.01698e-06 -7.93716e-07 0.0898629)
(-2.48054e-06 -4.73447e-06 0.0768322)
(-1.88099e-06 3.75269e-06 0.0785748)
(-3.17763e-06 4.99616e-06 0.0898637)
(-3.62623e-06 -9.52423e-06 0.0913802)
(-1.44763e-06 3.40399e-06 0.0768011)
(-1.84604e-06 -4.43136e-06 0.0786019)
(-3.29087e-06 -1.08815e-05 0.0898984)
(2.37163e-08 2.3486e-06 0.0683294)
(-1.0152e-06 5.53336e-06 0.0821502)
(4.15445e-07 -1.5806e-05 0.0858177)
(-1.40824e-06 -2.10803e-06 0.0857752)
(-8.59808e-07 -3.92275e-06 0.0683802)
(-1.73008e-06 -2.74775e-06 0.0683658)
(-2.90016e-06 3.24418e-06 0.0857746)
(2.64046e-08 -5.59422e-06 0.0821874)
(-4.19922e-07 3.31425e-06 0.0683236)
(-1.76741e-06 -1.02299e-05 0.0858134)
(-6.56689e-07 5.43294e-07 0.0768077)
(-4.02626e-06 -8.81317e-07 0.0913508)
(-5.93223e-07 -8.30675e-06 0.0786134)
(-2.36892e-06 -1.83992e-05 0.0899015)
(-1.08069e-06 1.56435e-07 0.0785791)
(-3.13063e-06 -1.93473e-06 0.0898654)
(-1.12329e-06 -7.76362e-06 0.0768461)
(-2.33506e-06 1.9227e-06 0.0835732)
(2.6067e-06 6.20755e-07 0.0682685)
(6.61e-07 -1.22085e-06 0.0682721)
(-1.28825e-06 3.7723e-06 0.0682429)
(-2.79617e-06 2.27266e-06 0.0682464)
(4.75116e-06 -4.39138e-06 0.0835986)
(-2.00925e-06 -4.42529e-06 0.0916763)
(-8.06405e-06 1.36522e-05 0.0962425)
(-2.14332e-06 1.99261e-07 0.0875441)
(-5.77591e-06 7.00612e-06 0.0815097)
(-2.40021e-06 1.63658e-06 0.0815314)
(3.32346e-06 -7.64906e-06 0.0962875)
(-8.54173e-06 1.04567e-05 0.0916408)
(4.4835e-07 -1.85369e-06 0.0916812)
(-1.76925e-05 2.25981e-06 0.0962462)
(-1.19912e-06 -4.74973e-07 0.0875436)
(-7.85097e-06 4.6981e-06 0.0815084)
(3.61886e-06 -9.62091e-06 0.0962906)
(-1.96098e-06 1.83535e-06 0.0815303)
(-1.47922e-05 4.46689e-06 0.0916461)
(-8.96875e-06 1.01075e-05 0.0916483)
(-1.59325e-06 9.82221e-07 0.0815133)
(-9.11822e-06 6.44345e-06 0.08751)
(2.82534e-06 -9.00513e-06 0.096303)
(-5.73673e-06 7.8162e-06 0.0814915)
(-9.43303e-06 1.34192e-05 0.0962578)
(-1.11505e-06 -5.72789e-06 0.0916815)
(-1.3444e-05 5.47412e-06 0.0916532)
(-1.46532e-07 2.16e-06 0.0815126)
(-6.81134e-06 7.00398e-06 0.0875087)
(5.8211e-06 -9.06266e-06 0.0963053)
(-1.70709e-05 2.98514e-06 0.0962609)
(-7.51e-06 5.69924e-06 0.0814903)
(3.2301e-06 -1.73625e-06 0.0916863)
(1.11103e-06 -2.21981e-06 0.0836014)
(-1.82405e-06 4.15054e-06 0.0682592)
(-3.79679e-06 1.8701e-06 0.0682623)
(2.01032e-06 1.38261e-06 0.0682807)
(-6.93595e-07 -1.58289e-06 0.068284)
(-5.24143e-06 3.47768e-06 0.0835753)
(3.36841e-07 -1.26745e-06 0.0715084)
(-4.27222e-06 2.94362e-06 0.0714617)
(-1.39829e-06 2.49985e-06 0.0714558)
(1.84265e-06 -2.37974e-06 0.0714875)
(9.4323e-06 -7.61167e-06 0.0835984)
(-7.64568e-07 2.82517e-06 0.0682355)
(-1.32723e-06 2.60804e-06 0.0682392)
(1.99119e-06 -9.01866e-07 0.083571)
(3.03794e-06 -5.70526e-07 0.0682673)
(2.29702e-06 -8.65773e-07 0.0682713)
(-2.03324e-06 3.58348e-06 0.0916519)
(1.00519e-05 -1.90081e-05 0.096322)
(-3.76073e-06 -3.02301e-06 0.0875053)
(1.97023e-06 -5.00387e-06 0.0815007)
(-4.66982e-06 5.68466e-06 0.0962817)
(-2.84581e-06 3.16268e-06 0.0814685)
(7.81004e-06 -1.3961e-05 0.0916834)
(-2.91322e-06 2.26613e-06 0.0916566)
(1.97586e-05 -1.10711e-05 0.0963225)
(4.79529e-06 5.4674e-06 0.0875051)
(7.20157e-06 5.67301e-07 0.0815012)
(-1.15544e-06 4.97945e-06 0.0814684)
(-6.05417e-06 1.84069e-06 0.0962831)
(1.57261e-05 -6.38735e-06 0.091688)
(2.54947e-06 -9.12985e-06 0.091683)
(-4.57485e-06 6.14641e-06 0.0814754)
(-8.57991e-06 1.09074e-05 0.096272)
(1.30182e-06 -7.01453e-06 0.0875377)
(5.19613e-06 -1.28317e-05 0.0963148)
(-6.66042e-06 7.76446e-06 0.0916512)
(-1.11976e-07 -1.57919e-06 0.0815013)
(8.71723e-06 -3.48088e-06 0.0916876)
(-4.80657e-06 5.70943e-06 0.0814748)
(-1.32687e-05 3.07642e-06 0.0962743)
(8.28008e-06 -5.67959e-07 0.0875385)
(-9.27037e-06 4.67055e-06 0.091656)
(3.29486e-06 1.78486e-06 0.0815012)
(1.13814e-05 -9.5551e-06 0.0963163)
(6.7635e-06 -4.30064e-06 0.0835733)
(3.50807e-06 -2.15086e-06 0.0682803)
(4.12236e-06 -8.35651e-07 0.0682846)
(-3.36715e-07 1.52798e-06 0.0682406)
(3.38457e-07 2.79703e-06 0.0682447)
(1.41508e-05 -1.11327e-05 0.0836038)
(-8.69818e-07 4.23128e-06 0.0714564)
(3.76955e-06 6.36006e-07 0.0714913)
(4.66478e-06 -2.03851e-06 0.0767985)
(-2.1578e-06 -3.02371e-06 0.0785977)
(-7.1378e-06 -4.05112e-06 0.0898961)
(8.98099e-06 -3.43098e-06 0.0913476)
(5.64014e-06 -2.93021e-06 0.0785765)
(7.5925e-06 -3.67495e-06 0.0898615)
(-3.03759e-06 -3.23591e-06 0.0768279)
(-1.49565e-06 -1.86463e-06 0.0683744)
(-2.64189e-06 -1.17683e-06 0.082203)
(7.73773e-06 -3.02258e-06 0.0857787)
(-3.85005e-06 -3.00755e-06 0.0858176)
(4.40375e-06 -3.45115e-08 0.0683366)
(3.58484e-06 -6.42551e-07 0.0683244)
(-7.34031e-06 -2.83249e-06 0.0858138)
(9.08127e-06 -2.51531e-06 0.0821583)
(5.44609e-06 -3.5794e-06 0.085775)
(-2.24732e-06 -2.1963e-06 0.0683667)
(-9.53491e-07 -3.13949e-06 0.0768341)
(-2.16743e-06 -2.21522e-06 0.0913759)
(7.17686e-06 -2.34995e-06 0.0785877)
(9.90768e-06 -1.85842e-06 0.0898595)
(2.5961e-07 -3.01773e-06 0.0786058)
(-3.43073e-06 -2.90975e-06 0.0898954)
(6.2049e-06 -1.58426e-06 0.0768084)
(-5.70074e-06 -2.48808e-06 0.0768316)
(4.54125e-06 -7.37682e-06 0.0898588)
(2.80764e-06 -2.57334e-06 0.0785726)
(-1.12208e-05 -6.18039e-06 0.0913764)
(2.73283e-06 -4.81264e-06 0.0767996)
(-1.11466e-05 -8.07632e-06 0.0898933)
(-5.5168e-06 -1.46322e-06 0.0785989)
(1.46069e-06 -1.57315e-06 0.0683468)
(3.90539e-06 -1.02219e-06 0.0821545)
(-1.67845e-05 -5.24754e-06 0.0858252)
(-5.29774e-06 1.19337e-06 0.0684015)
(-2.87759e-06 -4.80005e-06 0.0857788)
(-3.25195e-06 -1.41966e-06 0.0683784)
(2.6596e-06 -4.59117e-06 0.0857707)
(-6.70008e-06 -3.31074e-06 0.0821891)
(3.27644e-06 -3.99322e-06 0.0683312)
(-1.08627e-05 -5.36543e-06 0.0858132)
(-7.09439e-07 -2.56192e-06 0.0768088)
(-2.44781e-06 -6.18914e-06 0.0913477)
(-1.85686e-05 -7.96512e-06 0.0898976)
(-9.39617e-06 6.73593e-07 0.0786132)
(-9.40723e-06 2.03687e-08 0.076848)
(-2.07889e-06 -8.17658e-06 0.0898613)
(-8.15701e-07 -6.83055e-07 0.0785798)
(-5.6218e-06 -2.24718e-06 0.0768324)
(2.77737e-06 -2.34609e-06 0.0785727)
(2.57564e-06 -4.12308e-06 0.0898616)
(-1.1702e-05 -5.18729e-06 0.0913776)
(2.3167e-06 -1.57926e-06 0.076797)
(-5.44805e-06 -1.90657e-06 0.0785996)
(-1.31329e-05 -3.66884e-06 0.0898966)
(1.86955e-06 3.42625e-07 0.0683333)
(4.3482e-06 -1.85077e-07 0.0821488)
(-1.72862e-05 1.45973e-06 0.08582)
(-3.83976e-06 -6.13349e-07 0.0857748)
(-4.21921e-06 -4.18404e-07 0.0683911)
(-3.07785e-06 -1.68898e-06 0.0683711)
(1.16172e-06 -2.77159e-06 0.0857722)
(-6.80588e-06 6.96929e-07 0.0821857)
(2.77988e-06 -5.49084e-07 0.068322)
(-1.209e-05 -1.35464e-06 0.0858133)
(-3.40835e-07 -7.55849e-08 0.0768078)
(-2.90901e-06 -4.83042e-06 0.0913491)
(-9.18477e-06 -3.2828e-08 0.0786147)
(-2.01439e-05 -1.53059e-06 0.0898999)
(-6.86971e-07 -7.88904e-07 0.0785806)
(-4.01314e-06 -2.86122e-06 0.0898632)
(-8.42484e-06 -2.95165e-07 0.0768504)
(-4.67112e-06 1.44366e-06 0.0768057)
(6.05218e-06 1.55696e-07 0.0898955)
(2.19123e-06 3.47609e-06 0.078604)
(-9.05693e-06 -2.82116e-06 0.0913451)
(-8.66805e-06 -1.68997e-06 0.0898609)
(-5.40893e-06 2.33023e-06 0.0785807)
(3.1638e-06 3.73575e-06 0.0768322)
(1.4057e-06 7.26006e-07 0.0683812)
(2.67525e-06 4.69722e-07 0.0822093)
(-8.85504e-06 -7.64588e-07 0.08578)
(2.86756e-06 4.34039e-09 0.0858191)
(-4.67509e-06 -1.75656e-06 0.0683474)
(-3.64575e-06 3.97342e-07 0.0683346)
(6.33614e-06 2.02444e-06 0.0858169)
(-9.03412e-06 2.75667e-06 0.0821646)
(-6.57783e-06 1.68437e-06 0.0857786)
(2.55196e-06 2.67981e-06 0.068372)
(1.04625e-06 1.45406e-06 0.0768396)
(2.28684e-06 -4.96829e-06 0.0913741)
(-1.10369e-05 -5.27669e-06 0.0898579)
(-6.65726e-06 -3.35351e-07 0.0785907)
(2.42218e-06 -3.64904e-06 0.0898938)
(3.78604e-08 1.37602e-06 0.0786114)
(-6.11636e-06 -1.15067e-06 0.0768161)
(-5.32164e-06 4.61649e-06 0.0768055)
(2.32339e-06 3.32169e-06 0.0786043)
(6.81892e-06 1.87609e-06 0.0898902)
(-7.9736e-06 -2.60699e-06 0.0913444)
(-5.21811e-06 2.83441e-06 0.0785805)
(-6.9974e-06 -1.04687e-06 0.0898563)
(2.40986e-06 4.25396e-06 0.0768337)
(8.83408e-07 2.79141e-06 0.0683729)
(2.8807e-06 2.68228e-06 0.0821949)
(-6.19226e-06 -2.60289e-06 0.0857699)
(4.91176e-06 -2.47317e-07 0.0858076)
(-4.95879e-06 3.18329e-06 0.0683349)
(-4.51537e-06 4.80916e-06 0.0683314)
(6.91802e-06 3.3857e-06 0.0858071)
(-9.39194e-06 2.03822e-06 0.0821561)
(-5.14155e-06 1.05227e-06 0.0857678)
(1.57538e-06 3.74048e-06 0.0683736)
(6.60097e-07 2.06425e-06 0.0768371)
(3.60186e-06 -5.03214e-06 0.0913739)
(-6.48217e-06 3.15388e-07 0.0785894)
(-7.46536e-06 -6.17353e-06 0.0898559)
(2.82065e-07 1.48712e-06 0.0786107)
(4.96145e-06 -3.75249e-06 0.0898902)
(-6.38735e-06 1.60495e-06 0.0768116)
(5.71845e-06 4.78408e-06 0.0768345)
(-3.66426e-06 1.98273e-06 0.0898617)
(-2.78831e-06 3.79295e-06 0.0785768)
(1.0805e-05 3.68084e-06 0.0913763)
(-2.29795e-06 3.15442e-06 0.0768025)
(1.2169e-05 3.35172e-06 0.0898964)
(5.22567e-06 4.2479e-06 0.0786051)
(-1.52672e-06 2.31647e-06 0.0683372)
(-3.58337e-06 3.83024e-06 0.0821507)
(1.69729e-05 2.23238e-06 0.0858219)
(3.33084e-06 3.32532e-06 0.0857786)
(4.72583e-06 3.51893e-06 0.0683884)
(3.59554e-06 3.6485e-06 0.0683732)
(-2.05357e-06 3.17604e-06 0.0857766)
(7.43123e-06 2.25018e-06 0.0821887)
(-2.51747e-06 1.88827e-06 0.0683298)
(1.14535e-05 2.89044e-06 0.0858164)
(2.63613e-07 3.49622e-06 0.0768107)
(1.8649e-06 5.22405e-06 0.0913468)
(1.9376e-05 4.9384e-06 0.0898997)
(8.66547e-06 3.68969e-06 0.0786182)
(3.09509e-06 4.467e-06 0.0898634)
(4.14264e-07 3.89196e-06 0.0785834)
(8.39595e-06 4.37085e-06 0.0768496)