/*--------------------------------*- C++ -*----------------------------------*\
| =========                 |                                                 |
| \\      /  F ield         | OpenFOAM: The Open Source CFD Toolbox           |
|  \\    /   O peration     | Version:  v1906                                 |
|   \\  /    A nd           | Web:      www.OpenFOAM.com                      |
|    \\/     M anipulation  |                                                 |
\*---------------------------------------------------------------------------*/
FoamFile
{
    version     2.0;
    format      ascii;
    class       volScalarField;
    location    "650";
    object      k;
}
// * * * * * * * * * * * * * * * * * * * * * * * * * * * * * * * * * * * * * //

dimensions      [0 2 -2 0 0 0 0];


internalField   nonuniform List<scalar> 
42616
(
3.58933e-05
3.58914e-05
3.58914e-05
3.59957e-05
3.39293e-05
3.38876e-05
3.38875e-05
3.396e-05
3.21569e-05
3.20045e-05
3.20049e-05
3.19454e-05
3.05331e-05
3.02233e-05
3.02241e-05
2.99782e-05
2.90305e-05
2.85462e-05
2.85467e-05
2.81104e-05
2.76321e-05
2.6978e-05
2.69782e-05
2.63775e-05
2.63266e-05
2.55208e-05
2.55209e-05
2.47936e-05
2.51063e-05
2.41739e-05
2.4174e-05
2.33642e-05
2.39655e-05
2.29387e-05
2.29388e-05
2.20906e-05
2.28997e-05
2.18141e-05
2.18141e-05
2.09709e-05
2.19055e-05
2.07976e-05
2.07976e-05
1.99972e-05
2.09794e-05
1.98864e-05
1.98863e-05
1.91639e-05
2.01166e-05
1.90782e-05
1.90782e-05
1.84698e-05
1.93156e-05
1.83699e-05
1.83699e-05
1.79095e-05
1.85757e-05
1.77582e-05
1.77585e-05
1.74781e-05
1.78942e-05
1.72417e-05
1.72421e-05
1.71666e-05
1.72687e-05
1.68193e-05
1.68199e-05
1.69812e-05
1.66973e-05
1.64903e-05
1.64909e-05
1.69376e-05
1.61785e-05
1.62546e-05
1.62553e-05
1.70298e-05
1.57099e-05
1.61122e-05
1.61131e-05
1.72475e-05
1.529e-05
1.60627e-05
1.60639e-05
1.75979e-05
3.63061e-05
3.62907e-05
3.62907e-05
3.63061e-05
3.62907e-05
3.62907e-05
3.6423e-05
3.6423e-05
3.6423e-05
3.6423e-05
3.62907e-05
3.62907e-05
3.63061e-05
3.62907e-05
3.62907e-05
3.63061e-05
3.59958e-05
3.4267e-05
3.58914e-05
3.58914e-05
3.43757e-05
3.43753e-05
3.59957e-05
3.42664e-05
3.58914e-05
3.58914e-05
3.43756e-05
3.43754e-05
3.58915e-05
3.43755e-05
3.43756e-05
3.59958e-05
3.42664e-05
3.58914e-05
3.43754e-05
3.43755e-05
3.42668e-05
3.39602e-05
3.22575e-05
3.38877e-05
3.38873e-05
3.24656e-05
3.24649e-05
3.39596e-05
3.22567e-05
3.38876e-05
3.38873e-05
3.24653e-05
3.24651e-05
3.38876e-05
3.24655e-05
3.24655e-05
3.39598e-05
3.22579e-05
3.38875e-05
3.24658e-05
3.24652e-05
3.22573e-05
3.19458e-05
3.02904e-05
3.20047e-05
3.20038e-05
3.06595e-05
3.06583e-05
3.19447e-05
3.02886e-05
3.20043e-05
3.20041e-05
3.06592e-05
3.06589e-05
3.20044e-05
3.06592e-05
3.06589e-05
3.19462e-05
3.02905e-05
3.20041e-05
3.06599e-05
3.06586e-05
3.02893e-05
2.99793e-05
2.84143e-05
3.02237e-05
3.02224e-05
2.89557e-05
2.89542e-05
2.99774e-05
2.84125e-05
3.02234e-05
3.02231e-05
2.89554e-05
2.89551e-05
3.0223e-05
2.89554e-05
2.89548e-05
2.99793e-05
2.84135e-05
3.02227e-05
2.8956e-05
2.89548e-05
2.84131e-05
2.81115e-05
2.66614e-05
2.85464e-05
2.85449e-05
2.73596e-05
2.73582e-05
2.81097e-05
2.66604e-05
2.85462e-05
2.85459e-05
2.73593e-05
2.7359e-05
2.85455e-05
2.73597e-05
2.73586e-05
2.81107e-05
2.6661e-05
2.85456e-05
2.73599e-05
2.73591e-05
2.66603e-05
2.63789e-05
2.50522e-05
2.69779e-05
2.69765e-05
2.58745e-05
2.58731e-05
2.63768e-05
2.50524e-05
2.69776e-05
2.69773e-05
2.58742e-05
2.58738e-05
2.69769e-05
2.58748e-05
2.58734e-05
2.63772e-05
2.50532e-05
2.69775e-05
2.58749e-05
2.58742e-05
2.50517e-05
2.47957e-05
2.35975e-05
2.55205e-05
2.55191e-05
2.44997e-05
2.44984e-05
2.47931e-05
2.35991e-05
2.55202e-05
2.55198e-05
2.44995e-05
2.4499e-05
2.55193e-05
2.45002e-05
2.44986e-05
2.47933e-05
2.35996e-05
2.55202e-05
2.45003e-05
2.44995e-05
2.35974e-05
2.33666e-05
2.2297e-05
2.41735e-05
2.41722e-05
2.32366e-05
2.32352e-05
2.33635e-05
2.22984e-05
2.41733e-05
2.41727e-05
2.32364e-05
2.32358e-05
2.41723e-05
2.3237e-05
2.32354e-05
2.33637e-05
2.22986e-05
2.41732e-05
2.32371e-05
2.32363e-05
2.22966e-05
2.20926e-05
2.11529e-05
2.29382e-05
2.29369e-05
2.20845e-05
2.20831e-05
2.20893e-05
2.11534e-05
2.29381e-05
2.29374e-05
2.20845e-05
2.20837e-05
2.29371e-05
2.2085e-05
2.20835e-05
2.20904e-05
2.11529e-05
2.2938e-05
2.2085e-05
2.20843e-05
2.11523e-05
2.09728e-05
2.0155e-05
2.18136e-05
2.18121e-05
2.10412e-05
2.10397e-05
2.09704e-05
2.01551e-05
2.18137e-05
2.18128e-05
2.10414e-05
2.10404e-05
2.18126e-05
2.10418e-05
2.10403e-05
2.09718e-05
2.01549e-05
2.18134e-05
2.10418e-05
2.1041e-05
2.01542e-05
1.99988e-05
1.92982e-05
2.07971e-05
2.07955e-05
2.01039e-05
2.01023e-05
1.9997e-05
1.92973e-05
2.07973e-05
2.07963e-05
2.01042e-05
2.01031e-05
2.07962e-05
2.01045e-05
2.01031e-05
1.99979e-05
1.92976e-05
2.07969e-05
2.01045e-05
2.01037e-05
1.92969e-05
1.91651e-05
1.85712e-05
1.98858e-05
1.98841e-05
1.927e-05
1.92683e-05
1.91641e-05
1.85704e-05
1.98862e-05
1.98849e-05
1.92704e-05
1.92692e-05
1.9885e-05
1.92706e-05
1.92692e-05
1.91645e-05
1.85707e-05
1.98856e-05
1.92706e-05
1.92698e-05
1.85701e-05
1.84709e-05
1.79748e-05
1.90776e-05
1.90759e-05
1.8537e-05
1.85354e-05
1.847e-05
1.7974e-05
1.9078e-05
1.90768e-05
1.85375e-05
1.85363e-05
1.90769e-05
1.85376e-05
1.85364e-05
1.84704e-05
1.79743e-05
1.90775e-05
1.85376e-05
1.8537e-05
1.79737e-05
1.79105e-05
1.75123e-05
1.83693e-05
1.83677e-05
1.79016e-05
1.79001e-05
1.79096e-05
1.75113e-05
1.83698e-05
1.83686e-05
1.7902e-05
1.79009e-05
1.83687e-05
1.79021e-05
1.7901e-05
1.791e-05
1.75117e-05
1.83693e-05
1.79022e-05
1.79016e-05
1.75111e-05
1.74792e-05
1.71866e-05
1.77578e-05
1.77563e-05
1.73613e-05
1.73599e-05
1.74781e-05
1.71849e-05
1.77582e-05
1.77571e-05
1.73617e-05
1.73606e-05
1.77572e-05
1.73617e-05
1.73608e-05
1.74786e-05
1.71852e-05
1.77578e-05
1.7362e-05
1.73614e-05
1.7186e-05
1.71679e-05
1.69899e-05
1.72415e-05
1.724e-05
1.69155e-05
1.69142e-05
1.71677e-05
1.69858e-05
1.72417e-05
1.72407e-05
1.69159e-05
1.69149e-05
1.72409e-05
1.69157e-05
1.6915e-05
1.71687e-05
1.69866e-05
1.72414e-05
1.69161e-05
1.69156e-05
1.6989e-05
1.69828e-05
1.69307e-05
1.68194e-05
1.6818e-05
1.6563e-05
1.65618e-05
1.69852e-05
1.69279e-05
1.68195e-05
1.68187e-05
1.65634e-05
1.65626e-05
1.68188e-05
1.6563e-05
1.65626e-05
1.69861e-05
1.6929e-05
1.68193e-05
1.65636e-05
1.65632e-05
1.69295e-05
1.6939e-05
1.69979e-05
1.64906e-05
1.64892e-05
1.6304e-05
1.63027e-05
1.69367e-05
1.69936e-05
1.64906e-05
1.64899e-05
1.63042e-05
1.63035e-05
1.649e-05
1.63037e-05
1.63035e-05
1.69378e-05
1.6995e-05
1.64906e-05
1.63044e-05
1.63041e-05
1.69966e-05
1.70313e-05
1.71967e-05
1.62552e-05
1.62537e-05
1.61382e-05
1.61369e-05
1.70301e-05
1.71879e-05
1.6255e-05
1.62545e-05
1.61383e-05
1.61378e-05
1.62545e-05
1.61376e-05
1.61376e-05
1.70314e-05
1.71892e-05
1.62551e-05
1.61385e-05
1.61382e-05
1.71972e-05
1.72502e-05
1.75273e-05
1.61131e-05
1.61117e-05
1.60654e-05
1.60642e-05
1.72527e-05
1.75122e-05
1.61128e-05
1.61125e-05
1.60653e-05
1.6065e-05
1.61123e-05
1.60645e-05
1.60648e-05
1.72548e-05
1.75151e-05
1.61129e-05
1.60656e-05
1.60654e-05
1.75265e-05
1.75995e-05
1.60637e-05
1.60625e-05
1.76066e-05
1.60635e-05
1.60633e-05
1.60631e-05
1.76087e-05
1.60637e-05
3.73774e-05
3.73766e-05
3.7377e-05
3.7377e-05
3.73702e-05
3.73777e-05
3.73047e-05
3.73768e-05
3.73703e-05
3.73777e-05
3.73769e-05
3.73051e-05
3.73741e-05
3.72971e-05
3.72963e-05
3.58672e-05
4.07557e-05
3.66082e-05
4.50472e-05
5.5495e-05
6.50353e-05
3.58606e-05
4.0748e-05
3.66047e-05
4.50491e-05
3.58933e-05
3.58933e-05
3.58933e-05
3.44002e-05
3.44001e-05
3.44001e-05
3.44002e-05
3.52726e-05
3.56106e-05
3.58931e-05
3.53766e-05
3.60492e-05
3.41864e-05
3.53821e-05
5.5479e-05
6.5032e-05
3.52725e-05
3.58931e-05
3.56094e-05
3.53765e-05
3.60492e-05
3.53821e-05
3.41811e-05
3.66095e-05
3.66102e-05
3.52786e-05
3.40328e-05
3.40313e-05
3.39438e-05
5.12827e-05
3.46731e-05
5.45966e-05
7.66307e-05
8.09317e-05
3.39342e-05
5.12803e-05
3.46636e-05
5.45941e-05
3.39293e-05
3.39292e-05
3.39293e-05
3.25848e-05
3.25847e-05
3.25848e-05
3.25848e-05
3.30461e-05
3.24425e-05
3.39292e-05
3.34068e-05
3.38928e-05
3.15359e-05
3.34674e-05
7.66302e-05
8.09379e-05
3.30451e-05
3.39291e-05
3.24383e-05
3.34068e-05
3.38918e-05
3.34673e-05
3.15383e-05
3.16629e-05
3.16575e-05
3.32597e-05
3.08486e-05
3.08406e-05
3.22313e-05
5.91474e-05
3.29148e-05
6.14462e-05
8.4405e-05
8.50734e-05
3.22245e-05
5.91469e-05
3.29026e-05
6.14469e-05
3.21569e-05
3.21569e-05
3.21569e-05
3.09268e-05
3.09266e-05
3.09268e-05
3.09267e-05
3.07769e-05
3.04868e-05
3.21365e-05
3.15498e-05
3.16296e-05
2.98586e-05
3.17088e-05
8.44099e-05
8.50772e-05
3.0776e-05
3.21365e-05
3.04914e-05
3.15504e-05
3.16283e-05
3.17088e-05
2.98661e-05
3.01737e-05
3.01619e-05
3.12649e-05
2.99584e-05
2.99463e-05
3.07361e-05
6.43424e-05
3.13339e-05
6.57385e-05
8.45962e-05
8.39135e-05
3.0734e-05
6.43409e-05
3.13325e-05
6.57382e-05
3.05329e-05
3.05331e-05
3.05329e-05
2.93958e-05
2.93956e-05
2.93958e-05
2.93956e-05
2.85838e-05
2.91212e-05
3.04671e-05
2.9794e-05
2.94026e-05
2.86539e-05
3.00661e-05
8.45983e-05
8.3914e-05
2.85846e-05
3.04672e-05
2.91215e-05
2.97948e-05
2.94024e-05
3.00661e-05
2.86577e-05
2.99252e-05
2.99164e-05
2.93371e-05
3.00289e-05
3.00201e-05
2.95004e-05
6.73084e-05
2.99829e-05
6.80368e-05
8.21905e-05
8.1224e-05
2.94956e-05
6.73059e-05
2.99827e-05
6.80365e-05
2.90302e-05
2.90305e-05
2.90303e-05
2.79726e-05
2.79723e-05
2.79725e-05
2.79724e-05
2.65493e-05
2.81076e-05
2.8899e-05
2.81438e-05
2.73076e-05
2.77619e-05
2.85217e-05
8.21897e-05
8.12273e-05
2.65514e-05
2.88992e-05
2.81006e-05
2.81442e-05
2.7309e-05
2.85218e-05
2.776e-05
3.04658e-05
3.04612e-05
2.75202e-05
3.07875e-05
3.07841e-05
2.85868e-05
6.8728e-05
2.89281e-05
6.90262e-05
7.94182e-05
7.85419e-05
2.8577e-05
6.87278e-05
2.89253e-05
6.90268e-05
2.76318e-05
2.7632e-05
2.76318e-05
2.66447e-05
2.66445e-05
2.66447e-05
2.66445e-05
2.47241e-05
2.73888e-05
2.74239e-05
2.66033e-05
2.54071e-05
2.71654e-05
2.70692e-05
7.9417e-05
7.85443e-05
2.47257e-05
2.74241e-05
2.73889e-05
2.66034e-05
2.54082e-05
2.70694e-05
2.71643e-05
3.16272e-05
3.16241e-05
2.5837e-05
3.2127e-05
3.21222e-05
2.80427e-05
6.92345e-05
2.82239e-05
6.92972e-05
7.69965e-05
7.62997e-05
2.80301e-05
6.92366e-05
2.82219e-05
6.92991e-05
2.63264e-05
2.63266e-05
2.63264e-05
2.54037e-05
2.54036e-05
2.54037e-05
2.54035e-05
2.31439e-05
2.69838e-05
2.60387e-05
2.51737e-05
2.37407e-05
2.68974e-05
2.57063e-05
7.69953e-05
7.63005e-05
2.31449e-05
2.60389e-05
2.69827e-05
2.51738e-05
2.3741e-05
2.57064e-05
2.68952e-05
3.32776e-05
3.32756e-05
2.4305e-05
3.39098e-05
3.39084e-05
2.78991e-05
6.92788e-05
2.79102e-05
6.92548e-05
7.50743e-05
7.4542e-05
2.78923e-05
6.92808e-05
2.79028e-05
6.92566e-05
2.51062e-05
2.51063e-05
2.5106e-05
2.42434e-05
2.42433e-05
2.42434e-05
2.42431e-05
2.18293e-05
2.6919e-05
2.47423e-05
2.38546e-05
2.23322e-05
2.69621e-05
2.4432e-05
7.50741e-05
7.45434e-05
2.18299e-05
2.47425e-05
2.69164e-05
2.38547e-05
2.23323e-05
2.44321e-05
2.69607e-05
3.52878e-05
3.52875e-05
2.29272e-05
3.60137e-05
3.60132e-05
2.81567e-05
6.91747e-05
2.80203e-05
6.91475e-05
7.36162e-05
7.32188e-05
2.81445e-05
6.91755e-05
2.8022e-05
6.91482e-05
2.39653e-05
2.39654e-05
2.39651e-05
2.31593e-05
2.31591e-05
2.31592e-05
2.31589e-05
2.07896e-05
2.7194e-05
2.35338e-05
2.26473e-05
2.11901e-05
2.73389e-05
2.32449e-05
7.36141e-05
7.32212e-05
2.07894e-05
2.35339e-05
2.71797e-05
2.26473e-05
2.11903e-05
2.32449e-05
2.73459e-05
3.75391e-05
3.75404e-05
2.17052e-05
3.8321e-05
3.83199e-05
2.883e-05
6.90956e-05
2.8552e-05
6.90874e-05
7.25395e-05
7.22486e-05
2.88139e-05
6.90967e-05
2.85554e-05
6.90893e-05
2.28995e-05
2.28996e-05
2.28994e-05
2.21475e-05
2.21472e-05
2.21473e-05
2.21471e-05
2.00194e-05
2.7777e-05
2.24094e-05
2.15499e-05
2.0311e-05
2.80263e-05
2.21413e-05
7.25356e-05
7.22534e-05
2.00197e-05
2.24094e-05
2.77642e-05
2.155e-05
2.03099e-05
2.21412e-05
2.80318e-05
3.99254e-05
3.9924e-05
2.06352e-05
4.07304e-05
4.07289e-05
2.99083e-05
6.90868e-05
2.94921e-05
6.91034e-05
7.17634e-05
7.15571e-05
2.98982e-05
6.90891e-05
2.94997e-05
6.91073e-05
2.19052e-05
2.19053e-05
2.19051e-05
2.12046e-05
2.12043e-05
2.12044e-05
2.12042e-05
1.9512e-05
2.86491e-05
2.13686e-05
2.05601e-05
1.96942e-05
2.89894e-05
2.11215e-05
7.17579e-05
7.15624e-05
1.95096e-05
2.13685e-05
2.86352e-05
2.05601e-05
1.96949e-05
2.11213e-05
2.89894e-05
4.23484e-05
4.23492e-05
1.97083e-05
4.31446e-05
4.31482e-05
3.13926e-05
6.91418e-05
3.08482e-05
6.91778e-05
7.12156e-05
7.1071e-05
3.13822e-05
6.91418e-05
3.08514e-05
6.91856e-05
2.09791e-05
2.09792e-05
2.0979e-05
2.03266e-05
2.03262e-05
2.03264e-05
2.03262e-05
1.92644e-05
2.9775e-05
2.0411e-05
1.96746e-05
1.93431e-05
3.01881e-05
2.01843e-05
7.12093e-05
7.10766e-05
1.92628e-05
2.04109e-05
2.97617e-05
1.96746e-05
1.93412e-05
2.0184e-05
3.01917e-05
4.47245e-05
4.47288e-05
1.89171e-05
4.54893e-05
4.5496e-05
3.32471e-05
6.9241e-05
3.25876e-05
6.92864e-05
7.08331e-05
7.07318e-05
3.3243e-05
6.92424e-05
3.259e-05
6.92946e-05
2.01162e-05
2.01163e-05
2.01161e-05
1.95099e-05
1.95096e-05
1.95097e-05
1.95095e-05
1.92786e-05
3.1112e-05
1.95336e-05
1.88918e-05
1.92536e-05
3.15826e-05
1.93264e-05
7.08261e-05
7.07377e-05
1.92772e-05
1.95334e-05
3.11029e-05
1.88918e-05
1.92521e-05
1.93261e-05
3.15915e-05
4.69824e-05
4.69866e-05
1.82556e-05
4.76964e-05
4.77035e-05
3.54356e-05
6.93558e-05
3.46727e-05
6.94016e-05
7.05641e-05
7.04922e-05
3.54261e-05
6.93579e-05
3.46719e-05
6.94096e-05
1.93152e-05
1.93154e-05
1.93152e-05
1.8755e-05
1.87546e-05
1.87547e-05
1.87546e-05
1.95482e-05
3.26156e-05
1.87334e-05
1.82079e-05
1.94351e-05
3.31345e-05
1.8545e-05
7.05566e-05
7.04985e-05
1.95452e-05
1.87331e-05
3.26154e-05
1.8208e-05
1.94347e-05
1.85448e-05
3.31411e-05
4.90688e-05
4.90768e-05
1.77255e-05
4.97173e-05
4.97282e-05
3.78632e-05
6.94675e-05
3.70312e-05
6.95098e-05
7.03691e-05
7.03164e-05
3.78564e-05
6.94702e-05
3.70306e-05
6.95178e-05
1.85753e-05
1.85754e-05
1.85753e-05
1.8059e-05
1.80586e-05
1.80588e-05
1.80587e-05
2.00676e-05
3.42363e-05
1.80077e-05
1.762e-05
1.98721e-05
3.47835e-05
1.78376e-05
7.03618e-05
7.03212e-05
2.00682e-05
1.80075e-05
3.42318e-05
1.76203e-05
1.9873e-05
1.78375e-05
3.47917e-05
5.09569e-05
5.09658e-05
1.73319e-05
5.15369e-05
5.15453e-05
4.04346e-05
6.95696e-05
3.9571e-05
6.96077e-05
7.0219e-05
7.01789e-05
4.04455e-05
6.95728e-05
3.95644e-05
6.96161e-05
1.78938e-05
1.78939e-05
1.78938e-05
1.74198e-05
1.74194e-05
1.74195e-05
1.74194e-05
2.0833e-05
3.59199e-05
1.73542e-05
1.71269e-05
2.05593e-05
3.64789e-05
1.72019e-05
7.02152e-05
7.01803e-05
2.08358e-05
1.73542e-05
3.59206e-05
1.71273e-05
2.05594e-05
1.72019e-05
3.64863e-05
5.26337e-05
5.2643e-05
1.7072e-05
5.31431e-05
5.31537e-05
4.30544e-05
6.96619e-05
4.21694e-05
6.96971e-05
7.00955e-05
7.00629e-05
4.30719e-05
6.96658e-05
4.21548e-05
6.97058e-05
1.72683e-05
1.72685e-05
1.72684e-05
1.6835e-05
1.68346e-05
1.68348e-05
1.68346e-05
2.18402e-05
3.76226e-05
1.67722e-05
1.67277e-05
2.14862e-05
3.8176e-05
1.66375e-05
7.00943e-05
7.00631e-05
2.1839e-05
1.67723e-05
3.76172e-05
1.67283e-05
2.14878e-05
1.66376e-05
3.81849e-05
5.41039e-05
5.41146e-05
1.6942e-05
5.45484e-05
5.456e-05
4.55943e-05
6.97473e-05
4.47207e-05
6.97799e-05
6.99879e-05
6.99593e-05
4.56107e-05
6.97516e-05
4.47116e-05
6.97889e-05
1.66969e-05
1.6697e-05
1.66969e-05
1.63031e-05
1.63027e-05
1.63029e-05
1.63028e-05
2.3056e-05
3.92987e-05
1.62593e-05
1.64217e-05
2.26374e-05
3.98334e-05
1.61416e-05
6.99873e-05
6.99593e-05
2.30587e-05
1.62595e-05
3.92981e-05
1.64224e-05
2.26368e-05
1.61418e-05
3.98425e-05
5.53856e-05
5.53951e-05
1.69459e-05
5.57715e-05
5.57828e-05
4.79564e-05
6.98272e-05
4.71361e-05
6.98582e-05
6.98901e-05
6.98643e-05
4.79708e-05
6.98321e-05
4.71304e-05
6.98673e-05
1.61781e-05
1.61783e-05
1.61782e-05
1.58222e-05
1.58218e-05
1.58221e-05
1.5822e-05
2.44596e-05
4.09152e-05
1.58142e-05
1.6209e-05
2.39812e-05
4.14231e-05
1.57133e-05
6.98895e-05
6.98639e-05
2.44606e-05
1.58145e-05
4.09102e-05
1.62098e-05
2.39833e-05
1.57136e-05
4.14356e-05
5.64991e-05
5.65084e-05
1.70788e-05
5.68343e-05
5.68451e-05
5.00777e-05
6.99028e-05
4.93388e-05
6.99317e-05
6.97996e-05
6.97758e-05
5.00915e-05
6.99081e-05
4.93348e-05
6.99411e-05
1.57095e-05
1.57097e-05
1.57097e-05
1.53904e-05
1.539e-05
1.53903e-05
1.53902e-05
2.60063e-05
4.24469e-05
1.54365e-05
1.60895e-05
2.5484e-05
4.2924e-05
1.53522e-05
6.97988e-05
6.97753e-05
2.60083e-05
1.54369e-05
4.2442e-05
1.60905e-05
2.54861e-05
1.53527e-05
4.29357e-05
5.74674e-05
5.74771e-05
1.73484e-05
5.7759e-05
5.77711e-05
5.19288e-05
6.99736e-05
5.1282e-05
7.00003e-05
6.97149e-05
6.96929e-05
6.9979e-05
5.12805e-05
7.00103e-05
1.52896e-05
1.52899e-05
1.52899e-05
2.76537e-05
4.3879e-05
1.51258e-05
1.6065e-05
2.70989e-05
4.43326e-05
1.50582e-05
6.97144e-05
2.76561e-05
1.51264e-05
4.38763e-05
2.71042e-05
1.50589e-05
5.83127e-05
5.83223e-05
1.77427e-05
5.85691e-05
5.85797e-05
3.73742e-05
3.72968e-05
3.7297e-05
5.28953e-05
3.71929e-05
5.2911e-05
3.71927e-05
3.70928e-05
3.72385e-05
3.72476e-05
3.71752e-05
3.71752e-05
3.73702e-05
3.73777e-05
3.73048e-05
3.73768e-05
3.73702e-05
3.73777e-05
3.73049e-05
3.73768e-05
3.71722e-05
3.93315e-05
3.71552e-05
3.67214e-05
3.71721e-05
3.93278e-05
3.71546e-05
3.672e-05
3.70957e-05
3.71021e-05
3.59999e-05
3.64209e-05
3.71648e-05
3.71108e-05
3.6305e-05
3.70957e-05
3.71021e-05
3.59992e-05
3.64209e-05
3.71647e-05
3.71108e-05
3.63049e-05
3.73741e-05
3.72965e-05
3.72964e-05
5.29204e-05
3.71927e-05
3.70929e-05
3.72334e-05
3.72313e-05
3.71763e-05
3.71765e-05
5.29087e-05
3.7193e-05
3.73703e-05
3.73777e-05
3.73051e-05
3.73769e-05
3.73703e-05
3.73777e-05
3.73768e-05
3.73049e-05
3.71722e-05
3.93362e-05
3.7156e-05
3.67182e-05
3.70956e-05
3.71021e-05
3.59975e-05
3.64209e-05
3.71649e-05
3.71108e-05
3.63048e-05
3.7172e-05
3.93344e-05
3.7157e-05
3.67196e-05
3.70957e-05
3.71021e-05
3.64209e-05
3.5996e-05
3.71108e-05
3.7165e-05
3.63049e-05
3.73774e-05
3.73766e-05
3.7377e-05
3.7377e-05
3.73774e-05
3.73766e-05
3.7377e-05
3.7377e-05
3.73774e-05
3.73766e-05
3.7377e-05
3.7377e-05
3.71133e-05
3.71098e-05
3.64241e-05
3.64241e-05
3.71125e-05
3.71125e-05
3.64261e-05
3.71133e-05
3.71098e-05
3.64241e-05
3.64241e-05
3.71125e-05
3.71125e-05
3.64261e-05
3.71133e-05
3.71098e-05
3.64241e-05
3.64241e-05
3.71125e-05
3.71125e-05
3.64261e-05
3.71133e-05
3.71098e-05
3.64241e-05
3.64241e-05
3.71125e-05
3.71125e-05
3.64261e-05
3.73703e-05
3.73777e-05
3.73768e-05
3.73048e-05
3.70958e-05
3.71021e-05
3.59978e-05
3.64209e-05
3.71651e-05
3.71108e-05
3.63051e-05
3.71722e-05
3.93359e-05
3.71551e-05
3.67211e-05
3.70957e-05
3.71021e-05
3.64209e-05
3.60028e-05
3.71108e-05
3.7165e-05
3.63051e-05
3.71721e-05
3.93324e-05
3.71551e-05
3.67203e-05
3.73741e-05
3.72965e-05
3.72972e-05
5.29235e-05
3.71927e-05
3.70929e-05
3.72503e-05
3.71964e-05
3.71756e-05
3.7176e-05
5.2898e-05
3.7193e-05
3.73703e-05
3.73777e-05
3.73769e-05
3.73045e-05
3.70957e-05
3.71021e-05
3.64209e-05
3.59936e-05
3.71108e-05
3.71648e-05
3.63051e-05
3.70956e-05
3.71021e-05
3.64209e-05
3.60021e-05
3.71108e-05
3.71652e-05
3.63049e-05
3.71723e-05
3.93408e-05
3.71558e-05
3.67201e-05
3.71721e-05
3.93362e-05
3.71553e-05
3.67197e-05
3.70929e-05
3.72477e-05
3.72463e-05
3.71751e-05
3.71764e-05
5.29014e-05
3.71927e-05
5.29134e-05
3.71925e-05
5.54959e-05
6.50653e-05
5.54659e-05
6.50643e-05
3.66035e-05
3.66092e-05
3.52787e-05
3.4025e-05
3.40318e-05
7.48627e-05
6.77985e-05
7.48502e-05
6.77962e-05
3.49725e-05
3.19607e-05
3.19281e-05
3.34367e-05
3.34426e-05
3.58668e-05
4.07574e-05
3.6609e-05
4.50419e-05
3.52724e-05
3.56096e-05
3.58931e-05
3.53767e-05
3.60493e-05
3.41836e-05
3.53821e-05
3.52724e-05
3.56063e-05
3.58931e-05
3.53765e-05
3.60493e-05
3.41765e-05
3.53821e-05
3.56327e-05
5.01512e-05
4.63452e-05
3.48804e-05
3.56304e-05
5.01461e-05
4.63354e-05
3.48757e-05
3.49973e-05
3.48717e-05
3.26838e-05
3.44015e-05
3.38236e-05
3.48855e-05
3.41739e-05
3.49968e-05
3.48715e-05
3.26762e-05
3.44015e-05
3.38146e-05
3.48855e-05
3.41725e-05
3.65989e-05
3.66028e-05
3.52783e-05
3.40172e-05
3.40145e-05
5.54918e-05
6.5065e-05
7.48473e-05
6.77971e-05
3.4972e-05
3.19591e-05
3.19588e-05
3.34291e-05
3.34332e-05
7.48602e-05
6.77958e-05
3.52709e-05
3.56105e-05
3.58931e-05
3.53767e-05
3.60487e-05
3.41836e-05
3.53821e-05
3.58669e-05
4.07498e-05
3.6608e-05
4.50426e-05
3.52723e-05
3.58931e-05
3.5609e-05
3.53765e-05
3.60489e-05
3.53821e-05
3.41786e-05
3.56248e-05
5.01486e-05
4.6345e-05
3.48725e-05
3.49951e-05
3.48717e-05
3.26786e-05
3.44014e-05
3.38239e-05
3.48854e-05
3.4171e-05
3.5629e-05
5.01438e-05
4.63373e-05
3.48745e-05
3.49963e-05
3.48714e-05
3.44014e-05
3.26766e-05
3.48854e-05
3.38188e-05
3.41718e-05
3.58675e-05
4.07639e-05
3.66095e-05
4.50517e-05
3.52724e-05
3.58931e-05
3.5611e-05
3.53767e-05
3.60491e-05
3.53822e-05
3.41816e-05
3.58672e-05
4.07646e-05
3.66093e-05
4.50505e-05
3.49975e-05
3.48716e-05
3.26879e-05
3.44015e-05
3.38264e-05
3.48855e-05
3.41747e-05
3.56326e-05
5.01524e-05
4.63378e-05
3.48817e-05
3.49975e-05
3.48717e-05
3.44015e-05
3.26784e-05
3.48855e-05
3.38183e-05
3.41748e-05
3.56328e-05
5.01539e-05
4.63434e-05
3.48827e-05
3.66081e-05
3.65532e-05
3.52782e-05
3.40163e-05
3.39365e-05
5.54295e-05
6.50453e-05
7.4848e-05
6.77898e-05
3.49719e-05
3.19376e-05
3.19243e-05
3.3428e-05
3.33513e-05
7.48519e-05
6.7782e-05
3.52731e-05
3.58931e-05
3.561e-05
3.53766e-05
3.6049e-05
3.53822e-05
3.4181e-05
3.58675e-05
4.07555e-05
3.66084e-05
4.50397e-05
3.58697e-05
4.07647e-05
3.66087e-05
4.50523e-05
3.49971e-05
3.48714e-05
3.44015e-05
3.26841e-05
3.48855e-05
3.38199e-05
3.4174e-05
3.49974e-05
3.48716e-05
3.44015e-05
3.26776e-05
3.48855e-05
3.3818e-05
3.41739e-05
3.56305e-05
5.01468e-05
4.63361e-05
3.48807e-05
3.56319e-05
5.01556e-05
4.63432e-05
3.48802e-05
5.54882e-05
6.50618e-05
5.5511e-05
6.50811e-05
3.49723e-05
3.19677e-05
3.19631e-05
3.3443e-05
3.34417e-05
7.48582e-05
6.77963e-05
7.48657e-05
6.78135e-05
7.66431e-05
8.09422e-05
7.66336e-05
8.09365e-05
3.16601e-05
3.16225e-05
3.32598e-05
3.08429e-05
3.08004e-05
8.40428e-05
8.18997e-05
8.40419e-05
8.18942e-05
3.29501e-05
3.02421e-05
3.0212e-05
3.06909e-05
3.06446e-05
3.39371e-05
5.12776e-05
3.46674e-05
5.45927e-05
3.3045e-05
3.24373e-05
3.39292e-05
3.3407e-05
3.38921e-05
3.15313e-05
3.34674e-05
3.30426e-05
3.24278e-05
3.39291e-05
3.34064e-05
3.38903e-05
3.15237e-05
3.34672e-05
3.37704e-05
5.83625e-05
5.55575e-05
3.30608e-05
3.37643e-05
5.83591e-05
5.55524e-05
3.30563e-05
3.27632e-05
3.2933e-05
3.0615e-05
3.25718e-05
3.13583e-05
3.30152e-05
3.19079e-05
3.27609e-05
3.29324e-05
3.0607e-05
3.25715e-05
3.13484e-05
3.3015e-05
3.1906e-05
3.16535e-05
3.16631e-05
3.32593e-05
3.08416e-05
3.08427e-05
7.66393e-05
8.09416e-05
8.40371e-05
8.18915e-05
3.29495e-05
3.02389e-05
3.02386e-05
3.06847e-05
3.06966e-05
8.4044e-05
8.18985e-05
3.30406e-05
3.2431e-05
3.3929e-05
3.34068e-05
3.38886e-05
3.15245e-05
3.34672e-05
3.39345e-05
5.12757e-05
3.46656e-05
5.45947e-05
3.30407e-05
3.39291e-05
3.24307e-05
3.34065e-05
3.38894e-05
3.34672e-05
3.15252e-05
3.37576e-05
5.83614e-05
5.55546e-05
3.30513e-05
3.27581e-05
3.29328e-05
3.06086e-05
3.25714e-05
3.1349e-05
3.30149e-05
3.19029e-05
3.3758e-05
5.83634e-05
5.55532e-05
3.30529e-05
3.27583e-05
3.29326e-05
3.25714e-05
3.06099e-05
3.30149e-05
3.13523e-05
3.19032e-05
3.39448e-05
5.12818e-05
3.46739e-05
5.45978e-05
3.30463e-05
3.39292e-05
3.24304e-05
3.34069e-05
3.38931e-05
3.34674e-05
3.1526e-05
3.39458e-05
5.12859e-05
3.46756e-05
5.45999e-05
3.27638e-05
3.29329e-05
3.06179e-05
3.25718e-05
3.13634e-05
3.30152e-05
3.19081e-05
3.37698e-05
5.83643e-05
5.55561e-05
3.30598e-05
3.27637e-05
3.29329e-05
3.25718e-05
3.06088e-05
3.30152e-05
3.13508e-05
3.19067e-05
3.37699e-05
5.83667e-05
5.55601e-05
3.30574e-05
3.16425e-05
3.1628e-05
3.32599e-05
3.08298e-05
3.08445e-05
7.66369e-05
8.09388e-05
8.40436e-05
8.18953e-05
3.29502e-05
3.02361e-05
3.02521e-05
3.06804e-05
3.06877e-05
8.4043e-05
8.18981e-05
3.30433e-05
3.39292e-05
3.24286e-05
3.34067e-05
3.38917e-05
3.34673e-05
3.15236e-05
3.39446e-05
5.12792e-05
3.46715e-05
5.45952e-05
3.39393e-05
5.12853e-05
3.46711e-05
5.45996e-05
3.27624e-05
3.29331e-05
3.25717e-05
3.06228e-05
3.30152e-05
3.13632e-05
3.19071e-05
3.27601e-05
3.29327e-05
3.25715e-05
3.06054e-05
3.3015e-05
3.13483e-05
3.19034e-05
3.37665e-05
5.8363e-05
5.55537e-05
3.30597e-05
3.37604e-05
5.8365e-05
5.55592e-05
3.30512e-05
7.66413e-05
8.09399e-05
7.66473e-05
8.09421e-05
3.29501e-05
3.02463e-05
3.02345e-05
3.06918e-05
3.06844e-05
8.4043e-05
8.18994e-05
8.40427e-05
8.19013e-05
8.44098e-05
8.50761e-05
8.44086e-05
8.50766e-05
3.01753e-05
3.01465e-05
3.12656e-05
2.99572e-05
2.99437e-05
8.48413e-05
8.50747e-05
8.48456e-05
8.50748e-05
3.09532e-05
2.99068e-05
2.98976e-05
2.994e-05
2.99259e-05
3.22281e-05
5.91429e-05
3.29098e-05
6.14439e-05
3.07777e-05
3.04837e-05
3.21365e-05
3.15501e-05
3.16297e-05
2.98577e-05
3.17088e-05
3.07762e-05
3.04748e-05
3.21362e-05
3.15491e-05
3.16277e-05
2.98508e-05
3.17085e-05
3.21007e-05
6.38835e-05
6.20617e-05
3.14553e-05
3.20971e-05
6.38827e-05
6.20575e-05
3.14527e-05
3.05059e-05
3.11017e-05
2.92115e-05
3.08745e-05
2.9749e-05
3.12883e-05
2.96662e-05
3.05043e-05
3.11006e-05
2.92056e-05
3.08742e-05
2.97403e-05
3.1288e-05
2.96647e-05
3.01683e-05
3.01727e-05
3.12642e-05
2.99534e-05
2.9951e-05
8.44099e-05
8.50766e-05
8.48421e-05
8.50719e-05
3.09516e-05
2.99025e-05
2.99027e-05
2.99346e-05
2.99348e-05
8.48451e-05
8.50751e-05
3.07733e-05
3.04766e-05
3.21361e-05
3.15497e-05
3.16241e-05
2.98552e-05
3.17083e-05
3.22255e-05
5.91465e-05
3.29033e-05
6.14481e-05
3.07738e-05
3.2136e-05
3.04786e-05
3.15495e-05
3.16244e-05
3.17083e-05
2.98547e-05
3.20935e-05
6.38844e-05
6.20615e-05
3.14524e-05
3.05019e-05
3.11014e-05
2.92111e-05
3.0874e-05
2.97417e-05
3.12878e-05
2.9664e-05
3.20947e-05
6.38859e-05
6.20608e-05
3.14519e-05
3.05023e-05
3.11012e-05
3.08741e-05
2.92096e-05
3.12878e-05
2.97456e-05
2.96642e-05
3.22292e-05
5.91468e-05
3.29134e-05
6.14489e-05
3.07743e-05
3.21364e-05
3.04765e-05
3.15497e-05
3.16282e-05
3.17087e-05
2.98524e-05
3.22244e-05
5.91505e-05
3.29104e-05
6.14514e-05
3.05049e-05
3.11014e-05
2.92125e-05
3.08744e-05
2.97511e-05
3.12882e-05
2.9665e-05
3.20985e-05
6.38869e-05
6.20614e-05
3.14518e-05
3.05024e-05
3.11012e-05
3.08741e-05
2.92082e-05
3.1288e-05
2.97402e-05
2.96623e-05
3.20935e-05
6.38893e-05
6.20648e-05
3.1448e-05
3.01707e-05
3.01823e-05
3.12659e-05
2.99553e-05
2.99642e-05
8.44107e-05
8.50776e-05
8.48424e-05
8.50757e-05
3.09535e-05
2.99069e-05
2.99054e-05
2.99384e-05
2.9945e-05
8.48337e-05
8.50761e-05
3.07721e-05
3.21361e-05
3.0473e-05
3.15494e-05
3.16244e-05
3.17083e-05
2.9849e-05
3.22282e-05
5.91471e-05
3.291e-05
6.145e-05
3.222e-05
5.91483e-05
3.2901e-05
6.14481e-05
3.05039e-05
3.11021e-05
3.08744e-05
2.92183e-05
3.12882e-05
2.97545e-05
2.96648e-05
3.05003e-05
3.11009e-05
3.08739e-05
2.92047e-05
3.12877e-05
2.97367e-05
2.96623e-05
3.20966e-05
6.38883e-05
6.20635e-05
3.14525e-05
3.20891e-05
6.38854e-05
6.20614e-05
3.14474e-05
8.44107e-05
8.50773e-05
8.44102e-05
8.50756e-05
3.09524e-05
2.99067e-05
2.98967e-05
2.9939e-05
2.99276e-05
8.48441e-05
8.50756e-05
8.48432e-05
8.50738e-05
8.45986e-05
8.39141e-05
8.45965e-05
8.39149e-05
2.99236e-05
2.99171e-05
2.93383e-05
3.00314e-05
3.00232e-05
8.26258e-05
8.35255e-05
8.26256e-05
8.35236e-05
2.90304e-05
3.03292e-05
3.03222e-05
3.01043e-05
3.01046e-05
3.07344e-05
6.43398e-05
3.13304e-05
6.57391e-05
2.8585e-05
2.912e-05
3.04672e-05
2.97944e-05
2.94042e-05
2.86522e-05
3.00662e-05
2.85836e-05
2.91114e-05
3.04669e-05
2.9793e-05
2.94027e-05
2.86482e-05
3.00658e-05
3.06252e-05
6.70934e-05
6.60633e-05
3.00838e-05
3.0623e-05
6.70952e-05
6.60622e-05
3.00808e-05
2.8335e-05
2.93717e-05
2.81677e-05
2.92823e-05
2.8575e-05
2.96713e-05
2.75436e-05
2.83338e-05
2.93703e-05
2.81667e-05
2.92819e-05
2.8566e-05
2.96709e-05
2.75428e-05
2.99206e-05
2.99208e-05
2.93365e-05
3.00219e-05
3.00318e-05
8.45964e-05
8.39156e-05
8.26246e-05
8.3525e-05
2.90285e-05
3.03206e-05
3.0333e-05
3.01056e-05
3.01058e-05
8.26283e-05
8.35239e-05
2.85837e-05
2.91123e-05
3.04668e-05
2.97941e-05
2.94018e-05
2.86511e-05
3.00658e-05
3.07329e-05
6.43418e-05
3.13325e-05
6.57416e-05
2.85836e-05
3.04668e-05
2.91188e-05
2.97938e-05
2.9402e-05
3.00658e-05
2.86514e-05
3.06262e-05
6.70929e-05
6.60612e-05
3.00801e-05
2.83334e-05
2.93715e-05
2.81702e-05
2.92819e-05
2.85667e-05
2.9671e-05
2.75419e-05
3.06257e-05
6.70973e-05
6.60635e-05
3.00774e-05
2.83333e-05
2.93712e-05
2.9282e-05
2.81684e-05
2.96709e-05
2.85747e-05
2.75419e-05
3.07321e-05
6.43427e-05
3.13325e-05
6.57427e-05
2.85817e-05
3.04668e-05
2.91101e-05
2.97936e-05
2.94003e-05
3.00657e-05
2.86496e-05
3.07315e-05
6.43458e-05
3.13269e-05
6.57437e-05
2.8334e-05
2.93714e-05
2.81708e-05
2.92821e-05
2.85767e-05
2.96711e-05
2.75431e-05
3.06256e-05
6.70986e-05
6.60645e-05
3.00798e-05
2.83321e-05
2.93709e-05
2.92817e-05
2.81665e-05
2.96707e-05
2.85657e-05
2.75414e-05
3.06202e-05
6.7098e-05
6.60665e-05
3.0081e-05
2.99244e-05
2.99201e-05
2.9338e-05
3.00331e-05
3.00138e-05
8.46059e-05
8.39143e-05
8.26279e-05
8.35241e-05
2.903e-05
3.03317e-05
3.03056e-05
3.01083e-05
3.0095e-05
8.26234e-05
8.35266e-05
2.85832e-05
3.04666e-05
2.91076e-05
2.97934e-05
2.93999e-05
3.00656e-05
2.86504e-05
3.07351e-05
6.43451e-05
3.1332e-05
6.57433e-05
3.0735e-05
6.43424e-05
3.13276e-05
6.57415e-05
2.83347e-05
2.93721e-05
2.92822e-05
2.81735e-05
2.96712e-05
2.85724e-05
2.75448e-05
2.83335e-05
2.93707e-05
2.92818e-05
2.81697e-05
2.96707e-05
2.85627e-05
2.75445e-05
3.06272e-05
6.70982e-05
6.60662e-05
3.00819e-05
3.06223e-05
6.70976e-05
6.60642e-05
3.00861e-05
8.45987e-05
8.39153e-05
8.45965e-05
8.39135e-05
2.90292e-05
3.03276e-05
3.03233e-05
3.01108e-05
3.01047e-05
8.26264e-05
8.35272e-05
8.26248e-05
8.35256e-05
8.21909e-05
8.1225e-05
8.21883e-05
8.1224e-05
3.04596e-05
3.04605e-05
2.75214e-05
3.07918e-05
3.07847e-05
7.98414e-05
8.07851e-05
7.98397e-05
8.07813e-05
2.72269e-05
3.13988e-05
3.13894e-05
3.09704e-05
3.09737e-05
2.95007e-05
6.73091e-05
2.99824e-05
6.80398e-05
2.65492e-05
2.81059e-05
2.88992e-05
2.81439e-05
2.7308e-05
2.77578e-05
2.85218e-05
2.65488e-05
2.80957e-05
2.88987e-05
2.81424e-05
2.73072e-05
2.77587e-05
2.85214e-05
2.94157e-05
6.86552e-05
6.81685e-05
2.90012e-05
2.94144e-05
6.86586e-05
6.81705e-05
2.90014e-05
2.633e-05
2.77484e-05
2.74284e-05
2.77842e-05
2.77092e-05
2.81502e-05