/*--------------------------------*- C++ -*----------------------------------*\
| =========                 |                                                 |
| \\      /  F ield         | OpenFOAM: The Open Source CFD Toolbox           |
|  \\    /   O peration     | Version:  v1906                                 |
|   \\  /    A nd           | Web:      www.OpenFOAM.com                      |
|    \\/     M anipulation  |                                                 |
\*---------------------------------------------------------------------------*/
FoamFile
{
    version     2.0;
    format      ascii;
    class       volScalarField;
    location    "650";
    object      nut;
}
// * * * * * * * * * * * * * * * * * * * * * * * * * * * * * * * * * * * * * //

dimensions      [0 2 -1 0 0 0 0];


internalField   nonuniform List<scalar> 
42616
(
0.000233972
0.000233084
0.000233087
0.000233401
0.000232523
0.000227709
0.000227713
0.000223718
0.000230494
0.000220189
0.000220203
0.000208934
0.000227762
0.000211515
0.000211533
0.000193643
0.000224384
0.0002025
0.000202516
0.000179642
0.000220493
0.000193633
0.000193644
0.00016731
0.000216238
0.000185152
0.000185155
0.000156592
0.000211751
0.000177126
0.000177125
0.000147263
0.000207137
0.000169594
0.000169592
0.000138948
0.000202477
0.000162528
0.000162526
0.000131637
0.000197824
0.000155871
0.000155869
0.00012501
0.000193213
0.000149572
0.000149568
0.000118874
0.000188624
0.000143587
0.000143583
0.000113166
0.000184093
0.000137863
0.000137859
0.000107925
0.000179648
0.000132362
0.000132357
0.000102996
0.00017528
0.000127073
0.000127066
9.83275e-05
0.000170975
0.000122015
0.000122007
9.40715e-05
0.00016672
0.000117219
0.000117209
9.0381e-05
0.000162516
0.000112711
0.0001127
8.74173e-05
0.000158338
0.000108554
0.000108543
8.50677e-05
0.000154179
0.000104794
0.000104785
8.33802e-05
0.000234255
0.000234458
0.000234461
0.000234262
0.000234458
0.00023446
0.000234275
0.000234275
0.000234275
0.000234275
0.000234459
0.000234459
0.000234262
0.000234457
0.000234461
0.000234264
0.000233407
0.0002261
0.000233087
0.00023308
0.000229294
0.000229272
0.000233397
0.000226054
0.000233083
0.000233078
0.000229292
0.000229279
0.000233089
0.000229283
0.000229287
0.000233407
0.000226073
0.000233084
0.000229286
0.000229279
0.000226076
0.000223743
0.000212079
0.000227718
0.000227694
0.000222222
0.000222191
0.000223693
0.000212042
0.000227716
0.000227701
0.000222216
0.0002222
0.000227709
0.000222215
0.000222209
0.000223718
0.000212075
0.000227702
0.000222226
0.000222201
0.000212064
0.000208952
0.000196926
0.000220194
0.000220163
0.000213747
0.000213714
0.000208909
0.000196899
0.000220188
0.000220172
0.000213743
0.000213726
0.000220181
0.000213742
0.000213729
0.000208948
0.000196937
0.000220174
0.000213759
0.000213726
0.000196919
0.000193682
0.000182784
0.000211518
0.000211485
0.000204754
0.000204721
0.000193637
0.000182777
0.000211516
0.000211498
0.000204755
0.000204736
0.0002115
0.000204752
0.000204732
0.00019366
0.000182811
0.000211499
0.000204769
0.000204738
0.000182756
0.000179646
0.000170204
0.000202499
0.000202467
0.000195812
0.000195785
0.000179599
0.000170233
0.000202501
0.000202482
0.000195818
0.000195797
0.000202476
0.000195818
0.00019579
0.000179622
0.000170246
0.000202485
0.00019583
0.000195805
0.000170185
0.000167327
0.000159207
0.000193625
0.000193599
0.000187217
0.000187196
0.000167276
0.000159255
0.000193631
0.000193609
0.000187226
0.000187201
0.000193603
0.00018723
0.000187197
0.000167285
0.000159269
0.000193619
0.000187235
0.000187217
0.000159185
0.000156624
0.000149588
0.000185137
0.000185116
0.000179067
0.00017905
0.000156559
0.00014967
0.000185146
0.00018512
0.000179078
0.00017905
0.000185117
0.000179086
0.000179049
0.000156534
0.000149614
0.000185138
0.000179085
0.000179073
0.000149559
0.000147283
0.000141144
0.000177107
0.00017709
0.000171408
0.000171394
0.000147199
0.000141118
0.000177118
0.000177088
0.000171423
0.000171391
0.000177089
0.000171432
0.000171392
0.000147233
0.00014116
0.000177113
0.000171428
0.000171419
0.000141149
0.000139007
0.000133566
0.000169571
0.000169558
0.000164228
0.000164216
0.000139082
0.000133581
0.000169587
0.000169554
0.000164247
0.000164213
0.000169556
0.000164253
0.000164215
0.000138984
0.000133653
0.000169583
0.000164251
0.000164242
0.000133652
0.000131797
0.000126816
0.000162502
0.000162491
0.000157471
0.000157461
0.000131769
0.000126834
0.000162522
0.000162488
0.000157495
0.000157459
0.000162489
0.0001575
0.000157461
0.000131668
0.000126743
0.000162517
0.000157497
0.000157489
0.000126827
0.000125012
0.000120556
0.000155844
0.000155833
0.000151086
0.000151076
0.000125012
0.000120561
0.000155868
0.000155831
0.000151112
0.000151075
0.000155834
0.000151116
0.000151078
0.00012513
0.000120475
0.000155862
0.000151113
0.000151107
0.00012054
0.000118876
0.000114481
0.000149543
0.000149532
0.000145024
0.000145014
0.000118877
0.000114505
0.000149569
0.00014953
0.000145052
0.000145013
0.000149534
0.000145056
0.000145018
0.000118963
0.000114431
0.000149563
0.000145052
0.000145048
0.000114505
0.000113221
0.000108815
0.000143556
0.000143545
0.000139239
0.000139229
0.000113186
0.000108816
0.000143583
0.000143544
0.000139268
0.000139228
0.00014355
0.000139272
0.000139235
0.000113245
0.000108784
0.00014358
0.000139267
0.000139266
0.000108818
0.00010793
0.000103641
0.000137832
0.00013782
0.000133687
0.000133676
0.000107926
0.000103638
0.00013786
0.000137819
0.000133716
0.000133675
0.000137827
0.00013372
0.000133684
0.000107911
0.000103627
0.000137858
0.000133715
0.000133716
0.000103636
0.000103006
9.90286e-05
0.00013233
0.000132317
0.000128343
0.00012833
0.000103004
9.90253e-05
0.000132357
0.000132315
0.000128371
0.00012833
0.000132326
0.000128379
0.000128341
0.000102995
9.90138e-05
0.000132358
0.000128371
0.000128372
9.90334e-05
9.8343e-05
9.48599e-05
0.000127039
0.000127025
0.000123226
0.000123213
9.83501e-05
9.4818e-05
0.000127064
0.000127024
0.000123253
0.000123213
0.000127036
0.000123262
0.000123225
9.83475e-05
9.4818e-05
0.000127067
0.000123254
0.000123255
9.4864e-05
9.40936e-05
9.13219e-05
0.000121981
0.000121968
0.000118337
0.000118319
9.41406e-05
9.11773e-05
0.000122005
0.000121965
0.000118358
0.000118318
0.000121979
0.000118371
0.000118337
9.41283e-05
9.12967e-05
0.000122008
0.000118359
0.000118361
9.13696e-05
9.04623e-05
8.8238e-05
0.000117183
0.00011717
0.000113754
0.000113745
9.05293e-05
8.81101e-05
0.000117204
0.000117167
0.000113784
0.000113742
0.000117181
0.000113794
0.000113757
9.04393e-05
8.82036e-05
0.00011721
0.000113782
0.000113784
8.8304e-05
8.75239e-05
8.57787e-05
0.000112678
0.000112661
0.000109498
0.000109489
8.7584e-05
8.56454e-05
0.000112694
0.000112657
0.000109528
0.000109487
0.000112675
0.000109538
0.000109501
8.75281e-05
8.56945e-05
0.000112702
0.000109529
0.000109527
8.58464e-05
8.5101e-05
8.40451e-05
0.000108521
0.000108504
0.000105628
0.000105618
8.52249e-05
8.37756e-05
0.000108533
0.000108499
0.000105658
0.000105617
0.000108518
0.000105668
0.000105632
8.51643e-05
8.38879e-05
0.000108543
0.00010566
0.000105656
8.39836e-05
8.33694e-05
0.000104764
0.000104743
8.35243e-05
0.000104772
0.000104742
0.000104761
8.34516e-05
0.000104784
0.00023473
0.000234746
0.000234729
0.000234729
0.000235123
0.000234799
0.000234974
0.000234726
0.000235097
0.000234799
0.000234726
0.000234831
0.000234871
0.000233869
0.000233436
0.000104695
3.88212e-05
0.000128454
3.97853e-05
2.19755e-05
2.28514e-05
0.000104579
3.88192e-05
0.000128299
3.97831e-05
0.000233972
0.000233972
0.000233972
0.00023293
0.000232928
0.000232929
0.000232929
0.000206095
9.3089e-05
0.000233967
0.00023196
0.00022239
8.66148e-05
0.000233607
2.19586e-05
2.28501e-05
0.000206093
0.000233968
9.34078e-05
0.000231966
0.000222394
0.000233607
8.66227e-05
4.76587e-05
4.76878e-05
0.000231284
4.36718e-05
4.36694e-05
7.26287e-05
4.24047e-05
8.1357e-05
4.3752e-05
2.47889e-05
2.54745e-05
7.25625e-05
4.24002e-05
8.12823e-05
4.37471e-05
0.000232522
0.000232522
0.000232523
0.000231066
0.000231064
0.000231065
0.000231064
0.000167372
7.89683e-05
0.000232063
0.000225993
0.000180054
7.40024e-05
0.000231352
2.47862e-05
2.54729e-05
0.000167349
0.000232062
7.89452e-05
0.000226
0.000180035
0.000231351
7.41066e-05
3.91149e-05
3.91018e-05
0.000219433
3.65156e-05
3.65136e-05
5.63433e-05
4.55387e-05
6.12486e-05
4.64147e-05
2.60154e-05
2.61181e-05
5.63425e-05
4.55344e-05
6.11977e-05
4.64116e-05
0.000230491
0.000230493
0.000230492
0.00022851
0.000228506
0.000228509
0.000228506
0.000138573
6.70934e-05
0.000228601
0.000218092
0.00014803
6.31277e-05
0.000227488
2.60135e-05
2.61161e-05
0.00013856
0.0002286
6.70565e-05
0.000218107
0.000148009
0.000227486
6.32118e-05
3.32936e-05
3.32724e-05
0.000204457
3.20427e-05
3.20223e-05
4.70579e-05
4.74959e-05
4.99777e-05
4.80086e-05
2.6041e-05
2.59393e-05
4.70013e-05
4.74916e-05
4.99963e-05
4.80049e-05
0.000227758
0.000227761
0.000227758
0.000225283
0.000225277
0.000225282
0.000225276
0.000117519
5.79489e-05
0.000223653
0.000209268
0.000124595
5.51805e-05
0.000222236
2.60383e-05
2.59377e-05
0.000117525
0.000223654
5.79414e-05
0.000209285
0.000124621
0.000222236
5.51968e-05
3.07119e-05
3.06925e-05
0.000189664
3.03788e-05
3.03667e-05
4.14882e-05
4.85788e-05
4.32737e-05
4.88409e-05
2.56719e-05
2.55203e-05
4.14356e-05
4.85733e-05
4.33069e-05
4.88367e-05
0.000224378
0.000224383
0.000224377
0.000221505
0.000221499
0.000221504
0.000221498
0.000102086
5.16749e-05
0.000217685
0.000200255
0.000107447
4.98228e-05
0.000216092
2.56691e-05
2.55186e-05
0.000102101
0.000217688
5.16554e-05
0.00020027
0.00010745
0.000216094
4.98221e-05
3.02971e-05
3.02765e-05
0.000176268
3.04512e-05
3.04409e-05
3.81944e-05
4.90879e-05
3.92434e-05
4.91954e-05
2.5235e-05
2.50952e-05
3.8162e-05
4.90833e-05
3.92755e-05
4.91911e-05
0.000220487
0.000220491
0.000220485
0.000217328
0.000217323
0.000217326
0.00021732
9.04896e-05
4.75491e-05
0.000211176
0.000191471
9.45919e-05
4.6412e-05
0.00020951
2.52325e-05
2.50936e-05
9.04923e-05
0.000211181
4.75642e-05
0.00019148
9.45915e-05
0.000209512
4.63954e-05
3.11163e-05
3.11056e-05
0.00016449
3.15625e-05
3.15481e-05
3.64085e-05
4.92656e-05
3.69522e-05
4.92935e-05
2.48472e-05
2.47345e-05
3.63757e-05
4.92619e-05
3.69522e-05
4.92898e-05
0.000216234
0.000216236
0.00021623
0.000212888
0.000212885
0.000212885
0.00021288
8.15985e-05
4.50338e-05
0.000204487
0.000183099
8.48299e-05
4.43821e-05
0.000202817
2.48448e-05
2.47326e-05
8.16392e-05
0.000204491
4.5013e-05
0.000183101
8.48166e-05
0.000202818
4.43662e-05
3.2685e-05
3.26857e-05
0.000154214
3.33071e-05
3.32884e-05
3.57067e-05
4.92831e-05
3.58342e-05
4.92803e-05
2.45354e-05
2.4447e-05
3.5681e-05
4.92797e-05
3.58223e-05
4.92769e-05
0.000211748
0.000211747
0.000211743
0.000208297
0.000208295
0.000208293
0.00020829
7.47097e-05
4.3647e-05
0.000197852
0.000175196
7.72806e-05
4.33697e-05
0.00019622
2.45324e-05
2.4447e-05
7.46791e-05
0.000197855
4.36541e-05
0.000175194
7.72323e-05
0.00019622
4.33579e-05
3.47195e-05
3.4717e-05
0.000145193
3.54388e-05
3.54302e-05
3.58269e-05
4.92435e-05
3.56464e-05
4.92413e-05
2.42973e-05
2.42286e-05
3.57542e-05
4.92393e-05
3.56742e-05
4.92378e-05
0.000207135
0.000207133
0.000207129
0.000203642
0.00020364
0.000203638
0.000203635
6.92882e-05
4.3168e-05
0.000191405
0.000167786
7.13012e-05
4.30831e-05
0.000189826
2.42917e-05
2.423e-05
6.924e-05
0.000191407
4.3127e-05
0.000167783
7.13574e-05
0.000189824
4.3113e-05
3.70197e-05
3.7027e-05
0.000137298
3.78473e-05
3.78114e-05
3.66195e-05
4.92183e-05
3.62085e-05
4.92162e-05
2.41197e-05
2.40658e-05
3.65386e-05
4.92149e-05
3.62501e-05
4.92131e-05
0.000202475
0.000202472
0.000202469
0.000198984
0.000198981
0.000198979
0.000198976
6.49292e-05
4.33222e-05
0.000185171
0.000160827
6.65896e-05
4.34371e-05
0.00018365
2.41124e-05
2.40701e-05
6.49191e-05
0.000185172
4.3253e-05
0.000160825
6.65863e-05
0.000183647
4.35227e-05
3.94888e-05
3.94928e-05
0.00013016
4.03382e-05
4.03348e-05
3.80238e-05
4.92167e-05
3.74102e-05
4.92216e-05
2.39906e-05
2.39508e-05
3.79594e-05
4.92126e-05
3.74657e-05
4.92201e-05
0.000197822
0.000197819
0.000197816
0.000194359
0.000194357
0.000194354
0.000194351
6.15353e-05
4.40156e-05
0.000179193
0.000154265
6.27828e-05
4.42901e-05
0.000177743
2.39823e-05
2.39551e-05
6.15163e-05
0.000179194
4.39294e-05
0.000154262
6.27902e-05
0.00017774
4.43513e-05
4.20059e-05
4.19934e-05
0.000123597
4.28569e-05
4.28518e-05
3.99731e-05
4.92404e-05
3.92485e-05
4.92453e-05
2.3899e-05
2.3869e-05
3.99422e-05
4.92271e-05
3.92617e-05
4.92508e-05
0.000193211
0.000193207
0.000193205
0.000189772
0.000189769
0.000189766
0.000189764
5.89455e-05
4.51542e-05
0.000173494
0.000148047
5.98808e-05
4.55478e-05
0.000172109
2.389e-05
2.3874e-05
5.89351e-05
0.000173494
4.50659e-05
0.000148043
5.98721e-05
0.000172105
4.56146e-05
4.44913e-05
4.44846e-05
0.000117485
4.53202e-05
4.53193e-05
4.24327e-05
4.92754e-05
4.15822e-05
4.92841e-05
2.38351e-05
2.38118e-05
4.24282e-05
4.92634e-05
4.15912e-05
4.92895e-05
0.000188622
0.000188618
0.000188617
0.000185218
0.000185215
0.000185211
0.000185211
5.70996e-05
4.66579e-05
0.000168043
0.000142134
5.77196e-05
4.71445e-05
0.000166716
2.38253e-05
2.38172e-05
5.71004e-05
0.000168043
4.65786e-05
0.00014213
5.7714e-05
0.000166713
4.72196e-05
4.68817e-05
4.68698e-05
0.000111596
4.76637e-05
4.76652e-05
4.53823e-05
4.93157e-05
4.43678e-05
4.93255e-05
2.379e-05
2.37712e-05
4.53619e-05
4.93049e-05
4.43631e-05
4.93301e-05
0.000184091
0.000184087
0.000184087
0.000180752
0.00018075
0.000180746
0.000180747
5.60084e-05
4.8453e-05
0.000162806
0.000136471
5.62656e-05
4.90398e-05
0.000161527
2.37798e-05
2.3777e-05
5.59389e-05
0.000162807
4.84397e-05
0.000136466
5.63077e-05
0.000161524
4.90565e-05
4.91168e-05
4.91145e-05
0.000106155
4.98214e-05
4.98445e-05
4.86094e-05
4.93551e-05
4.75042e-05
4.93643e-05
2.37571e-05
2.37421e-05
4.85922e-05
4.93453e-05
4.7502e-05
4.9368e-05
0.000179646
0.000179642
0.000179643
0.000176365
0.000176363
0.000176358
0.00017636
5.54737e-05
5.04296e-05
0.000157749
0.000131022
5.55134e-05
5.11729e-05
0.000156512
2.3747e-05
2.37462e-05
5.5425e-05
0.000157751
5.04544e-05
0.000131016
5.55648e-05
0.00015651
5.11442e-05
5.11826e-05
5.11965e-05
0.000101277
5.185e-05
5.18272e-05
5.20102e-05
4.93912e-05
5.08927e-05
4.9399e-05
2.373e-05
2.37206e-05
5.20437e-05
4.93819e-05
5.08837e-05
4.94027e-05
0.000175277
0.000175272
0.000175275
0.000172045
0.000172042
0.000172038
0.000172039
5.55502e-05
5.26009e-05
0.000152845
0.00012579
5.54172e-05
5.33794e-05
0.000151643
2.3724e-05
2.37206e-05
5.55042e-05
0.000152847
5.26366e-05
0.000125783
5.54625e-05
0.000151641
5.33497e-05
5.30633e-05
5.30772e-05
9.68932e-05
5.36671e-05
5.36505e-05
5.55531e-05
4.94236e-05
5.43178e-05
4.94312e-05
2.37078e-05
2.37016e-05
5.55997e-05
4.94149e-05
5.42837e-05
4.94346e-05
0.000170973
0.000170967
0.00017097
0.000167777
0.000167775
0.00016777
0.000167771
5.63124e-05
5.48928e-05
0.000148088
0.000120794
5.59416e-05
5.56078e-05
0.000146922
2.37049e-05
2.37003e-05
5.62293e-05
0.000148092
5.48764e-05
0.000120786
5.6007e-05
0.000146919
5.56272e-05
5.47623e-05
5.47622e-05
9.30645e-05
5.53098e-05
5.53106e-05
5.89785e-05
4.94538e-05
5.77089e-05
4.94606e-05
2.36892e-05
2.36846e-05
5.8985e-05
4.94455e-05
5.7703e-05
4.94639e-05
0.000166719
0.000166712
0.000166716
0.00016356
0.000163558
0.000163552
0.000163554
5.7587e-05
5.71716e-05
0.000143447
0.00011605
5.70643e-05
5.78776e-05
0.000142306
2.3687e-05
2.36826e-05
5.75343e-05
0.00014345
5.71686e-05
0.000116041
5.71072e-05
0.000142305
5.78988e-05
5.63104e-05
5.63076e-05
8.97584e-05
5.67745e-05
5.67759e-05
6.21823e-05
4.94823e-05
6.09595e-05
4.94887e-05
2.36727e-05
2.36682e-05
6.22052e-05
4.94742e-05
6.09459e-05
4.94915e-05
0.000162516
0.000162508
0.000162513
0.000159378
0.000159376
0.00015937
0.000159373
5.94044e-05
5.94282e-05
0.000138905
0.00011162
5.87031e-05
6.01157e-05
0.000137791
2.36705e-05
2.36664e-05
5.93924e-05
0.000138905
5.93768e-05
0.000111611
5.87198e-05
0.000137791
6.01844e-05
5.76949e-05
5.76923e-05
8.69777e-05
5.81134e-05
5.81141e-05
6.50849e-05
4.95088e-05
6.39882e-05
4.95141e-05
2.36572e-05
2.36534e-05
6.51048e-05
4.95012e-05
6.39736e-05
4.95174e-05
0.000158339
0.000158329
0.000158336
0.000155215
0.000155214
0.000155208
0.00015521
6.16354e-05
6.1622e-05
0.000134465
0.000107552
6.08035e-05
6.22832e-05
0.000133382
2.36552e-05
2.36514e-05
6.16452e-05
0.000134464
6.15701e-05
0.000107543
6.08122e-05
0.000133386
6.23508e-05
5.89457e-05
5.89437e-05
8.48937e-05
5.93255e-05
5.93279e-05
6.76922e-05
4.95335e-05
6.66995e-05
4.95378e-05
2.36431e-05
2.36397e-05
4.95267e-05
6.66935e-05
4.95425e-05
0.000154181
0.000154171
0.000154178
6.4198e-05
6.37272e-05
0.000130144
0.000103923
6.32658e-05
6.44334e-05
0.000129101
2.36409e-05
6.41752e-05
0.000130143
6.36834e-05
6.32771e-05
0.000129105
6.00816e-05
6.00794e-05
8.32112e-05
6.04292e-05
6.04286e-05
0.000234872
0.000233466
0.000233412
2.30586e-05
0.000214231
2.30721e-05
0.000214299
0.000234423
5.09434e-05
5.09645e-05
0.000228887
0.000229055
0.000235129
0.000234799
0.000235002
0.000234726
0.00023513
0.0002348
0.000235025
0.000234726
0.000234302
4.04147e-05
0.000211533
0.000147203
0.000234306
4.04142e-05
0.000210861
0.000147066
0.000233826
0.000234471
9.96523e-05
0.000234271
0.000233026
0.000234597
0.000228322
0.000233826
0.000234471
9.95185e-05
0.000234271
0.000233023
0.000234597
0.000228311
0.000234872
0.000233569
0.000233501
2.3074e-05
0.000214235
0.000234427
5.0926e-05
5.10308e-05
0.000230181
0.000230019
2.30668e-05
0.000214086
0.00023513
0.0002348
0.000234912
0.000234727
0.000235128
0.0002348
0.000234726
0.000234938
0.000234288
4.03299e-05
0.000218436
0.000146958
0.000233824
0.000234471
9.81829e-05
0.000234271
0.000233288
0.000234597
0.000228279
0.000234314
4.03045e-05
0.000218543
0.000147096
0.000233829
0.00023447
0.00023427
9.78994e-05
0.000234597
0.00023327
0.000228283
0.00023473
0.000234746
0.000234729
0.000234729
0.00023473
0.000234746
0.000234729
0.000234729
0.00023473
0.000234746
0.000234729
0.000234729
0.000234591
0.000234573
0.000234253
0.000234253
0.000234592
0.000234592
0.000234252
0.000234591
0.000234573
0.000234253
0.000234253
0.000234592
0.000234592
0.000234252
0.000234591
0.000234573
0.000234253
0.000234253
0.000234592
0.000234592
0.000234252
0.000234591
0.000234573
0.000234253
0.000234253
0.000234592
0.000234592
0.000234252
0.000235131
0.000234798
0.000234726
0.000235008
0.000233857
0.000234472
9.94918e-05
0.000234271
0.000233042
0.000234597
0.000228335
0.00023429
4.04168e-05
0.000211554
0.000147002
0.00023382
0.000234472
0.000234271
9.98723e-05
0.000234597
0.000233017
0.00022832
0.000234294
4.04112e-05
0.000211506
0.000147213
0.000234874
0.000233698
0.000233457
2.30791e-05
0.000214011
0.000234423
5.09706e-05
5.10664e-05
0.000229102
0.000229435
2.30896e-05
0.000214109
0.000235134
0.000234798
0.000234726
0.000234973
0.000233971
0.000234472
0.000234271
9.82063e-05
0.000234597
0.000233304
0.00022834
0.000233813
0.000234473
0.000234271
9.97999e-05
0.000234597
0.000233046
0.000228296
0.0002343
4.03293e-05
0.000218386
0.000146969
0.000234308
4.04128e-05
0.000211552
0.000147091
0.000234426
5.10059e-05
5.09709e-05
0.000228949
0.000229957
2.30639e-05
0.000214294
2.30595e-05
0.0002142
2.19833e-05
2.28685e-05
2.1946e-05
2.28691e-05
4.75598e-05
4.75422e-05
0.000231302
4.36518e-05
4.37094e-05
2.45026e-05
2.33187e-05
2.4499e-05
2.33194e-05
0.000229603
3.98963e-05
3.9858e-05
4.27573e-05
4.28135e-05
0.000104715
3.88211e-05
0.000128418
3.9791e-05
0.000206088
9.28119e-05
0.000233967
0.000231969
0.000222388
8.65686e-05
0.000233607
0.000206092
9.26747e-05
0.000233967
0.000231955
0.000222385
8.64178e-05
0.000233607
9.83179e-05
4.19355e-05
4.03251e-05
8.55125e-05
9.82991e-05
4.19317e-05
4.03141e-05
8.54896e-05
0.000199924
0.00023071
8.0204e-05
0.00023267
8.50173e-05
0.000233181
0.000185424
0.000199913
0.000230693
8.01166e-05
0.000232668
8.49217e-05
0.000233181
0.000185392
4.76342e-05
4.76922e-05
0.00023127
4.36597e-05
4.36724e-05
2.19734e-05
2.28694e-05
2.44996e-05
2.33318e-05
0.000229564
3.99199e-05
3.99165e-05
4.27977e-05
4.28074e-05
2.45021e-05
2.33187e-05
0.000205969
9.31649e-05
0.000233966
0.000231968
0.000222313
8.65353e-05
0.000233604
0.000104712
3.88231e-05
0.000128452
3.97831e-05
0.000206073
0.000233966
9.30329e-05
0.000231959
0.000222368
0.000233606
8.64968e-05
9.82165e-05
4.19316e-05
4.03258e-05
8.54354e-05
0.000199809
0.00023071
8.01738e-05
0.000232664
8.50701e-05
0.000233177
0.000185314
9.83139e-05
4.19253e-05
4.03148e-05
8.54853e-05
0.0001999
0.000230699
0.000232667
8.01481e-05
0.00023318
8.50218e-05
0.000185366
0.000104704
3.88283e-05
0.000128432
3.97972e-05
0.000206089
0.000233967
9.28095e-05
0.000231966
0.000222381
0.000233608
8.63825e-05
0.000104709
3.88257e-05
0.000128514
3.97934e-05
0.00019994
0.000230701
8.02653e-05
0.00023267
8.50632e-05
0.000233181
0.000185449
9.83231e-05
4.19344e-05
4.03122e-05
8.55189e-05
0.000199937
0.000230705
0.000232671
8.01016e-05
0.000233182
8.48595e-05
0.00018545
9.83345e-05
4.19337e-05
4.03142e-05
8.55273e-05
4.75558e-05
4.75929e-05
0.000231284
4.3671e-05
4.33711e-05
2.19505e-05
2.28609e-05
2.44973e-05
2.33292e-05
0.00022958
3.98425e-05
3.98063e-05
4.27693e-05
4.24991e-05
2.44986e-05
2.33128e-05
0.0002061
0.000233967
9.27609e-05
0.000231959
0.000222361
0.000233607
8.63607e-05
0.000104695
3.88424e-05
0.000128456
3.97815e-05
0.000104702
3.88262e-05
0.000128459
3.97941e-05
0.00019994
0.000230704
0.000232669
8.02503e-05
0.000233182
8.50925e-05
0.000185437
0.000199944
0.000230698
0.00023267
8.00974e-05
0.000233182
8.48623e-05
0.000185426
9.83427e-05
4.19298e-05
4.03098e-05
8.55221e-05
9.83415e-05
4.19333e-05
4.03133e-05
8.55076e-05
2.1975e-05
2.28675e-05
2.1976e-05
2.28723e-05
0.000229583
3.99317e-05
3.99222e-05
4.2831e-05
4.282e-05
2.4501e-05
2.33175e-05
2.45017e-05
2.33211e-05
2.47919e-05
2.54775e-05
2.47883e-05
2.54737e-05
3.90925e-05
3.90428e-05
0.000219456
3.65125e-05
3.64326e-05
2.59603e-05
2.56277e-05
2.59577e-05
2.56241e-05
0.000216621
3.3861e-05
3.38049e-05
3.57579e-05
3.5688e-05
7.26066e-05
4.24012e-05
8.13343e-05
4.37497e-05
0.000167323
7.89048e-05
0.000232062
0.000226002
0.000180032
7.39684e-05
0.000231351
0.000167285
7.88052e-05
0.000232058
0.000225975
0.000179998
7.39883e-05
0.000231346
6.97059e-05
4.52353e-05
4.41354e-05
6.33015e-05
6.96877e-05
4.52338e-05
4.41322e-05
6.32989e-05
0.000162812
0.000224164
6.82085e-05
0.000229618
7.27501e-05
0.000230536
0.000151791
0.000162779
0.000224135
6.82435e-05
0.000229609
7.26264e-05
0.000230529
0.000151767
3.91003e-05
3.91223e-05
0.000219412
3.65199e-05
3.64993e-05
2.47911e-05
2.54771e-05
2.59586e-05
2.56252e-05
0.000216575
3.38599e-05
3.38506e-05
3.57584e-05
3.57872e-05
2.59605e-05
2.5627e-05
0.000167232
7.88593e-05
0.000232055
0.000225999
0.000179921
7.40207e-05
0.000231342
7.25821e-05
4.2395e-05
8.13239e-05
4.37436e-05
0.000167251
0.000232057
7.88553e-05
0.000225983
0.000179968
0.000231344
7.39233e-05
6.96539e-05
4.5231e-05
4.41299e-05
6.32673e-05
0.000162705
0.000224158
6.82615e-05
0.000229605
7.26468e-05
0.000230526
0.000151714
6.96685e-05
4.52293e-05
4.41258e-05
6.328e-05
0.000162722
0.000224143
0.000229605
6.81743e-05
0.000230525
7.27035e-05
0.000151729
7.26313e-05
4.24028e-05
8.13681e-05
4.37512e-05
0.000167355
0.000232063
7.87923e-05
0.000225991
0.000180058
0.000231353
7.39769e-05
7.26385e-05
4.24031e-05
8.137e-05
4.37504e-05
0.00016281
0.000224156
6.82214e-05
0.00022962
7.27867e-05
0.000230538
0.000151839
6.97153e-05
4.5235e-05
4.41334e-05
6.33026e-05
0.000162821
0.000224152
0.000229619
6.8238e-05
0.000230538
7.26186e-05
0.000151792
6.97124e-05
4.5234e-05
4.41329e-05
6.3298e-05
3.90506e-05
3.9019e-05
0.000219443
3.64738e-05
3.65135e-05
2.47891e-05
2.54749e-05
2.59569e-05
2.56229e-05
0.000216609
3.38345e-05
3.38856e-05
3.57269e-05
3.5752e-05
2.5959e-05
2.56255e-05
0.00016731
0.000232062
7.87844e-05
0.000225983
0.00018003
0.000231349
7.39666e-05
7.26244e-05
4.23994e-05
8.13594e-05
4.37475e-05
7.26066e-05
4.2402e-05
8.13482e-05
4.37493e-05
0.000162784
0.000224165
0.000229618
6.83238e-05
0.000230537
7.27339e-05
0.000151813
0.000162761
0.000224145
0.00022961
6.82264e-05
0.000230532
7.26075e-05
0.000151758
6.97043e-05
4.52313e-05
4.41294e-05
6.33071e-05
6.96775e-05
4.52326e-05
4.41315e-05
6.3276e-05
2.47905e-05
2.54752e-05
2.4791e-05
2.54749e-05
0.000216599
3.38687e-05
3.38466e-05
3.57726e-05
3.57488e-05
2.59589e-05
2.56258e-05
2.5958e-05
2.56254e-05
2.60169e-05
2.61192e-05
2.60143e-05
2.61171e-05
3.3288e-05
3.32423e-05
0.000204472
3.20419e-05
3.20154e-05
2.60886e-05
2.6119e-05
2.60869e-05
2.61168e-05
0.000201206
3.09556e-05
3.09309e-05
3.16517e-05
3.16278e-05
5.63643e-05
4.55362e-05
6.12276e-05
4.64135e-05
0.000138524
6.70681e-05
0.0002286
0.000218097
0.000148057
6.31283e-05
0.000227487
0.000138514
6.69707e-05
0.000228591
0.000218065
0.000148033
6.31553e-05
0.000227478
5.48807e-05
4.73264e-05
4.66468e-05
5.111e-05
5.48541e-05
4.73254e-05
4.66444e-05
5.10954e-05
0.00013544
0.000215944
5.88689e-05
0.000225007
6.21039e-05
0.000226287
0.0001272
0.000135425
0.000215912
5.88267e-05
0.000224998
6.20212e-05
0.000226278
0.000127189
3.32837e-05
3.32983e-05
0.000204436
3.20323e-05
3.20313e-05
2.6017e-05
2.61195e-05
2.60878e-05
2.61178e-05
0.000201164
3.09434e-05
3.09495e-05
3.16466e-05
3.16526e-05
2.6089e-05
2.61192e-05
0.000138468
6.69811e-05
0.000228586
0.000218091
0.000147971
6.31776e-05
0.000227472
5.63309e-05
4.5532e-05
6.12076e-05
4.64094e-05
0.000138483
0.000228585
6.70346e-05
0.000218076
0.000147975
0.000227472
6.31043e-05
5.48385e-05
4.73233e-05
4.66428e-05
5.10631e-05
0.000135387
0.000215939
5.88487e-05
0.000224992
6.2021e-05
0.000226273
0.000127164
5.4859e-05
4.73211e-05
4.66405e-05
5.10575e-05
0.000135387
0.000215923
0.000224992
5.88481e-05
0.000226272
6.20773e-05
0.000127164
5.63408e-05
4.55374e-05
6.12463e-05
4.64148e-05
0.000138509
0.000228598
6.69674e-05
0.000218083
0.00014804
0.000227484
6.31561e-05
5.63464e-05
4.55364e-05
6.12272e-05
4.64137e-05
0.000135398
0.00021594
5.8786e-05
0.000225006
6.21235e-05
0.000226288
0.000127238
5.4879e-05
4.73266e-05
4.66458e-05
5.10572e-05
0.000135406
0.000215929
0.000224997
5.88351e-05
0.000226281
6.20159e-05
0.000127172
5.48449e-05
4.73254e-05
4.66444e-05
5.10787e-05
3.32732e-05
3.32986e-05
0.000204473
3.203e-05
3.20582e-05
2.60158e-05
2.61184e-05
2.60856e-05
2.61159e-05
0.000201203
3.09484e-05
3.09633e-05
3.16371e-05
3.16602e-05
2.6076e-05
2.61183e-05
0.000138489
0.000228589
6.69552e-05
0.000218077
0.000147983
0.000227474
6.31461e-05
5.63412e-05
4.55339e-05
6.12328e-05
4.64124e-05
5.63233e-05
4.55348e-05
6.12053e-05
4.64117e-05
0.000135384
0.000215956
0.000225005
5.88182e-05
0.000226287
6.20742e-05
0.000127187
0.000135379
0.000215924
0.00022499
5.88242e-05
0.000226272
6.20041e-05
0.000127162
5.48719e-05
4.73242e-05
4.66432e-05
5.10678e-05
5.48449e-05
4.73227e-05
4.66424e-05
5.10571e-05
2.60156e-05
2.61181e-05
2.60147e-05
2.61169e-05
0.000201187
3.09475e-05
3.09312e-05
3.16563e-05
3.16357e-05
2.60874e-05
2.61178e-05
2.60861e-05
2.61165e-05
2.60422e-05
2.59405e-05
2.60402e-05
2.59382e-05
3.07024e-05
3.06916e-05
0.000189664
3.03914e-05
3.03682e-05
2.57409e-05
2.58799e-05
2.57383e-05
2.58775e-05
0.00018647
3.02742e-05
3.02321e-05
3.0292e-05
3.0291e-05
4.70133e-05
4.74942e-05
4.99724e-05
4.80083e-05
0.000117531
5.78946e-05
0.000223655
0.000209271
0.000124638
5.52406e-05
0.000222239
0.000117522
5.78581e-05
0.000223645
0.000209238
0.000124629
5.52211e-05
0.000222229
4.62029e-05
4.85011e-05
4.81271e-05
4.39217e-05
4.62323e-05
4.85011e-05
4.81257e-05
4.38782e-05
0.000115414
0.000207014
5.22794e-05
0.000219248
5.44414e-05
0.000220767
0.000109271
0.000115408
0.000206981
5.2271e-05
0.000219237
5.44046e-05
0.000220757
0.000109257
3.06994e-05
3.06977e-05
0.000189639
3.03645e-05
3.04115e-05
2.60423e-05
2.59407e-05
2.57395e-05
2.58789e-05
0.00018643
3.02286e-05
3.02815e-05
3.0297e-05
3.02809e-05
2.57409e-05
2.58795e-05
0.000117509
5.78578e-05
0.000223642
0.00020927
0.000124608
5.52326e-05
0.000222226
4.7002e-05
4.74895e-05
4.99986e-05
4.80033e-05
0.000117508
0.000223641
5.78766e-05
0.000209252
0.000124609
0.000222226
5.52257e-05
4.62369e-05
4.8497e-05
4.81223e-05
4.38705e-05
0.000115393
0.000207014
5.22863e-05
0.000219238
5.44053e-05
0.000220758
0.000109241
4.62366e-05
4.84959e-05
4.81206e-05
4.3865e-05
0.000115391
0.000206995
0.000219237
5.22686e-05
0.000220756
5.44223e-05
0.000109255
4.69932e-05
4.74952e-05
5.00048e-05
4.80088e-05
0.000117504
0.000223643
5.78494e-05
0.000209251
0.000124606
0.000222225
5.52249e-05
4.7001e-05
4.74939e-05
4.99625e-05
4.80076e-05
0.000115398
0.000207012
5.22154e-05
0.000219244
5.44924e-05
0.000220764
0.000109271
4.62405e-05
4.85012e-05
4.81265e-05
4.38696e-05
0.000115393
0.000206993
0.000219233
5.22691e-05
0.000220752
5.44009e-05
0.000109244
4.62247e-05
4.84996e-05
4.81248e-05
4.38773e-05
3.06901e-05
3.0701e-05
0.000189686
3.03867e-05
3.03722e-05
2.60493e-05
2.59396e-05
2.57377e-05
2.58754e-05
0.000186441
3.02625e-05
3.02313e-05
3.02828e-05
3.02873e-05
2.5739e-05
2.58798e-05
0.000117512
0.000223638
5.78398e-05
0.000209252
0.000124598
0.000222222
5.52301e-05
4.70548e-05
4.74934e-05
4.99938e-05
4.80067e-05
4.70504e-05
4.74914e-05
4.99776e-05
4.80052e-05
0.000115406
0.000207029
0.000219245
5.22323e-05
0.000220766
5.44769e-05
0.000109267
0.000115395
0.000206996
0.000219234
5.22804e-05
0.000220752
5.43868e-05
0.000109263
4.62151e-05
4.84988e-05
4.81244e-05
4.39123e-05
4.61998e-05
4.84978e-05
4.81223e-05
4.39221e-05
2.6041e-05
2.59387e-05
2.60399e-05
2.59374e-05
0.00018642
3.02448e-05
3.02483e-05
3.03073e-05
3.02885e-05
2.5739e-05
2.58787e-05
2.57378e-05
2.58774e-05
2.56731e-05
2.55218e-05
2.56703e-05
2.55192e-05
3.02741e-05
3.02821e-05
0.0001763
3.04791e-05
3.04589e-05
2.53035e-05
2.54525e-05
2.53006e-05
2.54496e-05
0.000173273
3.09393e-05
3.08908e-05
3.05645e-05
3.0571e-05
4.14509e-05
4.8578e-05
4.33036e-05
4.88414e-05
0.000102098
5.16249e-05
0.000217688
0.000200253
0.000107422
4.98798e-05
0.000216096
0.000102089
5.15848e-05
0.000217678
0.000200223
0.000107451
4.9878e-05
0.000216085
4.09969e-05
4.90626e-05
4.88881e-05
3.96291e-05
4.10258e-05
4.90629e-05
4.88879e-05
3.95999e-05
0.000100558
0.000198023
4.79811e-05
0.000212835
4.93398e-05
0.000214475
9.58962e-05