/*--------------------------------*- C++ -*----------------------------------*\
| =========                 |                                                 |
| \\      /  F ield         | OpenFOAM: The Open Source CFD Toolbox           |
|  \\    /   O peration     | Version:  v1906                                 |
|   \\  /    A nd           | Web:      www.OpenFOAM.com                      |
|    \\/     M anipulation  |                                                 |
\*---------------------------------------------------------------------------*/
FoamFile
{
    version     2.0;
    format      ascii;
    class       volScalarField;
    location    "650";
    object      p;
}
// * * * * * * * * * * * * * * * * * * * * * * * * * * * * * * * * * * * * * //

dimensions      [0 2 -2 0 0 0 0];


internalField   nonuniform List<scalar> 
42616
(
0.003586
0.0035858
0.0035858
0.00358859
0.00353245
0.00353258
0.00353259
0.00353478
0.00348118
0.00348121
0.00348121
0.00348352
0.00342927
0.00342924
0.00342924
0.00343152
0.0033782
0.00337814
0.00337814
0.00338038
0.00332849
0.00332844
0.00332844
0.00333064
0.00328021
0.00328018
0.00328018
0.00328233
0.00323322
0.0032332
0.0032332
0.00323533
0.00318733
0.00318732
0.00318732
0.00318942
0.00314233
0.00314233
0.00314233
0.0031444
0.00309805
0.00309806
0.00309806
0.0031001
0.00305437
0.00305438
0.00305438
0.0030564
0.0030112
0.00301121
0.00301121
0.00301321
0.0029685
0.00296851
0.00296851
0.00297048
0.00292622
0.00292623
0.00292623
0.00292819
0.00288435
0.00288436
0.00288436
0.00288631
0.00284286
0.00284287
0.00284287
0.0028448
0.00280173
0.00280173
0.00280173
0.00280365
0.00276092
0.00276093
0.00276093
0.00276283
0.00272043
0.00272044
0.00272044
0.00272233
0.00268023
0.00268023
0.00268023
0.00268211
0.00359941
0.00359959
0.00359958
0.0035994
0.0035996
0.00359958
0.0036003
0.0036003
0.00360027
0.00360029
0.00359958
0.00359957
0.00359937
0.00359955
0.00359957
0.00359938
0.00358861
0.00354247
0.00358582
0.00358581
0.00354496
0.00354495
0.0035886
0.00354246
0.00358583
0.00358585
0.00354496
0.00354497
0.0035858
0.00354495
0.00354495
0.0035886
0.00354248
0.0035858
0.00354496
0.00354495
0.00354245
0.0035348
0.00349155
0.00353259
0.00353258
0.00349422
0.00349422
0.00353479
0.00349155
0.00353259
0.00353259
0.00349422
0.00349422
0.00353258
0.00349421
0.00349421
0.0035348
0.00349155
0.00353258
0.00349422
0.00349421
0.00349155
0.00348352
0.00343951
0.00348122
0.00348122
0.00344219
0.00344219
0.00348352
0.00343951
0.00348122
0.00348122
0.00344219
0.00344219
0.00348121
0.00344219
0.00344219
0.00348352
0.00343951
0.00348121
0.00344218
0.00344219
0.00343951
0.00343152
0.00338818
0.00342924
0.00342924
0.0033908
0.0033908
0.00343152
0.00338818
0.00342924
0.00342924
0.0033908
0.0033908
0.00342924
0.0033908
0.0033908
0.00343152
0.00338818
0.00342924
0.0033908
0.0033908
0.00338818
0.00338038
0.00333822
0.00337814
0.00337814
0.00334073
0.00334073
0.00338038
0.00333822
0.00337814
0.00337814
0.00334073
0.00334073
0.00337814
0.00334073
0.00334073
0.00338038
0.00333822
0.00337814
0.00334073
0.00334073
0.00333822
0.00333064
0.0032897
0.00332844
0.00332844
0.00329211
0.00329211
0.00333064
0.0032897
0.00332844
0.00332844
0.00329211
0.00329211
0.00332844
0.00329211
0.00329211
0.00333064
0.0032897
0.00332844
0.00329211
0.00329211
0.0032897
0.00328233
0.00324251
0.00328018
0.00328018
0.00324484
0.00324484
0.00328233
0.00324251
0.00328018
0.00328018
0.00324484
0.00324484
0.00328018
0.00324484
0.00324484
0.00328233
0.00324251
0.00328018
0.00324484
0.00324484
0.00324251
0.00323533
0.00319645
0.0032332
0.0032332
0.0031987
0.0031987
0.00323533
0.00319645
0.0032332
0.0032332
0.0031987
0.0031987
0.0032332
0.0031987
0.0031987
0.00323533
0.00319644
0.0032332
0.0031987
0.0031987
0.00319644
0.00318942
0.00315131
0.00318732
0.00318732
0.0031535
0.0031535
0.00318942
0.00315131
0.00318732
0.00318732
0.00315351
0.0031535
0.00318732
0.00315351
0.00315351
0.00318942
0.00315131
0.00318732
0.00315351
0.00315351
0.00315131
0.0031444
0.00310692
0.00314233
0.00314233
0.00310907
0.00310907
0.0031444
0.00310692
0.00314233
0.00314233
0.00310907
0.00310907
0.00314233
0.00310907
0.00310907
0.0031444
0.00310692
0.00314233
0.00310907
0.00310907
0.00310691
0.0031001
0.00306313
0.00309806
0.00309806
0.00306525
0.00306525
0.0031001
0.00306313
0.00309806
0.00309806
0.00306525
0.00306525
0.00309806
0.00306525
0.00306525
0.0031001
0.00306313
0.00309806
0.00306525
0.00306525
0.00306313
0.0030564
0.00301986
0.00305438
0.00305438
0.00302196
0.00302196
0.0030564
0.00301986
0.00305438
0.00305438
0.00302196
0.00302196
0.00305438
0.00302196
0.00302196
0.0030564
0.00301986
0.00305438
0.00302196
0.00302196
0.00301986
0.00301321
0.00297707
0.00301121
0.00301121
0.00297914
0.00297914
0.00301321
0.00297707
0.00301121
0.00301121
0.00297914
0.00297914
0.00301121
0.00297914
0.00297914
0.00301321
0.00297707
0.00301121
0.00297914
0.00297914
0.00297707
0.00297048
0.00293473
0.00296851
0.00296851
0.00293676
0.00293676
0.00297048
0.00293473
0.00296851
0.00296851
0.00293676
0.00293676
0.00296851
0.00293676
0.00293676
0.00297048
0.00293473
0.00296851
0.00293676
0.00293676
0.00293473
0.00292819
0.0028928
0.00292623
0.00292623
0.00289479
0.00289479
0.00292819
0.0028928
0.00292623
0.00292623
0.00289479
0.00289479
0.00292623
0.00289479
0.00289479
0.00292819
0.0028928
0.00292623
0.00289479
0.00289479
0.0028928
0.00288631
0.00285126
0.00288436
0.00288436
0.00285321
0.00285321
0.0028863
0.00285126
0.00288436
0.00288436
0.00285321
0.00285321
0.00288436
0.00285321
0.00285321
0.00288631
0.00285126
0.00288436
0.00285321
0.00285321
0.00285126
0.0028448
0.00281007
0.00284287
0.00284287
0.00281198
0.00281199
0.0028448
0.00281007
0.00284287
0.00284287
0.00281198
0.00281198
0.00284287
0.00281199
0.00281198
0.0028448
0.00281007
0.00284287
0.00281198
0.00281198
0.00281007
0.00280365
0.00276922
0.00280173
0.00280173
0.0027711
0.0027711
0.00280365
0.00276922
0.00280173
0.00280173
0.0027711
0.0027711
0.00280173
0.0027711
0.0027711
0.00280365
0.00276922
0.00280173
0.0027711
0.0027711
0.00276922
0.00276283
0.00272868
0.00276093
0.00276093
0.00273053
0.00273053
0.00276283
0.00272867
0.00276093
0.00276093
0.00273053
0.00273053
0.00276093
0.00273053
0.00273053
0.00276283
0.00272868
0.00276093
0.00273053
0.00273053
0.00272868
0.00272233
0.00268843
0.00272044
0.00272043
0.00269026
0.00269026
0.00272232
0.00268843
0.00272044
0.00272044
0.00269026
0.00269026
0.00272044
0.00269026
0.00269026
0.00272233
0.00268843
0.00272044
0.00269026
0.00269026
0.00268843
0.00268211
0.00268023
0.00268023
0.00268211
0.00268023
0.00268023
0.00268023
0.00268211
0.00268023
0.00360848
0.00361845
0.00361308
0.00361303
0.00363558
0.00362246
0.00365089
0.00361638
0.00363551
0.00362231
0.00361633
0.00365072
0.00362694
0.00365492
0.00365491
0.00356745
0.00356761
0.00358586
0.00356572
0.0035458
0.00356464
0.00356751
0.0035677
0.00358597
0.00356575
0.00358599
0.003586
0.00358598
0.00354483
0.00354482
0.00354483
0.00354482
0.00356612
0.00358294
0.00358606
0.00357031
0.0035882
0.00356707
0.00357094
0.00354629
0.00356479
0.00356612
0.00358606
0.00358294
0.00357032
0.00358819
0.00357095
0.00356708
0.00357949
0.00357945
0.00356712
0.00356741
0.00356741
0.00351782
0.00353568
0.00353669
0.00351691
0.00353504
0.00351644
0.00351782
0.00353568
0.0035367
0.00351692
0.00353245
0.00353245
0.00353244
0.00349416
0.00349416
0.00349416
0.00349416
0.00351691
0.00353616
0.00353252
0.00351997
0.00353545
0.00351738
0.00351991
0.00353507
0.00351645
0.00351692
0.00353252
0.00353617
0.00351998
0.00353546
0.00351992
0.00351738
0.00353643
0.00353644
0.00351734
0.0035175
0.0035175
0.00346555
0.00348415
0.00348499
0.00346478
0.00348385
0.00346454
0.00346555
0.00348415
0.00348499
0.00346478
0.00348118
0.00348118
0.00348118
0.00344221
0.00344221
0.00344221
0.00344221
0.00346503
0.00348452
0.00348118
0.00346819
0.00348423
0.0034652
0.00346818
0.00348385
0.00346454
0.00346503
0.00348118
0.00348452
0.00346819
0.00348423
0.00346818
0.0034652
0.0034846
0.0034846
0.00346551
0.00346515
0.00346515
0.00341344
0.00343193
0.00343261
0.00341283
0.00343176
0.00341267
0.00341344
0.00343193
0.00343261
0.00341283
0.00342927
0.00342927
0.00342927
0.00339085
0.00339085
0.00339085
0.00339085
0.00341316
0.00343224
0.00342924
0.00341635
0.00343214
0.0034132
0.00341636
0.00343176
0.00341267
0.00341316
0.00342924
0.00343224
0.00341635
0.00343214
0.00341636
0.0034132
0.00343223
0.00343223
0.0034137
0.00341309
0.00341309
0.00336256
0.0033807
0.00338121
0.00336212
0.00338059
0.00336199
0.00336256
0.0033807
0.0033812
0.00336212
0.0033782
0.0033782
0.0033782
0.00334078
0.00334078
0.00334078
0.00334078
0.00336245
0.00338094
0.00337815
0.00336558
0.00338091
0.00336245
0.00336559
0.00338058
0.003362
0.00336245
0.00337815
0.00338094
0.00336558
0.00338091
0.00336559
0.00336245
0.00338093
0.00338093
0.00336302
0.00336233
0.00336233
0.00331321
0.00333092
0.00333128
0.0033129
0.00333084
0.00331278
0.00331321
0.00333092
0.00333128
0.0033129
0.00332849
0.00332849
0.00332849
0.00329215
0.00329215
0.00329215
0.00329215
0.0033132
0.00333111
0.00332844
0.00331624
0.0033311
0.0033132
0.00331624
0.00333083
0.00331279
0.0033132
0.00332844
0.00333111
0.00331624
0.0033311
0.00331624
0.0033132
0.00333112
0.00333112
0.00331378
0.00331308
0.00331308
0.00326532
0.00328261
0.00328286
0.0032651
0.00328253
0.003265
0.00326532
0.00328261
0.00328286
0.0032651
0.00328021
0.00328021
0.00328021
0.00324486
0.00324486
0.00324486
0.00324486
0.00326538
0.00328275
0.00328017
0.00326832
0.00328274
0.00326537
0.00326831
0.00328253
0.003265
0.00326538
0.00328017
0.00328275
0.00326832
0.00328274
0.00326831
0.00326537
0.00328278
0.00328278
0.00326595
0.00326526
0.00326526
0.00321869
0.0032356
0.00323578
0.00321853
0.00323552
0.00321842
0.00321869
0.0032356
0.00323578
0.00321853
0.00323322
0.00323322
0.00323322
0.00319871
0.00319871
0.00319871
0.00319871
0.00321879
0.00323572
0.00323319
0.00322164
0.00323571
0.00321879
0.00322162
0.00323552
0.00321842
0.00321879
0.00323319
0.00323572
0.00322164
0.0032357
0.00322162
0.00321878
0.00323575
0.00323575
0.00321935
0.00321867
0.00321867
0.00317311
0.00318969
0.00318983
0.00317297
0.00318962
0.00317287
0.00317311
0.00318969
0.00318983
0.00317297
0.00318733
0.00318733
0.00318733
0.00315351
0.00315351
0.00315351
0.00315351
0.00317324
0.00318979
0.0031873
0.003176
0.00318978
0.00317323
0.00317598
0.00318962
0.00317287
0.00317324
0.0031873
0.00318979
0.003176
0.00318978
0.00317598
0.00317323
0.00318983
0.00318983
0.00317377
0.00317311
0.00317311
0.00312836
0.00314468
0.00314479
0.00312825
0.00314461
0.00312815
0.00312836
0.00314468
0.00314479
0.00312825
0.00314233
0.00314233
0.00314233
0.00310906
0.00310906
0.00310906
0.00310906
0.00312851
0.00314476
0.00314231
0.0031312
0.00314475
0.0031285
0.00313118
0.00314461
0.00312815
0.00312851
0.00314231
0.00314476
0.0031312
0.00314475
0.00313118
0.0031285
0.0031448
0.0031448
0.00312903
0.00312837
0.00312837
0.00308429
0.00310038
0.00310048
0.00308418
0.00310031
0.00308409
0.00308429
0.00310038
0.00310048
0.00308418
0.00309805
0.00309805
0.00309805
0.00306524
0.00306524
0.00306524
0.00306524
0.00308447
0.00310045
0.00309804
0.00308709
0.00310045
0.00308444
0.00308707
0.00310031
0.00308409
0.00308447
0.00309804
0.00310045
0.00308709
0.00310045
0.00308707
0.00308444
0.00310049
0.00310049
0.00308495
0.0030843
0.0030843
0.00304079
0.00305668
0.00305677
0.00304067
0.00305661
0.00304059
0.00304079
0.00305668
0.00305678
0.00304067
0.00305437
0.00305437
0.00305437
0.00302195
0.00302195
0.00302195
0.00302195
0.00304098
0.00305674
0.00305436
0.00304354
0.00305675
0.00304093
0.00304352
0.00305661
0.00304059
0.00304098
0.00305436
0.00305674
0.00304354
0.00305675
0.00304352
0.00304093
0.00305678
0.00305678
0.00304143
0.00304078
0.00304078
0.00299778
0.00301349
0.00301359
0.00299766
0.00301343
0.00299758
0.00299778
0.00301349
0.00301359
0.00299766
0.0030112
0.0030112
0.0030112
0.00297913
0.00297913
0.00297913
0.00297913
0.00299799
0.00301354
0.0030112
0.00300049
0.00301357
0.00299792
0.00300048
0.00301343
0.00299758
0.00299799
0.0030112
0.00301354
0.00300049
0.00301357
0.00300048
0.00299792
0.00301358
0.00301358
0.0029984
0.00299776
0.00299776
0.00295522
0.00297076
0.00297086
0.00295509
0.00297071
0.00295502
0.00295522
0.00297076
0.00297086
0.00295509
0.0029685
0.0029685
0.0029685
0.00293675
0.00293675
0.00293675
0.00293675
0.00295545
0.00297081
0.0029685
0.0029579
0.00297085
0.00295535
0.00295789
0.00297071
0.00295502
0.00295545
0.0029685
0.00297081
0.0029579
0.00297085
0.00295789
0.00295535
0.00297084
0.00297084
0.00295585
0.00295518
0.00295518
0.00291308
0.00292847
0.00292857
0.00291295
0.00292842
0.00291289
0.00291308
0.00292847
0.00292857
0.00291295
0.00292622
0.00292622
0.00292622
0.00289478
0.00289478
0.00289478
0.00289478
0.00291333
0.00292851
0.00292622
0.00291573
0.00292856
0.0029132
0.00291572
0.00292842
0.00291288
0.00291333
0.00292622
0.00292851
0.00291573
0.00292856
0.00291572
0.0029132
0.00292853
0.00292853
0.00291372
0.00291303
0.00291303
0.00287133
0.00288657
0.00288668
0.0028712
0.00288653
0.00287114
0.00287133
0.00288657
0.00288668
0.0028712
0.00288435
0.00288435
0.00288435
0.0028532
0.0028532
0.0028532
0.0028532
0.0028716
0.00288661
0.00288436
0.00287395
0.00288668
0.00287145
0.00287395
0.00288653
0.00287114
0.0028716
0.00288436
0.00288661
0.00287395
0.00288668
0.00287395
0.00287145
0.00288664
0.00288664
0.00287198
0.00287127
0.00287127
0.00282996
0.00284507
0.00284517
0.00282983
0.00284503
0.00282977
0.00282996
0.00284507
0.00284517
0.00282983
0.00284286
0.00284286
0.00284286
0.00281198
0.00281198
0.00281198
0.00281198
0.00283024
0.00284509
0.00284287
0.00283255
0.00284517
0.00283007
0.00283255
0.00284503
0.00282977
0.00283024
0.00284287
0.00284509
0.00283255
0.00284517
0.00283255
0.00283007
0.00284512
0.00284512
0.00283062
0.00282989
0.00282989
0.00278894
0.00280393
0.00280403
0.00278881
0.00280389
0.00278876
0.00278894
0.00280393
0.00280403
0.00278881
0.00280173
0.00280173
0.00280173
0.00277109
0.00277109
0.00277109
0.00277109
0.00278923
0.00280394
0.00280173
0.0027915
0.00280403
0.00278904
0.0027915
0.00280389
0.00278876
0.00278923
0.00280173
0.00280395
0.0027915
0.00280403
0.0027915
0.00278904
0.00280397
0.00280397
0.0027896
0.00278886
0.00278886
0.00274824
0.00276313
0.00276321
0.00274811
0.00276308
0.00274807
0.00274824
0.00276312
0.00276321
0.00274812
0.00276092
0.00276092
0.00276092
0.00273053
0.00273053
0.00273053
0.00273053
0.00274853
0.00276313
0.00276093
0.00275078
0.00276321
0.00274834
0.00275078
0.00276309
0.00274807
0.00274853
0.00276093
0.00276313
0.00275078
0.00276321
0.00275078
0.00274834
0.00276316
0.00276316
0.00274891
0.00274816
0.00274816
0.00270784
0.00272262
0.00272271
0.00270772
0.00272259
0.0027077
0.00270784
0.00272262
0.00272271
0.00270772
0.00272043
0.00272043
0.00272043
0.00269025
0.00269025
0.00269025
0.00269025
0.00270814
0.00272262
0.00272044
0.00271036
0.0027227
0.00270794
0.00271036
0.00272259
0.00270768
0.00270814
0.00272044
0.00272262
0.00271036
0.00272271
0.00271036
0.00270794
0.00272265
0.00272265
0.00270852
0.00270776
0.00270776
0.00266772
0.00268241
0.00268249
0.0026676
0.00268237
0.00266757
0.00268241
0.00268249
0.00266761
0.00268023
0.00268023
0.00268023
0.00266802
0.00268241
0.00268023
0.00267022
0.00268248
0.00266781
0.00267022
0.00268238
0.00266802
0.00268023
0.00268241
0.00268248
0.00267022
0.00268244
0.00268244
0.0026684
0.00266765
0.00266765
0.00362694
0.00365492
0.00365491
0.00360917
0.00365448
0.00360921
0.00365447
0.00362359
0.00360788
0.00360793
0.00364912
0.00364911
0.00363556
0.00362245
0.00365083
0.00361638
0.00363556
0.00362246
0.00365086
0.00361638
0.00363932
0.00360346
0.00365121
0.00360112
0.00363932
0.00360341
0.00365126
0.00360111
0.00363096
0.00361961
0.00360296
0.00360163
0.00364541
0.00361448
0.00360121
0.00363097
0.00361962
0.00360294
0.00360163
0.00364543
0.00361448
0.00360121
0.00362695
0.00365492
0.00365495
0.00360907
0.00365449
0.0036236
0.00360785
0.00360788
0.00364911
0.00364912
0.00360914
0.00365452
0.00363533
0.00362244
0.00365084
0.0036163
0.00363511
0.00362223
0.00361626
0.00364956
0.00363909
0.00360352
0.00365121
0.00360127
0.00363082
0.0036196
0.00360302
0.00360164
0.00364542
0.00361442
0.00360132
0.00363897
0.00360398
0.00364998
0.00360137
0.00363069
0.00361943
0.00360165
0.00360317
0.00361439
0.00364442
0.00360138
0.00360849
0.00361847
0.00361308
0.00361308
0.00360848
0.00361832
0.00361301
0.00361304
0.00360848
0.00361846
0.00361308
0.00361305
0.00360717
0.00361609
0.00359868
0.00359868
0.00361142
0.00361138
0.00359704
0.00360718
0.0036161
0.00359868
0.00359867
0.00361143
0.00361143
0.00359704
0.00360717
0.00361598
0.00359867
0.00359865
0.00361136
0.00361139
0.00359703
0.00360717
0.00361609
0.00359867
0.00359866
0.00361143
0.0036114
0.00359704
0.00363558
0.00362245
0.00361638
0.00365086
0.00363098
0.00361962
0.00360296
0.00360162
0.00364544
0.00361448
0.00360119
0.00363934
0.00360345
0.00365128
0.00360109
0.00363098
0.00361961
0.00360162
0.00360294
0.00361448
0.00364544
0.00360119
0.00363934
0.00360343
0.00365127
0.00360108
0.00362673
0.00365388
0.00365478
0.00360969
0.0036535
0.00362341
0.00360814
0.00360786
0.00364833
0.00364898
0.0036091
0.00365436
0.00363553
0.00362245
0.00361635
0.00365085
0.00363093
0.00361949
0.00360159
0.00360295
0.00361443
0.00364531
0.00360117
0.00363094
0.0036196
0.0036016
0.00360296
0.00361445
0.00364541
0.00360118
0.00363929
0.00360345
0.00365112
0.00360107
0.0036393
0.00360347
0.00365124
0.00360108
0.00362359
0.0036079
0.00360789
0.00364912
0.0036491
0.0036091
0.00365451
0.00360916
0.00365449
0.00354584
0.00356462
0.00354598
0.00356464
0.00357945
0.00357951
0.00356717
0.00356744
0.00356745
0.00354145
0.003558
0.00354146
0.00355808
0.00355959
0.00354297
0.00354297
0.00356067
0.0035607
0.00356744
0.00356758
0.00358585
0.00356572
0.00356614
0.00358297
0.00358608
0.00357032
0.00358823
0.00356708
0.00357096
0.00356614
0.00358295
0.00358607
0.00357031
0.00358822
0.00356707
0.00357095
0.0035611
0.00354214
0.00355914
0.00354316
0.0035611
0.00354213
0.00355914
0.00354316
0.00355974
0.00355729
0.00354271
0.00354493
0.00356043
0.00355748
0.00354197
0.00355974
0.00355728
0.0035427
0.00354493
0.00356043
0.00355747
0.00354197
0.00357943
0.00357944
0.00356716
0.00356742
0.00356743
0.00354591
0.00356464
0.00354144
0.00355801
0.00355957
0.00354296
0.00354297
0.00356065
0.00356066
0.00354146
0.00355802
0.00356619
0.00358301
0.0035861
0.00357034
0.00358832
0.0035671
0.00357098
0.00356753
0.00356801
0.00358603
0.00356584
0.0035662
0.00358611
0.00358312
0.00357034
0.00358836
0.00357098
0.00356715
0.00356115
0.00354215
0.0035592
0.00354318
0.00355978
0.0035573
0.00354271
0.00354494
0.00356046
0.00355749
0.00354198
0.00356115
0.00354215
0.00355922
0.00354319
0.00355979
0.00355731
0.00354494
0.00354271
0.00355749
0.00356048
0.00354198
0.00356743
0.00356757
0.00358581
0.00356573
0.00356613
0.00358606
0.00358296
0.0035703
0.00358821
0.00357094
0.00356706
0.00356743
0.00356761
0.00358582
0.00356571
0.00355973
0.00355728
0.0035427
0.00354492
0.00356042
0.00355746
0.00354196
0.00356108
0.00354213
0.00355913
0.00354315
0.00355973
0.00355728
0.00354492
0.00354269
0.00355746
0.00356042
0.00354196
0.00356108
0.00354213
0.00355911
0.00354315
0.00357968
0.00357947
0.00356716
0.0035675
0.00356744
0.00354596
0.0035646
0.00354147
0.00355811
0.00355959
0.00354299
0.00354298
0.00356072
0.00356068
0.00354145
0.00355801
0.00356612
0.00358606
0.00358294
0.0035703
0.00358819
0.00357094
0.00356706
0.00356743
0.00356764
0.0035858
0.00356571
0.00356743
0.00356758
0.0035858
0.00356571
0.00355973
0.00355729
0.00354492
0.0035427
0.00355747
0.00356044
0.00354196
0.00355973
0.00355728
0.00354492
0.00354269
0.00355746
0.00356041
0.00354196
0.00356108
0.00354214
0.00355916
0.00354315
0.00356108
0.00354211
0.00355912
0.00354315
0.00354596
0.00356459
0.00354592
0.0035646
0.00355956
0.00354296
0.00354295
0.00356065
0.00356065
0.00354144
0.00355798
0.00354142
0.003558
0.00353505
0.00351645
0.00353505
0.00351645
0.00353645
0.00353645
0.00351734
0.00351751
0.00351752
0.00349062
0.00350978
0.00349062
0.00350978
0.00350943
0.00349141
0.00349142
0.00351078
0.00351078
0.00351782
0.00353568
0.00353669
0.00351691
0.00351691
0.00353617
0.00353252
0.00351998
0.00353546
0.00351738
0.00351992
0.00351691
0.00353616
0.00353252
0.00351997
0.00353546
0.00351738
0.00351991
0.00351111
0.00349095
0.00351021
0.00349179
0.00351112
0.00349095
0.00351021
0.00349179
0.00351015
0.00350716
0.00349139
0.00349417
0.00351062
0.0035071
0.00349111
0.00351015
0.00350716
0.00349139
0.00349417
0.00351062
0.0035071
0.00349111
0.00353644
0.00353645
0.00351734
0.00351751
0.00351751
0.00353506
0.00351644
0.00349062
0.00350978
0.00350942
0.00349141
0.00349141
0.00351078
0.00351078
0.00349062
0.00350978
0.00351692
0.00353617
0.00353253
0.00351998
0.00353547
0.00351739
0.00351992
0.00351782
0.00353569
0.00353671
0.00351691
0.00351692
0.00353253
0.00353617
0.00351998
0.00353547
0.00351992
0.00351738
0.00351112
0.00349095
0.00351021
0.00349179
0.00351016
0.00350716
0.00349139
0.00349417
0.00351062
0.00350711
0.00349111
0.00351112
0.00349095
0.00351021
0.00349179
0.00351016
0.00350716
0.00349417
0.00349139
0.00350711
0.00351062
0.00349111
0.00351781
0.00353568
0.00353668
0.00351691
0.00351691
0.00353251
0.00353615
0.00351997
0.00353545
0.00351991
0.00351738
0.00351781
0.00353566
0.00353668
0.0035169
0.00351015
0.00350715
0.00349139
0.00349417
0.00351061
0.0035071
0.0034911
0.00351111
0.00349094
0.0035102
0.00349179
0.00351015
0.00350715
0.00349417
0.00349139
0.0035071
0.00351061
0.0034911
0.00351111
0.00349094
0.0035102
0.00349179
0.00353646
0.00353646
0.00351735
0.00351752
0.00351752
0.00353505
0.00351645
0.00349062
0.00350978
0.00350943
0.00349142
0.00349141
0.00351078
0.00351078
0.00349062
0.00350978
0.00351691
0.00353252
0.00353615
0.00351997
0.00353545
0.00351991
0.00351738
0.00351782
0.00353569
0.0035367
0.00351692
0.00351782
0.00353567
0.0035367
0.00351691
0.00351016
0.00350716
0.00349417
0.00349139
0.0035071
0.00351062
0.0034911
0.00351015
0.00350715
0.00349417
0.00349139
0.0035071
0.00351061
0.0034911
0.00351112
0.00349094
0.00351021
0.00349179
0.00351112
0.00349094
0.0035102
0.00349179
0.00353502
0.00351644
0.00353504
0.00351644
0.00350942
0.00349141
0.00349141
0.00351077
0.00351078
0.00349062
0.00350977
0.00349062
0.00350978
0.00348385
0.00346454
0.00348385
0.00346454
0.0034846
0.0034846
0.00346552
0.00346515
0.00346515
0.0034385
0.00345776
0.0034385
0.00345776
0.00345748
0.00343899
0.00343899
0.00345834
0.00345834
0.00346555
0.00348415
0.00348499
0.00346478
0.00346504
0.00348452
0.00348118
0.0034682
0.00348423
0.0034652
0.00346818
0.00346504
0.00348452
0.00348118
0.0034682
0.00348423
0.0034652
0.00346818
0.00345874
0.00343869
0.00345798
0.00343938
0.00345874
0.00343868
0.00345797
0.00343938
0.00345814
0.00345518
0.00343909
0.00344219
0.00345832
0.00345517
0.003439
0.00345814
0.00345518
0.00343909
0.00344219
0.00345832
0.00345517
0.003439
0.0034846
0.0034846
0.00346551
0.00346515
0.00346515
0.00348385
0.00346454
0.0034385
0.00345776
0.00345747
0.00343899
0.00343899
0.00345834
0.00345834
0.0034385
0.00345776
0.00346503
0.00348452
0.00348119
0.0034682
0.00348423
0.0034652
0.00346818
0.00346555
0.00348415
0.00348499
0.00346478
0.00346504
0.00348119
0.00348452
0.0034682
0.00348423
0.00346818
0.0034652
0.00345875
0.00343869
0.00345798
0.00343938
0.00345814
0.00345518
0.00343909
0.00344219
0.00345832
0.00345517
0.003439
0.00345875
0.00343868
0.00345797
0.00343938
0.00345814
0.00345518
0.00344219
0.00343909
0.00345517
0.00345832
0.003439
0.00346555
0.00348415
0.00348499
0.00346478
0.00346503
0.00348118
0.00348452
0.00346819
0.00348423
0.00346818
0.0034652
0.00346555
0.00348414
0.00348499
0.00346478
0.00345814
0.00345518
0.00343909
0.00344219
0.00345832
0.00345517
0.003439
0.00345874
0.00343868
0.00345797
0.00343938
0.00345814
0.00345518
0.00344219
0.00343909
0.00345517
0.00345832
0.003439
0.00345874
0.00343868
0.00345797
0.00343938
0.0034846
0.0034846
0.00346552
0.00346515
0.00346515
0.00348385
0.00346454
0.00343849
0.00345776
0.00345747
0.00343899
0.00343899
0.00345834
0.00345834
0.0034385
0.00345776
0.00346503
0.00348118
0.00348452
0.00346819
0.00348423
0.00346818
0.0034652
0.00346555
0.00348414
0.00348499
0.00346477
0.00346555
0.00348415
0.00348499
0.00346478
0.00345814
0.00345518
0.00344219
0.00343908
0.00345517
0.00345832
0.003439
0.00345814
0.00345518
0.00344219
0.00343909
0.00345517
0.00345832
0.003439
0.00345874
0.00343868
0.00345797
0.00343938
0.00345874
0.00343869
0.00345797
0.00343938
0.00348385
0.00346454
0.00348385
0.00346454
0.00345747
0.00343899
0.00343899
0.00345834
0.00345834
0.0034385
0.00345776
0.0034385
0.00345776
0.00343176
0.00341267
0.00343176
0.00341267
0.00343223
0.00343223
0.0034137
0.00341309
0.00341309
0.00338716
0.00340601
0.00338716
0.00340601
0.00340579
0.00338752
0.00338752
0.0034064
0.0034064
0.00341344
0.00343193
0.00343261
0.00341283
0.00341316
0.00343224
0.00342924
0.00341635
0.00343214
0.00341321
0.00341636
0.00341316
0.00343224
0.00342924
0.00341635
0.00343214
0.0034132
0.00341636
0.00340674
0.0033873
0.00340615
0.00338781
0.00340674
0.0033873
0.00340615
0.00338781
0.00340636
0.00340353
0.00338765
0.0033908
0.00340642
0.00340354
0.00338763
0.00340636
0.00340353
0.00338765
0.0033908
0.00340642
0.00340354
0.00338763
0.00343223
0.00343223
0.0034137
0.00341309
0.00341309
0.00343176
0.00341267
0.00338716
0.00340601
0.00340579
0.00338752
0.00338752
0.0034064
0.0034064
0.00338716
0.00340601
0.00341316
0.00343224
0.00342924
0.00341635
0.00343214
0.0034132
0.00341636
0.00341344
0.00343193
0.00343261
0.00341283
0.00341316
0.00342924
0.00343224
0.00341635
0.00343214
0.00341636
0.0034132
0.00340674
0.00338729
0.00340615
0.00338781
0.00340636
0.00340353
0.00338764
0.0033908
0.00340642
0.00340354
0.00338763
0.00340674
0.00338729
0.00340615
0.00338781
0.00340636
0.00340353
0.0033908
0.00338764
0.00340354
0.00340642
0.00338763
0.00341344
0.00343193
0.00343261
0.00341283
0.00341316
0.00342924
0.00343224
0.00341635
0.00343214
0.00341636
0.0034132
0.00341344
0.00343193
0.00343261
0.00341283
0.00340636
0.00340353
0.00338765
0.0033908
0.00340642
0.00340354
0.00338763
0.00340674
0.00338729
0.00340615
0.00338781
0.00340636
0.00340353
0.0033908
0.00338765
0.00340354
0.00340642
0.00338763
0.00340674
0.0033873
0.00340615
0.00338781
0.00343223
0.00343223
0.0034137
0.00341309
0.00341309
0.00343176
0.00341267
0.00338716
0.00340601
0.00340579
0.00338752
0.00338752
0.0034064
0.0034064
0.00338716
0.00340601
0.00341316
0.00342924
0.00343224
0.00341635
0.00343214
0.00341636
0.00341321
0.00341344
0.00343193
0.00343261
0.00341283
0.00341344
0.00343193
0.00343261
0.00341283
0.00340636
0.00340353
0.0033908
0.00338764
0.00340354
0.00340642
0.00338763
0.00340636
0.00340353
0.0033908
0.00338765
0.00340354
0.00340642
0.00338763
0.00340674
0.00338729
0.00340615
0.00338781
0.00340674
0.0033873
0.00340615
0.00338781
0.00343176
0.00341267
0.00343176
0.00341267
0.00340579
0.00338752
0.00338752
0.00340641
0.00340641
0.00338716
0.00340601
0.00338716
0.00340601
0.00338058
0.003362
0.00338058
0.003362
0.00338093
0.00338093
0.00336302
0.00336233
0.00336233
0.00333721
0.00335552
0.00333721
0.00335552
0.00335533
0.00333752
0.00333752
0.00335583
0.00335583
0.00336256
0.0033807
0.00338121
0.00336212
0.00336245
0.00338094
0.00337815
0.00336558
0.00338091
0.00336245
0.00336559
0.00336245
0.00338095
0.00337815
0.00336558
0.00338091
0.00336245
0.00336559
0.00335605
0.00333733
0.00335563
0.0033377
0.00335605
0.00333733
0.00335562
0.0033377
0.00335582
0.00335311
0.00333764
0.00334073
0.00335584
0.00335311
0.00333764
0.00335582
0.00335311
0.00333764
0.00334073
0.00335584
0.00335311
0.00333764
0.00338093
0.00338093
0.00336302
0.00336233
0.00336233
0.00338058
0.003362
0.00333722
0.00335552
0.00335533
0.00333752
0.00333752
0.00335583
0.00335583
0.00333721
0.00335552
0.00336245
0.00338094
0.00337815
0.00336558
0.00338091
0.00336245
0.00336559
0.00336256
0.0033807
0.0033812
0.00336212
0.00336245
0.00337815
0.00338094
0.00336558
0.00338091
0.00336559
0.00336245
0.00335605
0.00333733
0.00335562
0.0033377
0.00335582
0.00335311
0.00333764
0.00334073
0.00335584
0.00335311
0.00333764
0.00335605
0.00333733
0.00335562
0.0033377
0.00335582
0.00335311
0.00334073
0.00333764
0.00335311
0.00335584
0.00333764
0.00336256
0.0033807
0.00338121
0.00336212
0.00336245
0.00337815
0.00338094
0.00336558
0.00338091
0.00336559
0.00336245
0.00336256
0.0033807
0.00338121
0.00336212
0.00335582
0.00335311
0.00333764
0.00334073
0.00335584
0.00335311
0.00333764
0.00335605
0.00333733
0.00335563
0.0033377
0.00335582
0.00335311
0.00334073
0.00333764
0.00335311
0.00335584
0.00333764
0.00335605
0.00333733
0.00335563
0.0033377
0.00338093
0.00338093
0.00336302
0.00336233
0.00336233
0.00338058
0.003362
0.00333721
0.00335552
0.00335533
0.00333752
0.00333752
0.00335583
0.00335583
0.00333721
0.00335552
0.00336245
0.00337815
0.00338094
0.00336558
0.00338091
0.00336559
0.00336245
0.00336256
0.0033807
0.00338121
0.00336212
0.00336256
0.0033807
0.00338121
0.00336212
0.00335582
0.00335311
0.00334073
0.00333764
0.00335311
0.00335584
0.00333764
0.00335582
0.00335311
0.00334073
0.00333764
0.00335311
0.00335584
0.00333764
0.00335605
0.00333733
0.00335563
0.0033377
0.00335605
0.00333733
0.00335563
0.0033377
0.00338059
0.003362
0.00338058
0.003362
0.00335533
0.00333752
0.00333752
0.00335583
0.00335583
0.00333721
0.00335552
0.00333721
0.00335552
0.00333083
0.00331279
0.00333083
0.00331279
0.00333112
0.00333112
0.00331378
0.00331308
0.00331308
0.00328873
0.0033065
0.00328873
0.0033065
0.00330631
0.00328901
0.00328901
0.00330677
0.00330677
0.00331321
0.00333093
0.00333128
0.0033129
0.0033132
0.00333111
0.00332844
0.00331624
0.0033311
0.0033132
0.00331624
0.0033132
0.00333111
0.00332844
0.00331624
0.0033311
0.00331319
0.00331624
0.00330689
0.00328884
0.00330659
0.0032891
0.00330689
0.00328884
0.00330659
0.0032891
0.00330674
0.00330414
0.00328912
0.00329211
0.00330676
0.00330413
0.00328912
0.00330674
0.00330414
0.00328911
0.00329211
0.00330675
0.00330413
0.00328912
0.00333112
0.00333112
0.00331378
0.00331308