/*--------------------------------*- C++ -*----------------------------------*\
| =========                 |                                                 |
| \\      /  F ield         | OpenFOAM: The Open Source CFD Toolbox           |
|  \\    /   O peration     | Version:  v1906                                 |
|   \\  /    A nd           | Web:      www.OpenFOAM.com                      |
|    \\/     M anipulation  |                                                 |
\*---------------------------------------------------------------------------*/
FoamFile
{
    version     2.0;
    format      ascii;
    class       surfaceScalarField;
    location    "650";
    object      phi;
}
// * * * * * * * * * * * * * * * * * * * * * * * * * * * * * * * * * * * * * //

dimensions      [0 3 -1 0 0 0 0];
oriented        oriented;


internalField   nonuniform List<scalar> 
123728
(
-0.00104218
-1.46316e-05
-1.45292e-05
9.38434e-06
9.21488e-06
0.00105274
-0.00026149
-5.68342e-06
1.4509e-05
6.88989e-06
0.00105925
-4.59249e-06
-1.5972e-06
-2.12087e-06
-2.49002e-06
-6.62384e-06
-7.11413e-06
-2.98694e-06
-0.000263332
-0.000259761
-0.000262856
-0.000261466
-5.68761e-06
1.45367e-05
6.97674e-06
0.00105904
-4.59668e-06
-1.60695e-06
-2.12784e-06
-2.49457e-06
-6.61768e-06
-7.11031e-06
-2.98873e-06
-0.000259733
-0.000263303
-0.00026282
-0.000260563
5.65873e-06
5.69896e-06
-4.95288e-06
-4.94655e-06
0.000259105
-1.65248e-06
-1.65491e-06
-0.00106079
9.34223e-07
9.35055e-07
0.00106223
-0.00106274
-1.61856e-06
1.64846e-06
8.3109e-07
0.00106394
-6.79805e-07
8.34853e-07
-9.90806e-08
4.22854e-07
-8.50076e-07
-1.43176e-06
-2.54893e-07
-0.00106242
-1.61385e-06
1.65679e-06
8.25224e-07
0.00106361
-6.80022e-07
8.28961e-07
-9.94142e-08
4.21573e-07
-8.51256e-07
-1.42989e-06
-2.51227e-07
-0.000261565
1.65094e-06
1.61394e-06
-6.98537e-07
-7.01366e-07
0.0002597
-1.37487e-06
-1.37646e-06
-0.00106636
6.96365e-07
6.97039e-07
0.00106771
-0.00106788
-1.5724e-06
1.38118e-06
6.9038e-07
0.00106923
-6.56886e-07
8.7856e-07
-7.30378e-08
4.61423e-07
-8.37402e-07
-1.39907e-06
-2.21674e-07
-0.00106755
-1.56733e-06
1.37634e-06
6.95893e-07
0.0010689
-6.57032e-07
8.73052e-07
-7.31731e-08
4.60991e-07
-8.37183e-07
-1.39396e-06
-2.19169e-07
-0.000262802
1.60228e-06
1.56756e-06
-6.63566e-07
-6.71529e-07
0.000260967
-1.3499e-06
-1.35159e-06
-0.00107181
6.75911e-07
6.7658e-07
0.00107316
-0.00107323
-1.57225e-06
1.35072e-06
6.66455e-07
0.00107454
-6.53219e-07
9.00804e-07
-5.29843e-08
4.75544e-07
-8.28209e-07
-1.40449e-06
-1.9488e-07
-0.00107289
-1.56708e-06
1.35053e-06
6.66573e-07
0.0010742
-6.50679e-07
8.95259e-07
-5.51895e-08
4.75491e-07
-8.30613e-07
-1.40427e-06
-1.92403e-07
-0.000264079
1.5997e-06
1.56724e-06
-6.55669e-07
-6.61272e-07
0.000262229
-1.30333e-06
-1.30473e-06
-0.00107714
6.514e-07
6.52236e-07
0.00107845
-0.0010784
-1.56395e-06
1.30415e-06
6.35343e-07
0.00107965
-6.38393e-07
9.25014e-07
-3.47321e-08
4.9496e-07
-8.09665e-07
-1.40312e-06
-1.64948e-07
-0.00107806
-1.5586e-06
1.30389e-06
6.35251e-07
0.00107931
-6.35684e-07
9.19624e-07
-3.66988e-08
4.94863e-07
-8.12097e-07
-1.40294e-06
-1.62481e-07
-0.000265298
1.59175e-06
1.55904e-06
-6.402e-07
-6.4595e-07
0.000263433
-1.2528e-06
-1.25387e-06
-0.00108228
6.26287e-07
6.27243e-07
0.00108353
-0.00108332
-1.55496e-06
1.25372e-06
6.059e-07
0.00108452
-6.24046e-07
9.46988e-07
-1.39e-08
5.16201e-07
-7.88912e-07
-1.39667e-06
-1.36935e-07
-0.00108298
-1.54947e-06
1.25388e-06
6.05901e-07
0.00108417
-6.21164e-07
9.41688e-07
-1.64531e-08
5.16011e-07
-7.91414e-07
-1.3966e-06
-1.34539e-07
-0.000266442
1.58279e-06
1.54991e-06
-6.24177e-07
-6.29876e-07
0.000264564
-1.20596e-06
-1.20727e-06
-0.00108722
6.04268e-07
6.04923e-07
0.00108842
-0.001088
-1.54735e-06
1.20711e-06
5.82246e-07
0.00108913
-6.1191e-07
9.66471e-07
3.54621e-09
5.3759e-07
-7.69505e-07
-1.38864e-06
-1.1228e-07
-0.00108766
-1.54199e-06
1.20773e-06
5.82803e-07
0.00108879
-6.09217e-07
9.60994e-07
7.87461e-10
5.3732e-07
-7.72196e-07
-1.38868e-06
-1.10051e-07
-0.000267513
1.57536e-06
1.54225e-06
-6.09966e-07
-6.15754e-07
0.000265622
-1.16565e-06
-1.16671e-06
-0.00109197
5.85893e-07
5.86555e-07
0.00109313
-0.00109245
-1.54174e-06
1.16653e-06
5.63759e-07
0.00109353
-6.02582e-07
9.83598e-07
1.79196e-08
5.58474e-07
-7.52517e-07
-1.38058e-06
-9.10433e-08
-0.00109211
-1.53651e-06
1.16697e-06
5.64747e-07
0.00109318
-6.00037e-07
9.77967e-07
1.49974e-08
5.58359e-07
-7.55179e-07
-1.38049e-06
-8.88087e-08
-0.000268516
1.56981e-06
1.53664e-06
-5.98215e-07
-6.03934e-07
0.000266611
-1.13089e-06
-1.13235e-06
-0.00109655
5.70492e-07
5.71429e-07
0.00109767
-0.00109669
-1.53792e-06
1.13228e-06
5.49194e-07
0.00109772
-5.95844e-07
9.98632e-07
2.97472e-08
5.78504e-07
-7.37954e-07
-1.37321e-06
-7.28798e-08
-0.00109634
-1.53267e-06
1.13216e-06
5.50126e-07
0.00109737
-5.93271e-07
9.92987e-07
2.6807e-08
5.78631e-07
-7.40382e-07
-1.37286e-06
-7.05349e-08
-0.000269455
1.56611e-06
1.53289e-06
-5.8866e-07
-5.943e-07
0.000267539
-1.10083e-06
-1.10211e-06
-0.00110098
5.57173e-07
5.58289e-07
0.00110207
-0.00110074
-1.53622e-06
1.1023e-06
5.37076e-07
0.00110172
-5.91725e-07
1.01165e-06
4.36997e-08
5.9738e-07
-7.25467e-07
-1.3667e-06
-5.76764e-08
-0.00110039
-1.53078e-06
1.10218e-06
5.37905e-07
0.00110138
-5.88962e-07
1.00619e-06
3.96849e-08
5.97673e-07
-7.27696e-07
-1.36618e-06
-5.52637e-08
-0.000270336
1.5643e-06
1.5309e-06
-5.81081e-07
-5.86714e-07
0.000268409
-1.07447e-06
-1.07559e-06
-0.00110528
5.45746e-07
5.46703e-07
0.00110634
-0.00110462
-1.53544e-06
1.07608e-06
5.28e-07
0.00110556
-5.85966e-07
1.02391e-06
5.17063e-08
6.15265e-07
-7.13885e-07
-1.36052e-06
-4.47916e-08
-0.00110427
-1.53e-06
1.07568e-06
5.28358e-07
0.00110522
-5.85997e-07
1.0184e-06
5.15746e-08
6.15487e-07
-7.16204e-07
-1.36006e-06
-4.24794e-08
-0.000271164
1.56375e-06
1.53013e-06
-5.74831e-07
-5.80648e-07
0.000269225
-1.05004e-06
-1.05152e-06
-0.00110947
5.35217e-07
5.35838e-07
0.0011105
-0.00110834
-1.53503e-06
1.05188e-06
5.19352e-07
0.00110925
-5.83461e-07
1.03568e-06
6.15668e-08
6.32195e-07
-7.02224e-07
-1.35394e-06
-3.37211e-08
-0.001108
-1.5296e-06
1.05151e-06
5.19802e-07
0.0011089
-5.83496e-07
1.03011e-06
6.1437e-08
6.32364e-07
-7.04605e-07
-1.35355e-06
-3.14289e-08
-0.000271939
1.56345e-06
1.52967e-06
-5.69119e-07
-5.75028e-07
0.00026999
-1.0264e-06
-1.02787e-06
-0.00111356
5.24588e-07
5.25012e-07
0.00111456
-0.00111192
-1.53475e-06
1.02808e-06
5.10171e-07
0.00111279
-5.80695e-07
1.04722e-06
7.03181e-08
6.47723e-07
-6.90333e-07
-1.34694e-06
-2.11966e-08
-0.00111157
-1.52937e-06
1.02757e-06
5.10525e-07
0.00111244
-5.8076e-07
1.04148e-06
7.01407e-08
6.47819e-07
-6.92797e-07
-1.34661e-06
-1.82279e-08
-0.000272662
1.56327e-06
1.52934e-06
-5.63921e-07
-5.69858e-07
0.000270704
-1.00395e-06
-1.00525e-06
-0.00111754
5.14351e-07
5.14829e-07
0.00111852
-0.00111535
-1.53473e-06
1.0054e-06
5.00065e-07
0.00111618
-5.76847e-07
1.05782e-06
7.88198e-08
6.61971e-07
-6.77527e-07
-1.33909e-06
-9.04158e-09
-0.00111499
-1.52929e-06
1.00485e-06
5.00527e-07
0.00111583
-5.76915e-07
1.05217e-06
7.86392e-08
6.62056e-07
-6.80034e-07
-1.33879e-06
-6.09596e-09
-0.000273333
1.56321e-06
1.52928e-06
-5.58514e-07
-5.6431e-07
0.000271363
-9.82008e-07
-9.82925e-07
-0.00112142
5.04116e-07
5.04785e-07
0.00112238
-0.00111862
-1.5343e-06
9.83288e-07
4.89375e-07
0.00111942
-5.7173e-07
1.06772e-06
8.7281e-08
6.74962e-07
-6.63745e-07
-1.3302e-06
2.16413e-09
-0.00111827
-1.52883e-06
9.82742e-07
4.89748e-07
0.00111906
-5.71763e-07
1.06213e-06
8.71654e-08
6.75006e-07
-6.66277e-07
-1.32996e-06
5.08611e-09
-0.000273948
1.56278e-06
1.5288e-06
-5.51994e-07
-5.57729e-07
0.000271966
-9.60148e-07
-9.60823e-07
-0.00112521
4.93881e-07
4.94691e-07
0.00112614
-0.00112174
-1.53301e-06
9.6138e-07
4.78425e-07
0.0011225
-5.65466e-07
1.07754e-06
9.53449e-08
6.86833e-07
-6.49189e-07
-1.32045e-06
1.24926e-08
-0.00112139
-1.52752e-06
9.60907e-07
4.78613e-07
0.00112215
-5.65444e-07
1.07191e-06
9.52878e-08
6.8686e-07
-6.51725e-07
-1.32017e-06
1.5397e-08
-0.000274505
1.56162e-06
1.52752e-06
-5.44682e-07
-5.50482e-07
0.000272511
-9.38784e-07
-9.39149e-07
-0.00112891
4.83945e-07
4.84855e-07
0.00112981
-0.00112471
-1.53111e-06
9.39923e-07
4.67254e-07
0.00112542
-5.57908e-07
1.08687e-06
1.0311e-07
6.97606e-07
-6.34001e-07
-1.30962e-06
2.2036e-08
-0.00112435
-1.52562e-06
9.39493e-07
4.6751e-07
0.00112507
-5.57928e-07
1.08122e-06
1.03112e-07
6.9765e-07
-6.36573e-07
-1.30941e-06
2.4981e-08
-0.000275
1.55987e-06
1.52568e-06
-5.3694e-07
-5.42761e-07
0.000272994
-9.17666e-07
-9.17519e-07
-0.00113251
4.73976e-07
4.75062e-07
0.00113339
-0.00112751
-1.52863e-06
9.18694e-07
4.5601e-07
0.00112818
-5.49297e-07
1.09544e-06
1.10637e-07
7.07597e-07
-6.18594e-07
-1.29793e-06
3.20167e-08
-0.00112715
-1.52318e-06
9.18123e-07
4.55881e-07
0.00112783
-5.49352e-07
1.0897e-06
1.10559e-07
7.07357e-07
-6.21389e-07
-1.29785e-06
3.62915e-08
-0.00027543
1.5575e-06
1.52323e-06
-5.2863e-07
-5.34472e-07
0.000273412
-8.96992e-07
-8.96778e-07
-0.00113602
4.6472e-07
4.65822e-07
0.00113688
-0.00113014
-1.52556e-06
8.97566e-07
4.4477e-07
0.00113077
-5.39916e-07
1.10322e-06
1.17733e-07
7.16317e-07
-6.03285e-07
-1.28601e-06
4.41915e-08
-0.00112979
-1.52004e-06
8.97456e-07
4.44617e-07
0.00113042
-5.39869e-07
1.09755e-06
1.17771e-07
7.16041e-07
-6.06069e-07
-1.28595e-06
4.79243e-08
-0.000275792
1.55446e-06
1.5201e-06
-5.19712e-07
-5.25577e-07
0.000273763
-8.77074e-07
-8.76605e-07
-0.00113944
4.56255e-07
4.57123e-07
0.00114028
-0.0011326
-1.52152e-06
8.77259e-07
4.34366e-07
0.00113319
-5.29467e-07
1.11052e-06
1.24736e-07
7.24386e-07
-5.87801e-07
-1.27314e-06
5.46943e-08
-0.00113224
-1.516e-06
8.77277e-07
4.34406e-07
0.00113283
-5.29495e-07
1.10482e-06
1.24707e-07
7.24157e-07
-5.90694e-07
-1.27313e-06
5.82032e-08
-0.000276084
1.55048e-06
1.51605e-06
-5.10024e-07
-5.15892e-07
0.000274043
-8.6325e-07
-8.5722e-07
-0.00114275
4.48354e-07
4.49141e-07
0.00114358
-0.00113488
-1.51645e-06
8.51943e-07
4.24009e-07
0.00113542
-5.2131e-07
1.11722e-06
1.34363e-07
7.3486e-07
-5.72415e-07
-1.25924e-06
6.4182e-08
-0.00113452
-1.51096e-06
8.57648e-07
4.13314e-07
-5.18521e-07
1.11151e-06
1.31327e-07
7.31882e-07
-5.75257e-07
-1.25919e-06
6.76289e-08
0.00113507
-0.000276305
1.54552e-06
1.50828e-06
-4.99576e-07
-5.05406e-07
0.000274256
5.22634e-06
5.23714e-06
0.000260566
-0.000259152
-5.94566e-06
-5.93162e-06
5.05405e-06
0.000261439
-0.000258684
-5.96383e-06
3.3811e-06
-5.22621e-06
5.049e-06
0.000261472
-0.000258699
-5.97196e-06
3.37615e-06
5.22701e-06
0.000260579
-0.000259155
-5.91719e-06
-5.96003e-06
5.04714e-06
0.000261503
-0.000258714
-5.96939e-06
3.37098e-06
5.05275e-06
-5.22738e-06
0.000261444
-0.000258682
3.38437e-06
-5.97232e-06
1.0692e-05
1.0599e-05
-0.000252646
-0.000256096
-0.000255126
-0.000255126
-6.41892e-06
-4.11082e-06
-6.65441e-06
-6.41934e-06
-4.11179e-06
-6.65991e-06
-5.0419e-06
0.0010422
1.06515e-05
1.06039e-05
-0.000252648
-0.000256094
-0.000255128
-0.000255129
-6.42168e-06
-4.11111e-06
-6.6572e-06
-6.41669e-06
-4.10631e-06
-6.65221e-06
-5.04112e-06
0.00104207
1.0709e-05
1.06616e-05
-0.00025264
-0.000256087
-0.000255125
-0.00025512
-6.41966e-06
-4.11887e-06
-6.65642e-06
-6.4208e-06
-4.1083e-06
-6.65395e-06
-5.0564e-06
-5.04412e-06
0.00104214
1.07063e-05
1.0609e-05
-0.000252643
-0.000256091
-0.000255126
-0.000255126
-6.4164e-06
-4.11346e-06
-6.65214e-06
-6.42133e-06
-4.11121e-06
-6.65693e-06
-0.000258709
-5.96161e-06
3.36593e-06
-5.22582e-06
0.000261434
-0.000258681
3.3808e-06
-5.96381e-06
5.22829e-06
0.000260557
-0.000259138
-5.91795e-06
-5.95669e-06
-0.000258693
3.37244e-06
-5.95844e-06
-5.23716e-06
0.0002615
-0.000258709
3.36845e-06
-5.96631e-06
-0.00025915
-5.94564e-06
-5.93105e-06
5.65935e-06
5.69628e-06
-4.95296e-06
-4.94713e-06
0.00025911
-8.11848e-07
-7.76296e-07
0.000261576
-0.000259443
-2.76196e-07
-2.68911e-07
7.14122e-06
0.00105866
-4.59009e-06
-1.55029e-06
-2.11574e-06
-2.49127e-06
-6.63775e-06
-7.12003e-06
-2.99329e-06
-0.000263294
-0.000259718
-0.00026282
-5.66938e-06
1.46052e-05
7.08022e-06
0.00105902
-4.6086e-06
-1.54238e-06
-2.11835e-06
-2.50247e-06
-6.66947e-06
-7.13734e-06
-3.00932e-06
-0.000263368
-0.000259749
-0.000262862
0.00106199
2.12326e-06
-0.00106095
1.04475e-06
-1.75902e-06
-1.32236e-07
-7.46876e-07
-1.54188e-06
-2.918e-07
-9.12038e-07
3.63862e-07
8.20188e-07
0.00106241
2.12354e-06
-0.00106136
1.03915e-06
-1.7691e-06
-1.2481e-07
-7.51959e-07
-1.54771e-06
-2.91876e-07
-9.12496e-07
3.6929e-07
-4.95121e-06
-4.9433e-06
0.000259121
-7.79252e-07
0.000261601
-0.000259463
-2.73186e-07
-2.6574e-07
6.86346e-06
0.00105949
-4.61412e-06
-1.60998e-06
-2.13181e-06
-2.50102e-06
-6.65232e-06
-7.1332e-06
-3.00482e-06
-0.000263388
-0.000259776
-0.000262874
-5.66787e-06
1.4639e-05
7.17124e-06
0.0010588
-4.60751e-06
-1.55142e-06
-2.12244e-06
-2.50608e-06
-6.66824e-06
-7.13985e-06
-3.00851e-06
-0.000259717
-0.000263342
-0.000262832
0.001063
2.13169e-06
-0.00106195
1.03298e-06
-1.72933e-06
-1.34555e-07
-7.47302e-07
-1.54525e-06
-2.91985e-07
-9.1009e-07
3.66085e-07
8.097e-07
0.00106209
2.13406e-06
-0.00106107
1.05228e-06
-1.75875e-06
-1.29485e-07
-7.46733e-07
-1.54486e-06
-2.88187e-07
-9.13472e-07
3.63533e-07
1.46364e-05
7.16136e-06
0.0010586
-4.58977e-06
-1.54988e-06
-2.11287e-06
-2.49123e-06
-6.63807e-06
-2.99369e-06
-7.1177e-06
-0.000259713
-0.000263289
-0.000262815
2.13011e-06
-0.0010617
1.03784e-06
-1.72896e-06
-1.31611e-07
-7.43878e-07
-1.54269e-06
-2.94248e-07
3.60523e-07
-9.09692e-07
8.09609e-07
0.00106189
2.13417e-06
-0.00106087
1.05456e-06
-1.75865e-06
-1.2957e-07
-7.46514e-07
-1.5451e-06
-2.9192e-07
-9.12075e-07
3.65684e-07
-4.9551e-06
-4.94267e-06
0.000259099
-7.70907e-07
0.000261551
-0.000259423
-2.76492e-07
-2.7095e-07
1.45375e-05
6.88262e-06
0.00105944
-4.61439e-06
-1.61005e-06
-2.13181e-06
-2.50089e-06
-6.65172e-06
-3.00436e-06
-7.12994e-06
-0.000259766
-0.000263385
-0.000262869
2.13257e-06
-0.00106139
1.05219e-06
-1.72658e-06
-1.34226e-07
-7.46652e-07
-1.53794e-06
-2.88253e-07
3.6239e-07
-9.11178e-07
7.71027e-07
0.00106291
2.13575e-06
-0.00106187
1.04349e-06
-1.72418e-06
-1.34462e-07
-7.44574e-07
-1.54268e-06
-2.91683e-07
-9.12455e-07
3.60902e-07
-0.00025944
-2.73649e-07
-2.71231e-07
1.65131e-06
1.61631e-06
-6.95827e-07
-7.04183e-07
0.000259708
-9.06987e-07
-8.68819e-07
0.000262815
-0.000260649
-1.98591e-07
-1.91531e-07
8.32939e-07
0.00106318
-6.82636e-07
8.67469e-07
-9.50561e-08
4.23574e-07
-8.49717e-07
-1.43346e-06
-2.54554e-07
-1.65627e-06
1.65263e-06
8.27105e-07
0.00106361
-6.8524e-07
8.75691e-07
-9.48047e-08
4.29027e-07
-8.52625e-07
-1.4392e-06
-2.52212e-07
0.00106711
1.3895e-06
-0.00106578
7.00173e-07
-1.60534e-06
-7.01575e-08
-6.63206e-07
-1.39308e-06
-2.26052e-07
-8.34389e-07
4.59647e-07
9.12481e-07
0.00106755
1.38959e-06
-0.00106621
6.94829e-07
-1.61043e-06
-7.01039e-08
-6.63338e-07
-1.39619e-06
-2.26203e-07
-8.34841e-07
4.62377e-07
-6.96051e-07
-7.03318e-07
0.000259726
-8.74138e-07
0.000262841
-0.000260662
-1.9851e-07
-1.93864e-07
8.26393e-07
0.0010642
-6.80398e-07
8.32013e-07
-9.72034e-08
4.25776e-07
-8.52793e-07
-1.43683e-06
-2.52309e-07
-1.651e-06
1.65821e-06
8.30638e-07
0.00106328
-6.8515e-07
8.67895e-07
-9.46653e-08
4.22935e-07
-8.51481e-07
-1.4343e-06
-2.51533e-07
0.00106814
1.39103e-06
-0.00106681
6.99153e-07
-1.56754e-06
-7.43684e-08
-6.5825e-07
-1.39129e-06
-2.23899e-07
-8.34965e-07
4.61951e-07
9.01762e-07
0.00106722
1.38896e-06
-0.00106589
6.99435e-07
-1.60276e-06
-7.23286e-08
-6.63351e-07
-1.3932e-06
-2.25856e-07
-8.34234e-07
4.62557e-07
1.65347e-06
8.32529e-07
0.00106308
-6.84966e-07
8.65225e-07
-9.6965e-08
4.22737e-07
-8.52593e-07
-2.52317e-07
-1.43441e-06
1.39063e-06
-0.00106655
7.03825e-07
-1.57522e-06
-7.63057e-08
-6.57861e-07
-1.3912e-06
-2.24139e-07
4.61732e-07
-8.34988e-07
9.04667e-07
0.00106702
1.38474e-06
-0.00106568
6.99771e-07
-1.60239e-06
-7.20747e-08
-6.62935e-07
-1.39378e-06
-2.26326e-07
-8.34756e-07
4.59188e-07
-6.9912e-07
-7.00764e-07
0.000259686
-8.65946e-07
0.000262788
-0.000260628
-1.98924e-07
-1.94185e-07
1.65373e-06
8.21428e-07
0.00106412
-6.80453e-07
8.26533e-07
-1.01831e-07
4.20714e-07
-8.49976e-07
-2.56868e-07
-1.43143e-06
1.39088e-06
-0.00106622
6.98679e-07
-1.56498e-06
-7.65213e-08
-6.5805e-07
-1.38599e-06
-2.26294e-07
4.53279e-07
-8.34612e-07
8.68506e-07
0.00106805
1.39039e-06
-0.00106671
6.98815e-07
-1.56521e-06
-7.67041e-08
-6.58467e-07
-1.39336e-06
-2.26075e-07
-8.37406e-07
4.5979e-07
-0.000260636
-1.98876e-07
-1.93804e-07
1.60515e-06
1.57254e-06
-6.6072e-07
-6.69269e-07
0.000260967
-9.27749e-07
-8.91894e-07
0.000264095
-0.00026192
-1.79915e-07
-1.75209e-07
6.91757e-07
0.00106846
-6.64914e-07
9.11453e-07
-6.69472e-08
4.6194e-07
-8.3419e-07
-1.39317e-06
-2.23576e-07
-1.61028e-06
1.3753e-06
7.02233e-07
0.00106888
-6.64985e-07
9.17005e-07
-6.68191e-08
4.6728e-07
-8.37301e-07
-1.39899e-06
-2.1903e-07
0.00107246
1.3594e-06
-0.00107114
6.7495e-07
-1.60633e-06
-5.61265e-08
-6.59012e-07
-1.4029e-06
-2.04311e-07
-8.28567e-07
4.71616e-07
9.33493e-07
0.00107288
1.36003e-06
-0.00107156
6.74932e-07
-1.61132e-06
-5.37603e-08
-6.61473e-07
-1.41148e-06
-1.99827e-07
-8.34365e-07
4.79626e-07
-6.63708e-07
-6.66019e-07
0.000260988
-8.94795e-07
0.000264123
-0.000261946
-1.77065e-07
-1.72126e-07
6.90829e-07
0.0010695
-6.62629e-07
8.75791e-07
-7.11667e-08
4.64326e-07
-8.37323e-07
-1.39907e-06
-2.19046e-07
-1.60259e-06
1.37463e-06
6.96715e-07
0.00106857
-6.65072e-07
9.08865e-07
-6.69184e-08
4.64814e-07
-8.36618e-07
-1.3958e-06
-2.18624e-07
0.00107349
1.36112e-06
-0.00107217
6.73992e-07
-1.57108e-06
-5.8176e-08
-6.56711e-07
-1.40597e-06
-1.99817e-07
-8.34343e-07
4.74197e-07
9.28089e-07
0.00107256
1.35988e-06
-0.00107124
6.74796e-07
-1.6061e-06
-5.38247e-08
-6.61517e-07
-1.40589e-06
-1.99609e-07
-8.33828e-07
4.73993e-07
1.3804e-06
6.91311e-07
0.00106837
-6.62031e-07
9.06503e-07
-7.09989e-08
4.64247e-07
-8.37122e-07
-2.2143e-07
-1.39637e-06
1.36034e-06
-0.0010719
6.73862e-07
-1.57347e-06
-5.77961e-08
-6.56173e-07
-1.40333e-06
-2.02235e-07
4.71331e-07
-8.31635e-07
9.22739e-07
0.00107236
1.35929e-06
-0.00107104
6.74613e-07
-1.60084e-06
-5.79571e-08
-6.56064e-07
-1.4031e-06
-2.02039e-07
-8.31352e-07
4.71609e-07
-6.63836e-07
-6.68892e-07
0.000260951
-8.89242e-07
0.000264074
-0.000261904
-1.79856e-07
-1.72313e-07
1.37569e-06
6.95597e-07
0.0010694
-6.57531e-07
8.67723e-07
-7.55712e-08
4.62159e-07
-8.34562e-07
-2.2123e-07
-1.39343e-06
1.36021e-06
-0.00107157
6.74036e-07
-1.56831e-06
-6.00351e-08
-6.53639e-07
-1.4031e-06
-1.99777e-07
4.71297e-07
-8.3407e-07
8.89278e-07
0.0010734
1.36037e-06
-0.00107208
6.73629e-07
-1.56847e-06
-6.01284e-08
-6.53988e-07
-1.40064e-06
-2.02032e-07
-8.31589e-07
4.69018e-07
-0.000261917
-1.77391e-07
-1.72287e-07
1.60516e-06
1.56987e-06
-6.53074e-07
-6.58974e-07
0.000262232
-9.52261e-07
-9.16167e-07
0.000265314
-0.000263142
-1.54225e-07
-1.49309e-07
6.67633e-07
0.00107377
-6.56064e-07
9.33798e-07
-5.13333e-08
4.7577e-07
-8.25214e-07
-1.40413e-06
-1.97002e-07
-1.61014e-06
1.35045e-06
6.67542e-07
0.0010742
-6.58507e-07
9.39546e-07
-4.89981e-08
4.83884e-07
-8.30964e-07
-1.41264e-06
-1.92484e-07
0.00107763
1.3158e-06
-0.00107636
6.44519e-07
-1.59933e-06
-3.7397e-08
-6.45071e-07
-1.40395e-06
-1.74574e-07
-8.11885e-07
4.89906e-07
9.57939e-07
0.00107805
1.31608e-06
-0.00107678
6.44347e-07
-1.6044e-06
-3.53203e-08
-6.47609e-07
-1.4122e-06
-1.69941e-07
-8.17463e-07
4.98283e-07
-6.56018e-07
-6.60682e-07
0.000262258
-9.19062e-07
0.000265342
-0.000263167
-1.51276e-07
-1.46383e-07
6.66578e-07
0.0010748
-6.53753e-07
8.97898e-07
-5.33481e-08
4.78372e-07
-8.30975e-07
-1.40717e-06
-1.9251e-07
-1.60486e-06
1.35042e-06
6.67408e-07
0.00107388
-6.58498e-07
9.3419e-07
-4.90252e-08
4.7814e-07
-8.30517e-07
-1.40717e-06
-1.92339e-07
0.00107866
1.31721e-06
-0.00107739
6.43451e-07
-1.56398e-06
-3.93364e-08
-6.42767e-07
-1.40685e-06
-1.69975e-07
-8.175e-07
4.92672e-07
9.52661e-07
0.00107773
1.31604e-06
-0.00107646
6.44138e-07
-1.59902e-06
-3.5247e-08
-6.47499e-07
-1.40675e-06
-1.69863e-07
-8.17123e-07
4.92551e-07
1.3497e-06
6.67323e-07
0.00107368
-6.53153e-07
9.2873e-07
-5.31692e-08
4.75812e-07
-8.27953e-07
-1.94707e-07
-1.40425e-06
1.31646e-06
-0.00107713
6.43213e-07
-1.56634e-06
-3.90385e-08
-6.42284e-07
-1.40415e-06
-1.72377e-07
4.89814e-07
-8.1475e-07
9.46992e-07
0.00107753
1.3157e-06
-0.00107626
6.44612e-07
-1.59405e-06
-3.92661e-08
-6.42326e-07
-1.40408e-06
-1.72304e-07
-8.14608e-07
4.89884e-07
-6.5352e-07
-6.60712e-07
0.000262216
-9.13629e-07
0.000265293
-0.000263126
-1.53962e-07
-1.46395e-07
1.3509e-06
6.66274e-07
0.00107472
-6.51006e-07
8.95289e-07
-5.52639e-08
4.7311e-07
-8.28264e-07
-1.94762e-07
-1.40193e-06
1.31618e-06
-0.00107679
6.43062e-07
-1.56104e-06
-4.10492e-08
-6.39632e-07
-1.4039e-06
-1.69925e-07
4.89782e-07
-8.17211e-07
9.13504e-07
0.00107857
1.31692e-06
-0.0010773
6.43428e-07
-1.56139e-06
-4.12138e-08
-6.40081e-07
-1.40182e-06
-1.72388e-07
-8.1498e-07
4.87166e-07
-0.000263139
-1.51714e-07
-1.46724e-07
1.597e-06
1.5616e-06
-6.37581e-07
-6.43282e-07
0.000263436
-9.75199e-07
-9.38868e-07
0.000266458
-0.00026429
-1.29334e-07
-1.24066e-07
6.36537e-07
0.00107888
-6.41187e-07
9.58281e-07
-3.24246e-08
4.95007e-07
-8.06837e-07
-1.40296e-06
-1.67168e-07
-1.60214e-06
1.30344e-06
6.36189e-07
0.00107931
-6.43857e-07
9.63874e-07
-2.9585e-08
5.03395e-07
-8.12405e-07
-1.41119e-06
-1.6255e-07
0.00108255
1.26527e-06
-0.00108134
6.13781e-07
-1.59012e-06
-1.63722e-08
-6.30161e-07
-1.39843e-06
-1.45889e-07
-7.91286e-07
5.10834e-07
9.80713e-07
0.00108298
1.26528e-06
-0.00108177
6.13715e-07
-1.59537e-06
-1.36168e-08
-6.32908e-07
-1.4067e-06
-1.4131e-07
-7.96816e-07
5.19186e-07
-6.40482e-07
-6.45169e-07
0.000263462
-9.41728e-07
0.000266487
-0.000264317
-1.26539e-07
-1.21298e-07
6.35684e-07
0.00107992
-6.3885e-07
9.22138e-07
-3.50567e-08
4.97867e-07
-8.12363e-07
-1.40578e-06
-1.62505e-07
-1.59675e-06
1.30329e-06
6.36008e-07
0.00107898
-6.43732e-07
9.58614e-07
-2.94849e-08
4.97726e-07
-8.12045e-07
-1.40568e-06
-1.62443e-07
0.00108359
1.26636e-06
-0.00108238
6.13022e-07
-1.55472e-06
-1.91293e-08
-6.27911e-07
-1.40101e-06
-1.4109e-07
-7.96597e-07
5.13923e-07
9.75445e-07
0.00108265
1.2649e-06
-0.00108145
6.13643e-07
-1.58996e-06
-1.35217e-08
-6.32808e-07
-1.40103e-06
-1.41163e-07
-7.96436e-07
5.13658e-07
1.30339e-06
6.36941e-07
0.00107878
-6.38425e-07
9.52999e-07
-3.49573e-08
4.94948e-07
-8.09572e-07
-1.64919e-07
-1.40314e-06
1.26614e-06
-0.00108211
6.12683e-07
-1.55711e-06
-1.87898e-08
-6.27462e-07
-1.39852e-06
-1.4364e-07
5.10841e-07
-7.94046e-07
9.69849e-07
0.00108245
1.26548e-06
-0.00108124
6.14416e-07
-1.58492e-06
-1.90089e-08
-6.27463e-07
-1.39866e-06
-1.43705e-07
-7.94074e-07
5.10722e-07
-6.37841e-07
-6.45063e-07
0.00026342
-9.3644e-07
0.000266437
-0.000264275
-1.2913e-07
-1.2116e-07
1.3046e-06
6.35807e-07
0.00107983
-6.36182e-07
9.19461e-07
-3.68756e-08
4.92287e-07
-8.09903e-07
-1.64968e-07
-1.40081e-06
1.26618e-06
-0.00108177
6.1266e-07
-1.55163e-06
-2.13319e-08
-6.24596e-07
-1.39835e-06
-1.4123e-07
5.10742e-07
-7.96544e-07
9.36242e-07
0.0010835
1.26682e-06
-0.00108229
6.13297e-07
-1.55209e-06
-2.16527e-08
-6.25166e-07
-1.39621e-06
-1.43646e-07
-7.94279e-07
5.08184e-07
-0.000264288
-1.26737e-07
-1.21534e-07
1.58799e-06
1.55255e-06
-6.21556e-07
-6.27112e-07
0.000264566
-9.95388e-07
-9.59017e-07
0.000267529
-0.000265366
-1.0687e-07
-1.01638e-07
6.06961e-07
0.00108374
-6.26718e-07
9.80494e-07
-1.14697e-08
5.1622e-07
-7.86143e-07
-1.39657e-06
-1.3916e-07
-1.59326e-06
1.25298e-06
6.06957e-07
0.00108417
-6.29494e-07
9.86001e-07
-8.7231e-09
5.24531e-07
-7.91735e-07
-1.40491e-06
-1.34661e-07
0.00108723
1.21715e-06
-0.00108608
5.8866e-07
-1.58224e-06
1.91628e-09
-6.17386e-07
-1.39049e-06
-1.20263e-07
-7.71319e-07
5.32397e-07
1.00091e-06
0.00108765
1.21745e-06
-0.00108651
5.88711e-07
-1.58751e-06
4.68385e-09
-6.20124e-07
-1.39891e-06
-1.15777e-07
-7.7693e-07
5.4066e-07
-6.24499e-07
-6.29132e-07
0.000264592
-9.6183e-07
0.000267558
-0.000265392
-1.04103e-07
-9.88839e-08
6.06182e-07
0.00108478
-6.24476e-07
9.44136e-07
-1.42334e-08
5.19314e-07
-7.9142e-07
-1.39913e-06
-1.34355e-07
-1.58786e-06
1.25251e-06
6.06958e-07
0.00108385
-6.29404e-07
9.80702e-07
-8.65508e-09
5.19028e-07
-7.91312e-07
-1.39918e-06
-1.34469e-07
0.00108827
1.21835e-06
-0.00108712
5.87719e-07
-1.54662e-06
-8.0339e-10
-6.15081e-07
-1.39314e-06
-1.15523e-07
-7.76608e-07
5.35393e-07
9.95458e-07
0.00108733
1.21727e-06
-0.00108618
5.89042e-07
-1.58224e-06
4.5944e-09
-6.202e-07
-1.3932e-06
-1.15668e-07
-7.76572e-07
5.3512e-07
1.25306e-06
6.07641e-07
0.00108364
-6.2404e-07
9.75123e-07
-1.4129e-08
5.16104e-07
-7.88943e-07
-1.37002e-07
-1.39681e-06
1.21824e-06
-0.00108685
5.87632e-07
-1.54907e-06
-5.02955e-10
-6.14666e-07
-1.39069e-06
-1.18114e-07
5.3227e-07
-7.74152e-07
9.89983e-07
0.00108713
1.21747e-06
-0.00108598
5.89392e-07
-1.57704e-06
-7.98982e-10
-6.14727e-07
-1.39069e-06
-1.18092e-07
-7.74106e-07
5.32321e-07
-6.21777e-07
-6.29009e-07
0.00026455
-9.56404e-07
0.000267508
-0.00026535
-1.06813e-07
-9.89678e-08
1.25444e-06
6.06415e-07
0.00108469
-6.21724e-07
9.41509e-07
-1.67542e-08
5.13548e-07
-7.89144e-07
-1.36941e-07
-1.39435e-06
1.21876e-06
-0.00108651
5.8802e-07
-1.54367e-06
-3.20701e-09
-6.11919e-07
-1.39066e-06
-1.15869e-07
5.32052e-07
-7.76824e-07
9.56362e-07
0.00108818
1.21898e-06
-0.00108703
5.87911e-07
-1.54398e-06
-3.35161e-09
-6.12319e-07
-1.38831e-06
-1.18085e-07
-7.74361e-07
5.29687e-07
-0.000265364
-1.04286e-07
-9.91073e-08
1.58057e-06
1.54488e-06
-6.07338e-07
-6.12991e-07
0.000265624
-1.01583e-06
-9.76725e-07
0.000268533
-0.000266372
-8.71116e-08
-8.18897e-08
5.83321e-07
0.00108835
-6.14655e-07
1.0027e-06
8.61633e-09
5.37731e-07
-7.66668e-07
-1.38842e-06
-1.14402e-07
-1.58584e-06
1.20633e-06
5.83348e-07
0.00108879
-6.17388e-07
1.00557e-06
8.73005e-09
5.46011e-07
-7.72282e-07
-1.39684e-06
-1.09941e-07
0.00109166
1.17508e-06
-0.00109057
5.69096e-07
-1.57897e-06
1.96776e-08
-6.10131e-07
-1.38236e-06
-9.81459e-08
-7.53677e-07
5.53406e-07
1.0187e-06
0.0010921
1.17531e-06
-0.00109101
5.69051e-07
-1.5816e-06
1.97651e-08
-6.10196e-07
-1.38804e-06
-9.36896e-08
-7.59252e-07
5.59107e-07
-6.1033e-07
-6.15017e-07
0.00026565
-9.79515e-07
0.00026856
-0.000266399
-8.43713e-08
-7.91485e-08
5.82309e-07
0.0010894
-6.12309e-07
9.63667e-07
3.26835e-09
5.40679e-07
-7.71985e-07
-1.39111e-06
-1.09729e-07
-1.58061e-06
1.20625e-06
5.8374e-07
0.00108846
-6.175e-07
1.00008e-06
8.6119e-09
5.40434e-07
-7.71937e-07
-1.39115e-06
-1.09865e-07
0.00109272
1.17628e-06
-0.00109163
5.68082e-07
-1.54047e-06
1.43388e-08
-6.05015e-07
-1.3851e-06
-9.35885e-08
-7.59065e-07
5.56308e-07
1.01316e-06
0.00109177
1.17542e-06
-0.00109068
5.69433e-07
-1.5764e-06
1.96333e-08
-6.10328e-07
-1.38507e-06
-9.36672e-08
-7.58953e-07
5.56146e-07
1.2063e-06
5.83969e-07
0.00108826
-6.1198e-07
9.94644e-07
3.25002e-09
5.37674e-07
-7.69427e-07
-1.12225e-07
-1.3886e-06
1.17606e-06
-0.00109136
5.67975e-07
-1.54296e-06
1.45773e-08
-6.04661e-07
-1.38254e-06
-9.6041e-08
5.53328e-07
-7.56533e-07
1.00781e-06
0.00109157
1.1753e-06
-0.00109048
5.69477e-07
-1.57102e-06
1.43175e-08
-6.04711e-07
-1.38248e-06
-9.59702e-08
-7.56396e-07
5.53399e-07
-6.07702e-07
-6.15136e-07
0.000265608
-9.7391e-07
0.00026851
-0.000266357
-8.7201e-08
-7.93519e-08
1.20782e-06
5.82446e-07
0.00108931
-6.09547e-07
9.61009e-07
7.13396e-10
5.35036e-07
-7.6971e-07
-1.12241e-07
-1.38623e-06
1.17663e-06
-0.00109102
5.68888e-07
-1.53771e-06
1.16845e-08
-6.02092e-07
-1.38245e-06
-9.38613e-08
5.532e-07
-7.59254e-07
9.74034e-07
0.00109263
1.17649e-06
-0.00109154
5.68119e-07
-1.53784e-06
1.17399e-08
-6.02277e-07
-1.38002e-06
-9.59279e-08
-7.56634e-07
5.50885e-07
-0.00026637
-8.4562e-08
-7.92634e-08
1.57779e-06
1.53924e-06
-5.95583e-07
-6.0126e-07
0.000266613
-1.0316e-06
-9.92225e-07
0.000269473
-0.000267314
-7e-08
-6.44484e-08
5.64892e-07
0.00109274
-6.08051e-07
1.01996e-06
2.30683e-08
5.58534e-07
-7.49647e-07
-1.38041e-06
-9.09088e-08
-1.58044e-06
1.16572e-06
5.64877e-07
0.00109318
-6.08142e-07
1.02281e-06
2.31057e-08
5.64273e-07
-7.55222e-07
-1.38606e-06
-8.86779e-08
0.0010959
1.13925e-06
-0.00109486
5.5351e-07
-1.57492e-06
3.2691e-08
-6.02844e-07
-1.37493e-06
-7.71129e-08
-7.41317e-07
5.73512e-07
1.0344e-06
0.00109634
1.13909e-06
-0.00109529
5.53539e-07
-1.57762e-06
3.26456e-08
-6.02949e-07
-1.38048e-06
-7.481e-08
-7.44073e-07
5.7937e-07
-5.98568e-07
-6.03303e-07
0.00026664
-9.95072e-07
0.0002695
-0.000267341
-6.7159e-08
-6.17724e-08
5.63888e-07
0.0010938
-6.02916e-07
9.80807e-07
1.76897e-08
5.61433e-07
-7.55072e-07
-1.38317e-06
-8.8615e-08
-1.57522e-06
1.1659e-06
5.65191e-07
0.00109285
-6.08253e-07
1.01728e-06
2.30017e-08
5.61298e-07
-7.54949e-07
-1.38312e-06
-8.86661e-08
0.00109696
1.14035e-06
-0.00109591
5.52875e-07
-1.53625e-06
2.67798e-08
-5.97623e-07
-1.37758e-06
-7.47808e-08
-7.43971e-07
5.7653e-07
1.02896e-06
0.00109601
1.13922e-06
-0.00109497
5.53576e-07
-1.57232e-06
3.26389e-08
-6.02963e-07
-1.37752e-06
-7.48403e-08
-7.4383e-07
5.76384e-07
1.16578e-06
5.65205e-07
0.00109265
-6.02612e-07
1.01194e-06
1.76773e-08
5.58527e-07
-7.52392e-07
-9.09688e-08
-1.38054e-06
1.14021e-06
-0.00109565
5.52546e-07
-1.53872e-06
2.70256e-08
-5.97278e-07
-1.37497e-06
-7.71245e-08
5.73564e-07
-7.41367e-07
1.02364e-06
0.0010958
1.13948e-06
-0.00109476
5.53906e-07
-1.56687e-06
2.68877e-08
-5.97255e-07
-1.37501e-06
-7.7131e-08
-7.41316e-07
5.73548e-07
-5.96019e-07
-6.0351e-07
0.000266598
-9.89405e-07
0.00026945
-0.000267299
-7.00413e-08
-6.18347e-08
1.16681e-06
5.63956e-07
0.00109371
-6.00199e-07
9.78105e-07
1.50662e-08
5.56072e-07
-7.52587e-07
-9.08912e-08
-1.37801e-06
1.14021e-06
-0.0010953
5.53493e-07
-1.53349e-06
2.40719e-08
-5.94728e-07
-1.37463e-06
-7.48348e-08
5.73687e-07
-7.43883e-07
9.89612e-07
0.00109687
1.14004e-06
-0.00109583
5.52982e-07
-1.53369e-06
2.41655e-08
-5.94911e-07
-1.37231e-06
-7.69513e-08
-7.41362e-07
5.71248e-07
-0.000267312
-6.72936e-08
-6.17842e-08
1.57423e-06
1.53547e-06
-5.86124e-07
-5.91608e-07
0.000267541
-1.04512e-06
-1.00559e-06
0.000270354
-0.000268199
-5.56615e-08
-4.9543e-08
5.49738e-07
0.00109692
-6.01539e-07
1.03516e-06
3.70142e-08
5.78362e-07
-7.37989e-07
-1.37322e-06
-7.292e-08
-1.57695e-06
1.13067e-06
5.49792e-07
0.00109736
-6.01661e-07
1.03793e-06
3.69537e-08
5.84253e-07
-7.40702e-07
-1.37875e-06