/*--------------------------------*- C++ -*----------------------------------*\
| =========                 |                                                 |
| \\      /  F ield         | OpenFOAM: The Open Source CFD Toolbox           |
|  \\    /   O peration     | Version:  v1912                                 |
|   \\  /    A nd           | Website:  www.openfoam.com                      |
|    \\/     M anipulation  |                                                 |
\*---------------------------------------------------------------------------*/
FoamFile
{
    version     2.0;
    format      ascii;
    class       volScalarField;
    location    "0.05";
    object      p;
}
// * * * * * * * * * * * * * * * * * * * * * * * * * * * * * * * * * * * * * //

dimensions      [0 2 -2 0 0 0 0];


internalField   nonuniform List<scalar> 
171728
(
0.022268
0.0222714
0.0222714
0.0222897
0.0220282
0.0220281
0.0220281
0.0220424
0.0217924
0.0217924
0.0217924
0.0218067
0.0215567
0.0215567
0.0215567
0.0215711
0.0213211
0.0213211
0.0213211
0.0213354
0.0210854
0.0210854
0.0210854
0.0210998
0.0208498
0.0208498
0.0208498
0.0208641
0.0206141
0.0206141
0.0206141
0.0206285
0.0203785
0.0203785
0.0203785
0.0203928
0.0201429
0.0201428
0.0201428
0.0201572
0.0199072
0.0199072
0.0199072
0.0199215
0.0196716
0.0196716
0.0196716
0.0196859
0.0194359
0.0194359
0.0194359
0.0194503
0.0192003
0.0192003
0.0192003
0.0192146
0.0189646
0.0189646
0.0189646
0.018979
0.018729
0.018729
0.018729
0.0187433
0.0184934
0.0184933
0.0184933
0.0185077
0.0182577
0.0182577
0.0182577
0.018272
0.0180221
0.0180221
0.0180221
0.0180364
0.0177864
0.0177864
0.0177864
0.0178007
0.0175508
0.0175508
0.0175508
0.0175651
0.0173151
0.0173151
0.0173151
0.0173295
0.0170795
0.0170795
0.0170795
0.0170938
0.0168439
0.0168438
0.0168438
0.0168582
0.0166082
0.0166082
0.0166082
0.0166225
0.0163726
0.0163725
0.0163725
0.0163869
0.0161369
0.0161369
0.0161369
0.0161513
0.0159013
0.0159013
0.0159013
0.0159156
0.0156656
0.0156656
0.0156656
0.01568
0.01543
0.01543
0.01543
0.0154443
0.0151943
0.0151943
0.0151943
0.0152087
0.0149587
0.0149587
0.0149587
0.014973
0.0147231
0.014723
0.014723
0.0147374
0.0144874
0.0144874
0.0144874
0.0145017
0.0142518
0.0142518
0.0142518
0.0142661
0.0140161
0.0140161
0.0140161
0.0140305
0.0137805
0.0137805
0.0137805
0.0137948
0.0135448
0.0135448
0.0135448
0.0135592
0.0133092
0.0133092
0.0133092
0.0133235
0.0130736
0.0130735
0.0130735
0.0130879
0.0128379
0.0128379
0.0128379
0.0128522
0.0126023
0.0126023
0.0126023
0.0126166
0.0123666
0.0123666
0.0123666
0.012381
0.012131
0.012131
0.012131
0.0121453
0.0118953
0.0118953
0.0118953
0.0119097
0.0116597
0.0116597
0.0116597
0.011674
0.011424
0.011424
0.011424
0.0114384
0.0111884
0.0111884
0.0111884
0.0112027
0.0109528
0.0109527
0.0109527
0.0109671
0.0107171
0.0107171
0.0107171
0.0107314
0.0104815
0.0104815
0.0104815
0.0104958
0.0102458
0.0102458
0.0102458
0.0102602
0.0100102
0.0100102
0.0100102
0.0100245
0.00977454
0.00977452
0.00977452
0.00978887
0.00953889
0.00953888
0.00953888
0.00955322
0.00930325
0.00930323
0.00930323
0.00931758
0.00906761
0.00906759
0.00906759
0.00908194
0.00883196
0.00883195
0.00883195
0.00884629
0.00859632
0.0085963
0.0085963
0.00861065
0.00836067
0.00836066
0.00836066
0.008375
0.00812503
0.00812501
0.00812501
0.00813936
0.00788939
0.00788937
0.00788937
0.00790372
0.00765374
0.00765373
0.00765373
0.00766807
0.0074181
0.00741808
0.00741808
0.00743242
0.00718245
0.00718244
0.00718244
0.00719678
0.00694681
0.00694679
0.0069468
0.00696114
0.00671117
0.00671115
0.00671115
0.0067255
0.00647552
0.00647551
0.00647551
0.00648985
0.00623988
0.00623986
0.00623986
0.0062542
0.00600423
0.00600422
0.00600422
0.00601856
0.00576859
0.00576858
0.00576858
0.00578292
0.00553295
0.00553293
0.00553293
0.00554728
0.0052973
0.00529729
0.00529729
0.00531163
0.00506166
0.00506164
0.00506164
0.00507598
0.00482602
0.004826
0.004826
0.00484034
0.00459038
0.00459036
0.00459036
0.00460471
0.00435473
0.00435471
0.00435471
0.00436906
0.00411908
0.00411907
0.00411907
0.00413341
0.00388344
0.00388342
0.00388342
0.00389777
0.0036478
0.00364778
0.00364778
0.00366213
0.00341216
0.00341214
0.00341214
0.00342648
0.00317651
0.00317649
0.0031765
0.00319084
0.00294086
0.00294085
0.00294085
0.00295519
0.00270522
0.00270521
0.00270521
0.00271955
0.00246958
0.00246956
0.00246956
0.00248391
0.00223394
0.00223392
0.00223392
0.00224826
0.00199829
0.00199828
0.00199828
0.00201262
0.00176265
0.00176263
0.00176263
0.00177698
0.001527
0.00152699
0.00152699
0.00154133
0.00129136
0.00129134
0.00129134
0.00130569
0.00105571
0.0010557
0.0010557
0.00107004
0.000820069
0.000820059
0.000820059
0.000834404
0.00058443
0.000584413
0.000584414
0.000598763
0.000348829
0.000348693
0.000348687
0.0003629
0.000114065
0.000127337
0.000127333
0.000128305
0.0223261
0.0223221
0.0223221
0.0223261
0.0223221
0.0223221
0.0223266
0.0223266
0.0223266
0.0223266
0.0223221
0.0223221
0.0223261
0.0223221
0.0223221
0.0223261
0.0222897
0.0220729
0.0222714
0.0222714
0.0220872
0.0220872
0.0222897
0.0220729
0.0222714
0.0222714
0.0220872
0.0220872
0.0222714
0.0220872
0.0220872
0.0222897
0.0220729
0.0222714
0.0220872
0.0220872
0.0220729
0.0220424
0.0218369
0.0220281
0.0220281
0.0218513
0.0218513
0.0220424
0.0218369
0.0220281
0.0220281
0.0218513
0.0218513
0.0220281
0.0218513
0.0218513
0.0220424
0.0218369
0.0220281
0.0218513
0.0218513
0.0218369
0.0218067
0.0216013
0.0217924
0.0217924
0.0216156
0.0216156
0.0218067
0.0216013
0.0217924
0.0217924
0.0216156
0.0216156
0.0217924
0.0216156
0.0216156
0.0218067
0.0216013
0.0217924
0.0216156
0.0216156
0.0216013
0.021571
0.0213656
0.0215567
0.0215567
0.02138
0.02138
0.0215711
0.0213656
0.0215567
0.0215567
0.02138
0.02138
0.0215567
0.02138
0.02138
0.021571
0.0213656
0.0215567
0.02138
0.02138
0.0213656
0.0213354
0.02113
0.0213211
0.0213211
0.0211443
0.0211443
0.0213354
0.02113
0.0213211
0.0213211
0.0211443
0.0211443
0.0213211
0.0211443
0.0211443
0.0213354
0.02113
0.0213211
0.0211443
0.0211443
0.02113
0.0210998
0.0208944
0.0210854
0.0210854
0.0209087
0.0209087
0.0210998
0.0208943
0.0210854
0.0210854
0.0209087
0.0209087
0.0210854
0.0209087
0.0209087
0.0210998
0.0208943
0.0210854
0.0209087
0.0209087
0.0208944
0.0208641
0.0206587
0.0208498
0.0208498
0.020673
0.020673
0.0208641
0.0206587
0.0208498
0.0208498
0.020673
0.020673
0.0208498
0.020673
0.020673
0.0208641
0.0206587
0.0208498
0.020673
0.020673
0.0206587
0.0206285
0.0204231
0.0206141
0.0206141
0.0204374
0.0204374
0.0206285
0.0204231
0.0206141
0.0206141
0.0204374
0.0204374
0.0206141
0.0204374
0.0204374
0.0206285
0.0204231
0.0206141
0.0204374
0.0204374
0.0204231
0.0203928
0.0201874
0.0203785
0.0203785
0.0202018
0.0202018
0.0203928
0.0201874
0.0203785
0.0203785
0.0202018
0.0202018
0.0203785
0.0202018
0.0202018
0.0203928
0.0201874
0.0203785
0.0202018
0.0202018
0.0201874
0.0201572
0.0199518
0.0201428
0.0201428
0.0199661
0.0199661
0.0201572
0.0199518
0.0201428
0.0201428
0.0199661
0.0199661
0.0201428
0.0199661
0.0199661
0.0201572
0.0199518
0.0201428
0.0199661
0.0199661
0.0199518
0.0199215
0.0197161
0.0199072
0.0199072
0.0197305
0.0197305
0.0199216
0.0197161
0.0199072
0.0199072
0.0197305
0.0197305
0.0199072
0.0197305
0.0197305
0.0199215
0.0197161
0.0199072
0.0197305
0.0197305
0.0197161
0.0196859
0.0194805
0.0196716
0.0196716
0.0194948
0.0194948
0.0196859
0.0194805
0.0196716
0.0196716
0.0194948
0.0194948
0.0196716
0.0194948
0.0194948
0.0196859
0.0194805
0.0196716
0.0194948
0.0194948
0.0194805
0.0194503
0.0192449
0.0194359
0.0194359
0.0192592
0.0192592
0.0194503
0.0192448
0.0194359
0.0194359
0.0192592
0.0192592
0.0194359
0.0192592
0.0192592
0.0194503
0.0192448
0.0194359
0.0192592
0.0192592
0.0192449
0.0192146
0.0190092
0.0192003
0.0192003
0.0190235
0.0190235
0.0192146
0.0190092
0.0192003
0.0192003
0.0190235
0.0190235
0.0192003
0.0190235
0.0190235
0.0192146
0.0190092
0.0192003
0.0190235
0.0190235
0.0190092
0.018979
0.0187736
0.0189646
0.0189646
0.0187879
0.0187879
0.018979
0.0187736
0.0189646
0.0189646
0.0187879
0.0187879
0.0189646
0.0187879
0.0187879
0.018979
0.0187736
0.0189646
0.0187879
0.0187879
0.0187736
0.0187433
0.0185379
0.018729
0.018729
0.0185523
0.0185523
0.0187433
0.0185379
0.018729
0.018729
0.0185523
0.0185523
0.018729
0.0185523
0.0185523
0.0187433
0.0185379
0.018729
0.0185523
0.0185523
0.0185379
0.0185077
0.0183023
0.0184933
0.0184933
0.0183166
0.0183166
0.0185077
0.0183023
0.0184933
0.0184933
0.0183166
0.0183166
0.0184933
0.0183166
0.0183166
0.0185077
0.0183023
0.0184933
0.0183166
0.0183166
0.0183023
0.018272
0.0180666
0.0182577
0.0182577
0.018081
0.018081
0.018272
0.0180666
0.0182577
0.0182577
0.018081
0.018081
0.0182577
0.018081
0.018081
0.018272
0.0180666
0.0182577
0.018081
0.018081
0.0180666
0.0180364
0.017831
0.0180221
0.0180221
0.0178453
0.0178453
0.0180364
0.017831
0.0180221
0.0180221
0.0178453
0.0178453
0.0180221
0.0178453
0.0178453
0.0180364
0.017831
0.0180221
0.0178453
0.0178453
0.017831
0.0178008
0.0175953
0.0177864
0.0177864
0.0176097
0.0176097
0.0178008
0.0175953
0.0177864
0.0177864
0.0176097
0.0176097
0.0177864
0.0176097
0.0176097
0.0178008
0.0175953
0.0177864
0.0176097
0.0176097
0.0175953
0.0175651
0.0173597
0.0175508
0.0175508
0.017374
0.017374
0.0175651
0.0173597
0.0175508
0.0175508
0.017374
0.017374
0.0175508
0.017374
0.017374
0.0175651
0.0173597
0.0175508
0.017374
0.017374
0.0173597
0.0173295
0.0171241
0.0173151
0.0173151
0.0171384
0.0171384
0.0173295
0.0171241
0.0173151
0.0173151
0.0171384
0.0171384
0.0173151
0.0171384
0.0171384
0.0173295
0.0171241
0.0173151
0.0171384
0.0171384
0.0171241
0.0170938
0.0168884
0.0170795
0.0170795
0.0169027
0.0169027
0.0170938
0.0168884
0.0170795
0.0170795
0.0169027
0.0169027
0.0170795
0.0169027
0.0169027
0.0170938
0.0168884
0.0170795
0.0169027
0.0169027
0.0168884
0.0168582
0.0166528
0.0168438
0.0168438
0.0166671
0.0166671
0.0168582
0.0166528
0.0168438
0.0168438
0.0166671
0.0166671
0.0168438
0.0166671
0.0166671
0.0168582
0.0166528
0.0168438
0.0166671
0.0166671
0.0166528
0.0166225
0.0164171
0.0166082
0.0166082
0.0164315
0.0164315
0.0166225
0.0164171
0.0166082
0.0166082
0.0164315
0.0164315
0.0166082
0.0164315
0.0164315
0.0166225
0.0164171
0.0166082
0.0164315
0.0164315
0.0164171
0.0163869
0.0161815
0.0163725
0.0163725
0.0161958
0.0161958
0.0163869
0.0161815
0.0163725
0.0163725
0.0161958
0.0161958
0.0163725
0.0161958
0.0161958
0.0163869
0.0161815
0.0163725
0.0161958
0.0161958
0.0161815
0.0161513
0.0159458
0.0161369
0.0161369
0.0159602
0.0159602
0.0161513
0.0159458
0.0161369
0.0161369
0.0159602
0.0159602
0.0161369
0.0159602
0.0159602
0.0161513
0.0159458
0.0161369
0.0159602
0.0159602
0.0159458
0.0159156
0.0157102
0.0159013
0.0159013
0.0157245
0.0157245
0.0159156
0.0157102
0.0159013
0.0159013
0.0157245
0.0157245
0.0159013
0.0157245
0.0157245
0.0159156
0.0157102
0.0159013
0.0157245
0.0157245
0.0157102
0.01568
0.0154745
0.0156656
0.0156656
0.0154889
0.0154889
0.01568
0.0154745
0.0156656
0.0156656
0.0154889
0.0154889
0.0156656
0.0154889
0.0154889
0.01568
0.0154745
0.0156656
0.0154889
0.0154889
0.0154745
0.0154443
0.0152389
0.01543
0.01543
0.0152532
0.0152532
0.0154443
0.0152389
0.01543
0.01543
0.0152532
0.0152532
0.01543
0.0152532
0.0152532
0.0154443
0.0152389
0.01543
0.0152532
0.0152532
0.0152389
0.0152087
0.0150033
0.0151943
0.0151943
0.0150176
0.0150176
0.0152087
0.0150033
0.0151943
0.0151943
0.0150176
0.0150176
0.0151943
0.0150176
0.0150176
0.0152087
0.0150033
0.0151943
0.0150176
0.0150176
0.0150033
0.014973
0.0147676
0.0149587
0.0149587
0.014782
0.014782
0.014973
0.0147676
0.0149587
0.0149587
0.014782
0.014782
0.0149587
0.014782
0.014782
0.014973
0.0147676
0.0149587
0.014782
0.014782
0.0147676
0.0147374
0.014532
0.014723
0.014723
0.0145463
0.0145463
0.0147374
0.014532
0.014723
0.014723
0.0145463
0.0145463
0.014723
0.0145463
0.0145463
0.0147374
0.014532
0.014723
0.0145463
0.0145463
0.014532
0.0145017
0.0142963
0.0144874
0.0144874
0.0143107
0.0143107
0.0145017
0.0142963
0.0144874
0.0144874
0.0143107
0.0143107
0.0144874
0.0143107
0.0143107
0.0145017
0.0142963
0.0144874
0.0143107
0.0143107
0.0142963
0.0142661
0.0140607
0.0142518
0.0142518
0.014075
0.014075
0.0142661
0.0140607
0.0142518
0.0142518
0.014075
0.014075
0.0142518
0.014075
0.014075
0.0142661
0.0140607
0.0142518
0.014075
0.014075
0.0140607
0.0140305
0.013825
0.0140161
0.0140161
0.0138394
0.0138394
0.0140305
0.013825
0.0140161
0.0140161
0.0138394
0.0138394
0.0140161
0.0138394
0.0138394
0.0140305
0.013825
0.0140161
0.0138394
0.0138394
0.013825
0.0137948
0.0135894
0.0137805
0.0137805
0.0136037
0.0136037
0.0137948
0.0135894
0.0137805
0.0137805
0.0136037
0.0136037
0.0137805
0.0136037
0.0136037
0.0137948
0.0135894
0.0137805
0.0136037
0.0136037
0.0135894
0.0135592
0.0133538
0.0135448
0.0135448
0.0133681
0.0133681
0.0135592
0.0133538
0.0135448
0.0135448
0.0133681
0.0133681
0.0135448
0.0133681
0.0133681
0.0135592
0.0133538
0.0135448
0.0133681
0.0133681
0.0133538
0.0133235
0.0131181
0.0133092
0.0133092
0.0131324
0.0131324
0.0133235
0.0131181
0.0133092
0.0133092
0.0131324
0.0131324
0.0133092
0.0131324
0.0131324
0.0133235
0.0131181
0.0133092
0.0131324
0.0131324
0.0131181
0.0130879
0.0128825
0.0130735
0.0130735
0.0128968
0.0128968
0.0130879
0.0128825
0.0130735
0.0130735
0.0128968
0.0128968
0.0130735
0.0128968
0.0128968
0.0130879
0.0128825
0.0130735
0.0128968
0.0128968
0.0128825
0.0128522
0.0126468
0.0128379
0.0128379
0.0126612
0.0126612
0.0128522
0.0126468
0.0128379
0.0128379
0.0126612
0.0126612
0.0128379
0.0126612
0.0126612
0.0128522
0.0126468
0.0128379
0.0126612
0.0126612
0.0126468
0.0126166
0.0124112
0.0126023
0.0126023
0.0124255
0.0124255
0.0126166
0.0124112
0.0126023
0.0126023
0.0124255
0.0124255
0.0126023
0.0124255
0.0124255
0.0126166
0.0124112
0.0126023
0.0124255
0.0124255
0.0124112
0.012381
0.0121755
0.0123666
0.0123666
0.0121899
0.0121899
0.012381
0.0121755
0.0123666
0.0123666
0.0121899
0.0121899
0.0123666
0.0121899
0.0121899
0.012381
0.0121755
0.0123666
0.0121899
0.0121899
0.0121755
0.0121453
0.0119399
0.012131
0.012131
0.0119542
0.0119542
0.0121453
0.0119399
0.012131
0.012131
0.0119542
0.0119542
0.012131
0.0119542
0.0119542
0.0121453
0.0119399
0.012131
0.0119542
0.0119542
0.0119399
0.0119097
0.0117043
0.0118953
0.0118953
0.0117186
0.0117186
0.0119097
0.0117043
0.0118953
0.0118953
0.0117186
0.0117186
0.0118953
0.0117186
0.0117186
0.0119097
0.0117043
0.0118953
0.0117186
0.0117186
0.0117043
0.011674
0.0114686
0.0116597
0.0116597
0.0114829
0.0114829
0.011674
0.0114686
0.0116597
0.0116597
0.0114829
0.0114829
0.0116597
0.0114829
0.0114829
0.011674
0.0114686
0.0116597
0.0114829
0.0114829
0.0114686
0.0114384
0.011233
0.011424
0.011424
0.0112473
0.0112473
0.0114384
0.011233
0.011424
0.011424
0.0112473
0.0112473
0.011424
0.0112473
0.0112473
0.0114384
0.011233
0.011424
0.0112473
0.0112473
0.011233
0.0112027
0.0109973
0.0111884
0.0111884
0.0110117
0.0110117
0.0112027
0.0109973
0.0111884
0.0111884
0.0110117
0.0110117
0.0111884
0.0110117
0.0110117
0.0112027
0.0109973
0.0111884
0.0110117
0.0110117
0.0109973
0.0109671
0.0107617
0.0109527
0.0109527
0.010776
0.010776
0.0109671
0.0107617
0.0109527
0.0109527
0.010776
0.010776
0.0109527
0.010776
0.010776
0.0109671
0.0107617
0.0109527
0.010776
0.010776
0.0107617
0.0107314
0.010526
0.0107171
0.0107171
0.0105404
0.0105404
0.0107314
0.010526
0.0107171
0.0107171
0.0105404
0.0105404
0.0107171
0.0105404
0.0105404
0.0107314
0.010526
0.0107171
0.0105404
0.0105404
0.010526
0.0104958
0.0102904
0.0104815
0.0104815
0.0103047
0.0103047
0.0104958
0.0102904
0.0104815
0.0104815
0.0103047
0.0103047
0.0104815
0.0103047
0.0103047
0.0104958
0.0102904
0.0104815
0.0103047
0.0103047
0.0102904
0.0102602
0.0100547
0.0102458
0.0102458
0.0100691
0.0100691
0.0102602
0.0100547
0.0102458
0.0102458
0.0100691
0.0100691
0.0102458
0.0100691
0.0100691
0.0102602
0.0100547
0.0102458
0.0100691
0.0100691
0.0100547
0.0100245
0.0098191
0.0100102
0.0100102
0.00983343
0.00983343
0.0100245
0.0098191
0.0100102
0.0100102
0.00983343
0.00983343
0.0100102
0.00983343
0.00983343
0.0100245
0.0098191
0.0100102
0.00983343
0.00983343
0.0098191
0.00978887
0.00958345
0.00977452
0.00977452
0.00959779
0.00959779
0.00978887
0.00958345
0.00977452
0.00977452
0.00959779
0.00959779
0.00977452
0.00959779
0.00959779
0.00978887
0.00958345
0.00977452
0.00959779
0.00959779
0.00958345
0.00955322
0.00934781
0.00953888
0.00953888
0.00936214
0.00936214
0.00955322
0.00934781
0.00953888
0.00953888
0.00936214
0.00936214
0.00953887
0.00936214
0.00936214
0.00955322
0.00934781
0.00953887
0.00936214
0.00936214
0.00934781
0.00931758
0.00911217
0.00930323
0.00930323
0.0091265
0.0091265
0.00931758
0.00911217
0.00930323
0.00930323
0.0091265
0.0091265
0.00930323
0.0091265
0.0091265
0.00931758
0.00911217
0.00930323
0.0091265
0.0091265
0.00911217
0.00908194
0.00887653
0.00906759
0.00906759
0.00889086
0.00889086
0.00908194
0.00887653
0.00906759
0.00906759
0.00889086
0.00889086
0.00906759
0.00889086
0.00889086
0.00908194
0.00887653
0.00906759
0.00889086
0.00889086
0.00887652
0.00884629
0.00864088
0.00883195
0.00883195
0.00865521
0.00865521
0.00884629
0.00864088
0.00883195
0.00883195
0.00865521
0.00865521
0.00883195
0.00865521
0.00865521
0.00884629
0.00864088
0.00883195
0.00865521
0.00865521
0.00864088
0.00861065
0.00840523
0.0085963
0.0085963
0.00841957
0.00841957
0.00861065
0.00840523
0.0085963
0.0085963
0.00841957
0.00841957
0.0085963
0.00841957
0.00841957
0.00861065
0.00840523
0.0085963
0.00841957
0.00841957
0.00840523
0.008375
0.00816959
0.00836066
0.00836066
0.00818392
0.00818392
0.008375
0.00816959
0.00836066
0.00836066
0.00818392
0.00818392
0.00836065
0.00818392
0.00818392
0.008375
0.00816959
0.00836065
0.00818392
0.00818392
0.00816959
0.00813936
0.00793395
0.00812501
0.00812501
0.00794828
0.00794828
0.00813936
0.00793395
0.00812501
0.00812501
0.00794828
0.00794828
0.00812501
0.00794828
0.00794828
0.00813936
0.00793395
0.00812501
0.00794828
0.00794828
0.00793395
0.00790372
0.0076983
0.00788937
0.00788937
0.00771264
0.00771264
0.00790372
0.0076983
0.00788937
0.00788937
0.00771264
0.00771264
0.00788937
0.00771264
0.00771264
0.00790372
0.0076983
0.00788937
0.00771264
0.00771264
0.0076983
0.00766807
0.00746266
0.00765373
0.00765373
0.00747699
0.00747699
0.00766807
0.00746266
0.00765373
0.00765373
0.00747699
0.00747699
0.00765373
0.00747699
0.00747699
0.00766807
0.00746266
0.00765373
0.00747699
0.00747699
0.00746266
0.00743243
0.00722701
0.00741808
0.00741808
0.00724135
0.00724135
0.00743243
0.00722701
0.00741808
0.00741808
0.00724135
0.00724135
0.00741808
0.00724135
0.00724135
0.00743243
0.00722701
0.00741808
0.00724135
0.00724135
0.00722701
0.00719678
0.00699137
0.00718244
0.00718244
0.00700571
0.0070057
0.00719678
0.00699137
0.00718244
0.00718244
0.00700571
0.00700571
0.00718244
0.0070057
0.0070057
0.00719678
0.00699137
0.00718244
0.0070057
0.0070057
0.00699137
0.00696114
0.00675573
0.0069468
0.00694679
0.00677006
0.00677006
0.00696114
0.00675573
0.0069468
0.0069468
0.00677006
0.00677006
0.00694679
0.00677006
0.00677006
0.00696114
0.00675573
0.00694679
0.00677006
0.00677006
0.00675573
0.0067255
0.00652008
0.00671115
0.00671115
0.00653442
0.00653442
0.0067255
0.00652008
0.00671115
0.00671115
0.00653442
0.00653442
0.00671115
0.00653442
0.00653442
0.0067255
0.00652008
0.00671115
0.00653442
0.00653442
0.00652008
0.00648985
0.00628444
0.00647551
0.00647551
0.00629877
0.00629877
0.00648985
0.00628444
0.00647551
0.00647551
0.00629877
0.00629877
0.00647551
0.00629877
0.00629877
0.00648985
0.00628444
0.00647551
0.00629877
0.00629877
0.00628444
0.00625421
0.00604879
0.00623986
0.00623986
0.00606313
0.00606313
0.0062542
0.00604879
0.00623986
0.00623986
0.00606313
0.00606313
0.00623986
0.00606313
0.00606313
0.00625421
0.00604879
0.00623986
0.00606313
0.00606313
0.00604879
0.00601856
0.00581315
0.00600422
0.00600422
0.00582749
0.00582749
0.00601856
0.00581315
0.00600422
0.00600422
0.00582749
0.00582749
0.00600422
0.00582749
0.00582749
0.00601856
0.00581315
0.00600422
0.00582749
0.00582749
0.00581315
0.00578292
0.00557751
0.00576858
0.00576858
0.00559185
0.00559185
0.00578292
0.00557751
0.00576858
0.00576858
0.00559185
0.00559185
0.00576858
0.00559184
0.00559184
0.00578292
0.00557751
0.00576858
0.00559185
0.00559184
0.00557751
0.00554728
0.00534186
0.00553293
0.00553293
0.0053562
0.0053562
0.00554728
0.00534186
0.00553293
0.00553293
0.0053562
0.0053562
0.00553293
0.0053562
0.0053562
0.00554728
0.00534186
0.00553293
0.0053562
0.0053562
0.00534186
0.00531163
0.00510622
0.00529729
0.00529729
0.00512055
0.00512055
0.00531163
0.00510622
0.00529729
0.00529729
0.00512055
0.00512055
0.00529729
0.00512055
0.00512055
0.00531163
0.00510622
0.00529728
0.00512055
0.00512055
0.00510622
0.00507599
0.00487058
0.00506164
0.00506164
0.00488491
0.00488491
0.00507599
0.00487058
0.00506164
0.00506164
0.00488491
0.00488491
0.00506164
0.00488491
0.00488491
0.00507599
0.00487058
0.00506164
0.00488491
0.00488491
0.00487057
0.00484035
0.00463494
0.004826
0.004826
0.00464927
0.00464927
0.00484034
0.00463494
0.004826
0.004826
0.00464927
0.00464927
0.004826
0.00464927
0.00464927
0.00484035
0.00463494
0.004826
0.00464927
0.00464927
0.00463494
0.00460471
0.00439929
0.00459036
0.00459036
0.00441363
0.00441363
0.00460471
0.00439929
0.00459036
0.00459036
0.00441363
0.00441363
0.00459036
0.00441363
0.00441362
0.00460471
0.00439929
0.00459036
0.00441363
0.00441362
0.00439929
0.00436906
0.00416364
0.00435471
0.00435471
0.00417798
0.00417798
0.00436906
0.00416364
0.00435471
0.00435471
0.00417798
0.00417798
0.00435471
0.00417798
0.00417798
0.00436906
0.00416364
0.00435471
0.00417798
0.00417798
0.00416364
0.00413341
0.003928
0.00411907
0.00411907
0.00394233
0.00394233
0.00413341
0.003928
0.00411907
0.00411907
0.00394233
0.00394233
0.00411906
0.00394233
0.00394233
0.00413341
0.003928
0.00411906
0.00394233
0.00394233
0.003928
0.00389777
0.00369236
0.00388342
0.00388342
0.00370669
0.00370669
0.00389777
0.00369236
0.00388342
0.00388342
0.00370669
0.00370669
0.00388342
0.00370669
0.00370669
0.00389777
0.00369236
0.00388342
0.00370669
0.00370669
0.00369236
0.00366213
0.00345672
0.00364778
0.00364778
0.00347105
0.00347105
0.00366213
0.00345672
0.00364778
0.00364778
0.00347105
0.00347105
0.00364778
0.00347105
0.00347105
0.00366213
0.00345672
0.00364778
0.00347105
0.00347105
0.00345672
0.00342649
0.00322107
0.00341214
0.00341214
0.00323541
0.00323541
0.00342649
0.00322107
0.00341214
0.00341214
0.00323541
0.00323541
0.00341214
0.00323541
0.00323541
0.00342649
0.00322107
0.00341214
0.00323541
0.00323541
0.00322107
0.00319084
0.00298543
0.0031765
0.00317649
0.00299976
0.00299976
0.00319084
0.00298543
0.0031765
0.0031765
0.00299976
0.00299976
0.00317649
0.00299976
0.00299976
0.00319084
0.00298543
0.00317649
0.00299976
0.00299976
0.00298543
0.00295519
0.00274978
0.00294085
0.00294085
0.00276412
0.00276412
0.00295519
0.00274978
0.00294085
0.00294085
0.00276412
0.00276412
0.00294085
0.00276412
0.00276412
0.00295519
0.00274978
0.00294085
0.00276412
0.00276412
0.00274978
0.00271955
0.00251414
0.00270521
0.00270521
0.00252847
0.00252847
0.00271955
0.00251414
0.00270521
0.00270521
0.00252847
0.00252847
0.00270521
0.00252847
0.00252847
0.00271955
0.00251414
0.00270521
0.00252847
0.00252847
0.00251414
0.00248391
0.0022785
0.00246956
0.00246956
0.00229283
0.00229283
0.00248391
0.0022785
0.00246956
0.00246956
0.00229283
0.00229283
0.00246956
0.00229283
0.00229283
0.00248391
0.0022785
0.00246956
0.00229283
0.00229283
0.0022785
0.00224827
0.00204285
0.00223392
0.00223392
0.00205719
0.00205719
0.00224826
0.00204285
0.00223392
0.00223392
0.00205719
0.00205719
0.00223392
0.00205719
0.00205719
0.00224827
0.00204285
0.00223392
0.00205719
0.00205719
0.00204285
0.00201262
0.00180721
0.00199828
0.00199828
0.00182154
0.00182154
0.00201262
0.00180721
0.00199828
0.00199828
0.00182154
0.00182154
0.00199828
0.00182154
0.00182154
0.00201262
0.00180721
0.00199828
0.00182154
0.00182154
0.00180721
0.00177698
0.00157156
0.00176263
0.00176263
0.0015859
0.0015859
0.00177698
0.00157156
0.00176263
0.00176263
0.0015859
0.0015859
0.00176263
0.0015859
0.0015859
0.00177698
0.00157156
0.00176263
0.0015859
0.0015859
0.00157156
0.00154133
0.00133592
0.00152699
0.00152699
0.00135025
0.00135025
0.00154133
0.00133592
0.00152699
0.00152699
0.00135026
0.00135026
0.00152699
0.00135025
0.00135025
0.00154133
0.00133592
0.00152699
0.00135026
0.00135025
0.00133592
0.00130569
0.00110028
0.00129134
0.00129134
0.00111461
0.00111461
0.00130569
0.00110028
0.00129134
0.00129134
0.00111461
0.00111461
0.00129134
0.00111461
0.00111461
0.00130569
0.00110028
0.00129134
0.00111461
0.00111461
0.00110028
0.00107004
0.000864635
0.0010557
0.0010557
0.000878968
0.000878968
0.00107004
0.000864635
0.0010557
0.0010557
0.000878968
0.000878969
0.0010557
0.000878969
0.000878969
0.00107004
0.000864635
0.0010557
0.000878969
0.000878969
0.000864635
0.000834404
0.000628992
0.000820059
0.000820059
0.000643325
0.000643327
0.000834404
0.000628994
0.000820058
0.000820059
0.000643326
0.000643327
0.000820059
0.000643326
0.000643326
0.000834405
0.000628994
0.000820059
0.000643327
0.000643326
0.000628994
0.000598764
0.000393335
0.000584413
0.000584413
0.000407656
0.000407656
0.000598765
0.000393333
0.000584414
0.000584415
0.000407655
0.000407652
0.000584414
0.000407657
0.000407652
0.000598764
0.000393327
0.000584415
0.000407658
0.000407654
0.000393329
0.000362907
0.00015823
0.000348695
0.000348692
0.000172732
0.000172735
0.000362905
0.000158232
0.00034869
0.000348684
0.00017273
0.000172727
0.000348686
0.000172731
0.000172725
0.000362891
0.000158225
0.000348689
0.000172726
0.000172727
0.000158224
0.000128311
0.000127337
0.00012734
0.000128314
0.000127336
0.000127334
0.000114066
0.000114063
0.000114061
0.000127331
0.000128308
0.000127332
0.022357
0.0223999
0.022376
0.022376
0.0224621
0.0224169
0.0225351
0.0223894
0.0224621
0.0224169
0.0223894
0.022535
0.0224367
0.0225559
0.0225559
0.0221882
0.0222834
0.0222843
0.0221879
0.0222294
0.0221874
0.0221882
0.0222835
0.0222843
0.0221879
0.022268
0.022268
0.022268
0.0220873
0.0220873
0.0220873
0.0220873
0.0221897
0.0222907
0.0222692
0.0222072
0.0222872
0.0221893
0.022207
0.0222295
0.0221874
0.0221897
0.0222692
0.0222906
0.0222072
0.0222872
0.022207
0.0221893
0.0222905
0.0222905
0.0221918
0.022189
0.022189
0.0219544
0.0220426
0.0220425
0.0219544
0.0220426
0.0219544
0.0219544
0.0220426
0.0220425
0.0219544
0.0220282
0.0220282
0.0220282
0.0218513
0.0218513
0.0218513
0.0218513
0.0219544
0.0220427
0.0220281
0.0219691
0.0220424
0.0219545
0.0219692
0.0220426
0.0219544
0.0219544
0.0220281
0.0220426
0.0219691
0.0220424
0.0219692
0.0219545
0.0220427
0.0220427
0.0219547
0.0219544
0.0219544
0.0217187
0.0218071
0.0218071
0.0217187
0.0218071
0.0217187
0.0217187
0.0218071
0.0218071
0.0217187
0.0217924
0.0217924
0.0217924
0.0216156
0.0216156
0.0216156
0.0216156
0.0217188
0.021807
0.0217924
0.0217334
0.021807
0.0217188
0.0217334
0.0218071
0.0217187
0.0217188
0.0217924
0.021807
0.0217334
0.021807
0.0217334
0.0217188
0.0218071
0.0218071
0.0217191
0.0217187
0.0217187
0.0214831
0.0215714
0.0215714
0.0214831
0.0215714
0.0214831
0.0214831
0.0215714
0.0215714
0.0214831
0.0215567
0.0215567
0.0215567
0.02138
0.02138
0.02138
0.02138
0.0214831
0.0215714
0.0215567
0.0214978
0.0215714
0.0214832
0.0214978
0.0215714
0.0214831
0.0214831
0.0215567
0.0215714
0.0214978
0.0215714
0.0214978
0.0214832
0.0215714
0.0215714
0.0214835
0.0214831
0.0214831
0.0212475
0.0213358
0.0213358
0.0212475
0.0213358
0.0212475
0.0212475
0.0213358
0.0213358
0.0212475
0.0213211
0.0213211
0.0213211
0.0211443
0.0211443
0.0211443
0.0211443
0.0212475
0.0213357
0.0213211
0.0212622
0.0213358
0.0212475
0.0212622
0.0213358
0.0212475
0.0212475
0.0213211
0.0213357
0.0212622
0.0213358
0.0212622
0.0212475
0.0213358
0.0213358
0.0212478
0.0212475
0.0212475
0.0210118
0.0211001
0.0211001
0.0210118
0.0211002
0.0210118
0.0210118
0.0211001
0.0211001
0.0210118
0.0210854
0.0210854
0.0210854
0.0209087
0.0209087
0.0209087
0.0209087
0.0210118
0.0211001
0.0210854
0.0210265
0.0211001
0.0210119
0.0210265
0.0211001
0.0210118
0.0210118
0.0210854
0.0211001
0.0210265
0.0211001
0.0210265
0.0210119
0.0211001
0.0211001
0.0210122
0.0210118
0.0210118
0.0207762
0.0208645
0.0208645
0.0207762
0.0208645
0.0207762
0.0207762
0.0208645
0.0208645
0.0207762
0.0208498
0.0208498
0.0208498
0.0206731
0.0206731
0.0206731
0.0206731
0.0207762
0.0208644
0.0208498
0.0207909
0.0208645
0.0207762
0.0207909
0.0208645
0.0207762
0.0207762
0.0208498
0.0208644
0.0207909
0.0208645
0.0207909
0.0207762
0.0208645
0.0208645
0.0207765
0.0207762
0.0207762
0.0205405
0.0206289
0.0206289
0.0205405
0.0206288
0.0205405
0.0205405
0.0206289
0.0206289
0.0205405
0.0206142
0.0206142
0.0206142
0.0204374
0.0204374
0.0204374
0.0204374
0.0205406
0.0206288
0.0206141
0.0205552
0.0206288
0.0205406
0.0205552
0.0206289
0.0205405
0.0205406
0.0206141
0.0206288
0.0205552
0.0206288
0.0205552
0.0205406
0.0206288
0.0206288
0.0205409
0.0205405
0.0205405
0.0203049
0.0203932
0.0203932
0.0203049
0.0203932
0.0203049
0.0203049
0.0203932
0.0203932
0.0203049
0.0203785
0.0203785
0.0203785
0.0202018
0.0202018
0.0202018
0.0202018
0.0203049
0.0203931
0.0203785
0.0203196
0.0203932
0.0203049
0.0203196
0.0203932
0.0203049
0.0203049
0.0203785
0.0203931
0.0203196
0.0203932
0.0203196
0.0203049
0.0203932
0.0203932
0.0203052
0.0203049
0.0203049
0.0200692
0.0201576
0.0201576
0.0200692
0.0201576
0.0200692
0.0200692
0.0201576
0.0201576
0.0200692
0.0201429
0.0201429
0.0201429
0.0199661
0.0199661
0.0199661
0.0199661
0.0200693
0.0201575
0.0201428
0.0200839
0.0201575
0.0200693
0.0200839
0.0201576
0.0200692
0.0200693
0.0201428
0.0201575
0.0200839
0.0201575
0.0200839
0.0200693
0.0201576
0.0201576
0.0200696
0.0200692
0.0200692
0.0198336
0.0199219
0.0199219
0.0198336
0.0199219
0.0198336
0.0198336
0.0199219
0.0199219
0.0198336
0.0199072
0.0199072
0.0199072
0.0197305
0.0197305
0.0197305
0.0197305
0.0198336
0.0199219
0.0199072
0.0198483
0.0199219
0.0198337
0.0198483
0.0199219
0.0198336
0.0198336
0.0199072
0.0199219
0.0198483
0.0199219
0.0198483
0.0198337
0.0199219
0.0199219
0.019834
0.0198336
0.0198336
0.0195979
0.0196863
0.0196863
0.0195979
0.0196863
0.019598
0.019598
0.0196863
0.0196863
0.0195979
0.0196716
0.0196716
0.0196716
0.0194948
0.0194948