/*--------------------------------*- C++ -*----------------------------------*\
| =========                 |                                                 |
| \\      /  F ield         | OpenFOAM: The Open Source CFD Toolbox           |
|  \\    /   O peration     | Version:  v1906                                 |
|   \\  /    A nd           | Web:      www.OpenFOAM.com                      |
|    \\/     M anipulation  |                                                 |
\*---------------------------------------------------------------------------*/
FoamFile
{
    version     2.0;
    format      ascii;
    class       volScalarField;
    location    "250";
    object      p;
}
// * * * * * * * * * * * * * * * * * * * * * * * * * * * * * * * * * * * * * //

dimensions      [0 2 -2 0 0 0 0];


internalField   nonuniform List<scalar> 
43024
(
0.00070631
0.000706295
0.000706291
0.000707882
0.000670865
0.000670849
0.000670845
0.000672439
0.00063542
0.000635401
0.000635401
0.000636993
0.000599971
0.000599952
0.000599953
0.000601544
0.000564517
0.0005645
0.0005645
0.000566094
0.000529067
0.00052905
0.000529048
0.000530643
0.000493614
0.000493597
0.000493598
0.00049519
0.000458161
0.000458141
0.000458143
0.000459733
0.000422704
0.000422687
0.000422688
0.000424278
0.000387248
0.000387231
0.000387232
0.000388826
0.000351793
0.000351777
0.000351775
0.00035337
0.000316337
0.000316323
0.00031632
0.000317914
0.000280878
0.000280865
0.000280864
0.000282456
0.000245418
0.000245405
0.000245407
0.000246995
0.000209954
0.000209944
0.000209942
0.000211529
0.000174486
0.000174475
0.000174477
0.000176057
0.000139014
0.000139009
0.000139009
0.000140581
0.000103537
0.000103533
0.000103535
0.00010508
6.80587e-05
6.80507e-05
6.80539e-05
6.95389e-05
3.32137e-05
3.27585e-05
3.27581e-05
3.39353e-05
6.68871e-06
7.52452e-06
7.52504e-06
5.66096e-06
0.000713563
0.000715154
0.000715154
0.000713563
0.000715155
0.000715153
0.000715155
0.000715152
0.00071356
0.000715153
0.00071515
0.000713558
0.000707887
0.000678118
0.000706294
0.000706294
0.000679709
0.00067971
0.000707886
0.000678119
0.000706294
0.00070629
0.000679709
0.000679706
0.000706291
0.00067971
0.000679705
0.000707883
0.000678115
0.000706289
0.000679707
0.000679707
0.000678115
0.000672443
0.000642673
0.00067085
0.000670849
0.000644263
0.000644261
0.000672442
0.000642671
0.00067085
0.000670846
0.000644264
0.00064426
0.000670844
0.000644263
0.000644262
0.000672438
0.000642668
0.000670846
0.000644261
0.000644262
0.00064267
0.000636998
0.000607223
0.000635403
0.000635399
0.000608814
0.000608815
0.000636995
0.000607224
0.000635404
0.0006354
0.000608816
0.000608813
0.000635401
0.000608816
0.000608811
0.000636993
0.000607223
0.000635401
0.000608817
0.000608812
0.00060722
0.000601546
0.000571774
0.000599952
0.000599953
0.000573361
0.000573362
0.000601546
0.00057177
0.000599953
0.000599951
0.000573362
0.000573362
0.000599949
0.000573361
0.000573361
0.000601545
0.000571773
0.00059995
0.000573364
0.000573365
0.000571771
0.000566093
0.000536319
0.000564496
0.000564499
0.000537912
0.00053791
0.000566092
0.000536319
0.000564499
0.000564499
0.000537912
0.000537911
0.000564498
0.000537911
0.00053791
0.000566094
0.000536323
0.000564501
0.000537911
0.00053791
0.00053632
0.000530642
0.000500866
0.000529051
0.000529048
0.000502458
0.000502458
0.000530643
0.000500868
0.00052905
0.000529047
0.000502459
0.000502459
0.000529048
0.000502459
0.000502458
0.000530643
0.000500869
0.000529047
0.000502461
0.000502459
0.000500867
0.000495188
0.000465413
0.000493595
0.000493594
0.000467005
0.000467003
0.000495188
0.000465414
0.000493597
0.000493597
0.000467004
0.000467004
0.000493596
0.000467006
0.000467004
0.000495191
0.000465412
0.000493597
0.000467005
0.000467003
0.000465411
0.000459735
0.00042996
0.000458142
0.00045814
0.000431549
0.000431548
0.000459736
0.000429959
0.000458142
0.000458143
0.000431548
0.000431551
0.00045814
0.00043155
0.000431548
0.000459735
0.00042996
0.000458139
0.000431552
0.000431548
0.000429958
0.000424281
0.000394502
0.000422686
0.000422685
0.000396093
0.000396093
0.000424282
0.000394504
0.000422684
0.000422686
0.000396094
0.000396089
0.000422686
0.000396094
0.000396094
0.00042428
0.000394501
0.000422686
0.000396093
0.000396094
0.000394504
0.000388824
0.000359044
0.00038723
0.000387231
0.000360635
0.000360639
0.000388825
0.000359048
0.000387231
0.000387227
0.000360638
0.000360638
0.000387233
0.00036064
0.000360637
0.000388823
0.000359047
0.000387232
0.000360637
0.000360637
0.000359047
0.000353366
0.000323594
0.000351774
0.000351776
0.000325184
0.000325183
0.00035337
0.000323594
0.000351777
0.000351776
0.000325183
0.000325183
0.000351777
0.000325184
0.000325184
0.000353368
0.00032359
0.000351777
0.000325179
0.000325181
0.00032359
0.000317916
0.000288136
0.000316323
0.000316323
0.000289726
0.000289728
0.000317916
0.000288138
0.000316321
0.000316322
0.000289724
0.000289725
0.000316322
0.000289725
0.000289726
0.000317912
0.000288134
0.000316321
0.000289726
0.000289726
0.000288135
0.000282456
0.000252675
0.000280864
0.000280865
0.000254265
0.000254266
0.000282457
0.000252677
0.000280862
0.000280864
0.000254263
0.000254265
0.000280865
0.000254267
0.000254266
0.000282454
0.000252676
0.000280864
0.000254267
0.000254266
0.000252676
0.000246993
0.000217214
0.000245403
0.000245403
0.000218803
0.000218802
0.000246995
0.000217212
0.000245404
0.000245404
0.000218804
0.000218802
0.000245405
0.000218803
0.000218802
0.000246995
0.000217213
0.000245407
0.000218802
0.000218802
0.000217213
0.00021153
0.00018175
0.000209943
0.000209942
0.000183336
0.000183334
0.000211528
0.000181748
0.000209944
0.000209944
0.000183335
0.000183334
0.000209942
0.000183333
0.000183334
0.00021153
0.000181747
0.000209941
0.000183334
0.000183335
0.000181747
0.00017606
0.000146282
0.000174478
0.000174478
0.000147863
0.000147863
0.000176059
0.000146279
0.000174478
0.000174476
0.000147864
0.000147864
0.000174477
0.000147864
0.000147863
0.000176058
0.000146283
0.000174477
0.000147864
0.000147864
0.000146283
0.000140581
0.000110806
0.000139008
0.000139009
0.000112385
0.000112384
0.000140578
0.000110806
0.000139008
0.00013901
0.000112386
0.000112384
0.000139009
0.000112384
0.000112385
0.000140581
0.000110808
0.000139009
0.000112385
0.000112384
0.000110805
0.000105081
7.53231e-05
0.000103535
0.000103532
7.68904e-05
7.68919e-05
0.000105079
7.53223e-05
0.000103535
0.000103534
7.68933e-05
7.68926e-05
0.000103535
7.68923e-05
7.68922e-05
0.000105082
7.53214e-05
0.000103535
7.68943e-05
7.68943e-05
7.53219e-05
6.9539e-05
3.98738e-05
6.80496e-05
6.80505e-05
4.14648e-05
4.14654e-05
6.95384e-05
3.98744e-05
6.80516e-05
6.8052e-05
4.14628e-05
4.14641e-05
6.80516e-05
4.14636e-05
4.14619e-05
6.95392e-05
3.9874e-05
6.80537e-05
4.14646e-05
4.14613e-05
3.98705e-05
3.39387e-05
8.34128e-06
3.27599e-05
3.27595e-05
1.0656e-05
1.06548e-05
3.39392e-05
8.33993e-06
3.27584e-05
3.27579e-05
1.06568e-05
1.06494e-05
3.27559e-05
1.06527e-05
1.06469e-05
3.3939e-05
8.33703e-06
3.27558e-05
1.06519e-05
1.06516e-05
8.3355e-06
5.66467e-06
7.52573e-06
7.52609e-06
5.6638e-06
7.52533e-06
7.52211e-06
6.68777e-06
6.68613e-06
6.68633e-06
7.52257e-06
5.66054e-06
7.52645e-06
0.000730735
0.000730727
0.000730719
0.00073073
0.000730722
0.000715173
0.000715171
0.00071517
0.000715171
0.00073082
0.00073287
0.000730769
0.000732878
0.000730718
0.000730822
0.00073287
0.000732872
0.00073077
0.000731279
0.000730719
0.000730721
0.000695291
0.000708452
0.000708448
0.000695283
0.000708456
0.000695278
0.000695288
0.000708452
0.000708444
0.000695282
0.00070631
0.000706307
0.000706309
0.000679725
0.000679726
0.000679722
0.000679722
0.00069538
0.000708402
0.000706297
0.000697432
0.000708353
0.000695326
0.000697435
0.000708457
0.000695276
0.000695376
0.000706295
0.000708404
0.000697429
0.00070835
0.000697434
0.000695325
0.000708452
0.000708453
0.000695836
0.000695277
0.000695277
0.000659845
0.000673007
0.000673001
0.000659838
0.000673013
0.000659834
0.000659844
0.000673007
0.000673002
0.000659839
0.000670865
0.000670861
0.000670861
0.000644281
0.000644281
0.000644277
0.000644277
0.000659936
0.000672961
0.000670853
0.000661988
0.00067291
0.000659884
0.00066199
0.000673009
0.00065983
0.000659933
0.000670851
0.000672959
0.000661984
0.000672907
0.000661991
0.000659881
0.000673011
0.00067301
0.000660393
0.000659836
0.000659835
0.000624397
0.000637561
0.000637555
0.000624392
0.00063757
0.000624388
0.0006244
0.000637561
0.000637555
0.00062439
0.00063542
0.000635416
0.000635416
0.000608833
0.000608832
0.000608831
0.000608829
0.00062449
0.000637518
0.000635405
0.000626539
0.000637466
0.00062444
0.000626542
0.000637565
0.000624387
0.000624488
0.000635407
0.000637514
0.00062654
0.000637464
0.000626546
0.000624434
0.000637565
0.000637563
0.000624949
0.000624388
0.000624386
0.000588949
0.000602113
0.000602109
0.000588941
0.000602119
0.000588938
0.000588948
0.000602113
0.000602107
0.000588941
0.000599969
0.000599969
0.000599967
0.000573381
0.00057338
0.00057338
0.000573379
0.00058904
0.00060207
0.000599956
0.000591087
0.000602018
0.000588989
0.000591093
0.00060212
0.000588939
0.000589041
0.000599957
0.000602068
0.00059109
0.000602017
0.000591094
0.000588988
0.000602117
0.000602118
0.000589496
0.00058894
0.000588938
0.000553497
0.000566663
0.000566658
0.000553489
0.000566666
0.000553483
0.000553497
0.000566665
0.000566658
0.00055349
0.000564517
0.000564517
0.000564515
0.00053793
0.000537928
0.000537928
0.000537926
0.00055359
0.000566617
0.000564503
0.000555637
0.000566567
0.000553535
0.00055564
0.000566667
0.000553485
0.000553588
0.000564505
0.000566617
0.000555638
0.000566564
0.000555643
0.000553535
0.000566667
0.000566667
0.000554044
0.000553487
0.000553488
0.000518042
0.000531207
0.0005312
0.000518035
0.000531213
0.000518031
0.000518047
0.00053121
0.000531206
0.000518039
0.000529065
0.000529065
0.000529063
0.000502477
0.000502475
0.000502477
0.000502474
0.000518137
0.000531162
0.000529051
0.000520185
0.000531112
0.000518083
0.000520187
0.000531218
0.000518036
0.000518142
0.000529053
0.000531168
0.000520185
0.000531115
0.000520188
0.000518087
0.000531214
0.000531214
0.000518592
0.000518034
0.000518037
0.000482589
0.000495757
0.000495752
0.000482583
0.00049576
0.000482579
0.000482591
0.000495757
0.000495755
0.000482585
0.000493612
0.000493614
0.000493611
0.000467023
0.00046702
0.000467022
0.000467019
0.000482681
0.000495708
0.000493601
0.000484734
0.000495659
0.000482629
0.000484738
0.000495765
0.000482581
0.000482681
0.000493599
0.000495712
0.000484734
0.000495661
0.000484737
0.000482631
0.000495759
0.00049576
0.000483142
0.00048258
0.000482579
0.000447135
0.000460301
0.000460293
0.000447131
0.000460306
0.000447124
0.000447136
0.000460303
0.000460299
0.000447131
0.000458157
0.00045816
0.000458155
0.000431567
0.000431565
0.000431566
0.000431565
0.000447226
0.000460255
0.000458147
0.000449275
0.000460204
0.000447174
0.000449281
0.000460309
0.000447126
0.000447228
0.000458148
0.000460257
0.00044928
0.000460205
0.000449283
0.000447175
0.000460305
0.000460308
0.000447682
0.000447128
0.000447129
0.000411681
0.000424849
0.000424844
0.000411674
0.000424851
0.000411671
0.000411684
0.000424851
0.000424844
0.000411676
0.000422702
0.000422702
0.000422701
0.000396111
0.000396111
0.000396109
0.000396111
0.000411772
0.000424802
0.000422691
0.000413821
0.000424748
0.000411721
0.000413826
0.000424853
0.000411672
0.000411771
0.000422692
0.000424802
0.000413822
0.00042475
0.000413827
0.000411719
0.000424853
0.000424852
0.000412228
0.000411674
0.000411671
0.000376225
0.000389391
0.000389387
0.000376219
0.000389397
0.000376215
0.000376228
0.000389392
0.000389388
0.000376219
0.000387248
0.000387247
0.000387247
0.000360655
0.000360656
0.000360654
0.000360655
0.000376321
0.000389348
0.000387233
0.000378364
0.000389299
0.000376267
0.000378367
0.000389395
0.000376214
0.000376318
0.000387236
0.000389345
0.000378367
0.000389293
0.000378372
0.000376264
0.000389397
0.000389396
0.000376777
0.000376218
0.000376219
0.000340769
0.000353937
0.000353932
0.000340765
0.000353943
0.000340761
0.000340766
0.000353934
0.000353928
0.000340762
0.000351794
0.000351791
0.000351791
0.0003252
0.000325201
0.000325198
0.000325199
0.00034086
0.000353892
0.000351778
0.000342911
0.000353844
0.000340811
0.000342913
0.00035394
0.000340756
0.000340867
0.000351779
0.000353892
0.000342908
0.000353841
0.000342912
0.000340811
0.000353943
0.000353943
0.00034132
0.000340763
0.000340761
0.000305315
0.000318483
0.000318475
0.00030531
0.000318486
0.000305304
0.000305312
0.000318481
0.000318473
0.000305307
0.000316338
0.000316336
0.000316335
0.000289741
0.000289744
0.000289741
0.000289742
0.000305409
0.000318436
0.000316327
0.000307454
0.000318382
0.000305357
0.000307459
0.000318482
0.000305302
0.000305404
0.000316324
0.000318434
0.000307455
0.000318381
0.000307458
0.000305351
0.000318483
0.000318482
0.000305864
0.000305305
0.000305304
0.000269858
0.000283026
0.000283023
0.000269852
0.000283031
0.000269848
0.000269859
0.000283024
0.000283018
0.000269851
0.00028088
0.000280878
0.000280878
0.000254281
0.000254282
0.000254281
0.000254282
0.000269949
0.000282979
0.000280871
0.000271997
0.000282927
0.000269899
0.000272005
0.000283027
0.000269842
0.000269949
0.000280868
0.000282974
0.000271995
0.000282923
0.000272
0.000269894
0.000283026
0.000283026
0.000270407
0.000269847
0.000269847
0.000234397
0.000247564
0.00024756
0.000234389
0.000247571
0.000234383
0.000234397
0.000247563
0.000247559
0.000234387
0.000245418
0.000245418
0.000245418
0.000218818
0.000218817
0.000218818
0.000218817
0.000234488
0.000247517
0.000245409
0.000236534
0.000247465
0.000234435
0.000236539
0.000247568
0.000234383
0.000234487
0.000245409
0.000247514
0.000236535
0.000247464
0.000236539
0.000234434
0.000247566
0.000247564
0.000234946
0.000234387
0.000234386
0.000198931
0.000212094
0.00021209
0.000198923
0.000212102
0.000198919
0.000198931
0.000212096
0.000212092
0.000198925
0.000209954
0.000209954
0.000209953
0.000183349
0.000183348
0.00018335
0.00018335
0.000199022
0.000212047
0.000209944
0.00020107
0.000212003
0.000198972
0.000201073
0.000212103
0.000198917
0.000199023
0.000209942
0.000212051
0.000201067
0.000212005
0.000201071
0.000198971
0.000212099
0.000212099
0.00019948
0.000198921
0.000198921
0.000163464
0.000176626
0.000176624
0.000163458
0.000176633
0.000163445
0.000163462
0.000176625
0.000176624
0.000163456
0.000174485
0.000174486
0.000174486
0.000147877
0.000147877
0.000147878
0.000147877
0.000163563
0.000176578
0.000174477
0.000165598
0.000176531
0.000163506
0.000165602
0.000176635
0.000163447
0.000163558
0.000174481
0.000176576
0.0001656
0.000176531
0.000165607
0.000163505
0.000176628
0.000176628
0.000164013
0.000163453
0.000163456
0.000127989
0.000141149
0.000141153
0.000127987
0.000141165
0.000127968
0.000127988
0.000141148
0.000141154
0.000127985
0.000139015
0.000139015
0.000139015
0.000112398
0.000112397
0.000112398
0.000112399
0.000128088
0.000141097
0.000139009
0.000130126
0.000141057
0.000128036
0.000130132
0.000141164
0.00012797
0.000128094
0.000139008
0.000141101
0.000130125
0.000141062
0.000130129
0.000128042
0.000141153
0.000141155
0.000128548
0.000127983
0.000127987
9.24985e-05
0.000105661
0.000105676
9.25082e-05
0.000105691
9.24592e-05
9.24985e-05
0.000105662
0.000105675
9.25091e-05
0.000103534
0.000103536
0.000103537
7.69077e-05
7.69071e-05
7.69096e-05
7.69096e-05
9.26136e-05
0.000105601
0.00010353
9.46399e-05
0.000105582
9.25653e-05
9.46441e-05
0.000105696
9.24641e-05
9.26188e-05
0.000103532
0.000105607
9.46415e-05
0.000105583
9.46466e-05
9.25702e-05
0.000105668
0.000105672
9.30655e-05
9.24996e-05
9.25009e-05
5.69843e-05
7.01504e-05
7.01761e-05
5.70089e-05
7.02467e-05
5.68599e-05
5.69844e-05
7.01516e-05
7.01765e-05
5.70093e-05
6.80573e-05
6.80599e-05
6.80599e-05
4.16753e-05
4.16751e-05
4.16755e-05
4.16734e-05
5.71262e-05
7.00706e-05
6.80421e-05
5.91481e-05
7.00829e-05
5.71045e-05
5.9163e-05
7.02437e-05
5.68599e-05
5.71292e-05
6.80458e-05
7.00733e-05
5.91524e-05
7.00876e-05
5.91662e-05
5.71053e-05
7.01559e-05
7.01555e-05
5.75821e-05
5.7013e-05
5.70121e-05
2.10809e-05
3.44359e-05
3.45313e-05
2.06898e-05
3.48588e-05
1.96273e-05
2.10686e-05
3.44279e-05
3.45249e-05
2.06844e-05
3.32136e-05
3.32124e-05
3.32109e-05
1.18353e-05
1.18334e-05
1.18309e-05
1.1831e-05
2.15895e-05
3.4295e-05
3.30042e-05
2.42091e-05
3.45199e-05
2.11494e-05
2.47203e-05
3.48457e-05
1.96355e-05
2.1595e-05
3.30052e-05
3.42938e-05
2.4209e-05
3.45235e-05
2.47202e-05
2.11514e-05
3.43274e-05
3.43277e-05
2.24182e-05
2.09848e-05
2.09849e-05
6.42348e-07
3.23058e-06
3.57711e-06
2.45616e-06
5.38192e-06
-1.83382e-06
6.46038e-07
3.21428e-06
3.55956e-06
2.45338e-06
2.03927e-06
7.42206e-06
7.42239e-06
7.42739e-06
7.57569e-06
4.04169e-06
4.04748e-06
2.91562e-06
2.59971e-06
7.02421e-06
2.35593e-06
5.23315e-06
6.67607e-06
4.89409e-08
5.37853e-06
-1.82925e-06
2.92366e-06
7.02557e-06
2.60027e-06
2.35685e-06
5.23696e-06
5.02725e-08
6.6819e-06
-2.57669e-07
-2.55978e-07
1.63064e-06
6.40026e-06
6.41195e-06
0.000730722
0.000730718
0.000731279
0.000730723
0.000730721
0.000713
0.000726177
0.000712998
0.000726173
0.000725606
0.000713002
0.000713
0.000726176
0.000726173
0.000730734
0.000730725
0.000730826
0.000732872
0.000730772
0.000732875
0.000730826
0.000732872
0.00073077
0.000732875
0.000726167
0.000713005
0.000726174
0.000713013
0.000726166
0.000713004
0.000726172
0.000713013
0.000726075
0.000724013
0.000713051
0.000715158
0.000726129
0.000724016
0.000713102
0.000726075
0.000724013
0.000713049
0.000715159
0.000726126
0.000724017
0.000713103
0.000731279
0.000730721
0.00073072
0.000730717
0.000713
0.000726176
0.000725604
0.000713002
0.000712999
0.000726174
0.000726172
0.000712996
0.000726173
0.000730824
0.000732872
0.000730769
0.000732878
0.000730731
0.000730723
0.000730824
0.000732871
0.000732875
0.00073077
0.000726163
0.000713003
0.000726168
0.000713009
0.000726072
0.000724014
0.000713049
0.00071516
0.000726124
0.00072402
0.0007131
0.000726164
0.000713005
0.00072617
0.000713009
0.000726072
0.000724014
0.000715157
0.000713049
0.000724017
0.000726124
0.0007131
0.000730727
0.000730721
0.000730822
0.000732871
0.000732873
0.000730767
0.000730729
0.000730721
0.00072607
0.000724013
0.000713046
0.000715159
0.000726125
0.000724019
0.0007131
0.000726161
0.000713001
0.000726168
0.000713005
0.000726071
0.000724012
0.000715159
0.000713047
0.000724016
0.000726123
0.000713099
0.000726161
0.000713001
0.000726168
0.000713005
0.00073128
0.000730721
0.000730722
0.00073072
0.000713001
0.000726175
0.000725606
0.000713003
0.000713001
0.000726173
0.000726174
0.000713
0.000726176
0.000730823
0.000732869
0.00073287
0.00073077
0.000730733
0.000730725
0.000730732
0.000730724
0.00072607
0.000724013
0.000715156
0.000713048
0.000724015
0.000726125
0.000713098
0.000726072
0.00072401
0.000715156
0.000713049
0.000724014
0.000726126
0.000713098
0.000726163
0.000713004
0.000726171
0.00071301
0.000726163
0.000713003
0.000726172
0.000713011
0.000730717
0.000730719
0.000725604
0.000712999
0.000713001
0.000726172
0.000726174
0.000712996
0.000726173
0.000712999
0.000726176
0.000708456
0.000695278
0.000708456
0.000695278
0.000708455
0.000708455
0.000695839
0.00069528
0.000695279
0.000677556
0.000690736
0.000677553
0.000690734
0.000690162
0.000677558
0.000677556
0.000690735
0.000690733
0.00069529
0.000708452
0.000708448
0.000695282
0.00069538
0.000708407
0.000706298
0.000697432
0.000708355
0.000695328
0.000697437
0.00069538
0.000708405
0.000706299
0.000697432
0.000708354
0.000695328
0.000697438
0.000690725
0.000677561
0.000690732
0.000677566
0.000690725
0.000677561
0.00069073
0.000677568
0.000690632
0.00068857
0.000677606
0.000679715
0.000690684
0.000688576
0.00067766
0.000690632
0.000688572
0.000677607
0.000679714
0.000690684
0.000688576
0.000677661
0.000708455
0.000708451
0.00069584
0.00069528
0.000695278
0.000708454
0.000695275
0.000677556
0.000690735
0.000690164
0.000677559
0.000677557
0.000690733
0.00069073
0.000677555
0.000690732
0.000695379
0.000708404
0.000706298
0.000697431
0.000708352
0.000695327
0.000697434
0.000695288
0.000708451
0.000708444
0.000695281
0.000695379
0.000706296
0.000708404
0.000697428
0.000708352
0.000697434
0.000695326
0.000690724
0.000677559
0.000690729
0.000677566
0.000690631
0.000688569
0.000677604
0.000679712
0.000690683
0.000688573
0.000677655
0.000690723
0.000677557
0.000690727
0.000677566
0.000690631
0.000688567
0.000679711
0.000677603
0.000688572
0.000690681
0.000677656
0.000695287
0.000708449
0.000708442
0.00069528
0.000695379
0.000706297
0.000708403
0.000697428
0.000708352
0.000697434
0.000695326
0.000695287
0.000708448
0.000708441
0.00069528
0.000690632
0.000688572
0.000677606
0.000679714
0.000690681
0.000688574
0.000677658
0.000690723
0.00067756
0.000690728
0.000677568
0.000690631
0.000688567
0.000679712
0.000677607
0.000688573
0.000690683
0.000677657
0.000690723
0.000677561
0.000690729
0.000677568
0.000708455
0.000708455
0.000695837
0.000695278
0.000695277
0.000708457
0.000695275
0.000677552
0.000690731
0.000690161
0.000677554
0.000677554
0.00069073
0.000690729
0.000677553
0.000690731
0.000695376
0.000706295
0.000708404
0.000697429
0.00070835
0.000697434
0.000695325
0.000695288
0.000708452
0.000708444
0.000695279
0.000695288
0.000708451
0.000708446
0.00069528
0.000690627
0.000688569
0.000679712
0.000677602
0.000688573
0.000690681
0.000677654
0.000690628
0.000688569
0.000679711
0.000677603
0.000688572
0.000690681
0.000677655
0.000690721
0.000677558
0.000690727
0.000677566
0.000690722
0.000677558
0.000690728
0.000677565
0.000708453
0.000695275
0.000708455
0.000695275
0.000690162
0.000677558
0.000677556
0.000690731
0.000690731
0.000677557
0.000690733
0.000677553
0.000690732
0.000673011
0.000659834
0.00067301
0.000659835
0.00067301
0.000673009
0.000660395
0.000659836
0.000659836
0.00064211
0.00065529
0.000642109
0.000655291
0.000654718
0.000642112
0.000642112
0.000655289
0.00065529
0.000659844
0.000673008
0.000673002
0.000659839
0.000659939
0.000672962
0.000670855
0.000661987
0.000672913
0.000659883
0.000661994
0.000659939
0.000672962
0.000670854
0.000661988
0.000672914
0.000659885
0.000661993
0.00065528
0.000642114
0.000655285
0.000642122
0.00065528
0.000642118
0.000655288
0.000642123
0.000655191
0.000653126
0.000642161
0.000644269
0.000655239
0.000653132
0.000642216
0.000655189
0.000653124
0.000642164
0.000644269
0.000655242
0.000653131
0.000642216
0.000673011
0.00067301
0.000660397
0.000659836
0.000659836
0.000673012
0.000659833
0.000642113
0.000655292
0.000654719
0.000642116
0.000642115
0.00065529
0.000655288
0.000642112
0.00065529
0.000659933
0.000672959
0.000670852
0.000661987
0.000672907
0.000659882
0.00066199
0.000659842
0.000673005
0.000673001
0.000659835
0.000659933
0.000670851
0.000672958
0.000661984
0.000672907
0.000661991
0.000659881
0.000655278
0.000642114
0.000655286
0.000642119
0.000655184
0.000653125
0.00064216
0.000644267
0.000655238
0.000653129
0.000642214
0.000655277
0.000642113
0.000655283
0.000642119
0.000655184
0.000653122
0.000644268
0.000642159
0.00065313
0.000655236
0.000642214
0.000659845
0.000673007
0.000673002
0.000659837
0.000659935
0.000670852
0.000672963
0.000661983
0.000672909
0.00066199
0.000659883
0.000659846
0.000673009
0.000673003
0.000659839
0.000655188
0.000653127
0.000642163
0.000644267
0.000655239
0.000653128
0.000642213
0.00065528
0.000642117
0.000655284
0.000642124
0.000655188
0.000653122
0.000644266
0.00064216
0.000653127
0.00065524
0.000642214
0.000655281
0.000642115
0.000655285
0.000642126
0.000673007
0.000673009
0.000660393
0.000659833
0.000659833
0.000673011
0.000659832
0.000642109
0.000655287
0.000654717
0.000642111
0.000642112
0.000655286
0.000655287
0.000642109
0.000655288
0.000659933
0.000670851
0.000672959
0.000661985
0.000672907
0.00066199
0.000659881
0.000659842
0.000673006
0.000672998
0.000659836
0.000659843
0.000673006
0.000672999
0.000659835
0.000655186
0.000653123
0.000644268
0.000642158
0.00065313
0.000655236
0.000642212
0.000655185
0.000653125
0.000644265
0.000642159
0.000653129
0.000655237
0.000642213
0.000655275
0.000642113
0.000655284
0.000642117
0.000655277
0.000642113
0.000655283
0.000642119
0.000673013
0.000659833
0.000673011
0.000659832
0.000654718
0.000642112
0.000642111
0.000655289
0.000655287
0.000642111
0.00065529
0.000642109
0.000655288
0.000637566
0.000624388
0.000637565
0.000624386
0.000637565
0.000637564
0.000624949
0.000624389
0.000624387
0.000606661
0.000619844
0.000606662
0.000619843
0.000619272
0.000606664
0.000606664
0.000619842
0.000619841
0.000624396
0.000637565
0.000637558
0.000624392
0.00062449
0.000637516
0.000635409
0.00062654
0.000637467
0.000624436
0.000626546
0.00062449
0.000637519
0.000635408
0.000626537
0.000637467
0.000624437
0.000626547
0.000619831
0.000606666
0.000619839
0.000606674
0.000619831
0.000606667
0.000619839
0.000606673
0.000619742
0.000617677
0.000606712
0.00060882
0.000619792
0.000617683
0.000606764
0.000619741
0.000617675
0.000606713
0.000608821
0.000619792
0.000617685
0.000606765
0.000637568
0.000637567
0.000624948
0.00062439
0.000624392
0.00063757
0.00062439
0.000606663
0.000619844
0.00061927
0.000606665
0.000606666
0.000619842
0.000619843
0.000606664
0.000619846
0.00062449
0.000637514
0.000635407
0.000626542
0.000637466
0.000624436
0.000626545
0.000624398
0.00063756
0.000637554
0.000624392
0.000624491
0.000635407
0.000637515
0.000626537
0.000637465
0.000626544
0.000624437
0.000619834
0.000606666
0.000619838
0.000606673
0.000619742
0.000617679
0.000606714
0.00060882
0.000619791
0.000617683
0.000606767
0.000619833
0.000606669
0.000619838
0.000606675
0.000619742
0.000617676
0.000608819
0.000606714
0.000617682
0.000619791
0.000606767
0.000624401
0.000637565
0.000637559
0.000624395
0.000624489
0.000635405
0.000637516
0.000626538
0.000637466
0.000626543
0.000624435
0.000624398
0.000637563
0.00063756
0.000624391
0.000619742
0.000617678
0.000606716
0.000608817
0.000619794
0.00061768
0.000606766
0.000619833
0.000606669
0.000619841
0.000606677
0.000619741
0.000617675
0.000608819
0.000606713
0.000617681
0.000619791
0.000606766
0.00061983
0.000606666
0.000619839
0.000606675
0.000637563
0.000637564
0.000624948
0.00062439
0.000624385
0.000637565
0.000624383
0.000606665
0.000619843
0.000619272
0.000606667
0.000606664
0.000619841
0.000619839
0.000606662
0.00061984
0.000624489
0.000635405
0.000637515
0.000626539
0.000637464
0.000626544
0.000624435
0.000624397
0.00063756
0.000637552
0.000624388
0.000624397
0.00063756
0.000637554
0.000624389
0.000619739
0.000617679
0.00060882
0.000606713
0.000617684
0.00061979
0.000606764
0.000619741
0.000617676
0.00060882
0.000606712
0.000617682
0.000619791
0.000606765
0.000619829
0.000606666
0.000619835
0.000606672
0.000619829
0.000606666
0.000619837
0.000606672
0.000637568
0.000624386
0.000637565
0.000624385
0.000619272
0.000606664
0.000606665
0.000619842
0.00061984
0.000606662
0.000619843
0.000606663
0.000619841
0.000602117
0.000588936
0.000602117
0.000588938
0.000602117
0.000602116
0.000589497
0.000588938
0.000588941
0.000571212
0.000584392
0.000571214
0.000584394
0.000583821
0.000571214
0.000571216
0.000584391
0.000584393
0.000588948
0.000602114
0.000602108
0.000588943
0.000589038
0.000602067
0.000599956
0.00059109
0.000602016
0.000588986
0.000591094
0.000589038
0.000602067
0.000599958
0.000591089
0.000602016
0.000588987
0.000591095
0.000584383
0.000571216
0.000584389
0.000571225
0.000584382
0.000571215
0.00058439
0.000571224
0.000584289
0.000582226
0.000571263
0.000573365
0.000584342
0.00058223
0.000571313
0.000584289
0.000582226
0.00057126
0.000573366
0.000584341
0.000582231
0.000571313
0.000602117
0.000602119
0.000589499
0.000588941
0.000588942
0.000602121
0.000588939
0.00057121
0.000584395
0.000583818
0.000571212
0.000571214
0.000584393
0.000584393
0.000571212
0.000584395
0.000589042
0.000602068
0.000599958
0.00059109
0.000602019
0.000588989
0.000591093
0.000588947
0.000602115
0.000602111
0.000588943
0.000589041
0.000599956
0.000602068
0.000591086
0.000602019
0.000591093
0.000588989
0.000584381
0.000571218
0.000584388
0.000571224
0.000584293
0.000582226
0.000571263
0.000573364
0.000584343
0.000582229
0.000571319
0.000584381
0.000571216
0.00058439
0.000571222
0.000584292
0.000582224
0.000573368
0.000571263
0.00058223
0.000584343
0.000571317
0.00058895
0.000602116
0.00060211
0.000588943
0.00058904
0.000599957
0.000602068
0.000591086
0.000602018
0.000591093
0.000588988
0.00058895
0.000602113
0.000602109
0.000588943
0.000584291
0.000582224
0.000571262
0.000573366
0.000584343
0.00058223
0.000571316
0.000584383
0.000571218
0.00058439
0.000571223
0.000584291
0.000582224
0.000573367
0.000571262
0.00058223
0.000584344
0.000571315
0.000584383
0.000571217
0.00058439
0.000571222
0.000602117
0.000602118
0.000589497
0.000588941
0.000588939
0.000602119
0.000588937
0.000571211
0.000584395
0.000583821
0.000571214
0.000571215
0.000584393
0.000584391
0.000571213
0.000584392
0.00058904
0.000599958
0.000602067
0.000591089
0.000602016
0.000591095
0.000588986
0.000588949
0.000602113
0.000602106
0.000588941
0.00058895
0.000602112
0.000602106
0.000588942
0.000584291
0.000582229
0.000573367
0.000571262
0.000582231
0.000584342
0.000571314
0.000584291
0.000582228
0.000573368
0.000571262
0.000582232
0.000584342
0.000571314
0.000584382
0.000571218
0.000584388
0.000571225
0.000584383
0.000571218
0.000584388
0.000571226
0.000602118
0.000588939
0.000602118
0.000588937
0.00058382
0.000571215
0.000571215
0.000584393
0.000584391
0.000571213
0.000584395
0.000571213
0.000584393
0.000566668
0.000553485
0.00056667
0.000553486
0.000566667
0.000566668
0.000554041
0.000553487
0.000553487
0.000535757
0.000548939
0.000535759
0.000548941
0.000548366
0.000535759
0.000535762
0.000548938
0.000548939
0.000553498
0.000566661
0.000566657
0.000553488
0.000553587
0.000566618
0.000564503
0.000555633
0.000566564
0.000553534
0.000555641
0.000553588
0.000566615
0.000564504
0.000555636
0.000566563
0.000553534
0.00055564
0.000548931
0.000535761
0.000548935
0.000535768
0.000548932
0.000535761
0.000548936
0.000535768
0.000548838
0.000546773
0.000535807
0.000537914
0.000548889
0.000546777
0.000535864
0.000548839
0.000546774
0.000535808
0.000537912
0.000548889
0.000546775