/*--------------------------------*- C++ -*----------------------------------*\
| =========                 |                                                 |
| \\      /  F ield         | OpenFOAM: The Open Source CFD Toolbox           |
|  \\    /   O peration     | Version:  v1906                                 |
|   \\  /    A nd           | Web:      www.OpenFOAM.com                      |
|    \\/     M anipulation  |                                                 |
\*---------------------------------------------------------------------------*/
FoamFile
{
    version     2.0;
    format      ascii;
    class       surfaceScalarField;
    location    "250";
    object      phi;
}
// * * * * * * * * * * * * * * * * * * * * * * * * * * * * * * * * * * * * * //

dimensions      [0 3 -1 0 0 0 0];
oriented        oriented;


internalField   nonuniform List<scalar> 
124908
(
3.86871e-09
3.23534e-09
-0.00119147
-1.53882e-09
-1.9285e-09
0.00119147
-0.00113602
-1.22831e-06
-3.14204e-09
2.68347e-09
0.00113601
-2.60979e-07
1.23287e-06
2.61062e-07
8.92871e-07
-2.48833e-07
-8.91287e-07
2.46433e-07
-0.0011356
-1.22352e-06
-5.23735e-09
3.12433e-09
0.00113561
-2.61527e-07
1.22661e-06
2.60527e-07
8.92347e-07
-2.51499e-07
-8.91622e-07
2.49162e-07
-0.000270439
1.25716e-06
1.22394e-06
-2.27044e-07
-2.31684e-07
0.000268416
1.73991e-09
4.95027e-09
-0.00119146
-2.55373e-09
-8.74874e-10
0.00119146
-0.001136
-1.22895e-06
-4.56526e-09
4.41896e-09
0.001136
-2.61627e-07
1.23212e-06
2.6033e-07
8.92961e-07
-2.48362e-07
-8.91221e-07
2.46889e-07
-0.00113561
-1.22337e-06
-5.5687e-09
2.41945e-09
0.00113561
-2.61401e-07
1.22671e-06
2.60645e-07
8.92422e-07
-2.51287e-07
-8.9154e-07
2.49353e-07
-0.000270439
1.25724e-06
1.22379e-06
-2.26954e-07
-2.31686e-07
0.000268417
-2.62592e-10
5.08255e-09
-0.00119145
-2.14063e-09
8.00275e-10
0.00119144
-0.00113599
-1.22955e-06
-5.56161e-09
5.88158e-09
0.00113599
-2.62392e-07
1.23157e-06
2.59596e-07
8.93469e-07
-2.48361e-07
-8.9097e-07
2.46884e-07
-0.00113562
-1.22333e-06
-5.94028e-09
2.48635e-09
0.00113562
-2.61305e-07
1.22676e-06
2.60707e-07
8.92469e-07
-2.51346e-07
-8.91411e-07
2.49312e-07
-0.00027044
1.25717e-06
1.22374e-06
-2.26898e-07
-2.31716e-07
0.000268418
-1.19462e-09
4.32175e-09
-0.00119143
-1.62831e-09
2.32133e-09
0.00119143
-0.00113599
-1.22994e-06
-5.23949e-09
6.96979e-09
0.00113599
-2.62708e-07
1.2313e-06
2.59489e-07
8.93194e-07
-2.48552e-07
-8.91205e-07
2.46683e-07
-0.00113562
-1.22341e-06
-6.1482e-09
3.546e-09
0.00113562
-2.61599e-07
1.22677e-06
2.60471e-07
8.92476e-07
-2.51393e-07
-8.91431e-07
2.49251e-07
-0.000270442
1.25704e-06
1.22371e-06
-2.27025e-07
-2.31537e-07
0.00026842
-1.40169e-09
3.83259e-09
-0.00119142
-1.3338e-09
3.35169e-09
0.00119141
-0.00113599
-1.23003e-06
-4.60556e-09
7.44372e-09
0.00113599
-2.62492e-07
1.2312e-06
2.59652e-07
8.92511e-07
-2.4898e-07
-8.91866e-07
2.46307e-07
-0.00113563
-1.22353e-06
-6.47771e-09
4.07451e-09
0.00113563
-2.61975e-07
1.22687e-06
2.60196e-07
8.92555e-07
-2.51405e-07
-8.91394e-07
2.49223e-07
-0.000270445
1.25742e-06
1.22386e-06
-2.27047e-07
-2.32043e-07
0.000268423
-1.10778e-09
2.94563e-09
-0.0011914
-8.8538e-10
3.05599e-09
0.0011914
-0.00113599
-1.23003e-06
-4.4749e-09
7.39995e-09
0.00113599
-2.62541e-07
1.23125e-06
2.59615e-07
8.92446e-07
-2.48882e-07
-8.92024e-07
2.46459e-07
-0.00113563
-1.22379e-06
-6.06757e-09
4.68159e-09
0.00113563
-2.62143e-07
1.22674e-06
2.60053e-07
8.92612e-07
-2.51582e-07
-8.91327e-07
2.49061e-07
-0.000270448
1.25753e-06
1.2237e-06
-2.26875e-07
-2.32153e-07
0.000268425
-2.59172e-10
1.13635e-09
-0.00119139
1.81848e-10
2.33628e-09
0.00119139
-0.00113599
-1.22995e-06
-4.35733e-09
7.11959e-09
0.00113599
-2.62612e-07
1.23134e-06
2.59498e-07
8.92615e-07
-2.48803e-07
-8.91736e-07
2.46531e-07
-0.00113564
-1.22446e-06
-5.65499e-09
6.871e-09
0.00113564
-2.62565e-07
1.22618e-06
2.59705e-07
8.92402e-07
-2.51501e-07
-8.91717e-07
2.49208e-07
-0.00027045
1.25768e-06
1.22366e-06
-2.26745e-07
-2.32244e-07
0.000268428
1.0478e-09
5.37689e-11
-0.00119138
1.62471e-09
7.3686e-10
0.00119137
-0.00113599
-1.22986e-06
-4.94119e-09
5.92644e-09
0.00113599
-2.62476e-07
1.23181e-06
2.59721e-07
8.92666e-07
-2.48729e-07
-8.91616e-07
2.46532e-07
-0.00113564
-1.22482e-06
-6.02035e-09
7.37137e-09
0.00113564
-2.62632e-07
1.22583e-06
2.59543e-07
8.92372e-07
-2.51467e-07
-8.91617e-07
2.49194e-07
-0.000270452
1.25745e-06
1.22334e-06
-2.26501e-07
-2.32067e-07
0.000268429
2.11742e-09
-4.04161e-10
-0.00119137
2.18813e-09
-3.11517e-10
0.00119136
-0.00113598
-1.22973e-06
-5.22128e-09
6.00583e-09
0.00113599
-2.62454e-07
1.23177e-06
2.5977e-07
8.9282e-07
-2.4884e-07
-8.91479e-07
2.46411e-07
-0.00113564
-1.22488e-06
-5.95433e-09
8.28464e-09
0.00113564
-2.62943e-07
1.2258e-06
2.59384e-07
8.92548e-07
-2.51347e-07
-8.91393e-07
2.49315e-07
-0.000270455
1.25763e-06
1.22335e-06
-2.26684e-07
-2.32202e-07
0.000268433
2.73624e-09
2.16349e-10
-0.00119136
9.69281e-10
-7.30075e-10
0.00119135
-0.00113598
-1.22991e-06
-5.88629e-09
6.04384e-09
0.00113599
-2.62281e-07
1.23182e-06
2.59959e-07
8.92415e-07
-2.48937e-07
-8.91871e-07
2.46266e-07
-0.00113564
-1.22476e-06
-6.06161e-09
7.46491e-09
0.00113564
-2.62818e-07
1.22593e-06
2.59588e-07
8.92584e-07
-2.514e-07
-8.91499e-07
2.49261e-07
-0.000270458
1.258e-06
1.2236e-06
-2.26876e-07
-2.32388e-07
0.000268436
3.53166e-09
1.68622e-09
-0.00119135
-3.46179e-10
-1.73478e-09
0.00119135
-0.00113599
-1.22995e-06
-6.4602e-09
6.26764e-09
0.00113599
-2.62449e-07
1.23165e-06
2.59828e-07
8.92514e-07
-2.48998e-07
-8.9183e-07
2.46189e-07
-0.00113564
-1.22453e-06
-6.223e-09
6.15214e-09
0.00113564
-2.62339e-07
1.2261e-06
2.59921e-07
8.92598e-07
-2.51719e-07
-8.9144e-07
2.4884e-07
-0.00027046
1.25801e-06
1.22377e-06
-2.26985e-07
-2.32419e-07
0.000268438
2.99804e-09
3.78042e-09
-0.00119134
-1.55874e-09
-1.9852e-09
0.00119134
-0.00113599
-1.22987e-06
-6.3595e-09
5.1784e-09
0.00113599
-2.62218e-07
1.23191e-06
2.59982e-07
8.92428e-07
-2.48962e-07
-8.91874e-07
2.46092e-07
-0.00113564
-1.22429e-06
-6.38772e-09
4.43342e-09
0.00113564
-2.61979e-07
1.22613e-06
2.60146e-07
8.92165e-07
-2.51818e-07
-8.91732e-07
2.48715e-07
-0.000270461
1.25767e-06
1.22389e-06
-2.27159e-07
-2.3201e-07
0.000268439
3.142e-09
5.42643e-09
-0.00119134
-3.34733e-09
-2.25187e-09
0.00119134
-0.00113599
-1.22967e-06
-4.81452e-09
4.53379e-09
0.00113599
-2.62086e-07
1.23179e-06
2.60123e-07
8.91907e-07
-2.49361e-07
-8.92056e-07
2.45397e-07
-0.00113564
-1.22386e-06
-6.17963e-09
2.70662e-09
0.00113565
-2.61697e-07
1.22639e-06
2.60209e-07
8.9217e-07
-2.51487e-07
-8.91606e-07
2.48683e-07
-0.000270462
1.25719e-06
1.22419e-06
-2.27338e-07
-2.31493e-07
0.00026844
4.08633e-09
5.65753e-09
-0.00119134
-4.55033e-09
-2.80105e-09
0.00119134
-0.00113599
-1.22968e-06
-3.92455e-09
4.09827e-09
0.00113599
-2.61985e-07
1.23185e-06
2.59889e-07
8.91209e-07
-2.49496e-07
-8.92131e-07
2.44661e-07
-0.00113564
-1.2238e-06
-6.86522e-09
2.57679e-09
0.00113565
-2.61664e-07
1.22618e-06
2.59968e-07
8.91855e-07
-2.51076e-07
-8.91285e-07
2.48525e-07
-0.000270463
1.25706e-06
1.2243e-06
-2.2747e-07
-2.31311e-07
0.00026844
6.4584e-09
5.42446e-09
-0.00119135
-5.21441e-09
-4.90424e-09
0.00119135
-0.00113599
-1.22918e-06
-4.69951e-09
4.2877e-09
0.00113599
-2.61576e-07
1.23159e-06
2.59738e-07
8.90413e-07
-2.48846e-07
-8.91797e-07
2.43974e-07
-0.00113564
-1.22371e-06
-8.82755e-09
3.02687e-09
0.00113565
-2.61617e-07
1.22575e-06
2.59396e-07
8.91423e-07
-2.50409e-07
-8.90463e-07
2.47705e-07
-0.000270463
1.25696e-06
1.22409e-06
-2.27104e-07
-2.31221e-07
0.00026844
9.20564e-09
6.9281e-09
-0.00119135
-7.03544e-09
-7.51227e-09
0.00119135
-0.00113598
-1.22893e-06
-6.49079e-09
3.5528e-09
0.00113599
-2.611e-07
1.23062e-06
2.58843e-07
8.89087e-07
-2.47341e-07
-8.90517e-07
2.42323e-07
-0.00113564
-1.22331e-06
-1.08806e-08
2.72326e-09
0.00113566
-2.61142e-07
1.22517e-06
2.58725e-07
8.89808e-07
-2.48852e-07
-8.89491e-07
2.46191e-07
-0.000270462
1.25656e-06
1.22359e-06
-2.26372e-07
-2.30703e-07
0.000268439
1.25954e-08
1.04199e-08
-0.00119136
-1.0842e-08
-1.18289e-08
0.00119136
-0.00113598
-1.22756e-06
-9.92823e-09
3.37437e-09
0.00113599
-2.59646e-07
1.22912e-06
2.57109e-07
8.85988e-07
-2.43759e-07
-8.88033e-07
2.38539e-07
-0.00113564
-1.22195e-06
-1.35615e-08
3.21483e-09
0.00113566
-2.59639e-07
1.22375e-06
2.56985e-07
8.86595e-07
-2.45534e-07
-8.87156e-07
2.41997e-07
-0.000270463
1.25551e-06
1.22196e-06
-2.24162e-07
-2.29187e-07
0.000268439
1.78873e-08
1.53078e-08
-0.00119137
-1.80258e-08
-1.98543e-08
0.00119137
-0.00113598
-1.22369e-06
-1.60342e-08
3.72907e-09
0.001136
-2.5536e-07
1.22487e-06
2.51671e-07
8.7946e-07
-2.3456e-07
-8.82133e-07
2.28845e-07
-0.00113564
-1.21829e-06
-1.74939e-08
5.09692e-09
0.00113566
-2.55483e-07
1.21948e-06
2.51578e-07
8.7945e-07
-2.37262e-07
-8.81737e-07
2.31471e-07
-0.000270464
1.25244e-06
1.21818e-06
-2.18899e-07
-2.24566e-07
0.000268437
4.2621e-08
3.92529e-08
-0.00119138
-3.72783e-08
-4.59935e-08
0.00119138
-0.00113597
-1.21406e-06
-3.56047e-08
-1.21847e-09
0.00113602
-2.41904e-07
1.21471e-06
2.39485e-07
8.67687e-07
-2.13636e-07
-8.69739e-07
2.05096e-07
-0.00113565
-1.20581e-06
-3.97522e-08
6.57847e-09
0.00113569
-2.41569e-07
1.20677e-06
2.37038e-07
8.64387e-07
-2.14049e-07
-8.67311e-07
2.07493e-07
-0.000270472
1.24629e-06
1.20809e-06
-2.0174e-07
-2.08535e-07
0.000268428
9.73153e-07
9.77652e-07
-0.0011913
-8.69278e-07
-8.61771e-07
0.00119108
-0.00113627
-1.10798e-06
-9.74255e-07
-3.93836e-07
0.00113677
-1.30493e-07
1.36669e-06
2.96163e-07
9.86645e-07
-7.54556e-08
-7.42386e-07
2.73914e-07
-0.00113595
-1.09958e-06
-9.81524e-07
-4.0356e-07
0.00113646
-1.30091e-07
1.36137e-06
2.99318e-07
9.82861e-07
-8.2076e-08
-7.40212e-07
2.7605e-07
-0.000270561
1.14292e-06
1.09897e-06
-9.3294e-08
-9.76372e-08
0.00026851
5.52627e-06
5.51844e-06
-0.00117836
-1.17187e-05
-1.16145e-05
0.000286739
0.00028926
0.000288871
0.000288871
4.52294e-06
6.75041e-06
7.17882e-06
4.52621e-06
6.75051e-06
7.18152e-06
-0.000281748
5.4028e-06
-5.51571e-06
5.97279e-06
-3.39122e-06
0.000279279
-0.000281724
-5.51704e-06
5.40817e-06
-3.39929e-06
5.96858e-06
0.000279264
-0.000271517
-5.39816e-06
-5.4116e-06
5.72492e-06
5.71116e-06
0.000270891
-1.26606e-06
-1.22944e-06
0.000270473
-0.00026844
2.27173e-07
2.3518e-07
0.00113518
-3.95054e-09
-0.00113519
4.76818e-09
-1.26324e-06
2.65847e-07
-2.67119e-07
-8.91289e-07
2.46312e-07
-2.48848e-07
8.92857e-07
1.27186e-06
0.00113563
-6.044e-09
-0.00113563
2.64037e-09
-1.2684e-06
2.69095e-07
-2.69545e-07
-8.96734e-07
2.49635e-07
-2.51207e-07
8.98594e-07
-1.23289e-06
0.000270504
-0.000268463
2.30769e-07
2.32638e-07
0.00113628
-2.48592e-09
-0.00113629
3.9599e-09
-1.22644e-06
2.63307e-07
-2.64637e-07
-8.94474e-07
2.49201e-07
-2.51635e-07
8.95392e-07
1.26653e-06
0.00113525
-2.68237e-09
-0.00113525
1.98361e-09
-1.26274e-06
2.69078e-07
-2.69566e-07
-8.94607e-07
2.4879e-07
-2.51848e-07
8.949e-07
-2.79471e-09
-0.00113602
2.23595e-09
-1.2283e-06
2.61091e-07
-2.60998e-07
-8.91386e-07
2.46351e-07
8.92773e-07
-2.48802e-07
1.26094e-06
0.001135
-1.96654e-09
-0.001135
2.688e-09
-1.25733e-06
2.63456e-07
-2.639e-07
-8.92014e-07
2.4583e-07
-2.49193e-07
8.92091e-07
-1.22647e-06
0.000270438
-0.000268407
2.27168e-07
2.3519e-07
-5.00632e-09
-0.0011356
3.41654e-09
-1.22362e-06
2.6044e-07
-2.61616e-07
-8.91669e-07
2.4908e-07
8.92462e-07
-2.51597e-07
1.22622e-06
0.0011361
-4.2867e-09
-0.0011361
5.07641e-09
-1.22405e-06
2.60013e-07
-2.6215e-07
-8.91504e-07
2.48864e-07
-2.51777e-07
8.92794e-07
-0.000268416
2.29387e-07
2.35271e-07
1.26305e-06
1.22644e-06
-2.24213e-07
-2.31891e-07
0.000268439
-1.26666e-06
-1.22907e-06
0.000270472
-0.000268439
2.26768e-07
2.3577e-07
4.18129e-09
0.00113518
-2.66948e-07
1.2663e-06
2.66083e-07
8.92738e-07
-2.48886e-07
-8.91488e-07
2.46307e-07
-1.26835e-06
-5.77142e-09
2.46366e-09
0.00113563
-2.69499e-07
1.27197e-06
2.69171e-07
8.98579e-07
-2.51165e-07
-8.96799e-07
2.49637e-07
0.00113518
-1.82693e-09
-0.00113518
2.93475e-09
-1.26261e-06
2.663e-07
-2.66613e-07
-8.91751e-07
2.46089e-07
-2.49019e-07
8.92315e-07
1.27238e-06
0.00113562
-3.44141e-09
-0.00113562
1.89957e-09
-1.2679e-06
2.6944e-07
-2.69179e-07
-8.97164e-07
2.49209e-07
-2.5152e-07
8.98141e-07
-2.26166e-07
-2.2894e-07
0.000268463
-1.2323e-06
0.000270503
-0.000268462
2.30114e-07
2.33214e-07
4.2615e-09
0.00113628
-2.64708e-07
1.22945e-06
2.6315e-07
8.95408e-07
-2.51485e-07
-8.94337e-07
2.49372e-07
-1.26259e-06
-3.07183e-09
1.59093e-09
0.00113525
-2.69392e-07
1.26665e-06
2.69139e-07
8.94909e-07
-2.51779e-07
-8.9458e-07
2.48845e-07
0.00113628
-4.2286e-09
-0.00113628
5.5084e-09
-1.22671e-06
2.62779e-07
-2.6501e-07
-8.94041e-07
2.49662e-07
-2.51124e-07
8.95603e-07
1.26671e-06
0.00113525
-2.66825e-09
-0.00113525
1.18115e-09
-1.26246e-06
2.69177e-07
-2.69303e-07
-8.94574e-07
2.48875e-07
-2.51707e-07
8.94882e-07
-2.06179e-09
2.22703e-09
0.001135
-2.63767e-07
1.26104e-06
2.63533e-07
8.92104e-07
-2.49225e-07
2.45812e-07
-8.91959e-07
-3.70169e-09
-0.00113601
4.26677e-09
-1.22875e-06
2.60468e-07
-2.61471e-07
-8.91228e-07
2.46779e-07
8.92895e-07
-2.48424e-07
1.26098e-06
0.001135
-1.61941e-09
-0.001135
1.65183e-09
-1.25723e-06
2.63498e-07
-2.63737e-07
-8.91863e-07
2.45675e-07
-2.49334e-07
8.92291e-07
-2.24306e-07
-2.3148e-07
0.000268407
-1.22669e-06
0.000270439
-0.000268409
2.27315e-07
2.35407e-07
-4.52981e-09
4.94954e-09
0.0011361
-2.6197e-07
1.22629e-06
2.60156e-07
8.92676e-07
-2.51711e-07
2.48935e-07
-8.91607e-07
-4.98001e-09
-0.00113561
2.79785e-09
-1.22335e-06
2.60582e-07
-2.61475e-07
-8.91584e-07
2.49282e-07
8.92447e-07
-2.5136e-07
1.22643e-06
0.0011361
-3.80707e-09
-0.0011361
4.76219e-09
-1.22388e-06
2.60229e-07
-2.61937e-07
-8.91824e-07
2.49025e-07
-2.51602e-07
8.92434e-07
-0.000268417
2.29529e-07
2.35334e-07
1.26253e-06
1.22687e-06
-2.24687e-07
-2.31325e-07
0.000268439
-1.26693e-06
-1.22873e-06
0.000270471
-0.000268438
2.26502e-07
2.3613e-07
2.56904e-09
0.00113517
-2.66566e-07
1.26676e-06
2.66436e-07
8.92236e-07
-2.49173e-07
-8.91935e-07
2.46007e-07
-1.26779e-06
-3.30959e-09
1.51795e-09
0.00113562
-2.69134e-07
1.27246e-06
2.69573e-07
8.98075e-07
-2.5174e-07
-8.97292e-07
2.4903e-07
0.00113517
4.08845e-10
-0.00113517
2.60961e-09
-1.26231e-06
2.66614e-07
-2.66301e-07
-8.92261e-07
2.45575e-07
-2.49504e-07
8.91772e-07
1.2725e-06
0.00113561
-5.75741e-10
-0.00113562
1.13318e-09
-1.2677e-06
2.69698e-07
-2.68985e-07
-8.97625e-07
2.48375e-07
-2.52355e-07
8.9771e-07
-2.26874e-07
-2.28355e-07
0.000268462
-1.23168e-06
0.000270503
-0.000268461
2.29568e-07
2.33316e-07
5.64751e-09
0.00113628
-2.6523e-07
1.22894e-06
2.62627e-07
8.95746e-07
-2.51039e-07
-8.93977e-07
2.49824e-07
-1.26248e-06
-3.25193e-09
7.20009e-10
0.00113525
-2.69325e-07
1.2668e-06
2.69232e-07
8.94937e-07
-2.51708e-07
-8.94514e-07
2.48922e-07
0.00113627
-4.59069e-09
-0.00113628
6.70904e-09
-1.22708e-06
2.62391e-07
-2.6538e-07
-8.93693e-07
2.49935e-07
-2.50821e-07
8.95905e-07
1.26692e-06
0.00113525
-2.20315e-09
-0.00113525
3.59599e-11
-1.2623e-06
2.69397e-07
-2.6911e-07
-8.94502e-07
2.4882e-07
-2.51728e-07
8.94888e-07
-2.2842e-09
1.15964e-09
0.001135
-2.63841e-07
1.26098e-06
2.63435e-07
8.92347e-07
-2.49384e-07
2.45685e-07
-8.91779e-07
-4.62409e-09
-0.001136
5.87175e-09
-1.22938e-06
2.59742e-07
-2.62152e-07
-8.9107e-07
2.46873e-07
8.93244e-07
-2.48296e-07
1.26116e-06
0.001135
-1.47821e-09
-0.001135
1.1152e-09
-1.25714e-06
2.63514e-07
-2.63748e-07
-8.92151e-07
2.45803e-07
-2.49272e-07
8.91981e-07
-2.24208e-07
-2.31306e-07
0.000268409
-1.22675e-06
0.000270441
-0.00026841
2.27335e-07
2.35575e-07
-4.26297e-09
4.21524e-09
0.0011361
-2.61856e-07
1.22649e-06
2.60387e-07
8.92485e-07
-2.51583e-07
2.49084e-07
-8.91853e-07
-5.21698e-09
-0.00113561
2.45634e-09
-1.22328e-06
2.60639e-07
-2.6134e-07
-8.91322e-07
2.49248e-07
8.92499e-07
-2.51322e-07
1.22666e-06
0.0011361
-3.55532e-09
-0.0011361
3.90394e-09
-1.22366e-06
2.60475e-07
-2.61798e-07
-8.91903e-07
2.48941e-07
-2.51619e-07
8.92307e-07
-0.000268418
2.29682e-07
2.35487e-07
1.26234e-06
1.22715e-06
-2.24917e-07
-2.31042e-07
0.000268438
-1.26679e-06
-1.22855e-06
0.000270469
-0.000268436
2.26438e-07
2.3588e-07
2.37702e-09
0.00113516
-2.66352e-07
1.26688e-06
2.66654e-07
8.91768e-07
-2.4967e-07
-8.92329e-07
2.45514e-07
-1.26776e-06
-7.06949e-10
7.34204e-10
0.00113561
-2.69083e-07
1.27247e-06
2.69607e-07
8.97674e-07
-2.5255e-07
-8.97667e-07
2.48242e-07
0.00113515
1.57625e-09
-0.00113516
3.17086e-09
-1.26245e-06
2.66615e-07
-2.66316e-07
-8.92513e-07
2.45232e-07
-2.49855e-07
8.91499e-07
1.27238e-06
0.00113561
9.86702e-10
-0.00113561
1.0436e-09
-1.26785e-06
2.69758e-07
-2.68835e-07
-8.98164e-07
2.48043e-07
-2.52756e-07
8.97109e-07
-2.27451e-07
-2.2834e-07
0.000268461
-1.23129e-06
0.000270502
-0.000268461
2.29266e-07
2.33007e-07
6.80795e-09
0.00113627
-2.65502e-07
1.22868e-06
2.62317e-07
8.95975e-07
-2.5087e-07
-8.93802e-07
2.49968e-07
-1.26231e-06
-2.80425e-09
-5.88547e-10
0.00113525
-2.69203e-07
1.26696e-06
2.69396e-07
8.95175e-07
-2.51832e-07
-8.94612e-07
2.48781e-07
0.00113626
-3.60281e-09
-0.00113627
7.96093e-09
-1.22724e-06
2.62121e-07
-2.6558e-07
-8.93821e-07
2.49749e-07
-2.50939e-07
8.95892e-07
1.26703e-06
0.00113525
-1.42233e-09
-0.00113525
-1.14022e-09
-1.26233e-06
2.69608e-07
-2.69069e-07
-8.94604e-07
2.4863e-07
-2.51891e-07
8.94925e-07
-2.16436e-09
7.34043e-10
0.001135
-2.6378e-07
1.26117e-06
2.63501e-07
8.92065e-07
-2.49268e-07
2.4588e-07
-8.9221e-07
-4.44711e-09
-0.00113599
7.37664e-09
-1.22987e-06
2.59326e-07
-2.62773e-07
-8.91153e-07
2.46763e-07
8.93291e-07
-2.48432e-07
1.26132e-06
0.001135
-1.06306e-09
-0.001135
4.9919e-10
-1.25708e-06
2.63413e-07
-2.63906e-07
-8.92078e-07
2.45725e-07
-2.49292e-07
8.92115e-07
-2.24289e-07
-2.31154e-07
0.000268411
-1.22679e-06
0.000270443
-0.000268412
2.27377e-07
2.3556e-07
-4.37806e-09
3.54618e-09
0.0011361
-2.61688e-07
1.22666e-06
2.60564e-07
8.92402e-07
-2.51734e-07
2.48945e-07
-8.91877e-07
-5.2814e-09
-0.00113562
3.58221e-09
-1.22343e-06
2.60397e-07
-2.61653e-07
-8.91372e-07
2.49236e-07
8.92538e-07
-2.51342e-07
1.22668e-06
0.00113611
-4.12622e-09
-0.0011361
3.51668e-09
-1.22372e-06
2.60532e-07
-2.61764e-07
-8.91809e-07
2.48816e-07
-2.51739e-07
8.92308e-07
-0.000268419
2.29596e-07
2.35647e-07
1.26246e-06
1.22731e-06
-2.2495e-07
-2.3134e-07
0.000268435
-1.26668e-06
-1.22866e-06
0.000270467
-0.000268433
2.26548e-07
2.35732e-07
3.28011e-09
0.00113515
-2.66333e-07
1.26675e-06
2.66613e-07
8.9148e-07
-2.49938e-07
-8.927e-07
2.45271e-07
-1.26791e-06
5.87488e-10
9.15217e-10
0.00113561
-2.69068e-07
1.27245e-06
2.69646e-07
8.97149e-07
-2.52798e-07
-8.9827e-07
2.48094e-07
0.00113514
1.99597e-09
-0.00113514
3.80244e-09
-1.26283e-06
2.66023e-07
-2.66908e-07
-8.92472e-07
2.45148e-07
-2.49943e-07
8.91716e-07
1.27246e-06
0.0011356
1.6734e-09
-0.00113561
1.46872e-09
-1.26783e-06
2.69274e-07
-2.69333e-07
-8.98445e-07
2.48071e-07
-2.52693e-07
8.9693e-07
-2.27779e-07
-2.287e-07
0.000268461
-1.23124e-06
0.000270503
-0.000268462
2.29091e-07
2.33022e-07
7.68227e-09
0.00113626
-2.65723e-07
1.2285e-06
2.62077e-07
8.95969e-07
-2.51157e-07
-8.93767e-07
2.49633e-07
-1.26228e-06
-2.40986e-09
-1.71743e-09
0.00113525
-2.69063e-07
1.26708e-06
2.69643e-07
8.94728e-07
-2.52028e-07
-8.94748e-07
2.48608e-07
0.00113626
-2.63394e-09
-0.00113626
8.53437e-09
-1.2275e-06
2.62061e-07
-2.65799e-07
-8.94272e-07
2.49264e-07
-2.51431e-07
8.95392e-07
1.26701e-06
0.00113526
-9.11519e-10
-0.00113525
-1.17909e-09
-1.26257e-06
2.69458e-07
-2.69213e-07
-8.9475e-07
2.48468e-07
-2.5206e-07
8.94681e-07
-2.06494e-09
3.77767e-12
0.001135
-2.63994e-07
1.26147e-06
2.63372e-07
8.92211e-07
-2.49462e-07
2.45655e-07
-8.9208e-07
-3.65386e-09
-0.00113599
7.57875e-09
-1.22996e-06
2.59507e-07
-2.62563e-07
-8.91921e-07
2.463e-07
8.92458e-07
-2.48892e-07
1.26114e-06
0.00113501
-9.02184e-10
-0.00113501
3.65599e-11
-1.25734e-06
2.63525e-07
-2.63956e-07
-8.92141e-07
2.45585e-07
-2.49509e-07
8.91985e-07
-2.24366e-07
-2.31257e-07
0.000268413
-1.22674e-06
0.000270446
-0.000268415
2.27326e-07
2.35526e-07
-5.08141e-09
3.20047e-09
0.00113611
-2.61717e-07
1.22681e-06
2.60555e-07
8.92304e-07
-2.51858e-07
2.48781e-07
-8.91974e-07
-5.45453e-09
-0.00113562
4.2941e-09
-1.22369e-06
2.60138e-07
-2.61995e-07
-8.91339e-07
2.49235e-07
8.92556e-07
-2.51381e-07
1.22675e-06
0.00113611
-4.17215e-09
-0.00113611
3.46212e-09
-1.22379e-06
2.60566e-07
-2.61737e-07
-8.91994e-07
2.48829e-07
-2.51811e-07
8.92223e-07
-0.000268422
2.29691e-07
2.35371e-07
1.26265e-06
1.22718e-06
-2.24875e-07
-2.31545e-07
0.000268433
-1.26624e-06
-1.22852e-06
0.000270465
-0.000268432
2.26486e-07
2.35229e-07
3.65027e-09
0.00113514
-2.66986e-07
1.2667e-06
2.66043e-07
8.91699e-07
-2.49998e-07
-8.92379e-07
2.45189e-07
-1.26797e-06
1.1792e-09
1.05959e-09
0.0011356
-2.69414e-07
1.27236e-06
2.69242e-07
8.97246e-07
-2.52774e-07
-8.98223e-07
2.48099e-07
0.00113513
1.95798e-09
-0.00113513
4.43241e-09
-1.2631e-06
2.65806e-07
-2.67142e-07
-8.92486e-07
2.45503e-07
-2.49606e-07
8.91592e-07
1.27235e-06
0.0011356
2.24568e-09
-0.0011356
1.20809e-09
-1.26793e-06
2.69323e-07
-2.69241e-07
-8.98201e-07
2.48108e-07
-2.5264e-07
8.97091e-07
-2.27921e-07
-2.28739e-07
0.000268462
-1.23119e-06
0.000270503
-0.000268462
2.29156e-07
2.3302e-07
8.29919e-09
0.00113626
-2.65732e-07
1.22888e-06
2.62269e-07
8.95367e-07
-2.51598e-07
-8.94348e-07
2.49143e-07
-1.26233e-06
-2.28145e-09
-1.33294e-09
0.00113526
-2.6925e-07
1.26724e-06
2.69518e-07
8.94683e-07
-2.5212e-07
-8.94801e-07
2.4856e-07
0.00113625
-1.82827e-09
-0.00113625
8.29458e-09
-1.22741e-06
2.62518e-07
-2.6537e-07
-8.9464e-07
2.48887e-07
-2.51804e-07
8.95038e-07
1.26708e-06
0.00113526
-3.98829e-10
-0.00113526
2.24982e-10
-1.26279e-06
2.69168e-07
-2.69645e-07
-8.94886e-07
2.48494e-07
-2.5204e-07
8.94542e-07
-2.28938e-09
-4.2188e-10
0.00113501
-2.63905e-07
1.26138e-06
2.63531e-07
8.91921e-07
-2.49534e-07
2.45634e-07
-8.92348e-07
-3.15515e-09
-0.00113599
7.83687e-09
-1.23e-06
2.59655e-07
-2.62365e-07
-8.91987e-07
2.46378e-07
8.92439e-07
-2.48872e-07
1.26098e-06
0.00113502
-1.49787e-09
-0.00113502
6.53139e-10
-1.25763e-06
2.6337e-07
-2.64031e-07
-8.92313e-07
2.4574e-07
-2.4935e-07
8.91892e-07
-2.24406e-07
-2.3138e-07
0.000268416
-1.22667e-06
0.000270448
-0.000268418
2.27355e-07
2.35611e-07
-5.21987e-09
2.75026e-09
0.00113612
-2.61837e-07
1.22702e-06
2.60427e-07
8.92389e-07
-2.5187e-07
2.48839e-07
-8.91987e-07
-5.02418e-09
-0.00113563
4.7738e-09
-1.22399e-06
2.59992e-07
-2.62126e-07
-8.91341e-07
2.49038e-07
8.92623e-07
-2.51508e-07
1.22681e-06
0.00113613
-3.51705e-09
-0.00113612
2.24394e-09
-1.22388e-06
2.60385e-07
-2.61903e-07
-8.91924e-07
2.48686e-07
-2.51954e-07
8.92318e-07
-0.000268425
2.29868e-07
2.3511e-07
1.2632e-06
1.22743e-06
-2.25095e-07
-2.321e-07
0.000268432
-1.26596e-06
-1.22896e-06
0.000270464
-0.000268431
2.26909e-07
2.34956e-07
4.63384e-09
0.00113513
-2.67312e-07
1.26622e-06
2.65711e-07
8.91697e-07
-2.49603e-07
-8.92447e-07
2.45673e-07
-1.26803e-06
1.53334e-09
9.79214e-10
0.0011356
-2.69388e-07
1.27231e-06
2.69319e-07
8.9713e-07
-2.52671e-07
-8.98349e-07
2.4821e-07
0.00113512
1.6744e-09
-0.00113512
5.50744e-09
-1.26339e-06
2.65401e-07
-2.67672e-07
-8.92246e-07
2.45665e-07
-2.49401e-07
8.91692e-07
1.2721e-06
0.00113559
2.39491e-09
-0.00113559
1.40993e-09
-1.26816e-06
2.69229e-07
-2.69475e-07
-8.98175e-07
2.48112e-07
-2.52596e-07
8.97134e-07
-2.2777e-07
-2.2881e-07
0.000268462
-1.23118e-06
0.000270502
-0.000268461
2.29236e-07
2.32811e-07
7.66244e-09
0.00113625
-2.65257e-07
1.22862e-06
2.62692e-07
8.95114e-07
-2.5195e-07
-8.9465e-07
2.48912e-07
-1.26253e-06
-1.25948e-09
3.30343e-10
0.00113526
-2.69579e-07
1.26716e-06
2.6928e-07
8.94487e-07
-2.52177e-07
-8.94909e-07
2.48454e-07
0.00113624
-1.46912e-10
-0.00113625
6.77065e-09
-1.22707e-06
2.62939e-07
-2.64967e-07
-8.94919e-07
2.48628e-07
-2.5208e-07
8.94739e-07
1.26692e-06
0.00113526
9.11358e-10
-0.00113526
1.00613e-09
-1.2628e-06
2.69265e-07
-2.69572e-07
-8.95095e-07
2.48258e-07
-2.52328e-07
8.94387e-07
-3.11515e-09
5.2732e-10
0.00113502
-2.6419e-07
1.26115e-06
2.63315e-07
8.91979e-07
-2.49353e-07
2.45834e-07
-8.92275e-07
-2.79979e-09
-0.00113599
7.71397e-09
-1.22998e-06
2.59437e-07
-2.62572e-07
-8.91766e-07
2.4643e-07
8.92557e-07
-2.48803e-07
1.26096e-06
0.00113503
-1.77792e-09
-0.00113503
1.0621e-09
-1.25759e-06
2.63308e-07
-2.64088e-07
-8.91974e-07
2.45959e-07
-2.49137e-07
8.92113e-07
-2.24517e-07
-2.31458e-07
0.000268418
-1.22625e-06
0.000270449
-0.000268419
2.27037e-07
2.35576e-07
-4.61674e-09
1.62331e-09
0.00113613
-2.61759e-07
1.22704e-06
2.60639e-07
8.92262e-07
-2.5204e-07
2.48643e-07
-8.92155e-07
-4.18063e-09
-0.00113564
6.90361e-09
-1.22427e-06
2.59694e-07
-2.62499e-07
-8.91617e-07
2.49051e-07
8.92362e-07
-2.51569e-07
1.227e-06
0.00113614
-3.21987e-09
-0.00113614
1.63342e-09
-1.22364e-06
2.60901e-07
-2.61441e-07
-8.92219e-07
2.48586e-07
-2.52052e-07
8.92126e-07
-0.000268427
2.30023e-07
2.35164e-07
1.26354e-06
1.22698e-06
-2.24651e-07
-2.32475e-07
0.00026843
-1.26546e-06
-1.22934e-06
0.000270463
-0.00026843
2.27281e-07
2.34489e-07
5.11922e-09
0.00113512
-2.67636e-07
1.26591e-06
2.65482e-07
8.91768e-07
-2.49504e-07
-8.92322e-07
2.45688e-07
-1.26818e-06
1.37592e-09
1.02866e-09
0.00113559
-2.69381e-07
1.27217e-06
2.69398e-07
8.97064e-07
-2.52719e-07
-8.98282e-07
2.48094e-07
0.00113511
1.05276e-09
-0.00113511
6.46146e-09
-1.2638e-06
2.65212e-07
-2.67759e-07
-8.92321e-07
2.45742e-07
-2.49333e-07
8.91699e-07
1.27204e-06
0.00113559
2.1488e-09
-0.00113559
1.43896e-09
-1.26834e-06
2.6919e-07
-2.69479e-07
-8.98123e-07
2.48009e-07
-2.52688e-07
8.9707e-07
-2.27697e-07
-2.28967e-07
0.000268461
-1.23143e-06
0.000270502
-0.000268461
2.29408e-07
2.3283e-07
5.65155e-09
0.00113624
-2.64907e-07
1.22912e-06
2.63071e-07
8.94719e-07
-2.52215e-07
-8.95037e-07
2.48632e-07
-1.26285e-06
-2.36708e-11
5.90285e-10
0.00113526
-2.69525e-07
1.26695e-06
2.69327e-07
8.9443e-07
-2.52397e-07
-8.95189e-07
2.48299e-07
0.00113624
1.06142e-09
-0.00113624
4.63984e-09
-1.22661e-06
2.63182e-07
-2.64672e-07
-8.9498e-07
2.48353e-07
-2.52354e-07
8.9461e-07
1.26693e-06
0.00113526
2.06801e-09
-0.00113526
1.241e-09
-1.26273e-06
2.69193e-07
-2.69601e-07
-8.95057e-07
2.47999e-07
-2.52531e-07
8.94326e-07
-3.52961e-09
6.65859e-10
0.00113503
-2.64131e-07
1.26109e-06
2.63357e-07
8.92224e-07
-2.4908e-07
2.46165e-07
-8.921e-07
-2.86874e-09
-0.00113599
6.90668e-09
-1.22988e-06
2.59534e-07
-2.62556e-07
-8.91607e-07
2.46508e-07
8.92591e-07
-2.48672e-07
1.26123e-06
0.00113504
-2.21235e-09
-0.00113504
1.20729e-09
-1.2574e-06
2.63237e-07
-2.64195e-07
-8.91945e-07
2.46213e-07
-2.48795e-07
8.9223e-07
-2.24986e-07
-2.31612e-07
0.000268418
-1.22585e-06
0.000270448
-0.000268418
2.26647e-07
2.35737e-07
-4.83983e-09
1.02423e-09
0.00113614
-2.61384e-07
1.22718e-06
2.61018e-07
8.92229e-07
-2.52051e-07
2.48713e-07
-8.9221e-07
-4.09198e-09
-0.00113564
7.82783e-09
-1.22462e-06
2.59604e-07
-2.62675e-07
-8.91335e-07
2.49109e-07
8.92436e-07
-2.51448e-07
1.22737e-06
0.00113615
-3.63752e-09
-0.00113615
1.01961e-09
-1.22334e-06
2.61173e-07
-2.6121e-07
-8.92259e-07
2.48689e-07
-2.5187e-07
8.9215e-07
-0.000268429
2.3029e-07
2.35476e-07
1.26397e-06
1.22662e-06
-2.24299e-07
-2.32871e-07
0.000268429
-1.2652e-06
-1.22942e-06
0.000270461
-0.000268428
2.27359e-07
2.34321e-07
6.15564e-09
0.00113511
-2.67931e-07
1.26546e-06
2.6518e-07
8.91971e-07
-2.49327e-07
-8.92214e-07
2.45874e-07
-1.26836e-06
7.82265e-10
8.65868e-10
0.00113559
-2.69746e-07
1.27237e-06
2.69003e-07
8.97281e-07
-2.52708e-07
-8.98051e-07
2.48129e-07
0.0011351
4.70882e-10
-0.00113511
7.37518e-09
-1.26413e-06
2.64859e-07
-2.68077e-07
-8.91847e-07
2.45786e-07
-2.49237e-07
8.9212e-07
1.27205e-06
0.00113558
1.97056e-09
-0.00113559
1.62303e-09
-1.26833e-06
2.68976e-07
-2.69655e-07
-8.98085e-07
2.48187e-07
-2.52476e-07
8.97122e-07
-2.27801e-07
-2.29031e-07
0.000268461
-1.23154e-06
0.000270502
-0.000268461
2.29565e-07
2.32802e-07
3.73032e-09
0.00113624
-2.64631e-07
1.22948e-06
2.6337e-07
8.94798e-07
-2.52508e-07
-8.95134e-07
2.48364e-07
-1.26283e-06
1.175e-09
6.75292e-10
0.00113526
-2.69624e-07
1.267e-06
2.69229e-07
8.94264e-07
-2.52622e-07
-8.9527e-07
2.48089e-07
0.00113623
2.08936e-09
-0.00113623
3.54925e-09
-1.22652e-06
2.63356e-07
-2.64425e-07
-8.95258e-07
2.47846e-07
-2.52837e-07
8.94465e-07
1.26683e-06
0.00113525
3.41383e-09
-0.00113525
1.66436e-09
-1.26291e-06
2.69281e-07
-2.69578e-07
-8.95427e-07
2.47818e-07
-2.52646e-07
8.9401e-07
-4.597e-09
4.75765e-10
0.00113504
-2.6418e-07
1.26133e-06
2.63474e-07
8.92317e-07
-2.48916e-07
2.46262e-07
-8.91947e-07
-2.71585e-09
-0.00113599
6.61629e-09
-1.22978e-06
2.59693e-07
-2.62294e-07
-8.91773e-07
2.46323e-07
8.92468e-07
-2.48781e-07
1.26115e-06
0.00113504
-2.81815e-09
-0.00113504
1.64159e-09
-1.25746e-06
2.63094e-07
-2.64313e-07
-8.91689e-07
2.4604e-07
-2.48963e-07
8.92382e-07
-2.25415e-07
-2.31506e-07
0.000268417
-1.22554e-06
0.000270447
-0.000268417
2.26373e-07
2.35599e-07
-5.64719e-09
-9.2122e-11
0.00113616
-2.61303e-07
1.22746e-06
2.61223e-07
8.92432e-07
-2.5202e-07
2.48688e-07
-8.92051e-07
-3.55743e-09
-0.00113564
8.93167e-09
-1.22502e-06
2.59288e-07
-2.62951e-07
-8.91397e-07
2.49161e-07
8.92428e-07
-2.51358e-07
1.22742e-06
0.00113617
-3.24098e-09
-0.00113616
8.10658e-11
-1.22327e-06
2.61099e-07
-2.61333e-07
-8.92e-07
2.48688e-07
-2.51918e-07
8.92315e-07
-0.000268432
2.30203e-07
2.35325e-07
1.26396e-06
1.22641e-06
-2.24231e-07
-2.32881e-07
0.000268428
-1.26537e-06
-1.22941e-06
0.00027046
-0.000268427
2.27322e-07
2.34401e-07
6.58739e-09
0.00113511
-2.68247e-07
1.26551e-06
2.64892e-07
8.92216e-07
-2.4926e-07
-8.91919e-07
2.45946e-07
-1.26836e-06
2.43473e-10
1.02082e-09
0.00113559
-2.69902e-07
1.27226e-06
2.69008e-07
8.97302e-07
-2.52516e-07
-8.9809e-07
2.4832e-07
0.0011351
7.09969e-10
-0.0011351
6.92447e-09
-1.26394e-06
2.65263e-07
-2.67775e-07
-8.9208e-07
2.45766e-07
-2.49182e-07
8.91842e-07
1.27192e-06
0.00113558
2.0187e-09
-0.00113558
1.7423e-09
-1.2685e-06
2.68959e-07
-2.69739e-07
-8.97795e-07
2.48174e-07
-2.52424e-07
8.97242e-07
-2.27555e-07
-2.29085e-07
0.000268461
-1.23151e-06
0.000270502
-0.00026846
2.29514e-07
2.32753e-07
2.74347e-09
0.00113623
-2.64439e-07
1.22962e-06
2.63441e-07
8.94514e-07
-2.53e-07
-8.9533e-07
2.47872e-07
-1.26277e-06
1.92197e-09
1.41677e-09
0.00113525
-2.69638e-07
1.26709e-06
2.69386e-07
8.94061e-07
-2.52857e-07