/*--------------------------------*- C++ -*----------------------------------*\
| =========                 |                                                 |
| \\      /  F ield         | OpenFOAM: The Open Source CFD Toolbox           |
|  \\    /   O peration     | Version:  v1906                                 |
|   \\  /    A nd           | Web:      www.OpenFOAM.com                      |
|    \\/     M anipulation  |                                                 |
\*---------------------------------------------------------------------------*/
FoamFile
{
    version     2.0;
    format      ascii;
    class       volScalarField;
    location    "800";
    object      k;
}
// * * * * * * * * * * * * * * * * * * * * * * * * * * * * * * * * * * * * * //

dimensions      [0 2 -2 0 0 0 0];


internalField   nonuniform List<scalar> 
43248
(
4.17594e-05
3.6459e-05
3.64594e-05
4.1768e-05
3.6456e-05
3.64592e-05
3.6457e-05
3.64626e-05
4.17853e-05
3.64591e-05
3.6461e-05
4.17914e-05
2.08485e-05
2.08489e-05
2.08511e-05
2.08526e-05
6.95311e-05
6.95338e-05
6.68952e-05
6.69051e-05
6.46102e-05
7.13526e-05
6.47083e-05
6.46128e-05
7.1357e-05
7.13236e-05
6.47106e-05
5.30904e-05
6.01854e-05
2.88251e-05
2.85798e-05
5.3292e-05
5.30927e-05
3.62274e-05
6.01916e-05
2.8827e-05
6.00681e-05
2.8582e-05
5.32941e-05
6.95335e-05
6.95076e-05
4.15825e-05
6.6906e-05
6.68892e-05
6.68416e-05
6.68295e-05
6.95293e-05
6.95033e-05
7.13575e-05
6.47118e-05
6.01905e-05
2.88291e-05
5.32933e-05
7.13535e-05
6.47088e-05
2.88296e-05
6.01839e-05
5.32935e-05
5.30966e-05
3.62251e-05
6.01842e-05
2.88285e-05
6.0066e-05
2.85836e-05
5.32971e-05
6.46145e-05
7.13557e-05
7.13219e-05
6.47125e-05
5.30947e-05
3.62305e-05
2.88307e-05
6.01872e-05
2.85857e-05
6.00653e-05
5.3296e-05
6.46132e-05
7.13534e-05
7.13199e-05
6.47092e-05
6.95318e-05
6.68967e-05
6.68946e-05
6.9532e-05
5.30951e-05
2.88329e-05
6.01889e-05
2.85876e-05
5.32952e-05
5.30964e-05
3.6229e-05
2.8834e-05
6.01937e-05
2.8589e-05
6.00704e-05
5.32969e-05
6.46133e-05
7.13555e-05
6.47129e-05
6.46149e-05
7.13598e-05
7.13237e-05
6.47141e-05
4.15707e-05
6.68943e-05
6.69074e-05
6.68339e-05
6.6844e-05
6.95318e-05
6.95059e-05
6.95348e-05
6.95088e-05
6.95186e-05
6.95213e-05
7.0029e-05
5.93323e-05
6.68779e-05
7.11355e-05
7.11206e-05
5.92678e-05
7.00692e-05
7.00897e-05
5.93259e-05
6.68861e-05
7.11469e-05
7.11291e-05
5.92862e-05
7.00995e-05
9.2342e-05
7.20373e-05
7.20306e-05
7.20232e-05
7.20168e-05
9.23494e-05
7.01251e-05
6.9822e-05
6.81159e-05
6.46501e-05
7.01142e-05
6.98307e-05
6.8152e-05
7.0184e-05
7.13372e-05
7.73852e-05
7.73663e-05
7.01985e-05
7.01269e-05
6.46688e-05
6.98443e-05
6.82017e-05
6.98356e-05
6.8166e-05
7.01389e-05
7.01271e-05
6.98227e-05
6.81264e-05
6.4652e-05
7.01175e-05
6.98314e-05
6.81594e-05
7.01872e-05
7.13443e-05
7.74073e-05
7.73895e-05
7.02012e-05
7.01914e-05
7.73603e-05
7.13366e-05
7.01775e-05
7.73783e-05
7.01305e-05
6.46708e-05
6.9845e-05
6.82094e-05
6.98363e-05
6.81752e-05
7.014e-05
6.9521e-05
6.952e-05
9.23145e-05
7.20056e-05
7.20109e-05
9.23027e-05
7.20194e-05
7.20247e-05
7.00848e-05
5.93323e-05
6.68869e-05
7.11472e-05
5.92813e-05
7.11289e-05
7.01057e-05
7.0033e-05
5.9321e-05
6.68746e-05
7.11335e-05
7.11188e-05
5.92722e-05
7.00542e-05
7.00404e-05
7.11057e-05
5.91825e-05
6.68611e-05
5.92339e-05
7.00192e-05
7.11235e-05
6.99887e-05
7.10953e-05
5.91733e-05
6.68439e-05
6.99673e-05
7.11103e-05
5.92228e-05
9.2338e-05
7.20306e-05
7.20359e-05
7.20166e-05
7.20219e-05
9.23469e-05
6.95167e-05
6.95158e-05
7.01872e-05
7.13447e-05
7.74069e-05
7.73863e-05
7.02012e-05
7.01302e-05
6.46743e-05
6.82083e-05
6.98486e-05
6.81757e-05
6.98357e-05
7.01416e-05
7.0184e-05
7.13381e-05
7.73846e-05
7.73655e-05
7.01986e-05
7.01284e-05
6.46728e-05
6.98455e-05
6.82004e-05
6.98369e-05
6.81687e-05
7.01385e-05
7.01268e-05
6.81261e-05
6.9823e-05
6.46538e-05
7.01171e-05
6.81586e-05
6.98317e-05
7.01862e-05
7.13426e-05
7.74046e-05
7.73859e-05
7.02002e-05
7.01904e-05
7.73567e-05
7.13352e-05
7.01765e-05
7.73756e-05
7.01302e-05
6.46726e-05
6.82078e-05
6.98453e-05
6.81759e-05
6.98366e-05
7.01408e-05
7.01262e-05
6.98205e-05
6.81214e-05
6.46517e-05
7.01156e-05
6.98332e-05
6.81541e-05
7.01855e-05
7.13407e-05
7.73867e-05
7.73695e-05
7.01994e-05
7.01896e-05
7.734e-05
7.13329e-05
7.01757e-05
7.73581e-05
7.01288e-05
6.46726e-05
6.98471e-05
6.82032e-05
6.98341e-05
6.81716e-05
7.0139e-05
6.95191e-05
7.00849e-05
5.93287e-05
6.68816e-05
7.11451e-05
5.92809e-05
7.11266e-05
7.01067e-05
7.00357e-05
5.93255e-05
6.6877e-05
7.11366e-05
7.11183e-05
5.92738e-05
7.0057e-05
9.23419e-05
7.20304e-05
7.20368e-05
7.20164e-05
7.20228e-05
9.23547e-05
6.95195e-05
7.01275e-05
6.81189e-05
6.98221e-05
6.46547e-05
7.01158e-05
6.81557e-05
6.98347e-05
7.01863e-05
7.13398e-05
7.73885e-05
7.73677e-05
7.02002e-05
7.01904e-05
7.73593e-05
7.01284e-05
6.46723e-05
6.82054e-05
6.98486e-05
6.81692e-05
6.98357e-05
7.0141e-05
7.01283e-05
6.81236e-05
6.98225e-05
6.46558e-05
7.01171e-05
6.81599e-05
6.98351e-05
7.01869e-05
7.13442e-05
7.74047e-05
7.73851e-05
7.02016e-05
7.01918e-05
7.73558e-05
7.1339e-05
7.01773e-05
7.73758e-05
7.01302e-05
6.46734e-05
6.82094e-05
6.9849e-05
6.81735e-05
6.98361e-05
7.01417e-05
9.2319e-05
7.20123e-05
7.20063e-05
9.23071e-05
7.20262e-05
7.20201e-05
7.00354e-05
5.93247e-05
6.68791e-05
7.11369e-05
5.92737e-05
7.11186e-05
7.00569e-05
7.00879e-05
5.93365e-05
6.68892e-05
7.11483e-05
5.9284e-05
7.11299e-05
7.01092e-05
6.99912e-05
7.10953e-05
5.9175e-05
6.68495e-05
6.99695e-05
5.92264e-05
7.11132e-05
7.00436e-05
7.11066e-05
5.91852e-05
6.68626e-05
7.00221e-05
5.92382e-05
7.11246e-05
9.23425e-05
7.20374e-05
7.20313e-05
7.20234e-05
7.20174e-05
9.23514e-05
6.95194e-05
6.95182e-05
6.95223e-05
6.95212e-05
5.95191e-05
4.17734e-05
5.05078e-05
5.05017e-05
5.04662e-05
5.04756e-05
5.95509e-05
5.95177e-05
4.17741e-05
5.05103e-05
5.05061e-05
5.047e-05
5.04686e-05
5.95501e-05
5.95166e-05
4.17598e-05
5.04994e-05
5.05123e-05
5.04668e-05
5.0462e-05
5.95518e-05
5.95191e-05
4.17592e-05
5.05087e-05
5.05129e-05
5.04671e-05
5.0471e-05
5.95536e-05
1.49188e-05
1.49187e-05
1.48075e-05
1.07942e-05
1.08212e-05
2.0664e-05
1.49192e-05
1.49181e-05
1.48078e-05
1.48068e-05
1.07942e-05
1.08211e-05
1.49215e-05
1.49213e-05
1.48097e-05
1.07954e-05
1.08224e-05
2.06676e-05
1.49216e-05
1.49214e-05
1.48101e-05
1.481e-05
1.07954e-05
1.08224e-05
4.55445e-05
5.54119e-05
4.35742e-05
5.31702e-05
4.55178e-05
5.54867e-05
4.35921e-05
4.80415e-05
5.2512e-05
6.01379e-05
5.8511e-05
5.24765e-05
5.84522e-05
4.80868e-05
4.56901e-05
5.32121e-05
5.55973e-05
4.37954e-05
5.55243e-05
4.37495e-05
4.5722e-05
4.55528e-05
5.54188e-05
4.35767e-05
5.3172e-05
4.55274e-05
5.54941e-05
4.35947e-05
4.80475e-05
5.25278e-05
6.01427e-05
5.85212e-05
5.84619e-05
5.24792e-05
4.80944e-05
4.7935e-05
5.83686e-05
5.23479e-05
6.01173e-05
4.78954e-05
5.84281e-05
5.23939e-05
4.56974e-05
5.32139e-05
5.56055e-05
4.3798e-05
5.55302e-05
4.3752e-05
4.57283e-05
5.94438e-05
4.15767e-05
5.03253e-05
5.03233e-05
5.03559e-05
5.94124e-05
5.03537e-05
4.80479e-05
5.25146e-05
6.01433e-05
5.85198e-05
5.24834e-05
5.84606e-05
4.80915e-05
4.57015e-05
5.32182e-05
5.56029e-05
4.37715e-05
5.5531e-05
4.37522e-05
4.57263e-05
4.80437e-05
5.25122e-05
6.01412e-05
5.85113e-05
5.84524e-05
5.24794e-05
4.80886e-05
4.56989e-05
5.32145e-05
4.37703e-05
5.55991e-05
4.37508e-05
5.55254e-05
4.57237e-05
4.55306e-05
5.54237e-05
4.35806e-05
5.3175e-05
4.55337e-05
5.54912e-05
4.35982e-05
4.80593e-05
5.2512e-05
6.01408e-05
5.85182e-05
5.24833e-05
5.84604e-05
4.8071e-05
4.79205e-05
5.83671e-05
5.23512e-05
6.01099e-05
4.79065e-05
5.23814e-05
5.84257e-05
4.57162e-05
5.32171e-05
5.56015e-05
4.38007e-05
5.55345e-05
4.37564e-05
4.57053e-05
4.55422e-05
4.35782e-05
5.54192e-05
5.31734e-05
4.5537e-05
4.35967e-05
5.54899e-05
4.80588e-05
5.25152e-05
6.01401e-05
5.85139e-05
5.8456e-05
5.24814e-05
4.80711e-05
4.79209e-05
5.83626e-05
5.23501e-05
6.01131e-05
4.79051e-05
5.84215e-05
5.23838e-05
4.5711e-05
5.32154e-05
4.37999e-05
5.56006e-05
4.37556e-05
5.5531e-05
4.57064e-05
4.55558e-05
4.35673e-05
5.5418e-05
5.31752e-05
4.55168e-05
4.36123e-05
5.54902e-05
4.80461e-05
5.25198e-05
6.01403e-05
5.85141e-05
5.24799e-05
5.84559e-05
4.80907e-05
4.79321e-05
5.84211e-05
4.56988e-05
5.32186e-05
4.37755e-05
5.56011e-05
4.37559e-05
5.55302e-05
4.5725e-05
4.55534e-05
4.35654e-05
5.54211e-05
5.31756e-05
4.55255e-05
4.36158e-05
5.54947e-05
4.80498e-05
5.25253e-05
6.01453e-05
5.85208e-05
5.84627e-05
5.24845e-05
4.80955e-05
4.79361e-05
5.83692e-05
5.23525e-05
6.01194e-05
4.78977e-05
5.84281e-05
5.23921e-05
4.5698e-05
5.32191e-05
4.38017e-05
5.56062e-05
4.37503e-05
5.55312e-05
4.57291e-05
5.94475e-05
4.15951e-05
5.03211e-05
5.03239e-05
5.94136e-05
5.03608e-05
5.03666e-05
1.49182e-05
1.61042e-05
1.61051e-05
1.80898e-05
1.79681e-05
1.60861e-05
1.60854e-05
1.79827e-05
1.60858e-05
1.60858e-05
1.60849e-05
1.60852e-05
1.79822e-05
1.60858e-05
1.60859e-05
1.79678e-05
1.80876e-05
1.85368e-05
1.61049e-05
1.61048e-05
1.61969e-05
1.61962e-05
1.80753e-05
1.85543e-05
1.61056e-05
1.61051e-05
1.61958e-05
1.61963e-05
1.61044e-05
1.61953e-05
1.61958e-05
1.80769e-05
1.85534e-05
1.61051e-05
1.61962e-05
1.61965e-05
1.85375e-05
1.50067e-05
1.50062e-05
1.50064e-05
1.50063e-05
5.35071e-05
7.0037e-05
5.29537e-05
7.00653e-05
6.96361e-05
6.96159e-05
5.35173e-05
7.00451e-05
5.29526e-05
7.00697e-05
1.49177e-05
1.49179e-05
1.49178e-05
1.46699e-05
1.46695e-05
1.46697e-05
1.46696e-05
2.93467e-05
4.52015e-05
1.48821e-05
1.61289e-05
2.87851e-05
4.56196e-05
1.48312e-05
6.96356e-05
6.96156e-05
2.93474e-05
1.48829e-05
4.52065e-05
1.61298e-05
2.87872e-05
1.48319e-05
4.56188e-05
5.90534e-05
5.90641e-05
1.82401e-05
5.92787e-05
5.92894e-05
6.96523e-05
6.96733e-05
6.9654e-05
6.9675e-05
1.7835e-05
5.89311e-05
5.89449e-05
5.86931e-05
5.8705e-05
5.21522e-05
7.00349e-05
7.00051e-05
5.27517e-05
5.21537e-05
7.00387e-05
7.00136e-05
5.27547e-05
2.79357e-05
1.60727e-05
4.49833e-05
1.4937e-05
4.45574e-05
1.49963e-05
2.84977e-05
2.79402e-05
1.60721e-05
4.49902e-05
1.49368e-05
4.45639e-05
1.49961e-05
2.84957e-05
6.96537e-05
6.96748e-05
1.78189e-05
5.89457e-05
5.89322e-05
5.87056e-05
5.86924e-05
6.96516e-05
6.96725e-05
5.21499e-05
7.00393e-05
7.00141e-05
5.27626e-05
2.7934e-05
1.60729e-05
4.49892e-05
1.4937e-05
4.4562e-05
1.49964e-05
2.84977e-05
5.21495e-05
7.00342e-05
7.00092e-05
5.2761e-05
2.79353e-05
1.60724e-05
1.49367e-05
4.499e-05
1.4996e-05
4.45555e-05
2.84957e-05
2.79339e-05
1.60716e-05
4.49871e-05
1.49361e-05
4.45495e-05
1.49954e-05
2.84947e-05
5.21539e-05
7.00401e-05
7.00105e-05
5.27557e-05
2.79333e-05
1.60719e-05
1.49361e-05
4.4986e-05
1.49954e-05
4.45589e-05
2.84934e-05
5.2154e-05
7.00361e-05
7.00066e-05
5.27532e-05
6.96534e-05
6.96743e-05
1.78213e-05
5.89413e-05
5.89335e-05
5.87026e-05
5.86938e-05
6.96528e-05
6.96738e-05
2.79379e-05
1.60725e-05
1.49367e-05
4.49877e-05
1.49961e-05
4.45586e-05
2.8494e-05
2.79419e-05
1.60724e-05
1.4937e-05
4.49899e-05
1.49963e-05
4.45643e-05
2.84953e-05
5.21477e-05
7.00348e-05
7.00096e-05
5.27647e-05
5.21492e-05
7.00393e-05
7.0014e-05
5.27665e-05
1.78353e-05
5.8935e-05
5.89455e-05
5.86954e-05
5.8706e-05
6.96527e-05
6.96736e-05
6.96539e-05
6.9675e-05
6.96344e-05
6.96144e-05
6.96362e-05
6.96161e-05
5.90508e-05
5.90631e-05
1.82371e-05
5.9276e-05
5.92894e-05
6.9578e-05
6.9597e-05
6.95797e-05
6.95989e-05
1.8371e-05
5.96021e-05
5.96114e-05
5.93877e-05
5.94006e-05
5.35103e-05
7.00445e-05
5.2955e-05
7.00693e-05
2.93472e-05
4.52061e-05
1.4883e-05
1.61302e-05
2.8784e-05
4.56196e-05
1.48322e-05
2.93469e-05
4.52118e-05
1.48829e-05
1.61296e-05
2.8787e-05
4.56265e-05
1.48319e-05
5.36895e-05
7.00941e-05
7.00674e-05
5.41992e-05
5.36911e-05
7.0098e-05
7.00747e-05
5.42023e-05
2.96369e-05
1.61601e-05
4.62279e-05
1.47443e-05
4.58253e-05
1.47868e-05
3.02012e-05
2.96392e-05
1.61602e-05
4.62336e-05
1.47441e-05
4.58318e-05
1.47867e-05
3.02022e-05
5.90635e-05
5.90503e-05
1.82539e-05
5.92902e-05
5.92768e-05
6.96338e-05
6.96138e-05
6.95797e-05
6.95989e-05
1.83586e-05
5.96142e-05
5.96008e-05
5.94012e-05
5.93879e-05
6.95775e-05
6.95965e-05
2.93448e-05
4.52103e-05
1.48831e-05
1.61296e-05
2.8784e-05
4.56245e-05
1.4832e-05
5.35161e-05
7.00401e-05
5.29516e-05
7.00647e-05
2.93461e-05
1.48828e-05
4.52062e-05
1.61298e-05
2.87844e-05
1.48318e-05
4.56182e-05
5.36891e-05
7.00984e-05
7.00753e-05
5.42084e-05
2.964e-05
1.6161e-05
4.62294e-05
1.47441e-05
4.583e-05
1.47867e-05
3.01989e-05
5.36887e-05
7.00935e-05
7.00705e-05
5.42077e-05
2.96385e-05
1.61604e-05
1.47439e-05
4.62261e-05
1.47865e-05
4.58308e-05
3.02e-05
5.35109e-05
7.00425e-05
5.29556e-05
7.00708e-05
2.93439e-05
1.48822e-05
4.5208e-05
1.61292e-05
2.87839e-05
1.48312e-05
4.56214e-05
5.35086e-05
7.00385e-05
5.29557e-05
7.00668e-05
2.96376e-05
1.61593e-05
4.62254e-05
1.47433e-05
4.58237e-05
1.47858e-05
3.01991e-05
5.36923e-05
7.00994e-05
7.00727e-05
5.42024e-05
2.96382e-05
1.61598e-05
1.47434e-05
4.6227e-05
1.47859e-05
4.58275e-05
3.02013e-05
5.36919e-05
7.00955e-05
7.00688e-05
5.42004e-05
5.9061e-05
5.90523e-05
1.8253e-05
5.92859e-05
5.92779e-05
6.96351e-05
6.96149e-05
6.95792e-05
6.95983e-05
1.83598e-05
5.961e-05
5.96022e-05
5.93988e-05
5.93899e-05
6.95786e-05
6.95978e-05
2.9349e-05
1.48832e-05
4.52119e-05
1.61299e-05
2.87888e-05
1.48322e-05
4.56231e-05
5.35194e-05
7.00407e-05
5.29502e-05
7.00655e-05
5.35208e-05
7.0045e-05
5.29516e-05
7.00698e-05
2.96409e-05
1.61604e-05
1.47441e-05
4.62229e-05
1.47866e-05
4.58292e-05
3.02001e-05
2.9641e-05
1.61605e-05
1.47444e-05
4.62284e-05
1.47869e-05
4.58341e-05
3.02018e-05
5.3687e-05
7.00942e-05
7.00711e-05
5.42104e-05
5.36884e-05
7.00983e-05
7.00753e-05
5.42118e-05
6.96349e-05
6.96148e-05
6.96362e-05
6.96161e-05
1.83734e-05
5.96024e-05
5.96134e-05
5.93906e-05
5.94013e-05
6.95784e-05
6.95975e-05
6.95796e-05
6.95989e-05
6.98489e-05
5.33296e-05
6.91836e-05
5.95596e-05
6.91624e-05
5.93932e-05
6.98604e-05
7.09925e-05
7.40067e-05
7.00504e-05
7.09891e-05
7.40802e-05
6.98478e-05
5.31377e-05
6.91407e-05
5.91212e-05
6.9836e-05
6.91608e-05
5.92926e-05
7.09689e-05
7.41773e-05
7.00523e-05
7.41086e-05
7.09721e-05
6.96346e-05
6.96173e-05
6.98512e-05
5.33287e-05
5.95706e-05
6.9185e-05
5.93971e-05
6.91637e-05
6.98629e-05
7.09954e-05
7.40327e-05
7.00548e-05
7.09925e-05
7.41003e-05
6.98502e-05
5.3148e-05
5.91248e-05
6.91419e-05
6.98383e-05
5.93041e-05
6.91621e-05
7.09722e-05
7.41964e-05
7.00602e-05
7.41344e-05
7.09749e-05
6.96343e-05
6.96167e-05
8.75184e-05
7.24406e-05
7.24345e-05
7.24399e-05
7.24339e-05
8.75885e-05
5.70374e-05
3.89729e-05
6.88098e-05
5.9109e-05
5.69502e-05
3.91025e-05
6.88341e-05
5.71023e-05
3.89935e-05
6.88214e-05
5.91201e-05
5.70129e-05
3.91192e-05
6.88458e-05
8.74828e-05
7.2462e-05
7.2456e-05
8.74089e-05
7.24626e-05
7.24566e-05
5.72329e-05
6.88706e-05
5.92244e-05
3.94894e-05
3.9362e-05
6.88471e-05
5.73195e-05
5.72974e-05
6.88823e-05
5.92352e-05
3.95067e-05
3.93822e-05
6.88588e-05
5.73838e-05
6.96537e-05
6.96718e-05
6.96554e-05
6.96734e-05
8.72571e-05
7.25069e-05
7.25004e-05
8.71759e-05
7.25075e-05
7.25011e-05
5.66543e-05
3.87056e-05
5.88749e-05
6.87971e-05
6.87685e-05
3.85804e-05
5.67459e-05
5.67214e-05
3.87259e-05
5.88869e-05
6.88081e-05
6.87828e-05
3.85987e-05
5.68146e-05
5.64526e-05
6.87283e-05
3.81799e-05
5.87518e-05
5.63552e-05
6.87578e-05
3.83073e-05
5.652e-05
6.87429e-05
3.81985e-05
5.87649e-05
5.64196e-05
6.8769e-05
3.83273e-05
8.72936e-05
7.24851e-05
7.24787e-05
7.24845e-05
7.2478e-05
8.73702e-05
6.98215e-05
6.90967e-05
5.85393e-05
5.23494e-05
6.98092e-05
6.91165e-05
5.87208e-05
7.10093e-05
7.00211e-05
7.39771e-05
7.10128e-05
7.39009e-05
7.1033e-05
7.37858e-05
7.00187e-05
7.10294e-05
7.38677e-05
6.98228e-05
5.25612e-05
6.9139e-05
5.90133e-05
6.98348e-05
6.91181e-05
5.88366e-05
6.98237e-05
6.90971e-05
5.85435e-05
5.23527e-05
6.98113e-05
6.91173e-05
5.87333e-05
7.10126e-05
7.0029e-05
7.39982e-05
7.39286e-05
7.10155e-05
7.10358e-05
7.3818e-05
7.00232e-05
7.10328e-05
7.38895e-05
6.98248e-05
5.25627e-05
6.91389e-05
5.90249e-05
6.91185e-05
5.88409e-05
6.9837e-05
6.96553e-05
6.96731e-05
8.72567e-05
7.2501e-05
7.2506e-05
8.71753e-05
7.25016e-05
7.25066e-05
5.67212e-05
3.8726e-05
5.88874e-05
6.88095e-05
3.8597e-05
6.87807e-05
5.68158e-05
5.66557e-05
3.87078e-05
5.88744e-05
6.87971e-05
6.87683e-05
3.85758e-05
5.67507e-05
5.6516e-05
6.87403e-05
3.81976e-05
5.87652e-05
3.83261e-05
5.64219e-05
6.87702e-05
5.64499e-05
6.8728e-05
3.81744e-05
5.87514e-05
5.63567e-05
6.87578e-05
3.83088e-05
8.72922e-05
7.24792e-05
7.24842e-05
7.24785e-05
7.24836e-05
8.73711e-05
6.9653e-05
6.9671e-05
6.98237e-05
5.85419e-05
6.90976e-05
5.23603e-05
6.98113e-05
5.87335e-05
6.91176e-05
7.10128e-05
7.00294e-05
7.39963e-05
7.10157e-05
7.39272e-05
7.1036e-05
7.38134e-05
7.00238e-05
7.1033e-05
7.38894e-05
6.98249e-05
5.25594e-05
5.90253e-05
6.91402e-05
6.98371e-05
5.88395e-05
6.91192e-05
6.98217e-05
6.90967e-05
5.85418e-05
5.23584e-05
6.98094e-05
6.9117e-05
5.87232e-05
7.10091e-05
7.00245e-05
7.39753e-05
7.39035e-05
7.10127e-05
7.1033e-05
7.37941e-05
7.00186e-05
7.10293e-05
7.38656e-05
6.9823e-05
5.2559e-05
6.91387e-05
5.90155e-05
6.91182e-05
5.88389e-05
6.98351e-05
6.98234e-05
5.85419e-05
6.91015e-05
5.23536e-05
6.98113e-05
5.8732e-05
6.91146e-05
7.10127e-05
7.00264e-05
7.39993e-05
7.39203e-05
7.10159e-05
7.10361e-05
7.38086e-05
7.00243e-05
7.10329e-05
7.38903e-05
6.98248e-05
5.25631e-05
5.90239e-05
6.91359e-05
5.88394e-05
6.91219e-05
6.98369e-05
6.9822e-05
6.90965e-05
5.85392e-05
5.23516e-05
6.98097e-05
6.91167e-05
5.8727e-05
7.10106e-05
7.00225e-05
7.39794e-05
7.3902e-05
7.10136e-05
7.10339e-05
7.37884e-05
7.00204e-05
7.10307e-05
7.38707e-05
6.98233e-05
5.25633e-05
6.91384e-05
5.90191e-05
6.9118e-05
5.88365e-05
6.98354e-05
6.96548e-05
6.96728e-05
8.72602e-05
7.25012e-05
7.2507e-05
8.71831e-05
7.25018e-05
7.25076e-05
5.67207e-05
3.87255e-05
5.88847e-05
6.88072e-05
3.85989e-05
6.87822e-05
5.6818e-05
5.66592e-05
3.87086e-05
5.88759e-05
6.87977e-05
6.87689e-05
3.85792e-05
5.67518e-05
5.65233e-05
6.87425e-05
3.81991e-05
5.87613e-05
3.8327e-05
5.64206e-05
6.87681e-05
5.64539e-05
6.87288e-05
3.81796e-05
5.87541e-05
5.63595e-05
6.87584e-05
3.83124e-05
8.72985e-05
7.24794e-05
7.24852e-05
7.24787e-05
7.24845e-05
8.73747e-05
6.96543e-05
6.96722e-05
6.98228e-05
5.85368e-05
6.91024e-05
5.23628e-05
6.98106e-05
5.87288e-05
6.91156e-05
7.10113e-05
7.00251e-05
7.39747e-05
7.3906e-05
7.10142e-05
7.10345e-05
7.37966e-05
7.00193e-05
7.10314e-05
7.38659e-05
6.98241e-05
5.25574e-05
5.90207e-05
6.91369e-05
5.88347e-05
6.91228e-05
6.98362e-05
6.98241e-05
5.85422e-05
6.90984e-05
5.23645e-05
6.98117e-05
5.87355e-05
6.91187e-05
7.10122e-05
7.00296e-05
7.39958e-05
7.39254e-05
7.10151e-05
7.10355e-05
7.38121e-05
7.00239e-05
7.10325e-05
7.38884e-05
6.98252e-05
5.25587e-05
5.90272e-05
6.91403e-05
5.88398e-05
6.91198e-05
6.98374e-05
8.72589e-05
7.25067e-05
7.25007e-05
8.71791e-05
7.25073e-05
7.25012e-05
5.66583e-05
3.87105e-05
5.8877e-05
6.87962e-05
5.67499e-05
3.85802e-05
6.87709e-05
5.67205e-05
3.87268e-05
5.8888e-05
6.88078e-05
5.68155e-05
3.85986e-05
6.87824e-05
5.64527e-05
6.87312e-05
3.81801e-05
5.87547e-05
5.63586e-05
3.83094e-05
6.87573e-05
5.65206e-05
6.87431e-05
3.81986e-05
5.87653e-05
5.64198e-05
3.83282e-05
6.87686e-05
8.72969e-05
7.24848e-05
7.24788e-05
8.73723e-05
7.24843e-05
7.24783e-05
6.96541e-05
6.96721e-05
6.96554e-05
6.96733e-05
6.96332e-05
6.96155e-05
6.96349e-05
6.96173e-05
8.75154e-05
7.24407e-05
7.24344e-05
7.24401e-05
7.24336e-05
8.75866e-05
5.70349e-05
3.89745e-05
6.88074e-05
5.91071e-05
5.69486e-05
6.88351e-05
3.90989e-05
5.71026e-05
3.89933e-05
6.88214e-05
5.91197e-05
5.7014e-05
6.88461e-05
3.91179e-05
8.74799e-05
7.24622e-05
7.24557e-05
8.74067e-05
7.24628e-05
7.24565e-05
5.72316e-05
6.88718e-05
5.92211e-05
3.94866e-05
6.88449e-05
5.7318e-05
3.9363e-05
5.72982e-05
6.88826e-05
5.92344e-05
3.95051e-05
6.88592e-05
5.73836e-05
3.93822e-05
6.95787e-05
6.95959e-05
6.95808e-05
6.95977e-05
8.76884e-05
7.24182e-05
7.24116e-05
8.76202e-05
7.24189e-05
7.24126e-05
5.77628e-05
4.02526e-05
5.95484e-05
6.89425e-05
6.89157e-05
4.01167e-05
5.78798e-05
5.78467e-05
4.02505e-05
5.95617e-05
6.8952e-05
6.89309e-05
4.01455e-05
5.79076e-05
5.75978e-05
6.8881e-05
3.97428e-05
5.94411e-05
5.75013e-05
6.89075e-05
3.98697e-05
5.76557e-05
6.88955e-05
3.97647e-05
5.9454e-05
5.75735e-05
6.89182e-05
3.98852e-05
8.77201e-05
7.23973e-05
7.23907e-05
7.23966e-05
7.23899e-05
8.77847e-05
6.9851e-05
5.33312e-05
6.91841e-05
5.95707e-05
6.91628e-05
5.93981e-05
6.98626e-05
7.09951e-05
7.40356e-05
7.00544e-05
7.09923e-05
7.41009e-05
6.985e-05
5.31408e-05
6.91408e-05
5.91256e-05
6.91612e-05
6.98381e-05
5.93042e-05
7.0972e-05
7.41988e-05
7.00598e-05
7.41362e-05
7.09747e-05
6.98725e-05
6.9186e-05
5.96537e-05
5.38613e-05
6.98613e-05
6.92072e-05
5.98146e-05
7.0928e-05
7.00813e-05
7.4358e-05
7.42949e-05
7.0931e-05
7.09515e-05
7.42043e-05
7.008e-05
7.09485e-05
7.42702e-05
6.98731e-05
5.40341e-05
6.92303e-05
6.00584e-05
6.92092e-05
5.99028e-05
6.9884e-05
6.98747e-05
6.91865e-05
5.96588e-05
5.38643e-05
6.98634e-05
6.92077e-05
5.98255e-05
7.09312e-05
7.0089e-05
7.43793e-05
7.43232e-05
7.09337e-05
7.09542e-05
7.42321e-05
7.00841e-05
7.09516e-05
7.4292e-05
6.98753e-05
5.40357e-05
6.92309e-05
6.00686e-05
6.92098e-05
5.99085e-05
6.98861e-05
8.75129e-05
7.24348e-05
7.24398e-05
7.24341e-05
7.24391e-05
8.75872e-05
5.7104e-05
3.8991e-05
6.88197e-05
5.91204e-05
6.88476e-05
5.70102e-05
3.91169e-05
5.70382e-05
3.89714e-05
6.88072e-05
5.91069e-05
3.90986e-05
5.69446e-05
6.88352e-05
8.74813e-05
7.24563e-05
7.24613e-05
7.24569e-05
8.74044e-05
7.24619e-05
5.72943e-05
6.88844e-05
5.92349e-05
3.95048e-05
6.88571e-05
3.93809e-05
5.73852e-05
5.72291e-05
6.88718e-05
5.92216e-05
3.94866e-05
3.93616e-05
6.88447e-05
5.73203e-05
6.96325e-05
6.96149e-05
6.95808e-05
6.95976e-05
8.76891e-05
7.24123e-05
7.24173e-05
8.76176e-05
7.2413e-05
7.2418e-05
5.78382e-05
4.02617e-05
5.95623e-05
6.89544e-05
4.01386e-05
6.89284e-05
5.79257e-05
5.77713e-05
4.024e-05
5.95484e-05
6.89418e-05
6.89159e-05
4.01214e-05
5.78606e-05
5.76591e-05
6.88934e-05
3.97635e-05
5.94548e-05
3.98865e-05
5.75695e-05
6.89199e-05
5.75961e-05
6.8881e-05
3.97436e-05
5.94414e-05
5.75041e-05
6.89073e-05
3.98651e-05
8.77183e-05
7.23914e-05
7.23964e-05
7.23906e-05
7.23956e-05
8.77878e-05
6.95784e-05
6.95955e-05
6.98492e-05
5.33284e-05
6.91842e-05
5.95624e-05
6.91628e-05
5.93955e-05
6.98609e-05
7.09924e-05
7.40103e-05
7.00499e-05
7.09889e-05
7.40781e-05
6.98482e-05
5.31465e-05
6.91406e-05
5.91233e-05
6.91611e-05
6.98363e-05
5.92954e-05
7.09686e-05
7.41755e-05
7.00556e-05
7.41118e-05
7.0972e-05
6.9875e-05
5.9658e-05
6.91873e-05
5.38708e-05
6.98637e-05
5.98254e-05
6.92086e-05
7.09313e-05
7.00896e-05
7.43772e-05
7.43212e-05
7.09338e-05
7.09544e-05
7.42304e-05
7.00846e-05
7.09518e-05
7.42901e-05
6.98757e-05
5.40338e-05
6.00684e-05
6.92319e-05
5.99074e-05
6.92107e-05
6.98865e-05
6.9873e-05
6.91865e-05
5.96558e-05
5.38696e-05
6.98617e-05
6.92078e-05
5.98179e-05
7.09278e-05
7.0085e-05
7.43553e-05
7.42999e-05
7.09309e-05
7.09515e-05
7.42076e-05
7.00797e-05
7.09483e-05
7.42686e-05
6.98736e-05
5.40335e-05
6.92311e-05
6.00615e-05
6.92098e-05
5.99049e-05
6.98845e-05
6.98511e-05
5.33318e-05
5.95694e-05
6.91815e-05
5.93965e-05
6.91668e-05
6.98626e-05
7.09955e-05
7.40279e-05
7.00558e-05
7.41025e-05
7.09925e-05
6.985e-05
5.31416e-05
5.9124e-05
6.91441e-05
5.93029e-05
6.98382e-05
6.91589e-05
7.09722e-05
7.42001e-05
7.00577e-05
7.41287e-05
7.09751e-05
6.98495e-05
5.33319e-05
6.91838e-05
5.95648e-05
6.91625e-05
5.93935e-05
6.98611e-05
7.09933e-05
7.40084e-05
7.00518e-05
7.09903e-05
7.40827e-05
6.98485e-05
5.31394e-05
6.91404e-05
5.9121e-05
6.98365e-05
6.91608e-05
5.92981e-05
7.097e-05
7.41803e-05
7.00538e-05
7.41097e-05
7.09729e-05
6.98748e-05
5.96573e-05
6.91898e-05
5.38645e-05
6.98636e-05
5.98239e-05
6.92051e-05
7.09314e-05
7.00868e-05
7.43804e-05
7.43149e-05
7.09341e-05
7.09546e-05
7.42248e-05
7.00853e-05
7.09518e-05
7.42925e-05
6.98755e-05
5.40368e-05
6.00672e-05
6.92283e-05
5.9907e-05
6.92134e-05
6.98862e-05
6.98732e-05
6.91862e-05
5.96542e-05
5.38626e-05
6.9862e-05
6.92074e-05
5.98197e-05
7.09292e-05
7.00828e-05
7.43609e-05
7.42956e-05
7.09319e-05
7.09524e-05
7.42055e-05
7.00814e-05
7.09496e-05
7.42729e-05
6.98739e-05
5.40364e-05
6.92306e-05
6.0063e-05
6.92095e-05
5.99036e-05
6.98847e-05
8.75171e-05
7.2435e-05
7.24408e-05
7.24343e-05
7.24401e-05
8.75921e-05
5.71082e-05
3.89936e-05
6.88209e-05
5.9116e-05
6.88454e-05
5.70129e-05
3.91179e-05
5.7042e-05
3.89755e-05
6.88078e-05
5.91084e-05
3.91014e-05
5.69485e-05
6.88358e-05
8.74855e-05
7.24565e-05
7.24622e-05
7.24571e-05
8.74106e-05
7.24629e-05
5.7296e-05
6.8882e-05
5.92325e-05
3.95044e-05
6.88585e-05
3.93825e-05
5.73887e-05
5.72313e-05
6.88725e-05
5.92237e-05
3.94895e-05
3.93641e-05
6.88452e-05
5.73234e-05
6.96337e-05
6.96163e-05
6.95802e-05
6.95972e-05
8.76944e-05
7.24124e-05
7.24182e-05
8.76216e-05
7.24132e-05
7.24189e-05
5.78405e-05
4.02604e-05
5.95599e-05
6.89521e-05
4.01419e-05
6.89301e-05
5.79291e-05
5.7775e-05
4.0245e-05
5.95507e-05
6.89424e-05
6.89165e-05
4.01226e-05
5.78628e-05
5.76625e-05
6.88948e-05
3.97653e-05
5.94508e-05
3.98855e-05
5.75717e-05
6.89179e-05
5.7598e-05
6.88817e-05
3.97465e-05
5.94427e-05
5.75067e-05
6.89079e-05
3.98703e-05
8.77226e-05
7.23915e-05
7.23973e-05
7.23907e-05
7.23965e-05
8.77919e-05
6.95796e-05
6.95966e-05
6.98504e-05
5.33268e-05
5.95661e-05
6.91823e-05
5.93924e-05
6.91675e-05
6.98618e-05
7.09939e-05
7.40125e-05
7.00506e-05
7.40778e-05
7.0991e-05
6.98492e-05
5.31503e-05
5.91196e-05
6.91449e-05
5.92996e-05
6.98374e-05
6.91597e-05
7.09707e-05
7.41754e-05
7.00561e-05
7.41135e-05
7.09735e-05
6.98514e-05
5.33281e-05
5.95722e-05
6.91856e-05
5.93976e-05
6.91643e-05
6.9863e-05
7.09947e-05
7.40311e-05
7.0055e-05
7.09919e-05
7.40991e-05
6.98504e-05
5.31519e-05
5.91249e-05
6.91422e-05
6.98385e-05
5.93059e-05
6.91627e-05
7.09715e-05
7.41958e-05
7.00604e-05
7.41329e-05
7.09742e-05
6.98739e-05
5.96533e-05
6.91904e-05
5.38726e-05
6.98628e-05
5.98205e-05
6.92059e-05
7.09299e-05
7.00855e-05
7.4356e-05
7.43006e-05
7.09325e-05
7.0953e-05
7.42094e-05
7.00803e-05
7.09504e-05
7.42688e-05
6.98747e-05
5.40317e-05
6.00635e-05
6.9229e-05
5.99031e-05
6.9214e-05
6.98854e-05
6.98751e-05
5.96585e-05
6.91879e-05
5.38741e-05
6.98638e-05
5.98265e-05
6.92092e-05
7.09305e-05
7.00896e-05
7.43756e-05
7.43197e-05
7.09329e-05
7.09536e-05
7.42284e-05
7.00846e-05
7.0951e-05
7.42889e-05
6.98757e-05
5.40332e-05
6.00692e-05
6.92324e-05
5.99083e-05
6.92111e-05
6.98865e-05
6.96335e-05
6.9616e-05
6.96348e-05
6.96174e-05
8.76902e-05
7.2418e-05
7.2412e-05
8.76226e-05
7.24187e-05
7.24127e-05
5.77776e-05
4.0245e-05
5.95517e-05
6.89406e-05
4.01214e-05
6.89188e-05
5.78594e-05
5.78427e-05
4.02618e-05
5.95622e-05
6.89524e-05
4.01416e-05
6.89306e-05
5.79232e-05
5.75922e-05
6.88834e-05
3.97443e-05
5.94428e-05
5.75089e-05
3.98693e-05
6.89064e-05
5.76563e-05
6.88951e-05
3.9765e-05
5.94545e-05
5.75736e-05
3.9887e-05
6.89183e-05
8.77234e-05
7.23971e-05
7.23911e-05
7.23964e-05
7.23904e-05
8.77888e-05
6.95794e-05
6.95964e-05
6.95808e-05
6.95977e-05
1.50405e-05
1.50407e-05
1.48325e-05
1.49326e-05
1.49328e-05
1.52915e-05
1.54094e-05
3.78516e-05
2.48847e-05
2.4888e-05
1.80997e-05
3.7734e-05
2.49594e-05
2.4962e-05
3.73138e-05
1.79596e-05
2.46484e-05
2.46499e-05
2.45767e-05
2.45798e-05
3.74406e-05
3.73159e-05
1.7945e-05
2.4667e-05
2.46637e-05
2.45637e-05
2.45573e-05
3.745e-05
3.73201e-05
1.79467e-05
2.46627e-05
2.46605e-05
2.45677e-05
2.45648e-05
3.74515e-05
3.7319e-05
1.79591e-05
2.46492e-05
2.46511e-05
3.74425e-05
2.45753e-05
2.45789e-05
3.78512e-05
2.48837e-05
2.48888e-05
1.80983e-05
3.77333e-05
2.4957e-05
2.4961e-05
3.8939e-05
1.8525e-05
2.59223e-05
2.59103e-05
2.58369e-05
2.58519e-05
3.90553e-05
3.78606e-05
2.48728e-05
2.48687e-05
1.8113e-05
2.4974e-05
3.77222e-05
2.49781e-05
3.89307e-05
1.8508e-05
2.59368e-05
2.59313e-05
2.58259e-05
2.58204e-05
3.90586e-05
3.78603e-05
2.48804e-05
2.48756e-05
1.81133e-05
2.49716e-05
3.77281e-05
2.49771e-05
3.89368e-05
1.85091e-05
2.59334e-05
2.59261e-05
2.58306e-05
2.58274e-05
3.90645e-05
3.89404e-05
1.85262e-05
2.59149e-05
2.59193e-05
2.58394e-05
2.58455e-05
3.90571e-05
1.50983e-05
1.51505e-05
1.51507e-05
1.52629e-05
1.52632e-05
1.56504e-05
1.5529e-05
1.50978e-05
1.51503e-05
1.51504e-05
1.52627e-05
1.52628e-05
1.56503e-05
1.55289e-05
1.5098e-05
1.51503e-05
1.51505e-05
1.52628e-05
1.52629e-05
1.56502e-05
1.55289e-05
1.50979e-05
1.51501e-05
1.51505e-05
1.52625e-05
1.5263e-05
1.56502e-05
1.55288e-05
1.50403e-05
1.50403e-05
1.4832e-05
1.49325e-05
1.49325e-05
1.52914e-05
1.54093e-05
1.50403e-05
1.50405e-05
1.48322e-05
1.49324e-05
1.49327e-05
1.52914e-05
1.54093e-05
1.50401e-05
1.50405e-05
1.48321e-05
1.49322e-05
1.49327e-05
1.52913e-05
1.54092e-05
1.47498e-05
1.47238e-05
1.4724e-05
1.48271e-05
1.48273e-05
1.51753e-05
1.50608e-05
1.47493e-05
1.47237e-05
1.47237e-05
1.4827e-05
1.4827e-05
1.51752e-05
1.50607e-05
1.47496e-05
1.47236e-05
1.47239e-05
1.4827e-05
1.48272e-05
1.51751e-05
1.50606e-05
1.47494e-05
1.47234e-05
1.47239e-05
1.48268e-05
1.48272e-05
1.51751e-05
1.50606e-05
1.95981e-05
2.92108e-05
3.35537e-05
1.7999e-05
3.34161e-05
1.79648e-05
1.96616e-05
2.23719e-05
2.75771e-05
3.95834e-05
4.53072e-05
2.23335e-05
2.76763e-05
3.97021e-05
1.94665e-05
2.89198e-05
3.29941e-05
1.7811e-05
1.94061e-05
3.31323e-05
1.78428e-05
2.25876e-05
4.0084e-05
4.55155e-05
2.80196e-05
2.79261e-05
3.99653e-05
2.2632e-05
1.96162e-05
2.92133e-05
1.80023e-05
3.35501e-05
1.79672e-05
3.34181e-05
1.96449e-05
2.23704e-05
2.75843e-05
3.9587e-05
4.53067e-05
2.23329e-05
2.768e-05
3.96908e-05
1.94513e-05
2.89217e-05
1.7813e-05
3.29956e-05
1.94251e-05
1.78455e-05
3.31268e-05
2.25863e-05
4.00675e-05
4.5521e-05
2.80254e-05
2.793e-05
3.99651e-05
2.26295e-05
3.81412e-05
1.82287e-05
2.52733e-05
2.52788e-05
2.5199e-05
2.52055e-05
3.82606e-05
3.70318e-05
1.78434e-05
2.42717e-05
2.42741e-05
3.68924e-05
2.43409e-05
2.43477e-05
1.91075e-05
3.21382e-05
1.75243e-05
2.80718e-05
1.90552e-05
3.22818e-05
1.75665e-05
2.20672e-05
2.73453e-05
4.48859e-05
3.9316e-05
2.7231e-05
3.91961e-05
2.21391e-05
2.18958e-05
3.88078e-05
2.68863e-05
4.46575e-05
2.70051e-05
2.18197e-05
3.89293e-05
1.92246e-05
2.83607e-05
3.27072e-05
1.77057e-05
3.25652e-05
1.76626e-05
1.92817e-05
1.91088e-05
3.21503e-05
1.75238e-05
2.80715e-05
1.90565e-05
3.22834e-05