/*--------------------------------*- C++ -*----------------------------------*\
| =========                 |                                                 |
| \\      /  F ield         | OpenFOAM: The Open Source CFD Toolbox           |
|  \\    /   O peration     | Version:  v1906                                 |
|   \\  /    A nd           | Web:      www.OpenFOAM.com                      |
|    \\/     M anipulation  |                                                 |
\*---------------------------------------------------------------------------*/
FoamFile
{
    version     2.0;
    format      ascii;
    class       volScalarField;
    location    "800";
    object      nut;
}
// * * * * * * * * * * * * * * * * * * * * * * * * * * * * * * * * * * * * * //

dimensions      [0 2 -1 0 0 0 0];


internalField   nonuniform List<scalar> 
43248
(
0.000136617
0.000138621
0.000138626
0.000136694
0.000138639
0.000138619
0.000138637
0.000138643
0.000136848
0.000138637
0.000138652
0.000136901
0.00012237
0.00012237
0.000122371
0.000122387
2.36122e-05
2.36117e-05
7.37296e-05
7.37398e-05
9.18245e-05
5.00169e-05
9.20537e-05
9.18303e-05
5.00161e-05
5.00074e-05
9.20568e-05
0.000120671
9.38105e-05
0.000133975
0.000133113
0.000121324
0.000120678
0.000137837
9.38216e-05
0.00013398
9.35347e-05
0.000133116
0.00012133
2.3612e-05
2.36076e-05
0.000136029
7.37364e-05
7.37242e-05
7.36275e-05
7.36272e-05
2.36126e-05
2.36082e-05
5.00132e-05
9.20657e-05
9.38183e-05
0.000133987
0.00012132
5.00115e-05
9.20492e-05
0.000133988
9.38107e-05
0.000121324
0.000120687
0.000137849
9.38101e-05
0.000133988
9.3536e-05
0.000133126
0.000121332
9.1833e-05
5.00154e-05
5.00058e-05
9.20603e-05
0.000120682
0.000137855
0.000133997
9.382e-05
0.000133134
9.35332e-05
0.000121333
9.1828e-05
5.00117e-05
5.0003e-05
9.20545e-05
2.361e-05
7.37171e-05
7.37343e-05
2.36119e-05
0.000120678
0.000134005
9.38367e-05
0.000133143
0.000121327
0.000120683
0.000137864
0.000134014
9.38324e-05
0.00013315
9.35285e-05
0.000121333
9.18281e-05
5.00151e-05
9.20724e-05
9.18313e-05
5.0016e-05
5.00006e-05
9.20742e-05
0.000135883
7.37323e-05
7.3735e-05
7.36335e-05
7.36296e-05
2.36116e-05
2.36073e-05
2.36113e-05
2.36069e-05
2.36104e-05
2.36094e-05
9.72608e-05
0.000112667
7.37028e-05
4.79344e-05
4.79367e-05
0.000112501
9.73099e-05
9.72902e-05
0.000112674
7.36929e-05
4.79362e-05
4.79246e-05
0.000112488
9.73541e-05
7.88227e-05
2.14921e-05
2.14903e-05
2.14904e-05
2.14879e-05
7.88389e-05
3.62678e-05
4.05366e-05
8.80187e-05
9.19312e-05
3.62644e-05
4.05357e-05
8.81122e-05
2.0102e-05
5.00101e-05
7.60349e-05
7.59918e-05
2.01041e-05
3.62673e-05
9.19494e-05
4.05393e-05
8.82117e-05
4.05405e-05
8.8118e-05
3.6272e-05
3.62685e-05
4.05368e-05
8.8041e-05
9.19336e-05
3.62675e-05
4.05358e-05
8.81219e-05
2.01031e-05
5.00149e-05
7.60587e-05
7.602e-05
2.01051e-05
2.01037e-05
7.59731e-05
5.00093e-05
2.01017e-05
7.60126e-05
3.6271e-05
9.19545e-05
4.05395e-05
8.82218e-05
4.05407e-05
8.81383e-05
3.62715e-05
2.36099e-05
2.36097e-05
7.87983e-05
2.14864e-05
2.1489e-05
7.87749e-05
2.14885e-05
2.1491e-05
9.72735e-05
0.00011265
7.36962e-05
4.79346e-05
0.000112499
4.79247e-05
9.73305e-05
9.72606e-05
0.000112655
7.36953e-05
4.7938e-05
4.79367e-05
0.000112514
9.73123e-05
9.72049e-05
4.79172e-05
0.000112252
7.3668e-05
0.000112408
9.71474e-05
4.79262e-05
9.71854e-05
4.79285e-05
0.000112267
7.36559e-05
9.71361e-05
4.79307e-05
0.000112414
7.88193e-05
2.14902e-05
2.14927e-05
2.14881e-05
2.14906e-05
7.88374e-05
2.36105e-05
2.36103e-05
2.01033e-05
5.00113e-05
7.60597e-05
7.60155e-05
2.01053e-05
3.62694e-05
9.19565e-05
8.82227e-05
4.05436e-05
8.8139e-05
4.05361e-05
3.62727e-05
2.01016e-05
5.0004e-05
7.60312e-05
7.59884e-05
2.01036e-05
3.62678e-05
9.19615e-05
4.05389e-05
8.82025e-05
4.05403e-05
8.81235e-05
3.62693e-05
3.62689e-05
8.80441e-05
4.05362e-05
9.19346e-05
3.6268e-05
8.81228e-05
4.05354e-05
2.01037e-05
5.00132e-05
7.60596e-05
7.60189e-05
2.01057e-05
2.01043e-05
7.59722e-05
5.00085e-05
2.01023e-05
7.60134e-05
3.62719e-05
9.19537e-05
8.82209e-05
4.0539e-05
8.81431e-05
4.05401e-05
3.62726e-05
3.62677e-05
4.05321e-05
8.80337e-05
9.1936e-05
3.62649e-05
4.05392e-05
8.8114e-05
2.01026e-05
5.00106e-05
7.60392e-05
7.60014e-05
2.01046e-05
2.01032e-05
7.59541e-05
5.0005e-05
2.01012e-05
7.59937e-05
3.62686e-05
9.19543e-05
4.05435e-05
8.82105e-05
4.05361e-05
8.81328e-05
3.62704e-05
2.36078e-05
9.72664e-05
0.000112647
7.36843e-05
4.79318e-05
0.000112484
4.79217e-05
9.7329e-05
9.72573e-05
0.000112678
7.36974e-05
4.79435e-05
4.79335e-05
0.000112501
9.73158e-05
7.88188e-05
2.14891e-05
2.14925e-05
2.1487e-05
2.14904e-05
7.88438e-05
2.36097e-05
3.6269e-05
8.80253e-05
4.05324e-05
9.1945e-05
3.62643e-05
8.81199e-05
4.05394e-05
2.01028e-05
5.00067e-05
7.60421e-05
7.59975e-05
2.01048e-05
2.01034e-05
7.59957e-05
3.62673e-05
9.19531e-05
8.82205e-05
4.05438e-05
8.81267e-05
4.05364e-05
3.6273e-05
3.62702e-05
8.80321e-05
4.05324e-05
9.19467e-05
3.62662e-05
8.81259e-05
4.05395e-05
2.01034e-05
5.00075e-05
7.60557e-05
7.60116e-05
2.01055e-05
2.01041e-05
7.59647e-05
5.00083e-05
2.0102e-05
7.60095e-05
3.62696e-05
9.19545e-05
8.82243e-05
4.05439e-05
8.81313e-05
4.05364e-05
3.62731e-05
7.88007e-05
2.1489e-05
2.14861e-05
7.87772e-05
2.14911e-05
2.14882e-05
9.7258e-05
0.000112663
7.37012e-05
4.79431e-05
0.000112505
4.79332e-05
9.73195e-05
9.72754e-05
0.00011266
7.36972e-05
4.79342e-05
0.000112496
4.79243e-05
9.73356e-05
9.71905e-05
4.79256e-05
0.000112257
7.3666e-05
9.71318e-05
0.000112428
4.79346e-05
9.72081e-05
4.79168e-05
0.000112247
7.36694e-05
9.71491e-05
0.000112425
4.79257e-05
7.88216e-05
2.14928e-05
2.14899e-05
2.14907e-05
2.14878e-05
7.88397e-05
2.36096e-05
2.36093e-05
2.36092e-05
2.3609e-05
0.000119504
0.000136667
0.000129798
0.000129853
0.000129702
0.000129708
0.0001196
0.000119501
0.000136686
0.000129857
0.000129847
0.000129684
0.000129689
0.000119601
0.000119476
0.000136542
0.000129833
0.000129918
0.000129643
0.00012962
0.000119625
0.000119485
0.000136532
0.000129906
0.000129896
0.000129656
0.000129666
0.000119631
0.000120251
0.000120256
0.000119983
0.000132087
0.000131847
0.00012171
0.00012025
0.000120258
0.000119982
0.00011999
0.000132087
0.000131847
0.000120255
0.000120266
0.000119999
0.000132085
0.000131844
0.000121727
0.000120262
0.000120271
0.000119994
0.000120003
0.000132088
0.000131847
0.000132333
0.000117022
0.000134186
0.00012098
0.000132192
0.000117295
0.000134286
0.000128473
0.000122104
9.3687e-05
0.000107738
0.000121992
0.00010753
0.000128689
0.000132715
0.000121013
0.000117594
0.000135042
0.00011733
0.000134662
0.000132888
0.000132494
0.000117035
0.000134165
0.000120985
0.000132089
0.000117312
0.000134351
0.000128363
0.000122173
9.36837e-05
0.00010775
0.000107538
0.00012198
0.000128819
0.000128296
0.000107307
0.000121625
9.36671e-05
0.00012794
0.000107517
0.00012179
0.000132594
0.000121017
0.000117617
0.000135085
0.000117338
0.000134643
0.000133061
0.00011932
0.000136047
0.000129244
0.000129246
0.000129372
0.000119237
0.000129373
0.000128489
0.000122113
9.36843e-05
0.000107735
0.000121997
0.000107546
0.000128701
0.000132762
0.00012103
0.000117603
0.000134758
0.000117345
0.000134684
0.000132914
0.000128418
0.000122139
9.36703e-05
0.000107733
0.000107522
0.000121951
0.000128809
0.000132775
0.000121017
0.000134874
0.000117597
0.000134642
0.00011733
0.000132983
0.000132213
0.000117053
0.000134234
0.000120988
0.000132243
0.000117299
0.000134261
0.000128538
0.00012212
9.36936e-05
0.00010775
0.000122026
0.000107544
0.00012858
0.000128139
0.000107315
0.000121674
9.36582e-05
0.000128098
0.000121754
0.00010751
0.000132829
0.000121026
0.000117599
0.000134949
0.000117355
0.000134757
0.000132765
0.000132423
0.00013419
0.000117043
0.000120987
0.000132149
0.000134287
0.000117301
0.000128439
0.000122155
9.36889e-05
0.00010773
0.000107538
0.000121995
0.000128701
0.00012823
0.000107303
0.000121634
9.36658e-05
0.000128005
0.000107512
0.000121779
0.00013269
0.00012102
0.000134943
0.000117603
0.000134712
0.000117347
0.000132903
0.000132491
0.000134032
0.000117034
0.00012099
0.000132013
0.000134451
0.000117302
0.000128383
0.000122167
9.36772e-05
0.000107735
0.00012198
0.00010754
0.000128811
0.000128311
0.000107513
0.000132601
0.00012103
0.000134923
0.000117603
0.000134633
0.000117341
0.000133006
0.000132387
0.000134061
0.00011704
0.000120991
0.000132224
0.000134462
0.000117314
0.000128405
0.000122197
9.36836e-05
0.00010775
0.000107541
0.000121973
0.000128825
0.000128287
0.00010731
0.000121608
9.36742e-05
0.000128041
0.000107518
0.000121803
0.000132732
0.000121029
0.000135082
0.000117618
0.000134608
0.000117338
0.000132938
0.000119348
0.000136188
0.00012922
0.000129217
0.000119216
0.000129432
0.00012944
0.00015005
0.000101453
0.000101444
8.25166e-05
8.27071e-05
0.000102204
0.000102192
8.28498e-05
0.00010223
0.000102187
0.000102239
0.000102206
8.26426e-05
0.000102229
0.000102231
8.25498e-05
8.23049e-05
8.20036e-05
0.000101431
0.000101408
9.92378e-05
9.92269e-05
8.22746e-05
8.22293e-05
0.000101433
0.000101404
9.9267e-05
9.92232e-05
0.000101423
9.92723e-05
9.92428e-05
8.23913e-05
8.20781e-05
0.000101447
9.92629e-05
9.92663e-05
8.1957e-05
0.000151077
0.000151075
0.000151066
0.000151072
6.99996e-05
4.95511e-05
6.90975e-05
4.95653e-05
2.363e-05
2.36265e-05
7.00205e-05
4.95544e-05
6.90902e-05
4.95592e-05
0.00015005
0.000150042
0.000150049
0.000146973
0.000146971
0.000146962
0.000146968
6.69444e-05
6.57203e-05
0.000125986
0.000100694
6.60377e-05
6.63561e-05
0.000124961
2.36276e-05
2.36242e-05
6.69355e-05
0.000125992
6.57017e-05
0.000100685
6.60366e-05
0.000124963
6.63824e-05
6.10981e-05
6.10974e-05
8.21685e-05
6.145e-05
6.14486e-05
2.36331e-05
2.36366e-05
2.36317e-05
2.36354e-05
8.28153e-05
6.09534e-05
6.09562e-05
6.05896e-05
6.0595e-05
6.79311e-05
4.95545e-05
4.95391e-05
6.88887e-05
6.79349e-05
4.95522e-05
4.95481e-05
6.88941e-05
6.45977e-05
0.000103038
6.54006e-05
0.000126991
6.47108e-05
0.000128036
6.5588e-05
6.46629e-05
0.000103012
6.54067e-05
0.000126983
6.47199e-05
0.000128027
6.55138e-05
2.36329e-05
2.36366e-05
8.26861e-05
6.09426e-05
6.09379e-05
6.06144e-05
6.06076e-05
2.36334e-05
2.36369e-05
6.79196e-05
4.95484e-05
4.95441e-05
6.89107e-05
6.4587e-05
0.000103039
6.5404e-05
0.000126992
6.47139e-05
0.000128037
6.55545e-05
6.79228e-05
4.95442e-05
4.95402e-05
6.89107e-05
6.45988e-05
0.000103008
0.000126985
6.53722e-05
0.000128029
6.47337e-05
6.55521e-05
6.46265e-05
0.000103059
6.53783e-05
0.000126986
6.47248e-05
0.000128032
6.55275e-05
6.79325e-05
4.95552e-05
4.95399e-05
6.88955e-05
6.4641e-05
0.00010303
0.000126987
6.53706e-05
0.00012803
6.47535e-05
6.55095e-05
6.79317e-05
4.95513e-05
4.95364e-05
6.88871e-05
2.36306e-05
2.36342e-05
8.28081e-05
6.09509e-05
6.09544e-05
6.05878e-05
6.05905e-05
2.36324e-05
2.36359e-05
6.46013e-05
0.000103049
0.000126991
6.54113e-05
0.000128035
6.47168e-05
6.55198e-05
6.46375e-05
0.000103052
0.000126999
6.54023e-05
0.000128043
6.4718e-05
6.55372e-05
6.79193e-05
4.95468e-05
4.95426e-05
6.89166e-05
6.79203e-05
4.95478e-05
4.95432e-05
6.89217e-05
8.30128e-05
6.09581e-05
6.09566e-05
6.05941e-05
6.05931e-05
2.36322e-05
2.36357e-05
2.36315e-05
2.36351e-05
2.363e-05
2.36267e-05
2.36289e-05
2.36255e-05
6.10931e-05
6.11e-05
8.22366e-05
6.14401e-05
6.14507e-05
2.36202e-05
2.36236e-05
2.36196e-05
2.36225e-05
8.20829e-05
6.1916e-05
6.1921e-05
6.1584e-05
6.15854e-05
7.00052e-05
4.9558e-05
6.90995e-05
4.9563e-05
6.69931e-05
6.57055e-05
0.00012599
0.000100661
6.59968e-05
6.6393e-05
0.000124968
6.6949e-05
6.57117e-05
0.000125979
0.000100649
6.60484e-05
6.63977e-05
0.00012496
7.01869e-05
4.95752e-05
4.95619e-05
7.10378e-05
7.019e-05
4.95733e-05
4.95686e-05
7.10438e-05
6.74342e-05
9.99471e-05
6.73427e-05
0.000122977
6.66604e-05
0.000123975
6.84519e-05
6.74754e-05
9.9924e-05
6.73492e-05
0.00012297
6.66686e-05
0.000123966
6.84071e-05
6.11158e-05
6.11107e-05
8.25146e-05
6.14374e-05
6.14328e-05
2.36303e-05
2.36269e-05
2.36204e-05
2.36237e-05
8.1976e-05
6.19063e-05
6.19059e-05
6.16008e-05
6.15948e-05
2.36208e-05
2.3624e-05
6.69641e-05
6.57072e-05
0.000125992
0.000100686
6.59975e-05
6.63917e-05
0.000124964
7.00151e-05
4.95501e-05
6.90908e-05
4.95548e-05
6.69717e-05
0.000125981
6.57201e-05
0.000100645
6.59993e-05
0.000124962
6.63378e-05
7.01826e-05
4.95697e-05
4.95651e-05
7.10541e-05
6.74489e-05
9.99475e-05
6.73405e-05
0.000122971
6.66639e-05
0.000123976
6.8427e-05
7.0184e-05
4.95651e-05
4.95608e-05
7.10513e-05
6.74412e-05
9.99201e-05
0.000122973
6.72919e-05
0.000123968
6.66907e-05
6.8405e-05
6.99929e-05
4.95523e-05
6.90974e-05
4.95662e-05
6.69367e-05
0.000125983
6.57365e-05
0.000100664
6.60375e-05
0.000124963
6.63605e-05
7.00008e-05
4.95486e-05
6.90991e-05
4.95623e-05
6.74687e-05
9.99689e-05
6.73087e-05
0.000122971
6.66852e-05
0.000123969
6.83936e-05
7.02025e-05
4.95762e-05
4.95629e-05
7.10272e-05
6.74699e-05
9.994e-05
0.000122973
6.73488e-05
0.00012397
6.66891e-05
6.84216e-05
7.01901e-05
4.95724e-05
4.95592e-05
7.10372e-05
6.10927e-05
6.1098e-05
8.23106e-05
6.1446e-05
6.14492e-05
2.36294e-05
2.36259e-05
2.3618e-05
2.36213e-05
8.21128e-05
6.19138e-05
6.19182e-05
6.15784e-05
6.15839e-05
2.36198e-05
2.3623e-05
6.69481e-05
0.000125998
6.57085e-05
0.000100687
6.60336e-05
0.000124975
6.63842e-05
7.00246e-05
4.95526e-05
6.90874e-05
4.95576e-05
7.00258e-05
4.95534e-05
6.90885e-05
4.95585e-05
6.74826e-05
9.99606e-05
0.000122974
6.73279e-05
0.000123982
6.66691e-05
6.83925e-05
6.74794e-05
9.99641e-05
0.000122984
6.73302e-05
0.000123983
6.66726e-05
6.84051e-05
7.01806e-05
4.95679e-05
4.95636e-05
7.10591e-05
7.01824e-05
4.95687e-05
4.95643e-05
7.10607e-05
2.36291e-05
2.36258e-05
2.36285e-05
2.36251e-05
8.22183e-05
6.19185e-05
6.19177e-05
6.15843e-05
6.15834e-05
2.36196e-05
2.36228e-05
2.36189e-05
2.36222e-05
3.61959e-05
6.96513e-05
4.03518e-05
7.10807e-05
4.03398e-05
7.07612e-05
3.6199e-05
2.02174e-05
6.83155e-05
4.95601e-05
2.02169e-05
6.84561e-05
3.61957e-05
6.94557e-05
4.03339e-05
7.03597e-05
3.61926e-05
4.0345e-05
7.06859e-05
2.0214e-05
6.86231e-05
4.95566e-05
6.84892e-05
2.02145e-05
2.36297e-05
2.36268e-05
3.61975e-05
6.9643e-05
7.10972e-05
4.03513e-05
7.07671e-05
4.03394e-05
3.62006e-05
2.02187e-05
6.83465e-05
4.9554e-05
2.02184e-05
6.84743e-05
3.61973e-05
6.94776e-05
7.03625e-05
4.03334e-05
3.61941e-05
7.07047e-05
4.03444e-05
2.02155e-05
6.86395e-05
4.95595e-05
6.852e-05
2.02158e-05
2.36274e-05
2.36244e-05
7.08398e-05
2.15528e-05
2.15499e-05
2.15528e-05
2.15499e-05
7.09657e-05
7.38979e-05
7.09374e-05
4.71526e-05
6.12061e-05
7.37367e-05
7.1183e-05
4.71571e-05
7.39138e-05
7.09745e-05
4.71441e-05
6.12054e-05
7.37974e-05
7.11598e-05
4.71485e-05
7.07978e-05
2.1556e-05
2.15531e-05
7.06669e-05
2.15561e-05
2.15532e-05
7.4167e-05
4.71695e-05
6.13435e-05
7.18084e-05
7.15671e-05
4.71652e-05
7.43285e-05
7.42274e-05
4.71609e-05
6.13428e-05
7.17876e-05
7.16047e-05
4.71567e-05
7.43449e-05
2.36333e-05
2.36364e-05
2.3632e-05
2.3635e-05
7.04472e-05
2.15634e-05
2.15595e-05
7.03068e-05
2.15634e-05
2.15596e-05
7.3313e-05
7.05253e-05
6.08413e-05
4.71492e-05
4.71357e-05
7.03286e-05
7.34412e-05
7.33483e-05
7.05294e-05
6.08475e-05
4.71345e-05
4.71297e-05
7.03404e-05
7.35165e-05
7.30013e-05
4.71215e-05
6.96912e-05
6.0703e-05
7.28718e-05
4.71353e-05
6.98905e-05
7.30506e-05
4.71163e-05
6.97024e-05
6.07044e-05
7.2906e-05
4.71214e-05
6.9897e-05
7.04888e-05
2.15601e-05
2.15562e-05
2.156e-05
2.15561e-05
7.06232e-05
3.6189e-05
4.03199e-05
6.95044e-05
6.83089e-05
3.61855e-05
4.03319e-05
6.98584e-05
2.02198e-05
4.95454e-05
6.82839e-05
2.02203e-05
6.81391e-05
2.02232e-05
6.7951e-05
4.95483e-05
2.02226e-05
6.8105e-05
3.61891e-05
6.85285e-05
4.03392e-05
7.02762e-05
3.61924e-05
4.03273e-05
6.99371e-05
3.61908e-05
4.032e-05
6.95115e-05
6.8315e-05
3.61874e-05
4.03322e-05
6.98797e-05
2.02209e-05
4.9553e-05
6.83013e-05
6.8172e-05
2.02213e-05
2.02242e-05
6.79915e-05
4.9547e-05
2.02238e-05
6.81223e-05
3.61909e-05
6.85286e-05
4.03388e-05
7.03008e-05
4.03272e-05
6.99423e-05
3.61942e-05
2.36333e-05
2.36362e-05
7.04482e-05
2.15604e-05
2.15627e-05
7.03072e-05
2.15605e-05
2.15628e-05
7.33417e-05
7.05517e-05
6.08648e-05
4.71402e-05
7.03156e-05
4.71262e-05
7.34908e-05
7.33177e-05
7.0525e-05
6.08595e-05
4.71478e-05
4.7134e-05
7.03267e-05
7.34548e-05
7.30651e-05
4.7112e-05
6.96795e-05
6.06901e-05
6.99092e-05
7.28968e-05
4.71264e-05
7.29944e-05
4.71199e-05
6.9692e-05
6.06847e-05
7.28767e-05
4.7134e-05
6.98908e-05
7.04879e-05
2.15572e-05
2.15595e-05
2.15571e-05
2.15594e-05
7.06262e-05
2.36335e-05
2.36366e-05
3.61905e-05
6.95049e-05
4.03192e-05
6.8332e-05
3.6187e-05
6.98815e-05
4.03313e-05
2.02213e-05
4.95493e-05
6.82994e-05
2.02216e-05
6.81713e-05
2.02245e-05
6.79847e-05
4.95435e-05
2.02241e-05
6.81239e-05
3.61906e-05
6.85179e-05
7.02943e-05
4.03386e-05
3.6194e-05
6.99395e-05
4.03268e-05
3.6188e-05
4.03189e-05
6.95056e-05
6.83224e-05
3.61846e-05
4.03313e-05
6.98602e-05
2.02194e-05
4.9545e-05
6.82763e-05
6.81411e-05
2.02199e-05
2.02228e-05
6.79634e-05
4.95389e-05
2.02223e-05
6.80966e-05
3.61882e-05
6.85168e-05
4.03379e-05
7.02815e-05
4.03263e-05
6.99366e-05
3.61915e-05
3.6191e-05
6.95141e-05
4.03284e-05
6.83168e-05
3.61881e-05
6.98749e-05
4.03259e-05
2.02217e-05
4.95461e-05
6.83091e-05
6.81608e-05
2.02222e-05
2.02251e-05
6.79769e-05
4.95494e-05
2.02245e-05
6.81305e-05
3.61916e-05
6.85266e-05
7.02984e-05
4.03319e-05
6.99446e-05
4.03333e-05
3.61945e-05
3.61889e-05
4.03192e-05
6.95123e-05
6.83149e-05
3.61856e-05
4.03314e-05
6.98637e-05
2.02204e-05
4.95425e-05
6.82891e-05
6.81436e-05
2.02209e-05
2.02237e-05
6.79567e-05
4.95455e-05
2.02232e-05
6.81112e-05
3.61892e-05
6.85281e-05
4.0338e-05
7.02845e-05
4.03264e-05
6.99406e-05
3.61924e-05
2.36309e-05
2.36339e-05
7.04472e-05
2.15593e-05
2.15626e-05
7.03138e-05
2.15593e-05
2.15626e-05
7.33301e-05
7.05222e-05
6.08396e-05
4.71339e-05
7.03381e-05
4.71296e-05
7.35124e-05
7.33003e-05
7.05302e-05
6.08441e-05
4.71487e-05
4.71349e-05
7.03236e-05
7.34719e-05
7.30785e-05
4.71165e-05
6.97155e-05
6.06997e-05
6.98899e-05
7.28854e-05
4.71209e-05
7.3029e-05
4.71206e-05
6.96902e-05
6.07032e-05
7.28555e-05
4.71351e-05
6.99005e-05
7.04918e-05
2.1556e-05
2.15593e-05
2.15559e-05
2.15592e-05
7.06252e-05
2.36326e-05
2.36357e-05
3.61892e-05
6.95009e-05
4.03285e-05
6.83357e-05
3.61862e-05
6.98687e-05
4.03261e-05
2.02206e-05
4.95477e-05
6.82793e-05
6.81515e-05
2.0221e-05
2.02239e-05
6.79729e-05
4.95417e-05
2.02235e-05
6.81003e-05
3.61897e-05
6.85142e-05
7.02938e-05
4.0332e-05
6.99373e-05
4.03335e-05
3.61927e-05
3.61913e-05
6.95072e-05
4.03196e-05
6.8341e-05
3.61878e-05
6.98847e-05
4.03318e-05
2.02216e-05
4.95485e-05
6.82996e-05
6.81688e-05
2.0222e-05
2.02249e-05
6.79829e-05
4.95426e-05
2.02245e-05
6.81228e-05
3.61914e-05
6.85149e-05
7.0307e-05
4.03384e-05
6.99385e-05
4.03268e-05
3.61947e-05
7.0448e-05
2.15627e-05
2.15598e-05
7.03099e-05
2.15628e-05
2.15599e-05
7.33004e-05
7.05444e-05
6.08469e-05
4.71442e-05
7.34665e-05
7.03147e-05
4.71393e-05
7.33541e-05
7.05269e-05
6.08467e-05
4.71356e-05
7.34908e-05
7.03405e-05
4.71305e-05
7.30259e-05
4.7126e-05
6.96714e-05
6.07026e-05
7.28546e-05
6.99025e-05
4.71315e-05
7.30457e-05
4.71182e-05
6.9703e-05
6.07011e-05
7.29087e-05
6.98998e-05
4.71226e-05
7.0492e-05
2.15594e-05
2.15565e-05
7.06243e-05
2.15594e-05
2.15565e-05
2.36324e-05
2.36355e-05
2.36318e-05
2.36348e-05
2.36299e-05
2.36268e-05
2.36287e-05
2.36257e-05
7.08368e-05
2.15535e-05
2.15496e-05
2.15534e-05
2.15495e-05
7.09649e-05
7.38716e-05
7.09595e-05
4.71494e-05
6.12087e-05
7.37581e-05
4.71622e-05
7.11556e-05
7.39416e-05
7.09698e-05
4.71426e-05
6.12075e-05
7.37767e-05
4.71474e-05
7.11872e-05
7.07955e-05
2.15567e-05
2.15528e-05
7.06654e-05
2.15568e-05
2.15529e-05
7.41872e-05
4.7175e-05
6.13339e-05
7.17933e-05
4.7162e-05
7.4308e-05
7.15925e-05
7.42089e-05
4.71597e-05
6.1344e-05
7.18149e-05
4.71558e-05
7.43671e-05
7.15844e-05
2.36205e-05
2.36235e-05
2.36195e-05
2.36224e-05
7.11286e-05
2.15502e-05
2.15463e-05
7.1004e-05
2.15501e-05
2.15469e-05
7.50009e-05
7.30466e-05
6.18101e-05
4.71944e-05
4.7184e-05
7.2831e-05
7.51608e-05
7.50295e-05
7.30657e-05
6.18125e-05
4.71885e-05
4.71824e-05
7.28235e-05
7.51937e-05
7.4748e-05
4.71741e-05
7.22022e-05
6.16893e-05
7.45908e-05
4.71862e-05
7.24268e-05
7.47943e-05
4.71683e-05
7.22106e-05
6.16883e-05
7.46278e-05
4.71729e-05
7.24395e-05
7.11649e-05
2.15463e-05
2.15439e-05
2.15466e-05
2.15437e-05
7.12846e-05
3.61977e-05
6.96556e-05
4.03519e-05
7.11085e-05
4.03398e-05
7.07633e-05
3.62009e-05
2.02184e-05
6.83507e-05
4.95578e-05
2.0218e-05
6.8474e-05
3.61976e-05
6.94603e-05
4.03338e-05
7.03582e-05
4.03449e-05
3.61943e-05
7.07121e-05
2.02151e-05
6.86424e-05
4.95634e-05
6.85217e-05
2.02155e-05
3.62019e-05
4.03471e-05
7.1154e-05
7.05328e-05
3.61991e-05
4.03586e-05
7.14662e-05
2.02079e-05
4.95664e-05
6.8944e-05
6.88166e-05
2.02084e-05
2.02113e-05
6.86555e-05
4.95702e-05
2.02111e-05
6.87857e-05
3.6202e-05
7.07058e-05
4.03654e-05
7.18346e-05
4.03538e-05
7.15331e-05
3.62049e-05
3.6204e-05
4.03474e-05
7.11553e-05
7.05357e-05
3.62009e-05
4.03588e-05
7.14848e-05
2.02093e-05
4.95739e-05
6.89634e-05
6.88508e-05
2.02096e-05
2.02126e-05
6.86887e-05
4.95686e-05
2.02122e-05
6.88063e-05
3.6204e-05
7.07076e-05
4.03656e-05
7.18525e-05
4.03539e-05
7.15418e-05
3.62069e-05
7.08346e-05
2.15506e-05
2.15529e-05
2.15505e-05
2.15527e-05
7.09675e-05
7.39245e-05
7.09526e-05
4.714e-05
6.11942e-05
4.71532e-05
7.37917e-05
7.11594e-05
7.38811e-05
7.0962e-05
4.71477e-05
6.11896e-05
7.11475e-05
7.37501e-05
4.71608e-05
7.07993e-05
2.15538e-05
2.15561e-05
2.15539e-05
7.06634e-05
2.15562e-05
7.42197e-05
4.71659e-05
6.13615e-05
7.17844e-05
4.71525e-05
7.16037e-05
7.4354e-05
7.4183e-05
4.71734e-05
6.13557e-05
7.17843e-05
7.16014e-05
4.71602e-05
7.43143e-05
2.36301e-05
2.36271e-05
2.36206e-05
2.36234e-05
7.1131e-05
2.15472e-05
2.15495e-05
7.10015e-05
2.15473e-05
2.15496e-05
7.50349e-05
7.30375e-05
6.18337e-05
4.71898e-05
7.28487e-05
4.71766e-05
7.52074e-05
7.50127e-05
7.30185e-05
6.18184e-05
4.71973e-05
4.71842e-05
7.2852e-05
7.51439e-05
7.48014e-05
4.71651e-05
7.22296e-05
6.16768e-05
7.24222e-05
7.46332e-05
4.71776e-05
7.47368e-05
4.71729e-05
7.22189e-05
6.16726e-05
7.46016e-05
4.71851e-05
7.24042e-05
7.11639e-05
2.15441e-05
2.15464e-05
2.1544e-05
2.15463e-05
7.12908e-05
2.36209e-05
2.36238e-05
3.6195e-05
6.96473e-05
4.03511e-05
7.10902e-05
4.0339e-05
7.07557e-05
3.61982e-05
2.0217e-05
6.83194e-05
4.95497e-05
2.02165e-05
6.84489e-05
3.61949e-05
6.94674e-05
4.0333e-05
7.03517e-05
4.0344e-05
3.61916e-05
7.06954e-05
2.02136e-05
6.86165e-05
4.95559e-05
6.8492e-05
2.02141e-05
3.62038e-05
7.11603e-05
4.03467e-05
7.05479e-05
3.62007e-05
7.14821e-05
4.03582e-05
2.02096e-05
4.95703e-05
6.89611e-05
6.88488e-05
2.02099e-05
2.02129e-05
6.86871e-05
4.95649e-05
2.02126e-05
6.88045e-05
3.62039e-05
7.07019e-05
7.18515e-05
4.0365e-05
7.15411e-05
4.03534e-05
3.62067e-05
3.62013e-05
4.03466e-05
7.11458e-05
7.05422e-05
3.61982e-05
4.0358e-05
7.14772e-05
2.02078e-05
4.95667e-05
6.89358e-05
6.88228e-05
2.02082e-05
2.02112e-05
6.86586e-05
4.95605e-05
2.02107e-05
6.878e-05
3.62013e-05
7.07017e-05
4.03648e-05
7.1846e-05
4.03531e-05
7.15249e-05
3.62043e-05
3.61984e-05
6.9659e-05
7.11027e-05
4.03452e-05
7.07675e-05
4.03468e-05
3.62012e-05
2.02193e-05
6.83406e-05
4.95608e-05
6.84822e-05
2.02188e-05
3.6198e-05
6.94623e-05
7.03606e-05
4.03397e-05
7.0707e-05
3.6195e-05
4.0339e-05
2.02159e-05
6.86501e-05
4.95575e-05
6.85127e-05
2.02164e-05
3.6196e-05
6.96558e-05
4.03512e-05
7.11012e-05
4.03392e-05
7.07596e-05
3.61991e-05
2.02179e-05
6.83213e-05
4.95569e-05
2.02175e-05
6.84622e-05
3.61958e-05
6.94589e-05
4.03332e-05
7.03573e-05
3.61926e-05
4.03441e-05
7.07001e-05
2.02146e-05
6.86302e-05
4.95538e-05
6.84939e-05
2.0215e-05
3.62044e-05
7.1157e-05
4.03528e-05
7.05213e-05
3.62016e-05
7.14929e-05
4.03521e-05
2.02101e-05
4.95674e-05
6.89706e-05
6.88401e-05
2.02106e-05
2.02135e-05
6.868e-05
4.95709e-05
2.0213e-05
6.88126e-05
3.62047e-05
7.07207e-05
7.18625e-05
4.03589e-05
7.15339e-05
4.036e-05
3.62074e-05
3.62022e-05
4.03467e-05
7.11479e-05
7.05329e-05
3.61992e-05
4.0358e-05
7.14833e-05
2.02088e-05
4.95636e-05
6.8951e-05
6.88206e-05
2.02092e-05
2.02121e-05
6.86605e-05
4.95671e-05
2.02117e-05
6.87928e-05
3.62023e-05
7.07083e-05
4.03649e-05
7.18526e-05
4.03533e-05
7.15272e-05
3.62052e-05
7.08349e-05
2.15494e-05
2.15527e-05
2.15493e-05
2.15526e-05
7.09689e-05
7.39508e-05
7.09665e-05
4.71425e-05
6.12026e-05
4.71471e-05
7.37699e-05
7.11841e-05
7.39113e-05
7.09587e-05
4.71485e-05
6.12063e-05
7.1163e-05
7.37321e-05
4.71618e-05
7.07994e-05
2.15526e-05
2.15559e-05
2.15526e-05
7.06668e-05
2.1556e-05
7.4198e-05
4.71595e-05
6.13372e-05
7.18106e-05
4.71554e-05
7.15817e-05
7.43761e-05
7.41598e-05
4.71742e-05
6.13426e-05
7.18135e-05
7.15865e-05
4.7161e-05
7.43376e-05
2.36291e-05
2.36262e-05
2.36182e-05
2.36211e-05
7.11331e-05
2.1546e-05
2.15493e-05
7.10017e-05
2.15461e-05
2.15495e-05
7.50339e-05
7.30538e-05
6.18075e-05
4.71837e-05
7.2827e-05
4.71802e-05
7.52106e-05
7.49945e-05
7.30493e-05
6.18131e-05
4.71981e-05
4.71849e-05
7.28236e-05
7.51679e-05
7.47997e-05
4.71678e-05
7.2208e-05
6.1683e-05
7.24308e-05
7.46207e-05
4.71723e-05
7.47625e-05
4.71735e-05
7.22052e-05
6.16865e-05
7.45819e-05
4.7186e-05
7.24317e-05
7.11645e-05
2.15429e-05
2.15462e-05
2.15428e-05
2.15461e-05
7.12912e-05
2.362e-05
2.36228e-05
3.61965e-05
6.96443e-05
7.1098e-05
4.03454e-05
7.07596e-05
4.03468e-05
3.61993e-05
2.02181e-05
6.8329e-05
4.95524e-05
6.84526e-05
2.02177e-05
3.61961e-05
6.94809e-05
7.03525e-05
4.03398e-05
7.07016e-05
3.61931e-05
4.03391e-05
2.02148e-05
6.86205e-05
4.95582e-05
6.85009e-05
2.02152e-05
3.61982e-05
6.96454e-05
7.11119e-05
4.03515e-05
7.07611e-05
4.03394e-05
3.62013e-05
2.02191e-05
6.83451e-05
4.95534e-05
2.02187e-05
6.84734e-05
3.61981e-05
6.94831e-05
7.0356e-05
4.03335e-05
3.61948e-05
7.07154e-05
4.03445e-05
2.02158e-05
6.86397e-05
4.95592e-05
6.85186e-05
2.02161e-05
3.62025e-05
7.11495e-05
4.03529e-05
7.05512e-05
3.61997e-05
7.14859e-05
4.03522e-05
2.0209e-05
4.9569e-05
6.89414e-05
6.883e-05
2.02093e-05
2.02123e-05
6.86677e-05
4.95633e-05
2.02119e-05
6.87847e-05
3.62028e-05
7.06987e-05
7.18532e-05
4.0359e-05
7.15275e-05
4.036e-05
3.62055e-05
3.62044e-05
7.11547e-05
4.0347e-05
7.05525e-05
3.62014e-05
7.14874e-05
4.03584e-05
2.021e-05
4.95698e-05
6.89598e-05
6.88477e-05
2.02102e-05
2.02132e-05
6.86849e-05
4.95641e-05
2.02129e-05
6.88037e-05
3.62045e-05
7.07007e-05
7.18554e-05
4.03652e-05
7.15405e-05
4.03535e-05
3.62074e-05
2.3629e-05
2.36259e-05
2.36283e-05
2.36253e-05
7.1129e-05
2.15495e-05
2.15466e-05
7.1006e-05
2.15496e-05
2.15467e-05
7.50028e-05
7.30541e-05
6.18145e-05
4.71935e-05
7.28139e-05
4.71903e-05
7.51605e-05
7.50656e-05
7.30305e-05
6.18138e-05
4.71851e-05
7.28566e-05
4.71818e-05
7.51735e-05
7.47486e-05
4.71778e-05
7.21915e-05
6.16866e-05
7.45895e-05
7.24337e-05
4.71822e-05
7.47599e-05
4.71691e-05
7.22305e-05
6.16868e-05
7.46501e-05
7.24187e-05
4.71738e-05
7.11685e-05
2.15464e-05
2.15435e-05
2.15463e-05
2.15434e-05
7.12887e-05
2.36197e-05
2.36227e-05
2.36191e-05
2.3622e-05
0.000173139
0.000173151
0.000149019
0.000172283
0.000172293
0.000191519
0.000192221
7.41066e-05
7.26651e-05
7.26561e-05
8.23752e-05
7.39054e-05
7.28069e-05
7.27913e-05
7.32211e-05
8.25507e-05
7.24496e-05
7.24132e-05
7.22678e-05
7.22606e-05
7.34894e-05
7.32478e-05
8.2461e-05
7.25353e-05
7.24005e-05
7.21714e-05
7.22767e-05
7.3522e-05
7.32612e-05
8.25721e-05
7.23883e-05
7.24495e-05
7.22833e-05
7.22205e-05
7.35012e-05
7.32421e-05
8.27235e-05
7.24093e-05
7.23869e-05
7.34678e-05
7.22853e-05
7.22798e-05
7.41243e-05
7.26587e-05
7.26617e-05
8.24694e-05
7.38936e-05
7.28201e-05
7.2799e-05
7.58581e-05
8.19194e-05
7.41228e-05
7.41272e-05
7.39756e-05
7.39606e-05
7.60926e-05
7.41683e-05
7.25741e-05
7.26698e-05
8.26652e-05
7.28068e-05
7.38586e-05
7.2916e-05
7.58344e-05
8.18432e-05
7.4214e-05
7.41247e-05
7.38653e-05
7.39563e-05
7.60873e-05
7.4142e-05
7.26839e-05
7.26283e-05
8.24735e-05
7.28613e-05
7.38818e-05
7.27946e-05
7.58477e-05
8.18762e-05
7.41056e-05
7.41479e-05
7.39772e-05
7.39023e-05
7.61078e-05
7.58629e-05
8.20558e-05
7.41078e-05
7.4096e-05
7.39624e-05
7.39738e-05
7.6086e-05
0.000152111
0.000173995
0.000174006
0.000174854
0.000174867
0.000193625
0.000192923
0.000152112
0.000173994
0.000174005
0.000174853
0.000174865
0.000193625
0.000192923
0.000152104
0.00017399
0.000174001
0.00017485
0.000174862
0.000193621
0.000192918
0.00015211
0.000173991
0.000174004
0.000174851
0.000174864
0.000193621
0.000192919
0.000173137
0.000173149
0.000149018
0.000172282
0.000172293
0.000191518
0.00019222
0.000173134
0.000173147
0.000149008
0.000172277
0.000172288
0.000191513
0.000192216
0.000173136
0.000173149
0.000149015
0.000172279
0.000172292
0.000191514
0.000192217
0.000147999
0.000170576
0.000170585
0.000171429
0.000171442
0.000190814
0.000190111
0.000147999
0.000170574
0.000170586
0.000171428
0.000171439
0.000190814
0.000190111
0.00014799
0.00017057
0.000170581
0.000171424
0.000171437
0.00019081
0.000190106
0.000147997
0.000170572
0.000170585
0.000171426
0.000171439
0.00019081
0.000190107
7.26211e-05
6.67456e-05
6.86728e-05
7.49587e-05
6.8456e-05
7.51328e-05
7.26612e-05
6.87114e-05
6.84539e-05
6.79576e-05
6.58737e-05
6.85797e-05
6.85705e-05
6.81801e-05
7.25907e-05
6.62412e-05
6.77427e-05
7.5234e-05
7.25566e-05
6.7975e-05
7.50502e-05
6.89319e-05
6.88217e-05
6.6203e-05
6.91133e-05
6.90204e-05
6.85847e-05
6.90863e-05
7.27958e-05
6.6759e-05
7.5138e-05
6.86959e-05
7.50302e-05
6.84324e-05
7.25746e-05
6.87026e-05
6.84815e-05
6.79744e-05
6.59014e-05
6.85737e-05
6.85559e-05
6.81643e-05
7.25209e-05
6.62347e-05
7.51251e-05
6.77251e-05
7.27507e-05
7.52174e-05
6.79858e-05
6.89241e-05
6.87827e-05
6.6188e-05
6.91379e-05
6.90393e-05
6.8591e-05
6.90716e-05
7.45585e-05
8.23836e-05
7.32033e-05
7.31985e-05
7.3073e-05
7.30833e-05
7.47743e-05
7.28375e-05
8.29473e-05
7.19243e-05
7.19119e-05
7.25683e-05
7.20649e-05
7.20716e-05
7.27579e-05
6.63131e-05
7.55052e-05
6.48741e-05
7.24384e-05
6.66129e-05
7.5434e-05
6.81785e-05
6.81187e-05
6.52103e-05
6.75654e-05
6.78493e-05
6.73293e-05
6.85066e-05
6.82364e-05
6.67017e-05
6.72921e-05
6.49035e-05
6.76063e-05
6.78692e-05
6.69333e-05
7.2376e-05
6.53004e-05
6.73119e-05
7.52678e-05
6.70025e-05
7.53198e-05
7.27535e-05
7.26007e-05
6.63874e-05
7.53685e-05
6.48449e-05
7.26548e-05
6.65724e-05
7.55795e-05
6.8254e-05