/*--------------------------------*- C++ -*----------------------------------*\
| =========                 |                                                 |
| \\      /  F ield         | OpenFOAM: The Open Source CFD Toolbox           |
|  \\    /   O peration     | Version:  v1906                                 |
|   \\  /    A nd           | Web:      www.OpenFOAM.com                      |
|    \\/     M anipulation  |                                                 |
\*---------------------------------------------------------------------------*/
FoamFile
{
    version     2.0;
    format      ascii;
    class       volScalarField;
    location    "0.215";
    object      p;
}
// * * * * * * * * * * * * * * * * * * * * * * * * * * * * * * * * * * * * * //

dimensions      [0 2 -2 0 0 0 0];


internalField   nonuniform List<scalar> 
247104
(
-7.84421e-11
4.36354e-11
1.25653e-10
1.81027e-11
-1.38891e-10
5.19503e-11
1.20366e-10
-3.27177e-11
5.11623e-11
1.02555e-10
1.49729e-10
-3.88665e-11
-1.61144e-10
-1.1278e-11
1.60246e-10
7.2991e-11
1.57381e-10
1.66202e-10
-1.42942e-10
-5.28032e-10
-6.82478e-10
-4.88503e-10
-9.48021e-11
1.79885e-10
1.48584e-10
6.44486e-11
-5.68124e-12
-5.10642e-10
-1.0052e-09
-1.18461e-09
-9.57957e-10
-4.42083e-10
3.18836e-11
4.04506e-11
-8.15291e-11
-8.29921e-11
-1.1332e-10
-6.48851e-10
-1.16771e-09
-1.35316e-09
-1.11869e-09
-5.76403e-10
-7.51575e-11
-1.26325e-10
1.18437e-10
4.8506e-11
-4.41272e-10
-9.26318e-10
-1.10333e-09
-8.79819e-10
-3.74712e-10
8.32829e-11
9.56878e-11
1.94566e-10
2.28138e-10
-3.7818e-11
-3.99127e-10
-5.48471e-10
-3.61396e-10
5.43066e-12
2.35207e-10
1.82561e-10
4.25223e-11
1.44189e-10
2.41987e-10
8.17022e-11
-3.81165e-11
1.07457e-10
2.46606e-10
1.06707e-10
2.10302e-10
9.14129e-11
-8.38849e-11
1.28909e-10
2.03146e-10
-3.38758e-08
-3.59441e-08
-3.61239e-08
-3.7281e-08
-3.73798e-08
-3.74592e-08
-3.74525e-08
-3.60712e-08
-3.57106e-08
-3.613e-08
-3.81838e-08
-4.10874e-08
-4.11741e-08
-4.11745e-08
-4.10867e-08
-3.77779e-08
-3.75726e-08
-3.72776e-08
-4.10855e-08
-4.11541e-08
-4.11084e-08
-4.11083e-08
-4.11537e-08
-4.10837e-08
-3.73517e-08
-3.6416e-08
-3.38643e-08
-3.73749e-08
-4.11701e-08
-4.11058e-08
-4.1e-08
-4.09999e-08
-4.11055e-08
-4.11687e-08
-3.74587e-08
-3.58133e-08
-3.59197e-08
-3.74495e-08
-4.11675e-08
-4.11032e-08
-4.09974e-08
-4.09973e-08
-4.11029e-08
-4.11661e-08
-3.73012e-08
-3.7499e-08
-3.74378e-08
-4.10785e-08
-4.11466e-08
-4.11005e-08
-4.11004e-08
-4.1146e-08
-4.10774e-08
-3.74745e-08
-3.65831e-08
-3.60526e-08
-3.77664e-08
-4.10758e-08
-4.11619e-08
-4.11625e-08
-4.10755e-08
-3.76337e-08
-3.73602e-08
-3.59703e-08
-3.56772e-08
-3.75637e-08
-3.7338e-08
-3.74472e-08
-3.72932e-08
-3.74702e-08
-3.73585e-08
-3.51685e-08
-3.63952e-08
-3.58026e-08
-3.74902e-08
-3.65773e-08
-3.59636e-08
-5.39446e-08
-5.4145e-08
-5.42943e-08
-5.64738e-08
-5.65388e-08
-5.6549e-08
-5.64923e-08
-5.4241e-08
-5.40588e-08
-5.42892e-08
-5.71809e-08
-6.01721e-08
-6.03363e-08
-6.03373e-08
-6.01767e-08
-5.64857e-08
-5.60126e-08
-5.64727e-08
-6.01854e-08
-6.05769e-08
-6.05759e-08
-6.0576e-08
-6.05771e-08
-6.01775e-08
-5.56781e-08
-5.37012e-08
-5.39383e-08
-5.65348e-08
-6.03365e-08
-6.05761e-08
-6.05574e-08
-6.05571e-08
-6.0575e-08
-6.03331e-08
-5.56455e-08
-5.40201e-08
-5.41377e-08
-5.65427e-08
-6.03358e-08
-6.05758e-08
-6.05567e-08
-6.05561e-08
-6.05735e-08
-6.03321e-08
-5.57162e-08
-5.59805e-08
-5.64862e-08
-6.01788e-08
-6.05756e-08
-6.05741e-08
-6.05733e-08
-6.0573e-08
-6.01736e-08
-5.56143e-08
-5.36566e-08
-5.42344e-08
-5.64808e-08
-6.01752e-08
-6.03324e-08
-6.03331e-08
-6.01706e-08
-5.59871e-08
-5.58027e-08
-5.37478e-08
-5.40508e-08
-5.60051e-08
-5.56727e-08
-5.56444e-08
-5.57162e-08
-5.56143e-08
-5.58049e-08
-5.37844e-08
-5.36969e-08
-5.40159e-08
-5.59805e-08
-5.36529e-08
-5.37533e-08
-7.33528e-08
-7.35274e-08
-7.36378e-08
-7.59136e-08
-7.59675e-08
-7.60707e-08
-7.58751e-08
-7.36145e-08
-7.34011e-08
-7.36381e-08
-7.67647e-08
-7.96893e-08
-7.9747e-08
-7.9748e-08
-7.96915e-08
-7.60055e-08
-7.53039e-08
-7.59086e-08
-7.96864e-08
-7.9855e-08
-7.98594e-08
-7.98599e-08
-7.98559e-08
-7.96889e-08
-7.50467e-08
-7.30953e-08
-7.33435e-08
-7.59604e-08
-7.97443e-08
-7.98589e-08
-7.9858e-08
-7.98582e-08
-7.9859e-08
-7.97446e-08
-7.49461e-08
-7.34427e-08
-7.35189e-08
-7.60636e-08
-7.97448e-08
-7.98584e-08
-7.98574e-08
-7.98575e-08
-7.98581e-08
-7.97449e-08
-7.49852e-08
-7.5279e-08
-7.58699e-08
-7.96879e-08
-7.98532e-08
-7.98575e-08
-7.9858e-08
-7.98536e-08
-7.96869e-08
-7.49652e-08
-7.30851e-08
-7.36081e-08
-7.60017e-08
-7.96852e-08
-7.97422e-08
-7.97433e-08
-7.96844e-08
-7.51829e-08
-7.51196e-08
-7.31054e-08
-7.33974e-08
-7.52996e-08
-7.50419e-08
-7.49441e-08
-7.49835e-08
-7.49639e-08
-7.51198e-08
-7.31217e-08
-7.3089e-08
-7.34403e-08
-7.52713e-08
-7.3082e-08
-7.31049e-08
-9.27961e-08
-9.29649e-08
-9.31471e-08
-9.54208e-08
-9.54853e-08
-9.5632e-08
-9.53862e-08
-9.30978e-08
-9.28892e-08
-9.31522e-08
-9.63039e-08
-9.92229e-08
-9.92409e-08
-9.92409e-08
-9.92241e-08
-9.55751e-08
-9.47685e-08
-9.54175e-08
-9.92227e-08
-9.92697e-08
-9.9272e-08
-9.92722e-08
-9.92706e-08
-9.92235e-08
-9.44954e-08
-9.25491e-08
-9.27888e-08
-9.54829e-08
-9.92395e-08
-9.92713e-08
-9.92711e-08
-9.92712e-08
-9.92714e-08
-9.92404e-08
-9.43396e-08
-9.28473e-08
-9.29633e-08
-9.56298e-08
-9.92394e-08
-9.9271e-08
-9.92706e-08
-9.92706e-08
-9.92708e-08
-9.92395e-08
-9.43603e-08
-9.4678e-08
-9.53834e-08
-9.9222e-08
-9.92689e-08
-9.92704e-08
-9.92703e-08
-9.92684e-08
-9.92216e-08
-9.43949e-08
-9.24988e-08
-9.30925e-08
-9.55696e-08
-9.92207e-08
-9.92385e-08
-9.92384e-08
-9.92206e-08
-9.45505e-08
-9.45558e-08
-9.25729e-08
-9.28827e-08
-9.47641e-08
-9.44917e-08
-9.43372e-08
-9.43587e-08
-9.43926e-08
-9.45509e-08
-9.26474e-08
-9.25456e-08
-9.28436e-08
-9.46738e-08
-9.24937e-08
-9.25693e-08
-1.12275e-07
-1.1244e-07
-1.12638e-07
-1.14914e-07
-1.1498e-07
-1.15134e-07
-1.14883e-07
-1.12588e-07
-1.12388e-07
-1.12645e-07
-1.158e-07
-1.18717e-07
-1.18721e-07
-1.18721e-07
-1.18716e-07
-1.15087e-07
-1.1425e-07
-1.14914e-07
-1.18716e-07
-1.18728e-07
-1.18728e-07
-1.18727e-07
-1.18727e-07
-1.18714e-07
-1.13969e-07
-1.12032e-07
-1.12268e-07
-1.14979e-07
-1.18722e-07
-1.18728e-07
-1.18727e-07
-1.18727e-07
-1.18727e-07
-1.1872e-07
-1.13798e-07
-1.12305e-07
-1.12439e-07
-1.15134e-07
-1.18722e-07
-1.18728e-07
-1.18727e-07
-1.18727e-07
-1.18727e-07
-1.18719e-07
-1.13808e-07
-1.14135e-07
-1.14883e-07
-1.18717e-07
-1.18728e-07
-1.18728e-07
-1.18728e-07
-1.18727e-07
-1.18716e-07
-1.13866e-07
-1.1196e-07
-1.12587e-07
-1.15092e-07
-1.18716e-07
-1.18721e-07
-1.18721e-07
-1.18716e-07
-1.13998e-07
-1.14024e-07
-1.12058e-07
-1.12389e-07
-1.14252e-07
-1.13971e-07
-1.138e-07
-1.1381e-07
-1.13865e-07
-1.1403e-07
-1.1209e-07
-1.12032e-07
-1.12303e-07
-1.14134e-07
-1.1196e-07
-1.12058e-07
-1.31727e-07
-1.31892e-07
-1.32093e-07
-1.34371e-07
-1.3444e-07
-1.34595e-07
-1.34343e-07
-1.32044e-07
-1.31829e-07
-1.32097e-07
-1.35258e-07
-1.3818e-07
-1.38182e-07
-1.38182e-07
-1.38181e-07
-1.3456e-07
-1.33734e-07
-1.34372e-07
-1.3818e-07
-1.38184e-07
-1.38184e-07
-1.38184e-07
-1.38184e-07
-1.3818e-07
-1.33433e-07
-1.31488e-07
-1.31722e-07
-1.34439e-07
-1.38182e-07
-1.38184e-07
-1.38184e-07
-1.38184e-07
-1.38184e-07
-1.38182e-07
-1.33254e-07
-1.31756e-07
-1.31892e-07
-1.34595e-07
-1.38182e-07
-1.38184e-07
-1.38184e-07
-1.38184e-07
-1.38184e-07
-1.38182e-07
-1.3326e-07
-1.33585e-07
-1.34344e-07
-1.38181e-07
-1.38184e-07
-1.38184e-07
-1.38184e-07
-1.38184e-07
-1.3818e-07
-1.33324e-07
-1.31411e-07
-1.32046e-07
-1.34555e-07
-1.38181e-07
-1.38182e-07
-1.38182e-07
-1.3818e-07
-1.33445e-07
-1.33475e-07
-1.31513e-07
-1.31853e-07
-1.33708e-07
-1.33428e-07
-1.33255e-07
-1.33261e-07
-1.33326e-07
-1.33484e-07
-1.31549e-07
-1.3149e-07
-1.31754e-07
-1.33585e-07
-1.31414e-07
-1.31514e-07
-1.51188e-07
-1.51353e-07
-1.51553e-07
-1.53837e-07
-1.53907e-07
-1.54061e-07
-1.5381e-07
-1.51507e-07
-1.51293e-07
-1.51557e-07
-1.54724e-07
-1.57653e-07
-1.57654e-07
-1.57654e-07
-1.57654e-07
-1.54029e-07
-1.53201e-07
-1.53838e-07
-1.57654e-07
-1.57655e-07
-1.57655e-07
-1.57655e-07
-1.57655e-07
-1.57654e-07
-1.52902e-07
-1.50952e-07
-1.51182e-07
-1.53907e-07
-1.57654e-07
-1.57655e-07
-1.57655e-07
-1.57655e-07
-1.57655e-07
-1.57654e-07
-1.5272e-07
-1.51219e-07
-1.51353e-07
-1.54063e-07
-1.57655e-07
-1.57655e-07
-1.57655e-07
-1.57655e-07
-1.57655e-07
-1.57655e-07
-1.52726e-07
-1.53049e-07
-1.53812e-07
-1.57654e-07
-1.57656e-07
-1.57656e-07
-1.57655e-07
-1.57655e-07
-1.57654e-07
-1.52791e-07
-1.50874e-07
-1.5151e-07
-1.54025e-07
-1.57654e-07
-1.57655e-07
-1.57654e-07
-1.57654e-07
-1.52914e-07
-1.52942e-07
-1.50975e-07
-1.51316e-07
-1.53174e-07
-1.52898e-07
-1.5272e-07
-1.52727e-07
-1.52792e-07
-1.52949e-07
-1.51012e-07
-1.50951e-07
-1.51217e-07
-1.53049e-07
-1.50875e-07
-1.50976e-07
-1.70679e-07
-1.70844e-07
-1.71045e-07
-1.73329e-07
-1.73397e-07
-1.73553e-07
-1.73302e-07
-1.70998e-07
-1.70783e-07
-1.71049e-07
-1.74214e-07
-1.77142e-07
-1.77141e-07
-1.77141e-07
-1.77141e-07
-1.7352e-07
-1.72692e-07
-1.7333e-07
-1.77141e-07
-1.77141e-07
-1.77141e-07
-1.77141e-07
-1.77141e-07
-1.77141e-07
-1.7239e-07
-1.70443e-07
-1.70673e-07
-1.73397e-07
-1.77141e-07
-1.77141e-07
-1.7714e-07
-1.7714e-07
-1.77141e-07
-1.77141e-07
-1.72209e-07
-1.70709e-07
-1.70844e-07
-1.73554e-07
-1.77141e-07
-1.77141e-07
-1.7714e-07
-1.7714e-07
-1.77141e-07
-1.77141e-07
-1.72215e-07
-1.7254e-07
-1.73302e-07
-1.77141e-07
-1.77141e-07
-1.77141e-07
-1.77141e-07
-1.77141e-07
-1.77141e-07
-1.7228e-07
-1.70365e-07
-1.71e-07
-1.73514e-07
-1.77141e-07
-1.77141e-07
-1.77141e-07
-1.77141e-07
-1.72399e-07
-1.72431e-07
-1.70467e-07
-1.70805e-07
-1.72664e-07
-1.72388e-07
-1.72209e-07
-1.72216e-07
-1.72282e-07
-1.72438e-07
-1.70503e-07
-1.70442e-07
-1.70708e-07
-1.7254e-07
-1.70366e-07
-1.70468e-07
-1.9016e-07
-1.90325e-07
-1.90527e-07
-1.92807e-07
-1.92874e-07
-1.9303e-07
-1.9278e-07
-1.90478e-07
-1.90264e-07
-1.9053e-07
-1.93692e-07
-1.96615e-07
-1.96615e-07
-1.96614e-07
-1.96615e-07
-1.92998e-07
-1.9217e-07
-1.92808e-07
-1.96614e-07
-1.96615e-07
-1.96614e-07
-1.96614e-07
-1.96614e-07
-1.96615e-07
-1.91867e-07
-1.89924e-07
-1.90155e-07
-1.92875e-07
-1.96615e-07
-1.96614e-07
-1.96614e-07
-1.96614e-07
-1.96614e-07
-1.96615e-07
-1.91686e-07
-1.90189e-07
-1.90325e-07
-1.93032e-07
-1.96614e-07
-1.96614e-07
-1.96614e-07
-1.96614e-07
-1.96614e-07
-1.96615e-07
-1.91692e-07
-1.92018e-07
-1.9278e-07
-1.96615e-07
-1.96615e-07
-1.96614e-07
-1.96614e-07
-1.96614e-07
-1.96615e-07
-1.91756e-07
-1.89845e-07
-1.9048e-07
-1.92991e-07
-1.96615e-07
-1.96614e-07
-1.96615e-07
-1.96615e-07
-1.91875e-07
-1.91908e-07
-1.89948e-07
-1.90287e-07
-1.92142e-07
-1.91864e-07
-1.91685e-07
-1.91692e-07
-1.91758e-07
-1.91916e-07
-1.89983e-07
-1.89922e-07
-1.90187e-07
-1.92017e-07
-1.89846e-07
-1.89949e-07
-2.09619e-07
-2.09784e-07
-2.09983e-07
-2.12268e-07
-2.12335e-07
-2.12491e-07
-2.1224e-07
-2.09936e-07
-2.09723e-07
-2.09985e-07
-2.13153e-07
-2.16079e-07
-2.16079e-07
-2.16079e-07
-2.16079e-07
-2.12459e-07
-2.11629e-07
-2.12269e-07
-2.16079e-07
-2.1608e-07
-2.1608e-07
-2.1608e-07
-2.16079e-07
-2.16079e-07
-2.11329e-07
-2.09383e-07
-2.09614e-07
-2.12336e-07
-2.16079e-07
-2.1608e-07
-2.1608e-07
-2.1608e-07
-2.1608e-07
-2.16079e-07
-2.11148e-07
-2.09648e-07
-2.09784e-07
-2.12492e-07
-2.16079e-07
-2.1608e-07
-2.1608e-07
-2.1608e-07
-2.1608e-07
-2.16079e-07
-2.11153e-07
-2.11478e-07
-2.12241e-07
-2.16079e-07
-2.1608e-07
-2.1608e-07
-2.1608e-07
-2.16079e-07
-2.16079e-07
-2.11218e-07
-2.09304e-07
-2.09939e-07
-2.12453e-07
-2.16079e-07
-2.16079e-07
-2.16079e-07
-2.16079e-07
-2.11338e-07
-2.11369e-07
-2.09407e-07
-2.09746e-07
-2.11602e-07
-2.11326e-07
-2.11147e-07
-2.11154e-07
-2.11219e-07
-2.11376e-07
-2.09442e-07
-2.09381e-07
-2.09646e-07
-2.11477e-07
-2.09305e-07
-2.09407e-07
-2.29092e-07
-2.29256e-07
-2.29472e-07
-2.31741e-07
-2.3181e-07
-2.31966e-07
-2.31715e-07
-2.29408e-07
-2.29196e-07
-2.29469e-07
-2.32625e-07
-2.35556e-07
-2.35557e-07
-2.35557e-07
-2.35557e-07
-2.31934e-07
-2.31104e-07
-2.31743e-07
-2.35556e-07
-2.35556e-07
-2.35557e-07
-2.35557e-07
-2.35557e-07
-2.35557e-07
-2.30804e-07
-2.28856e-07
-2.29086e-07
-2.31811e-07
-2.35556e-07
-2.35557e-07
-2.35557e-07
-2.35557e-07
-2.35557e-07
-2.35557e-07
-2.30623e-07
-2.29122e-07
-2.29257e-07
-2.31967e-07
-2.35557e-07
-2.35557e-07
-2.35557e-07
-2.35557e-07
-2.35557e-07
-2.35557e-07
-2.30629e-07
-2.30953e-07
-2.31715e-07
-2.35557e-07
-2.35557e-07
-2.35557e-07
-2.35557e-07
-2.35557e-07
-2.35557e-07
-2.30693e-07
-2.28777e-07
-2.29413e-07
-2.31929e-07
-2.35557e-07
-2.35557e-07
-2.35557e-07
-2.35557e-07
-2.30814e-07
-2.30844e-07
-2.28879e-07
-2.29219e-07
-2.31078e-07
-2.30801e-07
-2.30623e-07
-2.3063e-07
-2.30695e-07
-2.30851e-07
-2.28916e-07
-2.28854e-07
-2.2912e-07
-2.30952e-07
-2.28778e-07
-2.2888e-07
-2.4858e-07
-2.48744e-07
-2.48952e-07
-2.51229e-07
-2.51297e-07
-2.51453e-07
-2.51201e-07
-2.48896e-07
-2.48684e-07
-2.48945e-07
-2.52116e-07
-2.55041e-07
-2.55041e-07
-2.55041e-07
-2.5504e-07
-2.51418e-07
-2.50591e-07
-2.5123e-07
-2.55041e-07
-2.5504e-07
-2.5504e-07
-2.5504e-07
-2.5504e-07
-2.55041e-07
-2.5029e-07
-2.48343e-07
-2.48574e-07
-2.51297e-07
-2.55041e-07
-2.5504e-07
-2.5504e-07
-2.5504e-07
-2.5504e-07
-2.5504e-07
-2.50109e-07
-2.48609e-07
-2.48744e-07
-2.51454e-07
-2.55041e-07
-2.5504e-07
-2.5504e-07
-2.5504e-07
-2.5504e-07
-2.5504e-07
-2.50114e-07
-2.50439e-07
-2.51202e-07
-2.55041e-07
-2.5504e-07
-2.5504e-07
-2.5504e-07
-2.5504e-07
-2.55041e-07
-2.50179e-07
-2.48265e-07
-2.489e-07
-2.51414e-07
-2.55041e-07
-2.5504e-07
-2.5504e-07
-2.55041e-07
-2.50299e-07
-2.5033e-07
-2.48367e-07
-2.48706e-07
-2.50564e-07
-2.50287e-07
-2.50108e-07
-2.50115e-07
-2.5018e-07
-2.50338e-07
-2.48403e-07
-2.48342e-07
-2.48607e-07
-2.50438e-07
-2.48266e-07
-2.48367e-07
-2.68059e-07
-2.68224e-07
-2.68431e-07
-2.70707e-07
-2.70775e-07
-2.70931e-07
-2.70679e-07
-2.68376e-07
-2.68164e-07
-2.68424e-07
-2.71594e-07
-2.74518e-07
-2.74517e-07
-2.74517e-07
-2.74517e-07
-2.70896e-07
-2.70069e-07
-2.70709e-07
-2.74518e-07
-2.74517e-07
-2.74517e-07
-2.74517e-07
-2.74517e-07
-2.74517e-07
-2.69768e-07
-2.67822e-07
-2.68053e-07
-2.70776e-07
-2.74517e-07
-2.74517e-07
-2.74517e-07
-2.74517e-07
-2.74517e-07
-2.74517e-07
-2.69587e-07
-2.68088e-07
-2.68224e-07
-2.70932e-07
-2.74517e-07
-2.74517e-07
-2.74517e-07
-2.74517e-07
-2.74517e-07
-2.74517e-07
-2.69592e-07
-2.69918e-07
-2.7068e-07
-2.74517e-07
-2.74517e-07
-2.74517e-07
-2.74517e-07
-2.74517e-07
-2.74517e-07
-2.69657e-07
-2.67744e-07
-2.68379e-07
-2.70892e-07
-2.74517e-07
-2.74517e-07
-2.74517e-07
-2.74517e-07
-2.69777e-07
-2.69808e-07
-2.67846e-07
-2.68185e-07
-2.70042e-07
-2.69765e-07
-2.69586e-07
-2.69593e-07
-2.69658e-07
-2.69816e-07
-2.67882e-07
-2.67821e-07
-2.68086e-07
-2.69917e-07
-2.67745e-07
-2.67847e-07
-2.87532e-07
-2.87696e-07
-2.87911e-07
-2.90179e-07
-2.90247e-07
-2.90402e-07
-2.90149e-07
-2.87848e-07
-2.87636e-07
-2.87908e-07
-2.91062e-07
-2.93988e-07
-2.93987e-07
-2.93987e-07
-2.93987e-07
-2.90367e-07
-2.89541e-07
-2.9018e-07
-2.93987e-07
-2.93987e-07
-2.93987e-07
-2.93987e-07
-2.93987e-07
-2.93987e-07
-2.89239e-07
-2.87295e-07
-2.87526e-07
-2.90247e-07
-2.93987e-07
-2.93987e-07
-2.93987e-07
-2.93987e-07
-2.93987e-07
-2.93987e-07
-2.89058e-07
-2.8756e-07
-2.87696e-07
-2.90403e-07
-2.93987e-07
-2.93987e-07
-2.93987e-07
-2.93987e-07
-2.93987e-07
-2.93987e-07
-2.89063e-07
-2.89389e-07
-2.90152e-07
-2.93987e-07
-2.93987e-07
-2.93987e-07
-2.93987e-07
-2.93987e-07
-2.93987e-07
-2.89128e-07
-2.87216e-07
-2.87851e-07
-2.90363e-07
-2.93987e-07
-2.93987e-07
-2.93987e-07
-2.93987e-07
-2.89247e-07
-2.89279e-07
-2.87318e-07
-2.87658e-07
-2.89514e-07
-2.89236e-07
-2.89057e-07
-2.89064e-07
-2.89129e-07
-2.89287e-07
-2.87353e-07
-2.87293e-07
-2.87558e-07
-2.89388e-07
-2.87216e-07
-2.87319e-07
-3.06994e-07
-3.07158e-07
-3.07371e-07
-3.0964e-07
-3.09709e-07
-3.09865e-07
-3.09612e-07
-3.07311e-07
-3.07099e-07
-3.07367e-07
-3.10524e-07
-3.13452e-07
-3.13452e-07
-3.13452e-07
-3.13452e-07
-3.09831e-07
-3.09003e-07
-3.09642e-07
-3.13452e-07
-3.13452e-07
-3.13452e-07
-3.13452e-07
-3.13452e-07
-3.13452e-07
-3.08702e-07
-3.06757e-07
-3.06988e-07
-3.0971e-07
-3.13452e-07
-3.13453e-07
-3.13453e-07
-3.13453e-07
-3.13452e-07
-3.13452e-07
-3.08521e-07
-3.07023e-07
-3.07158e-07
-3.09866e-07
-3.13452e-07
-3.13452e-07
-3.13453e-07
-3.13453e-07
-3.13452e-07
-3.13452e-07
-3.08527e-07
-3.08852e-07
-3.09614e-07
-3.13452e-07
-3.13452e-07
-3.13452e-07
-3.13452e-07
-3.13452e-07
-3.13452e-07
-3.08591e-07
-3.06678e-07
-3.07314e-07
-3.09827e-07
-3.13452e-07
-3.13452e-07
-3.13452e-07
-3.13452e-07
-3.08711e-07
-3.08742e-07
-3.06781e-07
-3.0712e-07
-3.08976e-07
-3.08699e-07
-3.08521e-07
-3.08528e-07
-3.08592e-07
-3.0875e-07
-3.06816e-07
-3.06756e-07
-3.0702e-07
-3.08852e-07
-3.06679e-07
-3.06781e-07
-3.2646e-07
-3.26625e-07
-3.26838e-07
-3.2911e-07
-3.29179e-07
-3.29335e-07
-3.29083e-07
-3.2678e-07
-3.26567e-07
-3.26836e-07
-3.29995e-07
-3.32927e-07
-3.32927e-07
-3.32927e-07
-3.32927e-07
-3.29303e-07
-3.28474e-07
-3.29111e-07
-3.32927e-07
-3.32927e-07
-3.32927e-07
-3.32927e-07
-3.32927e-07
-3.32927e-07
-3.28173e-07
-3.26225e-07
-3.26455e-07
-3.2918e-07
-3.32927e-07
-3.32927e-07
-3.32928e-07
-3.32928e-07
-3.32927e-07
-3.32927e-07
-3.27993e-07
-3.26491e-07
-3.26625e-07
-3.29336e-07
-3.32927e-07
-3.32927e-07
-3.32928e-07
-3.32928e-07
-3.32927e-07
-3.32927e-07
-3.27999e-07
-3.28322e-07
-3.29085e-07
-3.32927e-07
-3.32927e-07
-3.32927e-07
-3.32927e-07
-3.32927e-07
-3.32927e-07
-3.28063e-07
-3.26146e-07
-3.26782e-07
-3.29299e-07
-3.32927e-07
-3.32927e-07
-3.32927e-07
-3.32927e-07
-3.28184e-07
-3.28213e-07
-3.26248e-07
-3.26588e-07
-3.28446e-07
-3.2817e-07
-3.27992e-07
-3.27999e-07
-3.28063e-07
-3.2822e-07
-3.26285e-07
-3.26223e-07
-3.26489e-07
-3.2832e-07
-3.26147e-07
-3.26248e-07
-3.45952e-07
-3.46116e-07
-3.46329e-07
-3.48601e-07
-3.48669e-07
-3.48825e-07
-3.48573e-07
-3.4627e-07
-3.46057e-07
-3.46326e-07
-3.49485e-07
-3.52414e-07
-3.52414e-07
-3.52414e-07
-3.52414e-07
-3.48791e-07
-3.47964e-07
-3.48603e-07
-3.52414e-07
-3.52413e-07
-3.52413e-07
-3.52413e-07
-3.52413e-07
-3.52414e-07
-3.47663e-07
-3.45716e-07
-3.45946e-07
-3.4867e-07
-3.52414e-07
-3.52413e-07
-3.52413e-07
-3.52413e-07
-3.52413e-07
-3.52414e-07
-3.47482e-07
-3.45981e-07
-3.46117e-07
-3.48827e-07
-3.52414e-07
-3.52413e-07
-3.52413e-07
-3.52413e-07
-3.52413e-07
-3.52414e-07
-3.47487e-07
-3.47813e-07
-3.48575e-07
-3.52414e-07
-3.52413e-07
-3.52413e-07
-3.52413e-07
-3.52413e-07
-3.52414e-07
-3.47552e-07
-3.45637e-07
-3.46272e-07
-3.48788e-07
-3.52414e-07
-3.52414e-07
-3.52414e-07
-3.52414e-07
-3.47672e-07
-3.47703e-07
-3.45739e-07
-3.46078e-07
-3.47937e-07
-3.4766e-07
-3.47481e-07
-3.47488e-07
-3.47553e-07
-3.47711e-07
-3.45775e-07
-3.45714e-07
-3.4598e-07
-3.47812e-07
-3.45638e-07
-3.4574e-07
-3.65433e-07
-3.65598e-07
-3.65811e-07
-3.68079e-07
-3.68148e-07
-3.68303e-07
-3.68051e-07
-3.65751e-07
-3.65538e-07
-3.65808e-07
-3.68963e-07
-3.71888e-07
-3.71888e-07
-3.71888e-07
-3.71888e-07
-3.68268e-07
-3.67442e-07
-3.68081e-07
-3.71889e-07
-3.71888e-07
-3.71888e-07
-3.71888e-07
-3.71888e-07
-3.71888e-07
-3.67141e-07
-3.65197e-07
-3.65428e-07
-3.68149e-07
-3.71888e-07
-3.71888e-07
-3.71888e-07
-3.71888e-07
-3.71888e-07
-3.71888e-07
-3.66959e-07
-3.65462e-07
-3.65598e-07
-3.68305e-07
-3.71888e-07
-3.71888e-07
-3.71888e-07
-3.71887e-07
-3.71888e-07
-3.71888e-07
-3.66965e-07
-3.67291e-07
-3.68053e-07
-3.71888e-07
-3.71888e-07
-3.71888e-07
-3.71888e-07
-3.71888e-07
-3.71888e-07
-3.67029e-07
-3.65118e-07
-3.65753e-07
-3.68265e-07
-3.71888e-07
-3.71888e-07
-3.71888e-07
-3.71888e-07
-3.67149e-07
-3.67181e-07
-3.65221e-07
-3.65559e-07
-3.67415e-07
-3.67138e-07
-3.66959e-07
-3.66966e-07
-3.67031e-07
-3.67189e-07
-3.65256e-07
-3.65195e-07
-3.6546e-07
-3.6729e-07
-3.65119e-07
-3.65221e-07
-3.84895e-07
-3.8506e-07
-3.85273e-07
-3.87542e-07
-3.87611e-07
-3.87766e-07
-3.87514e-07
-3.85213e-07
-3.85001e-07
-3.85269e-07
-3.88426e-07
-3.91354e-07
-3.91354e-07
-3.91354e-07
-3.91354e-07
-3.87733e-07
-3.86905e-07
-3.87543e-07
-3.91354e-07
-3.91354e-07
-3.91354e-07
-3.91354e-07
-3.91354e-07
-3.91354e-07
-3.86604e-07
-3.84659e-07
-3.84889e-07
-3.87611e-07
-3.91354e-07
-3.91354e-07
-3.91354e-07
-3.91355e-07
-3.91354e-07
-3.91354e-07
-3.86423e-07
-3.84924e-07
-3.8506e-07
-3.87768e-07
-3.91354e-07
-3.91354e-07
-3.91354e-07
-3.91355e-07
-3.91354e-07
-3.91354e-07
-3.86429e-07
-3.86754e-07
-3.87516e-07
-3.91354e-07
-3.91354e-07
-3.91354e-07
-3.91354e-07
-3.91354e-07
-3.91354e-07
-3.86493e-07
-3.8458e-07
-3.85215e-07
-3.87729e-07
-3.91354e-07
-3.91354e-07
-3.91354e-07
-3.91354e-07
-3.86614e-07
-3.86645e-07
-3.84683e-07
-3.85021e-07
-3.86878e-07
-3.86601e-07
-3.86423e-07
-3.86429e-07
-3.86494e-07
-3.86652e-07
-3.84718e-07
-3.84657e-07
-3.84923e-07
-3.86753e-07
-3.84581e-07
-3.84683e-07
-4.04365e-07
-4.0453e-07
-4.04743e-07
-4.07014e-07
-4.07082e-07
-4.07238e-07
-4.06986e-07
-4.04683e-07
-4.0447e-07
-4.04739e-07
-4.07898e-07
-4.10827e-07
-4.10827e-07
-4.10827e-07
-4.10827e-07
-4.07205e-07
-4.06377e-07
-4.07015e-07
-4.10827e-07
-4.10828e-07
-4.10828e-07
-4.10828e-07
-4.10828e-07
-4.10827e-07
-4.06076e-07
-4.04129e-07
-4.04359e-07
-4.07083e-07
-4.10827e-07
-4.10828e-07
-4.10828e-07
-4.10828e-07
-4.10828e-07
-4.10827e-07
-4.05895e-07
-4.04395e-07
-4.0453e-07
-4.07239e-07
-4.10827e-07
-4.10828e-07
-4.10828e-07
-4.10828e-07
-4.10828e-07
-4.10827e-07
-4.05901e-07
-4.06225e-07
-4.06988e-07
-4.10827e-07
-4.10828e-07
-4.10828e-07
-4.10828e-07
-4.10828e-07
-4.10827e-07
-4.05965e-07
-4.04051e-07
-4.04686e-07
-4.07201e-07
-4.10827e-07
-4.10827e-07
-4.10827e-07
-4.10827e-07
-4.06086e-07
-4.06116e-07
-4.04153e-07
-4.04492e-07
-4.0635e-07
-4.06073e-07
-4.05895e-07
-4.05901e-07
-4.05966e-07
-4.06123e-07
-4.04189e-07
-4.04128e-07
-4.04393e-07
-4.06224e-07
-4.04052e-07
-4.04153e-07
-4.23844e-07
-4.24009e-07
-4.24224e-07
-4.26493e-07
-4.26562e-07
-4.26717e-07
-4.26465e-07
-4.24161e-07
-4.23949e-07
-4.24221e-07
-4.27377e-07
-4.30306e-07
-4.30306e-07
-4.30306e-07
-4.30307e-07
-4.26684e-07
-4.25856e-07
-4.26494e-07
-4.30306e-07
-4.30306e-07
-4.30306e-07
-4.30306e-07
-4.30306e-07
-4.30307e-07
-4.25555e-07
-4.23608e-07
-4.23838e-07
-4.26562e-07
-4.30306e-07
-4.30306e-07
-4.30306e-07
-4.30306e-07
-4.30306e-07
-4.30306e-07
-4.25374e-07
-4.23874e-07
-4.24009e-07
-4.26719e-07
-4.30306e-07
-4.30306e-07
-4.30306e-07
-4.30306e-07
-4.30306e-07
-4.30306e-07
-4.2538e-07
-4.25705e-07
-4.26467e-07
-4.30306e-07
-4.30306e-07
-4.30306e-07
-4.30306e-07
-4.30306e-07
-4.30306e-07
-4.25444e-07
-4.2353e-07
-4.24165e-07
-4.2668e-07
-4.30306e-07
-4.30306e-07
-4.30306e-07
-4.30306e-07
-4.25565e-07
-4.25596e-07
-4.23632e-07
-4.23971e-07
-4.25829e-07
-4.25552e-07
-4.25374e-07
-4.2538e-07
-4.25445e-07
-4.25603e-07
-4.23668e-07
-4.23607e-07
-4.23872e-07
-4.25704e-07
-4.23531e-07
-4.23632e-07
-4.43326e-07
-4.4349e-07
-4.43704e-07
-4.45974e-07
-4.46042e-07
-4.46197e-07
-4.45945e-07
-4.43642e-07
-4.4343e-07
-4.437e-07
-4.46857e-07
-4.49784e-07
-4.49784e-07
-4.49784e-07
-4.49784e-07
-4.46164e-07
-4.45337e-07
-4.45975e-07
-4.49784e-07
-4.49784e-07
-4.49784e-07
-4.49784e-07
-4.49784e-07
-4.49784e-07
-4.45035e-07
-4.4309e-07
-4.4332e-07
-4.46042e-07
-4.49784e-07
-4.49784e-07
-4.49784e-07
-4.49784e-07
-4.49784e-07
-4.49784e-07
-4.44854e-07
-4.43355e-07
-4.43491e-07
-4.46199e-07
-4.49784e-07
-4.49784e-07
-4.49784e-07
-4.49784e-07
-4.49784e-07
-4.49784e-07
-4.4486e-07
-4.45185e-07
-4.45947e-07
-4.49784e-07
-4.49784e-07
-4.49784e-07
-4.49784e-07
-4.49784e-07
-4.49784e-07
-4.44924e-07
-4.43011e-07
-4.43646e-07
-4.46159e-07
-4.49784e-07
-4.49784e-07
-4.49784e-07
-4.49784e-07
-4.45044e-07
-4.45076e-07
-4.43113e-07
-4.43452e-07
-4.4531e-07
-4.45032e-07
-4.44854e-07
-4.4486e-07
-4.44925e-07
-4.45083e-07
-4.43149e-07
-4.43088e-07
-4.43353e-07
-4.45184e-07
-4.43012e-07
-4.43114e-07
-4.62797e-07
-4.62961e-07
-4.63174e-07
-4.65444e-07
-4.65512e-07
-4.65667e-07
-4.65415e-07
-4.63113e-07
-4.62902e-07
-4.63171e-07
-4.66327e-07
-4.69253e-07
-4.69253e-07
-4.69253e-07
-4.69253e-07
-4.65634e-07
-4.64807e-07
-4.65445e-07
-4.69253e-07
-4.69253e-07
-4.69253e-07
-4.69253e-07
-4.69253e-07
-4.69253e-07
-4.64505e-07
-4.62561e-07
-4.62791e-07
-4.65512e-07
-4.69253e-07
-4.69253e-07
-4.69253e-07
-4.69253e-07
-4.69253e-07
-4.69253e-07
-4.64324e-07
-4.62826e-07
-4.62962e-07
-4.65669e-07
-4.69253e-07
-4.69253e-07
-4.69253e-07
-4.69253e-07
-4.69253e-07
-4.69253e-07
-4.6433e-07
-4.64655e-07
-4.65417e-07
-4.69253e-07
-4.69253e-07
-4.69253e-07
-4.69253e-07
-4.69253e-07
-4.69253e-07
-4.64394e-07
-4.62482e-07
-4.63117e-07
-4.65629e-07
-4.69253e-07
-4.69253e-07
-4.69253e-07
-4.69253e-07
-4.64514e-07
-4.64546e-07
-4.62585e-07
-4.62924e-07
-4.6478e-07
-4.64502e-07
-4.64324e-07
-4.6433e-07
-4.64395e-07
-4.64553e-07
-4.62619e-07
-4.62559e-07
-4.62824e-07
-4.64655e-07
-4.62483e-07
-4.62585e-07
-4.82261e-07
-4.82425e-07
-4.82638e-07
-4.84908e-07
-4.84977e-07
-4.85133e-07
-4.8488e-07
-4.82577e-07
-4.82366e-07
-4.82635e-07
-4.85793e-07
-4.88721e-07
-4.88721e-07
-4.88721e-07
-4.88721e-07
-4.85099e-07
-4.84272e-07
-4.8491e-07
-4.88721e-07
-4.88722e-07
-4.88722e-07
-4.88722e-07
-4.88722e-07
-4.88721e-07
-4.83971e-07
-4.82025e-07
-4.82255e-07
-4.84978e-07
-4.88721e-07
-4.88722e-07
-4.88722e-07
-4.88722e-07
-4.88722e-07
-4.88721e-07
-4.83789e-07
-4.82291e-07
-4.82425e-07
-4.85134e-07
-4.88721e-07
-4.88722e-07
-4.88722e-07
-4.88722e-07
-4.88722e-07
-4.88721e-07
-4.83795e-07
-4.8412e-07
-4.84882e-07
-4.88721e-07
-4.88722e-07
-4.88722e-07
-4.88722e-07
-4.88722e-07
-4.88721e-07
-4.8386e-07
-4.81946e-07
-4.82581e-07
-4.85095e-07
-4.88721e-07
-4.88721e-07
-4.88721e-07
-4.88721e-07
-4.8398e-07
-4.84011e-07
-4.82048e-07
-4.82388e-07
-4.84244e-07
-4.83968e-07
-4.8379e-07
-4.83796e-07
-4.83861e-07
-4.84018e-07
-4.82084e-07
-4.82023e-07
-4.82289e-07
-4.84119e-07
-4.81948e-07
-4.82049e-07
-5.01733e-07
-5.01898e-07
-5.02112e-07
-5.04383e-07
-5.04453e-07
-5.04608e-07
-5.04356e-07
-5.0205e-07
-5.01839e-07
-5.02108e-07
-5.05268e-07
-5.082e-07
-5.082e-07
-5.082e-07
-5.082e-07
-5.04576e-07
-5.03747e-07
-5.04385e-07
-5.082e-07
-5.08201e-07
-5.08201e-07
-5.08201e-07
-5.08201e-07
-5.082e-07
-5.03446e-07
-5.01498e-07
-5.01728e-07
-5.04453e-07
-5.082e-07
-5.08201e-07
-5.08201e-07
-5.08201e-07
-5.08201e-07
-5.082e-07
-5.03266e-07
-5.01764e-07
-5.01899e-07
-5.0461e-07
-5.082e-07
-5.08201e-07
-5.08201e-07
-5.08201e-07
-5.08201e-07
-5.082e-07
-5.03272e-07
-5.03595e-07
-5.04358e-07
-5.082e-07
-5.08201e-07
-5.08201e-07
-5.08201e-07
-5.08201e-07
-5.082e-07
-5.03336e-07
-5.01419e-07
-5.02055e-07
-5.04572e-07
-5.082e-07
-5.082e-07
-5.082e-07
-5.082e-07
-5.03457e-07
-5.03486e-07
-5.01521e-07
-5.01861e-07
-5.0372e-07
-5.03444e-07
-5.03266e-07
-5.03272e-07
-5.03337e-07
-5.03493e-07
-5.01557e-07
-5.01496e-07
-5.01762e-07
-5.03594e-07
-5.01421e-07
-5.01521e-07
-5.21228e-07
-5.21393e-07
-5.21605e-07
-5.23877e-07
-5.23946e-07
-5.24101e-07
-5.23849e-07
-5.21544e-07
-5.21333e-07
-5.21602e-07
-5.24761e-07
-5.27689e-07
-5.27689e-07
-5.27689e-07
-5.27689e-07
-5.24068e-07
-5.2324e-07
-5.23879e-07
-5.27689e-07
-5.27688e-07
-5.27688e-07
-5.27688e-07
-5.27688e-07
-5.27689e-07
-5.22939e-07
-5.20992e-07
-5.21222e-07
-5.23946e-07
-5.27689e-07
-5.27688e-07
-5.27688e-07
-5.27687e-07
-5.27688e-07
-5.27689e-07
-5.22757e-07
-5.21258e-07
-5.21393e-07
-5.24103e-07
-5.27689e-07
-5.27688e-07
-5.27688e-07
-5.27688e-07
-5.27688e-07
-5.27689e-07
-5.22763e-07
-5.23089e-07
-5.23851e-07
-5.27689e-07
-5.27688e-07
-5.27688e-07
-5.27688e-07
-5.27688e-07
-5.27689e-07
-5.22828e-07
-5.20913e-07
-5.21549e-07
-5.24063e-07
-5.27689e-07
-5.27689e-07
-5.27689e-07
-5.27689e-07
-5.22948e-07
-5.22979e-07
-5.21016e-07
-5.21355e-07
-5.23213e-07
-5.22936e-07
-5.22757e-07
-5.22764e-07
-5.22829e-07
-5.22987e-07
-5.21051e-07
-5.20991e-07
-5.21256e-07
-5.23088e-07
-5.20915e-07
-5.21016e-07
-5.40707e-07
-5.40871e-07
-5.41084e-07
-5.43351e-07
-5.4342e-07
-5.43575e-07
-5.43323e-07
-5.41022e-07
-5.40811e-07
-5.41081e-07
-5.44235e-07
-5.47157e-07
-5.47157e-07
-5.47157e-07
-5.47157e-07
-5.4354e-07
-5.42715e-07
-5.43353e-07
-5.47157e-07
-5.47157e-07
-5.47157e-07
-5.47157e-07
-5.47157e-07
-5.47157e-07
-5.42412e-07
-5.40471e-07
-5.40702e-07
-5.4342e-07
-5.47157e-07
-5.47157e-07
-5.47157e-07
-5.47157e-07
-5.47157e-07
-5.47157e-07
-5.4223e-07
-5.40736e-07
-5.40871e-07
-5.43577e-07
-5.47157e-07
-5.47157e-07
-5.47157e-07
-5.47157e-07
-5.47157e-07
-5.47157e-07
-5.42236e-07
-5.42564e-07
-5.43325e-07
-5.47157e-07
-5.47157e-07
-5.47157e-07
-5.47157e-07
-5.47157e-07
-5.47157e-07
-5.42301e-07
-5.40392e-07
-5.41027e-07
-5.43536e-07
-5.47157e-07
-5.47157e-07
-5.47157e-07
-5.47157e-07
-5.4242e-07
-5.42453e-07
-5.40495e-07
-5.40834e-07
-5.42687e-07
-5.42409e-07
-5.4223e-07
-5.42236e-07
-5.42302e-07
-5.42461e-07
-5.40529e-07
-5.40469e-07
-5.40734e-07
-5.42563e-07
-5.40393e-07
-5.40495e-07
-5.60154e-07
-5.60318e-07
-5.60532e-07
-5.62801e-07
-5.62871e-07
-5.63027e-07
-5.62774e-07
-5.6047e-07
-5.60259e-07
-5.60529e-07
-5.63686e-07
-5.66616e-07
-5.66617e-07
-5.66617e-07
-5.66616e-07
-5.62994e-07
-5.62165e-07
-5.62803e-07
-5.66616e-07
-5.66617e-07
-5.66617e-07
-5.66617e-07
-5.66617e-07
-5.66616e-07
-5.61864e-07
-5.59918e-07
-5.60148e-07
-5.62871e-07
-5.66617e-07
-5.66618e-07
-5.66618e-07
-5.66618e-07
-5.66617e-07
-5.66617e-07
-5.61683e-07
-5.60183e-07
-5.60319e-07
-5.63028e-07
-5.66617e-07
-5.66617e-07
-5.66618e-07
-5.66618e-07
-5.66617e-07
-5.66616e-07
-5.61689e-07
-5.62012e-07
-5.62776e-07
-5.66616e-07
-5.66617e-07
-5.66617e-07
-5.66617e-07
-5.66617e-07
-5.66616e-07
-5.61753e-07
-5.59838e-07
-5.60474e-07
-5.62989e-07
-5.66616e-07
-5.66616e-07
-5.66616e-07
-5.66616e-07
-5.61874e-07
-5.61904e-07
-5.59941e-07
-5.60282e-07
-5.62137e-07
-5.61861e-07
-5.61683e-07
-5.61689e-07
-5.61754e-07
-5.61911e-07
-5.59976e-07
-5.59916e-07
-5.60181e-07
-5.62012e-07
-5.5984e-07
-5.59941e-07
-5.79634e-07
-5.79799e-07
-5.80012e-07
-5.82284e-07
-5.82353e-07
-5.82508e-07
-5.82256e-07
-5.7995e-07
-5.79739e-07
-5.80009e-07
-5.83168e-07
-5.86098e-07
-5.86098e-07
-5.86099e-07
-5.86099e-07
-5.82476e-07
-5.81647e-07
-5.82285e-07
-5.86098e-07
-5.86098e-07
-5.86098e-07
-5.86098e-07
-5.86099e-07
-5.86099e-07
-5.81347e-07
-5.79398e-07
-5.79628e-07
-5.82353e-07
-5.86098e-07
-5.86098e-07