/*--------------------------------*- C++ -*----------------------------------*\
| =========                 |                                                 |
| \\      /  F ield         | OpenFOAM: The Open Source CFD Toolbox           |
|  \\    /   O peration     | Version:  v1912                                 |
|   \\  /    A nd           | Website:  www.openfoam.com                      |
|    \\/     M anipulation  |                                                 |
\*---------------------------------------------------------------------------*/
FoamFile
{
    version     2.0;
    format      ascii;
    class       volScalarField;
    location    "1.7";
    object      nut;
}
// * * * * * * * * * * * * * * * * * * * * * * * * * * * * * * * * * * * * * //

dimensions      [0 2 -1 0 0 0 0];


internalField   nonuniform List<scalar> 
171728
(
1.36796e-06
1.38097e-06
1.38163e-06
5.78133e-07
9.28098e-08
1.06237e-07
1.06416e-07
1.13976e-07
7.27297e-09
8.5033e-09
8.50875e-09
1.11076e-07
2.25568e-09
4.61724e-09
4.58934e-09
1.11268e-07
2.38645e-09
4.3399e-09
4.34365e-09
1.11272e-07
2.38849e-09
4.33045e-09
4.33586e-09
1.11273e-07
2.37922e-09
4.33596e-09
4.32757e-09
1.11272e-07
2.39463e-09
4.34325e-09
4.33857e-09
1.11271e-07
2.39464e-09
4.33829e-09
4.32963e-09
1.11275e-07
2.39271e-09
4.33849e-09
4.33156e-09
1.11273e-07
2.38772e-09
4.33746e-09
4.3348e-09
1.11274e-07
2.39597e-09
4.3356e-09
4.33459e-09
1.11273e-07
2.39799e-09
4.36931e-09
4.3372e-09
1.11273e-07
2.4033e-09
4.36331e-09
4.33132e-09
1.11273e-07
2.38482e-09
4.32571e-09
4.33662e-09
1.11273e-07
2.38688e-09
4.32389e-09
4.33215e-09
1.11274e-07
2.39654e-09
4.34069e-09
4.3347e-09
1.11275e-07
2.38979e-09
4.32843e-09
4.33308e-09
1.11274e-07
2.39909e-09
4.3155e-09
4.33538e-09
1.11272e-07
2.38292e-09
4.35553e-09
4.33132e-09
1.11264e-07
2.50345e-09
4.33145e-09
4.334e-09
1.11276e-07
2.38803e-09
4.33992e-09
4.33347e-09
1.11276e-07
2.3936e-09
4.33833e-09
4.3342e-09
1.11276e-07
2.39206e-09
4.33962e-09
4.33604e-09
1.11276e-07
2.39441e-09
4.33644e-09
4.33313e-09
1.11277e-07
2.39133e-09
4.3373e-09
4.33318e-09
1.11276e-07
2.39451e-09
4.34031e-09
4.33644e-09
1.11277e-07
2.3929e-09
4.33823e-09
4.33434e-09
1.11277e-07
2.39256e-09
4.33688e-09
4.33301e-09
1.11276e-07
2.3936e-09
4.33934e-09
4.33562e-09
1.11275e-07
2.3933e-09
4.33911e-09
4.33459e-09
1.11276e-07
2.39366e-09
4.33689e-09
4.33385e-09
1.11277e-07
2.39325e-09
4.34023e-09
4.33454e-09
1.11277e-07
2.39229e-09
4.33979e-09
4.33435e-09
1.11276e-07
2.3942e-09
4.34092e-09
4.33516e-09
1.11277e-07
2.39279e-09
4.33714e-09
4.33212e-09
1.11276e-07
2.39426e-09
4.33975e-09
4.33476e-09
1.11276e-07
2.39355e-09
4.3394e-09
4.33441e-09
1.11277e-07
2.39363e-09
4.34118e-09
4.34137e-09
1.11277e-07
2.41082e-09
4.34676e-09
4.33982e-09
1.11262e-07
2.55646e-09
4.32512e-09
4.33514e-09
1.11275e-07
2.3917e-09
4.32552e-09
4.33063e-09
1.11276e-07
2.39413e-09
4.33774e-09
4.32886e-09
1.11278e-07
2.3949e-09
4.33491e-09
4.32849e-09
1.11277e-07
2.39757e-09
4.33614e-09
4.33337e-09
1.11277e-07
2.39608e-09
4.33407e-09
4.32862e-09
1.11277e-07
2.39441e-09
4.33327e-09
4.33199e-09
1.11279e-07
2.3962e-09
4.33589e-09
4.33747e-09
1.11278e-07
2.39578e-09
4.33665e-09
4.33847e-09
1.11277e-07
2.39608e-09
4.33497e-09
4.33679e-09
1.11277e-07
2.39422e-09
4.33301e-09
4.33513e-09
1.11277e-07
2.39636e-09
4.335e-09
4.33589e-09
1.11277e-07
2.39663e-09
4.33571e-09
4.33664e-09
1.11277e-07
2.39797e-09
4.34448e-09
4.33665e-09
1.11277e-07
2.399e-09
4.33993e-09
4.33687e-09
1.11276e-07
2.39359e-09
4.3345e-09
4.33759e-09
1.11272e-07
2.39067e-09
4.34025e-09
4.33858e-09
1.11262e-07
2.39079e-09
4.33926e-09
4.33699e-09
1.11262e-07
2.39128e-09
4.34173e-09
4.3396e-09
1.11261e-07
2.39247e-09
4.34007e-09
4.33689e-09
1.11262e-07
2.39226e-09
4.34198e-09
4.34005e-09
1.11261e-07
2.39063e-09
4.33958e-09
4.33711e-09
1.11262e-07
2.3905e-09
4.34184e-09
4.33946e-09
1.1126e-07
2.39197e-09
4.34145e-09
4.33944e-09
1.11261e-07
2.39126e-09
4.3414e-09
4.33923e-09
1.11261e-07
2.39087e-09
4.34047e-09
4.33823e-09
1.11261e-07
2.39102e-09
4.33965e-09
4.33742e-09
1.1126e-07
2.39105e-09
4.34055e-09
4.33883e-09
1.11261e-07
2.38656e-09
4.33919e-09
4.33793e-09
1.11262e-07
2.38385e-09
4.33994e-09
4.31984e-09
1.11263e-07
2.38823e-09
4.34429e-09
4.33757e-09
1.11259e-07
2.39213e-09
4.34077e-09
4.33864e-09
1.11261e-07
2.39037e-09
4.33962e-09
4.33701e-09
1.11261e-07
2.39014e-09
4.34071e-09
4.3381e-09
1.11259e-07
2.39291e-09
4.34139e-09
4.33883e-09
1.11259e-07
2.3896e-09
4.34027e-09
4.33777e-09
1.1126e-07
2.39073e-09
4.34043e-09
4.33775e-09
1.1126e-07
2.39201e-09
4.34088e-09
4.33837e-09
1.1126e-07
2.39155e-09
4.33966e-09
4.33734e-09
1.1126e-07
2.39075e-09
4.34148e-09
4.33925e-09
1.11261e-07
2.39023e-09
4.33988e-09
4.33773e-09
1.11259e-07
2.39126e-09
4.34088e-09
4.33858e-09
1.1126e-07
2.3919e-09
4.34159e-09
4.33932e-09
1.1126e-07
2.39361e-09
4.34052e-09
4.33835e-09
1.1126e-07
2.39387e-09
4.34107e-09
4.33881e-09
1.1126e-07
2.39445e-09
4.34033e-09
4.33851e-09
1.11259e-07
2.39417e-09
4.34291e-09
4.34099e-09
1.1126e-07
2.39177e-09
4.33879e-09
4.3371e-09
1.11259e-07
2.39328e-09
4.33941e-09
4.33666e-09
1.11259e-07
2.39475e-09
4.34177e-09
4.33918e-09
1.1126e-07
2.3964e-09
4.33737e-09
4.33287e-09
1.11263e-07
2.45943e-09
4.35772e-09
4.36194e-09
1.11261e-07
4.92374e-09
5.28016e-09
5.33238e-09
1.11152e-07
5.45302e-08
4.84692e-08
4.84342e-08
1.09598e-07
5.40914e-07
2.4228e-07
2.42307e-07
5.67914e-07
4.91309e-07
8.04984e-07
8.05293e-07
4.91422e-07
8.05062e-07
8.05046e-07
2.26861e-06
2.26865e-06
2.26863e-06
2.26866e-06
8.04921e-07
8.04793e-07
4.91143e-07
8.0473e-07
8.05073e-07
4.91052e-07
5.78206e-07
2.91009e-07
1.3816e-06
1.38165e-06
2.34299e-07
2.34304e-07
5.78172e-07
2.90959e-07
1.38153e-06
1.38218e-06
2.3448e-07
2.34379e-07
1.38183e-06
2.34346e-07
2.34206e-07
5.78116e-07
2.9103e-07
1.38185e-06
2.34345e-07
2.34359e-07
2.91044e-07
1.14027e-07
2.82235e-07
1.0632e-07
1.06343e-07
1.34664e-08
1.35585e-08
1.1402e-07
2.82295e-07
1.0634e-07
1.06313e-07
1.34166e-08
1.34705e-08
1.06281e-07
1.33539e-08
1.34547e-08
1.14055e-07
2.82244e-07
1.06454e-07
1.34337e-08
1.33745e-08
2.82235e-07
1.1099e-07
2.81552e-07
8.55711e-09
8.54837e-09
4.89806e-09
4.88917e-09
1.10999e-07
2.81565e-07
8.56921e-09
8.55715e-09
4.85945e-09
4.90004e-09
8.56708e-09
4.86675e-09
4.91635e-09
1.11054e-07
2.81584e-07
8.57111e-09
4.82928e-09
4.81404e-09
2.81541e-07
1.11252e-07
2.81519e-07
4.63915e-09
4.67658e-09
4.40154e-09
4.41169e-09
1.11225e-07
2.81521e-07
4.57647e-09
4.63758e-09
4.34916e-09
4.40927e-09
4.65543e-09
4.34833e-09
4.39566e-09
1.11275e-07
2.8155e-07
4.59232e-09
4.33174e-09
4.338e-09
2.81494e-07
1.11251e-07
2.81513e-07
4.39941e-09
4.4053e-09
4.38947e-09
4.40489e-09
1.11231e-07
2.81512e-07
4.33311e-09
4.40057e-09
4.3513e-09
4.39344e-09
4.38467e-09
4.32917e-09
4.3782e-09
1.11271e-07
2.81542e-07
4.32967e-09
4.31597e-09
4.32125e-09
2.81487e-07
1.11251e-07
2.81522e-07
4.39584e-09
4.41377e-09
4.3703e-09
4.42938e-09
1.11234e-07
2.81524e-07
4.31839e-09
4.39243e-09
4.34031e-09
4.38509e-09
4.37704e-09
4.34013e-09
4.36953e-09
1.11272e-07
2.81555e-07
4.32219e-09
4.30738e-09
4.3128e-09
2.81499e-07
1.11255e-07
2.81521e-07
4.34695e-09
4.42008e-09
4.40781e-09
4.4108e-09
1.11228e-07
2.81521e-07
4.30565e-09
4.38501e-09
4.34568e-09
4.38921e-09
4.36853e-09
4.34082e-09
4.37511e-09
1.11272e-07
2.8155e-07
4.31401e-09
4.31278e-09
4.31836e-09
2.81492e-07
1.11256e-07
2.81518e-07
4.3976e-09
4.41583e-09
4.39333e-09
4.41334e-09
1.11224e-07
2.81516e-07
4.32468e-09
4.39388e-09
4.3532e-09
4.39169e-09
4.37831e-09
4.34158e-09
4.37713e-09
1.1127e-07
2.81545e-07
4.32437e-09
4.31576e-09
4.32068e-09
2.81487e-07
1.11236e-07
2.81524e-07
4.39059e-09
4.41096e-09
4.3628e-09
4.39541e-09
1.11227e-07
2.81539e-07
4.31912e-09
4.39068e-09
4.33198e-09
4.38673e-09
4.37412e-09
4.33443e-09
4.37084e-09
1.11274e-07
2.81556e-07
4.31763e-09
4.30783e-09
4.3141e-09
2.815e-07
1.11245e-07
2.81512e-07
4.37655e-09
4.37014e-09
4.39551e-09
4.34615e-09
1.1122e-07
2.81522e-07
4.32417e-09
4.38956e-09
4.32453e-09
4.39098e-09
4.37157e-09
4.33862e-09
4.37536e-09
1.11272e-07
2.81549e-07
4.31758e-09
4.31343e-09
4.31927e-09
2.81491e-07
1.11259e-07
2.81521e-07
4.44351e-09
4.37426e-09
4.39288e-09
4.35222e-09
1.11227e-07
2.81523e-07
4.32948e-09
4.39048e-09
4.33765e-09
4.3895e-09
4.37296e-09
4.33753e-09
4.37315e-09
1.11272e-07
2.81552e-07
4.31935e-09
4.312e-09
4.31579e-09
2.81496e-07
1.11244e-07
2.81512e-07
4.39295e-09
4.34556e-09
4.39181e-09
4.33804e-09
1.11228e-07
2.81549e-07
4.33343e-09
4.39022e-09
4.33108e-09
4.38939e-09
4.37402e-09
4.35542e-09
4.38102e-09
1.11273e-07
2.81548e-07
4.3175e-09
4.3148e-09
4.31554e-09
2.81493e-07
1.11247e-07
2.8151e-07
4.39503e-09
4.35763e-09
4.37831e-09
4.40865e-09
1.1122e-07
2.81547e-07
4.32897e-09
4.3907e-09
4.31924e-09
4.38476e-09
4.38178e-09
4.35642e-09
4.37682e-09
1.11274e-07
2.81553e-07
4.31908e-09
4.30994e-09
4.31401e-09
2.81502e-07
1.1125e-07
2.81509e-07
4.38144e-09
4.41638e-09
4.3985e-09
4.40416e-09
1.11227e-07
2.81528e-07
4.31833e-09
4.38567e-09
4.31425e-09
4.39062e-09
4.37488e-09
4.33234e-09
4.37764e-09
1.11274e-07
2.8155e-07
4.31647e-09
4.31315e-09
4.32057e-09
2.81492e-07
1.11247e-07
2.81518e-07
4.41169e-09
4.39475e-09
4.39234e-09
4.4547e-09
1.11236e-07
2.8151e-07
4.33846e-09
4.39299e-09
4.33713e-09
4.3871e-09
4.37839e-09
4.32902e-09
4.37237e-09
1.11272e-07
2.81556e-07
4.32363e-09
4.30998e-09
4.3158e-09
2.815e-07
1.11244e-07
2.81507e-07
4.39296e-09
4.42354e-09
4.40058e-09
4.41272e-09
1.11254e-07
2.81499e-07
4.33593e-09
4.38848e-09
4.3386e-09
4.39119e-09
4.37068e-09
4.33587e-09
4.37773e-09
1.11273e-07
2.8155e-07
4.31677e-09
4.31322e-09
4.32039e-09
2.81492e-07
1.11247e-07
2.81516e-07
4.38257e-09
4.41095e-09
4.39578e-09
4.39338e-09
1.11248e-07
2.81546e-07
4.33866e-09
4.39149e-09
4.33466e-09
4.38647e-09
4.37546e-09
4.33533e-09
4.37334e-09
1.11274e-07
2.81558e-07
4.32059e-09
4.30886e-09
4.31575e-09
2.81499e-07
1.11243e-07
2.81528e-07
4.37662e-09
4.38346e-09
4.37315e-09
4.37551e-09
1.1126e-07
2.81544e-07
4.33494e-09
4.39051e-09
4.32992e-09
4.39133e-09
4.37556e-09
4.31091e-09
4.37336e-09
1.11273e-07
2.81554e-07
4.32004e-09
4.31291e-09
4.31343e-09
2.81501e-07
1.11245e-07
2.81506e-07
4.3724e-09
4.40654e-09
4.42687e-09
4.49459e-09
1.11291e-07
2.8158e-07
4.3278e-09
4.39195e-09
4.34113e-09
4.3855e-09
4.37219e-09
4.3579e-09
4.38858e-09
1.11274e-07
2.81554e-07
4.31091e-09
4.31135e-09
4.30574e-09
2.81512e-07
1.11282e-07
2.81576e-07
4.4073e-09
4.43318e-09
4.36376e-09
4.46524e-09
1.1123e-07
2.81548e-07
4.34945e-09
4.38609e-09
4.17543e-09
4.3908e-09
4.40168e-09
4.32543e-09
4.37699e-09
1.11276e-07
2.81559e-07
4.32444e-09
4.30812e-09
4.31664e-09
2.81503e-07
1.11237e-07
2.81537e-07
4.44241e-09
4.45405e-09
4.41185e-09
4.40726e-09
1.11234e-07
2.81532e-07
4.25202e-09
4.38809e-09
4.3494e-09
4.38756e-09
4.37468e-09
4.34463e-09
4.37343e-09
1.11274e-07
2.81558e-07
4.31714e-09
4.31138e-09
4.3177e-09
2.81502e-07
1.11265e-07
2.81536e-07
4.40387e-09
4.41101e-09
4.39269e-09
4.41334e-09
1.11243e-07
2.81532e-07
4.33446e-09
4.38885e-09
4.3389e-09
4.38909e-09
4.37349e-09
4.33931e-09
4.37475e-09
1.11275e-07
2.81558e-07
4.31926e-09
4.31181e-09
4.31789e-09
2.815e-07
1.11264e-07
2.81532e-07
4.39751e-09
4.41507e-09
4.39102e-09
4.41502e-09
1.11243e-07
2.81529e-07
4.33547e-09
4.39017e-09
4.3385e-09
4.39064e-09
4.37491e-09
4.34127e-09
4.37533e-09
1.11275e-07
2.81554e-07
4.32067e-09
4.31406e-09
4.32603e-09
2.81498e-07
1.11265e-07
2.81535e-07
4.39636e-09
4.41552e-09
4.38751e-09
4.41204e-09
1.11244e-07
2.81532e-07
4.33366e-09
4.39057e-09
4.33503e-09
4.38761e-09
4.37605e-09
4.33778e-09
4.37293e-09
1.11275e-07
2.81558e-07
4.32942e-09
4.31083e-09
4.32145e-09
2.81501e-07
1.11264e-07
2.81539e-07
4.39743e-09
4.41426e-09
4.38698e-09
4.41205e-09
1.11243e-07
2.81532e-07
4.33477e-09
4.38927e-09
4.33449e-09
4.38786e-09
4.37177e-09
4.33946e-09
4.37484e-09
1.11275e-07
2.81558e-07
4.32364e-09
4.31139e-09
4.32076e-09
2.81499e-07
1.11265e-07
2.81531e-07
4.39321e-09
4.41235e-09
4.39182e-09
4.416e-09
1.11243e-07
2.81528e-07
4.33057e-09
4.38756e-09
4.3393e-09
4.39165e-09
4.37473e-09
4.34133e-09
4.37548e-09
1.11275e-07
2.81554e-07
4.32397e-09
4.3139e-09
4.32287e-09
2.81498e-07
1.11265e-07
2.81536e-07
4.40004e-09
4.41731e-09
4.38704e-09
4.41206e-09
1.11243e-07
2.81531e-07
4.33735e-09
4.39244e-09
4.33454e-09
4.38773e-09
4.37424e-09
4.33917e-09
4.37564e-09
1.11275e-07
2.81557e-07
4.32408e-09
4.31181e-09
4.32306e-09
2.81497e-07
1.11265e-07
2.81536e-07
4.39559e-09
4.41435e-09
4.38852e-09
4.4128e-09
1.11244e-07
2.81532e-07
4.33293e-09
4.38947e-09
4.33603e-09
4.38846e-09
4.3754e-09
4.33847e-09
4.37299e-09
1.11275e-07
2.81558e-07
4.32524e-09
4.31111e-09
4.32045e-09
2.81502e-07
1.11265e-07
2.81535e-07
4.39546e-09
4.41312e-09
4.38861e-09
4.41333e-09
1.11244e-07
2.81531e-07
4.33283e-09
4.38824e-09
4.33608e-09
4.38898e-09
4.37384e-09
4.3393e-09
4.37385e-09
1.11276e-07
2.81557e-07
4.3237e-09
4.31198e-09
4.32126e-09
2.81501e-07
1.11264e-07
2.81535e-07
4.39716e-09
4.4158e-09
4.38987e-09
4.41384e-09
1.11243e-07
2.81532e-07
4.33452e-09
4.39058e-09
4.33694e-09
4.38952e-09
4.37616e-09
4.3397e-09
4.3745e-09
1.11275e-07
2.81557e-07
4.32594e-09
4.31249e-09
4.32199e-09
2.815e-07
1.11265e-07
2.81533e-07
4.39707e-09
4.39961e-09
4.38848e-09
4.41221e-09
1.11244e-07
2.81521e-07
4.33419e-09
4.38991e-09
4.33607e-09
4.38877e-09
4.3744e-09
4.34223e-09
4.37386e-09
1.11276e-07
2.81555e-07
4.32421e-09
4.31194e-09
4.3213e-09
2.81499e-07
1.11265e-07
2.81537e-07
4.39781e-09
4.42179e-09
4.38659e-09
4.42094e-09
1.11244e-07
2.81539e-07
4.33486e-09
4.38928e-09
4.33417e-09
4.38843e-09
4.37292e-09
4.34137e-09
4.37546e-09
1.11276e-07
2.81556e-07
4.32275e-09
4.31246e-09
4.32293e-09
2.81498e-07
1.11265e-07
2.81537e-07
4.39575e-09
4.42135e-09
4.38864e-09
4.41944e-09
1.1124e-07
2.81541e-07
4.33315e-09
4.38981e-09
4.33616e-09
4.38807e-09
4.37319e-09
4.33998e-09
4.37277e-09
1.11275e-07
2.81558e-07
4.32302e-09
4.3116e-09
4.32069e-09
2.81503e-07
1.11265e-07
2.81534e-07
4.39503e-09
4.42076e-09
4.38952e-09
4.42054e-09
1.11239e-07
2.81539e-07
4.33244e-09
4.38883e-09
4.33704e-09
4.39007e-09
4.37295e-09
4.3406e-09
4.37455e-09
1.11275e-07
2.81557e-07
4.32293e-09
4.30914e-09
4.31851e-09
2.81502e-07
1.11265e-07
2.81535e-07
4.39871e-09
4.42344e-09
4.38822e-09
4.41903e-09
1.1124e-07
2.81542e-07
4.33607e-09
4.39151e-09
4.33574e-09
4.3882e-09
4.3734e-09
4.33849e-09
4.37122e-09
1.11275e-07
2.81559e-07
4.32321e-09
4.30938e-09
4.31789e-09
2.81506e-07
1.11265e-07
2.81536e-07
4.39567e-09
4.41952e-09
4.38787e-09
4.42005e-09
1.1124e-07
2.8154e-07
4.33303e-09
4.38738e-09
4.3354e-09
4.38916e-09
4.37115e-09
4.34046e-09
4.37386e-09
1.11276e-07
2.81557e-07
4.32185e-09
4.31143e-09
4.32062e-09
2.81502e-07
1.11264e-07
2.81535e-07
4.39694e-09
4.422e-09
4.38897e-09
4.4206e-09
1.11239e-07
2.8154e-07
4.33431e-09
4.3898e-09
4.33645e-09
4.38971e-09
4.37257e-09
4.34107e-09
4.3764e-09
1.11275e-07
2.81557e-07
4.32333e-09
4.31207e-09
4.32317e-09
2.81498e-07
1.11265e-07
2.81536e-07
4.39627e-09
4.42073e-09
4.38831e-09
4.42031e-09
1.1124e-07
2.81538e-07
4.33363e-09
4.38848e-09
4.33572e-09
4.38915e-09
4.37442e-09
4.34189e-09
4.37629e-09
1.11276e-07
2.81556e-07
4.32523e-09
4.313e-09
4.32398e-09
2.81497e-07
1.11264e-07
2.81534e-07
4.39791e-09
4.42171e-09
4.39727e-09
4.41278e-09
1.1124e-07
2.81538e-07
4.3348e-09
4.38908e-09
4.33133e-09
4.38638e-09
4.37189e-09
4.34152e-09
4.34815e-09
1.11275e-07
2.81559e-07
4.32535e-09
4.30715e-09
4.30551e-09
2.81503e-07
1.11259e-07
2.81532e-07
4.38889e-09
4.41915e-09
4.33797e-09
4.41571e-09
1.11245e-07
2.81559e-07
4.31701e-09
4.38563e-09
4.30644e-09
4.39538e-09
4.34454e-09
4.33592e-09
4.41855e-09
1.11275e-07
2.8156e-07
4.23257e-09
4.31044e-09
4.30493e-09
2.81507e-07
1.11264e-07
2.81524e-07
4.36262e-09
4.37471e-09
4.3956e-09
4.41802e-09
1.11248e-07
2.81558e-07
4.21945e-09
4.39834e-09
4.35344e-09
4.39119e-09
4.39098e-09
4.33294e-09
4.37606e-09
1.11274e-07
2.81557e-07
4.34343e-09
4.31974e-09
4.32336e-09
2.81501e-07
1.11256e-07
2.81522e-07
4.38756e-09
4.40874e-09
4.38015e-09
4.42645e-09
1.11291e-07
2.81556e-07
4.31649e-09
4.39124e-09
4.34898e-09
4.38991e-09
4.37636e-09
4.34012e-09
4.37552e-09
1.11275e-07
2.81557e-07
4.32666e-09
4.31927e-09
4.32188e-09
2.81499e-07
1.11253e-07
2.81519e-07
4.38474e-09
4.41865e-09
4.38102e-09
4.41302e-09
1.11262e-07
2.81558e-07
4.31705e-09
4.39029e-09
4.35117e-09
4.39053e-09
4.37356e-09
4.33565e-09
4.37485e-09
1.11275e-07
2.81557e-07
4.32363e-09
4.31939e-09
4.32123e-09
2.81502e-07
1.11254e-07
2.8152e-07
4.3841e-09
4.4122e-09
4.38027e-09
4.41216e-09
1.1126e-07
2.81557e-07
4.31734e-09
4.39018e-09
4.34806e-09
4.39042e-09
4.37309e-09
4.3369e-09
4.37554e-09
1.11275e-07
2.81556e-07
4.32309e-09
4.31831e-09
4.32222e-09
2.815e-07
1.11253e-07
2.8152e-07
4.38505e-09
4.41274e-09
4.37966e-09
4.41206e-09
1.1126e-07
2.81557e-07
4.3169e-09
4.39129e-09
4.35126e-09
4.39027e-09
4.37516e-09
4.3357e-09
4.37524e-09
1.11275e-07
2.81557e-07
4.32551e-09
4.31996e-09
4.3243e-09
2.81499e-07
1.11253e-07
2.8152e-07
4.38438e-09
4.41093e-09
4.37963e-09
4.41133e-09
1.11261e-07
2.81557e-07
4.31794e-09
4.38982e-09
4.35141e-09
4.39029e-09
4.37438e-09
4.33594e-09
4.37498e-09
1.11275e-07
2.81557e-07
4.32271e-09
4.32063e-09
4.32332e-09
2.81502e-07
1.11254e-07
2.8152e-07
4.38341e-09
4.41016e-09
4.38037e-09
4.41226e-09
1.11261e-07
2.81558e-07
4.31649e-09
4.38946e-09
4.35174e-09
4.39111e-09
4.36998e-09
4.33573e-09
4.37488e-09
1.11276e-07
2.81558e-07
4.32591e-09
4.31179e-09
4.32177e-09
2.81503e-07
1.11253e-07
2.8152e-07
4.38596e-09
4.41249e-09
4.37978e-09
4.41215e-09
1.1126e-07
2.81557e-07
4.3194e-09
4.39139e-09
4.35106e-09
4.39068e-09
4.37329e-09
4.33582e-09
4.37607e-09
1.11275e-07
2.81557e-07
4.32246e-09
4.3125e-09
4.32371e-09
2.815e-07
1.11253e-07
2.81521e-07
4.38513e-09
4.41308e-09
4.37897e-09
4.41118e-09
1.1126e-07
2.81558e-07
4.31846e-09
4.39178e-09
4.35024e-09
4.38966e-09
4.37577e-09
4.3347e-09
4.37454e-09
1.11275e-07
2.81559e-07
4.32512e-09
4.31133e-09
4.32227e-09
2.81503e-07
1.11253e-07
2.81524e-07
4.38467e-09
4.41194e-09
4.3782e-09
4.41112e-09
1.1126e-07
2.81559e-07
4.31798e-09
4.39058e-09
4.3495e-09
4.38956e-09
4.37218e-09
4.3349e-09
4.37443e-09
1.11275e-07
2.8156e-07
4.32167e-09
4.31191e-09
4.3222e-09
2.81504e-07
1.11254e-07
2.8152e-07
4.38178e-09
4.41012e-09
4.38109e-09
4.41279e-09
1.1126e-07
2.81558e-07
4.31515e-09
4.38872e-09
4.35245e-09
4.39133e-09
4.37273e-09
4.33649e-09
4.37458e-09
1.11276e-07
2.81558e-07
4.32529e-09
4.31314e-09
4.32188e-09
2.81502e-07
1.11253e-07
2.8152e-07
4.38537e-09
4.4123e-09
4.37957e-09
4.41299e-09
1.1126e-07
2.81557e-07
4.31882e-09
4.39113e-09
4.3511e-09
4.39105e-09
4.37491e-09
4.33656e-09
4.37549e-09
1.11275e-07
2.81556e-07
4.32366e-09
4.31352e-09
4.32408e-09
2.81499e-07
1.11253e-07
2.8152e-07
4.38368e-09
4.41266e-09
4.37866e-09
4.41732e-09
1.1126e-07
2.81561e-07
4.31737e-09
4.39094e-09
4.34134e-09
4.38953e-09
4.37438e-09
4.33958e-09
4.3728e-09
1.11275e-07
2.81558e-07
4.32426e-09
4.31247e-09
4.32261e-09
2.81503e-07
1.11254e-07
2.81521e-07
4.38437e-09
4.42633e-09
4.37434e-09
4.40235e-09
1.11258e-07
2.8157e-07
4.3369e-09
4.39134e-09
4.3344e-09
4.38851e-09
4.37234e-09
4.3453e-09
4.37234e-09
1.11275e-07
2.8156e-07
4.32272e-09
4.31128e-09
4.32137e-09
2.81504e-07
1.11255e-07
2.81523e-07
4.38142e-09
4.36667e-09
4.37836e-09
4.40242e-09
1.11245e-07
2.8156e-07
4.33295e-09
4.39002e-09
4.335e-09
4.39088e-09
4.37493e-09
4.33323e-09
4.37198e-09
1.11275e-07
2.81557e-07
4.3238e-09
4.31489e-09
4.31387e-09
2.81504e-07
1.11254e-07
2.81521e-07
4.3838e-09
4.40435e-09
4.38038e-09
4.40756e-09
1.11258e-07
2.8156e-07
4.33186e-09
4.39248e-09
4.33276e-09
4.38533e-09
4.36601e-09
4.34159e-09
4.39698e-09
1.11275e-07
2.81552e-07
4.29969e-09
4.31713e-09
4.31493e-09
2.8151e-07
1.11254e-07
2.8152e-07
4.38394e-09
4.40729e-09
4.38142e-09
4.4091e-09
1.11258e-07
2.81561e-07
4.32866e-09
4.38503e-09
4.33309e-09
4.38419e-09
4.39791e-09
4.34241e-09
4.39912e-09
1.11277e-07
2.81551e-07
4.31184e-09
4.31667e-09
4.31674e-09
2.81513e-07
1.11255e-07
2.81518e-07
4.38523e-09
4.40722e-09
4.3814e-09
4.40897e-09
1.11258e-07
2.81561e-07
4.32955e-09
4.38359e-09
4.33298e-09
4.38385e-09
4.39694e-09
4.34201e-09
4.3968e-09
1.11279e-07
2.81551e-07
4.31091e-09
4.31623e-09
4.31445e-09
2.81517e-07
1.11254e-07
2.81518e-07
4.38629e-09
4.40929e-09
4.38134e-09
4.40837e-09
1.11257e-07
2.81562e-07
4.33056e-09
4.38551e-09
4.33292e-09
4.3833e-09
4.39831e-09
4.34044e-09
4.39467e-09
1.11277e-07
2.81553e-07
4.31237e-09
4.31394e-09
4.3128e-09
2.81521e-07
1.11254e-07
2.81516e-07
4.38641e-09
4.40844e-09
4.38168e-09
4.40882e-09
1.11258e-07
2.8156e-07
4.33069e-09
4.38476e-09
4.33326e-09
4.38385e-09
4.39507e-09
4.34138e-09
4.39592e-09
1.11278e-07
2.81551e-07
4.30908e-09
4.31477e-09
4.31154e-09
2.81518e-07
1.11254e-07
2.81518e-07
4.38812e-09
4.40957e-09
4.38098e-09
4.40924e-09
1.11257e-07
2.81559e-07
4.33234e-09
4.38588e-09
4.33254e-09
4.38425e-09
4.39808e-09
4.34179e-09
4.398e-09
1.11278e-07
2.8155e-07
4.31387e-09
4.3157e-09
4.31492e-09
2.81514e-07
1.11255e-07
2.8152e-07
4.3854e-09
4.40779e-09
4.38003e-09
4.40771e-09
1.11258e-07
2.81561e-07
4.3296e-09
4.38415e-09
4.33162e-09
4.3826e-09
4.39706e-09
4.34088e-09
4.39642e-09
1.11279e-07
2.81552e-07
4.31077e-09
4.315e-09
4.31383e-09
2.81516e-07
1.11254e-07
2.81519e-07
4.38559e-09
4.40891e-09
4.38071e-09
4.40748e-09
1.11257e-07
2.81562e-07
4.32983e-09
4.3852e-09
4.33229e-09
4.38246e-09
4.39998e-09
4.34115e-09
4.39691e-09
1.11277e-07
2.81553e-07
4.31373e-09
4.31524e-09
4.31356e-09
2.81517e-07
1.11254e-07
2.81519e-07
4.38703e-09
4.4089e-09
4.38049e-09
4.40883e-09
1.11257e-07
2.81559e-07
4.33126e-09
4.38517e-09
4.33193e-09
4.38373e-09
4.39859e-09
4.34197e-09
4.39857e-09
1.11277e-07
2.81549e-07
4.31371e-09
4.31632e-09
4.31746e-09
2.81511e-07
1.11254e-07
2.81523e-07
4.38611e-09
4.40901e-09
4.37808e-09
4.40689e-09
1.11258e-07
2.81563e-07
4.3308e-09
4.38535e-09
4.32637e-09
4.38168e-09
4.39948e-09
4.34053e-09
4.39512e-09
1.11278e-07
2.81554e-07
4.31472e-09
4.31475e-09
4.31398e-09
2.81519e-07
1.11254e-07
2.81519e-07
4.38375e-09
4.407e-09
4.38158e-09
4.40925e-09
1.11258e-07
2.81561e-07
4.32865e-09
4.38324e-09
4.32975e-09
4.38402e-09
4.39763e-09
4.342e-09
4.39553e-09
1.11278e-07
2.81552e-07
4.3128e-09
4.31622e-09
4.31437e-09
2.8152e-07
1.11254e-07
2.81516e-07
4.38538e-09
4.40756e-09
4.38167e-09
4.40933e-09
1.11258e-07
2.8156e-07
4.33018e-09
4.3838e-09
4.32967e-09
4.3844e-09
4.39764e-09
4.34179e-09
4.3979e-09
1.11278e-07
2.81551e-07
4.31273e-09
4.31597e-09
4.31645e-09
2.81517e-07
1.11254e-07
2.81518e-07
4.38656e-09
4.40927e-09
4.38136e-09
4.40806e-09
1.11258e-07
2.81561e-07
4.33107e-09
4.38605e-09
4.32871e-09
4.3853e-09
4.39816e-09
4.34127e-09
4.39674e-09
1.11278e-07
2.81553e-07
4.313e-09
4.31741e-09
4.31327e-09
2.81521e-07
1.11255e-07
2.81522e-07
4.38548e-09
4.40683e-09
4.37877e-09
4.40786e-09
1.11258e-07
2.81561e-07
4.32935e-09
4.38664e-09
4.32596e-09
4.38637e-09
4.39692e-09
4.34097e-09
4.4019e-09
1.11278e-07
2.81547e-07
4.30779e-09
4.27568e-09
4.29751e-09
2.8151e-07
1.11254e-07
2.81512e-07
4.38501e-09
4.40843e-09
4.38552e-09
4.41143e-09
1.11257e-07
2.81557e-07
4.32912e-09
4.38621e-09
4.33307e-09
4.38367e-09
4.40049e-09
4.34452e-09
4.39739e-09
1.11281e-07
2.81547e-07
4.29507e-09
4.31527e-09
4.3178e-09
2.81511e-07
1.11253e-07
2.81516e-07
4.38993e-09
4.41104e-09
4.38102e-09
4.40917e-09
1.11257e-07
2.81559e-07
4.33431e-09
4.38445e-09
4.329e-09
4.3828e-09
4.40011e-09
4.34066e-09
4.39449e-09
1.11276e-07
2.8155e-07
4.31144e-09
4.31194e-09
4.29765e-09
2.81522e-07
1.11253e-07
2.81518e-07
4.38817e-09
4.4098e-09
4.3793e-09
4.4077e-09
1.11256e-07
2.81559e-07
4.33286e-09
4.38504e-09
4.32746e-09
4.38213e-09
4.39358e-09
4.341e-09
4.39752e-09
1.11276e-07
2.8155e-07
4.31864e-09
4.31478e-09
4.30487e-09
2.81516e-07
1.11253e-07
2.81515e-07
4.38342e-09
4.40647e-09
4.38192e-09
4.4094e-09
1.11256e-07
2.81558e-07
4.32823e-09
4.38248e-09
4.33012e-09
4.384e-09
4.39527e-09
4.34133e-09
4.39515e-09
1.11276e-07
2.81549e-07
4.32599e-09
4.31595e-09
4.31362e-09
2.81515e-07
1.11254e-07
2.81515e-07
4.38449e-09
4.4087e-09
4.38172e-09
4.40981e-09
1.11256e-07
2.81557e-07
4.32931e-09
4.38501e-09
4.32997e-09
4.38446e-09
4.39792e-09
4.34162e-09
4.39755e-09
1.11276e-07
2.81548e-07
4.31202e-09
4.31637e-09
4.31608e-09
2.81512e-07
1.11252e-07
2.81517e-07
4.38814e-09
4.41012e-09
4.38008e-09
4.40767e-09
1.11256e-07
2.81558e-07
4.33296e-09
4.38648e-09
4.32832e-09
4.38222e-09
4.40008e-09
4.3412e-09
4.39578e-09
1.11276e-07
2.81549e-07
4.31431e-09
4.31605e-09
4.3147e-09
2.81514e-07
1.11254e-07
2.81517e-07
4.38296e-09
4.40699e-09
4.38128e-09
4.40999e-09
1.11257e-07
2.81558e-07
4.32781e-09
4.38326e-09
4.32953e-09
4.38456e-09
4.39766e-09
4.34148e-09
4.39671e-09
1.11277e-07
2.81549e-07
4.31224e-09
4.31649e-09
4.31468e-09
2.81513e-07
1.11253e-07
2.81518e-07
4.38614e-09
4.40782e-09
4.37943e-09
4.40781e-09
1.11256e-07
2.81559e-07
4.33099e-09
4.38415e-09
4.32769e-09
4.38237e-09
4.39746e-09
4.34101e-09
4.39708e-09
1.11277e-07
2.8155e-07
4.31117e-09
4.3177e-09
4.31623e-09
2.81513e-07
1.11253e-07
2.81514e-07
4.38544e-09
4.40921e-09
4.38187e-09
4.40747e-09
1.11256e-07
2.8156e-07
4.33033e-09
4.38539e-09
4.33008e-09
4.38228e-09
4.39981e-09
4.33973e-09
4.39452e-09
1.11276e-07
2.81551e-07
4.31446e-09
4.31384e-09
4.31283e-09
2.81517e-07
1.11254e-07
2.81515e-07
4.38539e-09
4.4077e-09
4.38087e-09
4.41028e-09
1.11256e-07
2.81555e-07
4.33025e-09
4.38386e-09
4.32911e-09
4.38501e-09
4.39751e-09
4.34341e-09
4.39833e-09
1.11277e-07
2.81546e-07
4.31217e-09
4.31771e-09
4.31674e-09
2.81509e-07
1.11253e-07
2.81518e-07
4.38563e-09
4.40871e-09
4.38003e-09
4.40727e-09
1.11257e-07
2.81559e-07
4.33048e-09
4.38486e-09
4.32823e-09
4.38198e-09
4.39825e-09
4.3402e-09
4.39527e-09
1.11277e-07
2.8155e-07
4.31301e-09
4.31454e-09
4.31373e-09
2.81515e-07
1.11253e-07
2.81519e-07
4.38424e-09
4.40784e-09
4.3804e-09
4.40799e-09
1.11256e-07
2.8156e-07
4.32905e-09
4.384e-09
4.32866e-09
4.38269e-09
4.39788e-09
4.34188e-09
4.39639e-09
1.11277e-07
2.81551e-07
4.31261e-09
4.3162e-09
4.31484e-09
2.81515e-07
1.11253e-07
2.81515e-07
4.38527e-09
4.40748e-09
4.38134e-09
4.4086e-09
1.11256e-07
2.81557e-07
4.33016e-09
4.38356e-09
4.32964e-09
4.38332e-09
4.39629e-09
4.3426e-09
4.39754e-09
1.11276e-07
2.81547e-07
4.31104e-09
4.31685e-09
4.31596e-09
2.81512e-07
1.11253e-07
2.81516e-07
4.38632e-09
4.40887e-09
4.37945e-09
4.4074e-09
1.11257e-07
2.81559e-07
4.33497e-09
4.38517e-09
4.34303e-09
4.38206e-09
4.3985e-09
4.34027e-09
4.39616e-09
1.11277e-07
2.8155e-07
4.31325e-09
4.31465e-09
4.31459e-09
2.81514e-07
1.11251e-07
2.81515e-07
4.38592e-09
4.40924e-09
4.38057e-09
4.40854e-09
1.11256e-07
2.81558e-07
4.31539e-09
4.38525e-09
4.34436e-09
4.38331e-09
4.39738e-09
4.34187e-09
4.39617e-09
1.11276e-07
2.81549e-07
4.31216e-09
4.31618e-09
4.31465e-09
2.81515e-07
1.11251e-07
2.81514e-07
4.38735e-09
4.40844e-09
4.38077e-09
4.40797e-09
1.11256e-07
2.8156e-07
4.31701e-09
4.38457e-09
4.3445e-09
4.38252e-09
4.39564e-09
4.34036e-09
4.39521e-09
1.11277e-07
2.8155e-07
4.31039e-09
4.31468e-09
4.31365e-09
2.81517e-07
1.11252e-07
2.81512e-07
4.38701e-09
4.40718e-09
4.38269e-09
4.40977e-09
1.11256e-07
2.81556e-07
4.31672e-09
4.38596e-09
4.34642e-09
4.3907e-09
4.39842e-09
4.34295e-09
4.39805e-09
1.11276e-07
2.81576e-07
4.31313e-09
4.31632e-09
4.31642e-09
2.8151e-07
1.11252e-07
2.81517e-07
4.38849e-09
4.41022e-09
4.37898e-09
4.40776e-09
1.11256e-07
2.81559e-07
4.31825e-09
4.38016e-09
4.3427e-09
4.38906e-09
4.40008e-09
4.34061e-09
4.39459e-09
1.11282e-07
2.8158e-07
4.31477e-09
4.31432e-09
4.3131e-09
2.81516e-07
1.11252e-07
2.8152e-07
4.38358e-09
4.40731e-09
4.37859e-09
4.40715e-09
1.11256e-07
2.81561e-07
4.31339e-09
4.37749e-09
4.34228e-09
4.38841e-09
4.39717e-09
4.34044e-09
4.39487e-09
1.11282e-07
2.81581e-07
4.31195e-09
4.31418e-09
4.3135e-09
2.81516e-07
1.11251e-07
2.81514e-07
4.38512e-09
4.40728e-09
4.38087e-09
4.41007e-09
1.11256e-07
2.81555e-07
4.31483e-09
4.37764e-09
4.34471e-09
4.39398e-09
4.39738e-09
4.34286e-09
4.39855e-09
1.11282e-07
2.81581e-07
4.31209e-09
4.31649e-09
4.31695e-09
2.81511e-07
1.11252e-07
2.81514e-07
4.38711e-09
4.40968e-09
4.37924e-09
4.4105e-09
1.11257e-07
2.81557e-07
4.31708e-09
4.37943e-09
4.34425e-09
4.38342e-09
4.39958e-09
4.34001e-09
4.39648e-09
1.11282e-07
2.81559e-07
4.3147e-09
4.31273e-09
4.32135e-09
2.81513e-07
1.11251e-07
2.81521e-07
4.38589e-09
4.41078e-09
4.38235e-09
4.41512e-09
1.11257e-07
2.81556e-07
4.31799e-09
4.38445e-09
4.34527e-09
4.40559e-09
4.40415e-09
4.34592e-09
4.38628e-09
1.11278e-07
2.81555e-07
4.32976e-09
4.32621e-09
4.33013e-09
2.81502e-07
1.11243e-07
2.81524e-07
4.39464e-09
4.40055e-09
4.81062e-09
4.77991e-09
1.11251e-07
2.81536e-07
4.31514e-09
4.41349e-09
4.78903e-09
4.82593e-09
4.37044e-09
4.64462e-09
4.71462e-09
1.11269e-07
2.81556e-07
4.30351e-09
4.68623e-09
4.69501e-09
2.81501e-07
1.11201e-07
2.80937e-07
5.37394e-09
5.42717e-09
2.45875e-08
2.46572e-08
1.11157e-07
2.80954e-07
5.35628e-09
5.33507e-09
2.46212e-08
2.46632e-08
5.32579e-09
2.44816e-08
2.45817e-08
1.1121e-07
2.80908e-07
5.2683e-09
2.44922e-08
2.44597e-08
2.80944e-07
1.09641e-07
1.06752e-07
4.85869e-08
4.86101e-08
2.42362e-07
2.41909e-07
1.09627e-07
1.06788e-07
4.84514e-08
4.86721e-08
2.41933e-07
2.41811e-07
4.86434e-08
2.42449e-07
2.42228e-07
1.09645e-07
1.06682e-07
4.84719e-08
2.4211e-07
2.41888e-07
1.06702e-07
5.67935e-07
2.41969e-07
2.41747e-07
5.67867e-07
2.42127e-07
2.41831e-07
5.40899e-07
5.41e-07
5.40938e-07
2.41997e-07
5.6783e-07
2.42124e-07
5.31577e-08
2.37144e-07
1.58649e-07
1.5867e-07
5.42235e-07
3.27634e-07
6.36986e-07
2.14425e-07
5.42184e-07
3.27682e-07
2.14442e-07
6.36799e-07
4.3224e-07
4.74223e-07
4.7413e-07
3.64121e-06
0.000120016
3.51936e-06
0.000121463
0.000240229
0.000246781
3.64179e-06
0.000120033
3.52065e-06
0.000121481
1.36816e-06
1.36749e-06
1.36782e-06
1.92183e-07
1.92104e-07
1.92145e-07
1.92212e-07
3.03164e-07
5.80588e-06
9.76797e-07
8.48986e-07
1.8412e-07
4.25057e-06
6.60173e-07
0.000240221
0.000246766
3.02396e-07
9.75974e-07
5.80466e-06
8.48868e-07
1.84013e-07
6.59877e-07
4.2497e-06
8.27378e-06
8.27478e-06
2.85124e-07
9.20702e-06
9.20883e-06
3.49537e-06
0.000120699
3.48658e-06
0.000120689
0.00024758
0.000247571
3.49585e-06
0.000120715
3.48701e-06
0.000120705
9.27911e-08
9.2785e-08
9.28297e-08
1.29798e-08
1.29767e-08
1.29799e-08
1.30053e-08