/*--------------------------------*- C++ -*----------------------------------*\
| =========                 |                                                 |
| \\      /  F ield         | OpenFOAM: The Open Source CFD Toolbox           |
|  \\    /   O peration     | Version:  v1912                                 |
|   \\  /    A nd           | Website:  www.openfoam.com                      |
|    \\/     M anipulation  |                                                 |
\*---------------------------------------------------------------------------*/
FoamFile
{
    version     2.0;
    format      ascii;
    class       volScalarField;
    location    "1.7";
    object      p;
}
// * * * * * * * * * * * * * * * * * * * * * * * * * * * * * * * * * * * * * //

dimensions      [0 2 -2 0 0 0 0];


internalField   nonuniform List<scalar> 
171728
(
0.020679
0.0206806
0.0206806
0.020697
0.0204622
0.0204622
0.0204622
0.0204757
0.020243
0.0202429
0.0202429
0.0202563
0.0200237
0.0200236
0.0200236
0.020037
0.0198044
0.0198043
0.0198043
0.0198177
0.0195851
0.0195849
0.0195849
0.0195984
0.0193658
0.0193656
0.0193656
0.019379
0.0191464
0.0191463
0.0191463
0.0191597
0.0189271
0.018927
0.018927
0.0189404
0.0187078
0.0187077
0.0187077
0.0187211
0.0184885
0.0184884
0.0184884
0.0185018
0.0182692
0.018269
0.018269
0.0182825
0.0180498
0.0180497
0.0180497
0.0180631
0.0178305
0.0178304
0.0178304
0.0178438
0.0176112
0.0176111
0.0176111
0.0176245
0.0173919
0.0173918
0.0173918
0.0174052
0.0171726
0.0171724
0.0171724
0.0171859
0.0169532
0.0169531
0.0169531
0.0169665
0.0167339
0.0167338
0.0167338
0.0167472
0.0165146
0.0165145
0.0165145
0.0165279
0.0162953
0.0162952
0.0162952
0.0163086
0.016076
0.0160758
0.0160758
0.0160892
0.0158566
0.0158565
0.0158565
0.0158699
0.0156373
0.0156372
0.0156372
0.0156506
0.015418
0.0154179
0.0154179
0.0154313
0.0151987
0.0151986
0.0151986
0.015212
0.0149794
0.0149792
0.0149792
0.0149927
0.01476
0.0147599
0.0147599
0.0147733
0.0145407
0.0145406
0.0145406
0.014554
0.0143214
0.0143213
0.0143213
0.0143347
0.0141021
0.014102
0.014102
0.0141154
0.0138828
0.0138826
0.0138826
0.0138961
0.0136635
0.0136633
0.0136633
0.0136767
0.0134441
0.013444
0.013444
0.0134574
0.0132248
0.0132247
0.0132247
0.0132381
0.0130055
0.0130054
0.0130054
0.0130188
0.0127862
0.012786
0.012786
0.0127995
0.0125668
0.0125667
0.0125667
0.0125801
0.0123475
0.0123474
0.0123474
0.0123608
0.0121282
0.0121281
0.0121281
0.0121415
0.0119089
0.0119088
0.0119088
0.0119222
0.0116896
0.0116894
0.0116894
0.0117029
0.0114703
0.0114701
0.0114701
0.0114835
0.0112509
0.0112508
0.0112508
0.0112642
0.0110316
0.0110315
0.0110315
0.0110449
0.0108123
0.0108122
0.0108122
0.0108256
0.010593
0.0105929
0.0105929
0.0106063
0.0103737
0.0103735
0.0103735
0.010387
0.0101544
0.0101542
0.0101542
0.0101676
0.00993503
0.0099349
0.0099349
0.00994832
0.00971571
0.00971558
0.00971558
0.009729
0.00949639
0.00949626
0.00949626
0.00950968
0.00927707
0.00927694
0.00927694
0.00929036
0.00905774
0.00905762
0.00905762
0.00907104
0.00883842
0.0088383
0.0088383
0.00885171
0.0086191
0.00861898
0.00861898
0.00863239
0.00839978
0.00839965
0.00839965
0.00841307
0.00818046
0.00818033
0.00818033
0.00819375
0.00796114
0.00796101
0.00796101
0.00797443
0.00774182
0.0077417
0.0077417
0.00775511
0.00752251
0.00752238
0.00752238
0.00753579
0.00730319
0.00730306
0.00730306
0.00731648
0.00708387
0.00708374
0.00708374
0.00709716
0.00686455
0.00686443
0.00686443
0.00687784
0.00664523
0.00664511
0.00664511
0.00665852
0.00642591
0.00642579
0.00642579
0.00643921
0.00620659
0.00620647
0.00620647
0.00621988
0.00598727
0.00598715
0.00598715
0.00600056
0.00576795
0.00576783
0.00576783
0.00578124
0.00554863
0.0055485
0.0055485
0.00556192
0.00532931
0.00532918
0.00532918
0.0053426
0.00510999
0.00510986
0.00510986
0.00512328
0.00489066
0.00489054
0.00489054
0.00490396
0.00467134
0.00467122
0.00467122
0.00468463
0.00445202
0.0044519
0.0044519
0.00446531
0.0042327
0.00423258
0.00423258
0.004246
0.00401339
0.00401326
0.00401326
0.00402668
0.00379407
0.00379394
0.00379394
0.00380736
0.00357475
0.00357463
0.00357463
0.00358804
0.00335544
0.00335531
0.00335531
0.00336873
0.00313612
0.00313599
0.00313599
0.00314941
0.0029168
0.00291668
0.00291668
0.00293009
0.00269748
0.00269736
0.00269736
0.00271078
0.00247817
0.00247804
0.00247804
0.00249146
0.00225885
0.00225872
0.00225872
0.00227214
0.00203953
0.0020394
0.0020394
0.00205282
0.0018202
0.00182008
0.00182008
0.00183349
0.00160088
0.00160076
0.00160076
0.00161417
0.00138156
0.00138144
0.00138144
0.00139485
0.00116224
0.00116211
0.00116211
0.00117553
0.00094292
0.000942794
0.000942794
0.00095621
0.000723603
0.000723478
0.000723477
0.000736895
0.000504295
0.000504166
0.000504165
0.000517575
0.000285808
0.000285173
0.00028517
0.00029835
8.33557e-05
8.83805e-05
8.83807e-05
8.79861e-05
0.0207261
0.0207204
0.0207204
0.0207261
0.0207204
0.0207204
0.0207308
0.0207308
0.0207308
0.0207308
0.0207204
0.0207204
0.0207261
0.0207204
0.0207204
0.0207261
0.020697
0.0205037
0.0206806
0.0206806
0.020517
0.020517
0.020697
0.0205037
0.0206806
0.0206806
0.020517
0.020517
0.0206806
0.020517
0.020517
0.020697
0.0205037
0.0206806
0.020517
0.020517
0.0205037
0.0204757
0.0202844
0.0204622
0.0204622
0.0202977
0.0202977
0.0204757
0.0202844
0.0204622
0.0204622
0.0202977
0.0202977
0.0204622
0.0202977
0.0202977
0.0204757
0.0202844
0.0204622
0.0202977
0.0202977
0.0202844
0.0202563
0.0200651
0.0202429
0.0202429
0.0200784
0.0200784
0.0202563
0.0200651
0.0202429
0.0202429
0.0200784
0.0200784
0.0202429
0.0200784
0.0200784
0.0202563
0.0200651
0.0202429
0.0200784
0.0200784
0.0200651
0.020037
0.0198458
0.0200236
0.0200236
0.0198591
0.0198591
0.020037
0.0198458
0.0200236
0.0200236
0.0198591
0.0198591
0.0200236
0.0198591
0.0198591
0.020037
0.0198458
0.0200236
0.0198591
0.0198591
0.0198458
0.0198177
0.0196264
0.0198043
0.0198043
0.0196398
0.0196398
0.0198177
0.0196264
0.0198043
0.0198043
0.0196398
0.0196398
0.0198043
0.0196398
0.0196398
0.0198177
0.0196264
0.0198043
0.0196398
0.0196398
0.0196264
0.0195984
0.0194071
0.0195849
0.0195849
0.0194205
0.0194205
0.0195984
0.0194071
0.0195849
0.0195849
0.0194205
0.0194205
0.0195849
0.0194205
0.0194205
0.0195984
0.0194071
0.0195849
0.0194205
0.0194205
0.0194071
0.019379
0.0191878
0.0193656
0.0193656
0.0192011
0.0192011
0.019379
0.0191878
0.0193656
0.0193656
0.0192011
0.0192011
0.0193656
0.0192011
0.0192011
0.019379
0.0191878
0.0193656
0.0192011
0.0192011
0.0191878
0.0191597
0.0189685
0.0191463
0.0191463
0.0189818
0.0189818
0.0191597
0.0189685
0.0191463
0.0191463
0.0189818
0.0189818
0.0191463
0.0189818
0.0189818
0.0191597
0.0189685
0.0191463
0.0189818
0.0189818
0.0189685
0.0189404
0.0187492
0.018927
0.018927
0.0187625
0.0187625
0.0189404
0.0187492
0.018927
0.018927
0.0187625
0.0187625
0.018927
0.0187625
0.0187625
0.0189404
0.0187492
0.018927
0.0187625
0.0187625
0.0187492
0.0187211
0.0185298
0.0187077
0.0187077
0.0185432
0.0185432
0.0187211
0.0185298
0.0187077
0.0187077
0.0185432
0.0185432
0.0187077
0.0185432
0.0185432
0.0187211
0.0185298
0.0187077
0.0185432
0.0185432
0.0185298
0.0185018
0.0183105
0.0184884
0.0184884
0.0183239
0.0183239
0.0185018
0.0183105
0.0184884
0.0184884
0.0183239
0.0183239
0.0184884
0.0183239
0.0183239
0.0185018
0.0183105
0.0184884
0.0183239
0.0183239
0.0183105
0.0182825
0.0180912
0.018269
0.018269
0.0181045
0.0181045
0.0182825
0.0180912
0.018269
0.018269
0.0181045
0.0181045
0.018269
0.0181045
0.0181046
0.0182825
0.0180912
0.018269
0.0181046
0.0181045
0.0180912
0.0180631
0.0178719
0.0180497
0.0180497
0.0178852
0.0178852
0.0180631
0.0178719
0.0180497
0.0180497
0.0178852
0.0178852
0.0180497
0.0178852
0.0178852
0.0180631
0.0178719
0.0180497
0.0178852
0.0178852
0.0178719
0.0178438
0.0176526
0.0178304
0.0178304
0.0176659
0.0176659
0.0178438
0.0176526
0.0178304
0.0178304
0.0176659
0.0176659
0.0178304
0.0176659
0.0176659
0.0178438
0.0176526
0.0178304
0.0176659
0.0176659
0.0176526
0.0176245
0.0174333
0.0176111
0.0176111
0.0174466
0.0174466
0.0176245
0.0174333
0.0176111
0.0176111
0.0174466
0.0174466
0.0176111
0.0174466
0.0174466
0.0176245
0.0174333
0.0176111
0.0174466
0.0174466
0.0174333
0.0174052
0.0172139
0.0173918
0.0173918
0.0172273
0.0172273
0.0174052
0.0172139
0.0173918
0.0173918
0.0172273
0.0172273
0.0173918
0.0172273
0.0172273
0.0174052
0.0172139
0.0173918
0.0172273
0.0172273
0.0172139
0.0171859
0.0169946
0.0171724
0.0171724
0.0170079
0.0170079
0.0171859
0.0169946
0.0171724
0.0171724
0.0170079
0.017008
0.0171724
0.0170079
0.017008
0.0171859
0.0169946
0.0171724
0.0170079
0.017008
0.0169946
0.0169665
0.0167753
0.0169531
0.0169531
0.0167886
0.0167886
0.0169665
0.0167753
0.0169531
0.0169531
0.0167886
0.0167886
0.0169531
0.0167886
0.0167886
0.0169665
0.0167753
0.0169531
0.0167886
0.0167886
0.0167753
0.0167472
0.016556
0.0167338
0.0167338
0.0165693
0.0165693
0.0167472
0.016556
0.0167338
0.0167338
0.0165693
0.0165693
0.0167338
0.0165693
0.0165693
0.0167472
0.016556
0.0167338
0.0165693
0.0165693
0.016556
0.0165279
0.0163366
0.0165145
0.0165145
0.01635
0.01635
0.0165279
0.0163366
0.0165145
0.0165145
0.01635
0.01635
0.0165145
0.01635
0.01635
0.0165279
0.0163366
0.0165145
0.01635
0.01635
0.0163366
0.0163086
0.0161173
0.0162952
0.0162952
0.0161307
0.0161307
0.0163086
0.0161173
0.0162951
0.0162952
0.0161307
0.0161307
0.0162952
0.0161307
0.0161307
0.0163086
0.0161173
0.0162952
0.0161307
0.0161307
0.0161173
0.0160892
0.015898
0.0160758
0.0160758
0.0159113
0.0159113
0.0160892
0.015898
0.0160758
0.0160758
0.0159113
0.0159113
0.0160758
0.0159113
0.0159113
0.0160892
0.015898
0.0160758
0.0159113
0.0159113
0.015898
0.0158699
0.0156787
0.0158565
0.0158565
0.015692
0.015692
0.0158699
0.0156787
0.0158565
0.0158565
0.015692
0.015692
0.0158565
0.015692
0.015692
0.0158699
0.0156787
0.0158565
0.015692
0.015692
0.0156787
0.0156506
0.0154594
0.0156372
0.0156372
0.0154727
0.0154727
0.0156506
0.0154594
0.0156372
0.0156372
0.0154727
0.0154727
0.0156372
0.0154727
0.0154727
0.0156506
0.0154594
0.0156372
0.0154727
0.0154727
0.0154594
0.0154313
0.01524
0.0154179
0.0154179
0.0152534
0.0152534
0.0154313
0.01524
0.0154179
0.0154179
0.0152534
0.0152534
0.0154179
0.0152534
0.0152534
0.0154313
0.01524
0.0154179
0.0152534
0.0152534
0.01524
0.015212
0.0150207
0.0151986
0.0151986
0.0150341
0.0150341
0.015212
0.0150207
0.0151986
0.0151986
0.0150341
0.0150341
0.0151986
0.0150341
0.0150341
0.015212
0.0150207
0.0151986
0.0150341
0.0150341
0.0150207
0.0149927
0.0148014
0.0149792
0.0149792
0.0148147
0.0148147
0.0149927
0.0148014
0.0149792
0.0149792
0.0148147
0.0148147
0.0149792
0.0148147
0.0148147
0.0149927
0.0148014
0.0149792
0.0148147
0.0148147
0.0148014
0.0147733
0.0145821
0.0147599
0.0147599
0.0145954
0.0145954
0.0147733
0.0145821
0.0147599
0.0147599
0.0145954
0.0145954
0.0147599
0.0145954
0.0145954
0.0147733
0.0145821
0.0147599
0.0145954
0.0145954
0.0145821
0.014554
0.0143628
0.0145406
0.0145406
0.0143761
0.0143761
0.014554
0.0143628
0.0145406
0.0145406
0.0143761
0.0143761
0.0145406
0.0143761
0.0143761
0.014554
0.0143628
0.0145406
0.0143761
0.0143761
0.0143628
0.0143347
0.0141435
0.0143213
0.0143213
0.0141568
0.0141568
0.0143347
0.0141435
0.0143213
0.0143213
0.0141568
0.0141568
0.0143213
0.0141568
0.0141568
0.0143347
0.0141435
0.0143213
0.0141568
0.0141568
0.0141435
0.0141154
0.0139241
0.014102
0.014102
0.0139375
0.0139375
0.0141154
0.0139241
0.014102
0.014102
0.0139375
0.0139375
0.014102
0.0139375
0.0139375
0.0141154
0.0139241
0.014102
0.0139375
0.0139375
0.0139241
0.0138961
0.0137048
0.0138826
0.0138826
0.0137182
0.0137182
0.0138961
0.0137048
0.0138826
0.0138826
0.0137182
0.0137182
0.0138826
0.0137182
0.0137182
0.0138961
0.0137048
0.0138826
0.0137182
0.0137182
0.0137048
0.0136767
0.0134855
0.0136633
0.0136633
0.0134988
0.0134988
0.0136767
0.0134855
0.0136633
0.0136633
0.0134988
0.0134988
0.0136633
0.0134988
0.0134988
0.0136767
0.0134855
0.0136633
0.0134988
0.0134988
0.0134855
0.0134574
0.0132662
0.013444
0.013444
0.0132795
0.0132795
0.0134574
0.0132662
0.013444
0.013444
0.0132795
0.0132795
0.013444
0.0132795
0.0132795
0.0134574
0.0132662
0.013444
0.0132795
0.0132795
0.0132662
0.0132381
0.0130469
0.0132247
0.0132247
0.0130602
0.0130602
0.0132381
0.0130469
0.0132247
0.0132247
0.0130602
0.0130602
0.0132247
0.0130602
0.0130602
0.0132381
0.0130469
0.0132247
0.0130602
0.0130602
0.0130469
0.0130188
0.0128275
0.0130054
0.0130054
0.0128409
0.0128409
0.0130188
0.0128275
0.0130054
0.0130054
0.0128409
0.0128409
0.0130054
0.0128409
0.0128409
0.0130188
0.0128275
0.0130054
0.0128409
0.0128409
0.0128275
0.0127995
0.0126082
0.012786
0.012786
0.0126216
0.0126216
0.0127995
0.0126082
0.012786
0.012786
0.0126216
0.0126216
0.012786
0.0126216
0.0126216
0.0127995
0.0126082
0.012786
0.0126216
0.0126216
0.0126082
0.0125801
0.0123889
0.0125667
0.0125667
0.0124022
0.0124022
0.0125801
0.0123889
0.0125667
0.0125667
0.0124022
0.0124022
0.0125667
0.0124022
0.0124022
0.0125801
0.0123889
0.0125667
0.0124022
0.0124022
0.0123889
0.0123608
0.0121696
0.0123474
0.0123474
0.0121829
0.0121829
0.0123608
0.0121696
0.0123474
0.0123474
0.0121829
0.0121829
0.0123474
0.0121829
0.0121829
0.0123608
0.0121696
0.0123474
0.0121829
0.0121829
0.0121696
0.0121415
0.0119503
0.0121281
0.0121281
0.0119636
0.0119636
0.0121415
0.0119503
0.0121281
0.0121281
0.0119636
0.0119636
0.0121281
0.0119636
0.0119636
0.0121415
0.0119503
0.0121281
0.0119636
0.0119636
0.0119503
0.0119222
0.0117309
0.0119088
0.0119088
0.0117443
0.0117443
0.0119222
0.0117309
0.0119088
0.0119088
0.0117443
0.0117443
0.0119088
0.0117443
0.0117443
0.0119222
0.0117309
0.0119088
0.0117443
0.0117443
0.0117309
0.0117029
0.0115116
0.0116894
0.0116894
0.011525
0.011525
0.0117029
0.0115116
0.0116894
0.0116894
0.011525
0.011525
0.0116894
0.011525
0.011525
0.0117029
0.0115116
0.0116894
0.011525
0.011525
0.0115116
0.0114835
0.0112923
0.0114701
0.0114701
0.0113056
0.0113056
0.0114835
0.0112923
0.0114701
0.0114701
0.0113056
0.0113056
0.0114701
0.0113056
0.0113056
0.0114835
0.0112923
0.0114701
0.0113056
0.0113056
0.0112923
0.0112642
0.011073
0.0112508
0.0112508
0.0110863
0.0110863
0.0112642
0.011073
0.0112508
0.0112508
0.0110863
0.0110863
0.0112508
0.0110863
0.0110863
0.0112642
0.011073
0.0112508
0.0110863
0.0110863
0.011073
0.0110449
0.0108537
0.0110315
0.0110315
0.010867
0.010867
0.0110449
0.0108537
0.0110315
0.0110315
0.010867
0.010867
0.0110315
0.010867
0.010867
0.0110449
0.0108537
0.0110315
0.010867
0.010867
0.0108537
0.0108256
0.0106344
0.0108122
0.0108122
0.0106477
0.0106477
0.0108256
0.0106344
0.0108122
0.0108122
0.0106477
0.0106477
0.0108122
0.0106477
0.0106477
0.0108256
0.0106344
0.0108122
0.0106477
0.0106477
0.0106344
0.0106063
0.010415
0.0105929
0.0105929
0.0104284
0.0104284
0.0106063
0.010415
0.0105929
0.0105929
0.0104284
0.0104284
0.0105929
0.0104284
0.0104284
0.0106063
0.010415
0.0105929
0.0104284
0.0104284
0.010415
0.010387
0.0101957
0.0103735
0.0103735
0.0102091
0.0102091
0.010387
0.0101957
0.0103735
0.0103735
0.0102091
0.0102091
0.0103735
0.0102091
0.0102091
0.010387
0.0101957
0.0103735
0.0102091
0.0102091
0.0101957
0.0101676
0.0099764
0.0101542
0.0101542
0.00998973
0.00998973
0.0101676
0.0099764
0.0101542
0.0101542
0.00998973
0.00998973
0.0101542
0.00998973
0.00998973
0.0101676
0.0099764
0.0101542
0.00998973
0.00998973
0.0099764
0.00994832
0.00975708
0.00993491
0.0099349
0.00977041
0.00977041
0.00994832
0.00975708
0.0099349
0.00993491
0.00977041
0.00977041
0.0099349
0.00977041
0.00977041
0.00994832
0.00975708
0.0099349
0.00977041
0.00977041
0.00975708
0.009729
0.00953776
0.00971558
0.00971558
0.00955109
0.00955109
0.009729
0.00953776
0.00971558
0.00971558
0.00955109
0.00955109
0.00971558
0.00955109
0.00955109
0.009729
0.00953776
0.00971558
0.00955109
0.00955109
0.00953776
0.00950968
0.00931843
0.00949626
0.00949626
0.00933177
0.00933177
0.00950968
0.00931843
0.00949626
0.00949626
0.00933177
0.00933177
0.00949626
0.00933177
0.00933177
0.00950968
0.00931843
0.00949626
0.00933177
0.00933177
0.00931843
0.00929036
0.00909911
0.00927694
0.00927694
0.00911245
0.00911245
0.00929036
0.00909911
0.00927694
0.00927694
0.00911245
0.00911245
0.00927694
0.00911245
0.00911245
0.00929036
0.00909911
0.00927694
0.00911245
0.00911245
0.00909911
0.00907104
0.00887979
0.00905762
0.00905762
0.00889313
0.00889313
0.00907104
0.00887979
0.00905762
0.00905762
0.00889313
0.00889313
0.00905762
0.00889313
0.00889313
0.00907104
0.00887979
0.00905762
0.00889313
0.00889313
0.00887979
0.00885171
0.00866047
0.0088383
0.0088383
0.00867381
0.00867381
0.00885172
0.00866047
0.0088383
0.0088383
0.0086738
0.00867381
0.0088383
0.00867381
0.00867381
0.00885171
0.00866047
0.0088383
0.00867381
0.00867381
0.00866047
0.00863239
0.00844115
0.00861898
0.00861897
0.00845448
0.00845448
0.00863239
0.00844115
0.00861897
0.00861898
0.00845448
0.00845448
0.00861898
0.00845448
0.00845448
0.00863239
0.00844115
0.00861898
0.00845448
0.00845448
0.00844115
0.00841307
0.00822183
0.00839965
0.00839965
0.00823516
0.00823516
0.00841307
0.00822183
0.00839965
0.00839965
0.00823516
0.00823516
0.00839965
0.00823516
0.00823516
0.00841307
0.00822183
0.00839965
0.00823516
0.00823516
0.00822183
0.00819375
0.00800251
0.00818033
0.00818033
0.00801584
0.00801584
0.00819375
0.00800251
0.00818033
0.00818033
0.00801584
0.00801584
0.00818033
0.00801584
0.00801585
0.00819375
0.00800251
0.00818033
0.00801584
0.00801584
0.00800251
0.00797443
0.00778319
0.00796101
0.00796101
0.00779653
0.00779653
0.00797443
0.00778319
0.00796101
0.00796101
0.00779653
0.00779653
0.00796102
0.00779653
0.00779653
0.00797443
0.00778319
0.00796101
0.00779653
0.00779653
0.00778319
0.00775511
0.00756387
0.0077417
0.0077417
0.00757721
0.00757721
0.00775511
0.00756387
0.0077417
0.0077417
0.00757721
0.00757721
0.0077417
0.00757721
0.00757721
0.00775511
0.00756387
0.0077417
0.00757721
0.00757721
0.00756387
0.0075358
0.00734455
0.00752238
0.00752238
0.00735789
0.00735789
0.0075358
0.00734455
0.00752238
0.00752238
0.00735789
0.00735789
0.00752238
0.00735789
0.00735789
0.0075358
0.00734455
0.00752238
0.00735789
0.00735789
0.00734455
0.00731648
0.00712524
0.00730306
0.00730306
0.00713857
0.00713857
0.00731648
0.00712524
0.00730306
0.00730306
0.00713857
0.00713857
0.00730306
0.00713857
0.00713857
0.00731648
0.00712524
0.00730306
0.00713857
0.00713857
0.00712524
0.00709716
0.00690592
0.00708374
0.00708374
0.00691925
0.00691925
0.00709716
0.00690592
0.00708374
0.00708374
0.00691925
0.00691925
0.00708374
0.00691925
0.00691925
0.00709716
0.00690592
0.00708374
0.00691925
0.00691925
0.00690592
0.00687784
0.0066866
0.00686443
0.00686442
0.00669994
0.00669994
0.00687784
0.0066866
0.00686442
0.00686443
0.00669994
0.00669994
0.00686443
0.00669994
0.00669994
0.00687784
0.0066866
0.00686442
0.00669994
0.00669994
0.0066866
0.00665852
0.00646728
0.00664511
0.00664511
0.00648062
0.00648062
0.00665852
0.00646728
0.00664511
0.00664511
0.00648062
0.00648062
0.00664511
0.00648062
0.00648062
0.00665852
0.00646728
0.00664511
0.00648062
0.00648062
0.00646728
0.0064392
0.00624796
0.00642579
0.00642579
0.0062613
0.0062613
0.0064392
0.00624796
0.00642579
0.00642579
0.0062613
0.0062613
0.00642579
0.0062613
0.0062613
0.0064392
0.00624796
0.00642579
0.0062613
0.0062613
0.00624796
0.00621989
0.00602864
0.00620647
0.00620647
0.00604198
0.00604198
0.00621989
0.00602864
0.00620647
0.00620647
0.00604198
0.00604198
0.00620647
0.00604198
0.00604198
0.00621989
0.00602864
0.00620647
0.00604198
0.00604198
0.00602864
0.00600056
0.00580932
0.00598715
0.00598715
0.00582266
0.00582266
0.00600056
0.00580932
0.00598715
0.00598715
0.00582266
0.00582266
0.00598715
0.00582266
0.00582266
0.00600056
0.00580932
0.00598715
0.00582266
0.00582266
0.00580932
0.00578124
0.00559
0.00576783
0.00576782
0.00560333
0.00560333
0.00578124
0.00559
0.00576782
0.00576783
0.00560333
0.00560333
0.00576783
0.00560333
0.00560333
0.00578124
0.00559
0.00576782
0.00560333
0.00560333
0.00559
0.00556192
0.00537068
0.0055485
0.0055485
0.00538401
0.00538401
0.00556192
0.00537068
0.0055485
0.0055485
0.00538401
0.00538401
0.0055485
0.00538401
0.00538401
0.00556192
0.00537068
0.0055485
0.00538401
0.00538401
0.00537068
0.0053426
0.00515135
0.00532918
0.00532918
0.00516469
0.00516469
0.0053426
0.00515135
0.00532918
0.00532918
0.00516469
0.00516469
0.00532918
0.00516469
0.00516469
0.0053426
0.00515135
0.00532918
0.00516469
0.00516469
0.00515135
0.00512328
0.00493203
0.00510986
0.00510986
0.00494537
0.00494537
0.00512328
0.00493203
0.00510986
0.00510986
0.00494537
0.00494537
0.00510986
0.00494537
0.00494537
0.00512328
0.00493203
0.00510986
0.00494537
0.00494537
0.00493203
0.00490395
0.00471271
0.00489054
0.00489054
0.00472605
0.00472605
0.00490396
0.00471271
0.00489054
0.00489054
0.00472605
0.00472605
0.00489054
0.00472605
0.00472605
0.00490396
0.00471271
0.00489054
0.00472605
0.00472605
0.00471271
0.00468463
0.00449339
0.00467122
0.00467122
0.00450673
0.00450673
0.00468463
0.00449339
0.00467122
0.00467122
0.00450673
0.00450673
0.00467122
0.00450673
0.00450673
0.00468463
0.00449339
0.00467122
0.00450673
0.00450673
0.00449339
0.00446531
0.00427407
0.0044519
0.0044519
0.00428741
0.00428741
0.00446531
0.00427407
0.0044519
0.0044519
0.00428741
0.00428741
0.0044519
0.00428741
0.00428741
0.00446531
0.00427407
0.0044519
0.00428741
0.00428741
0.00427407
0.00424599
0.00405475
0.00423258
0.00423258
0.00406809
0.00406809
0.004246
0.00405475
0.00423258
0.00423258
0.00406809
0.00406809
0.00423258
0.00406809
0.00406809
0.004246
0.00405475
0.00423258
0.00406809
0.00406809
0.00405475
0.00402668
0.00383544
0.00401326
0.00401326
0.00384877
0.00384877
0.00402668
0.00383544
0.00401326
0.00401326
0.00384877
0.00384877
0.00401326
0.00384877
0.00384877
0.00402668
0.00383544
0.00401326
0.00384877
0.00384877
0.00383544
0.00380736
0.00361612
0.00379394
0.00379394
0.00362945
0.00362945
0.00380736
0.00361612
0.00379394
0.00379394
0.00362945
0.00362945
0.00379394
0.00362945
0.00362946
0.00380736
0.00361612
0.00379394
0.00362946
0.00362945
0.00361612
0.00358804
0.0033968
0.00357463
0.00357463
0.00341014
0.00341014
0.00358804
0.0033968
0.00357463
0.00357463
0.00341014
0.00341014
0.00357463
0.00341014
0.00341014
0.00358804
0.0033968
0.00357463
0.00341014
0.00341014
0.0033968
0.00336873
0.00317749
0.00335531
0.00335531
0.00319082
0.00319082
0.00336873
0.00317749
0.00335531
0.00335531
0.00319082
0.00319082
0.00335531
0.00319082
0.00319082
0.00336873
0.00317749
0.00335531
0.00319082
0.00319082
0.00317749
0.00314941
0.00295817
0.00313599
0.00313599
0.00297151
0.0029715
0.00314941
0.00295817
0.00313599
0.00313599
0.0029715
0.00297151
0.00313599
0.00297151
0.00297151
0.00314941
0.00295817
0.00313599
0.00297151
0.0029715
0.00295817
0.00293009
0.00273885
0.00291668
0.00291668
0.00275219
0.00275219
0.00293009
0.00273885
0.00291668
0.00291668
0.00275219
0.00275219
0.00291668
0.00275219
0.00275219
0.00293009
0.00273885
0.00291668
0.00275219
0.00275219
0.00273885
0.00271077
0.00251953
0.00269736
0.00269736
0.00253287
0.00253287
0.00271078
0.00251953
0.00269736
0.00269736
0.00253287
0.00253287
0.00269736
0.00253287
0.00253287
0.00271077
0.00251953
0.00269736
0.00253287
0.00253287
0.00251953
0.00249146
0.00230021
0.00247804
0.00247804
0.00231355
0.00231355
0.00249146
0.00230021
0.00247804
0.00247804
0.00231355
0.00231355
0.00247804
0.00231355
0.00231355
0.00249146
0.00230021
0.00247804
0.00231355
0.00231355
0.00230021
0.00227214
0.00208089
0.00225872
0.00225872
0.00209423
0.00209423
0.00227214
0.00208089
0.00225872
0.00225872
0.00209423
0.00209423
0.00225872
0.00209423
0.00209423
0.00227214
0.00208089
0.00225872
0.00209423
0.00209423
0.00208089
0.00205282
0.00186157
0.0020394
0.0020394
0.00187491
0.00187491
0.00205282
0.00186157
0.0020394
0.0020394
0.00187491
0.00187491
0.0020394
0.00187491
0.00187491
0.00205282
0.00186157
0.0020394
0.00187491
0.00187491
0.00186157
0.00183349
0.00164225
0.00182008
0.00182008
0.00165559
0.00165559
0.00183349
0.00164225
0.00182008
0.00182008
0.00165559
0.00165559
0.00182008
0.00165559
0.00165559
0.00183349
0.00164225
0.00182008
0.00165559
0.00165559
0.00164225
0.00161417
0.00142293
0.00160076
0.00160076
0.00143627
0.00143627
0.00161417
0.00142293
0.00160076
0.00160076
0.00143627
0.00143627
0.00160076
0.00143627
0.00143627
0.00161418
0.00142293
0.00160076
0.00143627
0.00143627
0.00142293
0.00139485
0.00120361
0.00138144
0.00138144
0.00121694
0.00121694
0.00139485
0.00120361
0.00138143
0.00138144
0.00121694
0.00121694
0.00138144
0.00121694
0.00121694
0.00139485
0.00120361
0.00138144
0.00121694
0.00121694
0.00120361
0.00117553
0.000984287
0.00116211
0.00116211
0.000997622
0.000997623
0.00117553
0.000984287
0.00116211
0.00116211
0.000997622
0.000997623
0.00116211
0.000997623
0.000997623
0.00117553
0.000984288
0.00116211
0.000997623
0.000997623
0.000984287
0.00095621
0.000764971
0.000942793
0.000942794
0.000778307
0.000778306
0.000956211
0.000764971
0.000942793
0.000942794
0.000778307
0.000778307
0.000942794
0.000778307
0.000778308
0.000956211
0.000764971
0.000942794
0.000778307
0.000778307
0.000764972
0.000736894
0.00054565
0.000723477
0.000723477
0.000558989
0.000558992
0.000736895
0.000545651
0.000723478
0.000723477
0.000558989
0.000558989
0.000723479
0.000558992
0.000558992
0.000736894
0.000545651
0.000723478
0.00055899
0.000558991
0.000545653
0.000517574
0.000326391
0.000504164
0.000504165
0.000339801
0.000339803
0.000517575
0.000326396
0.000504164
0.000504165
0.000339799
0.000339798
0.000504167
0.000339806
0.000339807
0.000517574
0.000326391
0.000504166
0.000339803
0.000339806
0.000326399
0.000298348
0.000109727
0.00028517
0.000285168
0.000122877
0.000122871
0.000298348
0.000109744
0.000285162
0.000285162
0.000122868
0.000122853
0.000285175
0.000122893
0.000122884
0.000298341
0.000109736
0.000285171
0.000122899
0.00012287
0.00010973
8.79849e-05
8.83456e-05
8.8362e-05
8.80178e-05
8.83541e-05
8.83525e-05
8.3367e-05
8.33648e-05
8.33591e-05
8.83487e-05
8.8011e-05
8.83572e-05
0.0207549
0.0207895
0.0207709
0.0207709
0.0208469
0.0208034
0.0209074
0.0207821
0.0208469
0.0208034
0.0207821
0.0209074
0.0208189
0.0209279
0.0209278
0.0206178
0.020739
0.0207228
0.020619
0.0206224
0.0206159
0.0206178
0.0207391
0.0207228
0.020619
0.020679
0.020679
0.020679
0.020517
0.020517
0.020517
0.020517
0.0206122
0.020719
0.0206819
0.020626
0.0206878
0.0206159
0.0206257
0.0206225
0.020616
0.0206122
0.0206819
0.0207189
0.020626
0.0206879
0.0206257
0.0206159
0.0207202
0.0207201
0.020613
0.0206142
0.0206142
0.020394
0.0204765
0.0204766
0.0203939
0.0204763
0.020394
0.020394
0.0204765
0.0204766
0.0203939
0.0204622
0.0204622
0.0204622
0.0202978
0.0202978
0.0202978
0.0202978
0.0203944
0.0204758
0.0204622
0.0204074
0.0204757
0.0203944
0.0204074
0.0204763
0.020394
0.0203944
0.0204622
0.0204758
0.0204074
0.0204757
0.0204074
0.0203944
0.0204762
0.0204762
0.0203941
0.0203939
0.0203939
0.0201745
0.0202567
0.0202567
0.0201745
0.0202566
0.0201745
0.0201745
0.0202567
0.0202567
0.0201745
0.020243
0.020243
0.020243
0.0200785
0.0200785
0.0200785
0.0200785
0.020175
0.0202562
0.0202429
0.0201881
0.0202562
0.020175
0.0201881
0.0202566
0.0201745
0.020175
0.0202429
0.0202562
0.0201881
0.0202562
0.0201881
0.020175
0.0202566
0.0202567
0.0201747
0.0201745
0.0201745
0.0199551
0.0200373
0.0200374
0.0199552
0.0200373
0.0199552
0.0199551
0.0200373
0.0200374
0.0199552
0.0200237
0.0200237
0.0200237
0.0198592
0.0198592
0.0198592
0.0198592
0.0199557
0.0200368
0.0200236
0.0199688
0.0200368
0.0199557
0.0199688
0.0200373
0.0199552
0.0199557
0.0200236
0.0200368
0.0199688
0.0200368
0.0199688
0.0199557
0.0200373
0.0200373
0.0199554
0.0199552
0.0199552
0.0197358
0.019818
0.019818
0.0197358
0.019818
0.0197359
0.0197358
0.019818
0.019818
0.0197358
0.0198044
0.0198044
0.0198044
0.0196399
0.0196399
0.0196399
0.0196399
0.0197364
0.0198175
0.0198043
0.0197494
0.0198175
0.0197363
0.0197495
0.019818
0.0197359
0.0197364
0.0198043
0.0198175
0.0197494
0.0198175
0.0197495
0.0197363
0.019818
0.019818
0.0197361
0.0197359
0.0197359
0.0195165
0.0195987
0.0195987
0.0195165
0.0195987
0.0195165
0.0195165
0.0195987
0.0195987
0.0195165
0.0195851
0.0195851
0.0195851
0.0194206
0.0194206
0.0194206
0.0194206
0.0195171
0.0195982
0.019585
0.0195301
0.0195982
0.019517
0.0195302
0.0195987
0.0195166
0.0195171
0.019585
0.0195982
0.0195301
0.0195982
0.0195302
0.019517
0.0195987
0.0195987
0.0195168
0.0195165
0.0195165
0.0192972
0.0193794
0.0193794
0.0192972
0.0193793
0.0192972
0.0192972
0.0193794
0.0193794
0.0192972
0.0193658
0.0193658
0.0193658
0.0192013
0.0192013
0.0192013
0.0192013
0.0192977
0.0193789
0.0193657
0.0193108
0.0193789
0.0192977
0.0193108
0.0193793
0.0192972
0.0192977
0.0193657
0.0193789
0.0193108
0.0193789
0.0193108
0.0192977
0.0193793
0.0193793
0.0192975
0.0192972
0.0192972
0.0190779
0.0191601
0.0191601
0.0190779
0.01916
0.0190779
0.0190779
0.0191601
0.0191601
0.0190779
0.0191464
0.0191464
0.0191464
0.0189819
0.0189819
0.0189819
0.0189819
0.0190784
0.0191595
0.0191463
0.0190915
0.0191595
0.0190784
0.0190915
0.01916
0.0190779
0.0190784
0.0191463
0.0191595
0.0190915
0.0191595
0.0190915
0.0190784
0.01916
0.01916
0.0190781
0.0190779
0.0190779
0.0188586
0.0189407
0.0189408
0.0188586
0.0189407
0.0188586
0.0188586
0.0189407
0.0189408
0.0188586
0.0189271
0.0189271
0.0189271
0.0187626
0.0187626
0.0187626
0.0187626
0.0188591
0.0189402
0.018927
0.0188722
0.0189402
0.0188591
0.0188722
0.0189407
0.0188586
0.0188591
0.018927
0.0189402
0.0188722
0.0189402
0.0188722
0.0188591
0.0189407
0.0189407
0.0188588
0.0188586
0.0188586
0.0186392
0.0187214
0.0187214
0.0186392
0.0187214
0.0186393
0.0186392
0.0187214
0.0187214
0.0186392
0.0187078
0.0187078
0.0187078
0.0185433
0.0185433
0.0185433
0.0185433
0.0186398
0.0187209
0.0187077
0.0186528
0.0187209
0.0186397
0.0186529
0.0187214
0.0186393
0.0186398
0.0187077
0.0187209
0.0186528
0.0187209
0.0186529
0.0186397
0.0187214
0.0187214
0.0186395
0.0186393
0.0186393
0.0184199
0.0185021
0.0185021
0.0184199
0.0185021
0.01842
0.0184199
0.0185021
0.0185021
0.0184199
0.0184885
0.0184885
0.0184885
0.018324
0.018324
0.018324
0.018324
0.0184205
0.0185016
0.0184884
0.0184335
0.0185016
0.0184204
0.0184336
0.0185021
0.01842
0.0184205
0.0184884
0.0185016
0.0184335
0.0185016
0.0184336
0.0184204
0.0185021
0.0185021
0.0184202
0.01842
0.01842
0.0182006
0.0182828
0.0182828
0.0182006