/*--------------------------------*- C++ -*----------------------------------*\
| =========                 |                                                 |
| \\      /  F ield         | OpenFOAM: The Open Source CFD Toolbox           |
|  \\    /   O peration     | Version:  v1906                                 |
|   \\  /    A nd           | Web:      www.OpenFOAM.com                      |
|    \\/     M anipulation  |                                                 |
\*---------------------------------------------------------------------------*/
FoamFile
{
    version     2.0;
    format      ascii;
    class       volScalarField;
    location    "875";
    object      nut;
}
// * * * * * * * * * * * * * * * * * * * * * * * * * * * * * * * * * * * * * //

dimensions      [0 2 -1 0 0 0 0];


internalField   nonuniform List<scalar> 
171728
(
0.000137337
0.00013936
0.000139362
0.000137331
0.000139373
0.000139353
0.000139379
0.000139373
0.000137331
0.000139373
0.000139377
0.000137331
0.000123063
0.000123063
0.000123067
0.000123073
2.36136e-05
2.36132e-05
7.38286e-05
7.38328e-05
9.19368e-05
5.00202e-05
9.21637e-05
9.1941e-05
5.00216e-05
5.00105e-05
9.21661e-05
0.000120905
9.3988e-05
0.00013469
0.000133816
0.000121499
0.000120909
0.000138577
9.39846e-05
0.000134689
9.37134e-05
0.000133815
0.000121502
2.36132e-05
2.36098e-05
0.000136568
7.38174e-05
7.38122e-05
7.37426e-05
7.37363e-05
2.36138e-05
2.36104e-05
5.00189e-05
9.21657e-05
9.39887e-05
0.000134697
0.000121501
5.00144e-05
9.21616e-05
0.000134695
9.39717e-05
0.000121496
0.000120912
0.000138595
9.39826e-05
0.000134702
9.3711e-05
0.000133828
0.000121505
9.19418e-05
5.00205e-05
5.00095e-05
9.21663e-05
0.000120909
0.000138587
0.000134705
9.3985e-05
0.000133832
9.37081e-05
0.000121502
9.19385e-05
5.00173e-05
5.0006e-05
9.21641e-05
2.36115e-05
7.38205e-05
7.38352e-05
2.36134e-05
0.000120905
0.000134712
9.39892e-05
0.000133842
0.000121501
0.000120908
0.000138592
0.000134715
9.39847e-05
0.000133843
9.37068e-05
0.000121504
9.19457e-05
5.00174e-05
9.21638e-05
9.19474e-05
5.00178e-05
5.00066e-05
9.21665e-05
0.000136561
7.38213e-05
7.38208e-05
7.37419e-05
7.37405e-05
2.36129e-05
2.36094e-05
2.36125e-05
2.3609e-05
2.36122e-05
2.36113e-05
9.72791e-05
0.000112851
7.37942e-05
4.79392e-05
4.79382e-05
0.000112745
9.72857e-05
9.72801e-05
0.000112879
7.3792e-05
4.79379e-05
4.79303e-05
0.000112706
9.73324e-05
7.86515e-05
2.14891e-05
2.14871e-05
2.14881e-05
2.14855e-05
7.86399e-05
3.6268e-05
4.05356e-05
8.81191e-05
9.2042e-05
3.62655e-05
4.05385e-05
8.82021e-05
2.01024e-05
5.00161e-05
7.60893e-05
7.60585e-05
2.0104e-05
3.62688e-05
9.20647e-05
4.05423e-05
8.8294e-05
4.05395e-05
8.82184e-05
3.62712e-05
3.62698e-05
4.05358e-05
8.81376e-05
9.20448e-05
3.62673e-05
4.05386e-05
8.82121e-05
2.01034e-05
5.00171e-05
7.611e-05
7.60814e-05
2.01048e-05
2.01037e-05
7.60447e-05
5.00152e-05
2.01022e-05
7.60809e-05
3.62705e-05
9.20684e-05
4.05425e-05
8.8303e-05
4.05397e-05
8.82357e-05
3.62729e-05
2.36116e-05
2.36114e-05
7.86757e-05
2.14851e-05
2.14877e-05
7.87426e-05
2.14856e-05
2.14881e-05
9.72626e-05
0.000112841
7.3784e-05
4.79339e-05
0.000112717
4.793e-05
9.72863e-05
9.72494e-05
0.000112855
7.37773e-05
4.79418e-05
4.79378e-05
0.00011273
9.72731e-05
9.72901e-05
4.79248e-05
0.000112536
7.37869e-05
0.000112675
9.72681e-05
4.79285e-05
9.72767e-05
4.79327e-05
0.000112549
7.37817e-05
9.72547e-05
4.79363e-05
0.000112689
7.8612e-05
2.1486e-05
2.14885e-05
2.14849e-05
2.14875e-05
7.85898e-05
2.36122e-05
2.3612e-05
2.01038e-05
5.00142e-05
7.6113e-05
7.60825e-05
2.01052e-05
3.62705e-05
9.20763e-05
8.8304e-05
4.0542e-05
8.82348e-05
4.05392e-05
3.62729e-05
2.0102e-05
5.00097e-05
7.60873e-05
7.60532e-05
2.01035e-05
3.62679e-05
9.20714e-05
4.05418e-05
8.82901e-05
4.0539e-05
8.82142e-05
3.62703e-05
3.62703e-05
8.81383e-05
4.05353e-05
9.20455e-05
3.62679e-05
8.82123e-05
4.05381e-05
2.01041e-05
5.00161e-05
7.6109e-05
7.60803e-05
2.01055e-05
2.01044e-05
7.60447e-05
5.00141e-05
2.0103e-05
7.608e-05
3.62711e-05
9.20685e-05
8.83027e-05
4.0542e-05
8.82356e-05
4.05392e-05
3.62735e-05
3.62681e-05
4.05352e-05
8.81272e-05
9.20429e-05
3.62656e-05
4.0538e-05
8.82018e-05
2.01029e-05
5.00128e-05
7.609e-05
7.60602e-05
2.01043e-05
2.01032e-05
7.60226e-05
5.00108e-05
2.01017e-05
7.60592e-05
3.62689e-05
9.20655e-05
4.05419e-05
8.82934e-05
4.05391e-05
8.82255e-05
3.62713e-05
2.36097e-05
9.73348e-05
0.000112879
7.37745e-05
4.79335e-05
0.000112725
4.79291e-05
9.73923e-05
9.73267e-05
0.0001129
7.3791e-05
4.79452e-05
4.79409e-05
0.000112751
9.73846e-05
7.87648e-05
2.14869e-05
2.14903e-05
2.1486e-05
2.14894e-05
7.87389e-05
2.36117e-05
3.62684e-05
8.81238e-05
4.05353e-05
9.20404e-05
3.62659e-05
8.81998e-05
4.05381e-05
2.01032e-05
5.00128e-05
7.60937e-05
7.60612e-05
2.01047e-05
2.01034e-05
7.60587e-05
3.62692e-05
9.20739e-05
8.82943e-05
4.0542e-05
8.82246e-05
4.05392e-05
3.62716e-05
3.627e-05
8.81277e-05
4.05353e-05
9.20436e-05
3.62675e-05
8.821e-05
4.05382e-05
2.01037e-05
5.00133e-05
7.6106e-05
7.60743e-05
2.01053e-05
2.01041e-05
7.6036e-05
5.00113e-05
2.01026e-05
7.60745e-05
3.62707e-05
9.20754e-05
8.83032e-05
4.05421e-05
8.82266e-05
4.05393e-05
3.62732e-05
7.87154e-05
2.14881e-05
2.14852e-05
7.87864e-05
2.14886e-05
2.14857e-05
9.72688e-05
0.000112864
7.3787e-05
4.79427e-05
0.000112735
4.79388e-05
9.7293e-05
9.72856e-05
0.000112852
7.37861e-05
4.79337e-05
0.000112727
4.79299e-05
9.7309e-05
9.72952e-05
4.79334e-05
0.000112542
7.37886e-05
9.72586e-05
0.00011269
4.79373e-05
9.73114e-05
4.79244e-05
0.000112535
7.37875e-05
9.72758e-05
0.000112678
4.79283e-05
7.86443e-05
2.14889e-05
2.1486e-05
2.14879e-05
2.1485e-05
7.86146e-05
2.36112e-05
2.3611e-05
2.36108e-05
2.36106e-05
0.000119669
0.000137155
0.000130218
0.000130252
0.000130092
0.000130091
0.000119839
0.000119656
0.00013715
0.000130218
0.000130222
0.000130074
0.000130078
0.000119815
0.000119703
0.000137144
0.000130237
0.000130245
0.000130082
0.000130091
0.000119894
0.000119669
0.000137148
0.000130225
0.000130225
0.000130079
0.000130079
0.000119832
0.000120778
0.000120784
0.000120502
0.000132407
0.000132171
0.000122394
0.000120776
0.000120786
0.0001205
0.00012051
0.000132408
0.000132171
0.000120785
0.000120794
0.000120521
0.000132407
0.00013217
0.000122406
0.000120788
0.000120795
0.000120513
0.000120521
0.000132408
0.000132171
0.000132552
0.000117241
0.000134327
0.000121152
0.000132388
0.000117462
0.000134519
0.000128767
0.000122452
9.38619e-05
0.000107919
0.000122328
0.000107723
0.00012893
0.000132923
0.000121259
0.000117765
0.000135092
0.000117552
0.000134903
0.000133083
0.000132561
0.000117253
0.000134331
0.000121156
0.000132398
0.000117474
0.000134523
0.000128771
0.000122444
9.38607e-05
0.000107927
0.000107733
0.000122319
0.000128932
0.00012848
0.000107501
0.000121969
9.38503e-05
0.000128313
0.000107707
0.000122101
0.000132932
0.000121262
0.000117774
0.000135095
0.000117562
0.000134906
0.000133091
0.000119658
0.000136754
0.000129687
0.000129691
0.000129837
0.000119493
0.000129841
0.00012877
0.000122451
9.3859e-05
0.000107926
0.000122321
0.000107732
0.000128932
0.000132927
0.000121259
0.000117772
0.000135092
0.000117559
0.000134902
0.000133087
0.000128748
0.000122433
9.38374e-05
0.000107908
0.000107708
0.000122302
0.000128912
0.000132914
0.000121254
0.000135088
0.000117756
0.000134899
0.000117542
0.000133074
0.000132565
0.000117256
0.000134335
0.000121159
0.000132402
0.000117476
0.000134527
0.000128778
0.000122454
9.38582e-05
0.000107929
0.000122329
0.000107735
0.000128939
0.000128487
0.000107504
0.00012198
9.38485e-05
0.00012832
0.000122111
0.00010771
0.000132935
0.000121265
0.000117776
0.0001351
0.000117565
0.00013491
0.000133095
0.000132558
0.000134334
0.000117246
0.000121155
0.000132394
0.000134525
0.000117467
0.00012877
0.000122452
9.38593e-05
0.000107921
0.000107726
0.000122326
0.000128933
0.000128478
0.000107492
0.00012197
9.38475e-05
0.00012831
0.000107699
0.000122103
0.000132928
0.000121262
0.000135098
0.000117768
0.000134909
0.000117556
0.000133088
0.000132553
0.00013433
0.000117241
0.000121153
0.000132389
0.000134522
0.000117462
0.000128764
0.000122457
9.3856e-05
0.00010792
0.000122325
0.000107723
0.000128929
0.000128471
0.000107692
0.000132922
0.000121258
0.000135094
0.000117765
0.000134904
0.000117551
0.000133083
0.000132558
0.000134332
0.000117249
0.000121157
0.000132394
0.000134524
0.000117469
0.000128768
0.000122447
9.38584e-05
0.000107924
0.000107729
0.00012232
0.00012893
0.000128475
0.000107494
0.000121964
9.38466e-05
0.000128308
0.000107702
0.000122098
0.000132927
0.000121261
0.000135095
0.000117772
0.000134906
0.000117559
0.000133088
0.000119667
0.000136749
0.000129682
0.000129682
0.00011949
0.000129835
0.000129835
0.000204594
0.000199936
0.000199934
0.000181668
0.000181762
0.000181778
0.000181815
0.000199949
0.000199917
0.000200563
0.000200581
0.000181746
0.000181865
0.000199959
0.000199914
0.00020058
0.000200561
0.000199881
0.0002006
0.000200556
0.000181746
0.000181859
0.000199893
0.0002006
0.00020058
0.000181862
0.000200707
0.00020073
0.000100009
5.07365e-05
5.07269e-05
0.000100114
2.38853e-05
2.38834e-05
0.000100018
5.07337e-05
5.07248e-05
0.000100121
0.00020458
0.000204579
0.000204582
0.000206455
0.000206451
0.00020645
0.000206433
0.000144305
0.00010391
0.000208856
0.00020025
0.000103746
0.000209379
0.00014429
2.38829e-05
2.38809e-05
0.000144321
0.000208851
0.000103924
0.000200248
0.000209379
0.000103757
0.000144295
7.81401e-05
7.81536e-05
0.00018187
7.78551e-05
7.78683e-05
7.75558e-05
7.75572e-05
2.38857e-05
2.38833e-05
2.38845e-05
2.38821e-05
7.82388e-05
7.82382e-05
0.000181932
7.78477e-05
7.78472e-05
2.38834e-05
2.38823e-05
2.38823e-05
2.38812e-05
0.000181788
7.74949e-05
7.74981e-05
7.77213e-05
7.77209e-05
0.000100016
5.07371e-05
5.07293e-05
0.000100113
0.000144326
0.000103948
0.000208873
0.00020025
0.000103741
0.000209401
0.000144335
0.000144331
0.000103928
0.000208862
0.000200235
0.000103756
0.000209394
0.000144333
9.99098e-05
5.07207e-05
5.07232e-05
9.97328e-05
9.99202e-05
5.0723e-05
5.07256e-05
9.9744e-05
0.000144264
0.000200441
0.000103362
0.000210165
0.000103596
0.000209831
0.00014413
0.000144271
0.000200443
0.000103405
0.000210168
0.000103625
0.000209828
0.000144142
7.82376e-05
7.82201e-05
0.00018194
7.78848e-05
7.78728e-05
2.38856e-05
2.3884e-05
2.38833e-05
2.38825e-05
0.000181818
7.75362e-05
7.75351e-05
7.77626e-05
7.77556e-05
2.38841e-05
2.38831e-05
0.00014433
0.000103939
0.00020887
0.000200263
0.00010374
0.000209396
0.000144338
0.000100013
5.07292e-05
5.07203e-05
0.000100119
0.000144325
0.000208859
0.00010392
0.000200224
0.000209388
0.000103722
0.000144334
9.99214e-05
5.07189e-05
5.07211e-05
9.97478e-05
0.000144269
0.000200456
0.000103365
0.000210165
0.000103594
0.000209832
0.00014414
9.99164e-05
5.07153e-05
5.07168e-05
9.97439e-05
0.000144263
0.000200425
0.00021016
0.000103366
0.000209821
0.00010358
0.000144136
9.99964e-05
5.07352e-05
5.0729e-05
0.000100077
0.000144294
0.000208851
0.000103856
0.000200184
0.000209365
0.000103703
0.000144279
9.99881e-05
5.07298e-05
5.07246e-05
0.000100068
0.00014425
0.000200459
0.000103412
0.000210155
0.000103621
0.00020981
0.000144158
9.99145e-05
5.0724e-05
5.07259e-05
9.97687e-05
0.00014424
0.000200397
0.000210139
0.000103434
0.000209793
0.000103594
0.000144155
9.99082e-05
5.07216e-05
5.07223e-05
9.97674e-05
7.82187e-05
7.82352e-05
0.000181928
7.78382e-05
7.78837e-05
2.38851e-05
2.38833e-05
2.38813e-05
2.38799e-05
0.000181804
7.75105e-05
7.75574e-05
7.77177e-05
7.77664e-05
2.38836e-05
2.38825e-05
0.000144316
0.000208846
0.000103864
0.000200201
0.000209367
0.000103718
0.000144288
0.000100011
5.07327e-05
5.07261e-05
0.000100086
0.00010001
5.07313e-05
5.07257e-05
0.000100086
0.000144267
0.000200456
0.000210163
0.000103425
0.000209816
0.000103631
0.00014417
0.000144262
0.000200419
0.000210152
0.000103443
0.000209801
0.000103609
0.000144172
9.99287e-05
5.07205e-05
5.07227e-05
9.97757e-05
9.99326e-05
5.07218e-05
5.07231e-05
9.97827e-05
2.38838e-05
2.3883e-05
2.38836e-05
2.38828e-05
0.000181767
7.75905e-05
7.75949e-05
7.77588e-05
7.77698e-05
2.38839e-05
2.38824e-05
2.38835e-05
2.38821e-05
0.000210448
0.000103368
0.000144095
5.0722e-05
9.97026e-05
0.000103372
5.0722e-05
2.38844e-05
2.38839e-05
3.67011e-05
4.10447e-05
9.45479e-05
0.000100044
4.1044e-05
9.46052e-05
3.67013e-05
2.03097e-05
5.07342e-05
7.93929e-05
7.92666e-05
2.03104e-05
2.0307e-05
7.8987e-05
5.0729e-05
7.90944e-05
2.03069e-05
3.67019e-05
0.000100103
4.10429e-05
9.47646e-05
4.1044e-05
9.47234e-05
3.67016e-05
2.3885e-05
2.38834e-05
3.67031e-05
9.4571e-05
4.10445e-05
0.000100054
9.46285e-05
4.10438e-05
3.67033e-05
2.03114e-05
5.07317e-05
7.94173e-05
7.93136e-05
2.03121e-05
2.03089e-05
7.9035e-05
5.07269e-05
7.91352e-05
2.03087e-05
3.67037e-05
0.000100109
9.4774e-05
4.10426e-05
9.47362e-05
4.10437e-05
3.67034e-05
2.38825e-05
2.38808e-05
8.08166e-05
2.16852e-05
2.16822e-05
2.16858e-05
2.16828e-05
8.06136e-05
0.000105152
0.000129022
7.80501e-05
4.86392e-05
0.000128955
4.86365e-05
0.000105311
0.00010516
0.000129009
7.80647e-05
4.86301e-05
0.000128944
4.86275e-05
0.000105319
0.000104928
4.86293e-05
7.79355e-05
0.000128712
0.000128786
4.8631e-05
0.000104785
0.000104937
4.86203e-05
7.7949e-05
0.000128705
0.000128778
4.8622e-05
0.000104794
8.10539e-05
2.16913e-05
2.16884e-05
2.16896e-05
2.16866e-05
8.13158e-05
0.000104388
0.000128266
4.86281e-05
7.75468e-05
0.00010437
0.000128271
4.86329e-05
0.000104397
0.000128255
4.86187e-05
7.75461e-05
0.000104379
0.00012826
4.86234e-05
8.03579e-05
2.16895e-05
2.16866e-05
8.0271e-05
2.16965e-05
2.16936e-05
2.38852e-05
2.38834e-05
2.3884e-05
2.38822e-05
8.05748e-05
2.16794e-05
2.16761e-05
2.16802e-05
2.16769e-05
8.03193e-05
0.000105129
0.000129148
7.8112e-05
4.8641e-05
4.8636e-05
0.00012905
0.000105371
0.000105132
0.000129129
7.81117e-05
4.86297e-05
4.86247e-05
0.000129032
0.000105372
0.000104835
4.86253e-05
7.7962e-05
0.000128698
4.86286e-05
0.00010463
0.000128821
0.000104836
4.8614e-05
7.79611e-05
0.00012868
4.86173e-05
0.000104632
0.000128804
8.08907e-05
2.16879e-05
2.16847e-05
2.16852e-05
2.1682e-05
8.12544e-05
2.38824e-05
2.38827e-05
2.38812e-05
2.38815e-05
8.00232e-05
2.16779e-05
2.16746e-05
8.01338e-05
2.16787e-05
2.16755e-05
0.000104203
0.000128179
7.75449e-05
4.86209e-05
4.86198e-05
0.000128222
0.000104188
0.000104205
0.000128164
7.75464e-05
4.86097e-05
4.86085e-05
0.000128206
0.00010419
0.000104297
4.86212e-05
0.000128475
7.76323e-05
0.000104415
4.86204e-05
0.000128375
0.000104299
4.86099e-05
0.000128458
7.76329e-05
0.000104416
4.86091e-05
0.000128358
7.99771e-05
2.16842e-05
2.16809e-05
2.16797e-05
2.16764e-05
7.99765e-05
3.67033e-05
4.1045e-05
9.45824e-05
0.000100049
4.10442e-05
9.46371e-05
3.67035e-05
2.03114e-05
5.07355e-05
7.94212e-05
7.93321e-05
2.0312e-05
2.0309e-05
7.90628e-05
5.07312e-05
7.91586e-05
2.03087e-05
3.67038e-05
0.000100104
4.1043e-05
9.47709e-05
4.10441e-05
9.47376e-05
3.67035e-05
3.67011e-05
4.10447e-05
9.44114e-05
9.98681e-05
3.67007e-05
4.10455e-05
9.43597e-05
2.03049e-05
5.07206e-05
7.86161e-05
2.0306e-05
7.86664e-05
2.03058e-05
7.88478e-05
5.07221e-05
2.03054e-05
7.87658e-05
3.6701e-05
9.97657e-05
4.10473e-05
9.42086e-05
3.67021e-05
4.10458e-05
9.42433e-05
3.67034e-05
4.1045e-05
9.44527e-05
9.9879e-05
3.67029e-05
4.10458e-05
9.44005e-05
2.03066e-05
5.0723e-05
7.86826e-05
7.87304e-05
2.03076e-05
2.03075e-05
7.89145e-05
5.07246e-05
2.03072e-05
7.88378e-05
3.67033e-05
9.97771e-05
4.10476e-05
9.4249e-05
4.10461e-05
9.42846e-05
3.67043e-05
8.0759e-05
2.16797e-05
2.16822e-05
2.16807e-05
2.16833e-05
8.05025e-05
0.000105228
0.000129123
7.81285e-05
4.86336e-05
4.86295e-05
0.000129045
0.000105436
0.000105221
0.000129134
7.81101e-05
4.86418e-05
0.000129055
4.86377e-05
0.000105428
0.000104956
4.86193e-05
7.79873e-05
0.000128748
4.86223e-05
0.000128847
0.000104766
0.000104948
4.86277e-05
7.79768e-05
0.000128758
0.000128859
4.86306e-05
0.000104759
8.10621e-05
2.16884e-05
2.1691e-05
2.16859e-05
2.16885e-05
8.13951e-05
2.38854e-05
2.3884e-05
2.38824e-05
2.38828e-05
8.01513e-05
2.16775e-05
2.16801e-05
8.02955e-05
2.1678e-05
2.16805e-05
0.000104291
0.000128227
7.75895e-05
4.86134e-05
0.00012828
4.86128e-05
0.000104252
0.000104287
0.000128248
7.75864e-05
4.8622e-05
4.86214e-05
0.000128299
0.000104249
0.000104414
4.8615e-05
0.000128534
7.76799e-05
0.000128441
0.000104546
4.86139e-05
0.000104409
4.86234e-05
0.000128549
7.76719e-05
0.000104539
4.86224e-05
0.000128456
8.00708e-05
2.1681e-05
2.16836e-05
2.16781e-05
2.16807e-05
8.00493e-05
2.38831e-05
2.38835e-05
3.67004e-05
4.10443e-05
9.45492e-05
0.000100049
4.10436e-05
9.4605e-05
3.67007e-05
2.03095e-05
5.0727e-05
7.93838e-05
7.92619e-05
2.03101e-05
2.03069e-05
7.89894e-05
5.07222e-05
7.90917e-05
2.03069e-05
3.67011e-05
0.000100106
4.10424e-05
9.47596e-05
4.10435e-05
9.47202e-05
3.67008e-05
3.67032e-05
9.44385e-05
4.10445e-05
9.98791e-05
3.67027e-05
9.43869e-05
4.10454e-05
2.03069e-05
5.07187e-05
7.86746e-05
2.0308e-05
7.87143e-05
2.03076e-05
7.88887e-05
5.07201e-05
2.03072e-05
7.8813e-05
3.67032e-05
9.97801e-05
9.42423e-05
4.10473e-05
3.67044e-05
9.42744e-05
4.10457e-05
3.67006e-05
4.10443e-05
9.44159e-05
9.9874e-05
3.67001e-05
4.10452e-05
9.43669e-05
2.03052e-05
5.0715e-05
7.86518e-05
7.86903e-05
2.03065e-05
2.0306e-05
7.88544e-05
5.07161e-05
2.03055e-05
7.87805e-05
3.67006e-05
9.97758e-05
4.10471e-05
9.42268e-05
4.10455e-05
9.42563e-05
3.67019e-05
3.67039e-05
9.45723e-05
4.10446e-05
0.000100023
9.46192e-05
4.10435e-05
3.67043e-05
2.03122e-05
5.07339e-05
7.93823e-05
7.93143e-05
2.03125e-05
2.03102e-05
7.90779e-05
5.07304e-05
7.91582e-05
2.03101e-05
3.67043e-05
0.00010007
9.47358e-05
4.1042e-05
9.47073e-05
4.10433e-05
3.67037e-05
3.67014e-05
4.10444e-05
9.45463e-05
0.000100014
4.10433e-05
9.45896e-05
3.67019e-05
2.03105e-05
5.07287e-05
7.93197e-05
7.92539e-05
2.03107e-05
2.03088e-05
7.90371e-05
5.07257e-05
7.91077e-05
2.03089e-05
3.67017e-05
0.000100061
4.10417e-05
9.47041e-05
4.10431e-05
9.46758e-05
3.67011e-05
3.67046e-05
9.44593e-05
4.10448e-05
9.98812e-05
3.6704e-05
9.4415e-05
4.10459e-05
2.03083e-05
5.07238e-05
7.87354e-05
7.87765e-05
2.03093e-05
2.03091e-05
7.8941e-05
5.07252e-05
2.03087e-05
7.88768e-05
3.67046e-05
9.9795e-05
9.42845e-05
4.10479e-05
9.43143e-05
4.10463e-05
3.67059e-05
3.67024e-05
4.10446e-05
9.44407e-05
9.98762e-05
3.67017e-05
4.10458e-05
9.44009e-05
2.03075e-05
5.07212e-05
7.8735e-05
7.87695e-05
2.03085e-05
2.03082e-05
7.89139e-05
5.0722e-05
2.03076e-05
7.88587e-05
3.67026e-05
9.97926e-05
4.10479e-05
9.42822e-05
4.10462e-05
9.43086e-05
3.6704e-05
8.07064e-05
2.1679e-05
2.16824e-05
2.16796e-05
2.16831e-05
8.04793e-05
0.000105172
0.000129109
7.80942e-05
4.86299e-05
4.86255e-05
0.000129022
0.000105386
0.000105168
0.00012913
7.81239e-05
4.86421e-05
0.000129047
4.8638e-05
0.000105383
0.000104904
4.86158e-05
7.79506e-05
0.000128702
4.86185e-05
0.000128813
0.000104726
0.000104903
4.86286e-05
7.79857e-05
0.000128745
0.000128844
4.86312e-05
0.000104725
8.09896e-05
2.16863e-05
2.16898e-05
2.16841e-05
2.16876e-05
8.13158e-05
2.38848e-05
2.38833e-05
2.38802e-05
2.38804e-05
8.02062e-05
2.16776e-05
2.16811e-05
8.03099e-05
2.16783e-05
2.16818e-05
0.000104328
0.000128226
7.75533e-05
4.8612e-05
0.000128265
4.86108e-05
0.000104311
0.000104333
0.000128279
7.76038e-05
4.86249e-05
4.86238e-05
0.000128316
0.000104316
0.000104422
4.8612e-05
0.000128496
7.76336e-05
0.000128407
0.000104528
4.86114e-05
0.000104425
4.8625e-05
0.000128541
7.76865e-05
0.00010453
4.86244e-05
0.000128459
8.01593e-05
2.16827e-05
2.16862e-05
2.1679e-05
2.16825e-05
8.01561e-05
2.38826e-05
2.38829e-05
3.67022e-05
9.45791e-05
4.10449e-05
0.000100037
9.46255e-05
4.10439e-05
3.67026e-05
2.03116e-05
5.07314e-05
7.93942e-05
7.93204e-05
2.0312e-05
2.03094e-05
7.90726e-05
5.07277e-05
7.916e-05
2.03093e-05
3.67027e-05
0.000100081
9.47397e-05
4.10423e-05
9.47148e-05
4.10437e-05
3.67021e-05
3.67038e-05
9.45705e-05
4.10453e-05
0.000100037
9.46134e-05
4.10442e-05
3.67043e-05
2.03117e-05
5.07301e-05
7.937e-05
7.92856e-05
2.03118e-05
2.03097e-05
7.90613e-05
5.07269e-05
7.9142e-05
2.03098e-05
3.67042e-05
0.000100079
9.47266e-05
4.10426e-05
9.4701e-05
4.1044e-05
3.67036e-05
3.67028e-05
9.44609e-05
4.10451e-05
9.98942e-05
3.67022e-05
9.44156e-05
4.10461e-05
2.03073e-05
5.07204e-05
7.87166e-05
7.87603e-05
2.03083e-05
2.03082e-05
7.89329e-05
5.07219e-05
2.03078e-05
7.8862e-05
3.67027e-05
9.98045e-05
9.42774e-05
4.1048e-05
9.43083e-05
4.10465e-05
3.67039e-05
3.67046e-05
9.44598e-05
4.10455e-05
9.98976e-05
3.6704e-05
9.44183e-05
4.10465e-05
2.03079e-05
5.07216e-05
7.87396e-05
7.87827e-05
2.03091e-05
2.03088e-05
7.8939e-05
5.07226e-05
2.03083e-05
7.88738e-05
3.67046e-05
9.98121e-05
9.4289e-05
4.10485e-05
9.43181e-05
4.10469e-05
3.67059e-05
2.38837e-05
2.38828e-05
2.38836e-05
2.38826e-05
8.03376e-05
2.16836e-05
2.16807e-05
8.04509e-05
2.16842e-05
2.16812e-05
0.000104412
0.000128323
7.76279e-05
4.86266e-05
0.000104387
0.000128352
4.86255e-05
0.000104421
0.000128314
7.76346e-05
4.86172e-05
0.000104396
0.000128344
4.86163e-05
0.00010451
4.86263e-05
0.000128542
7.76964e-05
0.000104607
0.00012848
4.8626e-05
0.000104519
4.86172e-05
0.000128535
7.77059e-05
0.000104616
0.000128474
4.86168e-05
8.02766e-05
2.16872e-05
2.16842e-05
8.02618e-05
2.16844e-05
2.16814e-05
2.38828e-05
2.3883e-05
2.38825e-05
2.38827e-05
2.03102e-05
7.86852e-05
5.07241e-05
2.03084e-05
7.86747e-05
3.6707e-05
9.96906e-05
4.10487e-05
9.42198e-05
3.67047e-05
4.10511e-05
9.42099e-05
5.07237e-05
2.38864e-05
2.38859e-05
0.000200273
0.000200268
0.000205295
0.000201181
0.000201174
0.000190416
0.000189335
0.000138402
0.000161798
0.000161785
0.000181805
0.000161799
0.000161789
0.00013851
0.000137631
0.000161369
0.000161361
0.000181885
0.000137617
0.000161391
0.000161382
0.000138459
0.000161937
0.000161924
0.000181908
0.000161899
0.000161886
0.000138638
0.000137506
0.00018172
0.000161313
0.000161302
0.000161355
0.000161344
0.000137474
0.00013851
0.000161892
0.000161905
0.000181885
0.000161897
0.000161885
0.000138656
0.000137599
0.000181766
0.000161364
0.000161381
0.000161418
0.000161432
0.000137548
0.000138469
0.000161889
0.000161906
0.000181882
0.000161887
0.00016187
0.000138625
0.000137618
0.000181758
0.000161367
0.000161397
0.000161404
0.000161433
0.000137587
0.000137687
0.000181753
0.000161425
0.000161417
0.000137657
0.000161447
0.000161439
0.00020027
0.000200272
0.000205282
0.000201176
0.000201174
0.000190419
0.000189339
0.000200271
0.000200273
0.00020528
0.000201176
0.000201176
0.000190424
0.000189344
0.000200287
0.000200281
0.000205269
0.000201182
0.000201178
0.000190433
0.000189355
0.000205917
0.000202856
0.000202852
0.000202053
0.000202048
0.000191518
0.000192602
0.000205908
0.000202851
0.000202843
0.000202048
0.000202042
0.00019152
0.000192601
0.000205905
0.000202851
0.000202849
0.000202047
0.000202045
0.000191523
0.000192605
0.000205887
0.000202842
0.000202843
0.000202045
0.000202043
0.000191529
0.000192606
0.000171311
0.000137748
0.000176529
0.000144296
0.000137764
0.00017646
0.000171383
0.000160895
0.000147764
0.000103887
0.000123069
0.000147769
0.000123057
0.000160822
0.000160868
0.000122921
0.000103792
0.000147677
0.00014772
0.000122963
0.000160919
0.000171257
0.000144336
0.000137798
0.000176272
0.000137814
0.000176363
0.000171163
0.000171322
0.000176541
0.000137761
0.000144312
0.00017647
0.000137777
0.000171394
0.000160907
0.000147772
0.0001039
0.000123085
0.000147777
0.000123073
0.000160834
0.000160881
0.000122935
0.000103804
0.000147681
0.000147726
0.000122979
0.000160931
0.000171264
0.000144352
0.000176274
0.000137809
0.000176368
0.000137827
0.000171169
0.000138199
0.000181754
0.000161668
0.00016166
0.000161724
0.000161714
0.000138082
0.000138187
0.00018183
0.000161681
0.000161668
0.000138003
0.000161796
0.000161784
0.000137642
0.000181879
0.000161566
0.000161554
0.000137769
0.000161451
0.000161439
0.000171336
0.000137756
0.00017656
0.00014433
0.000137785
0.000176493
0.000171403
0.000160932
0.000147798
0.000103914
0.000123118
0.000123087
0.000147795
0.000160867
0.000160889
0.000122899
0.000103799
0.000147666
0.000122958
0.000147735
0.000160932
0.000171292
0.000144371
0.000137841
0.00017631
0.000137843
0.000176401
0.000171202
0.000171332
0.000137769
0.000176559
0.000144332
0.000137792
0.000176491
0.000171401
0.000160907
0.000147763
0.000103904
0.0001231
0.000123083
0.000147769
0.000160835
0.000160877
0.000122928
0.000103805
0.000147674
0.000122977
0.000160925
0.000147719
0.000171279
0.000144373
0.000137835
0.000176304
0.000137845
0.000176396
0.000171185
0.000171432
0.000137656
0.000176589
0.000144242
0.000171382
0.000137611
0.000176638
0.00016075
0.000147327
0.000103408
0.000122476
0.000147402
0.000122516
0.000160736
0.000160853
0.000122732
0.000147581
0.000103532
0.000147481
0.00016085
0.000122673
0.000171376
0.000144155
0.000137459
0.000176662
0.000137494
0.000176623
0.000171413
0.000171442
0.00013768
0.000176591
0.00014425
0.00017139
0.000137641
0.000176641
0.000160774
0.000147366
0.000103447
0.000122528
0.000122567
0.000147437
0.00016077
0.000160874
0.000122773
0.000147597
0.000103571
0.000160851
0.000122718
0.000147514
0.00017139
0.000144166
0.000137495
0.000176668
0.000137528
0.000176629
0.000171432
0.000138268
0.000181829
0.000161716
0.000161728
0.000161812
0.0001618
0.000138107
0.000137753
0.000181914
0.000161611
0.000161624
0.000161511
0.000137882
0.000161525
0.000171338
0.000137766
0.000176561
0.000144333
0.000137793
0.000176495
0.000171405
0.000160925
0.000147783
0.000103908
0.000123114
0.000123091
0.000147782
0.000160857
0.000160886
0.000122917
0.000103796
0.000147657
0.000122972
0.000147723
0.000160931
0.00017129
0.000144376
0.000137843
0.000176309
0.000137849
0.000176401
0.000171197
0.000171325
0.000176556
0.000137749
0.000144328
0.000176489
0.000137776
0.000171392
0.000160903
0.000147757
0.00010389
0.000123096
0.000123068
0.000147758
0.000160835
0.000160864
0.000122889
0.00010378
0.000147646
0.000122944
0.000160909
0.000147702
0.000171277
0.00014437
0.000176304
0.00013783
0.000176395
0.000137834
0.000171186
0.000171439
0.000137671
0.000176592
0.000144248
0.000171388
0.000137629
0.000176641
0.000160758
0.000147325
0.000103408
0.000122505
0.000147397
0.000122541
0.000160749
0.000160861
0.000122753
0.000147573
0.000103531
0.000147475
0.000160851
0.000122696
0.000171384
0.000144162
0.000137484
0.000176667
0.000137516
0.000176628
0.000171424
0.000171425
0.000176586
0.000137653
0.000144242
0.000171375
0.000176635
0.000137612
0.000160745
0.000147342
0.000103405
0.000122494
0.000122526
0.000147404
0.000160743
0.000160845
0.000122727
0.000147565
0.00010352
0.00016083
0.000122673
0.000147478
0.000171372
0.000144158
0.000176663
0.000137472
0.000176623
0.000137501
0.000171414
0.000171283
0.000176519
0.000137714
0.000144285
0.00017645
0.000137729
0.000171353
0.000160844
0.000147692
0.000103832
0.000123014
0.000147696
0.000123001
0.000160775
0.000160817
0.00012287
0.000103742
0.000147616
0.000147649
0.000122907
0.000160867
0.000171231
0.000144324
0.000176264
0.000137764
0.000176354
0.000137778
0.000171141
0.000171434
0.000137671
0.00017657
0.000144238
0.000171378
0.000137643
0.000176623
0.000160786
0.000147387
0.000103452
0.000122565
0.000160794
0.000147451
0.000122597
0.00016088
0.000122781
0.000147602
0.000103568
0.000160847
0.000147524
0.000122735
0.000171393
0.000144172
0.000137524
0.000176668
0.00017144
0.000137546
0.000176624
0.000171408
0.00017656
0.000137644
0.00014423
0.000171352
0.000176613
0.000137619
0.000160753
0.000147405
0.00010346
0.000122564
0.000122587
0.000147442
0.00016078
0.000160837
0.000122743
0.000147554
0.000103557
0.000160799
0.000122706
0.000147501
0.000171375
0.000144167
0.000176662
0.000137518
0.000176617
0.000137534
0.000171425
0.000138224
0.000181819
0.000161687
0.00016171
0.000161798
0.000161779
0.000138067
0.000137746
0.000181901
0.000161584
0.000161609
0.000161492
0.000137856
0.000161519
0.000171295
0.000176532
0.00013774
0.000144306
0.000176461
0.000137752
0.000171367
0.000160851
0.000147687
0.000103843
0.000123038
0.000147695
0.000123025
0.000160779
0.000160827
0.000122895
0.000103756
0.000147621
0.000147649
0.000122932
0.000160879
0.000171238
0.000144344
0.000176267
0.000137783
0.00017636
0.000137802
0.000171145
0.000171446
0.000176584
0.000137683
0.000144255
0.000171391
0.000176638
0.000137653
0.000160795
0.000147402
0.000103463
0.000122567
0.000160802
0.000147459
0.000122601
0.00016089
0.000122792
0.000147606
0.00010358
0.000160859
0.000147531
0.000122743
0.000171403
0.000144185
0.000176683
0.000137528
0.00017145
0.000176639
0.000137552
0.000171424
0.000176576
0.000137667
0.000144251
0.000171368
0.00017663
0.000137642
0.000160765
0.000147409
0.00010347
0.000122573
0.0001226
0.000147447
0.000160791
0.00016085
0.000122765
0.000147559
0.000103571
0.000160811
0.000122725
0.000147507
0.00017139
0.000144186
0.000176679
0.000137531
0.000176634
0.00013755
0.000171439
0.000137808
0.000181873
0.000161584
0.000161576
0.000137899
0.000161524
0.000161517
0.000160736
0.000147361
0.000122479
0.000103361
0.000147357
0.000160696
0.000122482
0.000171439
0.000144096
0.00017665
0.000137451
0.000176696
0.000171384
0.000137456
0.000147363
0.000103363
0.000147357
0.000123745
0.000140149
0.000140153
0.000137716
0.000126559
0.000143254
0.000143252
0.000140172
0.000129541
0.000146377
0.000146382
0.00014254
0.00013267
0.0001494
0.000149404
0.000144891
0.000135885
0.000152422
0.00015241
0.0001471
0.000139197
0.000155279
0.00015529
0.000149271
0.000142604
0.000158239
0.00015824
0.000151584
0.000146114
0.000161074
0.000161068
0.00015361
0.000149567
0.000163758
0.000163762
0.000155597
0.000153104
0.000166464
0.000166454
0.000157616
0.000156644
0.000169117
0.000169123
0.000159574
0.000160221
0.000171632
0.000171637
0.000161417
0.00016373
0.000174182
0.000174159
0.000163287
0.000167242
0.000176502
0.000176514
0.000164909
0.000170699
0.000178928
0.000178924
0.00016682
0.000174143
0.000181051
0.000181052
0.000168032
0.000177386
0.000183244
0.000183229
0.000169853
0.00018087
0.000185617
0.000185616
0.000171631
0.000184136
0.000187417
0.000187419
0.000172667
0.000187157
0.000189363
0.000189348
0.000174182
0.000190291
0.000191327
0.000191332
0.000175491
0.000193292
0.000193031
0.000193009
0.00017676
0.000196226
0.000194866
0.000194876
0.00017803