/*--------------------------------*- C++ -*----------------------------------*\
| =========                 |                                                 |
| \\      /  F ield         | OpenFOAM: The Open Source CFD Toolbox           |
|  \\    /   O peration     | Version:  v1912                                 |
|   \\  /    A nd           | Website:  www.openfoam.com                      |
|    \\/     M anipulation  |                                                 |
\*---------------------------------------------------------------------------*/
FoamFile
{
    version     2.0;
    format      ascii;
    class       volScalarField;
    location    "2";
    object      nut;
}
// * * * * * * * * * * * * * * * * * * * * * * * * * * * * * * * * * * * * * //

dimensions      [0 2 -1 0 0 0 0];


internalField   nonuniform List<scalar> 
171728
(
1.69776e-06
1.68396e-06
1.68468e-06
6.97169e-07
1.19765e-07
1.38269e-07
1.38427e-07
1.30437e-07
9.193e-09
1.04555e-08
1.04661e-08
1.26015e-07
2.97051e-09
5.37456e-09
5.34511e-09
1.26268e-07
3.14742e-09
5.04308e-09
5.04593e-09
1.26272e-07
3.15088e-09
5.0322e-09
5.03613e-09
1.26273e-07
3.14057e-09
5.0358e-09
5.02584e-09
1.26273e-07
3.15853e-09
5.04484e-09
5.03868e-09
1.26271e-07
3.15811e-09
5.04036e-09
5.03045e-09
1.26275e-07
3.15412e-09
5.03834e-09
5.02986e-09
1.26273e-07
3.1479e-09
5.0386e-09
5.03503e-09
1.26273e-07
3.15585e-09
5.03656e-09
5.03408e-09
1.26273e-07
3.15692e-09
5.07318e-09
5.03785e-09
1.26272e-07
3.16211e-09
5.06276e-09
5.02986e-09
1.26273e-07
3.14696e-09
5.02517e-09
5.03639e-09
1.26272e-07
3.14775e-09
5.02121e-09
5.03081e-09
1.26274e-07
3.15856e-09
5.04331e-09
5.03562e-09
1.26276e-07
3.15042e-09
5.02754e-09
5.03121e-09
1.26274e-07
3.16514e-09
5.01309e-09
5.03558e-09
1.26272e-07
3.14575e-09
5.05674e-09
5.0325e-09
1.26264e-07
3.27455e-09
5.0291e-09
5.03316e-09
1.26276e-07
3.1488e-09
5.04133e-09
5.03331e-09
1.26275e-07
3.15542e-09
5.03954e-09
5.0339e-09
1.26276e-07
3.15381e-09
5.04038e-09
5.03537e-09
1.26276e-07
3.15568e-09
5.03727e-09
5.03249e-09
1.26277e-07
3.15234e-09
5.03724e-09
5.03166e-09
1.26276e-07
3.15693e-09
5.04188e-09
5.03655e-09
1.26276e-07
3.15335e-09
5.039e-09
5.03369e-09
1.26276e-07
3.15474e-09
5.03825e-09
5.03295e-09
1.26276e-07
3.15425e-09
5.03956e-09
5.03439e-09
1.26275e-07
3.15526e-09
5.0408e-09
5.03429e-09
1.26276e-07
3.15504e-09
5.03886e-09
5.0333e-09
1.26277e-07
3.15388e-09
5.0409e-09
5.03335e-09
1.26276e-07
3.15373e-09
5.04054e-09
5.03302e-09
1.26276e-07
3.15612e-09
5.04224e-09
5.03392e-09
1.26277e-07
3.15433e-09
5.03711e-09
5.02953e-09
1.26277e-07
3.15549e-09
5.04111e-09
5.03356e-09
1.26276e-07
3.15461e-09
5.04039e-09
5.03284e-09
1.26276e-07
3.15532e-09
5.04278e-09
5.03975e-09
1.26277e-07
3.17184e-09
5.04771e-09
5.03848e-09
1.26264e-07
3.31392e-09
5.02761e-09
5.03315e-09
1.26276e-07
3.15195e-09
5.02312e-09
5.03015e-09
1.26276e-07
3.15509e-09
5.03892e-09
5.02924e-09
1.26277e-07
3.15589e-09
5.03464e-09
5.02758e-09
1.26277e-07
3.15856e-09
5.03712e-09
5.03367e-09
1.26277e-07
3.15732e-09
5.03523e-09
5.02906e-09
1.26276e-07
3.15509e-09
5.03336e-09
5.03144e-09
1.26279e-07
3.15773e-09
5.03637e-09
5.03701e-09
1.26277e-07
3.15688e-09
5.0361e-09
5.03698e-09
1.26276e-07
3.15717e-09
5.03527e-09
5.03612e-09
1.26278e-07
3.155e-09
5.03257e-09
5.03369e-09
1.26277e-07
3.15802e-09
5.03677e-09
5.03696e-09
1.26276e-07
3.1571e-09
5.03584e-09
5.03605e-09
1.26277e-07
3.15846e-09
5.0449e-09
5.03597e-09
1.26277e-07
3.15945e-09
5.04039e-09
5.03449e-09
1.26277e-07
3.15452e-09
5.03582e-09
5.03883e-09
1.26273e-07
3.15072e-09
5.04211e-09
5.04094e-09
1.26261e-07
3.15091e-09
5.04062e-09
5.03895e-09
1.26262e-07
3.15198e-09
5.04385e-09
5.04228e-09
1.26259e-07
3.15203e-09
5.04057e-09
5.03782e-09
1.26261e-07
3.15235e-09
5.04214e-09
5.04064e-09
1.2626e-07
3.15073e-09
5.04081e-09
5.03888e-09
1.2626e-07
3.15077e-09
5.04216e-09
5.04034e-09
1.2626e-07
3.15121e-09
5.04224e-09
5.04082e-09
1.2626e-07
3.15176e-09
5.04247e-09
5.04097e-09
1.2626e-07
3.15108e-09
5.04118e-09
5.03959e-09
1.26261e-07
3.1511e-09
5.04223e-09
5.04064e-09
1.2626e-07
3.15183e-09
5.0416e-09
5.04055e-09
1.26261e-07
3.1461e-09
5.04122e-09
5.04027e-09
1.26261e-07
3.1454e-09
5.04129e-09
5.02113e-09
1.26262e-07
3.14819e-09
5.04526e-09
5.03963e-09
1.26259e-07
3.15236e-09
5.04248e-09
5.04082e-09
1.26261e-07
3.15011e-09
5.03913e-09
5.03732e-09
1.26261e-07
3.1499e-09
5.04065e-09
5.03909e-09
1.26259e-07
3.15318e-09
5.04367e-09
5.04236e-09
1.26259e-07
3.15028e-09
5.04151e-09
5.04011e-09
1.2626e-07
3.14967e-09
5.04008e-09
5.03852e-09
1.26259e-07
3.15234e-09
5.0425e-09
5.04108e-09
1.26259e-07
3.15187e-09
5.04198e-09
5.04034e-09
1.26259e-07
3.15061e-09
5.04122e-09
5.03968e-09
1.26261e-07
3.15027e-09
5.04258e-09
5.04106e-09
1.26259e-07
3.15184e-09
5.04148e-09
5.03989e-09
1.26259e-07
3.15294e-09
5.04321e-09
5.04155e-09
1.2626e-07
3.15263e-09
5.04117e-09
5.03982e-09
1.26259e-07
3.15358e-09
5.041e-09
5.03938e-09
1.2626e-07
3.15533e-09
5.04206e-09
5.0407e-09
1.26259e-07
3.15386e-09
5.04365e-09
5.04252e-09
1.26259e-07
3.15179e-09
5.04061e-09
5.03957e-09
1.26259e-07
3.15297e-09
5.04082e-09
5.0384e-09
1.26259e-07
3.155e-09
5.04314e-09
5.0413e-09
1.26259e-07
3.15623e-09
5.03861e-09
5.03476e-09
1.26263e-07
3.21518e-09
5.05735e-09
5.05924e-09
1.26259e-07
5.77122e-09
5.907e-09
5.95442e-09
1.26131e-07
5.84989e-08
5.3192e-08
5.31665e-08
1.23529e-07
6.36126e-07
2.38815e-07
2.38855e-07
6.47688e-07
5.91962e-07
9.30123e-07
9.30445e-07
5.92076e-07
9.30236e-07
9.30074e-07
2.58791e-06
2.58798e-06
2.58789e-06
2.58795e-06
9.30179e-07
9.29869e-07
5.91796e-07
9.29862e-07
9.30234e-07
5.91683e-07
6.97271e-07
3.30874e-07
1.68446e-06
1.68447e-06
3.04818e-07
3.04908e-07
6.97241e-07
3.3086e-07
1.68446e-06
1.685e-06
3.05074e-07
3.0493e-07
1.68474e-06
3.04913e-07
3.04716e-07
6.97161e-07
3.30906e-07
1.68491e-06
3.04876e-07
3.04937e-07
3.30931e-07
1.30484e-07
3.19384e-07
1.38333e-07
1.38375e-07
1.70045e-08
1.71031e-08
1.30487e-07
3.19432e-07
1.38353e-07
1.38321e-07
1.69524e-08
1.7005e-08
1.38278e-07
1.68901e-08
1.69931e-08
1.30516e-07
3.19383e-07
1.38477e-07
1.69635e-08
1.69032e-08
3.19366e-07
1.25931e-07
3.18451e-07
1.05156e-08
1.05141e-08
5.73303e-09
5.72336e-09
1.25942e-07
3.18467e-07
1.05247e-08
1.05173e-08
5.6845e-09
5.73141e-09
1.05304e-08
5.69415e-09
5.75323e-09
1.25998e-07
3.18489e-07
1.05276e-08
5.65114e-09
5.6367e-09
3.18444e-07
1.26254e-07
3.18409e-07
5.4072e-09
5.44872e-09
5.11297e-09
5.12935e-09
1.26223e-07
3.18415e-07
5.3332e-09
5.40415e-09
5.05261e-09
5.11998e-09
5.42407e-09
5.05314e-09
5.10575e-09
1.26279e-07
3.18447e-07
5.35123e-09
5.03315e-09
5.03953e-09
3.18388e-07
1.26251e-07
3.18402e-07
5.11066e-09
5.11854e-09
5.09683e-09
5.1158e-09
1.2623e-07
3.18407e-07
5.03872e-09
5.1083e-09
5.05028e-09
5.10023e-09
5.09257e-09
5.02867e-09
5.08506e-09
1.26275e-07
3.18438e-07
5.03038e-09
5.01278e-09
5.02015e-09
3.18379e-07
1.26252e-07
3.18415e-07
5.10365e-09
5.1266e-09
5.07562e-09
5.13904e-09
1.26233e-07
3.18419e-07
5.02071e-09
5.09941e-09
5.03695e-09
5.0894e-09
5.08379e-09
5.03876e-09
5.07413e-09
1.26276e-07
3.18454e-07
5.02203e-09
5.00212e-09
5.00913e-09
3.18394e-07
1.26256e-07
3.18412e-07
5.05343e-09
5.12887e-09
5.11368e-09
5.12111e-09
1.26228e-07
3.18415e-07
5.00526e-09
5.08804e-09
5.04231e-09
5.09389e-09
5.07216e-09
5.04066e-09
5.08072e-09
1.26276e-07
3.18448e-07
5.0103e-09
5.00871e-09
5.01529e-09
3.18386e-07
1.26256e-07
3.18406e-07
5.105e-09
5.12771e-09
5.10287e-09
5.12676e-09
1.26222e-07
3.18407e-07
5.0273e-09
5.10016e-09
5.05307e-09
5.09949e-09
5.085e-09
5.04404e-09
5.0856e-09
1.26273e-07
3.18439e-07
5.02338e-09
5.01472e-09
5.02044e-09
3.18377e-07
1.26237e-07
3.18417e-07
5.0986e-09
5.12318e-09
5.06735e-09
5.10853e-09
1.26227e-07
3.18435e-07
5.02211e-09
5.09733e-09
5.02821e-09
5.09069e-09
5.08123e-09
5.03417e-09
5.0755e-09
1.26278e-07
3.18454e-07
5.01704e-09
5.00294e-09
5.00982e-09
3.18393e-07
1.26247e-07
3.18408e-07
5.08234e-09
5.0928e-09
5.09773e-09
5.06266e-09
1.26219e-07
3.18418e-07
5.02325e-09
5.09337e-09
5.02085e-09
5.09681e-09
5.07633e-09
5.03853e-09
5.08143e-09
1.26276e-07
3.18447e-07
5.01452e-09
5.00947e-09
5.01652e-09
3.18385e-07
1.26261e-07
3.18414e-07
5.15536e-09
5.09495e-09
5.10094e-09
5.06857e-09
1.26227e-07
3.18418e-07
5.02964e-09
5.09638e-09
5.03585e-09
5.09499e-09
5.07991e-09
5.03729e-09
5.07903e-09
1.26276e-07
3.18449e-07
5.01853e-09
5.00799e-09
5.01245e-09
3.18389e-07
1.26246e-07
3.18402e-07
5.10115e-09
5.06656e-09
5.10062e-09
5.05184e-09
1.26228e-07
3.18445e-07
5.03387e-09
5.09616e-09
5.02906e-09
5.09549e-09
5.08018e-09
5.058e-09
5.08751e-09
1.26276e-07
3.18445e-07
5.01509e-09
5.0115e-09
5.01106e-09
3.18386e-07
1.26249e-07
3.18397e-07
5.10316e-09
5.07577e-09
5.08602e-09
5.11544e-09
1.26219e-07
3.18439e-07
5.02898e-09
5.09695e-09
5.0171e-09
5.09042e-09
5.08842e-09
5.05724e-09
5.0836e-09
1.26277e-07
3.1845e-07
5.01594e-09
5.0066e-09
5.01061e-09
3.18395e-07
1.26255e-07
3.18403e-07
5.08752e-09
5.1206e-09
5.1003e-09
5.11342e-09
1.26226e-07
3.18423e-07
5.01692e-09
5.09019e-09
5.01071e-09
5.09557e-09
5.08017e-09
5.03032e-09
5.08301e-09
1.26278e-07
3.18448e-07
5.01308e-09
5.00833e-09
5.01735e-09
3.18387e-07
1.26246e-07
3.18409e-07
5.12283e-09
5.1054e-09
5.10017e-09
5.16283e-09
1.26234e-07
3.18399e-07
5.04015e-09
5.0987e-09
5.03672e-09
5.09452e-09
5.08476e-09
5.02583e-09
5.07854e-09
1.26276e-07
3.18451e-07
5.02264e-09
5.00679e-09
5.01368e-09
3.18392e-07
1.26245e-07
3.18396e-07
5.09891e-09
5.13118e-09
5.10753e-09
5.12386e-09
1.26253e-07
3.18393e-07
5.03647e-09
5.09397e-09
5.03832e-09
5.09766e-09
5.07534e-09
5.03651e-09
5.08541e-09
1.26277e-07
3.18445e-07
5.01418e-09
5.01031e-09
5.01929e-09
3.18383e-07
1.26246e-07
3.18409e-07
5.08972e-09
5.12395e-09
5.09893e-09
5.1007e-09
1.26247e-07
3.18441e-07
5.04107e-09
5.09913e-09
5.03219e-09
5.09089e-09
5.08193e-09
5.03438e-09
5.07769e-09
1.26277e-07
3.18456e-07
5.01935e-09
5.00406e-09
5.01135e-09
3.18393e-07
1.26244e-07
3.18419e-07
5.08179e-09
5.09041e-09
5.08336e-09
5.08286e-09
1.2626e-07
3.18436e-07
5.03387e-09
5.09461e-09
5.02916e-09
5.09739e-09
5.08066e-09
5.00978e-09
5.07835e-09
1.26277e-07
3.18452e-07
5.01757e-09
5.00945e-09
5.00983e-09
3.18396e-07
1.26245e-07
3.18399e-07
5.08234e-09
5.11435e-09
5.12944e-09
5.20546e-09
1.26292e-07
3.1847e-07
5.03011e-09
5.09728e-09
5.03508e-09
5.0897e-09
5.07775e-09
5.05564e-09
5.09678e-09
1.26277e-07
3.1845e-07
5.00812e-09
5.0088e-09
4.99952e-09
3.18403e-07
1.2628e-07
3.18471e-07
5.12103e-09
5.1492e-09
5.06094e-09
5.17996e-09
1.26232e-07
3.18442e-07
5.04827e-09
5.09139e-09
4.87195e-09
5.09644e-09
5.10886e-09
5.02827e-09
5.08379e-09
1.26279e-07
3.18454e-07
5.01775e-09
5.00513e-09
5.01343e-09
3.18396e-07
1.26236e-07
3.18428e-07
5.15287e-09
5.16601e-09
5.12124e-09
5.11964e-09
1.26229e-07
3.18423e-07
4.94388e-09
5.0928e-09
5.04697e-09
5.09305e-09
5.08093e-09
5.0449e-09
5.08008e-09
1.26279e-07
3.18454e-07
5.01486e-09
5.00734e-09
5.01557e-09
3.18394e-07
1.26264e-07
3.18429e-07
5.11323e-09
5.12132e-09
5.10086e-09
5.12431e-09
1.26242e-07
3.18425e-07
5.0349e-09
5.09418e-09
5.03597e-09
5.09306e-09
5.08012e-09
5.03834e-09
5.08015e-09
1.26279e-07
3.18456e-07
5.01792e-09
5.00688e-09
5.01423e-09
3.18393e-07
1.26262e-07
3.18424e-07
5.10507e-09
5.12615e-09
5.09916e-09
5.12805e-09
1.26241e-07
3.18419e-07
5.03715e-09
5.09587e-09
5.03679e-09
5.09671e-09
5.08097e-09
5.04162e-09
5.08179e-09
1.26278e-07
3.1845e-07
5.01894e-09
5.01051e-09
5.02215e-09
3.1839e-07
1.26264e-07
3.18429e-07
5.10415e-09
5.12615e-09
5.0942e-09
5.12372e-09
1.26243e-07
3.18424e-07
5.0351e-09
5.09589e-09
5.0319e-09
5.0923e-09
5.08181e-09
5.03724e-09
5.07948e-09
1.26279e-07
3.18455e-07
5.027e-09
5.00634e-09
5.01881e-09
3.18393e-07
1.26263e-07
3.18431e-07
5.10491e-09
5.12457e-09
5.09627e-09
5.1255e-09
1.26242e-07
3.18423e-07
5.03592e-09
5.09422e-09
5.03393e-09
5.09434e-09
5.0779e-09
5.03957e-09
5.07992e-09
1.26279e-07
3.18454e-07
5.02175e-09
5.00747e-09
5.01667e-09
3.18393e-07
1.26264e-07
3.18424e-07
5.10068e-09
5.12303e-09
5.09935e-09
5.12813e-09
1.26242e-07
3.18419e-07
5.0317e-09
5.09293e-09
5.03699e-09
5.0968e-09
5.07924e-09
5.04155e-09
5.08218e-09
1.26279e-07
3.18451e-07
5.02049e-09
5.0102e-09
5.02052e-09
3.18391e-07
1.26263e-07
3.18429e-07
5.10907e-09
5.12909e-09
5.09468e-09
5.1246e-09
1.26242e-07
3.18422e-07
5.04003e-09
5.09887e-09
5.03235e-09
5.09329e-09
5.08011e-09
5.03886e-09
5.08231e-09
1.26278e-07
3.18454e-07
5.02202e-09
5.0076e-09
5.02066e-09
3.18389e-07
1.26264e-07
3.18429e-07
5.10201e-09
5.12456e-09
5.09696e-09
5.12518e-09
1.26242e-07
3.18425e-07
5.03302e-09
5.09433e-09
5.03464e-09
5.09386e-09
5.08224e-09
5.0375e-09
5.07721e-09
1.26279e-07
3.18456e-07
5.02414e-09
5.00621e-09
5.01564e-09
3.18396e-07
1.26264e-07
3.18428e-07
5.10458e-09
5.12505e-09
5.09604e-09
5.12476e-09
1.26242e-07
3.18423e-07
5.0356e-09
5.09484e-09
5.03366e-09
5.09344e-09
5.07977e-09
5.03836e-09
5.07792e-09
1.26279e-07
3.18455e-07
5.0217e-09
5.00713e-09
5.01627e-09
3.18395e-07
1.26263e-07
3.18426e-07
5.1037e-09
5.12614e-09
5.09931e-09
5.12813e-09
1.26241e-07
3.18424e-07
5.03473e-09
5.09558e-09
5.03655e-09
5.09576e-09
5.08091e-09
5.03969e-09
5.08033e-09
1.26278e-07
3.18454e-07
5.02273e-09
5.00892e-09
5.01876e-09
3.18394e-07
1.26264e-07
3.18426e-07
5.10602e-09
5.11166e-09
5.09577e-09
5.1237e-09
1.26242e-07
3.18412e-07
5.03677e-09
5.09585e-09
5.0336e-09
5.09411e-09
5.08043e-09
5.04161e-09
5.08047e-09
1.26279e-07
3.18452e-07
5.02234e-09
5.00817e-09
5.01885e-09
3.18392e-07
1.26264e-07
3.18431e-07
5.10491e-09
5.13514e-09
5.09382e-09
5.13453e-09
1.26242e-07
3.18431e-07
5.03564e-09
5.0949e-09
5.03159e-09
5.09333e-09
5.07862e-09
5.04108e-09
5.08081e-09
1.26279e-07
3.18454e-07
5.02055e-09
5.00795e-09
5.01923e-09
3.18392e-07
1.26264e-07
3.1843e-07
5.10161e-09
5.13258e-09
5.09681e-09
5.13246e-09
1.26238e-07
3.18434e-07
5.03269e-09
5.09443e-09
5.03453e-09
5.09279e-09
5.07829e-09
5.03962e-09
5.07816e-09
1.26279e-07
3.18456e-07
5.02023e-09
5.00698e-09
5.01705e-09
3.18397e-07
1.26264e-07
3.18427e-07
5.10311e-09
5.13289e-09
5.09691e-09
5.13399e-09
1.26238e-07
3.18431e-07
5.0342e-09
5.0943e-09
5.03462e-09
5.09524e-09
5.07706e-09
5.04107e-09
5.08199e-09
1.26278e-07
3.18454e-07
5.01892e-09
5.00596e-09
5.01755e-09
3.18394e-07
1.26263e-07
3.18428e-07
5.10735e-09
5.13594e-09
5.09596e-09
5.13314e-09
1.26238e-07
3.18434e-07
5.03838e-09
5.09733e-09
5.03365e-09
5.09403e-09
5.07836e-09
5.03896e-09
5.07683e-09
1.26279e-07
3.18456e-07
5.01957e-09
5.00636e-09
5.01529e-09
3.184e-07
1.26264e-07
3.18428e-07
5.10372e-09
5.13137e-09
5.09601e-09
5.13415e-09
1.26239e-07
3.18431e-07
5.03477e-09
5.09258e-09
5.03369e-09
5.09497e-09
5.07419e-09
5.04089e-09
5.07989e-09
1.2628e-07
3.18454e-07
5.01626e-09
5.00836e-09
5.0184e-09
3.18394e-07
1.26263e-07
3.18428e-07
5.10457e-09
5.13469e-09
5.09704e-09
5.13428e-09
1.26238e-07
3.18432e-07
5.03559e-09
5.09582e-09
5.03471e-09
5.0951e-09
5.07836e-09
5.04134e-09
5.08107e-09
1.26279e-07
3.18455e-07
5.02047e-09
5.00887e-09
5.01962e-09
3.18393e-07
1.26264e-07
3.18429e-07
5.10354e-09
5.13199e-09
5.09627e-09
5.13436e-09
1.26238e-07
3.1843e-07
5.0346e-09
5.09306e-09
5.03383e-09
5.09497e-09
5.08111e-09
5.04255e-09
5.08401e-09
1.26279e-07
3.18453e-07
5.02326e-09
5.00998e-09
5.02351e-09
3.18388e-07
1.26263e-07
3.18427e-07
5.10569e-09
5.13403e-09
5.10253e-09
5.12628e-09
1.26238e-07
3.18429e-07
5.03626e-09
5.09475e-09
5.02886e-09
5.09122e-09
5.07834e-09
5.04237e-09
5.05792e-09
1.26279e-07
3.18456e-07
5.0233e-09
5.00387e-09
5.00703e-09
3.18396e-07
1.26256e-07
3.18423e-07
5.09374e-09
5.13076e-09
5.04611e-09
5.12992e-09
1.26246e-07
3.18452e-07
5.01807e-09
5.08962e-09
5.00846e-09
5.10084e-09
5.0479e-09
5.03982e-09
5.12346e-09
1.26278e-07
3.18456e-07
4.9369e-09
5.00674e-09
4.99931e-09
3.18399e-07
1.26269e-07
3.18414e-07
5.06379e-09
5.08422e-09
5.10521e-09
5.13112e-09
1.26247e-07
3.18445e-07
4.92826e-09
5.10417e-09
5.05127e-09
5.09663e-09
5.09499e-09
5.03146e-09
5.08061e-09
1.26278e-07
3.18454e-07
5.03852e-09
5.01665e-09
5.02001e-09
3.18395e-07
1.26256e-07
3.18413e-07
5.09373e-09
5.11462e-09
5.08814e-09
5.14043e-09
1.2629e-07
3.18446e-07
5.01716e-09
5.09725e-09
5.04797e-09
5.09663e-09
5.08244e-09
5.04061e-09
5.08168e-09
1.26278e-07
3.18452e-07
5.02469e-09
5.01711e-09
5.02002e-09
3.18391e-07
1.26254e-07
3.18412e-07
5.09135e-09
5.13165e-09
5.0872e-09
5.12447e-09
1.26262e-07
3.1845e-07
5.01929e-09
5.09703e-09
5.04814e-09
5.09574e-09
5.08048e-09
5.03419e-09
5.08037e-09
1.26279e-07
3.18455e-07
5.02214e-09
5.01581e-09
5.01848e-09
3.18396e-07
1.26254e-07
3.18412e-07
5.0903e-09
5.12325e-09
5.08724e-09
5.12474e-09
1.2626e-07
3.18448e-07
5.01907e-09
5.09534e-09
5.04595e-09
5.09678e-09
5.07843e-09
5.03659e-09
5.0816e-09
1.26279e-07
3.18453e-07
5.01981e-09
5.01592e-09
5.02003e-09
3.18392e-07
1.26254e-07
3.18413e-07
5.09128e-09
5.12507e-09
5.08617e-09
5.12427e-09
1.2626e-07
3.1845e-07
5.01811e-09
5.09784e-09
5.04841e-09
5.09624e-09
5.08104e-09
5.0351e-09
5.08016e-09
1.26278e-07
3.18455e-07
5.02281e-09
5.01683e-09
5.02086e-09
3.18394e-07
1.26254e-07
3.18412e-07
5.09073e-09
5.1234e-09
5.08636e-09
5.12381e-09
1.26261e-07
3.18448e-07
5.01986e-09
5.09647e-09
5.0488e-09
5.0965e-09
5.08177e-09
5.03575e-09
5.08125e-09
1.26279e-07
3.18453e-07
5.02172e-09
5.01847e-09
5.02036e-09
3.18394e-07
1.26254e-07
3.18412e-07
5.08917e-09
5.1221e-09
5.08581e-09
5.12314e-09
1.26261e-07
3.1845e-07
5.01743e-09
5.0955e-09
5.04792e-09
5.09573e-09
5.07574e-09
5.03436e-09
5.07991e-09
1.2628e-07
3.18455e-07
5.02327e-09
5.00833e-09
5.01966e-09
3.18397e-07
1.26253e-07
3.18413e-07
5.09318e-09
5.12496e-09
5.08547e-09
5.12279e-09
1.2626e-07
3.18449e-07
5.02217e-09
5.09802e-09
5.04748e-09
5.09507e-09
5.07881e-09
5.03391e-09
5.08058e-09
1.26278e-07
3.18455e-07
5.01828e-09
5.00856e-09
5.02086e-09
3.18394e-07
1.26253e-07
3.18414e-07
5.09148e-09
5.12448e-09
5.08521e-09
5.12288e-09
1.2626e-07
3.1845e-07
5.02034e-09
5.09732e-09
5.0472e-09
5.0951e-09
5.08176e-09
5.03436e-09
5.0808e-09
1.26278e-07
3.18456e-07
5.02133e-09
5.00887e-09
5.02122e-09
3.18396e-07
1.26254e-07
3.18417e-07
5.09037e-09
5.12331e-09
5.08439e-09
5.12296e-09
1.2626e-07
3.18451e-07
5.01922e-09
5.0961e-09
5.04642e-09
5.09516e-09
5.07865e-09
5.03394e-09
5.08044e-09
1.26279e-07
3.18456e-07
5.01841e-09
5.00869e-09
5.02054e-09
3.18396e-07
1.26254e-07
3.18411e-07
5.08744e-09
5.12094e-09
5.08793e-09
5.12504e-09
1.26261e-07
3.18449e-07
5.01633e-09
5.09371e-09
5.05002e-09
5.09732e-09
5.07708e-09
5.03604e-09
5.07963e-09
1.2628e-07
3.18454e-07
5.01985e-09
5.01035e-09
5.01869e-09
3.18395e-07
1.26253e-07
3.18413e-07
5.09329e-09
5.12556e-09
5.08617e-09
5.1242e-09
1.2626e-07
3.18449e-07
5.02222e-09
5.09851e-09
5.04839e-09
5.09602e-09
5.08214e-09
5.03564e-09
5.08022e-09
1.26279e-07
3.18453e-07
5.02227e-09
5.01025e-09
5.02048e-09
3.18393e-07
1.26253e-07
3.18412e-07
5.09025e-09
5.12429e-09
5.08532e-09
5.12953e-09
1.2626e-07
3.18453e-07
5.0194e-09
5.09667e-09
5.03861e-09
5.0953e-09
5.08056e-09
5.03892e-09
5.07948e-09
1.26279e-07
3.18454e-07
5.02168e-09
5.00939e-09
5.02088e-09
3.18395e-07
1.26254e-07
3.18412e-07
5.08963e-09
5.1373e-09
5.08099e-09
5.11789e-09
1.26258e-07
3.18457e-07
5.03695e-09
5.09674e-09
5.03184e-09
5.09384e-09
5.07873e-09
5.04684e-09
5.07898e-09
1.26279e-07
3.18457e-07
5.02012e-09
5.00754e-09
5.01902e-09
3.18396e-07
1.26255e-07
3.18414e-07
5.08701e-09
5.07489e-09
5.08597e-09
5.11485e-09
1.26244e-07
3.18451e-07
5.03265e-09
5.09425e-09
5.03342e-09
5.09753e-09
5.07942e-09
5.03365e-09
5.0812e-09
1.26279e-07
3.18453e-07
5.01878e-09
5.01297e-09
5.01315e-09
3.18395e-07
1.26254e-07
3.18413e-07
5.09149e-09
5.11598e-09
5.08777e-09
5.11865e-09
1.26258e-07
3.18452e-07
5.03379e-09
5.09882e-09
5.03026e-09
5.09078e-09
5.07591e-09
5.04138e-09
5.10447e-09
1.26279e-07
3.18448e-07
4.99932e-09
5.01433e-09
5.00686e-09
3.18403e-07
1.26255e-07
3.18411e-07
5.09135e-09
5.11845e-09
5.08854e-09
5.11988e-09
1.26257e-07
3.18452e-07
5.02968e-09
5.09098e-09
5.03019e-09
5.08919e-09
5.10729e-09
5.04292e-09
5.10815e-09
1.26281e-07
3.18447e-07
5.00519e-09
5.01472e-09
5.01019e-09
3.18404e-07
1.26255e-07
3.18412e-07
5.09223e-09
5.11794e-09
5.08724e-09
5.11843e-09
1.26258e-07
3.18454e-07
5.03006e-09
5.08899e-09
5.02876e-09
5.08753e-09
5.10603e-09
5.0414e-09
5.10509e-09
1.26283e-07
3.18449e-07
5.00409e-09
5.01317e-09
5.00718e-09
3.1841e-07
1.26254e-07
3.1841e-07
5.09382e-09
5.12052e-09
5.08806e-09
5.118e-09
1.26256e-07
3.18455e-07
5.03159e-09
5.09142e-09
5.02959e-09
5.08714e-09
5.10979e-09
5.03953e-09
5.10095e-09
1.26281e-07
3.1845e-07
5.00789e-09
5.01051e-09
5.00357e-09
3.18416e-07
1.26255e-07
3.18408e-07
5.092e-09
5.11777e-09
5.0878e-09
5.11838e-09
1.26257e-07
3.18453e-07
5.02974e-09
5.08871e-09
5.02933e-09
5.0876e-09
5.10262e-09
5.04022e-09
5.10286e-09
1.26282e-07
3.18448e-07
5.00061e-09
5.01115e-09
5.0031e-09
3.18412e-07
1.26254e-07
3.1841e-07
5.09404e-09
5.11918e-09
5.08819e-09
5.11967e-09
1.26257e-07
3.18452e-07
5.03176e-09
5.09014e-09
5.02974e-09
5.08886e-09
5.10585e-09
5.04145e-09
5.1046e-09
1.26281e-07
3.18447e-07
5.00532e-09
5.01282e-09
5.00594e-09
3.18409e-07
1.26255e-07
3.18413e-07
5.09277e-09
5.11828e-09
5.08662e-09
5.11839e-09
1.26257e-07
3.18453e-07
5.03049e-09
5.08931e-09
5.02819e-09
5.08747e-09
5.10595e-09
5.04157e-09
5.10446e-09
1.26282e-07
3.18448e-07
5.00369e-09
5.01322e-09
5.00633e-09
3.18408e-07
1.26254e-07
3.1841e-07
5.09244e-09
5.11884e-09
5.08909e-09
5.1189e-09
1.26257e-07
3.18453e-07
5.03022e-09
5.08978e-09
5.03061e-09
5.08815e-09
5.10793e-09
5.04233e-09
5.1052e-09
1.26282e-07
3.18448e-07
5.00577e-09
5.01398e-09
5.00625e-09
3.18409e-07
1.26255e-07
3.1841e-07
5.09384e-09
5.11881e-09
5.08773e-09
5.11933e-09
1.26257e-07
3.18451e-07
5.03159e-09
5.08975e-09
5.02918e-09
5.08845e-09
5.10758e-09
5.04186e-09
5.10582e-09
1.26282e-07
3.18446e-07
5.00662e-09
5.01385e-09
5.00944e-09
3.18404e-07
1.26254e-07
3.18417e-07
5.09368e-09
5.11981e-09
5.08403e-09
5.11806e-09
1.26257e-07
3.18455e-07
5.03168e-09
5.09082e-09
5.02063e-09
5.08696e-09
5.10784e-09
5.04072e-09
5.10452e-09
1.26281e-07
3.1845e-07
5.00745e-09
5.01259e-09
5.0081e-09
3.1841e-07
1.26255e-07
3.1841e-07
5.09002e-09
5.11767e-09
5.089e-09
5.12056e-09
1.26257e-07
3.18453e-07
5.02841e-09
5.08848e-09
5.02541e-09
5.08943e-09
5.10576e-09
5.04222e-09
5.10413e-09
1.26282e-07
3.18448e-07
5.00531e-09
5.01404e-09
5.00768e-09
3.18412e-07
1.26255e-07
3.18408e-07
5.09227e-09
5.11866e-09
5.08869e-09
5.12018e-09
1.26257e-07
3.18451e-07
5.03051e-09
5.08947e-09
5.02501e-09
5.08942e-09
5.10699e-09
5.0422e-09
5.1078e-09
1.26282e-07
3.18447e-07
5.00643e-09
5.01402e-09
5.01115e-09
3.18407e-07
1.26254e-07
3.18408e-07
5.09493e-09
5.11959e-09
5.08931e-09
5.11938e-09
1.26257e-07
3.18451e-07
5.03302e-09
5.09096e-09
5.02517e-09
5.09081e-09
5.10744e-09
5.04214e-09
5.10527e-09
1.26282e-07
3.18448e-07
5.00676e-09
5.01591e-09
5.00695e-09
3.18412e-07
1.26256e-07
3.18415e-07
5.09116e-09
5.11698e-09
5.085e-09
5.11654e-09
1.26258e-07
3.18455e-07
5.0288e-09
5.09144e-09
5.02095e-09
5.08908e-09
5.10654e-09
5.03996e-09
5.10725e-09
1.26283e-07
3.18445e-07
5.00232e-09
4.97047e-09
4.98816e-09
3.18404e-07
1.26254e-07
3.18405e-07
5.09271e-09
5.11861e-09
5.09051e-09
5.12147e-09
1.26256e-07
3.18449e-07
5.03077e-09
5.09132e-09
5.02672e-09
5.0879e-09
5.10753e-09
5.0456e-09
5.10612e-09
1.26284e-07
3.18443e-07
4.98748e-09
5.01513e-09
5.01458e-09
3.18401e-07
1.26254e-07
3.18405e-07
5.09525e-09
5.12018e-09
5.08949e-09
5.12092e-09
1.26256e-07
3.1845e-07
5.03339e-09
5.08813e-09
5.02586e-09
5.08858e-09
5.10848e-09
5.04158e-09
5.1029e-09
1.26281e-07
3.18446e-07
5.00456e-09
5.01064e-09
4.99207e-09
3.18415e-07
1.26254e-07
3.18411e-07
5.09507e-09
5.12023e-09
5.08636e-09
5.11893e-09
1.26256e-07
3.18452e-07
5.03327e-09
5.08998e-09
5.02283e-09
5.08744e-09
5.10255e-09
5.04026e-09
5.10599e-09
1.2628e-07
3.18447e-07
5.01087e-09
5.01139e-09
4.99874e-09
3.18408e-07
1.26254e-07
3.18407e-07
5.08982e-09
5.11686e-09
5.08928e-09
5.11971e-09
1.26256e-07
3.1845e-07
5.02812e-09
5.08746e-09
5.02578e-09
5.0884e-09
5.10181e-09
5.04117e-09
5.10356e-09
1.26281e-07
3.18445e-07
5.01592e-09
5.01296e-09
5.00663e-09
3.18407e-07
1.26254e-07
3.18405e-07
5.09088e-09
5.11926e-09
5.08951e-09
5.12042e-09
1.26256e-07
3.18448e-07
5.02919e-09
5.09013e-09
5.026e-09
5.08916e-09
5.10516e-09
5.04218e-09
5.10559e-09
1.2628e-07
3.18443e-07
5.00353e-09
5.01424e-09
5.00873e-09
3.18404e-07
1.26254e-07
3.18411e-07
5.09502e-09
5.1209e-09
5.08673e-09
5.11748e-09
1.26256e-07
3.18451e-07
5.03331e-09
5.09183e-09
5.02323e-09
5.0861e-09
5.10957e-09
5.04068e-09
5.10287e-09
1.2628e-07
3.18446e-07
5.0082e-09
5.01274e-09
5.00632e-09
3.18407e-07
1.26254e-07
3.18408e-07
5.09065e-09
5.11799e-09
5.08845e-09
5.11928e-09
1.26256e-07
3.18451e-07
5.02899e-09
5.08885e-09
5.02493e-09
5.08796e-09
5.1056e-09
5.04076e-09
5.10234e-09
1.26281e-07
3.18446e-07
5.0045e-09
5.01298e-09
5.00474e-09
3.18409e-07
1.26254e-07
3.18411e-07
5.09111e-09
5.11694e-09
5.08652e-09
5.11885e-09
1.26256e-07
3.1845e-07
5.02944e-09
5.08786e-09
5.02303e-09
5.08756e-09
5.10426e-09
5.04253e-09
5.10674e-09
1.2628e-07
3.18445e-07
5.00215e-09
5.01651e-09
5.01038e-09
3.18403e-07
1.26253e-07
3.18405e-07
5.0918e-09
5.11921e-09
5.08979e-09
5.11882e-09
1.26256e-07
3.18452e-07
5.03011e-09
5.08992e-09
5.02627e-09
5.08777e-09
5.11006e-09
5.03984e-09
5.10222e-09
1.26281e-07
3.18447e-07
5.00906e-09
5.01155e-09
5.00501e-09
3.1841e-07
1.26254e-07
3.18408e-07
5.09302e-09
5.11872e-09
5.08677e-09
5.12025e-09
1.26256e-07
3.18447e-07
5.03135e-09
5.08946e-09
5.02326e-09
5.0891e-09
5.10699e-09
5.04261e-09
5.10664e-09
1.2628e-07
3.18442e-07
5.00576e-09
5.01457e-09
5.00967e-09
3.18401e-07
1.26254e-07
3.1841e-07
5.09072e-09
5.11841e-09
5.08751e-09
5.11686e-09
1.26257e-07
3.18453e-07
5.02906e-09
5.08911e-09
5.02403e-09
5.08568e-09
5.10538e-09
5.03982e-09
5.10315e-09
1.26282e-07
3.18448e-07
5.00436e-09
5.01175e-09
5.00615e-09
3.18408e-07
1.26254e-07
3.18412e-07
5.09177e-09
5.11934e-09
5.08725e-09
5.119e-09
1.26255e-07
3.18452e-07
5.03006e-09
5.09007e-09
5.02378e-09
5.08788e-09
5.10741e-09
5.04171e-09
5.10436e-09
1.2628e-07
3.18447e-07
5.00635e-09
5.01367e-09
5.00737e-09
3.18409e-07
1.26254e-07
3.18407e-07
5.09239e-09
5.11862e-09
5.08758e-09
5.11903e-09
1.26256e-07
3.18449e-07
5.03071e-09
5.08928e-09
5.02372e-09
5.08788e-09
5.10651e-09
5.04293e-09
5.10621e-09
1.26281e-07
3.18444e-07
5.00549e-09
5.01485e-09
5.0092e-09
3.18403e-07
1.26253e-07
3.18408e-07
5.09382e-09
5.11899e-09
5.08646e-09
5.11782e-09
1.26257e-07
3.18451e-07
5.03674e-09
5.08977e-09
5.03779e-09
5.08661e-09
5.1078e-09
5.04011e-09
5.10465e-09
1.26281e-07
3.18446e-07
5.00673e-09
5.01215e-09
5.00764e-09
3.18405e-07
1.26253e-07
3.18405e-07
5.09099e-09
5.11789e-09
5.08811e-09
5.11844e-09
1.26256e-07
3.18451e-07
5.01458e-09
5.08855e-09
5.03961e-09
5.08737e-09
5.10631e-09
5.04116e-09
5.1042e-09
1.2628e-07
3.18446e-07
5.00523e-09
5.01314e-09
5.00729e-09
3.18408e-07
1.26253e-07
3.18406e-07
5.09265e-09
5.11812e-09
5.08799e-09
5.12045e-09
1.26256e-07
3.18452e-07
5.01642e-09
5.08878e-09
5.03942e-09
5.08878e-09
5.10388e-09
5.04106e-09
5.10336e-09
1.2628e-07
3.18447e-07
5.00288e-09
5.01293e-09
5.00637e-09
3.1841e-07
1.26252e-07
3.18402e-07
5.09481e-09
5.11898e-09
5.08935e-09
5.12035e-09
1.26256e-07
3.18447e-07
5.01861e-09
5.0923e-09
5.04068e-09
5.09523e-09
5.10687e-09
5.0429e-09
5.10551e-09
1.2628e-07
3.18468e-07
5.00574e-09
5.01384e-09
5.00838e-09
3.18401e-07
1.26253e-07
3.18411e-07
5.09421e-09
5.12069e-09
5.08444e-09
5.11701e-09
1.26256e-07
3.18452e-07
5.01812e-09
5.08591e-09
5.03589e-09
5.09235e-09
5.10887e-09
5.03997e-09
5.10205e-09
1.26288e-07
3.18473e-07
5.00782e-09
5.01136e-09
5.00513e-09
3.18408e-07
1.26253e-07
3.1841e-07
5.08945e-09
5.11678e-09
5.08708e-09
5.11747e-09
1.26256e-07
3.18452e-07
5.01332e-09
5.08218e-09
5.03853e-09
5.09275e-09
5.10346e-09
5.0411e-09
5.10358e-09
1.26288e-07
3.18473e-07
5.00256e-09
5.01257e-09
5.0068e-09
3.18408e-07
1.26253e-07
3.18403e-07
5.09119e-09
5.11797e-09
5.08938e-09
5.12077e-09
1.26256e-07
3.18447e-07
5.01507e-09
5.08347e-09
5.04093e-09
5.09887e-09
5.10675e-09
5.0425e-09
5.10689e-09
1.26288e-07
3.18475e-07
5.00566e-09
5.0137e-09
5.00993e-09
3.18403e-07
1.26253e-07
3.18406e-07
5.09321e-09
5.12192e-09
5.08544e-09
5.12141e-09
1.26256e-07
3.1845e-07
5.01738e-09
5.08631e-09
5.03852e-09
5.08869e-09
5.10905e-09
5.03923e-09
5.10343e-09
1.26287e-07
3.18456e-07
5.00857e-09
5.00946e-09
5.01411e-09
3.18407e-07
1.26252e-07
3.18413e-07
5.09131e-09
5.12168e-09
5.08809e-09
5.12522e-09
1.26257e-07
3.18448e-07
5.0182e-09
5.09035e-09
5.03921e-09
5.10975e-09
5.11032e-09
5.04545e-09
5.09036e-09
1.26282e-07
3.18452e-07
5.02215e-09
5.02248e-09
5.02508e-09
3.18395e-07
1.26243e-07
3.18408e-07
5.09972e-09
5.11337e-09
5.52295e-09
5.48195e-09
1.26251e-07
3.18426e-07
5.01468e-09
5.11825e-09
5.47353e-09
5.53302e-09
5.07511e-09
5.32324e-09
5.41282e-09
1.26272e-07
3.18451e-07
4.99763e-09
5.37535e-09
5.40941e-09
3.18396e-07
1.26174e-07
3.16878e-07
5.99549e-09
6.06553e-09
2.69493e-08
2.70391e-08
1.26125e-07
3.16914e-07
5.98223e-09
5.96884e-09
2.69745e-08
2.7009e-08
5.95355e-09
2.6842e-08
2.69367e-08
1.26191e-07
3.16863e-07
5.88019e-09
2.68321e-08
2.68083e-08
3.16897e-07
1.23564e-07
5.88658e-08
5.33008e-08
5.33612e-08
2.9441e-07
2.94056e-07
1.23551e-07
5.88948e-08
5.31792e-08
5.34006e-08
2.94071e-07
2.93838e-07
5.3382e-08
2.94575e-07
2.94236e-07
1.23575e-07
5.88016e-08
5.31931e-08
2.94158e-07
2.94006e-07
5.88266e-08
6.47737e-07
2.38499e-07
2.38243e-07
6.47553e-07
2.3867e-07
2.38369e-07
6.36115e-07
6.36211e-07
6.36123e-07
2.38543e-07
6.47576e-07
2.38665e-07
5.19635e-08
2.12043e-07
1.47368e-07
1.47382e-07
5.90802e-07
3.11427e-07
9.2788e-07
2.01212e-07
5.90708e-07
3.11432e-07
2.01204e-07
9.2765e-07
4.05536e-07
4.64404e-07
4.64306e-07
4.24027e-06
0.00011973
3.91736e-06
0.000121538
0.000239004
0.0002451
4.24088e-06
0.000119746
3.91835e-06
0.000121555
1.69804e-06
1.69715e-06
1.69759e-06
2.49015e-07
2.48949e-07
2.48986e-07
2.49052e-07
3.81785e-07
6.67272e-06
1.15014e-06
1.0991e-06
1.82847e-07
4.83954e-06
7.8433e-07
0.000238996
0.000245086
3.8063e-07
1.14891e-06
6.671e-06
1.09889e-06
1.82731e-07
7.8384e-07
4.83846e-06
8.86272e-06
8.86384e-06
3.40998e-07
1.04969e-05
1.04988e-05
4.09542e-06
0.000120429
4.08475e-06
0.000120411
0.000246043
0.000246034
4.09598e-06
0.000120445
4.08533e-06
0.000120427
1.19745e-07
1.19743e-07
1.19788e-07