/*--------------------------------*- C++ -*----------------------------------*\
| =========                 |                                                 |
| \\      /  F ield         | OpenFOAM: The Open Source CFD Toolbox           |
|  \\    /   O peration     | Version:  v1906                                 |
|   \\  /    A nd           | Web:      www.OpenFOAM.com                      |
|    \\/     M anipulation  |                                                 |
\*---------------------------------------------------------------------------*/
FoamFile
{
    version     2.0;
    format      ascii;
    class       volScalarField;
    location    "400";
    object      epsilon;
}
// * * * * * * * * * * * * * * * * * * * * * * * * * * * * * * * * * * * * * //

dimensions      [0 2 -3 0 0 0 0];


internalField   nonuniform List<scalar> 
42840
(
6.52003e-07
1.18308e-06
1.18311e-06
1.4154e-06
1.41841e-06
1.41541e-06
1.41624e-06
1.18316e-06
1.18319e-06
1.18554e-06
1.18556e-06
1.41534e-06
1.41616e-06
1.18308e-06
1.18319e-06
1.18545e-06
1.18557e-06
1.18319e-06
1.18545e-06
1.18556e-06
1.4154e-06
1.41622e-06
1.18309e-06
1.18549e-06
1.18546e-06
1.41619e-06
1.1863e-06
1.18621e-06
4.23671e-06
9.55099e-06
9.55601e-06
4.23608e-06
1.90639e-05
1.90748e-05
4.23685e-06
9.55283e-06
9.55817e-06
4.23623e-06
6.52007e-07
6.52088e-07
6.52078e-07
6.56703e-07
6.56706e-07
6.56788e-07
6.56776e-07
2.29441e-06
3.64478e-06
9.301e-07
1.1839e-06
3.64525e-06
9.31219e-07
2.29412e-06
1.9065e-05
1.9076e-05
2.29438e-06
9.30126e-07
3.64476e-06
1.18393e-06
9.31246e-07
3.64528e-06
2.29403e-06
5.64558e-06
5.64753e-06
1.41473e-06
5.64669e-06
5.64865e-06
5.65006e-06
5.652e-06
1.90625e-05
1.90734e-05
1.90649e-05
1.90758e-05
5.64558e-06
5.64745e-06
1.41475e-06
5.6467e-06
5.6486e-06
1.90849e-05
1.90741e-05
1.90872e-05
1.90765e-05
1.41696e-06
5.64893e-06
5.65081e-06
5.64785e-06
5.64971e-06
4.2368e-06
9.55195e-06
9.55735e-06
4.23618e-06
2.29436e-06
3.64463e-06
9.30045e-07
1.18398e-06
3.64515e-06
9.31168e-07
2.29401e-06
2.29442e-06
3.64513e-06
9.30085e-07
1.184e-06
3.64564e-06
9.31209e-07
2.29407e-06
4.23746e-06
9.56203e-06
9.55711e-06
4.23804e-06
4.23757e-06
9.5634e-06
9.55808e-06
4.23814e-06
2.2949e-06
1.18479e-06
3.64645e-06
9.33328e-07
3.64597e-06
9.32284e-07
2.2952e-06
2.29496e-06
1.18481e-06
3.64693e-06
9.33369e-07
3.64648e-06
9.32323e-07
2.29526e-06
5.64731e-06
5.64564e-06
1.41468e-06
5.64842e-06
5.64664e-06
1.90616e-05
1.90726e-05
1.90864e-05
1.90756e-05
1.41689e-06
5.65066e-06
5.64887e-06
5.64958e-06
5.64791e-06
1.90841e-05
1.90732e-05
2.2945e-06
3.6454e-06
9.30108e-07
1.18389e-06
3.64587e-06
9.3125e-07
2.29418e-06
4.23675e-06
9.55242e-06
9.55746e-06
4.23615e-06
2.29441e-06
9.30126e-07
3.64522e-06
1.184e-06
9.31251e-07
3.64568e-06
2.2941e-06
4.2376e-06
9.56404e-06
9.55912e-06
4.23818e-06
2.29507e-06
1.1847e-06
3.64715e-06
9.3341e-07
3.64674e-06
9.32346e-07
2.29533e-06
4.23752e-06
9.56362e-06
9.55833e-06
4.23807e-06
2.29499e-06
1.18481e-06
9.33411e-07
3.64698e-06
9.32365e-07
3.64657e-06
2.29525e-06
4.23683e-06
9.55179e-06
9.55724e-06
4.23624e-06
2.29436e-06
9.30115e-07
3.64467e-06
1.184e-06
9.31233e-07
3.64518e-06
2.29401e-06
4.23673e-06
9.55177e-06
9.55715e-06
4.23613e-06
2.295e-06
1.1847e-06
3.64654e-06
9.33371e-07
3.64612e-06
9.32331e-07
2.29524e-06
4.23762e-06
9.56309e-06
9.55796e-06
4.23816e-06
2.29489e-06
1.18481e-06
9.33384e-07
3.64648e-06
9.32347e-07
3.64602e-06
2.29519e-06
4.2375e-06
9.56302e-06
9.55801e-06
4.23806e-06
5.64746e-06
5.64562e-06
1.41474e-06
5.64847e-06
5.64678e-06
1.90636e-05
1.90745e-05
1.90875e-05
1.90766e-05
1.41695e-06
5.65071e-06
5.64901e-06
5.64974e-06
5.6479e-06
1.9086e-05
1.90752e-05
2.29443e-06
9.30146e-07
3.64531e-06
1.18391e-06
9.31266e-07
3.64581e-06
2.29407e-06
4.23675e-06
9.55201e-06
9.55742e-06
4.23615e-06
4.23678e-06
9.55304e-06
9.55808e-06
4.23612e-06
2.29492e-06
1.18474e-06
9.334e-07
3.64659e-06
9.32359e-07
3.64611e-06
2.29522e-06
2.29496e-06
1.18471e-06
9.3342e-07
3.64711e-06
9.32379e-07
3.64666e-06
2.29526e-06
4.23753e-06
9.56347e-06
9.55816e-06
4.23809e-06
4.2375e-06
9.56412e-06
9.55917e-06
4.23812e-06
1.90634e-05
1.90743e-05
1.90653e-05
1.90762e-05
1.41695e-06
5.64894e-06
5.65091e-06
5.64785e-06
5.64979e-06
1.90858e-05
1.9075e-05
1.90877e-05
1.9077e-05
9.34423e-07
3.64729e-06
2.29569e-06
9.5641e-06
4.2388e-06
3.64793e-06
9.56522e-06
1.90866e-05
1.90885e-05
1.26424e-05
1.12352e-05
4.88194e-06
4.23678e-06
1.12322e-05
4.88206e-06
1.26454e-05
2.27414e-05
9.55296e-06
7.23813e-06
7.23778e-06
2.27342e-05
2.27409e-05
7.23907e-06
9.55408e-06
7.23943e-06
2.27481e-05
1.26412e-05
4.23602e-06
1.12284e-05
4.88131e-06
1.12315e-05
4.88118e-06
1.26386e-05
1.9069e-05
1.90698e-05
1.26424e-05
4.88225e-06
1.12355e-05
4.23695e-06
4.8823e-06
1.12332e-05
1.2646e-05
2.27413e-05
9.5552e-06
7.23963e-06
7.23945e-06
2.27342e-05
2.27409e-05
7.24074e-06
9.5559e-06
7.24092e-06
2.27479e-05
1.26421e-05
4.23616e-06
4.88154e-06
1.12295e-05
4.8815e-06
1.12318e-05
1.26384e-05
1.90701e-05
1.90708e-05
9.95784e-06
2.23771e-05
2.23763e-05
2.23708e-05
2.237e-05
9.95752e-06
4.70063e-06
2.97327e-06
5.64555e-06
9.91587e-06
2.97311e-06
9.91794e-06
4.70096e-06
4.70636e-06
2.97446e-06
5.6475e-06
9.92065e-06
2.9743e-06
9.92273e-06
4.70668e-06
4.70168e-06
9.92118e-06
5.64672e-06
2.97353e-06
2.9737e-06
9.9187e-06
4.70134e-06
4.7074e-06
9.92595e-06
5.64866e-06
2.97472e-06
2.97489e-06
9.92347e-06
4.70707e-06
9.9557e-06
2.23647e-05
2.23639e-05
2.23711e-05
2.23703e-05
9.95601e-06
4.70338e-06
2.97487e-06
9.92779e-06
5.65003e-06
4.70374e-06
2.97468e-06
9.93042e-06
4.70909e-06
2.97606e-06
9.93259e-06
5.65198e-06
4.70945e-06
2.97588e-06
9.93507e-06
9.96291e-06
2.23889e-05
2.23881e-05
9.96326e-06
2.23952e-05
2.23944e-05
1.90676e-05
1.90684e-05
1.907e-05
1.90707e-05
9.95787e-06
2.23774e-05
2.23767e-05
2.23711e-05
2.23703e-05
9.95755e-06
4.7007e-06
2.97333e-06
5.64557e-06
9.91614e-06
9.91812e-06
2.97318e-06
4.70102e-06
4.70641e-06
2.97449e-06
5.64746e-06
9.92065e-06
9.92332e-06
2.97433e-06
4.70672e-06
4.70175e-06
9.9212e-06
5.64672e-06
2.9736e-06
9.91925e-06
4.70142e-06
2.97376e-06
4.70744e-06
9.92631e-06
5.64859e-06
2.97475e-06
9.92374e-06
4.70712e-06
2.97492e-06
9.95573e-06
2.2365e-05
2.23643e-05
2.23714e-05
2.23706e-05
9.95605e-06
1.90799e-05
1.90791e-05
1.90823e-05
1.90815e-05
9.95935e-06
2.23771e-05
2.23764e-05
9.95968e-06
2.23835e-05
2.23827e-05
4.70313e-06
2.97439e-06
5.64897e-06
9.92727e-06
9.92534e-06
2.97456e-06
4.70278e-06
4.70882e-06
2.97553e-06
5.65082e-06
9.93213e-06
9.93014e-06
2.97571e-06
4.70848e-06
4.70211e-06
9.92229e-06
2.97417e-06
5.64783e-06
4.70245e-06
9.92423e-06
2.974e-06
4.70781e-06
9.92693e-06
2.97533e-06
5.64971e-06
4.70814e-06
9.92927e-06
2.97515e-06
9.96148e-06
2.23895e-05
2.23887e-05
2.23831e-05
2.23824e-05
9.96114e-06
1.26425e-05
1.1235e-05
4.8822e-06
4.23688e-06
1.12327e-05
4.88225e-06
1.26453e-05
2.27413e-05
9.55431e-06
7.23967e-06
7.23949e-06
2.27343e-05
2.2741e-05
7.24079e-06
9.55503e-06
7.24098e-06
2.2748e-05
1.26415e-05
4.2361e-06
1.1229e-05
4.88149e-06
1.12313e-05
4.88145e-06
1.26383e-05
1.26496e-05
1.12358e-05
4.8828e-06
4.23739e-06
1.26461e-05
1.12389e-05
4.88269e-06
2.27541e-05
9.56013e-06
7.24162e-06
2.27614e-05
7.24199e-06
2.27547e-05
7.24072e-06
9.55903e-06
2.27475e-05
7.24035e-06
1.26498e-05
4.23813e-06
1.12423e-05
4.88341e-06
1.26537e-05
1.12395e-05
4.88353e-06
1.26492e-05
1.12364e-05
4.883e-06
4.23748e-06
1.26466e-05
1.12387e-05
4.88294e-06
2.27543e-05
9.56111e-06
7.24335e-06
7.24355e-06
2.27613e-05
2.27546e-05
7.24227e-06
9.56039e-06
2.27476e-05
7.24207e-06
1.26506e-05
4.23823e-06
1.12423e-05
4.88366e-06
1.124e-05
4.88373e-06
1.26532e-05
9.95738e-06
2.23758e-05
2.23767e-05
2.23694e-05
2.23703e-05
9.95707e-06
4.70616e-06
2.97435e-06
5.64728e-06
9.92005e-06
9.92271e-06
2.97418e-06
4.7065e-06
4.70048e-06
2.97324e-06
5.6455e-06
9.91555e-06
2.97307e-06
9.91819e-06
4.7008e-06
4.70721e-06
9.92579e-06
5.64845e-06
2.9746e-06
9.92316e-06
2.97478e-06
4.70687e-06
4.70152e-06
9.92127e-06
5.64678e-06
2.97349e-06
2.97366e-06
9.91864e-06
4.70119e-06
9.95525e-06
2.23633e-05
2.23642e-05
2.23697e-05
2.23706e-05
9.95555e-06
1.90668e-05
1.90674e-05
1.90813e-05
1.90806e-05
9.95888e-06
2.23754e-05
2.23763e-05
9.95919e-06
2.23818e-05
2.23827e-05
4.7086e-06
2.97538e-06
5.65069e-06
9.93188e-06
2.97558e-06
9.92929e-06
4.70824e-06
4.7029e-06
2.97427e-06
5.64902e-06
9.92735e-06
9.92476e-06
2.97446e-06
4.70256e-06
4.70756e-06
9.92622e-06
2.97519e-06
5.64955e-06
2.975e-06
4.70791e-06
9.92886e-06
4.70188e-06
9.9217e-06
2.97407e-06
5.64777e-06
4.70222e-06
9.92434e-06
2.97389e-06
9.961e-06
2.23878e-05
2.23887e-05
2.23815e-05
2.23824e-05
9.96067e-06
1.9079e-05
1.90784e-05
1.2643e-05
1.12354e-05
4.88203e-06
4.23685e-06
1.1233e-05
4.88218e-06
1.26456e-05
2.27416e-05
9.55437e-06
7.23836e-06
7.23801e-06
2.27343e-05
2.2741e-05
7.2393e-06
9.55552e-06
7.23966e-06
2.27482e-05
1.26416e-05
4.23606e-06
1.12293e-05
4.88143e-06
1.12317e-05
4.88128e-06
1.2639e-05
1.26497e-05
4.88305e-06
1.12369e-05
4.23752e-06
1.26467e-05
4.88296e-06
1.12392e-05
2.27542e-05
9.56215e-06
7.24328e-06
2.27611e-05
7.24348e-06
2.27545e-05
7.24221e-06
9.5611e-06
2.27475e-05
7.24202e-06
1.26509e-05
4.23828e-06
4.8837e-06
1.12428e-05
1.26534e-05
4.88377e-06
1.12405e-05
1.26496e-05
1.12367e-05
4.88293e-06
4.23742e-06
1.2647e-05
1.1239e-05
4.88277e-06
2.27543e-05
9.56132e-06
7.24186e-06
7.24222e-06
2.27615e-05
2.27549e-05
7.24095e-06
9.56058e-06
2.27477e-05
7.24059e-06
1.2651e-05
4.23818e-06
1.12426e-05
4.88349e-06
1.12403e-05
4.88365e-06
1.26535e-05
1.26425e-05
4.88205e-06
1.12354e-05
4.23694e-06
4.88214e-06
1.1233e-05
1.26451e-05
2.27404e-05
9.55419e-06
7.23912e-06
7.23894e-06
2.27333e-05
2.274e-05
7.24023e-06
9.55491e-06
7.24041e-06
2.27471e-05
1.26411e-05
4.23614e-06
4.88139e-06
1.12293e-05
4.88129e-06
1.12316e-05
1.26385e-05
1.26429e-05
1.12352e-05
4.88187e-06
4.23682e-06
1.12329e-05
4.88193e-06
1.26455e-05
2.2741e-05
9.55414e-06
7.23771e-06
7.23753e-06
2.27339e-05
2.27406e-05
7.23883e-06
9.55484e-06
7.23902e-06
2.27477e-05
1.26415e-05
4.23604e-06
1.12292e-05
4.88117e-06
1.12315e-05
4.88111e-06
1.26388e-05
1.26491e-05
4.88289e-06
1.12367e-05
4.2375e-06
1.26465e-05
4.88279e-06
1.1239e-05
2.27533e-05
9.56115e-06
7.24277e-06
7.24297e-06
2.27603e-05
2.27537e-05
7.24169e-06
9.56023e-06
2.27467e-05
7.24151e-06
1.26505e-05
4.23827e-06
4.88351e-06
1.12426e-05
4.88361e-06
1.12403e-05
1.2653e-05
1.26495e-05
1.12366e-05
4.88267e-06
4.23741e-06
1.26469e-05
1.12389e-05
4.8826e-06
2.2754e-05
9.56111e-06
7.24138e-06
7.24158e-06
2.2761e-05
2.27543e-05
7.24031e-06
9.5601e-06
2.27473e-05
7.24011e-06
1.26508e-05
4.23816e-06
1.12425e-05
4.88332e-06
1.12402e-05
4.88339e-06
1.26534e-05
9.95832e-06
2.23771e-05
2.23775e-05
2.23707e-05
2.23712e-05
9.958e-06
4.70653e-06
2.97445e-06
5.64733e-06
9.9202e-06
9.92295e-06
2.97427e-06
4.70687e-06
4.70084e-06
2.97338e-06
5.64564e-06
9.91569e-06
2.97322e-06
9.91835e-06
4.70119e-06
4.70759e-06
9.92587e-06
5.6486e-06
2.97469e-06
9.92328e-06
2.97488e-06
4.70724e-06
4.70191e-06
9.92143e-06
5.64677e-06
2.97364e-06
2.97381e-06
9.91879e-06
4.70156e-06
9.95617e-06
2.23646e-05
2.23651e-05
2.2371e-05
2.23715e-05
9.95649e-06
1.90687e-05
1.90694e-05
1.90824e-05
1.90817e-05
9.95981e-06
2.23767e-05
2.23772e-05
9.96014e-06
2.23831e-05
2.23836e-05
4.70898e-06
2.97548e-06
5.65086e-06
9.93173e-06
2.97568e-06
9.92977e-06
4.70861e-06
4.7033e-06
2.97443e-06
5.64901e-06
9.92746e-06
9.92493e-06
2.97461e-06
4.70293e-06
4.70793e-06
9.92674e-06
2.97529e-06
5.6496e-06
2.97509e-06
4.7083e-06
9.92876e-06
4.70225e-06
9.92185e-06
2.97422e-06
5.64791e-06
4.70261e-06
9.92452e-06
2.97405e-06
9.96195e-06
2.23891e-05
2.23896e-05
2.23827e-05
2.23832e-05
9.96161e-06
1.9081e-05
1.90802e-05
1.26421e-05
4.88193e-06
1.12353e-05
4.23685e-06
4.88203e-06
1.12329e-05
1.2646e-05
2.27414e-05
9.55437e-06
7.23783e-06
7.23767e-06
2.27343e-05
2.2741e-05
7.23897e-06
9.5551e-06
7.23914e-06
2.27481e-05
1.2642e-05
4.23604e-06
4.88126e-06
1.12292e-05
4.88116e-06
1.12316e-05
1.26381e-05
1.26418e-05
4.88211e-06
1.12354e-05
4.23682e-06
4.88223e-06
1.1233e-05
1.26457e-05
2.27407e-05
9.55502e-06
7.23964e-06
7.23926e-06
2.27334e-05
2.27401e-05
7.24056e-06
9.55614e-06
7.24094e-06
2.27474e-05
1.26417e-05
4.23609e-06
4.88148e-06
1.12293e-05
4.88135e-06
1.12317e-05
1.26378e-05
1.265e-05
4.88278e-06
1.12366e-05
4.23741e-06
1.26461e-05
4.88266e-06
1.12389e-05
2.27544e-05
9.56118e-06
7.24154e-06
7.24172e-06
2.27614e-05
2.27548e-05
7.24044e-06
9.56047e-06
2.27477e-05
7.24026e-06
1.26501e-05
4.2382e-06
4.8834e-06
1.12425e-05
4.88351e-06
1.12403e-05
1.26539e-05
1.26497e-05
4.88298e-06
1.12367e-05
4.23746e-06
1.26458e-05
4.88284e-06
1.1239e-05
2.27534e-05
9.56221e-06
7.24312e-06
7.24352e-06
2.27607e-05
2.27541e-05
7.24224e-06
9.56111e-06
2.27468e-05
7.24185e-06
1.26498e-05
4.23817e-06
4.88357e-06
1.12427e-05
4.88371e-06
1.12404e-05
1.26537e-05
1.90684e-05
1.90692e-05
1.90704e-05
1.90712e-05
9.95933e-06
2.23768e-05
2.2376e-05
9.95966e-06
2.23832e-05
2.23824e-05
4.70307e-06
2.97432e-06
5.64896e-06
9.92739e-06
4.70271e-06
2.9745e-06
9.92475e-06
4.70878e-06
2.97551e-06
5.65091e-06
9.93213e-06
4.70844e-06
2.97569e-06
9.92955e-06
4.70204e-06
9.92163e-06
2.97411e-06
5.64783e-06
4.70239e-06
2.97393e-06
9.92433e-06
4.70776e-06
9.92643e-06
2.9753e-06
5.64978e-06
4.7081e-06
2.97513e-06
9.9291e-06
9.96147e-06
2.23892e-05
2.23884e-05
9.96113e-06
2.23829e-05
2.23821e-05
1.90808e-05
1.908e-05
1.90827e-05
1.9082e-05
2.27676e-05
7.24285e-06
9.56605e-06
2.27606e-05
7.24264e-06
1.26574e-05
4.2387e-06
1.12438e-05
4.8841e-06
1.26548e-05
1.12461e-05
4.88403e-06
9.56717e-06
1.90916e-05
1.90935e-05
4.41837e-07
4.41804e-07
6.53594e-07
4.43732e-07
4.43703e-07
2.35638e-07
2.33698e-07
2.82696e-06
1.96733e-06
1.96757e-06
1.41396e-06
1.96666e-06
1.96688e-06
2.82726e-06
2.82827e-06
1.96889e-06
1.96913e-06
1.41689e-06
2.8286e-06
1.96819e-06
1.96841e-06
2.82703e-06
1.96738e-06
1.96761e-06
1.41397e-06
1.9667e-06
1.96693e-06
2.82735e-06
2.82837e-06
1.4177e-06
1.96789e-06
1.96811e-06
1.96859e-06
1.96881e-06
2.82805e-06
2.82689e-06
1.96748e-06
1.96736e-06
1.4139e-06
1.96668e-06
1.96679e-06
2.82721e-06
2.82824e-06
1.41762e-06
1.96796e-06
1.96786e-06
1.96867e-06
1.96856e-06
2.8279e-06
2.82704e-06
1.96751e-06
1.96741e-06
1.41396e-06
1.96674e-06
1.96683e-06
2.82734e-06
2.82837e-06
1.41768e-06
1.96801e-06
1.96793e-06
1.96871e-06
1.96862e-06
2.82806e-06
2.82829e-06
1.4177e-06
1.96784e-06
1.96806e-06
2.82797e-06
1.96853e-06
1.96878e-06
4.41845e-07
4.41798e-07
6.53601e-07
4.4374e-07
4.43693e-07
2.35631e-07
2.33698e-07
4.41931e-07
4.41879e-07
6.53682e-07
4.43827e-07
4.43773e-07
2.35704e-07
2.33772e-07
4.41919e-07
4.41877e-07
6.53673e-07
4.43816e-07
4.43771e-07
2.35698e-07
2.33767e-07
6.55186e-07
4.47447e-07
4.47417e-07
4.45621e-07
4.45587e-07
2.37566e-07
2.39481e-07
6.55187e-07
4.47454e-07
4.47404e-07
4.45627e-07
4.45577e-07
2.37567e-07
2.39472e-07
6.55268e-07
4.47539e-07
4.47484e-07
4.45713e-07
4.45659e-07
2.3764e-07
2.39545e-07
6.55255e-07
4.47527e-07
4.47481e-07
4.45697e-07
4.45656e-07
2.37635e-07
2.39539e-07
1.6648e-06
2.53989e-06
1.54192e-06
2.29457e-06
2.5401e-06
1.54282e-06
1.66324e-06
1.84176e-06
2.22263e-06
3.64458e-06
3.02121e-06
2.22214e-06
3.02082e-06
1.84304e-06
1.84359e-06
3.0213e-06
3.64546e-06
2.22251e-06
2.223e-06
3.0217e-06
1.84227e-06
1.66277e-06
2.29397e-06
2.53969e-06
1.54222e-06
2.53947e-06
1.54131e-06
1.66427e-06
1.66457e-06
1.54192e-06
2.53972e-06
2.29449e-06
1.54275e-06
2.53991e-06
1.66342e-06
1.84174e-06
2.22264e-06
3.6446e-06
3.02079e-06
2.22217e-06
3.02047e-06
1.84284e-06
1.84337e-06
3.02096e-06
3.64544e-06
2.22254e-06
2.22302e-06
3.02128e-06
1.84229e-06
1.66286e-06
2.29392e-06
1.54215e-06
2.53949e-06
1.54133e-06
2.53928e-06
1.66406e-06
2.82763e-06
1.41618e-06
1.96708e-06
1.9673e-06
1.96775e-06
1.96799e-06
2.82731e-06
2.82771e-06
1.4162e-06
1.96712e-06
1.96735e-06
2.82739e-06
1.96781e-06
1.96804e-06
2.82773e-06
1.41551e-06
1.96821e-06
1.96844e-06
2.82805e-06
1.96752e-06
1.96774e-06
1.66457e-06
2.53973e-06
1.54189e-06
2.29446e-06
2.53992e-06
1.54273e-06
1.66337e-06
1.84175e-06
2.22261e-06
3.64447e-06
3.02083e-06
3.0205e-06
2.22216e-06
1.84283e-06
1.84337e-06
3.02099e-06
3.64531e-06
2.22253e-06
3.02132e-06
2.223e-06
1.84228e-06
1.66282e-06
2.29391e-06
2.5395e-06
1.54213e-06
2.53931e-06
1.54129e-06
1.66405e-06
1.66476e-06
2.53998e-06
1.54194e-06
2.29452e-06
2.54017e-06
1.54279e-06
1.66349e-06
1.84196e-06
2.22295e-06
3.64496e-06
3.02143e-06
3.02107e-06
2.22246e-06
1.84308e-06
1.84361e-06
3.02156e-06
3.64581e-06
2.22284e-06
3.02192e-06
1.8425e-06
2.22332e-06
1.66293e-06
2.29396e-06
2.53975e-06
1.54218e-06
2.53956e-06
1.54134e-06
1.66424e-06
1.66389e-06
2.54032e-06
1.54331e-06
2.29479e-06
1.66506e-06
2.54012e-06
1.54247e-06
1.84436e-06
2.22321e-06
3.64662e-06
3.02191e-06
2.22369e-06
3.02224e-06
1.84333e-06
1.8428e-06
3.02179e-06
2.22336e-06
3.64581e-06
2.22288e-06
1.84388e-06
3.02145e-06
1.66552e-06
2.29532e-06
2.5405e-06
1.54302e-06
2.5407e-06
1.54387e-06
1.66436e-06
1.66401e-06
2.54058e-06
1.54337e-06
2.29485e-06
1.66524e-06
2.54037e-06
1.54252e-06
1.8446e-06
2.22351e-06
3.64712e-06
3.02248e-06
3.02285e-06
2.22402e-06
1.84355e-06
1.84302e-06
3.02239e-06
2.22368e-06
3.6463e-06
1.84412e-06
3.02203e-06
2.22319e-06
1.66569e-06
2.29538e-06
2.54075e-06
1.54307e-06
2.54096e-06
1.54392e-06
1.66452e-06
2.82757e-06
1.41613e-06
1.9672e-06
1.96709e-06
1.96778e-06
1.9679e-06
2.82725e-06
2.82758e-06
1.41543e-06
1.9683e-06
1.96818e-06
1.96759e-06
2.82791e-06
1.96749e-06
1.66484e-06
2.54e-06
1.54195e-06
2.29464e-06
2.5402e-06
1.54289e-06
1.66332e-06
1.84191e-06
2.22304e-06
3.64519e-06
3.02146e-06
3.02109e-06
2.22255e-06
1.84313e-06
1.84368e-06
3.02157e-06
3.64608e-06
2.22293e-06
3.02195e-06
2.22342e-06
1.84243e-06
1.66287e-06
2.29402e-06
2.53978e-06
1.54227e-06
2.53957e-06
1.54135e-06
1.66429e-06
1.66472e-06
1.54189e-06
2.53978e-06
2.29456e-06
1.54284e-06
2.53999e-06
1.66317e-06
1.84173e-06
2.2229e-06
3.645e-06
3.02096e-06
3.02061e-06
2.22241e-06
1.84295e-06
1.8435e-06
3.0211e-06
3.64591e-06
2.22278e-06
3.02145e-06
1.84225e-06
2.22328e-06
1.66273e-06
2.29395e-06
1.54222e-06
2.53957e-06
1.5413e-06
2.53937e-06
1.66415e-06
1.66369e-06
2.54059e-06
1.54348e-06
2.2949e-06
1.66547e-06
2.54037e-06
1.54251e-06
1.84476e-06
2.2236e-06
3.64738e-06
3.02248e-06
2.22411e-06
3.02287e-06
1.84332e-06
1.8429e-06
3.02242e-06
2.22378e-06
3.64652e-06
2.22328e-06
1.84421e-06
3.02203e-06
1.66617e-06
2.29549e-06
2.54078e-06
1.54307e-06
2.54098e-06
1.54404e-06
1.66416e-06
1.66357e-06
1.54343e-06
2.54039e-06
2.29484e-06
1.66536e-06
1.54247e-06
2.54018e-06
1.84457e-06
2.22347e-06
3.64721e-06
3.02201e-06
3.02238e-06
2.22398e-06
1.84316e-06
1.84273e-06
3.02193e-06
2.22364e-06
3.64634e-06
1.84403e-06
3.02157e-06
2.22314e-06
1.66604e-06
2.29541e-06
1.54301e-06
2.54056e-06
1.54399e-06
2.54077e-06
1.66402e-06
1.66458e-06
1.54191e-06
2.53973e-06
2.29446e-06
1.54274e-06
2.53993e-06
1.66341e-06
1.84175e-06
2.22258e-06
3.64451e-06
3.02082e-06
2.22212e-06
3.02047e-06
1.84284e-06
1.84337e-06
3.02096e-06
3.64535e-06
2.22249e-06
2.22296e-06
3.02131e-06
1.84228e-06
1.66285e-06
2.29392e-06
1.54214e-06
2.53951e-06
1.54131e-06
2.53931e-06
1.66407e-06
1.66366e-06
2.5405e-06
1.54339e-06
2.29484e-06
1.66534e-06
2.54027e-06
1.54249e-06
1.84467e-06
2.22318e-06
3.64677e-06
3.02221e-06
1.84316e-06
2.22369e-06
3.02262e-06
1.84274e-06
3.02217e-06
2.22336e-06
3.64591e-06
1.84413e-06
2.22286e-06
3.02177e-06
1.66593e-06
2.2954e-06
2.54064e-06
1.54304e-06
1.66405e-06
2.54087e-06
1.54393e-06
1.6639e-06
1.54332e-06
2.54033e-06
2.29479e-06
1.66506e-06
1.54248e-06
2.54012e-06
1.84435e-06
2.22316e-06
3.64666e-06
3.02187e-06
3.02224e-06
2.22366e-06
1.84333e-06
1.84281e-06
3.02178e-06
2.22332e-06
3.64584e-06
1.84387e-06
3.02142e-06
2.22284e-06
1.66553e-06
2.29531e-06
1.54302e-06
2.5405e-06
1.54387e-06
2.5407e-06
1.66437e-06
2.82771e-06
1.41619e-06
1.96724e-06
1.96716e-06
1.96784e-06
1.96794e-06
2.8274e-06
2.82774e-06
1.4155e-06
1.96834e-06
1.96824e-06
1.96764e-06
2.82805e-06
1.96755e-06
1.66471e-06
1.54196e-06
2.53992e-06
2.29452e-06
1.54279e-06
2.54012e-06
1.66354e-06
1.84194e-06
2.223e-06
3.64513e-06
3.02137e-06
2.22252e-06
3.021e-06
1.84304e-06
1.84357e-06
3.02149e-06
3.64599e-06
2.2229e-06
2.22338e-06
3.02186e-06
1.84248e-06
1.66297e-06
2.29398e-06
1.54218e-06
2.5397e-06
1.54136e-06
2.5395e-06
1.66419e-06
1.66389e-06
1.54333e-06
2.54031e-06
2.2948e-06
1.66506e-06
1.5425e-06
2.54009e-06
1.84436e-06
2.22322e-06
3.64676e-06
3.02188e-06
1.84335e-06
2.22372e-06
3.02222e-06
1.84282e-06
3.02176e-06
2.22338e-06
3.64594e-06
1.84388e-06
2.22289e-06
3.02142e-06
1.66553e-06
2.29534e-06
1.54304e-06
2.54049e-06
1.66437e-06
1.54388e-06
2.54069e-06
1.66402e-06
1.54336e-06
2.54052e-06
2.29486e-06
1.66519e-06
1.54253e-06
2.54031e-06
1.84456e-06
2.22357e-06
3.64731e-06
3.02241e-06
3.02279e-06
2.22408e-06
1.84353e-06
1.84301e-06
3.02234e-06
2.22374e-06
3.64647e-06
1.84408e-06
3.02196e-06
2.22325e-06
1.66565e-06
2.29538e-06
1.54308e-06
2.54068e-06
1.54392e-06
2.5409e-06
1.6645e-06
2.82765e-06
1.41547e-06
1.96815e-06
1.9684e-06
2.82797e-06
1.96747e-06
1.96769e-06
1.8438e-06
2.22397e-06
3.02267e-06
3.6471e-06
2.22347e-06
1.84481e-06
3.0223e-06
1.66479e-06
2.29557e-06
1.54439e-06
2.54106e-06
1.54355e-06
1.666e-06
2.54083e-06
2.22439e-06
3.64774e-06
2.22388e-06
3.23678e-07
8.68841e-07
8.68935e-07
1.15433e-06
3.39713e-07
8.92268e-07
8.92365e-07
1.17353e-06
3.55988e-07
9.14706e-07
9.14801e-07
1.19187e-06
3.72427e-07
9.36137e-07
9.36232e-07
1.20934e-06
3.88949e-07
9.56557e-07
9.56645e-07
1.22594e-06
4.05474e-07
9.75978e-07
9.76066e-07
1.24175e-06
4.21923e-07
9.94412e-07
9.94502e-07
1.25677e-06
4.38221e-07
1.01186e-06
1.01195e-06
1.27099e-06
4.54295e-07
1.02835e-06
1.02844e-06
1.28441e-06
4.70077e-07
1.04388e-06
1.04397e-06
1.29712e-06
4.8551e-07
1.05849e-06
1.05857e-06
1.30907e-06
5.0054e-07
1.07219e-06
1.07226e-06
1.32029e-06
5.15121e-07
1.08501e-06
1.08507e-06
1.33085e-06
5.2921e-07
1.09697e-06
1.09703e-06
1.3408e-06
5.4277e-07
1.10811e-06
1.10817e-06
1.35011e-06
5.55774e-07
1.11844e-06
1.1185e-06
1.35879e-06
5.68194e-07
1.128e-06
1.12805e-06
1.36687e-06
5.8001e-07
1.1368e-06
1.13685e-06
1.37437e-06
5.9121e-07
1.14487e-06
1.14493e-06
1.3813e-06
6.01785e-07
1.15225e-06
1.1523e-06
1.38768e-06
6.11727e-07
1.15895e-06
1.159e-06
1.39355e-06
6.21035e-07
1.16499e-06
1.16503e-06
1.3989e-06
6.2971e-07
1.1704e-06
1.17044e-06
1.40376e-06
6.37758e-07
1.17521e-06
1.17524e-06
1.40808e-06
6.45185e-07
1.17942e-06
1.17945e-06
1.41196e-06
1.15424e-06
1.16795e-06
8.68985e-07
8.69003e-07
8.86626e-07
8.86659e-07
1.15384e-06
1.16796e-06
8.68882e-07
8.69072e-07
8.86555e-07
8.86724e-07
8.69081e-07
8.86501e-07
8.86745e-07
1.15401e-06
1.16806e-06
8.68954e-07
8.86598e-07
8.86615e-07
1.16802e-06
1.17342e-06
1.18661e-06
8.92388e-07
8.92423e-07
9.09309e-07
9.09343e-07
1.17323e-06
1.18649e-06
8.92322e-07
8.92489e-07
9.09235e-07
9.09404e-07
8.92511e-07
9.09188e-07
9.09427e-07
1.17334e-06
1.18655e-06
8.92381e-07
9.09286e-07
9.09302e-07
1.18665e-06
1.19173e-06
1.20434e-06
9.14822e-07
9.14857e-07
9.30991e-07
9.31025e-07
1.19165e-06
1.20421e-06
9.14754e-07
9.14916e-07
9.30912e-07
9.31076e-07
9.14942e-07
9.30875e-07
9.31104e-07
1.1918e-06
1.20416e-06
9.1482e-07
9.30967e-07
9.30984e-07
1.20438e-06
1.20925e-06
1.22114e-06
9.36252e-07
9.36287e-07
9.51663e-07
9.51694e-07
1.20917e-06
1.22105e-06
9.36176e-07
9.36337e-07
9.51577e-07
9.51739e-07
9.36367e-07
9.51548e-07
9.51765e-07
1.20944e-06
1.22113e-06
9.36249e-07
9.51637e-07
9.51654e-07
1.22124e-06
1.22588e-06
1.23698e-06
9.56671e-07
9.56702e-07
9.71331e-07
9.71359e-07
1.22581e-06
1.23701e-06
9.56589e-07
9.56746e-07
9.71239e-07
9.71397e-07
9.56776e-07
9.71216e-07
9.71426e-07
1.22596e-06
1.23715e-06
9.56665e-07
9.71303e-07
9.71318e-07
1.23723e-06
1.2418e-06
1.25215e-06
9.76091e-07
9.76121e-07
9.90011e-07
9.90039e-07
1.24164e-06
1.25215e-06
9.76005e-07
9.76159e-07
9.89917e-07
9.90073e-07
9.76191e-07
9.89897e-07
9.90098e-07
1.24172e-06
1.25232e-06
9.76085e-07
9.89985e-07
9.89993e-07
1.25232e-06
1.25683e-06
1.26652e-06
9.94525e-07
9.94553e-07
1.0077e-06
1.00773e-06
1.25666e-06
1.26646e-06
9.94436e-07
9.94588e-07
1.00761e-06
1.00776e-06
9.94616e-07
1.00759e-06
1.00778e-06
1.25673e-06
1.26669e-06
9.94511e-07
1.00768e-06
1.00768e-06
1.26664e-06
1.27102e-06
1.28009e-06
1.01197e-06
1.012e-06
1.02442e-06
1.02445e-06
1.27088e-06
1.28005e-06
1.01188e-06
1.01204e-06
1.02432e-06
1.02448e-06
1.01206e-06
1.02432e-06
1.0245e-06
1.27094e-06
1.28027e-06
1.01195e-06
1.02441e-06
1.02439e-06
1.28021e-06
1.28445e-06
1.2929e-06
1.02845e-06
1.02848e-06
1.04018e-06
1.04022e-06
1.28435e-06
1.2929e-06
1.02836e-06
1.02851e-06
1.04009e-06
1.04025e-06
1.02853e-06
1.04009e-06
1.04025e-06
1.28438e-06
1.29309e-06
1.02843e-06
1.04017e-06
1.04015e-06
1.29297e-06
1.29716e-06
1.30503e-06
1.04398e-06
1.04401e-06
1.05501e-06
1.05505e-06
1.297e-06
1.30502e-06
1.04389e-06
1.04404e-06
1.05492e-06
1.05507e-06
1.04405e-06
1.05493e-06
1.05508e-06
1.29705e-06
1.30512e-06
1.04395e-06
1.055e-06
1.05498e-06
1.30507e-06
1.3091e-06
1.31642e-06
1.05857e-06
1.05861e-06
1.06893e-06
1.06897e-06
1.30897e-06
1.31644e-06
1.05848e-06
1.05863e-06
1.06883e-06
1.06898e-06
1.05864e-06
1.06885e-06
1.06899e-06
1.30906e-06
1.31652e-06
1.05855e-06
1.06892e-06
1.06889e-06
1.31651e-06
1.32031e-06
1.32718e-06
1.07227e-06
1.07231e-06
1.08196e-06
1.08201e-06
1.32023e-06
1.32715e-06
1.07218e-06
1.07232e-06
1.08186e-06
1.08201e-06
1.07233e-06
1.08189e-06
1.08202e-06
1.32029e-06
1.32723e-06
1.07223e-06
1.08195e-06
1.08192e-06
1.32724e-06
1.33085e-06
1.3372e-06
1.08508e-06
1.08513e-06
1.09412e-06
1.09418e-06
1.33079e-06
1.3372e-06
1.08499e-06
1.08513e-06
1.09402e-06
1.09417e-06
1.08514e-06
1.09406e-06
1.09418e-06
1.33087e-06
1.33728e-06
1.08504e-06
1.09412e-06
1.09409e-06
1.33727e-06
1.34076e-06
1.34661e-06
1.09703e-06
1.09709e-06
1.10545e-06
1.10551e-06
1.34071e-06
1.34659e-06
1.09694e-06
1.09709e-06
1.10535e-06
1.10551e-06
1.0971e-06
1.1054e-06
1.10551e-06
1.34079e-06
1.34666e-06
1.097e-06
1.10546e-06
1.10542e-06
1.34666e-06
1.35007e-06
1.35544e-06
1.10815e-06
1.10822e-06
1.11597e-06
1.11603e-06
1.35002e-06
1.35538e-06
1.10806e-06
1.10821e-06
1.11588e-06
1.11603e-06
1.10822e-06
1.11593e-06
1.11604e-06
1.35011e-06
1.35545e-06
1.10813e-06
1.11599e-06
1.11595e-06
1.35546e-06
1.35872e-06
1.36363e-06
1.11848e-06
1.11854e-06
1.12572e-06
1.12578e-06
1.35872e-06
1.36359e-06
1.11839e-06
1.11854e-06
1.12562e-06
1.12578e-06
1.11855e-06
1.12568e-06
1.12579e-06
1.35878e-06
1.36365e-06
1.11846e-06
1.12573e-06
1.12569e-06
1.36366e-06
1.36678e-06
1.37122e-06
1.12803e-06
1.12809e-06
1.1347e-06
1.13476e-06
1.3668e-06
1.37119e-06
1.12794e-06
1.1281e-06
1.13461e-06
1.13476e-06
1.12811e-06
1.13467e-06
1.13478e-06
1.36686e-06
1.37126e-06
1.12801e-06
1.13472e-06
1.13468e-06
1.37128e-06
1.3743e-06
1.37827e-06
1.13683e-06
1.13689e-06
1.14296e-06
1.14301e-06
1.37429e-06
1.37826e-06
1.13675e-06
1.1369e-06
1.14286e-06
1.14302e-06
1.13691e-06
1.14292e-06
1.14304e-06
1.37436e-06
1.37832e-06
1.13682e-06
1.14298e-06
1.14293e-06
1.37834e-06
1.38125e-06
1.38479e-06
1.14491e-06
1.14497e-06
1.15051e-06
1.15056e-06
1.38121e-06
1.38476e-06
1.14482e-06
1.14497e-06
1.15041e-06
1.15056e-06
1.14499e-06
1.15047e-06
1.15059e-06
1.38128e-06
1.38483e-06
1.14489e-06
1.15052e-06
1.15048e-06
1.38485e-06
1.38763e-06
1.39075e-06
1.15229e-06
1.15234e-06
1.15737e-06
1.15742e-06
1.3876e-06
1.39073e-06
1.1522e-06
1.15234e-06
1.15728e-06
1.15742e-06
1.15237e-06
1.15733e-06
1.15745e-06
1.38766e-06
1.39079e-06
1.15227e-06
1.15738e-06
1.15734e-06
1.3908e-06
1.3935e-06
1.39619e-06
1.15899e-06
1.15904e-06
1.16358e-06
1.16362e-06
1.39346e-06
1.39618e-06
1.1589e-06
1.15904e-06
1.16349e-06
1.16362e-06
1.15907e-06
1.16353e-06
1.16365e-06
1.39352e-06
1.39622e-06
1.15896e-06
1.16358e-06
1.16355e-06
1.39624e-06
1.39887e-06
1.40114e-06
1.16504e-06
1.16508e-06
1.16915e-06
1.16919e-06
1.3988e-06
1.40113e-06
1.16495e-06
1.16508e-06
1.16906e-06
1.16919e-06
1.16511e-06
1.1691e-06
1.16922e-06
1.39886e-06
1.40115e-06
1.165e-06
1.16913e-06
1.16911e-06
1.40117e-06
1.40373e-06
1.4056e-06
1.17045e-06
1.1705e-06
1.17411e-06
1.17415e-06
1.40365e-06
1.40559e-06
1.17037e-06
1.17049e-06
1.17402e-06
1.17414e-06
1.17052e-06
1.17405e-06
1.17416e-06
1.40372e-06
1.4056e-06
1.17041e-06
1.17408e-06
1.17406e-06
1.40565e-06
1.4081e-06
1.40959e-06
1.17526e-06
1.1753e-06
1.17848e-06
1.17851e-06
1.40801e-06
1.40957e-06
1.17518e-06
1.1753e-06
1.17839e-06
1.17851e-06
1.17532e-06
1.17841e-06
1.17852e-06
1.40809e-06
1.40961e-06
1.17522e-06
1.17844e-06
1.17842e-06
1.40963e-06
1.41199e-06
1.41315e-06
1.17949e-06
1.17952e-06
1.18229e-06
1.18231e-06
1.4119e-06
1.41309e-06
1.17941e-06
1.17952e-06
1.1822e-06
1.18231e-06
1.17953e-06
1.18221e-06
1.18231e-06
1.41197e-06
1.41315e-06
1.17943e-06
1.18224e-06
1.18222e-06
1.41315e-06
4.09741e-06
9.16245e-06
9.16937e-06
4.09539e-06
1.84294e-05
1.84399e-05
4.09786e-06
9.16427e-06
9.17133e-06
4.09538e-06
3.23663e-07
3.2375e-07
3.23761e-07
3.35679e-07
3.35662e-07
3.35751e-07
3.35765e-07
2.11418e-06
3.47714e-06
5.64151e-07
8.7479e-07
3.48058e-06
5.70017e-07
2.10971e-06
1.84303e-05
1.84409e-05
2.1142e-06
5.64242e-07
3.4772e-06
8.74885e-07
5.70112e-07
3.48075e-06
2.10975e-06
5.46423e-06
5.46615e-06
1.15831e-06
5.46646e-06
5.46875e-06
4.10494e-06
9.1784e-06
4.1031e-06
9.18553e-06
1.84516e-05
1.84625e-05
4.10542e-06
9.18054e-06
4.10295e-06
9.18769e-06
3.39695e-07
3.39786e-07
3.398e-07
3.51901e-07
3.51884e-07
3.51978e-07
3.51991e-07
2.12801e-06
3.48814e-06
5.87476e-07
8.97971e-07
2.12373e-06
3.49126e-06
5.93267e-07
1.84525e-05
1.84634e-05
2.12801e-06
5.8757e-07
3.4882e-06
8.98068e-07
2.12379e-06
5.93365e-07
3.49139e-06
5.47344e-06
5.47516e-06
1.17744e-06
5.47589e-06
5.47801e-06
4.11254e-06
9.19477e-06
4.1106e-06
9.2019e-06
1.84747e-05
1.84858e-05
4.113e-06
9.19697e-06
4.11043e-06
9.20415e-06
3.55971e-07
3.56065e-07
3.5608e-07
3.68307e-07
3.68291e-07
3.68387e-07
3.68402e-07
2.14111e-06
3.49868e-06
6.10469e-07
9.2016e-07
2.13707e-06
3.50164e-06
6.16163e-07
1.84756e-05
1.84868e-05
2.14111e-06
6.1057e-07
3.49878e-06
9.20253e-07
2.13712e-06
6.16265e-07
3.50181e-06
5.48259e-06
5.48427e-06
1.19564e-06
5.48495e-06
5.48704e-06
4.11994e-06
9.21155e-06
4.11793e-06
9.21836e-06
1.84985e-05
1.85099e-05
4.12023e-06