/*--------------------------------*- C++ -*----------------------------------*\
| =========                 |                                                 |
| \\      /  F ield         | OpenFOAM: The Open Source CFD Toolbox           |
|  \\    /   O peration     | Version:  v1906                                 |
|   \\  /    A nd           | Web:      www.OpenFOAM.com                      |
|    \\/     M anipulation  |                                                 |
\*---------------------------------------------------------------------------*/
FoamFile
{
    version     2.0;
    format      ascii;
    class       volScalarField;
    location    "400";
    object      k;
}
// * * * * * * * * * * * * * * * * * * * * * * * * * * * * * * * * * * * * * //

dimensions      [0 2 -2 0 0 0 0];


internalField   nonuniform List<scalar> 
42840
(
3.83908e-05
5.11184e-05
5.11179e-05
5.33112e-05
5.35015e-05
5.33125e-05
5.34473e-05
5.11168e-05
5.11172e-05
5.13067e-05
5.13067e-05
5.33115e-05
5.34462e-05
5.1117e-05
5.11159e-05
5.13066e-05
5.13055e-05
5.11182e-05
5.13081e-05
5.13074e-05
5.33111e-05
5.34459e-05
5.11179e-05
5.13077e-05
5.13073e-05
5.34571e-05
5.13677e-05
5.13676e-05
6.85223e-05
7.33621e-05
7.33897e-05
6.84945e-05
7.1122e-05
7.11489e-05
6.85276e-05
7.33689e-05
7.33946e-05
6.84973e-05
3.83916e-05
3.83941e-05
3.83947e-05
3.87103e-05
3.87107e-05
3.87131e-05
3.87135e-05
6.05403e-05
6.47035e-05
4.63371e-05
5.11834e-05
6.47355e-05
4.64186e-05
6.04904e-05
7.11207e-05
7.11479e-05
6.05375e-05
4.63375e-05
6.47037e-05
5.11829e-05
4.64191e-05
6.47356e-05
6.04907e-05
6.98691e-05
6.98806e-05
5.33497e-05
6.98888e-05
6.99003e-05
6.99271e-05
6.99385e-05
7.11204e-05
7.11473e-05
7.11229e-05
7.11497e-05
6.9871e-05
6.98811e-05
5.33483e-05
6.98908e-05
6.98999e-05
7.11759e-05
7.11492e-05
7.11783e-05
7.11517e-05
5.34151e-05
6.99193e-05
6.99283e-05
6.99004e-05
6.99104e-05
6.85242e-05
7.33679e-05
7.33936e-05
6.84963e-05
6.05376e-05
6.47033e-05
4.63347e-05
5.11817e-05
6.47354e-05
4.64161e-05
6.04907e-05
6.05391e-05
6.47066e-05
4.6336e-05
5.11819e-05
6.47385e-05
4.64173e-05
6.04921e-05
6.85287e-05
7.34206e-05
7.33936e-05
6.8555e-05
6.85305e-05
7.34244e-05
7.33992e-05
6.85568e-05
6.05501e-05
5.12445e-05
6.47728e-05
4.65734e-05
6.47422e-05
4.64952e-05
6.05947e-05
6.05515e-05
5.12448e-05
6.47759e-05
4.65746e-05
6.47454e-05
4.64965e-05
6.05961e-05
6.988e-05
6.98682e-05
5.33471e-05
6.98988e-05
6.98863e-05
7.11184e-05
7.11455e-05
7.11775e-05
7.11509e-05
5.3414e-05
6.99274e-05
6.99148e-05
6.99093e-05
6.98975e-05
7.11741e-05
7.11473e-05
6.05422e-05
6.47074e-05
4.6337e-05
5.11818e-05
6.47394e-05
4.64184e-05
6.04913e-05
6.85254e-05
7.33625e-05
7.33898e-05
6.84951e-05
6.05402e-05
4.63369e-05
6.47015e-05
5.11806e-05
4.64181e-05
6.47335e-05
6.04892e-05
6.85312e-05
7.3426e-05
7.3399e-05
6.85599e-05
6.05503e-05
5.12447e-05
6.47766e-05
4.65757e-05
6.47461e-05
4.64975e-05
6.05989e-05
6.8529e-05
7.34199e-05
7.33946e-05
6.85577e-05
6.05483e-05
5.12436e-05
4.65754e-05
6.47712e-05
4.64974e-05
6.47406e-05
6.0597e-05
6.85257e-05
7.33669e-05
7.33924e-05
6.84959e-05
6.05379e-05
4.63376e-05
6.47022e-05
5.11828e-05
4.64188e-05
6.47341e-05
6.04912e-05
6.85228e-05
7.33641e-05
7.33898e-05
6.84952e-05
6.05511e-05
5.12458e-05
6.47729e-05
4.65756e-05
6.47423e-05
4.64973e-05
6.05957e-05
6.85297e-05
7.34238e-05
7.3398e-05
6.85578e-05
6.05503e-05
5.12456e-05
4.65757e-05
6.47715e-05
4.64978e-05
6.4741e-05
6.05945e-05
6.8529e-05
7.34213e-05
7.33946e-05
6.85551e-05
6.98743e-05
6.98709e-05
5.33467e-05
6.98925e-05
6.98897e-05
7.1121e-05
7.11479e-05
7.11765e-05
7.11496e-05
5.34135e-05
6.99211e-05
6.99185e-05
6.99038e-05
6.99003e-05
7.11765e-05
7.11498e-05
6.0539e-05
4.63385e-05
6.47076e-05
5.11825e-05
4.64198e-05
6.47396e-05
6.04921e-05
6.85223e-05
7.33649e-05
7.33905e-05
6.84945e-05
6.85246e-05
7.33674e-05
7.3395e-05
6.84968e-05
6.055e-05
5.12454e-05
4.65761e-05
6.47732e-05
4.64977e-05
6.47426e-05
6.05944e-05
6.05514e-05
5.12454e-05
4.65768e-05
6.4777e-05
4.64988e-05
6.47466e-05
6.05958e-05
6.85285e-05
7.34214e-05
7.33962e-05
6.85548e-05
6.85308e-05
7.34259e-05
7.33988e-05
6.85571e-05
7.11201e-05
7.11471e-05
7.11231e-05
7.11501e-05
5.34082e-05
6.99169e-05
6.99284e-05
6.98986e-05
6.99102e-05
7.11757e-05
7.11489e-05
7.11788e-05
7.1152e-05
4.66515e-05
6.47782e-05
6.0606e-05
7.34249e-05
6.8561e-05
6.47839e-05
7.34295e-05
7.11776e-05
7.11806e-05
7.17966e-05
7.15763e-05
7.15483e-05
6.85117e-05
7.15663e-05
7.15386e-05
7.18093e-05
7.16354e-05
7.33742e-05
7.97052e-05
7.97088e-05
7.16201e-05
7.16342e-05
7.97222e-05
7.3378e-05
7.97188e-05
7.16493e-05
7.1795e-05
6.85053e-05
7.15506e-05
7.1523e-05
7.15606e-05
7.15328e-05
7.17809e-05
7.11345e-05
7.11365e-05
7.18009e-05
7.15565e-05
7.15797e-05
6.85147e-05
7.15441e-05
7.15668e-05
7.18106e-05
7.16372e-05
7.33789e-05
7.97223e-05
7.9731e-05
7.16224e-05
7.16364e-05
7.97444e-05
7.33847e-05
7.97358e-05
7.16511e-05
7.17956e-05
6.85108e-05
7.15298e-05
7.1551e-05
7.15408e-05
7.15641e-05
7.17858e-05
7.11335e-05
7.11352e-05
9.49308e-05
7.34595e-05
7.34532e-05
7.34456e-05
7.34393e-05
9.49339e-05
7.4082e-05
6.51298e-05
6.98742e-05
7.31961e-05
6.5144e-05
7.32088e-05
7.40761e-05
7.41299e-05
6.51384e-05
6.98857e-05
7.32067e-05
6.51534e-05
7.32193e-05
7.41242e-05
7.40939e-05
7.3223e-05
6.98839e-05
6.51679e-05
6.51541e-05
7.32123e-05
7.40996e-05
7.41419e-05
7.32335e-05
6.98955e-05
6.51772e-05
6.51628e-05
7.3223e-05
7.41475e-05
9.49189e-05
7.34323e-05
7.3426e-05
7.34462e-05
7.34399e-05
9.49158e-05
7.41502e-05
6.52229e-05
7.32578e-05
6.99309e-05
7.41449e-05
6.52366e-05
7.32673e-05
7.41979e-05
6.52319e-05
7.32681e-05
6.99424e-05
7.41927e-05
6.5246e-05
7.32781e-05
9.49774e-05
7.34851e-05
7.34788e-05
9.49745e-05
7.34989e-05
7.34926e-05
7.11329e-05
7.11348e-05
7.11354e-05
7.11373e-05
9.49311e-05
7.34601e-05
7.34533e-05
7.34462e-05
7.34395e-05
9.49344e-05
7.40848e-05
6.51314e-05
6.98761e-05
7.31976e-05
7.32105e-05
6.51468e-05
7.4079e-05
7.41304e-05
6.51395e-05
6.98854e-05
7.32086e-05
7.32183e-05
6.51545e-05
7.41247e-05
7.40967e-05
7.32256e-05
6.98858e-05
6.51704e-05
7.32128e-05
7.41023e-05
6.51557e-05
7.41424e-05
7.32334e-05
6.98958e-05
6.51782e-05
7.32238e-05
7.4148e-05
6.51638e-05
9.49196e-05
7.3433e-05
7.34262e-05
7.34469e-05
7.34401e-05
9.49161e-05
7.11635e-05
7.11617e-05
7.11659e-05
7.11641e-05
9.49491e-05
7.34594e-05
7.34526e-05
9.49458e-05
7.34733e-05
7.34665e-05
7.41308e-05
6.52165e-05
6.99146e-05
7.32555e-05
7.32428e-05
6.52025e-05
7.41361e-05
7.41763e-05
6.52241e-05
6.99245e-05
7.32641e-05
7.32519e-05
6.521e-05
7.41817e-05
7.41194e-05
7.32278e-05
6.51794e-05
6.99053e-05
7.4114e-05
7.32407e-05
6.51939e-05
7.4165e-05
7.32382e-05
6.51872e-05
6.99143e-05
7.41596e-05
7.32488e-05
6.52015e-05
9.49604e-05
7.34864e-05
7.34796e-05
7.34725e-05
7.34657e-05
9.49635e-05
7.17985e-05
7.15784e-05
7.15553e-05
6.85136e-05
7.15654e-05
7.15456e-05
7.18112e-05
7.16367e-05
7.33779e-05
7.97233e-05
7.9732e-05
7.16219e-05
7.16359e-05
7.97454e-05
7.33837e-05
7.9737e-05
7.16507e-05
7.1795e-05
6.85072e-05
7.15495e-05
7.15299e-05
7.15628e-05
7.15397e-05
7.17844e-05
7.18236e-05
7.1582e-05
7.1554e-05
6.85389e-05
7.18128e-05
7.15918e-05
7.15633e-05
7.1662e-05
7.3409e-05
7.97487e-05
7.16771e-05
7.97454e-05
7.16632e-05
7.97323e-05
7.34053e-05
7.16481e-05
7.97356e-05
7.18281e-05
6.85451e-05
7.16075e-05
7.15779e-05
7.18379e-05
7.15972e-05
7.1569e-05
7.18267e-05
7.15809e-05
7.1561e-05
6.85408e-05
7.18125e-05
7.15939e-05
7.15703e-05
7.16638e-05
7.34146e-05
7.97718e-05
7.97637e-05
7.16785e-05
7.16646e-05
7.97504e-05
7.3409e-05
7.16499e-05
7.97588e-05
7.18276e-05
6.85469e-05
7.16092e-05
7.1585e-05
7.15963e-05
7.1576e-05
7.18419e-05
9.49291e-05
7.34529e-05
7.34587e-05
7.34389e-05
7.34448e-05
9.49308e-05
7.4128e-05
6.51377e-05
6.98842e-05
7.32076e-05
7.32174e-05
6.51517e-05
7.41237e-05
7.4082e-05
6.51316e-05
6.98717e-05
7.31975e-05
6.51446e-05
7.32072e-05
7.40776e-05
7.41415e-05
7.32325e-05
6.98948e-05
6.51755e-05
7.32229e-05
6.51619e-05
7.41456e-05
7.40954e-05
7.32223e-05
6.98829e-05
6.51682e-05
6.51557e-05
7.32127e-05
7.40996e-05
9.49157e-05
7.34257e-05
7.34315e-05
7.34396e-05
7.34455e-05
9.49142e-05
7.11311e-05
7.11329e-05
7.11652e-05
7.11633e-05
9.49455e-05
7.34521e-05
7.3458e-05
9.49439e-05
7.3466e-05
7.34719e-05
7.41755e-05
6.52216e-05
6.99235e-05
7.32624e-05
6.52082e-05
7.32529e-05
7.41794e-05
7.41295e-05
6.52144e-05
6.99117e-05
7.32521e-05
7.32427e-05
6.52021e-05
7.41335e-05
7.41626e-05
7.32379e-05
6.51854e-05
6.99132e-05
6.51989e-05
7.41587e-05
7.32474e-05
7.41167e-05
7.32277e-05
6.51792e-05
6.99007e-05
7.41127e-05
7.32372e-05
6.51917e-05
9.49584e-05
7.34792e-05
7.3485e-05
7.34653e-05
7.34712e-05
9.49602e-05
7.11616e-05
7.11599e-05
7.17962e-05
7.1579e-05
7.1549e-05
6.85125e-05
7.15661e-05
7.15369e-05
7.18107e-05
7.16347e-05
7.33746e-05
7.97032e-05
7.97076e-05
7.16194e-05
7.16335e-05
7.97211e-05
7.33782e-05
7.97168e-05
7.16487e-05
7.17957e-05
6.85086e-05
7.15503e-05
7.15212e-05
7.15634e-05
7.15337e-05
7.17812e-05
7.18265e-05
7.15589e-05
7.15822e-05
6.85441e-05
7.18154e-05
7.15718e-05
7.15951e-05
7.16642e-05
7.34143e-05
7.97706e-05
7.16788e-05
7.97622e-05
7.1665e-05
7.97491e-05
7.34105e-05
7.16503e-05
7.97576e-05
7.18286e-05
6.85474e-05
7.15863e-05
7.16103e-05
7.18422e-05
7.15738e-05
7.15976e-05
7.18257e-05
7.15815e-05
7.1552e-05
6.85419e-05
7.18112e-05
7.15944e-05
7.1564e-05
7.16613e-05
7.34102e-05
7.97475e-05
7.97434e-05
7.16765e-05
7.16626e-05
7.97303e-05
7.34049e-05
7.16474e-05
7.97345e-05
7.18262e-05
6.85453e-05
7.16095e-05
7.15785e-05
7.15968e-05
7.15669e-05
7.18407e-05
7.1798e-05
7.15564e-05
7.15792e-05
6.85131e-05
7.15436e-05
7.15661e-05
7.18123e-05
7.16366e-05
7.33769e-05
7.97204e-05
7.97295e-05
7.16217e-05
7.16358e-05
7.97429e-05
7.33825e-05
7.97341e-05
7.16505e-05
7.17972e-05
6.85089e-05
7.15278e-05
7.15502e-05
7.15411e-05
7.15635e-05
7.17829e-05
7.17968e-05
7.15786e-05
7.15494e-05
6.85122e-05
7.15656e-05
7.15398e-05
7.18111e-05
7.16353e-05
7.33741e-05
7.97026e-05
7.97113e-05
7.16205e-05
7.16346e-05
7.97247e-05
7.33799e-05
7.97163e-05
7.16494e-05
7.17959e-05
6.8506e-05
7.15497e-05
7.15242e-05
7.1563e-05
7.1534e-05
7.17817e-05
7.18273e-05
7.15586e-05
7.15815e-05
6.8542e-05
7.18131e-05
7.15713e-05
7.15946e-05
7.16636e-05
7.34124e-05
7.97691e-05
7.97606e-05
7.16783e-05
7.16645e-05
7.97475e-05
7.34081e-05
7.16497e-05
7.97561e-05
7.18281e-05
6.85458e-05
7.15856e-05
7.16098e-05
7.15733e-05
7.15969e-05
7.18423e-05
7.18261e-05
7.15811e-05
7.1555e-05
6.85392e-05
7.18119e-05
7.15941e-05
7.15643e-05
7.16625e-05
7.34094e-05
7.9751e-05
7.97429e-05
7.16772e-05
7.16633e-05
7.97297e-05
7.34056e-05
7.16486e-05
7.9738e-05
7.1827e-05
6.85453e-05
7.16093e-05
7.15788e-05
7.15965e-05
7.15698e-05
7.18412e-05
9.4933e-05
7.34533e-05
7.346e-05
7.34393e-05
7.3446e-05
9.49364e-05
7.4129e-05
6.51368e-05
6.98779e-05
7.32064e-05
7.32162e-05
6.51492e-05
7.41232e-05
7.40847e-05
6.51316e-05
6.98751e-05
7.31987e-05
6.51464e-05
7.32084e-05
7.4079e-05
7.41409e-05
7.32314e-05
6.98891e-05
6.5173e-05
7.32218e-05
6.51612e-05
7.41466e-05
7.40966e-05
7.32236e-05
6.98857e-05
6.51702e-05
6.51559e-05
7.32139e-05
7.41023e-05
9.49216e-05
7.34261e-05
7.34327e-05
7.344e-05
7.34467e-05
9.4918e-05
7.11334e-05
7.11354e-05
7.11639e-05
7.11622e-05
9.49512e-05
7.34525e-05
7.34592e-05
9.49479e-05
7.34664e-05
7.34731e-05
7.4175e-05
6.52193e-05
6.99179e-05
7.32626e-05
6.52075e-05
7.32496e-05
7.41805e-05
7.41308e-05
6.52166e-05
6.99146e-05
7.32536e-05
7.32439e-05
6.52026e-05
7.41363e-05
7.41637e-05
7.32349e-05
6.51847e-05
6.9907e-05
6.51965e-05
7.41582e-05
7.32473e-05
7.41194e-05
7.3229e-05
6.51796e-05
6.99043e-05
7.4114e-05
7.32386e-05
6.51938e-05
9.49626e-05
7.34796e-05
7.34863e-05
7.34657e-05
7.34724e-05
9.49657e-05
7.11642e-05
7.11622e-05
7.17989e-05
7.1548e-05
7.1579e-05
6.85117e-05
7.15384e-05
7.15657e-05
7.18088e-05
7.16364e-05
7.33749e-05
7.97033e-05
7.97121e-05
7.16216e-05
7.16356e-05
7.97256e-05
7.33807e-05
7.97171e-05
7.16504e-05
7.17937e-05
6.85054e-05
7.15227e-05
7.15498e-05
7.15324e-05
7.15632e-05
7.17837e-05
7.17998e-05
7.15517e-05
7.15796e-05
6.8514e-05
7.15422e-05
7.15665e-05
7.18098e-05
7.16362e-05
7.33794e-05
7.97205e-05
7.97241e-05
7.16209e-05
7.16349e-05
7.97375e-05
7.33831e-05
7.97341e-05
7.16502e-05
7.17946e-05
6.85077e-05
7.15266e-05
7.15505e-05
7.15363e-05
7.15639e-05
7.17846e-05
7.18239e-05
7.15537e-05
7.15812e-05
6.85388e-05
7.18141e-05
7.1563e-05
7.15945e-05
7.16636e-05
7.34116e-05
7.97521e-05
7.97438e-05
7.16783e-05
7.16644e-05
7.97306e-05
7.3406e-05
7.16496e-05
7.9739e-05
7.1829e-05
6.85449e-05
7.15776e-05
7.16097e-05
7.15687e-05
7.15966e-05
7.18388e-05
7.18248e-05
7.15575e-05
7.15819e-05
6.85411e-05
7.1815e-05
7.15667e-05
7.15951e-05
7.16629e-05
7.34142e-05
7.9764e-05
7.97608e-05
7.16781e-05
7.16642e-05
7.97476e-05
7.34106e-05
7.16489e-05
7.97509e-05
7.18299e-05
6.85472e-05
7.15813e-05
7.16103e-05
7.15724e-05
7.15973e-05
7.18398e-05
7.11326e-05
7.11345e-05
7.11357e-05
7.11375e-05
9.49486e-05
7.34588e-05
7.34525e-05
9.49455e-05
7.34727e-05
7.34664e-05
7.41281e-05
6.52142e-05
6.99131e-05
7.32524e-05
7.41337e-05
6.52007e-05
7.32429e-05
7.4176e-05
6.52235e-05
6.99247e-05
7.3263e-05
7.41815e-05
6.52095e-05
7.32534e-05
7.41168e-05
7.32279e-05
6.51777e-05
6.99029e-05
7.41112e-05
6.51914e-05
7.32375e-05
7.41646e-05
7.32384e-05
6.51865e-05
6.99143e-05
7.41592e-05
6.52008e-05
7.3248e-05
9.49601e-05
7.34858e-05
7.34795e-05
9.49631e-05
7.3472e-05
7.34657e-05
7.11633e-05
7.11614e-05
7.11663e-05
7.11645e-05
7.16911e-05
7.97559e-05
7.3437e-05
7.16764e-05
7.97642e-05
7.18562e-05
6.85711e-05
7.16119e-05
7.15841e-05
7.18419e-05
7.16249e-05
7.15932e-05
7.34415e-05
7.119e-05
7.11931e-05
3.12716e-05
3.12706e-05
3.84996e-05
3.1404e-05
3.14031e-05
2.22628e-05
2.21106e-05
6.5824e-05
5.9317e-05
5.93184e-05
5.32952e-05
5.93165e-05
5.93174e-05
6.58179e-05
6.59244e-05
5.94575e-05
5.94598e-05
5.35051e-05
6.59176e-05
5.94624e-05
5.94633e-05
6.58261e-05
5.93173e-05
5.93202e-05
5.32966e-05
5.93184e-05
5.93192e-05
6.58202e-05
6.58961e-05
5.34635e-05
5.94254e-05
5.94257e-05
5.94265e-05
5.94268e-05
6.59014e-05
6.58246e-05
5.9318e-05
5.93184e-05
5.32955e-05
5.93188e-05
5.93168e-05
6.58189e-05
6.58946e-05
5.34624e-05
5.94242e-05
5.94251e-05
5.94245e-05
5.94262e-05
6.58997e-05
6.58242e-05
5.93165e-05
5.93183e-05
5.32951e-05
5.93172e-05
5.93153e-05
6.58185e-05
6.58943e-05
5.34619e-05
5.94231e-05
5.94263e-05
5.9423e-05
5.94264e-05
6.58998e-05
6.58934e-05
5.34547e-05
5.94285e-05
5.94301e-05
6.59005e-05
5.94243e-05
5.94249e-05
3.12722e-05
3.1271e-05
3.85001e-05
3.14044e-05
3.14032e-05
2.22629e-05
2.21105e-05
3.1276e-05
3.12745e-05
3.85026e-05
3.14081e-05
3.14066e-05
2.2267e-05
2.21145e-05
3.12762e-05
3.12747e-05
3.85031e-05
3.14082e-05
3.14067e-05
2.22669e-05
2.21144e-05
3.86048e-05
3.16618e-05
3.16609e-05
3.15327e-05
3.15316e-05
2.24137e-05
2.25644e-05
3.86055e-05
3.16622e-05
3.16608e-05
3.15333e-05
3.15319e-05
2.24136e-05
2.25645e-05
3.8608e-05
3.16658e-05
3.16642e-05
3.1537e-05
3.15354e-05
2.24176e-05
2.25685e-05
3.86085e-05
3.16658e-05
3.16642e-05
3.1537e-05
3.15356e-05
2.24174e-05
2.25684e-05
5.61546e-05
6.22438e-05
5.48585e-05
6.05205e-05
6.22238e-05
5.4866e-05
5.61486e-05
5.72285e-05
6.02377e-05
6.47164e-05
6.4098e-05
6.02467e-05
6.41132e-05
5.72247e-05
5.72631e-05
6.41363e-05
6.47231e-05
6.02779e-05
6.02691e-05
6.41217e-05
5.72668e-05
5.61061e-05
6.0512e-05
6.21964e-05
5.48153e-05
6.22171e-05
5.4814e-05
5.6111e-05
5.61554e-05
5.48571e-05
6.2237e-05
6.05205e-05
5.487e-05
6.22219e-05
5.61431e-05
5.72185e-05
6.02405e-05
6.47164e-05
6.40928e-05
6.02423e-05
6.41061e-05
5.72292e-05
5.7268e-05
6.41294e-05
6.47234e-05
6.02733e-05
6.0272e-05
6.41166e-05
5.72571e-05
5.60969e-05
6.0508e-05
5.48244e-05
6.21945e-05
5.48112e-05
6.221e-05
5.61174e-05
6.58442e-05
5.33626e-05
5.93541e-05
5.9355e-05
5.93548e-05
5.9356e-05
6.58498e-05
6.58463e-05
5.33645e-05
5.93547e-05
5.9358e-05
6.5852e-05
5.93544e-05
5.9358e-05
6.58768e-05
5.3398e-05
5.93915e-05
5.93924e-05
6.58716e-05
5.93904e-05
5.93916e-05
5.61552e-05
6.22373e-05
5.48564e-05
6.05206e-05
6.2222e-05
5.48694e-05
5.61447e-05
5.72186e-05
6.02402e-05
6.47162e-05
6.40927e-05
6.41062e-05
6.02422e-05
5.72289e-05
5.72677e-05
6.41294e-05
6.4723e-05
6.02732e-05
6.41164e-05
6.02717e-05
5.72571e-05
5.61009e-05
6.0508e-05
6.21946e-05
5.48236e-05
6.22103e-05
5.48103e-05
5.61122e-05
5.61595e-05
6.22421e-05
5.4858e-05
6.0522e-05
6.22269e-05
5.48709e-05
5.61488e-05
5.72215e-05
6.02408e-05
6.47193e-05
6.41001e-05
6.41134e-05
6.02427e-05
5.72321e-05
5.72709e-05
6.41367e-05
6.47263e-05
6.02741e-05
6.41239e-05
5.726e-05
6.0273e-05
5.61055e-05
6.05095e-05
6.21994e-05
5.48251e-05
6.2215e-05
5.48118e-05
5.61169e-05
5.61868e-05
6.22487e-05
5.49157e-05
6.05666e-05
5.61971e-05
6.22634e-05
5.49022e-05
5.73418e-05
6.03336e-05
6.4761e-05
6.41742e-05
6.03326e-05
6.41621e-05
5.73309e-05
5.72946e-05
6.41396e-05
6.03028e-05
6.47544e-05
6.03038e-05
5.73052e-05
6.41521e-05
5.62379e-05
6.05788e-05
6.22889e-05
5.49471e-05
6.22746e-05
5.49604e-05
5.62279e-05
5.61907e-05
6.22536e-05
5.49171e-05
6.0568e-05
5.62011e-05
6.22683e-05
5.49036e-05
5.73447e-05
6.03347e-05
6.47642e-05
6.41816e-05
6.41696e-05
6.03341e-05
5.73336e-05
5.72973e-05
6.41471e-05
6.03043e-05
6.47576e-05
5.73083e-05
6.41595e-05
6.03049e-05
5.62418e-05
6.05802e-05
6.22938e-05
5.49484e-05
6.22796e-05
5.49617e-05
5.62315e-05
6.58449e-05
5.33634e-05
5.93555e-05
5.93552e-05
5.93553e-05
5.93556e-05
6.58504e-05
6.58751e-05
5.33968e-05
5.93899e-05
5.93914e-05
5.93893e-05
6.58701e-05
5.93905e-05
5.6156e-05
6.22444e-05
5.4868e-05
6.05213e-05
6.2224e-05
5.48636e-05
5.61509e-05
5.72294e-05
6.02403e-05
6.47204e-05
6.40993e-05
6.41145e-05
6.02489e-05
5.72267e-05
5.72642e-05
6.41376e-05
6.4727e-05
6.02801e-05
6.4123e-05
6.02714e-05
5.72676e-05
5.61076e-05
6.05128e-05
6.21965e-05
5.48184e-05
6.22174e-05
5.48219e-05
5.61133e-05
5.61524e-05
5.48665e-05
6.22388e-05
6.05193e-05
5.48621e-05
6.22184e-05
5.6148e-05
5.72238e-05
6.02344e-05
6.47143e-05
6.40897e-05
6.4105e-05
6.02435e-05
5.72205e-05
5.72584e-05
6.41281e-05
6.47214e-05
6.02749e-05
6.41135e-05
5.72621e-05
6.02661e-05
5.61041e-05
6.05108e-05
5.48168e-05
6.21908e-05
5.48204e-05
6.22118e-05
5.61093e-05
5.61934e-05
6.22504e-05
5.49089e-05
6.05709e-05
5.61982e-05
6.22705e-05
5.49135e-05
5.7338e-05
6.03404e-05
6.47647e-05
6.41824e-05
6.03321e-05
6.41684e-05
5.73412e-05
5.73048e-05
6.41459e-05
6.03021e-05
6.47583e-05
6.03109e-05
5.73014e-05
6.41603e-05
5.62396e-05
6.05787e-05
6.22961e-05
5.49579e-05
6.22764e-05
5.49534e-05
5.6235e-05
5.61911e-05
5.49074e-05
6.22451e-05
6.0569e-05
5.6195e-05
5.49121e-05
6.22652e-05
5.73327e-05
6.03355e-05
6.47593e-05
6.41732e-05
6.41592e-05
6.03273e-05
5.7336e-05
5.72996e-05
6.41367e-05
6.02971e-05
6.47527e-05
5.7296e-05
6.4151e-05
6.03059e-05
5.62364e-05
6.05768e-05
5.49564e-05
6.22907e-05
5.49519e-05
6.22712e-05
5.62321e-05
5.61559e-05
5.48569e-05
6.22379e-05
6.05209e-05
5.48696e-05
6.22228e-05
5.61447e-05
5.72183e-05
6.0239e-05
6.47149e-05
6.40928e-05
6.02408e-05
6.4106e-05
5.72289e-05
5.72676e-05
6.41292e-05
6.47219e-05
6.02717e-05
6.02704e-05
6.41165e-05
5.72568e-05
5.61004e-05
6.05086e-05
5.48238e-05
6.21955e-05
5.48109e-05
6.2211e-05
5.61133e-05
5.61904e-05
6.22501e-05
5.49143e-05
6.05679e-05
5.6197e-05
6.22698e-05
5.49029e-05
5.73369e-05
6.0338e-05
6.4761e-05
6.4181e-05
5.73398e-05
6.03298e-05
6.41671e-05
5.73039e-05
6.41447e-05
6.02999e-05
6.47545e-05
5.73005e-05
6.03086e-05
6.4159e-05
5.62383e-05
6.05797e-05
6.22949e-05
5.49478e-05
5.6231e-05
6.22757e-05
5.49606e-05
5.61869e-05
5.49157e-05
6.22493e-05
6.05666e-05
5.61976e-05
5.49024e-05
6.22638e-05
5.73414e-05
6.03321e-05
6.47598e-05
6.41739e-05
6.4162e-05
6.03312e-05
5.73303e-05
5.72941e-05
6.41396e-05
6.03015e-05
6.47531e-05
5.73049e-05
6.41519e-05
6.03023e-05
5.62382e-05
6.05787e-05
5.49471e-05
6.22891e-05
5.49602e-05
6.2275e-05
5.62278e-05
6.58445e-05
5.33629e-05
5.93542e-05
5.93558e-05
5.93561e-05
5.93541e-05
6.58502e-05
6.5875e-05
5.33964e-05
5.93884e-05
5.93914e-05
5.93881e-05
6.58697e-05
5.93909e-05
5.61581e-05
5.48582e-05
6.22405e-05
6.0522e-05
5.4871e-05
6.22254e-05
5.61458e-05
5.72209e-05
6.02431e-05
6.47204e-05
6.40986e-05
6.02447e-05
6.4112e-05
5.72317e-05
5.72704e-05
6.41352e-05
6.47274e-05
6.02757e-05
6.02746e-05
6.41224e-05
5.72594e-05
5.60997e-05
6.05095e-05
5.48254e-05
6.2198e-05
5.48123e-05
6.22136e-05
5.61202e-05
5.61858e-05
5.4916e-05
6.22484e-05
6.05664e-05
5.61973e-05
5.49027e-05
6.22629e-05
5.73418e-05
6.03338e-05
6.47614e-05
6.41743e-05
5.73307e-05
6.03329e-05
6.41622e-05
5.72944e-05
6.41398e-05
6.03031e-05
6.47547e-05
5.73053e-05
6.03039e-05
6.41521e-05
5.62379e-05
6.05785e-05
5.49474e-05
6.22884e-05
5.62271e-05
5.49605e-05
6.22743e-05
5.61884e-05
5.4917e-05
6.22519e-05
6.05678e-05
5.61999e-05
5.49037e-05
6.22665e-05
5.73442e-05
6.03361e-05
6.47654e-05
6.418e-05
6.4168e-05
6.03354e-05
5.7333e-05
5.72968e-05
6.41456e-05
6.03057e-05
6.47586e-05
5.73077e-05
6.4158e-05
6.03063e-05
5.62404e-05
6.05799e-05
5.49483e-05
6.22919e-05
5.49614e-05
6.22777e-05
5.62296e-05
6.58756e-05
5.34071e-05
5.93899e-05
5.93913e-05
6.58693e-05
5.93936e-05
5.93944e-05
5.73655e-05
6.03605e-05
6.4184e-05
6.47901e-05
6.03615e-05
5.73769e-05
6.41961e-05
5.62677e-05
6.06222e-05
5.50028e-05
6.23e-05
5.49901e-05
5.6278e-05
6.23141e-05
6.03648e-05
6.47956e-05
6.03655e-05
2.10368e-05
3.66874e-05
3.66902e-05
4.19515e-05
2.17951e-05
3.75931e-05
3.7596e-05
4.2681e-05
2.25717e-05
3.84728e-05
3.84755e-05
4.3376e-05
2.33626e-05
3.93256e-05
3.93281e-05
4.40458e-05
2.41641e-05
4.01505e-05
4.01527e-05
4.46883e-05
2.49723e-05
4.09469e-05
4.09491e-05
4.53131e-05
2.57836e-05
4.17147e-05
4.17171e-05
4.59125e-05
2.65944e-05
4.24535e-05
4.24561e-05
4.64848e-05
2.74011e-05
4.31639e-05
4.31663e-05
4.70415e-05
2.82008e-05
4.38456e-05
4.38476e-05
4.75719e-05
2.89904e-05
4.44989e-05
4.45005e-05
4.80837e-05
2.97676e-05
4.51239e-05
4.5125e-05
4.85778e-05
3.05297e-05
4.57209e-05
4.57219e-05
4.90484e-05
3.12747e-05
4.62902e-05
4.62912e-05
4.94901e-05
3.20006e-05
4.68324e-05
4.68335e-05
4.99131e-05
3.27059e-05
4.73478e-05
4.73488e-05
5.03171e-05
3.33889e-05
4.78367e-05
4.78375e-05
5.07014e-05
3.40486e-05
4.82994e-05
4.83002e-05
5.10661e-05
3.46837e-05
4.87365e-05
4.87372e-05
5.14142e-05
3.52935e-05
4.91485e-05
4.91489e-05
5.17394e-05
3.58772e-05
4.95357e-05
4.9536e-05
5.20446e-05
3.64343e-05
4.98987e-05
4.98987e-05
5.23302e-05
3.69643e-05
5.0238e-05
5.02376e-05
5.25978e-05
3.74671e-05
5.0554e-05
5.05535e-05
5.28595e-05
3.79426e-05
5.08473e-05
5.08467e-05
5.30945e-05
4.19304e-05
4.25057e-05
3.66894e-05
3.66892e-05
3.73705e-05
3.73706e-05
4.19485e-05
4.24805e-05
3.66891e-05
3.66917e-05
3.73707e-05
3.73729e-05
3.66948e-05
3.73691e-05
3.73763e-05
4.19566e-05
4.24889e-05
3.66924e-05
3.73719e-05
3.7374e-05
4.24934e-05
4.26539e-05
4.31975e-05
3.75945e-05
3.75947e-05
3.82566e-05
3.82567e-05
4.26704e-05
4.31863e-05
3.75949e-05
3.75971e-05
3.82567e-05
3.82589e-05
3.76004e-05
3.82554e-05
3.82622e-05
4.26708e-05
4.31914e-05
3.75981e-05
3.82582e-05
3.82602e-05
4.3196e-05
4.33649e-05
4.38717e-05
3.8474e-05
3.84743e-05
3.91161e-05
3.91163e-05
4.33672e-05
4.38754e-05
3.84742e-05
3.84764e-05
3.91158e-05
3.9118e-05
3.84797e-05
3.91151e-05
3.91213e-05
4.33633e-05
4.38889e-05
3.84777e-05
3.91176e-05
3.91195e-05
4.38755e-05
4.40456e-05
4.45225e-05
3.93265e-05
3.93269e-05
3.99476e-05
3.99481e-05
4.40352e-05
4.45211e-05
3.93264e-05
3.93286e-05
3.99471e-05
3.99493e-05
3.93319e-05
3.9947e-05
3.99527e-05
4.40319e-05
4.4523e-05
3.93302e-05
3.99492e-05
3.99513e-05
4.4531e-05
4.46888e-05
4.51742e-05
4.01512e-05
4.01517e-05
4.07511e-05
4.07517e-05
4.4688e-05
4.5154e-05
4.01508e-05
4.01528e-05
4.07505e-05
4.07525e-05
4.01561e-05
4.07506e-05
4.07558e-05
4.46913e-05
4.5156e-05
4.01548e-05
4.07527e-05
4.07546e-05
4.51622e-05
4.53077e-05
4.57786e-05
4.09475e-05
4.09481e-05
4.15261e-05
4.15265e-05
4.5314e-05
4.57548e-05
4.0947e-05
4.09489e-05
4.15255e-05
4.15272e-05
4.09522e-05
4.15255e-05
4.15303e-05
4.53165e-05
4.57633e-05
4.0951e-05
4.15279e-05
4.15292e-05
4.57814e-05
4.59006e-05
4.63604e-05
4.17154e-05
4.17158e-05
4.22723e-05
4.22725e-05
4.59199e-05
4.63467e-05
4.17149e-05
4.17165e-05
4.22716e-05
4.22732e-05
4.17195e-05
4.22716e-05
4.2276e-05
4.59179e-05
4.63494e-05
4.17184e-05
4.22741e-05
4.22749e-05
4.63631e-05
4.64787e-05
4.6921e-05
4.24541e-05
4.24545e-05
4.29893e-05
4.29898e-05
4.64902e-05
4.69008e-05
4.24537e-05
4.24553e-05
4.29888e-05
4.29903e-05
4.2458e-05
4.29892e-05
4.29931e-05
4.64949e-05
4.69069e-05
4.2457e-05
4.29915e-05
4.29922e-05
4.69224e-05
4.70389e-05
4.74585e-05
4.3164e-05
4.31647e-05
4.36778e-05
4.36784e-05
4.70553e-05
4.74499e-05
4.31637e-05
4.31652e-05
4.36774e-05
4.36787e-05
4.31678e-05
4.3678e-05
4.36813e-05
4.70508e-05
4.74468e-05
4.3167e-05
4.36801e-05
4.36806e-05
4.74598e-05
4.75727e-05
4.7976e-05
4.38453e-05
4.3846e-05
4.43377e-05
4.43384e-05
4.75775e-05
4.79627e-05
4.3845e-05
4.38463e-05
4.43373e-05
4.43384e-05
4.38489e-05
4.43383e-05
4.4341e-05
4.75798e-05
4.79763e-05
4.38483e-05
4.43401e-05
4.43404e-05
4.79743e-05
4.8088e-05
4.84657e-05
4.4498e-05
4.4499e-05
4.49691e-05
4.49703e-05
4.80949e-05
4.84582e-05
4.44979e-05
4.44988e-05
4.49687e-05
4.49697e-05
4.45014e-05
4.49705e-05
4.49723e-05
4.8089e-05
4.84571e-05
4.45008e-05
4.49717e-05
4.49717e-05
4.84618e-05
4.85703e-05
4.89331e-05
4.51225e-05
4.51238e-05
4.55727e-05
4.5574e-05
4.85841e-05
4.89273e-05
4.51224e-05
4.51231e-05
4.55724e-05
4.55732e-05
4.51258e-05
4.55744e-05
4.55759e-05
4.85805e-05
4.89269e-05
4.51252e-05
4.55754e-05
4.55753e-05
4.89327e-05
4.90424e-05
4.93854e-05
4.57192e-05
4.57205e-05
4.61486e-05
4.615e-05
4.90499e-05
4.93815e-05
4.5719e-05
4.57198e-05
4.61483e-05
4.61491e-05
4.57225e-05
4.61506e-05
4.61519e-05
4.90507e-05
4.93858e-05
4.57219e-05
4.61517e-05
4.61514e-05
4.93839e-05
4.94869e-05
4.9818e-05
4.62881e-05
4.62896e-05
4.66972e-05
4.66987e-05
4.94904e-05
4.98126e-05
4.62881e-05
4.62888e-05
4.6697e-05
4.66978e-05
4.62916e-05
4.66997e-05
4.67005e-05
4.94917e-05
4.98205e-05
4.62911e-05
4.67006e-05
4.67e-05
4.98215e-05
4.99117e-05
5.02204e-05
4.683e-05
4.68316e-05
4.7219e-05
4.72205e-05
4.99124e-05
5.02281e-05
4.683e-05
4.68308e-05
4.72188e-05
4.72196e-05
4.68335e-05
4.72217e-05
4.72224e-05
4.99132e-05
5.0226e-05
4.6833e-05
4.72227e-05
4.72219e-05
5.02263e-05
5.03227e-05
5.06086e-05
4.73452e-05
4.73467e-05
4.77144e-05
4.77158e-05
5.03178e-05
5.06175e-05
4.73452e-05
4.73459e-05
4.77141e-05
4.7715e-05
4.73486e-05
4.77172e-05
4.77177e-05
5.03161e-05
5.06152e-05
4.73482e-05
4.7718e-05
4.77171e-05
5.06167e-05
5.07039e-05
5.09836e-05
4.7834e-05
4.78355e-05
4.81836e-05
4.81849e-05
5.07036e-05
5.09822e-05
4.78339e-05
4.78347e-05
4.81833e-05
4.8184e-05
4.78373e-05
4.81864e-05
4.81868e-05
5.06987e-05
5.09832e-05
4.78368e-05
4.81872e-05
4.81862e-05
5.09842e-05
5.10655e-05
5.13321e-05
4.82967e-05
4.8298e-05
4.8627e-05
4.86283e-05
5.10648e-05
5.13297e-05
4.82965e-05
4.82972e-05
4.86268e-05
4.86274e-05
4.83001e-05
4.86299e-05
4.86303e-05
5.10653e-05
5.13317e-05
4.82994e-05
4.86306e-05
4.86296e-05
5.13304e-05
5.14114e-05
5.16581e-05
4.87339e-05
4.87351e-05
4.90453e-05
4.90465e-05
5.14112e-05
5.16587e-05
4.87337e-05
4.87342e-05
4.9045e-05
4.90454e-05
4.87371e-05
4.90481e-05
4.90485e-05
5.14097e-05
5.16577e-05
4.87364e-05
4.90486e-05
4.90478e-05
5.1659e-05
5.17371e-05
5.19714e-05
4.91458e-05
4.9147e-05
4.94388e-05
4.94398e-05
5.17387e-05
5.19671e-05
4.91457e-05
4.9146e-05
4.94386e-05
4.94387e-05
4.91491e-05
4.94416e-05
4.94418e-05
5.17388e-05
5.19669e-05
4.91484e-05
4.94418e-05
4.94411e-05
5.19725e-05
5.20437e-05
5.22657e-05
4.95331e-05
4.95342e-05
4.98078e-05
4.98088e-05
5.20465e-05
5.22555e-05
4.95331e-05
4.95331e-05
4.98076e-05
4.98076e-05
4.95363e-05
4.98106e-05
4.98108e-05
5.20457e-05
5.22598e-05
4.95356e-05
4.98106e-05
4.98101e-05
5.22665e-05
5.23288e-05
5.254e-05
4.98962e-05
4.98972e-05
5.01531e-05
5.0154e-05
5.23377e-05
5.2528e-05
4.98961e-05
4.9896e-05
5.0153e-05
5.01526e-05
4.98991e-05
5.01558e-05
5.01557e-05
5.23312e-05
5.25383e-05
4.98985e-05
5.01555e-05
5.01552e-05
5.25404e-05
5.25977e-05
5.27955e-05
5.02356e-05
5.02365e-05
5.04751e-05
5.04758e-05
5.26097e-05
5.27839e-05
5.02356e-05
5.02351e-05
5.04751e-05
5.04744e-05
5.02382e-05
5.04776e-05
5.04773e-05
5.25979e-05
5.27943e-05
5.02376e-05
5.04771e-05
5.04768e-05
5.27849e-05
5.28498e-05
5.30332e-05
5.05518e-05
5.05525e-05
5.07744e-05
5.07749e-05
5.28614e-05
5.30219e-05
5.05519e-05
5.05511e-05
5.07744e-05
5.07734e-05
5.0554e-05
5.07766e-05
5.07761e-05
5.28487e-05
5.30247e-05
5.05535e-05
5.0776e-05
5.07757e-05
5.30221e-05
5.30839e-05
5.32433e-05
5.08454e-05
5.08459e-05
5.10513e-05
5.10517e-05
5.30953e-05
5.32429e-05
5.08456e-05
5.08446e-05
5.10514e-05
5.10503e-05
5.08472e-05
5.10532e-05
5.10526e-05
5.30888e-05
5.32425e-05
5.08468e-05
5.10527e-05
5.10523e-05
5.32426e-05
6.4825e-05
7.13603e-05
7.13946e-05
6.47276e-05
6.95349e-05
6.95613e-05
6.48274e-05
7.13666e-05
7.14009e-05
6.47327e-05
2.10358e-05
2.10395e-05
2.10412e-05
2.16037e-05
2.16027e-05
2.16065e-05
2.16082e-05
5.35361e-05
6.02158e-05
2.90759e-05
3.69163e-05
6.0332e-05
2.93204e-05
5.33399e-05
6.95338e-05
6.95604e-05
5.35357e-05
2.90802e-05
6.02145e-05
3.69191e-05
2.93248e-05
6.03353e-05
5.33405e-05
6.69236e-05
6.69339e-05
4.21291e-05
6.69833e-05
6.69963e-05
6.50497e-05
7.14443e-05
6.49583e-05
7.14789e-05
6.95908e-05
6.96181e-05
6.50535e-05
7.14506e-05
6.49623e-05
7.14854e-05
2.17941e-05
2.1798e-05
2.17997e-05
2.23761e-05
2.23751e-05
2.23791e-05
2.23808e-05
5.39989e-05
6.05044e-05
3.00534e-05
3.78155e-05
5.38088e-05
6.06166e-05
3.02966e-05
6.95897e-05
6.96172e-05
5.39988e-05
3.00577e-05
6.0503e-05
3.78183e-05
5.3811e-05
3.03011e-05
6.06197e-05
6.70998e-05
6.71103e-05
4.28538e-05
6.71573e-05
6.71705e-05
6.52696e-05
7.15293e-05
6.51805e-05
7.15646e-05
6.96489e-05
6.96769e-05
6.52736e-05
7.15356e-05
6.51836e-05
7.15706e-05
2.25707e-05
2.25747e-05
2.25765e-05
2.31638e-05
2.31629e-05
2.31669e-05
2.31687e-05
5.44425e-05
6.0782e-05
3.1024e-05
3.86886e-05
5.4261e-05
6.08903e-05
3.12649e-05
6.96477e-05
6.96759e-05
5.44419e-05
3.10287e-05
6.07808e-05
3.86912e-05
5.42625e-05
3.12697e-05
6.08932e-05
6.7271e-05
6.72816e-05
4.35446e-05
6.73266e-05
6.73392e-05
6.54821e-05
7.16138e-05
6.53946e-05
7.16514e-05
6.97087e-05
6.97374e-05