/*--------------------------------*- C++ -*----------------------------------*\
| =========                 |                                                 |
| \\      /  F ield         | OpenFOAM: The Open Source CFD Toolbox           |
|  \\    /   O peration     | Version:  v1906                                 |
|   \\  /    A nd           | Web:      www.OpenFOAM.com                      |
|    \\/     M anipulation  |                                                 |
\*---------------------------------------------------------------------------*/
FoamFile
{
    version     2.0;
    format      ascii;
    class       surfaceScalarField;
    location    "400";
    object      phi;
}
// * * * * * * * * * * * * * * * * * * * * * * * * * * * * * * * * * * * * * //

dimensions      [0 3 -1 0 0 0 0];
oriented        oriented;


internalField   nonuniform List<scalar> 
123680
(
1.20303e-07
1.20736e-07
-7.15074e-08
-7.1374e-08
0.00118431
-0.00118441
-1.19663e-06
-1.20775e-07
-4.9053e-08
0.00113228
-2.3397e-07
1.24145e-06
2.72363e-07
9.11581e-07
-2.1212e-07
2.66842e-07
-8.52443e-07
-0.00113231
-1.19118e-06
-1.20993e-07
-4.9016e-08
0.00113192
-2.33977e-07
1.23596e-06
2.72366e-07
9.11465e-07
-2.14783e-07
2.69598e-07
-8.52281e-07
-0.00113195
1.22518e-06
1.19124e-06
-1.97853e-07
-2.03133e-07
0.000268066
-0.000270081
-0.000270086
1.22466e-06
1.19071e-06
-1.97535e-07
-2.02826e-07
0.000268071
1.23057e-06
1.19396e-06
-1.95282e-07
-2.0309e-07
0.000268072
-0.000270098
-1.2754e-06
-1.2388e-06
-0.000268075
2.3959e-07
2.47468e-07
0.000270103
-4.91255e-08
0.00113145
-2.39424e-07
1.27544e-06
2.77809e-07
9.11501e-07
-2.12171e-07
2.6675e-07
-8.52479e-07
-0.00113148
-1.23601e-06
-1.20193e-07
-4.9292e-08
0.0011319
-2.42208e-07
1.28099e-06
2.80709e-07
9.1697e-07
-2.15056e-07
2.69452e-07
-8.58057e-07
-0.00113192
-1.22657e-07
-0.0011314
-5.00382e-08
-1.23019e-06
2.77756e-07
-2.39177e-07
-8.52068e-07
2.66794e-07
-2.11826e-07
9.116e-07
0.00113137
1.28098e-06
-1.22482e-07
-0.00113184
-5.03935e-08
-1.2356e-06
2.80709e-07
-2.4191e-07
-8.57654e-07
2.69477e-07
-2.14731e-07
9.17058e-07
0.00113182
-1.9804e-07
-2.00355e-07
0.000268093
-0.000270128
-1.24141e-06
-0.000268097
2.42306e-07
2.44801e-07
0.000270132
-4.90348e-08
0.00113256
-2.36815e-07
1.23882e-06
2.75281e-07
9.14327e-07
-2.14924e-07
2.69602e-07
-8.55151e-07
-0.00113258
-1.23054e-06
-1.20132e-07
-4.94531e-08
0.00113155
-2.42183e-07
1.27557e-06
2.80734e-07
9.14094e-07
-2.14989e-07
2.69389e-07
-8.55217e-07
-0.00113158
-1.23085e-07
-0.0011325
-5.00015e-08
-1.19355e-06
2.75264e-07
-2.36527e-07
-8.54754e-07
2.69631e-07
-2.14595e-07
9.14408e-07
0.00113248
1.27556e-06
-1.22438e-07
-0.0011315
-5.05034e-08
-1.23013e-06
2.80729e-07
-2.41888e-07
-8.54815e-07
2.69413e-07
-2.14659e-07
9.14173e-07
0.00113147
-1.20393e-07
-4.91988e-08
0.00113135
-2.36623e-07
1.27003e-06
2.75034e-07
9.11482e-07
-2.12191e-07
2.66711e-07
-8.52531e-07
-0.00113137
-1.23217e-07
-0.00113223
-4.9972e-08
-1.19625e-06
2.72305e-07
-2.33717e-07
-8.5201e-07
2.66903e-07
9.11696e-07
-2.1176e-07
0.00113221
1.27e-06
0.00113127
-1.22773e-07
-0.0011313
-5.02513e-08
-1.22478e-06
2.75015e-07
-2.36343e-07
-8.5211e-07
2.6676e-07
-2.11844e-07
9.14246e-07
-1.95425e-07
-2.02893e-07
0.000268053
-0.000270076
-1.23592e-06
-0.000268056
2.39635e-07
2.474e-07
0.000270081
-1.2081e-07
-4.93194e-08
0.00113245
-2.33995e-07
1.23616e-06
2.72568e-07
9.11695e-07
-2.14911e-07
2.69569e-07
-8.52535e-07
-0.00113248
-1.234e-07
-0.00113187
-4.99141e-08
-1.1908e-06
2.72327e-07
-2.33737e-07
-8.51805e-07
2.69627e-07
9.11637e-07
-2.14445e-07
0.00113184
1.23614e-06
0.00113238
-1.23173e-07
-0.0011324
-5.03839e-08
-1.19083e-06
2.72563e-07
-2.33711e-07
-8.52128e-07
2.69606e-07
-2.14572e-07
9.11791e-07
-0.000268069
2.42175e-07
2.4748e-07
-5.05629e-08
-2.36263e-07
1.26999e-06
2.74998e-07
9.14256e-07
-2.11742e-07
2.66757e-07
-8.54642e-07
-1.23496e-07
-2.33615e-07
1.23613e-06
2.72554e-07
-2.14477e-07
2.69598e-07
-1.23896e-07
-5.07142e-08
9.11798e-07
-8.52006e-07
9.64993e-12
-7.06333e-08
0.000229296
3.23919e-08
2.11035e-09
-0.00022926
-5.19318e-09
2.21149e-08
0.000193531
-3.51495e-09
-0.000193545
6.80799e-09
-4.39602e-08
0.000193585
3.38894e-09
-0.000193551
2.42459e-10
2.82472e-08
0.00022924
-1.29288e-08
8.53246e-10
-0.000229257
4.98757e-09
1.1166e-08
9.79846e-05
-9.80007e-05
-6.92205e-09
-2.00616e-08
9.80224e-05
-9.79954e-05
-7.06915e-08
-1.17597e-10
0.000229324
2.14939e-09
3.03169e-08
-0.000229286
-5.11698e-09
2.43963e-08
0.000193552
-4.16052e-09
-0.000193567
6.8428e-09
-4.62087e-08
0.000193608
3.8977e-09
-0.000193572
2.83453e-08
3.25128e-10
0.000229266
8.59514e-10
-1.08824e-08
-0.000229285
-7.15398e-08
-7.13518e-08
0.0011843
-0.0011844
-7.18043e-08
-7.13808e-08
0.00118389
-0.00118399
-7.16597e-08
-7.16123e-08
0.00118412
-0.00118421
-0.00118411
-7.41071e-08
-7.39711e-08
0.00118402
-0.00118411
-7.42436e-08
-7.39169e-08
0.00118401
-0.00118369
-7.44577e-08
-7.39391e-08
0.0011836
-0.00118392
-7.43231e-08
-7.43141e-08
0.00118382
7.06306e-08
-1.57297e-09
0.000250195
4.0364e-09
-1.93602e-07
-0.000250075
-9.65449e-09
-2.43267e-08
6.59376e-08
0.000245403
3.9796e-09
-0.000245439
0.00115242
3.74636e-09
-1.41003e-07
1.00872e-06
-7.57183e-07
8.31066e-07
-9.36328e-07
-0.00115248
-4.93677e-08
1.24144e-06
0.00113226
-1.21634e-07
-8.52292e-07
2.66869e-07
-2.11989e-07
9.11622e-07
-1.1965e-06
2.72344e-07
-2.3388e-07
2.07737e-08
4.62184e-08
0.000245478
-1.67399e-08
-0.000245423
-1.05471e-07
-3.58796e-09
0.00115237
-1.42673e-07
-9.36041e-07
8.31202e-07
-7.56867e-07
1.00885e-06
-2.82778e-08
1.68774e-09
0.000250061
1.92193e-09
1.32104e-07
-0.000250169
5.03264e-09
1.33988e-08
9.7966e-05
-9.79844e-05
-6.95672e-09
-2.23074e-08
9.80061e-05
-9.79769e-05
-1.21468e-09
7.05675e-08
0.000250158
-1.93539e-07
4.04449e-09
-0.000250038
0.00115212
3.77415e-09
-1.41241e-07
1.00319e-06
-7.51616e-07
8.25569e-07
-9.30702e-07
-0.00115217
-9.78864e-09
-2.21307e-08
6.59889e-08
0.000245346
4.06682e-09
-0.000245385
-4.93171e-08
1.23595e-06
0.00113189
-1.2184e-07
-8.52083e-07
2.696e-07
-2.14672e-07
9.1157e-07
-1.19105e-06
2.72356e-07
-2.339e-07
-3.44728e-09
0.00115207
-1.42912e-07
-9.30386e-07
8.25702e-07
-7.51304e-07
1.0033e-06
2.08871e-08
4.4089e-08
0.000245423
-1.68007e-08
-0.000245366
-1.05609e-07
1.37956e-09
-2.81879e-08
0.000250025
1.32002e-07
1.86355e-09
-0.000250132
1.20689e-08
-1.1032e-08
2.44682e-08
0.000278133
-6.93788e-09
-0.000278152
1.20544e-08
-1.1011e-08
2.21719e-08
0.000278081
-7.39673e-09
-0.000278097
-1.27001e-06
-1.23615e-06
0.000270083
-0.000268067
2.42237e-07
2.47546e-07
-2.33582e-08
2.01241e-08
0.000278204
9.99607e-09
-0.000278159
-5.1312e-08
-2.35047e-08
1.99932e-08
0.000278149
1.06964e-08
-0.000278107
-4.89994e-08
-0.000278256
1.1916e-08
-1.11035e-08
2.44318e-08
-6.79578e-09
0.000278237
-0.000278201
1.18569e-08
-1.11239e-08
2.21551e-08
-7.18165e-09
0.000278185
1.09243e-08
9.79827e-05
-9.79989e-05
-2.01276e-08
9.80205e-05
-9.79936e-05
1.10145e-08
9.79818e-05
-9.7998e-05
-2.00985e-08
9.80196e-05
-9.79927e-05
9.7544e-09
2.21482e-08
0.000278132
-7.48239e-09
-0.000278145
1.21186e-08
2.21761e-08
0.000278088
-7.43381e-09
-0.000278104
0.0002701
-1.27543e-06
-1.23882e-06
-0.000268073
2.3966e-07
2.47555e-07
0.000278197
-2.09145e-08
1.04137e-08
-0.000278158
-4.90347e-08
0.000278156
-2.34005e-08
1.06085e-08
-0.000278114
-4.90603e-08
-2.00426e-08
-6.84598e-09
-9.80152e-05
9.80421e-05
1.09554e-08
5.14213e-09
9.80044e-05
-1.99905e-08
-6.9062e-09
-9.80143e-05
9.80412e-05
1.10628e-08
5.04594e-09
9.80035e-05
1.23031e-06
1.19368e-06
0.000268074
-1.95125e-07
-2.02936e-07
-2.09286e-08
-4.89697e-08
-0.00027821
1.04529e-08
0.000278249
-2.34309e-08
-4.89798e-08
-0.000278166
1.06737e-08
0.000278208
9.69236e-09
-7.42422e-09
2.21324e-08
0.000278184
1.20409e-08
-7.34099e-09
2.2166e-08
0.00027814
-7.06379e-08
0.000229332
3.23881e-08
2.41106e-09
-0.000229297
2.23306e-08
0.000193566
-3.91454e-09
-0.000193579
-4.39711e-08
0.00019362
3.23338e-09
-0.000193586
2.82876e-08
0.000229277
-1.29557e-08
1.03471e-09
-0.000229293
-1.33152e-09
0.00025017
3.59906e-09
-1.96188e-07
-0.000250046
6.36225e-08
0.000245347
4.05596e-09
-0.000245383
0.0011525
3.7063e-09
-1.40811e-07
1.00872e-06
-7.57153e-07
8.31034e-07
-9.36305e-07
-0.00115256
-4.94411e-08
0.00113142
-1.21138e-07
-1.23044e-06
2.77792e-07
-2.39341e-07
-8.52332e-07
2.66773e-07
-2.12045e-07
9.1154e-07
0.000245421
-1.68636e-08
-0.000245366
-1.03054e-07
-3.50991e-09
0.00115245
-1.4245e-07
-9.36033e-07
8.31167e-07
-7.56847e-07
1.00884e-06
1.53229e-09
0.000250033
2.31718e-09
1.34665e-07
-0.000250144
0.000250198
4.75465e-09
-1.96199e-07
-0.000250078
-1.19297e-08
6.6185e-08
0.00024536
3.83828e-09
-0.000245396
0.00115265
-1.40765e-07
1.01161e-06
-7.57284e-07
8.31122e-07
-9.39224e-07
-0.0011527
-4.9685e-08
0.00113187
1.28099e-06
-1.20999e-07
-8.57914e-07
2.69465e-07
9.17002e-07
-2.1494e-07
-1.23587e-06
2.80719e-07
-2.42103e-07
0.000245434
2.34275e-08
-1.69832e-08
-0.000245379
-1.05444e-07
0.00115259
-1.42386e-07
-9.38962e-07
8.31252e-07
-7.56977e-07
1.01172e-06
0.000250065
1.54324e-09
1.34725e-07
-0.000250171
2.57286e-10
2.80962e-08
-1.28718e-08
8.58483e-10
0.00022928
-4.39194e-08
-0.000193592
3.33735e-09
0.000193626
2.20895e-08
-3.56365e-09
0.000193572
2.81227e-11
-7.06492e-08
-0.0002293
3.23592e-08
2.10872e-09
0.000229336
2.81395e-08
-1.29044e-08
1.07206e-09
0.000229316
-4.39219e-08
6.97791e-09
-0.000193627
3.15376e-09
0.000193661
2.23131e-08
-4.91983e-09
-3.99215e-09
0.000193607
-7.06577e-08
-0.000229336
3.23771e-08
2.43463e-09
0.000229372
1.54592e-09
2.33787e-09
1.34337e-07
0.00025006
-4.97524e-08
-1.21879e-07
1.27542e-06
-2.39266e-07
2.77776e-07
9.11563e-07
-2.11939e-07
2.6678e-07
-8.52198e-07
-1.0302e-07
-0.000245405
-1.68762e-08
0.00024546
-0.00115239
-3.44203e-09
-1.45513e-07
-9.35533e-07
8.31365e-07
-7.56325e-07
1.00901e-06
0.00115234
3.99839e-09
6.35054e-08
0.000245386
3.77622e-09
-1.43961e-07
1.00892e-06
-7.56599e-07
-9.35808e-07
8.3125e-07
-1.31706e-09
-0.000250073
3.59829e-09
-1.96266e-07
0.000250196
1.59369e-09
1.34398e-07
0.000250091
-5.00361e-08
-1.23573e-06
-1.2174e-07
9.17028e-07
-2.14838e-07
-8.57783e-07
2.69468e-07
1.28098e-06
-2.42009e-07
2.80715e-07
2.34725e-08
-1.054e-07
-0.000245418
-1.70305e-08
0.000245473
-0.00115254
-1.45437e-07
-9.38476e-07
8.3145e-07
-7.56457e-07
1.0119e-06
0.00115249
-1.18416e-08
3.74396e-09
6.60797e-08
0.000245399
-1.43911e-07
1.01181e-06
-7.56731e-07
-9.38729e-07
8.31337e-07
-0.000250104
4.78116e-09
-1.96276e-07
0.000250224
2.23182e-08
0.000278078
-9.87292e-09
-0.000278091
-1.32376e-08
2.20376e-08
0.000278181
-1.01461e-08
-0.000278189
0.00027013
-0.000268094
2.4239e-07
2.44865e-07
0.000278143
1.32232e-08
-0.000278104
-4.90132e-08
2.24657e-08
0.000278241
1.30307e-08
-0.000278207
-4.89906e-08
5.17122e-09
9.79872e-05
-9.80056e-05
9.80273e-05
-6.76979e-09
-9.79981e-05
-1.99625e-08
-9.80171e-05
9.80441e-05
1.12107e-08
9.80063e-05
1.19637e-06
0.000268096
-1.9789e-07
-2.00191e-07
-4.89335e-08
-0.000278156
1.32884e-08
0.000278195
2.23752e-08
-2.07926e-08
-4.89239e-08
-0.000278259
1.30759e-08
0.000278293
-9.78432e-09
2.23071e-08
0.00027813
-1.32726e-08
9.58934e-09
-1.00819e-08
2.20176e-08
0.000278233
-6.81509e-09
-9.80198e-05
9.80489e-05
5.11013e-09
9.80089e-05
-1.68177e-09
0.000250183
4.04467e-09
-1.91028e-07
-0.000250065
6.36271e-08
0.000245362
3.96879e-09
-0.000245393
0.00115237
3.91056e-09
-1.40915e-07
1.0087e-06
-7.54467e-07
8.31087e-07
-9.33585e-07
-0.00115244
-4.93602e-08
0.00113253
-1.21578e-07
-1.19381e-06
2.75288e-07
-2.36708e-07
-8.55014e-07
2.6962e-07
-2.14802e-07
9.14359e-07
0.000245432
-1.68282e-08
-0.000245381
-1.03094e-07
-3.45145e-09
0.00115233
-1.42626e-07
-9.36016e-07
8.28496e-07
-7.56885e-07
1.00611e-06
1.87158e-09
0.000250052
1.88117e-09
1.29534e-07
-0.000250157
-7.06626e-08
0.000229288
3.02875e-08
2.24003e-09
-0.00022925
2.44403e-08
0.000193499
-3.9151e-09
-0.000193514
-4.60999e-08
0.000193555
3.27234e-09
-0.000193519
2.83524e-08
0.000229231
-1.08732e-08
1.17253e-09
-0.000229249
0.000250152
-1.93604e-07
4.45282e-09
-0.000250035
0.00115234
-1.40792e-07
1.00869e-06
-7.5725e-07
8.31084e-07
-9.36354e-07
-0.00115239
-1.18814e-08
6.36856e-08
0.000245294
6.20614e-09
-0.000245327
-4.98428e-08
0.00113152
1.27557e-06
-1.20946e-07
-8.55078e-07
2.69404e-07
9.14122e-07
-2.14868e-07
-1.2304e-06
2.80745e-07
-2.42072e-07
0.00115229
-1.42425e-07
-9.36098e-07
8.31212e-07
-7.56951e-07
1.00878e-06
0.000245366
2.33776e-08
-1.93715e-08
-0.000245313
-1.02926e-07
0.000250022
1.32157e-07
1.8547e-09
-0.000250125
2.82018e-08
3.20253e-10
8.91687e-10
-1.08342e-08
0.000229306
-4.61703e-08
-0.000193613
3.81807e-09
0.000193648
2.43787e-08
-4.23684e-09
0.000193593
-7.07155e-08
-1.28557e-10
-0.000229326
2.17448e-09
3.03023e-08
0.000229364
1.87355e-09
1.91659e-09
1.29206e-07
0.000250078
-4.97426e-08
-1.22301e-07
1.23881e-06
-2.36621e-07
2.75286e-07
9.1438e-07
-2.14706e-07
2.69621e-07
-8.54882e-07
-1.03052e-07
-0.00024542
-1.68623e-08
0.00024547
-0.00115226
-3.41078e-09
-1.45682e-07
-9.35536e-07
8.28694e-07
-7.56369e-07
1.00628e-06
0.00115222
3.89529e-09
6.35204e-08
0.000245401
3.94144e-09
-1.44069e-07
1.00888e-06
-7.53918e-07
-9.33089e-07
8.31307e-07
-1.69347e-09
-0.000250091
4.06494e-09
-1.91105e-07
0.000250209
2.82041e-08
-1.08231e-08
1.19386e-09
0.00022927
-4.60441e-08
6.99184e-09
-0.00019356
3.21474e-09
0.000193596
2.44241e-08
-4.97835e-09
-3.97106e-09
0.00019354
-7.06856e-08
-0.00022929
3.02754e-08
2.23992e-09
0.000229328
1.31829e-07
1.88814e-09
0.000250048
-5.01764e-08
-1.23027e-06
-1.21695e-07
9.14144e-07
-2.14766e-07
-8.54948e-07
2.69409e-07
1.27556e-06
-2.4198e-07
2.80742e-07
-0.00115224
-1.45494e-07
-9.35598e-07
8.31407e-07
-7.56436e-07
1.00898e-06
0.00115218
2.34108e-08
-1.0288e-07
-0.000245352
-1.9401e-08
0.000245404
-1.43945e-07
1.00888e-06
-7.56703e-07
-9.35862e-07
8.31301e-07
-1.18131e-08
6.14514e-09
6.35746e-08
0.000245332
-0.000250061
-1.93678e-07
4.45211e-09
0.000250178
-6.13946e-11
0.000229331
2.14575e-09
3.23916e-08
-0.000229295
0.000193563
-3.68313e-09
-0.000193578
0.000193619
3.59062e-09
-0.000193583
2.2565e-10
0.000229275
8.61914e-10
-1.29464e-08
-0.000229291
7.05822e-08
0.000250165
-1.90978e-07
4.44213e-09
-0.00025005
0.00115235
-1.40957e-07
1.00602e-06
-7.57225e-07
8.31075e-07
-9.33603e-07
-0.0011524
-2.22151e-08
6.36603e-08
0.00024534
3.97371e-09
-0.000245373
-4.95581e-08
0.00113132
-1.21221e-07
-1.22503e-06
2.75024e-07
-2.36529e-07
-8.52382e-07
2.66731e-07
-2.12067e-07
9.11516e-07
0.00115229
-1.42598e-07
-9.33354e-07
8.31205e-07
-7.56918e-07
1.00612e-06
4.39459e-08
0.000245412
-1.69536e-08
-0.000245359
-1.03e-07
-2.82722e-08
0.000250037
1.29536e-07
1.74525e-09
-0.000250138
0.000229295
3.23587e-08
2.34505e-09
-0.000229259
-5.08334e-09
0.000193512
-3.75387e-09
-0.000193525
0.000193566
6.83278e-09
3.33575e-09
-0.000193532
0.000229239
-1.2946e-08
9.67451e-10
-0.000229255
-2.81275e-08
1.68962e-09
1.94147e-09
1.31771e-07
0.000250088
-4.96817e-08
-1.22412e-07
1.24143e-06
-2.33805e-07
2.72333e-07
9.11655e-07
-2.11879e-07
-8.52153e-07
2.66884e-07
4.6183e-08
-1.05446e-07
-0.000245461
-1.6757e-08
0.000245517
-0.00115231
-4.68216e-09
-1.45787e-07
-9.35543e-07
8.31405e-07
1.00905e-06
-7.56343e-07
0.00115227
-2.42915e-08
3.91816e-09
6.58153e-08
0.000245442
3.6483e-09
-1.44217e-07
1.00893e-06
-7.5662e-07
-9.35809e-07
8.31289e-07
7.065e-08
-1.87232e-09
-0.000250101
4.27559e-09
-1.93681e-07
0.000250222
2.35509e-10
8.74378e-10
-1.2895e-08
0.000229314
-0.000193624
3.53329e-09
0.00019366
-3.74112e-09
0.000193603
-1.17674e-10
-0.000229334
2.14225e-09
3.23741e-08
0.00022937
-2.81262e-08
1.29201e-07
1.79241e-09
0.000250063
-4.99108e-08
-1.22489e-06
-1.22012e-07
9.11543e-07
-2.1196e-07
-8.52248e-07
2.66739e-07
1.27e-06
-2.36428e-07
2.75024e-07
-0.00115224
0.00115218
-1.45699e-07
-9.32845e-07
8.3141e-07
-7.56386e-07
1.00902e-06
4.39139e-08
2.33794e-08
0.000245451
-1.02969e-07
-0.000245398
-1.69845e-08
-1.44154e-07
1.0062e-06
-7.56664e-07
-9.33112e-07
8.31298e-07
-2.21851e-08
-1.19914e-08
3.89198e-09
6.35443e-08
0.000245379
7.06071e-08
0.00025019
-0.000250076
-1.91065e-07
4.70699e-09
-1.2896e-08
1.00153e-09
0.000229279
6.88284e-09
0.000193607
-0.000193573
3.26873e-09
-5.017e-09
-3.82574e-09
0.000193552
0.000229334
-0.000229299
3.2344e-08
2.36459e-09
2.44943e-08
0.000278041
-6.90238e-09
-0.000278058
-1.09248e-08
2.43543e-08
0.000278139
-6.99228e-09
-0.000278155
0.000270078
-0.000268054
2.39723e-07
2.47462e-07
0.000278109
1.02498e-08
-0.000278067
-5.11964e-08
2.02188e-08
0.000278207
9.86393e-09
-0.000278165
-5.13981e-08
5.20007e-09
9.7976e-05
-9.79922e-05
9.80139e-05
-6.74372e-09
-9.79869e-05
-2.22228e-08
-9.79986e-05
9.80278e-05
1.34353e-08
9.79877e-05
1.19093e-06
0.000268055
-1.95268e-07
-2.02733e-07
-5.11255e-08
-0.000278119
1.03063e-08
0.000278161
2.01322e-08
-2.09035e-08
-5.13347e-08
-0.000278217
9.9052e-09
0.00027826
-6.82701e-09
2.44788e-08
0.000278093
-1.09584e-08
9.72224e-09
-6.92634e-09
2.43384e-08
0.000278191
-6.78471e-09
-9.80086e-05
9.80355e-05
5.14723e-09
9.79978e-05
7.05931e-08
0.000250183
-1.90974e-07
4.92869e-09
-0.000250069
0.00115224
-1.41167e-07
1.00606e-06
-7.54479e-07
8.28391e-07
-9.33597e-07
-0.0011523
-2.21936e-08
6.6045e-08
0.000245355
3.92739e-09
-0.000245391
-4.96756e-08
0.00113243
-1.21638e-07
-1.19108e-06
2.72562e-07
-2.339e-07
-8.52397e-07
2.69587e-07
-2.14789e-07
9.11728e-07
0.00115219
-1.42821e-07
-9.33296e-07
8.2852e-07
-7.54177e-07
1.00616e-06
4.39732e-08
0.00024543
-1.70103e-08
-0.000245375
-1.05508e-07
-2.82443e-08
0.000250056
1.29481e-07
1.30621e-09
-0.000250157
1.07995e-11
0.000229288
2.15987e-09
3.23501e-08
-0.000229252
0.000193515
-3.53555e-09
-0.000193529
0.00019357
3.54761e-09
-0.000193536
2.12535e-10
0.000229232
7.78752e-10
-1.28931e-08
-0.000229248
0.000229324
2.29976e-09
3.02266e-08
-0.000229286
-5.12193e-09
0.000193553
-3.66672e-09
-0.000193566
0.000193607
6.99032e-09
3.13749e-09
-0.000193573
0.000229266
1.07933e-09
-1.08003e-08
-0.000229284
1.40313e-09
-2.80193e-08
1.31661e-07
1.86866e-09
0.000250051
-4.96215e-08
-1.22599e-07
1.23593e-06
-2.33826e-07
2.72336e-07
9.11541e-07
-2.14544e-07
-8.51992e-07
2.69634e-07
-0.00115201
-3.37119e-09
-1.46005e-07
-9.29897e-07
8.25907e-07
1.00348e-06
-7.50771e-07
0.00115196
4.40513e-08
-1.05581e-07
-0.000245405
-1.68131e-08
0.000245462
3.83601e-09
-1.44436e-07
1.00337e-06
-7.51052e-07
-9.30173e-07
8.25788e-07
-2.20999e-08
4.00638e-09
6.58664e-08
0.000245385
-1.19467e-09
7.05755e-08
-0.000250064
-1.9362e-07
4.04581e-09
0.000250185
-2.80766e-08
1.29141e-07
1.35713e-09
0.000250082
-5.00307e-08
-1.19094e-06
-1.22416e-07
9.11755e-07
-2.14685e-07
-8.52263e-07
2.69591e-07
1.23614e-06
-2.33801e-07
2.72563e-07
-0.00115214
-1.45897e-07
-9.32811e-07
8.28726e-07
-7.53641e-07
1.00633e-06
0.00115208
4.39195e-08
2.35569e-08
0.000245469
-1.05466e-07
-0.000245414
-1.70622e-08
-1.44367e-07
1.00624e-06
-7.53916e-07
-9.33077e-07
8.2861e-07
-2.21761e-08
-1.19552e-08
3.82947e-09
6.59341e-08
0.000245394
7.05967e-08
-0.000250096
-1.91053e-07
4.97123e-09
0.00025021
2.38673e-10
7.63735e-10
-1.28274e-08
0.000229272
-0.000193577
3.49554e-09
0.00019361
-3.58144e-09
0.000193556
3.24007e-11
-0.000229291
2.16534e-09
3.23259e-08
0.000229328
1.11363e-09
-1.07337e-08
0.000229306
7.05508e-09
0.000193648
-0.000193614
3.03908e-09
-5.04367e-09
-3.75549e-09
0.000193593
-0.000229326
2.34753e-09
3.01995e-08
0.000229364
9.79753e-05
-9.79914e-05
9.80131e-05
-9.79862e-05
9.79798e-05
-9.79959e-05
9.80176e-05
-9.79906e-05
0.000268068
-1.97665e-07
-2.02958e-07
2.00343e-08
-5.12461e-08
-0.000278211
1.0034e-08
1.98858e-08
-4.89235e-08
-0.000278159
1.07725e-08
-1.10694e-08
-6.86165e-09
2.44451e-08
0.000278185
-1.10675e-08
-7.29156e-09
2.21617e-08
0.000278133
9.80348e-05
-9.80079e-05
9.7997e-05
9.80393e-05
-9.80124e-05
9.80015e-05
1.00909e-06
-7.56128e-07
8.31456e-07
-9.35368e-07
6.65338e-11
-1.47166e-07
-2.21663e-08
6.34398e-08
3.8166e-09
0.000245418
-2.79818e-08
0.000250087
1.28889e-07
3.03671e-09
-2.55146e-10
-4.95974e-09
-3.89176e-09
0.000193593
0.000229318
-1.28469e-08
1.02858e-09
-7.66945e-11
-2.21667e-08
6.5837e-08
0.000245433
3.73894e-09
-4.96792e-09
0.000193634
-3.84727e-09
9.80188e-05
9.80232e-05
-6.74131e-10
1.41366e-08
0.000143287
-3.68652e-10
-0.0001433
-0.00017102
-4.25076e-10
1.23561e-10
0.000171053
-0.000223253
3.11823e-08
4.33293e-09
0.00022329
-6.9644e-08
-1.28978e-08
8.56327e-10
-0.000229276
1.03645e-10
2.81645e-08
-0.000171034
1.065e-10
8.16405e-10
-0.000223269
3.00501e-08
1.5819e-09
0.000143316
-2.67304e-08
-7.921e-05
7.92383e-05
-1.57103e-09
3.41349e-09
0.000193565
6.78731e-09
-4.39759e-08
0.000263075
-1.88792e-08
-7.97802e-10
3.02232e-08
-0.000263089
0.000263115
-4.32372e-09
-5.95932e-08
3.83761e-10
-7.92292e-05
1.88836e-08
7.9219e-05
-0.000263101
2.67004e-08
0.000263142
-5.95735e-08
-3.53714e-09
-5.16907e-09
2.21016e-08
3.02058e-08
7.92473e-05
4.29968e-10
-3.11841e-08
-0.000143271
3.23926e-08
2.1108e-09
1.47578e-10
-7.06171e-08
0.000171001
6.68186e-10
1.09355e-10
-0.000171015
0.000223233
-1.41535e-08
3.01176e-08
-0.000223249
1.27832e-10
-6.96354e-08
-0.000143284
9.80116e-05
-6.89377e-09
-2.01063e-08
4.95382e-09
1.11873e-08
1.21482e-08
-6.94389e-10
0.000143357
-1.34766e-10
-0.000143368
-0.000223336
2.91475e-08
4.32647e-09
0.000223374
-6.97679e-08
-0.000171052
-3.68833e-10
2.99815e-11
0.000171083
6.34897e-10
-1.08499e-08
-0.000229307
1.8044e-10
3.06922e-08
8.85919e-10
-0.000223357
3.26337e-08
-0.000171064
1.21109e-10
1.39723e-09
0.000143384
-2.45886e-08
-7.92556e-05
7.92816e-05
-1.38464e-09
3.93304e-09
0.000193587
6.81973e-09
-4.62395e-08
0.000263184
-1.678e-08
-8.60044e-10
3.27718e-08
-0.000263203
0.00026323
-4.30363e-09
-6.21613e-08
1.65841e-10
-7.92726e-05
1.67967e-08
7.92647e-05
-0.00026321
2.4554e-08
0.000263256
-6.21311e-08
-4.19985e-09
-5.07755e-09
2.43801e-08
3.27564e-08
7.92906e-05
-2.91651e-08
3.78971e-10
-0.00014334
2.38081e-09
3.0322e-08
2.94981e-11
-7.31108e-08
0.000223315
-1.21856e-08
3.02953e-08
-0.000223334
0.000171033
6.82166e-10
1.31385e-10
-0.000171045
-7.2181e-08
4.0245e-11
-0.000143352
9.79953e-05
-6.92934e-09
-2.23486e-08
5.00795e-09
1.34155e-08
-6.86066e-09
-6.93002e-09
0.000213716
9.88431e-09
1.1932e-08
-0.000213724
-8.05296e-05
-1.24534e-08
-1.20472e-08
8.05541e-05
-8.05184e-05
-1.23564e-08
-1.21688e-08
8.05429e-05
9.41003e-09
-8.05459e-05
9.36093e-09
-8.05347e-05
-2.52375e-08
-2.74713e-08
0.000213744
-3.63479e-08
3.35893e-08
-0.000221866
0.000221904
2.52528e-08
-6.02025e-08
0.000250638
-1.54985e-08
5.82102e-08
2.92095e-08
-0.000250686
-5.13401e-08
9.97431e-09
0.000278178
2.0161e-08
-2.33406e-08
0.000182997
1.5917e-08
-9.4249e-09
-0.00018301
0.000250701
-9.78501e-08
-5.26298e-08
0.000183028
1.20535e-08
-9.89218e-09
3.07009e-08
-0.000221886
-3.64815e-08
3.16058e-08
-0.000221806
0.000221843
2.74785e-08
-6.04121e-08
0.000250543
-1.54906e-08
6.30942e-08
2.92221e-08
-0.000250598
-4.90335e-08
1.06583e-08
0.000278123
2.00426e-08
-2.3475e-08
0.000182952
1.39874e-08
-9.38435e-09
-0.000182964
0.000250613
-1.0275e-07
-5.27592e-08
0.000182982
1.21665e-08
-1.19441e-08
3.0924e-08
-0.000221826
1.54687e-08
-1.59184e-08
0.000221883
3.06829e-08
-0.000183015
-3.35467e-08
0.000183046
2.44574e-08
-6.90122e-09
-1.10514e-08
1.20281e-08
-0.000250654
3.63486e-08
0.000250716
-9.78174e-08
-5.26539e-08
5.81642e-08
2.91587e-08
0.000221921
-6.01574e-08
1.54561e-08
-1.39915e-08
0.000221823
3.09094e-08
-0.00018297
-3.15573e-08
0.000183
2.21672e-08
-7.34631e-09
-1.10383e-08
1.20035e-08
-0.000250558
3.64905e-08
0.000250629
-1.02713e-07
-5.27934e-08
6.30548e-08
2.91646e-08
0.000221861
-6.03619e-08
1.24646e-08
1.23764e-08
-0.000213696
8.05214e-05
6.86121e-09
-8.05377e-05
8.05102e-05
6.92273e-09
-8.05265e-05
-0.000213704
-0.000221936
-3.63389e-08
3.34478e-08
2.51795e-08
-6.00385e-08
-1.53995e-08
0.0002507
-0.000250747
5.80547e-08
2.90159e-08
1.59177e-08
0.000183069
-9.367e-09
-0.000183083
-5.12131e-08
1.00508e-08
1.99927e-08
-2.33899e-08
-9.87192e-09
-0.000221956
3.06404e-08
-9.77185e-08
-5.27049e-08
1.20294e-08
-0.000221875
-3.65159e-08
3.14277e-08
2.74501e-08
-6.02198e-08
-1.5356e-08
0.000250605
-0.00025066
6.29569e-08
2.90064e-08
1.40006e-08
0.000183025
-9.27852e-09
-0.000183037
-4.88827e-08
1.08042e-08
1.98332e-08
-2.35813e-08
-1.18919e-08
-0.000221896
3.08836e-08
-1.02599e-07
-5.28751e-08
1.2179e-08
-0.000213776
1.24242e-08
1.22966e-08
6.84874e-09
8.05544e-05
-8.05706e-05
6.95446e-09
8.05432e-05
-8.05594e-05
-0.000213784
9.80097e-05
-2.01652e-08
1.09374e-08
9.80088e-05
-2.01393e-08
1.10391e-08
-6.86504e-09
-6.93162e-09
0.000213717
1.1973e-08
9.87979e-09
-0.000213725
-8.053e-05
-1.24854e-08
-1.20068e-08
8.05545e-05
-8.05165e-05
-1.2366e-08
-1.21415e-08
8.0541e-05
9.42317e-09
-8.05463e-05
9.37058e-09
-8.05328e-05
-2.73065e-08
-2.54116e-08
0.000213745
3.1659e-08
-3.63491e-08
-0.000221867
0.000221905
2.73272e-08
-6.03976e-08
0.000250637
-1.55328e-08
6.32088e-08
2.66949e-08
-0.000250689
1.03944e-08
-4.9064e-08
0.000278171
-2.09062e-08
0.000182998
1.39674e-08
-9.4346e-09
-0.00018301
0.000183028
1.20084e-08
0.000250704
-1.02866e-07
-5.00418e-08
-1.19761e-08
3.09073e-08
-0.000221887
3.16228e-08
-3.646e-08
-0.000221802
0.000221844
2.54173e-08
-6.26208e-08
0.000250546
-1.5529e-08
6.31482e-08
3.18077e-08
-0.000250603
1.05775e-08
-4.90927e-08
0.00027813
-2.33777e-08
0.000182948
1.39825e-08
-9.39507e-09
-0.00018296
0.000182978
1.21399e-08
0.000250618
-1.02856e-07
-5.52265e-08
-9.89466e-09
3.31199e-08
-0.000221826
-1.39662e-08
0.000221884
1.55134e-08
3.08882e-08
-0.000183016
-3.16276e-08
0.000183046
-7.45475e-09
2.21392e-08
9.7224e-09
3.6345e-08
-0.000250652
0.000250719
-1.02836e-07
-5.00587e-08
0.000221922
-6.03595e-08
6.31712e-08
2.66509e-08
-1.39833e-08
0.000221819
1.54938e-08
3.31095e-08
-0.000182966
-3.15788e-08
0.000182996
-7.38731e-09
2.21696e-08
1.20792e-08
3.64717e-08
-0.000250561
0.000250634
-1.02826e-07
-5.5251e-08
0.000221861
-6.25716e-08
6.311e-08
3.1761e-08
1.25e-08
1.23851e-08
-0.000213697
8.05218e-05
6.8689e-09
-8.05381e-05
8.05083e-05
6.92432e-09
-8.05246e-05
-0.000213705
-9.80313e-05
1.09674e-08
5.11473e-09
-2.00834e-08
-6.82647e-09
-9.80304e-05
1.10836e-08
5.01114e-09
-2.00425e-08
-6.87373e-09
-0.000213737
1.24731e-08
1.23468e-08
-2.72828e-08
-2.53998e-08
0.000213764
6.86162e-09
8.05382e-05
9.40884e-09
6.93663e-09
8.05248e-05
9.34635e-09
1.19718e-08
9.8664e-09
-1.2003e-08
8.05627e-05
-1.21428e-08
8.05492e-05
-1.39643e-08
1.54748e-08
0.000221919
-0.000221939
-1.19653e-08
3.08535e-08
-0.000250683
3.63314e-08
-1.02767e-07
-5.00825e-08
0.00025075
-7.39357e-09
2.21177e-08
-0.000278223
9.66235e-09
-0.000183052
-3.15619e-08
1.20014e-08
0.000183082
-0.000183064
-9.39486e-09
-0.000250735
6.3091e-08
2.65784e-08
2.72606e-08
-6.02716e-08
0.000221957
-1.39926e-08
1.54343e-08
0.000221854
-0.000221878
-9.85173e-09
3.30892e-08
-0.000250592
3.64766e-08
-1.02742e-07
-5.52964e-08
0.000250664
-7.30083e-09
2.21603e-08
-0.000278182
1.20031e-08
-0.000183002
-3.15069e-08
1.21552e-08
0.000183032
-0.000183014
-9.32616e-09
-0.000250649
6.30411e-08
3.1669e-08
2.53806e-08
-6.24727e-08
0.000221896
-0.000221902
3.15967e-08
-3.63369e-08
-6.0319e-08
1.39636e-08
0.000183034
-1.54986e-08
0.000250667
6.31359e-08
2.66138e-08
1.04319e-08
-4.90023e-08
-2.09214e-08
3.08727e-08
-1.02804e-07
-5.00704e-08
-0.000221836
3.15392e-08
-3.64745e-08
-6.25232e-08
1.39847e-08
0.000182984
-1.54654e-08
0.000250576
6.30786e-08
3.17134e-08
1.06362e-08
-4.90224e-08
-2.34065e-08
3.31026e-08
-1.02791e-07
-5.52702e-08
-6.8564e-09
-6.93914e-09
0.000213756
-8.05464e-05
-1.2457e-08
8.05709e-05
-8.0533e-05
-1.2318e-08
8.05575e-05
0.000213784
-8.65548e-10
1.21735e-08
0.000143358
-8.29288e-12
-0.000143369
-0.000171055
-1.7969e-10
0.000171087
-0.000223337
2.91432e-08
4.59611e-09
0.000223378
-7.21554e-08
-1.29283e-08
8.33699e-10
-0.000229313
2.82063e-08
-0.000171068
1.009e-09
-0.000223358
3.26326e-08
1.55581e-09
0.000143385
-2.4461e-08
-7.92543e-05
7.92803e-05
-1.53064e-09
3.2718e-09
0.0001936
-4.39919e-08
0.000263181
-1.69119e-08
-9.79377e-10
3.285e-08
-0.000263199
0.000263226
-4.57533e-09
-6.20564e-08
3.21841e-11
-7.92712e-05
1.69243e-08
7.92633e-05
-0.000263207
2.44191e-08
0.000263253
-6.20323e-08
-3.95204e-09
2.23193e-08
3.28335e-08
7.92893e-05
1.90198e-10
-2.91331e-08
-0.000143342
3.23962e-08
2.61278e-09
-7.0621e-08
0.000171036
8.49771e-10
-0.000171049
0.000223317
-1.21974e-08
3.27074e-08
-0.000223337
-7.21335e-08
-0.000143353
-0.000143303
4.26305e-10
-3.11664e-08
1.59063e-09
0.000143332
6.80106e-10
0.000171039
1.21133e-10
-1.41114e-08
0.000223274
8.30412e-10
2.99882e-08
3.23728e-08
2.10797e-09
0.000229316
1.65538e-10
-7.06433e-08
-3.47596e-10
0.000171072
1.34685e-10
4.34323e-09
0.00022331
-6.96541e-08
7.92371e-05
1.8902e-08
-7.92563e-05
3.21607e-10
-3.59059e-09
-0.000193606
2.20763e-08
2.66314e-08
-0.000263154
-4.35459e-09
-5.95262e-08
0.000263195
-1.6004e-09
7.92653e-05
-0.000263168
-8.44361e-10
3.01685e-08
-7.92281e-05
-2.66636e-08
-1.88933e-08
0.000263128
3.01847e-08
3.36329e-09
-4.39395e-08
-5.95493e-08
0.000143319
-6.88769e-10
1.40722e-08
-1.2834e-08
8.61306e-10
1.16158e-10
2.80236e-08
-4.253e-10
-0.000171058
1.28326e-10
0.000171091
3.11571e-08
-0.000223294
-6.96561e-08
0.00022333
0.000143349
1.16954e-10
2.99159e-08
-0.000143374
1.70807e-10
-2.9138e-08
1.57685e-09
0.000143401
8.80182e-10
0.000171074
-1.21501e-08
0.000223358
1.03766e-09
3.25765e-08
3.23817e-08
2.64353e-09
0.000229352
-7.06458e-08
2.04199e-11
0.000171106
4.61762e-09
0.000223399
-7.21578e-08
1.69522e-08
7.92814e-05
-7.92983e-05
-5.08196e-11
-4.03337e-09
-0.00019364
-4.88228e-09
2.23012e-08
-0.00026326
2.43356e-08
-4.6429e-09
-6.19801e-08
0.000263306
-0.000263279
-1.06762e-09
3.28034e-08
-1.59489e-09
7.93074e-05
-7.92724e-05
-2.43721e-08
-1.69408e-08
0.000263234
3.28189e-08
3.19352e-09
6.94907e-09
-4.39466e-08
-6.20061e-08
-8.96092e-10
1.21255e-08
0.00014339
-1.28797e-08
8.66237e-10
2.80698e-08
-0.000171093
-1.58343e-10
0.000171125
-0.000223378
2.91313e-08
-7.21714e-08
0.000223419
3.25056e-08
0.000143417
-6.99003e-09
-6.84833e-09
0.000213723
1.1935e-08
9.96134e-09
-0.000213731
-8.05189e-05
-1.23816e-08
-1.21319e-08
8.05434e-05
-8.05325e-05
-1.24993e-08
-1.2013e-08
8.0557e-05
9.30227e-09
-8.05352e-05
9.44249e-09
-8.05487e-05
-2.75257e-08
-2.52615e-08
0.000213751
3.18182e-08
-3.89328e-08
-0.000221807
0.000221847