/*--------------------------------*- C++ -*----------------------------------*\
| =========                 |                                                 |
| \\      /  F ield         | OpenFOAM: The Open Source CFD Toolbox           |
|  \\    /   O peration     | Version:  v1906                                 |
|   \\  /    A nd           | Web:      www.OpenFOAM.com                      |
|    \\/     M anipulation  |                                                 |
\*---------------------------------------------------------------------------*/
FoamFile
{
    version     2.0;
    format      ascii;
    class       volScalarField;
    location    "250";
    object      epsilon;
}
// * * * * * * * * * * * * * * * * * * * * * * * * * * * * * * * * * * * * * //

dimensions      [0 2 -3 0 0 0 0];


internalField   nonuniform List<scalar> 
42616
(
4.95569e-07
4.97403e-07
4.9741e-07
4.99622e-07
4.45583e-07
4.53881e-07
4.53903e-07
4.6398e-07
4.03774e-07
4.18677e-07
4.18694e-07
4.39641e-07
3.6839e-07
3.88685e-07
3.88698e-07
4.17714e-07
3.38039e-07
3.62174e-07
3.62193e-07
3.95899e-07
3.11662e-07
3.38281e-07
3.38306e-07
3.7418e-07
2.88477e-07
3.16591e-07
3.16612e-07
3.5322e-07
2.67911e-07
2.96927e-07
2.96939e-07
3.33765e-07
2.4955e-07
2.79231e-07
2.79237e-07
3.16057e-07
2.33091e-07
2.63501e-07
2.63503e-07
3.00667e-07
2.18304e-07
2.49743e-07
2.49745e-07
2.87654e-07
2.05015e-07
2.37951e-07
2.37956e-07
2.77829e-07
1.93082e-07
2.28129e-07
2.28136e-07
2.71093e-07
1.82394e-07
2.20284e-07
2.20293e-07
2.67476e-07
1.7286e-07
2.14413e-07
2.14428e-07
2.66944e-07
1.64406e-07
2.10535e-07
2.10555e-07
2.69745e-07
1.56969e-07
2.08651e-07
2.08679e-07
2.75889e-07
1.50497e-07
2.08772e-07
2.08814e-07
2.85691e-07
1.44946e-07
2.10959e-07
2.11008e-07
2.98588e-07
1.40279e-07
2.15217e-07
2.15277e-07
3.14722e-07
1.36466e-07
2.21572e-07
2.21643e-07
3.34261e-07
5.06404e-07
5.05557e-07
5.05555e-07
5.06404e-07
5.05553e-07
5.05553e-07
5.09644e-07
5.09644e-07
5.09644e-07
5.09644e-07
5.05553e-07
5.05553e-07
5.06412e-07
5.05552e-07
5.05548e-07
5.06408e-07
4.99644e-07
4.67472e-07
4.97403e-07
4.97405e-07
4.63846e-07
4.63845e-07
4.99623e-07
4.67435e-07
4.97414e-07
4.97413e-07
4.63861e-07
4.63859e-07
4.97389e-07
4.63839e-07
4.63841e-07
4.9964e-07
4.67494e-07
4.97406e-07
4.63859e-07
4.6386e-07
4.67467e-07
4.63987e-07
4.41639e-07
4.53895e-07
4.53896e-07
4.26914e-07
4.26946e-07
4.63964e-07
4.41649e-07
4.53909e-07
4.53907e-07
4.26918e-07
4.26924e-07
4.53894e-07
4.26895e-07
4.26915e-07
4.64009e-07
4.4166e-07
4.53909e-07
4.26916e-07
4.26926e-07
4.41649e-07
4.39633e-07
4.19351e-07
4.18696e-07
4.18733e-07
3.95821e-07
3.95874e-07
4.39647e-07
4.19336e-07
4.18699e-07
4.18708e-07
3.95821e-07
3.95842e-07
4.18699e-07
3.95809e-07
3.95833e-07
4.39661e-07
4.19383e-07
4.18706e-07
3.95823e-07
3.95831e-07
4.19363e-07
4.17694e-07
3.9759e-07
3.88698e-07
3.88744e-07
3.68552e-07
3.6857e-07
4.17719e-07
3.97466e-07
3.88695e-07
3.88721e-07
3.6854e-07
3.68572e-07
3.88711e-07
3.68534e-07
3.68566e-07
4.17725e-07
3.97617e-07
3.88706e-07
3.68552e-07
3.6855e-07
3.9757e-07
3.95898e-07
3.75932e-07
3.62197e-07
3.62205e-07
3.44069e-07
3.44055e-07
3.95948e-07
3.75861e-07
3.62181e-07
3.62215e-07
3.44048e-07
3.4408e-07
3.62208e-07
3.44038e-07
3.44072e-07
3.95916e-07
3.75934e-07
3.62189e-07
3.44063e-07
3.44035e-07
3.75823e-07
3.74242e-07
3.54865e-07
3.38315e-07
3.38297e-07
3.21856e-07
3.21836e-07
3.74199e-07
3.54758e-07
3.38294e-07
3.38324e-07
3.21836e-07
3.21861e-07
3.38314e-07
3.21821e-07
3.21846e-07
3.74249e-07
3.5486e-07
3.38271e-07
3.21844e-07
3.21785e-07
3.54738e-07
3.5327e-07
3.34914e-07
3.16626e-07
3.16608e-07
3.01689e-07
3.01675e-07
3.53275e-07
3.3492e-07
3.16607e-07
3.16632e-07
3.01669e-07
3.01693e-07
3.16615e-07
3.01658e-07
3.01678e-07
3.53279e-07
3.34999e-07
3.16553e-07
3.01673e-07
3.01617e-07
3.34853e-07
3.33769e-07
3.16947e-07
2.96956e-07
2.96943e-07
2.83495e-07
2.83486e-07
3.33714e-07
3.17104e-07
2.96936e-07
2.96961e-07
2.83473e-07
2.83501e-07
2.96947e-07
2.83472e-07
2.83492e-07
3.33632e-07
3.16993e-07
2.96889e-07
2.83479e-07
2.83446e-07
3.16926e-07
3.16014e-07
3.01468e-07
2.79254e-07
2.79243e-07
2.67268e-07
2.67258e-07
3.15747e-07
3.01454e-07
2.79231e-07
2.79259e-07
2.67246e-07
2.67274e-07
2.79252e-07
2.67249e-07
2.67271e-07
3.15965e-07
3.01301e-07
2.79209e-07
2.67252e-07
2.67239e-07
3.01267e-07
3.00377e-07
2.88262e-07
2.63519e-07
2.63509e-07
2.53018e-07
2.53008e-07
3.00358e-07
2.88236e-07
2.63498e-07
2.63525e-07
2.52997e-07
2.53023e-07
2.63524e-07
2.52999e-07
2.53024e-07
3.00583e-07
2.88444e-07
2.63493e-07
2.53001e-07
2.52997e-07
2.88447e-07
2.87902e-07
2.78026e-07
2.49763e-07
2.49752e-07
2.40737e-07
2.40727e-07
2.87882e-07
2.77979e-07
2.49743e-07
2.49767e-07
2.40719e-07
2.40743e-07
2.49769e-07
2.40715e-07
2.40747e-07
2.87601e-07
2.7816e-07
2.49743e-07
2.40719e-07
2.40719e-07
2.7817e-07
2.78034e-07
2.71129e-07
2.37973e-07
2.37963e-07
2.30423e-07
2.30413e-07
2.77889e-07
2.71054e-07
2.37957e-07
2.3798e-07
2.30408e-07
2.30434e-07
2.37985e-07
2.30397e-07
2.30435e-07
2.77837e-07
2.71238e-07
2.37956e-07
2.30404e-07
2.30406e-07
2.71224e-07
2.71083e-07
2.67226e-07
2.28153e-07
2.28146e-07
2.22083e-07
2.22075e-07
2.71243e-07
2.67176e-07
2.2814e-07
2.28166e-07
2.2207e-07
2.22101e-07
2.28168e-07
2.22055e-07
2.221e-07
2.71117e-07
2.67271e-07
2.28139e-07
2.22065e-07
2.22069e-07
2.67263e-07
2.67486e-07
2.66288e-07
2.20309e-07
2.20304e-07
2.15717e-07
2.15715e-07
2.67458e-07
2.66247e-07
2.20297e-07
2.20329e-07
2.15705e-07
2.15741e-07
2.20328e-07
2.15687e-07
2.15738e-07
2.67521e-07
2.66314e-07
2.20298e-07
2.157e-07
2.15708e-07
2.66296e-07
2.66927e-07
2.68404e-07
2.14444e-07
2.14445e-07
2.11343e-07
2.11348e-07
2.66906e-07
2.68377e-07
2.14434e-07
2.1447e-07
2.1133e-07
2.11371e-07
2.14465e-07
2.11305e-07
2.11361e-07
2.66947e-07
2.68427e-07
2.14434e-07
2.11322e-07
2.11333e-07
2.68426e-07
2.69725e-07
2.73843e-07
2.10574e-07
2.1058e-07
2.08961e-07
2.08968e-07
2.69691e-07
2.73837e-07
2.10563e-07
2.10602e-07
2.08949e-07
2.08991e-07
2.10593e-07
2.08911e-07
2.08975e-07
2.69738e-07
2.73847e-07
2.10563e-07
2.08938e-07
2.08949e-07
2.73835e-07
2.7586e-07
2.82592e-07
2.08704e-07
2.08711e-07
2.08637e-07
2.08642e-07
2.75799e-07
2.82832e-07
2.08693e-07
2.08732e-07
2.08619e-07
2.0866e-07
2.08717e-07
2.08568e-07
2.08643e-07
2.75874e-07
2.8248e-07
2.0869e-07
2.08602e-07
2.08611e-07
2.82342e-07
2.85382e-07
2.9466e-07
2.08835e-07
2.08847e-07
2.10293e-07
2.10298e-07
2.85211e-07
2.94941e-07
2.08833e-07
2.08877e-07
2.10274e-07
2.10328e-07
2.08846e-07
2.10211e-07
2.10295e-07
2.85506e-07
2.94675e-07
2.08827e-07
2.10257e-07
2.10276e-07
2.94471e-07
2.98296e-07
3.10182e-07
2.11037e-07
2.11052e-07
2.14052e-07
2.14058e-07
2.98035e-07
3.1032e-07
2.11033e-07
2.11079e-07
2.14026e-07
2.14083e-07
2.11042e-07
2.13949e-07
2.14045e-07
2.98253e-07
3.10608e-07
2.11021e-07
2.14002e-07
2.14026e-07
3.09966e-07
3.14666e-07
3.29389e-07
2.15307e-07
2.15329e-07
2.19898e-07
2.19911e-07
3.1454e-07
3.29114e-07
2.1531e-07
2.15356e-07
2.19864e-07
2.19934e-07
2.15309e-07
2.1978e-07
2.19884e-07
3.1445e-07
3.29651e-07
2.15287e-07
2.19841e-07
2.19865e-07
3.29781e-07
3.34308e-07
2.21666e-07
2.21702e-07
3.3418e-07
2.21678e-07
2.21729e-07
2.21667e-07
3.33946e-07
2.21648e-07
5.35663e-07
5.35602e-07
5.35656e-07
5.35656e-07
5.34548e-07
5.35515e-07
5.3284e-07
5.35656e-07
5.34555e-07
5.35514e-07
5.35656e-07
5.33308e-07
5.3525e-07
5.35385e-07
5.36141e-07
1.10523e-06
3.85335e-06
9.38404e-07
4.59302e-06
1.26285e-05
1.66664e-05
1.10621e-06
3.85252e-06
9.39644e-07
4.59367e-06
4.95569e-07
4.95569e-07
4.95569e-07
4.57237e-07
4.57235e-07
4.57237e-07
4.57236e-07
5.4351e-07
1.22658e-06
4.95577e-07
4.85579e-07
5.26062e-07
1.21492e-06
4.82312e-07
1.26352e-05
1.66795e-05
5.43439e-07
4.95578e-07
1.22323e-06
4.85593e-07
5.26055e-07
4.82313e-07
1.21606e-06
2.5512e-06
2.55569e-06
4.84307e-07
2.38708e-06
2.39347e-06
1.42745e-06
5.58453e-06
1.32953e-06
6.13453e-06
2.13308e-05
2.31502e-05
1.42785e-06
5.58507e-06
1.3299e-06
6.13528e-06
4.45581e-07
4.45584e-07
4.45583e-07
4.13562e-07
4.13564e-07
4.13563e-07
4.13563e-07
5.8728e-07
1.20023e-06
4.46469e-07
4.44447e-07
5.74289e-07
1.21004e-06
4.35732e-07
2.13369e-05
2.31552e-05
5.87277e-07
4.4647e-07
1.20075e-06
4.4447e-07
5.74261e-07
4.35735e-07
1.20906e-06
2.30878e-06
2.31099e-06
4.53743e-07
2.34622e-06
2.34773e-06
1.65845e-06
6.91693e-06
1.59197e-06
7.32377e-06
2.46503e-05
2.49411e-05
1.65871e-06
6.91796e-06
1.59169e-06
7.32478e-06
4.03777e-07
4.03775e-07
4.03775e-07
3.76716e-07
3.76722e-07
3.76718e-07
3.76717e-07
6.15216e-07
1.24707e-06
4.06601e-07
4.10781e-07
6.08252e-07
1.27139e-06
3.97787e-07
2.46559e-05
2.49466e-05
6.15226e-07
4.06605e-07
1.24833e-06
4.10796e-07
6.0831e-07
3.97792e-07
1.27032e-06
2.46215e-06
2.46249e-06
4.30337e-07
2.52079e-06
2.52129e-06
1.80734e-06
7.8471e-06
1.76786e-06
8.10364e-06
2.4735e-05
2.44321e-05
1.80809e-06
7.84767e-06
1.76633e-06
8.10413e-06
3.68395e-07
3.68392e-07
3.68392e-07
3.45218e-07
3.4522e-07
3.45221e-07
3.4522e-07
6.25724e-07
1.31707e-06
3.73541e-07
3.81777e-07
6.2448e-07
1.33925e-06
3.6609e-07
2.47372e-05
2.44344e-05
6.25762e-07
3.73542e-07
1.31764e-06
3.81791e-07
6.24365e-07
3.66093e-07
1.33964e-06
2.62467e-06
2.62445e-06
4.08474e-07
2.66919e-06
2.67079e-06
1.88817e-06
8.39543e-06
1.8697e-06
8.53191e-06
2.36813e-05
2.32639e-05
1.88933e-06
8.39473e-06
1.86784e-06
8.53102e-06
3.3804e-07
3.38042e-07
3.38041e-07
3.1793e-07
3.17928e-07
3.17934e-07
3.17931e-07
6.21451e-07
1.3758e-06
3.45291e-07
3.55979e-07
6.24649e-07
1.39216e-06
3.38812e-07
2.36841e-05
2.32689e-05
6.2144e-07
3.45294e-07
1.3761e-06
3.56001e-07
6.24686e-07
3.38817e-07
1.3926e-06
2.7566e-06
2.75545e-06
3.86669e-07
2.80112e-06
2.79879e-06
1.92547e-06
8.66216e-06
1.91858e-06
8.71828e-06
2.24914e-05
2.21201e-05
1.92586e-06
8.66104e-06
1.91756e-06
8.71762e-06
3.11658e-07
3.11665e-07
3.11661e-07
2.94008e-07
2.94003e-07
2.94011e-07
2.94003e-07
6.08019e-07
1.41901e-06
3.20522e-07
3.32664e-07
6.14207e-07
1.43138e-06
3.14769e-07
2.24953e-05
2.21254e-05
6.08054e-07
3.20527e-07
1.42038e-06
3.3269e-07
6.14246e-07
3.14776e-07
1.43149e-06
2.89225e-06
2.88786e-06
3.65177e-07
2.94283e-06
2.93903e-06
1.94398e-06
8.75806e-06
1.94015e-06
8.76856e-06
2.14706e-05
2.11797e-05
1.94395e-06
8.75817e-06
1.93984e-06
8.76914e-06
2.88472e-07
2.88479e-07
2.8847e-07
2.72832e-07
2.72828e-07
2.72834e-07
2.72824e-07
5.9084e-07
1.45543e-06
2.98413e-07
3.1149e-07
5.98018e-07
1.46627e-06
2.93239e-07
2.14745e-05
2.11844e-05
5.90616e-07
2.98418e-07
1.45579e-06
3.1151e-07
5.9811e-07
2.93246e-07
1.46733e-06
3.04993e-06
3.04515e-06
3.4457e-07
3.10541e-06
3.1059e-06
1.96197e-06
8.76543e-06
1.9563e-06
8.75968e-06
2.06714e-05
2.04526e-05
1.96238e-06
8.76632e-06
1.95609e-06
8.76068e-06
2.67908e-07
2.67913e-07
2.67904e-07
2.53952e-07
2.5395e-07
2.53954e-07
2.53947e-07
5.74101e-07
1.49474e-06
2.78477e-07
2.92319e-07
5.8124e-07
1.50634e-06
2.73795e-07
2.06761e-05
2.04562e-05
5.74342e-07
2.78479e-07
1.49385e-06
2.92331e-07
5.81211e-07
2.73798e-07
1.50847e-06
3.22885e-06
3.22922e-06
3.25632e-07
3.29166e-06
3.29162e-06
1.99219e-06
8.74553e-06
1.98203e-06
8.73884e-06
2.00726e-05
1.99102e-05
1.99398e-06
8.74688e-06
1.98102e-06
8.74024e-06
2.49549e-07
2.49553e-07
2.49547e-07
2.37041e-07
2.3704e-07
2.37044e-07
2.37041e-07
5.6153e-07
1.54352e-06
2.60425e-07
2.75115e-07
5.66805e-07
1.55925e-06
2.56185e-07
2.0076e-05
1.99151e-05
5.61835e-07
2.60422e-07
1.54256e-06
2.75119e-07
5.66395e-07
2.56182e-07
1.55913e-06
3.42587e-06
3.42702e-06
3.08816e-07
3.49301e-06
3.49408e-06
2.04315e-06
8.7296e-06
2.02595e-06
8.72785e-06
1.96335e-05
1.95182e-05
2.0453e-06
8.73126e-06
2.02442e-06
8.72974e-06
2.3309e-07
2.33094e-07
2.33091e-07
2.21854e-07
2.21853e-07
2.21857e-07
2.21856e-07
5.5564e-07
1.60345e-06
2.44084e-07
2.59878e-07
5.57793e-07
1.62716e-06
2.40252e-07
1.96361e-05
1.95197e-05
5.5561e-07
2.44076e-07
1.6046e-06
2.59879e-07
5.57524e-07
2.40246e-07
1.62539e-06
3.63318e-06
3.63438e-06
2.94417e-07
3.70097e-06
3.70264e-06
2.11741e-06
8.72759e-06
2.09222e-06
8.73093e-06
1.93188e-05
1.92396e-05
2.11989e-06
8.72968e-06
2.09052e-06
8.73289e-06
2.18303e-07
2.18307e-07
2.18307e-07
2.08205e-07
2.08203e-07
2.08207e-07
2.08208e-07
5.56872e-07
1.67826e-06
2.29339e-07
2.46612e-07
5.56045e-07
1.70776e-06
2.25894e-07
1.93236e-05
1.92401e-05
5.56856e-07
2.29331e-07
1.68019e-06
2.46614e-07
5.55961e-07
2.25887e-07
1.70572e-06
3.84118e-06
3.84362e-06
2.83057e-07
3.91118e-06
3.91089e-06
2.21916e-06
8.73732e-06
2.18213e-06
8.74561e-06
1.90981e-05
1.90448e-05
2.21938e-06
8.74023e-06
2.18191e-06
8.7471e-06
2.05013e-07
2.05018e-07
2.05018e-07
1.95944e-07
1.95941e-07
1.95946e-07
1.95948e-07
5.66681e-07
1.76698e-06
2.16116e-07
2.3531e-07
5.62383e-07
1.80084e-06
2.13042e-07
1.91028e-05
1.90445e-05
5.66581e-07
2.16108e-07
1.76898e-06
2.35316e-07
5.6224e-07
2.13036e-07
1.7987e-06
4.04469e-06
4.04636e-06
2.74329e-07
4.10947e-06
4.11257e-06
2.34361e-06
8.75622e-06
2.29898e-06
8.76616e-06
1.89446e-05
1.89092e-05
2.34402e-06
8.75909e-06
2.29871e-06
8.76774e-06
1.93079e-07
1.93085e-07
1.93086e-07
1.84953e-07
1.8495e-07
1.84956e-07
1.84957e-07
5.85805e-07
1.86723e-06
2.04354e-07
2.25981e-07
5.78033e-07
1.90396e-06
2.01634e-07
1.89491e-05
1.89084e-05
5.85743e-07
2.04346e-07
1.86789e-06
2.25989e-07
5.78e-07
2.0163e-07
1.90432e-06
4.23761e-06
4.23897e-06
2.68868e-07
4.29589e-06
4.2977e-06
2.49149e-06
8.77806e-06
2.43854e-06
8.78798e-06
1.88371e-05
1.88138e-05
2.49066e-06
8.78089e-06
2.43878e-06
8.78966e-06
1.82391e-07
1.82397e-07
1.82398e-07
1.75138e-07
1.75134e-07
1.75141e-07
1.75143e-07
6.14176e-07
1.9762e-06
1.93997e-07
2.18626e-07
6.04107e-07
2.0149e-06
1.91621e-07
1.88413e-05
1.88124e-05
6.14306e-07
1.93991e-07
1.97607e-06
2.18637e-07
6.04115e-07
1.91618e-07
2.01534e-06
4.41079e-06
4.41349e-06
2.66406e-07
4.46507e-06
4.46668e-06
2.65488e-06
8.79944e-06
2.59721e-06
8.8087e-06
1.87594e-05
1.87432e-05
2.65452e-06
8.80224e-06
2.59783e-06
8.81034e-06
1.72857e-07
1.72864e-07
1.72865e-07
1.6642e-07
1.66416e-07
1.66423e-07
1.66426e-07
6.53447e-07
2.09181e-06
1.85003e-07
2.13247e-07
6.4013e-07
2.12817e-06
1.8296e-07
1.8763e-05
1.87426e-05
6.54323e-07
1.84998e-07
2.09017e-06
2.13265e-07
6.39643e-07
1.82958e-07
2.13028e-06
4.56576e-06
4.56603e-06
2.66957e-07
4.61051e-06
4.61423e-06
2.82821e-06
8.81909e-06
2.76963e-06
8.82746e-06
1.87008e-05
1.86871e-05
2.82881e-06
8.82175e-06
2.7697e-06
8.8291e-06
1.64403e-07
1.6441e-07
1.64412e-07
1.58734e-07
1.5873e-07
1.58738e-07
1.58741e-07
7.03129e-07
2.20772e-06
1.77331e-07
2.09859e-07
6.86447e-07
2.24392e-06
1.75613e-07
1.87032e-05
1.86873e-05
7.03578e-07
1.77329e-07
2.20626e-06
2.09883e-07
6.85861e-07
1.75615e-07
2.24612e-06
4.69868e-06
4.69901e-06
2.7073e-07
4.73752e-06
4.73972e-06
3.00265e-06
8.83687e-06
2.94642e-06
8.84458e-06
1.86525e-05
1.86401e-05
3.0036e-06
8.83947e-06
2.94628e-06
8.84614e-06
1.56965e-07
1.56974e-07
1.56975e-07
1.52026e-07
1.52021e-07
1.5203e-07
1.52033e-07
7.62682e-07
2.32097e-06
1.70953e-07
2.08468e-07
7.42623e-07
2.35923e-06
1.69553e-07
1.86539e-05
1.86409e-05
7.62732e-07
1.70954e-07
2.32082e-06
2.085e-07
7.42471e-07
1.6956e-07
2.35932e-06
4.81089e-06
4.81268e-06
2.7762e-07
4.84192e-06
4.84383e-06
3.17233e-06
8.85332e-06
3.11891e-06
8.86048e-06
1.86099e-05
1.85983e-05
3.17406e-06
8.85571e-06
3.11813e-06
8.86201e-06
1.50492e-07
1.50502e-07
1.50503e-07
1.46248e-07
1.46241e-07
1.46251e-07
1.46254e-07
8.3104e-07
2.43098e-06
1.65852e-07
2.09121e-07
8.08104e-07
2.4677e-06
1.64769e-07
1.86111e-05
1.85996e-05
8.31107e-07
1.65857e-07
2.43266e-06
2.09161e-07
8.08119e-07
1.6478e-07
2.46621e-06
4.90306e-06
4.9049e-06
2.87959e-07
4.931e-06
4.93289e-06
3.32903e-06
8.86858e-06
3.28016e-06
8.87536e-06
1.85709e-05
1.85608e-05
3.32936e-06
8.87048e-06
3.28019e-06
8.87729e-06
1.44939e-07
1.44951e-07
1.4495e-07
1.41363e-07
1.41354e-07
1.41366e-07
1.41369e-07
9.06434e-07
2.5352e-06
1.62024e-07
2.11822e-07
8.8163e-07
2.5692e-06
1.61254e-07
1.85722e-05
1.85618e-05
9.06776e-07
1.62033e-07
2.53685e-06
2.11871e-07
8.81611e-07
1.61268e-07
2.56785e-06
4.97962e-06
4.98146e-06
3.0184e-07
5.00268e-06
5.00456e-06
3.46852e-06
8.88304e-06
3.42407e-06
8.88947e-06
1.8535e-05
1.85255e-05
3.46831e-06
8.88498e-06
3.42429e-06
8.89138e-06
1.4027e-07
1.40285e-07
1.40282e-07
1.37339e-07
1.37328e-07
1.37342e-07
1.37344e-07
9.87868e-07
2.63171e-06
1.5947e-07
2.16602e-07
9.61194e-07
2.6607e-06
1.59013e-07
1.85361e-05
1.85266e-05
9.88454e-07
1.59487e-07
2.63311e-06
2.16661e-07
9.60945e-07
1.59033e-07
2.66117e-06
5.04238e-06
5.04423e-06
3.19687e-07
5.06122e-06
5.0631e-06
3.58622e-06
8.89684e-06
3.54828e-06
8.90221e-06
1.85011e-05
1.84922e-05
8.89846e-06
3.54866e-06
8.90445e-06
1.36454e-07
1.36473e-07
1.36468e-07
1.07213e-06
2.72089e-06
1.58199e-07
2.23484e-07
1.04472e-06
2.74556e-06
1.58055e-07
1.85024e-05
1.07203e-06
1.58224e-07
2.72074e-06
1.04438e-06
1.58077e-07
5.09369e-06
5.09553e-06
3.40615e-07
5.10919e-06
5.11109e-06
5.3525e-07
5.36202e-07
5.36677e-07
1.09369e-05
5.79808e-07
1.09475e-05
5.80704e-07
5.28217e-07
2.47125e-06
2.46568e-06
5.43492e-07
5.45238e-07
5.34555e-07
5.35514e-07
5.32128e-07
5.35656e-07
5.34556e-07
5.35512e-07
5.33136e-07
5.35656e-07
5.30715e-07
3.44657e-06
5.83423e-07
8.24903e-07
5.307e-07
3.45579e-06
5.69325e-07
8.24049e-07
5.29624e-07
5.28386e-07
1.17382e-06
5.09595e-07
5.34981e-07
5.2835e-07
5.19499e-07
5.29644e-07
5.28388e-07
1.19142e-06
5.09596e-07
5.32958e-07
5.2835e-07
5.19654e-07
5.35243e-07
5.36177e-07
5.35899e-07
1.09377e-05
5.80545e-07
5.28227e-07
2.49923e-06
2.46702e-06
5.43035e-07
5.43289e-07
1.09412e-05
5.80271e-07
5.34559e-07
5.35513e-07
5.33175e-07
5.35656e-07
5.34569e-07
5.35513e-07
5.35656e-07
5.33152e-07
5.30712e-07
3.45681e-06
5.69612e-07
8.25015e-07
5.29636e-07
5.28388e-07
1.19229e-06
5.09596e-07
5.32971e-07
5.2835e-07
5.19629e-07
5.30678e-07
3.45654e-06
5.6952e-07
8.24898e-07
5.2956e-07
5.28387e-07
5.09595e-07
1.19166e-06
5.2835e-07
5.32945e-07
5.19518e-07
5.35663e-07
5.35602e-07
5.35656e-07
5.35656e-07
5.35663e-07
5.35602e-07
5.35656e-07
5.35656e-07
5.35663e-07
5.35603e-07
5.35656e-07
5.35656e-07
5.28434e-07
5.28374e-07
5.09725e-07
5.09725e-07
5.28408e-07
5.28408e-07
5.09781e-07
5.28434e-07
5.28374e-07
5.09725e-07
5.09725e-07
5.28408e-07
5.28408e-07
5.09781e-07
5.28434e-07
5.28374e-07
5.09725e-07
5.09725e-07
5.28408e-07
5.28408e-07
5.09782e-07
5.28434e-07
5.28373e-07
5.09725e-07
5.09725e-07
5.28408e-07
5.28408e-07
5.09782e-07
5.34554e-07
5.35518e-07
5.35656e-07
5.32886e-07
5.29665e-07
5.28384e-07
1.17271e-06
5.09595e-07
5.33221e-07
5.2835e-07
5.19595e-07
5.30732e-07
3.44654e-06
5.83436e-07
8.25309e-07
5.29642e-07
5.28382e-07
5.09596e-07
1.16897e-06
5.2835e-07
5.3302e-07
5.19587e-07
5.30737e-07
3.44727e-06
5.81483e-07
8.2447e-07
5.35246e-07
5.36319e-07
5.36189e-07
1.09508e-05
5.81395e-07
5.28224e-07
2.46579e-06
2.46683e-06
5.43573e-07
5.43131e-07
1.09255e-05
5.81163e-07
5.34556e-07
5.35517e-07
5.35656e-07
5.32894e-07
5.29641e-07
5.28385e-07
5.09595e-07
1.19071e-06
5.2835e-07
5.32939e-07
5.19648e-07
5.29637e-07
5.28383e-07
5.09596e-07
1.17049e-06
5.2835e-07
5.3313e-07
5.1955e-07
5.30731e-07
3.45594e-06
5.69553e-07
8.24882e-07
5.30685e-07
3.44622e-06
5.83148e-07
8.24502e-07
5.28226e-07
2.50784e-06
2.50706e-06
5.40411e-07
5.40987e-07
1.09361e-05
5.80816e-07
1.09362e-05
5.81032e-07
1.26544e-05
1.66979e-05
1.26471e-05
1.67039e-05
2.54585e-06
2.5373e-06
4.84321e-07
2.38745e-06
2.38897e-06
2.06164e-05
1.77724e-05
2.06254e-05
1.77819e-05
4.79469e-07
2.3044e-06
2.3051e-06
2.3497e-06
2.35064e-06
1.10525e-06
3.85231e-06
9.39007e-07
4.59258e-06
5.43209e-07
1.23162e-06
4.95575e-07
4.85578e-07
5.25855e-07
1.21576e-06
4.82308e-07
5.43262e-07
1.22776e-06
4.95575e-07
4.85583e-07
5.25986e-07
1.21652e-06
4.82308e-07
1.16158e-06
5.40059e-06
4.79602e-06
1.27998e-06
1.16183e-06
5.4001e-06
4.79591e-06
1.2802e-06
5.51274e-07
4.74391e-07
1.19956e-06
4.57781e-07
1.21238e-06
4.69719e-07
5.66782e-07
5.51339e-07
4.74388e-07
1.19951e-06
4.57783e-07
1.21273e-06
4.6972e-07
5.66871e-07
2.54246e-06
2.53825e-06
4.84291e-07
2.38227e-06
2.38601e-06
1.267e-05
1.67136e-05
2.05891e-05
1.77408e-05
4.7944e-07
2.29569e-06
2.30403e-06
2.35022e-06
2.34879e-06
2.0632e-05
1.77906e-05
5.43574e-07
1.22836e-06
4.95578e-07
4.85595e-07
5.26119e-07
1.21686e-06
4.82315e-07
1.10544e-06
3.85392e-06
9.38583e-07
4.59388e-06
5.43307e-07
4.95576e-07
1.22852e-06
4.85593e-07
5.2587e-07
4.82309e-07
1.21669e-06
1.1625e-06
5.40092e-06
4.79598e-06
1.28054e-06
5.5161e-07
4.74407e-07
1.20002e-06
4.57794e-07
1.21211e-06
4.69729e-07
5.67034e-07
1.16178e-06
5.40155e-06
4.79703e-06
1.28015e-06
5.51335e-07
4.74405e-07
4.57783e-07
1.1999e-06
4.69721e-07
1.21235e-06
5.66826e-07
1.10627e-06
3.8542e-06
9.39819e-07
4.59309e-06
5.43344e-07
4.95576e-07
1.23343e-06
4.85575e-07
5.26e-07
4.82309e-07
1.21807e-06
1.1057e-06
3.85479e-06
9.39205e-07
4.59369e-06
5.51517e-07
4.74386e-07
1.19877e-06
4.57787e-07
1.21144e-06
4.69724e-07
5.66918e-07
1.16249e-06
5.40141e-06
4.79607e-06
1.2805e-06
5.5138e-07
4.74386e-07
4.57782e-07
1.20041e-06
4.69721e-07
1.21374e-06
5.66805e-07
1.16189e-06
5.40205e-06
4.79728e-06
1.28016e-06
2.54046e-06
2.54058e-06
4.84339e-07
2.38708e-06
2.38592e-06
1.26861e-05
1.67093e-05
2.05983e-05
1.77496e-05
4.79494e-07
2.30376e-06
2.30455e-06
2.3494e-06
2.34922e-06
2.06302e-05
1.77886e-05
5.43301e-07
4.95575e-07
1.23537e-06
4.85594e-07
5.25893e-07
4.82308e-07
1.21933e-06
1.10596e-06
3.85276e-06
9.39277e-07
4.59335e-06
1.10568e-06
3.85412e-06
9.38484e-07
4.59382e-06
5.51447e-07
4.74401e-07
4.57788e-07
1.19922e-06
4.69724e-07
1.20993e-06
5.66872e-07
5.51338e-07
4.74406e-07
4.57784e-07
1.20102e-06
4.6972e-07
1.21517e-06
5.66876e-07
1.1618e-06
5.402e-06
4.79686e-06
1.28024e-06
1.16158e-06
5.40264e-06
4.79736e-06
1.28024e-06
1.26434e-05
1.66932e-05
1.26453e-05
1.67194e-05
4.79462e-07
2.30511e-06
2.30788e-06
2.35014e-06
2.3572e-06
2.06158e-05
1.77699e-05
2.06318e-05
1.77961e-05
2.13524e-05
2.31659e-05
2.13619e-05
2.31744e-05
2.30785e-06
2.30876e-06
4.53744e-07
2.34632e-06
2.34717e-06
2.45008e-05
2.35762e-05
2.45071e-05
2.35839e-05
4.51164e-07
2.43072e-06
2.43186e-06
2.37068e-06
2.37119e-06
1.42748e-06
5.58379e-06
1.32963e-06
6.13337e-06
5.87325e-07
1.20099e-06
4.46465e-07
4.44464e-07
5.74186e-07
1.2104e-06
4.3573e-07
5.87403e-07
1.20096e-06
4.46468e-07
4.44468e-07
5.74264e-07
1.20843e-06
4.35735e-07
1.4722e-06
6.77981e-06
6.29707e-06
1.55354e-06
1.47218e-06
6.77875e-06
6.2957e-06
1.55347e-06
5.9343e-07
4.35488e-07
1.23713e-06
4.15843e-07
1.21716e-06
4.25537e-07
6.03678e-07
5.93447e-07
4.35504e-07
1.23507e-06
4.15851e-07
1.21687e-06
4.25543e-07
6.0372e-07
2.29783e-06
2.30773e-06
4.53737e-07
2.32995e-06
2.3466e-06
2.1367e-05
2.31776e-05
2.44897e-05
2.35619e-05
4.51147e-07
2.41504e-06
2.43119e-06
2.35294e-06
2.37063e-06
2.45083e-05
2.35865e-05
5.87459e-07
1.2016e-06
4.46477e-07
4.44474e-07
5.74413e-07
1.20957e-06
4.35743e-07
1.42767e-06
5.58511e-06
1.32961e-06
6.13535e-06
5.87317e-07
4.46467e-07
1.20125e-06
4.44473e-07
5.7422e-07
4.35731e-07
1.2106e-06
1.47201e-06
6.78073e-06
6.29796e-06
1.55356e-06
5.93508e-07
4.35496e-07
1.23627e-06
4.15851e-07
1.21819e-06
4.25547e-07
6.03712e-07
1.47192e-06
6.78074e-06
6.29756e-06
1.55359e-06
5.93422e-07
4.35497e-07
4.15843e-07
1.23733e-06
4.25538e-07
1.21743e-06
6.03663e-07
1.42774e-06
5.58491e-06
1.32984e-06
6.13548e-06
5.87251e-07
4.46465e-07
1.20204e-06
4.44463e-07
5.74202e-07
4.35728e-07
1.21002e-06
1.42739e-06
5.58597e-06
1.32964e-06
6.13623e-06
5.93448e-07
4.35469e-07
1.23706e-06
4.15838e-07
1.2169e-06
4.25535e-07
6.03504e-07
1.47212e-06
6.78083e-06
6.29767e-06
1.5537e-06
5.93375e-07
4.35488e-07
4.15837e-07
1.23662e-06
4.25533e-07
1.21856e-06
6.03573e-07
1.47199e-06
6.78167e-06
6.29877e-06
1.55355e-06
2.30724e-06
2.30793e-06
4.53759e-07
2.34634e-06
2.3465e-06
2.13653e-05
2.31756e-05
2.44963e-05
2.35665e-05
4.51181e-07
2.43211e-06
2.43189e-06
2.37083e-06
2.37151e-06
2.45078e-05
2.35859e-05
5.87358e-07
4.46469e-07
1.2025e-06
4.44477e-07
5.74249e-07
4.35735e-07
1.21023e-06
1.42766e-06
5.58566e-06
1.32964e-06
6.13575e-06
1.42752e-06
5.58614e-06
1.32958e-06
6.13621e-06
5.93472e-07
4.3549e-07
4.15843e-07
1.23592e-06
4.25538e-07
1.21779e-06
6.0349e-07
5.93412e-07
4.35499e-07
4.15844e-07
1.23669e-06
4.2554e-07
1.21865e-06
6.03673e-07
1.47194e-06
6.78109e-06
6.29813e-06
1.55363e-06
1.47196e-06
6.78126e-06
6.29857e-06
1.55375e-06
2.13529e-05
2.3167e-05
2.13669e-05
2.31751e-05
4.51164e-07
2.4319e-06
2.43195e-06
2.37212e-06
2.37213e-06
2.45018e-05
2.35777e-05
2.45068e-05
2.3585e-05
2.46602e-05
2.4947e-05
2.46657e-05
2.49505e-05
2.46119e-06
2.4615e-06
4.30319e-07
2.51963e-06
2.52068e-06
2.4836e-05
2.49459e-05
2.48393e-05
2.49491e-05
4.28611e-07
2.59908e-06
2.59956e-06
2.54725e-06
2.54778e-06
1.65829e-06
6.91591e-06
1.59185e-06
7.32349e-06
6.15433e-07
1.2474e-06
4.06609e-07
4.10795e-07
6.0822e-07
1.27111e-06
3.97796e-07
6.1545e-07
1.24718e-06
4.06617e-07
4.10843e-07
6.08206e-07
1.26956e-06
3.97805e-07
1.69018e-06
7.76331e-06
7.43392e-06
1.74271e-06
1.69009e-06
7.76355e-06
7.43351e-06
1.74234e-06
6.18457e-07
4.03179e-07
1.30464e-06
3.81297e-07
1.28272e-06
3.89369e-07
6.22728e-07
6.18424e-07
4.03232e-07
1.30495e-06
3.81307e-07
1.28299e-06
3.89379e-07
6.22703e-07
2.44728e-06
2.46069e-06
4.30336e-07
2.51169e-06
2.51954e-06
2.46667e-05
2.49511e-05
2.48331e-05
2.49402e-05
4.2863e-07
2.59621e-06
2.59832e-06
2.54115e-06
2.54713e-06
2.48372e-05
2.49498e-05
6.15448e-07
1.24839e-06
4.06613e-07
4.10798e-07
6.08222e-07
1.27015e-06
3.978e-07
1.65897e-06
6.91753e-06
1.59162e-06
7.32497e-06
6.15466e-07
4.06609e-07
1.24769e-06
4.1081e-07
6.08189e-07
3.97796e-07
1.27147e-06
1.68946e-06
7.7643e-06
7.43479e-06
1.74354e-06
6.18382e-07
4.0318e-07
1.30518e-06
3.81298e-07
1.2837e-06
3.8937e-07
6.22676e-07
1.6894e-06
7.76461e-06
7.43465e-06
1.74309e-06
6.18384e-07
4.03198e-07
3.81299e-07
1.30501e-06
3.89371e-07
1.28313e-06
6.22698e-07
1.65884e-06
6.91756e-06
1.59185e-06
7.325e-06
6.15349e-07
4.06601e-07
1.24864e-06
4.10801e-07
6.08172e-07
3.97788e-07
1.27042e-06
1.65839e-06
6.91865e-06
1.59185e-06
7.32574e-06
6.18536e-07
4.03165e-07
1.30645e-06
3.81288e-07
1.28253e-06
3.8936e-07
6.22449e-07
1.68993e-06
7.76471e-06
7.43462e-06
1.74248e-06
6.18414e-07
4.03188e-07
3.81291e-07
1.30544e-06
3.89362e-07
1.28389e-06
6.22679e-07
1.6901e-06
7.76531e-06
7.43562e-06
1.74247e-06
2.46205e-06
2.46231e-06
4.30349e-07
2.52185e-06
2.52079e-06
2.46672e-05
2.49521e-05
2.48383e-05
2.49458e-05
4.28648e-07
2.60134e-06
2.59986e-06
2.54924e-06
2.54878e-06
2.48447e-05
2.49504e-05
6.15446e-07
4.06607e-07
1.24861e-06
4.10806e-07
6.08185e-07
3.97793e-07
1.27053e-06
1.65899e-06
6.9181e-06
1.59182e-06
7.3254e-06
1.65927e-06
6.91815e-06
1.59178e-06
7.32511e-06
6.18607e-07
4.03179e-07
3.81291e-07
1.30679e-06
3.89363e-07
1.28389e-06
6.22747e-07
6.18436e-07
4.0319e-07
3.81292e-07
1.30553e-06
3.89365e-07
1.28388e-06
6.22748e-07
1.69002e-06
7.7652e-06
7.4353e-06
1.74339e-06
1.68983e-06
7.76462e-06
7.43494e-06
1.74352e-06
2.46611e-05
2.49481e-05
2.46661e-05
2.49515e-05
4.28632e-07
2.59912e-06
2.60101e-06
2.54874e-06
2.54914e-06
2.48374e-05
2.49468e-05
2.48402e-05
2.49502e-05
2.47353e-05
2.44315e-05
2.47359e-05
2.44325e-05
2.62284e-06
2.62346e-06
4.08473e-07
2.6691e-06
2.66967e-06
2.38687e-05
2.42608e-05
2.38701e-05
2.42614e-05
4.06793e-07
2.73336e-06
2.73436e-06
2.69092e-06
2.69151e-06
1.80828e-06
7.84696e-06
1.76775e-06
8.10382e-06
6.25732e-07
1.31811e-06
3.73549e-07
3.8179e-07
6.24363e-07
1.33756e-06
3.66098e-07
6.25695e-07
1.31809e-06
3.73558e-07
3.8183e-07
6.24325e-07
1.33766e-06
3.66106e-07
1.82685e-06
8.3552e-06
8.16366e-06
1.85455e-06
1.82554e-06
8.35529e-06
8.16357e-06
1.85594e-06
6.2614e-07
3.75079e-07
1.36605e-06
3.51992e-07
1.34967e-06
3.5892e-07
6.24907e-07
6.26082e-07
3.75108e-07
1.36613e-06
3.51997e-07
1.34975e-06
3.58926e-07
6.24822e-07
2.62152e-06
2.62321e-06
4.08407e-07
2.66918e-06
2.66819e-06
2.47379e-05
2.44317e-05
2.38696e-05
2.42623e-05
4.0683e-07
2.73461e-06
2.73311e-06
2.69057e-06
2.69181e-06
2.38696e-05
2.42617e-05
6.25622e-07
1.31822e-06
3.73547e-07
3.81784e-07
6.24236e-07
1.33763e-06
3.66095e-07
1.80816e-06
7.84773e-06
1.76674e-06
8.10469e-06
6.25661e-07
3.73552e-07
1.31858e-06
3.81812e-07
6.24276e-07
3.661e-07
1.3379e-06
1.82508e-06
8.35503e-06
8.1638e-06
1.85566e-06
6.25995e-07
3.7507e-07
1.36603e-06
3.51987e-07
1.34968e-06
3.58914e-07
6.24811e-07
1.8252e-06
8.3561e-06
8.16421e-06
1.85563e-06
6.26033e-07
3.75101e-07
3.51995e-07
1.36636e-06
3.58922e-07
1.35019e-06
6.2485e-07
1.80843e-06
7.84773e-06
1.76784e-06
8.10483e-06
6.2573e-07
3.73544e-07
1.31852e-06
3.81804e-07
6.24329e-07
3.66094e-07
1.3379e-06
1.80839e-06
7.84858e-06
1.76783e-06
8.10519e-06
6.26149e-07
3.75063e-07
1.36762e-06
3.51986e-07
1.34868e-06
3.58912e-07
6.24862e-07
1.8257e-06
8.35616e-06
8.16421e-06
1.8562e-06
6.26118e-07
3.75093e-07
3.51991e-07
1.36631e-06
3.58918e-07
1.35001e-06
6.24962e-07
1.82569e-06
8.3564e-06
8.16487e-06
1.8562e-06
2.62542e-06
2.62418e-06
4.08505e-07
2.67143e-06
2.67044e-06
2.47352e-05
2.44336e-05
2.38738e-05
2.42644e-05
4.06819e-07
2.73572e-06
2.73598e-06
2.69368e-06
2.69172e-06
2.38706e-05
2.42637e-05
6.25724e-07
3.73544e-07
1.31854e-06
3.81796e-07
6.24355e-07
3.66093e-07
1.33795e-06
1.80733e-06
7.84849e-06
1.76756e-06
8.10539e-06
1.80692e-06
7.84791e-06
1.76741e-06
8.10468e-06
6.26136e-07
3.75078e-07
3.5199e-07
1.36804e-06
3.58914e-07
1.34902e-06
6.24948e-07
6.2612e-07
3.75082e-07
3.51988e-07
1.36621e-06
3.58915e-07
1.35e-06
6.24907e-07
1.82666e-06
8.35678e-06
8.16502e-06
1.85485e-06
1.82666e-06
8.35612e-06
8.16438e-06
1.8546e-06
2.47368e-05
2.44331e-05
2.47388e-05
2.44344e-05
4.06815e-07
2.73553e-06
2.73503e-06
2.69277e-06
2.69207e-06
2.38708e-05
2.42632e-05
2.3871e-05
2.42645e-05
2.36803e-05
2.32635e-05
2.36808e-05
2.32652e-05
2.75685e-06
2.75705e-06
3.86733e-07
2.79926e-06
2.79968e-06
2.26715e-05
2.30749e-05
2.26736e-05
2.30754e-05
3.85022e-07
2.86885e-06
2.86956e-06
2.8234e-06
2.82373e-06
1.8895e-06
8.39523e-06
1.86832e-06
8.53192e-06
6.21392e-07
1.37703e-06
3.45298e-07
3.56004e-07
6.24834e-07
1.39041e-06
3.38818e-07
6.21367e-07
1.37702e-06
3.45301e-07
3.56003e-07
6.24625e-07
1.39041e-06
3.3882e-07
1.89961e-06
8.6483e-06
8.55669e-06
1.9113e-06
1.89805e-06
8.64825e-06
8.55649e-06
1.91147e-06
6.2053e-07
3.49963e-07
1.41152e-06
3.26445e-07
1.40041e-06
3.32538e-07