/*--------------------------------*- C++ -*----------------------------------*\
| =========                 |                                                 |
| \\      /  F ield         | OpenFOAM: The Open Source CFD Toolbox           |
|  \\    /   O peration     | Version:  v1906                                 |
|   \\  /    A nd           | Web:      www.OpenFOAM.com                      |
|    \\/     M anipulation  |                                                 |
\*---------------------------------------------------------------------------*/
FoamFile
{
    version     2.0;
    format      ascii;
    class       volScalarField;
    location    "250";
    object      p;
}
// * * * * * * * * * * * * * * * * * * * * * * * * * * * * * * * * * * * * * //

dimensions      [0 2 -2 0 0 0 0];


internalField   nonuniform List<scalar> 
42616
(
0.00358661
0.00358643
0.00358644
0.00358922
0.00353306
0.0035332
0.0035332
0.0035354
0.00348178
0.00348182
0.00348182
0.00348412
0.00342988
0.00342984
0.00342984
0.00343212
0.0033788
0.00337875
0.00337875
0.00338099
0.0033291
0.00332905
0.00332905
0.00333125
0.00328082
0.00328079
0.00328079
0.00328295
0.00323384
0.00323382
0.00323382
0.00323594
0.00318795
0.00318794
0.00318794
0.00319003
0.00314295
0.00314295
0.00314295
0.00314502
0.00309868
0.00309868
0.00309868
0.00310073
0.003055
0.00305501
0.00305501
0.00305703
0.00301183
0.00301184
0.00301184
0.00301384
0.00296913
0.00296914
0.00296914
0.00297112
0.00292686
0.00292687
0.00292686
0.00292883
0.00288499
0.002885
0.002885
0.00288694
0.0028435
0.00284351
0.00284351
0.00284544
0.00280237
0.00280237
0.00280237
0.00280429
0.00276157
0.00276157
0.00276157
0.00276347
0.00272108
0.00272108
0.00272108
0.00272297
0.00268087
0.00268088
0.00268088
0.00268275
0.00359999
0.00360019
0.00360019
0.00359999
0.00360019
0.00360019
0.00360093
0.00360092
0.00360093
0.00360093
0.00360019
0.00360019
0.00359999
0.00360019
0.00360019
0.00359999
0.00358923
0.00354308
0.00358643
0.00358643
0.00354558
0.00354557
0.00358922
0.00354307
0.00358644
0.00358643
0.00354558
0.00354558
0.00358643
0.00354557
0.00354557
0.00358923
0.00354308
0.00358643
0.00354558
0.00354557
0.00354307
0.0035354
0.00349215
0.0035332
0.0035332
0.00349482
0.00349482
0.0035354
0.00349215
0.0035332
0.0035332
0.00349482
0.00349482
0.0035332
0.00349482
0.00349482
0.0035354
0.00349215
0.0035332
0.00349482
0.00349482
0.00349215
0.00348412
0.00344011
0.00348182
0.00348182
0.00344279
0.00344279
0.00348412
0.00344011
0.00348182
0.00348182
0.00344279
0.00344279
0.00348182
0.00344279
0.00344279
0.00348412
0.00344011
0.00348182
0.00344279
0.00344279
0.00344011
0.00343212
0.00338879
0.00342984
0.00342984
0.0033914
0.0033914
0.00343212
0.00338879
0.00342984
0.00342984
0.0033914
0.0033914
0.00342984
0.0033914
0.0033914
0.00343212
0.00338879
0.00342984
0.0033914
0.0033914
0.00338879
0.00338099
0.00333883
0.00337875
0.00337875
0.00334134
0.00334134
0.00338099
0.00333883
0.00337875
0.00337875
0.00334134
0.00334134
0.00337875
0.00334134
0.00334134
0.00338099
0.00333883
0.00337875
0.00334134
0.00334134
0.00333883
0.00333125
0.00329031
0.00332905
0.00332905
0.00329273
0.00329273
0.00333125
0.00329031
0.00332905
0.00332905
0.00329273
0.00329273
0.00332905
0.00329273
0.00329273
0.00333125
0.00329031
0.00332905
0.00329273
0.00329273
0.00329031
0.00328295
0.00324312
0.00328079
0.00328079
0.00324545
0.00324545
0.00328295
0.00324312
0.00328079
0.00328079
0.00324545
0.00324545
0.00328079
0.00324545
0.00324545
0.00328295
0.00324312
0.00328079
0.00324545
0.00324545
0.00324312
0.00323594
0.00319706
0.00323382
0.00323382
0.00319932
0.00319932
0.00323594
0.00319706
0.00323382
0.00323382
0.00319932
0.00319932
0.00323382
0.00319932
0.00319932
0.00323594
0.00319706
0.00323382
0.00319932
0.00319932
0.00319706
0.00319003
0.00315193
0.00318794
0.00318794
0.00315413
0.00315413
0.00319003
0.00315193
0.00318794
0.00318794
0.00315413
0.00315413
0.00318794
0.00315413
0.00315413
0.00319004
0.00315193
0.00318794
0.00315413
0.00315413
0.00315193
0.00314502
0.00310754
0.00314295
0.00314295
0.00310969
0.00310969
0.00314502
0.00310754
0.00314295
0.00314295
0.00310969
0.00310969
0.00314295
0.00310969
0.00310969
0.00314502
0.00310754
0.00314295
0.00310969
0.00310969
0.00310754
0.00310073
0.00306376
0.00309868
0.00309868
0.00306588
0.00306588
0.00310073
0.00306376
0.00309868
0.00309868
0.00306588
0.00306588
0.00309868
0.00306588
0.00306588
0.00310073
0.00306376
0.00309868
0.00306588
0.00306588
0.00306375
0.00305703
0.00302049
0.00305501
0.00305501
0.00302259
0.00302259
0.00305703
0.00302049
0.00305501
0.00305501
0.00302259
0.00302259
0.00305501
0.00302259
0.00302259
0.00305703
0.00302049
0.00305501
0.00302259
0.00302259
0.00302049
0.00301384
0.0029777
0.00301184
0.00301184
0.00297977
0.00297977
0.00301384
0.0029777
0.00301184
0.00301184
0.00297977
0.00297977
0.00301184
0.00297977
0.00297977
0.00301384
0.0029777
0.00301184
0.00297977
0.00297977
0.0029777
0.00297112
0.00293537
0.00296914
0.00296914
0.00293739
0.00293739
0.00297112
0.00293537
0.00296914
0.00296914
0.00293739
0.00293739
0.00296914
0.00293739
0.00293739
0.00297112
0.00293536
0.00296914
0.00293739
0.00293739
0.00293537
0.00292883
0.00289344
0.00292686
0.00292687
0.00289543
0.00289543
0.00292883
0.00289344
0.00292686
0.00292686
0.00289543
0.00289543
0.00292687
0.00289543
0.00289543
0.00292883
0.00289344
0.00292687
0.00289543
0.00289543
0.00289344
0.00288694
0.00285189
0.002885
0.00288499
0.00285384
0.00285384
0.00288694
0.00285189
0.002885
0.00288499
0.00285384
0.00285384
0.002885
0.00285384
0.00285384
0.00288694
0.00285189
0.002885
0.00285384
0.00285384
0.00285189
0.00284544
0.00281071
0.00284351
0.00284351
0.00281262
0.00281262
0.00284544
0.00281071
0.00284351
0.00284351
0.00281262
0.00281262
0.00284351
0.00281262
0.00281262
0.00284544
0.00281071
0.00284351
0.00281262
0.00281262
0.00281071
0.00280429
0.00276986
0.00280237
0.00280237
0.00277174
0.00277174
0.00280429
0.00276986
0.00280237
0.00280237
0.00277174
0.00277174
0.00280237
0.00277174
0.00277174
0.00280429
0.00276986
0.00280237
0.00277174
0.00277174
0.00276986
0.00276347
0.00272932
0.00276157
0.00276157
0.00273117
0.00273117
0.00276347
0.00272932
0.00276157
0.00276157
0.00273118
0.00273118
0.00276157
0.00273117
0.00273118
0.00276347
0.00272932
0.00276157
0.00273118
0.00273118
0.00272932
0.00272297
0.00268907
0.00272108
0.00272108
0.0026909
0.0026909
0.00272297
0.00268907
0.00272108
0.00272108
0.0026909
0.0026909
0.00272108
0.0026909
0.0026909
0.00272297
0.00268907
0.00272108
0.0026909
0.0026909
0.00268907
0.00268275
0.00268088
0.00268088
0.00268275
0.00268088
0.00268088
0.00268088
0.00268275
0.00268088
0.00360914
0.0036191
0.00361372
0.00361372
0.00363621
0.00362309
0.00365155
0.00361702
0.00363623
0.0036231
0.00361703
0.00365154
0.00362758
0.00365559
0.00365559
0.00356809
0.00356815
0.00358651
0.00356639
0.00354632
0.00356536
0.0035681
0.00356824
0.00358649
0.00356639
0.00358661
0.00358662
0.00358662
0.00354545
0.00354545
0.00354545
0.00354545
0.00356676
0.00358361
0.00358669
0.00357093
0.00358886
0.00356772
0.00357157
0.00354651
0.00356541
0.00356677
0.0035867
0.00358366
0.00357093
0.00358887
0.00357157
0.00356772
0.00358011
0.0035801
0.00356777
0.00356805
0.00356806
0.00351843
0.00353629
0.00353731
0.00351752
0.00353566
0.00351706
0.00351842
0.00353628
0.00353731
0.00351751
0.00353306
0.00353306
0.00353306
0.00349476
0.00349476
0.00349476
0.00349476
0.00351752
0.00353677
0.00353313
0.00352058
0.00353607
0.00351799
0.00352052
0.00353566
0.00351705
0.00351752
0.00353313
0.00353677
0.00352058
0.00353607
0.00352052
0.00351798
0.00353704
0.00353704
0.00351794
0.00351811
0.00351811
0.00346616
0.00348475
0.0034856
0.00346538
0.00348445
0.00346514
0.00346615
0.00348475
0.00348559
0.00346538
0.00348178
0.00348178
0.00348178
0.00344281
0.00344282
0.00344281
0.00344281
0.00346564
0.00348512
0.00348179
0.0034688
0.00348483
0.0034658
0.00346878
0.00348445
0.00346514
0.00346564
0.00348179
0.00348512
0.0034688
0.00348483
0.00346878
0.0034658
0.0034852
0.0034852
0.00346612
0.00346575
0.00346575
0.00341404
0.00343253
0.00343322
0.00341343
0.00343236
0.00341328
0.00341404
0.00343253
0.00343322
0.00341343
0.00342988
0.00342988
0.00342988
0.00339145
0.00339145
0.00339145
0.00339145
0.00341377
0.00343284
0.00342985
0.00341696
0.00343274
0.00341381
0.00341696
0.00343236
0.00341328
0.00341377
0.00342985
0.00343284
0.00341695
0.00343274
0.00341696
0.00341381
0.00343283
0.00343283
0.0034143
0.00341369
0.00341369
0.00336317
0.00338131
0.00338181
0.00336273
0.0033812
0.0033626
0.00336317
0.00338131
0.00338181
0.00336274
0.0033788
0.0033788
0.0033788
0.00334139
0.00334139
0.00334139
0.00334139
0.00336306
0.00338155
0.00337876
0.00336619
0.00338152
0.00336306
0.0033662
0.00338119
0.00336261
0.00336306
0.00337876
0.00338155
0.00336619
0.00338151
0.0033662
0.00336306
0.00338154
0.00338154
0.00336362
0.00336294
0.00336294
0.00331383
0.00333154
0.00333189
0.00331352
0.00333145
0.00331339
0.00331383
0.00333154
0.00333189
0.00331352
0.0033291
0.0033291
0.0033291
0.00329276
0.00329276
0.00329276
0.00329276
0.00331381
0.00333172
0.00332905
0.00331686
0.00333171
0.00331381
0.00331685
0.00333144
0.00331341
0.00331381
0.00332905
0.00333172
0.00331686
0.00333171
0.00331685
0.00331381
0.00333173
0.00333173
0.00331439
0.0033137
0.00331369
0.00326594
0.00328322
0.00328347
0.00326572
0.00328314
0.00326561
0.00326593
0.00328322
0.00328347
0.00326571
0.00328082
0.00328082
0.00328082
0.00324547
0.00324547
0.00324547
0.00324547
0.00326599
0.00328337
0.00328078
0.00326893
0.00328335
0.00326599
0.00326892
0.00328314
0.00326561
0.00326599
0.00328078
0.00328337
0.00326893
0.00328336
0.00326892
0.00326598
0.00328339
0.00328339
0.00326656
0.00326588
0.00326588
0.00321931
0.00323622
0.00323639
0.00321914
0.00323614
0.00321904
0.00321931
0.00323622
0.00323639
0.00321914
0.00323384
0.00323384
0.00323384
0.00319933
0.00319933
0.00319933
0.00319933
0.00321941
0.00323633
0.0032338
0.00322226
0.00323632
0.0032194
0.00322224
0.00323614
0.00321904
0.00321941
0.0032338
0.00323633
0.00322226
0.00323632
0.00322224
0.0032194
0.00323637
0.00323637
0.00321997
0.00321929
0.00321929
0.00317373
0.00319031
0.00319044
0.00317359
0.00319023
0.00317349
0.00317373
0.00319031
0.00319044
0.00317359
0.00318795
0.00318795
0.00318795
0.00315413
0.00315413
0.00315413
0.00315413
0.00317386
0.0031904
0.00318792
0.00317662
0.00319039
0.00317385
0.0031766
0.00319023
0.00317349
0.00317386
0.00318792
0.0031904
0.00317662
0.00319039
0.0031766
0.00317385
0.00319044
0.00319045
0.00317439
0.00317373
0.00317373
0.00312898
0.0031453
0.00314541
0.00312887
0.00314522
0.00312877
0.00312898
0.0031453
0.00314541
0.00312887
0.00314295
0.00314295
0.00314295
0.00310969
0.00310969
0.00310968
0.00310968
0.00312914
0.00314538
0.00314293
0.00313182
0.00314537
0.00312912
0.0031318
0.00314523
0.00312877
0.00312914
0.00314293
0.00314538
0.00313182
0.00314537
0.0031318
0.00312912
0.00314542
0.00314542
0.00312965
0.00312899
0.00312899
0.00308492
0.003101
0.0031011
0.00308481
0.00310094
0.00308472
0.00308492
0.00310101
0.0031011
0.00308481
0.00309868
0.00309868
0.00309868
0.00306587
0.00306587
0.00306587
0.00306587
0.00308509
0.00310108
0.00309866
0.00308771
0.00310107
0.00308506
0.00308769
0.00310094
0.00308472
0.00308509
0.00309866
0.00310108
0.00308771
0.00310107
0.00308769
0.00308506
0.00310112
0.00310111
0.00308558
0.00308492
0.00308492
0.00304142
0.0030573
0.0030574
0.0030413
0.00305724
0.00304122
0.00304142
0.0030573
0.0030574
0.0030413
0.003055
0.003055
0.003055
0.00302258
0.00302258
0.00302258
0.00302258
0.00304161
0.00305737
0.00305499
0.00304417
0.00305738
0.00304156
0.00304415
0.00305724
0.00304122
0.00304161
0.00305499
0.00305737
0.00304417
0.00305738
0.00304415
0.00304156
0.0030574
0.0030574
0.00304206
0.00304141
0.00304141
0.00299841
0.00301412
0.00301422
0.00299829
0.00301406
0.00299821
0.00299841
0.00301412
0.00301422
0.00299829
0.00301183
0.00301183
0.00301183
0.00297976
0.00297976
0.00297976
0.00297976
0.00299862
0.00301417
0.00301183
0.00300112
0.0030142
0.00299855
0.00300111
0.00301406
0.00299821
0.00299862
0.00301183
0.00301417
0.00300112
0.0030142
0.00300111
0.00299855
0.00301421
0.00301421
0.00299903
0.00299839
0.00299839
0.00295585
0.00297139
0.00297149
0.00295573
0.00297134
0.00295565
0.00295585
0.00297139
0.00297149
0.00295573
0.00296913
0.00296913
0.00296913
0.00293738
0.00293739
0.00293738
0.00293739
0.00295608
0.00297144
0.00296913
0.00295853
0.00297148
0.00295598
0.00295852
0.00297134
0.00295565
0.00295608
0.00296913
0.00297144
0.00295853
0.00297148
0.00295852
0.00295598
0.00297147
0.00297147
0.00295648
0.00295581
0.00295581
0.00291371
0.0029291
0.0029292
0.00291358
0.00292905
0.00291352
0.00291371
0.0029291
0.0029292
0.00291358
0.00292686
0.00292686
0.00292686
0.00289542
0.00289542
0.00289542
0.00289542
0.00291396
0.00292914
0.00292686
0.00291636
0.0029292
0.00291383
0.00291635
0.00292905
0.00291352
0.00291396
0.00292686
0.00292914
0.00291636
0.0029292
0.00291635
0.00291383
0.00292917
0.00292917
0.00291435
0.00291366
0.00291366
0.00287197
0.00288721
0.00288731
0.00287184
0.00288716
0.00287178
0.00287197
0.00288721
0.00288731
0.00287184
0.00288499
0.00288499
0.00288499
0.00285384
0.00285384
0.00285384
0.00285384
0.00287223
0.00288724
0.00288499
0.00287459
0.00288731
0.00287208
0.00287459
0.00288717
0.00287178
0.00287223
0.00288499
0.00288724
0.00287459
0.00288731
0.00287459
0.00287208
0.00288727
0.00288727
0.00287262
0.00287191
0.00287191
0.0028306
0.00284571
0.00284581
0.00283047
0.00284567
0.00283041
0.0028306
0.00284571
0.00284581
0.00283047
0.0028435
0.0028435
0.0028435
0.00281262
0.00281262
0.00281262
0.00281262
0.00283088
0.00284573
0.00284351
0.00283319
0.00284581
0.0028307
0.00283319
0.00284567
0.00283041
0.00283088
0.00284351
0.00284573
0.00283319
0.00284581
0.00283319
0.0028307
0.00284576
0.00284576
0.00283126
0.00283053
0.00283053
0.00278958
0.00280457
0.00280467
0.00278945
0.00280453
0.0027894
0.00278958
0.00280457
0.00280467
0.00278945
0.00280237
0.00280237
0.00280237
0.00277174
0.00277174
0.00277174
0.00277173
0.00278987
0.00280458
0.00280237
0.00279214
0.00280467
0.00278968
0.00279214
0.00280453
0.0027894
0.00278987
0.00280237
0.00280458
0.00279214
0.00280467
0.00279214
0.00278968
0.00280461
0.00280461
0.00279024
0.0027895
0.0027895
0.00274888
0.00276377
0.00276386
0.00274875
0.00276373
0.00274872
0.00274888
0.00276376
0.00276386
0.00274876
0.00276157
0.00276157
0.00276157
0.00273117
0.00273117
0.00273117
0.00273117
0.00274918
0.00276377
0.00276157
0.00275142
0.00276385
0.00274898
0.00275142
0.00276373
0.00274871
0.00274918
0.00276157
0.00276377
0.00275142
0.00276385
0.00275142
0.00274898
0.0027638
0.0027638
0.00274955
0.0027488
0.00274881
0.00270848
0.00272326
0.00272335
0.00270837
0.00272323
0.00270834
0.00270848
0.00272326
0.00272335
0.00270837
0.00272107
0.00272108
0.00272108
0.0026909
0.0026909
0.0026909
0.0026909
0.00270878
0.00272327
0.00272108
0.002711
0.00272335
0.00270858
0.00271101
0.00272324
0.00270833
0.00270878
0.00272108
0.00272327
0.002711
0.00272335
0.00271101
0.00270858
0.0027233
0.0027233
0.00270916
0.00270841
0.00270841
0.00266837
0.00268306
0.00268314
0.00266825
0.00268302
0.00266822
0.00268305
0.00268314
0.00266826
0.00268087
0.00268087
0.00268087
0.00266866
0.00268305
0.00268088
0.00267087
0.00268313
0.00266846
0.00267087
0.00268303
0.00266866
0.00268088
0.00268305
0.00268313
0.00267087
0.00268308
0.00268308
0.00266905
0.00266829
0.00266829
0.00362757
0.00365556
0.00365553
0.00360949
0.00365518
0.00360954
0.00365509
0.00362422
0.00360849
0.00360854
0.00364977
0.0036497
0.00363619
0.00362309
0.00365151
0.00361701
0.00363619
0.00362309
0.00365149
0.00361701
0.00363997
0.00360393
0.00365191
0.00360172
0.00363996
0.00360397
0.00365187
0.00360173
0.00363159
0.00362025
0.00360357
0.00360226
0.00364606
0.00361512
0.00360181
0.00363158
0.00362024
0.0036036
0.00360226
0.00364604
0.00361512
0.00360182
0.00362758
0.00365556
0.0036556
0.0036095
0.00365515
0.00362422
0.00360844
0.0036085
0.00364975
0.00364979
0.0036095
0.00365521
0.00363621
0.00362309
0.00365148
0.00361702
0.00363621
0.0036231
0.00361702
0.00365154
0.00363998
0.00360398
0.00365184
0.00360171
0.0036316
0.00362024
0.00360363
0.00360226
0.00364604
0.00361512
0.00360181
0.00363998
0.00360395
0.00365193
0.0036017
0.0036316
0.00362025
0.00360226
0.00360361
0.00361512
0.00364609
0.0036018
0.00360914
0.0036191
0.00361372
0.00361372
0.00360914
0.00361911
0.00361372
0.00361373
0.00360914
0.00361911
0.00361373
0.00361373
0.00360783
0.00361673
0.00359931
0.00359931
0.00361207
0.00361207
0.00359768
0.00360783
0.00361673
0.00359931
0.00359931
0.00361207
0.00361207
0.00359768
0.00360783
0.00361674
0.00359931
0.00359931
0.00361207
0.00361207
0.00359768
0.00360783
0.00361674
0.00359931
0.00359931
0.00361207
0.00361207
0.00359768
0.00363621
0.0036231
0.00361702
0.00365152
0.00363161
0.00362025
0.00360357
0.00360226
0.00364609
0.00361512
0.00360181
0.00363998
0.00360392
0.00365196
0.0036017
0.0036316
0.00362025
0.00360226
0.00360359
0.00361512
0.00364607
0.00360181
0.00363999
0.00360394
0.00365193
0.0036017
0.00362759
0.00365561
0.00365562
0.00360967
0.00365521
0.00362423
0.00360852
0.00360852
0.00364982
0.00364982
0.00360948
0.00365522
0.00363623
0.0036231
0.00361703
0.00365153
0.00363162
0.00362026
0.00360227
0.00360363
0.00361513
0.0036461
0.00360182
0.00363163
0.00362025
0.00360226
0.00360359
0.00361513
0.00364607
0.00360181
0.00364001
0.00360402
0.00365195
0.00360172
0.00364002
0.00360397
0.00365194
0.00360172
0.00362423
0.00360848
0.0036085
0.00364978
0.00364978
0.0036094
0.00365521
0.00360941
0.00365521
0.00354631
0.00356535
0.00354645
0.00356534
0.00358008
0.00358014
0.0035678
0.00356806
0.00356807
0.00354206
0.00355859
0.00354206
0.00355864
0.00356021
0.00354357
0.00354357
0.00356122
0.00356125
0.00356809
0.00356824
0.00358652
0.0035664
0.00356677
0.00358361
0.00358669
0.00357093
0.00358887
0.00356771
0.00357157
0.00356677
0.00358362
0.00358669
0.00357093
0.00358888
0.00356772
0.00357157
0.00356171
0.00354275
0.00355971
0.00354378
0.00356171
0.00354275
0.00355972
0.00354378
0.00356036
0.00355792
0.00354331
0.00354555
0.00356101
0.0035581
0.00354258
0.00356036
0.00355792
0.0035433
0.00354555
0.00356101
0.0035581
0.00354258
0.00358008
0.00358011
0.0035678
0.00356806
0.00356807
0.00354641
0.00356537
0.00354206
0.00355859
0.00356021
0.00354356
0.00354357
0.00356122
0.00356123
0.00354208
0.00355861
0.00356677
0.00358364
0.00358669
0.00357093
0.00358886
0.00356772
0.00357157
0.0035681
0.00356822
0.00358648
0.00356642
0.00356677
0.00358669
0.00358362
0.00357093
0.00358886
0.00357157
0.00356773
0.00356171
0.00354274
0.00355975
0.00354378
0.00356036
0.00355792
0.00354331
0.00354555
0.00356102
0.0035581
0.00354258
0.00356171
0.00354274
0.00355973
0.00354378
0.00356036
0.00355792
0.00354555
0.00354331
0.0035581
0.00356102
0.00354258
0.00356808
0.00356813
0.00358647
0.00356641
0.00356677
0.00358669
0.00358363
0.00357092
0.00358886
0.00357157
0.00356771
0.00356808
0.00356819
0.00358648
0.0035664
0.00356035
0.00355791
0.00354331
0.00354555
0.00356101
0.0035581
0.00354258
0.0035617
0.00354275
0.00355971
0.00354378
0.00356035
0.00355792
0.00354555
0.00354331
0.0035581
0.00356101
0.00354258
0.0035617
0.00354275
0.0035597
0.00354378
0.00358011
0.00358016
0.00356778
0.00356807
0.00356806
0.00354646
0.00356534
0.00354206
0.00355863
0.00356021
0.00354357
0.00354356
0.00356124
0.00356123
0.00354205
0.00355859
0.00356677
0.0035867
0.00358362
0.00357093
0.00358886
0.00357157
0.00356772
0.0035681
0.00356827
0.00358649
0.00356639
0.0035681
0.00356817
0.00358648
0.0035664
0.00356036
0.00355792
0.00354555
0.0035433
0.0035581
0.00356102
0.00354258
0.00356036
0.00355792
0.00354555
0.0035433
0.0035581
0.00356101
0.00354258
0.00356171
0.00354274
0.00355974
0.00354377
0.0035617
0.00354273
0.00355971
0.00354377
0.00354643
0.00356534
0.00354641
0.00356534
0.00356021
0.00354357
0.00354356
0.00356123
0.00356123
0.00354207
0.00355858
0.00354204
0.0035586
0.00353566
0.00351705
0.00353565
0.00351705
0.00353705
0.00353705
0.00351794
0.00351811
0.00351811
0.00349123
0.00351039
0.00349123
0.00351039
0.00351003
0.00349201
0.00349201
0.00351138
0.00351138
0.00351843
0.00353629
0.00353731
0.00351752
0.00351752
0.00353677
0.00353314
0.00352058
0.00353607
0.00351799
0.00352052
0.00351752
0.00353677
0.00353313
0.00352058
0.00353607
0.00351799
0.00352052
0.00351172
0.00349155
0.00351081
0.0034924
0.00351172
0.00349155
0.00351081
0.0034924
0.00351076
0.00350776
0.003492
0.00349478
0.00351122
0.00350771
0.00349171
0.00351076
0.00350776
0.003492
0.00349478
0.00351122
0.00350771
0.00349171
0.00353704
0.00353706
0.00351794
0.00351811
0.00351811
0.00353568
0.00351705
0.00349123
0.00351039
0.00351003
0.00349202
0.00349201
0.00351138
0.00351138
0.00349123
0.00351039
0.00351752
0.00353677
0.00353313
0.00352058
0.00353607
0.00351799
0.00352052
0.00351842
0.00353629
0.00353731
0.00351751
0.00351752
0.00353313
0.00353677
0.00352058
0.00353607
0.00352052
0.00351798
0.00351172
0.00349155
0.00351081
0.00349239
0.00351076
0.00350776
0.00349199
0.00349477
0.00351122
0.00350771
0.00349171
0.00351172
0.00349155
0.00351081
0.00349239
0.00351076
0.00350776
0.00349477
0.00349199
0.00350771
0.00351122
0.0034917
0.00351842
0.00353629
0.0035373
0.00351752
0.00351752
0.00353313
0.00353676
0.00352058
0.00353607
0.00352052
0.00351798
0.00351842
0.00353628
0.0035373
0.00351751
0.00351076
0.00350776
0.00349199
0.00349477
0.00351122
0.00350771
0.00349171
0.00351172
0.00349155
0.00351081
0.00349239
0.00351076
0.00350776
0.00349477
0.00349199
0.00350771
0.00351122
0.00349171
0.00351172
0.00349155
0.00351081
0.00349239
0.00353705
0.00353705
0.00351794
0.00351811
0.00351811
0.00353566
0.00351705
0.00349122
0.00351039
0.00351003
0.00349201
0.00349201
0.00351138
0.00351138
0.00349122
0.00351039
0.00351752
0.00353313
0.00353677
0.00352058
0.00353607
0.00352052
0.00351798
0.00351842
0.00353628
0.00353731
0.00351751
0.00351842
0.00353628
0.00353731
0.00351751
0.00351076
0.00350776
0.00349477
0.00349199
0.00350771
0.00351122
0.00349171
0.00351076
0.00350776
0.00349477
0.00349199
0.00350771
0.00351122
0.00349171
0.00351172
0.00349155
0.00351081
0.00349239
0.00351172
0.00349155
0.00351081
0.00349239
0.00353564
0.00351705
0.00353565
0.00351705
0.00351003
0.00349201
0.00349201
0.00351138
0.00351138
0.00349122
0.00351038
0.00349122
0.00351039
0.00348446
0.00346514
0.00348445
0.00346514
0.0034852
0.0034852
0.00346612
0.00346575
0.00346575
0.0034391
0.00345836
0.0034391
0.00345836
0.00345808
0.00343959
0.00343959
0.00345894
0.00345894
0.00346616
0.00348475
0.0034856
0.00346538
0.00346564
0.00348512
0.00348179
0.0034688
0.00348483
0.0034658
0.00346878
0.00346564
0.00348513
0.00348179
0.0034688
0.00348483
0.00346581
0.00346878
0.00345935
0.00343929
0.00345858
0.00343998
0.00345935
0.00343929
0.00345858
0.00343998
0.00345874
0.00345578
0.00343969
0.00344279
0.00345892
0.00345578
0.0034396
0.00345874
0.00345578
0.00343969
0.00344279
0.00345892
0.00345578
0.0034396
0.0034852
0.0034852
0.00346612
0.00346576
0.00346575
0.00348446
0.00346514
0.0034391
0.00345836
0.00345808
0.0034396
0.0034396
0.00345894
0.00345894
0.0034391
0.00345837
0.00346563
0.00348512
0.00348179
0.0034688
0.00348483
0.0034658
0.00346878
0.00346615
0.00348475
0.00348559
0.00346538
0.00346563
0.00348179
0.00348512
0.0034688
0.00348483
0.00346878
0.0034658
0.00345934
0.00343929
0.00345857
0.00343998
0.00345874
0.00345578
0.00343969
0.00344279
0.00345892
0.00345577
0.0034396
0.00345934
0.00343929
0.00345857
0.00343998
0.00345874
0.00345578
0.00344279
0.00343969
0.00345577
0.00345892
0.0034396
0.00346615
0.00348475
0.00348559
0.00346538
0.00346563
0.00348179
0.00348512
0.0034688
0.00348483
0.00346878
0.0034658
0.00346615
0.00348475
0.00348559
0.00346538
0.00345874
0.00345578
0.00343969
0.00344279
0.00345892
0.00345578
0.0034396
0.00345935
0.00343929
0.00345858
0.00343998
0.00345874
0.00345578
0.00344279
0.00343969
0.00345577
0.00345892
0.0034396
0.00345934
0.00343929
0.00345858
0.00343998
0.0034852
0.0034852
0.00346612
0.00346575
0.00346575
0.00348445
0.00346514
0.0034391
0.00345836
0.00345808
0.00343959
0.00343959
0.00345894
0.00345894
0.0034391
0.00345836
0.00346563
0.00348179
0.00348512
0.0034688
0.00348483
0.00346878
0.0034658
0.00346615
0.00348475
0.00348559
0.00346538
0.00346615
0.00348475
0.00348559
0.00346538
0.00345874
0.00345578
0.00344279
0.00343969
0.00345577
0.00345892
0.0034396
0.00345874
0.00345578
0.00344279
0.00343969
0.00345578
0.00345892
0.0034396
0.00345935
0.00343929
0.00345858
0.00343998
0.00345935
0.00343929
0.00345858
0.00343998
0.00348445
0.00346514
0.00348445
0.00346514
0.00345808
0.00343959
0.00343959
0.00345894
0.00345894
0.0034391
0.00345836
0.0034391
0.00345836
0.00343236
0.00341328
0.00343236
0.00341328
0.00343283
0.00343283
0.0034143
0.00341369
0.00341369
0.00338777
0.00340662
0.00338777
0.00340662
0.0034064
0.00338813
0.00338813
0.00340701
0.00340701
0.00341404
0.00343253
0.00343322
0.00341343
0.00341377
0.00343284
0.00342985
0.00341696
0.00343274
0.00341381
0.00341696
0.00341377
0.00343284
0.00342985
0.00341696
0.00343274
0.00341381
0.00341696
0.00340735
0.0033879
0.00340675
0.00338842
0.00340735
0.0033879
0.00340675
0.00338842
0.00340697
0.00340414
0.00338825
0.00339141
0.00340703
0.00340415
0.00338824
0.00340697
0.00340414
0.00338825
0.00339141
0.00340703
0.00340415
0.00338824
0.00343284
0.00343284
0.0034143
0.0034137
0.0034137
0.00343237
0.00341328
0.00338777
0.00340662
0.0034064
0.00338813
0.00338813
0.00340701
0.00340701
0.00338777
0.00340662
0.00341377
0.00343284
0.00342985
0.00341695
0.00343274
0.00341381
0.00341696
0.00341404
0.00343253
0.00343322
0.00341343
0.00341377
0.00342985
0.00343284
0.00341695
0.00343274
0.00341696
0.00341381
0.00340734
0.0033879
0.00340675
0.00338842
0.00340697
0.00340414
0.00338825
0.00339141
0.00340703
0.00340415
0.00338824
0.00340734
0.0033879
0.00340675
0.00338842
0.00340697
0.00340414
0.00339141
0.00338825
0.00340415
0.00340702
0.00338824
0.00341404
0.00343253
0.00343322
0.00341343
0.00341377
0.00342985
0.00343284
0.00341695
0.00343274
0.00341696
0.00341381
0.00341404
0.00343253
0.00343322
0.00341343
0.00340697
0.00340414
0.00338825
0.00339141
0.00340703
0.00340415
0.00338824
0.00340735
0.0033879
0.00340675
0.00338842
0.00340697
0.00340414
0.00339141
0.00338825
0.00340415
0.00340703
0.00338824
0.00340734
0.0033879
0.00340675
0.00338842
0.00343283
0.00343283
0.0034143
0.00341369
0.00341369
0.00343237
0.00341327
0.00338776
0.00340662
0.00340639
0.00338813
0.00338813
0.00340701
0.00340701
0.00338776
0.00340661
0.00341377
0.00342985
0.00343284
0.00341695
0.00343274
0.00341696
0.00341381
0.00341404
0.00343253
0.00343322
0.00341343
0.00341404
0.00343253
0.00343322
0.00341343
0.00340697
0.00340414
0.00339141
0.00338825
0.00340415
0.00340702
0.00338823
0.00340697
0.00340414
0.00339141
0.00338825
0.00340415
0.00340703
0.00338823
0.00340734
0.0033879
0.00340675
0.00338842
0.00340734
0.0033879
0.00340675
0.00338842
0.00343236
0.00341328
0.00343236
0.00341328
0.0034064
0.00338813
0.00338813
0.00340701
0.00340701
0.00338776
0.00340662
0.00338777
0.00340662
0.00338119
0.00336261
0.00338119
0.00336261
0.00338154
0.00338154
0.00336363
0.00336294
0.00336294
0.00333782
0.00335613
0.00333782
0.00335613
0.00335594
0.00333813
0.00333813
0.00335644
0.00335644
0.00336317
0.00338131
0.00338181
0.00336273
0.00336306
0.00338155
0.00337876
0.00336619
0.00338152
0.00336306
0.0033662
0.00336306
0.00338155
0.00337876
0.00336619
0.00338152
0.00336306
0.0033662
0.00335666
0.00333794
0.00335624
0.00333831
0.00335666
0.00333794
0.00335623
0.00333831
0.00335643
0.00335372
0.00333825
0.00334134
0.00335645
0.00335372
0.00333825
0.00335643
0.00335372
0.00333825
0.00334134
0.00335644
0.00335372
0.00333825
0.00338154
0.00338154
0.00336363
0.00336293
0.00336294
0.00338119
0.00336261
0.00333783
0.00335613
0.00335594
0.00333813
0.00333813
0.00335644
0.00335644
0.00333782
0.00335613
0.00336306
0.00338155
0.00337876
0.00336619
0.00338152
0.00336306
0.0033662
0.00336317
0.00338131
0.00338181
0.00336273
0.00336306
0.00337876
0.00338155
0.00336619
0.00338152
0.0033662
0.00336306
0.00335666
0.00333794
0.00335624
0.00333831
0.00335643
0.00335372
0.00333825
0.00334134
0.00335645
0.00335372
0.00333825
0.00335666
0.00333794
0.00335623
0.00333831
0.00335643
0.00335372
0.00334134
0.00333825
0.00335372
0.00335644
0.00333825
0.00336317
0.00338131
0.00338181
0.00336273
0.00336306
0.00337876
0.00338155
0.00336619
0.00338152
0.0033662
0.00336306
0.00336317
0.00338131
0.00338181
0.00336273
0.00335643
0.00335372
0.00333825
0.00334134
0.00335645
0.00335372
0.00333825
0.00335666
0.00333794
0.00335624
0.00333831
0.00335643
0.00335372
0.00334134
0.00333825
0.00335372
0.00335645
0.00333825
0.00335666
0.00333794
0.00335623
0.00333831
0.00338153
0.00338153
0.00336362
0.00336294
0.00336294
0.00338119
0.00336261
0.00333782
0.00335613
0.00335594
0.00333813
0.00333813
0.00335644
0.00335644
0.00333782
0.00335613
0.00336306
0.00337876
0.00338155
0.00336619
0.00338151
0.0033662
0.00336306
0.00336317
0.00338131
0.00338181
0.00336273
0.00336317
0.00338131
0.00338181
0.00336273
0.00335642
0.00335372
0.00334134
0.00333825
0.00335372
0.00335644
0.00333825
0.00335642
0.00335372
0.00334134
0.00333825
0.00335372
0.00335644
0.00333825
0.00335666
0.00333794
0.00335623
0.00333831
0.00335666
0.00333794
0.00335623
0.00333831
0.00338119
0.00336261
0.00338119
0.00336261
0.00335594
0.00333813
0.00333813
0.00335644
0.00335644
0.00333782
0.00335613
0.00333782
0.00335613
0.00333144
0.00331341
0.00333144
0.00331341
0.00333173
0.00333173
0.00331439
0.0033137
0.0033137
0.00328934
0.00330712
0.00328934
0.00330712
0.00330693
0.00328962
0.00328962
0.00330738
0.00330738
0.00331383
0.00333154
0.00333189
0.00331351
0.00331381
0.00333172
0.00332905
0.00331686
0.00333171
0.00331381
0.00331685
0.00331381
0.00333172
0.00332905
0.00331686
0.00333171
0.00331381
0.00331685
0.0033075
0.00328945
0.0033072
0.00328971
0.0033075
0.00328945
0.0033072
0.00328971
0.00330735
0.00330475
0.00328973
0.00329272
0.00330737
0.00330474
0.00328973
0.00330735
0.00330475
0.00328973
0.00329272
0.00330736