/*--------------------------------*- C++ -*----------------------------------*\
| =========                 |                                                 |
| \\      /  F ield         | OpenFOAM: The Open Source CFD Toolbox           |
|  \\    /   O peration     | Version:  v1906                                 |
|   \\  /    A nd           | Web:      www.OpenFOAM.com                      |
|    \\/     M anipulation  |                                                 |
\*---------------------------------------------------------------------------*/
FoamFile
{
    version     2.0;
    format      ascii;
    class       volScalarField;
    location    "150";
    object      epsilon;
}
// * * * * * * * * * * * * * * * * * * * * * * * * * * * * * * * * * * * * * //

dimensions      [0 2 -3 0 0 0 0];


internalField   nonuniform List<scalar> 
43024
(
1.48342e-07
4.4706e-07
4.44106e-07
7.13096e-07
1.48344e-07
4.46898e-07
4.44102e-07
7.14756e-07
1.48332e-07
4.46905e-07
4.44117e-07
7.15864e-07
1.48359e-07
4.46813e-07
4.44168e-07
7.15773e-07
1.48379e-07
4.46668e-07
4.44208e-07
7.15492e-07
1.48396e-07
4.4654e-07
4.44204e-07
7.15091e-07
1.48407e-07
4.464e-07
4.44199e-07
7.14886e-07
1.48454e-07
4.46272e-07
4.44304e-07
7.14161e-07
1.48498e-07
4.45983e-07
4.44422e-07
7.13624e-07
1.48564e-07
4.45605e-07
4.44442e-07
7.13173e-07
1.48585e-07
4.4522e-07
4.44408e-07
7.12513e-07
1.48645e-07
4.44905e-07
4.44374e-07
7.12219e-07
1.48675e-07
4.44491e-07
4.44508e-07
7.11931e-07
1.48717e-07
4.44079e-07
4.44722e-07
7.11559e-07
1.48728e-07
4.43757e-07
4.44922e-07
7.11595e-07
1.48738e-07
4.43676e-07
4.44979e-07
7.1152e-07
1.48737e-07
4.43758e-07
4.44979e-07
7.11682e-07
1.48735e-07
4.44003e-07
4.44965e-07
7.108e-07
1.48737e-07
4.44309e-07
4.44851e-07
7.10636e-07
1.48548e-07
4.44358e-07
4.44596e-07
7.05034e-07
1.40957e-07
4.07287e-07
4.07164e-07
6.59119e-07
7.11362e-07
4.44327e-07
4.44892e-07
7.13437e-07
4.44581e-07
4.4485e-07
4.47089e-07
4.4462e-07
7.10883e-07
4.44121e-07
4.44827e-07
7.1073e-07
7.13683e-07
7.12205e-07
4.44287e-07
4.44818e-07
4.44367e-07
4.44699e-07
7.15731e-07
7.14451e-07
4.44517e-07
4.44818e-07
4.44545e-07
4.44884e-07
4.44557e-07
4.46899e-07
4.44616e-07
7.13125e-07
7.12339e-07
4.44752e-07
4.44092e-07
4.44798e-07
7.12494e-07
7.14866e-07
7.12797e-07
4.4431e-07
4.44512e-07
4.44401e-07
4.44321e-07
7.16959e-07
7.15029e-07
4.44392e-07
4.44753e-07
4.44362e-07
4.44815e-07
4.44617e-07
4.4689e-07
4.44723e-07
7.14563e-07
7.1343e-07
4.44782e-07
4.44105e-07
4.44781e-07
7.13691e-07
7.15432e-07
7.13557e-07
4.44393e-07
4.44291e-07
4.44523e-07
4.44168e-07
7.17613e-07
7.15128e-07
4.44343e-07
4.44784e-07
4.44376e-07
4.44851e-07
4.44768e-07
4.46811e-07
4.45e-07
7.15366e-07
7.13607e-07
4.44769e-07
4.44143e-07
4.4478e-07
7.13958e-07
7.15558e-07
7.13728e-07
4.44505e-07
4.43961e-07
4.44627e-07
4.43978e-07
7.17655e-07
7.14844e-07
4.44416e-07
4.44854e-07
4.44487e-07
4.44985e-07
4.44929e-07
4.46674e-07
4.45166e-07
7.16042e-07
7.13958e-07
4.44793e-07
4.44188e-07
4.44811e-07
7.13609e-07
7.15485e-07
7.12985e-07
4.44613e-07
4.43921e-07
4.44655e-07
4.43886e-07
7.16678e-07
7.13899e-07
4.44464e-07
4.44951e-07
4.44507e-07
4.45052e-07
4.45188e-07
4.46547e-07
4.454e-07
7.16518e-07
7.13572e-07
4.44802e-07
4.44206e-07
4.44874e-07
7.13241e-07
7.14768e-07
7.12047e-07
4.44659e-07
4.43856e-07
4.44671e-07
4.43802e-07
7.16334e-07
7.13676e-07
4.44478e-07
4.45059e-07
4.44511e-07
4.45107e-07
4.45373e-07
4.46412e-07
4.45505e-07
7.15773e-07
7.12966e-07
4.44858e-07
4.44168e-07
4.44903e-07
7.13015e-07
7.14476e-07
7.11452e-07
4.44615e-07
4.43811e-07
4.4466e-07
4.43807e-07
7.16221e-07
7.1371e-07
4.4451e-07
4.45141e-07
4.44475e-07
4.4523e-07
4.45521e-07
4.4633e-07
4.45513e-07
7.14721e-07
7.12335e-07
4.44848e-07
4.44229e-07
4.44853e-07
7.12362e-07
7.13971e-07
7.11947e-07
4.44673e-07
4.43803e-07
4.44744e-07
4.43904e-07
7.16178e-07
7.12824e-07
4.445e-07
4.45234e-07
4.4462e-07
4.45299e-07
4.45457e-07
4.46044e-07
4.45329e-07
7.14731e-07
7.11972e-07
4.4485e-07
4.44367e-07
4.44821e-07
7.11807e-07
7.13764e-07
7.1146e-07
4.44777e-07
4.43898e-07
4.44789e-07
4.43984e-07
7.14601e-07
7.11884e-07
4.44557e-07
4.45283e-07
4.44645e-07
4.45259e-07
4.4525e-07
4.45678e-07
4.45117e-07
7.14491e-07
7.11595e-07
4.44813e-07
4.44424e-07
4.44624e-07
7.10853e-07
7.13249e-07
7.10725e-07
4.44802e-07
4.44093e-07
4.44773e-07
4.44255e-07
7.1364e-07
7.10777e-07
4.44601e-07
4.45261e-07
4.44632e-07
4.45218e-07
4.44983e-07
4.45255e-07
4.44944e-07
7.14059e-07
7.11386e-07
4.44572e-07
4.44407e-07
4.4438e-07
7.10162e-07
7.12693e-07
7.10908e-07
4.44779e-07
4.44282e-07
4.44759e-07
4.44348e-07
7.13093e-07
7.10145e-07
4.44666e-07
4.45206e-07
4.44688e-07
4.45082e-07
4.44767e-07
4.4494e-07
4.44744e-07
7.1324e-07
7.10971e-07
4.44345e-07
4.44345e-07
4.44144e-07
7.0983e-07
7.12752e-07
7.10999e-07
4.44771e-07
4.44353e-07
4.44748e-07
4.44337e-07
7.12584e-07
7.08904e-07
4.44719e-07
4.45085e-07
4.44743e-07
4.45037e-07
4.44767e-07
4.44545e-07
4.44736e-07
7.12801e-07
7.11294e-07
4.44113e-07
4.44414e-07
4.44054e-07
7.09532e-07
7.12863e-07
7.11067e-07
4.44768e-07
4.44361e-07
4.44742e-07
4.44277e-07
7.11289e-07
7.08327e-07
4.44779e-07
4.45058e-07
4.4481e-07
4.45016e-07
4.44762e-07
4.44106e-07
4.44716e-07
7.13243e-07
7.12104e-07
4.44091e-07
4.4461e-07
4.44099e-07
7.09177e-07
7.1297e-07
7.11007e-07
4.4477e-07
4.44288e-07
4.44733e-07
4.44186e-07
7.10133e-07
7.0739e-07
4.44864e-07
4.45048e-07
4.44923e-07
4.45038e-07
4.44742e-07
4.43759e-07
4.44711e-07
7.14075e-07
7.12864e-07
4.4415e-07
4.44833e-07
4.44184e-07
7.09172e-07
7.13593e-07
7.11548e-07
4.44772e-07
4.44206e-07
4.44726e-07
4.44095e-07
7.09707e-07
7.06867e-07
4.44999e-07
4.45091e-07
4.45054e-07
4.45071e-07
4.44752e-07
4.43619e-07
4.44717e-07
7.14815e-07
7.12796e-07
4.44249e-07
4.44915e-07
4.44291e-07
7.09475e-07
7.14192e-07
7.12175e-07
4.44785e-07
4.44127e-07
4.4476e-07
4.44005e-07
7.09192e-07
7.07084e-07
4.45135e-07
4.45131e-07
4.4513e-07
4.45075e-07
4.44778e-07
4.43645e-07
4.44779e-07
7.14641e-07
7.12749e-07
4.44377e-07
4.44901e-07
4.44449e-07
7.09836e-07
7.13923e-07
7.11354e-07
4.44839e-07
4.4406e-07
4.44798e-07
4.43988e-07
7.08959e-07
7.07654e-07
4.45208e-07
4.45132e-07
4.45154e-07
4.44973e-07
4.4487e-07
4.43834e-07
4.44825e-07
7.14582e-07
7.12065e-07
4.44566e-07
4.44878e-07
4.44618e-07
7.09039e-07
7.13198e-07
7.11394e-07
4.44899e-07
4.44086e-07
4.44825e-07
4.44025e-07
7.09553e-07
7.06073e-07
4.45252e-07
4.45019e-07
4.45198e-07
4.44766e-07
4.44906e-07
4.44119e-07
4.44748e-07
7.13745e-07
7.08243e-07
4.44732e-07
4.4477e-07
4.44675e-07
7.08623e-07
7.13148e-07
7.07152e-07
4.44932e-07
4.44144e-07
4.44453e-07
4.43763e-07
7.0855e-07
7.06707e-07
4.45312e-07
4.44815e-07
4.44872e-07
4.44227e-07
4.44822e-07
4.4402e-07
4.44291e-07
7.10534e-07
7.08799e-07
4.44783e-07
4.44298e-07
4.44329e-07
7.04983e-07
7.0671e-07
6.8233e-07
4.44751e-07
4.44088e-07
4.3066e-07
4.30064e-07
7.06383e-07
6.80316e-07
4.4518e-07
4.4453e-07
4.31153e-07
4.30284e-07
4.44604e-07
4.30204e-07
4.30574e-07
7.08599e-07
6.81837e-07
4.44642e-07
4.30121e-07
4.30649e-07
6.80673e-07
6.60197e-07
4.07049e-07
4.06481e-07
6.58108e-07
4.07507e-07
4.06613e-07
1.40873e-07
1.40858e-07
1.40919e-07
4.06938e-07
6.59744e-07
4.07014e-07
3.95737e-06
8.90694e-06
1.81108e-05
3.96025e-06
8.91059e-06
1.4835e-07
1.48805e-07
1.48448e-07
1.48568e-07
1.74285e-06
4.47087e-07
3.21826e-06
2.4661e-07
1.81227e-05
1.74726e-06
4.44321e-07
2.46356e-07
3.21459e-06
7.12489e-07
5.28822e-06
5.28902e-06
3.95754e-06
8.90724e-06
3.95811e-06
8.90763e-06
1.81067e-05
1.81087e-05
3.96038e-06
8.90997e-06
3.96098e-06
8.91017e-06
1.48807e-07
1.48472e-07
1.4857e-07
1.48343e-07
1.48794e-07
1.48492e-07
1.48596e-07
1.74298e-06
3.21869e-06
2.46637e-07
4.46951e-07
1.74296e-06
3.2181e-06
2.46632e-07
1.81198e-05
1.81224e-05
1.74598e-06
2.46298e-07
3.21581e-06
4.44095e-07
1.7463e-06
2.46252e-07
3.21523e-06
5.28929e-06
5.28979e-06
7.11501e-07
5.28893e-06
5.289e-06
3.95802e-06
8.90747e-06
3.9583e-06
8.90783e-06
1.81044e-05
1.81071e-05
3.96035e-06
8.90918e-06
3.96087e-06
8.90928e-06
1.48744e-07
1.4845e-07
1.48577e-07
1.4833e-07
1.48723e-07
1.48467e-07
1.48607e-07
1.74517e-06
3.21867e-06
2.46702e-07
4.4687e-07
1.74516e-06
3.21719e-06
2.46672e-07
1.81184e-05
1.81219e-05
1.74573e-06
2.46261e-07
3.21436e-06
4.44098e-07
1.74643e-06
2.46239e-07
3.21309e-06
5.29011e-06
5.28946e-06
7.13109e-07
5.28956e-06
5.28874e-06
3.95822e-06
8.90753e-06
3.95843e-06
8.9079e-06
1.81035e-05
1.81066e-05
3.96145e-06
8.90893e-06
3.96143e-06
8.90945e-06
1.48705e-07
1.4847e-07
1.48595e-07
1.4834e-07
1.48685e-07
1.48467e-07
1.48644e-07
1.74465e-06
3.2177e-06
2.4681e-07
4.46773e-07
1.74567e-06
3.21741e-06
2.46722e-07
1.81198e-05
1.81236e-05
1.74201e-06
2.46241e-07
3.21359e-06
4.44121e-07
1.7453e-06
2.46224e-07
3.2128e-06
5.29064e-06
5.28999e-06
7.14081e-07
5.29019e-06
5.28942e-06
3.95815e-06
8.90782e-06
3.95917e-06
8.90809e-06
1.81048e-05
1.81083e-05
3.96197e-06
8.90931e-06
3.96235e-06
8.90971e-06
1.48663e-07
1.48461e-07
1.48623e-07
1.48373e-07
1.48653e-07
1.48468e-07
1.48678e-07
1.74374e-06
3.21872e-06
2.46883e-07
4.46701e-07
1.74599e-06
3.21825e-06
2.46804e-07
1.81214e-05
1.81245e-05
1.74461e-06
2.4623e-07
3.21396e-06
4.44167e-07
1.74485e-06
2.4619e-07
3.21387e-06
5.29072e-06
5.28942e-06
7.13607e-07
5.29002e-06
5.2884e-06
3.95785e-06
8.90731e-06
3.95805e-06
8.90749e-06
1.81054e-05
1.81083e-05
3.96258e-06
8.90999e-06
3.96282e-06
8.9106e-06
1.48647e-07
1.4847e-07
1.48675e-07
1.48382e-07
1.48654e-07
1.48474e-07
1.4874e-07
1.74549e-06
3.21927e-06
2.47036e-07
4.46559e-07
1.74558e-06
3.21835e-06
2.47015e-07
1.81216e-05
1.81254e-05
1.74512e-06
2.46167e-07
3.21503e-06
4.442e-07
1.74544e-06
2.46111e-07
3.21465e-06
5.29072e-06
5.28886e-06
7.13351e-07
5.28886e-06
5.28775e-06
3.95794e-06
8.90731e-06
3.95873e-06
8.90772e-06
1.81052e-05
1.81086e-05
3.9615e-06
8.91065e-06
3.96273e-06
8.91066e-06
1.48638e-07
1.48472e-07
1.48735e-07
1.484e-07
1.48652e-07
1.48484e-07
1.48791e-07
1.74564e-06
3.21835e-06
2.47152e-07
4.46441e-07
1.74597e-06
3.21694e-06
2.47184e-07
1.81234e-05
1.81275e-05
1.74264e-06
2.46104e-07
3.21576e-06
4.44157e-07
1.74251e-06
2.46078e-07
3.21541e-06
5.28791e-06
5.2878e-06
7.12984e-07
5.28668e-06
5.28698e-06
3.95636e-06
8.90773e-06
3.95733e-06
8.90837e-06
1.81067e-05
1.81105e-05
3.9609e-06
8.90959e-06
3.96161e-06
8.90952e-06
1.48641e-07
1.48486e-07
1.48797e-07
1.48433e-07
1.48668e-07
1.48538e-07
1.48837e-07
1.74613e-06
3.21607e-06
2.47286e-07
4.46319e-07
1.74645e-06
3.2132e-06
2.47294e-07
1.81253e-05
1.8128e-05
1.73984e-06
2.46077e-07
3.21661e-06
4.44161e-07
1.74184e-06
2.46021e-07
3.2162e-06
5.28639e-06
5.28797e-06
7.1269e-07
5.28477e-06
5.28682e-06
3.95601e-06
8.90893e-06
3.95669e-06
8.90968e-06
1.81091e-05
1.81133e-05
3.95998e-06
8.90911e-06
3.96072e-06
8.90977e-06
1.48664e-07
1.48517e-07
1.48835e-07
1.48461e-07
1.48695e-07
1.48583e-07
1.48857e-07
1.74515e-06
3.21096e-06
2.47389e-07
4.46106e-07
1.74612e-06
3.20905e-06
2.47379e-07
1.81244e-05
1.81274e-05
1.74008e-06
2.46031e-07
3.21746e-06
4.4429e-07
1.73961e-06
2.46013e-07
3.2168e-06
5.2847e-06
5.28781e-06
7.11999e-07
5.28355e-06
5.28695e-06
3.95538e-06
8.90981e-06
3.95614e-06
8.91024e-06
1.8111e-05
1.8115e-05
3.95985e-06
8.91031e-06
3.96035e-06
8.91091e-06
1.4869e-07
1.48584e-07
1.4885e-07
1.48543e-07
1.48731e-07
1.48632e-07
1.48848e-07
1.74514e-06
3.20764e-06
2.47427e-07
4.45771e-07
1.74558e-06
3.2047e-06
2.47417e-07
1.81232e-05
1.81261e-05
1.73762e-06
2.46003e-07
3.2177e-06
4.44409e-07
1.73698e-06
2.45901e-07
3.21668e-06
5.28392e-06
5.28737e-06
7.11392e-07
5.28296e-06
5.28672e-06
3.95616e-06
8.91002e-06
3.95643e-06
8.91046e-06
1.81131e-05
1.81165e-05
3.95877e-06
8.91071e-06
3.95956e-06
8.91107e-06
1.48721e-07
1.48627e-07
1.48845e-07
1.48564e-07
1.4877e-07
1.48661e-07
1.48843e-07
1.74391e-06
3.2048e-06
2.47421e-07
4.45346e-07
1.74536e-06
3.20391e-06
2.47395e-07
1.81228e-05
1.81263e-05
1.73845e-06
2.45855e-07
3.21532e-06
4.44431e-07
1.73868e-06
2.45721e-07
3.21301e-06
5.2845e-06
5.28755e-06
7.10423e-07
5.284e-06
5.28669e-06
3.95633e-06
8.91037e-06
3.95678e-06
8.91048e-06
1.81142e-05
1.8118e-05
3.95747e-06
8.91079e-06
3.95853e-06
8.91118e-06
1.48759e-07
1.48658e-07
1.4881e-07
1.48632e-07
1.48799e-07
1.48684e-07
1.48819e-07
1.73595e-06
3.20479e-06
2.47369e-07
4.45028e-07
1.73747e-06
3.20442e-06
2.47273e-07
1.81233e-05
1.81269e-05
1.73601e-06
2.45687e-07
3.21103e-06
4.44366e-07
1.73897e-06
2.45579e-07
3.20953e-06
5.28546e-06
5.28752e-06
7.09902e-07
5.28449e-06
5.28674e-06
3.95685e-06
8.90899e-06
3.95705e-06
8.90811e-06
1.81152e-05
1.81188e-05
3.9557e-06
8.911e-06
3.95652e-06
8.91162e-06
1.48796e-07
1.48679e-07
1.48813e-07
1.48657e-07
1.48795e-07
1.48725e-07
1.48825e-07
1.73697e-06
3.2056e-06
2.47203e-07
4.44689e-07
1.73691e-06
3.20464e-06
2.47046e-07
1.81235e-05
1.81268e-05
1.73859e-06
2.45553e-07
3.20987e-06
4.44359e-07
1.7386e-06
2.45542e-07
3.209e-06
5.28565e-06
5.28837e-06
7.09613e-07
5.28457e-06
5.28749e-06
3.95648e-06
8.90617e-06
3.95741e-06
8.90613e-06
1.81151e-05
1.81194e-05
3.95534e-06
8.91169e-06
3.95603e-06
8.91223e-06
1.48793e-07
1.48726e-07
1.48811e-07
1.48703e-07
1.48782e-07
1.48778e-07
1.48818e-07
1.73952e-06
3.20543e-06
2.46925e-07
4.44236e-07
1.73956e-06
3.20502e-06
2.4674e-07
1.81209e-05
1.81244e-05
1.73957e-06
2.45647e-07
3.20834e-06
4.44511e-07
1.73973e-06
2.45666e-07
3.20669e-06
5.28556e-06
5.28836e-06
7.09322e-07
5.28459e-06
5.28731e-06
3.9572e-06
8.90539e-06
3.95741e-06
8.9061e-06
1.8116e-05
1.81219e-05
3.95597e-06
8.91198e-06
3.95599e-06
8.91273e-06
1.48739e-07
1.48775e-07
1.48817e-07
1.48729e-07
1.48704e-07
1.48831e-07
1.48818e-07
1.74043e-06
3.20677e-06
2.46644e-07
4.4389e-07
1.74074e-06
3.20605e-06
2.46452e-07
1.81203e-05
1.81248e-05
1.74122e-06
2.45934e-07
3.20768e-06
4.44731e-07
1.74132e-06
2.45857e-07
3.20702e-06
5.28639e-06
5.28899e-06
7.09021e-07
5.2862e-06
5.28759e-06
3.95756e-06
8.90631e-06
3.9581e-06
8.90764e-06
1.81176e-05
1.81233e-05
3.9572e-06
8.91265e-06
3.95728e-06
8.91374e-06
1.48689e-07
1.48824e-07
1.48811e-07
1.48743e-07
1.48673e-07
1.48848e-07
1.48814e-07
1.74186e-06
3.20805e-06
2.46417e-07
4.43668e-07
1.74192e-06
3.20747e-06
2.46333e-07
1.81188e-05
1.81246e-05
1.7425e-06
2.46227e-07
3.20902e-06
4.44899e-07
1.74278e-06
2.4618e-07
3.20835e-06
5.28887e-06
5.28922e-06
7.09155e-07
5.2874e-06
5.28772e-06
3.95819e-06
8.90788e-06
3.95864e-06
8.90969e-06
1.81177e-05
1.81262e-05
3.95746e-06
8.91355e-06
3.95796e-06
8.91502e-06
1.48629e-07
1.48846e-07
1.48803e-07
1.48747e-07
1.48617e-07
1.48859e-07
1.48801e-07
1.74367e-06
3.20958e-06
2.4638e-07
4.43612e-07
1.74354e-06
3.20798e-06
2.46389e-07
1.81188e-05
1.81268e-05
1.74303e-06
2.46311e-07
3.20912e-06
4.44907e-07
1.7433e-06
2.46302e-07
3.20734e-06
5.29011e-06
5.29117e-06
7.09738e-07
5.28838e-06
5.28991e-06
3.95924e-06
8.9097e-06
3.95942e-06
8.9122e-06
1.81207e-05
1.81328e-05
3.95704e-06
8.91442e-06
3.95768e-06
8.91663e-06
1.48604e-07
1.48846e-07
1.48785e-07
1.48749e-07
1.48603e-07
1.48842e-07
1.48783e-07
1.74559e-06
3.21186e-06
2.46522e-07
4.43716e-07
1.7455e-06
3.21067e-06
2.46521e-07
1.81193e-05
1.81303e-05
1.74393e-06
2.46332e-07
3.21136e-06
4.4489e-07
1.74401e-06
2.46313e-07
3.21052e-06
5.29269e-06
5.29449e-06
7.09511e-07
5.29021e-06
5.29207e-06
3.96094e-06
8.91118e-06
3.96125e-06
8.91475e-06
1.81247e-05
1.814e-05
3.95847e-06
8.91544e-06
3.95884e-06
8.91925e-06
1.48584e-07
1.48816e-07
1.4876e-07
1.48757e-07
1.48599e-07
1.48798e-07
1.4876e-07
1.74605e-06
3.21514e-06
2.46681e-07
4.43974e-07
1.74661e-06
3.21284e-06
2.46691e-07
1.81209e-05
1.81361e-05
1.74595e-06
2.46304e-07
3.21522e-06
4.44838e-07
1.74612e-06
2.46257e-07
3.21252e-06
5.29536e-06
5.2972e-06
7.08653e-07
5.29138e-06
5.29317e-06
3.9627e-06
8.91142e-06
3.96301e-06
8.91725e-06
1.81272e-05
1.81464e-05
3.96099e-06
8.91664e-06
3.96084e-06
8.92294e-06
1.48575e-07
1.48756e-07
1.48728e-07
1.48761e-07
1.4859e-07
1.48725e-07
1.48726e-07
1.74835e-06
3.22052e-06
2.46821e-07
4.44217e-07
1.74891e-06
3.21647e-06
2.46818e-07
1.81237e-05
1.81434e-05
1.74911e-06
2.46246e-07
3.21912e-06
4.44663e-07
1.74893e-06
2.46157e-07
3.21463e-06
5.29749e-06
5.29942e-06
7.06393e-07
5.29295e-06
5.295e-06
3.96023e-06
8.90934e-06
3.9644e-06
8.9168e-06
1.81275e-05
1.81456e-05
3.95813e-06
8.91562e-06
3.96375e-06
8.9231e-06
1.48373e-07
1.48481e-07
1.48501e-07
1.46427e-07
1.46285e-07
1.46318e-07
1.46379e-07
1.74624e-06
3.22755e-06
2.46416e-07
4.41836e-07
1.75174e-06
3.2153e-06
2.46881e-07
1.81255e-05
1.8144e-05
1.74543e-06
2.45493e-07
3.22544e-06
4.4193e-07
1.75183e-06
2.45886e-07
3.21322e-06
5.30253e-06
5.30453e-06
6.99737e-07
5.29988e-06
5.30167e-06
3.14277e-06
8.13188e-06
3.90076e-06
5.25489e-06
1.59993e-05
8.03745e-06
3.14069e-06
8.13749e-06
3.89898e-06
5.25826e-06
6.6761e-08
9.08308e-08
9.08156e-08
1.53236e-07
6.70827e-08
9.41413e-08
9.41174e-08
1.61294e-06
3.09916e-06
2.33617e-07
3.74329e-07
1.70821e-06
3.15556e-06
2.11665e-07
1.59971e-05
8.03652e-06
1.61049e-06
2.32529e-07
3.10225e-06
3.74219e-07
1.70615e-06
2.10694e-07
3.15427e-06
5.20573e-06
5.20769e-06
6.03769e-07
4.81237e-06
4.81317e-06
1.81184e-05
1.81194e-05
7.12994e-07
5.28983e-06
5.29173e-06
1.81186e-05
1.81155e-05
1.81199e-05
1.81165e-05
7.14206e-07
5.28937e-06
5.29196e-06
5.29043e-06
5.29239e-06
3.95737e-06
8.90028e-06
1.73453e-06
4.44261e-07
3.21747e-06
2.44899e-07
1.73495e-06
4.45074e-07
3.20837e-06
2.45742e-07
3.95781e-06
8.90745e-06
8.90676e-06
3.95754e-06
3.95757e-06
8.89931e-06
8.89976e-06
3.95689e-06
1.73664e-06
4.44283e-07
3.21749e-06
2.44883e-07
3.21788e-06
2.44886e-07
1.73439e-06
1.73445e-06
4.45024e-07
3.20775e-06
2.45619e-07
3.20875e-06
2.45707e-07
1.73352e-06
7.16058e-07
5.28882e-06
5.29316e-06
1.81418e-05
1.811e-05
1.81077e-05
7.16126e-07
5.2887e-06
5.29278e-06
5.28961e-06
5.29379e-06
1.81414e-05
1.81385e-05
1.7406e-06
4.44579e-07
3.21892e-06
2.45915e-07
3.959e-06
8.90923e-06
1.73649e-06
4.44987e-07
2.4565e-07
3.2181e-06
3.9606e-06
8.9103e-06
8.91021e-06
3.96043e-06
1.73864e-06
4.44623e-07
3.21866e-06
2.4566e-07
3.21941e-06
2.4581e-07
1.73901e-06
3.95946e-06
8.9091e-06
8.90888e-06
3.9592e-06
1.73564e-06
4.4489e-07
2.45388e-07
3.21792e-06
2.45544e-07
3.21857e-06
1.73447e-06
3.9616e-06
8.91666e-06
1.74034e-06
4.44578e-07
2.45218e-07
3.20984e-06
3.96188e-06
8.90305e-06
1.7433e-06
4.47119e-07
3.21791e-06
2.46633e-07
3.21864e-06
2.46631e-07
1.74227e-06
3.96199e-06
8.9169e-06
8.91639e-06
3.9617e-06
1.74069e-06
4.44613e-07
2.45274e-07
3.21005e-06
2.45254e-07
3.21038e-06
1.73912e-06
3.96229e-06
8.9035e-06
8.90285e-06
3.96179e-06
7.13318e-07
5.29044e-06
5.28818e-06
1.81136e-05
1.8123e-05
1.81196e-05
7.13439e-07
5.29056e-06
5.28875e-06
5.29118e-06
5.28901e-06
1.81137e-05
1.81107e-05
1.74463e-06
4.44726e-07
2.46635e-07
3.2097e-06
3.96424e-06
8.90519e-06
3.96322e-06
8.90617e-06
1.74574e-06
4.44201e-07
2.46318e-07
3.21486e-06
2.46359e-07
3.21512e-06
1.74579e-06
1.74637e-06
4.44835e-07
2.46628e-07
3.20898e-06
2.46645e-07
3.21002e-06
1.74487e-06
3.96452e-06
8.90521e-06
8.90488e-06
3.96373e-06
3.96362e-06
8.9054e-06
8.90573e-06
3.96301e-06
1.81195e-05
1.81213e-05
7.13066e-07
5.28835e-06
5.28912e-06
5.28884e-06
5.28967e-06
1.81206e-05
1.81168e-05
1.81219e-05
1.81186e-05
1.81157e-05
1.81189e-05
1.81171e-05
1.81203e-05
5.29006e-06
5.29283e-06
7.1166e-07
5.28952e-06
5.29224e-06
1.8119e-05
1.8116e-05
1.81203e-05
1.81172e-05
7.14183e-07
5.28987e-06
5.29214e-06
5.29034e-06
5.29289e-06
3.95663e-06
8.89876e-06
3.95728e-06
8.89847e-06
1.73412e-06
3.21815e-06
2.4486e-07
4.44273e-07
1.7352e-06
3.21755e-06
2.4485e-07
1.73221e-06
3.20824e-06
2.45575e-07
4.44653e-07
1.73305e-06
3.20773e-06
2.45443e-07
3.95813e-06
8.90772e-06
8.90732e-06
3.95776e-06
3.95714e-06
8.89753e-06
8.89793e-06
3.95661e-06
1.73544e-06
4.44381e-07
3.21772e-06
2.4489e-07
3.21818e-06
2.44858e-07
1.73474e-06
1.73335e-06
4.44697e-07
3.2075e-06
2.45443e-07
3.20833e-06
2.45454e-07
1.73378e-06
5.28941e-06
5.29352e-06
7.1378e-07
5.28855e-06
5.29261e-06
1.81383e-05
1.81414e-05
1.81076e-05
1.81053e-05
7.16303e-07
5.28854e-06
5.29278e-06
5.28919e-06
5.29345e-06
1.81419e-05
1.81384e-05
1.73697e-06
3.21928e-06
2.45629e-07
4.44429e-07
1.73764e-06
3.21867e-06
2.45414e-07
3.9597e-06
8.90874e-06
3.95965e-06
8.90861e-06
1.73295e-06
2.45378e-07
3.21855e-06
4.44806e-07
1.73465e-06
2.45115e-07
3.21695e-06
3.96085e-06
8.90962e-06
8.9098e-06
3.96047e-06
1.73787e-06
4.44516e-07
3.21769e-06
2.45454e-07
3.21931e-06
2.4554e-07
1.73888e-06
3.9603e-06
8.90797e-06
8.90811e-06
3.9603e-06
1.7336e-06
4.44915e-07
2.45128e-07
3.21583e-06
2.45249e-07
3.21729e-06
1.73567e-06
3.96209e-06
8.91671e-06
3.96222e-06
8.91719e-06
1.73924e-06
2.45292e-07
3.21074e-06
4.44558e-07
1.73858e-06
2.45295e-07
3.2107e-06
3.96191e-06
8.90335e-06
3.96221e-06
8.90418e-06
1.74406e-06
4.46911e-07
3.21832e-06
2.46671e-07
3.21896e-06
2.46637e-07
1.74447e-06
3.9627e-06
8.91737e-06
8.91698e-06
3.96259e-06
1.73995e-06
4.44568e-07
2.4544e-07
3.21143e-06
2.45377e-07
3.2116e-06
1.74021e-06
3.96255e-06
8.90483e-06
8.90406e-06
3.96216e-06
5.29142e-06
5.28961e-06
7.11511e-07
5.29008e-06
5.28913e-06
1.81107e-05
1.81134e-05
1.81216e-05
1.8119e-05
7.13888e-07
5.28937e-06
5.28901e-06
5.29072e-06
5.28987e-06
1.81126e-05
1.81102e-05
1.74271e-06
2.46623e-07
3.20941e-06
4.44758e-07
1.74214e-06
2.46589e-07
3.20816e-06
3.96365e-06
8.90496e-06
3.96428e-06
8.90516e-06
3.9623e-06
8.90463e-06
3.96334e-06
8.90407e-06
1.74645e-06
4.4409e-07
2.46256e-07
3.21405e-06
2.46247e-07
3.21553e-06
1.74606e-06
1.74332e-06
4.44791e-07
2.46607e-07
3.20702e-06
2.46645e-07
3.20865e-06
1.74351e-06
3.96413e-06
8.90436e-06
8.90464e-06
3.96332e-06
3.96263e-06
8.90279e-06
8.90341e-06
3.96168e-06
1.81179e-05
1.81219e-05
1.81188e-05
1.81213e-05
7.14007e-07
5.28933e-06
5.28879e-06
5.28984e-06
5.28968e-06
1.81231e-05
1.81192e-05
1.81204e-05
1.81181e-05
1.81158e-05
1.81184e-05
1.81174e-05
1.81207e-05
5.29042e-06
5.29299e-06
7.1261e-07
5.28932e-06
5.29233e-06
1.81186e-05
1.81154e-05
1.81209e-05
1.81178e-05
7.15141e-07
5.28954e-06
5.29234e-06
5.29007e-06
5.29318e-06
3.95684e-06
8.89702e-06
3.95714e-06
8.89683e-06
1.73671e-06
3.21842e-06
2.44887e-07
4.44331e-07
1.73625e-06
3.21787e-06
2.44895e-07
1.73486e-06
3.20818e-06
2.45323e-07
4.44358e-07
1.73457e-06
3.2076e-06
2.45202e-07
3.95852e-06
8.90783e-06
8.90751e-06
3.95793e-06
3.95748e-06
8.89628e-06
8.89632e-06
3.95751e-06
1.73771e-06
4.44372e-07
3.21786e-06
2.44944e-07
3.21846e-06
2.44917e-07
1.73787e-06
1.73585e-06
4.44334e-07
3.20709e-06
2.45149e-07
3.20805e-06
2.45173e-07
1.73578e-06
5.28939e-06
5.2938e-06
7.1488e-07
5.28896e-06
5.29244e-06
1.81389e-05
1.81416e-05
1.81066e-05
1.8104e-05
7.17409e-07
5.28885e-06
5.29209e-06
5.28979e-06
5.29307e-06
1.81409e-05
1.81382e-05
1.73952e-06
3.21814e-06
2.45279e-07
4.44359e-07
1.73949e-06
3.21726e-06
2.45184e-07
3.96104e-06
8.90756e-06
3.96094e-06
8.90768e-06
1.73728e-06
2.44956e-07
3.21642e-06
4.44775e-07
1.73666e-06
2.44788e-07
3.21554e-06
3.96087e-06
8.90923e-06
8.90897e-06
3.96085e-06
1.74022e-06
4.44367e-07
3.21711e-06
2.45167e-07
3.21796e-06
2.45191e-07
1.74046e-06
3.96165e-06
8.90749e-06
8.90732e-06
3.96154e-06
1.73831e-06
4.44795e-07
2.44794e-07
3.21534e-06
2.44829e-07
3.2162e-06
1.73822e-06
3.96237e-06
8.91695e-06
3.96306e-06
8.91697e-06
1.74005e-06
2.45433e-07
3.2122e-06
4.44635e-07
1.73969e-06
2.45441e-07
3.21186e-06
3.96219e-06
8.90467e-06
3.9627e-06
8.90539e-06
1.74583e-06
4.46851e-07
3.21696e-06
2.46765e-07
3.21778e-06
2.46735e-07
1.74528e-06
3.96294e-06
8.91692e-06
8.91664e-06
3.96278e-06
1.74064e-06
4.44677e-07
2.45619e-07
3.21272e-06
2.45591e-07
3.21274e-06
1.74051e-06
3.96261e-06
8.90617e-06
8.9053e-06
3.96215e-06
5.29015e-06
5.28973e-06
7.13016e-07
5.28935e-06
5.28891e-06
1.81095e-05
1.81123e-05
1.81227e-05
1.81189e-05
7.15055e-07
5.28983e-06
5.28891e-06
5.29023e-06
5.28962e-06
1.81123e-05
1.81092e-05
1.74399e-06
2.4654e-07
3.20741e-06
4.44769e-07
1.74423e-06
2.46488e-07
3.20604e-06
3.96315e-06
8.90382e-06
3.96385e-06
8.90365e-06
3.96169e-06
8.9022e-06
3.96224e-06
8.90175e-06
1.74627e-06
4.441e-07
2.46238e-07
3.213e-06
2.46236e-07
3.21374e-06
1.74434e-06
1.74451e-06
4.44776e-07
2.46479e-07
3.20626e-06
2.46484e-07
3.20661e-06
1.74222e-06
3.96364e-06
8.90346e-06
8.90329e-06
3.96299e-06
3.96232e-06
8.90137e-06
8.90127e-06
3.96148e-06
1.81204e-05
1.81244e-05
1.81172e-05
1.81199e-05
7.15334e-07
5.2898e-06
5.28906e-06
5.29032e-06
5.28954e-06
1.81259e-05
1.81218e-05
1.81199e-05
1.81169e-05
1.81157e-05
1.81192e-05
1.81179e-05
1.81212e-05
5.29036e-06
5.29284e-06
7.13035e-07
5.28994e-06
5.29181e-06
1.81201e-05
1.81165e-05
1.81223e-05
1.81185e-05
7.15589e-07
5.29068e-06
5.29184e-06
5.29092e-06
5.29259e-06
3.95776e-06
8.896e-06
3.95802e-06
8.89654e-06
1.73872e-06
3.21854e-06
2.4499e-07
4.44413e-07
1.73875e-06
3.21809e-06
2.44964e-07
1.73611e-06
3.20785e-06
2.45131e-07
4.44061e-07
1.73644e-06
3.20757e-06
2.44962e-07
3.95887e-06
8.90808e-06
8.90766e-06
3.95869e-06
3.95837e-06
8.89662e-06
8.89627e-06
3.95839e-06
1.73932e-06
4.44483e-07
3.21855e-06
2.45173e-07
3.21885e-06
2.45126e-07
1.73943e-06
1.73666e-06
4.44253e-07
3.2073e-06
2.45004e-07
3.20812e-06
2.4508e-07
1.73528e-06
5.2895e-06
5.29295e-06
7.15149e-07
5.2884e-06
5.29185e-06
1.81376e-05
1.81401e-05
1.81075e-05
1.81038e-05
7.17661e-07
5.28844e-06
5.29129e-06
5.2891e-06
5.29259e-06
1.8139e-05
1.81367e-05
1.73728e-06
3.21775e-06
2.45101e-07
4.44346e-07
1.74099e-06
3.21742e-06
2.44919e-07
3.96182e-06
8.90714e-06
3.96222e-06
8.90747e-06
1.73875e-06
2.44676e-07
3.21597e-06
4.44808e-07
1.73882e-06
2.44549e-07
3.21539e-06
3.96199e-06
8.90964e-06
8.90922e-06
3.96193e-06
1.73861e-06
4.44351e-07
3.21797e-06
2.44974e-07
3.21825e-06
2.45031e-07
1.73902e-06
3.96221e-06
8.90761e-06
8.90718e-06
3.96168e-06
1.73938e-06
4.44818e-07
2.44514e-07
3.21561e-06
2.44529e-07
3.21613e-06
1.73904e-06
3.96324e-06
8.91664e-06
3.96345e-06
8.91715e-06
1.74114e-06
2.45585e-07
3.21353e-06
4.44737e-07
1.74107e-06
2.45652e-07
3.21329e-06
3.96264e-06
8.90602e-06
3.96276e-06
8.90671e-06
1.74537e-06
4.46801e-07
3.21794e-06
2.4685e-07
3.21828e-06
2.46829e-07
1.74533e-06
3.96386e-06
8.91741e-06
8.91692e-06
3.9635e-06
1.74201e-06
4.4495e-07
2.45848e-07
3.21385e-06
2.4574e-07
3.21405e-06
1.74192e-06
3.96319e-06
8.90736e-06
8.90656e-06
3.96275e-06
5.2908e-06
5.28973e-06
7.13668e-07
5.29026e-06
5.28909e-06
1.81094e-05
1.81127e-05
1.81245e-05
1.81207e-05
7.1558e-07
5.2908e-06
5.28936e-06
5.29127e-06
5.28989e-06
1.81135e-05
1.81099e-05
1.74287e-06
2.4646e-07
3.20708e-06
4.44769e-07
1.74284e-06
2.46398e-07
3.20679e-06
3.96296e-06
8.90312e-06
3.96361e-06
8.90343e-06
3.96164e-06
8.90105e-06
3.96199e-06
8.90128e-06
1.74393e-06
4.44135e-07
2.46228e-07
3.21306e-06
2.4622e-07
3.2135e-06
1.74442e-06
1.74229e-06
4.44769e-07
2.46379e-07
3.20745e-06
2.46386e-07
3.2076e-06
1.73987e-06
3.96348e-06
8.90377e-06
8.9032e-06
3.96287e-06
3.96235e-06
8.90136e-06
8.90099e-06
3.96185e-06
1.81233e-05
1.81274e-05
1.81169e-05
1.812e-05
7.15992e-07
5.28999e-06
5.28883e-06
5.29095e-06
5.29001e-06
1.81281e-05
1.81247e-05
1.81194e-05
1.81169e-05
1.81172e-05
1.81205e-05
1.81196e-05
1.81235e-05
5.29153e-06
5.29263e-06
7.1376e-07
5.291e-06
5.29211e-06
1.81204e-05
1.81175e-05
1.81245e-05
1.81207e-05
7.15636e-07
5.291e-06
5.29221e-06
5.29176e-06
5.29285e-06
3.95929e-06
8.89629e-06
3.95913e-06
8.89639e-06
1.73879e-06
3.2193e-06
2.45076e-07
4.4453e-07
1.74011e-06
3.21876e-06
2.45143e-07
1.73651e-06
3.20785e-06
2.4491e-07
4.43966e-07
1.73678e-06
3.207e-06
2.44808e-07
3.95851e-06
8.90771e-06
8.9077e-06
3.9576e-06
3.95996e-06
8.89581e-06
8.896e-06
3.95978e-06
1.73753e-06
4.44582e-07
3.21838e-06
2.45275e-07
3.21936e-06
2.45189e-07
1.73694e-06
1.73695e-06
4.43989e-07
3.20645e-06
2.44918e-07
3.20762e-06
2.44957e-07
1.73613e-06
5.28933e-06
5.29195e-06
7.15178e-07
5.28892e-06
5.29089e-06
1.81357e-05
1.81385e-05
1.81084e-05
1.81054e-05
7.17095e-07
5.28899e-06
5.28994e-06
5.28974e-06
5.29168e-06
1.81372e-05
1.81353e-05
1.73856e-06
3.21867e-06
2.44848e-07
4.44416e-07
1.73783e-06
3.2184e-06
2.44811e-07
3.96121e-06
8.90735e-06
3.962e-06
8.90786e-06
1.73667e-06
2.44497e-07
3.21636e-06
4.44863e-07
1.7376e-06
2.44392e-07
3.21598e-06
3.96244e-06
8.91013e-06
8.90951e-06
3.96223e-06
1.73729e-06
4.44465e-07
3.21875e-06
2.44813e-07
3.21924e-06
2.4481e-07
1.73726e-06
3.96162e-06
8.90819e-06
8.90764e-06
3.96143e-06
1.73731e-06
4.44953e-07
2.44388e-07
3.21641e-06
2.44387e-07
3.21683e-06
1.73752e-06
3.9625e-06
8.91713e-06
3.96388e-06
8.91752e-06
1.74154e-06
2.4583e-07
3.21464e-06
4.44977e-07
1.74249e-06
2.45852e-07
3.21409e-06
3.96268e-06
8.90726e-06
3.96325e-06
8.9081e-06
1.74551e-06
4.46683e-07
3.21855e-06
2.46967e-07
3.21906e-06
2.46929e-07
1.74505e-06
3.96279e-06
8.91755e-06
8.91725e-06
3.96162e-06
1.74078e-06
4.45031e-07
2.46085e-07
3.21426e-06
2.45988e-07
3.21474e-06
1.74152e-06
3.96316e-06
8.90883e-06
8.90799e-06
3.96225e-06
5.29156e-06
5.29028e-06
7.13924e-07
5.29043e-06
5.28984e-06
1.81108e-05
1.81146e-05
1.81247e-05
1.81213e-05
7.16362e-07
5.29014e-06
5.29001e-06
5.29118e-06
5.29073e-06
1.81152e-05
1.81118e-05
1.74071e-06
2.46369e-07
3.20817e-06
4.44784e-07
1.73952e-06
2.463e-07
3.2076e-06
3.96308e-06
8.90363e-06
3.96354e-06
8.90433e-06
3.96205e-06
8.90102e-06
3.9626e-06
8.90113e-06
1.74507e-06
4.44179e-07
2.4619e-07
3.21433e-06
2.46199e-07
3.21466e-06
1.74461e-06
1.74148e-06
4.44795e-07
2.46347e-07
3.20728e-06
2.46339e-07
3.20828e-06
1.74092e-06
3.96363e-06
8.90468e-06
8.90414e-06
3.96336e-06
3.96258e-06
8.90067e-06
8.90075e-06
3.96159e-06
1.81252e-05
1.81288e-05
1.81163e-05
1.8119e-05
7.15438e-07
5.28999e-06
5.28819e-06
5.29074e-06
5.28909e-06
1.81293e-05
1.81259e-05
1.81189e-05
1.8116e-05
1.81174e-05
1.81197e-05
1.81218e-05
1.81254e-05
5.29181e-06
5.29299e-06
7.13283e-07
5.29046e-06
5.29223e-06
1.81194e-05
1.81165e-05
1.8126e-05
1.81226e-05
7.1503e-07
5.29012e-06
5.29204e-06
5.29103e-06
5.2929e-06
3.95984e-06
8.89534e-06
3.96031e-06
8.89513e-06
1.73674e-06
3.21896e-06
2.45288e-07
4.44621e-07
1.73819e-06
3.21833e-06
2.45296e-07
1.73518e-06
3.20694e-06
2.44803e-07
4.43886e-07
1.73641e-06
3.20588e-06
2.44785e-07
3.95849e-06
8.9076e-06
8.90722e-06
3.95825e-06
3.96036e-06
8.89469e-06
8.89466e-06
3.95988e-06
1.7384e-06
4.44635e-07
3.21872e-06
2.45403e-07
3.21911e-06
2.45377e-07
1.73808e-06
1.73571e-06
4.43897e-07
3.20579e-06
2.44796e-07
3.20641e-06
2.44797e-07
1.73583e-06
5.28971e-06
5.29032e-06