/*--------------------------------*- C++ -*----------------------------------*\
| =========                 |                                                 |
| \\      /  F ield         | OpenFOAM: The Open Source CFD Toolbox           |
|  \\    /   O peration     | Version:  v1906                                 |
|   \\  /    A nd           | Web:      www.OpenFOAM.com                      |
|    \\/     M anipulation  |                                                 |
\*---------------------------------------------------------------------------*/
FoamFile
{
    version     2.0;
    format      ascii;
    class       volScalarField;
    location    "150";
    object      k;
}
// * * * * * * * * * * * * * * * * * * * * * * * * * * * * * * * * * * * * * //

dimensions      [0 2 -2 0 0 0 0];


internalField   nonuniform List<scalar> 
43024
(
1.34909e-05
2.1946e-05
2.1848e-05
2.77616e-05
1.34913e-05
2.19473e-05
2.18493e-05
2.78023e-05
1.34917e-05
2.19494e-05
2.18501e-05
2.78268e-05
1.34924e-05
2.19484e-05
2.18514e-05
2.76528e-05
1.3494e-05
2.19426e-05
2.18545e-05
2.76546e-05
1.34951e-05
2.19381e-05
2.1851e-05
2.75974e-05
1.34958e-05
2.19348e-05
2.18491e-05
2.76125e-05
1.34967e-05
2.19291e-05
2.18504e-05
2.75395e-05
1.34987e-05
2.19149e-05
2.18536e-05
2.75512e-05
1.35018e-05
2.19005e-05
2.18562e-05
2.75497e-05
1.35047e-05
2.18877e-05
2.18533e-05
2.75447e-05
1.35072e-05
2.18753e-05
2.18508e-05
2.75438e-05
1.35097e-05
2.18568e-05
2.18549e-05
2.75473e-05
1.35119e-05
2.18419e-05
2.1867e-05
2.75418e-05
1.35135e-05
2.18325e-05
2.18791e-05
2.75932e-05
1.35139e-05
2.18272e-05
2.18804e-05
2.76247e-05
1.35141e-05
2.18284e-05
2.18803e-05
2.75233e-05
1.35141e-05
2.18377e-05
2.18767e-05
2.73836e-05
1.35144e-05
2.18538e-05
2.18722e-05
2.74778e-05
1.35062e-05
2.18584e-05
2.18646e-05
2.74342e-05
1.32879e-05
2.08543e-05
2.0849e-05
2.64924e-05
2.77396e-05
2.18474e-05
2.18605e-05
2.78268e-05
2.18521e-05
2.18666e-05
2.19456e-05
2.18616e-05
2.77386e-05
2.18471e-05
2.18746e-05
2.77106e-05
2.77821e-05
2.77477e-05
2.18482e-05
2.18608e-05
2.18497e-05
2.18562e-05
2.7877e-05
2.78331e-05
2.18536e-05
2.18668e-05
2.18531e-05
2.18667e-05
2.18632e-05
2.19472e-05
2.18662e-05
2.77808e-05
2.77538e-05
2.18752e-05
2.18492e-05
2.18785e-05
2.77553e-05
2.77961e-05
2.7755e-05
2.18504e-05
2.18536e-05
2.18533e-05
2.18474e-05
2.78818e-05
2.78378e-05
2.18534e-05
2.18667e-05
2.1853e-05
2.18672e-05
2.18673e-05
2.1949e-05
2.18727e-05
2.78028e-05
2.77639e-05
2.18791e-05
2.18499e-05
2.18814e-05
2.77824e-05
2.77947e-05
2.77562e-05
2.18554e-05
2.18475e-05
2.18588e-05
2.18451e-05
2.78768e-05
2.78305e-05
2.18535e-05
2.18692e-05
2.18545e-05
2.18695e-05
2.18759e-05
2.19489e-05
2.18795e-05
2.78126e-05
2.77691e-05
2.18826e-05
2.18511e-05
2.18817e-05
2.76628e-05
2.78045e-05
2.76991e-05
2.18606e-05
2.18455e-05
2.1866e-05
2.18426e-05
2.7868e-05
2.76821e-05
2.1855e-05
2.18703e-05
2.18588e-05
2.18732e-05
2.18808e-05
2.19456e-05
2.18843e-05
2.78173e-05
2.77794e-05
2.18807e-05
2.18539e-05
2.18793e-05
2.76632e-05
2.76791e-05
2.7646e-05
2.18677e-05
2.18413e-05
2.1867e-05
2.1838e-05
2.7729e-05
2.77144e-05
2.1861e-05
2.18743e-05
2.18584e-05
2.18752e-05
2.18865e-05
2.19401e-05
2.18905e-05
2.77703e-05
2.7648e-05
2.18795e-05
2.18534e-05
2.18784e-05
2.76057e-05
2.7693e-05
2.75483e-05
2.18671e-05
2.18383e-05
2.18639e-05
2.1836e-05
2.776e-05
2.7737e-05
2.18584e-05
2.18747e-05
2.18552e-05
2.18737e-05
2.18918e-05
2.19362e-05
2.18961e-05
2.76316e-05
2.75602e-05
2.18784e-05
2.18492e-05
2.18771e-05
2.76217e-05
2.76024e-05
2.75541e-05
2.18639e-05
2.18366e-05
2.18613e-05
2.18363e-05
2.77813e-05
2.76798e-05
2.18551e-05
2.18737e-05
2.18526e-05
2.18748e-05
2.18988e-05
2.19322e-05
2.18959e-05
2.76059e-05
2.75613e-05
2.18771e-05
2.18498e-05
2.18727e-05
2.74902e-05
2.76088e-05
2.75583e-05
2.18618e-05
2.18356e-05
2.18627e-05
2.18339e-05
2.7701e-05
2.75881e-05
2.18533e-05
2.18773e-05
2.18537e-05
2.1879e-05
2.18947e-05
2.19197e-05
2.18875e-05
2.76178e-05
2.75825e-05
2.18726e-05
2.18531e-05
2.18676e-05
2.7506e-05
2.75463e-05
2.75655e-05
2.18641e-05
2.18341e-05
2.18662e-05
2.18371e-05
2.7575e-05
2.75835e-05
2.18544e-05
2.18792e-05
2.18559e-05
2.18773e-05
2.18861e-05
2.1904e-05
2.18796e-05
2.75726e-05
2.75184e-05
2.18677e-05
2.18558e-05
2.18578e-05
2.74962e-05
2.75548e-05
2.74885e-05
2.18666e-05
2.18397e-05
2.18642e-05
2.18445e-05
2.75728e-05
2.75092e-05
2.18582e-05
2.18764e-05
2.18571e-05
2.18707e-05
2.18792e-05
2.18893e-05
2.1874e-05
2.75648e-05
2.74573e-05
2.18569e-05
2.18536e-05
2.18483e-05
2.74915e-05
2.75449e-05
2.75787e-05
2.18644e-05
2.18478e-05
2.18637e-05
2.18505e-05
2.75634e-05
2.75181e-05
2.1858e-05
2.18711e-05
2.18599e-05
2.18684e-05
2.18742e-05
2.18775e-05
2.18715e-05
2.75081e-05
2.74807e-05
2.18484e-05
2.18501e-05
2.18437e-05
2.74893e-05
2.75686e-05
2.75817e-05
2.18642e-05
2.18513e-05
2.18634e-05
2.18485e-05
2.75065e-05
2.74419e-05
2.1862e-05
2.18685e-05
2.18635e-05
2.18669e-05
2.18718e-05
2.18594e-05
2.18694e-05
2.75408e-05
2.75784e-05
2.18441e-05
2.1852e-05
2.18415e-05
2.7494e-05
2.75713e-05
2.75122e-05
2.18645e-05
2.18484e-05
2.1864e-05
2.18425e-05
2.74293e-05
2.7444e-05
2.18651e-05
2.1868e-05
2.18661e-05
2.18678e-05
2.18703e-05
2.18431e-05
2.18676e-05
2.76335e-05
2.76492e-05
2.18425e-05
2.18616e-05
2.18418e-05
2.749e-05
2.75588e-05
2.75862e-05
2.18653e-05
2.18426e-05
2.18645e-05
2.18369e-05
2.74332e-05
2.73811e-05
2.18681e-05
2.18697e-05
2.18703e-05
2.1871e-05
2.18687e-05
2.18326e-05
2.18673e-05
2.77002e-05
2.76987e-05
2.18438e-05
2.18754e-05
2.18454e-05
2.75455e-05
2.76395e-05
2.76475e-05
2.18664e-05
2.18375e-05
2.18658e-05
2.18322e-05
2.74372e-05
2.73296e-05
2.18735e-05
2.18737e-05
2.18766e-05
2.18727e-05
2.18691e-05
2.18258e-05
2.1868e-05
2.77456e-05
2.75911e-05
2.18483e-05
2.18784e-05
2.18507e-05
2.75794e-05
2.76967e-05
2.75527e-05
2.18686e-05
2.18333e-05
2.18681e-05
2.18278e-05
2.73911e-05
2.73678e-05
2.18802e-05
2.1875e-05
2.18808e-05
2.18731e-05
2.18706e-05
2.18246e-05
2.18709e-05
2.76454e-05
2.75912e-05
2.18545e-05
2.18779e-05
2.1858e-05
2.75421e-05
2.75389e-05
2.74995e-05
2.18707e-05
2.183e-05
2.18681e-05
2.18283e-05
2.74273e-05
2.74036e-05
2.18835e-05
2.18754e-05
2.18808e-05
2.18685e-05
2.1874e-05
2.18317e-05
2.18702e-05
2.7636e-05
2.74518e-05
2.18622e-05
2.18748e-05
2.18622e-05
2.73295e-05
2.75588e-05
2.75333e-05
2.1872e-05
2.18324e-05
2.18711e-05
2.18339e-05
2.74543e-05
2.75048e-05
2.18848e-05
2.18696e-05
2.18851e-05
2.18606e-05
2.18728e-05
2.18452e-05
2.18674e-05
2.74346e-05
2.74304e-05
2.18661e-05
2.18691e-05
2.18646e-05
2.74274e-05
2.75812e-05
2.75003e-05
2.1876e-05
2.18404e-05
2.18689e-05
2.18362e-05
2.75655e-05
2.743e-05
2.18905e-05
2.18636e-05
2.18851e-05
2.18517e-05
2.18711e-05
2.18518e-05
2.1862e-05
2.74947e-05
2.74443e-05
2.18695e-05
2.18595e-05
2.18616e-05
2.74499e-05
2.75252e-05
2.70549e-05
2.18747e-05
2.18423e-05
2.15164e-05
2.14849e-05
2.7447e-05
2.69367e-05
2.18911e-05
2.18568e-05
2.15353e-05
2.14939e-05
2.18675e-05
2.1513e-05
2.15121e-05
2.7474e-05
2.7032e-05
2.1867e-05
2.15074e-05
2.15105e-05
2.69784e-05
2.65475e-05
2.08674e-05
2.08381e-05
2.64601e-05
2.08849e-05
2.08456e-05
1.32777e-05
1.3278e-05
1.32845e-05
2.08616e-05
2.65385e-05
2.086e-05
5.9926e-05
7.00359e-05
6.87306e-05
5.99976e-05
7.0052e-05
1.34908e-05
1.35123e-05
1.34991e-05
1.3504e-05
4.23433e-05
2.19507e-05
5.37707e-05
1.66295e-05
6.8757e-05
4.24892e-05
2.18437e-05
1.66182e-05
5.36496e-05
2.76864e-05
6.31103e-05
6.31055e-05
5.99213e-05
7.00377e-05
5.99296e-05
7.00405e-05
6.87206e-05
6.8726e-05
5.99902e-05
7.00487e-05
5.99883e-05
7.00497e-05
1.35124e-05
1.34993e-05
1.35042e-05
1.34912e-05
1.35109e-05
1.34995e-05
1.35048e-05
4.23938e-05
5.37993e-05
1.66301e-05
2.19471e-05
4.23764e-05
5.38027e-05
1.66321e-05
6.87499e-05
6.87567e-05
4.24913e-05
1.66181e-05
5.36815e-05
2.18489e-05
4.24959e-05
1.66188e-05
5.36805e-05
6.31255e-05
6.31129e-05
2.77358e-05
6.31334e-05
6.31142e-05
5.99558e-05
7.00393e-05
5.99404e-05
7.00416e-05
6.8715e-05
6.87218e-05
5.99765e-05
7.00451e-05
5.99781e-05
7.00447e-05
1.35109e-05
1.34995e-05
1.35055e-05
1.34916e-05
1.35096e-05
1.34993e-05
1.35068e-05
4.24737e-05
5.37971e-05
1.66345e-05
2.19483e-05
4.23949e-05
5.37732e-05
1.66363e-05
6.87464e-05
6.87546e-05
4.24512e-05
1.6619e-05
5.36192e-05
2.18496e-05
4.24235e-05
1.66195e-05
5.36132e-05
6.31355e-05
6.31056e-05
2.7771e-05
6.31446e-05
6.30989e-05
5.9952e-05
7.00402e-05
5.99474e-05
7.00421e-05
6.87128e-05
6.87198e-05
5.99923e-05
7.00428e-05
5.99827e-05
7.00449e-05
1.35097e-05
1.34995e-05
1.35073e-05
1.34922e-05
1.35093e-05
1.34992e-05
1.35085e-05
4.24173e-05
5.37766e-05
1.66407e-05
2.19498e-05
4.24346e-05
5.37668e-05
1.66428e-05
6.87489e-05
6.87585e-05
4.24474e-05
1.66191e-05
5.36154e-05
2.18503e-05
4.23999e-05
1.6619e-05
5.3619e-05
6.3149e-05
6.31079e-05
2.77223e-05
6.31574e-05
6.31219e-05
5.99408e-05
7.00418e-05
5.99462e-05
7.00436e-05
6.87144e-05
6.87238e-05
6.00086e-05
7.00448e-05
6.0006e-05
7.00466e-05
1.35094e-05
1.34992e-05
1.35091e-05
1.34937e-05
1.35093e-05
1.34991e-05
1.35105e-05
4.2441e-05
5.38008e-05
1.66463e-05
2.19493e-05
4.2412e-05
5.38091e-05
1.66486e-05
6.87534e-05
6.87616e-05
4.23904e-05
1.66171e-05
5.36131e-05
2.18526e-05
4.24418e-05
1.66168e-05
5.36353e-05
6.31555e-05
6.31082e-05
2.76172e-05
6.31566e-05
6.31023e-05
5.99346e-05
7.00398e-05
5.99341e-05
7.00405e-05
6.8717e-05
6.87243e-05
6.00249e-05
7.0048e-05
6.00111e-05
7.00516e-05
1.35092e-05
1.34993e-05
1.35113e-05
1.34949e-05
1.3509e-05
1.34992e-05
1.35128e-05
4.24581e-05
5.38328e-05
1.66522e-05
2.19428e-05
4.24722e-05
5.38266e-05
1.66552e-05
6.87542e-05
6.8763e-05
4.24151e-05
1.66142e-05
5.36544e-05
2.18545e-05
4.24014e-05
1.66152e-05
5.36657e-05
6.31516e-05
6.31023e-05
2.75565e-05
6.31203e-05
6.30934e-05
5.99486e-05
7.00394e-05
5.99661e-05
7.00411e-05
6.87162e-05
6.87246e-05
5.99862e-05
7.00521e-05
6.00016e-05
7.00526e-05
1.3509e-05
1.34991e-05
1.35133e-05
1.34958e-05
1.35091e-05
1.34991e-05
1.35155e-05
4.24389e-05
5.37858e-05
1.66585e-05
2.19378e-05
4.24695e-05
5.37767e-05
1.66606e-05
6.87581e-05
6.8768e-05
4.23606e-05
1.66124e-05
5.36731e-05
2.18508e-05
4.23954e-05
1.66124e-05
5.36797e-05
6.31097e-05
6.30753e-05
2.7569e-05
6.30999e-05
6.30862e-05
5.99079e-05
7.00408e-05
5.99181e-05
7.00438e-05
6.87197e-05
6.87291e-05
5.9988e-05
7.00468e-05
5.99878e-05
7.00461e-05
1.35091e-05
1.34992e-05
1.35167e-05
1.34965e-05
1.35097e-05
1.35003e-05
1.35182e-05
4.24929e-05
5.37287e-05
1.6665e-05
2.19345e-05
4.24333e-05
5.36513e-05
1.66664e-05
6.87632e-05
6.87706e-05
4.23308e-05
1.66112e-05
5.36918e-05
2.18491e-05
4.23346e-05
1.66109e-05
5.37014e-05
6.30729e-05
6.30943e-05
2.75153e-05
6.30746e-05
6.30862e-05
5.9915e-05
7.00464e-05
5.98963e-05
7.00509e-05
6.87252e-05
6.87357e-05
5.99805e-05
7.00431e-05
5.99795e-05
7.00461e-05
1.35096e-05
1.35006e-05
1.35185e-05
1.34983e-05
1.35104e-05
1.3503e-05
1.35194e-05
4.24289e-05
5.35755e-05
1.66698e-05
2.19262e-05
4.24201e-05
5.35614e-05
1.66708e-05
6.87613e-05
6.87693e-05
4.22726e-05
1.66103e-05
5.37061e-05
2.18508e-05
4.22436e-05
1.66103e-05
5.37124e-05
6.30668e-05
6.30981e-05
2.75316e-05
6.30476e-05
6.30925e-05
5.98918e-05
7.00524e-05
5.98967e-05
7.00549e-05
6.87301e-05
6.87396e-05
5.99787e-05
7.00489e-05
5.99775e-05
7.00526e-05
1.35113e-05
1.3504e-05
1.35199e-05
1.35013e-05
1.35127e-05
1.35063e-05
1.35199e-05
4.24278e-05
5.35156e-05
1.66731e-05
2.19126e-05
4.23898e-05
5.34676e-05
1.66739e-05
6.87593e-05
6.87664e-05
4.22274e-05
1.6606e-05
5.37139e-05
2.18536e-05
4.22508e-05
1.6605e-05
5.37339e-05
6.30522e-05
6.30811e-05
2.75439e-05
6.30499e-05
6.30788e-05
5.99269e-05
7.00539e-05
5.99149e-05
7.00561e-05
6.87351e-05
6.87439e-05
5.99333e-05
7.00518e-05
5.9947e-05
7.00537e-05
1.35136e-05
1.35067e-05
1.35198e-05
1.35044e-05
1.35156e-05
1.35079e-05
1.35194e-05
4.23931e-05
5.34893e-05
1.6674e-05
2.18976e-05
4.24344e-05
5.34926e-05
1.66738e-05
6.87575e-05
6.87663e-05
4.21789e-05
1.66002e-05
5.36402e-05
2.18556e-05
4.22075e-05
1.65994e-05
5.36235e-05
6.30542e-05
6.31004e-05
2.75399e-05
6.30735e-05
6.30992e-05
5.99049e-05
7.00557e-05
5.99205e-05
7.00568e-05
6.8738e-05
6.87473e-05
5.99164e-05
7.00528e-05
5.99339e-05
7.00548e-05
1.35162e-05
1.35086e-05
1.35193e-05
1.35068e-05
1.35179e-05
1.35095e-05
1.35191e-05
4.23061e-05
5.34744e-05
1.66694e-05
2.18849e-05
4.22632e-05
5.34781e-05
1.66686e-05
6.87586e-05
6.87678e-05
4.21839e-05
1.65934e-05
5.35682e-05
2.18519e-05
4.21775e-05
1.65931e-05
5.35625e-05
6.30839e-05
6.30948e-05
2.75349e-05
6.30835e-05
6.30897e-05
5.99338e-05
7.00492e-05
5.99234e-05
7.00449e-05
6.87407e-05
6.87504e-05
5.98759e-05
7.00534e-05
5.98925e-05
7.00564e-05
1.35185e-05
1.35095e-05
1.3519e-05
1.35094e-05
1.35186e-05
1.35113e-05
1.3519e-05
4.22041e-05
5.35312e-05
1.66605e-05
2.187e-05
4.22366e-05
5.35177e-05
1.66583e-05
6.8759e-05
6.87679e-05
4.2215e-05
1.65906e-05
5.35702e-05
2.18502e-05
4.216e-05
1.65901e-05
5.35504e-05
6.30952e-05
6.31125e-05
2.74628e-05
6.30883e-05
6.31146e-05
5.98932e-05
7.00336e-05
5.99185e-05
7.00328e-05
6.87412e-05
6.87518e-05
5.98968e-05
7.00568e-05
5.98857e-05
7.00599e-05
1.3518e-05
1.35121e-05
1.35189e-05
1.35117e-05
1.35161e-05
1.35143e-05
1.35189e-05
4.22404e-05
5.35011e-05
1.6648e-05
2.1851e-05
4.22926e-05
5.35008e-05
1.66453e-05
6.87529e-05
6.87611e-05
4.22118e-05
1.65921e-05
5.35195e-05
2.18558e-05
4.21937e-05
1.65928e-05
5.34843e-05
6.30934e-05
6.31158e-05
2.74622e-05
6.3093e-05
6.31094e-05
5.99414e-05
7.0029e-05
5.9924e-05
7.00321e-05
6.87424e-05
6.87571e-05
5.9902e-05
7.00588e-05
5.98736e-05
7.00626e-05
1.35153e-05
1.35146e-05
1.35187e-05
1.35135e-05
1.35134e-05
1.35173e-05
1.35186e-05
4.22571e-05
5.35395e-05
1.66358e-05
2.18376e-05
4.22769e-05
5.35311e-05
1.66341e-05
6.87506e-05
6.87626e-05
4.22713e-05
1.6601e-05
5.35387e-05
2.18688e-05
4.2258e-05
1.66046e-05
5.35274e-05
6.30919e-05
6.31214e-05
2.75209e-05
6.31132e-05
6.31194e-05
5.9939e-05
7.00325e-05
5.99279e-05
7.004e-05
6.87474e-05
6.87621e-05
5.99134e-05
7.00623e-05
5.99018e-05
7.0068e-05
1.35125e-05
1.35177e-05
1.35181e-05
1.35142e-05
1.35109e-05
1.35191e-05
1.35179e-05
4.2322e-05
5.35654e-05
1.66301e-05
2.1829e-05
4.23009e-05
5.35261e-05
1.6629e-05
6.87479e-05
6.87623e-05
4.23192e-05
1.6616e-05
5.35391e-05
2.18784e-05
4.23213e-05
1.66195e-05
5.35752e-05
6.31488e-05
6.31376e-05
2.75648e-05
6.31436e-05
6.31322e-05
5.99547e-05
7.00417e-05
5.99508e-05
7.00511e-05
6.87479e-05
6.87691e-05
5.9906e-05
7.00673e-05
5.99218e-05
7.00751e-05
1.35099e-05
1.35188e-05
1.35173e-05
1.35146e-05
1.35085e-05
1.35193e-05
1.35172e-05
4.23923e-05
5.35599e-05
1.6629e-05
2.18244e-05
4.23331e-05
5.35675e-05
1.66287e-05
6.87475e-05
6.87677e-05
4.23613e-05
1.66255e-05
5.35916e-05
2.18782e-05
4.23397e-05
1.66252e-05
5.35543e-05
6.31664e-05
6.31673e-05
2.75928e-05
6.31614e-05
6.31693e-05
5.99742e-05
7.00513e-05
5.99628e-05
7.00646e-05
6.87544e-05
6.87849e-05
5.99205e-05
7.0072e-05
5.99177e-05
7.00835e-05
1.35074e-05
1.35185e-05
1.35165e-05
1.35149e-05
1.35068e-05
1.35182e-05
1.35166e-05
4.24469e-05
5.36531e-05
1.66322e-05
2.18273e-05
4.24078e-05
5.36663e-05
1.66328e-05
6.87487e-05
6.87764e-05
4.23351e-05
1.66255e-05
5.36399e-05
2.1877e-05
4.23894e-05
1.66243e-05
5.36625e-05
6.3205e-05
6.32178e-05
2.74264e-05
6.31995e-05
6.32116e-05
5.99944e-05
7.00598e-05
6.00012e-05
7.00789e-05
6.87647e-05
6.88037e-05
5.99485e-05
7.00773e-05
5.99487e-05
7.00971e-05
1.35057e-05
1.35169e-05
1.35155e-05
1.35155e-05
1.35063e-05
1.35161e-05
1.35155e-05
4.24307e-05
5.37379e-05
1.6639e-05
2.18376e-05
4.24524e-05
5.37307e-05
1.66399e-05
6.87523e-05
6.87907e-05
4.24425e-05
1.66235e-05
5.37449e-05
2.18716e-05
4.24377e-05
1.6622e-05
5.37299e-05
6.3258e-05
6.32694e-05
2.73744e-05
6.32336e-05
6.32469e-05
6.00428e-05
7.00619e-05
6.00299e-05
7.00925e-05
6.87717e-05
6.88205e-05
5.99897e-05
7.00837e-05
5.99627e-05
7.01168e-05
1.35051e-05
1.35141e-05
1.35139e-05
1.35152e-05
1.35056e-05
1.35125e-05
1.35136e-05
4.2546e-05
5.38543e-05
1.66461e-05
2.18526e-05
4.25133e-05
5.3815e-05
1.66468e-05
6.87592e-05
6.88089e-05
4.25774e-05
1.66206e-05
5.38257e-05
2.1867e-05
4.24842e-05
1.66191e-05
5.37725e-05
6.32975e-05
6.33194e-05
2.74619e-05
6.32565e-05
6.32807e-05
6.00573e-05
7.00545e-05
6.0052e-05
7.01123e-05
6.87761e-05
6.88382e-05
6.00142e-05
7.00818e-05
6.00327e-05
7.01405e-05
1.34965e-05
1.35017e-05
1.35038e-05
1.34364e-05
1.34272e-05
1.34292e-05
1.34331e-05
4.26477e-05
5.39574e-05
1.66402e-05
2.18024e-05
4.26644e-05
5.38029e-05
1.66482e-05
6.87666e-05
6.88302e-05
4.25978e-05
1.66005e-05
5.39046e-05
2.18037e-05
4.26783e-05
1.66059e-05
5.37497e-05
6.33306e-05
6.33515e-05
2.73717e-05
6.32301e-05
6.32471e-05
5.44647e-05
6.95191e-05
5.9712e-05
7.17578e-05
6.85535e-05
6.19492e-05
5.44163e-05
6.95463e-05
5.96576e-05
7.17757e-05
1.08203e-05
1.16028e-05
1.16024e-05
1.37651e-05
1.08411e-05
1.1761e-05
1.17605e-05
4.14345e-05
5.32298e-05
1.62798e-05
1.98769e-05
4.2215e-05
5.50122e-05
1.54866e-05
6.85437e-05
6.19399e-05
4.13286e-05
1.6234e-05
5.31802e-05
1.98702e-05
4.2135e-05
1.54452e-05
5.49741e-05
6.27497e-05
6.27604e-05
2.53512e-05
6.24544e-05
6.24586e-05
6.87517e-05
6.87509e-05
2.77233e-05
6.31446e-05
6.31513e-05
6.87523e-05
6.87445e-05
6.87524e-05
6.87437e-05
2.77753e-05
6.31487e-05
6.31654e-05
6.31547e-05
6.3156e-05
5.99171e-05
7.00017e-05
4.21607e-05
2.18466e-05
5.37403e-05
1.65548e-05
4.21254e-05
2.18692e-05
5.35417e-05
1.65831e-05
5.99121e-05
7.00386e-05
7.0035e-05
5.99282e-05
5.99204e-05
6.99967e-05
6.9999e-05
5.9926e-05
4.21239e-05
2.18469e-05
5.37192e-05
1.65553e-05
5.37412e-05
1.65551e-05
4.21039e-05
4.20973e-05
2.18639e-05
5.34972e-05
1.65789e-05
5.3531e-05
1.65798e-05
4.21342e-05
2.782e-05
6.31074e-05
6.32189e-05
6.88111e-05
6.87288e-05
6.87228e-05
2.78655e-05
6.31011e-05
6.32216e-05
6.31119e-05
6.32218e-05
6.881e-05
6.88029e-05
4.225e-05
2.18561e-05
5.37594e-05
1.6591e-05
5.99433e-05
7.00431e-05
4.21119e-05
2.18666e-05
1.65806e-05
5.37766e-05
5.9978e-05
7.00506e-05
7.005e-05
5.99873e-05
4.22337e-05
2.18527e-05
5.3764e-05
1.65837e-05
5.37641e-05
1.65856e-05
4.22037e-05
5.99571e-05
7.00426e-05
7.00414e-05
5.99551e-05
4.21301e-05
2.18666e-05
1.65733e-05
5.37708e-05
1.65753e-05
5.3783e-05
4.20638e-05
6.00407e-05
7.00859e-05
4.22595e-05
2.18611e-05
1.65731e-05
5.35561e-05
6.00094e-05
7.00113e-05
4.23559e-05
2.19461e-05
5.37783e-05
1.66296e-05
5.37676e-05
1.66297e-05
4.23619e-05
6.00402e-05
7.00864e-05
7.0084e-05
6.00468e-05
4.22746e-05
2.1861e-05
1.65761e-05
5.35722e-05
1.65738e-05
5.35539e-05
4.22469e-05
6.00046e-05
7.00136e-05
7.001e-05
6.00102e-05
2.77247e-05
6.31475e-05
6.3114e-05
6.87378e-05
6.87578e-05
6.87492e-05
2.77661e-05
6.31525e-05
6.31195e-05
6.31471e-05
6.31122e-05
6.87379e-05
6.87302e-05
4.25119e-05
2.18745e-05
1.66325e-05
5.35549e-05
6.00829e-05
7.00236e-05
6.00777e-05
7.00271e-05
4.25062e-05
2.18454e-05
1.66178e-05
5.36688e-05
1.66166e-05
5.36667e-05
4.24836e-05
4.24726e-05
2.18745e-05
1.66319e-05
5.35645e-05
1.66311e-05
5.35664e-05
4.25105e-05
6.00908e-05
7.00238e-05
7.0022e-05
6.0081e-05
6.0086e-05
7.00245e-05
7.00252e-05
6.00985e-05
6.87508e-05
6.87535e-05
2.7731e-05
6.31104e-05
6.31144e-05
6.31182e-05
6.31184e-05
6.87531e-05
6.87439e-05
6.87555e-05
6.87467e-05
6.87449e-05
6.87529e-05
6.87453e-05
6.87536e-05
6.3145e-05
6.31709e-05
2.77441e-05
6.31387e-05
6.31677e-05
6.87537e-05
6.87457e-05
6.87536e-05
6.8746e-05
2.77932e-05
6.31555e-05
6.3164e-05
6.31486e-05
6.31657e-05
5.99253e-05
6.9994e-05
5.99122e-05
6.99927e-05
4.21194e-05
5.37441e-05
1.65561e-05
2.185e-05
4.21183e-05
5.37507e-05
1.65572e-05
4.20371e-05
5.35131e-05
1.65765e-05
2.18602e-05
4.2126e-05
5.35378e-05
1.65756e-05
5.99331e-05
7.00407e-05
7.00389e-05
5.99413e-05
5.99121e-05
6.99882e-05
6.999e-05
5.99087e-05
4.21588e-05
2.18497e-05
5.37421e-05
1.65573e-05
5.37371e-05
1.65571e-05
4.2146e-05
4.20656e-05
2.18575e-05
5.35317e-05
1.65697e-05
5.35404e-05
1.65733e-05
4.21269e-05
6.31056e-05
6.32235e-05
2.78321e-05
6.30998e-05
6.32212e-05
6.88021e-05
6.881e-05
6.8723e-05
6.87175e-05
2.78804e-05
6.31017e-05
6.3216e-05
6.30974e-05
6.3222e-05
6.88108e-05
6.88023e-05
4.22575e-05
5.37561e-05
1.65796e-05
2.1854e-05
4.22169e-05
5.37647e-05
1.65775e-05
5.99432e-05
7.00406e-05
5.99548e-05
7.00406e-05
4.21369e-05
1.65692e-05
5.37554e-05
2.18669e-05
4.21229e-05
1.65668e-05
5.37165e-05
5.99897e-05
7.00475e-05
7.0048e-05
5.99951e-05
4.2237e-05
2.18537e-05
5.37198e-05
1.65716e-05
5.37678e-05
1.65743e-05
4.22576e-05
5.99598e-05
7.0037e-05
7.0038e-05
5.99627e-05
4.21211e-05
2.18667e-05
1.65592e-05
5.3705e-05
1.65633e-05
5.37124e-05
4.22089e-05
6.00511e-05
7.00853e-05
6.00332e-05
7.00883e-05
4.22324e-05
1.65769e-05
5.35928e-05
2.18651e-05
4.22543e-05
1.65814e-05
5.36043e-05
6.00014e-05
7.00129e-05
5.99945e-05
7.00171e-05
4.23726e-05
2.19472e-05
5.38199e-05
1.66333e-05
5.38041e-05
1.66324e-05
4.24096e-05
6.0051e-05
7.00897e-05
7.00871e-05
6.00722e-05
4.22909e-05
2.18655e-05
1.65832e-05
5.36236e-05
1.65811e-05
5.36037e-05
4.22903e-05
6.00227e-05
7.00208e-05
7.00164e-05
6.00354e-05
6.31467e-05
6.31318e-05
2.77486e-05
6.31341e-05
6.31282e-05
6.87305e-05
6.87377e-05
6.87546e-05
6.87481e-05
2.77977e-05
6.31315e-05
6.31308e-05
6.31341e-05
6.31334e-05
6.8736e-05
6.87298e-05
4.24966e-05
1.6633e-05
5.35672e-05
2.18769e-05
4.2514e-05
1.66331e-05
5.35463e-05
6.00967e-05
7.00224e-05
6.00759e-05
7.00241e-05
6.00538e-05
7.00213e-05
6.00931e-05
7.00182e-05
4.24946e-05
2.18488e-05
1.66188e-05
5.36279e-05
1.66188e-05
5.36586e-05
4.24615e-05
4.24795e-05
2.1878e-05
1.66326e-05
5.35107e-05
1.66331e-05
5.35532e-05
4.24857e-05
6.00812e-05
7.00203e-05
7.00217e-05
6.009e-05
6.00563e-05
7.00116e-05
7.00151e-05
6.00597e-05
6.87465e-05
6.87566e-05
6.87478e-05
6.87545e-05
2.77838e-05
6.31337e-05
6.31058e-05
6.31388e-05
6.31079e-05
6.87598e-05
6.875e-05
6.87523e-05
6.87464e-05
6.87458e-05
6.87523e-05
6.87461e-05
6.87544e-05
6.31404e-05
6.31599e-05
2.77535e-05
6.31449e-05
6.31664e-05
6.87522e-05
6.87446e-05
6.87551e-05
6.87471e-05
2.77925e-05
6.31412e-05
6.3166e-05
6.31421e-05
6.3172e-05
5.99253e-05
6.99854e-05
5.99165e-05
6.9984e-05
4.22208e-05
5.37339e-05
1.6558e-05
2.1853e-05
4.22023e-05
5.37557e-05
1.65598e-05
4.21894e-05
5.35192e-05
1.65681e-05
2.1853e-05
4.21447e-05
5.35293e-05
1.65673e-05
5.9941e-05
7.00419e-05
7.00402e-05
5.99488e-05
5.99242e-05
6.99811e-05
6.99817e-05
5.99323e-05
4.21925e-05
2.18526e-05
5.37513e-05
1.6561e-05
5.37543e-05
1.65601e-05
4.22273e-05
4.21402e-05
2.18511e-05
5.35083e-05
1.65623e-05
5.35228e-05
1.65649e-05
4.21831e-05
6.31039e-05
6.32225e-05
2.78384e-05
6.3112e-05
6.31978e-05
6.88033e-05
6.88104e-05
6.87206e-05
6.87141e-05
2.78775e-05
6.31095e-05
6.31916e-05
6.31153e-05
6.31996e-05
6.88084e-05
6.8802e-05
4.22728e-05
5.37183e-05
1.65684e-05
2.18535e-05
4.22414e-05
5.36878e-05
1.65691e-05
5.9986e-05
7.00346e-05
5.99735e-05
7.00349e-05
4.21941e-05
1.65566e-05
5.3695e-05
2.18685e-05
4.21802e-05
1.65563e-05
5.3701e-05
5.99648e-05
7.00443e-05
7.0043e-05
5.99844e-05
4.22762e-05
2.18528e-05
5.37006e-05
1.65621e-05
5.37138e-05
1.65641e-05
4.22878e-05
5.9971e-05
7.00338e-05
7.0033e-05
5.99719e-05
4.21693e-05
2.18665e-05
1.65484e-05
5.36938e-05
1.65511e-05
5.37058e-05
4.2183e-05
6.00434e-05
7.0088e-05
6.00627e-05
7.00882e-05
4.23049e-05
1.65863e-05
5.36107e-05
2.18721e-05
4.228e-05
1.65906e-05
5.36279e-05
6.0047e-05
7.002e-05
6.00239e-05
7.0024e-05
4.2477e-05
2.19487e-05
5.37748e-05
1.66401e-05
5.37769e-05
1.6639e-05
4.242e-05
6.00579e-05
7.00874e-05
7.00862e-05
6.00635e-05
4.23439e-05
2.18708e-05
1.65943e-05
5.36297e-05
1.65922e-05
5.36234e-05
4.23628e-05
6.00417e-05
7.00275e-05
7.00232e-05
6.00328e-05
6.31324e-05
6.31313e-05
2.77595e-05
6.31318e-05
6.31315e-05
6.8728e-05
6.87348e-05
6.87561e-05
6.8747e-05
2.78083e-05
6.31223e-05
6.31171e-05
6.31314e-05
6.31324e-05
6.87342e-05
6.87271e-05
4.2443e-05
1.66319e-05
5.35167e-05
2.18814e-05
4.24758e-05
1.66317e-05
5.34967e-05
6.00833e-05
7.00176e-05
6.00884e-05
7.00163e-05
6.00654e-05
7.00086e-05
6.00645e-05
7.00059e-05
4.24591e-05
2.18498e-05
1.66194e-05
5.36304e-05
1.66195e-05
5.36104e-05
4.24236e-05
4.244e-05
2.18804e-05
1.66298e-05
5.34998e-05
1.6631e-05
5.3496e-05
4.24282e-05
6.00783e-05
7.00146e-05
7.0014e-05
6.00609e-05
6.00687e-05
7.00031e-05
7.00033e-05
6.00337e-05
6.87531e-05
6.87633e-05
6.87442e-05
6.87507e-05
2.78161e-05
6.31381e-05
6.31104e-05
6.31469e-05
6.31078e-05
6.87667e-05
6.87566e-05
6.87505e-05
6.8743e-05
6.87451e-05
6.87539e-05
6.87474e-05
6.87553e-05
6.31529e-05
6.31621e-05
2.77571e-05
6.31543e-05
6.31515e-05
6.87563e-05
6.87469e-05
6.87579e-05
6.87483e-05
2.78005e-05
6.31719e-05
6.31646e-05
6.31533e-05
6.31636e-05
5.99382e-05
6.99791e-05
5.99323e-05
6.99813e-05
4.22291e-05
5.373e-05
1.65623e-05
2.1858e-05
4.22454e-05
5.37474e-05
1.65649e-05
4.22409e-05
5.35029e-05
1.65614e-05
2.18475e-05
4.22113e-05
5.35118e-05
1.65611e-05
5.99409e-05
7.00431e-05
7.00409e-05
5.99599e-05
5.99409e-05
6.99819e-05
6.99798e-05
5.99394e-05
4.22228e-05
2.18582e-05
5.3762e-05
1.65659e-05
5.37621e-05
1.65653e-05
4.22497e-05
4.22527e-05
2.18461e-05
5.35049e-05
1.65581e-05
5.34809e-05
1.65592e-05
4.22483e-05
6.31089e-05
6.32061e-05
2.78352e-05
6.30935e-05
6.32049e-05
6.88004e-05
6.88071e-05
6.87213e-05
6.87125e-05
2.78732e-05
6.30856e-05
6.31937e-05
6.30962e-05
6.32061e-05
6.88045e-05
6.87986e-05
4.224e-05
5.37049e-05
1.65621e-05
2.18539e-05
4.22356e-05
5.37019e-05
1.65607e-05
5.99786e-05
7.00321e-05
5.99801e-05
7.00335e-05
4.21663e-05
1.65482e-05
5.3698e-05
2.18698e-05
4.21755e-05
1.65465e-05
5.36974e-05
5.99936e-05
7.00464e-05
7.00439e-05
6.0013e-05
4.22927e-05
2.1854e-05
5.37235e-05
1.65568e-05
5.37309e-05
1.65589e-05
4.22786e-05
5.99775e-05
7.0034e-05
7.0032e-05
5.99824e-05
4.22126e-05
2.18694e-05
1.65422e-05
5.36837e-05
1.65446e-05
5.36985e-05
4.2163e-05
6.00736e-05
7.00858e-05
6.00578e-05
7.00879e-05
4.23288e-05
1.65965e-05
5.36287e-05
2.1879e-05
4.23383e-05
1.66021e-05
5.36459e-05
6.00627e-05
7.00267e-05
6.00452e-05
7.00307e-05
4.24306e-05
2.195e-05
5.3786e-05
1.66449e-05
5.37806e-05
1.66451e-05
4.24197e-05
6.00668e-05
7.00895e-05
7.00867e-05
6.00946e-05
4.23704e-05
2.1879e-05
1.66046e-05
5.36782e-05
1.66021e-05
5.36637e-05
4.23439e-05
6.00654e-05
7.00339e-05
7.00299e-05
6.00638e-05
6.31378e-05
6.31315e-05
2.77668e-05
6.31402e-05
6.31339e-05
6.8727e-05
6.87354e-05
6.8761e-05
6.87512e-05
2.78151e-05
6.31525e-05
6.31301e-05
6.31454e-05
6.31296e-05
6.8737e-05
6.87281e-05
4.24209e-05
1.66296e-05
5.34918e-05
2.18827e-05
4.23909e-05
1.66294e-05
5.35243e-05
6.00628e-05
7.00127e-05
6.00726e-05
7.00142e-05
6.00474e-05
7.00011e-05
6.00344e-05
7.00028e-05
4.24555e-05
2.1851e-05
1.66181e-05
5.3614e-05
1.66188e-05
5.36236e-05
4.24466e-05
4.24141e-05
2.18823e-05
1.66268e-05
5.35442e-05
1.66285e-05
5.35164e-05
4.24072e-05
6.00684e-05
7.00154e-05
7.00128e-05
6.00642e-05
6.0052e-05
7.0003e-05
7.00011e-05
6.00429e-05
6.87602e-05
6.87708e-05
6.8743e-05
6.87509e-05
2.7703e-05
6.31546e-05
6.31095e-05
6.31601e-05
6.31108e-05
6.8773e-05
6.8764e-05
6.87498e-05
6.87431e-05
6.87492e-05
6.87577e-05
6.8751e-05
6.87609e-05
6.31748e-05
6.31675e-05
2.77593e-05
6.31779e-05
6.3175e-05
6.87573e-05
6.87502e-05
6.87634e-05
6.8754e-05
2.78077e-05
6.31594e-05
6.31692e-05
6.31784e-05
6.31775e-05
5.99587e-05
6.99803e-05
5.99555e-05
6.99811e-05
4.2258e-05
5.37715e-05
1.65673e-05
2.18646e-05
4.22591e-05
5.37767e-05
1.65718e-05
4.21623e-05
5.34966e-05
1.65585e-05
2.18453e-05
4.22528e-05
5.34778e-05
1.65588e-05
5.99433e-05
7.0042e-05
7.00419e-05
5.99402e-05
5.99683e-05
6.99791e-05
6.99793e-05
5.99779e-05
4.22615e-05
2.18644e-05
5.37572e-05
1.65736e-05
5.37917e-05
1.65717e-05
4.22418e-05
4.21262e-05
2.1844e-05
5.34958e-05
1.65565e-05
5.35068e-05
1.65573e-05
4.21256e-05
6.3091e-05
6.3184e-05
2.77564e-05
6.31055e-05
6.31896e-05
6.87959e-05
6.88028e-05
6.87247e-05
6.87167e-05
2.77376e-05
6.31092e-05
6.31619e-05
6.311e-05
6.31908e-05
6.88001e-05
6.87947e-05
4.22637e-05
5.37299e-05
1.65556e-05
2.1859e-05
4.22798e-05
5.3735e-05
1.6556e-05
5.9958e-05
7.00326e-05
5.99638e-05
7.00352e-05
4.21567e-05
1.6541e-05
5.36972e-05
2.18725e-05
4.216e-05
1.65409e-05
5.37032e-05
5.9996e-05
7.00487e-05
7.00455e-05
5.99946e-05
4.22713e-05
2.18573e-05
5.37611e-05
1.65526e-05
5.37612e-05
1.65546e-05
4.22136e-05
5.99555e-05
7.00365e-05
7.0034e-05
5.99645e-05
4.21614e-05
2.18729e-05
1.65377e-05
5.36917e-05
1.65396e-05
5.37129e-05
4.21724e-05
6.00593e-05
7.00883e-05
6.00806e-05
7.00906e-05
4.23437e-05
1.66074e-05
5.36867e-05
2.18833e-05
4.23477e-05
1.66127e-05
5.3687e-05
6.00486e-05
7.00334e-05
6.00521e-05
7.0038e-05
4.24254e-05
2.19478e-05
5.38265e-05
1.66509e-05
5.38075e-05
1.66511e-05
4.24861e-05
6.0068e-05
7.0091e-05
7.00891e-05
6.00681e-05
4.2386e-05
2.18828e-05
1.66154e-05
5.3684e-05
1.66127e-05
5.36876e-05
4.23625e-05
6.00664e-05
7.00419e-05
7.00374e-05
6.00612e-05
6.31515e-05
6.31364e-05
2.77713e-05
6.315e-05
6.31277e-05
6.87301e-05
6.87393e-05
6.87619e-05
6.87537e-05
2.78202e-05
6.31441e-05
6.31463e-05
6.31528e-05
6.31425e-05
6.87416e-05
6.87326e-05
4.24153e-05
1.66268e-05
5.35334e-05
2.18799e-05
4.24018e-05
1.66267e-05
5.3554e-05
6.00551e-05
7.00144e-05
6.00527e-05
7.00181e-05
6.00536e-05
7.00013e-05
6.00354e-05
7.00024e-05
4.23846e-05
2.18534e-05
1.66151e-05
5.36512e-05
1.66164e-05
5.36394e-05
4.23463e-05
4.24088e-05
2.18794e-05
1.66246e-05
5.35332e-05
1.66251e-05
5.35604e-05
4.24161e-05
6.00516e-05
7.00206e-05
7.00173e-05
6.00645e-05
6.00525e-05
7.00004e-05
7.00005e-05
6.00367e-05
6.87658e-05
6.87748e-05
6.87419e-05
6.87485e-05
2.76713e-05
6.31577e-05
6.31004e-05
6.3157e-05
6.31026e-05
6.87764e-05
6.87676e-05
6.87482e-05
6.87408e-05
6.87498e-05
6.87559e-05
6.87566e-05
6.87662e-05
6.31729e-05
6.31829e-05
2.76263e-05
6.31507e-05
6.31857e-05
6.87545e-05
6.87478e-05
6.87677e-05
6.8759e-05
2.76735e-05
6.31409e-05
6.31721e-05
6.31533e-05
6.31817e-05
5.9979e-05
6.99767e-05
5.99773e-05
6.99756e-05
4.22286e-05
5.37392e-05
1.6576e-05
2.18677e-05
4.22503e-05
5.37626e-05
1.65796e-05
4.21401e-05
5.34982e-05
1.6557e-05
2.18409e-05
4.21727e-05
5.34813e-05
1.65569e-05
5.99485e-05
7.00409e-05
7.00389e-05
5.9967e-05
5.99781e-05
6.9973e-05
6.99732e-05
5.99721e-05
4.22627e-05
2.18678e-05
5.37914e-05
1.65809e-05
5.37652e-05
1.65798e-05
4.22127e-05
4.21208e-05
2.18395e-05
5.34814e-05
1.65549e-05
5.34799e-05
1.6556e-05
4.2137e-05
6.31091e-05
6.31566e-05
2.77e-05
6.30994e-05
6.31372e-05