/*--------------------------------*- C++ -*----------------------------------*\
| =========                 |                                                 |
| \\      /  F ield         | OpenFOAM: The Open Source CFD Toolbox           |
|  \\    /   O peration     | Version:  v1906                                 |
|   \\  /    A nd           | Web:      www.OpenFOAM.com                      |
|    \\/     M anipulation  |                                                 |
\*---------------------------------------------------------------------------*/
FoamFile
{
    version     2.0;
    format      ascii;
    class       volScalarField;
    location    "0.03";
    object      p;
}
// * * * * * * * * * * * * * * * * * * * * * * * * * * * * * * * * * * * * * //

dimensions      [0 2 -2 0 0 0 0];


internalField   nonuniform List<scalar> 
247104
(
9.82212e-13
1.69289e-09
1.1767e-09
1.24969e-09
7.97228e-10
1.28774e-09
1.23531e-09
1.54164e-09
1.6394e-09
1.85729e-09
1.97345e-09
1.81616e-09
1.62113e-09
1.85677e-09
1.98799e-09
1.82434e-09
1.16616e-09
1.97711e-09
1.78096e-09
1.37753e-09
1.20211e-09
1.42664e-09
1.83529e-09
1.96025e-09
9.88471e-10
1.22464e-09
1.81105e-09
1.37417e-09
8.59252e-10
6.68316e-10
9.13943e-10
1.44998e-09
1.82795e-09
1.01272e-09
-9.23781e-11
7.49162e-10
1.60125e-09
1.19236e-09
6.64e-10
4.70266e-10
7.19695e-10
1.26994e-09
1.60265e-09
5.21493e-10
1.23919e-09
1.83599e-09
1.41355e-09
9.06066e-10
7.16419e-10
9.6115e-10
1.48948e-09
1.85441e-09
1.02506e-09
1.20992e-09
1.97157e-09
1.82017e-09
1.43884e-09
1.26451e-09
1.48866e-09
1.87241e-09
1.95175e-09
1.04367e-09
1.51682e-09
1.80459e-09
1.94015e-09
1.81193e-09
1.59601e-09
1.85635e-09
1.95548e-09
1.77396e-09
9.62009e-10
9.90954e-10
5.1412e-10
1.03249e-09
1.05802e-09
-3.44883e-08
-3.5642e-08
-3.07795e-08
-3.37014e-08
-3.59862e-08
-3.52883e-08
-3.57061e-08
-2.84694e-08
-3.02504e-08
-3.08171e-08
-3.50942e-08
-4.09514e-08
-4.14116e-08
-4.14122e-08
-4.09536e-08
-3.52173e-08
-3.39077e-08
-3.37112e-08
-4.09664e-08
-4.11108e-08
-4.11741e-08
-4.11717e-08
-4.11024e-08
-4.09423e-08
-3.43721e-08
-2.62406e-08
-3.44977e-08
-3.6038e-08
-4.14206e-08
-4.11766e-08
-4.09898e-08
-4.09869e-08
-4.1167e-08
-4.14005e-08
-3.60209e-08
-3.08596e-08
-3.56392e-08
-3.53128e-08
-4.14188e-08
-4.11752e-08
-4.09886e-08
-4.09863e-08
-4.11669e-08
-4.14002e-08
-3.55975e-08
-3.59564e-08
-3.57024e-08
-4.09608e-08
-4.11069e-08
-4.11705e-08
-4.11699e-08
-4.11026e-08
-4.09406e-08
-3.56933e-08
-3.30497e-08
-2.8487e-08
-3.52309e-08
-4.09481e-08
-4.14067e-08
-4.14111e-08
-4.096e-08
-3.58813e-08
-3.39345e-08
-2.66456e-08
-3.02021e-08
-3.39129e-08
-3.43781e-08
-3.60118e-08
-3.56088e-08
-3.5724e-08
-3.39513e-08
-2.57015e-08
-2.63235e-08
-3.08336e-08
-3.59462e-08
-3.30592e-08
-2.66821e-08
-5.31119e-08
-5.29305e-08
-5.40825e-08
-5.60161e-08
-5.61485e-08
-5.62331e-08
-5.60154e-08
-5.28092e-08
-5.30786e-08
-5.40539e-08
-5.62059e-08
-5.85254e-08
-5.88285e-08
-5.884e-08
-5.85911e-08
-5.38652e-08
-5.52261e-08
-5.60237e-08
-5.85826e-08
-5.91341e-08
-5.92757e-08
-5.92758e-08
-5.91251e-08
-5.84968e-08
-5.33042e-08
-5.213e-08
-5.31381e-08
-5.61528e-08
-5.88306e-08
-5.92758e-08
-5.94295e-08
-5.94257e-08
-5.92576e-08
-5.8782e-08
-5.42126e-08
-5.31789e-08
-5.29493e-08
-5.6236e-08
-5.88223e-08
-5.92702e-08
-5.94249e-08
-5.94237e-08
-5.92591e-08
-5.87895e-08
-5.46979e-08
-5.61514e-08
-5.60145e-08
-5.85739e-08
-5.91177e-08
-5.92596e-08
-5.92684e-08
-5.91281e-08
-5.85326e-08
-5.36736e-08
-5.25934e-08
-5.28158e-08
-5.38709e-08
-5.84854e-08
-5.87887e-08
-5.88248e-08
-5.8575e-08
-5.321e-08
-5.4186e-08
-5.2673e-08
-5.31016e-08
-5.52537e-08
-5.33209e-08
-5.4229e-08
-5.47209e-08
-5.37109e-08
-5.41817e-08
-5.17261e-08
-5.21311e-08
-5.31957e-08
-5.61646e-08
-5.26147e-08
-5.26613e-08
-7.78438e-08
-7.76998e-08
-7.82913e-08
-8.00484e-08
-8.02909e-08
-8.0404e-08
-7.9974e-08
-7.65859e-08
-7.70214e-08
-7.83031e-08
-8.01982e-08
-8.31232e-08
-8.33438e-08
-8.33414e-08
-8.31088e-08
-7.65157e-08
-7.88332e-08
-8.00403e-08
-8.30939e-08
-8.32166e-08
-8.32854e-08
-8.32864e-08
-8.3223e-08
-8.31319e-08
-7.59941e-08
-7.62445e-08
-7.78212e-08
-8.02836e-08
-8.33331e-08
-8.32824e-08
-8.32858e-08
-8.32868e-08
-8.32862e-08
-8.33419e-08
-7.68585e-08
-7.7591e-08
-7.77068e-08
-8.04044e-08
-8.33359e-08
-8.32836e-08
-8.32857e-08
-8.3286e-08
-8.32853e-08
-8.33442e-08
-7.74345e-08
-8.03189e-08
-7.99896e-08
-8.3108e-08
-8.32206e-08
-8.32845e-08
-8.32834e-08
-8.32172e-08
-8.31244e-08
-7.62849e-08
-7.70163e-08
-7.65977e-08
-7.65271e-08
-8.31289e-08
-8.33399e-08
-8.33364e-08
-8.30942e-08
-7.49256e-08
-7.72033e-08
-7.65876e-08
-7.70726e-08
-7.87355e-08
-7.59974e-08
-7.6872e-08
-7.74406e-08
-7.63007e-08
-7.71767e-08
-7.542e-08
-7.63237e-08
-7.76435e-08
-8.03408e-08
-7.7014e-08
-7.65637e-08
-1.00327e-07
-1.00162e-07
-1.00847e-07
-1.02833e-07
-1.03148e-07
-1.03234e-07
-1.02764e-07
-9.91298e-08
-9.987e-08
-1.00794e-07
-1.03615e-07
-1.0718e-07
-1.07219e-07
-1.07215e-07
-1.0717e-07
-9.93692e-08
-1.01653e-07
-1.0284e-07
-1.07186e-07
-1.07181e-07
-1.07182e-07
-1.0718e-07
-1.07177e-07
-1.07185e-07
-9.8214e-08
-9.87361e-08
-1.00352e-07
-1.03163e-07
-1.07225e-07
-1.07184e-07
-1.0717e-07
-1.0717e-07
-1.07183e-07
-1.07227e-07
-9.87665e-08
-1.00139e-07
-1.00206e-07
-1.0325e-07
-1.07224e-07
-1.07184e-07
-1.07171e-07
-1.0717e-07
-1.07183e-07
-1.07222e-07
-9.93189e-08
-1.02955e-07
-1.02779e-07
-1.07176e-07
-1.0718e-07
-1.07183e-07
-1.07183e-07
-1.07179e-07
-1.07181e-07
-9.83645e-08
-9.95176e-08
-9.91558e-08
-9.93953e-08
-1.07184e-07
-1.07224e-07
-1.07221e-07
-1.07177e-07
-9.71848e-08
-9.97364e-08
-9.91434e-08
-9.98084e-08
-1.01642e-07
-9.82178e-08
-9.8772e-08
-9.93075e-08
-9.83523e-08
-9.97316e-08
-9.83404e-08
-9.87248e-08
-1.00145e-07
-1.02918e-07
-9.95097e-08
-9.90952e-08
-1.23167e-07
-1.2302e-07
-1.23755e-07
-1.25732e-07
-1.26163e-07
-1.26264e-07
-1.25696e-07
-1.21886e-07
-1.22567e-07
-1.23598e-07
-1.26738e-07
-1.30641e-07
-1.30641e-07
-1.30641e-07
-1.3062e-07
-1.22385e-07
-1.24457e-07
-1.25732e-07
-1.30621e-07
-1.30628e-07
-1.30626e-07
-1.30624e-07
-1.30619e-07
-1.30616e-07
-1.2096e-07
-1.21458e-07
-1.23185e-07
-1.26174e-07
-1.30646e-07
-1.30628e-07
-1.30621e-07
-1.30618e-07
-1.30621e-07
-1.30635e-07
-1.2144e-07
-1.22992e-07
-1.2303e-07
-1.26277e-07
-1.30646e-07
-1.30628e-07
-1.3062e-07
-1.30618e-07
-1.30621e-07
-1.30635e-07
-1.22006e-07
-1.25827e-07
-1.25702e-07
-1.30626e-07
-1.30628e-07
-1.30625e-07
-1.30623e-07
-1.30619e-07
-1.30623e-07
-1.21059e-07
-1.22337e-07
-1.21896e-07
-1.22378e-07
-1.30635e-07
-1.30639e-07
-1.30638e-07
-1.30614e-07
-1.19951e-07
-1.225e-07
-1.21847e-07
-1.2259e-07
-1.24464e-07
-1.20984e-07
-1.21365e-07
-1.21989e-07
-1.21035e-07
-1.22497e-07
-1.21103e-07
-1.21453e-07
-1.22998e-07
-1.2582e-07
-1.22324e-07
-1.21838e-07
-1.46257e-07
-1.461e-07
-1.46836e-07
-1.48839e-07
-1.49328e-07
-1.49377e-07
-1.48818e-07
-1.44937e-07
-1.45638e-07
-1.46788e-07
-1.49894e-07
-1.53906e-07
-1.53905e-07
-1.53904e-07
-1.53889e-07
-1.45507e-07
-1.47532e-07
-1.48852e-07
-1.53906e-07
-1.53902e-07
-1.53899e-07
-1.53895e-07
-1.53889e-07
-1.53884e-07
-1.44012e-07
-1.44524e-07
-1.46266e-07
-1.49327e-07
-1.53905e-07
-1.539e-07
-1.53895e-07
-1.53892e-07
-1.5389e-07
-1.5389e-07
-1.44439e-07
-1.46076e-07
-1.46108e-07
-1.49385e-07
-1.53907e-07
-1.53899e-07
-1.53894e-07
-1.53891e-07
-1.53889e-07
-1.5389e-07
-1.44997e-07
-1.48897e-07
-1.48827e-07
-1.53902e-07
-1.53899e-07
-1.53895e-07
-1.53893e-07
-1.53888e-07
-1.53882e-07
-1.44119e-07
-1.45421e-07
-1.4495e-07
-1.45524e-07
-1.53903e-07
-1.53897e-07
-1.539e-07
-1.53889e-07
-1.43037e-07
-1.45598e-07
-1.44914e-07
-1.45661e-07
-1.47565e-07
-1.44056e-07
-1.44398e-07
-1.45029e-07
-1.44098e-07
-1.45572e-07
-1.44189e-07
-1.44524e-07
-1.46084e-07
-1.48889e-07
-1.45425e-07
-1.44898e-07
-1.6942e-07
-1.69267e-07
-1.69994e-07
-1.72013e-07
-1.72496e-07
-1.7256e-07
-1.72e-07
-1.6809e-07
-1.68794e-07
-1.69947e-07
-1.73086e-07
-1.77113e-07
-1.77121e-07
-1.77125e-07
-1.771e-07
-1.68694e-07
-1.707e-07
-1.72015e-07
-1.77116e-07
-1.77115e-07
-1.77117e-07
-1.77117e-07
-1.77111e-07
-1.77114e-07
-1.67179e-07
-1.67678e-07
-1.69418e-07
-1.72485e-07
-1.77115e-07
-1.77115e-07
-1.77115e-07
-1.77114e-07
-1.77114e-07
-1.77115e-07
-1.6761e-07
-1.69242e-07
-1.69262e-07
-1.72541e-07
-1.77113e-07
-1.77114e-07
-1.77114e-07
-1.77114e-07
-1.77115e-07
-1.77118e-07
-1.68164e-07
-1.72071e-07
-1.72003e-07
-1.77116e-07
-1.77114e-07
-1.77115e-07
-1.77115e-07
-1.77115e-07
-1.77119e-07
-1.67288e-07
-1.68584e-07
-1.68097e-07
-1.68689e-07
-1.77109e-07
-1.77117e-07
-1.77116e-07
-1.77114e-07
-1.66176e-07
-1.68753e-07
-1.68073e-07
-1.68785e-07
-1.70724e-07
-1.67181e-07
-1.67597e-07
-1.6814e-07
-1.6731e-07
-1.68755e-07
-1.67356e-07
-1.67666e-07
-1.69243e-07
-1.72049e-07
-1.68585e-07
-1.68057e-07
-1.92603e-07
-1.92452e-07
-1.93182e-07
-1.95193e-07
-1.95706e-07
-1.95749e-07
-1.95194e-07
-1.91289e-07
-1.91993e-07
-1.93123e-07
-1.96282e-07
-2.00322e-07
-2.00327e-07
-2.00326e-07
-2.00323e-07
-1.91898e-07
-1.93891e-07
-1.95192e-07
-2.00322e-07
-2.00323e-07
-2.00324e-07
-2.00325e-07
-2.00324e-07
-2.00324e-07
-1.90388e-07
-1.90885e-07
-1.92606e-07
-1.95683e-07
-2.00322e-07
-2.00323e-07
-2.00324e-07
-2.00324e-07
-2.00325e-07
-2.00326e-07
-1.90809e-07
-1.92448e-07
-1.92451e-07
-1.95733e-07
-2.00324e-07
-2.00324e-07
-2.00324e-07
-2.00324e-07
-2.00325e-07
-2.00327e-07
-1.91352e-07
-1.9527e-07
-1.95178e-07
-2.00324e-07
-2.00324e-07
-2.00324e-07
-2.00324e-07
-2.00324e-07
-2.00327e-07
-1.9048e-07
-1.91781e-07
-1.91285e-07
-1.91905e-07
-2.00326e-07
-2.00323e-07
-2.00324e-07
-2.0032e-07
-1.8937e-07
-1.91939e-07
-1.91264e-07
-1.91974e-07
-1.93915e-07
-1.90362e-07
-1.90795e-07
-1.91348e-07
-1.90483e-07
-1.91943e-07
-1.90547e-07
-1.90865e-07
-1.92439e-07
-1.95246e-07
-1.91775e-07
-1.91245e-07
-2.15805e-07
-2.15655e-07
-2.16387e-07
-2.18394e-07
-2.18912e-07
-2.18952e-07
-2.18399e-07
-2.14486e-07
-2.15194e-07
-2.16319e-07
-2.19469e-07
-2.23528e-07
-2.23529e-07
-2.23528e-07
-2.23531e-07
-2.15087e-07
-2.1709e-07
-2.18388e-07
-2.23526e-07
-2.23528e-07
-2.23529e-07
-2.23529e-07
-2.2353e-07
-2.23531e-07
-2.13586e-07
-2.14084e-07
-2.15802e-07
-2.1888e-07
-2.23526e-07
-2.23529e-07
-2.23529e-07
-2.2353e-07
-2.2353e-07
-2.23531e-07
-2.14004e-07
-2.15644e-07
-2.15648e-07
-2.18933e-07
-2.23527e-07
-2.23529e-07
-2.2353e-07
-2.2353e-07
-2.2353e-07
-2.23531e-07
-2.14554e-07
-2.18472e-07
-2.18378e-07
-2.23529e-07
-2.23529e-07
-2.2353e-07
-2.2353e-07
-2.23531e-07
-2.23531e-07
-2.13688e-07
-2.14983e-07
-2.14484e-07
-2.15104e-07
-2.23528e-07
-2.23528e-07
-2.2353e-07
-2.2353e-07
-2.12565e-07
-2.15141e-07
-2.14465e-07
-2.15175e-07
-2.17109e-07
-2.1356e-07
-2.13983e-07
-2.1452e-07
-2.13683e-07
-2.15142e-07
-2.13748e-07
-2.14063e-07
-2.15636e-07
-2.18441e-07
-2.14974e-07
-2.14445e-07
-2.39008e-07
-2.38857e-07
-2.39581e-07
-2.41604e-07
-2.4211e-07
-2.42153e-07
-2.41602e-07
-2.37708e-07
-2.38399e-07
-2.39521e-07
-2.42689e-07
-2.46739e-07
-2.46729e-07
-2.4673e-07
-2.46741e-07
-2.38285e-07
-2.40294e-07
-2.41595e-07
-2.46734e-07
-2.46736e-07
-2.46735e-07
-2.46734e-07
-2.46735e-07
-2.46733e-07
-2.36789e-07
-2.37286e-07
-2.39006e-07
-2.42086e-07
-2.46733e-07
-2.46734e-07
-2.46734e-07
-2.46734e-07
-2.46735e-07
-2.46734e-07
-2.37207e-07
-2.38847e-07
-2.38851e-07
-2.42139e-07
-2.46733e-07
-2.46734e-07
-2.46734e-07
-2.46734e-07
-2.46734e-07
-2.46734e-07
-2.37757e-07
-2.41674e-07
-2.41582e-07
-2.46731e-07
-2.46734e-07
-2.46734e-07
-2.46734e-07
-2.46734e-07
-2.46734e-07
-2.36891e-07
-2.38185e-07
-2.37687e-07
-2.38307e-07
-2.46734e-07
-2.46734e-07
-2.46734e-07
-2.46734e-07
-2.3577e-07
-2.38344e-07
-2.37668e-07
-2.38377e-07
-2.40311e-07
-2.36761e-07
-2.37181e-07
-2.37724e-07
-2.36898e-07
-2.38349e-07
-2.36953e-07
-2.37265e-07
-2.38839e-07
-2.41644e-07
-2.38179e-07
-2.37651e-07
-2.62207e-07
-2.62056e-07
-2.62659e-07
-2.64799e-07
-2.65307e-07
-2.65347e-07
-2.648e-07
-2.60908e-07
-2.61608e-07
-2.62723e-07
-2.65882e-07
-2.69937e-07
-2.69937e-07
-2.69935e-07
-2.6994e-07
-2.61501e-07
-2.635e-07
-2.64798e-07
-2.69936e-07
-2.69937e-07
-2.69937e-07
-2.69938e-07
-2.69938e-07
-2.69938e-07
-2.59993e-07
-2.6049e-07
-2.62209e-07
-2.65289e-07
-2.69936e-07
-2.69937e-07
-2.69937e-07
-2.69937e-07
-2.69937e-07
-2.69937e-07
-2.60411e-07
-2.62051e-07
-2.62055e-07
-2.65343e-07
-2.69936e-07
-2.69936e-07
-2.69937e-07
-2.69937e-07
-2.69937e-07
-2.69937e-07
-2.6096e-07
-2.64876e-07
-2.64785e-07
-2.69936e-07
-2.69936e-07
-2.69937e-07
-2.69937e-07
-2.69937e-07
-2.69937e-07
-2.60094e-07
-2.61388e-07
-2.60889e-07
-2.61503e-07
-2.69936e-07
-2.69935e-07
-2.69935e-07
-2.69936e-07
-2.58972e-07
-2.61547e-07
-2.6087e-07
-2.6158e-07
-2.63514e-07
-2.59965e-07
-2.60383e-07
-2.60926e-07
-2.60099e-07
-2.61551e-07
-2.60155e-07
-2.60468e-07
-2.62041e-07
-2.64846e-07
-2.61381e-07
-2.60852e-07
-2.85409e-07
-2.85258e-07
-2.85863e-07
-2.88001e-07
-2.88505e-07
-2.88549e-07
-2.88004e-07
-2.84112e-07
-2.84809e-07
-2.85929e-07
-2.89092e-07
-2.93139e-07
-2.93138e-07
-2.93138e-07
-2.93148e-07
-2.84713e-07
-2.86712e-07
-2.88002e-07
-2.93139e-07
-2.93139e-07
-2.93139e-07
-2.93139e-07
-2.93141e-07
-2.93142e-07
-2.83199e-07
-2.83695e-07
-2.85413e-07
-2.88492e-07
-2.93139e-07
-2.93139e-07
-2.93139e-07
-2.9314e-07
-2.93141e-07
-2.93141e-07
-2.83615e-07
-2.85255e-07
-2.85258e-07
-2.88546e-07
-2.93139e-07
-2.93139e-07
-2.9314e-07
-2.9314e-07
-2.9314e-07
-2.93141e-07
-2.84164e-07
-2.8808e-07
-2.87988e-07
-2.93139e-07
-2.93139e-07
-2.9314e-07
-2.9314e-07
-2.9314e-07
-2.9314e-07
-2.83297e-07
-2.84591e-07
-2.84092e-07
-2.84706e-07
-2.93139e-07
-2.93139e-07
-2.9314e-07
-2.9314e-07
-2.82175e-07
-2.8475e-07
-2.84073e-07
-2.84783e-07
-2.86717e-07
-2.83167e-07
-2.83585e-07
-2.84124e-07
-2.83302e-07
-2.84754e-07
-2.83358e-07
-2.8367e-07
-2.85244e-07
-2.88048e-07
-2.84584e-07
-2.84055e-07
-3.08616e-07
-3.08465e-07
-3.09067e-07
-3.11207e-07
-3.11713e-07
-3.11762e-07
-3.11205e-07
-3.07308e-07
-3.08012e-07
-3.09134e-07
-3.12297e-07
-3.16344e-07
-3.16344e-07
-3.16344e-07
-3.16344e-07
-3.0791e-07
-3.09912e-07
-3.11206e-07
-3.16343e-07
-3.16343e-07
-3.16343e-07
-3.16343e-07
-3.16343e-07
-3.16343e-07
-3.064e-07
-3.06896e-07
-3.08617e-07
-3.11696e-07
-3.16343e-07
-3.16343e-07
-3.16343e-07
-3.16343e-07
-3.16343e-07
-3.16343e-07
-3.06817e-07
-3.08457e-07
-3.08462e-07
-3.1175e-07
-3.16343e-07
-3.16343e-07
-3.16343e-07
-3.16343e-07
-3.16343e-07
-3.16343e-07
-3.07367e-07
-3.11284e-07
-3.11192e-07
-3.16343e-07
-3.16343e-07
-3.16343e-07
-3.16343e-07
-3.16343e-07
-3.16343e-07
-3.065e-07
-3.07794e-07
-3.07296e-07
-3.07909e-07
-3.16343e-07
-3.16343e-07
-3.16343e-07
-3.16343e-07
-3.05378e-07
-3.07953e-07
-3.07277e-07
-3.07986e-07
-3.0992e-07
-3.0637e-07
-3.06787e-07
-3.07326e-07
-3.06504e-07
-3.07956e-07
-3.06561e-07
-3.06873e-07
-3.08446e-07
-3.11251e-07
-3.07786e-07
-3.07258e-07
-3.3182e-07
-3.3167e-07
-3.32269e-07
-3.34412e-07
-3.34917e-07
-3.34965e-07
-3.34403e-07
-3.30526e-07
-3.3122e-07
-3.32335e-07
-3.35496e-07
-3.39548e-07
-3.39547e-07
-3.39547e-07
-3.39546e-07
-3.31115e-07
-3.33116e-07
-3.3441e-07
-3.39547e-07
-3.39547e-07
-3.39547e-07
-3.39546e-07
-3.39546e-07
-3.39544e-07
-3.29602e-07
-3.30099e-07
-3.3182e-07
-3.349e-07
-3.39547e-07
-3.39547e-07
-3.39547e-07
-3.39546e-07
-3.39546e-07
-3.39545e-07
-3.30019e-07
-3.31659e-07
-3.31665e-07
-3.34954e-07
-3.39547e-07
-3.39547e-07
-3.39547e-07
-3.39546e-07
-3.39546e-07
-3.39546e-07
-3.30569e-07
-3.34486e-07
-3.34395e-07
-3.39546e-07
-3.39546e-07
-3.39546e-07
-3.39546e-07
-3.39546e-07
-3.39546e-07
-3.29703e-07
-3.30997e-07
-3.30499e-07
-3.31112e-07
-3.39546e-07
-3.39546e-07
-3.39546e-07
-3.39545e-07
-3.2858e-07
-3.31155e-07
-3.30479e-07
-3.31189e-07
-3.33123e-07
-3.29572e-07
-3.29989e-07
-3.30528e-07
-3.29705e-07
-3.31158e-07
-3.29763e-07
-3.30075e-07
-3.31648e-07
-3.34453e-07
-3.30982e-07
-3.30459e-07
-3.55024e-07
-3.54873e-07
-3.55475e-07
-3.57617e-07
-3.58121e-07
-3.58164e-07
-3.57605e-07
-3.53722e-07
-3.54423e-07
-3.5554e-07
-3.58702e-07
-3.62758e-07
-3.62751e-07
-3.62752e-07
-3.62751e-07
-3.54326e-07
-3.56321e-07
-3.57614e-07
-3.6275e-07
-3.62753e-07
-3.62751e-07
-3.62751e-07
-3.62751e-07
-3.6275e-07
-3.52807e-07
-3.53302e-07
-3.55024e-07
-3.58102e-07
-3.6275e-07
-3.62751e-07
-3.62751e-07
-3.62751e-07
-3.6275e-07
-3.6275e-07
-3.53222e-07
-3.54863e-07
-3.54869e-07
-3.58157e-07
-3.6275e-07
-3.62751e-07
-3.62751e-07
-3.62751e-07
-3.6275e-07
-3.6275e-07
-3.53773e-07
-3.5769e-07
-3.57599e-07
-3.6275e-07
-3.6275e-07
-3.62751e-07
-3.62751e-07
-3.6275e-07
-3.6275e-07
-3.52907e-07
-3.54201e-07
-3.53703e-07
-3.54315e-07
-3.6275e-07
-3.62751e-07
-3.62752e-07
-3.6275e-07
-3.51784e-07
-3.54359e-07
-3.53683e-07
-3.54393e-07
-3.56327e-07
-3.52776e-07
-3.53193e-07
-3.53736e-07
-3.52905e-07
-3.54362e-07
-3.52966e-07
-3.53278e-07
-3.54849e-07
-3.57681e-07
-3.54184e-07
-3.53659e-07
-3.78224e-07
-3.78075e-07
-3.78715e-07
-3.80808e-07
-3.81322e-07
-3.81364e-07
-3.8081e-07
-3.7693e-07
-3.7762e-07
-3.78747e-07
-3.81904e-07
-3.85953e-07
-3.85954e-07
-3.85954e-07
-3.85953e-07
-3.77527e-07
-3.79522e-07
-3.80818e-07
-3.85952e-07
-3.85952e-07
-3.85953e-07
-3.85953e-07
-3.85952e-07
-3.85951e-07
-3.76008e-07
-3.76505e-07
-3.78227e-07
-3.81305e-07
-3.85952e-07
-3.85952e-07
-3.85952e-07
-3.85952e-07
-3.85952e-07
-3.85951e-07
-3.76424e-07
-3.78065e-07
-3.78072e-07
-3.8136e-07
-3.85952e-07
-3.85952e-07
-3.85952e-07
-3.85952e-07
-3.85952e-07
-3.85952e-07
-3.76975e-07
-3.80892e-07
-3.80801e-07
-3.85952e-07
-3.85952e-07
-3.85952e-07
-3.85952e-07
-3.85952e-07
-3.85952e-07
-3.76109e-07
-3.77403e-07
-3.76905e-07
-3.77517e-07
-3.85952e-07
-3.85952e-07
-3.85952e-07
-3.85951e-07
-3.74985e-07
-3.77561e-07
-3.76886e-07
-3.77595e-07
-3.79529e-07
-3.75978e-07
-3.76396e-07
-3.76935e-07
-3.7612e-07
-3.77563e-07
-3.7617e-07
-3.76482e-07
-3.78055e-07
-3.8086e-07
-3.77394e-07
-3.76873e-07
-4.01428e-07
-4.01277e-07
-4.01881e-07
-4.04012e-07
-4.04524e-07
-4.04568e-07
-4.0401e-07
-4.00132e-07
-4.00822e-07
-4.01947e-07
-4.05106e-07
-4.09154e-07
-4.09158e-07
-4.09155e-07
-4.09154e-07
-4.00728e-07
-4.02724e-07
-4.0402e-07
-4.09154e-07
-4.09154e-07
-4.09154e-07
-4.09154e-07
-4.09154e-07
-4.09153e-07
-3.9921e-07
-3.99706e-07
-4.0143e-07
-4.04507e-07
-4.09154e-07
-4.09154e-07
-4.09154e-07
-4.09154e-07
-4.09154e-07
-4.09153e-07
-3.99626e-07
-4.01267e-07
-4.01274e-07
-4.04562e-07
-4.09154e-07
-4.09154e-07
-4.09154e-07
-4.09154e-07
-4.09154e-07
-4.09153e-07
-4.00176e-07
-4.04094e-07
-4.04003e-07
-4.09154e-07
-4.09154e-07
-4.09155e-07
-4.09154e-07
-4.09153e-07
-4.09153e-07
-3.9931e-07
-4.00605e-07
-4.00107e-07
-4.00719e-07
-4.09154e-07
-4.09155e-07
-4.09154e-07
-4.09152e-07
-3.98186e-07
-4.00762e-07
-4.00087e-07
-4.00797e-07
-4.02731e-07
-3.99178e-07
-3.99596e-07
-4.00144e-07
-3.99316e-07
-4.00762e-07
-3.9937e-07
-3.99681e-07
-4.01252e-07
-4.04062e-07
-4.00591e-07
-4.0007e-07
-4.24628e-07
-4.24477e-07
-4.25079e-07
-4.27218e-07
-4.27726e-07
-4.27767e-07
-4.2721e-07
-4.23331e-07
-4.24022e-07
-4.25147e-07
-4.28305e-07
-4.32355e-07
-4.32355e-07
-4.32355e-07
-4.32355e-07
-4.23929e-07
-4.25925e-07
-4.27221e-07
-4.32355e-07
-4.32355e-07
-4.32355e-07
-4.32355e-07
-4.32354e-07
-4.32354e-07
-4.22412e-07
-4.22908e-07
-4.24631e-07
-4.27708e-07
-4.32355e-07
-4.32355e-07
-4.32355e-07
-4.32355e-07
-4.32354e-07
-4.32354e-07
-4.22828e-07
-4.24468e-07
-4.24475e-07
-4.27763e-07
-4.32355e-07
-4.32355e-07
-4.32355e-07
-4.32355e-07
-4.32354e-07
-4.32354e-07
-4.23378e-07
-4.27295e-07
-4.27204e-07
-4.32355e-07
-4.32355e-07
-4.32356e-07
-4.32355e-07
-4.32354e-07
-4.32354e-07
-4.22512e-07
-4.23806e-07
-4.23308e-07
-4.2392e-07
-4.32355e-07
-4.32356e-07
-4.32356e-07
-4.32353e-07
-4.21388e-07
-4.23963e-07
-4.23288e-07
-4.23998e-07
-4.25933e-07
-4.22381e-07
-4.228e-07
-4.23347e-07
-4.22515e-07
-4.23964e-07
-4.22571e-07
-4.2288e-07
-4.2445e-07
-4.27256e-07
-4.2379e-07
-4.23268e-07
-4.47827e-07
-4.47677e-07
-4.48279e-07
-4.50422e-07
-4.50926e-07
-4.50967e-07
-4.5041e-07
-4.46538e-07
-4.47223e-07
-4.48348e-07
-4.51506e-07
-4.55555e-07
-4.55555e-07
-4.55555e-07
-4.55555e-07
-4.47126e-07
-4.49125e-07
-4.50421e-07
-4.55555e-07
-4.55555e-07
-4.55555e-07
-4.55555e-07
-4.55555e-07
-4.55554e-07
-4.45612e-07
-4.46108e-07
-4.47831e-07
-4.5091e-07
-4.55555e-07
-4.55555e-07
-4.55555e-07
-4.55555e-07
-4.55555e-07
-4.55554e-07
-4.46028e-07
-4.47668e-07
-4.47675e-07
-4.50963e-07
-4.55555e-07
-4.55555e-07
-4.55555e-07
-4.55554e-07
-4.55554e-07
-4.55554e-07
-4.46578e-07
-4.50496e-07
-4.50404e-07
-4.55554e-07
-4.55554e-07
-4.55554e-07
-4.55554e-07
-4.55554e-07
-4.55554e-07
-4.45712e-07
-4.47006e-07
-4.46508e-07
-4.47121e-07
-4.55554e-07
-4.55554e-07
-4.55554e-07
-4.55554e-07
-4.44589e-07
-4.47164e-07
-4.46488e-07
-4.47199e-07
-4.49133e-07
-4.45583e-07
-4.46001e-07
-4.46547e-07
-4.45723e-07
-4.47166e-07
-4.45773e-07
-4.46085e-07
-4.47656e-07
-4.50459e-07
-4.46994e-07
-4.46474e-07
-4.71031e-07
-4.70879e-07
-4.71482e-07
-4.73627e-07
-4.74131e-07
-4.7418e-07
-4.73608e-07
-4.69737e-07
-4.70433e-07
-4.71549e-07
-4.74706e-07
-4.78754e-07
-4.78755e-07
-4.78756e-07
-4.78756e-07
-4.70327e-07
-4.72325e-07
-4.73621e-07
-4.78754e-07
-4.78754e-07
-4.78755e-07
-4.78755e-07
-4.78755e-07
-4.78755e-07
-4.68812e-07
-4.69308e-07
-4.71031e-07
-4.7411e-07
-4.78754e-07
-4.78755e-07
-4.78755e-07
-4.78755e-07
-4.78755e-07
-4.78755e-07
-4.69228e-07
-4.7087e-07
-4.70875e-07
-4.74164e-07
-4.78755e-07
-4.78755e-07
-4.78755e-07
-4.78755e-07
-4.78755e-07
-4.78755e-07
-4.69779e-07
-4.73696e-07
-4.73604e-07
-4.78755e-07
-4.78755e-07
-4.78755e-07
-4.78755e-07
-4.78755e-07
-4.78755e-07
-4.68912e-07
-4.70207e-07
-4.69708e-07
-4.70321e-07
-4.78755e-07
-4.78755e-07
-4.78755e-07
-4.78755e-07
-4.67789e-07
-4.70365e-07
-4.69689e-07
-4.70399e-07
-4.72333e-07
-4.68783e-07
-4.69202e-07
-4.69749e-07
-4.68925e-07
-4.70367e-07
-4.68974e-07
-4.69286e-07
-4.70857e-07
-4.73665e-07
-4.70198e-07
-4.69673e-07
-4.94232e-07
-4.94081e-07
-4.94685e-07
-4.96827e-07
-4.97332e-07
-4.97382e-07
-4.9681e-07
-4.92942e-07
-4.93638e-07
-4.9475e-07
-4.97908e-07
-5.01957e-07
-5.01957e-07
-5.01958e-07
-5.01958e-07
-4.93528e-07
-4.95527e-07
-4.96822e-07
-5.01957e-07
-5.01957e-07
-5.01957e-07
-5.01957e-07
-5.01957e-07
-5.01957e-07
-4.92014e-07
-4.92509e-07
-4.94233e-07
-4.97311e-07
-5.01957e-07
-5.01957e-07
-5.01957e-07
-5.01957e-07
-5.01957e-07
-5.01957e-07
-4.9243e-07
-4.94072e-07
-4.94076e-07
-4.97365e-07
-5.01957e-07
-5.01957e-07
-5.01957e-07
-5.01957e-07
-5.01957e-07
-5.01957e-07
-4.9298e-07
-4.96898e-07
-4.96806e-07
-5.01957e-07
-5.01957e-07
-5.01957e-07
-5.01957e-07
-5.01957e-07
-5.01957e-07
-4.92114e-07
-4.93408e-07
-4.9291e-07
-4.93523e-07
-5.01957e-07
-5.01957e-07
-5.01957e-07
-5.01957e-07
-4.90991e-07
-4.93566e-07
-4.92891e-07
-4.93601e-07
-4.95535e-07
-4.91985e-07
-4.92404e-07
-4.9295e-07
-4.92127e-07
-4.93569e-07
-4.92176e-07
-4.92488e-07
-4.94059e-07
-4.96868e-07
-4.934e-07
-4.92875e-07
-5.17432e-07
-5.17281e-07
-5.17887e-07
-5.20028e-07
-5.20532e-07
-5.20581e-07
-5.20011e-07
-5.16143e-07
-5.1684e-07
-5.17952e-07
-5.2111e-07
-5.25159e-07
-5.25159e-07
-5.25159e-07
-5.25159e-07
-5.1673e-07
-5.18729e-07
-5.20025e-07
-5.25159e-07
-5.25159e-07
-5.25159e-07
-5.25159e-07
-5.25159e-07
-5.25159e-07
-5.15216e-07
-5.15712e-07
-5.17435e-07
-5.20513e-07
-5.25159e-07
-5.25159e-07
-5.25159e-07
-5.25159e-07
-5.25159e-07
-5.25159e-07
-5.15632e-07
-5.17274e-07
-5.17278e-07
-5.20567e-07
-5.25159e-07
-5.25159e-07
-5.25159e-07
-5.25159e-07
-5.25159e-07
-5.25159e-07
-5.16182e-07
-5.201e-07
-5.20008e-07
-5.25159e-07
-5.25159e-07
-5.25159e-07
-5.25159e-07
-5.25159e-07
-5.25159e-07
-5.15316e-07
-5.1661e-07
-5.16112e-07
-5.16725e-07
-5.25159e-07
-5.25159e-07
-5.25159e-07
-5.25159e-07
-5.14193e-07
-5.16768e-07
-5.16092e-07
-5.16803e-07
-5.18737e-07
-5.15187e-07
-5.15605e-07
-5.16152e-07
-5.15328e-07
-5.16771e-07
-5.15377e-07
-5.1569e-07
-5.17261e-07
-5.2007e-07
-5.16602e-07
-5.16076e-07
-5.40633e-07
-5.40483e-07
-5.41089e-07
-5.43229e-07
-5.43733e-07
-5.43783e-07
-5.43213e-07
-5.39335e-07
-5.4004e-07
-5.41153e-07
-5.44311e-07
-5.4836e-07
-5.4836e-07
-5.4836e-07
-5.4836e-07
-5.39932e-07
-5.41931e-07
-5.43226e-07
-5.4836e-07
-5.4836e-07
-5.4836e-07
-5.4836e-07
-5.4836e-07
-5.4836e-07
-5.38417e-07
-5.38913e-07
-5.40636e-07
-5.43715e-07
-5.4836e-07
-5.4836e-07
-5.4836e-07
-5.4836e-07
-5.4836e-07
-5.4836e-07
-5.38833e-07
-5.40475e-07
-5.4048e-07
-5.43768e-07
-5.4836e-07
-5.4836e-07
-5.4836e-07
-5.4836e-07
-5.4836e-07
-5.4836e-07
-5.39383e-07
-5.43301e-07
-5.4321e-07
-5.4836e-07
-5.4836e-07
-5.4836e-07
-5.4836e-07
-5.4836e-07
-5.4836e-07
-5.38517e-07
-5.39811e-07
-5.39313e-07
-5.39926e-07
-5.4836e-07
-5.4836e-07
-5.4836e-07
-5.4836e-07
-5.37394e-07
-5.39969e-07
-5.39294e-07
-5.40004e-07
-5.41938e-07
-5.38388e-07
-5.38807e-07
-5.39354e-07
-5.38529e-07
-5.39972e-07
-5.38579e-07
-5.38891e-07
-5.40463e-07
-5.43271e-07
-5.39804e-07
-5.39278e-07
-5.63833e-07
-5.63683e-07
-5.64289e-07
-5.66424e-07
-5.66933e-07
-5.66981e-07
-5.66417e-07
-5.62565e-07
-5.63251e-07
-5.64355e-07
-5.67515e-07
-5.71561e-07
-5.71562e-07
-5.71562e-07
-5.71561e-07
-5.63131e-07
-5.65134e-07
-5.66428e-07
-5.71562e-07
-5.71561e-07
-5.71562e-07
-5.71562e-07
-5.71561e-07
-5.7156e-07
-5.61617e-07
-5.62114e-07
-5.63838e-07
-5.66917e-07
-5.71562e-07
-5.71562e-07
-5.71562e-07
-5.71562e-07
-5.71561e-07
-5.71561e-07
-5.62033e-07
-5.63676e-07
-5.63682e-07
-5.6697e-07
-5.71562e-07
-5.71562e-07
-5.71562e-07
-5.71562e-07
-5.71562e-07
-5.71562e-07
-5.62584e-07
-5.66502e-07
-5.66411e-07
-5.71562e-07
-5.71562e-07
-5.71562e-07
-5.71562e-07
-5.71562e-07
-5.71562e-07
-5.61718e-07
-5.63013e-07
-5.62515e-07
-5.63128e-07
-5.71562e-07
-5.71562e-07
-5.71562e-07
-5.71562e-07
-5.60595e-07
-5.63171e-07
-5.62495e-07
-5.63206e-07
-5.6514e-07
-5.6159e-07
-5.62008e-07
-5.62555e-07
-5.6173e-07
-5.63173e-07
-5.6178e-07
-5.62093e-07
-5.63664e-07
-5.66473e-07
-5.63005e-07
-5.62479e-07
-5.87035e-07
-5.86886e-07
-5.87495e-07
-5.89627e-07
-5.90118e-07
-5.90186e-07
-5.89617e-07
-5.85737e-07
-5.86447e-07
-5.8756e-07
-5.90717e-07
-5.94763e-07
-5.94764e-07
-5.94764e-07
-5.94764e-07
-5.86335e-07
-5.88334e-07
-5.89628e-07
-5.94763e-07
-5.94763e-07
-5.94764e-07
-5.94764e-07
-5.94764e-07
-5.94764e-07
-5.8482e-07
-5.85316e-07
-5.8704e-07
-5.9012e-07
-5.94764e-07
-5.94764e-07
-5.94764e-07
-5.94764e-07
-5.94764e-07
-5.94763e-07
-5.85235e-07
-5.86878e-07
-5.86884e-07
-5.90174e-07
-5.94764e-07
-5.94764e-07
-5.94764e-07
-5.94764e-07
-5.94764e-07
-5.94764e-07
-5.85786e-07
-5.89704e-07
-5.89613e-07
-5.94764e-07
-5.94764e-07
-5.94764e-07
-5.94764e-07
-5.94764e-07
-5.94764e-07
-5.84919e-07
-5.86214e-07
-5.85717e-07
-5.86329e-07
-5.94763e-07
-5.94764e-07
-5.94763e-07
-5.94763e-07
-5.83796e-07
-5.86372e-07
-5.85697e-07
-5.86407e-07
-5.88342e-07
-5.84791e-07
-5.85209e-07
-5.85756e-07
-5.84932e-07
-5.86375e-07
-5.84981e-07
-5.85294e-07
-5.86866e-07
-5.89674e-07
-5.86207e-07
-5.85681e-07
-6.10237e-07
-6.10087e-07
-6.10696e-07
-6.1283e-07
-6.1332e-07
-6.13387e-07
-6.12818e-07
-6.08937e-07
-6.09646e-07
-6.1076e-07
-6.1392e-07
-6.17966e-07
-6.17966e-07
-6.17965e-07
-6.17965e-07
-6.09536e-07
-6.11536e-07
-6.12833e-07
-6.17966e-07
-6.17966e-07
-6.17965e-07
-6.17965e-07
-6.17965e-07
-6.17965e-07
-6.08023e-07
-6.08517e-07
-6.10243e-07
-6.13322e-07
-6.17966e-07
-6.17966e-07
-6.17965e-07
-6.17965e-07
-6.17965e-07
-6.17965e-07
-6.08437e-07
-6.10079e-07
-6.10087e-07
-6.13375e-07
-6.17966e-07
-6.17966e-07
-6.17965e-07
-6.17965e-07
-6.17965e-07
-6.17965e-07
-6.08987e-07
-6.12906e-07
-6.12816e-07
-6.17966e-07
-6.17966e-07
-6.17965e-07
-6.17965e-07
-6.17965e-07
-6.17965e-07
-6.08121e-07
-6.09416e-07
-6.08919e-07
-6.09532e-07
-6.17965e-07
-6.17965e-07
-6.17965e-07
-6.17965e-07
-6.06998e-07
-6.09574e-07
-6.08898e-07
-6.0961e-07
-6.11544e-07
-6.07993e-07
-6.08411e-07
-6.08958e-07
-6.08134e-07
-6.09576e-07
-6.08183e-07
-6.08496e-07
-6.10068e-07
-6.12876e-07
-6.09408e-07
-6.08883e-07
-6.33437e-07
-6.33287e-07
-6.33905e-07
-6.3603e-07
-6.36521e-07
-6.36589e-07
-6.36022e-07
-6.32137e-07
-6.32846e-07
-6.33963e-07
-6.37123e-07
-6.41174e-07
-6.41167e-07
-6.41167e-07
-6.41167e-07
-6.32737e-07
-6.34737e-07
-6.36035e-07
-6.41166e-07
-6.41165e-07
-6.41166e-07
-6.41166e-07
-6.41166e-07
-6.41166e-07
-6.31224e-07
-6.31718e-07
-6.33448e-07
-6.36526e-07
-6.41167e-07
-6.41167e-07
-6.41167e-07
-6.41167e-07
-6.41167e-07
-6.41166e-07
-6.31638e-07
-6.33281e-07
-6.33293e-07
-6.36582e-07
-6.41167e-07
-6.41167e-07
-6.41167e-07
-6.41167e-07
-6.41167e-07
-6.41167e-07
-6.32188e-07
-6.36107e-07
-6.36018e-07
-6.41167e-07
-6.41167e-07
-6.41167e-07
-6.41167e-07
-6.41167e-07
-6.41167e-07
-6.31322e-07
-6.32617e-07
-6.32121e-07
-6.32733e-07
-6.41167e-07
-6.41167e-07
-6.41167e-07
-6.41167e-07
-6.30199e-07
-6.32775e-07
-6.32099e-07
-6.32811e-07
-6.34746e-07
-6.31194e-07
-6.31612e-07
-6.32159e-07
-6.31336e-07
-6.32778e-07
-6.31385e-07
-6.31698e-07
-6.33269e-07
-6.36078e-07
-6.3261e-07
-6.32084e-07
-6.56641e-07
-6.56491e-07
-6.57107e-07
-6.59235e-07
-6.59726e-07
-6.59792e-07
-6.59224e-07
-6.55331e-07
-6.56042e-07
-6.57166e-07
-6.60327e-07
-6.64378e-07
-6.64373e-07
-6.64374e-07
-6.6437e-07
-6.55939e-07
-6.57938e-07
-6.59238e-07
-6.64371e-07
-6.6437e-07
-6.6437e-07
-6.64369e-07
-6.64369e-07
-6.64368e-07
-6.54424e-07
-6.54919e-07
-6.56648e-07
-6.59726e-07
-6.6437e-07
-6.6437e-07
-6.6437e-07
-6.64369e-07
-6.64369e-07
-6.64368e-07
-6.54839e-07
-6.56483e-07
-6.56491e-07
-6.5978e-07
-6.6437e-07
-6.6437e-07
-6.64369e-07
-6.64369e-07
-6.64369e-07
-6.64368e-07
-6.5539e-07
-6.59309e-07
-6.5922e-07
-6.6437e-07
-6.64369e-07
-6.64369e-07
-6.64369e-07
-6.64369e-07
-6.64368e-07
-6.54523e-07
-6.55818e-07
-6.55323e-07
-6.55935e-07
-6.64369e-07
-6.64369e-07
-6.64369e-07
-6.64369e-07
-6.534e-07
-6.55977e-07
-6.55301e-07
-6.56013e-07
-6.57947e-07
-6.54396e-07
-6.54814e-07
-6.55361e-07
-6.54537e-07
-6.55979e-07
-6.54586e-07
-6.549e-07
-6.56471e-07
-6.59279e-07
-6.55812e-07
-6.55286e-07
-6.79847e-07
-6.79695e-07
-6.80308e-07
-6.82446e-07
-6.82932e-07
-6.82998e-07
-6.82428e-07
-6.78536e-07
-6.79246e-07
-6.80367e-07
-6.83528e-07
-6.87576e-07
-6.87573e-07
-6.87572e-07
-6.87571e-07
-6.79142e-07
-6.8114e-07
-6.82439e-07
-6.87572e-07
-6.87571e-07
-6.87571e-07
-6.87571e-07
-6.87571e-07
-6.8757e-07
-6.77622e-07
-6.78112e-07
-6.79849e-07
-6.82927e-07
-6.87572e-07
-6.87571e-07
-6.87571e-07
-6.87571e-07
-6.87571e-07
-6.8757e-07
-6.78036e-07
-6.79681e-07
-6.79692e-07