/*--------------------------------*- C++ -*----------------------------------*\
| =========                 |                                                 |
| \\      /  F ield         | OpenFOAM: The Open Source CFD Toolbox           |
|  \\    /   O peration     | Version:  v1906                                 |
|   \\  /    A nd           | Web:      www.OpenFOAM.com                      |
|    \\/     M anipulation  |                                                 |
\*---------------------------------------------------------------------------*/
FoamFile
{
    version     2.0;
    format      ascii;
    class       volScalarField;
    location    "800";
    object      nut;
}
// * * * * * * * * * * * * * * * * * * * * * * * * * * * * * * * * * * * * * //

dimensions      [0 2 -1 0 0 0 0];


internalField   nonuniform List<scalar> 
42840
(
0.000203424
0.00019875
0.000198742
0.000180601
0.000181558
0.000180604
0.000181544
0.000198719
0.000198719
0.000199777
0.000199776
0.000180686
0.000181476
0.000198735
0.000198708
0.000199792
0.000199765
0.000198725
0.000199807
0.000199782
0.000180674
0.000181465
0.000198739
0.0001998
0.000199797
0.00018154
0.000200127
0.000200142
9.97143e-05
5.07129e-05
5.0724e-05
9.96517e-05
2.38792e-05
2.38836e-05
9.97232e-05
5.07125e-05
5.07188e-05
9.96626e-05
0.00020343
0.000203429
0.000203438
0.000205316
0.000205321
0.00020532
0.000205328
0.000143714
0.000103352
0.000207734
0.000199106
0.000103438
0.000208201
0.0001435
2.3877e-05
2.38814e-05
0.0001437
0.000207731
0.000103355
0.000199099
0.000208199
0.000103439
0.000143506
7.78115e-05
7.78116e-05
0.000181062
7.78393e-05
7.78369e-05
7.78742e-05
7.78737e-05
2.38798e-05
2.38842e-05
2.38785e-05
2.38829e-05
7.78141e-05
7.78101e-05
0.000181066
7.78414e-05
7.78363e-05
2.38888e-05
2.38845e-05
2.38875e-05
2.38832e-05
0.000181076
7.7872e-05
7.78677e-05
7.78465e-05
7.7843e-05
9.97173e-05
5.07146e-05
5.07243e-05
9.96549e-05
0.000143698
0.000103352
0.00020772
0.000199076
0.000103437
0.000208187
0.000143504
0.0001437
0.00010335
0.000207722
0.000199075
0.000103435
0.000208189
0.000143506
9.9714e-05
5.07342e-05
5.07234e-05
9.97738e-05
9.97172e-05
5.0734e-05
5.07238e-05
9.9777e-05
0.000143721
0.00019943
0.000103515
0.000209106
0.000103435
0.000208652
0.000143904
0.000143723
0.000199429
0.000103514
0.000209108
0.000103432
0.000208654
0.000143907
7.7811e-05
7.78058e-05
0.000181001
7.78371e-05
7.78355e-05
2.38797e-05
2.38842e-05
2.38882e-05
2.38838e-05
0.000181159
7.78679e-05
7.78662e-05
7.78435e-05
7.78382e-05
2.38888e-05
2.38843e-05
0.000143702
0.000103345
0.000207724
0.000199091
0.00010343
0.000208187
0.000143509
9.97191e-05
5.07082e-05
5.07147e-05
9.96584e-05
0.000143698
0.000207718
0.000103332
0.000199064
0.000208185
0.000103417
0.000143504
9.97246e-05
5.07297e-05
5.07225e-05
9.97828e-05
0.000143726
0.000199446
0.000103509
0.000209106
0.000103427
0.000208656
0.000143909
9.97206e-05
5.0725e-05
5.07186e-05
9.97787e-05
0.000143721
0.000199418
0.000209104
0.000103495
0.00020865
0.000103414
0.000143905
9.97217e-05
5.07125e-05
5.07238e-05
9.9653e-05
0.000143702
0.00020773
0.000103351
0.000199082
0.000208197
0.000103435
0.000143506
9.97159e-05
5.07115e-05
5.07178e-05
9.96531e-05
0.000143717
0.000199461
0.000103516
0.000209119
0.000103434
0.000208665
0.000143922
9.97152e-05
5.07334e-05
5.0723e-05
9.97815e-05
0.000143722
0.000199435
0.000209116
0.000103513
0.000208661
0.000103433
0.000143908
9.97153e-05
5.07281e-05
5.07218e-05
9.97756e-05
7.77944e-05
7.78144e-05
0.00018099
7.78241e-05
7.78401e-05
2.3879e-05
2.38833e-05
2.3886e-05
2.38817e-05
0.000181148
7.78548e-05
7.78709e-05
7.78268e-05
7.7847e-05
2.38879e-05
2.38837e-05
0.000143703
0.000207732
0.00010335
0.000199096
0.000208199
0.000103435
0.000143509
9.97148e-05
5.07089e-05
5.07202e-05
9.96516e-05
9.97207e-05
5.07117e-05
5.07182e-05
9.9659e-05
0.000143723
0.000199453
0.000209118
0.000103518
0.000208663
0.000103437
0.000143907
0.000143726
0.00019945
0.000209118
0.000103513
0.000208663
0.000103432
0.00014391
9.9714e-05
5.07298e-05
5.07196e-05
9.97744e-05
9.97214e-05
5.07291e-05
5.0722e-05
9.97803e-05
2.38787e-05
2.3883e-05
2.38783e-05
2.38826e-05
0.000181072
7.787e-05
7.78683e-05
7.78441e-05
7.78441e-05
2.38876e-05
2.38833e-05
2.38872e-05
2.38829e-05
0.000209568
0.000103511
0.000143933
5.07321e-05
9.97752e-05
0.000103511
5.07296e-05
2.38879e-05
2.38875e-05
3.66972e-05
4.10372e-05
9.43504e-05
9.96836e-05
4.10373e-05
9.43246e-05
3.66961e-05
2.03077e-05
5.07188e-05
7.89833e-05
7.89943e-05
2.03056e-05
2.03075e-05
7.90066e-05
5.07183e-05
7.89956e-05
2.03097e-05
3.66925e-05
9.96836e-05
4.10328e-05
9.42997e-05
4.1033e-05
9.43263e-05
3.66936e-05
2.38812e-05
2.38815e-05
3.66989e-05
9.43645e-05
4.1037e-05
9.96942e-05
9.43403e-05
4.10369e-05
3.6698e-05
2.0309e-05
5.07139e-05
7.90017e-05
7.90199e-05
2.03069e-05
2.03088e-05
7.90321e-05
5.07176e-05
7.90137e-05
2.03109e-05
3.66943e-05
9.96929e-05
9.43157e-05
4.10325e-05
9.43409e-05
4.10329e-05
3.66953e-05
2.38791e-05
2.38793e-05
8.14456e-05
2.17029e-05
2.16999e-05
2.17009e-05
2.16979e-05
8.14523e-05
0.000105059
0.000128363
7.78232e-05
4.86258e-05
0.000128425
4.86333e-05
0.000105034
0.000105065
0.000128346
7.78207e-05
4.86203e-05
0.000128411
4.86203e-05
0.000105045
0.000105067
4.8638e-05
7.78281e-05
0.000128498
0.000128437
4.86308e-05
0.000105091
0.000105078
4.86251e-05
7.78281e-05
0.000128484
0.00012842
4.86249e-05
0.000105098
8.1442e-05
2.1699e-05
2.1696e-05
2.1701e-05
2.1698e-05
8.14353e-05
0.000105185
0.000128651
4.86445e-05
7.78856e-05
0.000105161
0.000128708
4.8653e-05
0.000105192
0.000128633
4.8635e-05
7.78836e-05
0.000105169
0.000128693
4.86431e-05
8.14822e-05
2.17064e-05
2.17035e-05
8.14749e-05
2.17085e-05
2.17055e-05
2.38819e-05
2.38821e-05
2.38806e-05
2.38809e-05
8.14447e-05
2.17029e-05
2.16996e-05
2.17008e-05
2.16976e-05
8.14519e-05
0.000105063
0.000128364
7.78251e-05
4.86264e-05
4.86337e-05
0.000128429
0.000105038
0.000105065
0.000128346
7.78206e-05
4.8615e-05
4.86224e-05
0.00012841
0.000105041
0.000105072
4.86385e-05
7.78305e-05
0.000128502
4.86314e-05
0.000105095
0.000128438
0.000105074
4.86271e-05
7.78269e-05
0.000128483
4.862e-05
0.000105097
0.00012842
8.14415e-05
2.1699e-05
2.16957e-05
2.1701e-05
2.16977e-05
8.14343e-05
2.38868e-05
2.38865e-05
2.38855e-05
2.38852e-05
8.14621e-05
2.17027e-05
2.16995e-05
8.14549e-05
2.17047e-05
2.17015e-05
0.000105135
0.000128643
7.7862e-05
4.8648e-05
4.86407e-05
0.000128582
0.000105157
0.000105137
0.000128624
7.78584e-05
4.86357e-05
4.86297e-05
0.000128563
0.000105159
0.000105126
4.86362e-05
0.00012851
7.78569e-05
0.000105104
4.86429e-05
0.000128573
0.000105128
4.86249e-05
0.000128492
7.78521e-05
0.000105106
4.86313e-05
0.000128554
8.14647e-05
2.17066e-05
2.17033e-05
2.17046e-05
2.17013e-05
8.1472e-05
3.6699e-05
4.10373e-05
9.43639e-05
9.96866e-05
4.10374e-05
9.43393e-05
3.6698e-05
2.03087e-05
5.07182e-05
7.9003e-05
7.90218e-05
2.03066e-05
2.03085e-05
7.90339e-05
5.07183e-05
7.90152e-05
2.03106e-05
3.66943e-05
9.96866e-05
4.10329e-05
9.43144e-05
4.10332e-05
9.43397e-05
3.66954e-05
3.66998e-05
4.10413e-05
9.43487e-05
9.97448e-05
3.67008e-05
4.10416e-05
9.43747e-05
2.03114e-05
5.07284e-05
7.90299e-05
2.03135e-05
7.90189e-05
2.03116e-05
7.90075e-05
5.07289e-05
2.03095e-05
7.90183e-05
3.67047e-05
9.97441e-05
4.10456e-05
9.43978e-05
3.67036e-05
4.10456e-05
9.43726e-05
3.67017e-05
4.10414e-05
9.43636e-05
9.97479e-05
3.67025e-05
4.10417e-05
9.43884e-05
2.03123e-05
5.0729e-05
7.90572e-05
7.90387e-05
2.03144e-05
2.03125e-05
7.90272e-05
5.07291e-05
2.03104e-05
7.90456e-05
3.67065e-05
9.97474e-05
4.10457e-05
9.44118e-05
4.10457e-05
9.43875e-05
3.67055e-05
8.14455e-05
2.17003e-05
2.17029e-05
2.16983e-05
2.17009e-05
8.14516e-05
0.000105065
0.000128347
7.78207e-05
4.86208e-05
4.86207e-05
0.000128407
0.000105046
0.000105061
0.000128372
7.78192e-05
4.86294e-05
0.000128427
4.86295e-05
0.000105042
0.000105078
4.86255e-05
7.78275e-05
0.00012848
4.86255e-05
0.000128421
0.000105098
0.000105074
4.86341e-05
7.78224e-05
0.000128501
0.000128446
4.86342e-05
0.000105094
8.14411e-05
2.16964e-05
2.1699e-05
2.16984e-05
2.1701e-05
8.1435e-05
2.38819e-05
2.3882e-05
2.38862e-05
2.38859e-05
8.14618e-05
2.17002e-05
2.17028e-05
8.14555e-05
2.17022e-05
2.17048e-05
0.000105142
0.000128621
7.7859e-05
4.8635e-05
0.000128564
4.86353e-05
0.000105161
0.000105137
0.000128642
7.78536e-05
4.86435e-05
4.86439e-05
0.000128589
0.000105157
0.000105129
4.86304e-05
0.000128493
7.78526e-05
0.000128551
0.00010511
4.86307e-05
0.000105126
4.86389e-05
0.000128518
7.78508e-05
0.000105106
4.86392e-05
0.000128571
8.14655e-05
2.1704e-05
2.17066e-05
2.1702e-05
2.17046e-05
8.14717e-05
2.38867e-05
2.38865e-05
3.66964e-05
4.10368e-05
9.43477e-05
9.969e-05
4.10367e-05
9.4322e-05
3.66953e-05
2.03073e-05
5.07096e-05
7.89784e-05
7.89892e-05
2.03052e-05
2.03071e-05
7.90012e-05
5.07133e-05
7.89906e-05
2.03092e-05
3.66917e-05
9.96885e-05
4.10323e-05
9.4297e-05
4.10327e-05
9.43236e-05
3.66928e-05
3.67017e-05
9.43645e-05
4.1041e-05
9.9754e-05
3.67025e-05
9.43892e-05
4.10414e-05
2.03126e-05
5.07277e-05
7.90554e-05
2.03147e-05
7.90371e-05
2.03128e-05
7.90257e-05
5.07244e-05
2.03107e-05
7.90439e-05
3.67065e-05
9.97548e-05
9.44122e-05
4.10455e-05
3.67055e-05
9.43883e-05
4.10454e-05
3.6699e-05
4.10408e-05
9.43462e-05
9.97497e-05
3.67e-05
4.10411e-05
9.43722e-05
2.03109e-05
5.07238e-05
7.90247e-05
7.90141e-05
2.0313e-05
2.03111e-05
7.90025e-05
5.07202e-05
2.0309e-05
7.90133e-05
3.67038e-05
9.97507e-05
4.10453e-05
9.43953e-05
4.10452e-05
9.43701e-05
3.6703e-05
3.66957e-05
9.43708e-05
4.10399e-05
9.96841e-05
9.43365e-05
4.10335e-05
3.67026e-05
2.03095e-05
5.07186e-05
7.90042e-05
7.90237e-05
2.03074e-05
2.03093e-05
7.90357e-05
5.07178e-05
7.90163e-05
2.03114e-05
3.66988e-05
9.96908e-05
9.43125e-05
4.10295e-05
9.43466e-05
4.10355e-05
3.66917e-05
3.66973e-05
4.10398e-05
9.43555e-05
9.96847e-05
4.10335e-05
9.4331e-05
3.66966e-05
2.03082e-05
5.07127e-05
7.89839e-05
7.90027e-05
2.03061e-05
2.03081e-05
7.90146e-05
5.07166e-05
7.89962e-05
2.03101e-05
3.66928e-05
9.96853e-05
4.10295e-05
9.43063e-05
4.10354e-05
9.43315e-05
3.66938e-05
3.67063e-05
9.43613e-05
4.10381e-05
9.9752e-05
3.66995e-05
9.4395e-05
4.10441e-05
2.03131e-05
5.07281e-05
7.90587e-05
7.904e-05
2.03152e-05
2.03133e-05
7.90283e-05
5.07285e-05
2.03112e-05
7.90473e-05
3.67032e-05
9.97455e-05
9.44187e-05
4.10486e-05
9.43852e-05
4.10424e-05
3.67097e-05
3.67004e-05
4.1038e-05
9.43551e-05
9.97465e-05
3.67006e-05
4.1044e-05
9.43799e-05
2.03119e-05
5.0727e-05
7.90377e-05
7.90199e-05
2.03139e-05
2.0312e-05
7.90083e-05
5.07233e-05
2.031e-05
7.90263e-05
3.67041e-05
9.97453e-05
4.10484e-05
9.44032e-05
4.10423e-05
9.43789e-05
3.67051e-05
8.14454e-05
2.16993e-05
2.17027e-05
2.16972e-05
2.17007e-05
8.14524e-05
0.000105057
0.000128339
7.78078e-05
4.86143e-05
4.86218e-05
0.000128393
0.000105038
0.000105058
0.000128367
7.78236e-05
4.86304e-05
0.00012843
4.86302e-05
0.000105039
0.00010507
4.86266e-05
7.7811e-05
0.000128466
4.86193e-05
0.000128414
0.00010509
0.000105072
4.8635e-05
7.78309e-05
0.000128503
0.000128441
4.8635e-05
0.000105091
8.14421e-05
2.16954e-05
2.16988e-05
2.16974e-05
2.17008e-05
8.14349e-05
2.3881e-05
2.38813e-05
2.3884e-05
2.38837e-05
8.14625e-05
2.16991e-05
2.17026e-05
8.14556e-05
2.17011e-05
2.17046e-05
0.000105133
0.000128607
7.78421e-05
4.86358e-05
0.000128557
4.86284e-05
0.000105153
0.000105135
0.000128644
7.78624e-05
4.86445e-05
4.86448e-05
0.000128584
0.000105154
0.000105122
4.8624e-05
0.000128486
7.78394e-05
0.000128537
0.000105102
4.8631e-05
0.000105123
4.864e-05
0.000128513
7.78557e-05
0.000105104
4.86402e-05
0.000128574
8.14656e-05
2.1703e-05
2.17065e-05
2.1701e-05
2.17045e-05
8.14723e-05
2.38859e-05
2.38857e-05
3.66935e-05
9.4352e-05
4.104e-05
9.96833e-05
9.43257e-05
4.10334e-05
3.67006e-05
2.03085e-05
5.07148e-05
7.89843e-05
7.9003e-05
2.03064e-05
2.03083e-05
7.90151e-05
5.07142e-05
7.89965e-05
2.03104e-05
3.66968e-05
9.96843e-05
9.43007e-05
4.10295e-05
9.43281e-05
4.10356e-05
3.66897e-05
3.66952e-05
9.43583e-05
4.10403e-05
9.96906e-05
9.43316e-05
4.10339e-05
3.67024e-05
2.03089e-05
5.07131e-05
7.89984e-05
7.90093e-05
2.03068e-05
2.03087e-05
7.90216e-05
5.07168e-05
7.90107e-05
2.03108e-05
3.66985e-05
9.96899e-05
9.43066e-05
4.10299e-05
9.43341e-05
4.10359e-05
3.66914e-05
3.67044e-05
9.43501e-05
4.1038e-05
9.97457e-05
3.66974e-05
9.43767e-05
4.10443e-05
2.03121e-05
5.07248e-05
7.90382e-05
7.90202e-05
2.03142e-05
2.03123e-05
7.90085e-05
5.07249e-05
2.03102e-05
7.90268e-05
3.67009e-05
9.9744e-05
9.43996e-05
4.10485e-05
9.43738e-05
4.10421e-05
3.6708e-05
3.67061e-05
9.43559e-05
4.10384e-05
9.97513e-05
3.66991e-05
9.43827e-05
4.10446e-05
2.03125e-05
5.07271e-05
7.9045e-05
7.90341e-05
2.03146e-05
2.03127e-05
7.90226e-05
5.07238e-05
2.03106e-05
7.90333e-05
3.67027e-05
9.97513e-05
9.44058e-05
4.10488e-05
9.43797e-05
4.10425e-05
3.67094e-05
2.38807e-05
2.3881e-05
2.38802e-05
2.38806e-05
8.14626e-05
2.17027e-05
2.16998e-05
8.14556e-05
2.17048e-05
2.17018e-05
0.00010513
0.000128639
7.78594e-05
4.86472e-05
0.000105154
0.000128581
4.86401e-05
0.000105139
0.000128625
7.78595e-05
4.86365e-05
0.000105162
0.000128564
4.8633e-05
0.000105124
4.86356e-05
0.00012851
7.78547e-05
0.000105099
0.000128569
4.86423e-05
0.000105131
4.86298e-05
0.000128493
7.78527e-05
0.000105109
0.000128555
4.86306e-05
8.14654e-05
2.17066e-05
2.17036e-05
8.14725e-05
2.17046e-05
2.17016e-05
2.38856e-05
2.38853e-05
2.38852e-05
2.38849e-05
2.03158e-05
7.9031e-05
5.07327e-05
2.03138e-05
7.90488e-05
3.67104e-05
9.98037e-05
4.10461e-05
9.44026e-05
3.67057e-05
4.1053e-05
9.44253e-05
5.07359e-05
2.38899e-05
2.38895e-05
0.000199186
0.000199184
0.000204061
0.000199996
0.000199994
0.000189283
0.00018826
0.000137903
0.000160891
0.000160888
0.000180823
0.000160989
0.000160972
0.000137856
0.000138243
0.000161531
0.000161516
0.000181781
0.000138198
0.000161622
0.000161607
0.000137907
0.000160902
0.000160891
0.000180828
0.000160986
0.000160975
0.000137858
0.000138118
0.000181321
0.000161457
0.000161444
0.000161377
0.000161361
0.00013816
0.000137905
0.00016091
0.000160929
0.000180762
0.000160981
0.000160962
0.000137866
0.000138124
0.000181406
0.000161436
0.000161455
0.000161378
0.000161398
0.000138163
0.000137895
0.000160891
0.000160921
0.000180751
0.000160976
0.000160946
0.000137859
0.000138117
0.000181395
0.000161425
0.000161444
0.00016137
0.000161387
0.000138153
0.000138115
0.000181319
0.000161457
0.000161445
0.00013816
0.000161376
0.000161359
0.000199187
0.000199192
0.000204066
0.000199997
0.000200002
0.000189286
0.000188263
0.000199191
0.000199197
0.000204065
0.000200001
0.000200007
0.000189292
0.000188269
0.000199201
0.000199199
0.000204073
0.00020001
0.000200009
0.000189295
0.000188272
0.000204693
0.000201599
0.000201597
0.000200802
0.0002008
0.000190305
0.000191323
0.000204699
0.0002016
0.000201605
0.000200803
0.000200808
0.000190307
0.000191325
0.000204697
0.000201604
0.00020161
0.000200807
0.000200812
0.000190313
0.000191331
0.000204706
0.000201612
0.000201612
0.000200816
0.000200815
0.000190317
0.000191334
0.000170418
0.000137234
0.000175655
0.000143609
0.000137136
0.00017552
0.000170557
0.000159997
0.000146885
0.000103397
0.000122358
0.000146962
0.000122426
0.000159863
0.000160019
0.000122492
0.000103393
0.000147085
0.000147011
0.000122423
0.00016016
0.000170342
0.000143606
0.000137045
0.000175289
0.000137142
0.000175425
0.00017022
0.00017044
0.000175596
0.000137213
0.000143617
0.000175582
0.000137139
0.00017051
0.000159946
0.0001469
0.000103398
0.000122355
0.000146938
0.000122416
0.000159909
0.000160066
0.000122482
0.000103396
0.000147063
0.000147026
0.000122422
0.000160101
0.000170314
0.000143593
0.000175346
0.000137046
0.000175368
0.000137122
0.000170236
0.000137945
0.000180842
0.00016115
0.00016113
0.000161055
0.000161045
0.000137991
0.000137946
0.000180845
0.000161151
0.000161131
0.000137993
0.000161054
0.000161047
0.000138077
0.000181298
0.000161212
0.000161202
0.000138033
0.0001613
0.000161286
0.000170431
0.000137206
0.000175588
0.000143615
0.000137133
0.000175576
0.000170478
0.000159932
0.000146893
0.000103397
0.000122345
0.000122409
0.00014693
0.000159896
0.000160053
0.000122474
0.000103394
0.000147055
0.000122413
0.000147018
0.000160088
0.000170276
0.000143591
0.00013704
0.000175341
0.000137115
0.000175361
0.00017023
0.000170426
0.000137214
0.000175589
0.000143616
0.00013714
0.000175574
0.000170509
0.000159931
0.000146881
0.000103394
0.000122349
0.000122414
0.000146918
0.00015989
0.00016005
0.00012248
0.000103392
0.000147043
0.000122418
0.00016009
0.000147006
0.000170308
0.000143592
0.000137046
0.00017534
0.000137123
0.000175363
0.000170219
0.000170685
0.000137225
0.000175787
0.000143803
0.000170634
0.000137298
0.000175802
0.000160371
0.000147296
0.000103475
0.000122602
0.000147261
0.000122544
0.000160395
0.000160239
0.000122478
0.000147138
0.000103477
0.000147177
0.000160213
0.00012254
0.000170833
0.000143825
0.000137386
0.000176007
0.000137315
0.000176002
0.000170882
0.000170701
0.000137232
0.000175788
0.000143806
0.000170628
0.000137306
0.000175804
0.000160369
0.000147284
0.000103472
0.000122609
0.000122549
0.000147252
0.000160396
0.000160241
0.000122483
0.000147127
0.000103475
0.000160211
0.000122546
0.000147165
0.000170828
0.000143827
0.000137395
0.000176009
0.000137322
0.000176003
0.000170891
0.000137953
0.000180923
0.000161113
0.000161132
0.000161079
0.00016106
0.000137993
0.000138078
0.000181245
0.000161224
0.000161242
0.000161279
0.00013804
0.000161297
0.000170434
0.000137216
0.000175591
0.000143619
0.000137142
0.000175577
0.000170503
0.000159935
0.000146881
0.00010339
0.00012235
0.000122414
0.000146918
0.000159896
0.000160054
0.00012248
0.000103386
0.000147044
0.000122418
0.000147007
0.000160092
0.000170308
0.000143595
0.00013705
0.000175342
0.000137126
0.000175364
0.00017023
0.000170424
0.000175586
0.000137202
0.000143614
0.000175572
0.000137128
0.000170491
0.000159917
0.000146868
0.000103376
0.000122335
0.000122395
0.000146904
0.000159881
0.000160038
0.000122462
0.000103374
0.000147029
0.000122402
0.000160074
0.000146993
0.000170296
0.00014359
0.000175338
0.000137035
0.00017536
0.00013711
0.00017022
0.000170697
0.000137235
0.000175789
0.000143809
0.000170635
0.000137309
0.000175805
0.000160372
0.000147285
0.000103466
0.000122609
0.000147253
0.00012255
0.000160397
0.000160242
0.000122483
0.000147128
0.00010347
0.000147166
0.000160214
0.000122546
0.000170834
0.00014383
0.000137396
0.000176011
0.000137325
0.000176005
0.000170891
0.000170686
0.000175785
0.00013722
0.000143803
0.000170625
0.0001758
0.000137294
0.000160356
0.00014728
0.000103454
0.00012259
0.000122534
0.000147238
0.000160384
0.000160225
0.000122468
0.000147113
0.000103456
0.000160198
0.000122528
0.000147152
0.000170823
0.000143825
0.000176006
0.000137382
0.000176
0.00013731
0.000170884
0.000170439
0.00017559
0.000137211
0.000143616
0.000175572
0.000137137
0.00017048
0.000159936
0.000146893
0.000103394
0.000122351
0.00014693
0.00012241
0.0001599
0.000160057
0.000122477
0.000103393
0.000147056
0.000147018
0.000122417
0.000160091
0.000170281
0.000143596
0.000175337
0.000137045
0.00017537
0.00013712
0.000170238
0.000170768
0.000137229
0.000175733
0.000143819
0.000170602
0.000137325
0.000175868
0.000160312
0.000147321
0.000103473
0.000122621
0.000160489
0.000147261
0.000122554
0.000160327
0.00012249
0.000147132
0.000103477
0.000160172
0.000147203
0.000122557
0.000170772
0.000143822
0.000137414
0.000176084
0.000170965
0.000137319
0.00017595
0.00017069
0.000175788
0.000137229
0.000143807
0.000170639
0.000175808
0.000137303
0.000160374
0.000147296
0.000103473
0.000122606
0.000122548
0.000147261
0.000160401
0.000160241
0.000122483
0.000147139
0.000103475
0.000160216
0.000122542
0.000147177
0.000170836
0.000143828
0.000176016
0.000137391
0.000176002
0.000137319
0.000170889
0.000137946
0.000180912
0.000161108
0.00016113
0.000161072
0.000161052
0.000137983
0.000138068
0.000181234
0.000161205
0.00016123
0.000161261
0.000138033
0.00016129
0.000170436
0.000175596
0.000137214
0.000143619
0.000175581
0.000137139
0.000170506
0.000159934
0.000146885
0.000103394
0.000122347
0.000146923
0.000122412
0.000159897
0.000160054
0.000122479
0.000103391
0.000147048
0.00014701
0.000122415
0.000160091
0.00017031
0.000143595
0.000175348
0.000137046
0.000175369
0.000137122
0.000170233
0.000170704
0.000175794
0.000137232
0.000143806
0.000170642
0.00017581
0.000137306
0.000160383
0.000147303
0.000103476
0.000122611
0.000160407
0.00014727
0.000122553
0.000160251
0.000122488
0.000147146
0.000103479
0.000160226
0.000147185
0.000122548
0.000170841
0.000143827
0.000176016
0.000137394
0.000170898
0.00017601
0.000137322
0.000170701
0.000175794
0.000137231
0.000143808
0.000170638
0.00017581
0.000137306
0.000160373
0.000147296
0.000103472
0.000122607
0.000122546
0.000147256
0.000160397
0.000160242
0.00012248
0.000147131
0.000103474
0.000160214
0.000122544
0.00014717
0.000170837
0.00014383
0.000176016
0.000137394
0.000176009
0.000137322
0.000170894
0.000138077
0.000181293
0.000161211
0.0001612
0.00013803
0.0001613
0.000161285
0.000160551
0.00014738
0.000122611
0.000103551
0.000147408
0.000160529
0.000122666
0.00017108
0.000144008
0.000176227
0.000137409
0.000176221
0.000171023
0.000137476
0.000147365
0.00010355
0.000147395
0.000123041
0.000139423
0.000139423
0.000137099
0.000125839
0.000142546
0.00014255
0.000139558
0.000128795
0.000145637
0.000145637
0.000141951
0.00013189
0.000148683
0.000148681
0.000144266
0.000135102
0.000151678
0.000151676
0.000146536
0.000138412
0.000154617
0.000154615
0.00014873
0.000141799
0.000157495
0.000157493
0.00015093
0.000145247
0.000160311
0.00016031
0.000153099
0.000148738
0.000163062
0.000163062
0.000155132
0.000152256
0.000165748
0.000165747
0.00015711
0.000155789
0.000168367
0.000168365
0.000159036
0.000159322
0.000170916
0.000170914
0.000160893
0.000162842
0.000173396
0.000173392
0.000162693
0.000166337
0.000175803
0.000175799
0.000164438
0.000169798
0.000178138
0.000178133
0.00016611
0.000173215
0.000180398
0.000180393
0.00016775
0.000176581
0.000182583
0.000182577
0.000169295
0.000179886
0.000184691
0.000184684
0.000170796
0.000183124
0.000186722
0.000186715
0.000172247
0.000186289
0.000188676
0.000188668
0.00017362
0.000189373
0.000190551
0.000190544
0.000174938
0.000192372
0.000192348
0.000192341
0.000176216
0.00019528
0.000194067
0.000194059
0.000177436
0.000198094
0.000195706
0.000195698
0.000178579
0.00020081
0.000197267
0.000197259
0.000179642
0.000137314
0.000139113
0.000139412
0.000139412
0.000141758
0.000141757
0.000137278
0.000139248
0.000139422
0.000139405
0.000141767
0.000141751
0.000139429
0.000141769
0.000141775
0.000137115
0.000139251
0.000139437
0.000141771
0.000141783
0.000139266
0.000139653
0.000141491
0.000142536
0.000142535
0.000144853
0.000144855
0.000139564
0.000141646
0.000142546
0.000142531
0.000144863
0.000144849
0.000142553
0.000144869
0.000144871
0.000139573
0.000141523
0.000142562
0.000144869
0.000144879
0.00014163
0.000142063
0.00014392
0.000145622
0.000145624
0.000147908
0.000147912
0.000141944
0.000143988
0.000145633
0.000145616
0.000147919
0.000147903
0.000145639
0.000147926
0.000147926
0.000142015
0.000143909
0.000145647
0.000147925
0.000147933
0.000143979
0.000144354
0.000146196
0.000148665
0.000148669
0.000150915
0.000150919
0.000144271
0.000146267
0.000148676
0.00014866
0.000150926
0.000150911
0.000148683
0.000150934
0.000150932
0.00014434
0.000146164
0.00014869
0.000150933
0.000150939
0.000146262
0.000146631
0.000148364
0.00015166
0.000151663
0.000153869
0.000153872
0.000146564
0.000148477
0.000151671
0.000151654
0.000153879
0.000153863
0.000151676
0.000153888
0.000153885
0.000146611
0.000148387
0.000151683
0.000153886
0.000153892
0.00014848
0.000148842
0.00015052
0.000154598
0.000154601
0.000156762
0.000156765
0.00014877
0.000150642
0.000154608
0.000154592
0.000156772
0.000156756
0.000154614
0.000156781
0.000156778
0.000148858
0.000150557
0.000154622
0.00015678
0.000156785
0.000150586
0.000151015
0.000152658
0.000157476
0.000157478
0.000159593
0.000159596
0.000150942
0.000152755
0.000157486
0.00015747
0.000159603
0.000159588
0.000157491
0.000159613
0.000159609
0.000150979
0.000152656
0.000157498
0.000159612
0.000159617
0.000152696
0.000153084
0.000154714
0.000160292
0.000160293
0.000162361
0.000162363
0.000153026
0.000154807
0.000160302
0.000160286
0.00016237
0.000162356
0.000160307
0.000162381
0.000162377
0.000153096
0.000154717
0.000160315
0.00016238
0.000162385
0.000154736
0.000155124
0.000156714
0.000163043
0.000163044
0.000165063
0.000165064
0.000155065
0.000156791
0.000163053
0.000163037
0.000165072
0.000165058
0.000163058
0.000165083
0.000165079
0.000155112
0.000156719
0.000163066
0.000165082
0.000165087
0.000156717
0.000157094
0.00015866
0.000165728
0.000165729
0.000167697
0.000167699
0.000157028
0.000158691
0.000165738
0.000165722
0.000167707
0.000167692
0.000165743
0.000167719
0.000167713
0.000157096
0.000158657
0.000165751
0.000167717
0.000167721
0.000158683
0.000159013
0.000160547
0.000168346
0.000168346
0.000170264
0.000170264
0.000159016
0.000160543
0.000168356
0.000168339
0.000170274
0.000170258
0.00016836
0.000170286
0.000170278
0.000159021
0.000160544
0.000168369
0.000170283
0.000170287
0.00016057
0.000160889
0.00016237
0.000170895
0.000170895
0.000172759
0.000172761
0.000160882
0.000162395
0.000170905
0.000170888
0.00017277
0.000172753
0.000170908
0.000172783
0.000172774
0.000160878
0.000162341
0.000170917
0.000172779
0.000172782
0.000162375
0.000162687
0.000164159
0.000173372
0.000173373
0.000175184
0.000175185
0.000162682
0.000164128
0.000173383
0.000173365
0.000175195
0.000175176
0.000173386
0.000175208
0.000175197
0.0001627
0.000164151
0.000173395
0.000175204
0.000175206
0.000164159
0.000164415
0.000165887
0.000175779
0.000175779
0.000177536
0.000177536
0.000164434
0.000165813
0.00017579
0.000175771
0.000177547
0.000177528
0.000175792
0.000177561
0.000177548
0.00016442
0.000165842
0.000175801
0.000177556
0.000177557
0.000165827
0.000166083
0.000167529
0.000178113
0.000178113
0.000179814
0.000179815
0.000166126
0.000167477
0.000178124
0.000178104
0.000179825
0.000179806
0.000178124
0.00017984
0.000179825
0.000166101
0.000167465
0.000178133
0.000179835
0.000179835
0.000167455
0.000167704
0.000169095
0.000180372
0.000180372
0.000182018
0.000182018
0.000167735
0.000169085
0.000180383
0.000180363
0.000182028
0.000182009
0.000180383
0.000182044
0.000182027
0.000167733
0.00016907
0.000180392
0.000182038
0.000182038
0.000169053
0.000169264
0.00017061
0.000182556
0.000182556
0.000184144
0.000184144
0.000169298
0.000170587
0.000182567
0.000182547
0.000184155
0.000184134
0.000182566
0.000184171
0.000184154
0.000169289
0.000170556
0.000182576
0.000184164
0.000184165
0.000170589
0.000170774
0.000172057
0.000184664
0.000184664
0.000186194
0.000186195
0.000170798
0.000172037
0.000184675
0.000184654
0.000186205
0.000186184
0.000184673
0.000186221
0.000186204
0.000170798
0.000172033
0.000184684
0.000186215
0.000186215
0.00017202
0.000172223
0.00017343
0.000186695
0.000186695
0.000188166
0.000188167
0.000172243
0.00017345
0.000186706
0.000186684
0.000188177
0.000188156
0.000186704
0.000188195
0.000188176
0.000172224
0.000173453
0.000186715
0.000188187
0.000188187
0.000173422
0.000173612
0.000174773
0.000188647
0.000188648
0.000190061
0.000190062
0.00017362
0.000174783
0.000188659
0.000188637
0.000190073
0.00019005
0.000188657
0.000190089
0.00019007
0.000173598
0.000174766
0.000188667
0.000190082
0.000190081
0.000174765
0.000174928
0.000176066
0.000190522
0.000190523
0.000191877
0.000191878
0.000174937
0.000176042
0.000190535
0.000190512
0.00019189
0.000191867
0.000190531
0.000191906
0.000191886
0.000174928
0.000176033
0.000190542
0.000191898
0.000191897
0.000176019
0.000176182
0.000177293
0.000192319
0.000192319
0.000193615
0.000193615
0.000176208
0.000177236
0.000192333
0.000192308
0.000193628
0.000193604
0.000192327
0.000193644
0.000193623
0.000176198
0.000177225
0.000192339
0.000193636
0.000193635
0.000177219
0.000177365
0.000178454
0.000194037
0.000194037
0.000195273
0.000195274
0.000177427
0.000178384
0.000194051
0.000194026
0.000195287
0.000195262
0.000194045
0.000195303
0.000195281
0.000177415
0.000178372
0.000194057
0.000195295
0.000195294
0.000178373
0.000178503
0.00017955
0.000195676
0.000195676
0.000196854
0.000196854
0.000178581
0.000179484
0.000195691
0.000195665
0.000196868
0.000196843
0.000195684
0.000196884
0.000196861
0.000178569
0.000179472
0.000195697
0.000196876
0.000196875
0.000179475
0.000179585
0.000180581
0.000197237
0.000197236
0.000198355
0.000198354
0.000179663
0.000180514
0.000197252
0.000197225
0.00019837
0.000198343
0.000197244
0.000198385
0.000198361
0.000179651
0.000180503
0.000197257
0.000198378
0.000198375
0.000180577
9.22974e-05
5.00206e-05
5.00301e-05
9.20716e-05
2.36123e-05
2.36167e-05
9.23035e-05
5.0019e-05
5.0028e-05
9.20797e-05
0.000123042
0.000123044
0.000123059
0.000125123
0.000125124
0.000125127
0.000125142
0.000122009
9.38499e-05
0.000134859
0.000140207
9.41201e-05
0.000135727
0.000121369
2.36101e-05
2.36147e-05
0.000122001
0.000134874
9.38319e-05
0.000140208
0.000135742
9.41386e-05
0.00012137
7.37696e-05
7.37663e-05
0.000138065
7.38683e-05
7.38703e-05
9.27721e-05
5.00504e-05
9.2555e-05
5.006e-05
2.36217e-05
2.36263e-05
9.27808e-05
5.00477e-05
9.25614e-05
5.00571e-05
0.000125839
0.000125842
0.000125857
0.000128042
0.000128043
0.000128047
0.000128062
0.000123322
9.44553e-05
0.000138359
0.000143323
0.000122705
9.47145e-05
0.000139237
2.36197e-05
2.36244e-05
0.000123314
0.000138374
9.44435e-05
0.000143326
0.000122706
0.000139251
9.47315e-05
7.40336e-05
7.40304e-05
0.000140453
7.41276e-05
7.41308e-05
9.32337e-05
5.00802e-05
9.30206e-05
5.009e-05
2.36316e-05
2.36363e-05
9.32381e-05
5.00773e-05
9.30292e-05
5.00871e-05
0.000128796
0.0001288
0.000128815
0.000131104
0.000131106
0.00013111
0.000131125
0.000124589
9.50352e-05
0.000141889
0.000146403
0.000123995
9.52928e-05
0.000142772
2.36295e-05
2.36344e-05
0.00012458
0.000141904
9.50229e-05
0.000146403
0.000123995
0.000142786
9.53069e-05
7.42886e-05
7.42857e-05
0.000142829
7.4377e-05
7.43808e-05
9.36755e-05
5.01103e-05
9.34616e-05
5.01202e-05
2.36417e-05
2.36466e-05
9.36718e-05