/*--------------------------------*- C++ -*----------------------------------*\
| =========                 |                                                 |
| \\      /  F ield         | OpenFOAM: The Open Source CFD Toolbox           |
|  \\    /   O peration     | Version:  v1906                                 |
|   \\  /    A nd           | Web:      www.OpenFOAM.com                      |
|    \\/     M anipulation  |                                                 |
\*---------------------------------------------------------------------------*/
FoamFile
{
    version     2.0;
    format      ascii;
    class       surfaceScalarField;
    location    "800";
    object      phi;
}
// * * * * * * * * * * * * * * * * * * * * * * * * * * * * * * * * * * * * * //

dimensions      [0 3 -1 0 0 0 0];
oriented        oriented;


internalField   nonuniform List<scalar> 
123680
(
1.19282e-07
1.19614e-07
-7.10462e-08
-7.10305e-08
0.00118432
-0.00118442
-1.19694e-06
-1.19589e-07
-4.87262e-08
0.0011323
-2.3428e-07
1.2413e-06
2.72182e-07
9.11202e-07
-2.12675e-07
2.66432e-07
-8.53002e-07
-0.00113233
-1.19152e-06
-1.19743e-07
-4.85061e-08
0.00113194
-2.34323e-07
1.23579e-06
2.72167e-07
9.11073e-07
-2.15349e-07
2.69176e-07
-8.52853e-07
-0.00113196
1.22563e-06
1.19159e-06
-1.9823e-07
-2.03608e-07
0.000268069
-0.000270084
-0.00027009
1.22522e-06
1.19118e-06
-1.98044e-07
-2.03415e-07
0.000268075
1.23097e-06
1.19432e-06
-1.95699e-07
-2.03532e-07
0.000268075
-0.000270101
-1.2751e-06
-1.23852e-06
-0.000268079
2.39192e-07
2.47061e-07
0.000270107
-4.85184e-08
0.00113147
-2.39839e-07
1.2752e-06
2.77527e-07
9.11142e-07
-2.12704e-07
2.66372e-07
-8.53029e-07
-0.00113149
-1.23647e-06
-1.19287e-07
-4.84328e-08
0.00113191
-2.42702e-07
1.28068e-06
2.80354e-07
9.16676e-07
-2.15515e-07
2.69145e-07
-8.58538e-07
-0.00113194
-1.21347e-07
-0.00113142
-4.93518e-08
-1.23066e-06
2.7743e-07
-2.39645e-07
-8.52699e-07
2.66328e-07
-2.12475e-07
9.11151e-07
0.00113139
1.28058e-06
-1.21354e-07
-0.00113186
-4.92846e-08
-1.23616e-06
2.80261e-07
-2.42504e-07
-8.58223e-07
2.69088e-07
-2.15292e-07
9.16685e-07
0.00113184
-1.98385e-07
-2.00853e-07
0.000268097
-0.000270131
-1.2412e-06
-0.000268101
2.41998e-07
2.44307e-07
0.000270136
-4.86188e-08
0.00113257
-2.37185e-07
1.23861e-06
2.75041e-07
9.13967e-07
-2.15467e-07
2.69214e-07
-8.55702e-07
-0.0011326
-1.23101e-06
-1.19231e-07
-4.85388e-08
0.00113157
-2.4268e-07
1.27526e-06
2.80368e-07
9.13808e-07
-2.15437e-07
2.69093e-07
-8.55698e-07
-0.0011316
-1.21673e-07
-0.00113252
-4.94354e-08
-1.194e-06
2.74954e-07
-2.36988e-07
-8.5539e-07
2.69155e-07
-2.15244e-07
9.13973e-07
0.0011325
1.27515e-06
-1.21292e-07
-0.00113152
-4.93539e-08
-1.2307e-06
2.80274e-07
-2.42489e-07
-8.5538e-07
2.69045e-07
-2.15213e-07
9.13824e-07
0.0011315
-1.19472e-07
-4.83055e-08
0.00113136
-2.37085e-07
1.26974e-06
2.747e-07
9.1118e-07
-2.12655e-07
2.66396e-07
-8.53017e-07
-0.00113139
-1.2165e-07
-0.00113225
-4.95615e-08
-1.19662e-06
2.7209e-07
-2.34082e-07
-8.52674e-07
2.66381e-07
9.11201e-07
-2.12454e-07
0.00113223
1.26963e-06
0.00113129
-1.21519e-07
-0.00113131
-4.91512e-08
-1.22531e-06
2.74599e-07
-2.36887e-07
-8.52687e-07
2.6635e-07
-2.1243e-07
9.13856e-07
-1.95779e-07
-2.034e-07
0.000268056
-0.000270079
-1.23569e-06
-0.00026806
2.3932e-07
2.46892e-07
0.000270085
-1.196e-07
-4.87913e-08
0.00113247
-2.3436e-07
1.23596e-06
2.72334e-07
9.11329e-07
-2.1545e-07
2.6918e-07
-8.53086e-07
-0.0011325
-1.21772e-07
-0.00113189
-4.93342e-08
-1.1912e-06
2.72076e-07
-2.34126e-07
-8.52481e-07
2.69085e-07
9.11128e-07
-2.15156e-07
0.00113186
1.23586e-06
0.0011324
-1.21636e-07
-0.00113242
-4.9639e-08
-1.19126e-06
2.72239e-07
-2.3416e-07
-8.52769e-07
2.6914e-07
-2.15231e-07
9.11331e-07
-0.000268073
2.418e-07
2.47024e-07
-4.94375e-08
-2.36847e-07
1.26962e-06
2.74576e-07
9.13846e-07
-2.12367e-07
2.66323e-07
-8.55264e-07
-1.22197e-07
-2.34116e-07
1.23584e-06
2.72211e-07
-2.15165e-07
2.69104e-07
-1.22317e-07
-4.99206e-08
9.11329e-07
-8.52677e-07
-1.3184e-10
-7.0174e-08
0.000229293
3.21286e-08
2.17617e-09
-0.000229257
-5.19022e-09
2.24484e-08
0.000193524
-3.59433e-09
-0.000193538
6.83413e-09
-4.36641e-08
0.000193578
3.29961e-09
-0.000193544
1.12766e-10
2.8731e-08
0.000229237
-1.32103e-08
9.15784e-10
-0.000229254
5.1571e-09
1.11847e-08
9.79802e-05
-9.79966e-05
-6.75762e-09
-2.00712e-08
9.80176e-05
-9.79907e-05
-7.02525e-08
-2.50625e-10
0.000229321
2.20153e-09
3.00685e-08
-0.000229283
-5.1424e-09
2.47103e-08
0.000193545
-4.19261e-09
-0.000193561
6.83055e-09
-4.59508e-08
0.0001936
3.87604e-09
-0.000193565
2.88198e-08
1.91964e-10
0.000229263
9.22031e-10
-1.11586e-08
-0.000229282
-7.10211e-08
-7.10598e-08
0.00118432
-0.00118442
-7.12022e-08
-7.10042e-08
0.00118391
-0.001184
-7.10623e-08
-7.12626e-08
0.00118413
-0.00118423
-0.00118413
-7.35189e-08
-7.35213e-08
0.00118404
-0.00118413
-7.35115e-08
-7.35532e-08
0.00118403
-0.00118371
-7.36503e-08
-7.34735e-08
0.00118362
-0.00118394
-7.35248e-08
-7.37635e-08
0.00118384
7.01819e-08
-1.71276e-09
0.000250197
4.09306e-09
-1.93116e-07
-0.000250076
-9.69528e-09
-2.46789e-08
6.64369e-08
0.0002454
4.02756e-09
-0.000245436
0.00115244
3.48253e-09
-1.40098e-07
1.00836e-06
-7.57688e-07
8.30701e-07
-9.36861e-07
-0.00115249
-4.90061e-08
1.24127e-06
0.00113228
-1.20304e-07
-8.52876e-07
2.66417e-07
-2.12595e-07
9.11209e-07
-1.19682e-06
2.72146e-07
-2.34207e-07
2.0756e-08
4.58988e-08
0.000245474
-1.67124e-08
-0.000245419
-1.0503e-07
-3.86062e-09
0.00115239
-1.41615e-07
-9.36613e-07
8.30796e-07
-7.57438e-07
1.00844e-06
-2.87491e-08
1.55593e-09
0.000250063
1.97968e-09
1.32641e-07
-0.00025017
5.20633e-09
1.34193e-08
9.79615e-05
-9.79802e-05
-6.79344e-09
-2.23111e-08
9.80011e-05
-9.7972e-05
-1.27089e-09
7.00992e-08
0.000250159
-1.93037e-07
4.03328e-09
-0.000250039
0.00115213
3.78566e-09
-1.40226e-07
1.00279e-06
-7.52142e-07
8.2519e-07
-9.31249e-07
-0.00115219
-9.86926e-09
-2.24841e-08
6.64949e-08
0.000245343
4.16888e-09
-0.000245382
-4.87926e-08
1.23576e-06
0.00113191
-1.2045e-07
-8.52683e-07
2.69135e-07
-2.15287e-07
9.11143e-07
-1.19139e-06
2.72137e-07
-2.34245e-07
-3.45095e-09
0.00115209
-1.41732e-07
-9.31009e-07
8.25274e-07
-7.519e-07
1.00287e-06
2.08337e-08
4.3764e-08
0.00024542
-1.67228e-08
-0.000245362
-1.05159e-07
1.34237e-09
-2.86771e-08
0.000250026
1.32556e-07
1.84591e-09
-0.000250133
1.23598e-08
-1.111e-08
2.47704e-08
0.000278125
-7.11277e-09
-0.000278144
1.22484e-08
-1.11498e-08
2.25485e-08
0.000278073
-7.47529e-09
-0.000278089
-1.26971e-06
-1.23593e-06
0.000270087
-0.00026807
2.41935e-07
2.47154e-07
-2.30821e-08
2.00604e-08
0.000278195
9.83845e-09
-0.000278151
-5.10314e-08
-2.33065e-08
1.98947e-08
0.000278139
1.05996e-08
-0.000278098
-4.86574e-08
-0.000278245
1.22359e-08
-1.12451e-08
2.48488e-08
-6.95109e-09
0.000278227
-0.00027819
1.2153e-08
-1.12623e-08
2.26119e-08
-7.35006e-09
0.000278174
1.11109e-08
9.79781e-05
-9.79944e-05
-1.99559e-08
9.80154e-05
-9.79887e-05
1.11687e-08
9.79773e-05
-9.79936e-05
-1.99702e-08
9.80146e-05
-9.79878e-05
9.90007e-09
2.25217e-08
0.000278123
-7.51581e-09
-0.000278137
1.22814e-08
2.25435e-08
0.00027808
-7.5077e-09
-0.000278096
0.000270104
-1.27517e-06
-1.23858e-06
-0.000268076
2.39319e-07
2.47189e-07
0.000278188
-2.0801e-08
1.04123e-08
-0.000278149
-4.86877e-08
0.000278147
-2.32566e-08
1.05464e-08
-0.000278105
-4.8728e-08
-1.98496e-08
-6.87964e-09
-9.80096e-05
9.80363e-05
1.1169e-08
5.12807e-09
9.79991e-05
-1.98673e-08
-6.86733e-09
-9.80088e-05
9.80355e-05
1.12261e-08
5.08126e-09
9.79983e-05
1.23075e-06
1.19409e-06
0.000268078
-1.95585e-07
-2.03419e-07
-2.08141e-08
-4.85776e-08
-0.000278199
1.04617e-08
0.000278239
-2.32694e-08
-4.8618e-08
-0.000278156
1.05972e-08
0.000278197
9.84164e-09
-7.44377e-09
2.25472e-08
0.000278174
1.22263e-08
-7.44086e-09
2.25671e-08
0.000278131
-7.01962e-08
0.000229329
3.21404e-08
2.20363e-09
-0.000229293
2.25511e-08
0.000193559
-3.70005e-09
-0.000193573
-4.37938e-08
0.000193613
3.4738e-09
-0.000193579
2.87601e-08
0.000229274
-1.32295e-08
8.4638e-10
-0.00022929
-1.44126e-09
0.000250171
3.61188e-09
-1.95699e-07
-0.000250048
6.41016e-08
0.000245343
4.18967e-09
-0.000245379
0.00115251
3.57794e-09
-1.39947e-07
1.00836e-06
-7.57671e-07
8.30673e-07
-9.36855e-07
-0.00115257
-4.88046e-08
0.00113144
-1.19992e-07
-1.23086e-06
2.77492e-07
-2.39773e-07
-8.52904e-07
2.66359e-07
-2.12618e-07
9.11161e-07
0.000245417
-1.67557e-08
-0.000245362
-1.02644e-07
-3.6718e-09
0.00115247
-1.4146e-07
-9.36603e-07
8.30763e-07
-7.57425e-07
1.00843e-06
1.43595e-09
0.000250034
2.32787e-09
1.35219e-07
-0.000250145
0.000250199
4.54904e-09
-1.95726e-07
-0.000250079
-1.22831e-08
6.65769e-08
0.000245357
4.16813e-09
-0.000245392
0.00115267
-1.39936e-07
1.01127e-06
-7.57791e-07
8.30775e-07
-9.39745e-07
-0.00115272
-4.87354e-08
0.00113189
1.28065e-06
-1.19997e-07
-8.58415e-07
2.69132e-07
9.16687e-07
-2.1543e-07
-1.23636e-06
2.80315e-07
-2.4263e-07
0.00024543
2.30843e-08
-1.66512e-08
-0.000245376
-1.0513e-07
0.00115261
-1.41444e-07
-9.39513e-07
8.30866e-07
-7.57541e-07
1.01135e-06
0.000250066
1.36385e-09
1.35266e-07
-0.000250172
1.12864e-10
2.86388e-08
-1.31904e-08
9.30076e-10
0.000229276
-4.35852e-08
-0.000193584
3.23255e-09
0.000193617
2.24588e-08
-3.66435e-09
0.000193564
-1.31649e-10
-7.01551e-08
-0.000229296
3.20949e-08
2.18719e-09
0.000229332
2.86678e-08
-1.32093e-08
8.59755e-10
0.000229313
-4.3724e-08
6.80431e-09
-0.000193619
3.40854e-09
0.000193652
2.25646e-08
-5.10218e-09
-3.76256e-09
0.000193599
-7.01753e-08
-0.000229332
3.21061e-08
2.21226e-09
0.000229368
1.43426e-09
2.34979e-09
1.34958e-07
0.000250061
-4.91187e-08
-1.20744e-07
1.27513e-06
-2.39708e-07
2.77469e-07
9.11163e-07
-2.12535e-07
2.6635e-07
-8.52802e-07
-1.02558e-07
-0.000245401
-1.67645e-08
0.000245456
-0.00115241
-3.6616e-09
-1.44394e-07
-9.36181e-07
8.30931e-07
-7.56955e-07
1.00855e-06
0.00115236
4.13632e-09
6.40398e-08
0.000245382
3.58885e-09
-1.43011e-07
1.00849e-06
-7.57182e-07
-9.36408e-07
8.30842e-07
-1.4424e-09
-0.000250074
3.62363e-09
-1.95736e-07
0.000250198
1.38302e-09
1.35005e-07
0.000250092
-4.90337e-08
-1.23624e-06
-1.20755e-07
9.16697e-07
-2.15348e-07
-8.58319e-07
2.69125e-07
1.28062e-06
-2.42559e-07
2.80292e-07
2.30883e-08
-1.05038e-07
-0.000245414
-1.66642e-08
0.000245469
-0.00115257
-1.44376e-07
-9.39099e-07
8.31031e-07
-7.57073e-07
1.01148e-06
0.00115251
-1.22287e-08
4.11714e-09
6.65148e-08
0.000245395
-1.43003e-07
1.01143e-06
-7.57303e-07
-9.39311e-07
8.30943e-07
-0.000250106
4.55721e-09
-1.95761e-07
0.000250225
2.25872e-08
0.00027807
-1.01574e-08
-0.000278083
-1.34953e-08
2.24687e-08
0.000278174
-1.00435e-08
-0.000278182
0.000270133
-0.000268098
2.42122e-07
2.44435e-07
0.000278134
1.29452e-08
-0.000278095
-4.87773e-08
2.22254e-08
0.000278233
1.31564e-08
-0.000278199
-4.85827e-08
5.0978e-09
9.79829e-05
-9.80015e-05
9.80225e-05
-6.85865e-09
-9.79935e-05
-1.99642e-08
-9.80117e-05
9.80384e-05
1.1238e-08
9.80012e-05
1.19671e-06
0.000268099
-1.98267e-07
-2.00738e-07
-4.86677e-08
-0.000278146
1.29905e-08
0.000278185
2.21158e-08
-2.07662e-08
-4.84727e-08
-0.00027825
1.3207e-08
0.000278284
-1.00914e-08
2.26057e-08
0.00027812
-1.35517e-08
9.63609e-09
-9.97209e-09
2.24899e-08
0.000278224
-6.9076e-09
-9.80144e-05
9.80434e-05
5.03776e-09
9.8004e-05
-1.80822e-09
0.000250184
4.06315e-09
-1.90548e-07
-0.000250066
6.41019e-08
0.000245359
4.10447e-09
-0.00024539
0.00115239
3.6724e-09
-1.39998e-07
1.00834e-06
-7.54989e-07
8.30732e-07
-9.34137e-07
-0.00115245
-4.88789e-08
0.00113255
-1.20334e-07
-1.1942e-06
2.75013e-07
-2.37108e-07
-8.55583e-07
2.69203e-07
-2.15379e-07
9.13979e-07
0.000245428
-1.6713e-08
-0.000245378
-1.02698e-07
-3.70632e-09
0.00115235
-1.41577e-07
-9.36604e-07
8.28095e-07
-7.57463e-07
1.00572e-06
1.75183e-09
0.000250053
1.91263e-09
1.30079e-07
-0.000250158
-7.02375e-08
0.000229285
3.00484e-08
2.03327e-09
-0.000229247
2.46612e-08
0.000193492
-3.69156e-09
-0.000193508
-4.59108e-08
0.000193548
3.50506e-09
-0.000193512
2.88109e-08
0.000229228
-1.11401e-08
9.77368e-10
-0.000229246
0.000250153
-1.9314e-07
4.22539e-09
-0.000250036
0.00115236
-1.3996e-07
1.00837e-06
-7.57756e-07
8.30746e-07
-9.36865e-07
-0.00115241
-1.22422e-08
6.40667e-08
0.00024529
6.56142e-09
-0.000245324
-4.88362e-08
0.00113154
1.27523e-06
-1.19944e-07
-8.55574e-07
2.69076e-07
9.13818e-07
-2.15353e-07
-1.23089e-06
2.80344e-07
-2.42606e-07
0.00115231
-1.4148e-07
-9.36636e-07
8.30832e-07
-7.57508e-07
1.00845e-06
0.000245362
2.30461e-08
-1.90358e-08
-0.000245309
-1.02616e-07
0.000250023
1.32686e-07
1.64974e-09
-0.000250126
2.87293e-08
1.909e-10
9.34544e-10
-1.11401e-08
0.000229302
-4.58589e-08
-0.000193605
3.81227e-09
0.00019364
2.47187e-08
-4.2611e-09
0.000193585
-7.02281e-08
-2.516e-10
-0.000229322
2.21235e-09
3.00257e-08
0.00022936
1.74702e-09
1.93438e-09
1.29821e-07
0.000250079
-4.92283e-08
-1.21064e-07
1.23855e-06
-2.37044e-07
2.7499e-07
9.13986e-07
-2.15303e-07
2.6919e-07
-8.55484e-07
-1.026e-07
-0.000245416
-1.67267e-08
0.000245466
-0.00115229
-3.72792e-09
-1.44502e-07
-9.36167e-07
8.28255e-07
-7.56998e-07
1.00584e-06
0.00115224
4.04749e-09
6.40412e-08
0.000245397
3.65315e-09
-1.43062e-07
1.00849e-06
-7.54504e-07
-9.33697e-07
8.30895e-07
-1.81373e-09
-0.000250092
4.07886e-09
-1.90578e-07
0.00025021
2.87198e-08
-1.11209e-08
9.87794e-10
0.000229267
-4.58353e-08
6.83862e-09
-0.000193552
3.43849e-09
0.000193587
2.46683e-08
-5.14541e-09
-3.75894e-09
0.000193532
-7.02126e-08
-0.000229286
3.00058e-08
2.04145e-09
0.000229324
1.32428e-07
1.66238e-09
0.000250049
-4.91154e-08
-1.23079e-06
-1.20695e-07
9.13826e-07
-2.15269e-07
-8.55476e-07
2.69061e-07
1.27519e-06
-2.4254e-07
2.80306e-07
-0.00115226
-1.44408e-07
-9.36206e-07
8.30992e-07
-7.57043e-07
1.00858e-06
0.0011522
2.30627e-08
-1.02531e-07
-0.000245347
-1.90507e-08
0.0002454
-1.43027e-07
1.00852e-06
-7.5727e-07
-9.36424e-07
8.30909e-07
-1.21902e-08
6.5111e-09
6.40022e-08
0.000245328
-0.000250062
-1.93169e-07
4.22861e-09
0.000250179
-2.22367e-10
0.000229328
2.24451e-09
3.21348e-08
-0.000229292
0.000193557
-3.84466e-09
-0.000193572
0.000193612
3.42686e-09
-0.000193577
7.65236e-11
0.000229272
9.63276e-10
-1.32262e-08
-0.000229289
7.01578e-08
0.000250166
-1.90522e-07
4.22983e-09
-0.000250051
0.00115237
-1.40132e-07
1.00569e-06
-7.57712e-07
8.30742e-07
-9.34111e-07
-0.00115242
-2.24564e-08
6.40599e-08
0.000245336
4.27395e-09
-0.00024537
-4.86068e-08
0.00113134
-1.20173e-07
-1.22551e-06
2.74667e-07
-2.37019e-07
-8.5289e-07
2.6638e-07
-2.12571e-07
9.11193e-07
0.00115231
-1.41635e-07
-9.33886e-07
8.30829e-07
-7.57465e-07
1.00575e-06
4.37469e-08
0.000245408
-1.66634e-08
-0.000245356
-1.02667e-07
-2.87257e-08
0.000250038
1.30052e-07
1.55062e-09
-0.00025014
0.000229292
3.21189e-08
2.1415e-09
-0.000229256
-5.20212e-09
0.000193505
-3.5987e-09
-0.000193519
0.000193559
6.73296e-09
3.49872e-09
-0.000193525
0.000229237
-1.32122e-08
7.80513e-10
-0.000229253
-2.86581e-08
1.55287e-09
1.99493e-09
1.32383e-07
0.000250089
-4.93324e-08
-1.21049e-07
1.24124e-06
-2.34134e-07
2.7212e-07
9.11212e-07
-2.12515e-07
-8.52771e-07
2.66403e-07
4.58318e-08
-1.04944e-07
-0.000245458
-1.67272e-08
0.000245513
-0.00115233
-5.0473e-09
-1.44542e-07
-9.36189e-07
8.30948e-07
1.00857e-06
-7.56969e-07
0.00115229
-2.46902e-08
3.96743e-09
6.63776e-08
0.000245438
3.3257e-09
-1.43163e-07
1.0085e-06
-7.57202e-07
-9.36409e-07
8.30871e-07
7.01516e-08
-2.01782e-09
-0.000250103
4.33915e-09
-1.93139e-07
0.000250223
7.7934e-11
9.72054e-10
-1.32062e-08
0.000229311
-0.000193616
3.36378e-09
0.000193652
-3.91327e-09
0.000193596
-2.82159e-10
-0.000229331
2.25072e-09
3.20887e-08
0.000229367
-2.86378e-08
1.29792e-07
1.5766e-09
0.000250065
-4.89e-08
-1.2254e-06
-1.20928e-07
9.112e-07
-2.12487e-07
-8.52786e-07
2.66372e-07
1.26968e-06
-2.36955e-07
2.74642e-07
-0.00115226
0.0011522
-1.44562e-07
-9.33468e-07
8.30984e-07
-7.56999e-07
1.00859e-06
4.3667e-08
2.31033e-08
0.000245446
-1.0258e-07
-0.000245394
-1.66799e-08
-1.43193e-07
1.00581e-06
-7.57226e-07
-9.33676e-07
8.30906e-07
-2.24668e-08
-1.2297e-08
4.21427e-09
6.39999e-08
0.000245375
7.01307e-08
0.000250192
-0.000250078
-1.90549e-07
4.48257e-09
-1.31932e-08
7.9739e-10
0.000229276
6.78353e-09
0.000193598
-0.000193565
3.42565e-09
-5.13258e-09
-3.67677e-09
0.000193545
0.00022933
-0.000229295
3.20738e-08
2.15522e-09
2.47632e-08
0.000278034
-7.18288e-09
-0.00027805
-1.11757e-08
2.47922e-08
0.000278132
-6.91668e-09
-0.000278148
0.000270082
-0.000268057
2.39447e-07
2.47022e-07
0.000278101
1.00018e-08
-0.000278059
-5.09635e-08
1.9985e-08
0.000278199
9.96495e-09
-0.000278157
-5.09872e-08
5.14503e-09
9.79717e-05
-9.79881e-05
9.8009e-05
-6.81845e-09
-9.79822e-05
-2.22045e-08
-9.7993e-05
9.8022e-05
1.34755e-08
9.79825e-05
1.19128e-06
0.000268059
-1.9566e-07
-2.03293e-07
-5.0854e-08
-0.000278109
1.00548e-08
0.000278151
1.98699e-08
-2.08463e-08
-5.08694e-08
-0.000278208
1.00182e-08
0.000278249
-7.11528e-09
2.47822e-08
0.000278084
-1.12345e-08
9.80782e-09
-6.84287e-09
2.48178e-08
0.000278182
-6.87377e-09
-9.80032e-05
9.80299e-05
5.08405e-09
9.79927e-05
7.01358e-08
0.000250184
-1.90483e-07
4.80902e-09
-0.00025007
0.00115226
-1.40156e-07
1.00567e-06
-7.55003e-07
8.2802e-07
-9.34137e-07
-0.00115231
-2.24866e-08
6.65123e-08
0.000245352
4.1272e-09
-0.000245387
-4.90997e-08
0.00113244
-1.20299e-07
-1.19146e-06
2.72304e-07
-2.34285e-07
-8.52968e-07
2.69164e-07
-2.15365e-07
9.11338e-07
0.00115221
-1.41654e-07
-9.33909e-07
8.28105e-07
-7.54762e-07
1.00574e-06
4.37261e-08
0.000245425
-1.68023e-08
-0.000245371
-1.05112e-07
-2.87267e-08
0.000250057
1.3003e-07
1.21419e-09
-0.000250158
-7.6253e-11
0.000229284
2.20643e-09
3.20813e-08
-0.000229248
0.000193509
-3.6617e-09
-0.000193523
0.000193563
3.4096e-09
-0.000193529
1.44418e-10
0.000229229
8.16197e-10
-1.31838e-08
-0.000229245
0.00022932
2.17321e-09
2.99749e-08
-0.000229282
-5.1825e-09
0.000193546
-3.60143e-09
-0.000193559
0.000193599
6.92399e-09
3.23964e-09
-0.000193566
0.000229263
9.83117e-10
-1.10806e-08
-0.000229281
1.34261e-09
-2.8572e-08
1.32293e-07
1.8599e-09
0.000250052
-4.91093e-08
-1.21181e-07
1.23573e-06
-2.34183e-07
2.72111e-07
9.11084e-07
-2.15189e-07
-8.52633e-07
2.69148e-07
-0.00115203
-3.45032e-09
-1.44648e-07
-9.30573e-07
8.2543e-07
1.00298e-06
-7.51435e-07
0.00115198
4.36907e-08
-1.05062e-07
-0.000245401
-1.6745e-08
0.000245458
3.78221e-09
-1.43278e-07
1.00293e-06
-7.51658e-07
-9.30809e-07
8.25348e-07
-2.24987e-08
4.11047e-09
6.64378e-08
0.000245381
-1.27317e-09
7.00558e-08
-0.000250065
-1.93059e-07
4.05166e-09
0.000250186
-2.86188e-08
1.29763e-07
1.22891e-09
0.000250083
-4.93858e-08
-1.19136e-06
-1.21048e-07
9.11345e-07
-2.15281e-07
-8.5287e-07
2.6915e-07
1.2359e-06
-2.34222e-07
2.72281e-07
-0.00115216
-1.44568e-07
-9.33475e-07
8.28259e-07
-7.54297e-07
1.00586e-06
0.0011521
4.36378e-08
2.33201e-08
0.000245464
-1.05028e-07
-0.000245409
-1.68051e-08
-1.43214e-07
1.00582e-06
-7.54515e-07
-9.33703e-07
8.28179e-07
-2.2491e-08
-1.22003e-08
4.08148e-09
6.64471e-08
0.00024539
7.00909e-08
-0.000250097
-1.90503e-07
4.82073e-09
0.000250211
1.43883e-10
8.15118e-10
-1.31512e-08
0.000229268
-0.000193569
3.33392e-09
0.000193602
-3.73133e-09
0.000193549
-8.19768e-11
-0.000229287
2.23559e-09
3.20309e-08
0.000229323
9.7872e-10
-1.10452e-08
0.000229302
6.95695e-09
0.000193639
-0.000193605
3.18001e-09
-5.12857e-09
-3.65562e-09
0.000193585
-0.000229321
2.1915e-09
2.99224e-08
0.000229359
9.7971e-05
-9.79873e-05
9.80083e-05
-9.79815e-05
9.79752e-05
-9.79916e-05
9.80126e-05
-9.79858e-05
0.000268071
-1.98119e-07
-2.03493e-07
1.99474e-08
-5.09136e-08
-0.000278201
9.89468e-09
1.97977e-08
-4.85491e-08
-0.000278149
1.06372e-08
-1.11756e-08
-7.03383e-09
2.48016e-08
0.000278176
-1.12035e-08
-7.4133e-09
2.25701e-08
0.000278123
9.80292e-05
-9.80024e-05
9.7992e-05
9.80335e-05
-9.80067e-05
9.79963e-05
1.00865e-06
-7.56793e-07
8.3101e-07
-9.36026e-07
4.3873e-10
-1.45994e-07
-2.25001e-08
6.39714e-08
4.15571e-09
0.000245413
-2.85683e-08
0.000250088
1.29572e-07
2.80257e-09
-1.09707e-10
-5.07262e-09
-3.753e-09
0.000193584
0.000229314
-1.31791e-08
8.1748e-10
8.56993e-11
-2.25092e-08
6.64167e-08
0.000245428
4.02749e-09
-5.07588e-09
0.000193625
-3.71393e-09
9.80128e-05
9.80171e-05
-7.69208e-10
1.44e-08
0.000143282
-3.14621e-10
-0.000143295
-0.000171014
-3.29478e-10
-6.82116e-12
0.000171047
-0.000223249
3.09283e-08
4.35566e-09
0.000223285
-6.91974e-08
-1.31976e-08
9.19479e-10
-0.000229273
-3.38153e-11
2.86864e-08
-0.000171028
-2.414e-11
8.26235e-10
-0.000223265
3.05492e-08
1.63059e-09
0.00014331
-2.65841e-08
-7.92063e-05
7.92345e-05
-1.61546e-09
3.33408e-09
0.000193558
6.80777e-09
-4.36972e-08
0.000263067
-1.9075e-08
-8.08822e-10
3.06423e-08
-0.000263081
0.000263107
-4.34689e-09
-5.92369e-08
3.39891e-10
-7.92258e-05
1.90929e-08
7.92151e-05
-0.000263093
2.65411e-08
0.000263133
-5.91975e-08
-3.63024e-09
-5.15793e-09
2.24507e-08
3.0642e-08
7.92433e-05
3.35115e-10
-3.09431e-08
-0.000143266
3.21528e-08
2.17176e-09
1.48639e-11
-7.01922e-08
0.000170996
7.5949e-10
-1.39598e-11
-0.000171009
0.000223229
-1.44157e-08
3.05986e-08
-0.000223245
3.51393e-12
-6.9216e-08
-0.000143279
9.80071e-05
-6.72982e-09
-2.01251e-08
5.12702e-09
1.12112e-08
1.24247e-08
-7.52586e-10
0.000143351
-1.27431e-10
-0.000143363
-0.000223331
2.89405e-08
4.3163e-09
0.00022337
-6.93519e-08
-0.000171047
-3.11683e-10
-6.7284e-11
0.000171077
6.84121e-10
-1.11406e-08
-0.000229304
4.86195e-11
3.11998e-08
8.78077e-10
-0.000223352
3.31295e-08
-0.000171058
2.12646e-11
1.42246e-09
0.000143378
-2.44755e-08
-7.92521e-05
7.9278e-05
-1.40763e-09
3.90913e-09
0.00019358
6.80558e-09
-4.59835e-08
0.000263176
-1.69408e-08
-8.58799e-10
3.31722e-08
-0.000263196
0.000263222
-4.30412e-09
-6.18278e-08
1.51097e-10
-7.92692e-05
1.6956e-08
7.92609e-05
-0.000263202
2.44342e-08
0.000263248
-6.17845e-08
-4.22761e-09
-5.1119e-09
2.4713e-08
3.31672e-08
7.92868e-05
-2.89536e-08
3.16313e-10
-0.000143335
2.43943e-09
3.00895e-08
-1.03231e-10
-7.27006e-08
0.000223311
-1.24455e-08
3.07694e-08
-0.00022333
0.000171028
7.45344e-10
2.90536e-11
-0.00017104
-7.17784e-08
-6.01899e-11
-0.000143347
9.79907e-05
-6.76919e-09
-2.23607e-08
5.17506e-09
1.3447e-08
-6.93854e-09
-7.04679e-09
0.000213708
1.01836e-08
1.21619e-08
-0.000213716
-8.05257e-05
-1.23971e-08
-1.19729e-08
8.05501e-05
-8.05145e-05
-1.22687e-08
-1.21213e-08
8.05388e-05
9.505e-09
-8.05421e-05
9.42117e-09
-8.05309e-05
-2.49743e-08
-2.72696e-08
0.000213736
-3.60053e-08
3.34086e-08
-0.000221861
0.000221899
2.49996e-08
-5.99343e-08
0.000250636
-1.58643e-08
5.86006e-08
2.95916e-08
-0.000250684
-5.10852e-08
9.80725e-09
0.00027817
2.01161e-08
-2.30726e-08
0.00018299
1.61156e-08
-9.52224e-09
-0.000183004
0.000250699
-9.75359e-08
-5.22738e-08
0.000183021
1.19685e-08
-1.01837e-08
3.10311e-08
-0.000221882
-3.62326e-08
3.13611e-08
-0.000221801
0.000221838
2.72984e-08
-6.00542e-08
0.000250541
-1.57602e-08
6.35755e-08
2.94958e-08
-0.000250596
-4.87082e-08
1.05778e-08
0.000278114
1.9944e-08
-2.33018e-08
0.000182945
1.42505e-08
-9.43374e-09
-0.000182958
0.000250611
-1.02348e-07
-5.25092e-08
0.000182975
1.21213e-08
-1.21572e-08
3.13452e-08
-0.000221822
1.58492e-08
-1.61346e-08
0.000221878
3.10373e-08
-0.000183008
-3.33591e-08
0.000183039
2.47838e-08
-7.07163e-09
-1.11421e-08
1.23282e-08
-0.000250651
3.59953e-08
0.000250714
-9.74779e-08
-5.22799e-08
5.85854e-08
2.95582e-08
0.000221916
-5.987e-08
1.57475e-08
-1.42646e-08
0.000221818
3.13467e-08
-0.000182963
-3.13149e-08
0.000182993
2.25568e-08
-7.44515e-09
-1.11756e-08
1.22252e-08
-0.000250556
3.62203e-08
0.000250626
-1.02292e-07
-5.25138e-08
6.35548e-08
2.94677e-08
0.000221855
-5.99931e-08
1.24227e-08
1.22915e-08
-0.000213689
8.05178e-05
6.93032e-09
-8.05342e-05
8.05065e-05
7.04322e-09
-8.0523e-05
-0.000213697
-0.000221929
-3.59495e-08
3.32083e-08
2.48895e-08
-5.96634e-08
-1.58267e-08
0.000250697
-0.000250745
5.85844e-08
2.9471e-08
1.62008e-08
0.00018306
-9.45271e-09
-0.000183074
-5.08572e-08
9.9249e-09
1.98898e-08
-2.31073e-08
-1.02004e-08
-0.00022195
3.10898e-08
-9.72913e-08
-5.22877e-08
1.19793e-08
-0.000221869
-3.61652e-08
3.11755e-08
2.71712e-08
-5.97948e-08
-1.57396e-08
0.000250602
-0.000250657
6.35496e-08
2.93939e-08
1.43195e-08
0.000183015
-9.38378e-09
-0.000183028
-4.84927e-08
1.06644e-08
1.97369e-08
-2.33174e-08
-1.2196e-08
-0.000221889
3.1392e-08
-1.02111e-07
-5.2518e-08
1.21142e-08
-0.000213766
1.23224e-08
1.22083e-08
6.97032e-09
8.05495e-05
-8.05659e-05
7.06347e-09
8.05382e-05
-8.05547e-05
-0.000213774
9.80049e-05
-2.00085e-08
1.11391e-08
9.80041e-05
-2.00202e-08
1.11958e-08
-6.9876e-09
-7.01627e-09
0.000213708
1.22155e-08
1.01396e-08
-0.000213717
-8.0526e-05
-1.23831e-08
-1.20003e-08
8.05504e-05
-8.05125e-05
-1.22986e-08
-1.21004e-08
8.05369e-05
9.45933e-09
-8.05424e-05
9.44848e-09
-8.0529e-05
-2.70948e-08
-2.5176e-08
0.000213736
3.14367e-08
-3.60901e-08
-0.000221862
0.0002219
2.71203e-08
-6.00827e-08
0.000250635
-1.58226e-08
6.3659e-08
2.69757e-08
-0.000250687
1.03845e-08
-4.87388e-08
0.000278163
-2.07928e-08
0.000182991
1.42271e-08
-9.47479e-09
-0.000183003
0.000183021
1.1998e-08
0.000250702
-1.02495e-07
-4.97934e-08
-1.22148e-08
3.12867e-08
-0.000221883
3.14082e-08
-3.62054e-08
-0.000221797
0.000221839
2.52011e-08
-6.22957e-08
0.000250544
-1.58082e-08
6.36073e-08
3.20692e-08
-0.000250601
1.05191e-08
-4.87787e-08
0.000278121
-2.32447e-08
0.000182941
1.42381e-08
-9.46228e-09
-0.000182953
0.000182971
1.20979e-08
0.000250616
-1.02478e-07
-5.4997e-08
-1.01365e-08
3.35131e-08
-0.000221822
-1.42434e-08
0.000221879
1.58099e-08
3.12891e-08
-0.000183008
-3.13888e-08
0.000183038
-7.47901e-09
2.25326e-08
9.8714e-09
3.60788e-08
-0.00025065
0.000250717
-1.02438e-07
-4.98e-08
0.000221917
-6.00216e-08
6.36417e-08
2.69439e-08
-1.42543e-08
0.000221814
1.57952e-08
3.35169e-08
-0.000182959
-3.13615e-08
0.000182988
-7.47342e-09
2.2551e-08
1.22541e-08
3.61964e-08
-0.000250559
0.000250631
-1.02422e-07
-5.50054e-08
0.000221856
-6.22343e-08
6.35867e-08
3.20395e-08
1.24062e-08
1.23216e-08
-0.000213689
8.0518e-05
6.98088e-09
-8.05345e-05
8.05045e-05
7.01143e-09
-8.0521e-05
-0.000213697
-9.80259e-05
1.11983e-08
5.0969e-09
-1.99042e-08
-6.85415e-09
-9.80251e-05
1.12539e-08
5.04971e-09
-1.99165e-08
-6.85116e-09
-0.000213728
1.23639e-08
1.22801e-08
-2.70695e-08
-2.5149e-08
0.000213755
6.99318e-09
8.05339e-05
9.44561e-09
7.02028e-09
8.05204e-05
9.43667e-09
1.22201e-08
1.01432e-08
-1.19989e-08
8.05583e-05
-1.20989e-08
8.05448e-05
-1.42807e-08
1.57915e-08
0.000221913
-0.000221934
-1.22255e-08
3.13142e-08
-0.00025068
3.60477e-08
-1.02314e-07
-4.98067e-08
0.000250748
-7.40676e-09
2.2565e-08
-0.000278213
9.81519e-09
-0.000183043
-3.12908e-08
1.19994e-08
0.000183073
-0.000183056
-9.42663e-09
-0.000250732
6.36272e-08
2.68901e-08
2.70395e-08
-5.98904e-08
0.000221951
-1.4298e-08
1.57817e-08
0.000221848
-0.000221873
-1.01507e-08
3.35429e-08
-0.00025059
3.61654e-08
-1.02298e-07
-5.50127e-08
0.000250662
-7.40903e-09
2.25884e-08
-0.000278172
1.22001e-08
-0.000182994
-3.12777e-08
1.21067e-08
0.000183023
-0.000183006
-9.42401e-09
-0.000250647
6.35799e-08
3.1983e-08
2.51137e-08
-6.21056e-08
0.00022189
-0.000221896
3.13416e-08
-3.60636e-08
-5.99572e-08
1.42629e-08
0.000183026
-1.58022e-08
0.000250665
6.36339e-08
2.69161e-08
1.0437e-08
-4.8636e-08
-2.08083e-08
3.13014e-08
-1.02377e-07
-4.98049e-08
-0.000221831
3.13174e-08
-3.61802e-08
-6.21714e-08
1.42744e-08
0.000182976
-1.57881e-08
0.000250574
6.35803e-08
3.20082e-08
1.05687e-08
-4.86752e-08
-2.32568e-08
3.35287e-08
-1.02361e-07
-5.50117e-08
-7.00257e-09
-7.02601e-09
0.000213747
-8.05419e-05
-1.23385e-08
8.05662e-05
-8.05284e-05
-1.22497e-08
8.05527e-05
0.000213774
-7.12115e-10
1.24198e-08
0.000143352
-1.51675e-10
-0.000143363
-0.000171048
-3.24307e-10
0.000171081
-0.000223333
2.89537e-08
4.3471e-09
0.000223374
-7.17621e-08
-1.32186e-08
6.28593e-10
-0.00022931
2.87154e-08
-0.000171062
7.91043e-10
-0.000223354
3.30906e-08
1.4178e-09
0.000143379
-2.44806e-08
-7.92509e-05
7.92768e-05
-1.40374e-09
3.50524e-09
0.000193593
-4.38186e-08
0.000263173
-1.69258e-08
-7.74701e-10
3.31717e-08
-0.000263193
0.000263219
-4.3365e-09
-6.17973e-08
1.74891e-10
-7.9268e-05
1.69423e-08
7.92597e-05
-0.000263199
2.44391e-08
0.000263245
-6.17576e-08
-3.73306e-09
2.25538e-08
3.3169e-08
7.92855e-05
3.29938e-10
-2.89692e-08
-0.000143336
3.21655e-08
2.42062e-09
-7.02088e-08
0.00017103
7.03656e-10
-0.000171044
0.000223313
-1.24335e-08
3.31415e-08
-0.000223334
-7.17666e-08
-0.000143348
-0.000143297
3.21996e-10
-3.09065e-08
1.64702e-09
0.000143326
7.79758e-10
0.000171033
-1.48706e-11
-1.43931e-08
0.000223269
8.43042e-10
3.05184e-08
3.21116e-08
2.18163e-09
0.000229312
1.51957e-11
-7.01695e-08
-2.92544e-10
0.000171065
3.64584e-12
4.36797e-09
0.000223305
-6.91832e-08
7.92326e-05
1.91298e-08
-7.9252e-05
2.69341e-10
-3.69895e-09
-0.000193598
2.24661e-08
2.64485e-08
-0.000263145
-4.38217e-09
-5.91014e-08
0.000263185
-1.66329e-09
7.92608e-05
-0.000263159
-8.61392e-10
3.06496e-08
-7.92239e-05
-2.64924e-08
-1.91136e-08
0.000263119
3.0644e-08
3.26771e-09
-4.36246e-08
-5.91521e-08
0.000143313
-7.90975e-10
1.43829e-08
-1.31825e-08
9.37549e-10
-3.40014e-11
2.85989e-08
-3.11605e-10
-0.000171051
-7.17502e-12
0.000171083
3.0888e-08
-0.000223289
-6.91603e-08
0.000223325
0.000143342
-2.4905e-11
3.04796e-08
-0.000143368
3.16657e-10
-2.8933e-08
1.43408e-09
0.000143395
7.22126e-10
0.000171067
-1.24109e-08
0.000223353
8.07794e-10
3.30621e-08
3.21244e-08
2.42882e-09
0.000229349
-7.01866e-08
-1.3031e-10
0.000171099
4.35782e-09
0.000223394
-7.1743e-08
1.69748e-08
7.92772e-05
-7.92943e-05
1.08395e-10
-3.79286e-09
-0.000193633
-5.07481e-09
2.25759e-08
-0.000263251
2.4348e-08
-4.37235e-09
-6.16668e-08
0.000263296
-0.000263271
-8.23595e-10
3.31777e-08
-1.44768e-09
7.9303e-05
-7.92684e-05
-2.43919e-08
-1.69607e-08
0.000263225
3.3174e-08
3.44403e-09
6.77596e-09
-4.37565e-08
-6.17157e-08
-7.31499e-10
1.2397e-08
0.000143383
-1.3203e-08
6.44368e-10
2.86289e-08
-0.000171085
-3.07625e-10
0.000171118
-0.000223373
2.89121e-08
-7.17279e-08
0.000223414
3.30171e-08
0.00014341
-6.97719e-09
-7.06192e-09
0.000213715
1.23134e-08
1.00959e-08
-0.000213723
-8.0515e-05
-1.24174e-08
-1.1978e-08
8.05394e-05
-8.05287e-05
-1.23064e-08
-1.20873e-08
8.05531e-05
9.48332e-09
-8.05315e-05
9.39526e-09
-8.05451e-05
-2.71727e-08
-2.51589e-08
0.000213742
3.16915e-08
-3.85281e-08
-0.000221802