/*--------------------------------*- C++ -*----------------------------------*\
| =========                 |                                                 |
| \\      /  F ield         | OpenFOAM: The Open Source CFD Toolbox           |
|  \\    /   O peration     | Version:  v1906                                 |
|   \\  /    A nd           | Web:      www.OpenFOAM.com                      |
|    \\/     M anipulation  |                                                 |
\*---------------------------------------------------------------------------*/
FoamFile
{
    version     2.0;
    format      ascii;
    class       volVectorField;
    location    "800";
    object      U;
}
// * * * * * * * * * * * * * * * * * * * * * * * * * * * * * * * * * * * * * //

dimensions      [0 1 -1 0 0 0 0];


internalField   nonuniform List<vector> 
42840
(
(-9.59545e-06 -9.58633e-06 0.112516)
(1.11284e-05 -5.97991e-06 0.107501)
(-5.96645e-06 1.11471e-05 0.1075)
(-2.39766e-05 -2.40093e-05 0.104199)
(-2.38489e-05 -2.3882e-05 0.104201)
(2.39871e-05 2.39798e-05 0.104199)
(-4.16769e-05 -4.16791e-05 0.104316)
(-5.95194e-06 -1.1104e-05 0.107499)
(5.94374e-06 -1.11074e-05 0.107498)
(-6.04525e-06 -1.1221e-05 0.107492)
(6.03937e-06 -1.12232e-05 0.107491)
(-2.39915e-05 2.3949e-05 0.104199)
(4.16743e-05 -4.16778e-05 0.104317)
(-1.11315e-05 -5.97425e-06 0.1075)
(-1.11058e-05 5.9602e-06 0.107498)
(-1.12461e-05 -6.06988e-06 0.107493)
(-1.12206e-05 6.05164e-06 0.107491)
(1.11204e-05 5.93551e-06 0.107499)
(1.12431e-05 -6.07591e-06 0.107494)
(1.12354e-05 6.02885e-06 0.107491)
(2.39615e-05 -2.39995e-05 0.104199)
(-4.16621e-05 4.16885e-05 0.104316)
(5.99455e-06 1.11338e-05 0.1075)
(-6.0616e-06 1.12598e-05 0.107493)
(6.09081e-06 1.12465e-05 0.107493)
(4.16971e-05 4.16521e-05 0.104316)
(1.12781e-05 6.06281e-06 0.107489)
(6.12362e-06 1.12885e-05 0.107491)
(-3.05223e-07 -1.66149e-05 0.0913962)
(7.12327e-07 7.1185e-06 0.0821929)
(-1.22065e-06 -1.20724e-05 0.0822526)
(-2.533e-07 5.0011e-06 0.0913434)
(-2.6494e-06 4.32696e-06 0.0715115)
(3.27964e-06 -5.94648e-06 0.0715732)
(-1.66447e-05 -3.17708e-07 0.0913957)
(7.13132e-06 6.57321e-07 0.0821921)
(-1.20916e-05 -1.17958e-06 0.0822531)
(5.03477e-06 -2.54157e-07 0.0913439)
(9.59448e-06 -9.58546e-06 0.112516)
(-9.5818e-06 9.61158e-06 0.112515)
(9.60615e-06 9.59624e-06 0.112515)
(-9.87329e-06 -9.86562e-06 0.112489)
(9.87401e-06 -9.8652e-06 0.112489)
(-9.86008e-06 9.88724e-06 0.112488)
(9.88634e-06 9.87184e-06 0.112488)
(2.72727e-05 -7.13498e-07 0.09856)
(-8.74441e-06 3.10814e-06 0.0929748)
(1.39415e-05 -2.51723e-06 0.109933)
(1.11677e-05 -6.0104e-06 0.107499)
(2.04205e-05 -7.78427e-06 0.0930395)
(1.40407e-05 -2.53656e-06 0.109928)
(-8.14806e-06 -4.61575e-07 0.0984983)
(4.26122e-06 -2.61583e-06 0.071509)
(-5.88982e-06 3.24661e-06 0.0715747)
(-6.87492e-07 2.72437e-05 0.0985601)
(-2.4912e-06 1.39562e-05 0.109932)
(3.15864e-06 -8.77427e-06 0.0929755)
(-5.99761e-06 1.11864e-05 0.107498)
(-2.511e-06 1.4056e-05 0.109927)
(-7.79219e-06 2.04771e-05 0.0930392)
(-4.14004e-07 -8.11592e-06 0.0984983)
(-3.52163e-06 -3.54929e-06 0.0875179)
(-3.50915e-06 -3.54356e-06 0.0875166)
(4.17579e-05 4.17125e-05 0.104315)
(9.96817e-06 6.88508e-06 0.0875757)
(6.96448e-06 9.93034e-06 0.0875739)
(-3.56516e-06 -3.50193e-06 0.0875499)
(-3.47253e-06 -3.58138e-06 0.0875485)
(2.65466e-06 4.29774e-06 0.0715126)
(-3.30818e-06 -5.90806e-06 0.0715737)
(4.31586e-06 2.65218e-06 0.0715115)
(-5.91806e-06 -3.32859e-06 0.0715732)
(3.52073e-06 3.5363e-06 0.0875189)
(3.54717e-06 3.52661e-06 0.0875165)
(-4.17349e-05 -4.17361e-05 0.104315)
(-6.9091e-06 -9.95148e-06 0.0875756)
(-9.95523e-06 -6.95231e-06 0.087574)
(-3.3346e-06 -5.88088e-06 0.071589)
(2.62253e-06 4.30881e-06 0.071528)
(-5.89108e-06 -3.35331e-06 0.0715884)
(4.32683e-06 2.6215e-06 0.0715269)
(2.39155e-05 2.39064e-05 0.1042)
(-6.91999e-06 -9.91642e-06 0.0875915)
(-9.92033e-06 -6.95938e-06 0.0875899)
(3.49808e-06 3.55528e-06 0.0875349)
(3.56511e-06 3.50512e-06 0.0875325)
(3.10139e-07 -1.6619e-05 0.091396)
(-6.77925e-07 7.1528e-06 0.0821923)
(1.16883e-06 -1.21254e-05 0.0822521)
(2.30274e-07 5.00967e-06 0.0913433)
(-7.12267e-07 -2.72733e-05 0.09856)
(3.16497e-06 8.75127e-06 0.0929751)
(-2.50261e-06 -1.39309e-05 0.109933)
(-5.98197e-06 -1.11444e-05 0.107497)
(-7.78776e-06 -2.04316e-05 0.093038)
(-2.52232e-06 -1.40313e-05 0.109928)
(-4.06935e-07 8.14511e-06 0.098498)
(6.97456e-07 -2.72762e-05 0.0985598)
(-3.16728e-06 8.80109e-06 0.0929736)
(2.49392e-06 -1.39307e-05 0.109932)
(5.97485e-06 -1.1147e-05 0.107496)
(7.75915e-06 -2.04713e-05 0.0930377)
(2.51464e-06 -1.40295e-05 0.109927)
(4.13032e-07 8.15334e-06 0.0984978)
(-2.52494e-07 4.98856e-06 0.0913589)
(-1.23762e-06 -1.20414e-05 0.0822694)
(6.91515e-07 7.12974e-06 0.0822099)
(-3.05452e-07 -1.65975e-05 0.0914117)
(2.29243e-07 4.9968e-06 0.0913588)
(1.18826e-06 -1.21031e-05 0.0822689)
(-6.60832e-07 7.16771e-06 0.0822092)
(3.10004e-07 -1.66013e-05 0.0914115)
(-4.0862e-07 8.09073e-06 0.0985085)
(-6.01848e-06 -1.11896e-05 0.107494)
(-7.78973e-06 -2.04082e-05 0.0930524)
(-2.56466e-06 -1.42224e-05 0.109918)
(3.14593e-06 8.74992e-06 0.0929896)
(-2.54566e-06 -1.41341e-05 0.109923)
(-7.15901e-07 -2.72797e-05 0.0985704)
(4.13061e-07 8.09919e-06 0.0985083)
(6.01126e-06 -1.11928e-05 0.107494)
(7.75956e-06 -2.04472e-05 0.0930522)
(2.55722e-06 -1.42201e-05 0.109917)
(-3.14943e-06 8.79876e-06 0.0929881)
(2.53689e-06 -1.41331e-05 0.109922)
(6.9955e-07 -2.72816e-05 0.0985702)
(-3.52313e-06 3.53532e-06 0.0875164)
(-3.5072e-06 3.4615e-06 0.0875174)
(4.17324e-05 -4.17352e-05 0.104316)
(6.87936e-06 -9.95718e-06 0.0875745)
(9.89107e-06 -6.9103e-06 0.0875767)
(-4.27871e-06 2.56564e-06 0.0715095)
(5.87452e-06 -3.27293e-06 0.0715749)
(3.30366e-06 -5.9188e-06 0.0715885)
(-2.61923e-06 4.33712e-06 0.0715269)
(-2.39189e-05 2.38756e-05 0.1042)
(6.88667e-06 -9.92154e-06 0.0875904)
(9.85595e-06 -6.92015e-06 0.0875926)
(-3.50275e-06 3.55152e-06 0.0875323)
(-3.52401e-06 3.43947e-06 0.0875334)
(5.84609e-06 -3.29797e-06 0.0715901)
(-4.2895e-06 2.53435e-06 0.0715249)
(-2.72862e-05 -7.08526e-07 0.0985595)
(8.76258e-06 3.14847e-06 0.0929742)
(-1.39366e-05 -2.50462e-06 0.109932)
(-1.11715e-05 -6.00501e-06 0.107498)
(-2.04515e-05 -7.79931e-06 0.0930386)
(-1.40432e-05 -2.52451e-06 0.109927)
(8.16168e-06 -4.31197e-07 0.0984979)
(-1.66393e-05 2.63698e-07 0.0913956)
(7.10782e-06 -6.80605e-07 0.0821914)
(-1.20797e-05 1.15883e-06 0.0822532)
(5.0307e-06 2.67449e-07 0.0913439)
(-2.72858e-05 6.81087e-07 0.0985595)
(-1.39342e-05 2.50055e-06 0.109932)
(8.75348e-06 -3.14181e-06 0.0929736)
(-1.11449e-05 5.99006e-06 0.107495)
(-1.40326e-05 2.52076e-06 0.109927)
(-2.04362e-05 7.73485e-06 0.0930384)
(8.16281e-06 4.21176e-07 0.098498)
(5.02259e-06 -2.52913e-07 0.0913595)
(-1.20479e-05 -1.19092e-06 0.0822699)
(7.14011e-06 6.35997e-07 0.082209)
(-1.66273e-05 -3.17569e-07 0.0914112)
(8.10886e-06 -4.32384e-07 0.0985083)
(-1.12156e-05 -6.04318e-06 0.107496)
(-2.04278e-05 -7.80119e-06 0.093053)
(-1.42323e-05 -2.56855e-06 0.109917)
(8.76122e-06 3.12959e-06 0.0929887)
(-1.41376e-05 -2.54958e-06 0.109922)
(-2.72896e-05 -7.11546e-07 0.0985699)
(5.01824e-06 2.65365e-07 0.0913595)
(-1.20493e-05 1.17566e-06 0.08227)
(7.11644e-06 -6.59555e-07 0.0822083)
(-1.66222e-05 2.62744e-07 0.0914111)
(8.10985e-06 4.18508e-07 0.0985084)
(-1.11905e-05 6.0258e-06 0.107493)
(-1.42219e-05 2.5609e-06 0.109917)
(-2.0413e-05 7.73798e-06 0.0930528)
(-1.41354e-05 2.54216e-06 0.109922)
(8.75148e-06 -3.1247e-06 0.0929881)
(-2.72885e-05 6.79497e-07 0.0985699)
(1.66148e-05 -3.26658e-07 0.0913964)
(-7.12424e-06 6.30082e-07 0.082192)
(1.20789e-05 -1.17984e-06 0.0822535)
(-5.00688e-06 -2.76601e-07 0.0913437)
(2.72665e-05 6.82625e-07 0.0985598)
(1.39431e-05 2.48133e-06 0.109932)
(-8.74722e-06 -3.19333e-06 0.0929748)
(1.11592e-05 5.96564e-06 0.107496)
(1.4042e-05 2.50237e-06 0.109927)
(2.04529e-05 7.75178e-06 0.0930384)
(-8.14203e-06 3.78567e-07 0.0984984)
(1.66098e-05 2.91546e-07 0.0913963)
(-7.12926e-06 -7.04252e-07 0.0821931)
(1.21117e-05 1.15772e-06 0.0822527)
(-4.99924e-06 2.03542e-07 0.0913437)
(-8.09489e-06 -4.59866e-07 0.0985088)
(1.12125e-05 -6.0482e-06 0.107496)
(2.03966e-05 -7.78679e-06 0.0930539)
(1.42309e-05 -2.57976e-06 0.109918)
(-8.74252e-06 3.08784e-06 0.0929893)
(1.41436e-05 -2.56095e-06 0.109923)
(2.72747e-05 -7.12616e-07 0.0985704)
(-4.99495e-06 -2.73882e-07 0.0913593)
(1.20595e-05 -1.20011e-06 0.0822703)
(-7.13643e-06 6.09899e-07 0.0822089)
(1.65957e-05 -3.24782e-07 0.0914119)
(-8.08923e-06 3.79683e-07 0.0985089)
(1.12056e-05 6.00146e-06 0.107494)
(1.42324e-05 2.54391e-06 0.109917)
(2.04287e-05 7.75672e-06 0.0930528)
(1.41459e-05 2.52339e-06 0.109922)
(-8.74659e-06 -3.17262e-06 0.0929893)
(2.727e-05 6.86042e-07 0.0985702)
(-4.98786e-06 2.0351e-07 0.0913593)
(1.20806e-05 1.1769e-06 0.0822695)
(-7.13895e-06 -6.79824e-07 0.08221)
(1.6591e-05 2.92948e-07 0.0914118)
(3.51301e-06 -3.5389e-06 0.087515)
(3.50426e-06 -3.55175e-06 0.0875185)
(-4.17189e-05 4.17478e-05 0.104315)
(-9.93791e-06 6.89945e-06 0.0875749)
(-6.92997e-06 9.9612e-06 0.087576)
(2.63793e-06 -4.31495e-06 0.0715126)
(-3.31469e-06 5.92047e-06 0.071574)
(-5.86166e-06 3.27237e-06 0.0715899)
(4.27182e-06 -2.58491e-06 0.0715244)
(2.38882e-05 -2.39285e-05 0.1042)
(-9.90366e-06 6.90967e-06 0.0875907)
(-6.93994e-06 9.92268e-06 0.0875919)
(3.52971e-06 -3.51771e-06 0.0875309)
(3.48163e-06 -3.57005e-06 0.0875345)
(-3.34181e-06 5.89127e-06 0.0715892)
(2.60574e-06 -4.3263e-06 0.071528)
(7.17825e-07 2.72472e-05 0.0985598)
(2.51935e-06 1.39496e-05 0.109932)
(-3.153e-06 -8.77491e-06 0.0929744)
(6.0265e-06 1.11718e-05 0.107497)
(2.5411e-06 1.40464e-05 0.109927)
(7.83087e-06 2.04579e-05 0.0930385)
(4.34452e-07 -8.12772e-06 0.0984984)
(-2.96099e-07 1.65888e-05 0.0913969)
(6.78807e-07 -7.1336e-06 0.0821938)
(-1.18582e-06 1.21102e-05 0.0822533)
(-2.39328e-07 -4.98704e-06 0.0913435)
(3.18798e-07 1.65987e-05 0.0913963)
(-7.11748e-07 -7.12931e-06 0.0821927)
(1.25012e-06 1.20907e-05 0.082253)
(2.66868e-07 -5.00123e-06 0.0913439)
(-4.12227e-07 -8.05863e-06 0.0985087)
(-6.03493e-06 1.12294e-05 0.107496)
(-2.55371e-06 1.4244e-05 0.109917)
(-7.79662e-06 2.04519e-05 0.0930536)
(-2.53531e-06 1.41562e-05 0.109922)
(3.1383e-06 -8.77314e-06 0.09299)
(-6.91141e-07 2.72421e-05 0.0985705)
(4.33009e-07 -8.06956e-06 0.0985088)
(6.06269e-06 1.12173e-05 0.107495)
(2.58341e-06 1.42347e-05 0.109917)
(7.83074e-06 2.04343e-05 0.0930529)
(2.56249e-06 1.41498e-05 0.109922)
(-3.13723e-06 -8.7731e-06 0.0929889)
(7.1922e-07 2.7245e-05 0.0985702)
(-2.3358e-07 -4.96993e-06 0.091359)
(-1.20924e-06 1.20878e-05 0.0822701)
(6.58773e-07 -7.14831e-06 0.0822107)
(-3.01737e-07 1.65643e-05 0.0914126)
(2.60657e-07 -4.98289e-06 0.0913593)
(1.25942e-06 1.20479e-05 0.0822698)
(-6.93972e-07 -7.13538e-06 0.0822096)
(3.19566e-07 1.65739e-05 0.091412)
(-4.30494e-06 -2.66489e-06 0.0715121)
(5.93752e-06 3.27261e-06 0.0715736)
(-2.64955e-06 -4.3076e-06 0.0715117)
(3.35476e-06 5.90046e-06 0.0715732)
(-2.39032e-05 -2.39365e-05 0.1042)
(9.93055e-06 6.8988e-06 0.0875916)
(6.97475e-06 9.89761e-06 0.0875898)
(-3.5424e-06 -3.52449e-06 0.0875339)
(-3.49051e-06 -3.5605e-06 0.0875326)
(5.90877e-06 3.30122e-06 0.0715888)
(-4.31778e-06 -2.6304e-06 0.0715274)
(3.37821e-06 5.87421e-06 0.0715885)
(-2.62142e-06 -4.31722e-06 0.0715271)
(1.43278e-05 2.56202e-06 0.109912)
(-8.75262e-06 -3.15138e-06 0.0930038)
(-8.04419e-06 3.81304e-07 0.0985195)
(-7.1562e-06 -6.58834e-07 0.0822269)
(-4.97875e-06 2.04942e-07 0.0913749)
(-3.11964e-06 -8.77736e-06 0.0930034)
(-6.74903e-07 -7.14283e-06 0.0822265)
(-4.33137e-06 -2.59863e-06 0.0715427)
(-2.59553e-06 -4.32833e-06 0.0715424)
(-6.76941e-07 4.21543e-06 0.0768489)
(1.28789e-07 -7.42797e-06 0.078669)
(-1.14645e-06 -1.59871e-05 0.0899175)
(-2.52457e-07 4.99356e-06 0.0913511)
(-1.92286e-07 3.83348e-06 0.0786259)
(-5.2486e-07 5.48559e-06 0.089867)
(5.31959e-07 -7.41458e-06 0.0768987)
(2.32437e-07 -6.053e-06 0.0684399)
(-1.21125e-06 -1.20869e-05 0.0822442)
(-7.16039e-07 5.78283e-06 0.0857868)
(-1.36893e-06 -1.23182e-05 0.0858442)
(-8.53789e-07 4.84391e-06 0.0683751)
(-8.69422e-07 4.84435e-06 0.0683827)
(-1.37617e-06 -1.23019e-05 0.0858526)
(7.01561e-07 7.12302e-06 0.0822014)
(-7.26351e-07 5.79035e-06 0.0857953)
(2.19819e-07 -6.04429e-06 0.0684475)
(5.38368e-07 -7.41873e-06 0.0768903)
(-3.06528e-07 -1.66268e-05 0.0913884)
(-1.91235e-07 3.83599e-06 0.0786173)
(-5.19053e-07 5.49353e-06 0.0898589)
(1.28042e-07 -7.43829e-06 0.0786605)
(-1.14378e-06 -1.59963e-05 0.0899095)
(-6.67668e-07 4.21977e-06 0.0768404)
(3.2663e-06 -5.96031e-06 0.0715656)
(-2.63379e-06 4.3318e-06 0.0715192)
(4.27153e-06 -6.80291e-07 0.0768514)
(-1.60356e-05 -1.14348e-06 0.089917)
(-7.46795e-06 1.15222e-07 0.0786684)
(5.02543e-06 -2.52833e-07 0.0913517)
(5.54376e-06 -5.35009e-07 0.0898675)
(3.87488e-06 -1.84566e-07 0.0786277)
(-7.46372e-06 5.3931e-07 0.0768983)
(-6.12374e-06 2.2354e-07 0.0684369)
(-1.21066e-05 -1.17086e-06 0.0822447)
(5.84041e-06 -7.32485e-07 0.0857866)
(-1.23844e-05 -1.35514e-06 0.085843)
(4.92234e-06 -8.30846e-07 0.0683757)
(4.92208e-06 -8.45792e-07 0.0683834)
(-1.23699e-05 -1.36353e-06 0.0858515)
(7.13715e-06 6.46798e-07 0.0822006)
(5.84621e-06 -7.42659e-07 0.0857951)
(-6.1152e-06 2.10664e-07 0.0684444)
(-7.46767e-06 5.45776e-07 0.0768899)
(-1.66542e-05 -3.19403e-07 0.091388)
(5.55388e-06 -5.28282e-07 0.0898593)
(3.87767e-06 -1.84353e-07 0.0786192)
(-1.60433e-05 -1.14001e-06 0.089909)
(-7.47676e-06 1.13351e-07 0.0786599)
(4.27542e-06 -6.71749e-07 0.076843)
(-5.90281e-06 3.23316e-06 0.071567)
(4.26617e-06 -2.59987e-06 0.0715167)
(-3.09172e-06 -3.14302e-06 0.0835872)
(3.63481e-06 5.12293e-06 0.0683536)
(5.17372e-06 3.59682e-06 0.0683476)
(-2.61852e-06 -4.107e-06 0.0682976)
(-4.06538e-06 -2.65418e-06 0.0682918)
(7.30215e-06 7.24081e-06 0.0836336)
(1.69005e-05 1.02756e-05 0.0916919)
(-1.09818e-05 -5.58961e-06 0.0962496)
(9.98634e-06 6.87808e-06 0.0875678)
(-3.79257e-06 -3.0696e-06 0.0815231)
(2.41043e-05 1.41829e-05 0.0962984)
(8.14847e-06 3.974e-06 0.0815752)
(-7.74525e-06 -3.81414e-06 0.091644)
(1.03668e-05 1.68557e-05 0.0916853)
(-5.55443e-06 -1.09992e-05 0.0962468)
(6.96007e-06 9.94659e-06 0.0875659)
(-3.04261e-06 -3.85166e-06 0.0815187)
(1.42712e-05 2.40686e-05 0.0962958)
(4.05293e-06 8.12827e-06 0.0815698)
(-3.78195e-06 -7.80017e-06 0.0916375)
(-7.75253e-06 -3.81244e-06 0.091651)
(8.13184e-06 3.97925e-06 0.081583)
(-3.53131e-06 -3.53622e-06 0.0875259)
(2.40811e-05 1.41825e-05 0.0963042)
(-1.09822e-05 -5.57932e-06 0.0962555)
(-3.8018e-06 -3.05968e-06 0.0815309)
(1.68763e-05 1.02674e-05 0.0916989)
(-3.78119e-06 -7.80467e-06 0.0916445)
(4.05644e-06 8.11411e-06 0.0815776)
(-3.49897e-06 -3.55132e-06 0.0875246)
(1.42704e-05 2.40464e-05 0.0963016)
(-5.54549e-06 -1.09982e-05 0.0962526)
(-3.035e-06 -3.85846e-06 0.0815266)
(1.03576e-05 1.68329e-05 0.0916923)
(7.31329e-06 7.25028e-06 0.0836261)
(-2.61574e-06 -4.11164e-06 0.0682908)
(-4.06752e-06 -2.65334e-06 0.068285)
(3.64396e-06 5.12392e-06 0.0683469)
(5.17692e-06 3.60482e-06 0.0683409)
(-3.08779e-06 -3.14127e-06 0.0835796)
(1.6799e-05 1.0238e-05 0.0917199)
(-1.09974e-05 -5.55659e-06 0.0962732)
(-3.82892e-06 -3.02911e-06 0.0815544)
(9.9098e-06 6.90248e-06 0.0875996)
(-7.7828e-06 -3.81564e-06 0.0916721)
(2.40063e-05 1.41786e-05 0.0963218)
(8.08081e-06 3.99318e-06 0.0816064)
(1.03239e-05 1.676e-05 0.0917133)
(-5.52733e-06 -1.10107e-05 0.0962704)
(-3.01029e-06 -3.87843e-06 0.08155)
(6.97515e-06 9.87665e-06 0.0875977)
(-3.79085e-06 -7.83139e-06 0.0916656)
(1.4263e-05 2.39739e-05 0.0963192)
(4.0655e-06 8.07039e-06 0.081601)
(7.26676e-06 7.21129e-06 0.0836561)
(-2.62865e-06 -4.0934e-06 0.0683177)
(-4.05839e-06 -2.65837e-06 0.0683119)
(-3.10802e-06 -3.1526e-06 0.0836097)
(3.60673e-06 5.11821e-06 0.0683737)
(5.16271e-06 3.57458e-06 0.0683676)
(-3.2939e-06 -5.92183e-06 0.071566)
(2.63847e-06 4.30323e-06 0.0715203)
(-5.93124e-06 -3.31544e-06 0.0715655)
(4.3212e-06 2.63671e-06 0.0715192)
(3.12452e-06 3.11194e-06 0.0835873)
(-5.12581e-06 -3.63218e-06 0.0683536)
(-3.60699e-06 -5.16588e-06 0.0683474)
(4.08582e-06 2.63595e-06 0.0682979)
(2.64589e-06 4.0791e-06 0.0682916)
(-7.25261e-06 -7.29228e-06 0.0836337)
(-1.03062e-05 -1.69075e-05 0.0916921)
(5.57003e-06 1.10229e-05 0.09625)
(-6.90274e-06 -9.96876e-06 0.0875676)
(3.05328e-06 3.83924e-06 0.0815243)
(-3.99992e-06 -8.16192e-06 0.0815752)
(-1.42122e-05 -2.41106e-05 0.0962986)
(3.80292e-06 7.79371e-06 0.0916443)
(-1.68811e-05 -1.03585e-05 0.0916854)
(1.09907e-05 5.56619e-06 0.0962468)
(-9.97199e-06 -6.94676e-06 0.087566)
(3.84727e-06 3.04988e-06 0.0815185)
(-8.14823e-06 -4.04124e-06 0.0815697)
(-2.40954e-05 -1.42558e-05 0.096296)
(7.7944e-06 3.80176e-06 0.0916376)
(3.80151e-06 7.79953e-06 0.0916513)
(-4.00395e-06 -8.14521e-06 0.081583)
(3.50923e-06 3.54509e-06 0.0875269)
(-1.42117e-05 -2.40886e-05 0.0963045)
(3.04415e-06 3.84741e-06 0.0815321)
(-1.02975e-05 -1.68844e-05 0.0916991)
(5.56076e-06 1.10222e-05 0.0962558)
(7.79997e-06 3.80146e-06 0.0916446)
(-8.13296e-06 -4.04588e-06 0.0815775)
(3.55515e-06 3.51586e-06 0.0875245)
(-2.40735e-05 -1.42561e-05 0.0963019)
(3.85561e-06 3.0419e-06 0.0815264)
(-1.68581e-05 -1.03507e-05 0.0916924)
(1.09896e-05 5.55701e-06 0.0962527)
(-7.26212e-06 -7.30175e-06 0.0836262)
(4.0896e-06 2.63392e-06 0.0682912)
(2.64452e-06 4.08266e-06 0.0682848)
(-5.12732e-06 -3.64077e-06 0.0683469)
(-3.61523e-06 -5.16745e-06 0.0683407)
(3.12224e-06 3.10908e-06 0.0835797)
(2.60752e-06 4.31475e-06 0.0715357)
(-3.32104e-06 -5.8948e-06 0.0715813)
(4.33237e-06 2.60662e-06 0.0715346)
(-5.90437e-06 -3.34107e-06 0.0715808)
(-7.24339e-06 -7.28244e-06 0.0836412)
(4.08142e-06 2.63858e-06 0.0683047)
(2.64789e-06 4.07537e-06 0.0682983)
(3.12669e-06 3.1146e-06 0.0835948)
(-5.12362e-06 -3.62451e-06 0.0683604)
(-3.59965e-06 -5.16266e-06 0.0683541)
(3.80251e-06 7.81504e-06 0.0916654)
(-1.42084e-05 -2.40412e-05 0.0963161)
(3.488e-06 3.56488e-06 0.0875429)
(-4.01047e-06 -8.11098e-06 0.0815986)
(3.02625e-06 3.86459e-06 0.0815478)
(5.54505e-06 1.10278e-05 0.0962676)
(-1.02788e-05 -1.68367e-05 0.0917131)
(7.81525e-06 3.80333e-06 0.0916587)
(-2.4026e-05 -1.42532e-05 0.0963135)
(3.57563e-06 3.49495e-06 0.0875405)
(-8.1128e-06 -4.06062e-06 0.0815931)
(3.878e-06 3.02954e-06 0.081542)
(1.09962e-05 5.5419e-06 0.0962645)
(-1.68101e-05 -1.03299e-05 0.0917064)
(-1.02891e-05 -1.68613e-05 0.0917061)
(3.03726e-06 3.85821e-06 0.08154)
(5.55375e-06 1.10244e-05 0.0962617)
(-6.91538e-06 -9.9351e-06 0.0875835)
(3.80235e-06 7.80664e-06 0.0916583)
(-4.00662e-06 -8.12739e-06 0.0815908)
(-1.42104e-05 -2.40656e-05 0.0963103)
(-1.68353e-05 -1.03419e-05 0.0916994)
(3.86703e-06 3.03592e-06 0.0815342)
(1.09922e-05 5.54954e-06 0.0962585)
(-9.93814e-06 -6.95728e-06 0.0875819)
(7.80685e-06 3.80167e-06 0.0916516)
(-8.11771e-06 -4.04916e-06 0.0815853)
(-2.40506e-05 -1.42549e-05 0.0963077)
(3.13019e-06 3.11906e-06 0.0836024)
(-5.12136e-06 -3.61592e-06 0.0683671)
(-3.59005e-06 -5.15925e-06 0.0683608)
(4.07726e-06 2.64151e-06 0.0683114)
(2.6495e-06 4.07207e-06 0.0683051)
(-7.23125e-06 -7.27059e-06 0.0836487)
(6.58866e-07 4.2697e-06 0.0768505)
(-1.27257e-07 -7.43072e-06 0.0786689)
(1.14694e-06 -1.60338e-05 0.0899168)
(2.29801e-07 5.00314e-06 0.0913511)
(1.71196e-07 3.83971e-06 0.078626)
(5.02631e-07 5.53471e-06 0.0898669)
(-5.40032e-07 -7.47057e-06 0.0768978)
(-2.27604e-07 -6.12579e-06 0.0684363)
(1.15715e-06 -1.21313e-05 0.0822437)
(7.15164e-07 5.83665e-06 0.0857861)
(1.34992e-06 -1.2378e-05 0.0858425)
(8.21918e-07 4.92023e-06 0.0683751)
(8.37185e-07 4.92047e-06 0.0683827)
(1.35576e-06 -1.23625e-05 0.0858509)
(-6.68102e-07 7.15785e-06 0.0822008)
(7.2451e-07 5.84313e-06 0.0857946)
(-2.15744e-07 -6.11702e-06 0.0684438)
(-5.46438e-07 -7.47514e-06 0.0768894)
(3.11445e-07 -1.66308e-05 0.0913883)
(1.70776e-07 3.84164e-06 0.0786175)
(4.96856e-07 5.54208e-06 0.0898588)
(-1.26625e-07 -7.44072e-06 0.0786604)
(1.14392e-06 -1.6043e-05 0.0899088)
(6.49899e-07 4.27247e-06 0.076842)
(5.24655e-07 -7.41069e-06 0.076907)
(-1.91987e-07 3.83312e-06 0.0786344)
(-5.30796e-07 5.48193e-06 0.0898751)
(-3.05357e-07 -1.66064e-05 0.0914039)
(-6.85501e-07 4.21344e-06 0.0768573)
(1.2875e-07 -7.42375e-06 0.0786775)
(-1.15069e-06 -1.59747e-05 0.0899256)
(-9.00344e-07 4.84477e-06 0.0683978)
(6.802e-07 7.13356e-06 0.0822183)
(-1.39138e-06 -1.22683e-05 0.0858695)
(1.9405e-07 -6.02548e-06 0.0684625)
(-7.46472e-07 5.8016e-06 0.0858123)
(2.06624e-07 -6.03461e-06 0.068455)
(-7.36551e-07 5.7951e-06 0.0858038)
(-1.22782e-06 -1.20558e-05 0.082261)
(-8.85684e-07 4.84432e-06 0.0683903)
(-1.38343e-06 -1.22853e-05 0.0858611)
(-6.94374e-07 4.20968e-06 0.0768657)
(-2.52988e-07 4.98173e-06 0.0913667)
(1.27904e-07 -7.41974e-06 0.078686)
(-1.15535e-06 -1.59651e-05 0.0899336)
(5.16888e-07 -7.40536e-06 0.0769154)
(-1.92993e-07 3.83357e-06 0.0786429)
(-5.37357e-07 5.47701e-06 0.0898832)
(-5.32531e-07 -7.46669e-06 0.0769062)
(1.70745e-07 3.83873e-06 0.0786345)
(5.08786e-07 5.5298e-06 0.089875)
(3.10106e-07 -1.66107e-05 0.0914038)
(6.67372e-07 4.26758e-06 0.0768589)
(-1.27094e-07 -7.42632e-06 0.0786774)
(1.15103e-06 -1.60234e-05 0.0899249)
(8.67524e-07 4.92011e-06 0.0683979)
(-6.52209e-07 7.17488e-06 0.0822176)
(1.36958e-06 -1.23293e-05 0.0858678)
(7.43536e-07 5.85377e-06 0.0858116)
(-1.91468e-07 -6.09849e-06 0.0684589)
(-2.03347e-07 -6.10783e-06 0.0684513)
(7.34413e-07 5.84841e-06 0.0858031)
(1.17506e-06 -1.21094e-05 0.0822605)
(8.53182e-07 4.92026e-06 0.0683903)
(1.36245e-06 -1.23458e-05 0.0858593)
(6.76233e-07 4.26263e-06 0.0768673)
(2.29702e-07 4.99097e-06 0.0913667)
(-1.26644e-07 -7.42247e-06 0.0786859)
(1.15527e-06 -1.60124e-05 0.0899329)
(1.70822e-07 3.83961e-06 0.0786431)
(5.14577e-07 5.52353e-06 0.0898831)
(-5.25733e-07 -7.45967e-06 0.0769145)
(-3.14922e-06 3.10901e-06 0.0835872)
(5.12554e-06 -3.64623e-06 0.0683482)
(3.60439e-06 -5.17032e-06 0.0683536)
(-4.10275e-06 2.63238e-06 0.0682919)
(-2.65829e-06 4.06606e-06 0.0682973)
(7.26429e-06 -7.30564e-06 0.0836339)
(1.0323e-05 -1.69061e-05 0.0916858)
(-5.60301e-06 1.10114e-05 0.0962464)
(6.87451e-06 -9.97422e-06 0.0875665)
(-3.06053e-06 3.80608e-06 0.0815184)
(3.98284e-06 -8.15069e-06 0.0815706)
(1.42073e-05 -2.4112e-05 0.0962961)
(-3.84632e-06 7.77593e-06 0.0916373)
(1.68814e-05 -1.03565e-05 0.0916924)
(-1.09854e-05 5.54245e-06 0.0962499)
(9.908e-06 -6.90463e-06 0.0875687)
(-3.81786e-06 3.03277e-06 0.0815231)
(2.40649e-05 -1.42481e-05 0.0962992)
(8.09973e-06 -4.04185e-06 0.0815756)
(-7.80285e-06 3.78069e-06 0.0916441)
(-3.84476e-06 7.78007e-06 0.0916443)
(3.98706e-06 -8.1362e-06 0.0815784)
(-3.51231e-06 3.54329e-06 0.0875244)
(1.42064e-05 -2.40902e-05 0.096302)
(-3.05169e-06 3.8133e-06 0.0815262)
(-5.59405e-06 1.10102e-05 0.0962523)
(1.03145e-05 -1.68834e-05 0.0916928)
(-7.80761e-06 3.77873e-06 0.0916511)
(8.08343e-06 -4.04556e-06 0.0815834)
(-3.51561e-06 3.44994e-06 0.0875254)
(2.40427e-05 -1.42477e-05 0.096305)
(-1.09847e-05 5.53252e-06 0.0962557)
(-3.82556e-06 3.02333e-06 0.0815309)
(1.68583e-05 -1.03486e-05 0.0916994)
(7.27419e-06 -7.3151e-06 0.0836264)
(-4.10612e-06 2.63096e-06 0.0682852)
(-2.65635e-06 4.0704e-06 0.0682906)
(5.12772e-06 -3.65463e-06 0.0683414)
(3.61273e-06 -5.17183e-06 0.0683469)
(-3.14681e-06 3.10709e-06 0.0835796)
(5.88799e-06 -3.25919e-06 0.0715672)
(-4.28394e-06 2.54932e-06 0.0715172)
(-2.60466e-06 4.3425e-06 0.0715345)
(3.2915e-06 -5.93358e-06 0.0715809)
(7.2546e-06 -7.29601e-06 0.0836414)
(-4.09914e-06 2.63463e-06 0.0682987)
(-2.66077e-06 4.06235e-06 0.0683041)
(-3.15202e-06 3.1114e-06 0.0835947)
(5.12263e-06 -3.63841e-06 0.0683549)
(3.59623e-06 -5.16755e-06 0.0683603)
(-3.84611e-06 7.79492e-06 0.0916584)
(1.4203e-05 -2.40431e-05 0.0963137)
(-3.4916e-06 3.56112e-06 0.0875403)
(3.99291e-06 -8.10393e-06 0.081594)
(-5.57874e-06 1.10159e-05 0.0962641)
(-3.03721e-06 3.83208e-06 0.0815419)
(1.02954e-05 -1.68377e-05 0.0917068)
(-7.8232e-06 3.77994e-06 0.0916652)
(2.39948e-05 -1.42447e-05 0.0963167)
(-3.53475e-06 3.42867e-06 0.0875414)
(8.05031e-06 -4.05249e-06 0.081599)
(-3.84533e-06 3.00848e-06 0.0815466)
(-1.09912e-05 5.5172e-06 0.0962675)
(1.68117e-05 -1.03299e-05 0.0917134)
(1.03061e-05 -1.68612e-05 0.0916998)
(-3.04374e-06 3.81999e-06 0.081534)
(-5.58719e-06 1.10117e-05 0.0962582)
(6.8842e-06 -9.94142e-06 0.0875824)
(1.42056e-05 -2.40683e-05 0.0963078)
(-3.84561e-06 7.78586e-06 0.0916514)
(3.99107e-06 -8.12204e-06 0.0815862)
(1.68357e-05 -1.034e-05 0.0917064)
(-3.83304e-06 3.015e-06 0.0815387)
(-1.09868e-05 5.52528e-06 0.0962616)
(9.87436e-06 -6.91536e-06 0.0875846)
(-7.81378e-06 3.77849e-06 0.0916581)
(8.06916e-06 -4.05025e-06 0.0815912)
(2.402e-05 -1.42466e-05 0.0963109)
(-3.15612e-06 3.11516e-06 0.0836022)
(5.12037e-06 -3.63079e-06 0.0683616)
(3.58836e-06 -5.16603e-06 0.068367)
(-4.09502e-06 2.6367e-06 0.0683054)
(-2.6634e-06 4.0583e-06 0.0683108)
(7.24428e-06 -7.28604e-06 0.0836489)
(-4.29488e-06 2.51961e-06 0.0715326)
(5.86098e-06 -3.28543e-06 0.0715825)
(4.22166e-06 6.94413e-07 0.0768491)
(-7.46346e-06 -1.66329e-07 0.0786683)
(-1.60016e-05 1.08559e-06 0.0899174)
(5.02382e-06 2.66738e-07 0.0913517)
(3.8697e-06 2.01553e-07 0.0786274)
(5.50365e-06 5.50211e-07 0.0898669)
(-7.42777e-06 -5.89149e-07 0.0768985)
(-6.07179e-06 -2.79269e-07 0.0684397)
(-1.20936e-05 1.14979e-06 0.0822448)
(5.7997e-06 7.3922e-07 0.0857862)
(-1.23443e-05 1.31287e-06 0.0858441)
(4.85461e-06 8.69454e-07 0.0683747)
(4.85549e-06 8.84301e-07 0.0683823)
(-1.23281e-05 1.31961e-06 0.0858525)
(7.11226e-06 -6.703e-07 0.0821999)
(5.80573e-06 7.48503e-07 0.0857947)
(-6.06333e-06 -2.67325e-07 0.0684472)
(-7.43243e-06 -5.95805e-07 0.0768902)
(-1.66511e-05 2.63828e-07 0.0913879)
(3.87174e-06 2.00682e-07 0.0786189)
(5.51087e-06 5.45083e-07 0.0898588)
(-7.47302e-06 -1.67049e-07 0.0786598)
(-1.6011e-05 1.08315e-06 0.0899093)
(4.22504e-06 6.85716e-07 0.0768407)
(-7.45941e-06 5.33289e-07 0.0769067)
(5.54132e-06 -5.39835e-07 0.0898755)
(3.87538e-06 -1.833e-07 0.0786362)
(-1.66337e-05 -3.18032e-07 0.0914035)
(4.26957e-06 -6.88294e-07 0.0768598)
(-1.60227e-05 -1.14692e-06 0.0899251)
(-7.46212e-06 1.1538e-07 0.0786769)
(4.92174e-06 -8.76276e-07 0.0683985)
(7.14208e-06 6.24078e-07 0.0822175)
(-1.23361e-05 -1.37919e-06 0.0858684)
(-6.09691e-06 1.86122e-07 0.0684595)
(5.85698e-06 -7.62521e-07 0.0858121)
(-6.10586e-06 1.99105e-07 0.0684519)
(5.8527e-06 -7.5278e-07 0.0858036)
(-1.20783e-05 -1.1878e-06 0.0822615)
(4.92237e-06 -8.61856e-07 0.0683909)
(-1.23518e-05 -1.36942e-06 0.0858599)
(4.26458e-06 -6.97183e-07 0.0768682)
(5.01408e-06 -2.51695e-07 0.0913673)
(-1.60149e-05 -1.15216e-06 0.0899331)
(-7.45294e-06 1.17279e-07 0.0786854)
(-7.45447e-06 5.26828e-07 0.076915)
(5.53224e-06 -5.46423e-07 0.0898837)
(3.87159e-06 -1.83778e-07 0.0786448)
(-7.42214e-06 -5.82669e-07 0.0769069)
(3.86916e-06 2.0188e-07 0.078636)
(5.49778e-06 5.55695e-07 0.089875)
(-1.66308e-05 2.61494e-07 0.0914034)
(4.21774e-06 7.03592e-07 0.0768575)
(-7.45843e-06 -1.67059e-07 0.0786768)
(-1.59911e-05 1.08915e-06 0.0899254)
(4.85597e-06 9.15598e-07 0.0683974)
(7.12466e-06 -6.50314e-07 0.0822168)
(-1.22965e-05 1.33506e-06 0.0858694)
(5.81792e-06 7.6864e-07 0.0858117)
(-6.04468e-06 -2.42425e-07 0.0684623)
(-6.05372e-06 -2.5459e-07 0.0684548)
(5.81216e-06 7.58773e-07 0.0858032)
(-1.20653e-05 1.16711e-06 0.0822616)
(4.85503e-06 9.00535e-07 0.0683898)
(-1.23119e-05 1.32661e-06 0.085861)
(4.21198e-06 7.13612e-07 0.0768659)
(5.01232e-06 2.6603e-07 0.0913673)
(-7.44827e-06 -1.66067e-07 0.0786853)
(-1.59839e-05 1.09375e-06 0.0899335)
(3.86608e-06 2.03462e-07 0.0786445)
(5.49257e-06 5.61657e-07 0.0898831)
(-7.41339e-06 -5.76381e-07 0.0769153)
(-4.27501e-06 -6.99202e-07 0.0768512)
(1.60349e-05 -1.16451e-06 0.0899175)
(7.43031e-06 1.14236e-07 0.0786693)
(-5e-06 -2.75458e-07 0.0913515)
(-5.54615e-06 -5.46817e-07 0.0898674)
(-3.8387e-06 -2.11189e-07 0.0786265)
(7.47086e-06 5.27043e-07 0.0768985)
(6.12391e-06 2.1276e-07 0.0684372)
(1.2093e-05 -1.17062e-06 0.082245)
(-5.84626e-06 -7.56726e-07 0.0857868)
(1.2379e-05 -1.36372e-06 0.0858435)
(-4.92912e-06 -8.5325e-07 0.0683759)
(-4.92925e-06 -8.69122e-07 0.0683835)
(1.23626e-05 -1.37071e-06 0.0858519)
(-7.12875e-06 6.19188e-07 0.0822005)
(-5.85241e-06 -7.66567e-07 0.0857953)
(6.11524e-06 2.00164e-07 0.0684447)
(7.47679e-06 5.33299e-07 0.0768902)
(1.66266e-05 -3.29437e-07 0.0913886)
(-5.55402e-06 -5.41174e-07 0.0898593)
(-3.84316e-06 -2.11341e-07 0.0786179)
(1.60448e-05 -1.16216e-06 0.0899094)
(7.43314e-06 1.13183e-07 0.0786608)
(-4.27606e-06 -6.91031e-07 0.0768427)
(-4.26093e-06 6.34161e-07 0.0768506)
(7.4275e-06 -1.37905e-07 0.0786691)
(1.60327e-05 1.127e-06 0.0899173)
(-4.9936e-06 2.02828e-07 0.0913515)
(-3.8349e-06 1.46743e-07 0.0786264)
(-5.52092e-06 4.75501e-07 0.0898674)
(7.46641e-06 -5.55737e-07 0.0768979)
(6.12307e-06 -2.393e-07 0.0684388)
(1.21263e-05 1.14744e-06 0.0822443)
(-5.8208e-06 6.82845e-07 0.0857876)
(1.23773e-05 1.3378e-06 0.0858438)
(-4.90782e-06 7.91981e-07 0.0683778)
(-4.90879e-06 8.09394e-07 0.0683854)
(1.23603e-05 1.34595e-06 0.0858523)
(-7.13471e-06 -6.92501e-07 0.0822015)
(-5.828e-06 6.94366e-07 0.0857961)
(6.1137e-06 -2.2532e-07 0.0684464)
(7.47063e-06 -5.64004e-07 0.0768895)
(1.66229e-05 2.92662e-07 0.0913886)
(-3.83888e-06 1.45563e-07 0.0786178)
(-5.52846e-06 4.6913e-07 0.0898593)
(7.43115e-06 -1.39229e-07 0.0786606)
(1.60433e-05 1.12405e-06 0.0899092)
(-4.26423e-06 6.24113e-07 0.0768422)
(7.46376e-06 5.21608e-07 0.0769069)
(-5.54083e-06 -5.52023e-07 0.0898755)
(-3.83817e-06 -2.1e-07 0.078635)
(1.66052e-05 -3.25775e-07 0.0914041)
(-4.27298e-06 -7.07612e-07 0.0768596)
(1.60241e-05 -1.16792e-06 0.0899255)
(7.42128e-06 1.15796e-07 0.0786777)
(-4.92806e-06 -8.99568e-07 0.0683986)
(-7.14308e-06 6.0095e-07 0.0822174)
(1.23302e-05 -1.3842e-06 0.0858688)
(-5.86245e-06 -7.86593e-07 0.0858123)
(6.09722e-06 1.7581e-07 0.0684598)
(6.1061e-06 1.88097e-07 0.0684523)
(-5.85724e-06 -7.76885e-07 0.0858038)
(1.20632e-05 -1.18695e-06 0.0822619)
(-4.92856e-06 -8.85172e-07 0.0683911)
(1.23457e-05 -1.37745e-06 0.0858604)
(-4.27323e-06 -7.15516e-07 0.076868)
(-4.98812e-06 -2.73121e-07 0.0913671)
(1.60144e-05 -1.17154e-06 0.0899336)
(7.41216e-06 1.17158e-07 0.0786862)
(-5.53508e-06 -5.5796e-07 0.0898836)
(-3.83463e-06 -2.10104e-07 0.0786435)
(7.46192e-06 5.1463e-07 0.0769153)
(7.45556e-06 -5.48605e-07 0.0769063)