/*--------------------------------*- C++ -*----------------------------------*\
| =========                 |                                                 |
| \\      /  F ield         | OpenFOAM: The Open Source CFD Toolbox           |
|  \\    /   O peration     | Version:  v1906                                 |
|   \\  /    A nd           | Web:      www.OpenFOAM.com                      |
|    \\/     M anipulation  |                                                 |
\*---------------------------------------------------------------------------*/
FoamFile
{
    version     2.0;
    format      ascii;
    class       volScalarField;
    location    "450";
    object      epsilon;
}
// * * * * * * * * * * * * * * * * * * * * * * * * * * * * * * * * * * * * * //

dimensions      [0 2 -3 0 0 0 0];


internalField   nonuniform List<scalar> 
171728
(
1.14847e-06
8.63017e-07
8.62982e-07
1.14807e-06
8.62758e-07
8.63047e-07
8.62809e-07
8.63066e-07
1.14825e-06
8.6292e-07
8.62936e-07
1.14844e-06
3.19702e-07
3.19697e-07
3.19794e-07
3.19805e-07
1.84275e-05
1.84294e-05
5.46238e-06
5.46329e-06
4.09141e-06
9.16118e-06
4.09379e-06
4.09184e-06
9.16216e-06
9.15567e-06
4.09372e-06
2.10219e-06
3.47504e-06
5.58256e-07
5.52353e-07
2.10688e-06
2.10228e-06
8.56912e-07
3.47548e-06
5.58294e-07
3.4717e-06
5.52405e-07
2.10682e-06
1.84289e-05
1.84186e-05
1.14406e-06
5.46362e-06
5.46175e-06
5.46126e-06
5.45942e-06
1.84264e-05
1.8416e-05
9.16301e-06
4.09398e-06
3.4753e-06
5.58325e-07
2.10695e-06
9.16277e-06
4.09356e-06
5.58355e-07
3.47519e-06
2.1069e-06
2.10236e-06
8.56739e-07
3.47474e-06
5.58281e-07
3.47169e-06
5.52391e-07
2.10701e-06
4.09171e-06
9.16202e-06
9.15555e-06
4.09405e-06
2.10231e-06
8.56987e-07
5.58356e-07
3.47507e-06
5.52467e-07
3.47167e-06
2.10693e-06
4.0916e-06
9.16244e-06
9.15547e-06
4.09396e-06
1.843e-05
5.46363e-06
5.46187e-06
1.84282e-05
2.10239e-06
5.58382e-07
3.47489e-06
5.52478e-07
2.10697e-06
2.10245e-06
8.56862e-07
5.58411e-07
3.47566e-06
5.52525e-07
3.4721e-06
2.10705e-06
4.09157e-06
9.16217e-06
4.09401e-06
4.09165e-06
9.16352e-06
9.15655e-06
4.09408e-06
1.14439e-06
5.46197e-06
5.46388e-06
5.45958e-06
5.46148e-06
1.84286e-05
1.84183e-05
1.84304e-05
1.842e-05
1.84224e-05
1.84247e-05
4.53805e-06
2.81201e-06
5.46165e-06
9.50066e-06
9.49662e-06
2.81003e-06
4.54043e-06
4.5443e-06
2.81176e-06
5.46369e-06
9.5038e-06
9.50082e-06
2.81166e-06
4.54257e-06
9.73606e-06
2.17307e-05
2.17285e-05
2.17239e-05
2.17227e-05
9.73558e-06
1.22035e-05
1.08241e-05
4.74416e-06
4.09192e-06
1.22007e-05
1.0827e-05
4.74432e-06
2.20542e-05
9.15853e-06
7.08841e-06
7.08895e-06
2.20611e-05
1.22041e-05
4.0934e-06
1.08303e-05
4.74585e-06
1.08273e-05
4.74585e-06
1.22069e-05
1.22035e-05
1.08247e-05
4.74455e-06
4.09191e-06
1.2201e-05
1.08267e-05
4.74441e-06
2.20548e-05
9.15965e-06
7.09015e-06
7.09054e-06
2.20614e-05
2.20567e-05
7.08954e-06
9.15821e-06
2.20502e-05
7.08915e-06
1.22044e-05
4.09355e-06
1.08299e-05
4.74612e-06
1.08278e-05
4.7462e-06
1.2207e-05
1.84239e-05
1.84235e-05
9.73331e-06
2.17174e-05
2.17181e-05
9.73372e-06
2.17236e-05
2.17243e-05
4.54454e-06
2.81209e-06
5.4636e-06
9.50421e-06
2.8116e-06
9.50073e-06
4.54457e-06
4.5385e-06
2.81092e-06
5.46175e-06
9.4997e-06
9.49603e-06
2.81041e-06
4.53859e-06
4.54192e-06
9.49629e-06
2.80835e-06
5.46129e-06
2.80892e-06
4.54188e-06
9.49938e-06
4.53596e-06
9.49138e-06
2.80718e-06
5.45945e-06
4.53583e-06
9.49495e-06
2.80774e-06
9.73569e-06
2.17287e-05
2.17294e-05
2.17224e-05
2.17231e-05
9.73529e-06
1.84213e-05
1.8421e-05
2.20549e-05
9.1606e-06
7.09012e-06
7.09048e-06
2.20614e-05
1.22047e-05
4.09359e-06
4.74602e-06
1.0831e-05
4.74612e-06
1.0828e-05
1.22073e-05
2.2055e-05
9.15982e-06
7.08869e-06
7.0892e-06
2.20618e-05
1.22048e-05
4.09376e-06
1.08303e-05
4.74598e-06
1.08283e-05
4.74599e-06
1.22075e-05
1.22034e-05
4.74432e-06
1.08244e-05
4.09209e-06
1.22004e-05
4.74455e-06
1.08274e-05
2.20535e-05
9.15954e-06
7.08963e-06
7.08999e-06
2.20601e-05
2.20555e-05
7.08901e-06
9.15808e-06
2.20489e-05
7.08863e-06
1.22038e-05
4.09351e-06
4.74615e-06
1.08306e-05
4.74589e-06
1.08276e-05
1.22069e-05
1.22038e-05
1.08243e-05
4.74427e-06
4.09205e-06
1.22011e-05
1.08273e-05
4.74419e-06
2.20545e-05
9.15942e-06
7.08832e-06
7.08869e-06
2.20611e-05
2.20565e-05
7.0877e-06
9.15842e-06
2.20499e-05
7.08732e-06
1.22045e-05
4.09348e-06
1.08305e-05
4.7458e-06
1.08275e-05
4.74591e-06
1.22071e-05
1.8425e-05
4.54465e-06
2.81248e-06
5.46358e-06
9.50451e-06
2.81155e-06
9.50082e-06
4.54507e-06
4.53885e-06
2.81138e-06
5.46188e-06
9.49946e-06
9.49653e-06
2.81051e-06
4.53883e-06
9.73656e-06
2.173e-05
2.17303e-05
2.17236e-05
2.1724e-05
9.7362e-06
1.84233e-05
1.22038e-05
4.74401e-06
1.08247e-05
4.09211e-06
1.22009e-05
4.74435e-06
1.08276e-05
2.20543e-05
9.15966e-06
7.08825e-06
7.08861e-06
2.20609e-05
2.20563e-05
7.08724e-06
1.22042e-05
4.09346e-06
4.74574e-06
1.08308e-05
4.74572e-06
1.08278e-05
1.22073e-05
1.22038e-05
4.74449e-06
1.08248e-05
4.09219e-06
1.22008e-05
4.74468e-06
1.08277e-05
2.20543e-05
9.16049e-06
7.09004e-06
7.09054e-06
2.20612e-05
2.20566e-05
7.08955e-06
9.1595e-06
2.20498e-05
7.08903e-06
1.22041e-05
4.09353e-06
4.74626e-06
1.08309e-05
4.74614e-06
1.08279e-05
1.22073e-05
9.73405e-06
2.17192e-05
2.17185e-05
9.73445e-06
2.17255e-05
2.17248e-05
4.53874e-06
2.81101e-06
5.46194e-06
9.49973e-06
2.81043e-06
9.49679e-06
4.53902e-06
4.5448e-06
2.81224e-06
5.46388e-06
9.50451e-06
2.81164e-06
9.50156e-06
4.54485e-06
4.53646e-06
9.49207e-06
2.80716e-06
5.45968e-06
4.53601e-06
2.80806e-06
9.49508e-06
4.54226e-06
9.49684e-06
2.80836e-06
5.46154e-06
4.5422e-06
2.80928e-06
9.49986e-06
9.73643e-06
2.17305e-05
2.17298e-05
2.17242e-05
2.17235e-05
9.73603e-06
1.84236e-05
1.84232e-05
1.84254e-05
1.8425e-05
2.66813e-06
1.14913e-06
1.76786e-06
1.76757e-06
1.7677e-06
1.76772e-06
2.66797e-06
2.66815e-06
1.14908e-06
1.76745e-06
1.76734e-06
1.76801e-06
1.76786e-06
2.6679e-06
2.66775e-06
1.1492e-06
1.76784e-06
1.76764e-06
1.76778e-06
1.76775e-06
2.66788e-06
2.66792e-06
1.14929e-06
1.76788e-06
1.76819e-06
1.76757e-06
1.76784e-06
2.66861e-06
1.6662e-07
1.66605e-07
1.6451e-07
7.94053e-08
7.99476e-08
3.15757e-07
1.66623e-07
1.6658e-07
1.64511e-07
1.64471e-07
7.94024e-08
7.99441e-08
1.66674e-07
1.66646e-07
1.64531e-07
7.94243e-08
7.99675e-08
3.15862e-07
1.66667e-07
1.66647e-07
1.64554e-07
1.64535e-07
7.94231e-08
7.99662e-08
1.41084e-06
2.36151e-06
1.27362e-06
2.10319e-06
1.41072e-06
2.36237e-06
1.27397e-06
1.61689e-06
2.03266e-06
3.47445e-06
2.86034e-06
2.03143e-06
2.85954e-06
1.61722e-06
1.41576e-06
2.10585e-06
2.36576e-06
1.27955e-06
2.36487e-06
1.27893e-06
1.4159e-06
1.40965e-06
2.36178e-06
1.27433e-06
2.1032e-06
1.41234e-06
2.36261e-06
1.27305e-06
1.61786e-06
2.03261e-06
3.47468e-06
2.86083e-06
2.86011e-06
2.03185e-06
1.61693e-06
1.61198e-06
2.85719e-06
2.02776e-06
3.47264e-06
1.61365e-06
2.85785e-06
2.02846e-06
1.41731e-06
2.10595e-06
2.36596e-06
1.27822e-06
2.36515e-06
1.27978e-06
1.41469e-06
2.66472e-06
1.14329e-06
1.76378e-06
1.76365e-06
1.76368e-06
2.66467e-06
1.76357e-06
1.61835e-06
2.03246e-06
3.47526e-06
2.86043e-06
2.03205e-06
2.86018e-06
1.61594e-06
1.41661e-06
2.10605e-06
2.36597e-06
1.27831e-06
2.36512e-06
1.28001e-06
1.41498e-06
1.61823e-06
2.03224e-06
3.47511e-06
2.86037e-06
2.85971e-06
2.03236e-06
1.61585e-06
1.41652e-06
2.10595e-06
1.27828e-06
2.36579e-06
1.27996e-06
2.36493e-06
1.41491e-06
1.41113e-06
2.3618e-06
1.27342e-06
2.10333e-06
1.41101e-06
2.36261e-06
1.2742e-06
1.61721e-06
2.03222e-06
3.47459e-06
2.86068e-06
2.03149e-06
2.85995e-06
1.61747e-06
1.6129e-06
2.85703e-06
2.0274e-06
3.47193e-06
1.61248e-06
2.02814e-06
2.85767e-06
1.41602e-06
2.10603e-06
2.36597e-06
1.27951e-06
2.36515e-06
1.27872e-06
1.41614e-06
1.40957e-06
1.27366e-06
2.36165e-06
2.10325e-06
1.41225e-06
1.2741e-06
2.36244e-06
1.61848e-06
2.03216e-06
3.47459e-06
2.86003e-06
2.85988e-06
2.03211e-06
1.61592e-06
1.61176e-06
2.85691e-06
2.02768e-06
3.47213e-06
1.61357e-06
2.85712e-06
2.02768e-06
1.41726e-06
2.10597e-06
1.27956e-06
2.36579e-06
1.27892e-06
2.36502e-06
1.41463e-06
1.41106e-06
1.2736e-06
2.36168e-06
2.10332e-06
1.41094e-06
1.27417e-06
2.36245e-06
1.61695e-06
2.03163e-06
3.47482e-06
2.85991e-06
2.03216e-06
2.85963e-06
1.61723e-06
1.61261e-06
2.85724e-06
1.41594e-06
2.10607e-06
1.27963e-06
2.36583e-06
1.27892e-06
2.36502e-06
1.41606e-06
1.40991e-06
1.27374e-06
2.36189e-06
2.10337e-06
1.41233e-06
1.27424e-06
2.36261e-06
1.61864e-06
2.03289e-06
3.47512e-06
2.86087e-06
2.86013e-06
2.03251e-06
1.61615e-06
1.61197e-06
2.85719e-06
2.02806e-06
3.47283e-06
1.61375e-06
2.85786e-06
2.02808e-06
1.41687e-06
2.10609e-06
1.27971e-06
2.36596e-06
1.27903e-06
2.36525e-06
1.41556e-06
2.66535e-06
1.14355e-06
1.76327e-06
1.76367e-06
2.66438e-06
1.76377e-06
1.76407e-06
6.51813e-07
1.18283e-06
1.18288e-06
1.41515e-06
1.41809e-06
1.41511e-06
1.41587e-06
1.18289e-06
1.18293e-06
1.18521e-06
1.18525e-06
1.41512e-06
1.41581e-06
1.18279e-06
1.18293e-06
1.18512e-06
1.18526e-06
1.18294e-06
1.18516e-06
1.18527e-06
1.41514e-06
1.41589e-06
1.18285e-06
1.18521e-06
1.18518e-06
1.41588e-06
1.18599e-06
1.1859e-06
4.23627e-06
9.54932e-06
9.55412e-06
4.23569e-06
1.9061e-05
1.90714e-05
4.23644e-06
9.55134e-06
9.55613e-06
4.2358e-06
6.51832e-07
6.51918e-07
6.51906e-07
6.56471e-07
6.5649e-07
6.56576e-07
6.56567e-07
2.29402e-06
3.64444e-06
9.29834e-07
1.18364e-06
3.64489e-06
9.30942e-07
2.29369e-06
1.90619e-05
1.90725e-05
2.29393e-06
9.29875e-07
3.64443e-06
1.18368e-06
9.30981e-07
3.64492e-06
2.29367e-06
5.64518e-06
5.6471e-06
1.41443e-06
5.64626e-06
5.6482e-06
5.64955e-06
5.65147e-06
1.90594e-05
1.90699e-05
1.90618e-05
1.90723e-05
5.64506e-06
5.64696e-06
1.41443e-06
5.64616e-06
5.64804e-06
1.9081e-05
1.90706e-05
1.90834e-05
1.9073e-05
1.41662e-06
5.64834e-06
5.65022e-06
5.64727e-06
5.64917e-06
4.23638e-06
9.55045e-06
9.55527e-06
4.2358e-06
2.29388e-06
3.64423e-06
9.29765e-07
1.18369e-06
3.64472e-06
9.30874e-07
2.29362e-06
2.29396e-06
3.64476e-06
9.29811e-07
1.18373e-06
3.64524e-06
9.30918e-07
2.29368e-06
4.23703e-06
9.55999e-06
9.55517e-06
4.23756e-06
4.23713e-06
9.56105e-06
9.55632e-06
4.23767e-06
2.29446e-06
1.18448e-06
3.64598e-06
9.32985e-07
3.64553e-06
9.31961e-07
2.29467e-06
2.2945e-06
1.18452e-06
3.64649e-06
9.33029e-07
3.64607e-06
9.32005e-07
2.29475e-06
5.64685e-06
5.6452e-06
1.41437e-06
5.64792e-06
5.64616e-06
1.90586e-05
1.90692e-05
1.90825e-05
1.90721e-05
1.41663e-06
5.6501e-06
5.64834e-06
5.64907e-06
5.64742e-06
1.90802e-05
1.90698e-05
2.29402e-06
3.64499e-06
9.29816e-07
1.18359e-06
3.64543e-06
9.30944e-07
2.29374e-06
4.23635e-06
9.55048e-06
9.55567e-06
4.2357e-06
2.29394e-06
9.29844e-07
3.64483e-06
1.18373e-06
9.30952e-07
3.64527e-06
2.29366e-06
4.23715e-06
9.562e-06
9.5572e-06
4.23773e-06
2.29459e-06
1.18438e-06
3.64669e-06
9.33057e-07
3.6463e-06
9.32012e-07
2.29481e-06
4.23705e-06
9.56145e-06
9.55638e-06
4.23765e-06
2.29451e-06
1.18452e-06
9.33065e-07
3.64652e-06
9.3204e-07
3.64614e-06
2.29473e-06
4.23646e-06
9.55026e-06
9.55544e-06
4.23586e-06
2.29393e-06
9.29844e-07
3.64435e-06
1.18374e-06
9.3095e-07
3.64483e-06
2.29365e-06
4.23635e-06
9.55042e-06
9.55521e-06
4.23578e-06
2.29454e-06
1.18442e-06
3.64615e-06
9.33053e-07
3.64575e-06
9.3203e-07
2.29481e-06
4.2372e-06
9.56117e-06
9.55615e-06
4.23775e-06
2.2945e-06
1.18454e-06
9.33062e-07
3.64609e-06
9.32042e-07
3.64565e-06
2.29471e-06
4.23712e-06
9.561e-06
9.55629e-06
4.23764e-06
5.64699e-06
5.64517e-06
1.41446e-06
5.64794e-06
5.64628e-06
1.90606e-05
1.9071e-05
1.90835e-05
1.90731e-05
1.41665e-06
5.65011e-06
5.64845e-06
5.64921e-06
5.64739e-06
1.90821e-05
1.90717e-05
2.29398e-06
9.2989e-07
3.64497e-06
1.18365e-06
9.30995e-07
3.64544e-06
2.29371e-06
4.23633e-06
9.55059e-06
9.55539e-06
4.23578e-06
4.23638e-06
9.55141e-06
9.55621e-06
4.23577e-06
2.29451e-06
1.18447e-06
9.33091e-07
3.64617e-06
9.32069e-07
3.64573e-06
2.29471e-06
2.29455e-06
1.18444e-06
9.33106e-07
3.6467e-06
9.32085e-07
3.64628e-06
2.29477e-06
4.23711e-06
9.56117e-06
9.55645e-06
4.23762e-06
4.2371e-06
9.56213e-06
9.55729e-06
4.23767e-06
1.90606e-05
1.9071e-05
1.90624e-05
1.90729e-05
1.41668e-06
5.64844e-06
5.65038e-06
5.6474e-06
5.64931e-06
1.90821e-05
1.90718e-05
1.90839e-05
1.90735e-05
9.34073e-07
3.64689e-06
2.29525e-06
9.56206e-06
4.23838e-06
3.6475e-06
9.56282e-06
1.90828e-05
1.90845e-05
1.26402e-05
1.12331e-05
4.88158e-06
4.23637e-06
1.12301e-05
4.88172e-06
1.2643e-05
2.2738e-05
9.5512e-06
7.23779e-06
7.23742e-06
2.27309e-05
2.27374e-05
7.2387e-06
9.55225e-06
7.23908e-06
2.27445e-05
1.2639e-05
4.2356e-06
1.12266e-05
4.88098e-06
1.12296e-05
4.88083e-06
1.26364e-05
1.90659e-05
1.90666e-05
1.26402e-05
4.88189e-06
1.12335e-05
4.23648e-06
4.88194e-06
1.12312e-05
1.26438e-05
2.2738e-05
9.55322e-06
7.23925e-06
7.23907e-06
2.27311e-05
2.27375e-05
7.24035e-06
9.55428e-06
7.24054e-06
2.27444e-05
1.26399e-05
4.23575e-06
4.8812e-06
1.12277e-05
4.88113e-06
1.123e-05
1.26364e-05
1.90669e-05
1.90675e-05
9.95768e-06
2.23739e-05
2.23731e-05
2.23677e-05
2.23668e-05
9.95735e-06
4.70054e-06
2.97311e-06
5.64514e-06
9.91423e-06
2.97294e-06
9.91616e-06
4.70088e-06
4.70627e-06
2.9743e-06
5.6471e-06
9.91866e-06
2.97414e-06
9.9212e-06
4.7066e-06
4.7016e-06
9.91907e-06
5.6463e-06
2.97336e-06
2.97353e-06
9.91719e-06
4.70125e-06
4.70731e-06
9.92413e-06
5.64821e-06
2.97456e-06
2.97472e-06
9.92163e-06
4.70698e-06
9.95554e-06
2.23618e-05
2.2361e-05
2.23681e-05
2.23673e-05
9.95586e-06
4.70327e-06
2.97467e-06
9.92576e-06
5.64951e-06
4.70364e-06
2.97449e-06
9.92794e-06
4.709e-06
2.97586e-06
9.93028e-06
5.65145e-06
4.70935e-06
2.97568e-06
9.93286e-06
9.96267e-06
2.2385e-05
2.23842e-05
9.96303e-06
2.23912e-05
2.23903e-05
1.90643e-05
1.9065e-05
1.90667e-05
1.90674e-05
9.95757e-06
2.2374e-05
2.23732e-05
2.23677e-05
2.2367e-05
9.95725e-06
4.70053e-06
2.97309e-06
5.64504e-06
9.91422e-06
9.91625e-06
2.97294e-06
4.70085e-06
4.70625e-06
2.97426e-06
5.64692e-06
9.91915e-06
9.9211e-06
2.9741e-06
4.70656e-06
4.70156e-06
9.91932e-06
5.64617e-06
2.97336e-06
9.91695e-06
4.70124e-06
2.97351e-06
4.70727e-06
9.92399e-06
5.64807e-06
2.97451e-06
9.92211e-06
4.70696e-06
2.97468e-06
9.95544e-06
2.23619e-05
2.23611e-05
2.23681e-05
2.23674e-05
9.95575e-06
1.90761e-05
1.90754e-05
1.90785e-05
1.90779e-05
9.95904e-06
2.23736e-05
2.23728e-05
9.95938e-06
2.23798e-05
2.2379e-05
4.70295e-06
2.97413e-06
5.64835e-06
9.92526e-06
9.92274e-06
2.9743e-06
4.70261e-06
4.70866e-06
2.97528e-06
5.65026e-06
9.92983e-06
9.92797e-06
2.97546e-06
4.70832e-06
4.70193e-06
9.91982e-06
2.97392e-06
5.64726e-06
4.70226e-06
9.92232e-06
2.97375e-06
4.70765e-06
9.92506e-06
2.97508e-06
5.64914e-06
4.70797e-06
9.92696e-06
2.97491e-06
9.96116e-06
2.23855e-05
2.23848e-05
2.23793e-05
2.23786e-05
9.96082e-06
1.26404e-05
1.1233e-05
4.88188e-06
4.23647e-06
1.12305e-05
4.88195e-06
1.2643e-05
2.27381e-05
9.55238e-06
7.2393e-06
7.23911e-06
2.27311e-05
2.27376e-05
7.24039e-06
9.5534e-06
7.24059e-06
2.27445e-05
1.26391e-05
4.23571e-06
1.12271e-05
4.88122e-06
1.12294e-05
4.88114e-06
1.26365e-05
1.2647e-05
1.12337e-05
4.88245e-06
4.23693e-06
1.26439e-05
1.12366e-05
4.88231e-06
2.27502e-05
9.55805e-06
7.24122e-06
2.27573e-05
7.24161e-06
2.27509e-05
7.24035e-06
9.55708e-06
2.27438e-05
7.23997e-06
1.26475e-05
4.23767e-06
1.12401e-05
4.88302e-06
1.26509e-05
1.12371e-05
4.88316e-06
1.26468e-05
1.12338e-05
4.88267e-06
4.23704e-06
1.26442e-05
1.12367e-05
4.8826e-06
2.27504e-05
9.55923e-06
7.2429e-06
7.24311e-06
2.27573e-05
2.27509e-05
7.24186e-06
9.5582e-06
2.2744e-05
7.24165e-06
1.26481e-05
4.23777e-06
1.12403e-05
4.8833e-06
1.12373e-05
4.88338e-06
1.26506e-05
9.95718e-06
2.23725e-05
2.23733e-05
2.23662e-05
2.2367e-05
9.95685e-06
4.70609e-06
2.97418e-06
5.6468e-06
9.91868e-06
9.92057e-06
2.974e-06
4.70643e-06
4.70036e-06
2.97306e-06
5.64505e-06
9.91412e-06
2.97289e-06
9.91603e-06
4.70069e-06
4.70715e-06
9.9235e-06
5.64797e-06
2.97441e-06
9.92162e-06
2.9746e-06
4.70679e-06
4.70141e-06
9.91896e-06
5.64632e-06
2.9733e-06
2.97348e-06
9.91707e-06
4.70107e-06
9.95504e-06
2.23604e-05
2.23612e-05
2.23667e-05
2.23675e-05
9.95537e-06
1.90636e-05
1.90642e-05
1.90777e-05
1.9077e-05
9.95864e-06
2.2372e-05
2.23729e-05
9.95898e-06
2.23783e-05
2.23791e-05
4.70852e-06
2.97518e-06
5.65016e-06
9.92934e-06
2.97538e-06
9.92749e-06
4.70815e-06
4.70279e-06
2.97407e-06
5.64851e-06
9.9248e-06
9.92295e-06
2.97426e-06
4.70243e-06
4.70748e-06
9.92459e-06
2.975e-06
5.64902e-06
2.97481e-06
4.70784e-06
9.92648e-06
4.70176e-06
9.92004e-06
2.97388e-06
5.64726e-06
4.70211e-06
9.92194e-06
2.9737e-06
9.96077e-06
2.2384e-05
2.23849e-05
2.23778e-05
2.23786e-05
9.96042e-06
1.90753e-05
1.90747e-05
1.26402e-05
1.12336e-05
4.88173e-06
4.23638e-06
1.12307e-05
4.88184e-06
1.26439e-05
2.27383e-05
9.55273e-06
7.238e-06
7.23765e-06
2.27311e-05
2.27376e-05
7.23892e-06
9.55345e-06
7.23928e-06
2.27447e-05
1.26401e-05
4.23568e-06
1.12272e-05
4.88109e-06
1.12301e-05
4.88099e-06
1.26363e-05
1.26476e-05
4.88268e-06
1.12347e-05
4.23708e-06
1.2644e-05
4.8826e-06
1.1237e-05
2.27503e-05
9.56007e-06
7.24287e-06
2.27572e-05
7.24307e-06
2.27508e-05
7.24181e-06
9.55909e-06
2.27439e-05
7.24161e-06
1.26479e-05
4.23779e-06
4.88333e-06
1.12405e-05
1.26513e-05
4.8834e-06
1.12383e-05
1.26478e-05
1.12342e-05
4.88256e-06
4.23701e-06
1.26441e-05
1.12371e-05
4.88245e-06
2.27504e-05
9.55925e-06
7.24144e-06
7.24181e-06
2.27575e-05
2.27511e-05
7.24055e-06
9.55857e-06
2.2744e-05
7.24019e-06
1.26479e-05
4.23769e-06
1.12407e-05
4.88316e-06
1.12377e-05
4.88328e-06
1.26515e-05
1.26398e-05
4.88179e-06
1.12336e-05
4.23654e-06
4.88184e-06
1.12306e-05
1.26435e-05
2.27371e-05
9.55253e-06
7.23885e-06
7.23867e-06
2.27302e-05
2.27367e-05
7.23995e-06
9.55322e-06
7.24013e-06
2.27436e-05
1.26396e-05
4.23579e-06
4.88109e-06
1.12272e-05
4.88105e-06
1.12301e-05
1.26359e-05
1.26405e-05
1.12331e-05
4.88159e-06
4.23646e-06
1.12309e-05
4.88167e-06
1.26436e-05
2.27379e-05
9.5523e-06
7.23743e-06
7.23724e-06
2.2731e-05
2.27374e-05
7.23852e-06
9.55335e-06
7.23872e-06
2.27443e-05
1.26398e-05
4.23567e-06
1.12274e-05
4.88092e-06
1.12296e-05
4.88085e-06
1.26364e-05
1.26473e-05
4.88256e-06
1.12342e-05
4.23711e-06
1.26437e-05
4.88252e-06
1.12371e-05
2.27495e-05
9.55905e-06
7.24246e-06
7.24266e-06
2.27563e-05
2.275e-05
7.2414e-06
9.55832e-06
2.27431e-05
7.24121e-06
1.26475e-05
4.23784e-06
4.88323e-06
1.12407e-05
4.88328e-06
1.12377e-05
1.26511e-05
1.26472e-05
1.12344e-05
4.8824e-06
4.237e-06
1.26445e-05
1.12367e-05
4.88231e-06
2.27502e-05
9.55919e-06
7.24104e-06
7.24125e-06
2.27571e-05
2.27507e-05
7.23999e-06
9.55816e-06
2.27438e-05
7.23979e-06
1.26484e-05
4.23776e-06
1.12403e-05
4.88301e-06
1.12379e-05
4.88311e-06
1.26509e-05
9.95808e-06
2.23736e-05
2.23741e-05
2.23674e-05
2.23678e-05
9.95775e-06
4.70642e-06
2.97426e-06
5.64682e-06
9.91876e-06
9.92066e-06
2.97407e-06
4.70678e-06
4.70072e-06
2.97321e-06
5.64518e-06
9.91391e-06
2.97305e-06
9.91647e-06
4.70107e-06
4.70749e-06
9.92358e-06
5.64811e-06
2.97449e-06
9.9217e-06
2.97468e-06
4.70713e-06
4.70178e-06
9.91939e-06
5.64628e-06
2.97346e-06
2.97363e-06
9.91688e-06
4.70143e-06
9.95594e-06
2.23615e-05
2.2362e-05
2.23678e-05
2.23682e-05
9.95627e-06
1.90655e-05
1.90661e-05
1.90786e-05
1.9078e-05
9.95953e-06
2.23732e-05
2.23736e-05
9.95987e-06
2.23794e-05
2.23798e-05
4.70886e-06
2.97525e-06
5.65029e-06
9.92941e-06
2.97546e-06
9.92756e-06
4.70848e-06
4.70316e-06
2.97423e-06
5.64847e-06
9.92515e-06
9.92268e-06
2.97441e-06
4.70279e-06
4.70781e-06
9.92466e-06
2.97508e-06
5.64904e-06
2.97488e-06
4.70819e-06
9.92656e-06
4.70212e-06
9.91983e-06
2.97403e-06
5.64737e-06
4.70248e-06
9.92228e-06
2.97385e-06
9.96165e-06
2.23851e-05
2.23856e-05
2.23789e-05
2.23794e-05
9.9613e-06
1.90772e-05
1.90766e-05
1.26405e-05
4.88157e-06
1.12331e-05
4.23645e-06
4.88172e-06
1.12309e-05
1.2643e-05
2.2738e-05
9.5525e-06
7.23752e-06
7.23735e-06
2.2731e-05
2.27375e-05
7.23862e-06
9.55353e-06
7.2388e-06
2.27444e-05
1.26392e-05
4.23565e-06
4.88097e-06
1.12274e-05
4.88081e-06
1.12296e-05
1.26366e-05
1.26398e-05
4.8818e-06
1.12332e-05
4.23644e-06
4.88196e-06
1.1231e-05
1.26431e-05
2.27374e-05
9.55329e-06
7.23935e-06
7.23895e-06
2.27302e-05
2.27366e-05
7.24023e-06
9.55435e-06
7.24063e-06
2.27438e-05
1.26393e-05
4.23571e-06
4.88122e-06
1.12275e-05
4.88107e-06
1.12297e-05
1.26358e-05
1.26468e-05
4.88244e-06
1.12344e-05
4.23697e-06
1.26443e-05
4.88227e-06
1.12366e-05
2.27503e-05
9.55935e-06
7.24113e-06
7.24133e-06
2.27571e-05
2.27508e-05
7.24007e-06
9.55833e-06
2.27439e-05
7.23988e-06
1.26482e-05
4.23775e-06
4.883e-06
1.12401e-05
4.88316e-06
1.12379e-05
1.26506e-05
1.26467e-05
4.8827e-06
1.12345e-05
4.23704e-06
1.26439e-05
4.88252e-06
1.12367e-05
2.27494e-05
9.55999e-06
7.24275e-06
7.24316e-06
2.27566e-05
2.27502e-05
7.2419e-06
9.55918e-06
2.27431e-05
7.2415e-06
1.26477e-05
4.23774e-06
4.88323e-06
1.12402e-05
4.88341e-06
1.1238e-05
1.26504e-05
1.90655e-05
1.90662e-05
1.90673e-05
1.9068e-05
9.95913e-06
2.23735e-05
2.23726e-05
9.95948e-06
2.23797e-05
2.23789e-05
4.70298e-06
2.97413e-06
5.64848e-06
9.92493e-06
4.70261e-06
2.97431e-06
9.92303e-06
4.70869e-06
2.97532e-06
5.6504e-06
9.9299e-06
4.70834e-06
2.9755e-06
9.92745e-06
4.70194e-06
9.92014e-06
2.97393e-06
5.64735e-06
4.7023e-06
2.97375e-06
9.92205e-06
4.70767e-06
9.92459e-06
2.97512e-06
5.6493e-06
4.70801e-06
2.97495e-06
9.92702e-06
9.96126e-06
2.23855e-05
2.23846e-05
9.96091e-06
2.23792e-05
2.23784e-05
1.90773e-05
1.90766e-05
1.90791e-05
1.90784e-05
2.27634e-05
7.2425e-06
9.5638e-06
2.27565e-05
7.24227e-06
1.26546e-05
4.23827e-06
1.12411e-05
4.88381e-06
1.26522e-05
1.12439e-05
4.8837e-06
9.56503e-06
1.90875e-05
1.90894e-05
4.41715e-07
4.41677e-07
6.53398e-07
4.43603e-07
4.43569e-07
2.35588e-07
2.33657e-07
2.82686e-06
1.96713e-06
1.96738e-06
1.41367e-06
1.96644e-06
1.96668e-06
2.82717e-06
2.82816e-06
1.96865e-06
1.96889e-06
1.41655e-06
2.8285e-06
1.96793e-06
1.96816e-06
2.82687e-06
1.96713e-06
1.96736e-06
1.41367e-06
1.96645e-06
1.96667e-06
2.82719e-06
2.82821e-06
1.41734e-06
1.9676e-06
1.96782e-06
1.9683e-06
1.96853e-06
2.82788e-06
2.82679e-06
1.96728e-06
1.96717e-06
1.4136e-06
1.96647e-06
1.96657e-06
2.82712e-06
2.82814e-06
1.41734e-06
1.96772e-06
1.96762e-06
1.96845e-06
1.96833e-06
2.8278e-06
2.82693e-06
1.96731e-06
1.96722e-06
1.41369e-06
1.96654e-06
1.9666e-06
2.82724e-06
2.82825e-06
1.41736e-06
1.96775e-06
1.96768e-06
1.96847e-06
1.96838e-06
2.82793e-06
2.8282e-06
1.4174e-06
1.9676e-06
1.96783e-06
2.82787e-06
1.9683e-06
1.96855e-06
4.41726e-07
4.41678e-07
6.53417e-07
4.43614e-07
4.43566e-07
2.35586e-07
2.33655e-07
4.41807e-07
4.41764e-07
6.53502e-07
4.43695e-07
4.43651e-07
2.35656e-07
2.33725e-07
4.41797e-07
4.4176e-07
6.53493e-07
4.43688e-07
4.43647e-07
2.35652e-07
2.33721e-07
6.54964e-07
4.4729e-07
4.47256e-07
4.45473e-07
4.45435e-07
2.37514e-07
2.39418e-07
6.54983e-07
4.473e-07
4.47253e-07
4.45484e-07
4.45436e-07
2.37512e-07
2.39416e-07
6.55069e-07
4.47382e-07
4.47337e-07
4.45564e-07
4.45521e-07
2.37583e-07
2.39486e-07
6.55057e-07
4.47376e-07
4.47334e-07
4.45554e-07
4.45517e-07
2.37578e-07
2.39482e-07
1.66434e-06
2.53954e-06
1.54154e-06
2.29413e-06
2.53975e-06
1.54239e-06
1.66317e-06
1.84157e-06
2.22235e-06
3.64423e-06
3.02093e-06
2.22188e-06
3.02057e-06
1.84265e-06
1.84316e-06
3.02105e-06
3.64511e-06
2.22223e-06
2.22272e-06
3.02141e-06
1.84212e-06
1.66263e-06
2.29359e-06
2.53935e-06
1.5418e-06
2.53914e-06
1.54096e-06
1.66384e-06
1.66426e-06
1.54145e-06
2.53934e-06
2.2941e-06
1.54237e-06
2.53955e-06
1.6628e-06
1.84136e-06
2.22239e-06
3.64427e-06
3.02054e-06
2.2219e-06
3.02019e-06
1.84256e-06
1.84309e-06
3.02065e-06
3.64509e-06
2.22226e-06
2.22275e-06
3.02101e-06
1.84185e-06
1.66236e-06
2.29349e-06
1.54178e-06
2.53915e-06
1.54088e-06
2.53892e-06
1.66375e-06
2.82753e-06
1.41593e-06
1.96686e-06
1.96708e-06
1.96755e-06
1.96779e-06
2.82722e-06
2.82755e-06
1.41588e-06
1.96686e-06
1.96708e-06
2.82723e-06
1.96755e-06
1.96778e-06
2.82757e-06
1.41516e-06
1.96794e-06
1.96816e-06
2.82789e-06
1.96724e-06
1.96746e-06
1.66461e-06
2.53932e-06
1.54138e-06
2.29405e-06
2.53953e-06
1.54237e-06
1.66259e-06
1.84127e-06
2.2223e-06
3.64406e-06
3.02051e-06
3.02016e-06
2.22183e-06
1.84255e-06
1.84312e-06
3.02063e-06
3.64489e-06
2.22219e-06
3.02098e-06
2.22267e-06
1.84173e-06
1.66212e-06
2.29345e-06
2.53912e-06
1.54178e-06
2.53891e-06
1.5408e-06
1.66396e-06
1.66438e-06
2.53957e-06
1.54144e-06
2.2941e-06
2.53978e-06
1.5424e-06
1.66297e-06
1.84158e-06
2.22266e-06
3.64458e-06
3.0211e-06
3.02074e-06
2.22217e-06
1.84275e-06
1.84326e-06
3.02121e-06
3.64542e-06
2.22253e-06
3.02157e-06
1.8421e-06
2.22302e-06
1.66248e-06
2.29353e-06
2.53938e-06
1.54182e-06
2.53918e-06
1.54086e-06
1.66388e-06
1.66302e-06
2.5399e-06
1.54293e-06
2.29429e-06
1.66509e-06
2.53969e-06
1.54194e-06
1.8443e-06
2.22283e-06
3.64616e-06
3.02152e-06
2.22334e-06
3.02189e-06
1.84259e-06
1.84215e-06
3.02145e-06
2.22301e-06
3.64536e-06
2.22252e-06
1.84369e-06
3.02109e-06
1.66561e-06
2.29485e-06
2.54005e-06
1.54245e-06
2.54027e-06
1.54345e-06
1.66353e-06
1.66349e-06
2.54016e-06
1.54295e-06
2.29437e-06
1.66485e-06
2.53995e-06
1.54199e-06
1.84419e-06
2.22317e-06
3.64669e-06
3.0221e-06
3.02247e-06
2.22369e-06
1.84315e-06
1.84262e-06
3.02203e-06
2.22336e-06
3.64587e-06
1.84374e-06
3.02166e-06
2.22286e-06
1.66528e-06
2.29488e-06
2.5403e-06
1.54251e-06
2.54052e-06
1.54347e-06
1.66401e-06
2.82748e-06
1.41589e-06
1.96698e-06
1.96688e-06
1.96758e-06
1.96769e-06
2.82715e-06
2.82748e-06
1.41511e-06
1.96808e-06
1.96797e-06
1.96736e-06
2.82782e-06
1.96726e-06
1.66438e-06
2.53958e-06
1.5415e-06
2.29418e-06
2.53978e-06
1.54242e-06
1.66295e-06
1.84153e-06
2.22271e-06
3.64477e-06
3.02111e-06
3.02073e-06
2.22222e-06
1.84273e-06
1.84326e-06
3.02121e-06
3.64565e-06
2.22258e-06
3.02159e-06
2.22308e-06
1.84203e-06
1.66247e-06
2.29357e-06
2.53937e-06
1.54183e-06
2.53916e-06
1.54092e-06
1.66387e-06
1.66424e-06
1.54145e-06
2.53938e-06
2.2941e-06
1.54237e-06
2.53959e-06
1.66286e-06
1.8414e-06
2.2226e-06
3.64461e-06
3.02063e-06
3.02027e-06
2.22211e-06
1.84254e-06
1.84307e-06
3.02075e-06
3.6455e-06
2.22246e-06
3.02111e-06
1.84189e-06
2.22296e-06
1.66237e-06
2.29351e-06
1.54178e-06
2.53919e-06
1.54088e-06
2.53898e-06
1.66374e-06
1.66331e-06
2.54016e-06
1.54298e-06
2.29441e-06
1.66491e-06
2.53993e-06
1.54203e-06
1.84435e-06
2.22323e-06
3.64692e-06
3.02209e-06
2.22374e-06
3.02249e-06
1.84284e-06
1.84245e-06
3.02205e-06
2.22342e-06
3.64607e-06
2.22291e-06
1.84378e-06
3.02166e-06
1.66551e-06
2.29498e-06
2.54031e-06
1.54255e-06
2.54052e-06
1.54352e-06
1.66367e-06
1.66325e-06
1.54294e-06
2.53997e-06
2.29435e-06
1.66473e-06
1.54199e-06
2.53975e-06
1.84409e-06
2.22311e-06
3.64676e-06
3.02163e-06
3.02201e-06
2.22363e-06
1.84272e-06
1.84234e-06
3.02157e-06
2.22331e-06
3.6459e-06
1.84357e-06
3.0212e-06
2.22279e-06
1.6653e-06
2.2949e-06
1.5425e-06
2.54011e-06
1.54347e-06
2.54033e-06
1.66357e-06
1.66462e-06
1.54143e-06
2.53936e-06
2.29409e-06
1.54239e-06
2.53959e-06
1.66263e-06
1.8413e-06
2.22233e-06
3.64417e-06
3.02055e-06
2.22185e-06
3.02018e-06
1.8426e-06
1.84316e-06
3.02065e-06
3.64501e-06
2.22221e-06
2.22269e-06
3.02103e-06
1.84176e-06
1.66218e-06
2.2935e-06
1.5418e-06
2.53918e-06
1.54085e-06
2.53897e-06
1.66398e-06
1.66361e-06
2.54013e-06
1.54293e-06
2.29442e-06
1.66481e-06
2.53991e-06
1.54208e-06
1.84412e-06
2.22288e-06
3.64638e-06
3.02194e-06
1.84311e-06
2.22339e-06
3.02232e-06
1.84266e-06
3.02187e-06
2.22306e-06
3.64553e-06
1.84365e-06
2.22257e-06
3.0215e-06
1.66525e-06
2.29493e-06
2.54027e-06
1.5426e-06
1.66406e-06
2.5405e-06
1.54346e-06
1.66306e-06
1.54295e-06
2.53997e-06
2.29433e-06
1.66513e-06
1.54198e-06
2.53974e-06
1.84436e-06
2.22285e-06
3.64628e-06
3.02154e-06
3.02194e-06
2.22336e-06
1.84261e-06
1.84218e-06
3.02149e-06
2.22304e-06
3.64547e-06
1.84374e-06
3.0211e-06
2.22254e-06
1.66566e-06
2.29488e-06
1.5425e-06
2.5401e-06
1.54348e-06
2.54033e-06
1.66357e-06
2.8276e-06
1.41591e-06
1.96701e-06
1.96695e-06
1.96763e-06
1.96772e-06
2.82728e-06
2.82762e-06
1.41519e-06
1.96811e-06
1.96802e-06
1.96739e-06
2.82794e-06
1.96733e-06
1.66435e-06
1.54149e-06
2.53954e-06
2.29414e-06
1.5424e-06
2.53976e-06
1.66298e-06
1.84158e-06
2.22274e-06
3.64479e-06
3.02108e-06
2.22225e-06
3.0207e-06
1.84271e-06
1.84323e-06
3.02117e-06
3.64563e-06
2.2226e-06
2.2231e-06
3.02156e-06
1.84206e-06
1.66249e-06
2.29355e-06
1.54181e-06
2.53936e-06
1.54092e-06
2.53914e-06
1.66385e-06
1.66314e-06
1.54294e-06
2.53993e-06
2.29432e-06
1.66483e-06
1.54198e-06
2.53968e-06
1.84423e-06
2.2229e-06
3.64636e-06
3.02153e-06
1.84264e-06
2.22341e-06
3.02191e-06
1.84225e-06
3.02147e-06
2.22309e-06
3.64556e-06
1.84362e-06
2.22259e-06
3.0211e-06
1.66549e-06
2.2949e-06
1.54249e-06
2.54006e-06
1.66355e-06
1.54347e-06
2.54029e-06
1.66338e-06
1.54297e-06
2.54014e-06
2.29439e-06
1.66483e-06
1.54203e-06
2.53991e-06
1.84424e-06
2.22325e-06
3.6469e-06
3.02206e-06
3.02246e-06
2.22376e-06
1.8429e-06
1.84252e-06
3.02202e-06
2.22344e-06
3.64608e-06
1.84373e-06
3.02163e-06
2.22293e-06
1.66538e-06
2.29494e-06
1.54253e-06
2.54026e-06
1.54349e-06
2.5405e-06
1.6637e-06
2.82755e-06
1.41517e-06
1.96794e-06
1.96818e-06
2.82787e-06
1.96724e-06
1.96747e-06
1.84298e-06
2.22366e-06
3.02237e-06
3.64669e-06
2.22315e-06
1.84487e-06
3.02195e-06
1.66393e-06
2.29507e-06
1.54397e-06
2.54067e-06
1.54297e-06
1.66606e-06
2.54042e-06
2.22406e-06
3.6473e-06
2.22353e-06
3.23669e-07
8.68822e-07
8.68932e-07
1.15425e-06
3.39704e-07
8.92255e-07
8.92361e-07
1.17352e-06
3.55981e-07
9.14694e-07
9.14796e-07
1.19195e-06
3.72422e-07
9.36126e-07
9.36226e-07
1.20948e-06
3.88947e-07
9.5655e-07
9.56649e-07
1.22617e-06
4.05475e-07
9.75977e-07
9.76072e-07
1.24202e-06
4.21928e-07
9.94415e-07
9.94506e-07
1.25701e-06
4.38228e-07
1.01187e-06
1.01196e-06
1.2712e-06
4.54301e-07
1.02836e-06
1.02844e-06
1.28456e-06
4.70084e-07
1.04389e-06
1.04397e-06
1.2972e-06
4.85515e-07
1.05849e-06
1.05857e-06
1.30911e-06
5.00545e-07
1.07219e-06
1.07226e-06
1.32034e-06
5.15124e-07
1.085e-06
1.08507e-06
1.33089e-06
5.29212e-07
1.09696e-06
1.09703e-06
1.3408e-06
5.42771e-07
1.10809e-06
1.10816e-06
1.35011e-06
5.55773e-07
1.11842e-06
1.11849e-06
1.35877e-06
5.68191e-07
1.12797e-06
1.12804e-06
1.36684e-06
5.80006e-07
1.13677e-06
1.13683e-06
1.37433e-06
5.91202e-07
1.14484e-06
1.1449e-06
1.38125e-06
6.0177e-07
1.1522e-06
1.15226e-06
1.38762e-06
6.117e-07
1.15888e-06
1.15894e-06
1.39347e-06
6.20992e-07
1.1649e-06
1.16496e-06
1.3988e-06
6.29646e-07