/*--------------------------------*- C++ -*----------------------------------*\
| =========                 |                                                 |
| \\      /  F ield         | OpenFOAM: The Open Source CFD Toolbox           |
|  \\    /   O peration     | Version:  v1906                                 |
|   \\  /    A nd           | Web:      www.OpenFOAM.com                      |
|    \\/     M anipulation  |                                                 |
\*---------------------------------------------------------------------------*/
FoamFile
{
    version     2.0;
    format      ascii;
    class       volScalarField;
    location    "450";
    object      k;
}
// * * * * * * * * * * * * * * * * * * * * * * * * * * * * * * * * * * * * * //

dimensions      [0 2 -2 0 0 0 0];


internalField   nonuniform List<scalar> 
171728
(
4.17634e-05
3.64592e-05
3.64587e-05
4.1786e-05
3.6456e-05
3.64607e-05
3.64568e-05
3.64645e-05
4.17875e-05
3.64598e-05
3.64625e-05
4.17873e-05
2.08499e-05
2.08494e-05
2.08535e-05
2.08554e-05
6.95315e-05
6.95344e-05
6.68947e-05
6.69044e-05
6.46104e-05
7.13535e-05
6.47094e-05
6.46121e-05
7.1359e-05
7.13228e-05
6.4711e-05
5.30923e-05
6.01867e-05
2.88297e-05
2.85846e-05
5.32931e-05
5.30935e-05
3.62269e-05
6.01907e-05
2.88306e-05
6.00678e-05
2.85858e-05
5.32944e-05
6.95337e-05
6.95077e-05
4.15797e-05
6.69052e-05
6.6889e-05
6.68406e-05
6.68293e-05
6.95298e-05
6.95037e-05
7.13604e-05
6.47132e-05
6.01917e-05
2.88326e-05
5.32966e-05
7.13543e-05
6.47116e-05
2.88336e-05
6.01846e-05
5.32954e-05
5.30972e-05
3.6225e-05
6.01853e-05
2.8831e-05
6.00672e-05
2.85863e-05
5.32963e-05
6.46161e-05
7.13577e-05
7.13215e-05
6.47109e-05
5.30953e-05
3.62325e-05
2.88344e-05
6.01883e-05
2.85896e-05
6.00664e-05
5.32943e-05
6.46137e-05
7.13547e-05
7.13212e-05
6.47096e-05
6.9533e-05
6.68964e-05
6.68939e-05
6.95322e-05
5.30963e-05
2.88356e-05
6.01881e-05
2.85906e-05
5.32978e-05
5.30975e-05
3.62307e-05
2.88375e-05
6.01936e-05
2.85926e-05
6.00708e-05
5.32981e-05
6.46156e-05
7.13556e-05
6.47126e-05
6.46164e-05
7.13592e-05
7.13257e-05
6.47129e-05
4.15794e-05
6.68942e-05
6.69073e-05
6.68338e-05
6.6844e-05
6.95327e-05
6.95068e-05
6.95355e-05
6.95096e-05
6.9519e-05
6.95219e-05
7.00275e-05
5.93315e-05
6.68775e-05
7.1136e-05
7.11192e-05
5.92667e-05
7.00678e-05
7.00865e-05
5.93251e-05
6.68854e-05
7.1145e-05
7.11307e-05
5.9285e-05
7.00998e-05
9.23388e-05
7.20369e-05
7.20301e-05
7.20228e-05
7.20164e-05
9.23501e-05
7.01262e-05
6.98233e-05
6.81174e-05
6.46511e-05
7.01159e-05
6.9832e-05
6.81528e-05
7.01853e-05
7.13383e-05
7.73857e-05
7.73673e-05
7.01998e-05
7.01289e-05
6.46698e-05
6.98456e-05
6.82025e-05
6.98368e-05
6.81678e-05
7.01392e-05
7.01289e-05
6.98218e-05
6.81248e-05
6.46533e-05
7.01176e-05
6.98345e-05
6.81613e-05
7.01879e-05
7.13432e-05
7.74089e-05
7.73876e-05
7.0202e-05
7.01921e-05
7.73585e-05
7.13382e-05
7.01782e-05
7.73796e-05
7.01306e-05
6.46722e-05
6.98484e-05
6.82094e-05
6.98354e-05
6.8176e-05
7.0142e-05
6.95211e-05
6.95201e-05
9.23136e-05
7.20052e-05
7.20106e-05
9.23016e-05
7.20191e-05
7.20245e-05
7.0083e-05
5.93303e-05
6.68859e-05
7.11455e-05
5.92797e-05
7.11295e-05
7.01045e-05
7.00319e-05
5.93207e-05
6.68745e-05
7.11333e-05
7.11187e-05
5.92715e-05
7.00531e-05
7.0039e-05
7.11052e-05
5.9181e-05
6.68602e-05
5.92322e-05
7.00176e-05
7.11229e-05
6.99875e-05
7.10952e-05
5.91727e-05
6.68442e-05
6.99661e-05
7.11102e-05
5.92223e-05
9.23362e-05
7.20302e-05
7.20356e-05
7.20163e-05
7.20217e-05
9.23489e-05
6.95172e-05
6.95163e-05
7.01887e-05
7.13448e-05
7.74078e-05
7.73872e-05
7.02027e-05
7.01316e-05
6.46724e-05
6.82105e-05
6.98481e-05
6.81748e-05
6.98393e-05
7.01436e-05
7.01858e-05
7.1341e-05
7.7386e-05
7.7366e-05
7.02004e-05
7.01295e-05
6.46698e-05
6.98494e-05
6.82036e-05
6.98364e-05
6.81664e-05
7.01411e-05
7.01275e-05
6.8127e-05
6.98241e-05
6.4653e-05
7.0118e-05
6.81579e-05
6.98327e-05
7.0187e-05
7.13421e-05
7.74044e-05
7.73866e-05
7.0201e-05
7.01912e-05
7.73575e-05
7.13368e-05
7.01773e-05
7.73755e-05
7.01309e-05
6.46745e-05
6.82068e-05
6.98463e-05
6.81766e-05
6.98376e-05
7.01405e-05
7.01276e-05
6.98236e-05
6.81196e-05
6.46518e-05
7.01169e-05
6.98324e-05
6.81561e-05
7.01868e-05
7.13419e-05
7.73877e-05
7.737e-05
7.02008e-05
7.01909e-05
7.73408e-05
7.13342e-05
7.01771e-05
7.73588e-05
7.01296e-05
6.46728e-05
6.98459e-05
6.82059e-05
6.98372e-05
6.81697e-05
7.0141e-05
6.95204e-05
7.00837e-05
5.93286e-05
6.68818e-05
7.11437e-05
5.928e-05
7.1129e-05
7.01047e-05
7.00343e-05
5.93242e-05
6.68764e-05
7.11366e-05
7.11182e-05
5.92723e-05
7.00553e-05
9.23424e-05
7.20307e-05
7.20369e-05
7.20167e-05
7.2023e-05
9.23508e-05
6.95197e-05
7.0127e-05
6.81202e-05
6.98248e-05
6.46535e-05
7.01172e-05
6.8154e-05
6.98334e-05
7.01866e-05
7.13399e-05
7.73876e-05
7.73677e-05
7.02006e-05
7.01908e-05
7.73582e-05
7.01301e-05
6.46723e-05
6.82048e-05
6.9847e-05
6.81682e-05
6.98383e-05
7.01399e-05
7.01285e-05
6.81267e-05
6.98252e-05
6.46546e-05
7.01186e-05
6.8158e-05
6.98338e-05
7.01879e-05
7.13464e-05
7.74042e-05
7.73862e-05
7.02025e-05
7.01927e-05
7.7357e-05
7.13387e-05
7.01782e-05
7.73755e-05
7.01317e-05
6.46748e-05
6.82069e-05
6.98474e-05
6.81763e-05
6.98387e-05
7.01414e-05
9.23187e-05
7.20129e-05
7.20068e-05
9.23068e-05
7.20268e-05
7.20207e-05
7.00344e-05
5.93241e-05
6.6879e-05
7.11374e-05
5.9273e-05
7.1119e-05
7.00558e-05
7.00871e-05
5.93356e-05
6.6889e-05
7.11487e-05
5.92833e-05
7.11303e-05
7.01083e-05
6.99903e-05
7.10958e-05
5.91744e-05
6.68492e-05
6.99687e-05
5.92257e-05
7.11137e-05
7.00429e-05
7.1107e-05
5.91847e-05
6.68623e-05
7.00215e-05
5.92375e-05
7.1125e-05
9.23414e-05
7.20379e-05
7.20319e-05
7.2024e-05
7.20179e-05
9.23541e-05
6.95203e-05
6.95192e-05
6.95231e-05
6.95219e-05
5.95164e-05
4.17532e-05
5.05031e-05
5.04945e-05
5.04605e-05
5.04692e-05
5.95491e-05
5.95153e-05
4.17582e-05
5.05044e-05
5.05094e-05
5.04672e-05
5.04655e-05
5.95491e-05
5.95158e-05
4.17608e-05
5.05105e-05
5.05043e-05
5.04612e-05
5.04635e-05
5.95487e-05
5.95183e-05
4.17664e-05
5.05081e-05
5.0515e-05
5.0466e-05
5.04661e-05
5.95513e-05
1.49214e-05
1.49211e-05
1.481e-05
1.07955e-05
1.08225e-05
2.06645e-05
1.49213e-05
1.49199e-05
1.48099e-05
1.48086e-05
1.07953e-05
1.08222e-05
1.49243e-05
1.49235e-05
1.48121e-05
1.07967e-05
1.08237e-05
2.06704e-05
1.49243e-05
1.49239e-05
1.48128e-05
1.48125e-05
1.07968e-05
1.08237e-05
4.55475e-05
5.54143e-05
4.35622e-05
5.31725e-05
4.55225e-05
5.54886e-05
4.36102e-05
4.80435e-05
5.25225e-05
6.01385e-05
5.85125e-05
5.24729e-05
5.84539e-05
4.80884e-05
4.56945e-05
5.3215e-05
5.55995e-05
4.37727e-05
5.55262e-05
4.37517e-05
4.57219e-05
4.55583e-05
5.54206e-05
4.35654e-05
5.31744e-05
4.55254e-05
5.54952e-05
4.36128e-05
4.80529e-05
5.25146e-05
6.01425e-05
5.85212e-05
5.84627e-05
5.24821e-05
4.80829e-05
4.79362e-05
5.83692e-05
5.23491e-05
6.01168e-05
4.78974e-05
5.84286e-05
5.23896e-05
4.57e-05
5.32174e-05
5.56034e-05
4.37745e-05
5.55342e-05
4.37547e-05
4.57068e-05
5.94419e-05
4.15788e-05
5.03232e-05
5.03211e-05
5.03532e-05
5.94103e-05
5.03523e-05
4.80504e-05
5.25223e-05
6.01445e-05
5.85221e-05
5.24833e-05
5.84626e-05
4.80949e-05
4.57048e-05
5.32169e-05
5.56051e-05
4.38003e-05
5.55328e-05
4.37462e-05
4.573e-05
4.80453e-05
5.25242e-05
6.01421e-05
5.85124e-05
5.84535e-05
5.24767e-05
4.80906e-05
4.5697e-05
5.32147e-05
4.37992e-05
5.56001e-05
4.3745e-05
5.55266e-05
4.57265e-05
4.55342e-05
5.54226e-05
4.35817e-05
5.31756e-05
4.55355e-05
5.54918e-05
4.35994e-05
4.80599e-05
5.25154e-05
6.01417e-05
5.85187e-05
5.24819e-05
5.84611e-05
4.80716e-05
4.79219e-05
5.83679e-05
5.23506e-05
6.01111e-05
4.79069e-05
5.23844e-05
5.84264e-05
4.5712e-05
5.32194e-05
5.56011e-05
4.37803e-05
5.55349e-05
4.37636e-05
4.56972e-05
4.55549e-05
4.35706e-05
5.54199e-05
5.31744e-05
4.55299e-05
4.35949e-05
5.54919e-05
4.80478e-05
5.2523e-05
6.01411e-05
5.85158e-05
5.84572e-05
5.24786e-05
4.80942e-05
4.79349e-05
5.83638e-05
5.23485e-05
6.0114e-05
4.7896e-05
5.8423e-05
5.23897e-05
4.56992e-05
5.32185e-05
4.37769e-05
5.56028e-05
4.37593e-05
5.55306e-05
4.5727e-05
4.55332e-05
4.35685e-05
5.54193e-05
5.31763e-05
4.55354e-05
4.3616e-05
5.54891e-05
4.80445e-05
5.25249e-05
6.01394e-05
5.85142e-05
5.24754e-05
5.84545e-05
4.80901e-05
4.7931e-05
5.8421e-05
4.5702e-05
5.32181e-05
4.3802e-05
5.56011e-05
4.37505e-05
5.55284e-05
4.57279e-05
4.55359e-05
4.35828e-05
5.54236e-05
5.31769e-05
4.55416e-05
4.36006e-05
5.54946e-05
4.80649e-05
5.25187e-05
6.01454e-05
5.85211e-05
5.84637e-05
5.24898e-05
4.80761e-05
4.79257e-05
5.83705e-05
5.23576e-05
6.01194e-05
4.7912e-05
5.84288e-05
5.23874e-05
4.57236e-05
5.32196e-05
4.37831e-05
5.56056e-05
4.37656e-05
5.55343e-05
4.57096e-05
5.94451e-05
4.15883e-05
5.03228e-05
5.03234e-05
5.94129e-05
5.0354e-05
5.03619e-05
3.83832e-05
5.11084e-05
5.11082e-05
5.32932e-05
5.34859e-05
5.32994e-05
5.34301e-05
5.11055e-05
5.11065e-05
5.12917e-05
5.12926e-05
5.329e-05
5.34414e-05
5.11054e-05
5.1105e-05
5.12915e-05
5.12911e-05
5.11076e-05
5.12946e-05
5.12938e-05
5.32988e-05
5.34306e-05
5.11076e-05
5.12943e-05
5.12937e-05
5.34413e-05
5.13537e-05
5.13536e-05
6.85099e-05
7.33541e-05
7.33806e-05
6.84817e-05
7.11149e-05
7.11411e-05
6.85142e-05
7.33597e-05
7.33861e-05
6.84854e-05
3.83844e-05
3.83869e-05
3.83875e-05
3.86989e-05
3.87e-05
3.87025e-05
3.87031e-05
6.05218e-05
6.46922e-05
4.6327e-05
5.11717e-05
6.4723e-05
4.64067e-05
6.04767e-05
7.11134e-05
7.11398e-05
6.05203e-05
4.63276e-05
6.46919e-05
5.11714e-05
4.64073e-05
6.47233e-05
6.04717e-05
6.98617e-05
6.98735e-05
5.33441e-05
6.98807e-05
6.98915e-05
6.99172e-05
6.99287e-05
7.1113e-05
7.11392e-05
7.11156e-05
7.11417e-05
6.98619e-05
6.98718e-05
5.3333e-05
6.9881e-05
6.98906e-05
7.11666e-05
7.11409e-05
7.11692e-05
7.11434e-05
5.33975e-05
6.99079e-05
6.99181e-05
6.98903e-05
6.99001e-05
6.8511e-05
7.33587e-05
7.33853e-05
6.84845e-05
6.05205e-05
6.46905e-05
4.63237e-05
5.11687e-05
6.47216e-05
4.64034e-05
6.04717e-05
6.05218e-05
6.46947e-05
4.63251e-05
5.11698e-05
6.47254e-05
4.64048e-05
6.04731e-05
6.8514e-05
7.34101e-05
7.33842e-05
6.85409e-05
6.85167e-05
7.34149e-05
7.33888e-05
6.85423e-05
6.05285e-05
5.12312e-05
6.47574e-05
4.65584e-05
6.47277e-05
4.64822e-05
6.05743e-05
6.05298e-05
5.12322e-05
6.47613e-05
4.65598e-05
6.47319e-05
4.64836e-05
6.05756e-05
6.98713e-05
6.98599e-05
5.33441e-05
6.98905e-05
6.98775e-05
7.11114e-05
7.11376e-05
7.11685e-05
7.11427e-05
5.3388e-05
6.99175e-05
6.9905e-05
6.98996e-05
6.98882e-05
7.11651e-05
7.11392e-05
6.05227e-05
6.46945e-05
4.63254e-05
5.11685e-05
6.47255e-05
4.64052e-05
6.04736e-05
6.85121e-05
7.33552e-05
7.33798e-05
6.8484e-05
6.05208e-05
4.63255e-05
6.46893e-05
5.11683e-05
4.64052e-05
6.47197e-05
6.04715e-05
6.85178e-05
7.34155e-05
7.33897e-05
6.85453e-05
6.05307e-05
5.12312e-05
6.47614e-05
4.65602e-05
6.47317e-05
4.6484e-05
6.05771e-05
6.85157e-05
7.34094e-05
7.33853e-05
6.85431e-05
6.05288e-05
5.12307e-05
4.65603e-05
6.47554e-05
4.64841e-05
6.47265e-05
6.05752e-05
6.85121e-05
7.33592e-05
7.33837e-05
6.84858e-05
6.05218e-05
4.63268e-05
6.4691e-05
5.11709e-05
4.64065e-05
6.47222e-05
6.04731e-05
6.85113e-05
7.33556e-05
7.33821e-05
6.8483e-05
6.05335e-05
5.12341e-05
6.47588e-05
4.65617e-05
6.47295e-05
4.64855e-05
6.05757e-05
6.8518e-05
7.34138e-05
7.33892e-05
6.85431e-05
6.05299e-05
5.12334e-05
4.65615e-05
6.4758e-05
4.64854e-05
6.47282e-05
6.05759e-05
6.85153e-05
7.34117e-05
7.33856e-05
6.85423e-05
6.98649e-05
6.98626e-05
5.33327e-05
6.98841e-05
6.98808e-05
7.11138e-05
7.11399e-05
7.11672e-05
7.11412e-05
5.3397e-05
6.99114e-05
6.99081e-05
6.98932e-05
6.98908e-05
7.11673e-05
7.11416e-05
6.05219e-05
4.63282e-05
6.4696e-05
5.11708e-05
4.64078e-05
6.4727e-05
6.0473e-05
6.85099e-05
7.33559e-05
7.33826e-05
6.8482e-05
6.85126e-05
7.33596e-05
7.3386e-05
6.84844e-05
6.05287e-05
5.12339e-05
4.65622e-05
6.4759e-05
4.6486e-05
6.47292e-05
6.05744e-05
6.05301e-05
5.12333e-05
4.65628e-05
6.47627e-05
4.64867e-05
6.47331e-05
6.05761e-05
6.85142e-05
7.34122e-05
7.33861e-05
6.85407e-05
6.85168e-05
7.34149e-05
7.33897e-05
6.85435e-05
7.11135e-05
7.11396e-05
7.11162e-05
7.11423e-05
5.33887e-05
6.99081e-05
6.99189e-05
6.98901e-05
6.99018e-05
7.11671e-05
7.11412e-05
7.11697e-05
7.1144e-05
4.66372e-05
6.47639e-05
6.05835e-05
7.34151e-05
6.8546e-05
6.47686e-05
7.34201e-05
7.11686e-05
7.11714e-05
7.17884e-05
7.15677e-05
7.15381e-05
6.84979e-05
7.15582e-05
7.15265e-05
7.18012e-05
7.16286e-05
7.33657e-05
7.96979e-05
7.97024e-05
7.16136e-05
7.16272e-05
7.97156e-05
7.33692e-05
7.97111e-05
7.16422e-05
7.17867e-05
6.84938e-05
7.15433e-05
7.15118e-05
7.15529e-05
7.15234e-05
7.17731e-05
7.11272e-05
7.11289e-05
7.17929e-05
7.15454e-05
7.15712e-05
6.85016e-05
7.15329e-05
7.15587e-05
7.18025e-05
7.16306e-05
7.33712e-05
7.9715e-05
7.97237e-05
7.16161e-05
7.16296e-05
7.97368e-05
7.33748e-05
7.97283e-05
7.16442e-05
7.17883e-05
6.84979e-05
7.1518e-05
7.15437e-05
7.15305e-05
7.15561e-05
7.1778e-05
7.11259e-05
7.11274e-05
9.49271e-05
7.34529e-05
7.34464e-05
7.34392e-05
7.34328e-05
9.49296e-05
7.40742e-05
6.51182e-05
6.98666e-05
7.31882e-05
6.51321e-05
7.32009e-05
7.40685e-05
7.41222e-05
6.51269e-05
6.98773e-05
7.32005e-05
6.51414e-05
7.32099e-05
7.41164e-05
7.40858e-05
7.32154e-05
6.9876e-05
6.51553e-05
6.51417e-05
7.32029e-05
7.40912e-05
7.41337e-05
7.32243e-05
6.98878e-05
6.51645e-05
6.51501e-05
7.3215e-05
7.41391e-05
9.4915e-05
7.34264e-05
7.342e-05
7.34401e-05
7.34337e-05
9.49124e-05
7.41391e-05
6.52083e-05
7.32466e-05
6.99209e-05
7.41351e-05
6.52208e-05
7.32573e-05
7.41869e-05
6.52167e-05
7.32579e-05
6.99321e-05
7.4183e-05
6.52299e-05
7.32665e-05
9.49721e-05
7.34771e-05
7.34707e-05
9.49698e-05
7.34906e-05
7.34842e-05
7.11253e-05
7.1127e-05
7.11278e-05
7.11295e-05
9.49265e-05
7.34529e-05
7.34462e-05
7.34393e-05
7.34325e-05
9.49284e-05
7.40743e-05
6.51181e-05
6.98669e-05
7.31888e-05
7.32013e-05
6.5133e-05
7.40701e-05
7.41206e-05
6.51261e-05
6.98764e-05
7.31983e-05
7.32106e-05
6.51405e-05
7.41158e-05
7.40874e-05
7.32148e-05
6.98763e-05
6.51561e-05
7.32048e-05
7.40915e-05
6.51415e-05
7.4133e-05
7.32253e-05
6.9886e-05
6.51636e-05
7.32128e-05
7.41376e-05
6.51495e-05
9.49137e-05
7.34264e-05
7.34197e-05
7.34401e-05
7.34334e-05
9.49117e-05
7.11546e-05
7.1153e-05
7.11571e-05
7.11555e-05
9.49429e-05
7.3452e-05
7.34452e-05
9.49409e-05
7.34656e-05
7.34589e-05
7.41206e-05
6.52003e-05
6.9904e-05
7.3243e-05
7.32339e-05
6.51866e-05
7.41246e-05
7.41662e-05
6.52078e-05
6.99136e-05
7.3254e-05
7.32416e-05
6.51944e-05
7.41705e-05
7.41082e-05
7.32194e-05
6.51643e-05
6.98947e-05
7.41042e-05
7.32289e-05
6.51784e-05
7.41543e-05
7.32275e-05
6.51722e-05
6.99045e-05
7.41498e-05
7.32396e-05
6.5186e-05
9.49553e-05
7.34782e-05
7.34715e-05
7.34647e-05
7.34579e-05
9.49572e-05
7.17898e-05
7.15692e-05
7.15443e-05
6.85009e-05
7.15577e-05
7.15351e-05
7.18036e-05
7.16303e-05
7.33701e-05
7.97167e-05
7.97251e-05
7.16157e-05
7.16293e-05
7.97381e-05
7.33738e-05
7.97299e-05
7.16438e-05
7.1789e-05
6.84951e-05
7.15425e-05
7.15197e-05
7.15546e-05
7.15303e-05
7.17754e-05
7.18151e-05
7.15731e-05
7.15412e-05
6.85256e-05
7.18041e-05
7.15828e-05
7.15525e-05
7.16541e-05
7.33991e-05
7.97412e-05
7.1669e-05
7.97369e-05
7.16556e-05
7.97241e-05
7.33954e-05
7.16407e-05
7.97283e-05
7.18189e-05
6.85295e-05
7.15974e-05
7.15666e-05
7.18289e-05
7.1588e-05
7.15556e-05
7.18182e-05
7.15734e-05
7.15495e-05
6.85269e-05
7.18045e-05
7.15835e-05
7.15587e-05
7.16562e-05
7.34036e-05
7.97637e-05
7.97557e-05
7.16706e-05
7.16572e-05
7.9743e-05
7.34001e-05
7.16428e-05
7.9751e-05
7.1819e-05
6.85319e-05
7.15981e-05
7.15729e-05
7.15884e-05
7.15637e-05
7.18323e-05
9.49242e-05
7.34461e-05
7.34518e-05
7.34324e-05
7.34381e-05
9.49275e-05
7.41208e-05
6.51257e-05
6.98763e-05
7.3198e-05
7.32106e-05
6.5139e-05
7.41156e-05
7.40742e-05
6.512e-05
6.98632e-05
7.31876e-05
6.51321e-05
7.32001e-05
7.40689e-05
7.41329e-05
7.3225e-05
6.98857e-05
6.51621e-05
7.32126e-05
6.51491e-05
7.41379e-05
7.40862e-05
7.32146e-05
6.98742e-05
6.51552e-05
6.51433e-05
7.32022e-05
7.40913e-05
9.49129e-05
7.34196e-05
7.34253e-05
7.34334e-05
7.34391e-05
9.49094e-05
7.11237e-05
7.11253e-05
7.11565e-05
7.11548e-05
9.49419e-05
7.34451e-05
7.34508e-05
9.49387e-05
7.34588e-05
7.34645e-05
7.41659e-05
6.52063e-05
6.99133e-05
7.32537e-05
6.5194e-05
7.32413e-05
7.41708e-05
7.41193e-05
6.51994e-05
6.99019e-05
7.32434e-05
7.32309e-05
6.51883e-05
7.41243e-05
7.41545e-05
7.32271e-05
6.51718e-05
6.99042e-05
6.51845e-05
7.41495e-05
7.32393e-05
7.41079e-05
7.32168e-05
6.5166e-05
6.98914e-05
7.41029e-05
7.32289e-05
6.51776e-05
9.4953e-05
7.34714e-05
7.34771e-05
7.34578e-05
7.34635e-05
9.49561e-05
7.11529e-05
7.11514e-05
7.17907e-05
7.15691e-05
7.15368e-05
6.84995e-05
7.15596e-05
7.15277e-05
7.18002e-05
7.16282e-05
7.3365e-05
7.96969e-05
7.97004e-05
7.16132e-05
7.16268e-05
7.97138e-05
7.33703e-05
7.971e-05
7.16417e-05
7.17857e-05
6.84955e-05
7.15446e-05
7.15128e-05
7.15542e-05
7.15222e-05
7.1776e-05
7.18169e-05
7.15479e-05
7.15738e-05
6.853e-05
7.18073e-05
7.156e-05
7.15862e-05
7.16566e-05
7.34046e-05
7.97625e-05
7.1671e-05
7.97542e-05
7.16576e-05
7.97413e-05
7.34009e-05
7.16431e-05
7.97497e-05
7.18221e-05
6.85334e-05
7.15744e-05
7.16009e-05
7.18314e-05
7.15623e-05
7.15887e-05
7.18147e-05
7.15744e-05
7.15422e-05
6.85279e-05
7.18052e-05
7.15841e-05
7.15514e-05
7.16536e-05
7.34002e-05
7.97391e-05
7.97357e-05
7.16685e-05
7.16552e-05
7.97229e-05
7.33948e-05
7.16402e-05
7.97267e-05
7.18198e-05
6.85313e-05
7.15989e-05
7.15654e-05
7.15894e-05
7.15565e-05
7.18292e-05
7.17927e-05
7.15445e-05
7.15691e-05
6.85022e-05
7.15355e-05
7.15597e-05
7.18021e-05
7.16301e-05
7.33688e-05
7.97148e-05
7.97231e-05
7.16155e-05
7.16291e-05
7.97362e-05
7.33742e-05
7.9728e-05
7.16436e-05
7.17876e-05
6.84961e-05
7.15207e-05
7.15448e-05
7.15299e-05
7.15543e-05
7.17781e-05
7.1791e-05
7.15701e-05
7.15406e-05
6.84992e-05
7.15575e-05
7.15283e-05
7.18017e-05
7.16292e-05
7.33671e-05
7.96967e-05
7.97052e-05
7.16147e-05
7.16282e-05
7.97183e-05
7.33707e-05
7.971e-05
7.16427e-05
7.17866e-05
6.84952e-05
7.15429e-05
7.15137e-05
7.15552e-05
7.15259e-05
7.17768e-05
7.18166e-05
7.155e-05
7.15746e-05
6.85279e-05
7.18072e-05
7.1559e-05
7.15842e-05
7.1656e-05
7.34039e-05
7.97617e-05
7.9754e-05
7.16704e-05
7.16571e-05
7.97411e-05
7.33989e-05
7.16426e-05
7.97491e-05
7.18218e-05
6.85335e-05
7.15731e-05
7.1599e-05
7.15643e-05
7.15895e-05
7.18312e-05
7.18168e-05
7.15727e-05
7.15431e-05
6.8527e-05
7.18048e-05
7.1585e-05
7.1555e-05
7.16551e-05
7.34004e-05
7.97439e-05
7.97359e-05
7.16695e-05
7.16562e-05
7.9723e-05
7.33969e-05
7.16417e-05
7.97312e-05
7.18185e-05
6.85309e-05
7.15998e-05
7.15693e-05
7.15878e-05
7.15574e-05
7.18317e-05
9.49289e-05
7.34462e-05
7.34528e-05
7.34325e-05
7.34391e-05
9.49312e-05
7.41206e-05
6.51245e-05
6.98699e-05
7.31963e-05
7.32089e-05
6.51359e-05
7.41149e-05
7.40752e-05
6.51196e-05
6.98666e-05
7.31905e-05
6.51339e-05
7.31998e-05
7.40709e-05
7.41322e-05
7.32234e-05
6.98793e-05
6.5159e-05
7.32109e-05
6.51476e-05
7.41376e-05
7.40881e-05
7.32142e-05
6.98769e-05
6.5157e-05
6.51429e-05
7.32049e-05
7.40922e-05
9.49166e-05
7.34197e-05
7.34263e-05
7.34335e-05
7.344e-05
9.49142e-05
7.1126e-05
7.11278e-05
7.11549e-05
7.11535e-05
9.49456e-05
7.34452e-05
7.34518e-05
9.49433e-05
7.34589e-05
7.34654e-05
7.41653e-05
6.52031e-05
6.99067e-05
7.3252e-05
6.51925e-05
7.32395e-05
7.41695e-05
7.41213e-05
6.52012e-05
6.99045e-05
7.32429e-05
7.32337e-05
6.51878e-05
7.4125e-05
7.41539e-05
7.32254e-05
6.51704e-05
6.98977e-05
6.51812e-05
7.41489e-05
7.32376e-05
7.41088e-05
7.32195e-05
6.51656e-05
6.98946e-05
7.41049e-05
7.32288e-05
6.51793e-05
9.49575e-05
7.34714e-05
7.3478e-05
7.34578e-05
7.34644e-05
9.49597e-05
7.11553e-05
7.11536e-05
7.17884e-05
7.1538e-05
7.157e-05
6.84982e-05
7.15261e-05
7.15573e-05
7.18026e-05
7.16296e-05
7.33676e-05
7.96967e-05
7.97053e-05
7.1615e-05
7.16286e-05
7.97184e-05
7.33711e-05
7.97099e-05
7.16431e-05
7.1788e-05
6.84938e-05
7.15115e-05
7.15426e-05
7.15233e-05
7.15551e-05
7.17736e-05
7.17913e-05
7.15422e-05
7.15707e-05
6.85007e-05
7.15309e-05
7.15581e-05
7.18016e-05
7.16296e-05
7.3371e-05
7.97141e-05
7.97181e-05
7.16145e-05
7.16281e-05
7.97313e-05
7.33747e-05
7.97273e-05
7.16431e-05
7.17868e-05
6.84965e-05
7.15161e-05
7.15434e-05
7.15275e-05
7.15558e-05
7.1777e-05
7.1817e-05
7.15409e-05
7.15724e-05
6.85255e-05
7.1803e-05
7.15524e-05
7.1585e-05
7.16554e-05
7.34008e-05
7.97439e-05
7.97357e-05
7.16698e-05
7.16565e-05
7.97229e-05
7.33974e-05
7.1642e-05
7.97313e-05
7.18176e-05
6.85299e-05
7.15666e-05
7.16e-05
7.15552e-05
7.15873e-05
7.18312e-05
7.18167e-05
7.15457e-05
7.15732e-05
6.85283e-05
7.18053e-05
7.15567e-05
7.15857e-05
7.16549e-05
7.34051e-05
7.97568e-05
7.9753e-05
7.16699e-05
7.16566e-05
7.97403e-05
7.34007e-05
7.16416e-05
7.97442e-05
7.18192e-05
6.85324e-05
7.15708e-05
7.16007e-05
7.156e-05
7.1588e-05
7.18316e-05
7.11258e-05
7.11274e-05
7.11284e-05
7.11302e-05
9.49441e-05
7.34519e-05
7.34455e-05
9.49415e-05
7.34655e-05
7.34591e-05
7.4119e-05
6.51994e-05
6.99036e-05
7.32439e-05
7.4124e-05
6.51867e-05
7.32316e-05
7.41669e-05
6.52086e-05
6.99154e-05
7.32529e-05
7.41718e-05
6.5195e-05
7.32438e-05
7.41081e-05
7.32175e-05
6.51645e-05
6.98945e-05
7.41026e-05
6.51776e-05
7.32296e-05
7.41558e-05
7.32296e-05
6.51729e-05
6.99055e-05
7.41505e-05
6.51868e-05
7.32389e-05
9.49558e-05
7.34781e-05
7.34717e-05
9.49582e-05
7.34645e-05
7.34582e-05
7.1155e-05
7.11534e-05
7.11578e-05
7.11561e-05
7.16828e-05
7.97485e-05
7.34264e-05
7.16684e-05
7.97563e-05
7.18465e-05
6.85573e-05
7.16034e-05
7.15712e-05
7.18324e-05
7.16133e-05
7.15831e-05
7.34291e-05
7.11806e-05
7.11833e-05
3.12667e-05
3.12653e-05
3.849e-05
3.13972e-05
3.13959e-05
2.22599e-05
2.21084e-05
6.58137e-05
5.93001e-05
5.93021e-05
5.32924e-05
5.93079e-05
5.93092e-05
6.58058e-05
6.59102e-05
5.9441e-05
5.94433e-05
5.34891e-05
6.59031e-05
5.94468e-05
5.9448e-05
6.58129e-05
5.9305e-05
5.93052e-05
5.32834e-05
5.93039e-05
5.93047e-05
6.58078e-05
6.58812e-05
5.34474e-05
5.941e-05
5.94105e-05
5.94104e-05
5.94107e-05
6.58861e-05
6.5814e-05
5.93017e-05
5.93049e-05
5.32947e-05
5.93098e-05
5.93071e-05
6.58072e-05
6.58807e-05
5.34376e-05
5.94113e-05
5.94134e-05
5.94072e-05
5.9409e-05
6.58867e-05
6.5813e-05
5.93e-05
5.9307e-05
5.32831e-05
5.9307e-05
5.93051e-05
6.58059e-05
6.58795e-05
5.34463e-05
5.94101e-05
5.941e-05
5.94048e-05
5.94098e-05
6.58856e-05
6.588e-05
5.34378e-05
5.94119e-05
5.94138e-05
6.58863e-05
5.94071e-05
5.94075e-05
3.12672e-05
3.12659e-05
3.84912e-05
3.13977e-05
3.13964e-05
2.22599e-05
2.21084e-05
3.12706e-05
3.12695e-05
3.84937e-05
3.1401e-05
3.13999e-05
2.22638e-05
2.21123e-05
3.12708e-05
3.12695e-05
3.84942e-05
3.14014e-05
3.14e-05
2.22637e-05
2.21122e-05
3.85957e-05
3.16535e-05
3.16523e-05
3.15264e-05
3.15251e-05
2.24108e-05
2.25607e-05
3.85968e-05
3.1654e-05
3.16527e-05
3.1527e-05
3.15257e-05
2.24108e-05
2.25607e-05
3.85993e-05
3.16573e-05
3.16561e-05
3.15303e-05
3.15292e-05
2.24146e-05
2.25645e-05
3.85999e-05
3.16577e-05
3.16562e-05
3.15306e-05
3.15293e-05
2.24145e-05
2.25644e-05
5.61433e-05
6.22255e-05
5.48418e-05
6.05056e-05
6.22113e-05
5.48543e-05
5.61321e-05
5.72085e-05
6.02282e-05
6.47043e-05
6.40872e-05
6.02292e-05
6.40991e-05
5.72191e-05
5.72551e-05
6.41215e-05
6.47111e-05
6.02597e-05
6.02587e-05
6.41097e-05
5.72448e-05
5.60908e-05
6.04936e-05
6.21854e-05
5.48073e-05
6.22e-05
5.47964e-05
5.61019e-05
5.61374e-05
5.48488e-05
6.22218e-05
6.05005e-05
5.48459e-05
6.22026e-05
5.61306e-05
5.72118e-05
6.02234e-05
6.47048e-05
6.40788e-05
6.02318e-05
6.40934e-05
5.72109e-05
5.72469e-05
6.41157e-05
6.47108e-05
6.02625e-05
6.0254e-05
6.41015e-05
5.72488e-05
5.60888e-05
6.04918e-05
5.48006e-05
6.21769e-05
5.48021e-05
6.2196e-05
5.60962e-05
6.58313e-05
5.33415e-05
5.93436e-05
5.93442e-05
5.93386e-05
5.93398e-05
6.58385e-05
6.58329e-05
5.33489e-05
5.9341e-05
5.93401e-05
6.5838e-05
5.93414e-05
5.93411e-05
6.58622e-05
5.33827e-05
5.93749e-05
5.93765e-05
6.58575e-05
5.93746e-05
5.93762e-05
5.61326e-05
6.22214e-05
5.48477e-05
6.05005e-05
6.22019e-05
5.48431e-05
5.61292e-05
5.72096e-05
6.02217e-05
6.4703e-05
6.40779e-05
6.40918e-05
6.02308e-05
5.72058e-05
5.72425e-05
6.41141e-05
6.47093e-05
6.02611e-05
6.41003e-05
6.02525e-05
5.72459e-05
5.60864e-05
6.0492e-05
6.21762e-05
5.47969e-05
6.21956e-05
5.48017e-05
5.60894e-05
5.61385e-05
6.22241e-05
5.48487e-05
6.05018e-05
6.22095e-05
5.48442e-05
5.61321e-05
5.7207e-05
6.02273e-05
6.47068e-05
6.4086e-05
6.40985e-05
6.02284e-05
5.72121e-05
5.72509e-05
6.41209e-05
6.47135e-05
6.02591e-05
6.41087e-05
5.72433e-05
6.0258e-05
5.609e-05
6.04934e-05
6.21831e-05
5.47981e-05
6.21985e-05
5.48029e-05
5.6096e-05
5.61699e-05
6.22277e-05
5.48863e-05
6.05478e-05
5.61744e-05
6.22466e-05
5.48904e-05
5.73141e-05
6.03193e-05
6.47456e-05
6.41574e-05
6.0311e-05
6.41442e-05
5.73172e-05
5.7282e-05
6.41226e-05
6.02819e-05
6.47397e-05
6.02898e-05
5.7279e-05
6.4136e-05
5.62145e-05
6.05557e-05
6.22713e-05
5.49333e-05
6.22526e-05
5.49295e-05
5.62097e-05
5.61725e-05
6.2235e-05
5.48874e-05
6.05492e-05
5.61796e-05
6.22494e-05
5.48915e-05
5.7325e-05
6.03188e-05
6.47498e-05
6.41644e-05
6.41529e-05
6.03177e-05
5.7314e-05
5.72781e-05
6.4131e-05
6.02876e-05
6.47435e-05
5.72887e-05
6.4143e-05
6.02887e-05
5.62198e-05
6.0557e-05
6.2274e-05
5.49343e-05
6.22598e-05
5.49306e-05
5.62122e-05
6.58325e-05
5.33401e-05
5.9343e-05
5.93448e-05
5.934e-05
5.93379e-05
6.58389e-05
6.5863e-05
5.3392e-05
5.93723e-05
5.93743e-05
5.9377e-05
6.58568e-05
5.9379e-05
5.61385e-05
6.22261e-05
5.48496e-05
6.05023e-05
6.22064e-05
5.48465e-05
5.61321e-05
5.72126e-05
6.02245e-05
6.47068e-05
6.40847e-05
6.40989e-05
6.02334e-05
5.72117e-05
5.7248e-05
6.41214e-05
6.47132e-05
6.02639e-05
6.41073e-05
6.02554e-05
5.72498e-05
5.60897e-05
6.0494e-05
6.21805e-05
5.48018e-05
6.22e-05
5.48032e-05
5.60967e-05
5.61359e-05
5.48483e-05
6.22206e-05
6.05005e-05
5.48459e-05
6.2201e-05
5.61283e-05
5.72027e-05
6.02212e-05
6.47011e-05
6.40754e-05
6.40896e-05
6.02278e-05
5.72091e-05
5.72441e-05
6.41121e-05
6.4708e-05
6.02585e-05
6.40981e-05
5.72435e-05
6.02503e-05
5.60862e-05
6.04922e-05
5.48005e-05
6.21746e-05
5.48012e-05
6.21945e-05
5.60945e-05
5.61731e-05
6.22323e-05
5.48893e-05
6.05502e-05
5.61794e-05
6.22513e-05
5.48929e-05
5.73183e-05
6.03221e-05
6.47496e-05
6.41649e-05
6.03145e-05
6.41513e-05
5.7321e-05
5.7286e-05
6.41297e-05
6.02849e-05
6.47436e-05
6.02927e-05
5.72836e-05
6.41433e-05
5.62192e-05
6.0558e-05
6.22763e-05
5.49357e-05
6.22574e-05
5.4932e-05
5.6213e-05
5.61695e-05
5.48885e-05
6.2227e-05
6.05484e-05
5.61765e-05
5.48917e-05
6.2246e-05
5.73134e-05
6.0317e-05
6.47444e-05
6.41554e-05
6.41419e-05
6.03094e-05
5.73157e-05
5.72804e-05
6.41204e-05
6.02799e-05
6.47377e-05
5.72791e-05
6.41339e-05
6.02876e-05
5.6216e-05
6.05562e-05
5.49344e-05
6.22706e-05
5.49308e-05
6.2252e-05
5.62094e-05
5.61339e-05
5.48486e-05
6.22232e-05
6.05017e-05
5.48444e-05
6.22039e-05
5.61311e-05
5.7211e-05
6.02223e-05
6.47036e-05
6.40792e-05
6.02314e-05
6.40932e-05
5.72073e-05
5.72439e-05
6.41156e-05
6.47097e-05
6.02616e-05
6.0253e-05
6.41016e-05
5.72472e-05
5.6088e-05
6.04934e-05
5.47983e-05
6.21783e-05
5.48026e-05
6.21975e-05
5.60901e-05
5.61731e-05
6.22368e-05
5.48975e-05
6.05493e-05
5.6184e-05
6.22509e-05
5.48852e-05
5.73264e-05
6.03197e-05
6.47475e-05
6.41647e-05
5.73156e-05
6.03179e-05
6.41535e-05
5.72799e-05
6.41319e-05
6.0288e-05
6.47411e-05
5.72911e-05
6.02893e-05
6.41434e-05
5.62238e-05
6.05606e-05
6.22752e-05
5.49269e-05
5.62129e-05
6.22616e-05
5.49404e-05
5.61717e-05
5.48877e-05
6.22297e-05
6.05493e-05
5.61757e-05
5.48916e-05
6.22485e-05
5.73155e-05
6.03199e-05
6.47462e-05
6.41589e-05
6.41456e-05
6.03116e-05
5.73186e-05
5.72834e-05
6.4124e-05
6.02825e-05
6.47403e-05
5.72804e-05
6.41375e-05
6.02904e-05
5.62161e-05
6.05571e-05
5.49345e-05
6.22732e-05
5.49309e-05
6.22546e-05
5.62115e-05
6.58312e-05
5.33484e-05
5.93415e-05
5.93413e-05
5.93406e-05
5.93352e-05
6.58379e-05
6.58621e-05
5.33823e-05
5.93704e-05
5.93755e-05
5.93756e-05
6.58556e-05
5.93764e-05
5.61397e-05
5.48499e-05
6.2225e-05
6.05018e-05
5.48474e-05
6.22058e-05
5.6132e-05
5.72066e-05
6.02291e-05
6.47084e-05
6.40845e-05
6.02329e-05
6.40979e-05
5.72159e-05
5.72503e-05
6.41204e-05
6.47147e-05
6.0264e-05
6.02565e-05
6.41068e-05
5.72477e-05
5.609e-05
6.04935e-05
5.48021e-05
6.21796e-05
5.48029e-05
6.2199e-05
5.60983e-05
5.61715e-05
5.48885e-05
6.22283e-05
6.05477e-05
5.61779e-05
5.4892e-05
6.22469e-05
5.73168e-05
6.0321e-05
6.47471e-05
6.41589e-05
5.73195e-05
6.03126e-05
6.41453e-05
5.72847e-05
6.41237e-05
6.02835e-05
6.47413e-05
5.72823e-05
6.02913e-05
6.41375e-05
5.62173e-05
6.05559e-05
5.49347e-05
6.22717e-05
5.62111e-05
5.4931e-05
6.22532e-05
5.61733e-05
5.48899e-05
6.22317e-05
6.05495e-05
5.61802e-05
5.48931e-05
6.22503e-05
5.73193e-05
6.03226e-05
6.47511e-05
6.41635e-05
6.41511e-05
6.03151e-05
5.73212e-05
5.7286e-05
6.41291e-05
6.02858e-05
6.4745e-05
5.72854e-05
6.41421e-05
6.02933e-05
5.62198e-05
6.05574e-05
5.49357e-05
6.22749e-05
5.49322e-05
6.22567e-05
5.6213e-05
6.58627e-05
5.33919e-05
5.93726e-05
5.93723e-05
6.58559e-05
5.93774e-05
5.93788e-05
5.73533e-05
6.034e-05
6.41668e-05
6.47752e-05
6.03479e-05
5.73505e-05
6.41796e-05
5.62508e-05
6.06022e-05
5.49737e-05
6.22787e-05
5.4977e-05
5.62555e-05
6.22972e-05
6.03435e-05
6.47799e-05
6.03505e-05
2.10363e-05
3.66872e-05
3.66902e-05
4.19441e-05
2.17947e-05
3.7593e-05
3.75959e-05
4.26655e-05
2.25714e-05
3.84726e-05
3.84755e-05
4.33623e-05
2.33624e-05
3.93254e-05
3.93282e-05
4.40355e-05
2.41641e-05
4.01504e-05
4.01532e-05
4.46821e-05
2.49726e-05
4.09471e-05
4.09497e-05
4.53083e-05
2.57841e-05
4.17151e-05
4.17176e-05
4.5909e-05
2.65949e-05
4.24542e-05
4.24566e-05
4.6491e-05
2.74016e-05
4.31645e-05
4.31667e-05
4.7046e-05
2.82012e-05
4.38461e-05
4.38482e-05
4.7585e-05
2.89909e-05
4.44992e-05
4.45009e-05
4.80937e-05
2.9768e-05
4.51239e-05
4.51255e-05
4.85824e-05
3.05301e-05
4.57207e-05
4.57222e-05
4.90526e-05
3.1275e-05
4.62901e-05
4.62914e-05
4.94895e-05
3.20008e-05
4.68322e-05
4.68334e-05
4.99139e-05
3.2706e-05
4.73474e-05
4.73487e-05
5.03197e-05
3.3389e-05
4.78361e-05
4.78373e-05
5.07084e-05
3.40486e-05
4.82988e-05
4.82997e-05
5.10715e-05
3.46836e-05
4.87357e-05
4.87364e-05
5.14144e-05
3.52932e-05
4.91472e-05
4.91477e-05
5.17379e-05
3.58765e-05
4.95338e-05
4.95342e-05
5.20423e-05
3.64329e-05
4.9896e-05
4.98962e-05
5.23274e-05
3.69621e-05
5.02341e-05
5.02343e-05
5.26011e-05
3.74637e-05
5.05486e-05