/*--------------------------------*- C++ -*----------------------------------*\
| =========                 |                                                 |
| \\      /  F ield         | OpenFOAM: The Open Source CFD Toolbox           |
|  \\    /   O peration     | Version:  v1906                                 |
|   \\  /    A nd           | Web:      www.OpenFOAM.com                      |
|    \\/     M anipulation  |                                                 |
\*---------------------------------------------------------------------------*/
FoamFile
{
    version     2.0;
    format      ascii;
    class       volScalarField;
    location    "450";
    object      nut;
}
// * * * * * * * * * * * * * * * * * * * * * * * * * * * * * * * * * * * * * //

dimensions      [0 2 -1 0 0 0 0];


internalField   nonuniform List<scalar> 
171728
(
0.000136683
0.000138624
0.000138625
0.000136878
0.000138641
0.00013863
0.000138639
0.000138656
0.000136866
0.000138644
0.000138661
0.000136843
0.000122378
0.000122374
0.000122386
0.000122403
2.36123e-05
2.36119e-05
7.373e-05
7.37389e-05
9.18278e-05
5.00175e-05
9.20561e-05
9.18231e-05
5.00198e-05
5.00045e-05
9.20622e-05
0.000120679
9.38174e-05
0.000133995
0.000133134
0.000121324
0.00012068
0.000137838
9.38182e-05
0.000133995
9.3537e-05
0.000133133
0.000121333
2.36121e-05
2.36076e-05
0.000136005
7.37363e-05
7.37259e-05
7.36259e-05
7.36257e-05
2.36127e-05
2.36082e-05
5.00171e-05
9.20623e-05
9.38261e-05
0.000134006
0.000121336
5.00099e-05
9.20673e-05
0.000134008
9.38071e-05
0.000121332
0.000120692
0.000137851
9.38212e-05
0.000134001
9.35356e-05
0.000133141
0.00012133
9.18372e-05
5.00187e-05
5.00034e-05
9.20544e-05
0.000120686
0.000137868
0.000134015
9.38216e-05
0.000133153
9.35336e-05
0.000121326
9.18329e-05
5.00123e-05
5.00033e-05
9.20527e-05
2.36102e-05
7.37169e-05
7.3735e-05
2.36119e-05
0.000120686
0.00013402
9.38261e-05
0.00013316
0.00012134
0.000120688
0.000137875
0.000134031
9.38221e-05
0.000133168
9.35357e-05
0.000121336
9.18391e-05
5.0015e-05
9.20601e-05
9.18395e-05
5.00127e-05
5.00038e-05
9.20594e-05
0.000135965
7.37345e-05
7.37376e-05
7.36335e-05
7.36303e-05
2.36118e-05
2.36074e-05
2.36114e-05
2.3607e-05
2.36104e-05
2.36095e-05
9.72547e-05
0.000112667
7.37019e-05
4.79367e-05
4.79344e-05
0.0001125
9.73156e-05
9.72846e-05
0.000112653
7.36918e-05
4.7933e-05
4.79287e-05
0.000112505
9.73586e-05
7.88183e-05
2.14921e-05
2.14902e-05
2.14904e-05
2.14878e-05
7.88417e-05
3.62675e-05
4.0537e-05
8.80235e-05
9.19321e-05
3.62652e-05
4.05361e-05
8.81122e-05
2.01021e-05
5.00106e-05
7.60352e-05
7.59933e-05
2.01042e-05
3.62687e-05
9.1952e-05
4.05397e-05
8.82122e-05
4.05409e-05
8.81224e-05
3.62708e-05
3.62703e-05
4.0533e-05
8.80356e-05
9.19385e-05
3.62661e-05
4.05402e-05
8.81325e-05
2.01032e-05
5.00114e-05
7.60621e-05
7.60162e-05
2.01052e-05
2.01038e-05
7.59697e-05
5.00122e-05
2.01018e-05
7.60153e-05
3.62695e-05
9.19554e-05
4.05446e-05
8.82252e-05
4.05371e-05
8.81374e-05
3.62736e-05
2.36099e-05
2.36098e-05
7.87976e-05
2.14864e-05
2.14889e-05
7.87738e-05
2.14885e-05
2.1491e-05
9.72699e-05
0.000112659
7.3694e-05
4.79316e-05
0.000112487
4.79275e-05
9.73287e-05
9.72572e-05
0.00011267
7.36939e-05
4.79379e-05
4.79367e-05
0.000112503
9.73141e-05
9.72038e-05
4.79171e-05
0.000112242
7.36686e-05
0.000112413
9.71452e-05
4.79255e-05
9.71884e-05
4.79284e-05
0.000112258
7.36582e-05
9.71316e-05
4.79307e-05
0.000112423
7.88169e-05
2.14901e-05
2.14927e-05
2.14881e-05
2.14906e-05
7.88419e-05
2.36105e-05
2.36104e-05
2.01035e-05
5.00084e-05
7.60604e-05
7.60161e-05
2.01055e-05
3.62695e-05
9.19554e-05
8.82299e-05
4.05399e-05
8.81355e-05
4.0541e-05
3.62743e-05
2.01018e-05
5.00073e-05
7.60329e-05
7.5988e-05
2.01039e-05
3.62671e-05
9.19442e-05
4.05439e-05
8.82126e-05
4.05363e-05
8.81164e-05
3.62713e-05
3.62692e-05
8.80453e-05
4.05366e-05
9.19338e-05
3.62682e-05
8.81209e-05
4.05356e-05
2.01038e-05
5.00104e-05
7.60589e-05
7.602e-05
2.01058e-05
2.01044e-05
7.59734e-05
5.00109e-05
2.01025e-05
7.60129e-05
3.62716e-05
9.19629e-05
8.82178e-05
4.05392e-05
8.81445e-05
4.05405e-05
3.62723e-05
3.62682e-05
4.05366e-05
8.80274e-05
9.19311e-05
3.62651e-05
4.05357e-05
8.81232e-05
2.01028e-05
5.00108e-05
7.60401e-05
7.60015e-05
2.01047e-05
2.01033e-05
7.59547e-05
5.00055e-05
2.01014e-05
7.59942e-05
3.62681e-05
9.19589e-05
4.05391e-05
8.82219e-05
4.05405e-05
8.81263e-05
3.62721e-05
2.36081e-05
9.72693e-05
0.000112637
7.36853e-05
4.79275e-05
0.00011249
4.79265e-05
9.73186e-05
9.72565e-05
0.000112665
7.36963e-05
4.79435e-05
4.79335e-05
0.000112502
9.73152e-05
7.88206e-05
2.14891e-05
2.14925e-05
2.14871e-05
2.14904e-05
7.88378e-05
2.36098e-05
3.62675e-05
8.80336e-05
4.05366e-05
9.19345e-05
3.6266e-05
8.81146e-05
4.05357e-05
2.01028e-05
5.00066e-05
7.60408e-05
7.59978e-05
2.01048e-05
2.01034e-05
7.59938e-05
3.62695e-05
9.19578e-05
8.82201e-05
4.05393e-05
8.8126e-05
4.05404e-05
3.62706e-05
3.62692e-05
8.80416e-05
4.05366e-05
9.19361e-05
3.62677e-05
8.81189e-05
4.05357e-05
2.01035e-05
5.00113e-05
7.60541e-05
7.60133e-05
2.01056e-05
2.01042e-05
7.59666e-05
5.00059e-05
2.01022e-05
7.60086e-05
3.62714e-05
9.19631e-05
8.82161e-05
4.05394e-05
8.81392e-05
4.05405e-05
3.6272e-05
7.88004e-05
2.14891e-05
2.14862e-05
7.87769e-05
2.14912e-05
2.14883e-05
9.72591e-05
0.000112679
7.37012e-05
4.79432e-05
0.000112508
4.79333e-05
9.73124e-05
9.72754e-05
0.000112673
7.36972e-05
4.79343e-05
0.000112499
4.79244e-05
9.73334e-05
9.71854e-05
4.79257e-05
0.000112265
7.36662e-05
9.71351e-05
0.000112423
4.79348e-05
9.72071e-05
4.79169e-05
0.000112256
7.36699e-05
9.71492e-05
0.000112419
4.79258e-05
7.88199e-05
2.14929e-05
2.149e-05
2.14908e-05
2.14879e-05
7.88448e-05
2.36097e-05
2.36095e-05
2.36093e-05
2.36091e-05
0.000119484
0.000136537
0.000129847
0.000129824
0.000129639
0.000129682
0.000119622
0.000119479
0.000136576
0.000129883
0.000129917
0.000129651
0.000129654
0.000119625
0.000119498
0.000136579
0.000129886
0.000129869
0.000129637
0.000129651
0.000119625
0.000119501
0.000136605
0.000129871
0.000129883
0.000129677
0.000129658
0.000119602
0.000120263
0.000120269
0.000119995
0.000132093
0.000131853
0.000121714
0.00012026
0.000120268
0.000119992
0.000120001
0.000132093
0.000131853
0.000120271
0.000120279
0.000120012
0.000132091
0.000131851
0.000121743
0.000120276
0.000120284
0.000120008
0.000120017
0.000132094
0.000131853
0.000132341
0.00011703
0.000134098
0.000120986
0.000132207
0.000117301
0.000134357
0.000128478
0.000122143
9.3683e-05
0.000107726
0.000121986
0.000107541
0.000128693
0.000132734
0.000121027
0.000117602
0.00013477
0.000117336
0.000134706
0.00013288
0.000132515
0.000117043
0.000134042
0.000120995
0.000132072
0.000117317
0.000134469
0.000128451
0.00012211
9.36894e-05
0.00010774
0.000107552
0.000122004
0.000128687
0.000128295
0.000107318
0.000121631
9.36644e-05
0.000127955
0.000107511
0.000121777
0.00013262
0.000121032
0.000117608
0.000134921
0.000117356
0.000134635
0.000132906
0.000119337
0.000136092
0.000129221
0.00012922
0.000129382
0.000119213
0.000129386
0.0001284
0.000122154
9.36801e-05
0.000107758
0.000121998
0.000107549
0.000128829
0.000132714
0.000121025
0.000117615
0.00013507
0.000117351
0.000134558
0.000133013
0.000128382
0.000122176
9.36769e-05
0.000107725
0.000107533
0.000121948
0.000128814
0.000132678
0.00012102
0.000135067
0.000117603
0.000134556
0.000117334
0.000132999
0.000132236
0.000117051
0.000134239
0.000120993
0.000132256
0.000117303
0.000134266
0.000128541
0.000122136
9.36896e-05
0.000107736
0.000122025
0.000107552
0.000128583
0.000128145
0.000107319
0.00012166
9.36656e-05
0.000128099
0.000121772
0.00010751
0.00013281
0.000121037
0.000117598
0.000134821
0.000117359
0.000134801
0.000132714
0.000132504
0.000134146
0.000117046
0.000120992
0.000132107
0.000134249
0.000117311
0.000128376
0.000122176
9.36874e-05
0.00010775
0.00010754
0.000121972
0.000128827
0.000128305
0.000107308
0.000121633
9.36693e-05
0.000127954
0.000107518
0.000121825
0.00013262
0.000121036
0.000134794
0.000117614
0.000134754
0.000117347
0.000133028
0.000132237
0.000134138
0.000117042
0.000120997
0.000132262
0.000134371
0.000117299
0.00012848
0.000122216
9.36759e-05
0.000107749
0.000121954
0.00010754
0.000128701
0.000128217
0.000107506
0.000132761
0.000121029
0.000134942
0.000117605
0.0001347
0.000117337
0.000132899
0.000132361
0.000134212
0.00011705
0.000120997
0.000132167
0.000134268
0.000117314
0.000128454
0.000122111
9.36865e-05
0.000107738
0.000107555
0.000122
0.000128712
0.00012824
0.000107322
0.000121653
9.36673e-05
0.000128025
0.000107511
0.00012179
0.000132799
0.000121034
0.000134817
0.000117617
0.000134781
0.000117351
0.00013284
0.000119322
0.000136122
0.000129256
0.00012923
0.000119236
0.00012938
0.000129399
0.000203424
0.000198748
0.000198739
0.000180627
0.000181558
0.000180674
0.000181464
0.000198717
0.000198717
0.000199775
0.000199775
0.00018061
0.000181549
0.000198732
0.000198706
0.00019979
0.000199763
0.000198724
0.000199806
0.000199782
0.000180667
0.000181465
0.000198739
0.000199796
0.000199796
0.000181539
0.000200126
0.000200141
9.97161e-05
5.0713e-05
5.07241e-05
9.96476e-05
2.38792e-05
2.38836e-05
9.97247e-05
5.07099e-05
5.07211e-05
9.9656e-05
0.000203431
0.000203431
0.00020344
0.000205317
0.000205323
0.000205322
0.000205331
0.000143704
0.000103351
0.000207733
0.000199105
0.000103437
0.0002082
0.00014351
2.3877e-05
2.38815e-05
0.000143703
0.000207729
0.000103351
0.000199096
0.000208197
0.000103437
0.000143488
7.78114e-05
7.78113e-05
0.000181064
7.7839e-05
7.78362e-05
7.78746e-05
7.7874e-05
2.38798e-05
2.38843e-05
2.38785e-05
2.3883e-05
7.78135e-05
7.78094e-05
0.000180989
7.78409e-05
7.78364e-05
2.38889e-05
2.38845e-05
2.38876e-05
2.38832e-05
0.000181147
7.78706e-05
7.78675e-05
7.78463e-05
7.78418e-05
9.97168e-05
5.07133e-05
5.07245e-05
9.96533e-05
0.000143706
0.000103352
0.000207718
0.000199074
0.000103437
0.000208186
0.000143491
0.000143707
0.00010335
0.000207721
0.000199075
0.000103435
0.000208189
0.000143494
9.97101e-05
5.07337e-05
5.07235e-05
9.97759e-05
9.97159e-05
5.07347e-05
5.07238e-05
9.97775e-05
0.000143708
0.000199428
0.000103516
0.000209105
0.000103434
0.00020865
0.000143913
0.000143712
0.000199428
0.000103514
0.000209107
0.000103432
0.000208652
0.000143914
7.78097e-05
7.78071e-05
0.000181072
7.78378e-05
7.7833e-05
2.38797e-05
2.38841e-05
2.38882e-05
2.38838e-05
0.000181081
7.78679e-05
7.78642e-05
7.78422e-05
7.78395e-05
2.38887e-05
2.38844e-05
0.000143708
0.000103343
0.000207723
0.000199088
0.00010343
0.000208186
0.000143493
9.97205e-05
5.07083e-05
5.07148e-05
9.96543e-05
0.000143704
0.000207718
0.000103331
0.000199063
0.000208185
0.000103416
0.000143487
9.97186e-05
5.07305e-05
5.07204e-05
9.97847e-05
0.000143711
0.000199443
0.000103508
0.000209105
0.000103425
0.000208654
0.000143917
9.97149e-05
5.07251e-05
5.07186e-05
9.97805e-05
0.000143706
0.000199416
0.000209104
0.000103494
0.000208649
0.000103413
0.000143913
9.97181e-05
5.0715e-05
5.07214e-05
9.96557e-05
0.00014371
0.000207729
0.00010335
0.000199082
0.000208197
0.000103436
0.000143496
9.97183e-05
5.07091e-05
5.07203e-05
9.96495e-05
0.000143727
0.000199459
0.000103516
0.000209119
0.000103433
0.000208664
0.000143911
9.9718e-05
5.07326e-05
5.07253e-05
9.9778e-05
0.000143712
0.000199435
0.000209116
0.000103515
0.00020866
0.000103432
0.000143918
9.9712e-05
5.07305e-05
5.07196e-05
9.97783e-05
7.77936e-05
7.78135e-05
0.000180984
7.78233e-05
7.78387e-05
2.3879e-05
2.38833e-05
2.3886e-05
2.38817e-05
0.00018114
7.78541e-05
7.78697e-05
7.78259e-05
7.78459e-05
2.38879e-05
2.38836e-05
0.000143707
0.000207731
0.000103348
0.000199096
0.000208199
0.000103434
0.000143492
9.97146e-05
5.07087e-05
5.07201e-05
9.96465e-05
9.97213e-05
5.07094e-05
5.07205e-05
9.96539e-05
0.000143706
0.000199449
0.000209115
0.000103516
0.00020866
0.000103433
0.00014391
0.00014371
0.000199449
0.000209117
0.000103512
0.000208662
0.00010343
0.000143915
9.97091e-05
5.07303e-05
5.07194e-05
9.97741e-05
9.97165e-05
5.07289e-05
5.07198e-05
9.97809e-05
2.38787e-05
2.38831e-05
2.38783e-05
2.38827e-05
0.00018108
7.78698e-05
7.78672e-05
7.78439e-05
7.78436e-05
2.38877e-05
2.38833e-05
2.38872e-05
2.38829e-05
0.000209569
0.000103511
0.00014392
5.07296e-05
9.97715e-05
0.000103509
5.07326e-05
2.3888e-05
2.38876e-05
3.66941e-05
4.10372e-05
9.43532e-05
9.96789e-05
4.10372e-05
9.43199e-05
3.6699e-05
2.03078e-05
5.07189e-05
7.89824e-05
7.89953e-05
2.03057e-05
2.03076e-05
7.90074e-05
5.07183e-05
7.89946e-05
2.03097e-05
3.66958e-05
9.96851e-05
4.10327e-05
9.42955e-05
4.10331e-05
9.43289e-05
3.66895e-05
2.38813e-05
2.38815e-05
3.66989e-05
9.43665e-05
4.10398e-05
9.96871e-05
9.43324e-05
4.10336e-05
3.66983e-05
2.0309e-05
5.07159e-05
7.90003e-05
7.90195e-05
2.03069e-05
2.03088e-05
7.90316e-05
5.07152e-05
7.90127e-05
2.03109e-05
3.6695e-05
9.96937e-05
9.43076e-05
4.10294e-05
9.43419e-05
4.10352e-05
3.66946e-05
2.38791e-05
2.38793e-05
8.14451e-05
2.17029e-05
2.16999e-05
2.17009e-05
2.16979e-05
8.14521e-05
0.000105058
0.000128362
7.78229e-05
4.86257e-05
0.000128424
4.86331e-05
0.000105034
0.000105066
0.000128345
7.78198e-05
4.86203e-05
0.000128409
4.86203e-05
0.000105042
0.000105067
4.8638e-05
7.78279e-05
0.000128498
0.000128437
4.86307e-05
0.00010509
0.000105075
4.86251e-05
7.78277e-05
0.000128482
0.000128418
4.8625e-05
0.000105098
8.14417e-05
2.1699e-05
2.1696e-05
2.1701e-05
2.1698e-05
8.14348e-05
0.000105181
0.00012865
4.86467e-05
7.78836e-05
0.000105161
0.000128707
4.86502e-05
0.000105189
0.000128632
4.86396e-05
7.78818e-05
0.000105169
0.000128691
4.86384e-05
8.14815e-05
2.17065e-05
2.17035e-05
8.14746e-05
2.17085e-05
2.17055e-05
2.38819e-05
2.38822e-05
2.38806e-05
2.38809e-05
8.14448e-05
2.17029e-05
2.16996e-05
2.17009e-05
2.16976e-05
8.14509e-05
0.000105058
0.000128362
7.78248e-05
4.86265e-05
4.86331e-05
0.000128427
0.000105039
0.000105062
0.000128343
7.78201e-05
4.8615e-05
4.86218e-05
0.000128407
0.000105042
0.000105072
4.86361e-05
7.78302e-05
0.000128501
4.86344e-05
0.000105091
0.000128436
0.000105074
4.86271e-05
7.78258e-05
0.000128481
4.86198e-05
0.000105094
0.000128417
8.14404e-05
2.1699e-05
2.16957e-05
2.1701e-05
2.16977e-05
8.14344e-05
2.38868e-05
2.38866e-05
2.38855e-05
2.38853e-05
8.14611e-05
2.17028e-05
2.16995e-05
8.14549e-05
2.17048e-05
2.17015e-05
0.000105136
0.000128642
7.78618e-05
4.86445e-05
4.86447e-05
0.00012858
0.000105155
0.000105137
0.000128622
7.78571e-05
4.86367e-05
4.86293e-05
0.000128561
0.000105157
0.000105123
4.86398e-05
0.000128509
7.78562e-05
0.000105105
4.86401e-05
0.000128572
0.000105126
4.86248e-05
0.00012849
7.78522e-05
0.000105106
4.86315e-05
0.000128552
8.14649e-05
2.17066e-05
2.17034e-05
2.17046e-05
2.17014e-05
8.14709e-05
3.6695e-05
4.1039e-05
9.43638e-05
9.96853e-05
4.10353e-05
9.43382e-05
3.67017e-05
2.03087e-05
5.07189e-05
7.90031e-05
7.90218e-05
2.03066e-05
2.03085e-05
7.90337e-05
5.07185e-05
7.90154e-05
2.03106e-05
3.66978e-05
9.96863e-05
4.10301e-05
9.43117e-05
4.10355e-05
9.43413e-05
3.66915e-05
3.67016e-05
4.10413e-05
9.43447e-05
9.97464e-05
3.66995e-05
4.10416e-05
9.43772e-05
2.03114e-05
5.07287e-05
7.90308e-05
2.03135e-05
7.90179e-05
2.03116e-05
7.90065e-05
5.07288e-05
2.03095e-05
7.90189e-05
3.6704e-05
9.97404e-05
4.10457e-05
9.44008e-05
3.67045e-05
4.10457e-05
9.43688e-05
3.67055e-05
4.10411e-05
9.43624e-05
9.97475e-05
3.66989e-05
4.10421e-05
9.43879e-05
2.03124e-05
5.07288e-05
7.90569e-05
7.90389e-05
2.03144e-05
2.03125e-05
7.90273e-05
5.07294e-05
2.03105e-05
7.90455e-05
3.67024e-05
9.9745e-05
4.10458e-05
9.44116e-05
4.10455e-05
9.4386e-05
3.67089e-05
8.14441e-05
2.17003e-05
2.17029e-05
2.16983e-05
2.17009e-05
8.14526e-05
0.000105066
0.000128345
7.78216e-05
4.86169e-05
4.86243e-05
0.000128406
0.000105044
0.000105062
0.000128371
7.78166e-05
4.86254e-05
0.000128426
4.86327e-05
0.000105039
0.000105077
4.86291e-05
7.78263e-05
0.000128479
4.86219e-05
0.000128419
0.000105099
0.000105073
4.86376e-05
7.78236e-05
0.0001285
0.000128445
4.86304e-05
0.000105095
8.14422e-05
2.16964e-05
2.1699e-05
2.16984e-05
2.1701e-05
8.14337e-05
2.38817e-05
2.38821e-05
2.38861e-05
2.38859e-05
8.14626e-05
2.17002e-05
2.17027e-05
8.14544e-05
2.17022e-05
2.17048e-05
0.000105139
0.00012862
7.78578e-05
4.86386e-05
0.000128563
4.86312e-05
0.000105162
0.000105136
0.000128641
7.78551e-05
4.86472e-05
4.86397e-05
0.000128588
0.000105158
0.00010513
4.86266e-05
0.000128492
7.78531e-05
0.00012855
0.000105108
4.86335e-05
0.000105126
4.86352e-05
0.000128517
7.78488e-05
0.000105104
4.8642e-05
0.000128571
8.14642e-05
2.17041e-05
2.17066e-05
2.1702e-05
2.17046e-05
8.14724e-05
2.38867e-05
2.38864e-05
3.66965e-05
4.10368e-05
9.4347e-05
9.96831e-05
4.10367e-05
9.43208e-05
3.66954e-05
2.03073e-05
5.071e-05
7.89781e-05
7.8989e-05
2.03052e-05
2.03071e-05
7.90016e-05
5.07135e-05
7.899e-05
2.03092e-05
3.66917e-05
9.96881e-05
4.10322e-05
9.42959e-05
4.10326e-05
9.43227e-05
3.66928e-05
3.67018e-05
9.43578e-05
4.10382e-05
9.97555e-05
3.67024e-05
9.43912e-05
4.10441e-05
2.03127e-05
5.07257e-05
7.9055e-05
2.03147e-05
7.90364e-05
2.03128e-05
7.90247e-05
5.07257e-05
2.03108e-05
7.90434e-05
3.67063e-05
9.97487e-05
9.44151e-05
4.10483e-05
3.67058e-05
9.4382e-05
4.10424e-05
3.6699e-05
4.10407e-05
9.43452e-05
9.97511e-05
3.67e-05
4.10412e-05
9.43713e-05
2.03109e-05
5.07239e-05
7.90241e-05
7.90134e-05
2.0313e-05
2.03111e-05
7.90017e-05
5.07201e-05
2.0309e-05
7.90133e-05
3.67038e-05
9.97451e-05
4.10453e-05
9.43946e-05
4.1045e-05
9.4369e-05
3.6703e-05
3.66997e-05
9.4366e-05
4.1037e-05
9.96873e-05
9.43415e-05
4.1037e-05
3.66987e-05
2.03094e-05
5.07162e-05
7.90044e-05
7.90227e-05
2.03074e-05
2.03093e-05
7.90348e-05
5.07201e-05
7.90165e-05
2.03114e-05
3.66951e-05
9.96873e-05
9.43168e-05
4.10325e-05
9.43419e-05
4.10328e-05
3.66961e-05
3.66961e-05
4.10398e-05
9.43596e-05
9.96808e-05
4.10335e-05
9.43258e-05
3.66979e-05
2.03083e-05
5.07151e-05
7.89839e-05
7.90029e-05
2.03062e-05
2.03081e-05
7.90149e-05
5.07145e-05
7.89962e-05
2.03102e-05
3.66935e-05
9.96873e-05
4.10295e-05
9.43017e-05
4.10354e-05
9.43352e-05
3.66933e-05
3.67024e-05
9.43657e-05
4.1041e-05
9.97488e-05
3.67033e-05
9.43904e-05
4.10414e-05
2.03131e-05
5.07301e-05
7.90579e-05
7.90405e-05
2.03152e-05
2.03133e-05
7.90286e-05
5.07271e-05
2.03112e-05
7.90466e-05
3.67072e-05
9.9748e-05
9.44137e-05
4.10454e-05
9.43895e-05
4.10453e-05
3.67062e-05
3.67028e-05
4.10381e-05
9.43506e-05
9.97487e-05
3.66983e-05
4.10439e-05
9.43839e-05
2.03119e-05
5.07246e-05
7.90381e-05
7.90199e-05
2.0314e-05
2.03121e-05
7.90082e-05
5.07252e-05
2.031e-05
7.90266e-05
3.67012e-05
9.97424e-05
4.10477e-05
9.44078e-05
4.10428e-05
9.43746e-05
3.67073e-05
8.14449e-05
2.16993e-05
2.17027e-05
2.16972e-05
2.17007e-05
8.14516e-05
0.000105058
0.000128337
7.78071e-05
4.86142e-05
4.86217e-05
0.00012839
0.000105034
0.000105057
0.000128363
7.78222e-05
4.86303e-05
0.000128427
4.86301e-05
0.000105037
0.000105067
4.86266e-05
7.78102e-05
0.000128463
4.86192e-05
0.00012841
0.000105091
0.00010507
4.86349e-05
7.78299e-05
0.0001285
0.000128437
4.86349e-05
0.000105089
8.14413e-05
2.16953e-05
2.16988e-05
2.16974e-05
2.17008e-05
8.14345e-05
2.3881e-05
2.38813e-05
2.3884e-05
2.38838e-05
8.14617e-05
2.16991e-05
2.17026e-05
8.14549e-05
2.17011e-05
2.17046e-05
0.00010513
0.000128604
7.78411e-05
4.86361e-05
0.000128553
4.86285e-05
0.000105151
0.000105133
0.000128641
7.78614e-05
4.86448e-05
4.86447e-05
0.00012858
0.000105152
0.000105122
4.8624e-05
0.000128482
7.78385e-05
0.000128534
0.000105099
4.86309e-05
0.000105121
4.86398e-05
0.000128509
7.78545e-05
0.000105102
4.86402e-05
0.000128571
8.14648e-05
2.1703e-05
2.17064e-05
2.1701e-05
2.17044e-05
8.14714e-05
2.38859e-05
2.38856e-05
3.66934e-05
9.43532e-05
4.10399e-05
9.96778e-05
9.4319e-05
4.10333e-05
3.67006e-05
2.03084e-05
5.07147e-05
7.89829e-05
7.9002e-05
2.03063e-05
2.03083e-05
7.9014e-05
5.07141e-05
7.8995e-05
2.03103e-05
3.66968e-05
9.96839e-05
9.42947e-05
4.10294e-05
9.43291e-05
4.10355e-05
3.66895e-05
3.66984e-05
9.43598e-05
4.10403e-05
9.96853e-05
9.43268e-05
4.10339e-05
3.66994e-05
2.03089e-05
5.07153e-05
7.89975e-05
7.90098e-05
2.03068e-05
2.03087e-05
7.90219e-05
5.07147e-05
7.90096e-05
2.03109e-05
3.66952e-05
9.96904e-05
9.43021e-05
4.10299e-05
9.43351e-05
4.10358e-05
3.66954e-05
3.67043e-05
9.43439e-05
4.10379e-05
9.9745e-05
3.66973e-05
9.43776e-05
4.10441e-05
2.03121e-05
5.07243e-05
7.9037e-05
7.90187e-05
2.03141e-05
2.03122e-05
7.90069e-05
5.07249e-05
2.03102e-05
7.90257e-05
3.67009e-05
9.97394e-05
9.4401e-05
4.10486e-05
9.43678e-05
4.10422e-05
3.67076e-05
3.67042e-05
9.43516e-05
4.10384e-05
9.97515e-05
3.67007e-05
9.43839e-05
4.10445e-05
2.03125e-05
5.07268e-05
7.9045e-05
7.9033e-05
2.03147e-05
2.03128e-05
7.90215e-05
5.07251e-05
2.03106e-05
7.90336e-05
3.67038e-05
9.9747e-05
9.44076e-05
4.1049e-05
9.43756e-05
4.10426e-05
3.67088e-05
2.38808e-05
2.3881e-05
2.38803e-05
2.38806e-05
8.14623e-05
2.17028e-05
2.16998e-05
8.14552e-05
2.17048e-05
2.17018e-05
0.00010513
0.000128638
7.78591e-05
4.86472e-05
0.000105153
0.00012858
4.86402e-05
0.000105139
0.000128623
7.78592e-05
4.86348e-05
0.00010516
0.000128562
4.86347e-05
0.000105123
4.86357e-05
0.000128509
7.78545e-05
0.000105099
0.000128568
4.86423e-05
0.00010513
4.86299e-05
0.000128491
7.78521e-05
0.000105107
0.000128553
4.86304e-05
8.1465e-05
2.17066e-05
2.17037e-05
8.14721e-05
2.17046e-05
2.17017e-05
2.38857e-05
2.38854e-05
2.38853e-05
2.3885e-05
2.03159e-05
7.90313e-05
5.0736e-05
2.03138e-05
7.90493e-05
3.67117e-05
9.98071e-05
4.10487e-05
9.43973e-05
3.67044e-05
4.10501e-05
9.44309e-05
5.07332e-05
2.389e-05
2.38895e-05
0.000199188
0.000199189
0.000204062
0.0002
0.000199999
0.000189294
0.000188269
0.000137902
0.000160887
0.000160877
0.000180811
0.000160985
0.000160973
0.000137854
0.000138243
0.000161528
0.00016152
0.000181779
0.000138197
0.000161618
0.000161606
0.000137898
0.000160913
0.000160895
0.00018075
0.000160963
0.000160949
0.000137861
0.000138119
0.000181394
0.000161445
0.00016143
0.00016139
0.000161373
0.000138155
0.000137907
0.000160883
0.00016091
0.000180835
0.000160994
0.00016097
0.000137862
0.000138121
0.000181327
0.000161442
0.000161462
0.000161361
0.00016138
0.000138162
0.000137896
0.000160871
0.000160916
0.000180745
0.000160972
0.000160957
0.000137851
0.00013811
0.000181383
0.000161433
0.000161438
0.000161345
0.00016138
0.000138151
0.000138115
0.00018132
0.000161456
0.000161447
0.000138157
0.000161371
0.000161354
0.00019919
0.000199195
0.000204068
0.000200001
0.000200006
0.000189296
0.000188271
0.000199196
0.000199202
0.000204068
0.000200007
0.000200013
0.000189305
0.000188279
0.000199204
0.000199204
0.000204077
0.000200015
0.000200015
0.000189307
0.000188282
0.000204693
0.000201603
0.000201602
0.000200804
0.000200804
0.000190313
0.000191333
0.000204699
0.000201604
0.000201609
0.000200805
0.00020081
0.000190315
0.000191335
0.000204699
0.00020161
0.000201615
0.000200811
0.000200817
0.000190323
0.000191343
0.000204708
0.000201618
0.000201618
0.00020082
0.000200819
0.000190325
0.000191346
0.00017045
0.000137222
0.000175595
0.00014362
0.000137148
0.000175578
0.000170502
0.000159947
0.000146902
0.000103396
0.000122361
0.000146939
0.000122421
0.000159912
0.000160069
0.000122488
0.000103393
0.000147064
0.000147027
0.000122428
0.000160102
0.000170306
0.000143597
0.000137056
0.000175344
0.000137131
0.00017537
0.00017025
0.000170422
0.00017565
0.000137217
0.000143597
0.000175526
0.00013712
0.00017053
0.000159983
0.000146877
0.000103396
0.000122345
0.00014695
0.000122415
0.000159874
0.00016003
0.000122482
0.000103392
0.000147076
0.000147002
0.000122412
0.000160148
0.000170321
0.000143595
0.000175304
0.000137029
0.000175416
0.000137125
0.000170224
0.000137943
0.000180855
0.000161145
0.00016113
0.000161061
0.000161048
0.000137989
0.000137949
0.000180911
0.000161131
0.000161108
0.000137986
0.000161077
0.000161056
0.000138071
0.000181233
0.000161227
0.000161217
0.000138035
0.000161282
0.000161273
0.000170358
0.000137216
0.00017565
0.000143601
0.000137119
0.000175509
0.000170544
0.000159979
0.000146874
0.000103396
0.000122343
0.00012241
0.00014695
0.000159846
0.000160003
0.000122476
0.000103393
0.000147074
0.000122409
0.000147
0.000160142
0.000170332
0.000143598
0.000137027
0.00017528
0.000137124
0.000175422
0.000170162
0.000170417
0.000137214
0.00017565
0.000143604
0.000137139
0.000175512
0.000170522
0.000159938
0.000146878
0.000103394
0.00012235
0.000122412
0.000146916
0.000159864
0.000160037
0.000122479
0.000103391
0.000147042
0.000122418
0.000160095
0.000147004
0.000170316
0.0001436
0.000137044
0.000175283
0.000137123
0.000175423
0.000170209
0.000170747
0.000137212
0.000175721
0.000143811
0.000170562
0.000137307
0.000175861
0.0001603
0.000147316
0.000103473
0.000122606
0.000147241
0.00012254
0.000160467
0.000160308
0.000122476
0.000147121
0.000103477
0.000147192
0.000160157
0.000122542
0.000170752
0.000143813
0.000137397
0.000176077
0.000137302
0.000175939
0.000170936
0.000170714
0.000137231
0.000175725
0.000143812
0.000170618
0.000137306
0.000175862
0.000160371
0.000147291
0.000103472
0.000122609
0.00012255
0.000147251
0.0001604
0.000160245
0.000122484
0.000147126
0.000103474
0.000160207
0.000122545
0.000147164
0.000170818
0.000143817
0.000137395
0.000176077
0.000137321
0.000175943
0.000170902
0.000137951
0.000180851
0.000161132
0.00016115
0.000161066
0.000161046
0.000137994
0.000138078
0.000181304
0.000161201
0.00016122
0.000161285
0.000138036
0.000161305
0.000170417
0.000137223
0.000175649
0.000143601
0.000137125
0.000175525
0.000170524
0.000159973
0.000146861
0.000103389
0.000122344
0.000122414
0.000146937
0.000159864
0.000160021
0.000122481
0.000103384
0.000147061
0.000122412
0.000146988
0.000160138
0.000170316
0.0001436
0.000137033
0.000175306
0.000137131
0.000175418
0.000170215
0.000170415
0.000175647
0.000137209
0.000143598
0.000175526
0.000137112
0.00017051
0.000159929
0.000146852
0.000103375
0.000122328
0.000122397
0.000146917
0.000159866
0.000160016
0.000122464
0.000103372
0.000147043
0.000122396
0.000160115
0.00014697
0.000170305
0.000143595
0.000175303
0.000137017
0.00017541
0.000137116
0.000170215
0.000170736
0.000137219
0.000175734
0.000143815
0.000170611
0.000137315
0.000175866
0.00016032
0.000147303
0.000103464
0.000122611
0.000147231
0.000122543
0.000160466
0.000160303
0.000122478
0.000147109
0.000103469
0.00014718
0.000160175
0.000122546
0.000170791
0.000143816
0.000137405
0.000176081
0.00013731
0.000175947
0.000170942
0.000170721
0.000175734
0.000137206
0.00014381
0.000170611
0.000175863
0.000137301
0.000160315
0.000147286
0.000103452
0.000122594
0.000122527
0.000147215
0.000160446
0.000160282
0.000122462
0.000147092
0.000103455
0.000160168
0.000122529
0.000147163
0.000170793
0.000143812
0.000176078
0.000137391
0.000175945
0.000137297
0.000170931
0.000170364
0.00017565
0.000137222
0.000143605
0.000175515
0.000137124
0.000170551
0.000159984
0.000146875
0.000103395
0.000122346
0.000146951
0.000122415
0.000159851
0.000160007
0.000122481
0.000103391
0.000147075
0.000147001
0.000122412
0.000160147
0.000170335
0.000143602
0.000175287
0.000137033
0.000175422
0.00013713
0.000170164
0.000170706
0.00013724
0.000175793
0.00014381
0.000170649
0.000137314
0.000175811
0.000160384
0.000147315
0.000103473
0.000122616
0.000160412
0.000147272
0.000122558
0.000160252
0.000122494
0.000147148
0.000103477
0.000160228
0.000147187
0.000122553
0.000170845
0.000143831
0.000137402
0.000176019
0.000170901
0.00013733
0.000176007
0.000170753
0.000175728
0.000137217
0.000143815
0.000170566
0.000175863
0.000137313
0.000160303
0.000147317
0.000103471
0.000122611
0.000122544
0.000147243
0.000160473
0.000160313
0.000122479
0.000147122
0.000103476
0.00016016
0.000122546
0.000147194
0.000170757
0.000143818
0.000176079
0.000137402
0.000175945
0.000137308
0.000170944
0.000137939
0.000180904
0.000161122
0.000161126
0.000161066
0.000161029
0.000137983
0.000138068
0.000181227
0.000161188
0.000161224
0.000161276
0.000138025
0.000161285
0.000170427
0.000175652
0.00013722
0.000143602
0.000175532
0.000137123
0.00017052
0.000159936
0.000146881
0.000103393
0.000122345
0.000146932
0.000122412
0.000159889
0.000160037
0.000122478
0.000103389
0.000147061
0.000146991
0.00012241
0.000160124
0.000170315
0.000143599
0.00017531
0.000137029
0.000175416
0.000137127
0.000170227
0.000170744
0.000175735
0.000137214
0.000143809
0.000170609
0.000175865
0.000137309
0.000160322
0.000147319
0.000103472
0.000122611
0.000160475
0.000147244
0.000122543
0.000160314
0.000122479
0.000147123
0.000103477
0.000160181
0.000147195
0.000122547
0.000170781
0.000143811
0.000176081
0.000137398
0.000170943
0.000175946
0.000137304
0.00017073
0.00017574
0.000137217
0.000143813
0.000170623
0.000175868
0.000137311
0.000160335
0.000147304
0.00010347
0.000122607
0.000122543
0.000147233
0.000160461
0.000160298
0.000122477
0.000147112
0.000103473
0.000160189
0.000122543
0.000147182
0.000170808
0.000143816
0.000176083
0.000137401
0.000175951
0.000137308
0.000170939
0.000138074
0.000181295
0.000161214
0.000161193
0.000138029
0.000161298
0.000161287
0.000160635
0.000147362
0.000122607
0.000103552
0.000147434
0.000160454
0.000122673
0.000171145
0.00014402
0.000176163
0.000137396
0.000176298
0.000170955
0.000137491
0.000147352
0.00010355
0.000147422
0.00012305
0.000139425
0.00013943
0.000137178
0.000125847
0.00014255
0.000142555
0.000139607
0.000128804
0.000145637
0.000145642
0.000141974
0.000131899
0.00014868
0.000148686
0.000144294
0.000135112
0.000151675
0.000151681
0.000146541
0.000138422
0.000154614
0.000154619
0.000148755
0.00014181
0.000157493
0.000157498
0.000150903
0.000145258
0.000160309
0.000160314
0.000153027
0.000148748
0.000163062
0.000163065
0.000155072
0.000152266
0.000165749
0.000165751
0.0001571
0.000155798
0.000168368
0.000168368
0.000159016
0.00015933
0.000170917
0.000170917
0.000160885
0.00016285
0.000173396
0.000173396
0.000162713
0.000166344
0.000175803
0.000175803
0.000164401
0.000169804
0.000178137
0.000178136
0.000166079
0.000173221
0.000180397
0.000180396
0.000167716
0.000176586
0.000182581
0.000182579
0.000169311
0.00017989
0.000184689
0.000184686
0.000170809
0.000183128
0.000186721
0.000186716
0.000172242
0.000186292
0.000188674
0.000188668
0.000173615
0.000189375
0.000190549
0.000190543
0.000174927
0.000192373
0.000192346
0.000192339
0.000176176
0.000195281
0.000194064
0.000194057