/*--------------------------------*- C++ -*----------------------------------*\
| =========                 |                                                 |
| \\      /  F ield         | OpenFOAM: The Open Source CFD Toolbox           |
|  \\    /   O peration     | Version:  v1906                                 |
|   \\  /    A nd           | Web:      www.OpenFOAM.com                      |
|    \\/     M anipulation  |                                                 |
\*---------------------------------------------------------------------------*/
FoamFile
{
    version     2.0;
    format      ascii;
    class       volScalarField;
    location    "450";
    object      p;
}
// * * * * * * * * * * * * * * * * * * * * * * * * * * * * * * * * * * * * * //

dimensions      [0 2 -2 0 0 0 0];


internalField   nonuniform List<scalar> 
171728
(
0.0016729
0.00167455
0.00167455
0.00167291
0.00167455
0.00167455
0.00167455
0.00167455
0.00167291
0.00167455
0.00167455
0.00167291
0.00167463
0.00167463
0.00167463
0.00167463
0.00167221
0.00167221
0.00167222
0.00167222
0.00168554
0.00167221
0.00167224
0.00168554
0.00167221
0.00168554
0.00167224
0.00168548
0.00167228
0.0016746
0.00168357
0.00167238
0.00168548
0.00168352
0.00167228
0.0016746
0.0016855
0.00168357
0.00167238
0.00167221
0.00168554
0.0016851
0.00167222
0.00167222
0.00168555
0.00168555
0.00167221
0.00168554
0.00167221
0.00167224
0.00167228
0.0016746
0.00167238
0.00167221
0.00167224
0.0016746
0.00167228
0.00167238
0.00168548
0.00168352
0.00167228
0.0016746
0.0016855
0.00168357
0.00167238
0.00168554
0.00167221
0.00168554
0.00167224
0.00168548
0.00168352
0.0016746
0.00167228
0.00168357
0.0016855
0.00167238
0.00168554
0.00167221
0.00168554
0.00167224
0.00167221
0.00167222
0.00167222
0.00167221
0.00168548
0.0016746
0.00167228
0.00168357
0.00167238
0.00168548
0.00168352
0.0016746
0.00167228
0.00168357
0.0016855
0.00167238
0.00168554
0.00167221
0.00167224
0.00168554
0.00167221
0.00168554
0.00167224
0.0016851
0.00167222
0.00167222
0.00168555
0.00168555
0.00167221
0.00168554
0.00167221
0.00168554
0.00167657
0.00167657
0.00167656
0.0016723
0.00167658
0.00167222
0.00167657
0.00167654
0.00167225
0.00167656
0.00167231
0.00167658
0.00167222
0.00167657
0.00167654
0.00167226
0.00167659
0.0016722
0.0016722
0.00167658
0.00167658
0.0016722
0.00168117
0.00168555
0.00168554
0.0016812
0.00168555
0.00168117
0.0016812
0.00167658
0.00167657
0.00167221
0.00167658
0.00167221
0.00167658
0.00167657
0.00167221
0.00167223
0.00167658
0.00167657
0.00167221
0.00168117
0.00168555
0.00168554
0.0016812
0.00168555
0.00168117
0.0016812
0.00167658
0.00167657
0.00167221
0.00167658
0.00167221
0.00168117
0.00168555
0.00168118
0.00168555
0.00168118
0.00167658
0.00167657
0.00167221
0.00167223
0.00167658
0.00167657
0.00167221
0.00167657
0.00168118
0.00168117
0.00168555
0.00168555
0.00168556
0.00168117
0.00168117
0.00167656
0.00167231
0.00167658
0.00167222
0.00167654
0.00167657
0.00167226
0.00167656
0.00167231
0.00167658
0.00167222
0.00167657
0.00167654
0.00167226
0.00168122
0.00168554
0.00168551
0.00168119
0.00168128
0.00168553
0.00168119
0.00168122
0.00168554
0.00168551
0.00168119
0.00168553
0.00168119
0.00168128
0.00167659
0.0016722
0.0016722
0.00167658
0.00167658
0.0016722
0.00167657
0.00168118
0.00167658
0.00167657
0.00167221
0.00167658
0.00167221
0.00167658
0.00167657
0.00167223
0.00167221
0.00167657
0.00167658
0.0016722
0.00167658
0.00167657
0.00167221
0.00167658
0.00167221
0.00167658
0.00167657
0.00167221
0.00167223
0.00167658
0.00167657
0.0016722
0.00168117
0.00168554
0.00168555
0.0016812
0.00168555
0.0016812
0.00168117
0.00167658
0.00167657
0.00167221
0.00167658
0.00167221
0.00168117
0.00168555
0.00168118
0.00168555
0.00168118
0.00167658
0.00167657
0.00167223
0.00167221
0.00167657
0.00167658
0.0016722
0.00168117
0.00168555
0.00168554
0.0016812
0.00168555
0.00168117
0.0016812
0.00167658
0.00167657
0.00167221
0.00167658
0.00167221
0.00168117
0.00168555
0.00168118
0.00168555
0.00168118
0.00167658
0.00167657
0.00167221
0.00167223
0.00167658
0.00167657
0.0016722
0.00167657
0.00167656
0.00167231
0.00167658
0.00167222
0.00167654
0.00167657
0.00167226
0.00167656
0.00167231
0.00167658
0.00167222
0.00167657
0.00167654
0.00167226
0.00167659
0.0016722
0.0016722
0.00167658
0.00167658
0.0016722
0.00167657
0.00168117
0.00168554
0.00168555
0.0016812
0.00168555
0.0016812
0.00168117
0.00167658
0.00167657
0.00167221
0.00167658
0.00167221
0.00168117
0.00168118
0.00167658
0.00167657
0.00167223
0.00167221
0.00167657
0.00167658
0.0016722
0.00168117
0.00168554
0.00168555
0.0016812
0.00168555
0.0016812
0.00168117
0.00167658
0.00167657
0.00167221
0.00167658
0.00167221
0.00168117
0.00168555
0.00168118
0.00168555
0.00168118
0.00167658
0.00167657
0.00167223
0.00167221
0.00167657
0.00167658
0.00167221
0.00168117
0.00168555
0.00168555
0.00168556
0.00168117
0.00168117
0.00167656
0.00167231
0.00167658
0.00167222
0.00167654
0.00167657
0.00167226
0.00167656
0.00167231
0.00167658
0.00167222
0.00167654
0.00167657
0.00167226
0.00168122
0.00168554
0.00168551
0.00168119
0.00168553
0.00168128
0.00168119
0.00168122
0.00168554
0.00168551
0.00168119
0.00168553
0.00168128
0.00168119
0.00167659
0.0016722
0.0016722
0.00167658
0.00167658
0.0016722
0.00167657
0.00168118
0.00167657
0.00168118
0.00167647
0.00167613
0.00167258
0.00167261
0.00167633
0.00167634
0.00167241
0.00167647
0.00167613
0.0016726
0.0016726
0.00167633
0.00167633
0.00167241
0.00167647
0.00167613
0.0016726
0.0016726
0.00167633
0.00167633
0.00167241
0.00167647
0.00167613
0.0016726
0.0016726
0.00167633
0.00167633
0.00167241
0.00167465
0.00167465
0.00168361
0.00168361
0.00167464
0.0016836
0.00167465
0.00167465
0.00168361
0.00168361
0.00168361
0.00167464
0.00167465
0.00167465
0.00168361
0.00168361
0.00167464
0.0016836
0.00167465
0.00167465
0.00168361
0.00168361
0.00168361
0.00167464
0.00168159
0.00168548
0.0016853
0.00168135
0.00168528
0.00168133
0.0016816
0.00167634
0.00167244
0.00167653
0.00167233
0.0016764
0.00167652
0.00167258
0.00167631
0.00167651
0.00167236
0.00167263
0.00167651
0.00167633
0.00167262
0.00168159
0.00168548
0.0016853
0.00168135
0.00168528
0.00168133
0.0016816
0.00167634
0.00167245
0.00167653
0.00167233
0.00167652
0.0016764
0.00167258
0.00168155
0.00168549
0.00168537
0.00168125
0.00168531
0.0016813
0.00168142
0.00167631
0.00167651
0.00167236
0.00167263
0.00167651
0.00167633
0.00167262
0.00168138
0.00168188
0.0016853
0.0016853
0.00168157
0.00168544
0.00168157
0.00167634
0.00167246
0.00167653
0.00167233
0.00167641
0.00167652
0.00167258
0.00167631
0.00167652
0.00167236
0.00167263
0.00167651
0.00167633
0.00167262
0.00167634
0.00167245
0.00167653
0.00167233
0.00167652
0.0016764
0.00167258
0.00167631
0.00167651
0.00167263
0.00167236
0.00167633
0.00167651
0.00167262
0.00168159
0.00168548
0.0016853
0.00168135
0.00168528
0.00168133
0.0016816
0.00167634
0.00167245
0.00167653
0.00167233
0.0016764
0.00167652
0.00167258
0.00168155
0.00168549
0.00168537
0.00168125
0.00168531
0.00168142
0.0016813
0.00167631
0.00167651
0.00167236
0.00167263
0.00167651
0.00167633
0.00167262
0.00168159
0.0016853
0.00168548
0.00168135
0.00168528
0.0016816
0.00168133
0.00167634
0.00167245
0.00167653
0.00167233
0.00167652
0.0016764
0.00167258
0.00168155
0.00168549
0.00168537
0.00168125
0.00168532
0.0016813
0.00168142
0.00167631
0.00167651
0.00167263
0.00167236
0.00167633
0.00167651
0.00167262
0.00168159
0.0016853
0.00168548
0.00168135
0.00168528
0.0016816
0.00168133
0.00167634
0.00167245
0.00167653
0.00167233
0.0016764
0.00167652
0.00167258
0.00168155
0.0016813
0.00167631
0.00167651
0.00167263
0.00167236
0.00167633
0.00167651
0.00167262
0.00168159
0.0016853
0.00168548
0.00168135
0.00168528
0.0016816
0.00168133
0.00167634
0.00167245
0.00167653
0.00167233
0.00167652
0.0016764
0.00167258
0.00168155
0.00168549
0.00168537
0.00168125
0.00168531
0.0016813
0.00168142
0.00167631
0.00167651
0.00167263
0.00167236
0.00167633
0.00167651
0.00167262
0.00168138
0.00168187
0.0016853
0.0016853
0.00168544
0.00168157
0.00168157
0.000781255
0.000781197
0.000781197
0.000782768
0.000747462
0.000782768
0.000753107
0.000781197
0.000781197
0.000754718
0.000754718
0.000782768
0.000753107
0.000781197
0.000781197
0.000754718
0.000754718
0.000781197
0.000754718
0.000754718
0.000782768
0.000753107
0.000781197
0.000754718
0.000754718
0.000753107
0.000745889
0.000745889
0.000770207
0.00078333
0.000770208
0.000783317
0.000783337
0.000770207
0.000770207
0.000783329
0.000770208
0.000783318
0.000781255
0.000781255
0.000781255
0.000754773
0.000754773
0.000754773
0.000754773
0.00077029
0.000783282
0.000781219
0.000772372
0.000770245
0.000772393
0.000783235
0.000783337
0.000770207
0.00077029
0.000781219
0.000783283
0.000772372
0.000772394
0.000770244
0.000783235
0.000783329
0.000783329
0.000770761
0.000770202
0.000770202
0.000748026
0.000748027
0.000783337
0.000770207
0.000783337
0.000770207
0.000783329
0.000783329
0.000770761
0.000770202
0.000770202
0.000752555
0.000765688
0.000752555
0.000765688
0.000765118
0.000752549
0.000752549
0.000765681
0.000765681
0.000770207
0.00078333
0.000770208
0.000783317
0.00077029
0.000783283
0.000781219
0.000772372
0.000770244
0.000772393
0.000783235
0.000770291
0.000783282
0.000781219
0.000772372
0.000770244
0.000772394
0.000783235
0.000765669
0.000752556
0.000765681
0.000752554
0.000765669
0.000752556
0.000765681
0.000752554
0.000765586
0.000763546
0.000752591
0.000754739
0.000765634
0.000763567
0.000752637
0.000765586
0.000763546
0.000752592
0.000754739
0.000765634
0.000763567
0.000752637
0.000783329
0.000783329
0.000770761
0.000770202
0.000770203
0.000783337
0.000770207
0.000752555
0.000765688
0.000765118
0.000752549
0.00075255
0.00076568
0.00076568
0.000752554
0.000765688
0.00077029
0.000783282
0.000781219
0.000772372
0.000770245
0.000772394
0.000783235
0.000770207
0.000783329
0.000770208
0.000783318
0.00077029
0.000781219
0.000783282
0.000772372
0.000772394
0.000770245
0.000783235
0.000765669
0.000752556
0.000765681
0.000752554
0.000765586
0.000763546
0.000752591
0.000754739
0.000765634
0.000763567
0.000752637
0.000765669
0.000752556
0.000765681
0.000752554
0.000765586
0.000763546
0.000754739
0.000752592
0.000763567
0.000765633
0.000752637
0.000770207
0.00078333
0.000770209
0.000783318
0.00077029
0.000781219
0.000783283
0.000772372
0.000772394
0.000770244
0.000783235
0.000770207
0.00078333
0.000770208
0.000783318
0.000765586
0.000763546
0.000752592
0.000754739
0.000765634
0.000763567
0.000752637
0.000765669
0.000752556
0.000765681
0.000752554
0.000765586
0.000763546
0.000754739
0.000752591
0.000763567
0.000765634
0.000752637
0.000765669
0.000752556
0.000765681
0.000752554
0.000783329
0.000783329
0.000770761
0.000770202
0.000770202
0.000783337
0.000770207
0.000752554
0.000765688
0.000765118
0.00075255
0.000752549
0.00076568
0.000765681
0.000752555
0.000765688
0.00077029
0.000781219
0.000783283
0.000772372
0.000772394
0.000770244
0.000783235
0.000770207
0.00078333
0.000770208
0.000783317
0.000770207
0.00078333
0.000770208
0.000783318
0.000765586
0.000763546
0.000754739
0.000752591
0.000763567
0.000765634
0.000752637
0.000765586
0.000763546
0.000754739
0.000752591
0.000763567
0.000765634
0.000752637
0.000765669
0.000752556
0.000765681
0.000752554
0.000765669
0.000752556
0.000765681
0.000752554
0.000783337
0.000770207
0.000783337
0.000770207
0.000765118
0.000752549
0.000752549
0.000765681
0.000765681
0.000752555
0.000765688
0.000752555
0.000765688
0.00074591
0.000747979
0.000747931
0.000748027
0.000748015
0.00074798
0.000748027
0.000748034
0.000748034
0.000774516
0.0007702
0.000770205
0.000774494
0.000774514
0.000774497
0.000770201
0.000779029
0.000779033
0.000783333
0.00077902
0.000783341
0.000774518
0.000770196
0.000774506
0.00077451
0.000770204
0.000779025
0.000779031
0.000783337
0.00078332
0.000779025
0.00077903
0.000783339
0.000779032
0.000774513
0.000774516
0.000770205
0.0007702
0.000774494
0.000774497
0.000774514
0.0007702
0.000779029
0.000779033
0.000783334
0.00077902
0.000783341
0.000774518
0.000770196
0.000774506
0.00077451
0.000770204
0.000779024
0.000779031
0.000783321
0.000783337
0.000779029
0.000779024
0.000783339
0.000779032
0.000774513
0.00077452
0.000770203
0.000770203
0.000774523
0.000774523
0.000770194
0.00077905
0.000783273
0.000779026
0.000783333
0.00077908
0.000779034
0.000783306
0.00077905
0.000783273
0.000779026
0.000783333
0.00077908
0.000779034
0.000783306
0.000774482
0.00077021
0.000774506
0.000770256
0.000774449
0.000774509
0.000770225
0.000774482
0.00077021
0.000774506
0.000770256
0.00077445
0.000774509
0.000770225
0.000779018
0.000783347
0.000783347
0.000779027
0.000779027
0.000783343
0.000743744
0.00074797
0.00074803
0.000743721
0.000748003
0.000743774
0.000743729
0.000743744
0.00074797
0.00074803
0.000743721
0.000748003
0.000743774
0.000743729
0.000743712
0.000748044
0.000748044
0.000748041
0.000743722
0.000743722
0.000779031
0.000774513
0.000779031
0.000774513
0.00077452
0.000770203
0.000770203
0.000774523
0.000774523
0.000770194
0.00077905
0.000783273
0.000779026
0.000783333
0.000779034
0.00077908
0.000783306
0.00077905
0.000783273
0.000779026
0.000783333
0.000779034
0.00077908
0.000783306
0.000774482
0.00077021
0.000774506
0.000770256
0.000774509
0.000770225
0.00077445
0.000774482
0.00077021
0.000774506
0.000770256
0.000774509
0.000770225
0.000774449
0.000779018
0.000783347
0.000783347
0.000779027
0.000779027
0.000783343
0.000756862
0.000761382
0.000756862
0.000761382
0.000761368
0.000765698
0.000765698
0.000765695
0.000761377
0.000761377
0.000756831
0.000752602
0.000756854
0.000752557
0.000756858
0.000756798
0.000752572
0.000756831
0.000752603
0.000756854
0.000752557
0.000756858
0.000756798
0.000752572
0.0007614
0.000765684
0.000765624
0.000761376
0.000765657
0.000761384
0.00076143
0.0007614
0.000765684
0.000765624
0.000761376
0.000765657
0.000761384
0.00076143
0.000756868
0.00075255
0.00075255
0.000756872
0.000756872
0.000752541
0.000774516
0.0007702
0.000770205
0.000774494
0.000774514
0.000774497
0.0007702
0.000779029
0.000779033
0.000783334
0.00077902
0.000783341
0.000774518
0.000770196
0.000774506
0.00077451
0.000770204
0.000779025
0.000779031
0.000783337
0.000783321
0.000779025
0.000779029
0.00078334
0.000761375
0.000765689
0.000765672
0.000761381
0.000765691
0.000761375
0.00076138
0.000756866
0.000756855
0.000752543
0.000752552
0.000756859
0.000761379
0.000765685
0.000761383
0.000765693
0.00076137
0.000756865
0.000756842
0.000752548
0.000752553
0.000752548
0.000756863
0.000756846
0.000761375
0.000765689
0.000765672
0.000761381
0.000765691
0.000761375
0.000761379
0.000756866
0.000756855
0.000752543
0.000756859
0.000752552
0.000761379
0.000765685
0.000761383
0.000765693
0.00076137
0.000756865
0.000756843
0.000752548
0.000752552
0.000756863
0.000756846
0.000752548
0.00077452
0.000770203
0.000770203
0.000774523
0.000774523
0.000770194
0.00077905
0.000783273
0.000779026
0.000783333
0.000779034
0.000779081
0.000783306
0.00077905
0.000783273
0.000779027
0.000783333
0.000779081
0.000779034
0.000783306
0.000774482
0.00077021
0.000774505
0.000770256
0.000774509
0.000774449
0.000770226
0.000774482
0.00077021
0.000774505
0.000770256
0.000774449
0.000774509
0.000770226
0.000779018
0.000783347
0.000783347
0.000779027
0.000779027
0.000783344
0.000779032
0.000774513
0.000756862
0.000761382
0.000761368
0.000765698
0.000765698
0.000765695
0.000761377
0.000761377
0.000756831
0.000752603
0.000756854
0.000752557
0.000756797
0.000756858
0.000752573
0.000756831
0.000752603
0.000756854
0.000752557
0.000756858
0.000756798
0.000752573
0.0007614
0.000765684
0.000765624
0.000761376
0.00076143
0.000765657
0.000761384
0.0007614
0.000765684
0.000765624
0.000761377
0.000765657
0.000761384
0.00076143
0.000756869
0.00075255
0.00075255
0.000756872
0.000756872
0.000752541
0.000756862
0.000761382
0.000774516
0.0007702
0.000770205
0.000774494
0.000774514
0.000774497
0.0007702
0.000779029
0.000779033
0.000783333
0.00077902
0.000783341
0.000774518
0.000770196
0.000774506
0.00077451
0.000770204
0.000779025
0.000779031
0.000783338
0.00078332
0.000779024
0.00077903
0.000783339
0.000761375
0.000765672
0.000765689
0.000761381
0.000765691
0.000761379
0.000761375
0.000756866
0.000756855
0.000752543
0.000752552
0.000756859
0.000761379
0.000765685
0.000761383
0.000765693
0.00076137
0.000756865
0.000756843
0.000752552
0.000752548
0.000752547
0.000756846
0.000756863
0.000761375
0.000765689
0.000765672
0.000761381
0.000765691
0.000761374
0.00076138
0.000756866
0.000756854
0.000752543
0.000756858
0.000752552
0.000761379
0.000765685
0.000761383
0.000765693
0.00076137
0.000756865
0.000756843
0.000752548
0.000752553
0.000756863
0.000756845
0.000752548
0.000774516
0.000770205
0.0007702
0.000774494
0.000774497
0.000774514
0.0007702
0.000779029
0.000779033
0.000783334
0.00077902
0.000783341
0.000774518
0.000770196
0.000774506
0.00077451
0.000770204
0.000779025
0.000779031
0.000783321
0.000783338
0.00077903
0.000779025
0.00078334
0.000774516
0.0007702
0.000770205
0.000774494
0.000774514
0.000774497
0.0007702
0.000779029
0.000779033
0.000783334
0.00077902
0.000783341
0.000774518
0.000770196
0.000774506
0.00077451
0.000770204
0.000779025
0.000779031
0.000783338
0.000783321
0.000779025
0.00077903
0.00078334
0.000761375
0.000765672
0.000765689
0.000761381
0.000765691
0.00076138
0.000761375
0.000756866
0.000756855
0.000752543
0.000756859
0.000752552
0.000761379
0.000765685
0.000761383
0.000765693
0.00076137
0.000756865
0.000756843
0.000752552
0.000752548
0.000756846
0.000756863
0.000752548
0.000761375
0.000765689
0.000765672
0.000761381
0.000765691
0.000761375
0.000761379
0.000756866
0.000756855
0.000752543
0.000756859
0.000752552
0.000761379
0.000765685
0.000761383
0.000765693
0.00076137
0.000756865
0.000756843
0.000752548
0.000752552
0.000756863
0.000756846
0.000752548
0.00077452
0.000770203
0.000770203
0.000774523
0.000774523
0.000770194
0.00077905
0.000783273
0.000779027
0.000783332
0.000779034
0.000779081
0.000783306
0.00077905
0.000783273
0.000779026
0.000783333
0.000779081
0.000779034
0.000783306
0.000774482
0.00077021
0.000774505
0.000770256
0.000774509
0.000774449
0.000770226
0.000774482
0.00077021
0.000774506
0.000770256
0.000774449
0.000774509
0.000770226
0.000779018
0.000783347
0.000783347
0.000779027
0.000779027
0.000783343
0.000779032
0.000774513
0.000756862
0.000761382
0.000761368
0.000765698
0.000765698
0.000765695
0.000761377
0.000761377
0.000756831
0.000752603
0.000756854
0.000752557
0.000756797
0.000756857
0.000752573
0.000756831
0.000752603
0.000756854
0.000752557
0.000756858
0.000756798
0.000752573
0.0007614
0.000765684
0.000765624
0.000761377
0.00076143
0.000765657
0.000761384
0.0007614
0.000765684
0.000765624
0.000761376
0.000765657
0.000761384
0.00076143
0.000756868
0.00075255
0.00075255
0.000756872
0.000756872
0.000752541
0.000756862
0.000761382
0.000774516
0.000770205
0.000770201
0.000774494
0.000774497
0.000774514
0.0007702
0.000779029
0.000779033
0.000783334
0.00077902
0.000783341
0.000774518
0.000770196
0.000774506
0.00077451
0.000770204
0.000779025
0.000779032
0.00078332
0.000783337
0.00077903
0.000779025
0.000783339
0.000774516
0.000770206
0.0007702
0.000774494
0.000774497
0.000774514
0.0007702
0.000779029
0.000779033
0.000783334
0.000779021
0.000783341
0.000774518
0.000770196
0.000774506
0.00077451
0.000770204
0.000779025
0.000779031
0.00078332
0.000783337
0.00077903
0.000779025
0.000783339
0.000761375
0.000765672
0.000765689
0.000761382
0.000765691
0.00076138
0.000761375
0.000756866
0.000756855
0.000752543
0.000756859
0.000752552
0.000761379
0.000765685
0.000761383
0.000765693
0.00076137
0.000756865
0.000756842
0.000752553
0.000752548
0.000756846
0.000756863
0.000752548
0.000761375
0.000765672
0.000765689
0.000761381
0.000765691
0.00076138
0.000761375
0.000756866
0.000756855
0.000752544
0.000756858
0.000752552
0.000761379
0.000765685
0.000761383
0.000765693
0.00076137
0.000756865
0.000756843
0.000752553
0.000752548
0.000756845
0.000756863
0.000752548
0.000779032
0.000774513
0.000779032
0.000774513
0.000761368
0.000765698
0.000765698
0.000765695
0.000761377
0.000761377
0.000756831
0.000752602
0.000756854
0.000752557
0.000752572
0.000756798
0.000756858
0.000756831
0.000752603
0.000756854
0.000752557
0.000752572
0.000756798
0.000756858
0.0007614
0.000765684
0.000765624
0.000761376
0.000765657
0.00076143
0.000761384
0.0007614
0.000765684
0.000765624
0.000761376
0.000765657
0.00076143
0.000761384
0.000756868
0.00075255
0.00075255
0.000752541
0.000756872
0.000756872
0.000756862
0.000761382
0.000756862
0.000761382
0.000743723
0.000748031
0.000743727
0.000748039
0.000743714
0.000743719
0.000743726
0.000748035
0.000748018
0.000748037
0.000743719
0.000743724
0.000743727
0.000743726
0.000743726
0.000781289
0.000781289
0.000772429
0.000772463
0.000772463
0.000772511
0.000781337
0.000779152
0.000783045
0.000783045
0.000779586
0.000779326
0.000779326
0.000783205
0.000743846
0.000747741
0.000747741
0.000744278
0.000747902
0.000744019
0.000744018
0.000779152
0.000783044
0.000783045
0.000779586
0.000779327
0.000779326
0.000783205
0.000756729
0.000756291
0.000752848
0.000752847
0.000756568
0.000756569
0.000752674
0.000779153
0.000783044
0.000783045
0.000779586
0.000779326
0.000779327
0.000783205
0.000756729
0.00075629
0.000752848
0.000752848
0.000756568
0.000756569
0.000752675
0.000779153
0.000783044
0.000783046
0.000779586
0.000779326
0.000779327
0.000783205
0.000756729
0.000756291
0.000752848
0.000752847
0.000756568
0.000756569
0.000752674
0.000756729
0.000756291
0.000752847
0.000752847
0.000752674
0.000756569
0.000756569
0.000781289
0.000781289
0.000772429
0.000772463
0.000772463
0.000772511
0.000781337
0.000781289
0.000781289
0.000772429
0.000772463
0.000772463
0.000772511
0.000781337
0.000781289
0.000781289
0.000772429
0.000772463
0.000772463
0.000772511
0.000781337
0.000763602
0.000754807
0.000754807
0.000763636
0.000763636
0.000763683
0.000754854
0.000763602
0.000754807
0.000754807
0.000763636
0.000763636
0.000763683
0.000754854
0.000763602
0.000754807
0.000754807
0.000763636
0.000763636
0.000763683
0.000754854
0.000763602
0.000754807
0.000754807
0.000763636
0.000763636
0.000763683
0.000754854
0.000774181
0.000770287
0.000770528
0.000774411
0.000774415
0.000774184
0.000770532
0.000779318
0.000783136
0.000779069
0.000783253
0.000779231
0.000779096
0.000783033
0.000774209
0.000770272
0.000774459
0.000770406
0.000774312
0.000774429
0.000770493
0.000779357
0.000779115
0.000783239
0.000783008
0.000779112
0.000779353
0.000783005
0.000774181
0.000770527
0.000770287
0.000774411
0.000774184
0.000774415
0.000770532
0.000779318
0.000783135
0.000779069
0.000783253
0.000779231
0.000779096
0.000783033
0.000774209
0.000770271
0.000774459
0.000770406
0.000774311
0.00077443
0.000770493
0.000779357
0.000779115
0.000783008
0.000783239
0.000779352
0.000779112
0.000783006
0.000774381
0.000773944
0.000770501
0.000770501
0.000774221
0.000774221
0.000770328
0.000774381
0.000773944
0.000770502
0.000770501
0.000770328
0.00077422
0.000774221
0.000761502
0.000761934
0.000765395
0.000765396
0.000765556
0.000761676
0.000761675
0.000774181
0.000770287
0.000770528
0.000774411
0.000774415
0.000774183
0.000770532
0.000779317
0.000783136
0.000779069
0.000783253
0.000779096
0.00077923
0.000783033
0.000774209
0.000770271
0.000774459
0.000770406
0.00077443
0.000774312
0.000770492
0.000779357
0.000779115
0.000783239
0.000783008
0.000779111
0.000779353
0.000783005
0.000774181
0.000770287
0.000770528
0.000774411
0.000774415
0.000774183
0.000770532
0.000779317
0.000783135
0.000779069
0.000783253
0.000779096
0.000779231
0.000783033
0.000774209
0.000770271
0.000774459
0.000770406
0.000774429
0.000770493
0.000774311
0.000779357
0.000779115
0.000783239
0.000783008
0.000779111
0.000779353
0.000783005
0.000761706
0.00076559
0.000765358
0.000761465
0.000765356
0.000761461
0.000761702
0.000756557
0.000752752
0.000756808
0.000752618
0.00075666
0.000756778
0.000752838
0.000761666
0.000765605
0.000765487
0.000761418
0.00076158
0.000765384
0.000761445
0.000756529
0.000756759
0.000752633
0.000752874
0.000756764
0.000756531
0.000752878
0.000761706
0.00076559
0.000765358
0.000761465
0.000765356
0.000761461
0.000761702
0.000756556
0.000752753
0.000756807
0.000752618
0.000756778
0.000756659
0.000752839
0.000761667
0.000765604
0.000765486
0.000761419
0.000765383
0.000761446
0.00076158
0.000756529
0.000756759
0.000752634
0.000752874
0.000756763
0.000756531
0.000752878
0.000774381
0.000773943
0.000770502
0.000770502
0.000774221
0.00077422
0.000770328
0.000761502
0.000761935
0.000765395
0.000765396
0.000761676
0.000765556
0.000761675
0.000774181
0.000770287
0.000770527
0.000774411
0.000774415
0.000774184
0.000770532
0.000779317
0.000783135
0.000779069
0.000783253
0.000779096
0.000779231
0.000783033
0.000774209
0.000770271
0.000774458
0.000770406
0.000774429
0.000774312
0.000770493
0.000779357
0.000779115
0.000783239
0.000783008
0.000779111
0.000779353
0.000783005
0.000774181
0.000770528
0.000770287
0.000774411
0.000774184
0.000774415
0.000770532
0.000779317
0.000783135
0.000779069
0.000783253
0.000779096
0.000779231
0.000783033
0.000774209
0.000770271
0.000774458
0.000770406
0.000774429
0.000770493
0.000774311
0.000779357
0.000779115
0.000783008
0.000783239
0.000779353
0.000779111
0.000783005
0.000761706
0.00076559
0.000765358
0.000761464
0.000765356
0.000761461
0.000761701
0.000756556
0.000752753
0.000756807
0.000752618
0.00075666
0.000756778
0.000752839
0.000761667
0.000765604
0.000765486
0.000761419
0.00076158
0.000765383
0.000761445
0.000756529
0.000756759
0.000752633
0.000752873
0.000756764
0.000756531
0.000752878
0.000761706
0.000765358
0.00076559
0.000761464
0.000765356
0.000761701
0.000761461
0.000756556
0.000752753
0.000756807
0.000752618
0.000756778
0.000756659
0.000752839
0.000761666
0.000765604
0.000765486
0.000761419
0.000765383
0.000761445
0.00076158
0.000756529
0.000756759
0.000752874
0.000752633
0.000756531
0.000756764
0.000752878
0.000774182
0.000770527
0.000770287
0.000774411
0.000774184
0.000774415
0.000770532
0.000779317
0.000783136
0.000779069
0.000783253
0.00077923
0.000779096
0.000783033
0.000774209
0.000770271
0.000774459
0.000770406
0.000774312
0.00077443
0.000770492
0.000779357
0.000779115
0.000783008
0.000783239
0.000779352
0.000779111
0.000783006
0.000761706
0.00076559
0.000765358
0.000761464
0.000765355
0.000761461
0.000761701
0.000756556
0.000752753
0.000756807
0.000752618
0.000752839
0.00075666
0.000756778
0.000761667
0.000765604
0.000765486
0.000761419
0.000765383
0.00076158
0.000761446
0.000756528
0.000756759
0.000752634
0.000752873
0.000752878
0.000756763
0.000756531
0.000761706
0.000765358
0.00076559
0.000761464
0.000765356
0.000761701
0.000761461
0.000756557
0.000752752
0.000756808
0.000752618
0.000756778
0.00075666
0.000752839
0.000761666
0.000765605
0.000765487
0.000761418
0.000765384
0.000761445
0.00076158
0.000756529
0.000756759
0.000752873
0.000752633
0.000756531
0.000756763
0.000752878
0.000774381
0.000773944
0.000770502
0.000770501
0.000774221
0.00077422
0.000770328
0.000761502
0.000761934
0.000765395
0.000765396
0.000761676
0.000765556
0.000761675
0.000774181
0.000770527
0.000770287
0.000774411
0.000774184
0.000774415
0.000770532
0.000779317
0.000783135
0.000779069
0.000783253
0.000779231
0.000779096
0.000783033
0.000774209
0.000770271
0.000774459
0.000770406
0.000774312
0.00077443
0.000770492
0.000779357
0.000779115
0.000783008
0.000783239
0.000779352
0.000779111
0.000783006
0.000761706
0.000765359
0.00076559
0.000761465
0.000765356
0.000761701
0.000761461
0.000756556
0.000752753
0.000756808
0.000752618
0.000752839
0.000756659
0.000756778
0.000761667
0.000765605
0.000765486
0.000761418
0.000765383
0.00076158
0.000761445
0.000756529
0.000756759
0.000752873
0.000752633
0.000752878
0.000756531
0.000756763
0.000761706
0.000765359
0.00076559
0.000761464
0.000765356
0.000761701
0.000761461
0.000756557
0.000752753
0.000756807
0.000752618
0.000756778
0.000756659
0.000752839
0.000761666
0.000765604
0.000765486
0.000761418
0.000765383
0.000761445
0.00076158
0.000756529
0.000756759
0.000752873
0.000752633
0.000756532
0.000756763
0.000752878
0.000761502
0.000761934
0.000765396
0.000765396
0.000765556
0.000761675
0.000761675
0.00074401
0.000747832
0.00074795
0.000743763
0.000743924
0.000747728
0.000743789
0.000744049
0.000743808
0.000747703
0.000747935
0.000744045
0.000747701
0.000743805
0.000747832
0.000743763
0.000743924
0.00166567
0.00166559
0.00166559
0.00166716
0.00162985
0.00162977
0.00162977
0.00163134
0.00159411
0.00159403
0.00159403
0.00159559
0.00155843
0.00155834
0.00155834
0.00155991
0.00152281
0.00152272
0.00152272
0.00152429
0.00148725
0.00148716
0.00148716
0.00148872
0.00145173
0.00145164
0.00145164
0.0014532
0.00141627
0.00141617
0.00141617
0.00141773
0.00138084
0.00138074
0.00138074
0.0013823
0.00134546
0.00134535
0.00134535
0.00134691
0.0013101
0.00131
0.00131
0.00131156
0.00127478
0.00127467
0.00127467
0.00127623
0.00123948
0.00123938
0.00123938
0.00124094
0.0012042
0.0012041
0.0012041
0.00120566
0.00116894
0.00116885
0.00116885
0.0011704
0.00113369
0.00113361
0.00113361
0.00113516
0.00109846
0.00109837
0.00109837
0.00109993
0.00106323
0.00106315
0.00106315
0.00106471
0.00102801
0.00102793
0.00102793
0.00102949
0.000992782
0.000992707
0.000992707
0.000994267
0.000957554
0.000957482
0.000957482
0.000959043
0.00092232
0.00092225
0.00092225
0.000923813
0.000887075
0.000887009
0.000887009
0.000888574
0.000851818
0.000851755
0.000851755
0.000853322
0.000816545
0.000816485
0.000816485
0.000818054
0.00166716
0.00163707
0.00166559
0.00166559
0.00163872
0.00163872
0.00166716
0.00163707
0.00166559
0.00166559
0.00163872
0.00163872
0.00166559
0.00163872
0.00163872
0.00166716
0.00163707
0.00166559
0.00163872
0.00163872
0.00163707
0.00163134
0.00160131
0.00162977
0.00162977
0.00160296
0.00160296
0.00163134
0.00160131
0.00162977
0.00162977
0.00160296
0.00160296
0.00162977
0.00160296
0.00160296
0.00163134
0.00160131
0.00162977
0.00160296
0.00160296
0.00160131
0.00159559
0.00156562
0.00159403
0.00159403
0.00156726
0.00156726
0.00159559
0.00156562
0.00159403
0.00159403
0.00156726
0.00156726
0.00159403
0.00156726
0.00156726
0.00159559