/*--------------------------------*- C++ -*----------------------------------*\
| =========                 |                                                 |
| \\      /  F ield         | OpenFOAM: The Open Source CFD Toolbox           |
|  \\    /   O peration     | Version:  v1906                                 |
|   \\  /    A nd           | Web:      www.OpenFOAM.com                      |
|    \\/     M anipulation  |                                                 |
\*---------------------------------------------------------------------------*/
FoamFile
{
    version     2.0;
    format      ascii;
    class       volScalarField;
    location    "875";
    object      epsilon;
}
// * * * * * * * * * * * * * * * * * * * * * * * * * * * * * * * * * * * * * //

dimensions      [0 2 -3 0 0 0 0];


internalField   nonuniform List<scalar> 
43248
(
1.33748e-07
2.30885e-07
2.30926e-07
3.58378e-07
1.31605e-07
2.41548e-07
2.4159e-07
3.84507e-07
1.30258e-07
2.54305e-07
2.54349e-07
4.13529e-07
1.29696e-07
2.69098e-07
2.69148e-07
4.45029e-07
1.29921e-07
2.85871e-07
2.85925e-07
4.78674e-07
1.3091e-07
3.04527e-07
3.04586e-07
5.14008e-07
1.32666e-07
3.24975e-07
3.25038e-07
5.50618e-07
1.35188e-07
3.47087e-07
3.47156e-07
5.88007e-07
1.38479e-07
3.7073e-07
3.70802e-07
6.25798e-07
1.42541e-07
3.95754e-07
3.95831e-07
6.63579e-07
1.47378e-07
4.22006e-07
4.22088e-07
7.01033e-07
1.52997e-07
4.49318e-07
4.49404e-07
7.37889e-07
1.59403e-07
4.7752e-07
4.7761e-07
7.73928e-07
1.666e-07
5.06437e-07
5.0653e-07
8.09001e-07
1.74591e-07
5.35891e-07
5.35988e-07
8.42955e-07
1.83376e-07
5.65704e-07
5.65804e-07
8.75763e-07
1.92951e-07
5.95707e-07
5.95811e-07
9.07387e-07
2.03307e-07
6.25726e-07
6.25832e-07
9.37808e-07
2.14428e-07
6.55604e-07
6.55713e-07
9.67016e-07
2.2629e-07
6.85189e-07
6.853e-07
9.95023e-07
2.38869e-07
7.14347e-07
7.14462e-07
1.02184e-06
2.52128e-07
7.42955e-07
7.43072e-07
1.04751e-06
2.66026e-07
7.70908e-07
7.71025e-07
1.07205e-06
2.80509e-07
7.98102e-07
7.98219e-07
1.0955e-06
2.9552e-07
8.24461e-07
8.24578e-07
1.11789e-06
3.10994e-07
8.49921e-07
8.50037e-07
1.13926e-06
3.26857e-07
8.74428e-07
8.74541e-07
1.15963e-06
3.52879e-07
2.28622e-07
2.28656e-07
3.52845e-07
2.28595e-07
2.28686e-07
2.28543e-07
2.28619e-07
3.52947e-07
2.28583e-07
2.28586e-07
3.52906e-07
3.58356e-07
3.78388e-07
2.30965e-07
2.31001e-07
2.38772e-07
2.38816e-07
3.58319e-07
3.78351e-07
2.30939e-07
2.31032e-07
2.38744e-07
2.3884e-07
2.30962e-07
2.38689e-07
2.38773e-07
3.58416e-07
3.78415e-07
2.30928e-07
2.38724e-07
2.38736e-07
3.78421e-07
3.8447e-07
4.06789e-07
2.41631e-07
2.41678e-07
2.51015e-07
2.51064e-07
3.84438e-07
4.06729e-07
2.41604e-07
2.41708e-07
2.50986e-07
2.51096e-07
2.41634e-07
2.50923e-07
2.51018e-07
3.84517e-07
4.06834e-07
2.41597e-07
2.50967e-07
2.50979e-07
4.06822e-07
4.13498e-07
4.37722e-07
2.54398e-07
2.54449e-07
2.65305e-07
2.65367e-07
4.13442e-07
4.37693e-07
2.5437e-07
2.54479e-07
2.65272e-07
2.65397e-07
2.54401e-07
2.65212e-07
2.65315e-07
4.13525e-07
4.37789e-07
2.54363e-07
2.65257e-07
2.65277e-07
4.37782e-07
4.44978e-07
4.70931e-07
2.69196e-07
2.69256e-07
2.81605e-07
2.81666e-07
4.44944e-07
4.70864e-07
2.69164e-07
2.6929e-07
2.81568e-07
2.81701e-07
2.69204e-07
2.81497e-07
2.81609e-07
4.45038e-07
4.70976e-07
2.69167e-07
2.81548e-07
2.8157e-07
4.70956e-07
4.78649e-07
5.05848e-07
2.8598e-07
2.86043e-07
2.99807e-07
2.99873e-07
4.78589e-07
5.05786e-07
2.85944e-07
2.86078e-07
2.99763e-07
2.99908e-07
2.85986e-07
2.9969e-07
2.99817e-07
4.78689e-07
5.059e-07
2.85947e-07
2.99744e-07
2.99775e-07
5.05903e-07
5.13961e-07
5.42122e-07
3.04645e-07
3.04712e-07
3.19825e-07
3.19899e-07
5.13903e-07
5.42071e-07
3.04603e-07
3.04751e-07
3.19775e-07
3.19937e-07
3.04655e-07
3.19703e-07
3.19842e-07
5.1401e-07
5.42192e-07
3.04612e-07
3.19762e-07
3.19794e-07
5.42196e-07
5.50551e-07
5.79295e-07
3.25101e-07
3.25172e-07
3.41545e-07
3.41619e-07
5.50498e-07
5.7923e-07
3.25052e-07
3.25213e-07
3.41486e-07
3.4166e-07
3.25118e-07
3.4141e-07
3.4156e-07
5.50608e-07
5.79365e-07
3.2507e-07
3.41475e-07
3.41506e-07
5.79357e-07
5.87948e-07
6.16922e-07
3.47223e-07
3.47295e-07
3.64827e-07
3.64904e-07
5.87889e-07
6.16859e-07
3.47166e-07
3.47341e-07
3.64759e-07
3.64945e-07
3.4724e-07
3.64684e-07
3.64848e-07
5.88012e-07
6.16995e-07
3.47185e-07
3.64751e-07
3.64787e-07
6.17004e-07
6.25728e-07
6.54625e-07
3.70876e-07
3.70946e-07
3.8953e-07
3.89608e-07
6.25665e-07
6.54556e-07
3.7081e-07
3.70996e-07
3.89452e-07
3.89652e-07
3.70897e-07
3.89377e-07
3.89553e-07
6.2579e-07
6.54702e-07
3.70834e-07
3.8945e-07
3.89483e-07
6.54707e-07
6.63503e-07
6.92067e-07
3.9591e-07
3.95977e-07
4.15499e-07
4.15574e-07
6.63438e-07
6.91995e-07
3.95834e-07
3.96032e-07
4.15411e-07
4.15622e-07
3.95934e-07
4.15337e-07
4.15526e-07
6.63569e-07
6.92145e-07
3.95862e-07
4.15413e-07
4.15447e-07
6.92153e-07
7.00954e-07
7.28964e-07
4.2217e-07
4.22243e-07
4.42569e-07
4.42642e-07
7.00889e-07
7.28886e-07
4.22084e-07
4.22295e-07
4.42472e-07
4.42694e-07
4.22198e-07
4.42399e-07
4.42601e-07
7.01025e-07
7.29044e-07
4.22117e-07
4.4248e-07
4.42512e-07
7.29055e-07
7.37806e-07
7.65099e-07
4.4949e-07
4.49562e-07
4.70573e-07
4.70645e-07
7.37731e-07
7.65019e-07
4.49395e-07
4.49615e-07
4.70465e-07
4.70697e-07
4.49522e-07
4.70396e-07
4.70608e-07
7.37874e-07
7.6518e-07
4.49432e-07
4.7048e-07
4.7051e-07
7.65191e-07
7.73846e-07
8.003e-07
4.77699e-07
4.77771e-07
4.99333e-07
4.99403e-07
7.73771e-07
8.00215e-07
4.77594e-07
4.77825e-07
4.99217e-07
4.99458e-07
4.77735e-07
4.99151e-07
4.99373e-07
7.73917e-07
8.0038e-07
4.77635e-07
4.99238e-07
4.99266e-07
8.00394e-07
8.08916e-07
8.34437e-07
5.06621e-07
5.06691e-07
5.28673e-07
5.2874e-07
8.08837e-07
8.3435e-07
5.06508e-07
5.06746e-07
5.28549e-07
5.28797e-07
5.06662e-07
5.28486e-07
5.28718e-07
8.08985e-07
8.34519e-07
5.06554e-07
5.28577e-07
5.28603e-07
8.34533e-07
8.42867e-07
8.6745e-07
5.36079e-07
5.36145e-07
5.58416e-07
5.58481e-07
8.42785e-07
8.67365e-07
5.35958e-07
5.36204e-07
5.58285e-07
5.58539e-07
5.36124e-07
5.58227e-07
5.58466e-07
8.42941e-07
8.6753e-07
5.36008e-07
5.58321e-07
5.58344e-07
8.67547e-07
8.75674e-07
8.99298e-07
5.65895e-07
5.65958e-07
5.88389e-07
5.8845e-07
8.75592e-07
8.99211e-07
5.65769e-07
5.66018e-07
5.88253e-07
5.8851e-07
5.65946e-07
5.88198e-07
5.88445e-07
8.75744e-07
8.99375e-07
5.65824e-07
5.88297e-07
5.88316e-07
8.99393e-07
9.07299e-07
9.29948e-07
5.95899e-07
5.95959e-07
6.18418e-07
6.18476e-07
9.07218e-07
9.29861e-07
5.95768e-07
5.9602e-07
6.1828e-07
6.18537e-07
5.95955e-07
6.18228e-07
6.18481e-07
9.07368e-07
9.30023e-07
5.95827e-07
6.18329e-07
6.18346e-07
9.30045e-07
9.37718e-07
9.59397e-07
6.25918e-07
6.25975e-07
6.48345e-07
6.484e-07
9.37636e-07
9.5931e-07
6.25785e-07
6.26036e-07
6.48204e-07
6.48463e-07
6.2598e-07
6.48156e-07
6.48414e-07
9.37785e-07
9.59469e-07
6.25849e-07
6.48262e-07
6.48275e-07
9.59492e-07
9.66929e-07
9.8765e-07
6.55795e-07
6.55849e-07
6.78012e-07
6.78067e-07
9.66847e-07
9.8756e-07
6.5566e-07
6.5591e-07
6.77873e-07
6.78128e-07
6.55862e-07
6.77827e-07
6.78088e-07
9.66992e-07
9.87711e-07
6.55728e-07
6.77935e-07
6.7795e-07
9.87739e-07
9.94935e-07
1.01471e-06
6.85372e-07
6.85425e-07
7.07285e-07
7.07336e-07
9.94855e-07
1.01463e-06
6.85245e-07
6.85489e-07
7.07152e-07
7.074e-07
6.85451e-07
7.07104e-07
7.07368e-07
9.94995e-07
1.01477e-06
6.85313e-07
7.07217e-07
7.0723e-07
1.0148e-06
1.02176e-06
1.04062e-06
7.14527e-07
7.14578e-07
7.36038e-07
7.36085e-07
1.02168e-06
1.04053e-06
7.14402e-07
7.14643e-07
7.35909e-07
7.3615e-07
7.14612e-07
7.35861e-07
7.36126e-07
1.02181e-06
1.04067e-06
7.14474e-07
7.35976e-07
7.35988e-07
1.0407e-06
1.04742e-06
1.06539e-06
7.43133e-07
7.43178e-07
7.64159e-07
7.64205e-07
1.04734e-06
1.0653e-06
7.43011e-07
7.43244e-07
7.64033e-07
7.64269e-07
7.43222e-07
7.63988e-07
7.64252e-07
1.04747e-06
1.06544e-06
7.43084e-07
7.64105e-07
7.64115e-07
1.06548e-06
1.07196e-06
1.08907e-06
7.71078e-07
7.71123e-07
7.91546e-07
7.91588e-07
1.07188e-06
1.08898e-06
7.70959e-07
7.71188e-07
7.91422e-07
7.91651e-07
7.71172e-07
7.91378e-07
7.91641e-07
1.07201e-06
1.08912e-06
7.71036e-07
7.91495e-07
7.91506e-07
1.08915e-06
1.09542e-06
1.11169e-06
7.98269e-07
7.9831e-07
8.18117e-07
8.18156e-07
1.09533e-06
1.1116e-06
7.98152e-07
7.98374e-07
8.17994e-07
8.18218e-07
7.98365e-07
8.17954e-07
8.18213e-07
1.09546e-06
1.11173e-06
7.9823e-07
8.18071e-07
8.1808e-07
1.11177e-06
1.11781e-06
1.13327e-06
8.24624e-07
8.24661e-07
8.43802e-07
8.43837e-07
1.11773e-06
1.13318e-06
8.24507e-07
8.24724e-07
8.4368e-07
8.43897e-07
8.2472e-07
8.43643e-07
8.43898e-07
1.11785e-06
1.13331e-06
8.24588e-07
8.43758e-07
8.43768e-07
1.13335e-06
1.13918e-06
1.15385e-06
8.5008e-07
8.50114e-07
8.68547e-07
8.68579e-07
1.13909e-06
1.15377e-06
8.49964e-07
8.50174e-07
8.68426e-07
8.68637e-07
8.50176e-07
8.68392e-07
8.68642e-07
1.13921e-06
1.15389e-06
8.50047e-07
8.68506e-07
8.68515e-07
1.15393e-06
1.15955e-06
8.74582e-07
8.74613e-07
1.15946e-06
8.74467e-07
8.74671e-07
8.74678e-07
1.15958e-06
8.74552e-07
1.34413e-07
1.3441e-07
1.3442e-07
1.34414e-07
3.68234e-06
8.91082e-06
3.64881e-06
8.9123e-06
1.84624e-05
1.84542e-05
3.68293e-06
8.91234e-06
3.64865e-06
8.91421e-06
1.33745e-07
1.33754e-07
1.33749e-07
1.32071e-07
1.32067e-07
1.32079e-07
1.32072e-07
1.15861e-06
2.79619e-06
1.58617e-07
2.33359e-07
1.1307e-06
2.8199e-06
1.58832e-07
1.84673e-05
1.84584e-05
1.15866e-06
1.58614e-07
2.79648e-06
2.33395e-07
1.13075e-06
1.58841e-07
2.82017e-06
5.13162e-06
5.13347e-06
3.65322e-07
5.14404e-06
5.14602e-06
3.75848e-06
8.91817e-06
3.73235e-06
8.92469e-06
1.84469e-05
1.84321e-05
3.75906e-06
8.92e-06
3.73214e-06
8.926e-06
1.31601e-07
1.31613e-07
1.31606e-07
1.3053e-07
1.30527e-07
1.30539e-07
1.30532e-07
1.24244e-06
2.86627e-06
1.59987e-07
2.44541e-07
1.21525e-06
2.88704e-06
1.60534e-07
1.84343e-05
1.84304e-05
1.24248e-06
1.59985e-07
2.86633e-06
2.44587e-07
1.21529e-06
1.60544e-07
2.88746e-06
5.16604e-06
5.16793e-06
3.92253e-07
5.17636e-06
5.17833e-06
3.8179e-06
8.92889e-06
3.79797e-06
8.93209e-06
1.84045e-05
1.84082e-05
3.81845e-06
8.93104e-06
3.7978e-06
8.93447e-06
1.30255e-07
1.30267e-07
1.3026e-07
1.29778e-07
1.29775e-07
1.29788e-07
1.29781e-07
1.32313e-06
2.92831e-06
1.62691e-07
2.57815e-07
1.29716e-06
2.94652e-06
1.63577e-07
1.8413e-05
1.84096e-05
1.32315e-06
1.62689e-07
2.92832e-06
2.57856e-07
1.2972e-06
1.63588e-07
2.9468e-06
5.19469e-06
5.1966e-06
4.22005e-07
5.20309e-06
5.20504e-06
3.86336e-06
8.93873e-06
3.84846e-06
8.94252e-06
1.83896e-05
1.83828e-05
3.86391e-06
8.94009e-06
3.8483e-06
8.94403e-06
1.29693e-07
1.29706e-07
1.29699e-07
1.29793e-07
1.29791e-07
1.29805e-07
1.29797e-07
1.39919e-06
2.98286e-06
1.6675e-07
2.73108e-07
1.37488e-06
2.99892e-06
1.67979e-07
1.83925e-05
1.83845e-05
1.39922e-06
1.66748e-07
2.98292e-06
2.73159e-07
1.37491e-06
1.67993e-07
2.99918e-06
5.21856e-06
5.22049e-06
4.54124e-07
5.22558e-06
5.22753e-06
3.89795e-06
8.9439e-06
3.88702e-06
8.94818e-06
1.836e-05
1.83625e-05
3.89848e-06
8.94583e-06
3.88687e-06
8.95022e-06
1.29918e-07
1.29933e-07
1.29925e-07
1.30589e-07
1.30587e-07
1.30603e-07
1.30594e-07
1.46971e-06
3.03094e-06
1.72181e-07
2.90362e-07
1.44731e-06
3.04509e-06
1.73754e-07
1.83665e-05
1.83668e-05
1.46973e-06
1.7218e-07
3.031e-06
2.90413e-07
1.44734e-06
1.73769e-07
3.04529e-06
5.23864e-06
5.24058e-06
4.88244e-07
5.24459e-06
5.24655e-06
3.92425e-06
8.95289e-06
3.91625e-06
8.95313e-06
1.83454e-05
1.8336e-05
3.92475e-06
8.95456e-06
3.91612e-06
8.95466e-06
1.30907e-07
1.30924e-07
1.30915e-07
1.32153e-07
1.32151e-07
1.32169e-07
1.3216e-07
1.53416e-06
3.07328e-06
1.78991e-07
3.09477e-07
1.5138e-06
3.08582e-06
1.8091e-07
1.83417e-05
1.83438e-05
1.53419e-06
1.7899e-07
3.07336e-06
3.09535e-07
1.51383e-06
1.80927e-07
3.08602e-06
5.25562e-06
5.25755e-06
5.23902e-07
5.26072e-06
5.26267e-06
3.94451e-06
8.95988e-06
3.9385e-06
8.9621e-06
1.83304e-05
1.83239e-05
3.94486e-06
8.96227e-06
3.93846e-06
8.96403e-06
1.32663e-07
1.32681e-07
1.32673e-07
1.34485e-07
1.34482e-07
1.34502e-07
1.34493e-07
1.59248e-06
3.11084e-06
1.87183e-07
3.30352e-07
1.57414e-06
3.12191e-06
1.89446e-07
1.83305e-05
1.83213e-05
1.5925e-06
1.87184e-07
3.11088e-06
3.30413e-07
1.57416e-06
1.89466e-07
3.12209e-06
5.27049e-06
5.27242e-06
5.60695e-07
5.27477e-06
5.27671e-06
3.96024e-06
8.96279e-06
3.95561e-06
8.9662e-06
1.831e-05
1.83085e-05
3.9605e-06
8.96444e-06
3.95569e-06
8.9681e-06
1.35185e-07
1.35206e-07
1.35197e-07
1.37584e-07
1.37581e-07
1.37602e-07
1.37594e-07
1.64486e-06
3.14427e-06
1.96749e-07
3.5286e-07
1.62843e-06
3.15415e-06
1.99352e-07
1.83118e-05
1.83118e-05
1.64488e-06
1.9675e-07
3.14433e-06
3.52926e-07
1.62846e-06
1.99375e-07
3.15431e-06
5.28336e-06
5.28529e-06
5.98151e-07
5.28728e-06
5.28922e-06
3.9727e-06
8.97071e-06
3.96904e-06
8.97285e-06
1.8301e-05
1.82989e-05
3.97293e-06
8.97271e-06
3.96918e-06
8.9747e-06
1.38476e-07
1.38498e-07
1.38489e-07
1.41452e-07
1.41449e-07
1.41473e-07
1.41464e-07
1.69177e-06
3.17425e-06
2.07669e-07
3.76863e-07
1.67708e-06
3.18313e-06
2.10608e-07
1.83031e-05
1.83e-05
1.69179e-06
2.07672e-07
3.17429e-06
3.76933e-07
1.6771e-06
2.10633e-07
3.18328e-06
5.29492e-06
5.29684e-06
6.35864e-07
5.29839e-06
5.30033e-06
3.98279e-06
8.97573e-06
3.97984e-06
8.97797e-06
1.82882e-05
1.82872e-05
3.98303e-06
8.97754e-06
3.97999e-06
8.97984e-06
1.42537e-07
1.42562e-07
1.42553e-07
1.46096e-07
1.46092e-07
1.46119e-07
1.46109e-07
1.73386e-06
3.20133e-06
2.19917e-07
4.02207e-07
1.72049e-06
3.20936e-06
2.23182e-07
1.829e-05
1.82894e-05
1.73388e-06
2.19921e-07
3.20137e-06
4.02282e-07
1.72052e-06
2.23211e-07
3.20949e-06
5.30553e-06
5.30743e-06
6.73482e-07
5.30871e-06
5.31064e-06
3.99122e-06
8.98152e-06
3.98876e-06
8.98441e-06
1.82817e-05
1.82797e-05
3.99145e-06
8.98339e-06
3.98891e-06
8.98623e-06
1.47375e-07
1.47402e-07
1.47392e-07
1.51518e-07
1.51514e-07
1.51544e-07
1.51534e-07
1.77162e-06
3.22605e-06
2.33455e-07
4.28741e-07
1.75938e-06
3.23337e-06
2.37035e-07
1.82826e-05
1.82808e-05
1.77164e-06
2.33461e-07
3.22609e-06
4.2882e-07
1.75941e-06
2.37068e-07
3.23349e-06
5.31541e-06
5.31731e-06
7.10686e-07
5.31836e-06
5.32029e-06
3.99851e-06
8.98804e-06
3.99637e-06
8.9907e-06
1.82744e-05
1.82755e-05
3.99867e-06
8.98991e-06
3.99648e-06
8.99266e-06
1.52993e-07
1.53023e-07
1.53013e-07
1.57726e-07
1.57722e-07
1.57754e-07
1.57744e-07
1.80566e-06
3.24875e-06
2.48237e-07
4.56292e-07
1.79438e-06
3.25553e-06
2.52121e-07
1.8277e-05
1.82773e-05
1.80568e-06
2.48247e-07
3.24877e-06
4.56374e-07
1.79441e-06
2.52157e-07
3.2556e-06
5.32487e-06
5.32677e-06
7.47232e-07
5.32769e-06
5.32961e-06
4.00498e-06
8.9948e-06
4.00308e-06
8.99819e-06
1.82726e-05
1.82735e-05
4.00513e-06
8.99666e-06
4.00315e-06
9.00008e-06
1.59398e-07
1.59431e-07
1.59421e-07
1.64725e-07
1.64721e-07
1.64756e-07
1.64745e-07
1.83657e-06
3.26984e-06
2.64211e-07
4.84689e-07
1.82609e-06
3.27612e-06
2.68384e-07
1.82739e-05
1.8275e-05
1.83659e-06
2.64223e-07
3.26983e-06
4.84776e-07
1.82612e-06
2.68423e-07
3.27619e-06
5.33398e-06
5.33588e-06
7.82917e-07
5.33679e-06
5.33871e-06
4.01091e-06
9.00219e-06
4.00916e-06
9.00572e-06
1.82704e-05
1.82722e-05
4.01107e-06
9.00413e-06
4.00924e-06
9.00768e-06
1.66594e-07
1.6663e-07
1.66621e-07
1.72517e-07
1.72513e-07
1.72551e-07
1.7254e-07
1.86486e-06
3.28953e-06
2.81315e-07
5.13757e-07
1.85507e-06
3.29541e-06
2.8576e-07
1.82722e-05
1.82735e-05
1.86488e-06
2.81331e-07
3.28951e-06
5.13846e-07
1.85509e-06
2.85804e-07
3.29549e-06
5.34303e-06
5.34493e-06
8.17605e-07
5.34581e-06
5.34773e-06
4.01653e-06
9.01036e-06
4.01484e-06
9.01404e-06
1.82724e-05
1.8275e-05
4.01671e-06
9.01229e-06
4.01495e-06
9.01603e-06
1.74585e-07
1.74624e-07
1.74615e-07
1.81103e-07
1.81099e-07
1.8114e-07
1.81129e-07
1.891e-06
3.30805e-06
2.99482e-07
5.43318e-07
1.88176e-06
3.31362e-06
3.04181e-07
1.82737e-05
1.82766e-05
1.89103e-06
2.99501e-07
3.30807e-06
5.43411e-07
1.88179e-06
3.04229e-07
3.3137e-06
5.35201e-06
5.3539e-06
8.51183e-07
5.35482e-06
5.35673e-06
4.02204e-06
9.01904e-06
4.02036e-06
9.0231e-06
1.82746e-05
1.82784e-05
4.02224e-06
9.02102e-06
4.02048e-06
9.02514e-06
1.83369e-07
1.83412e-07
1.83403e-07
1.90481e-07
1.90476e-07
1.90521e-07
1.9051e-07
1.91536e-06
3.32559e-06
3.18637e-07
5.73193e-07
1.90657e-06
3.33086e-06
3.23571e-07
1.8276e-05
1.82798e-05
1.9154e-06
3.1866e-07
3.32562e-06
5.7329e-07
1.9066e-06
3.23624e-07
3.33098e-06
5.36098e-06
5.36288e-06
8.83618e-07
5.36381e-06
5.36573e-06
4.02761e-06
9.02881e-06
4.02589e-06
9.03307e-06
1.82813e-05
1.82853e-05
4.02786e-06
9.0308e-06
4.026e-06
9.03512e-06
1.92943e-07
1.9299e-07
1.92981e-07
2.00641e-07
2.00637e-07
2.00686e-07
2.00674e-07
1.93825e-06
3.34233e-06
3.38702e-07
6.03216e-07
1.92984e-06
3.34734e-06
3.4385e-07
1.82822e-05
1.82865e-05
1.9383e-06
3.38729e-07
3.34237e-06
6.03316e-07
1.92987e-06
3.43909e-07
3.34745e-06
5.37002e-06
5.37192e-06
9.14869e-07
5.37287e-06
5.37479e-06
4.03336e-06
9.03915e-06
4.03156e-06
9.04379e-06
1.82882e-05
1.82931e-05
4.03364e-06
9.0412e-06
4.03163e-06
9.04586e-06
2.03298e-07
2.03348e-07
2.0334e-07
2.11571e-07
2.11567e-07
2.1162e-07
2.11608e-07
1.95991e-06
3.3583e-06
3.59591e-07
6.33214e-07
1.95181e-06
3.36312e-06
3.64931e-07
1.82892e-05
1.82943e-05
1.95996e-06
3.59623e-07
3.35836e-06
6.33319e-07
1.95184e-06
3.64994e-07
3.36325e-06
5.37917e-06
5.38106e-06
9.4492e-07
5.38207e-06
5.38398e-06
4.03935e-06
9.05031e-06
4.03745e-06
9.05531e-06
1.8298e-05
1.83039e-05
4.03967e-06
9.05239e-06
4.03748e-06
9.05742e-06
2.14417e-07
2.14472e-07
2.14465e-07
2.23251e-07
2.23247e-07
2.23304e-07
2.23295e-07
1.9805e-06
3.37367e-06
3.81213e-07
6.63033e-07
1.9727e-06
3.37828e-06
3.86722e-07
1.82992e-05
1.8305e-05
1.98055e-06
3.81251e-07
3.37373e-06
6.6314e-07
1.97274e-06
3.86791e-07
3.37841e-06
5.38834e-06
5.39024e-06
9.73764e-07
5.39129e-06
5.39321e-06
4.04564e-06
9.06216e-06
4.04364e-06
9.06745e-06
1.83098e-05
1.83158e-05
4.046e-06
9.06435e-06
4.04364e-06
9.06968e-06
2.2628e-07
2.26339e-07
2.26331e-07
2.35658e-07
2.35649e-07
2.35711e-07
2.35703e-07
2.00018e-06
3.38846e-06
4.03472e-07
6.92523e-07
1.99265e-06
3.39292e-06
4.09124e-07
1.83105e-05
1.8317e-05
2.00021e-06
4.03516e-07
3.38853e-06
6.92633e-07
1.9927e-06
4.09198e-07
3.39305e-06
5.39772e-06
5.39962e-06
1.00142e-06
5.40069e-06
5.40261e-06
4.05226e-06
9.07494e-06
4.05014e-06
9.0806e-06
1.83232e-05
1.83298e-05
4.05264e-06
9.07727e-06
4.0501e-06
9.08288e-06
2.3886e-07
2.38922e-07
2.38914e-07
2.48751e-07
2.48742e-07
2.48808e-07
2.488e-07
2.01904e-06
3.40275e-06
4.26268e-07
7.21555e-07
2.01176e-06
3.40704e-06
4.32037e-07
1.83236e-05
1.83301e-05
2.01905e-06
4.26319e-07
3.40281e-06
7.21669e-07
2.01186e-06
4.32115e-07
3.40716e-06
5.40709e-06
5.40899e-06
1.02789e-06
5.41011e-06
5.41202e-06
4.05921e-06
9.08832e-06
4.05697e-06
9.09425e-06
1.83377e-05
1.83463e-05
4.05961e-06
9.09058e-06
4.0569e-06
9.09653e-06
2.52119e-07
2.52185e-07
2.52178e-07
2.62494e-07
2.62485e-07
2.62555e-07
2.62548e-07
2.03716e-06
3.41654e-06
4.49492e-07
7.5001e-07
2.03012e-06
3.42069e-06
4.55352e-07
1.83387e-05
1.83475e-05
2.03717e-06
4.4955e-07
3.41661e-06
7.50126e-07
2.03021e-06
4.55432e-07
3.42082e-06
5.41661e-06
5.41851e-06
1.05323e-06
5.41964e-06
5.42156e-06
4.06646e-06
9.1024e-06
4.06409e-06
9.10865e-06
1.8355e-05
1.83622e-05
4.06685e-06
9.1046e-06
4.06401e-06
9.1108e-06
2.66016e-07
2.66088e-07
2.6608e-07
2.76835e-07
2.76826e-07
2.769e-07
2.76893e-07
2.05458e-06
3.42988e-06
4.7304e-07
7.7778e-07
2.04777e-06
3.43386e-06
4.78964e-07
1.8355e-05
1.83624e-05
2.05458e-06
4.73109e-07
3.42993e-06
7.77897e-07
2.04786e-06
4.79044e-07
3.43398e-06
5.4261e-06
5.428e-06
1.07745e-06
5.42917e-06
5.4311e-06
4.07397e-06
9.11749e-06
4.07147e-06
9.12381e-06
1.8372e-05
1.83815e-05
4.07435e-06
9.11967e-06
4.07139e-06
9.12599e-06
2.80499e-07
2.80574e-07
2.80568e-07
2.91721e-07
2.91711e-07
2.9179e-07
2.91783e-07
2.07131e-06
3.44276e-06
4.968e-07
8.04774e-07
2.06474e-06
3.44661e-06
5.02761e-07
1.8373e-05
1.83826e-05
2.07131e-06
4.9688e-07
3.44282e-06
8.04891e-07
2.06482e-06
5.02842e-07
3.44673e-06
5.43569e-06
5.43759e-06
1.10059e-06
5.43873e-06
5.44065e-06
4.08162e-06
9.13227e-06
4.07904e-06
9.13892e-06
1.8392e-05
1.84009e-05
4.082e-06
9.13438e-06
4.07896e-06
9.14101e-06
2.9551e-07
2.9559e-07
2.95583e-07
3.07085e-07
3.07075e-07
3.07157e-07
3.07151e-07
2.08734e-06
3.45517e-06
5.20666e-07
8.30912e-07
2.08103e-06
3.45887e-06
5.26633e-07
1.83923e-05
1.84013e-05
2.08734e-06
5.20748e-07
3.45521e-06
8.31028e-07
2.08111e-06
5.26717e-07
3.45898e-06
5.44519e-06
5.44709e-06
1.12269e-06
5.44825e-06
5.45018e-06
4.08937e-06
9.14847e-06
4.08675e-06
9.15523e-06
1.84122e-05
1.84223e-05
4.08975e-06
9.15058e-06
4.08667e-06
9.15735e-06
3.10983e-07
3.11067e-07
3.11061e-07
3.22858e-07
3.22848e-07
3.22934e-07
3.22929e-07
2.10266e-06
3.46716e-06
5.4452e-07
8.56139e-07
2.09663e-06
3.47071e-06
5.50469e-07
1.8413e-05
1.84233e-05
2.10267e-06
5.44606e-07
3.46721e-06
8.56254e-07
2.0967e-06
5.50556e-07
3.47081e-06
5.45472e-06
5.45662e-06
1.14377e-06
5.45772e-06
5.45965e-06
9.16418e-06
4.09448e-06
1.84337e-05
9.16628e-06
4.0944e-06
3.26846e-07
3.26933e-07
3.26928e-07
3.47867e-06
5.68251e-07
2.11152e-06
1.84342e-05
5.6834e-07
3.47871e-06
2.11157e-06
5.46412e-06
5.46603e-06
1.84805e-05
1.84823e-05
5.12434e-06
5.12663e-06
8.91014e-06
3.63701e-06
8.90981e-06
3.63713e-06
2.78295e-06
1.58499e-07
1.11602e-06
2.78354e-06
1.58507e-07
1.11605e-06
1.84759e-05
5.12689e-06
5.12479e-06
1.84745e-05
8.91164e-06
3.63759e-06
2.78348e-06
1.58503e-07
1.11613e-06
8.90974e-06
3.63752e-06
1.58511e-07
2.78368e-06
1.11612e-06
2.7829e-06
1.58495e-07
1.11604e-06
8.90978e-06
3.63716e-06
1.58497e-07
2.78303e-06
1.11603e-06
8.90932e-06
3.63706e-06
1.84784e-05
5.12706e-06
5.12546e-06
1.84762e-05
1.58499e-07
2.7832e-06
1.11608e-06
1.58499e-07
2.78355e-06
1.11611e-06
8.90904e-06
3.63756e-06
8.91025e-06
3.63765e-06
5.12491e-06
5.12696e-06
1.84748e-05
1.84761e-05
1.84682e-05
1.84486e-05
1.847e-05
1.84507e-05
5.13138e-06
5.13311e-06
3.65298e-07
5.14392e-06
5.14602e-06
1.84435e-05
1.84442e-05
1.84456e-05
1.84463e-05
3.71088e-07
5.16014e-06
5.16221e-06
5.14994e-06
5.15175e-06
3.68247e-06
8.91015e-06
3.64886e-06
8.91238e-06
1.15858e-06
2.79618e-06
1.58622e-07
2.33441e-07
1.13068e-06
2.82007e-06
1.58837e-07
1.15861e-06
2.79674e-06
1.5863e-07
2.33479e-07
1.13071e-06
2.82052e-06
1.58846e-07
3.69303e-06
8.91698e-06
8.91248e-06
3.72274e-06
3.69308e-06
8.92072e-06
8.91323e-06
3.72287e-06
1.17318e-06
2.36043e-07
2.85457e-06
1.59523e-07
2.83262e-06
1.59142e-07
1.20081e-06
1.17321e-06
2.36083e-07
2.85521e-06
1.59533e-07
2.83287e-06
1.59151e-07
1.20084e-06
5.13327e-06
5.13168e-06
3.65251e-07
5.14549e-06
5.14356e-06
1.84609e-05
1.84528e-05
1.84521e-05
1.84527e-05
3.71044e-07
5.16228e-06
5.16036e-06
5.15123e-06
5.14957e-06
1.84507e-05
1.84511e-05
1.1587e-06
2.79664e-06
1.5862e-07
2.33414e-07
1.1308e-06
2.8207e-06
1.58846e-07
3.68286e-06
8.91059e-06
3.6486e-06
8.91506e-06
1.15869e-06
1.58633e-07
2.79707e-06
2.33505e-07
1.13078e-06
1.5885e-07
2.82068e-06
3.69288e-06
8.91901e-06
8.91446e-06
3.72328e-06
1.1733e-06
2.36017e-07
2.85516e-06
1.59531e-07
2.83313e-06
1.59139e-07
1.20092e-06
3.69282e-06
8.91901e-06
8.91565e-06
3.7232e-06
1.17328e-06
2.36106e-07
1.59535e-07
2.85506e-06
1.59154e-07
2.83301e-06
1.2009e-06
3.68251e-06
8.91014e-06
3.64891e-06
8.91235e-06
1.15859e-06
1.58619e-07
2.79625e-06
2.33439e-07
1.13068e-06
1.58834e-07
2.82027e-06
3.68241e-06
8.91e-06
3.64885e-06
8.91259e-06
1.17321e-06
2.3596e-07
2.85458e-06
1.59517e-07
2.83237e-06
1.59136e-07
1.20083e-06
3.69314e-06
8.921e-06
8.91322e-06
3.7229e-06
1.17319e-06
2.36042e-07
1.59519e-07
2.85459e-06
1.59138e-07
2.8326e-06
1.20082e-06
3.69309e-06
8.9207e-06
8.91324e-06
3.72279e-06
5.13395e-06
5.13186e-06
3.65327e-07
5.14539e-06
5.14361e-06
1.84651e-05
1.84564e-05
1.84411e-05
1.84543e-05
3.71094e-07
5.16221e-06
5.16054e-06
5.15123e-06
5.14925e-06
1.84389e-05
1.84523e-05
1.15869e-06
1.5862e-07
2.79677e-06
2.33404e-07
1.13078e-06
1.58836e-07
2.82079e-06
3.68292e-06
8.90984e-06
3.64851e-06
8.91434e-06
3.68301e-06
8.91095e-06
3.64859e-06
8.91396e-06
1.17325e-06
2.35994e-07
1.59527e-07
2.85459e-06
1.59134e-07
2.83235e-06
1.20086e-06
1.17329e-06
2.36005e-07
1.59522e-07
2.8551e-06
1.5914e-07
2.83313e-06
1.2009e-06
3.69273e-06
8.9186e-06
8.91494e-06
3.72326e-06
3.69281e-06
8.92208e-06
8.9147e-06
3.72335e-06
1.8464e-05
1.84526e-05
1.84655e-05
1.84542e-05
3.71107e-07
5.16036e-06
5.16235e-06
5.14966e-06
5.15162e-06
1.8456e-05
1.84511e-05
1.84575e-05
1.84527e-05
1.84368e-05
1.84286e-05
1.84388e-05
1.84308e-05
5.16561e-06
5.16745e-06
3.9221e-07
5.17585e-06
5.17798e-06
1.8418e-05
1.84261e-05
1.84201e-05
1.84284e-05
3.98638e-07
5.19017e-06
5.19227e-06
5.18126e-06
5.18311e-06
3.75861e-06
8.92219e-06
3.7324e-06
8.92737e-06
1.2424e-06
2.86621e-06
1.59993e-07
2.44627e-07
1.21523e-06
2.88707e-06
1.60541e-07
1.24244e-06
2.86679e-06
1.60004e-07
2.44674e-07
1.21526e-06
2.88765e-06
1.60551e-07
3.76715e-06
8.92876e-06
8.92559e-06
3.79016e-06
3.7672e-06
8.92673e-06
8.92701e-06
3.79029e-06
1.25658e-06
2.47755e-07
2.91801e-06
1.61893e-07
2.89828e-06
1.61178e-07
1.28325e-06
1.25662e-06
2.47803e-07
2.91855e-06
1.61905e-07
2.89868e-06
1.61189e-07
1.28328e-06
5.16763e-06
5.16593e-06
3.92167e-07
5.17774e-06
5.17584e-06
1.84456e-05
1.84306e-05
1.84068e-05
1.84196e-05
3.98588e-07
5.19198e-06
5.19007e-06
5.18275e-06
5.18106e-06
1.84053e-05
1.84179e-05
1.24253e-06
2.86669e-06
1.5999e-07
2.44598e-07
1.21534e-06
2.8877e-06
1.60549e-07
3.75899e-06
8.91975e-06
3.7321e-06
8.92502e-06
1.24252e-06
1.60005e-07
2.86692e-06
2.44709e-07
1.21532e-06
1.60553e-07
2.88792e-06
3.767e-06
8.93087e-06
8.92696e-06
3.79072e-06
1.25672e-06
2.47728e-07
2.91864e-06
1.61902e-07
2.89882e-06
1.61174e-07
1.28338e-06
3.76695e-06
8.92894e-06
8.92568e-06
3.79064e-06
1.2567e-06
2.47839e-07
1.61907e-07
2.91848e-06
1.6119e-07
2.899e-06
1.28336e-06
3.75867e-06
8.92255e-06
3.73244e-06
8.92746e-06
1.24243e-06
1.59989e-07
2.8663e-06
2.44631e-07
1.21523e-06
1.60536e-07
2.88744e-06
3.75856e-06
8.92205e-06
3.73239e-06
8.92559e-06
1.25663e-06
2.47666e-07
2.91793e-06
1.61886e-07
2.89818e-06
1.61171e-07
1.28329e-06
3.76728e-06
8.92667e-06
8.92705e-06
3.79032e-06
1.25661e-06
2.47759e-07
1.61888e-07
2.91793e-06
1.61173e-07
2.89838e-06
1.28327e-06
3.76722e-06
8.92739e-06
8.92538e-06
3.7902e-06
5.16807e-06
5.16609e-06
3.92293e-07
5.17803e-06
5.1763e-06
1.84325e-05
1.84284e-05
1.84152e-05
1.84229e-05
3.98708e-07
5.19181e-06
5.19009e-06
5.18307e-06
5.18115e-06
1.84128e-05
1.84207e-05
1.24252e-06
1.59992e-07
2.86681e-06
2.44594e-07
1.21532e-06
1.6054e-07
2.88796e-06
3.75907e-06
8.91937e-06
3.732e-06
8.92468e-06
3.75916e-06
8.92328e-06
3.73207e-06
8.92625e-06
1.25668e-06
2.47715e-07
1.61898e-07
2.91802e-06
1.61169e-07
2.8984e-06
1.28332e-06
1.25672e-06
2.4772e-07
1.61893e-07
2.91845e-06
1.61177e-07
2.89891e-06
1.28336e-06
3.76689e-06
8.92796e-06
8.92521e-06
3.7907e-06
3.76696e-06
8.92884e-06
8.92609e-06
3.7908e-06
1.84491e-05
1.84253e-05
1.84506e-05
1.84267e-05
3.98672e-07
5.19002e-06
5.19199e-06
5.18114e-06
5.1831e-06
1.84147e-05
1.8416e-05
1.84167e-05
1.84176e-05
1.84072e-05
1.83993e-05
1.84094e-05
1.84018e-05
5.19476e-06
5.19662e-06
4.21955e-07
5.20262e-06
5.20468e-06
1.83923e-05
1.83967e-05
1.83945e-05
1.83993e-05
4.2893e-07
5.21453e-06
5.21659e-06
5.207e-06
5.20883e-06
3.81804e-06
8.92706e-06
3.79802e-06
8.93418e-06
1.32309e-06
2.92841e-06
1.62699e-07
2.57907e-07
1.29713e-06
2.94657e-06
1.63585e-07
1.32313e-06
2.92881e-06
1.62711e-07
2.57963e-07
1.29717e-06
2.94712e-06
1.63597e-07
3.8249e-06
8.93815e-06
8.93311e-06
3.84215e-06
3.82496e-06
8.9395e-06
8.93533e-06
3.84228e-06
1.33658e-06
2.61541e-07
2.97362e-06
1.65615e-07
2.95638e-06
1.64559e-07
1.36175e-06
1.33662e-06
2.61601e-07
2.97425e-06
1.65629e-07
2.95684e-06
1.64572e-07
1.36179e-06
5.19641e-06
5.19468e-06
4.21915e-07
5.20454e-06
5.20264e-06
1.84028e-05
1.84067e-05
1.83931e-05
1.84036e-05
4.289e-07
5.21644e-06
5.21456e-06
5.20871e-06
5.20702e-06
1.8392e-05
1.84022e-05
1.32322e-06
2.92892e-06
1.62694e-07
2.57876e-07
1.29726e-06
2.94719e-06
1.63594e-07
3.81837e-06
8.92972e-06
3.79774e-06
8.93503e-06
1.3232e-06
1.62712e-07
2.92891e-06
2.5799e-07
1.29723e-06
1.63598e-07
2.94725e-06
3.82473e-06
8.93965e-06
8.93537e-06
3.84269e-06
1.33672e-06
2.61511e-07
2.97424e-06
1.65624e-07
2.9569e-06
1.64554e-07
1.36189e-06
3.82467e-06
8.9388e-06
8.93559e-06
3.84261e-06
1.33669e-06
2.6163e-07
1.65629e-07
2.97423e-06
1.64572e-07
2.95706e-06
1.36186e-06
3.81807e-06
8.92694e-06
3.79806e-06
8.93406e-06
1.32312e-06
1.62693e-07
2.92835e-06
2.57913e-07
1.29714e-06
1.63579e-07
2.94688e-06
3.81796e-06
8.92822e-06
3.798e-06
8.93378e-06
1.33662e-06
2.61449e-07
2.97366e-06
1.65607e-07
2.95635e-06
1.6455e-07
1.3618e-06
3.82501e-06
8.94018e-06
8.93544e-06
3.84233e-06
1.3366e-06
2.6155e-07
1.65609e-07
2.97371e-06
1.64553e-07
2.95652e-06
1.36178e-06
3.82496e-06
8.93937e-06
8.93472e-06
3.84222e-06
5.19653e-06
5.19462e-06
4.21996e-07
5.2047e-06
5.203e-06
1.84108e-05
1.84076e-05
1.8395e-05
1.84013e-05
4.28975e-07
5.21642e-06
5.21472e-06
5.20903e-06
5.20713e-06
1.83933e-05
1.83994e-05
1.3232e-06
1.62698e-07
2.92887e-06
2.57875e-07
1.29724e-06
1.63584e-07
2.9474e-06
3.81843e-06
8.92873e-06
3.79764e-06
8.93457e-06
3.81853e-06
8.92984e-06
3.79771e-06
8.93544e-06
1.33666e-06
2.61494e-07
1.65619e-07
2.97379e-06
1.64548e-07
2.95648e-06
1.36183e-06
1.3367e-06
2.61513e-07
1.65615e-07
2.97423e-06
1.64558e-07
2.95704e-06
1.36187e-06
3.82459e-06
8.93881e-06
8.93525e-06
3.8427e-06
3.82467e-06
8.94016e-06
8.93623e-06
3.84278e-06
1.84116e-05
1.8402e-05
1.84138e-05
1.84039e-05
4.28981e-07
5.21462e-06
5.2166e-06
5.20715e-06
5.2091e-06
1.83937e-05
1.83964e-05
1.8395e-05
1.83979e-05
1.83863e-05
1.83823e-05
1.83881e-05
1.83842e-05
5.21857e-06
5.2204e-06
4.54085e-07
5.22529e-06
5.22733e-06
1.8363e-05
1.8376e-05
1.83652e-05
1.83781e-05
4.61589e-07
5.23521e-06
5.23724e-06
5.22905e-06
5.23086e-06
3.86349e-06
8.94006e-06
3.84852e-06
8.94332e-06
1.39913e-06
2.98285e-06
1.66758e-07
2.73211e-07
1.37483e-06
2.99895e-06
1.67988e-07
1.39918e-06
2.98334e-06
1.66772e-07
2.73271e-07
1.37487e-06
2.9995e-06
1.68003e-07
3.86907e-06
8.94379e-06
8.94284e-06
3.88185e-06
3.86913e-06
8.94423e-06
8.94322e-06
3.88198e-06
1.41175e-06
2.77349e-07
3.02278e-06
1.70704e-07
3.00768e-06
1.69303e-07
1.43513e-06
1.4118e-06
2.77407e-07
3.02335e-06
1.70719e-07
3.00808e-06
1.69318e-07
1.43518e-06
5.22024e-06
5.21855e-06
4.54027e-07