/*--------------------------------*- C++ -*----------------------------------*\
| =========                 |                                                 |
| \\      /  F ield         | OpenFOAM: The Open Source CFD Toolbox           |
|  \\    /   O peration     | Version:  v1906                                 |
|   \\  /    A nd           | Web:      www.OpenFOAM.com                      |
|    \\/     M anipulation  |                                                 |
\*---------------------------------------------------------------------------*/
FoamFile
{
    version     2.0;
    format      ascii;
    class       volScalarField;
    location    "875";
    object      epsilon;
}
// * * * * * * * * * * * * * * * * * * * * * * * * * * * * * * * * * * * * * //

dimensions      [0 2 -3 0 0 0 0];


internalField   nonuniform List<scalar> 
43024
(
6.67256e-07
1.19302e-06
1.19305e-06
1.42514e-06
6.72229e-07
1.19503e-06
1.1951e-06
1.42714e-06
6.76374e-07
1.19626e-06
1.19636e-06
1.42868e-06
6.80245e-07
1.19734e-06
1.19733e-06
1.42969e-06
6.83553e-07
1.19781e-06
1.19797e-06
1.43071e-06
6.86167e-07
1.19782e-06
1.19779e-06
1.4308e-06
6.88375e-07
1.19741e-06
1.19738e-06
1.43086e-06
6.8997e-07
1.19638e-06
1.19672e-06
1.43018e-06
6.92072e-07
1.19625e-06
1.19619e-06
1.43075e-06
6.93125e-07
1.19531e-06
1.19526e-06
1.4304e-06
6.92133e-07
1.1913e-06
1.19133e-06
1.42663e-06
6.92102e-07
1.18902e-06
1.18908e-06
1.42403e-06
6.93974e-07
1.18864e-06
1.1895e-06
1.42625e-06
6.94284e-07
1.18835e-06
1.18867e-06
1.42537e-06
6.90482e-07
1.1828e-06
1.18063e-06
1.41796e-06
6.85449e-07
1.16886e-06
1.16949e-06
1.40656e-06
6.94384e-07
1.18132e-06
1.18509e-06
1.42268e-06
7.06917e-07
1.20635e-06
1.20637e-06
1.45131e-06
6.82796e-07
1.16314e-06
1.15908e-06
1.41017e-06
6.42463e-07
1.09445e-06
1.09425e-06
1.32724e-06
6.42841e-07
1.07321e-06
1.07866e-06
1.31714e-06
1.423e-06
1.19256e-06
1.19258e-06
1.42294e-06
1.19247e-06
1.19258e-06
1.19247e-06
1.19263e-06
1.42301e-06
1.19252e-06
1.19254e-06
1.42307e-06
1.42508e-06
1.42511e-06
1.19312e-06
1.19313e-06
1.19468e-06
1.1947e-06
1.42502e-06
1.42504e-06
1.19302e-06
1.19312e-06
1.19458e-06
1.1947e-06
1.19318e-06
1.19458e-06
1.19471e-06
1.42507e-06
1.4251e-06
1.19308e-06
1.19462e-06
1.19461e-06
1.42514e-06
1.4271e-06
1.42669e-06
1.19513e-06
1.19515e-06
1.19602e-06
1.19607e-06
1.42704e-06
1.42662e-06
1.19504e-06
1.19518e-06
1.19596e-06
1.19617e-06
1.19517e-06
1.19597e-06
1.19616e-06
1.42711e-06
1.42676e-06
1.19508e-06
1.19611e-06
1.19608e-06
1.42677e-06
1.42858e-06
1.42772e-06
1.19627e-06
1.19634e-06
1.19715e-06
1.19723e-06
1.42853e-06
1.42775e-06
1.1962e-06
1.19641e-06
1.19704e-06
1.19714e-06
1.19644e-06
1.19712e-06
1.19724e-06
1.42867e-06
1.4277e-06
1.19636e-06
1.19709e-06
1.19714e-06
1.42782e-06
1.42964e-06
1.42882e-06
1.19741e-06
1.19745e-06
1.19785e-06
1.19783e-06
1.42965e-06
1.42872e-06
1.1973e-06
1.19739e-06
1.19777e-06
1.19791e-06
1.19746e-06
1.1977e-06
1.19788e-06
1.42957e-06
1.42882e-06
1.19737e-06
1.19784e-06
1.19781e-06
1.42883e-06
1.43071e-06
1.42903e-06
1.19795e-06
1.19793e-06
1.19792e-06
1.19794e-06
1.4306e-06
1.42892e-06
1.19787e-06
1.19804e-06
1.19784e-06
1.198e-06
1.19799e-06
1.19786e-06
1.19802e-06
1.43071e-06
1.42917e-06
1.19792e-06
1.19793e-06
1.19792e-06
1.42912e-06
1.43069e-06
1.42913e-06
1.19785e-06
1.1979e-06
1.19759e-06
1.19765e-06
1.43065e-06
1.42909e-06
1.19777e-06
1.19787e-06
1.19749e-06
1.19754e-06
1.19796e-06
1.19754e-06
1.19763e-06
1.43079e-06
1.42898e-06
1.19785e-06
1.19745e-06
1.19751e-06
1.42916e-06
1.43083e-06
1.42832e-06
1.19746e-06
1.19753e-06
1.19665e-06
1.19672e-06
1.43079e-06
1.42827e-06
1.19736e-06
1.19746e-06
1.19657e-06
1.19691e-06
1.1975e-06
1.1966e-06
1.19683e-06
1.43074e-06
1.42874e-06
1.1974e-06
1.19691e-06
1.19681e-06
1.42853e-06
1.42991e-06
1.42881e-06
1.19644e-06
1.19649e-06
1.19642e-06
1.19636e-06
1.42989e-06
1.42864e-06
1.19637e-06
1.19671e-06
1.19632e-06
1.19634e-06
1.19664e-06
1.19624e-06
1.19646e-06
1.4304e-06
1.42864e-06
1.19664e-06
1.19628e-06
1.19639e-06
1.42891e-06
1.43075e-06
1.42922e-06
1.19649e-06
1.19638e-06
1.19609e-06
1.19598e-06
1.43055e-06
1.42893e-06
1.19638e-06
1.19629e-06
1.19599e-06
1.19586e-06
1.19644e-06
1.19585e-06
1.19595e-06
1.4305e-06
1.42883e-06
1.19634e-06
1.19571e-06
1.19578e-06
1.42895e-06
1.43066e-06
1.42498e-06
1.19542e-06
1.19542e-06
1.19194e-06
1.19227e-06
1.43043e-06
1.42532e-06
1.19537e-06
1.19544e-06
1.19189e-06
1.19236e-06
1.19537e-06
1.19221e-06
1.19223e-06
1.4304e-06
1.42543e-06
1.19518e-06
1.1923e-06
1.19212e-06
1.42525e-06
1.42634e-06
1.42218e-06
1.191e-06
1.19136e-06
1.18932e-06
1.18933e-06
1.42672e-06
1.42237e-06
1.19093e-06
1.19137e-06
1.18917e-06
1.1892e-06
1.19128e-06
1.18922e-06
1.18942e-06
1.42681e-06
1.42218e-06
1.19119e-06
1.18922e-06
1.18935e-06
1.42232e-06
1.42394e-06
1.42382e-06
1.18931e-06
1.18914e-06
1.18961e-06
1.1888e-06
1.42399e-06
1.42273e-06
1.18916e-06
1.18906e-06
1.18959e-06
1.18939e-06
1.18937e-06
1.18871e-06
1.18997e-06
1.42379e-06
1.42355e-06
1.18932e-06
1.1894e-06
1.19e-06
1.42421e-06
1.42575e-06
1.42399e-06
1.18956e-06
1.18872e-06
1.18885e-06
1.18845e-06
1.42452e-06
1.42341e-06
1.18959e-06
1.18956e-06
1.18894e-06
1.18926e-06
1.18998e-06
1.18838e-06
1.18895e-06
1.42557e-06
1.42446e-06
1.19001e-06
1.18908e-06
1.18882e-06
1.424e-06
1.42552e-06
1.41871e-06
1.18839e-06
1.18843e-06
1.18348e-06
1.1865e-06
1.42554e-06
1.4217e-06
1.1884e-06
1.18893e-06
1.18307e-06
1.18383e-06
1.18806e-06
1.1861e-06
1.18219e-06
1.42611e-06
1.41928e-06
1.18777e-06
1.18355e-06
1.18178e-06
1.417e-06
1.41965e-06
1.4045e-06
1.18074e-06
1.18321e-06
1.17147e-06
1.17087e-06
1.42261e-06
1.40393e-06
1.1803e-06
1.18076e-06
1.17125e-06
1.17043e-06
1.17973e-06
1.17087e-06
1.17241e-06
1.42014e-06
1.40332e-06
1.17941e-06
1.1708e-06
1.17254e-06
1.40536e-06
1.40544e-06
1.411e-06
1.17025e-06
1.16876e-06
1.17536e-06
1.1717e-06
1.40457e-06
1.40563e-06
1.17012e-06
1.16904e-06
1.17587e-06
1.17463e-06
1.17168e-06
1.17193e-06
1.17862e-06
1.40416e-06
1.40917e-06
1.17192e-06
1.17505e-06
1.17937e-06
1.41481e-06
1.41921e-06
1.44756e-06
1.18452e-06
1.18108e-06
1.20342e-06
1.20509e-06
1.4139e-06
1.44822e-06
1.18504e-06
1.18494e-06
1.20359e-06
1.20621e-06
1.18676e-06
1.20487e-06
1.20268e-06
1.41808e-06
1.4508e-06
1.18727e-06
1.20566e-06
1.20255e-06
1.44716e-06
1.45241e-06
1.41901e-06
1.20411e-06
1.20664e-06
1.18016e-06
1.18506e-06
1.45443e-06
1.42418e-06
1.20418e-06
1.207e-06
1.1794e-06
1.18053e-06
1.20299e-06
1.18461e-06
1.17668e-06
1.45619e-06
1.42017e-06
1.20274e-06
1.17975e-06
1.17544e-06
1.41515e-06
1.41388e-06
1.33056e-06
1.16042e-06
1.16337e-06
1.10582e-06
1.1052e-06
1.41866e-06
1.33115e-06
1.15973e-06
1.15952e-06
1.10523e-06
1.10292e-06
1.15818e-06
1.10553e-06
1.10725e-06
1.4145e-06
1.3268e-06
1.15718e-06
1.10348e-06
1.10696e-06
1.33101e-06
1.3259e-06
1.30998e-06
1.09555e-06
1.09387e-06
1.08679e-06
1.08397e-06
1.32576e-06
1.30613e-06
1.09522e-06
1.09331e-06
1.08733e-06
1.08829e-06
1.09898e-06
1.08509e-06
1.09393e-06
1.32176e-06
1.31127e-06
1.09907e-06
1.08986e-06
1.09504e-06
1.31931e-06
1.308e-06
1.07493e-06
1.07234e-06
1.30448e-06
1.07558e-06
1.07744e-06
6.41059e-07
6.44863e-07
6.46802e-07
1.08113e-06
1.31028e-06
1.08227e-06
4.23946e-06
9.55894e-06
1.90878e-05
4.23967e-06
9.56205e-06
6.65953e-07
6.65948e-07
6.66029e-07
6.66053e-07
2.29829e-06
1.1913e-06
3.64953e-06
9.39558e-07
1.90915e-05
2.29826e-06
1.19137e-06
9.39619e-07
3.64961e-06
1.42188e-06
5.65141e-06
5.65335e-06
4.2419e-06
9.58196e-06
4.24114e-06
9.59234e-06
1.91242e-05
1.91404e-05
4.24202e-06
9.58324e-06
4.24125e-06
9.59278e-06
6.67246e-07
6.67324e-07
6.67344e-07
6.71024e-07
6.71017e-07
6.71091e-07
6.71098e-07
2.29933e-06
3.65128e-06
9.42085e-07
1.19354e-06
2.29915e-06
3.65185e-06
9.42845e-07
1.91238e-05
1.91375e-05
2.29928e-06
9.42126e-07
3.65128e-06
1.19357e-06
2.29913e-06
9.42882e-07
3.65184e-06
5.65478e-06
5.65673e-06
1.42415e-06
5.65638e-06
5.65835e-06
4.24396e-06
9.59193e-06
4.24359e-06
9.58774e-06
1.91394e-05
1.91371e-05
4.24411e-06
9.59312e-06
4.24364e-06
9.59078e-06
6.72221e-07
6.72307e-07
6.72291e-07
6.75403e-07
6.75407e-07
6.75558e-07
6.75545e-07
2.30009e-06
3.65356e-06
9.45045e-07
1.19539e-06
2.30013e-06
3.65362e-06
9.4566e-07
1.91382e-05
1.91401e-05
2.30006e-06
9.45096e-07
3.65352e-06
1.1955e-06
2.30009e-06
9.45729e-07
3.65368e-06
5.65911e-06
5.66103e-06
1.42602e-06
5.65961e-06
5.66155e-06
4.24558e-06
9.59762e-06
4.24508e-06
9.61129e-06
1.91544e-05
1.9178e-05
4.24579e-06
9.60181e-06
4.24523e-06
9.61324e-06
6.764e-07
6.76541e-07
6.7653e-07
6.79285e-07
6.79341e-07
6.7936e-07
6.79414e-07
2.30032e-06
3.65502e-06
9.47205e-07
1.19654e-06
2.30051e-06
3.65537e-06
9.47672e-07
1.91616e-05
1.91772e-05
2.30032e-06
9.47298e-07
3.65506e-06
1.19659e-06
2.30053e-06
9.47729e-07
3.65544e-06
5.66289e-06
5.66484e-06
1.4274e-06
5.66415e-06
5.66611e-06
4.24616e-06
9.6113e-06
4.24629e-06
9.59859e-06
1.91754e-05
1.91619e-05
4.24633e-06
9.61085e-06
4.24638e-06
9.59934e-06
6.80276e-07
6.80292e-07
6.80334e-07
6.82799e-07
6.82742e-07
6.82887e-07
6.82859e-07
2.30021e-06
3.65595e-06
9.49053e-07
1.19748e-06
2.30058e-06
3.65565e-06
9.49407e-07
1.9169e-05
1.916e-05
2.30016e-06
9.49051e-07
3.65597e-06
1.19752e-06
2.30048e-06
9.49434e-07
3.65571e-06
5.66462e-06
5.66653e-06
1.42838e-06
5.66477e-06
5.66671e-06
4.24839e-06
9.60108e-06
4.24788e-06
9.62975e-06
1.91772e-05
1.92285e-05
4.24853e-06
9.60548e-06
4.24792e-06
9.63367e-06
6.83501e-07
6.83677e-07
6.8362e-07
6.85536e-07
6.85555e-07
6.85651e-07
6.85665e-07
2.30014e-06
3.65753e-06
9.50237e-07
1.19785e-06
2.30043e-06
3.6577e-06
9.50443e-07
1.91862e-05
1.92356e-05
2.30018e-06
9.50377e-07
3.65747e-06
1.198e-06
2.30047e-06
9.5056e-07
3.65783e-06
5.66952e-06
5.67148e-06
1.42928e-06
5.6705e-06
5.67254e-06
4.24841e-06
9.65497e-06
4.24864e-06
9.65131e-06
1.92554e-05
1.92368e-05
4.24868e-06
9.65586e-06
4.24884e-06
9.65067e-06
6.86193e-07
6.86237e-07
6.86278e-07
6.87869e-07
6.87899e-07
6.87891e-07
6.87935e-07
2.29935e-06
3.65782e-06
9.50941e-07
1.19772e-06
2.29988e-06
3.65758e-06
9.51039e-07
1.92505e-05
1.92257e-05
2.29909e-06
9.50909e-07
3.65797e-06
1.19766e-06
2.29976e-06
9.50959e-07
3.65758e-06
5.67078e-06
5.67273e-06
1.42908e-06
5.6716e-06
5.67347e-06
4.2491e-06
9.60129e-06
4.24936e-06
9.59131e-06
1.91679e-05
1.9171e-05
4.24916e-06
9.60229e-06
4.24926e-06
9.59515e-06
6.88416e-07
6.88444e-07
6.88445e-07
6.89561e-07
6.89598e-07
6.89842e-07
6.89775e-07
2.29813e-06
3.65864e-06
9.51089e-07
1.19716e-06
2.29896e-06
3.65787e-06
9.51051e-07
1.91704e-05
1.9183e-05
2.29817e-06
9.51133e-07
3.65827e-06
1.19726e-06
2.29886e-06
9.51139e-07
3.65788e-06
5.67414e-06
5.67594e-06
1.42891e-06
5.67324e-06
5.67518e-06
4.24827e-06
9.62615e-06
4.24815e-06
9.66481e-06
1.92457e-05
1.93009e-05
4.24868e-06
9.63482e-06
4.2485e-06
9.66821e-06
6.8998e-07
6.90251e-07
6.90195e-07
6.91529e-07
6.91437e-07
6.91507e-07
6.91583e-07
2.29669e-06
3.65701e-06
9.50765e-07
1.19623e-06
2.29724e-06
3.6572e-06
9.50697e-07
1.92615e-05
1.92998e-05
2.2969e-06
9.51023e-07
3.65757e-06
1.19652e-06
2.29748e-06
9.50944e-07
3.65765e-06
5.67273e-06
5.67481e-06
1.42843e-06
5.67486e-06
5.67687e-06
4.25146e-06
9.69346e-06
4.25091e-06
9.68605e-06
1.93197e-05
1.92956e-05
4.25129e-06
9.68848e-06
4.25066e-06
9.67739e-06
6.91975e-07
6.91974e-07
6.92064e-07
6.93095e-07
6.93055e-07
6.93029e-07
6.93047e-07
2.29717e-06
3.65973e-06
9.50816e-07
1.19621e-06
2.29729e-06
3.65971e-06
9.50808e-07
1.92982e-05
1.92703e-05
2.29694e-06
9.50782e-07
3.65955e-06
1.19606e-06
2.2972e-06
9.50679e-07
3.6596e-06
5.68046e-06
5.68253e-06
1.42915e-06
5.68058e-06
5.68264e-06
4.25084e-06
9.62875e-06
4.25161e-06
9.62437e-06
1.92329e-05
1.92433e-05
4.25125e-06
9.63395e-06
4.2517e-06
9.63304e-06
6.93127e-07
6.93141e-07
6.93109e-07
6.92472e-07
6.92692e-07
6.92824e-07
6.92682e-07
2.29478e-06
3.65953e-06
9.50328e-07
1.1943e-06
2.29653e-06
3.65883e-06
9.49595e-07
1.9249e-05
1.92743e-05
2.29445e-06
9.50176e-07
3.65951e-06
1.19436e-06
2.2961e-06
9.49541e-07
3.65866e-06
5.67998e-06
5.68187e-06
1.42725e-06
5.68055e-06
5.68228e-06
4.24631e-06
9.652e-06
4.24909e-06
9.65426e-06
1.92852e-05
1.92859e-05
4.24667e-06
9.66e-06
4.24951e-06
9.66038e-06
6.92383e-07
6.9247e-07
6.92345e-07
6.91884e-07
6.92005e-07
6.92044e-07
6.92057e-07
2.28963e-06
3.6578e-06
9.47054e-07
1.1904e-06
2.2921e-06
3.65476e-06
9.46311e-07
1.92991e-05
1.92796e-05
2.28956e-06
9.47108e-07
3.65761e-06
1.1904e-06
2.29192e-06
9.46365e-07
3.65489e-06
5.68163e-06
5.68334e-06
1.42334e-06
5.6785e-06
5.68038e-06
4.24429e-06
9.64517e-06
4.24431e-06
9.67511e-06
1.92835e-05
1.93405e-05
4.24393e-06
9.64343e-06
4.24415e-06
9.6631e-06
6.9207e-07
6.92137e-07
6.92239e-07
6.93622e-07
6.93036e-07
6.9356e-07
6.93926e-07
2.28786e-06
3.65274e-06
9.45253e-07
1.18887e-06
2.28813e-06
3.65236e-06
9.45209e-07
1.92496e-05
1.93099e-05
2.2878e-06
9.45398e-07
3.652e-06
1.18908e-06
2.28799e-06
9.45409e-07
3.65175e-06
5.67356e-06
5.67517e-06
1.42304e-06
5.6727e-06
5.67454e-06
4.24882e-06
9.74203e-06
4.24828e-06
9.72456e-06
1.93909e-05
1.93271e-05
4.25008e-06
9.73738e-06
4.24832e-06
9.73285e-06
6.93389e-07
6.93957e-07
6.94299e-07
6.94337e-07
6.9419e-07
6.94459e-07
6.94369e-07
2.28953e-06
3.65533e-06
9.45252e-07
1.18853e-06
2.28935e-06
3.65534e-06
9.45138e-07
1.94146e-05
1.9392e-05
2.29063e-06
9.45694e-07
3.6568e-06
1.18945e-06
2.29009e-06
9.456e-07
3.65811e-06
5.68187e-06
5.68452e-06
1.42495e-06
5.68547e-06
5.68842e-06
4.25348e-06
9.58568e-06
4.25181e-06
9.57827e-06
1.92088e-05
1.92584e-05
4.25386e-06
9.60662e-06
4.25303e-06
9.58994e-06
6.94304e-07
6.9443e-07
6.94127e-07
6.92019e-07
6.93655e-07
6.92325e-07
6.91211e-07
2.28989e-06
3.6587e-06
9.44496e-07
1.18819e-06
2.29015e-06
3.6604e-06
9.4384e-07
1.92182e-05
1.92089e-05
2.28844e-06
9.44281e-07
3.65938e-06
1.18771e-06
2.29018e-06
9.4307e-07
3.65937e-06
5.69094e-06
5.69307e-06
1.42144e-06
5.69321e-06
5.69487e-06
4.24773e-06
9.71283e-06
4.2548e-06
9.7514e-06
1.94203e-05
1.94248e-05
4.24747e-06
9.68956e-06
4.2538e-06
9.73588e-06
6.92068e-07
6.90589e-07
6.8994e-07
6.85897e-07
6.85571e-07
6.8552e-07
6.86659e-07
2.27727e-06
3.66175e-06
9.38549e-07
1.17852e-06
2.28528e-06
3.6544e-06
9.35563e-07
1.93485e-05
1.94234e-05
2.27589e-06
9.37466e-07
3.65921e-06
1.17697e-06
2.28301e-06
9.34825e-07
3.65254e-06
5.69825e-06
5.69954e-06
1.41094e-06
5.68559e-06
5.6869e-06
4.21607e-06
9.68162e-06
4.22864e-06
9.63427e-06
1.92813e-05
1.92754e-05
4.21367e-06
9.70276e-06
4.2255e-06
9.65748e-06
6.84635e-07
6.85019e-07
6.86473e-07
6.88726e-07
6.86541e-07
6.88563e-07
6.90816e-07
2.25898e-06
3.63654e-06
9.29372e-07
1.16827e-06
2.26298e-06
3.62288e-06
9.29116e-07
1.9399e-05
1.93529e-05
2.26018e-06
9.30044e-07
3.63363e-06
1.16932e-06
2.26287e-06
9.30024e-07
3.62194e-06
5.65514e-06
5.65637e-06
1.40472e-06
5.64308e-06
5.64472e-06
4.24104e-06
9.68477e-06
4.21834e-06
9.81826e-06
1.9423e-05
1.95723e-05
4.24597e-06
9.6811e-06
4.22139e-06
9.797e-06
6.92168e-07
6.94814e-07
6.95788e-07
7.06298e-07
7.07494e-07
7.07951e-07
7.05619e-07
2.29396e-06
3.62728e-06
9.40023e-07
1.19078e-06
2.27457e-06
3.64461e-06
9.47041e-07
1.93572e-05
1.94228e-05
2.29779e-06
9.42343e-07
3.63166e-06
1.19362e-06
2.2782e-06
9.48685e-07
3.65067e-06
5.65689e-06
5.66007e-06
1.43266e-06
5.68162e-06
5.68528e-06
4.31287e-06
9.86685e-06
4.2985e-06
9.63033e-06
1.94739e-05
1.91416e-05
4.31482e-06
9.85069e-06
4.30162e-06
9.65918e-06
7.08686e-07
7.08597e-07
7.05965e-07
6.95592e-07
6.99089e-07
6.95993e-07
6.93204e-07
2.32844e-06
3.70255e-06
9.57041e-07
1.20551e-06
2.32907e-06
3.71234e-06
9.56162e-07
1.94152e-05
1.92552e-05
2.32702e-06
9.56629e-07
3.70751e-06
1.20507e-06
2.32988e-06
9.55357e-07
3.71505e-06
5.7461e-06
5.7497e-06
1.44623e-06
5.76218e-06
5.76567e-06
4.25568e-06
9.18204e-06
4.29285e-06
9.1641e-06
1.86888e-05
1.88109e-05
4.25317e-06
9.22062e-06
4.29356e-06
9.18896e-06
6.8535e-07
6.82523e-07
6.81195e-07
6.49102e-07
6.4919e-07
6.48168e-07
6.50281e-07
2.2368e-06
3.7038e-06
9.19965e-07
1.14163e-06
2.28551e-06
3.66194e-06
9.02446e-07
1.88417e-05
1.88617e-05
2.23168e-06
9.16922e-07
3.70339e-06
1.13824e-06
2.28132e-06
9.00164e-07
3.65497e-06
5.76217e-06
5.76488e-06
1.37202e-06
5.7173e-06
5.71748e-06
4.07681e-06
9.74336e-06
4.15294e-06
1.03012e-05
1.97418e-05
2.03898e-05
4.06506e-06
9.66939e-06
4.14197e-06
1.02323e-05
6.41805e-07
6.41917e-07
6.4483e-07
6.40257e-07
6.38725e-07
6.41238e-07
6.44086e-07
2.13203e-06
3.57671e-06
8.67209e-07
1.08969e-06
2.16455e-06
3.49075e-06
8.64631e-07
1.94959e-05
2.02368e-05
2.13095e-06
8.67795e-07
3.56234e-06
1.09107e-06
2.16038e-06
8.66133e-07
3.47816e-06
5.57975e-06
5.57481e-06
1.3136e-06
5.43367e-06
5.43234e-06
3.34111e-06
9.78804e-06
3.98158e-06
5.57195e-06
1.86213e-05
8.2232e-06
3.34988e-06
9.81847e-06
3.98358e-06
5.57803e-06
3.13381e-07
4.68279e-07
4.69177e-07
7.1526e-07
3.11648e-07
5.08452e-07
5.09496e-07
2.12653e-06
3.38186e-06
8.71546e-07
1.05605e-06
2.12966e-06
3.51699e-06
8.39084e-07
1.88862e-05
8.26357e-06
2.13398e-06
8.76006e-07
3.38616e-06
1.06121e-06
2.13463e-06
8.43081e-07
3.53121e-06
5.35541e-06
5.36133e-06
1.30588e-06
5.05809e-06
5.0664e-06
1.90878e-05
1.90907e-05
1.42178e-06
5.65129e-06
5.65323e-06
1.91207e-05
1.90926e-05
1.91226e-05
1.90954e-05
1.4239e-06
5.65378e-06
5.65568e-06
5.65208e-06
5.65404e-06
4.23957e-06
9.56012e-06
2.29814e-06
1.19136e-06
3.64929e-06
9.39497e-07
2.29821e-06
1.19141e-06
3.64988e-06
9.39542e-07
4.23991e-06
9.57826e-06
9.56185e-06
4.24059e-06
4.24002e-06
9.57815e-06
9.56241e-06
4.24069e-06
2.29849e-06
1.19199e-06
3.65047e-06
9.41244e-07
3.64987e-06
9.40409e-07
2.2987e-06
2.29857e-06
1.19203e-06
3.65093e-06
9.41279e-07
3.65043e-06
9.4045e-07
2.29876e-06
1.42175e-06
5.65311e-06
5.65131e-06
1.9086e-05
1.91202e-05
1.9092e-05
1.42387e-06
5.65533e-06
5.65355e-06
5.65376e-06
5.65211e-06
1.91173e-05
1.909e-05
2.29831e-06
1.19127e-06
3.65003e-06
9.39578e-07
4.2396e-06
9.56189e-06
2.29824e-06
1.19143e-06
9.39593e-07
3.64994e-06
4.24007e-06
9.58002e-06
9.56465e-06
4.24082e-06
2.29866e-06
1.19191e-06
3.65121e-06
9.41311e-07
3.65068e-06
9.40464e-07
2.29886e-06
4.23998e-06
9.57888e-06
9.56434e-06
4.24073e-06
2.29858e-06
1.19203e-06
9.41312e-07
3.65101e-06
9.40492e-07
3.65056e-06
2.29877e-06
4.23971e-06
9.56088e-06
2.29822e-06
1.19146e-06
9.39586e-07
3.64947e-06
4.23961e-06
9.56174e-06
2.29863e-06
1.19192e-06
3.65056e-06
9.41285e-07
3.6501e-06
9.40462e-07
2.2988e-06
4.24014e-06
9.5771e-06
9.5628e-06
4.24074e-06
2.29856e-06
1.19208e-06
9.41317e-07
3.65054e-06
9.40495e-07
3.65002e-06
2.29873e-06
4.24004e-06
9.57688e-06
9.56355e-06
4.24064e-06
1.42184e-06
5.65318e-06
5.65156e-06
1.90889e-05
1.91207e-05
1.90956e-05
1.42394e-06
5.65541e-06
5.65376e-06
5.65409e-06
5.65224e-06
1.9118e-05
1.90928e-05
2.29831e-06
1.19137e-06
9.39645e-07
3.65009e-06
4.23965e-06
9.56138e-06
4.2397e-06
9.56222e-06
2.29862e-06
1.19197e-06
9.41331e-07
3.65064e-06
9.40515e-07
3.65016e-06
2.29877e-06
2.29866e-06
1.19199e-06
9.41363e-07
3.65117e-06
9.40546e-07
3.65066e-06
2.29882e-06
4.24018e-06
9.5772e-06
9.56334e-06
4.24073e-06
4.24016e-06
9.57775e-06
9.56408e-06
4.24079e-06
1.90891e-05
1.90906e-05
1.42399e-06
5.65373e-06
5.6557e-06
5.6521e-06
5.65403e-06
1.91174e-05
1.90927e-05
1.91191e-05
1.90941e-05
1.9124e-05
1.91371e-05
1.91258e-05
1.91384e-05
5.65474e-06
5.65663e-06
1.42411e-06
5.65621e-06
5.65805e-06
1.91376e-05
1.91367e-05
1.91394e-05
1.91381e-05
1.42615e-06
5.65836e-06
5.66026e-06
5.65717e-06
5.65904e-06
4.24199e-06
9.5819e-06
4.24123e-06
9.59337e-06
2.29926e-06
3.65115e-06
9.4205e-07
1.19365e-06
2.29906e-06
3.65172e-06
9.4282e-07
2.29932e-06
3.65161e-06
9.42082e-07
1.19366e-06
2.29912e-06
3.65222e-06
9.42851e-07
4.24246e-06
9.59374e-06
9.5933e-06
4.24306e-06
4.24256e-06
9.59596e-06
9.59467e-06
4.24317e-06
2.29962e-06
1.19419e-06
3.65276e-06
9.44324e-07
3.65237e-06
9.43593e-07
2.29973e-06
2.29968e-06
1.1942e-06
3.65334e-06
9.44359e-07
3.65292e-06
9.43626e-07
2.29979e-06
5.65637e-06
5.65475e-06
1.42404e-06
5.65802e-06
5.65626e-06
1.91212e-05
1.91376e-05
1.91419e-05
1.91404e-05
1.42609e-06
5.66039e-06
5.65852e-06
5.65914e-06
5.65751e-06
1.91395e-05
1.91375e-05
2.29937e-06
3.65193e-06
9.42094e-07
1.19355e-06
2.2992e-06
3.65241e-06
9.42876e-07
4.24192e-06
9.58194e-06
4.24114e-06
9.59177e-06
2.29928e-06
9.42111e-07
3.65171e-06
1.19364e-06
2.29912e-06
9.42872e-07
3.65218e-06
4.24247e-06
9.59425e-06
9.59362e-06
4.24321e-06
2.29971e-06
1.19408e-06
3.65346e-06
9.44381e-07
3.65311e-06
9.43629e-07
2.29984e-06
4.24237e-06
9.59373e-06
9.59275e-06
4.24312e-06
2.29962e-06
1.19419e-06
9.44383e-07
3.65329e-06
9.43647e-07
3.65292e-06
2.29976e-06
4.24203e-06
9.58069e-06
4.24128e-06
9.59248e-06
2.29927e-06
9.42118e-07
3.65122e-06
1.19369e-06
2.29908e-06
9.42875e-07
3.65182e-06
4.24193e-06
9.5802e-06
4.24118e-06
9.59153e-06
2.29968e-06
1.19408e-06
3.65295e-06
9.44342e-07
3.65259e-06
9.43615e-07
2.29981e-06
4.2426e-06
9.59579e-06
9.59393e-06
4.24322e-06
2.29961e-06
1.19423e-06
9.44366e-07
3.65286e-06
9.43644e-07
3.65249e-06
2.29974e-06
4.2425e-06
9.59495e-06
9.59296e-06
4.2431e-06
5.65652e-06
5.6547e-06
1.42408e-06
5.65789e-06
5.65628e-06
1.91214e-05
1.91367e-05
1.914e-05
1.91373e-05
1.42612e-06
5.66017e-06
5.65859e-06
5.65914e-06
5.65736e-06
1.91399e-05
1.91369e-05
2.29934e-06
9.42162e-07
3.65187e-06
1.1936e-06
2.29917e-06
9.42913e-07
3.65245e-06
4.242e-06
9.58044e-06
4.24135e-06
9.59135e-06
4.24206e-06
9.58107e-06
4.24134e-06
9.59247e-06
2.29964e-06
1.19411e-06
9.44379e-07
3.65294e-06
9.4365e-07
3.65251e-06
2.29975e-06
2.29968e-06
1.19413e-06
9.44401e-07
3.65347e-06
9.4368e-07
3.65313e-06
2.2998e-06
4.24264e-06
9.59464e-06
9.59268e-06
4.24316e-06
4.24263e-06
9.59587e-06
9.59391e-06
4.2432e-06
1.91211e-05
1.91373e-05
1.91227e-05
1.9139e-05
1.42619e-06
5.65846e-06
5.66041e-06
5.65741e-06
5.65936e-06
1.91404e-05
1.91376e-05
1.91422e-05
1.91393e-05
1.91352e-05
1.91354e-05
1.91373e-05
1.91386e-05
5.65907e-06
5.66098e-06
1.42597e-06
5.65978e-06
5.6617e-06
1.91538e-05
1.9136e-05
1.9158e-05
1.91395e-05
1.42791e-06
5.66198e-06
5.66386e-06
5.66057e-06
5.66249e-06
4.24407e-06
9.59481e-06
4.24371e-06
9.58968e-06
2.30002e-06
3.65333e-06
9.45023e-07
1.19549e-06
2.30005e-06
3.65351e-06
9.45626e-07
2.30008e-06
3.65393e-06
9.45059e-07
1.19551e-06
2.30012e-06
3.65402e-06
9.45664e-07
4.24434e-06
9.59332e-06
9.58743e-06
4.24466e-06
4.24443e-06
9.59217e-06
9.58886e-06
4.24475e-06
2.3003e-06
1.19578e-06
3.65433e-06
9.46633e-07
3.65402e-06
9.46168e-07
2.30011e-06
2.30037e-06
1.19581e-06
3.65475e-06
9.46678e-07
3.65449e-06
9.46209e-07
2.30017e-06
5.66108e-06
5.65931e-06
1.4259e-06
5.66139e-06
5.65957e-06
1.91371e-05
1.91355e-05
1.91501e-05
1.91366e-05
1.42784e-06
5.66341e-06
5.66165e-06
5.66209e-06
5.66048e-06
1.91484e-05
1.91348e-05
2.30018e-06
3.65409e-06
9.45073e-07
1.1954e-06
2.30017e-06
3.65425e-06
9.45713e-07
4.24402e-06
9.59279e-06
4.24355e-06
9.5905e-06
2.3001e-06
9.45101e-07
3.65394e-06
1.19557e-06
2.30009e-06
9.4573e-07
3.65406e-06
4.24444e-06
9.59799e-06
9.59079e-06
4.24487e-06
2.30046e-06
1.19571e-06
3.65506e-06
9.46752e-07
3.65481e-06
9.46258e-07
2.3003e-06
4.24433e-06
9.59705e-06
9.59047e-06
4.24477e-06
2.30039e-06
1.19591e-06
9.46786e-07
3.65488e-06
9.46304e-07
3.65464e-06
2.30023e-06
4.24409e-06
9.59512e-06
4.24375e-06
9.59059e-06
2.30002e-06
9.45071e-07
3.65341e-06
1.19555e-06
2.30005e-06
9.45688e-07
3.65354e-06
4.24398e-06
9.59439e-06
4.24363e-06
9.59073e-06
2.30038e-06
1.19571e-06
3.65439e-06
9.46716e-07
3.65414e-06
9.46226e-07
2.30023e-06
4.24446e-06
9.59235e-06
9.58969e-06
4.24479e-06
2.3003e-06
1.19589e-06
9.46755e-07
3.65438e-06
9.46262e-07
3.65405e-06
2.30017e-06
4.24436e-06
9.59318e-06
9.59004e-06
4.24469e-06
5.66099e-06
5.65925e-06
1.42601e-06
5.66149e-06
5.65976e-06
1.91384e-05
1.91394e-05
1.91578e-05
1.91407e-05
1.42796e-06
5.66356e-06
5.66185e-06
5.66244e-06
5.6605e-06
1.91542e-05
1.91396e-05
2.3001e-06
9.45115e-07
3.65403e-06
1.19546e-06
2.30012e-06
9.45743e-07
3.65415e-06
4.24403e-06
9.59415e-06
4.24375e-06
9.59163e-06
4.24407e-06
9.59528e-06
4.24373e-06
9.59201e-06
2.30036e-06
1.19584e-06
9.46817e-07
3.65448e-06
9.46318e-07
3.65418e-06
2.30023e-06
2.30039e-06
1.19581e-06
9.46832e-07
3.65501e-06
9.46333e-07
3.65467e-06
2.30028e-06
4.24449e-06
9.59515e-06
9.59124e-06
4.24478e-06
4.24447e-06
9.5952e-06
9.59149e-06
4.24483e-06
1.91386e-05
1.91384e-05
1.91406e-05
1.91407e-05
1.42796e-06
5.66188e-06
5.66383e-06
5.66042e-06
5.66234e-06
1.91518e-05
1.91381e-05
1.91544e-05
1.91406e-05
1.91582e-05
1.9176e-05
1.91622e-05
1.91781e-05
5.66293e-06
5.6648e-06
1.42722e-06
5.66403e-06
5.66589e-06
1.91743e-05
1.91756e-05
1.91754e-05
1.91774e-05
1.42907e-06
5.66409e-06
5.66603e-06
5.66441e-06
5.6663e-06
4.24568e-06
9.59591e-06
4.24517e-06
9.61121e-06
2.30014e-06
3.65489e-06
9.47097e-07
1.19654e-06
2.30038e-06
3.65522e-06
9.47557e-07
2.30021e-06
3.65534e-06
9.4715e-07
1.19663e-06
2.30044e-06
3.65574e-06
9.47615e-07
4.24595e-06
9.61372e-06
9.6129e-06
4.2461e-06
4.24606e-06
9.61599e-06
9.6136e-06
4.24623e-06
2.30041e-06
1.19686e-06
3.65537e-06
9.4854e-07
3.65562e-06
9.48058e-07
2.30017e-06
2.30048e-06
1.19695e-06
3.65601e-06
9.48597e-07
3.65621e-06
9.48118e-07
2.30025e-06
5.6644e-06
5.66276e-06
1.42723e-06
5.66583e-06
5.66395e-06
1.91525e-05
1.91754e-05
1.91794e-05
1.91785e-05
1.4291e-06
5.66611e-06
5.66427e-06
5.66635e-06
5.66457e-06
1.91766e-05
1.91758e-05
2.30033e-06
3.65567e-06
9.47195e-07
1.19646e-06
2.30057e-06
3.65595e-06
9.47647e-07
4.24569e-06
9.60085e-06
4.24513e-06
9.61249e-06
2.30026e-06
9.47249e-07
3.65551e-06
1.19664e-06
2.30049e-06
9.47675e-07
3.65578e-06
4.24605e-06
9.61422e-06
9.61434e-06
4.24625e-06
2.30057e-06
1.19676e-06
3.65611e-06
9.48571e-07
3.6564e-06
9.48099e-07
2.30027e-06
4.24596e-06
9.61361e-06
9.61363e-06
4.24616e-06
2.3005e-06
1.19689e-06
9.48571e-07
3.65598e-06
9.48131e-07
3.65625e-06
2.3002e-06
4.24577e-06
9.59557e-06
4.24523e-06
9.61078e-06
2.30026e-06
9.47245e-07
3.65499e-06
1.19671e-06
2.30044e-06
9.47703e-07
3.65537e-06
4.24567e-06
9.59646e-06
4.24514e-06
9.61103e-06
2.3006e-06
1.19685e-06
3.65563e-06
9.48617e-07
3.65587e-06
9.48163e-07
2.30034e-06
4.24617e-06
9.61597e-06
9.61326e-06
4.24636e-06
2.30053e-06
1.19699e-06
9.48634e-07
3.65559e-06
9.48187e-07
3.65581e-06
2.30027e-06
4.24606e-06
9.61567e-06
9.61331e-06
4.24625e-06
5.66466e-06
5.66282e-06
1.42734e-06
5.66567e-06
5.66413e-06
1.9158e-05
1.91759e-05
1.9175e-05
1.91765e-05
1.42917e-06
5.66606e-06
5.6645e-06
5.66626e-06
5.6646e-06
1.91754e-05
1.91756e-05
2.30037e-06
9.47321e-07
3.65563e-06
1.19662e-06
2.30056e-06
9.47758e-07
3.65601e-06
4.24575e-06
9.59829e-06
4.2453e-06
9.61114e-06
4.24584e-06
9.59859e-06
4.24537e-06
9.6123e-06
2.30058e-06
1.19684e-06
9.48609e-07
3.65569e-06
9.48184e-07
3.65588e-06
2.30024e-06
2.30063e-06
1.19689e-06
9.4865e-07
3.65621e-06
9.48223e-07
3.65645e-06
2.3003e-06
4.24622e-06
9.61442e-06
9.61287e-06
4.2463e-06
4.24632e-06
9.61597e-06
9.61424e-06
4.24639e-06
1.91558e-05
1.91771e-05
1.91583e-05
1.91786e-05
1.42926e-06
5.66439e-06
5.66632e-06
5.66461e-06
5.66654e-06
1.91779e-05
1.91773e-05
1.9179e-05
1.91787e-05
1.91685e-05
1.9158e-05
1.91689e-05
1.91593e-05
5.66422e-06
5.66618e-06
1.42832e-06
5.66438e-06
5.66636e-06
1.91733e-05
1.91568e-05
1.91768e-05
1.91585e-05
1.43017e-06
5.66838e-06
5.67019e-06
5.66565e-06
5.66763e-06
4.24628e-06
9.61491e-06
4.24641e-06
9.60183e-06
2.30009e-06
3.65562e-06
9.49006e-07
1.19758e-06
2.30043e-06
3.65534e-06
9.49393e-07
2.30016e-06
3.65628e-06
9.49053e-07
1.1976e-06
2.30051e-06
3.65597e-06
9.49427e-07
4.24647e-06
9.59698e-06
9.59611e-06
4.24717e-06
4.24659e-06
9.59745e-06
9.59834e-06
4.24726e-06
2.30031e-06
1.19773e-06
3.6566e-06
9.49989e-07
3.65585e-06
9.4973e-07
2.30009e-06
2.30038e-06
1.19773e-06
3.65712e-06
9.50005e-07
3.65648e-06
9.49752e-07
2.30014e-06
5.66632e-06
5.66465e-06
1.42829e-06
5.66642e-06
5.66483e-06
1.91724e-05
1.91591e-05
1.91705e-05
1.91586e-05
1.43013e-06
5.67017e-06
5.66836e-06
5.66768e-06
5.66626e-06
1.91681e-05
1.91559e-05
2.30021e-06
3.6564e-06
9.49017e-07
1.19748e-06
2.30052e-06
3.65607e-06
9.49433e-07
4.24626e-06
9.61025e-06
4.24629e-06
9.59845e-06
2.30013e-06
9.49025e-07
3.65632e-06
1.19758e-06
2.30045e-06
9.49425e-07
3.65603e-06
4.24658e-06
9.59991e-06
9.59747e-06
4.24735e-06
2.30044e-06
1.19764e-06
3.6573e-06
9.50088e-07
3.65665e-06
9.49786e-07
2.30026e-06
4.2465e-06
9.59908e-06
9.59656e-06
4.24725e-06
2.30036e-06
1.19777e-06
9.50102e-07
3.65712e-06
9.49802e-07
3.65661e-06
2.30019e-06
4.24645e-06
9.61512e-06
4.24656e-06
9.60212e-06
2.30014e-06
9.4907e-07
3.65587e-06
1.19762e-06
2.3005e-06
9.4943e-07
3.65558e-06
4.24634e-06
9.61469e-06
4.24645e-06
9.60179e-06
2.30043e-06
1.1976e-06
3.65676e-06
9.49984e-07
3.65621e-06
9.49728e-07
2.30015e-06
4.24674e-06
9.59689e-06
9.5983e-06
4.24731e-06
2.30036e-06
1.19776e-06
9.50024e-07
3.65666e-06
9.49761e-07
3.65607e-06
2.30009e-06
4.24664e-06
9.59713e-06
9.59821e-06
4.2472e-06
5.66646e-06
5.66473e-06
1.42832e-06
5.66675e-06
5.665e-06
1.91708e-05
1.91606e-05
1.91783e-05
1.91592e-05
1.43019e-06
5.66986e-06
5.66827e-06
5.66806e-06
5.66612e-06
1.91745e-05
1.91591e-05
2.30021e-06
9.49092e-07
3.65649e-06
1.19753e-06
2.30053e-06
9.49467e-07
3.6562e-06
4.2464e-06
9.61309e-06
4.24656e-06
9.60139e-06
4.24648e-06
9.61455e-06
4.24665e-06
9.60198e-06
2.3004e-06
1.1977e-06
9.501e-07
3.65675e-06
9.49808e-07
3.65619e-06
2.30017e-06
2.30044e-06
1.19768e-06
9.50112e-07
3.65732e-06
9.49832e-07
3.65672e-06
2.30022e-06
4.2468e-06
9.59887e-06
9.59866e-06
4.24728e-06
4.24689e-06
9.59894e-06
9.59901e-06
4.24738e-06
1.91738e-05
1.91612e-05
1.91747e-05
1.91628e-05
1.43024e-06
5.66839e-06
5.67034e-06
5.66598e-06
5.66792e-06
1.91705e-05
1.91583e-05
1.91737e-05
1.91605e-05
1.91805e-05
1.92295e-05
1.91845e-05
1.92335e-05
5.66965e-06
5.67145e-06
1.42928e-06
5.67079e-06
5.67266e-06
1.92531e-05
1.92362e-05
1.92551e-05
1.92397e-05
1.43104e-06
5.67038e-06
5.67237e-06
5.67106e-06
5.67296e-06
4.24847e-06
9.60006e-06
4.24796e-06
9.62853e-06
2.30009e-06
3.65741e-06
9.50223e-07
1.19798e-06
2.30038e-06
3.65778e-06
9.50396e-07
2.30014e-06
3.6579e-06
9.5024e-07
1.19797e-06
2.30044e-06
3.65817e-06
9.50421e-07
4.24866e-06
9.65376e-06
9.63743e-06
4.2485e-06
4.24874e-06
9.65516e-06
9.63699e-06
4.2486e-06
2.30024e-06
1.19798e-06
3.6575e-06
9.50691e-07
3.65809e-06
9.50559e-07
2.29964e-06
2.30029e-06
1.19797e-06
3.65792e-06
9.50737e-07
3.65849e-06
9.50596e-07
2.2997e-06
5.67136e-06