/*--------------------------------*- C++ -*----------------------------------*\
| =========                 |                                                 |
| \\      /  F ield         | OpenFOAM: The Open Source CFD Toolbox           |
|  \\    /   O peration     | Version:  v1906                                 |
|   \\  /    A nd           | Web:      www.OpenFOAM.com                      |
|    \\/     M anipulation  |                                                 |
\*---------------------------------------------------------------------------*/
FoamFile
{
    version     2.0;
    format      ascii;
    class       volScalarField;
    location    "875";
    object      k;
}
// * * * * * * * * * * * * * * * * * * * * * * * * * * * * * * * * * * * * * //

dimensions      [0 2 -2 0 0 0 0];


internalField   nonuniform List<scalar> 
43024
(
3.93629e-05
5.17239e-05
5.17262e-05
5.37877e-05
3.97454e-05
5.19978e-05
5.19903e-05
5.40237e-05
4.00884e-05
5.21477e-05
5.21548e-05
5.41382e-05
4.03937e-05
5.233e-05
5.2329e-05
5.42867e-05
4.0651e-05
5.23858e-05
5.23848e-05
5.42595e-05
4.09282e-05
5.26468e-05
5.26469e-05
5.46324e-05
4.1185e-05
5.26945e-05
5.2677e-05
5.45292e-05
4.12845e-05
5.26046e-05
5.26231e-05
5.43577e-05
4.1536e-05
5.29135e-05
5.28957e-05
5.49012e-05
4.17605e-05
5.29327e-05
5.28934e-05
5.47107e-05
4.18172e-05
5.28391e-05
5.289e-05
5.46545e-05
4.18817e-05
5.28418e-05
5.28327e-05
5.46271e-05
4.21186e-05
5.30582e-05
5.30153e-05
5.50056e-05
4.21489e-05
5.28295e-05
5.29916e-05
5.4592e-05
4.21089e-05
5.28105e-05
5.26538e-05
5.44625e-05
4.22442e-05
5.28971e-05
5.30455e-05
5.49013e-05
4.23503e-05
5.29019e-05
5.30567e-05
5.4891e-05
4.24985e-05
5.32923e-05
5.28763e-05
5.54315e-05
4.1701e-05
5.12944e-05
5.16101e-05
5.18632e-05
4.14416e-05
5.10368e-05
5.1279e-05
5.19492e-05
4.35512e-05
5.49493e-05
5.4848e-05
6.18422e-05
5.3718e-05
5.16566e-05
5.16559e-05
5.37116e-05
5.16579e-05
5.16602e-05
5.16596e-05
5.16662e-05
5.37183e-05
5.16635e-05
5.16659e-05
5.3722e-05
5.37903e-05
5.39831e-05
5.17239e-05
5.1721e-05
5.1936e-05
5.19374e-05
5.37815e-05
5.39931e-05
5.17251e-05
5.17244e-05
5.19344e-05
5.19299e-05
5.17282e-05
5.19369e-05
5.19319e-05
5.37856e-05
5.39774e-05
5.17277e-05
5.19308e-05
5.19313e-05
5.39816e-05
5.40214e-05
5.40936e-05
5.19932e-05
5.19983e-05
5.21079e-05
5.21109e-05
5.4034e-05
5.40893e-05
5.19909e-05
5.19878e-05
5.21072e-05
5.21098e-05
5.19922e-05
5.21134e-05
5.21147e-05
5.40191e-05
5.40986e-05
5.19914e-05
5.21152e-05
5.21146e-05
5.40966e-05
5.414e-05
5.42593e-05
5.21484e-05
5.21447e-05
5.22897e-05
5.22843e-05
5.4128e-05
5.42579e-05
5.21499e-05
5.21513e-05
5.22926e-05
5.22903e-05
5.21517e-05
5.22859e-05
5.2289e-05
5.41427e-05
5.42556e-05
5.21527e-05
5.22901e-05
5.22906e-05
5.4262e-05
5.4279e-05
5.42257e-05
5.23281e-05
5.23287e-05
5.23664e-05
5.2375e-05
5.4285e-05
5.42341e-05
5.23293e-05
5.23271e-05
5.23636e-05
5.23633e-05
5.23317e-05
5.23764e-05
5.23776e-05
5.4276e-05
5.42297e-05
5.23322e-05
5.23709e-05
5.23759e-05
5.42381e-05
5.42536e-05
5.45731e-05
5.23795e-05
5.23845e-05
5.25585e-05
5.25518e-05
5.42534e-05
5.4565e-05
5.23769e-05
5.2378e-05
5.25622e-05
5.2569e-05
5.23873e-05
5.25526e-05
5.25454e-05
5.42598e-05
5.45769e-05
5.23864e-05
5.25633e-05
5.25492e-05
5.45494e-05
5.46574e-05
5.45488e-05
5.26496e-05
5.26461e-05
5.27163e-05
5.27156e-05
5.46537e-05
5.45412e-05
5.26527e-05
5.26522e-05
5.27144e-05
5.26965e-05
5.26353e-05
5.27164e-05
5.27146e-05
5.46475e-05
5.44965e-05
5.26376e-05
5.26996e-05
5.27117e-05
5.45515e-05
5.45183e-05
5.42647e-05
5.26935e-05
5.26935e-05
5.25812e-05
5.25957e-05
5.45133e-05
5.43013e-05
5.26897e-05
5.26689e-05
5.25825e-05
5.26065e-05
5.26987e-05
5.26006e-05
5.26092e-05
5.4475e-05
5.4349e-05
5.2695e-05
5.26155e-05
5.26102e-05
5.43211e-05
5.43044e-05
5.48527e-05
5.25844e-05
5.25995e-05
5.28098e-05
5.28088e-05
5.43473e-05
5.48238e-05
5.25866e-05
5.26152e-05
5.282e-05
5.2831e-05
5.26119e-05
5.2813e-05
5.28074e-05
5.44147e-05
5.48035e-05
5.26136e-05
5.2828e-05
5.28169e-05
5.48158e-05
5.49555e-05
5.48045e-05
5.29301e-05
5.29135e-05
5.2992e-05
5.29662e-05
5.49105e-05
5.47563e-05
5.29316e-05
5.28975e-05
5.29814e-05
5.29131e-05
5.29082e-05
5.29607e-05
5.29538e-05
5.48488e-05
5.46804e-05
5.29121e-05
5.2915e-05
5.29472e-05
5.47334e-05
5.47741e-05
5.45485e-05
5.29611e-05
5.29394e-05
5.28193e-05
5.2838e-05
5.47345e-05
5.45912e-05
5.29484e-05
5.28913e-05
5.28248e-05
5.28845e-05
5.29227e-05
5.28414e-05
5.28474e-05
5.46815e-05
5.4718e-05
5.29113e-05
5.28845e-05
5.28478e-05
5.46106e-05
5.45599e-05
5.45084e-05
5.28038e-05
5.28329e-05
5.2788e-05
5.28261e-05
5.46174e-05
5.45887e-05
5.28137e-05
5.28871e-05
5.27993e-05
5.2835e-05
5.28489e-05
5.28366e-05
5.2855e-05
5.47502e-05
5.45189e-05
5.28512e-05
5.28497e-05
5.28645e-05
5.46203e-05
5.45279e-05
5.51694e-05
5.27931e-05
5.28302e-05
5.30642e-05
5.30226e-05
5.46031e-05
5.50261e-05
5.28032e-05
5.28185e-05
5.30438e-05
5.28945e-05
5.28557e-05
5.30163e-05
5.29614e-05
5.45154e-05
5.48619e-05
5.28637e-05
5.2896e-05
5.29493e-05
5.49035e-05
5.52771e-05
5.46185e-05
5.3151e-05
5.3076e-05
5.30622e-05
5.29861e-05
5.50895e-05
5.45181e-05
5.31319e-05
5.30262e-05
5.30626e-05
5.3079e-05
5.30277e-05
5.29639e-05
5.30043e-05
5.50345e-05
5.49022e-05
5.30194e-05
5.30646e-05
5.30047e-05
5.47009e-05
5.44126e-05
5.41349e-05
5.28399e-05
5.28317e-05
5.25994e-05
5.27187e-05
5.44115e-05
5.45168e-05
5.28642e-05
5.30004e-05
5.26134e-05
5.26322e-05
5.2897e-05
5.27459e-05
5.27183e-05
5.47656e-05
5.41292e-05
5.2906e-05
5.26472e-05
5.27126e-05
5.43294e-05
5.44005e-05
5.51105e-05
5.26571e-05
5.27805e-05
5.30105e-05
5.29422e-05
5.47179e-05
5.4838e-05
5.26592e-05
5.26389e-05
5.29884e-05
5.2932e-05
5.27392e-05
5.29265e-05
5.29386e-05
5.41964e-05
5.50117e-05
5.27303e-05
5.29381e-05
5.29439e-05
5.48989e-05
5.50571e-05
5.44664e-05
5.3002e-05
5.29232e-05
5.28771e-05
5.28528e-05
5.47327e-05
5.45152e-05
5.29838e-05
5.30363e-05
5.28946e-05
5.30662e-05
5.29506e-05
5.28446e-05
5.2949e-05
5.50965e-05
5.49606e-05
5.2971e-05
5.30813e-05
5.29815e-05
5.47888e-05
5.45672e-05
5.63091e-05
5.29105e-05
5.28981e-05
5.34085e-05
5.33035e-05
5.46984e-05
5.59849e-05
5.29294e-05
5.30432e-05
5.33918e-05
5.29773e-05
5.29882e-05
5.33103e-05
5.31373e-05
5.49611e-05
5.499e-05
5.30246e-05
5.29286e-05
5.30912e-05
5.54666e-05
5.62979e-05
5.19715e-05
5.3393e-05
5.32881e-05
5.19905e-05
5.21638e-05
5.59765e-05
5.24791e-05
5.33743e-05
5.29394e-05
5.20004e-05
5.22525e-05
5.31026e-05
5.21493e-05
5.20056e-05
5.49833e-05
5.31072e-05
5.30428e-05
5.2179e-05
5.19268e-05
5.24229e-05
5.11393e-05
5.04423e-05
5.10087e-05
5.128e-05
5.04347e-05
5.07016e-05
5.17488e-05
5.09458e-05
5.1044e-05
5.15946e-05
5.04653e-05
5.09766e-05
5.13096e-05
5.07377e-05
5.08528e-05
5.25894e-05
5.14274e-05
5.13174e-05
5.11119e-05
5.09605e-05
5.12973e-05
5.15083e-05
6.25618e-05
5.08146e-05
5.10105e-05
5.59813e-05
5.52506e-05
5.18161e-05
6.07398e-05
5.08234e-05
5.11462e-05
5.58654e-05
5.48502e-05
5.10949e-05
5.51318e-05
5.5256e-05
5.17764e-05
6.06282e-05
5.1203e-05
5.47689e-05
5.52132e-05
6.15e-05
6.26258e-05
5.59709e-05
5.50477e-05
6.07613e-05
5.59107e-05
5.49387e-05
4.31821e-05
4.31362e-05
4.33303e-05
5.5359e-05
6.09842e-05
5.5321e-05
6.8495e-05
7.34039e-05
7.11811e-05
6.85071e-05
7.3415e-05
3.92714e-05
3.92727e-05
3.92768e-05
3.9279e-05
6.0653e-05
5.15644e-05
6.4719e-05
4.69042e-05
7.11865e-05
6.06531e-05
5.15674e-05
4.69068e-05
6.47261e-05
5.36202e-05
6.97819e-05
6.97918e-05
6.87229e-05
7.35215e-05
6.85854e-05
7.35753e-05
7.12717e-05
7.13127e-05
6.87188e-05
7.35234e-05
6.85982e-05
7.35727e-05
3.9364e-05
3.93678e-05
3.93701e-05
3.9649e-05
3.96485e-05
3.96501e-05
3.96509e-05
6.0813e-05
6.48439e-05
4.70841e-05
5.17949e-05
6.07084e-05
6.49873e-05
4.71535e-05
7.12671e-05
7.13016e-05
6.08082e-05
4.70857e-05
6.48456e-05
5.17943e-05
6.0706e-05
4.71545e-05
6.49761e-05
7.00144e-05
7.00232e-05
5.38685e-05
7.01563e-05
7.01655e-05
6.87533e-05
7.3574e-05
6.8784e-05
7.35521e-05
7.13105e-05
7.13046e-05
6.87469e-05
7.3575e-05
6.87683e-05
7.35628e-05
3.97458e-05
3.97461e-05
3.97465e-05
4.00079e-05
4.00115e-05
4.00118e-05
4.00138e-05
6.09471e-05
6.50582e-05
4.73835e-05
5.20459e-05
6.09381e-05
6.50062e-05
4.7454e-05
7.13035e-05
7.13079e-05
6.09428e-05
4.7382e-05
6.50368e-05
5.20386e-05
6.093e-05
4.74516e-05
6.50032e-05
7.01738e-05
7.01824e-05
5.40443e-05
7.00445e-05
7.00579e-05
6.87538e-05
7.36014e-05
6.86913e-05
7.36719e-05
7.13466e-05
7.14057e-05
6.87854e-05
7.36181e-05
6.8715e-05
7.36772e-05
4.00906e-05
4.00927e-05
4.00941e-05
4.03178e-05
4.03139e-05
4.03205e-05
4.03198e-05
6.09474e-05
6.49406e-05
4.76164e-05
5.2189e-05
6.09274e-05
6.50371e-05
4.76611e-05
7.13608e-05
7.14001e-05
6.09567e-05
4.76177e-05
6.4965e-05
5.21984e-05
6.09314e-05
4.76647e-05
6.50631e-05
7.00116e-05
7.00312e-05
5.41847e-05
7.02144e-05
7.02292e-05
6.88102e-05
7.36734e-05
6.8853e-05
7.36081e-05
7.14e-05
7.13663e-05
6.87844e-05
7.36663e-05
6.88439e-05
7.36069e-05
4.03905e-05
4.03962e-05
4.03959e-05
4.05918e-05
4.05962e-05
4.05953e-05
4.05998e-05
6.10564e-05
6.51511e-05
4.78194e-05
5.23586e-05
6.10571e-05
6.50681e-05
4.78724e-05
7.13804e-05
7.13576e-05
6.10452e-05
4.78235e-05
6.51344e-05
5.23534e-05
6.10516e-05
4.7874e-05
6.5038e-05
7.02755e-05
7.02802e-05
5.42621e-05
7.00209e-05
7.00231e-05
6.86814e-05
7.36186e-05
6.86486e-05
7.37647e-05
7.14028e-05
7.15298e-05
6.87187e-05
7.3636e-05
6.8651e-05
7.37801e-05
4.06551e-05
4.06551e-05
4.06584e-05
4.08487e-05
4.08463e-05
4.08532e-05
4.08474e-05
6.09519e-05
6.4867e-05
4.79754e-05
5.24075e-05
6.09507e-05
6.4938e-05
4.79991e-05
7.14211e-05
7.1544e-05
6.09609e-05
4.7974e-05
6.48855e-05
5.24164e-05
6.09514e-05
4.80009e-05
6.499e-05
6.98307e-05
6.98482e-05
5.43176e-05
7.01512e-05
7.01828e-05
6.90964e-05
7.38955e-05
6.90345e-05
7.38782e-05
7.15982e-05
7.15535e-05
6.90868e-05
7.38953e-05
6.90459e-05
7.38704e-05
4.09254e-05
4.09305e-05
4.09252e-05
4.1136e-05
4.11357e-05
4.11321e-05
4.11367e-05
6.13034e-05
6.54204e-05
4.8151e-05
5.27066e-05
6.1194e-05
6.54671e-05
4.82189e-05
7.15826e-05
7.15221e-05
6.12834e-05
4.81548e-05
6.54013e-05
5.26957e-05
6.11954e-05
4.82197e-05
6.54274e-05
7.06787e-05
7.06828e-05
5.46681e-05
7.06726e-05
7.06688e-05
6.8552e-05
7.36226e-05
6.88098e-05
7.35699e-05
7.13813e-05
7.13876e-05
6.85437e-05
7.36226e-05
6.87668e-05
7.35847e-05
4.11866e-05
4.11829e-05
4.1189e-05
4.12642e-05
4.12698e-05
4.12699e-05
4.12772e-05
6.09894e-05
6.50042e-05
4.83423e-05
5.26428e-05
6.11853e-05
6.474e-05
4.83417e-05
7.13831e-05
7.14131e-05
6.09819e-05
4.83369e-05
6.49714e-05
5.26372e-05
6.11566e-05
4.83371e-05
6.47655e-05
6.9852e-05
6.98532e-05
5.4356e-05
6.95769e-05
6.95975e-05
6.87774e-05
7.37451e-05
6.84712e-05
7.39433e-05
7.15717e-05
7.17097e-05
6.88602e-05
7.37848e-05
6.85302e-05
7.39563e-05
4.12933e-05
4.13007e-05
4.13014e-05
4.14552e-05
4.14572e-05
4.14693e-05
4.14624e-05
6.09878e-05
6.47635e-05
4.83263e-05
5.26256e-05
6.0868e-05
6.51397e-05
4.83308e-05
7.16076e-05
7.17036e-05
6.10313e-05
4.83294e-05
6.4875e-05
5.2653e-05
6.08963e-05
4.83378e-05
6.52159e-05
6.98511e-05
6.99016e-05
5.44944e-05
7.04295e-05
7.04635e-05
6.92601e-05
7.40919e-05
6.92073e-05
7.40564e-05
7.17579e-05
7.16995e-05
6.91822e-05
7.40618e-05
6.91674e-05
7.40073e-05
4.15324e-05
4.15359e-05
4.15357e-05
4.17179e-05
4.17055e-05
4.16901e-05
4.17021e-05
6.14131e-05
6.55647e-05
4.84954e-05
5.29616e-05
6.13357e-05
6.55814e-05
4.8565e-05
7.1701e-05
7.16323e-05
6.13633e-05
4.8503e-05
6.54854e-05
5.29212e-05
6.1322e-05
4.85584e-05
6.54601e-05
7.09068e-05
7.09081e-05
5.49192e-05
7.08523e-05
7.0834e-05
6.86261e-05
7.37625e-05
6.88769e-05
7.37387e-05
7.15422e-05
7.1567e-05
6.86799e-05
7.37835e-05
6.88252e-05
7.37777e-05
4.17497e-05
4.17351e-05
4.17443e-05
4.18136e-05
4.18174e-05
4.18236e-05
4.1817e-05
6.1042e-05
6.50625e-05
4.8647e-05
5.28852e-05
6.12402e-05
6.48839e-05
4.86442e-05
7.15779e-05
7.16397e-05
6.10332e-05
4.86308e-05
6.50213e-05
5.28803e-05
6.11761e-05
4.86299e-05
6.49557e-05
6.98901e-05
6.98725e-05
5.45863e-05
6.97764e-05
6.97787e-05
6.87606e-05
7.38794e-05
6.86418e-05
7.38917e-05
7.16714e-05
7.16736e-05
6.88339e-05
7.39154e-05
6.87619e-05
7.39182e-05
4.18252e-05
4.18417e-05
4.18287e-05
4.18494e-05
4.18685e-05
4.18923e-05
4.18885e-05
6.10846e-05
6.50554e-05
4.861e-05
5.28374e-05
6.09917e-05
6.51442e-05
4.86079e-05
7.17024e-05
7.16554e-05
6.11522e-05
4.86223e-05
6.52199e-05
5.28887e-05
6.10491e-05
4.86229e-05
6.52683e-05
7.03057e-05
7.03638e-05
5.46702e-05
7.03754e-05
7.04345e-05
6.87209e-05
7.38449e-05
6.87164e-05
7.39935e-05
7.16667e-05
7.18061e-05
6.86445e-05
7.38311e-05
6.86783e-05
7.39276e-05
4.19057e-05
4.19197e-05
4.19242e-05
4.20555e-05
4.20507e-05
4.2017e-05
4.20384e-05
6.10553e-05
6.4989e-05
4.86324e-05
5.2862e-05
6.10791e-05
6.4995e-05
4.86474e-05
7.15789e-05
7.17258e-05
6.09722e-05
4.86485e-05
6.48484e-05
5.28314e-05
6.10687e-05
4.8652e-05
6.47846e-05
6.99286e-05
6.9923e-05
5.46243e-05
6.99615e-05
6.99382e-05
6.9448e-05
7.43393e-05
6.93214e-05
7.42558e-05
7.19345e-05
7.17799e-05
6.94237e-05
7.43099e-05
6.91876e-05
7.42899e-05
4.20942e-05
4.20656e-05
4.2078e-05
4.21675e-05
4.21393e-05
4.21671e-05
4.21413e-05
6.13565e-05
6.56239e-05
4.87404e-05
5.30596e-05
6.12304e-05
6.56692e-05
4.87628e-05
7.19883e-05
7.19352e-05
6.13839e-05
4.86995e-05
6.55462e-05
5.30763e-05
6.11367e-05
4.8746e-05
6.58179e-05
7.11039e-05
7.11005e-05
5.5032e-05
7.11579e-05
7.11792e-05
6.80233e-05
7.35432e-05
6.8547e-05
7.35017e-05
7.14819e-05
7.16012e-05
6.81979e-05
7.36462e-05
6.88363e-05
7.35572e-05
4.2133e-05
4.21661e-05
4.21399e-05
4.20996e-05
4.21334e-05
4.21212e-05
4.21339e-05
6.0762e-05
6.46823e-05
4.87447e-05
5.27467e-05
6.10948e-05
6.44164e-05
4.86934e-05
7.15032e-05
7.14773e-05
6.08166e-05
4.87656e-05
6.51073e-05
5.28143e-05
6.12692e-05
4.87338e-05
6.43896e-05
6.95208e-05
6.957e-05
5.42802e-05
6.91193e-05
6.90979e-05
6.9022e-05
7.41849e-05
6.83433e-05
7.43863e-05
7.20048e-05
7.20183e-05
6.87102e-05
7.4061e-05
6.80953e-05
7.43013e-05
4.21539e-05
4.21236e-05
4.21471e-05
4.2217e-05
4.22143e-05
4.21947e-05
4.22132e-05
6.09767e-05
6.51059e-05
4.86259e-05
5.28922e-05
6.07011e-05
6.54534e-05
4.86344e-05
7.18206e-05
7.2009e-05
6.0771e-05
4.85939e-05
6.43346e-05
5.26902e-05
6.05444e-05
4.85962e-05
6.50372e-05
7.01985e-05
7.00973e-05
5.47499e-05
7.07223e-05
7.07247e-05
6.87432e-05
7.4037e-05
6.92269e-05
7.37907e-05
7.16635e-05
7.16466e-05
6.90437e-05
7.41393e-05
6.9155e-05
7.39046e-05
4.22292e-05
4.22518e-05
4.22463e-05
4.22989e-05
4.22855e-05
4.23806e-05
4.23317e-05
6.10709e-05
6.51416e-05
4.87068e-05
5.28457e-05
6.11541e-05
6.47018e-05
4.87142e-05
7.19518e-05
7.18371e-05
6.13799e-05
4.8726e-05
6.5675e-05
5.30865e-05
6.12896e-05
4.87774e-05
6.56183e-05
7.04849e-05
7.0718e-05
5.47723e-05
7.00817e-05
7.02866e-05
6.92379e-05
7.40389e-05
6.85807e-05
7.47197e-05
7.20079e-05
7.23804e-05
6.9186e-05
7.40173e-05
6.88715e-05
7.46069e-05
4.23335e-05
4.24071e-05
4.23893e-05
4.25087e-05
4.2475e-05
4.23784e-05
4.24163e-05
6.12105e-05
6.50115e-05
4.87352e-05
5.31028e-05
6.10028e-05
6.59662e-05
4.8772e-05
7.18454e-05
7.20069e-05
6.11177e-05
4.88147e-05
6.52968e-05
5.30118e-05
6.12147e-05
4.8781e-05
6.53022e-05
7.0687e-05
7.06938e-05
5.53329e-05
7.19666e-05
7.17249e-05
7.00286e-05
7.49788e-05
7.02902e-05
7.37955e-05
7.21482e-05
7.13303e-05
6.97333e-05
7.48904e-05
6.99267e-05
7.39355e-05
4.24655e-05
4.23472e-05
4.23963e-05
4.2101e-05
4.21414e-05
4.21018e-05
4.2051e-05
6.15915e-05
6.69113e-05
4.87969e-05
5.31876e-05
6.16888e-05
6.5969e-05
4.87634e-05
7.19936e-05
7.16024e-05
6.08441e-05
4.8633e-05
6.5502e-05
5.27779e-05
6.10247e-05
4.85535e-05
6.51203e-05
7.23824e-05
7.19664e-05
5.45943e-05
6.95274e-05
6.92999e-05
6.30394e-05
7.14647e-05
6.52755e-05
7.13593e-05
7.01833e-05
7.04773e-05
6.35775e-05
7.16616e-05
6.57647e-05
7.14856e-05
4.17915e-05
4.18515e-05
4.17712e-05
4.13612e-05
4.14659e-05
4.15786e-05
4.15292e-05
5.74186e-05
6.1206e-05
4.80389e-05
5.07789e-05
5.91682e-05
5.91005e-05
4.76121e-05
7.05644e-05
7.06072e-05
5.83599e-05
4.80581e-05
6.27145e-05
5.11927e-05
5.9527e-05
4.77759e-05
6.06929e-05
6.34473e-05
6.39722e-05
5.09407e-05
6.19353e-05
6.2588e-05
7.01978e-05
7.43064e-05
6.39595e-05
7.71539e-05
7.27753e-05
7.43948e-05
6.92099e-05
7.39259e-05
6.37903e-05
7.68017e-05
4.15318e-05
4.16265e-05
4.15886e-05
4.28149e-05
4.25592e-05
4.24597e-05
4.26022e-05
5.99832e-05
6.15127e-05
4.74758e-05
5.19812e-05
5.72546e-05
6.66425e-05
4.76712e-05
7.21668e-05
7.40118e-05
5.96568e-05
4.77054e-05
6.13623e-05
5.18071e-05
5.80814e-05
4.7844e-05
6.50274e-05
6.76039e-05
6.77216e-05
5.53464e-05
7.49201e-05
7.46822e-05
7.41211e-05
7.86625e-05
7.77154e-05
8.2591e-05
7.58519e-05
7.26322e-05
7.4831e-05
7.88166e-05
7.75076e-05
8.36178e-05
3.01066e-05
3.68455e-05
3.68278e-05
4.58713e-05
3.02841e-05
3.82157e-05
3.82193e-05
6.80793e-05
7.39772e-05
5.01154e-05
5.39767e-05
6.70995e-05
7.58792e-05
4.85329e-05
7.65555e-05
7.54146e-05
6.81655e-05
4.99812e-05
7.42445e-05
5.43087e-05
6.6582e-05
4.84875e-05
7.76574e-05
8.48141e-05
8.46327e-05
6.14239e-05
8.50253e-05
8.50707e-05
7.11832e-05
7.11869e-05
5.36043e-05
6.97421e-05
6.97576e-05
7.12649e-05
7.11951e-05
7.12662e-05
7.11985e-05
5.36508e-05
6.99965e-05
7.00075e-05
6.97817e-05
6.97988e-05
6.84987e-05
7.34088e-05
6.06391e-05
5.15576e-05
6.47037e-05
4.69e-05
6.06421e-05
5.15619e-05
6.47151e-05
4.69023e-05
6.84959e-05
7.35025e-05
7.34185e-05
6.85612e-05
6.84989e-05
7.35007e-05
7.34204e-05
6.85606e-05
6.06387e-05
5.16012e-05
6.48242e-05
4.70133e-05
6.47116e-05
4.6955e-05
6.06838e-05
6.06412e-05
5.16034e-05
6.48104e-05
4.7015e-05
6.47192e-05
4.69571e-05
6.06839e-05
5.36082e-05
6.97561e-05
6.97503e-05
7.11791e-05
7.12618e-05
7.11916e-05
5.36516e-05
6.99722e-05
6.99586e-05
6.97747e-05
6.97725e-05
7.12568e-05
7.11889e-05
6.0646e-05
5.15584e-05
6.47132e-05
4.69027e-05
6.85057e-05
7.34121e-05
6.06448e-05
5.15627e-05
4.69035e-05
6.47171e-05
6.85084e-05
7.35068e-05
7.34282e-05
6.85758e-05
6.06463e-05
5.16025e-05
6.48322e-05
4.70168e-05
6.47218e-05
4.6958e-05
6.06941e-05
6.8507e-05
7.34989e-05
7.34245e-05
6.85734e-05
6.06452e-05
5.16064e-05
4.70179e-05
6.48258e-05
4.69593e-05
6.4726e-05
6.06926e-05
6.85156e-05
7.34122e-05
6.06526e-05
5.15688e-05
4.69048e-05
6.47335e-05
6.85157e-05
7.34143e-05
6.06526e-05
5.16068e-05
6.48091e-05
4.70197e-05
6.47235e-05
4.69608e-05
6.06913e-05
6.85148e-05
7.34948e-05
7.34219e-05
6.85629e-05
6.06524e-05
5.16134e-05
4.70218e-05
6.48152e-05
4.69623e-05
6.47386e-05
6.06914e-05
6.8515e-05
7.34913e-05
7.34234e-05
6.85623e-05
5.36138e-05
6.97697e-05
6.97678e-05
7.11839e-05
7.12592e-05
7.11967e-05
5.36588e-05
6.99849e-05
6.99661e-05
6.98109e-05
6.97946e-05
7.12562e-05
7.11936e-05
6.0655e-05
5.15695e-05
4.69076e-05
6.4738e-05
6.85133e-05
7.3412e-05
6.85167e-05
7.34156e-05
6.06523e-05
5.16107e-05
4.70216e-05
6.48163e-05
4.69631e-05
6.47316e-05
6.0689e-05
6.06542e-05
5.16136e-05
4.70232e-05
6.48174e-05
4.69645e-05
6.47422e-05
6.06905e-05
6.85126e-05
7.34926e-05
7.34219e-05
6.85595e-05
6.85157e-05
7.34946e-05
7.3425e-05
6.85615e-05
7.11841e-05
7.11859e-05
5.3665e-05
6.99579e-05
6.99666e-05
6.98012e-05
6.98082e-05
7.12544e-05
7.1193e-05
7.12567e-05
7.11947e-05
7.12734e-05
7.13064e-05
7.12743e-05
7.13063e-05
7.00605e-05
7.0069e-05
5.38782e-05
7.01866e-05
7.01883e-05
7.13078e-05
7.13055e-05
7.13088e-05
7.13055e-05
5.39409e-05
7.01889e-05
7.01874e-05
7.01976e-05
7.0198e-05
6.87228e-05
7.352e-05
6.85846e-05
7.35792e-05
6.08234e-05
6.4863e-05
4.70789e-05
5.17966e-05
6.07042e-05
6.50044e-05
4.71506e-05
6.08227e-05
6.48474e-05
4.70799e-05
5.17934e-05
6.07039e-05
6.49987e-05
4.7151e-05
6.87462e-05
7.3583e-05
7.35803e-05
6.87871e-05
6.87467e-05
7.3593e-05
7.35861e-05
6.87906e-05
6.08469e-05
5.18696e-05
6.50501e-05
4.73074e-05
6.50276e-05
4.72286e-05
6.09359e-05
6.08466e-05
5.1868e-05
6.50673e-05
4.73078e-05
6.50283e-05
4.72287e-05
6.09382e-05
7.00398e-05
7.00256e-05
5.38732e-05
7.01988e-05
7.0179e-05
7.12664e-05
7.13077e-05
7.13164e-05
7.13127e-05
5.39423e-05
7.02255e-05
7.0207e-05
7.02192e-05
7.02004e-05
7.13128e-05
7.13077e-05
6.08244e-05
6.48691e-05
4.70823e-05
5.17969e-05
6.07137e-05
6.50018e-05
4.71537e-05
6.87156e-05
7.35146e-05
6.85955e-05
7.35654e-05
6.08215e-05
4.70833e-05
6.48583e-05
5.17937e-05
6.07119e-05
4.71538e-05
6.49835e-05
6.87374e-05
7.35807e-05
7.35772e-05
6.87718e-05
6.08453e-05
5.1869e-05
6.50429e-05
4.7308e-05
6.50231e-05
4.72306e-05
6.09251e-05
6.87347e-05
7.35758e-05
7.35705e-05
6.87704e-05
6.08425e-05
5.18644e-05
4.7307e-05
6.50323e-05
4.72303e-05
6.50065e-05
6.09231e-05
6.87034e-05
7.35132e-05
6.85828e-05
7.35741e-05
6.08109e-05
4.70862e-05
6.48427e-05
5.17956e-05
6.07082e-05
4.7155e-05
6.49748e-05
6.87002e-05
7.35084e-05
6.85818e-05
7.35668e-05
6.08356e-05
5.18681e-05
6.506e-05
4.73063e-05
6.50177e-05
4.7229e-05
6.093e-05
6.87287e-05
7.35915e-05
7.35816e-05
6.87855e-05
6.08332e-05
5.18657e-05
4.7306e-05
6.50453e-05
4.72297e-05
6.50023e-05
6.09268e-05
6.87254e-05
7.35848e-05
7.35743e-05
6.87821e-05
7.00424e-05
7.00223e-05
5.38671e-05
7.01614e-05
7.01543e-05
7.12648e-05
7.13032e-05
7.13078e-05
7.13012e-05
5.39303e-05
7.01712e-05
7.01748e-05
7.01743e-05
7.01705e-05
7.13114e-05
7.13038e-05
6.08095e-05
4.70873e-05
6.48451e-05
5.17951e-05
6.07073e-05
4.71558e-05
6.49778e-05
6.86961e-05
7.35092e-05
6.85792e-05
7.35655e-05
6.86987e-05
7.35117e-05
6.85811e-05
7.35705e-05
6.08302e-05
5.18646e-05
4.73058e-05
6.50394e-05
4.72294e-05
6.50014e-05
6.09213e-05
6.08314e-05
5.18652e-05
4.73065e-05
6.50482e-05
4.72304e-05
6.50054e-05
6.09231e-05
6.87204e-05
7.35828e-05
7.35724e-05
6.87747e-05
6.87234e-05
7.35884e-05
7.3578e-05
6.87779e-05
7.12635e-05
7.13043e-05
7.12658e-05
7.13068e-05
5.39328e-05
7.01851e-05
7.01938e-05
7.01762e-05
7.01851e-05
7.13122e-05
7.13051e-05
7.1315e-05
7.13076e-05
7.13019e-05
7.13021e-05
7.13036e-05
7.13065e-05
7.01512e-05
7.01486e-05
5.40375e-05
7.0012e-05
7.00223e-05
7.1347e-05
7.13035e-05
7.1354e-05
7.13086e-05
5.40689e-05
6.99951e-05
7.0018e-05
6.99902e-05
7.00044e-05
6.87584e-05
7.35874e-05
6.87878e-05
7.35609e-05
6.09391e-05
6.50434e-05
4.73842e-05
5.20377e-05
6.09398e-05
6.49812e-05
4.74526e-05
6.09427e-05
6.50645e-05
4.73855e-05
5.20456e-05
6.09428e-05
6.50074e-05
4.74551e-05
6.87262e-05
7.35795e-05
7.35504e-05
6.86932e-05
6.87307e-05
7.35726e-05
7.35566e-05
6.8694e-05
6.09315e-05
5.20739e-05
6.49403e-05
4.75638e-05
6.49553e-05
4.75127e-05
6.09222e-05
6.09348e-05
5.20815e-05
6.49376e-05
4.75668e-05
6.49722e-05
4.7516e-05
6.09235e-05
7.0208e-05
7.01913e-05
5.4049e-05
7.00427e-05
7.00316e-05
7.13069e-05
7.13027e-05
7.13361e-05
7.1303e-05
5.40765e-05
6.99771e-05
6.99712e-05
7.00035e-05
6.99956e-05
7.1334e-05
7.1301e-05
6.09345e-05
6.50361e-05
4.73833e-05
5.20349e-05
6.09294e-05
6.49824e-05
4.74507e-05
6.87456e-05
7.35712e-05
6.87671e-05
7.35592e-05
6.0933e-05
4.73824e-05
6.50283e-05
5.20342e-05
6.09277e-05
4.745e-05
6.49843e-05
6.87285e-05
7.35986e-05
7.35627e-05
6.8714e-05
6.09292e-05
5.20718e-05
6.49531e-05
4.75631e-05
6.49613e-05
4.75108e-05
6.09291e-05
6.87268e-05
7.35917e-05
7.35589e-05
6.87113e-05
6.09278e-05
5.20734e-05
4.75637e-05
6.4955e-05
4.7511e-05
6.49644e-05
6.09274e-05
6.87655e-05
7.35883e-05
6.87843e-05
7.35651e-05
6.09449e-05
4.73826e-05
6.50435e-05
5.20411e-05
6.0935e-05
4.74528e-05
6.50049e-05
6.8763e-05
7.35821e-05
6.87809e-05
7.35633e-05
6.09407e-05
5.2083e-05
6.49401e-05
4.75691e-05
6.49736e-05
4.75168e-05
6.09316e-05
6.87428e-05
7.35731e-05
7.35602e-05
6.87047e-05
6.09386e-05
5.20809e-05
4.75689e-05
6.49497e-05
4.75159e-05
6.49763e-05
6.09307e-05
6.8741e-05
7.35749e-05
7.35596e-05
6.87042e-05
7.01472e-05
7.01604e-05
5.40408e-05
7.00321e-05
7.0046e-05
7.13077e-05
7.131e-05
7.13512e-05
7.13093e-05
5.40744e-05
7.00221e-05
7.00165e-05
7.00149e-05
7.00228e-05
7.13462e-05
7.13104e-05
6.09439e-05
4.73827e-05
6.50463e-05
5.20401e-05
6.09316e-05
4.74525e-05
6.50098e-05
6.87587e-05
7.35804e-05
6.87739e-05
7.35674e-05
6.87607e-05
7.35855e-05
6.8777e-05
7.35687e-05
6.09377e-05
5.20791e-05
4.75683e-05
6.49623e-05
4.75145e-05
6.49795e-05
6.09339e-05
6.09385e-05
5.20801e-05
4.75692e-05
6.49597e-05
4.75156e-05
6.49829e-05
6.09344e-05
6.87402e-05
7.35846e-05
7.35653e-05
6.87112e-05
6.87414e-05
7.35841e-05
7.35659e-05
6.87117e-05
7.13079e-05
7.13071e-05
7.1311e-05
7.13111e-05
5.40764e-05
6.99951e-05
7.00132e-05
7.00136e-05
7.00287e-05
7.13399e-05
7.13064e-05
7.13446e-05
7.13107e-05
7.1358e-05
7.1403e-05
7.13646e-05
7.14047e-05
7.00436e-05
7.00771e-05
5.41912e-05
7.02422e-05
7.02619e-05
7.13991e-05
7.14019e-05
7.13985e-05
7.14031e-05
5.42389e-05
7.02779e-05
7.02861e-05
7.02691e-05
7.02845e-05
6.8749e-05
7.35915e-05
6.8691e-05
7.36701e-05
6.09494e-05
6.49464e-05
4.76114e-05
5.21943e-05
6.09192e-05
6.50724e-05
4.76582e-05
6.09469e-05
6.4938e-05
4.76131e-05
5.21862e-05
6.092e-05
6.50386e-05
4.76582e-05
6.87867e-05
7.36851e-05
7.36804e-05
6.88534e-05
6.87835e-05
7.36954e-05
7.36826e-05
6.88572e-05
6.09664e-05
5.22433e-05
6.51443e-05
4.77636e-05
6.51054e-05
4.77093e-05
6.10505e-05
6.09637e-05
5.22344e-05
6.51558e-05
4.77621e-05
6.50832e-05
4.7708e-05
6.10519e-05
6.99915e-05
6.99872e-05
5.41735e-05
7.0215e-05
7.02056e-05
7.13442e-05
7.14016e-05
7.14098e-05
7.14072e-05
5.42253e-05
7.03047e-05
7.02899e-05
7.02634e-05
7.02528e-05
7.1405e-05
7.14026e-05
6.09715e-05
6.49623e-05
4.7613e-05
5.21972e-05
6.09295e-05
6.50902e-05
4.76625e-05
6.87833e-05
7.36111e-05
6.87122e-05
7.36712e-05
6.09694e-05
4.76138e-05
6.49625e-05
5.21972e-05
6.09278e-05
4.7663e-05
6.50801e-05
6.88087e-05
7.3683e-05
7.3683e-05
6.88475e-05
6.09877e-05
5.22466e-05
6.51456e-05
4.777e-05
6.51181e-05
4.77153e-05
6.1051e-05
6.8807e-05
7.36776e-05
7.36772e-05
6.88464e-05
6.09857e-05
5.22451e-05
4.77697e-05
6.51354e-05
4.77155e-05
6.51078e-05
6.10494e-05
6.87396e-05
7.35892e-05
6.86994e-05
7.36673e-05
6.09474e-05
4.76171e-05
6.49506e-05
5.21942e-05
6.09267e-05
4.76624e-05
6.50461e-05
6.87398e-05
7.35914e-05
6.86991e-05
7.36662e-05
6.09621e-05
5.22365e-05
6.51513e-05
4.77629e-05
6.5081e-05
4.77098e-05
6.10497e-05
6.87726e-05
7.36947e-05
7.36802e-05
6.88568e-05
6.09621e-05
5.22413e-05
4.77645e-05
6.5148e-05
4.77115e-05
6.50853e-05
6.10486e-05
6.87726e-05
7.36907e-05
7.36781e-05
6.8855e-05
7.0071e-05
7.00421e-05
5.41893e-05
7.02442e-05
7.02242e-05
7.13555e-05
7.14005e-05
7.1395e-05
7.13984e-05
5.42354e-05
7.02692e-05
7.0266e-05
7.02672e-05
7.02522e-05
7.13996e-05
7.14e-05
6.09578e-05
4.76185e-05
6.49612e-05
5.2196e-05
6.09318e-05
4.76653e-05
6.50591e-05
6.87531e-05
7.36004e-05
6.87081e-05
7.36665e-05
6.87565e-05
7.36011e-05
6.87089e-05
7.36717e-05
6.09714e-05
5.2245e-05
4.77683e-05
6.51369e-05
4.77151e-05
6.50941e-05
6.10474e-05
6.09728e-05
5.22434e-05
4.77686e-05
6.51497e-05
4.77155e-05
6.50955e-05
6.10499e-05
6.87829e-05
7.3684e-05
7.36756e-05
6.88465e-05
6.87872e-05
7.36911e-05
7.36818e-05
6.88504e-05
7.13496e-05
7.1403e-05
7.13542e-05
7.14051e-05
5.42342e-05
7.02857e-05
7.02926e-05
7.02547e-05
7.02662e-05
7.14055e-05
7.14038e-05
7.14065e-05
7.14055e-05
7.13849e-05
7.13585e-05
7.13826e-05
7.13582e-05
7.02495e-05
7.02479e-05
5.42445e-05
6.9973e-05
6.99633e-05
7.13951e-05
7.13553e-05
7.14004e-05
7.13558e-05
5.42525e-05
6.98353e-05
6.98375e-05
6.99046e-05
6.98978e-05
6.88189e-05
7.36902e-05
6.88573e-05
7.36236e-05
6.10464e-05
6.51406e-05
4.78193e-05
5.23506e-05
6.10545e-05
6.50266e-05
4.78696e-05
6.10515e-05
6.51555e-05
4.78188e-05
5.23573e-05
6.10572e-05
6.50738e-05
4.7871e-05
6.87568e-05
7.35985e-05
7.3595e-05
6.86635e-05
6.8765e-05
7.36e-05
7.36054e-05
6.86652e-05
6.1026e-05
5.23599e-05
6.4882e-05
4.79443e-05
6.49652e-05
4.79121e-05
6.09689e-05
6.10318e-05
5.23695e-05
6.48842e-05
4.79483e-05
6.50016e-05
4.79153e-05
6.09718e-05
7.02965e-05
7.02807e-05
5.42617e-05
7.00403e-05
7.00173e-05
7.13949e-05
7.13617e-05
7.13864e-05
7.13578e-05
5.4269e-05
6.98282e-05
6.98105e-05
6.99473e-05
6.9927e-05
7.13826e-05
7.13533e-05
6.10331e-05
6.514e-05
4.78242e-05
5.23496e-05
6.105e-05
6.50122e-05
4.7872e-05
6.87816e-05
7.36611e-05
6.88429e-05
7.36002e-05
6.1031e-05
4.78239e-05
6.51302e-05
5.2348e-05
6.10484e-05
4.78717e-05
6.50038e-05
6.87312e-05
7.36084e-05
7.3597e-05
6.8659e-05
6.10089e-05
5.23574e-05
6.48803e-05
4.79415e-05
6.49536e-05
4.79114e-05
6.0959e-05
6.87279e-05
7.3602e-05
7.35901e-05
6.86553e-05
6.10065e-05
5.23564e-05
4.79412e-05
6.48755e-05
4.79111e-05
6.49463e-05
6.09562e-05
6.88294e-05
7.36906e-05
6.88584e-05
7.36246e-05
6.10545e-05
4.78208e-05
6.51472e-05
5.23598e-05
6.10557e-05
4.78734e-05
6.50638e-05
6.88267e-05
7.36861e-05
6.88565e-05
7.36204e-05
6.10387e-05
5.2371e-05
6.48773e-05
4.79507e-05
6.49967e-05
4.79174e-05
6.09757e-05
6.87783e-05
7.35966e-05
7.36046e-05
6.86652e-05
6.10367e-05
5.2372e-05
4.7951e-05
6.48835e-05
4.7918e-05
6.49947e-05
6.09743e-05
6.87756e-05
7.35954e-05
7.36017e-05
6.86637e-05
7.02346e-05
7.02466e-05
5.42452e-05
6.99541e-05
6.99875e-05
7.13885e-05
7.13628e-05
7.14017e-05
7.13552e-05
5.42537e-05
6.98356e-05
6.98438e-05
6.98908e-05
6.99165e-05
7.13962e-05
7.13589e-05
6.1047e-05
4.78242e-05
6.51482e-05
5.23589e-05
6.1054e-05
4.78752e-05
6.50574e-05
6.88094e-05
7.36776e-05
6.88466e-05
7.36178e-05
6.88102e-05
7.36843e-05
6.88505e-05
7.36202e-05
6.10262e-05
5.2364e-05
4.79481e-05
6.48901e-05
4.79162e-05
6.49764e-05
6.09701e-05
6.10272e-05
5.23703e-05
4.79499e-05
6.48906e-05
4.79179e-05
6.49911e-05
6.09698e-05
6.87578e-05
7.36037e-05
7.36035e-05
6.86632e-05
6.87569e-05
7.36034e-05
7.36046e-05
6.86618e-05
7.13955e-05
7.1364e-05
7.13961e-05
7.13663e-05
5.42698e-05
6.98288e-05
6.9845e-05
6.99354e-05
6.99416e-05
7.1386e-05
7.13566e-05
7.1392e-05
7.13601e-05
7.1413e-05
7.15345e-05
7.14192e-05
7.1541e-05
6.98438e-05
6.98502e-05
5.43265e-05
7.02174e-05
7.02515e-05
7.15944e-05
7.15514e-05
7.1596e-05
7.15568e-05
5.44191e-05
7.0662e-05
7.06809e-05
7.03659e-05
7.0397e-05
6.86765e-05
7.36126e-05
6.86484e-05
7.37571e-05
6.09615e-05
6.4878e-05
4.79704e-05
5.24092e-05
6.09504e-05
6.49885e-05
4.79976e-05
6.09593e-05
6.48736e-05
4.79734e-05
5.24064e-05
6.09512e-05
6.49447e-05
4.79987e-05
6.87435e-05
7.3889e-05
7.38043e-05
6.89907e-05
6.87371e-05
7.38948e-05
7.38006e-05
6.89906e-05
6.09822e-05
5.24709e-05
6.53622e-05
4.80896e-05
6.50871e-05
4.80362e-05
6.11584e-05
6.09792e-05
5.24606e-05
6.53646e-05
4.80883e-05
6.50507e-05
4.80356e-05
6.11567e-05
6.98293e-05
6.98126e-05
5.43124e-05
7.01575e-05
7.01517e-05
7.13991e-05