/*--------------------------------*- C++ -*----------------------------------*\
| =========                 |                                                 |
| \\      /  F ield         | OpenFOAM: The Open Source CFD Toolbox           |
|  \\    /   O peration     | Version:  v1906                                 |
|   \\  /    A nd           | Web:      www.OpenFOAM.com                      |
|    \\/     M anipulation  |                                                 |
\*---------------------------------------------------------------------------*/
FoamFile
{
    version     2.0;
    format      ascii;
    class       volScalarField;
    location    "875";
    object      k;
}
// * * * * * * * * * * * * * * * * * * * * * * * * * * * * * * * * * * * * * //

dimensions      [0 2 -2 0 0 0 0];


internalField   nonuniform List<scalar> 
43248
(
1.49432e-05
1.61906e-05
1.61586e-05
1.8331e-05
1.46131e-05
1.62809e-05
1.62888e-05
1.86938e-05
1.43417e-05
1.6457e-05
1.65448e-05
1.92463e-05
1.4105e-05
1.68999e-05
1.68573e-05
2.03965e-05
1.39219e-05
1.72024e-05
1.71931e-05
2.09942e-05
1.37872e-05
1.7753e-05
1.77125e-05
2.21487e-05
1.3691e-05
1.8257e-05
1.82968e-05
2.29391e-05
1.36373e-05
1.88795e-05
1.88654e-05
2.40704e-05
1.36339e-05
1.95908e-05
1.96057e-05
2.50955e-05
1.3685e-05
2.0356e-05
2.03593e-05
2.62038e-05
1.37697e-05
2.11711e-05
2.11741e-05
2.72718e-05
1.39044e-05
2.20257e-05
2.20291e-05
2.83415e-05
1.40849e-05
2.29389e-05
2.29412e-05
2.94352e-05
1.43134e-05
2.38853e-05
2.3888e-05
3.04838e-05
1.45885e-05
2.48556e-05
2.4857e-05
3.1523e-05
1.49086e-05
2.58543e-05
2.58575e-05
3.25346e-05
1.52756e-05
2.68708e-05
2.68727e-05
3.35328e-05
1.56885e-05
2.78995e-05
2.79016e-05
3.45036e-05
1.61462e-05
2.89312e-05
2.89346e-05
3.54496e-05
1.66469e-05
2.99687e-05
2.9971e-05
3.63763e-05
1.71898e-05
3.10004e-05
3.10035e-05
3.72673e-05
1.77735e-05
3.20219e-05
3.2024e-05
3.81422e-05
1.83938e-05
3.30386e-05
3.3042e-05
3.89906e-05
1.90501e-05
3.40316e-05
3.40337e-05
3.98091e-05
1.97391e-05
3.50107e-05
3.5014e-05
4.06086e-05
2.04556e-05
3.59669e-05
3.59691e-05
4.13812e-05
2.11992e-05
3.69006e-05
3.69036e-05
4.21266e-05
1.81987e-05
1.61641e-05
1.61687e-05
1.81799e-05
1.61645e-05
1.6129e-05
1.61684e-05
1.61632e-05
1.80193e-05
1.61287e-05
1.61636e-05
1.81792e-05
1.83664e-05
1.85485e-05
1.62015e-05
1.61912e-05
1.62464e-05
1.62351e-05
1.82952e-05
1.85231e-05
1.6202e-05
1.6159e-05
1.62469e-05
1.62461e-05
1.61967e-05
1.62345e-05
1.62496e-05
1.81439e-05
1.85903e-05
1.61971e-05
1.6246e-05
1.62501e-05
1.85932e-05
1.86221e-05
1.94379e-05
1.62725e-05
1.62815e-05
1.64884e-05
1.6427e-05
1.86546e-05
1.91451e-05
1.6273e-05
1.62887e-05
1.64885e-05
1.64712e-05
1.62951e-05
1.64261e-05
1.64147e-05
1.87076e-05
1.93664e-05
1.62955e-05
1.64702e-05
1.64149e-05
1.91484e-05
1.95591e-05
1.99267e-05
1.6542e-05
1.64581e-05
1.67176e-05
1.67826e-05
1.92158e-05
2.021e-05
1.65425e-05
1.65459e-05
1.67184e-05
1.67799e-05
1.64725e-05
1.67814e-05
1.6776e-05
1.95434e-05
2.01688e-05
1.64732e-05
1.6779e-05
1.67769e-05
2.01984e-05
2.01183e-05
2.09312e-05
1.68161e-05
1.69011e-05
1.71349e-05
1.71238e-05
2.04857e-05
2.08786e-05
1.68166e-05
1.68578e-05
1.71344e-05
1.70924e-05
1.68676e-05
1.71225e-05
1.71186e-05
2.03052e-05
2.07672e-05
1.68682e-05
1.70912e-05
1.71184e-05
2.08416e-05
2.10983e-05
2.18808e-05
1.72246e-05
1.72038e-05
1.76084e-05
1.7611e-05
2.09785e-05
2.19133e-05
1.72244e-05
1.71943e-05
1.76084e-05
1.75925e-05
1.7206e-05
1.7609e-05
1.76102e-05
2.09384e-05
2.18443e-05
1.72061e-05
1.7591e-05
1.76104e-05
2.19066e-05
2.21132e-05
2.2798e-05
1.77429e-05
1.77549e-05
1.8119e-05
1.81154e-05
2.21662e-05
2.27644e-05
1.77429e-05
1.7714e-05
1.81181e-05
1.81437e-05
1.77488e-05
1.81136e-05
1.81093e-05
2.20623e-05
2.28597e-05
1.77488e-05
1.8142e-05
1.8109e-05
2.27491e-05
2.30184e-05
2.37752e-05
1.82809e-05
1.82591e-05
1.87268e-05
1.87226e-05
2.29408e-05
2.37795e-05
1.82806e-05
1.82985e-05
1.87264e-05
1.87134e-05
1.82537e-05
1.87196e-05
1.87415e-05
2.30922e-05
2.37215e-05
1.82537e-05
1.8711e-05
1.87413e-05
2.38538e-05
2.39256e-05
2.48062e-05
1.88616e-05
1.88822e-05
1.93868e-05
1.94044e-05
2.39873e-05
2.48583e-05
1.88609e-05
1.88675e-05
1.93856e-05
1.94165e-05
1.88981e-05
1.94022e-05
1.94094e-05
2.39135e-05
2.49087e-05
1.88976e-05
1.94149e-05
1.94086e-05
2.48558e-05
2.50964e-05
2.60252e-05
1.95898e-05
1.9593e-05
2.018e-05
2.01697e-05
2.51042e-05
2.59806e-05
1.95888e-05
1.96073e-05
2.01787e-05
2.01736e-05
1.95906e-05
2.01666e-05
2.01675e-05
2.51652e-05
2.59869e-05
1.95898e-05
2.01712e-05
2.01667e-05
2.59705e-05
2.62416e-05
2.70307e-05
2.03724e-05
2.0359e-05
2.09609e-05
2.09621e-05
2.62011e-05
2.70384e-05
2.03711e-05
2.03617e-05
2.09593e-05
2.09676e-05
2.03608e-05
2.09589e-05
2.09578e-05
2.62066e-05
2.70495e-05
2.03598e-05
2.09649e-05
2.09565e-05
2.70281e-05
2.7261e-05
2.8127e-05
2.11667e-05
2.11742e-05
2.18144e-05
2.18114e-05
2.72818e-05
2.81097e-05
2.11652e-05
2.11766e-05
2.18123e-05
2.18109e-05
2.11707e-05
2.18085e-05
2.18153e-05
2.72896e-05
2.81073e-05
2.11695e-05
2.18085e-05
2.18136e-05
2.81177e-05
2.83637e-05
2.91839e-05
2.20365e-05
2.20288e-05
2.27076e-05
2.27086e-05
2.8337e-05
2.91904e-05
2.20345e-05
2.20315e-05
2.27054e-05
2.27122e-05
2.20296e-05
2.27053e-05
2.27099e-05
2.83418e-05
2.91965e-05
2.20279e-05
2.27093e-05
2.27081e-05
2.91915e-05
2.94165e-05
3.0252e-05
2.29378e-05
2.29422e-05
2.36465e-05
2.36509e-05
2.9431e-05
3.0258e-05
2.29357e-05
2.29438e-05
2.3644e-05
2.36518e-05
2.29449e-05
2.36478e-05
2.36492e-05
2.94318e-05
3.02596e-05
2.29431e-05
2.36491e-05
2.3647e-05
3.02548e-05
3.04847e-05
3.12963e-05
2.38856e-05
2.38885e-05
2.46161e-05
2.46114e-05
3.04861e-05
3.1283e-05
2.38833e-05
2.38906e-05
2.46134e-05
2.46124e-05
2.38878e-05
2.46082e-05
2.46164e-05
3.04896e-05
3.12846e-05
2.38856e-05
2.46098e-05
2.46141e-05
3.12947e-05
3.15256e-05
3.23069e-05
2.48623e-05
2.48587e-05
2.56062e-05
2.56078e-05
3.15152e-05
3.23105e-05
2.48597e-05
2.48596e-05
2.56033e-05
2.56096e-05
2.48624e-05
2.56047e-05
2.56067e-05
3.15154e-05
3.23152e-05
2.486e-05
2.5607e-05
2.56042e-05
3.2308e-05
3.25316e-05
3.33093e-05
2.58568e-05
2.58575e-05
2.66184e-05
2.6617e-05
3.25325e-05
3.33053e-05
2.58541e-05
2.586e-05
2.66155e-05
2.66188e-05
2.58588e-05
2.6614e-05
2.66216e-05
3.25379e-05
3.33077e-05
2.58563e-05
2.66164e-05
2.6619e-05
3.33134e-05
3.3531e-05
3.42839e-05
2.68741e-05
2.68738e-05
2.76436e-05
2.76451e-05
3.353e-05
3.42855e-05
2.68713e-05
2.68749e-05
2.76406e-05
2.76466e-05
2.68764e-05
2.76422e-05
2.76459e-05
3.35306e-05
3.42882e-05
2.68737e-05
2.76444e-05
2.7643e-05
3.42862e-05
3.45015e-05
3.52385e-05
2.7902e-05
2.79024e-05
2.86773e-05
2.86753e-05
3.45008e-05
3.52321e-05
2.78992e-05
2.79038e-05
2.86744e-05
2.86775e-05
2.79041e-05
2.86726e-05
2.86793e-05
3.45032e-05
3.52364e-05
2.79014e-05
2.86755e-05
2.86764e-05
3.52387e-05
3.54501e-05
3.61626e-05
2.89363e-05
2.89339e-05
2.97115e-05
2.97127e-05
3.54442e-05
3.61659e-05
2.89336e-05
2.89365e-05
2.97086e-05
2.9714e-05
2.89377e-05
2.971e-05
2.97153e-05
3.54488e-05
3.61673e-05
2.8935e-05
2.97122e-05
2.97125e-05
3.61693e-05
3.63676e-05
3.70667e-05
2.99694e-05
2.99713e-05
3.07441e-05
3.07449e-05
3.63722e-05
3.70658e-05
2.99669e-05
2.99727e-05
3.07415e-05
3.07474e-05
2.99745e-05
3.07425e-05
3.07482e-05
3.63736e-05
3.70699e-05
2.99717e-05
3.0746e-05
3.07455e-05
3.70681e-05
3.72689e-05
3.79479e-05
3.10024e-05
3.10027e-05
3.17729e-05
3.17699e-05
3.72674e-05
3.79384e-05
3.1e-05
3.10049e-05
3.17704e-05
3.17702e-05
3.10048e-05
3.17675e-05
3.1773e-05
3.72702e-05
3.79387e-05
3.10021e-05
3.17689e-05
3.17703e-05
3.79448e-05
3.81426e-05
3.87928e-05
3.20278e-05
3.20243e-05
3.27857e-05
3.27879e-05
3.81332e-05
3.88007e-05
3.20255e-05
3.20254e-05
3.27834e-05
3.27908e-05
3.20291e-05
3.27857e-05
3.27922e-05
3.8135e-05
3.88051e-05
3.20263e-05
3.27898e-05
3.27896e-05
3.88031e-05
3.89813e-05
3.96282e-05
3.30365e-05
3.30407e-05
3.37876e-05
3.37873e-05
3.89913e-05
3.96201e-05
3.30345e-05
3.30429e-05
3.37853e-05
3.37876e-05
3.30433e-05
3.37854e-05
3.37894e-05
3.89937e-05
3.96207e-05
3.30408e-05
3.3787e-05
3.37869e-05
3.96236e-05
3.98144e-05
4.04263e-05
3.40365e-05
3.40336e-05
3.4771e-05
3.47693e-05
3.98032e-05
4.04263e-05
3.40345e-05
3.40344e-05
3.47689e-05
3.47714e-05
3.40371e-05
3.47673e-05
3.4774e-05
3.9805e-05
4.04296e-05
3.40345e-05
3.47708e-05
3.47716e-05
4.0431e-05
4.06025e-05
4.12055e-05
3.50121e-05
3.50126e-05
3.57307e-05
3.5732e-05
4.06057e-05
4.12037e-05
3.50103e-05
3.50145e-05
3.57286e-05
3.57326e-05
3.50165e-05
3.57304e-05
3.57351e-05
4.06079e-05
4.12047e-05
3.50142e-05
3.57324e-05
3.57328e-05
4.12077e-05
4.13798e-05
4.19591e-05
3.59685e-05
3.59686e-05
3.66718e-05
3.66713e-05
4.13764e-05
4.19585e-05
3.59667e-05
3.59693e-05
3.66698e-05
3.66728e-05
3.59722e-05
3.66696e-05
3.66743e-05
4.13777e-05
4.1961e-05
3.597e-05
3.66726e-05
3.66722e-05
4.19602e-05
4.21252e-05
3.69022e-05
3.69023e-05
4.21252e-05
3.69005e-05
3.69037e-05
3.69051e-05
4.21272e-05
3.6903e-05
1.50287e-05
1.50297e-05
1.50248e-05
1.50287e-05
5.35834e-05
7.00471e-05
5.2962e-05
7.0055e-05
6.96196e-05
6.9598e-05
5.35835e-05
7.00514e-05
5.29432e-05
7.00614e-05
1.49424e-05
1.49378e-05
1.49426e-05
1.46908e-05
1.4689e-05
1.46908e-05
1.46915e-05
2.94125e-05
4.53092e-05
1.49146e-05
1.62044e-05
2.88345e-05
4.55858e-05
1.48644e-05
6.96271e-05
6.96043e-05
2.94046e-05
1.49121e-05
4.5229e-05
1.61874e-05
2.88256e-05
1.48623e-05
4.56473e-05
5.90844e-05
5.90931e-05
1.84655e-05
5.9098e-05
5.91092e-05
5.48958e-05
7.00853e-05
5.42928e-05
7.01195e-05
6.95801e-05
6.95433e-05
5.48674e-05
7.00914e-05
5.4304e-05
7.01228e-05
1.46133e-05
1.46145e-05
1.46158e-05
1.44072e-05
1.43998e-05
1.44049e-05
1.43984e-05
3.11099e-05
4.64814e-05
1.47388e-05
1.6348e-05
3.05114e-05
4.70005e-05
1.4707e-05
6.95438e-05
6.95341e-05
3.10988e-05
1.47402e-05
4.63709e-05
1.63416e-05
3.05255e-05
1.47071e-05
4.68214e-05
5.99835e-05
5.99935e-05
1.88973e-05
5.99571e-05
5.99639e-05
5.59241e-05
7.01418e-05
5.55135e-05
7.01583e-05
6.94729e-05
6.94825e-05
5.59581e-05
7.01495e-05
5.55183e-05
7.01672e-05
1.43306e-05
1.43415e-05
1.43329e-05
1.41568e-05
1.41637e-05
1.41658e-05
1.41638e-05
3.27343e-05
4.73707e-05
1.4634e-05
1.65245e-05
3.22095e-05
4.78477e-05
1.46162e-05
6.949e-05
6.94819e-05
3.27562e-05
1.46394e-05
4.74607e-05
1.66231e-05
3.22091e-05
1.46229e-05
4.79664e-05
6.02524e-05
6.02725e-05
1.95275e-05
6.04402e-05
6.04594e-05
5.6899e-05
7.01932e-05
5.65085e-05
7.0213e-05
6.94357e-05
6.9419e-05
5.68794e-05
7.01967e-05
5.6508e-05
7.02173e-05
1.4116e-05
1.41121e-05
1.41123e-05
1.3966e-05
1.39664e-05
1.39601e-05
1.3965e-05
3.44105e-05
4.85901e-05
1.4608e-05
1.6991e-05
3.38539e-05
4.9003e-05
1.46124e-05
6.94384e-05
6.94189e-05
3.43944e-05
1.46074e-05
4.8569e-05
1.6935e-05
3.38545e-05
1.46092e-05
4.90196e-05
6.08151e-05
6.08233e-05
2.05683e-05
6.11012e-05
6.11082e-05
5.76137e-05
7.02203e-05
5.73319e-05
7.02424e-05
6.93611e-05
6.93675e-05
5.76189e-05
7.02268e-05
5.7337e-05
7.02494e-05
1.392e-05
1.39172e-05
1.39203e-05
1.38163e-05
1.38162e-05
1.38141e-05
1.38164e-05
3.59021e-05
4.94225e-05
1.46394e-05
1.73136e-05
3.53949e-05
4.97828e-05
1.46572e-05
6.93729e-05
6.9374e-05
3.59005e-05
1.46371e-05
4.94119e-05
1.73208e-05
3.53949e-05
1.46567e-05
4.98877e-05
6.10637e-05
6.10774e-05
2.12741e-05
6.15032e-05
6.15129e-05
5.83185e-05
7.02675e-05
5.80376e-05
7.02686e-05
6.93249e-05
6.9301e-05
5.83041e-05
7.02726e-05
5.80447e-05
7.0273e-05
1.37884e-05
1.37835e-05
1.37882e-05
1.37086e-05
1.37086e-05
1.37112e-05
1.37078e-05
3.7378e-05
5.04372e-05
1.47466e-05
1.78762e-05
3.68504e-05
5.06672e-05
1.47848e-05
6.93106e-05
6.93158e-05
3.73629e-05
1.47453e-05
5.02968e-05
1.78398e-05
3.68585e-05
1.47825e-05
5.06234e-05
6.17089e-05
6.17261e-05
2.24067e-05
6.17525e-05
6.17517e-05
5.88638e-05
7.03037e-05
5.86126e-05
7.03156e-05
6.92868e-05
6.92706e-05
5.88794e-05
7.03126e-05
5.86205e-05
7.03221e-05
1.36885e-05
1.36938e-05
1.36884e-05
1.36491e-05
1.36464e-05
1.36476e-05
1.36491e-05
3.86861e-05
5.11615e-05
1.49181e-05
1.8411e-05
3.81995e-05
5.1478e-05
1.49718e-05
6.92828e-05
6.92596e-05
3.86951e-05
1.49209e-05
5.12054e-05
1.84392e-05
3.82077e-05
1.49755e-05
5.14576e-05
6.20404e-05
6.2069e-05
2.32698e-05
6.22591e-05
6.22651e-05
5.93382e-05
7.03191e-05
5.91604e-05
7.03368e-05
6.92352e-05
6.92316e-05
5.93349e-05
7.03241e-05
5.91552e-05
7.03431e-05
1.3639e-05
1.36379e-05
1.36419e-05
1.36291e-05
1.36329e-05
1.36338e-05
1.36345e-05
3.9923e-05
5.18571e-05
1.51591e-05
1.90469e-05
3.9476e-05
5.21443e-05
1.52296e-05
6.92353e-05
6.92354e-05
3.99173e-05
1.51593e-05
5.18284e-05
1.90384e-05
3.94731e-05
1.52294e-05
5.21339e-05
6.23882e-05
6.24054e-05
2.43311e-05
6.25493e-05
6.25547e-05
5.98046e-05
7.03605e-05
5.9611e-05
7.03717e-05
6.92126e-05
6.92075e-05
5.98089e-05
7.03673e-05
5.96161e-05
7.03778e-05
1.36367e-05
1.36388e-05
1.36378e-05
1.36697e-05
1.36678e-05
1.36695e-05
1.36677e-05
4.10691e-05
5.25446e-05
1.54675e-05
1.97838e-05
4.06348e-05
5.2832e-05
1.5556e-05
6.92136e-05
6.92058e-05
4.10706e-05
1.5469e-05
5.2557e-05
1.97954e-05
4.06385e-05
1.5558e-05
5.28225e-05
6.27578e-05
6.2773e-05
2.54175e-05
6.28997e-05
6.29106e-05
6.01949e-05
7.03868e-05
6.00378e-05
7.03985e-05
6.91804e-05
6.91778e-05
6.0196e-05
7.03926e-05
6.00382e-05
7.04046e-05
1.36823e-05
1.36837e-05
1.36828e-05
1.37443e-05
1.37432e-05
1.37446e-05
1.37433e-05
4.21265e-05
5.31766e-05
1.5844e-05
2.05495e-05
4.17243e-05
5.34102e-05
1.59469e-05
6.91805e-05
6.91789e-05
4.2125e-05
1.58452e-05
5.31746e-05
2.05533e-05
4.17246e-05
1.59481e-05
5.34065e-05
6.30916e-05
6.31034e-05
2.64966e-05
6.31561e-05
6.31684e-05
6.05628e-05
7.0417e-05
6.04078e-05
7.04321e-05
6.91641e-05
6.9159e-05
6.05643e-05
7.04231e-05
6.04106e-05
7.0438e-05
1.37699e-05
1.3771e-05
1.377e-05
1.3866e-05
1.3866e-05
1.38664e-05
1.38674e-05
4.3107e-05
5.37849e-05
1.62793e-05
2.13835e-05
4.27197e-05
5.40092e-05
1.63983e-05
6.91619e-05
6.91573e-05
4.31063e-05
1.62804e-05
5.37848e-05
2.13824e-05
4.27216e-05
1.63994e-05
5.3993e-05
6.34003e-05
6.34122e-05
2.75947e-05
6.35117e-05
6.35238e-05
6.08999e-05
7.04511e-05
6.07604e-05
7.0465e-05
6.91456e-05
6.91483e-05
6.0903e-05
7.04572e-05
6.07612e-05
7.04716e-05
1.39034e-05
1.39042e-05
1.39046e-05
1.40354e-05
1.40347e-05
1.40363e-05
1.40358e-05
4.40162e-05
5.43141e-05
1.67765e-05
2.22479e-05
4.36568e-05
5.45403e-05
1.69097e-05
6.91477e-05
6.91485e-05
4.40168e-05
1.67773e-05
5.43232e-05
2.2253e-05
4.36566e-05
1.69111e-05
5.45443e-05
6.36251e-05
6.36362e-05
2.86346e-05
6.37401e-05
6.37527e-05
6.12183e-05
7.04864e-05
6.10846e-05
7.05041e-05
6.91411e-05
6.91434e-05
6.12205e-05
7.04925e-05
6.1087e-05
7.05104e-05
1.40849e-05
1.40863e-05
1.40862e-05
1.42519e-05
1.42528e-05
1.42538e-05
1.42534e-05
4.48762e-05
5.48518e-05
1.73319e-05
2.31745e-05
4.45284e-05
5.5069e-05
1.74803e-05
6.91399e-05
6.91426e-05
4.4876e-05
1.73335e-05
5.48517e-05
2.31749e-05
4.45292e-05
1.7482e-05
5.50634e-05
6.39537e-05
6.39656e-05
2.97388e-05
6.40325e-05
6.40436e-05
6.15168e-05
7.0525e-05
6.13938e-05
7.05434e-05
6.91355e-05
6.91399e-05
6.15207e-05
7.05315e-05
6.13963e-05
7.055e-05
1.43141e-05
1.43153e-05
1.43148e-05
1.45153e-05
1.45143e-05
1.45156e-05
1.45162e-05
4.56792e-05
5.53486e-05
1.79449e-05
2.41238e-05
4.53538e-05
5.55429e-05
1.81059e-05
6.91357e-05
6.9139e-05
4.56801e-05
1.79461e-05
5.53526e-05
2.41267e-05
4.53536e-05
1.81077e-05
5.55464e-05
6.4181e-05
6.41927e-05
3.07744e-05
6.42924e-05
6.43043e-05
6.18036e-05
7.05677e-05
6.16829e-05
7.05869e-05
6.91404e-05
6.91472e-05
6.18071e-05
7.05741e-05
6.16859e-05
7.05936e-05
1.45872e-05
1.45884e-05
1.45892e-05
1.48243e-05
1.4824e-05
1.48255e-05
1.48251e-05
4.64419e-05
5.58183e-05
1.86074e-05
2.51051e-05
4.61309e-05
5.60193e-05
1.87812e-05
6.91394e-05
6.91467e-05
4.64421e-05
1.86088e-05
5.58159e-05
2.51065e-05
4.6131e-05
1.87831e-05
5.60208e-05
6.44318e-05
6.4443e-05
3.18033e-05
6.45297e-05
6.45412e-05
6.20773e-05
7.0613e-05
6.19635e-05
7.06342e-05
6.91462e-05
6.91557e-05
6.20817e-05
7.06197e-05
6.19673e-05
7.06411e-05
1.49084e-05
1.49101e-05
1.49097e-05
1.51794e-05
1.51789e-05
1.51807e-05
1.51812e-05
4.71676e-05
5.62714e-05
1.93204e-05
2.61053e-05
4.68733e-05
5.64487e-05
1.95055e-05
6.91453e-05
6.91548e-05
4.71684e-05
1.9322e-05
5.62736e-05
2.61088e-05
4.68738e-05
1.95078e-05
5.64533e-05
6.46678e-05
6.46793e-05
3.28161e-05
6.47795e-05
6.47913e-05
6.23482e-05
7.0664e-05
6.22342e-05
7.06862e-05
6.91631e-05
6.9173e-05
6.2352e-05
7.06707e-05
6.22381e-05
7.06932e-05
1.52751e-05
1.52769e-05
1.52774e-05
1.55809e-05
1.5581e-05
1.55828e-05
1.55825e-05
4.78643e-05
5.67093e-05
2.00778e-05
2.7128e-05
4.75801e-05
5.68869e-05
2.02741e-05
6.91609e-05
6.91718e-05
4.78646e-05
2.00797e-05
5.67082e-05
2.71296e-05
4.75809e-05
2.02764e-05
5.68874e-05
6.49008e-05
6.4912e-05
3.37999e-05
6.49972e-05
6.50085e-05
6.26105e-05
7.07179e-05
6.24998e-05
7.07421e-05
6.91803e-05
6.91928e-05
6.26147e-05
7.0725e-05
6.2504e-05
7.07493e-05
1.56885e-05
1.56903e-05
1.56901e-05
1.60276e-05
1.6027e-05
1.60289e-05
1.60292e-05
4.85324e-05
5.71234e-05
2.08778e-05
2.81569e-05
4.82599e-05
5.7291e-05
2.10836e-05
6.91785e-05
6.91914e-05
4.85331e-05
2.08797e-05
5.71257e-05
2.81589e-05
4.82606e-05
2.10862e-05
5.72917e-05
6.51349e-05
6.51465e-05
3.47671e-05
6.52287e-05
6.52403e-05
6.28701e-05
7.07761e-05
6.27602e-05
7.08022e-05
6.92051e-05
6.922e-05
6.28747e-05
7.07833e-05
6.27644e-05
7.08095e-05
1.61453e-05
1.61475e-05
1.61478e-05
1.65177e-05
1.65173e-05
1.65196e-05
1.65198e-05
4.91758e-05
5.75225e-05
2.17141e-05
2.91905e-05
4.89128e-05
5.76882e-05
2.19285e-05
6.92036e-05
6.92182e-05
4.91769e-05
2.17164e-05
5.75263e-05
2.91937e-05
4.89137e-05
2.19316e-05
5.76908e-05
6.53515e-05
6.53629e-05
3.57052e-05
6.54464e-05
6.5458e-05
6.31267e-05
7.08381e-05
6.30189e-05
7.08659e-05
6.92341e-05
6.92493e-05
6.31309e-05
7.08454e-05
6.30228e-05
7.08732e-05
1.66468e-05
1.66491e-05
1.66492e-05
1.705e-05
1.705e-05
1.70525e-05
1.70527e-05
4.97992e-05
5.79147e-05
2.25845e-05
3.02266e-05
4.95446e-05
5.8068e-05
2.28067e-05
6.92322e-05
6.92484e-05
4.97998e-05
2.25869e-05
5.79147e-05
3.02294e-05
4.95452e-05
2.28097e-05
5.80715e-05
6.55781e-05
6.55894e-05
3.66239e-05
6.5663e-05
6.56745e-05
6.33828e-05
7.09052e-05
6.32742e-05
7.09347e-05
6.92677e-05
6.92843e-05
6.33869e-05
7.09124e-05
6.32787e-05
7.09417e-05
1.71896e-05
1.71922e-05
1.71922e-05
1.76241e-05
1.76231e-05
1.76254e-05
1.76255e-05
5.04005e-05
5.82864e-05
2.3483e-05
3.12573e-05
5.01542e-05
5.84392e-05
2.37116e-05
6.92652e-05
6.92817e-05
5.04013e-05
2.34859e-05
5.82894e-05
3.12595e-05
5.01554e-05
2.37151e-05
5.84381e-05
6.5779e-05
6.57905e-05
3.75067e-05
6.58658e-05
6.58773e-05
6.36342e-05
7.09749e-05
6.35276e-05
7.10058e-05
6.93041e-05
6.93259e-05
6.36388e-05
7.09818e-05
6.35312e-05
7.10127e-05
1.77723e-05
1.77746e-05
1.7775e-05
1.82353e-05
1.82347e-05
1.82377e-05
1.82382e-05
5.09824e-05
5.86414e-05
2.44058e-05
3.22766e-05
5.07438e-05
5.8792e-05
2.46399e-05
6.93032e-05
6.93253e-05
5.09831e-05
2.44084e-05
5.8642e-05
3.22798e-05
5.0744e-05
2.4643e-05
5.87981e-05
6.59956e-05
6.60069e-05
3.83803e-05
6.60877e-05
6.60995e-05
6.38863e-05
7.10482e-05
6.37807e-05
7.10807e-05
6.93476e-05
6.9366e-05
6.38899e-05
7.10547e-05
6.37854e-05
7.1087e-05
1.83938e-05
1.83969e-05
1.83972e-05
1.88827e-05
1.88831e-05
1.88858e-05
1.88857e-05
5.15491e-05
5.90023e-05
2.53511e-05
3.32894e-05
5.13178e-05
5.91401e-05
2.55906e-05
6.93443e-05
6.9363e-05
5.15496e-05
2.53546e-05
5.90048e-05
3.32918e-05
5.13193e-05
2.55944e-05
5.91377e-05
6.6194e-05
6.62056e-05
3.92135e-05
6.62674e-05
6.62786e-05
6.41351e-05
7.11267e-05
6.40294e-05
7.11596e-05
6.93904e-05
6.94145e-05
6.41396e-05
7.11331e-05
6.40329e-05
7.1166e-05
1.90499e-05
1.90526e-05
1.90527e-05
1.95643e-05
1.95626e-05
1.95658e-05
1.95664e-05
5.20909e-05
5.93261e-05
2.63135e-05
3.42774e-05
5.18682e-05
5.94656e-05
2.65558e-05
6.93895e-05
6.94137e-05
5.20914e-05
2.63167e-05
5.93269e-05
3.42802e-05
5.18681e-05
2.6559e-05
5.94708e-05
6.63917e-05
6.6403e-05
4.00325e-05
6.64818e-05
6.64937e-05
6.43779e-05
7.12035e-05
6.42762e-05
7.12381e-05
6.94409e-05
6.94634e-05
6.43817e-05
7.12096e-05
6.42807e-05
7.1244e-05
1.97377e-05
1.97411e-05
1.97416e-05
2.02737e-05
2.0274e-05
2.02771e-05
2.02774e-05
5.26186e-05
5.96601e-05
2.72881e-05
3.52525e-05
5.24031e-05
5.97914e-05
2.75337e-05
6.94382e-05
6.94609e-05
5.2619e-05
2.7292e-05
5.96623e-05
3.52552e-05
5.24044e-05
2.75376e-05
5.97905e-05
6.65847e-05
6.65963e-05
4.08209e-05
6.6659e-05
6.66704e-05
6.46206e-05
7.12877e-05
6.45178e-05
7.13228e-05
6.94916e-05
6.95172e-05
6.46249e-05
7.12938e-05
6.45214e-05
7.13289e-05
2.04558e-05
2.04589e-05
2.04592e-05
2.10111e-05
2.10104e-05
2.10137e-05
2.10142e-05
5.31225e-05
5.99681e-05
2.82716e-05
3.62024e-05
5.29156e-05
6.00976e-05
2.85175e-05
6.94902e-05
6.95161e-05
5.31228e-05
2.82751e-05
5.99685e-05
3.62049e-05
5.29156e-05
2.85211e-05
6.01009e-05
6.67749e-05
6.67863e-05
4.15887e-05
6.68552e-05
6.68669e-05
7.13693e-05
6.47561e-05
6.95458e-05
7.13753e-05
6.47605e-05
2.11985e-05
2.1202e-05
2.12023e-05
6.02744e-05
2.9257e-05
5.34104e-05
6.95436e-05
2.9261e-05
6.02764e-05
5.34113e-05
6.69526e-05
6.69641e-05
6.96655e-05
6.96671e-05
5.91717e-05
5.91827e-05
7.00434e-05
5.27936e-05
7.00419e-05
5.27921e-05
4.50888e-05
1.4966e-05
2.85325e-05
4.51336e-05
1.49666e-05
2.85331e-05
6.96535e-05
5.91027e-05
5.90918e-05
6.96514e-05
7.00476e-05
5.27803e-05
4.50947e-05
1.49661e-05
2.85319e-05
7.00354e-05
5.27745e-05
1.49643e-05
4.50218e-05
2.85295e-05
4.51217e-05
1.49667e-05
2.85353e-05
7.00407e-05
5.28059e-05
1.49661e-05
4.50608e-05
2.85342e-05
7.00359e-05
5.28044e-05
6.9655e-05
5.90551e-05
5.90433e-05
6.96532e-05
1.49645e-05
4.50299e-05
2.85311e-05
1.49663e-05
4.50628e-05
2.85333e-05
7.0034e-05
5.27875e-05
7.00397e-05
5.27912e-05
5.90446e-05
5.90524e-05
6.96494e-05
6.96508e-05
6.96349e-05
6.95851e-05
6.96366e-05
6.95871e-05
5.92038e-05
5.92144e-05
1.848e-05
5.91603e-05
5.91725e-05
6.95719e-05
6.95735e-05
6.95742e-05
6.95757e-05
1.85262e-05
5.96341e-05
5.96478e-05
5.91681e-05
5.91807e-05
5.35826e-05
7.00437e-05
5.29592e-05
7.00553e-05
2.9422e-05
4.53261e-05
1.49146e-05
1.62229e-05
2.88324e-05
4.56623e-05
1.48651e-05
2.94196e-05
4.53164e-05
1.49145e-05
1.62051e-05
2.88325e-05
4.55838e-05
1.48644e-05
5.36825e-05
7.00791e-05
7.00559e-05
5.41646e-05
5.36826e-05
7.00987e-05
7.00596e-05
5.41643e-05
2.97021e-05
1.62341e-05
4.61776e-05
1.47759e-05
4.57871e-05
1.48198e-05
3.02324e-05
2.97002e-05
1.62161e-05
4.62588e-05
1.47749e-05
4.57462e-05
1.48185e-05
3.02326e-05
5.91004e-05
5.90886e-05
1.83832e-05
5.90943e-05
5.90794e-05
6.96172e-05
6.95959e-05
6.95931e-05
6.95941e-05
1.84401e-05
5.97394e-05
5.97272e-05
5.92033e-05
5.91872e-05
6.95909e-05
6.95915e-05
2.94163e-05
4.53294e-05
1.49147e-05
1.62234e-05
2.88277e-05
4.56587e-05
1.48651e-05
5.35845e-05
7.00399e-05
5.29365e-05
7.00634e-05
2.94122e-05
1.49119e-05
4.52405e-05
1.61879e-05
2.88239e-05
1.48621e-05
4.56463e-05
5.3689e-05
7.00862e-05
7.00626e-05
5.41917e-05
2.9702e-05
1.62347e-05
4.61996e-05
1.47761e-05
4.57756e-05
1.48199e-05
3.02422e-05
5.36915e-05
7.0084e-05
7.00665e-05
5.41934e-05
2.96999e-05
1.62148e-05
1.47758e-05
4.6217e-05
1.48178e-05
4.58464e-05
3.02442e-05
5.35629e-05
7.00426e-05
5.296e-05
7.00541e-05
2.94133e-05
1.49144e-05
4.52838e-05
1.62179e-05
2.88336e-05
1.48646e-05
4.56068e-05
5.35632e-05
7.00395e-05
5.29604e-05
7.00531e-05
2.96933e-05
1.62153e-05
4.62484e-05
1.47751e-05
4.57387e-05
1.48186e-05
3.02317e-05
5.36657e-05
7.00991e-05
7.00586e-05
5.41773e-05
2.96939e-05
1.62307e-05
1.47761e-05
4.62898e-05
1.48192e-05
4.57243e-05
3.02321e-05
5.36652e-05
7.00952e-05
7.00565e-05
5.41756e-05
5.90765e-05
5.90636e-05
1.83239e-05
5.92372e-05
5.92352e-05
6.96254e-05
6.96029e-05
6.95611e-05
6.9594e-05
1.84425e-05
5.95469e-05
5.95331e-05
5.93888e-05
5.93816e-05
6.95592e-05
6.95928e-05
2.94074e-05
1.49146e-05
4.5286e-05
1.62184e-05
2.88288e-05
1.48648e-05
4.5609e-05
5.35648e-05
7.00382e-05
5.2936e-05
7.00619e-05
5.35638e-05
7.00434e-05
5.29401e-05
7.00592e-05
2.96928e-05
1.62145e-05
1.47761e-05
4.62146e-05
1.48181e-05
4.58386e-05
3.02432e-05
2.96939e-05
1.62312e-05
1.47764e-05
4.62986e-05
1.48195e-05
4.57283e-05
3.0242e-05
5.36748e-05
7.00841e-05
7.0065e-05
5.42059e-05
5.36725e-05
7.01014e-05
7.0063e-05
5.42027e-05
6.96223e-05
6.9593e-05
6.96242e-05
6.95951e-05
1.85309e-05
5.98806e-05
5.98926e-05
5.9138e-05
5.91506e-05
6.96017e-05
6.9589e-05
6.96037e-05
6.95912e-05
6.95555e-05
6.95345e-05
6.95575e-05
6.95368e-05
5.97034e-05
5.97139e-05
1.89163e-05
5.98177e-05
5.98287e-05
6.95084e-05
6.95281e-05
6.95106e-05
6.95307e-05
1.9154e-05
6.0314e-05
6.03204e-05
5.99816e-05
5.99937e-05
5.48952e-05
7.01064e-05
5.42905e-05
7.0134e-05
3.1097e-05
4.63768e-05
1.47388e-05
1.63384e-05
3.05073e-05
4.67969e-05
1.47064e-05
3.11011e-05
4.648e-05
1.47386e-05
1.63487e-05
3.05082e-05
4.70162e-05
1.47069e-05
5.49987e-05
7.01411e-05
7.01243e-05
5.54349e-05
5.49986e-05
7.01306e-05
7.01322e-05
5.54358e-05
3.13893e-05
1.64204e-05
4.74657e-05
1.46575e-05
4.70045e-05
1.46816e-05
3.19551e-05
3.13926e-05
1.63987e-05
4.72892e-05
1.46546e-05
4.71453e-05
1.4681e-05
3.19538e-05
5.98614e-05
5.98544e-05
1.89074e-05
6.00836e-05
6.00745e-05
6.95782e-05
6.95409e-05
6.94789e-05
6.95118e-05
1.90489e-05
6.00054e-05
5.99931e-05
6.00803e-05
6.00712e-05
6.94766e-05
6.95091e-05
3.1091e-05
4.63843e-05
1.47391e-05
1.63385e-05
3.05186e-05
4.67994e-05
1.47067e-05
5.48672e-05
7.00879e-05
5.43036e-05
7.01155e-05
3.10915e-05
1.47398e-05
4.63851e-05
1.63418e-05
3.05213e-05
1.47068e-05
4.68081e-05
5.49672e-05
7.01486e-05
7.01279e-05
5.54312e-05
3.13775e-05
1.64205e-05
4.74768e-05
1.46576e-05
4.70022e-05
1.46817e-05
3.19475e-05
5.49677e-05
7.0136e-05
7.01189e-05
5.54335e-05
3.13763e-05
1.64032e-05
1.46564e-05
4.73082e-05
1.46805e-05
4.6989e-05
3.1946e-05
5.49094e-05
7.01073e-05
5.4308e-05
7.01335e-05
3.11107e-05
1.47401e-05
4.65396e-05
1.63501e-05
3.05113e-05
1.47074e-05
4.69448e-05
5.4909e-05
7.01024e-05
5.43092e-05
7.01214e-05
3.14011e-05
1.63978e-05
4.73019e-05
1.46545e-05
4.7136e-05
1.4681e-05
3.19536e-05
5.50134e-05
7.01293e-05
7.01314e-05
5.5427e-05
3.13998e-05
1.63854e-05
1.46533e-05
4.73055e-05
1.46801e-05
4.70177e-05
3.19514e-05
5.50115e-05
7.01305e-05
7.01203e-05
5.54246e-05
5.95775e-05
5.95684e-05
1.89258e-05
5.99243e-05
5.99234e-05
6.95427e-05
6.95328e-05
6.94956e-05
6.95155e-05
1.90954e-05
6.00534e-05
6.00419e-05
5.99727e-05
5.99668e-05
6.94931e-05
6.95134e-05
3.11019e-05
1.47406e-05
4.65473e-05
1.63502e-05
3.05245e-05
1.47078e-05
4.69481e-05
5.48828e-05
7.00881e-05
5.43186e-05
7.0116e-05
5.48814e-05
7.01078e-05
5.43176e-05
7.01238e-05
3.13857e-05
1.64027e-05
1.46565e-05
4.73034e-05
1.46807e-05
4.69889e-05
3.19444e-05
3.13894e-05
1.63853e-05
1.46537e-05
4.73087e-05
1.46804e-05
4.7014e-05
3.19413e-05
5.49827e-05
7.01331e-05
7.01188e-05
5.54243e-05
5.49798e-05
7.01369e-05
7.01229e-05
5.54207e-05
6.95849e-05
6.95249e-05
6.95868e-05
6.95268e-05
1.90305e-05
6.01037e-05
6.01107e-05
5.99151e-05
5.992e-05
6.94976e-05
6.95012e-05
6.95009e-05
6.95034e-05
6.94813e-05
6.94607e-05
6.94836e-05
6.94637e-05
6.03158e-05
6.03218e-05
1.96374e-05
6.03251e-05
6.03393e-05
6.94434e-05
6.9454e-05
6.94458e-05
6.94574e-05
1.97288e-05
6.07316e-05
6.07521e-05
6.04224e-05
6.04491e-05
5.59313e-05
7.01322e-05
5.55149e-05
7.01692e-05
3.27591e-05
4.76083e-05
1.46394e-05
1.65893e-05
3.22188e-05
4.78651e-05
1.46216e-05
3.27545e-05
4.73579e-05
1.46343e-05
1.6526e-05
3.2215e-05
4.78745e-05
1.46166e-05
5.6008e-05
7.01901e-05
7.01636e-05
5.64278e-05
5.60162e-05
7.01973e-05
7.01753e-05
5.6434e-05
3.3016e-05
1.66436e-05
4.8416e-05
1.46026e-05
4.80299e-05
1.46096e-05
3.35767e-05
3.30138e-05
1.66485e-05
4.84371e-05
1.46062e-05
4.80612e-05
1.46081e-05
3.3583e-05
6.00163e-05
6.0003e-05
1.94135e-05
6.05453e-05
6.05269e-05
6.94702e-05
6.94802e-05
6.94447e-05
6.94713e-05
1.9673e-05
6.07268e-05
6.07174e-05
6.06374e-05
6.06229e-05
6.94433e-05
6.94691e-05
3.27771e-05
4.76007e-05
1.46398e-05
1.65899e-05
3.22169e-05
4.78804e-05
1.46222e-05
5.5959e-05
7.01401e-05
5.55205e-05
7.01678e-05
3.27772e-05
1.46395e-05
4.74792e-05
1.66243e-05
3.2215e-05
1.46231e-05
4.79619e-05
5.60408e-05
7.01944e-05
7.01719e-05
5.64347e-05
3.30369e-05
1.66445e-05
4.84322e-05
1.46034e-05
4.80394e-05
1.46109e-05
3.35904e-05
5.60408e-05
7.01876e-05
7.01708e-05
5.64302e-05
3.30379e-05
1.67028e-05
1.46075e-05
4.84164e-05
1.46145e-05
4.81199e-05
3.35927e-05
5.59022e-05
7.01305e-05
5.55e-05
7.01674e-05
3.27373e-05
1.46344e-05
4.74783e-05
1.65678e-05
3.22062e-05
1.46182e-05
4.78978e-05
5.59011e-05
7.01348e-05
5.5498e-05
7.01639e-05
3.2999e-05
1.66471e-05
4.84337e-05
1.46063e-05
4.80485e-05
1.46078e-05
3.3593e-05
5.5996e-05
7.01998e-05
7.01747e-05
5.64595e-05
3.30017e-05
1.66758e-05
1.46061e-05
4.84214e-05
1.46105e-05
4.80558e-05
3.35939e-05
5.59943e-05
7.01933e-05
7.01688e-05
5.64557e-05
6.01796e-05
6.01634e-05
1.9794e-05
6.0581e-05
6.05677e-05
6.94881e-05
6.94804e-05
6.94449e-05
6.94612e-05
1.99609e-05
6.06845e-05
6.06804e-05
6.06038e-05
6.05902e-05
6.9444e-05
6.946e-05
3.27531e-05
1.4635e-05
4.74857e-05
1.65687e-05
3.22055e-05
1.4619e-05
4.79096e-05
5.59309e-05
7.01371e-05
5.55045e-05
7.01677e-05
5.59359e-05
7.01421e-05
5.55019e-05
7.01715e-05
3.30242e-05
1.67018e-05
1.46079e-05
4.84182e-05
1.46144e-05
4.81117e-05
3.36016e-05
3.30249e-05
1.66769e-05
1.46071e-05
4.84314e-05
1.46119e-05
4.80639e-05
3.36042e-05
5.60224e-05
7.01899e-05
7.01713e-05
5.64552e-05
5.60296e-05
7.01964e-05
7.01757e-05
5.64615e-05
6.94898e-05
6.94661e-05
6.94936e-05
6.9469e-05
1.97912e-05
6.07035e-05
6.07201e-05
6.04759e-05
6.0491e-05
6.94449e-05
6.94518e-05
6.94464e-05
6.94539e-05
6.94281e-05
6.94182e-05
6.94297e-05
6.94199e-05
6.07671e-05
6.07832e-05
2.04501e-05
6.10573e-05
6.10637e-05
6.93696e-05
6.94025e-05
6.93722e-05
6.94047e-05
2.06644e-05
6.11359e-05
6.11476e-05
6.11162e-05
6.11234e-05
5.68966e-05
7.02002e-05
5.6513e-05
7.02174e-05
3.44019e-05
4.85542e-05
1.46031e-05
1.69296e-05
3.38329e-05
4.89524e-05
1.46064e-05
3.44063e-05
4.8583e-05
1.46077e-05
1.69922e-05
3.38394e-05
4.90143e-05
1.46119e-05
5.69663e-05
7.02198e-05
7.02148e-05
5.7277e-05
5.69636e-05
7.02221e-05
7.02169e-05
5.72763e-05
3.46428e-05
1.70397e-05
4.93752e-05
1.46259e-05
4.91091e-05
1.46142e-05
3.51773e-05
3.4645e-05
1.70608e-05
4.93285e-05
1.46269e-05
4.91107e-05
1.46182e-05
3.51751e-05
6.08053e-05
6.08004e-05