/*--------------------------------*- C++ -*----------------------------------*\
| =========                 |                                                 |
| \\      /  F ield         | OpenFOAM: The Open Source CFD Toolbox           |
|  \\    /   O peration     | Version:  v1906                                 |
|   \\  /    A nd           | Web:      www.OpenFOAM.com                      |
|    \\/     M anipulation  |                                                 |
\*---------------------------------------------------------------------------*/
FoamFile
{
    version     2.0;
    format      ascii;
    class       volScalarField;
    location    "875";
    object      nut;
}
// * * * * * * * * * * * * * * * * * * * * * * * * * * * * * * * * * * * * * //

dimensions      [0 2 -1 0 0 0 0];


internalField   nonuniform List<scalar> 
43248
(
0.000150259
0.000102182
0.00010176
8.4387e-05
0.000146035
9.87637e-05
9.88415e-05
8.17963e-05
0.000142116
9.5849e-05
9.6858e-05
8.06181e-05
0.000138058
9.55217e-05
9.50227e-05
8.41327e-05
0.000134264
9.31641e-05
9.30459e-05
8.28705e-05
0.000130685
9.31447e-05
9.2703e-05
8.58949e-05
0.000127161
9.23108e-05
9.26958e-05
8.6009e-05
0.000123811
9.24244e-05
9.22679e-05
8.86801e-05
0.000120808
9.31728e-05
9.32961e-05
9.0573e-05
0.000118248
9.42328e-05
9.42445e-05
9.31279e-05
0.000115787
9.55897e-05
9.55983e-05
9.5484e-05
0.000113727
9.7174e-05
9.71849e-05
9.79711e-05
0.000112009
9.9174e-05
9.91752e-05
0.000100757
0.000110676
0.000101386
0.000101391
0.000103379
0.000109708
0.000103756
0.000103749
0.000106095
0.000109088
0.000106345
0.000106353
0.000108779
0.000108841
0.000109087
0.000109083
0.000111529
0.000108957
0.000111957
0.000111955
0.000114251
0.000109422
0.000114903
0.000114912
0.000116958
0.000110216
0.000117969
0.000117968
0.000119687
0.000111333
0.000121078
0.000121083
0.000122325
0.000112763
0.000124215
0.000124212
0.000124996
0.000114462
0.000127434
0.00012744
0.000127629
0.000116437
0.000130602
0.000130599
0.000130195
0.000118662
0.000133805
0.000133812
0.000132763
0.000121091
0.000136984
0.000136982
0.000135278
0.000123744
0.000140148
0.000140152
0.000137732
8.44685e-05
0.000102856
0.000102899
8.43023e-05
0.000102873
0.00010238
0.000102946
0.000102846
8.27956e-05
0.000102423
0.000102865
8.42814e-05
8.47178e-05
8.18318e-05
0.000102284
0.000102137
9.94885e-05
9.93326e-05
8.40715e-05
8.16157e-05
0.000102301
0.000101718
9.95063e-05
9.94573e-05
0.000102225
9.9377e-05
9.95277e-05
8.2664e-05
8.21954e-05
0.000102245
9.95034e-05
9.95489e-05
8.22193e-05
8.11777e-05
8.35937e-05
9.86279e-05
9.87171e-05
9.74762e-05
9.67336e-05
8.14682e-05
8.11063e-05
9.86442e-05
9.8793e-05
9.74891e-05
9.72417e-05
9.89001e-05
9.67764e-05
9.66062e-05
8.19147e-05
8.29708e-05
9.89209e-05
9.728e-05
9.66228e-05
8.11153e-05
8.32656e-05
8.16426e-05
9.68069e-05
9.58075e-05
9.48085e-05
9.55247e-05
8.03793e-05
8.39861e-05
9.68232e-05
9.68212e-05
9.4829e-05
9.5483e-05
9.59934e-05
9.55663e-05
9.54674e-05
8.31265e-05
8.36252e-05
9.60161e-05
9.55233e-05
9.54922e-05
8.38721e-05
8.18628e-05
8.37283e-05
9.45422e-05
9.54792e-05
9.38346e-05
9.36933e-05
8.48862e-05
8.33197e-05
9.45594e-05
9.49788e-05
9.3842e-05
9.33384e-05
9.51186e-05
9.37354e-05
9.36548e-05
8.33797e-05
8.24135e-05
9.51388e-05
9.33758e-05
9.36658e-05
8.30092e-05
8.36987e-05
8.51819e-05
9.33693e-05
9.31235e-05
9.30768e-05
9.30835e-05
8.27616e-05
8.54456e-05
9.33795e-05
9.30089e-05
9.30905e-05
9.28771e-05
9.31656e-05
9.31195e-05
9.30921e-05
8.24285e-05
8.48897e-05
9.31795e-05
9.29118e-05
9.31078e-05
8.53738e-05
8.5628e-05
8.6286e-05
9.30033e-05
9.3108e-05
9.23841e-05
9.23263e-05
8.6049e-05
8.60394e-05
9.30156e-05
9.26685e-05
9.23895e-05
9.26045e-05
9.30615e-05
9.23648e-05
9.22807e-05
8.52265e-05
8.67422e-05
9.30745e-05
9.26376e-05
9.22911e-05
8.59041e-05
8.66152e-05
8.78194e-05
9.25169e-05
9.22757e-05
9.24105e-05
9.23492e-05
8.6041e-05
8.78615e-05
9.25272e-05
9.26632e-05
9.24224e-05
9.2247e-05
9.22365e-05
9.23764e-05
9.25522e-05
8.71628e-05
8.7413e-05
9.22508e-05
9.22734e-05
9.2564e-05
8.83919e-05
8.7625e-05
8.97701e-05
9.22126e-05
9.23952e-05
9.27189e-05
9.28675e-05
8.80868e-05
9.01571e-05
9.22215e-05
9.22388e-05
9.27243e-05
9.29732e-05
9.25655e-05
9.2903e-05
9.29293e-05
8.75271e-05
9.05027e-05
9.25751e-05
9.30074e-05
9.29375e-05
9.01177e-05
9.05897e-05
9.31187e-05
9.31264e-05
9.31391e-05
9.40901e-05
9.39753e-05
9.06553e-05
9.28097e-05
9.31338e-05
9.32633e-05
9.40968e-05
9.40013e-05
9.31287e-05
9.40025e-05
9.3968e-05
9.10784e-05
9.28341e-05
9.31376e-05
9.40273e-05
9.39771e-05
9.27161e-05
9.34072e-05
9.50184e-05
9.43474e-05
9.42072e-05
9.51687e-05
9.5162e-05
9.31282e-05
9.50829e-05
9.43534e-05
9.42194e-05
9.51739e-05
9.52008e-05
9.42341e-05
9.51875e-05
9.51336e-05
9.31487e-05
9.514e-05
9.4242e-05
9.5224e-05
9.51405e-05
9.49887e-05
9.54196e-05
9.76746e-05
9.55132e-05
9.55637e-05
9.67719e-05
9.67294e-05
9.5574e-05
9.75652e-05
9.55184e-05
9.55735e-05
9.67747e-05
9.67129e-05
9.5543e-05
9.67566e-05
9.67725e-05
9.56103e-05
9.75279e-05
9.55498e-05
9.67384e-05
9.67773e-05
9.75982e-05
9.81352e-05
0.000100187
9.72318e-05
9.71478e-05
9.86182e-05
9.86123e-05
9.79609e-05
0.000100242
9.72348e-05
9.71604e-05
9.86221e-05
9.86321e-05
9.71635e-05
9.86358e-05
9.86308e-05
9.79746e-05
0.000100263
9.7168e-05
9.8653e-05
9.86363e-05
0.000100227
0.00010064
0.000102919
9.91272e-05
9.91498e-05
0.000100782
0.000100806
0.000100749
0.000102972
9.91305e-05
9.91529e-05
0.000100784
0.000100802
9.91807e-05
0.000100831
0.000100798
0.000100735
0.000102961
9.91861e-05
0.000100824
0.000100801
0.000102927
0.000103396
0.000105642
0.000101352
0.000101362
0.000103156
0.000103104
0.000103415
0.000105563
0.000101355
0.000101369
0.000103158
0.000103101
0.000101362
0.000103127
0.00010315
0.00010342
0.000105552
0.000101366
0.000103122
0.000103153
0.000105619
0.000106123
0.00010829
0.000103776
0.000103733
0.000105675
0.000105677
0.000106063
0.000108325
0.000103778
0.000103729
0.000105676
0.000105681
0.000103768
0.000105699
0.000105671
0.000106046
0.000108336
0.00010377
0.0001057
0.000105672
0.000108285
0.00010877
0.000111037
0.00010633
0.000106324
0.000108379
0.000108355
0.000108786
0.000111022
0.000106332
0.000106333
0.00010838
0.000108359
0.000106337
0.000108378
0.000108394
0.000108804
0.000111017
0.000106339
0.000108379
0.000108396
0.000111053
0.000111528
0.000113753
0.000109078
0.000109064
0.000111212
0.000111213
0.000111531
0.000113774
0.000109079
0.000109063
0.000111213
0.000111214
0.000109086
0.000111234
0.000111218
0.000111517
0.000113773
0.000109088
0.000111234
0.00011122
0.000113757
0.000114247
0.000116488
0.000111942
0.000111935
0.00011416
0.000114134
0.000114253
0.000116456
0.000111944
0.000111936
0.000114161
0.00011414
0.000111949
0.000114155
0.000114164
0.00011425
0.000116465
0.00011195
0.00011416
0.000114165
0.000116477
0.000116972
0.000119168
0.000114911
0.000114882
0.00011718
0.00011718
0.000116944
0.0001192
0.000114913
0.000114892
0.000117182
0.00011718
0.00011491
0.0001172
0.000117197
0.000116956
0.000119191
0.000114912
0.000117199
0.000117198
0.000119201
0.00011964
0.000121862
0.000117943
0.000117949
0.000120274
0.000120272
0.00011968
0.000121866
0.000117945
0.000117949
0.000120276
0.00012028
0.00011797
0.000120292
0.000120292
0.000119672
0.000121876
0.000117971
0.0001203
0.000120294
0.00012186
0.000122345
0.000124545
0.000121064
0.000121058
0.00012344
0.000123409
0.000122346
0.000124494
0.000121067
0.000121064
0.000123442
0.000123401
0.000121069
0.000123428
0.000123426
0.000122347
0.000124479
0.000121071
0.000123419
0.000123428
0.000124515
0.000125009
0.000127126
0.000124231
0.000124197
0.000126598
0.000126608
0.000124957
0.000127189
0.000124233
0.000124194
0.000126602
0.00012662
0.000124226
0.000126627
0.000126633
0.000124953
0.000127201
0.000124228
0.000126639
0.000126636
0.000127183
0.000127578
0.000129776
0.000127389
0.000127414
0.000129802
0.000129793
0.000127653
0.000129734
0.000127393
0.00012742
0.000129805
0.000129785
0.000127426
0.000129812
0.0001298
0.000127654
0.000129722
0.000127429
0.000129805
0.000129803
0.000129736
0.00013024
0.000132308
0.000130612
0.000130583
0.000133003
0.000132983
0.000130177
0.000132319
0.000130616
0.000130579
0.000133007
0.00013299
0.000130601
0.000133001
0.00013301
0.000130173
0.000132325
0.000130603
0.000133009
0.000133014
0.00013233
0.000132733
0.00013484
0.00013379
0.000133788
0.000136171
0.000136175
0.000132764
0.000134839
0.000133795
0.000133792
0.000136175
0.00013617
0.000133808
0.000136194
0.000136189
0.000132764
0.00013483
0.000133812
0.000136191
0.000136193
0.000134845
0.000135278
0.000137323
0.000136971
0.000136966
0.000139352
0.000139343
0.000135266
0.00013733
0.000136975
0.000136961
0.000139357
0.000139345
0.000136983
0.000139361
0.000139356
0.00013526
0.000137332
0.000136987
0.000139365
0.000139361
0.000137321
0.000137733
0.000140135
0.00014013
0.000137743
0.000140141
0.000140132
0.000140141
0.000137742
0.000140146
0.000151232
0.000151255
0.000151146
0.000151232
7.01744e-05
4.9557e-05
6.91864e-05
4.956e-05
2.36274e-05
2.36233e-05
7.01635e-05
4.95547e-05
6.914e-05
4.95584e-05
0.000150247
0.000150144
0.000150246
0.000147071
0.000147038
0.000147061
0.000147083
6.72004e-05
6.60766e-05
0.000126216
0.000101271
6.6179e-05
6.63236e-05
0.000125199
2.36264e-05
2.36222e-05
6.71612e-05
0.000126175
6.58362e-05
0.000101043
6.6135e-05
0.000125156
6.64964e-05
6.12257e-05
6.12216e-05
8.40022e-05
6.11061e-05
6.11057e-05
7.21618e-05
4.95702e-05
7.10794e-05
4.95824e-05
2.36206e-05
2.36145e-05
7.20763e-05
4.95686e-05
7.11128e-05
4.95797e-05
0.000146041
0.000146054
0.000146087
0.000143117
0.000142974
0.000143061
0.00014294
7.01073e-05
6.78396e-05
0.000122204
9.836e-05
6.89447e-05
6.88643e-05
0.000121262
2.3612e-05
2.36104e-05
7.0055e-05
0.000122228
6.75161e-05
9.82649e-05
6.90062e-05
0.000121256
6.83305e-05
6.26829e-05
6.26809e-05
8.19363e-05
6.25028e-05
6.24933e-05
7.37251e-05
4.95906e-05
7.30278e-05
4.95961e-05
2.36021e-05
2.36038e-05
7.38044e-05
4.95894e-05
7.30437e-05
4.95954e-05
0.000141897
0.000142101
0.000141938
0.000138985
0.000139124
0.000139152
0.00013912
7.28865e-05
6.89676e-05
0.000118469
9.53218e-05
7.1981e-05
6.99285e-05
0.000117541
2.36027e-05
2.36016e-05
7.29826e-05
0.000118557
6.92295e-05
9.64472e-05
7.19772e-05
0.00011764
7.02694e-05
6.28973e-05
6.2916e-05
8.13239e-05
6.31878e-05
6.32042e-05
7.542e-05
4.96085e-05
7.46763e-05
4.96156e-05
2.35959e-05
2.35933e-05
7.53573e-05
4.9606e-05
7.46781e-05
4.96132e-05
0.000138276
0.000138186
0.000138198
0.000135248
0.000135259
0.000135122
0.000135227
7.61635e-05
7.12369e-05
0.000115175
9.51364e-05
7.50232e-05
7.20648e-05
0.000114401
2.3594e-05
2.3591e-05
7.60907e-05
0.000115167
7.11735e-05
9.44928e-05
7.50242e-05
0.000114341
7.21072e-05
6.37845e-05
6.37781e-05
8.38425e-05
6.42996e-05
6.42903e-05
7.66403e-05
4.96182e-05
7.61059e-05
4.96257e-05
2.35831e-05
2.35843e-05
7.66438e-05
4.96167e-05
7.61222e-05
4.96243e-05
0.00013423
0.000134161
0.000134228
0.000131559
0.000131559
0.000131502
0.000131555
7.89317e-05
7.25295e-05
0.000112022
9.29138e-05
7.79045e-05
7.32487e-05
0.000111278
2.35828e-05
2.35832e-05
7.89236e-05
0.000111988
7.24969e-05
9.2974e-05
7.7903e-05
0.000111261
7.35531e-05
6.40606e-05
6.40656e-05
8.34269e-05
6.49121e-05
6.49085e-05
7.80009e-05
4.9635e-05
7.74088e-05
4.96353e-05
2.35773e-05
2.35731e-05
7.79523e-05
4.9633e-05
7.74305e-05
4.9633e-05
0.00013071
0.000130601
0.000130698
0.000127982
0.000127984
0.000128016
0.000127962
8.19602e-05
7.44976e-05
0.000109344
9.29315e-05
8.07342e-05
7.48733e-05
0.000108746
2.35724e-05
2.35732e-05
8.18929e-05
0.000109326
7.40816e-05
9.25362e-05
8.07685e-05
0.000108701
7.47389e-05
6.52101e-05
6.52224e-05
8.62482e-05
6.52389e-05
6.52131e-05
7.9058e-05
4.96474e-05
7.85043e-05
4.9652e-05
2.35706e-05
2.3568e-05
7.90927e-05
4.96467e-05
7.85263e-05
4.96504e-05
0.000127117
0.000127197
0.000127106
0.000124674
0.000124627
0.000124631
0.000124667
8.45817e-05
7.57269e-05
0.000107004
9.23463e-05
8.34283e-05
7.6395e-05
0.000106489
2.35678e-05
2.35638e-05
8.46204e-05
0.000107044
7.5856e-05
9.26127e-05
8.34631e-05
0.00010653
7.633e-05
6.57265e-05
6.57631e-05
8.69163e-05
6.6137e-05
6.61255e-05
8.00184e-05
4.9653e-05
7.96328e-05
4.96592e-05
2.35618e-05
2.35612e-05
8.00042e-05
4.96509e-05
7.96171e-05
4.96575e-05
0.000123845
0.000123807
0.000123887
0.000121509
0.00012158
0.000121576
0.000121597
8.72084e-05
7.69732e-05
0.000105118
9.25312e-05
8.61269e-05
7.75843e-05
0.000104713
2.35595e-05
2.35596e-05
8.71825e-05
0.00010512
7.68864e-05
9.24316e-05
8.6113e-05
0.000104697
7.75494e-05
6.63036e-05
6.63159e-05
8.90746e-05
6.65972e-05
6.6584e-05
8.10264e-05
4.96676e-05
8.05767e-05
4.96716e-05
2.3558e-05
2.35572e-05
8.10332e-05
4.96662e-05
8.05875e-05
4.967e-05
0.000120861
0.000120878
0.000120868
0.000118892
0.000118861
0.000118871
0.000118848
8.97288e-05
7.82813e-05
0.000103684
9.34717e-05
8.86109e-05
7.89193e-05
0.00010341
2.35559e-05
2.35546e-05
8.97343e-05
0.000103703
7.83174e-05
9.35639e-05
8.86255e-05
0.000103425
7.8887e-05
6.69451e-05
6.69533e-05
9.14419e-05
6.72041e-05
6.72028e-05
8.18793e-05
4.96769e-05
8.1513e-05
4.96811e-05
2.35525e-05
2.35521e-05
8.18775e-05
4.96751e-05
8.1511e-05
4.96794e-05
0.000118205
0.000118208
0.000118199
0.000116373
0.000116356
0.000116359
0.000116345
9.21169e-05
7.94974e-05
0.000102734
9.44917e-05
9.10687e-05
7.9997e-05
0.00010255
2.35503e-05
2.355e-05
9.21095e-05
0.000102747
7.94905e-05
9.45093e-05
9.10685e-05
0.000102553
7.99824e-05
6.75239e-05
6.75249e-05
9.38201e-05
6.76214e-05
6.76232e-05
8.27082e-05
4.96875e-05
8.23362e-05
4.96929e-05
2.35498e-05
2.35489e-05
8.27078e-05
4.96859e-05
8.23407e-05
4.96912e-05
0.000115792
0.000115789
0.000115781
0.000114204
0.000114206
0.000114191
0.000114215
9.43988e-05
8.07034e-05
0.000102167
9.59856e-05
9.33552e-05
8.11939e-05
0.0001021
2.35471e-05
2.35463e-05
9.43952e-05
0.000102178
8.07021e-05
9.59575e-05
9.33618e-05
0.000102101
8.1142e-05
6.80595e-05
6.80607e-05
9.64308e-05
6.82609e-05
6.82622e-05
8.34791e-05
4.96996e-05
8.31415e-05
4.97045e-05
2.35466e-05
2.35471e-05
8.34842e-05
4.96979e-05
8.31413e-05
4.9703e-05
0.000113713
0.000113705
0.000113718
0.000112406
0.000112397
0.0001124
0.000112399
9.65676e-05
8.17244e-05
0.000102042
9.76291e-05
9.55942e-05
8.2235e-05
0.000102071
2.35447e-05
2.35448e-05
9.65694e-05
0.000102048
8.17511e-05
9.76559e-05
9.55919e-05
0.000102074
8.22451e-05
6.84212e-05
6.84207e-05
9.87575e-05
6.86325e-05
6.86347e-05
8.42179e-05
4.9712e-05
8.38903e-05
4.97183e-05
2.35459e-05
2.35463e-05
8.42207e-05
4.97103e-05
8.38954e-05
4.97167e-05
0.000112013
0.000112013
0.000112017
0.000110976
0.000110993
0.000110985
0.000110986
9.86888e-05
8.28129e-05
0.000102326
9.97237e-05
9.77224e-05
8.33099e-05
0.000102467
2.35434e-05
2.35438e-05
9.86867e-05
0.000102339
8.28129e-05
9.97101e-05
9.77248e-05
0.000102472
8.32915e-05
6.90117e-05
6.90128e-05
0.000101666
6.91455e-05
6.91445e-05
8.49154e-05
4.97257e-05
8.46132e-05
4.97321e-05
2.35449e-05
2.35456e-05
8.49229e-05
4.97241e-05
8.46186e-05
4.97306e-05
0.00011069
0.000110685
0.000110684
0.000109917
0.000109904
0.000109899
0.000109915
0.000100701
8.38152e-05
0.000103022
0.000101948
9.97952e-05
8.42538e-05
0.000103248
2.35427e-05
2.35432e-05
0.000100703
0.000103031
8.38275e-05
0.000101954
9.97936e-05
0.000103253
8.42628e-05
6.93853e-05
6.9386e-05
0.000104251
6.95902e-05
6.95909e-05
8.55893e-05
4.97407e-05
8.5291e-05
4.97475e-05
2.35457e-05
2.35469e-05
8.5595e-05
4.97391e-05
8.52973e-05
4.9746e-05
0.000109693
0.000109687
0.000109704
0.00010921
0.000109209
0.000109206
0.000109206
0.000102653
8.47663e-05
0.00010405
0.000104403
0.00010178
8.52345e-05
0.000104365
2.35433e-05
2.35445e-05
0.000102652
0.000104059
8.47587e-05
0.000104396
0.000101779
0.00010437
8.5237e-05
6.98114e-05
6.98109e-05
0.000106946
6.9987e-05
6.99868e-05
8.62306e-05
4.97567e-05
8.59505e-05
4.97641e-05
2.35467e-05
2.35483e-05
8.62387e-05
4.97552e-05
8.59586e-05
4.97627e-05
0.000109089
0.000109087
0.000109087
0.000108867
0.000108863
0.000108864
0.000108877
0.000104539
8.56936e-05
0.000105434
0.000107003
0.000103715
8.60982e-05
0.000105825
2.35443e-05
2.35459e-05
0.000104541
0.000105444
8.56998e-05
0.000107015
0.000103715
0.000105833
8.61092e-05
7.0206e-05
7.02061e-05
0.000109686
7.04115e-05
7.0412e-05
8.68645e-05
4.97746e-05
8.6584e-05
4.97825e-05
2.35496e-05
2.35513e-05
8.68699e-05
4.97732e-05
8.65928e-05
4.97811e-05
0.000108838
0.000108837
0.000108849
0.000108894
0.000108899
0.000108897
0.000108899
0.000106379
8.6597e-05
0.000107117
0.000109801
0.000105578
8.70098e-05
0.000107586
2.35469e-05
2.35488e-05
0.000106378
0.000107128
8.65925e-05
0.000109796
0.00010558
0.000107593
8.70083e-05
7.05939e-05
7.05933e-05
0.000112386
7.0766e-05
7.07653e-05
8.74723e-05
4.97936e-05
8.72021e-05
4.98021e-05
2.35525e-05
2.35546e-05
8.74778e-05
4.97923e-05
8.72125e-05
4.98008e-05
0.000108961
0.000108959
0.000108961
0.000109275
0.000109269
0.000109269
0.000109278
0.000108161
8.74481e-05
0.000109094
0.000112684
0.000107394
8.78359e-05
0.000109628
2.355e-05
2.35521e-05
0.000108161
0.000109105
8.74536e-05
0.000112681
0.000107395
0.000109636
8.78348e-05
7.09831e-05
7.09833e-05
0.000115129
7.11494e-05
7.11492e-05
8.80683e-05
4.98141e-05
8.78017e-05
4.98233e-05
2.35567e-05
2.35593e-05
8.80742e-05
4.98128e-05
8.7813e-05
4.9822e-05
0.000109414
0.000109416
0.000109424
0.000109989
0.000109986
0.000109989
0.000109995
0.000109893
8.82705e-05
0.000111316
0.000115662
0.000109151
8.86585e-05
0.000111908
2.35542e-05
2.35567e-05
0.000109895
0.000111329
8.82807e-05
0.000115669
0.000109152
0.000111919
8.86631e-05
7.13342e-05
7.1334e-05
0.000117829
7.15024e-05
7.15024e-05
8.86505e-05
4.98362e-05
8.83918e-05
4.98462e-05
2.35613e-05
2.35639e-05
8.86545e-05
4.98344e-05
8.84026e-05
4.98441e-05
0.000110219
0.000110221
0.000110227
0.000111022
0.000111026
0.00011103
0.000111036
0.000111588
8.90879e-05
0.000113776
0.000118738
0.000110868
8.94423e-05
0.000114423
2.35591e-05
2.35618e-05
0.000111589
0.000113788
8.90859e-05
0.00011874
0.000110867
0.000114432
8.94493e-05
7.17051e-05
7.17045e-05
0.000120547
7.18513e-05
7.18509e-05
8.92254e-05
4.98603e-05
8.89662e-05
4.98707e-05
2.35669e-05
2.35697e-05
8.92286e-05
4.98577e-05
8.898e-05
4.9868e-05
0.000111335
0.000111339
0.000111343
0.00011238
0.000112372
0.000112371
0.000112377
0.000113232
8.9856e-05
0.000116431
0.000121864
0.000112533
9.02141e-05
0.000117124
2.35647e-05
2.35675e-05
0.000113234
0.000116445
8.98636e-05
0.000121862
0.000112533
0.000117136
9.02073e-05
7.202e-05
7.202e-05
0.000123172
7.217e-05
7.21695e-05
8.97806e-05
4.98848e-05
8.95294e-05
4.98957e-05
2.3573e-05
2.35767e-05
8.97847e-05
4.98821e-05
8.9541e-05
4.9893e-05
0.000112752
0.000112751
0.00011276
0.000114011
0.000114008
0.000114015
0.000114025
0.000114831
9.05867e-05
0.000119264
0.000125012
0.000114153
9.0942e-05
0.000119998
2.35711e-05
2.35749e-05
0.000114833
0.000119274
9.05869e-05
0.000125017
0.000114149
0.000120007
9.09574e-05
7.23678e-05
7.23671e-05
0.000125875
7.25293e-05
7.25294e-05
9.03319e-05
4.99106e-05
9.0086e-05
4.9922e-05
2.35805e-05
2.35836e-05
9.03335e-05
4.99077e-05
9.01011e-05
4.9919e-05
0.000114466
0.000114474
0.00011448
0.000115917
0.000115927
0.000115929
0.000115931
0.000116403
9.13486e-05
0.000122275
0.000128232
0.000115744
9.16693e-05
0.000123056
2.35782e-05
2.35813e-05
0.000116404
0.000122291
9.1355e-05
0.000128232
0.000115746
0.000123072
9.16586e-05
7.26761e-05
7.26762e-05
0.000128445
7.27962e-05
7.27951e-05
9.08691e-05
4.99381e-05
9.06254e-05
4.99497e-05
2.35877e-05
2.35918e-05
9.08735e-05
4.99352e-05
9.06371e-05
4.99468e-05
0.000116439
0.00011644
0.000116444
0.000118087
0.000118071
0.000118077
0.000118087
0.000117902
9.20082e-05
0.000125435
0.000131396
0.000117268
9.23384e-05
0.00012624
2.35858e-05
2.35899e-05
0.000117904
0.000125445
9.20093e-05
0.000131399
0.000117263
0.000126251
9.23512e-05
7.29819e-05
7.29812e-05
0.000131051
7.31394e-05
7.31396e-05
9.13869e-05
4.99651e-05
9.11557e-05
4.99772e-05
2.35963e-05
2.36001e-05
9.1389e-05
4.99621e-05
9.11706e-05
4.99741e-05
0.000118649
0.000118657
0.000118667
0.000120462
0.000120469
0.000120475
0.00012048
0.000119379
9.2713e-05
0.000128715
0.000134607
0.000118762
9.30218e-05
0.000129558
2.35941e-05
2.3598e-05
0.000119381
0.000128732
9.27189e-05
0.000134609
0.000118764
0.000129574
9.30164e-05
7.32789e-05
7.32788e-05
0.000133582
7.34011e-05
7.34002e-05
9.19029e-05
4.99946e-05
9.16692e-05
5.00069e-05
2.36049e-05
2.36092e-05
9.19066e-05
4.99916e-05
9.16814e-05
5.00039e-05
0.000121098
0.000121103
0.000121108
0.000123063
0.000123058
0.000123064
0.000123072
0.00012079
9.33488e-05
0.000132108
0.000137776
0.000120196
9.36566e-05
0.000132964
2.36029e-05
2.36073e-05
0.000120791
0.00013212
9.3349e-05
0.000137776
0.000120191
0.000132976
9.3664e-05
7.35694e-05
7.35687e-05
0.000136099
7.37058e-05
7.37056e-05
5.00232e-05
9.21733e-05
2.36141e-05
5.00202e-05
9.21877e-05
0.00012374
0.000123747
0.000123753
9.39927e-05
0.00013557
0.000121591
2.3612e-05
0.000135585
9.39982e-05
0.000121592
7.38341e-05
7.38338e-05
2.36354e-05
2.36343e-05
6.14941e-05
6.14893e-05
4.95556e-05
6.897e-05
4.95553e-05
6.89639e-05
6.57469e-05
0.000127182
6.56524e-05
6.58633e-05
0.000127186
6.56536e-05
2.36332e-05
6.13201e-05
6.13228e-05
2.36336e-05
4.95532e-05
6.89245e-05
6.57513e-05
0.000127181
6.56434e-05
4.95465e-05
6.89106e-05
0.000127143
6.55344e-05
6.5633e-05
6.58439e-05
0.000127199
6.56641e-05
4.95537e-05
6.89993e-05
0.000127185
6.56632e-05
6.56597e-05
4.95495e-05
6.89974e-05
2.36311e-05
6.12193e-05
6.1214e-05
2.36326e-05
0.000127158
6.55691e-05
6.56423e-05
0.000127188
6.56567e-05
6.56509e-05
4.95484e-05
6.89438e-05
4.95497e-05
6.89518e-05
6.12233e-05
6.1215e-05
2.36318e-05
2.36311e-05
2.36305e-05
2.36217e-05
2.36293e-05
2.36204e-05
6.14762e-05
6.14775e-05
8.41394e-05
6.12364e-05
6.12365e-05
2.36194e-05
2.36195e-05
2.36182e-05
2.36183e-05
8.32409e-05
6.20256e-05
6.20291e-05
6.11808e-05
6.11855e-05
7.01701e-05
4.9556e-05
6.91781e-05
4.95599e-05
6.72452e-05
6.61263e-05
0.000126213
0.000101467
6.61706e-05
6.65425e-05
0.000125206
6.72322e-05
6.60849e-05
0.000126205
0.000101228
6.61693e-05
6.63031e-05
0.000125187
7.02304e-05
4.9568e-05
4.95602e-05
7.09268e-05
7.02298e-05
4.9575e-05
4.95614e-05
7.09236e-05
6.76788e-05
0.000100487
6.72302e-05
0.000123176
6.66099e-05
0.000124206
6.8504e-05
6.7668e-05
0.000100246
6.74517e-05
0.000123152
6.64854e-05
0.000124177
6.85028e-05
6.12392e-05
6.12338e-05
8.32709e-05
6.1081e-05
6.10732e-05
2.36277e-05
2.36237e-05
2.36227e-05
2.36226e-05
8.24791e-05
6.22189e-05
6.22167e-05
6.12383e-05
6.12247e-05
2.3623e-05
2.36229e-05
6.72122e-05
6.61251e-05
0.000126217
0.000101485
6.61422e-05
6.6517e-05
0.0001252
7.01673e-05
4.95481e-05
6.91236e-05
4.95565e-05
6.7194e-05
0.000126157
6.58558e-05
0.000101001
6.61254e-05
0.000125146
6.64813e-05
7.02505e-05
4.95668e-05
4.95587e-05
7.09875e-05
6.76709e-05
0.000100505
6.72804e-05
0.000123173
6.65648e-05
0.000124211
6.85418e-05
7.02579e-05
4.95637e-05
4.95576e-05
7.09934e-05
6.76626e-05
0.00010022
0.000123164
6.73332e-05
0.000124163
6.67738e-05
6.8552e-05
7.01177e-05
4.95545e-05
6.91791e-05
4.95584e-05
6.72048e-05
0.000126211
6.60012e-05
0.000101405
6.61761e-05
0.0001252
6.63762e-05
7.01203e-05
4.95508e-05
6.91814e-05
4.95557e-05
6.76371e-05
0.00010029
6.74362e-05
0.000123167
6.64755e-05
0.000124191
6.84989e-05
7.01843e-05
4.9574e-05
4.95599e-05
7.09571e-05
6.76408e-05
0.000100444
0.000123183
6.75568e-05
0.000124198
6.6428e-05
6.85018e-05
7.01839e-05
4.95702e-05
4.95568e-05
7.09549e-05
6.11815e-05
6.11799e-05
8.27178e-05
6.1378e-05
6.13952e-05
2.36279e-05
2.36238e-05
2.36151e-05
2.36205e-05
8.24898e-05
6.18195e-05
6.1811e-05
6.16226e-05
6.16315e-05
2.36166e-05
2.36222e-05
6.71722e-05
0.000126214
6.59953e-05
0.000101426
6.61481e-05
0.000125202
6.63702e-05
7.01149e-05
4.95499e-05
6.91242e-05
4.95583e-05
7.01104e-05
4.95511e-05
6.91333e-05
4.95567e-05
6.76321e-05
0.000100264
0.000123177
6.73375e-05
0.000124184
6.67664e-05
6.85494e-05
6.76348e-05
0.000100466
0.000123186
6.75705e-05
0.000124202
6.64272e-05
6.85418e-05
7.02159e-05
4.95662e-05
4.95595e-05
7.10251e-05
7.02084e-05
4.95713e-05
4.95579e-05
7.10151e-05
2.36272e-05
2.36219e-05
2.36267e-05
2.36214e-05
8.32789e-05
6.25367e-05
6.25376e-05
6.11219e-05
6.11247e-05
2.36235e-05
2.36211e-05
2.3623e-05
2.36206e-05
2.36167e-05
2.36129e-05
2.36155e-05
2.36117e-05
6.21038e-05
6.21036e-05
8.21097e-05
6.22185e-05
6.2216e-05
2.36088e-05
2.36119e-05
2.36076e-05
2.36107e-05
8.28287e-05
6.30808e-05
6.30687e-05
6.24947e-05
6.24976e-05
7.21578e-05
4.95777e-05
7.10726e-05
4.9588e-05
7.00514e-05
6.75361e-05
0.000122198
9.82106e-05
6.89277e-05
6.82684e-05
0.000121248
7.00677e-05
6.78235e-05
0.000122188
9.83149e-05
6.89295e-05
6.88957e-05
0.000121247
7.2266e-05
4.95903e-05
4.95842e-05
7.29712e-05
7.22648e-05
4.95867e-05
4.95874e-05
7.2971e-05
7.0569e-05
9.7946e-05
6.94889e-05
0.000119435
6.86089e-05
0.00012036
7.16166e-05
7.05817e-05
9.76686e-05
6.89604e-05
0.000119379
6.9011e-05
0.000120342
7.16084e-05
6.24087e-05
6.24146e-05
8.20415e-05
6.275e-05
6.27541e-05
2.3621e-05
2.36148e-05
2.36032e-05
2.36091e-05
8.19329e-05
6.24151e-05
6.24125e-05
6.26826e-05
6.26839e-05
2.36035e-05
2.36094e-05
7.00174e-05
6.75465e-05
0.000122206
9.82237e-05
6.89721e-05
6.82607e-05
0.000121245
7.20772e-05
4.9565e-05
7.11126e-05
4.95748e-05
7.00202e-05
0.000122206
6.75436e-05
9.82184e-05
6.89856e-05
0.000121244
6.82807e-05
7.21861e-05
4.95891e-05
4.95815e-05
7.29506e-05
7.05083e-05
9.79585e-05
6.95064e-05
0.000119431
6.85893e-05
0.000120365
7.15748e-05
7.21884e-05
4.9582e-05
4.95761e-05
7.29582e-05
7.05042e-05
9.77078e-05
0.000119408
6.90175e-05
0.000120333
6.85468e-05
7.15692e-05
7.2194e-05
4.95769e-05
7.11177e-05
4.95867e-05
7.01118e-05
0.000122223
6.80091e-05
9.83489e-05
6.89454e-05
0.000121266
6.86916e-05
7.21953e-05
4.95728e-05
7.11219e-05
4.958e-05
7.06198e-05
9.77119e-05
6.9012e-05
0.000119392
6.89958e-05
0.000120356
7.16077e-05
7.23022e-05
4.95851e-05
4.9586e-05
7.29475e-05
7.06151e-05
9.75268e-05
0.00011937
6.90226e-05
0.000120339
6.86451e-05
7.15984e-05
7.22984e-05
4.95829e-05
4.95796e-05
7.29433e-05
6.18128e-05
6.18177e-05
8.21751e-05
6.24143e-05
6.24332e-05
2.36136e-05
2.3612e-05
2.36037e-05
2.36073e-05
8.23083e-05
6.25172e-05
6.25138e-05
6.24543e-05
6.24653e-05
2.36051e-05
2.36088e-05
7.0067e-05
0.000122229
6.80196e-05
9.83653e-05
6.89996e-05
0.00012127
6.86891e-05
7.21164e-05
4.95675e-05
7.11538e-05
4.95774e-05
7.2111e-05
4.95737e-05
7.11498e-05
4.95797e-05
7.05477e-05
9.77508e-05
0.000119416
6.90145e-05
0.000120353
6.85604e-05
7.15644e-05
7.05619e-05
9.7541e-05
0.000119373
6.90195e-05
0.000120342
6.86218e-05
7.15482e-05
7.2229e-05
4.95835e-05
4.95784e-05
7.29329e-05
7.22201e-05
4.95839e-05
4.95794e-05
7.29215e-05
2.36209e-05
2.36107e-05
2.36204e-05
2.36102e-05
8.17575e-05
6.26435e-05
6.26343e-05
6.23577e-05
6.23443e-05
2.36057e-05
2.36065e-05
2.36054e-05
2.3606e-05
2.36042e-05
2.36004e-05
2.3603e-05
2.35993e-05
6.30289e-05
6.30188e-05
8.22513e-05
6.2953e-05
6.29578e-05
2.35976e-05
2.35993e-05
2.35965e-05
2.35982e-05
8.16693e-05
6.36587e-05
6.36763e-05
6.31031e-05
6.31367e-05
7.37416e-05
4.95871e-05
7.30305e-05
4.95998e-05
7.29994e-05
6.96589e-05
0.000118551
9.60363e-05
7.20244e-05
6.99786e-05
0.000117622
7.29766e-05
6.89188e-05
0.000118459
9.52838e-05
7.20051e-05
6.99927e-05
0.000117533
7.38113e-05
4.96075e-05
4.95979e-05
7.45855e-05
7.38317e-05
4.96101e-05
4.96021e-05
7.45993e-05
7.34001e-05
9.53225e-05
7.09472e-05
0.000115878
7.02271e-05
0.000116735
7.45114e-05
7.3388e-05
9.53575e-05
7.09939e-05
0.000115925
7.03078e-05
0.000116701
7.45368e-05
6.23847e-05
6.23777e-05
8.03944e-05
6.33901e-05
6.33746e-05
2.36023e-05
2.36041e-05
2.35975e-05
2.36021e-05
8.12134e-05
6.36253e-05
6.36284e-05
6.35321e-05
6.35224e-05
2.3598e-05
2.36024e-05
7.30721e-05
6.96245e-05
0.000118561
9.60553e-05
7.20083e-05
7.00084e-05
0.000117626
7.38082e-05
4.95834e-05
7.30508e-05
4.95933e-05
7.30738e-05
0.000118542
6.92697e-05
9.64113e-05
7.20015e-05
0.000117637
7.02455e-05
7.39011e-05
4.96052e-05
4.95971e-05
7.45931e-05
7.34855e-05
9.53446e-05
7.09799e-05
0.000115884
7.02427e-05
0.000116758
7.45645e-05
7.39021e-05
4.96003e-05
4.95944e-05
7.45827e-05
7.34918e-05
9.597e-05
0.000115947
7.09338e-05
0.000116804
7.04747e-05
7.45762e-05
7.36643e-05
4.95854e-05
7.29905e-05
4.95981e-05
7.29006e-05
0.000118474
6.92805e-05
9.57848e-05
7.19676e-05
0.000117571
7.00667e-05
7.36635e-05
4.95844e-05
7.29865e-05
4.95946e-05
7.33219e-05
9.53961e-05
7.09982e-05
0.000115944
7.02825e-05
0.000116711
7.45808e-05
7.37775e-05
4.96099e-05
4.96007e-05
7.46658e-05
7.33351e-05
9.56887e-05
0.000115937
7.09608e-05
0.000116753
7.02998e-05
7.45858e-05
7.37739e-05
4.96051e-05
4.95963e-05
7.46579e-05
6.27232e-05
6.27125e-05
8.35602e-05
6.34628e-05
6.34557e-05
2.36043e-05
2.36032e-05
2.35951e-05
2.35982e-05
8.35932e-05
6.35368e-05
6.3549e-05
6.34578e-05
6.34525e-05
2.35968e-05
2.35998e-05
7.29663e-05
0.000118481
6.92898e-05
9.58103e-05
7.19587e-05
0.000117582
7.00887e-05
7.37328e-05
4.95848e-05
7.30105e-05
4.95956e-05
7.37441e-05
4.95858e-05
7.30023e-05
4.95962e-05
7.34323e-05
9.60078e-05
0.00011596
7.09496e-05
0.000116819
7.04642e-05
7.46176e-05
7.34328e-05
9.57153e-05
0.00011595
7.09777e-05
0.000116771
7.0311e-05
7.46269e-05
7.3855e-05
4.96035e-05
4.95969e-05
7.46473e-05
7.38727e-05
4.96051e-05
4.95977e-05
7.46624e-05
2.36045e-05
2.36006e-05
2.36042e-05
2.36002e-05
8.2177e-05
6.35986e-05
6.36092e-05
6.3213e-05
6.32211e-05
2.35968e-05
2.3598e-05
2.35962e-05
2.35975e-05
2.3595e-05
2.35933e-05
2.35937e-05
2.3592e-05
6.36837e-05
6.3695e-05
8.28887e-05
6.42108e-05
6.41991e-05
2.35851e-05
2.35908e-05
2.35839e-05
2.35895e-05
8.32594e-05
6.42542e-05
6.42539e-05
6.42884e-05
6.42812e-05
7.5411e-05
4.96111e-05
7.46869e-05
4.96173e-05
7.61286e-05
7.11319e-05
0.000115092
9.44139e-05
7.49328e-05
7.19153e-05
0.000114301
7.61456e-05
7.12047e-05
0.000115155
9.50935e-05
7.49594e-05
7.20839e-05
0.000114378
7.5487e-05
4.96181e-05
4.96163e-05
7.60613e-05
7.54785e-05
4.96189e-05
4.96172e-05
7.60569e-05
7.65087e-05
9.4219e-05
7.25862e-05
0.000112783
7.21665e-05
0.000113534
7.76027e-05
7.65159e-05
9.44328e-05
7.24352e-05
0.000112789
7.21616e-05
0.000113587
7.75904e-05
6.37435e-05
6.37537e-05