/*--------------------------------*- C++ -*----------------------------------*\
| =========                 |                                                 |
| \\      /  F ield         | OpenFOAM: The Open Source CFD Toolbox           |
|  \\    /   O peration     | Version:  v1906                                 |
|   \\  /    A nd           | Web:      www.OpenFOAM.com                      |
|    \\/     M anipulation  |                                                 |
\*---------------------------------------------------------------------------*/
FoamFile
{
    version     2.0;
    format      ascii;
    class       volScalarField;
    location    "875";
    object      p;
}
// * * * * * * * * * * * * * * * * * * * * * * * * * * * * * * * * * * * * * //

dimensions      [0 2 -2 0 0 0 0];


internalField   nonuniform List<scalar> 
43024
(
0.000714383
0.000714329
0.000714316
0.000716336
0.00067881
0.000678719
0.000678733
0.000680733
0.000643325
0.000643273
0.000643268
0.0006453
0.000607614
0.000607531
0.000607529
0.000609534
0.000572248
0.0005722
0.000572217
0.000574221
0.00053655
0.000536501
0.000536464
0.000538533
0.000500508
0.000500416
0.000500469
0.000502423
0.000465386
0.000465376
0.000465365
0.000467421
0.000429564
0.000429501
0.000429426
0.000431513
0.000393468
0.000393397
0.000393521
0.000395447
0.000357763
0.000357756
0.000357706
0.000359826
0.000322248
0.000322184
0.000322064
0.0003241
0.000286184
0.000286093
0.000286383
0.000288329
0.000249683
0.000249814
0.000249471
0.000251654
0.000214822
0.000214633
0.000214761
0.000216759
0.000178202
0.000178109
0.000178447
0.00018027
0.000143195
0.00014349
0.000142651
0.000145377
0.000103972
0.000104063
0.000104729
0.000106219
6.74143e-05
6.67138e-05
6.68905e-05
6.85882e-05
4.152e-05
4.0995e-05
4.0027e-05
4.21455e-05
1.01857e-05
1.15054e-05
1.32798e-05
1.09964e-05
0.00072116
0.000723185
0.000723185
0.000721164
0.000723182
0.000723174
0.000723181
0.00072317
0.000721147
0.00072317
0.000723169
0.000721147
0.000716343
0.000685554
0.000714326
0.000714332
0.000687617
0.000687622
0.000716351
0.000685555
0.000714322
0.000714317
0.000687617
0.000687625
0.000714319
0.000687625
0.00068763
0.000716334
0.000685566
0.000714318
0.000687629
0.00068763
0.000685565
0.000680728
0.000650129
0.000678722
0.000678716
0.000652144
0.000652131
0.00068072
0.000650115
0.000678725
0.000678731
0.000652148
0.000652144
0.000678728
0.00065213
0.000652133
0.000680737
0.000650121
0.000678729
0.000652139
0.000652135
0.000650116
0.000645307
0.000614377
0.000643275
0.000643275
0.000616467
0.000616486
0.000645303
0.0006144
0.000643276
0.000643273
0.000616461
0.000616463
0.000643271
0.000616489
0.000616486
0.000645299
0.000614381
0.000643272
0.00061647
0.000616482
0.000614398
0.00060952
0.000579012
0.000607524
0.000607529
0.000580991
0.000580973
0.000609532
0.000578987
0.00060752
0.000607522
0.000580997
0.000581004
0.000607533
0.00058097
0.000580971
0.000609524
0.00057902
0.000607531
0.000580996
0.000580977
0.000578987
0.000574247
0.000543466
0.000572214
0.000572203
0.000545554
0.00054556
0.000574227
0.000543471
0.000572221
0.000572227
0.000545547
0.000545521
0.000572194
0.000545561
0.000545551
0.000574254
0.000543421
0.000572198
0.000545522
0.000545543
0.00054346
0.000538533
0.000507193
0.0005365
0.000536501
0.000509293
0.000509306
0.000538535
0.000507219
0.000536491
0.000536458
0.000509294
0.000509333
0.000536504
0.000509312
0.000509336
0.000538489
0.000507271
0.000536495
0.000509344
0.00050934
0.000507249
0.000502371
0.000472209
0.000500388
0.000500408
0.000474135
0.00047413
0.0005024
0.000472189
0.000500397
0.000500462
0.000474149
0.00047417
0.000500429
0.000474129
0.000474118
0.000502466
0.000472216
0.000500439
0.00047416
0.000474126
0.000472173
0.000467469
0.000436512
0.000465403
0.000465381
0.000438631
0.000438609
0.000467435
0.000436494
0.000465408
0.000465377
0.000438604
0.0004385
0.000465364
0.000438597
0.000438585
0.00046743
0.000436379
0.000465367
0.0004385
0.000438567
0.000436469
0.000431548
0.00040021
0.000429519
0.00042951
0.000402276
0.000402296
0.00043154
0.000400237
0.000429497
0.000429426
0.000402296
0.000402404
0.000429486
0.000402302
0.000402307
0.000431449
0.000400384
0.00042947
0.0004024
0.000402318
0.000400253
0.000395387
0.000364643
0.000393364
0.000393385
0.000366695
0.000366722
0.000395412
0.000364679
0.000393394
0.000393521
0.000366704
0.000366736
0.00039342
0.000366738
0.000366782
0.000395565
0.000364661
0.00039344
0.000366756
0.000366794
0.000364743
0.000359745
0.000329
0.000357715
0.000357744
0.000330989
0.000330982
0.000359782
0.000328986
0.00035771
0.000357687
0.000330955
0.000330817
0.000357781
0.000330967
0.000330887
0.000359726
0.000328808
0.000357779
0.000330804
0.000330856
0.000328858
0.000324276
0.000293384
0.000322254
0.000322209
0.000295506
0.000295387
0.00032423
0.000293218
0.00032222
0.000322091
0.000295531
0.000295615
0.000322092
0.000295356
0.000295429
0.000324089
0.000293564
0.000322067
0.000295588
0.000295457
0.000293363
0.000288265
0.000256161
0.000286159
0.000286096
0.000258268
0.000258501
0.000288153
0.000256524
0.000286206
0.000286383
0.000258289
0.000258398
0.000286225
0.000258577
0.000258568
0.000288501
0.000256215
0.000286266
0.000258446
0.000258558
0.000256442
0.000251478
0.000222041
0.000249535
0.000249754
0.000223885
0.000223745
0.000251812
0.000221733
0.000249505
0.000249435
0.000223817
0.000223527
0.000249695
0.000223683
0.000223575
0.00025139
0.000221634
0.000249649
0.000223495
0.000223538
0.000221636
0.000217104
0.000184689
0.000214948
0.000214742
0.000187007
0.00018703
0.000216742
0.000184795
0.000214919
0.000214797
0.000187101
0.000187569
0.000214664
0.000187052
0.000187292
0.000216883
0.00018543
0.00021467
0.000187603
0.000187384
0.000185158
0.000179778
0.000150692
0.00017791
0.000178056
0.00015223
0.000152169
0.000179986
0.000150556
0.000177997
0.000178399
0.00015216
0.000151553
0.000178275
0.000152168
0.000151948
0.00018044
0.000149622
0.000178348
0.000151516
0.000151856
0.000150159
0.000146123
0.000111809
0.000143773
0.000143531
0.000114592
0.000114655
0.000145853
0.000112071
0.000143633
0.000142747
0.000114578
0.000114751
0.000143177
0.000114594
0.000114481
0.000144838
0.000112471
0.000143016
0.000114648
0.000114428
0.000111921
0.00010576
7.22607e-05
0.000103753
0.00010405
7.43243e-05
7.45196e-05
0.000106158
7.23943e-05
0.000103818
0.00010472
7.44423e-05
7.51011e-05
0.000104175
7.46806e-05
7.51162e-05
0.000106961
7.28517e-05
0.000104201
7.53892e-05
7.53578e-05
7.30366e-05
6.81246e-05
4.69558e-05
6.65944e-05
6.66215e-05
4.76724e-05
4.73165e-05
6.81712e-05
4.64463e-05
6.66166e-05
6.66801e-05
4.7456e-05
4.61936e-05
6.69476e-05
4.71444e-05
4.65261e-05
6.82468e-05
4.49961e-05
6.71085e-05
4.60231e-05
4.63749e-05
4.54691e-05
4.36856e-05
1.47107e-05
4.18363e-05
4.12388e-05
1.91605e-05
1.82801e-05
4.30583e-05
1.36683e-05
4.15969e-05
4.03008e-05
1.94165e-05
1.99069e-05
4.04869e-05
1.83111e-05
1.99415e-05
4.18408e-05
1.59224e-05
4.02712e-05
1.98753e-05
2.00891e-05
1.61982e-05
9.28379e-06
1.21933e-05
1.14196e-05
8.56504e-06
1.23681e-05
1.32574e-05
9.8825e-06
1.09718e-05
1.10127e-05
1.34886e-05
1.06853e-05
1.35703e-05
0.000738614
0.000738621
0.000738612
0.000738616
0.000738622
0.000723237
0.000723236
0.000723229
0.000723227
0.000738657
0.000740821
0.000738633
0.000740836
0.000738608
0.000738657
0.000740822
0.000740835
0.000738635
0.000738804
0.000738583
0.000738584
0.000703212
0.000716472
0.000716485
0.000703198
0.000716462
0.000703207
0.000703206
0.000716471
0.00071648
0.000703196
0.000714387
0.000714376
0.000714377
0.000687705
0.000687709
0.00068771
0.000687712
0.000703284
0.000716458
0.000714341
0.000705449
0.000716447
0.000703241
0.000705469
0.000716461
0.000703202
0.000703278
0.000714333
0.00071645
0.000705437
0.000716442
0.000705462
0.000703231
0.000716469
0.000716468
0.000703388
0.000703202
0.000703201
0.000667647
0.000680967
0.000680947
0.000667675
0.000680973
0.000667679
0.000667656
0.000680966
0.000680949
0.000667677
0.000678807
0.000678816
0.000678814
0.000652201
0.00065219
0.000652199
0.000652193
0.000667676
0.000680908
0.000678761
0.000669836
0.000680882
0.000667661
0.00066987
0.000680976
0.000667682
0.000667687
0.000678768
0.000680912
0.000669855
0.000680885
0.000669881
0.000667674
0.000680963
0.000680964
0.000667807
0.000667642
0.000667644
0.000632166
0.000645469
0.000645461
0.000632142
0.000645462
0.000632146
0.000632159
0.000645471
0.000645467
0.000632143
0.000643322
0.000643322
0.000643321
0.000616547
0.000616562
0.000616548
0.00061656
0.000632234
0.000645439
0.000643276
0.000634385
0.000645398
0.000632202
0.000634392
0.000645456
0.00063215
0.000632225
0.000643275
0.000645441
0.000634367
0.000645401
0.000634383
0.000632189
0.00064546
0.00064546
0.00063233
0.00063216
0.000632159
0.000596463
0.00060982
0.000609812
0.000596503
0.00060983
0.000596513
0.000596465
0.000609816
0.000609803
0.000596501
0.000607622
0.000607617
0.000607623
0.000581051
0.000581035
0.000581054
0.000581036
0.000596474
0.00060977
0.000607584
0.000598617
0.000609747
0.000596458
0.000598666
0.000609837
0.00059651
0.000596481
0.00060758
0.000609759
0.000598632
0.000609738
0.000598672
0.00059647
0.000609839
0.000609838
0.00059657
0.000596462
0.000596463
0.000561117
0.00057435
0.000574322
0.000561074
0.000574335
0.000561036
0.00056112
0.000574353
0.000574338
0.000561077
0.000572235
0.000572249
0.000572231
0.000545582
0.000545589
0.000545561
0.000545578
0.000561203
0.00057429
0.000572181
0.000563408
0.000574256
0.000561169
0.000563373
0.000574333
0.000561046
0.000561204
0.000572192
0.00057431
0.000563404
0.000574272
0.000563373
0.000561164
0.000574281
0.000574283
0.00056141
0.000561057
0.000561056
0.000525283
0.000538763
0.000538772
0.000525286
0.000538772
0.000525324
0.000525265
0.00053876
0.00053876
0.00052528
0.000536556
0.000536527
0.000536555
0.000509423
0.000509435
0.000509454
0.000509455
0.0005253
0.000538751
0.000536537
0.000527401
0.000538743
0.000525284
0.000527466
0.00053876
0.000525326
0.000525283
0.000536512
0.000538728
0.000527377
0.000538718
0.000527449
0.000525258
0.000538818
0.000538815
0.000525279
0.000525349
0.000525348
0.000489447
0.000502817
0.000502745
0.000489479
0.000502848
0.000489476
0.000489472
0.000502817
0.000502754
0.000489486
0.00050052
0.000500557
0.000500538
0.000474161
0.000474148
0.000474169
0.000474143
0.000489467
0.000502696
0.000500466
0.000491608
0.000502608
0.000489469
0.000491626
0.00050284
0.000489502
0.000489506
0.000500498
0.000502719
0.000491671
0.000502634
0.000491667
0.000489512
0.000502807
0.00050281
0.00048962
0.000489424
0.00048943
0.000454209
0.000467389
0.000467427
0.000454147
0.000467318
0.000454125
0.000454191
0.000467394
0.000467445
0.00045415
0.000465366
0.00046536
0.000465355
0.000438645
0.000438636
0.000438559
0.000438611
0.000454329
0.000467417
0.000465329
0.00045655
0.000467425
0.000454245
0.000456508
0.000467345
0.000454128
0.0004543
0.000465327
0.00046743
0.000456492
0.000467439
0.000456479
0.000454215
0.000467339
0.000467339
0.000454546
0.000454138
0.000454133
0.000418278
0.000431805
0.000431814
0.000418287
0.000431813
0.000418317
0.00041825
0.000431791
0.000431775
0.000418279
0.000429563
0.000429505
0.000429539
0.000402402
0.000402405
0.000402474
0.00040242
0.000418271
0.000431771
0.00042954
0.000420383
0.000431751
0.000418257
0.000420443
0.000431768
0.000418319
0.00041824
0.000429489
0.000431712
0.00042036
0.0004317
0.000420423
0.000418224
0.00043185
0.000431843
0.000418208
0.000418322
0.000418312
0.00038234
0.000395789
0.000395696
0.00038237
0.00039579
0.000382374
0.000382386
0.000395792
0.000395735
0.000382387
0.000393473
0.000393564
0.000393506
0.000366734
0.000366757
0.000366769
0.000366798
0.000382384
0.000395662
0.00039342
0.000384539
0.000395557
0.000382391
0.000384537
0.000395798
0.000382409
0.000382454
0.000393497
0.00039572
0.000384652
0.000395617
0.000384614
0.000382471
0.000395733
0.000395741
0.000382604
0.000382356
0.000382369
0.000346551
0.000359937
0.000359987
0.000346513
0.00035995
0.000346535
0.000346519
0.000359945
0.000359988
0.000346501
0.000357792
0.000357752
0.00035781
0.000331028
0.000331029
0.000330916
0.000330952
0.000346635
0.000359974
0.000357785
0.000348761
0.000360003
0.000346563
0.000348807
0.000359982
0.00034653
0.000346581
0.000357762
0.000359987
0.000348646
0.000360009
0.00034874
0.000346501
0.000360036
0.000360036
0.000346635
0.000346577
0.000346559
0.000311086
0.000324326
0.000324267
0.000311096
0.000324312
0.00031099
0.00031106
0.000324297
0.000324217
0.000311099
0.000322215
0.000322133
0.000322126
0.000295458
0.000295351
0.000295509
0.000295401
0.000311087
0.000324217
0.000322133
0.000313389
0.000324171
0.000311118
0.000313297
0.000324204
0.000310975
0.000311061
0.000322049
0.000324128
0.000313353
0.00032408
0.000313267
0.000311071
0.000324162
0.000324144
0.000311387
0.000310928
0.000310926
0.000274781
0.000288542
0.000288585
0.000274769
0.000288503
0.000274849
0.000274885
0.000288557
0.000288658
0.000274778
0.000286128
0.000286331
0.000286238
0.000258518
0.00025869
0.000258619
0.000258719
0.000274825
0.000288518
0.000286169
0.000276774
0.000288528
0.000274755
0.000276924
0.000288596
0.000274936
0.000274965
0.000286349
0.000288679
0.000277027
0.000288672
0.000277078
0.000274985
0.000288658
0.000288683
0.000274705
0.000275005
0.000275034
0.000238841
0.000252155
0.000252019
0.000238876
0.00025221
0.000238905
0.000238706
0.000252144
0.000251967
0.000238835
0.000249868
0.000249643
0.0002498
0.000223732
0.000223632
0.000223529
0.00022354
0.000238884
0.000252054
0.000249804
0.000241181
0.000251905
0.000238959
0.000241067
0.00025223
0.000238745
0.000238641
0.000249614
0.000251907
0.000240737
0.000251775
0.0002408
0.000238659
0.000252137
0.000252111
0.000239046
0.000238691
0.000238646
0.0002032
0.000216614
0.000216789
0.000203126
0.000216581
0.000203105
0.000203271
0.000216612
0.000216734
0.000203138
0.000214657
0.000214739
0.000214651
0.000187271
0.000187263
0.000187628
0.00018745
0.00020328
0.00021671
0.000214606
0.00020544
0.000216748
0.000203163
0.000205537
0.000216444
0.000203131
0.000203482
0.000214656
0.000216661
0.000205851
0.000216686
0.000205762
0.000203346
0.000216547
0.000216527
0.000203482
0.000203175
0.000203205
0.000167033
0.000180375
0.000180317
0.000167082
0.00018048
0.000167027
0.000167081
0.000180418
0.0001805
0.000167124
0.000178276
0.000178496
0.000178418
0.000151947
0.000151929
0.00015149
0.000151727
0.000167182
0.000180271
0.000178269
0.000169353
0.000180362
0.000167071
0.000169385
0.000180601
0.000167212
0.000167263
0.000178501
0.000180624
0.000169358
0.000180659
0.000169426
0.000167191
0.000180522
0.00018057
0.000167444
0.000167096
0.000167115
0.000132183
0.000145448
0.0001454
0.000132134
0.000145112
0.000131914
0.000131955
0.000145406
0.0001452
0.000132034
0.00014312
0.000142544
0.000142773
0.000114335
0.000114366
0.000114478
0.0001143
0.000132077
0.000145355
0.000143083
0.000134367
0.000145313
0.000132244
0.000133962
0.000145078
0.000131638
0.000131591
0.00014256
0.000144981
0.0001336
0.000144932
0.000133454
0.000131739
0.0001451
0.000145045
0.000131962
0.000131952
0.000131899
9.23769e-05
0.000107756
0.000107974
9.26266e-05
0.000108195
9.33121e-05
9.26715e-05
0.00010775
0.00010799
9.26963e-05
0.00010414
0.00010463
0.000104339
7.52676e-05
7.54174e-05
7.59243e-05
7.58981e-05
9.21687e-05
0.00010781
0.000104348
9.34997e-05
0.000107561
9.22976e-05
9.42107e-05
0.000108229
9.34581e-05
9.27047e-05
0.00010468
0.000107943
9.45766e-05
0.00010757
9.47858e-05
9.30092e-05
0.000108576
0.000108563
9.12336e-05
9.34485e-05
9.34967e-05
5.65423e-05
6.91883e-05
6.86667e-05
5.67479e-05
6.93437e-05
5.63996e-05
5.64284e-05
6.93533e-05
6.88342e-05
5.67306e-05
6.74581e-05
6.75835e-05
6.77513e-05
4.75334e-05
4.73347e-05
4.66218e-05
4.67718e-05
5.67759e-05
6.86018e-05
6.70478e-05
5.96598e-05
6.8384e-05
5.67795e-05
5.97073e-05
6.95746e-05
5.62252e-05
5.67193e-05
6.73625e-05
6.8882e-05
5.92564e-05
6.88753e-05
5.95899e-05
5.64933e-05
6.89467e-05
6.89989e-05
5.7967e-05
5.6018e-05
5.60198e-05
2.66576e-05
3.72857e-05
3.87102e-05
2.46808e-05
3.68293e-05
2.327e-05
2.65374e-05
3.7185e-05
3.82782e-05
2.4546e-05
4.11373e-05
4.04967e-05
4.0587e-05
1.86658e-05
1.80545e-05
1.913e-05
1.91815e-05
2.90574e-05
3.86364e-05
4.03891e-05
3.39816e-05
3.99581e-05
2.66605e-05
3.36904e-05
3.66316e-05
2.29688e-05
2.88641e-05
3.97402e-05
3.80109e-05
3.38095e-05
3.91557e-05
3.33693e-05
2.65756e-05
3.63856e-05
3.63033e-05
3.25891e-05
2.44554e-05
2.44762e-05
3.92446e-06
9.66091e-06
9.01043e-06
2.71643e-06
5.53527e-06
-9.76279e-07
4.17756e-06
9.67805e-06
9.39332e-06
2.72202e-06
1.7999e-06
1.15066e-05
1.18397e-05
9.59695e-06
1.19959e-05
5.18261e-06
5.5362e-06
3.45898e-06
8.16923e-06
1.13211e-05
1.70684e-06
1.05543e-05
7.0182e-06
-1.63169e-06
6.08794e-06
-9.17895e-07
4.00093e-06
1.22569e-05
9.00921e-06
2.44148e-06
1.13736e-05
-1.23458e-06
7.79112e-06
5.89585e-06
6.00151e-06
1.11165e-06
6.45189e-06
6.55748e-06
0.000738611
0.000738611
0.000738823
0.000738588
0.000738589
0.000720913
0.000734156
0.000720913
0.000734157
0.000734036
0.000720917
0.000720916
0.000734149
0.00073415
0.000738614
0.000738619
0.000738664
0.000740831
0.000738642
0.00074084
0.000738662
0.000740822
0.000738635
0.000740838
0.000734168
0.000720922
0.000734173
0.000720941
0.000734167
0.000720924
0.000734173
0.000720941
0.000734118
0.000732017
0.000720973
0.000723194
0.000734144
0.000732022
0.000721017
0.000734116
0.000732011
0.000720973
0.000723194
0.000734137
0.00073202
0.000721016
0.000738811
0.000738583
0.000738582
0.000738609
0.000720912
0.000734158
0.000734026
0.000720914
0.000720912
0.000734143
0.000734141
0.000720911
0.000734156
0.000738666
0.000740831
0.000738643
0.000740842
0.000738616
0.000738618
0.000738666
0.000740825
0.00074084
0.00073864
0.000734169
0.000720922
0.000734174
0.000720937
0.000734119
0.000732016
0.000720971
0.00072319
0.000734143
0.000732021
0.000721011
0.000734169
0.000720919
0.000734171
0.000720937
0.000734118
0.000732007
0.000723187
0.000720964
0.000732018
0.000734138
0.00072101
0.00073861
0.000738618
0.000738657
0.000740819
0.000740835
0.000738632
0.00073861
0.000738616
0.000734108
0.000732007
0.000720969
0.000723187
0.000734134
0.000732014
0.000721005
0.000734161
0.000720922
0.000734172
0.000720935
0.000734107
0.000732
0.000723183
0.000720963
0.000732012
0.000734131
0.000721004
0.000734161
0.00072092
0.00073417
0.000720934
0.000738811
0.000738588
0.000738586
0.00073861
0.000720911
0.000734153
0.000734021
0.000720911
0.00072091
0.000734147
0.000734146
0.00072091
0.000734155
0.000738657
0.000740819
0.000740834
0.000738632
0.000738611
0.000738619
0.000738611
0.000738617
0.000734107
0.000732002
0.000723181
0.000720962
0.000732011
0.000734134
0.000721001
0.000734107
0.000731999
0.00072318
0.000720962
0.00073201
0.000734131
0.000721001
0.000734161
0.000720917
0.000734171
0.000720932
0.000734161
0.000720919
0.000734171
0.000720931
0.000738609
0.000738611
0.000734015
0.00072091
0.000720909
0.000734143
0.000734143
0.000720911
0.000734155
0.00072091
0.000734157
0.000716464
0.000703205
0.000716464
0.000703203
0.000716474
0.000716473
0.000703375
0.000703205
0.000703203
0.000685442
0.000698741
0.000685441
0.00069874
0.000698534
0.000685425
0.000685425
0.000698751
0.000698748
0.000703213
0.000716474
0.000716485
0.000703202
0.000703282
0.00071646
0.000714344
0.000705438
0.000716457
0.000703234
0.000705468
0.000703284
0.000716462
0.000714346
0.00070545
0.000716457
0.000703241
0.000705472
0.000698738
0.000685433
0.000698735
0.000685426
0.000698739
0.000685433
0.000698739
0.000685426
0.000698694
0.000696529
0.000685437
0.00068766
0.000698701
0.000696569
0.000685465
0.000698696
0.000696542
0.000685443
0.000687662
0.000698709
0.000696572
0.000685466
0.000716472
0.000716471
0.000703396
0.000703207
0.000703207
0.000716462
0.000703206
0.00068544
0.000698745
0.000698552
0.000685433
0.000685435
0.000698754
0.000698754
0.000685441
0.000698746
0.000703272
0.000716457
0.000714338
0.000705434
0.000716449
0.00070323
0.00070546
0.000703206
0.000716469
0.000716479
0.000703196
0.000703272
0.000714336
0.000716452
0.000705435
0.000716448
0.000705461
0.00070323
0.000698732
0.000685432
0.000698733
0.000685425
0.000698685
0.000696526
0.000685437
0.000687659
0.000698697
0.000696564
0.000685465
0.000698732
0.000685434
0.000698734
0.000685425
0.000698686
0.000696533
0.000687662
0.000685442
0.000696565
0.000698699
0.000685466
0.000703214
0.000716472
0.000716479
0.000703201
0.000703283
0.000714337
0.000716453
0.000705442
0.000716446
0.000705467
0.000703237
0.000703213
0.000716471
0.000716479
0.000703199
0.000698699
0.000696543
0.000685446
0.000687666
0.00069871
0.000696574
0.000685474
0.000698741
0.000685434
0.000698739
0.00068543
0.000698699
0.000696541
0.000687668
0.000685447
0.000696574
0.000698708
0.000685474
0.00069874
0.000685435
0.000698737
0.000685431
0.000716468
0.000716468
0.00070338
0.000703199
0.000703198
0.000716459
0.0007032
0.000685442
0.00069874
0.000698543
0.000685428
0.00068543
0.000698745
0.000698745
0.000685441
0.000698739
0.000703278
0.000714333
0.000716452
0.000705441
0.000716442
0.000705463
0.000703235
0.000703208
0.000716467
0.000716475
0.000703195
0.000703209
0.000716469
0.000716475
0.000703197
0.000698694
0.000696536
0.000687668
0.000685446
0.000696571
0.000698702
0.000685475
0.000698695
0.00069654
0.000687668
0.000685447
0.000696572
0.000698706
0.000685475
0.000698736
0.000685435
0.000698733
0.000685431
0.000698737
0.000685435
0.000698735
0.000685431
0.000716461
0.000703203
0.000716459
0.000703202
0.000698551
0.000685433
0.000685433
0.000698749
0.000698748
0.000685441
0.000698742
0.000685441
0.000698741
0.000680977
0.000667681
0.000680976
0.000667683
0.000680956
0.000680957
0.000667818
0.000667642
0.000667645
0.000649927
0.000663217
0.000649929
0.000663219
0.000663012
0.000649918
0.000649921
0.000663186
0.000663191
0.000667646
0.000680964
0.000680948
0.000667669
0.000667675
0.000680901
0.000678757
0.000669849
0.000680873
0.000667669
0.000669872
0.000667674
0.000680905
0.000678756
0.000669835
0.000680874
0.000667659
0.000669867
0.000663181
0.000649933
0.000663218
0.000649922
0.000663179
0.000649933
0.000663211
0.000649921
0.000663106
0.000660995
0.000649961
0.000652147
0.000663154
0.000661005
0.000649968
0.000663103
0.000660977
0.000649952
0.000652143
0.000663143
0.000660999
0.000649966
0.000680962
0.000680963
0.000667794
0.000667639
0.000667641
0.000680974
0.000667679
0.000649931
0.000663213
0.000662986
0.00064991
0.00064991
0.000663184
0.000663184
0.000649931
0.000663213
0.00066769
0.000680903
0.000678762
0.000669854
0.000680877
0.000667675
0.000669881
0.000667656
0.000680968
0.000680949
0.000667677
0.00066769
0.000678764
0.000680908
0.000669856
0.000680878
0.000669882
0.000667676
0.000663192
0.000649937
0.00066322
0.000649931
0.000663122
0.000661
0.000649967
0.000652155
0.00066316
0.000661016
0.000649979
0.000663191
0.000649936
0.000663219
0.00064993
0.000663122
0.000660998
0.000652154
0.000649964
0.000661015
0.00066316
0.000649978
0.000667647
0.000680964
0.000680951
0.00066767
0.000667678
0.000678763
0.000680911
0.000669846
0.000680883
0.000669873
0.000667665
0.000667648
0.000680967
0.000680952
0.000667671
0.000663103
0.000660976
0.00064995
0.00065214
0.000663143
0.000660999
0.00064996
0.000663179
0.000649932
0.000663211
0.000649917
0.000663104
0.000660984
0.000652141
0.000649951
0.000661001
0.000663147
0.00064996
0.000663179
0.000649932
0.000663212
0.000649917
0.00068096
0.000680962
0.000667819
0.000667649
0.000667647
0.000680975
0.000667683
0.000649929
0.000663218
0.000663009
0.00064992
0.000649918
0.000663193
0.00066319
0.000649933
0.000663218
0.000667686
0.000678767
0.000680911
0.000669848
0.000680885
0.000669879
0.000667668
0.000667655
0.000680969
0.000680953
0.000667677
0.000667655
0.000680967
0.000680953
0.000667674
0.000663114
0.000660994
0.000652147
0.000649956
0.00066101
0.000663156
0.000649966
0.000663113
0.000660987
0.000652145
0.000649953
0.000661008
0.00066315
0.000649966
0.000663187
0.000649935
0.000663218
0.000649922
0.000663186
0.000649934
0.000663215
0.000649922
0.000680973
0.000667679
0.000680974
0.00066768
0.000662997
0.000649911
0.000649912
0.000663184
0.000663187
0.000649931
0.000663213
0.000649932
0.000663215
0.000645453
0.000632148
0.000645454
0.000632149
0.000645465
0.000645466
0.000632312
0.00063216
0.000632158
0.000614318
0.000627671
0.000614314
0.00062767
0.000627445
0.000614326
0.000614316
0.000627696
0.000627693
0.000632168
0.000645473
0.000645461
0.000632147
0.000632232
0.000645447
0.000643279
0.000634372
0.000645406
0.000632191
0.000634388
0.000632234
0.000645441
0.000643279
0.000634385
0.000645404
0.000632202
0.000634392
0.000627678
0.000614306
0.000627664
0.000614311
0.000627679
0.000614307
0.000627669
0.000614313
0.000627635
0.000625429
0.000614317
0.000616517
0.000627642
0.000625463
0.00061435
0.000627638
0.000625451
0.000614328
0.000616523
0.000627656
0.000625469
0.000614353
0.00064546
0.000645459
0.000632342
0.00063216
0.000632161
0.000645461
0.000632149
0.000614314
0.000627672
0.000627477
0.000614332
0.000614341
0.000627696
0.000627697
0.000614321
0.000627675
0.00063222
0.00064545
0.000643282
0.000634368
0.000645413
0.000632186
0.000634383
0.000632159
0.00064547
0.000645466
0.000632143
0.00063222
0.000643281
0.000645447
0.000634367
0.000645412
0.000634383
0.000632187
0.000627668
0.000614301
0.000627663
0.000614301
0.000627619
0.000625423
0.000614308
0.000616506
0.000627636
0.000625452
0.000614333
0.000627668
0.000614302
0.000627663
0.000614301
0.00062762
0.000625424
0.000616506
0.000614309
0.000625453
0.000627637
0.000614333
0.00063217
0.000645472
0.000645456
0.000632149
0.000632233
0.000643276
0.000645439
0.000634379
0.000645398
0.00063439
0.000632199
0.00063217
0.000645471
0.000645456
0.000632147
0.000627643
0.000625453
0.000614334
0.000616529
0.000627656
0.000625474
0.000614363
0.000627684
0.000614313
0.000627671
0.00061432
0.000627642
0.000625447
0.000616528
0.000614331
0.000625472
0.000627654
0.000614362
0.000627684
0.000614312
0.00062767
0.000614319
0.000645464
0.000645464
0.000632311
0.000632157
0.000632158
0.00064546
0.000632148
0.000614314
0.000627671
0.000627446
0.000614316
0.000614326
0.00062769
0.000627692
0.000614315
0.000627671
0.000632226
0.000643276
0.00064544
0.000634377
0.000645401
0.000634386
0.000632195
0.000632163
0.000645471
0.000645459
0.000632143
0.000632164
0.000645472
0.000645459
0.000632146
0.00062763
0.000625429
0.000616517
0.00061432
0.00062546
0.000627642
0.000614351
0.000627632
0.000625442
0.000616521
0.000614326
0.000625464
0.000627649
0.000614352
0.000627675
0.000614306
0.000627664
0.000614312
0.000627676
0.000614309
0.000627668
0.000614313
0.00064546
0.000632149
0.00064546
0.000632149
0.000627467
0.000614334
0.000614332
0.000627696
0.000627695
0.000614319
0.000627674
0.000614317
0.000627674
0.000609838
0.000596512
0.000609837
0.000596511
0.000609829
0.000609825
0.000596583
0.000596458
0.000596459
0.000578782
0.000592041
0.000578784
0.00059204
0.000591792
0.000578723
0.000578728
0.000591996
0.000591997
0.000596462
0.000609818
0.000609813
0.000596498
0.000596475
0.000609755
0.000607577
0.000598627
0.000609735
0.000596468
0.000598667
0.000596474
0.000609765
0.000607579
0.000598618
0.000609737
0.000596458
0.000598665
0.000591993
0.000578789
0.00059204
0.000578761
0.000591991
0.000578784
0.000592036
0.00057876
0.000591899
0.000589786
0.000578793
0.000580991
0.000591952
0.000589807
0.0005788
0.000591897
0.000589769
0.00057878
0.000580985
0.000591939
0.000589802
0.000578798
0.000609837
0.000609842
0.000596559
0.000596459
0.000596459
0.000609836
0.000596513
0.000578778
0.000592041
0.000591765
0.00057871
0.000578706
0.000591994
0.000591991
0.000578773
0.000592039
0.000596479
0.000609747
0.000607569
0.000598627
0.000609721
0.00059647
0.000598668
0.000596465
0.000609817
0.000609803
0.000596502
0.000596479
0.00060757
0.000609748
0.00059863
0.000609721
0.000598668
0.00059647
0.000592
0.000578793
0.000592041
0.000578776
0.00059191
0.000589791
0.000578802
0.000581003
0.000591955
0.000589816
0.000578823
0.000592
0.000578796
0.000592042
0.000578776
0.00059191
0.000589795
0.000581005
0.000578807
0.000589817
0.000591955
0.000578823
0.000596463
0.000609821
0.00060982
0.000596498
0.000596475
0.000607584
0.000609769
0.000598623
0.000609746
0.000598667
0.000596463
0.000596464
0.000609823
0.00060982
0.000596502
0.000591893
0.000589766
0.000578776
0.000580978
0.000591937
0.000589797
0.000578786
0.000591989
0.000578778
0.000592035
0.000578752
0.000591894
0.000589772
0.000580978
0.000578778
0.000589799
0.000591944
0.000578787
0.00059199
0.000578779
0.000592038
0.000578753
0.000609824
0.000609829
0.000596587
0.000596459
0.00059646
0.000609834
0.000596514
0.000578788
0.000592038
0.000591798
0.00057873
0.000578727
0.000591995
0.000591997
0.000578787
0.000592044
0.00059648
0.000607581
0.000609766
0.000598625
0.000609738
0.000598669
0.000596467
0.000596468
0.000609818
0.000609814
0.000596504
0.000596468
0.000609821
0.000609814
0.000596503
0.000591905
0.000589791
0.000580994
0.000578796
0.000589811
0.000591954
0.000578805
0.000591904
0.000589777
0.000580988
0.000578785
0.000589806
0.000591948
0.000578803
0.000591998
0.000578793
0.000592043
0.000578766
0.000591997
0.000578784
0.00059204
0.000578764
0.000609836
0.000596516
0.000609836
0.000596516
0.000591775
0.000578712
0.000578716
0.000591996
0.000591999
0.000578775
0.000592043
0.000578778
0.000592044
0.000574331
0.00056104
0.000574332
0.000561042
0.00057429
0.000574295
0.000561425
0.000561063
0.000561064
0.000543277
0.000556585
0.000543276
0.000556587
0.000556586
0.000543306
0.000543304
0.000556613
0.000556612
0.000561117
0.000574348
0.000574322
0.000561081
0.000561211
0.000574306
0.000572193
0.000563411
0.00057427
0.000561163
0.000563382
0.00056121
0.000574295
0.000572189
0.00056341
0.000574268
0.000561172
0.00056338
0.000556652
0.000543266
0.000556608
0.000543291
0.000556652
0.000543263
0.00055661
0.000543291
0.000556652
0.000554531
0.000543333
0.000545562
0.000556637
0.000554514
0.000543383
0.000556653
0.000554539
0.000543336
0.000545564
0.000556647
0.000554516
0.000543385
0.000574279
0.000574277
0.000561434
0.000561064
0.000561061