/*--------------------------------*- C++ -*----------------------------------*\
| =========                 |                                                 |
| \\      /  F ield         | OpenFOAM: The Open Source CFD Toolbox           |
|  \\    /   O peration     | Version:  v1906                                 |
|   \\  /    A nd           | Web:      www.OpenFOAM.com                      |
|    \\/     M anipulation  |                                                 |
\*---------------------------------------------------------------------------*/
FoamFile
{
    version     2.0;
    format      ascii;
    class       surfaceScalarField;
    location    "875";
    object      phi;
}
// * * * * * * * * * * * * * * * * * * * * * * * * * * * * * * * * * * * * * //

dimensions      [0 3 -1 0 0 0 0];
oriented        oriented;


internalField   nonuniform List<scalar> 
124860
(
-8.09558e-07
-8.14978e-07
-0.00114626
4.35114e-07
4.26342e-07
0.00114702
-0.00113706
-1.48255e-06
8.02495e-07
3.42059e-07
0.00113752
-4.45445e-07
1.15801e-06
1.80003e-07
7.18994e-07
-5.41134e-07
-1.24315e-06
4.90128e-08
-0.00113672
-1.51013e-06
8.44806e-07
4.17533e-07
0.00113721
-4.96527e-07
1.1191e-06
1.29383e-07
7.25652e-07
-5.3586e-07
-1.23661e-06
5.65464e-08
-0.000276375
1.52539e-06
1.48953e-06
-4.77295e-07
-4.83337e-07
0.00027432
-8.53495e-07
-8.61742e-07
-0.00114934
4.69081e-07
4.58326e-07
0.00115013
-0.00113899
-1.51564e-06
8.10644e-07
4.07167e-07
0.00113945
-4.87926e-07
1.13193e-06
1.58114e-07
7.28542e-07
-5.2169e-07
-1.21954e-06
5.01554e-08
-0.00113858
-1.50378e-06
8.25492e-07
4.31009e-07
0.00113902
-4.92124e-07
1.11817e-06
1.16668e-07
7.33678e-07
-5.15937e-07
-1.21671e-06
6.61128e-08
-0.000276494
1.53412e-06
1.49764e-06
-4.85068e-07
-4.91976e-07
0.000274439
-7.67418e-07
-7.71935e-07
-0.0011524
4.0109e-07
4.00379e-07
0.00115314
-0.00114062
-1.50777e-06
8.36976e-07
4.51672e-07
0.00114104
-5.23748e-07
1.10416e-06
5.94368e-08
7.48839e-07
-4.84827e-07
-1.19583e-06
8.6612e-08
-0.00114024
-1.49534e-06
8.21918e-07
4.14844e-07
0.00114064
-4.78445e-07
1.12422e-06
1.25275e-07
7.34151e-07
-5.07176e-07
-1.20423e-06
6.36136e-08
-0.000276542
1.5485e-06
1.51179e-06
-4.89844e-07
-4.97726e-07
0.000274469
-8.064e-07
-7.96553e-07
-0.00115537
4.28123e-07
4.41865e-07
0.0011561
-0.00114215
-1.47292e-06
7.73073e-07
3.69955e-07
0.00114246
-4.20739e-07
1.15931e-06
1.84598e-07
7.3065e-07
-5.00674e-07
-1.19495e-06
5.48692e-08
-0.00114177
-1.46349e-06
7.59876e-07
3.52147e-07
0.00114213
-4.35253e-07
1.14957e-06
1.56986e-07
7.36389e-07
-4.97026e-07
-1.19299e-06
6.80605e-08
-0.000276432
1.50367e-06
1.47221e-06
-4.45282e-07
-4.48048e-07
0.00027435
-7.62264e-07
-7.63276e-07
-0.00115819
4.11374e-07
4.10888e-07
0.00115889
-0.00114342
-1.47955e-06
7.65761e-07
4.02703e-07
0.00114374
-4.70511e-07
1.13295e-06
1.12283e-07
7.56719e-07
-4.61651e-07
-1.16248e-06
8.93364e-08
-0.00114309
-1.4776e-06
7.72932e-07
4.16067e-07
0.0011434
-4.65115e-07
1.12678e-06
1.17987e-07
7.52033e-07
-4.68825e-07
-1.16507e-06
8.52176e-08
-0.00027638
1.50561e-06
1.47047e-06
-4.39681e-07
-4.45529e-07
0.000274289
-7.13523e-07
-7.15344e-07
-0.00116097
3.89126e-07
3.85424e-07
0.00116163
-0.00114456
-1.45235e-06
7.21075e-07
3.49944e-07
0.0011448
-4.10147e-07
1.16585e-06
1.79048e-07
7.51045e-07
-4.62244e-07
-1.1531e-06
7.81658e-08
-0.0011442
-1.45042e-06
7.38869e-07
3.85341e-07
0.00114443
-4.27942e-07
1.14505e-06
1.38127e-07
7.54098e-07
-4.57506e-07
-1.15155e-06
9.00934e-08
-0.000276201
1.47713e-06
1.44207e-06
-4.08932e-07
-4.14464e-07
0.000274105
-7.20061e-07
-7.21172e-07
-0.00116363
3.96072e-07
3.9811e-07
0.00116427
-0.00114548
-1.45553e-06
7.14959e-07
3.68005e-07
0.0011457
-4.3144e-07
1.15116e-06
1.5056e-07
7.63574e-07
-4.40248e-07
-1.13026e-06
9.15578e-08
-0.00114511
-1.43291e-06
6.96969e-07
3.33381e-07
0.00114531
-3.96451e-07
1.16503e-06
1.78318e-07
7.56799e-07
-4.49665e-07
-1.13545e-06
8.81348e-08
-0.000276052
1.48613e-06
1.45091e-06
-4.16709e-07
-4.23018e-07
0.000273955
-6.77977e-07
-6.78194e-07
-0.00116612
3.70079e-07
3.69742e-07
0.00116674
-0.00114621
-1.437e-06
6.90851e-07
3.57027e-07
0.00114637
-4.13909e-07
1.15881e-06
1.54628e-07
7.69963e-07
-4.24631e-07
-1.11358e-06
1.00607e-07
-0.00114585
-1.43822e-06
6.99729e-07
3.75399e-07
0.00114601
-4.24327e-07
1.14481e-06
1.36841e-07
7.7236e-07
-4.23554e-07
-1.11068e-06
1.06784e-07
-0.000275821
1.45811e-06
1.42346e-06
-3.88907e-07
-3.94241e-07
0.000273723
-6.7701e-07
-6.77956e-07
-0.00116857
3.8323e-07
3.83651e-07
0.00116916
-0.00114676
-1.42739e-06
6.71399e-07
3.57887e-07
0.00114687
-4.03338e-07
1.1611e-06
1.59599e-07
7.74846e-07
-4.12166e-07
-1.09686e-06
1.04528e-07
-0.00114638
-1.41614e-06
6.67225e-07
3.49354e-07
0.00114649
-3.9108e-07
1.16077e-06
1.63958e-07
7.72688e-07
-4.16849e-07
-1.09845e-06
1.05726e-07
-0.000275588
1.45101e-06
1.41603e-06
-3.80307e-07
-3.86127e-07
0.000273487
-6.40468e-07
-6.40582e-07
-0.00117087
3.6238e-07
3.6307e-07
0.00117142
-0.00114713
-1.40756e-06
6.41317e-07
3.29852e-07
0.00114721
-3.85718e-07
1.17041e-06
1.66108e-07
7.80649e-07
-3.98806e-07
-1.08196e-06
1.12683e-07
-0.00114676
-1.40228e-06
6.42248e-07
3.31923e-07
0.00114683
-3.83105e-07
1.16433e-06
1.62831e-07
7.80157e-07
-4.01521e-07
-1.0818e-06
1.15102e-07
-0.000275326
1.43456e-06
1.39987e-06
-3.6576e-07
-3.71137e-07
0.000273229
-6.21275e-07
-6.2097e-07
-0.00117305
3.55837e-07
3.57362e-07
0.00117358
-0.00114737
-1.39636e-06
6.20291e-07
3.16002e-07
0.0011474
-3.73502e-07
1.17578e-06
1.76252e-07
7.85548e-07
-3.87635e-07
-1.06656e-06
1.1645e-07
-0.001147
-1.38813e-06
6.16914e-07
3.10458e-07
0.00114703
-3.67306e-07
1.1723e-06
1.75248e-07
7.85272e-07
-3.90229e-07
-1.06656e-06
1.19713e-07
-0.000275061
1.42816e-06
1.39358e-06
-3.5976e-07
-3.65132e-07
0.000272964
-5.94003e-07
-5.94708e-07
-0.00117512
3.46827e-07
3.46902e-07
0.00117561
-0.00114746
-1.38444e-06
5.95722e-07
3.05476e-07
0.00114746
-3.66738e-07
1.17786e-06
1.75336e-07
7.92889e-07
-3.73243e-07
-1.05057e-06
1.25147e-07
-0.00114709
-1.37927e-06
5.96828e-07
3.06901e-07
0.00114709
-3.63025e-07
1.1724e-06
1.73886e-07
7.92354e-07
-3.76516e-07
-1.05051e-06
1.27062e-07
-0.000274792
1.41238e-06
1.37751e-06
-3.45425e-07
-3.50986e-07
0.000272699
-5.73379e-07
-5.73301e-07
-0.00117706
3.39622e-07
3.40581e-07
0.00117752
-0.00114741
-1.37186e-06
5.74409e-07
2.90671e-07
0.00114738
-3.55023e-07
1.18277e-06
1.81942e-07
7.9744e-07
-3.62561e-07
-1.03707e-06
1.29909e-07
-0.00114705
-1.36573e-06
5.73467e-07
2.89384e-07
0.00114701
-3.51733e-07
1.17733e-06
1.78888e-07
7.97477e-07
-3.64951e-07
-1.03683e-06
1.33067e-07
-0.000274517
1.39978e-06
1.36511e-06
-3.33923e-07
-3.39274e-07
0.000272425
-5.4948e-07
-5.4975e-07
-0.00117887
3.32873e-07
3.3343e-07
0.0011793
-0.00114726
-1.35809e-06
5.46265e-07
2.67923e-07
0.0011472
-3.43074e-07
1.18828e-06
1.87961e-07
8.02944e-07
-3.5096e-07
-1.02361e-06
1.36616e-07
-0.00114689
-1.35223e-06
5.45959e-07
2.67148e-07
0.00114683
-3.39282e-07
1.18323e-06
1.86469e-07
8.02655e-07
-3.53886e-07
-1.02353e-06
1.39025e-07
-0.000274249
1.38879e-06
1.35404e-06
-3.24814e-07
-3.30273e-07
0.000272161
-5.23814e-07
-5.24029e-07
-0.00118055
3.2334e-07
3.23985e-07
0.00118095
-0.001147
-1.349e-06
5.26312e-07
2.57802e-07
0.00114693
-3.36521e-07
1.19007e-06
1.90422e-07
8.07869e-07
-3.40305e-07
-1.01071e-06
1.41785e-07
-0.00114664
-1.34347e-06
5.25845e-07
2.57405e-07
0.00114656
-3.33751e-07
1.18449e-06
1.87794e-07
8.07879e-07
-3.4275e-07
-1.0104e-06
1.44637e-07
-0.000273985
1.37617e-06
1.34148e-06
-3.14059e-07
-3.19459e-07
0.000271901
-5.00176e-07
-5.0047e-07
-0.0011821
3.16069e-07
3.16507e-07
0.00118247
-0.00114666
-1.336e-06
4.99116e-07
2.35209e-07
0.00114657
-3.25607e-07
1.19486e-06
1.95017e-07
8.13151e-07
-3.29421e-07
-9.98454e-07
1.48507e-07
-0.00114629
-1.33063e-06
4.99273e-07
2.35195e-07
0.0011462
-3.23034e-07
1.1893e-06
1.92534e-07
8.12873e-07
-3.321e-07
-9.98358e-07
1.51e-07
-0.000273728
1.36683e-06
1.33211e-06
-3.06194e-07
-3.11631e-07
0.000271647
-4.74623e-07
-4.74744e-07
-0.00118353
3.0705e-07
3.07653e-07
0.00118386
-0.00114625
-1.32617e-06
4.75869e-07
2.19754e-07
0.00114613
-3.169e-07
1.19822e-06
2.00259e-07
8.17442e-07
-3.20195e-07
-9.87071e-07
1.53067e-07
-0.00114588
-1.32097e-06
4.76126e-07
2.20614e-07
0.00114577
-3.14974e-07
1.19209e-06
1.96469e-07
8.17383e-07
-3.2252e-07
-9.86835e-07
1.55979e-07
-0.000273479
1.35496e-06
1.32032e-06
-2.9638e-07
-3.01739e-07
0.000271401
-4.50401e-07
-4.50559e-07
-0.00118482
2.99098e-07
2.99662e-07
0.00118512
-0.00114577
-1.31579e-06
4.50253e-07
2.00409e-07
0.00114565
-3.08803e-07
1.2015e-06
2.038e-07
8.21996e-07
-3.10499e-07
-9.76104e-07
1.58645e-07
-0.0011454
-1.30997e-06
4.49985e-07
2.00336e-07
0.00114528
-3.05728e-07
1.19594e-06
2.00829e-07
8.21902e-07
-3.12997e-07
-9.75948e-07
1.61544e-07
-0.000273238
1.34523e-06
1.31059e-06
-2.88373e-07
-2.93747e-07
0.000271164
-4.25236e-07
-4.25374e-07
-0.00118598
2.89671e-07
2.90244e-07
0.00118625
-0.00114525
-1.30678e-06
4.26094e-07
1.85291e-07
0.00114512
-3.01704e-07
1.20382e-06
2.06608e-07
8.26367e-07
-3.01373e-07
-9.65588e-07
1.6379e-07
-0.00114488
-1.30077e-06
4.25491e-07
1.84154e-07
0.00114475
-2.98051e-07
1.19875e-06
2.04724e-07
8.26092e-07
-3.04149e-07
-9.6555e-07
1.66364e-07
-0.000273007
1.33559e-06
1.30097e-06
-2.80567e-07
-2.85932e-07
0.000270937
-3.99392e-07
-4.10946e-07
-0.00118701
2.79628e-07
2.80063e-07
0.00118726
-0.00114469
-1.29661e-06
3.99181e-07
1.65541e-07
0.00114455
-2.92495e-07
1.20767e-06
2.11573e-07
8.30302e-07
-2.93057e-07
-9.55983e-07
1.68593e-07
-0.00114433
-1.29147e-06
3.99627e-07
1.66617e-07
0.00114418
-2.90425e-07
1.20169e-06
2.08307e-07
8.30186e-07
-2.95574e-07
-9.55752e-07
1.71274e-07
-0.000272784
1.3263e-06
1.29169e-06
-2.73143e-07
-2.78493e-07
0.000270718
-3.74437e-07
-3.74389e-07
-0.00118793
2.69849e-07
2.70637e-07
0.00118814
-0.00114411
-1.28866e-06
3.73488e-07
1.50173e-07
0.00114396
-2.8328e-07
1.21009e-06
2.12515e-07
8.34027e-07
-2.85153e-07
-9.46719e-07
1.72737e-07
-0.00114374
-1.28246e-06
3.72353e-07
1.48356e-07
0.00114359
-2.82439e-07
1.20508e-06
2.13245e-07
8.33901e-07
-2.87721e-07
-9.46597e-07
1.75617e-07
-0.000272573
1.31755e-06
1.28303e-06
-2.66278e-07
-2.7159e-07
0.000270511
-3.47495e-07
-3.47758e-07
-0.00118872
2.57851e-07
2.5809e-07
0.0011889
-0.00114351
-1.28119e-06
3.48585e-07
1.36157e-07
0.00114336
-2.78272e-07
1.21143e-06
2.13533e-07
8.38245e-07
-2.76735e-07
-9.37457e-07
1.77795e-07
-0.00114314
-1.27613e-06
3.49325e-07
1.3751e-07
0.00114299
-2.78771e-07
1.20548e-06
2.13391e-07
8.37973e-07
-2.79453e-07
-9.37334e-07
1.80278e-07
-0.00027237
1.31039e-06
1.27579e-06
-2.60666e-07
-2.66032e-07
0.000270311
-3.2176e-07
-3.21658e-07
-0.00118939
2.45947e-07
2.46598e-07
0.00118954
-0.0011429
-1.27263e-06
3.2148e-07
1.19639e-07
0.00114274
-2.70145e-07
1.21476e-06
2.18491e-07
8.41243e-07
-2.70198e-07
-9.2969e-07
1.81344e-07
-0.00114253
-1.26665e-06
3.2055e-07
1.18429e-07
0.00114237
-2.69761e-07
1.20943e-06
2.18598e-07
8.41205e-07
-2.72647e-07
-9.29513e-07
1.84337e-07
-0.000272179
1.30157e-06
1.26708e-06
-2.53845e-07
-2.5913e-07
0.000270123
-2.96116e-07
-2.96282e-07
-0.00118996
2.34195e-07
2.34465e-07
0.00119008
-0.00114228
-1.26634e-06
2.95551e-07
1.07006e-07
0.00114213
-2.65909e-07
1.21576e-06
2.19612e-07
8.45106e-07
-2.62606e-07
-9.21284e-07
1.8584e-07
-0.00114191
-1.26102e-06
2.95944e-07
1.07664e-07
0.00114176
-2.66024e-07
1.21005e-06
2.19687e-07
8.44848e-07
-2.65347e-07
-9.21199e-07
1.88369e-07
-0.000271996
1.29558e-06
1.26102e-06
-2.49285e-07
-2.5463e-07
0.000269944
-2.69448e-07
-2.6935e-07
-0.00119041
2.19785e-07
2.20251e-07
0.00119051
-0.00114167
-1.25934e-06
2.70077e-07
9.39846e-08
0.00114152
-2.59831e-07
1.21792e-06
2.22756e-07
8.48058e-07
-2.5643e-07
-9.14108e-07
1.89285e-07
-0.0011413
-1.25361e-06
2.69559e-07
9.33309e-08
0.00114115
-2.59702e-07
1.21245e-06
2.22795e-07
8.47972e-07
-2.58938e-07
-9.13942e-07
1.92146e-07
-0.000271823
1.28823e-06
1.25376e-06
-2.43733e-07
-2.49015e-07
0.000269774
-2.44696e-07
-2.44729e-07
-0.00119077
2.06917e-07
2.07205e-07
0.00119085
-0.00114106
-1.25362e-06
2.44623e-07
8.324e-08
0.00114092
-2.5575e-07
1.21885e-06
2.23937e-07
8.51309e-07
-2.49902e-07
-9.06822e-07
1.93081e-07
-0.0011407
-1.24823e-06
2.44848e-07
8.36884e-08
0.00114055
-2.55881e-07
1.21314e-06
2.23877e-07
8.51088e-07
-2.52563e-07
-9.06724e-07
1.95709e-07
-0.00027166
1.28244e-06
1.24795e-06
-2.39466e-07
-2.44773e-07
0.000269614
-2.18365e-07
-2.18262e-07
-0.00119104
1.91801e-07
1.92107e-07
-0.00114047
-1.24708e-06
2.18379e-07
7.06465e-08
-2.49941e-07
1.22092e-06
2.2684e-07
8.54161e-07
-2.4413e-07
-9.00306e-07
1.96521e-07
-0.0011401
-1.24141e-06
2.18129e-07
7.03937e-08
-2.4985e-07
1.21538e-06
2.26783e-07
8.54066e-07
-2.46705e-07
-9.00151e-07
1.99303e-07
-0.000271507
1.2766e-06
1.24215e-06
-2.3515e-07
-2.40432e-07
0.000269464
-1.15665e-06
-1.11643e-06
0.000276387
-0.000274305
9.00622e-08
1.00634e-07
0.00113624
8.64216e-07
4.49275e-07
-1.56746e-06
1.50047e-07
-5.07632e-07
-1.2492e-06
3.30296e-08
-5.47135e-07
7.17825e-07
1.18333e-06
0.0011367
8.26186e-07
3.65559e-07
-1.54447e-06
1.74153e-07
-4.77965e-07
-1.25431e-06
4.56286e-08
-5.50358e-07
7.26987e-07
-1.14152e-06
0.000276423
-0.000274321
1.082e-07
1.14105e-07
0.00113737
8.66626e-07
4.39584e-07
-1.52725e-06
1.45037e-07
-5.02029e-07
-1.24854e-06
3.96176e-08
-5.52137e-07
7.18709e-07
1.152e-06
0.00113637
8.60595e-07
4.25856e-07
-1.55244e-06
1.23312e-07
-5.11414e-07
-1.24786e-06
5.43475e-08
-5.43619e-07
7.24371e-07
8.22875e-07
3.71432e-07
-1.50513e-06
1.67717e-07
-4.73406e-07
-1.24506e-06
4.33326e-08
7.19177e-07
-5.46914e-07
1.15113e-06
0.00113615
8.51719e-07
4.28281e-07
-1.55558e-06
1.41697e-07
-5.04779e-07
-1.24211e-06
4.20049e-08
-5.43547e-07
7.2019e-07
-1.11031e-06
0.000276415
-0.000274327
8.27729e-08
9.10434e-08
8.57465e-07
4.31411e-07
-1.51301e-06
1.14138e-07
-5.0395e-07
-1.24424e-06
5.49726e-08
7.22169e-07
-5.43043e-07
1.11652e-06
0.00113725
8.53809e-07
4.18847e-07
-1.52089e-06
1.39544e-07
-5.01948e-07
-1.23862e-06
4.2728e-08
-5.43005e-07
7.18416e-07
-0.000274295
9.14004e-08
9.68438e-08
1.53091e-06
1.48957e-06
-4.71191e-07
-4.82401e-07
0.00027432
-1.15094e-06
-1.11111e-06
0.000276521
-0.000274424
7.78995e-08
8.72268e-08
3.66733e-07
0.0011367
-4.56474e-07
1.19007e-06
1.89412e-07
7.20364e-07
-5.42047e-07
-1.24716e-06
4.07983e-08
-1.5225e-06
8.03035e-07
3.43883e-07
0.00113716
-4.50644e-07
1.19906e-06
1.85645e-07
7.26865e-07
-5.44469e-07
-1.25225e-06
5.13513e-08
0.0011381
8.41537e-07
-0.00113761
4.33513e-07
-1.5436e-06
8.92423e-08
-5.2011e-07
-1.22923e-06
6.58237e-08
-5.14954e-07
7.36119e-07
1.14536e-06
0.00113862
8.62177e-07
-0.00113812
4.58652e-07
-1.57079e-06
1.02913e-07
-5.36515e-07
-1.23507e-06
5.78683e-08
-5.25549e-07
7.36982e-07
-4.66031e-07
-4.70099e-07
0.000274355
-1.1037e-06
0.000276555
-0.00027446
7.39703e-08
7.95355e-08
3.52251e-07
0.00113783
-4.4978e-07
1.15088e-06
1.85357e-07
7.20511e-07
-5.47496e-07
-1.24707e-06
4.67091e-08
-1.55028e-06
8.451e-07
4.19694e-07
0.00113686
-5.04695e-07
1.16005e-06
1.37781e-07
7.27932e-07
-5.36384e-07
-1.24004e-06
5.59936e-08
0.00113922
8.44334e-07
-0.00113873
4.34906e-07
-1.50259e-06
8.42836e-08
-5.14035e-07
-1.23046e-06
7.08471e-08
-5.21427e-07
7.35368e-07
1.16164e-06
0.00113822
8.31151e-07
-0.00113777
4.1039e-07
-1.53949e-06
1.2501e-07
-4.99071e-07
-1.22694e-06
6.70309e-08
-5.21372e-07
7.35665e-07
8.17189e-07
3.78864e-07
0.00113661
-4.58968e-07
1.17786e-06
1.72668e-07
7.18412e-07
-5.43536e-07
4.45025e-08
-1.24256e-06
8.58882e-07
-0.00113849
4.62633e-07
-1.53086e-06
9.65318e-08
-5.31421e-07
-1.22613e-06
5.51302e-08
7.28828e-07
-5.22342e-07
1.14869e-06
0.00113804
8.36288e-07
-0.00113754
4.19783e-07
-1.54218e-06
1.16348e-07
-5.03544e-07
-1.22985e-06
5.20916e-08
-5.27685e-07
7.25815e-07
-4.94926e-07
-5.01871e-07
0.000274351
-1.12001e-06
0.000276491
-0.000274405
9.34408e-08
1.01662e-07
8.22338e-07
3.64496e-07
0.00113771
-4.55032e-07
1.14432e-06
1.71526e-07
7.15859e-07
-5.43504e-07
4.45137e-08
-1.23961e-06
8.2788e-07
-0.00113813
4.13935e-07
-1.49956e-06
1.1591e-07
-4.91087e-07
-1.2236e-06
6.74254e-08
7.33185e-07
-5.20901e-07
1.1145e-06
0.00113914
8.38904e-07
-0.00113864
4.21269e-07
-1.50663e-06
1.14408e-07
-5.0019e-07
-1.22834e-06
5.12671e-08
-5.28748e-07
7.22279e-07
-0.00027441
8.75801e-08
9.18729e-08
1.57098e-06
1.52908e-06
-5.06805e-07
-5.18935e-07
0.000274447
-1.18677e-06
-1.14993e-06
0.000276498
-0.000274412
1.21315e-07
1.29427e-07
4.76041e-07
0.00113857
-5.41129e-07
1.13556e-06
9.3821e-08
7.42613e-07
-5.05164e-07
-1.21566e-06
6.45426e-08
-1.55402e-06
8.2064e-07
3.86581e-07
0.00113908
-4.91426e-07
1.17535e-06
1.66227e-07
7.36067e-07
-5.25121e-07
-1.22879e-06
5.21808e-08
0.00113978
7.84019e-07
-0.00113938
3.85172e-07
-1.52248e-06
1.6226e-07
-4.56941e-07
-1.21718e-06
5.57967e-08
-5.11476e-07
7.3265e-07
1.19134e-06
0.00114025
7.76254e-07
-0.00113987
3.59557e-07
-1.50666e-06
1.32237e-07
-4.52228e-07
-1.21777e-06
8.44222e-08
-5.01771e-07
7.4801e-07
-4.93988e-07
-4.97742e-07
0.000274477
-1.15028e-06
0.000276594
-0.000274497
1.1983e-07
1.25473e-07
4.63891e-07
0.00113968
-5.34148e-07
1.09697e-06
9.01989e-08
7.42013e-07
-5.11561e-07
-1.21674e-06
6.96257e-08
-1.54219e-06
8.3541e-07
4.10679e-07
0.00113866
-4.98511e-07
1.16155e-06
1.2758e-07
7.35806e-07
-5.16612e-07
-1.22028e-06
6.53708e-08
0.00114091
7.98154e-07
-0.00114051
3.58868e-07
-1.47818e-06
1.60403e-07
-4.47535e-07
-1.21943e-06
6.0001e-08
-5.18704e-07
7.30744e-07
1.16054e-06
0.00113989
8.27388e-07
-0.0011395
4.38226e-07
-1.54042e-06
1.2595e-07
-4.93203e-07
-1.20992e-06
6.58897e-08
-5.08073e-07
7.37585e-07
7.98383e-07
3.79506e-07
0.00113851
-4.80714e-07
1.1679e-06
1.53085e-07
7.32012e-07
-5.2029e-07
5.7716e-08
-1.21981e-06
7.7521e-07
-0.00114023
3.55806e-07
-1.46711e-06
1.26739e-07
-4.4737e-07
-1.20802e-06
8.27347e-08
7.40806e-07
-4.97936e-07
1.15722e-06
0.0011397
8.0331e-07
-0.00113929
4.27112e-07
-1.51838e-06
1.0106e-07
-4.8084e-07
-1.20965e-06
7.54465e-08
-5.01673e-07
7.38369e-07
-4.8204e-07
-4.88581e-07
0.000274416
-1.1194e-06
0.000276469
-0.000274397
9.97307e-08
1.07965e-07
8.06035e-07
3.6728e-07
0.00113961
-4.76352e-07
1.13503e-06
1.52507e-07
7.28669e-07
-5.2134e-07
5.69816e-08
-1.21815e-06
8.26288e-07
-0.00113984
4.34159e-07
-1.50087e-06
1.17549e-07
-4.85518e-07
-1.20551e-06
6.71379e-08
7.3616e-07
-5.06742e-07
1.12612e-06
0.00114081
8.17607e-07
-0.0011404
4.01564e-07
-1.47949e-06
1.01996e-07
-4.74307e-07
-1.21193e-06
7.62695e-08
-5.06419e-07
7.36293e-07
-0.000274466
1.02508e-07
1.05013e-07
1.51296e-06
1.47087e-06
-4.47621e-07
-4.60291e-07
0.000274422
-1.16767e-06
-1.12285e-06
0.00027651
-0.000274436
1.01456e-07
1.14878e-07
3.40592e-07
0.00114018
-4.53256e-07
1.19457e-06
1.66504e-07
7.38868e-07
-5.00489e-07
-1.20812e-06
6.41141e-08
-1.54984e-06
8.29209e-07
4.73945e-07
0.00114067
-5.31149e-07
1.14269e-06
6.24418e-08
7.56891e-07
-4.88144e-07
-1.205e-06
8.90858e-08
0.00114134
8.08999e-07
-0.00114097
4.08958e-07
-1.53189e-06
1.22971e-07
-4.87371e-07
-1.19172e-06
7.11369e-08
-4.84467e-07
7.46206e-07
1.17228e-06
0.00114177
8.10805e-07
-0.00114145
4.39783e-07
-1.54798e-06
1.60825e-07
-4.71465e-07
-1.19705e-06
6.00891e-08
-4.98251e-07
7.44924e-07
-4.81569e-07
-4.86552e-07
0.000274504
-1.13308e-06
0.000276457
-0.000274397
1.20554e-07
1.24206e-07
3.375e-07
0.00114132
-4.46173e-07
1.155e-06
1.61754e-07
7.37509e-07
-5.07312e-07
-1.20997e-06
6.86659e-08
-1.53745e-06
8.14043e-07
4.37168e-07
0.00114029
-4.88601e-07
1.1627e-06
1.31061e-07
7.36826e-07
-5.07628e-07
-1.20774e-06
6.35474e-08
0.00114246
7.95789e-07
-0.00114209
4.31847e-07
-1.49564e-06
1.13435e-07
-4.85636e-07
-1.18966e-06
7.91543e-08
-4.88127e-07
7.48863e-07
1.18817e-06
0.0011414
7.70164e-07
-0.00114104
3.67989e-07
-1.51051e-06
1.66197e-07
-4.47476e-07
-1.19814e-06
6.47719e-08
-4.99721e-07
7.36781e-07
8.31474e-07
4.60776e-07
0.00114012
-5.24042e-07
1.13231e-06
7.92942e-08
7.48329e-07
-4.89382e-07
7.99021e-08
-1.19549e-06
8.16532e-07
-0.00114182
4.33015e-07
-1.50541e-06
1.56725e-07
-4.64093e-07
-1.1904e-06
5.59613e-08
7.34968e-07
-4.9688e-07
1.17628e-06
0.00114121
8.03823e-07
-0.00114087
3.92385e-07
-1.51303e-06
1.55878e-07
-4.46246e-07
-1.1964e-06
5.91552e-08
-4.98868e-07
7.31988e-07
-4.69596e-07
-4.77358e-07
0.000274384
-1.14893e-06
0.000276436
-0.000274359
1.27028e-07
1.33236e-07
8.35693e-07
4.57793e-07
0.00114124
-5.19758e-07
1.0984e-06
7.74215e-08
7.47015e-07
-4.93822e-07
8.1544e-08
-1.19745e-06
7.76082e-07
-0.0011414
3.61127e-07
-1.46792e-06
1.59239e-07
-4.37321e-07
-1.19691e-06
6.35065e-08
7.32495e-07
-5.01023e-07
1.13709e-06
0.00114231
7.90507e-07
-0.00114198
4.15315e-07
-1.48233e-06
1.49281e-07
-4.47398e-07
-1.19434e-06
6.43715e-08
-4.99882e-07
7.34639e-07
-0.000274375
1.23736e-07
1.32138e-07
1.53498e-06
1.49803e-06
-4.63064e-07
-4.70979e-07
0.000274411
-1.19418e-06
-1.1541e-06
0.000276381
-0.00027431
1.33736e-07
1.44041e-07
4.25428e-07
0.00114168
-4.83606e-07
1.16725e-06
1.3325e-07
7.45264e-07
-4.82529e-07
-1.1871e-06
6.69915e-08
-1.51382e-06
7.72798e-07
3.66785e-07
0.00114209
-4.26491e-07
1.20022e-06
1.90346e-07
7.3931e-07
-5.02955e-07
-1.20277e-06
5.79836e-08
0.00114258
7.45322e-07
-0.0011423
3.6861e-07
-1.50053e-06
1.60357e-07
-4.35413e-07
-1.17517e-06
7.82158e-08
-4.71475e-07
7.51159e-07
1.19505e-06
0.00114305
7.41444e-07
-0.00114273
3.50634e-07
-1.49898e-06
1.44014e-07
-4.44357e-07
-1.18146e-06
8.89024e-08
-4.73223e-07
7.58836e-07
-4.37171e-07
-4.42669e-07
0.000274351
-1.15335e-06
0.000276419
-0.000274331
1.27486e-07
1.33328e-07
4.3886e-07
0.0011428
-4.81091e-07
1.12355e-06
1.25044e-07
7.47766e-07
-4.85978e-07
-1.18477e-06
7.49234e-08
-1.50442e-06
7.59376e-07
3.49089e-07
0.00114177
-4.43853e-07
1.19052e-06
1.65501e-07
7.39633e-07
-4.9639e-07
-1.19511e-06
6.84284e-08
0.00114372
7.46906e-07
-0.00114343
3.60467e-07
-1.45979e-06
1.55497e-07
-4.29347e-07
-1.17505e-06
8.42309e-08
-4.76753e-07
7.51551e-07
1.17996e-06
0.00114274
7.62673e-07
-0.00114243
3.8979e-07
-1.50656e-06
1.38151e-07
-4.56278e-07
-1.1743e-06
8.55628e-08
-4.73394e-07
7.51893e-07
7.86848e-07
3.82276e-07
0.00114155
-4.43075e-07
1.17898e-06
1.52613e-07
7.32598e-07
-4.96725e-07
6.10095e-08
-1.19571e-06
7.38405e-07
-0.0011431
3.53959e-07
-1.45942e-06
1.37759e-07
-4.39666e-07
-1.17227e-06
8.68227e-08
7.51072e-07
-4.69787e-07
1.18524e-06
0.00114249
7.40936e-07
-0.0011422
3.63712e-07
-1.49008e-06
1.50086e-07
-4.3059e-07
-1.17144e-06
8.44489e-08
-4.71528e-07
7.49951e-07
-4.38989e-07
-4.47184e-07
0.000274354
-1.13813e-06
0.000276394
-0.000274327
1.21026e-07
1.29501e-07
7.76756e-07
3.95806e-07
0.00114266
-4.43355e-07
1.1409e-06
1.47234e-07
7.35147e-07
-4.97406e-07
6.62067e-08
-1.19337e-06
7.59871e-07
-0.00114279
3.93016e-07
-1.46711e-06
1.29e-07
-4.48832e-07
-1.17056e-06
8.62996e-08
7.49809e-07
-4.72606e-07
1.15076e-06
0.00114361
7.42474e-07
-0.00114332
3.55843e-07
-1.45487e-06
1.48015e-07
-4.27373e-07
-1.17137e-06
8.75995e-08
-4.74164e-07
7.50344e-07
-0.000274319
1.34875e-07
1.39968e-07
1.50877e-06
1.46805e-06
-4.32414e-07
-4.43383e-07
0.00027428
-1.19206e-06
-1.15082e-06
0.000276222
-0.000274162
1.35903e-07
1.46705e-07
3.97316e-07
0.00114288
-4.57831e-07
1.17946e-06
1.30771e-07
7.54365e-07
-4.63436e-07
-1.16937e-06
8.23478e-08
-1.51955e-06
7.67243e-07
4.03225e-07
0.00114336
-4.75744e-07
1.17414e-06
1.17986e-07
7.64523e-07
-4.65112e-07
-1.17162e-06
9.1449e-08
0.00114372
7.3791e-07
-0.00114346
3.66762e-07
-1.50493e-06
1.7084e-07
-4.36105e-07
-1.15621e-06
7.56763e-08
-4.60122e-07
7.56027e-07
1.18797e-06
0.00114419
7.51134e-07
-0.00114394
3.95373e-07
-1.51433e-06
1.63467e-07
-4.44972e-07
-1.16327e-06
7.83728e-08
-4.66462e-07
7.59181e-07
-4.47531e-07
-4.51622e-07
0.000274319
-1.14737e-06
0.000276238
-0.000274177
1.34862e-07
1.39756e-07
3.93031e-07
0.00114401
-4.51885e-07
1.13907e-06
1.2552e-07
7.54721e-07
-4.68839e-07
-1.16936e-06
8.82781e-08
-1.5176e-06
7.73894e-07
4.16604e-07
0.00114304
-4.73135e-07
1.168e-06
1.26508e-07
7.5435e-07
-4.69404e-07
-1.16854e-06
8.46923e-08
0.00114485
7.36102e-07
-0.00114459
3.71348e-07
-1.46537e-06
1.64814e-07
-4.31264e-07
-1.15619e-06
8.17247e-08
-4.6552e-07
7.56517e-07
1.19495e-06
0.00114383
7.31628e-07
-0.0011436
3.65297e-07
-1.4923e-06
1.67556e-07
-4.28051e-07
-1.15573e-06
8.74276e-08
-4.61597e-07
7.56336e-07
7.67587e-07
4.08867e-07
0.0011428
-4.62435e-07
1.16382e-06
1.13746e-07
7.52947e-07
-4.63787e-07
8.678e-08
-1.16528e-06
7.51573e-07
-0.00114431
3.92352e-07
-1.47357e-06
1.58105e-07
-4.39237e-07
-1.15469e-06
7.56777e-08
7.50857e-07
-4.63629e-07
1.18403e-06
0.00114362
7.42365e-07
-0.00114338
3.75877e-07
-1.49693e-06
1.68278e-07
-4.27861e-07
-1.15348e-06
7.71182e-08
-4.63155e-07
7.51757e-07
-4.44616e-07
-4.51415e-07
0.000274295
-1.15416e-06
0.000276215
-0.000274159
1.42359e-07
1.50124e-07
7.68352e-07
4.04863e-07
0.00114391
-4.59384e-07
1.12903e-06
1.11289e-07
7.53378e-07
-4.66382e-07
8.99886e-08
-1.16523e-06
7.31863e-07
-0.00114396
3.62199e-07
-1.45165e-06
1.59344e-07
-4.19548e-07
-1.15259e-06
8.77224e-08
7.53733e-07
-4.61359e-07
1.14842e-06
0.00114474
7.40423e-07
-0.00114449
3.80466e-07
-1.46282e-06
1.65075e-07
-4.25807e-07
-1.15347e-06
8.02834e-08
-4.65908e-07
7.52256e-07
-0.000274156
1.41058e-07
1.46618e-07
1.4858e-06
1.44519e-06
-4.08114e-07
-4.18793e-07
0.000274118
-1.17534e-06
-1.13592e-06
0.000276051
-0.000273994
1.22127e-07
1.31641e-07
3.42907e-07
0.00114395
-4.13672e-07
1.20651e-06
1.82014e-07
7.56521e-07
-4.56107e-07
-1.1534e-06
8.06086e-08
-1.49288e-06
7.21419e-07
3.51382e-07
0.00114442
-4.15657e-07
1.20675e-06
1.84656e-07
7.59164e-07
-4.65316e-07
-1.16183e-06
8.0576e-08
0.00114464
7.39698e-07
-0.0011444
4.12221e-07
-1.5066e-06
1.37769e-07
-4.57229e-07
-1.13887e-06
8.34041e-08
-4.42431e-07
7.62572e-07
1.19114e-06
0.00114511
7.20032e-07
-0.00114487
3.66073e-07
-1.49199e-06
1.46925e-07
-4.37876e-07
-1.14637e-06
9.34439e-08
-4.47247e-07
7.68615e-07
-4.15016e-07
-4.19757e-07
0.000274127
-1.14968e-06
0.00027609
-0.000274021
1.33417e-07
1.38751e-07
3.35527e-07
0.00114508
-4.07834e-07
1.16648e-06
1.77194e-07
7.57265e-07
-4.613e-07
-1.1531e-06
8.68615e-08
-1.49085e-06
7.39273e-07
3.86975e-07
0.00114407
-4.36274e-07
1.18607e-06
1.46533e-07
7.5661e-07
-4.57916e-07
-1.15473e-06
8.96475e-08
0.00114578
7.44649e-07
-0.00114554
4.04844e-07
-1.46494e-06
1.33468e-07
-4.50363e-07
-1.14e-06
8.83114e-08
-4.48756e-07
7.61696e-07
1.19141e-06
0.00114475
7.23713e-07
-0.00114454
3.69573e-07
-1.49112e-06
1.70557e-07
-4.2819e-07
-1.14042e-06
8.50512e-08
-4.52427e-07
7.59456e-07
7.17771e-07
3.48979e-07
0.00114385
-4.0653e-07
1.19693e-06
1.75977e-07
7.49505e-07
-4.61242e-07
7.91607e-08
-1.1538e-06
7.17331e-07
-0.00114524
3.7189e-07
-1.45221e-06
1.40809e-07
-4.3301e-07
-1.1377e-06
9.08714e-08
7.60383e-07
-4.44267e-07
1.17972e-06
0.00114454
7.18677e-07
-0.00114432
3.78771e-07
-1.48332e-06
1.41366e-07
-4.33053e-07
-1.13485e-06
9.33416e-08
-4.41946e-07
7.62299e-07
-4.13797e-07
-4.21019e-07
0.000274109
-1.14988e-06
0.000276019
-0.000273967
1.40678e-07
1.48712e-07
7.19541e-07
3.41797e-07
0.00114497
-4.03527e-07
1.16244e-06
1.73923e-07
7.50259e-07
-4.63729e-07
8.26015e-08
-1.1535e-06
7.21338e-07
-0.0011449
3.7536e-07
-1.45137e-06
1.616e-07
-4.20564e-07
-1.13733e-06
8.52957e-08
7.56821e-07
-4.52217e-07
1.14599e-06
0.00114566
7.23453e-07
-0.00114544
3.71813e-07
-1.44706e-06
1.39842e-07
-4.29007e-07
-1.13599e-06
9.5348e-08
-4.45661e-07
7.61464e-07
-0.000274003
1.3608e-07
1.40231e-07
1.49614e-06
1.45544e-06
-4.17388e-07
-4.28768e-07
0.000273946
-1.21292e-06
-1.17166e-06
0.000275865
-0.000273803
1.56003e-07
1.67176e-07
3.78695e-07
0.00114484
-4.3201e-07
1.19165e-06
1.69712e-07
7.61377e-07
-4.43275e-07
-1.13534e-06
7.99317e-08
-1.49601e-06
7.14875e-07
3.70469e-07
0.00114533
-4.37008e-07
1.19177e-06
1.55772e-07
7.7166e-07
-4.43279e-07
-1.13898e-06
9.39888e-08
0.00114536
6.67611e-07
-0.00114519
3.13218e-07
-1.4567e-06
1.74631e-07
-3.96348e-07
-1.12491e-06
9.76353e-08
-4.27403e-07
7.68157e-07
1.19986e-06
0.00114584
6.89274e-07
-0.00114567
3.66701e-07
-1.47704e-06
1.59905e-07
-4.16309e-07
-1.12827e-06
1.01229e-07
-4.3238e-07
7.7507e-07
-4.19405e-07
-4.23995e-07
0.000273981
-1.1611e-06
0.000275877
-0.000273819
1.49696e-07
1.53176e-07
3.80022e-07
0.00114598
-4.26166e-07
1.15111e-06
1.64259e-07
7.61138e-07
-4.4939e-07
-1.1362e-06
8.53202e-08
-1.47338e-06
6.965e-07
3.35801e-07
0.00114495
-4.04786e-07
1.20563e-06
1.86339e-07
7.59366e-07
-4.49956e-07
-1.13853e-06
8.78042e-08
0.0011465
6.65728e-07
-0.00114633
3.14906e-07
-1.41714e-06
1.68637e-07
-3.915e-07
-1.12429e-06
1.03979e-07
-4.3231e-07
7.68952e-07
1.19138e-06
0.00114548
6.86944e-07
-0.00114531
3.65022e-07
-1.47231e-06
1.50233e-07
-4.22926e-07
-1.12011e-06
1.05998e-07
-4.28488e-07
7.72818e-07
7.24047e-07
3.90334e-07
0.00114475
-4.35436e-07
1.17632e-06
1.40641e-07
7.62441e-07
-4.38805e-07
9.23056e-08
-1.13048e-06
6.95806e-07
-0.00114605
3.54063e-07
-1.43456e-06
1.56272e-07
-4.0891e-07
-1.12069e-06
9.75687e-08
7.65651e-07
-4.30352e-07
1.19731e-06
0.00114526
6.88704e-07
-0.00114511
3.47424e-07
-1.46212e-06
1.69825e-07
-4.00427e-07
-1.11981e-06
9.51264e-08
-4.31968e-07
7.64934e-07
-3.98486e-07
-4.05725e-07
0.000273917
-1.15244e-06
0.000275842
-0.000273788
1.41975e-07
1.48324e-07
7.24682e-07
3.91791e-07
0.00114587
-4.32462e-07
1.14135e-06
1.37895e-07
7.62295e-07
-4.42097e-07
9.5009e-08
-1.13124e-06
6.93524e-07
-0.00114567
3.5226e-07
-1.42992e-06
1.43764e-07
-4.12735e-07
-1.11802e-06
1.05245e-07
7.69046e-07
-4.29148e-07
1.16169e-06
0.00114638
6.87016e-07
-0.00114622
3.49446e-07
-1.4281e-06
1.66639e-07
-3.9841e-07
-1.11928e-06
9.84806e-08
-4.34316e-07
7.65697e-07
-0.00027378
1.56022e-07
1.61819e-07
1.46814e-06
1.42804e-06
-3.9151e-07
-4.01765e-07
0.000273762
-1.19087e-06
-1.15071e-06
0.000275606
-0.000273567
1.46452e-07
1.56641e-07
3.43918e-07
0.00114553
-4.18593e-07
1.19804e-06
1.52309e-07
7.75087e-07
-4.18144e-07
-1.11549e-06
1.03722e-07
-1.47901e-06
6.86362e-07
3.64524e-07
0.00114599
-4.20768e-07
1.1983e-06
1.58984e-07
7.79177e-07
-4.26672e-07
-1.12112e-06
1.04004e-07
0.00114593
6.88336e-07
-0.00114582
3.80921e-07
-1.47679e-06
1.57342e-07
-4.20766e-07
-1.10072e-06
1.01278e-07
-4.10682e-07
7.78263e-07
1.20118e-06
0.00114638
6.80593e-07
-0.00114626
3.55914e-07
-1.46952e-06
1.62229e-07
-4.11006e-07
-1.10954e-06
1.06652e-07
-4.17815e-07
7.81732e-07
-3.98205e-07
-4.0428e-07
0.000273764
-1.15926e-06