/*--------------------------------*- C++ -*----------------------------------*\
| =========                 |                                                 |
| \\      /  F ield         | OpenFOAM: The Open Source CFD Toolbox           |
|  \\    /   O peration     | Version:  v1906                                 |
|   \\  /    A nd           | Web:      www.OpenFOAM.com                      |
|    \\/     M anipulation  |                                                 |
\*---------------------------------------------------------------------------*/
FoamFile
{
    version     2.0;
    format      ascii;
    class       surfaceScalarField;
    location    "875";
    object      phi;
}
// * * * * * * * * * * * * * * * * * * * * * * * * * * * * * * * * * * * * * //

dimensions      [0 3 -1 0 0 0 0];
oriented        oriented;


internalField   nonuniform List<scalar> 
124908
(
1.15069e-07
1.17124e-07
-0.00118367
-7.22737e-08
-7.08346e-08
0.00118358
-0.00113215
-1.18863e-06
-1.18703e-07
-3.632e-08
0.00113212
-2.07152e-07
1.22531e-06
2.36973e-07
8.85193e-07
-1.75762e-07
-8.2404e-07
2.32173e-07
-0.00113179
-1.18205e-06
-1.20698e-07
-4.04747e-08
0.00113176
-2.05721e-07
1.22102e-06
2.38547e-07
8.84813e-07
-1.78766e-07
-8.24215e-07
2.34632e-07
-0.000270076
1.21597e-06
1.18199e-06
-1.94644e-07
-1.99715e-07
0.000268072
1.35911e-07
1.37651e-07
-0.0011833
-8.75695e-08
-8.61312e-08
0.0011832
-0.00113206
-1.17985e-06
-1.3304e-07
-6.22382e-08
0.00113204
-1.96415e-07
1.23355e-06
2.46289e-07
8.84557e-07
-1.78879e-07
-8.25901e-07
2.30621e-07
-0.00113169
-1.17473e-06
-1.32618e-07
-6.06677e-08
0.00113167
-1.97503e-07
1.22732e-06
2.44972e-07
8.85047e-07
-1.80586e-07
-8.25045e-07
2.34108e-07
-0.000270084
1.20943e-06
1.17524e-06
-1.89978e-07
-1.95118e-07
0.000268085
1.23516e-07
1.19001e-07
-0.0011829
-7.60142e-08
-8.04314e-08
0.00118282
-0.00113198
-1.18889e-06
-1.27385e-07
-3.85641e-08
0.00113197
-2.10051e-07
1.22334e-06
2.33057e-07
8.85607e-07
-1.74592e-07
-8.22627e-07
2.32421e-07
-0.00113162
-1.18411e-06
-1.25426e-07
-3.62976e-08
0.0011316
-2.09836e-07
1.21762e-06
2.3362e-07
8.84473e-07
-1.78548e-07
-8.23486e-07
2.33824e-07
-0.000270097
1.21813e-06
1.18314e-06
-1.96522e-07
-2.02416e-07
0.000268094
1.37271e-07
1.43868e-07
-0.00118258
-9.60431e-08
-9.12146e-08
0.00118249
-0.00113196
-1.1778e-06
-1.33075e-07
-6.96378e-08
0.00113195
-1.91552e-07
1.23622e-06
2.51895e-07
8.80579e-07
-1.83793e-07
-8.30218e-07
2.25976e-07
-0.00113159
-1.17055e-06
-1.36374e-07
-7.46843e-08
0.00113158
-1.90745e-07
1.23185e-06
2.5202e-07
8.81567e-07
-1.85163e-07
-8.29043e-07
2.30161e-07
-0.000270119
1.20622e-06
1.17305e-06
-1.89345e-07
-1.93578e-07
0.000268123
1.37807e-07
1.31846e-07
-0.00118216
-8.34979e-08
-8.86928e-08
0.00118206
-0.00113188
-1.18869e-06
-1.42429e-07
-3.52508e-08
0.00113186
-2.13997e-07
1.22068e-06
2.26053e-07
8.94668e-07
-1.64053e-07
-8.13527e-07
2.433e-07
-0.00113151
-1.18605e-06
-1.36352e-07
-2.66855e-08
0.00113149
-2.16113e-07
1.21289e-06
2.25027e-07
8.93101e-07
-1.6799e-07
-8.14553e-07
2.4417e-07
-0.000270139
1.218e-06
1.18226e-06
-1.94021e-07
-2.00615e-07
0.000268133
9.18969e-08
9.67067e-08
-0.00118185
-6.71667e-08
-6.24385e-08
0.0011818
-0.0011318
-1.18959e-06
-9.43067e-08
-4.05275e-08
0.00113181
-2.04413e-07
1.22646e-06
2.44271e-07
8.69418e-07
-1.91893e-07
-8.38576e-07
2.13919e-07
-0.00113144
-1.18081e-06
-1.03005e-07
-5.32001e-08
0.00113145
-1.99783e-07
1.22448e-06
2.4864e-07
8.69833e-07
-1.94491e-07
-8.38121e-07
2.17024e-07
-0.000270124
1.21664e-06
1.18413e-06
-2.0005e-07
-2.03883e-07
0.000268127
1.75561e-07
1.77613e-07
-0.00118154
-1.19825e-07
-1.19381e-07
0.00118143
-0.00113185
-1.17107e-06
-1.69641e-07
-9.13022e-08
0.00113186
-1.89705e-07
1.23919e-06
2.49859e-07
8.89843e-07
-1.75565e-07
-8.21498e-07
2.35357e-07
-0.00113149
-1.1675e-06
-1.64792e-07
-8.22623e-08
0.00113149
-1.92689e-07
1.23095e-06
2.4579e-07
8.90741e-07
-1.76319e-07
-8.2013e-07
2.39714e-07
-0.000270197
1.20276e-06
1.16769e-06
-1.85397e-07
-1.9116e-07
0.000268203
1.27166e-07
1.13388e-07
-0.00118111
-7.49269e-08
-8.79197e-08
0.00118104
-0.0011318
-1.1946e-06
-1.20135e-07
-1.85435e-08
0.00113176
-2.16763e-07
1.2165e-06
2.25463e-07
8.90707e-07
-1.66326e-07
-8.17524e-07
2.40007e-07
-0.00113141
-1.19175e-06
-1.10229e-07
-8.88834e-09
0.00113138
-2.17832e-07
1.20935e-06
2.25574e-07
8.87042e-07
-1.73479e-07
-8.20633e-07
2.37959e-07
-0.000270205
1.22312e-06
1.18657e-06
-1.96842e-07
-2.04096e-07
0.000268197
7.37377e-08
9.76661e-08
-0.00118085
-6.36388e-08
-4.21066e-08
0.00118078
-0.00113168
-1.18825e-06
-9.99349e-08
-4.34462e-08
0.00113168
-2.01917e-07
1.22752e-06
2.4626e-07
8.70053e-07
-1.91524e-07
-8.38025e-07
2.14328e-07
-0.00113133
-1.17311e-06
-1.21479e-07
-7.79049e-08
0.00113135
-1.90688e-07
1.23093e-06
2.54393e-07
8.72729e-07
-1.92591e-07
-8.36453e-07
2.20598e-07
-0.000270171
1.21454e-06
1.1847e-06
-2.00869e-07
-2.02709e-07
0.000268175
1.70332e-07
1.57141e-07
-0.0011805
-1.08803e-07
-1.19844e-07
0.00118041
-0.00113172
-1.17873e-06
-1.5867e-07
-6.80294e-08
0.00113173
-2.01026e-07
1.23035e-06
2.36443e-07
8.90193e-07
-1.74563e-07
-8.20879e-07
2.35787e-07
-0.00113137
-1.18208e-06
-1.44951e-07
-3.27989e-08
0.00113136
-2.12629e-07
1.21517e-06
2.24359e-07
8.92004e-07
-1.73597e-07
-8.18058e-07
2.41019e-07
-0.000270249
1.20767e-06
1.1709e-06
-1.8765e-07
-1.94404e-07
0.000268253
1.21492e-07
1.07307e-07
-0.00118022
-8.17912e-08
-9.73926e-08
0.00118017
-0.00113176
-1.18694e-06
-9.84352e-08
-5.65843e-08
0.00113177
-2.01369e-07
1.2287e-06
2.47011e-07
8.71355e-07
-1.89205e-07
-8.37204e-07
2.17618e-07
-0.00113136
-1.18134e-06
-8.48471e-08
-5.70437e-08
0.00113137
-1.9806e-07
1.22573e-06
2.53715e-07
8.63409e-07
-2.00118e-07
-8.44047e-07
2.10751e-07
-0.000270266
1.22402e-06
1.18615e-06
-2.01017e-07
-2.09718e-07
0.000268267
1.28412e-07
1.60653e-07
-0.00117987
-9.81412e-08
-6.47756e-08
0.00117975
-0.00113168
-1.18818e-06
-1.42872e-07
-1.70687e-08
0.00113163
-2.1691e-07
1.21576e-06
2.13283e-07
9.02035e-07
-1.58818e-07
-8.09966e-07
2.51432e-07
-0.00113135
-1.16914e-06
-1.86879e-07
-7.58274e-08
0.00113132
-2.00087e-07
1.22402e-06
2.28294e-07
9.07865e-07
-1.57292e-07
-8.05363e-07
2.61005e-07
-0.000270291
1.20341e-06
1.17738e-06
-1.87954e-07
-1.86572e-07
0.000268284
2.73851e-08
1.26407e-08
-0.0011796
-8.35181e-09
-3.19558e-08
0.0011796
-0.00113164
-1.19541e-06
-8.62243e-08
-5.01678e-08
0.00113169
-1.99207e-07
1.22919e-06
2.62465e-07
8.52185e-07
-2.0969e-07
-8.5418e-07
1.92781e-07
-0.00113128
-1.21254e-06
-3.23461e-08
4.27051e-08
0.0011313
-2.35204e-07
1.19696e-06
2.21482e-07
8.54311e-07
-2.05851e-07
-8.50293e-07
2.00183e-07
-0.00027026
1.23433e-06
1.19306e-06
-2.11467e-07
-2.2186e-07
0.000268266
2.80039e-07
2.53024e-07
-0.00117937
-1.85983e-07
-2.02132e-07
0.00117923
-0.00113178
-1.16219e-06
-1.67386e-07
-1.0663e-07
0.00113176
-1.90643e-07
1.23966e-06
2.32455e-07
9.00823e-07
-1.63561e-07
-8.13601e-07
2.50497e-07
-0.00113136
-1.14245e-06
-1.88277e-07
-1.63583e-07
0.00113138
-1.63343e-07
1.25509e-06
2.71868e-07
8.87315e-07
-1.85057e-07
-8.27729e-07
2.35474e-07
-0.000270382
1.19203e-06
1.15843e-06
-1.76025e-07
-1.81468e-07
0.000268389
-4.72136e-08
2.36743e-08
-0.00117897
-1.34119e-08
4.89137e-08
0.00117896
-0.00113164
-1.22454e-06
-4.37181e-08
6.46544e-08
0.00113163
-2.41116e-07
1.19489e-06
2.1404e-07
8.6622e-07
-1.90824e-07
-8.37749e-07
2.09164e-07
-0.0011314
-1.20908e-06
-1.01556e-07
2.01397e-08
0.00113138
-2.41632e-07
1.19054e-06
2.02548e-07
8.91212e-07
-1.62749e-07
-8.13601e-07
2.4301e-07
-0.000270356
1.23683e-06
1.21354e-06
-2.20162e-07
-2.15661e-07
0.000268342
2.58363e-07
1.73876e-07
-0.00117883
-1.07135e-07
-1.94882e-07
0.0011787
-0.0011317
-1.13909e-06
-2.07953e-07
-1.97172e-07
0.0011317
-1.47895e-07
1.26951e-06
2.86351e-07
8.92091e-07
-1.7112e-07
-8.22071e-07
2.41661e-07
-0.00113122
-1.17504e-06
-6.18073e-08
-2.73167e-08
0.00113116
-1.87921e-07
1.22978e-06
2.55595e-07
8.64852e-07
-2.00479e-07
-8.44619e-07
2.12119e-07
-0.000270353
1.20154e-06
1.14198e-06
-1.61269e-07
-1.87803e-07
0.000268359
-4.45323e-08
1.39903e-08
-0.00117827
6.31818e-09
6.99534e-08
0.00117822
-0.00113148
-1.25001e-06
-1.11962e-08
1.64643e-07
0.00113141
-2.9409e-07
1.15255e-06
1.37283e-07
8.92695e-07
-1.51542e-07
-8.07035e-07
2.38717e-07
-0.00113109
-1.18848e-06
-1.48568e-07
-6.72491e-08
0.00113116
-2.22851e-07
1.2063e-06
2.08499e-07
8.89432e-07
-1.6924e-07
-8.18634e-07
2.3842e-07
-0.000270322
1.25461e-06
1.24409e-06
-2.42797e-07
-2.30359e-07
0.000268297
-9.50355e-08
-7.00471e-08
-0.00117871
-2.18288e-08
1.07801e-08
0.00117888
-0.00113174
-1.19856e-06
7.37333e-08
-7.18103e-08
0.00113203
-1.61508e-07
1.25196e-06
3.3028e-07
7.31024e-07
-3.31151e-07
-9.64278e-07
4.83226e-08
-0.00113167
-1.23596e-06
2.98353e-08
6.30207e-08
0.00113191
-2.50151e-07
1.18597e-06
2.25105e-07
7.93766e-07
-2.65026e-07
-8.99329e-07
1.20415e-07
-0.000270414
1.19448e-06
1.17869e-06
-2.21888e-07
-2.07143e-07
0.00026847
8.02763e-07
6.57665e-07
-0.00117856
-4.55136e-07
-6.18345e-07
0.00117817
-0.0011327
-1.02354e-06
-5.55655e-07
-5.23627e-07
0.00113265
-2.79337e-08
1.35549e-06
3.60914e-07
9.75719e-07
-9.17027e-08
-7.32856e-07
3.10627e-07
-0.00113217
-1.04185e-06
-3.06091e-07
-3.61253e-07
0.00113204
-4.03429e-08
1.33601e-06
3.70121e-07
8.96035e-07
-1.59896e-07
-8.01213e-07
2.37913e-07
-0.000270958
1.14557e-06
1.04698e-06
-6.48892e-08
-1.21143e-07
0.000268951
7.28593e-07
9.40073e-07
-0.00117656
-6.67538e-07
-4.5432e-07
0.00117601
-0.00113164
-1.23578e-06
-9.62963e-07
1.76671e-07
0.00113131
-3.03806e-07
1.20643e-06
1.29236e-07
1.17963e-06
1.56725e-07
-5.22026e-07
5.05769e-07
-0.00113121
-1.13955e-06
-1.2768e-06
-2.09128e-07
0.00113107
-2.31227e-07
1.27375e-06
1.87338e-07
1.24008e-06
1.9351e-07
-4.69623e-07
5.66721e-07
-0.000270502
1.15931e-06
1.16579e-06
-9.01725e-08
-5.55e-08
0.000268323
5.32909e-06
5.26789e-06
-0.00116366
-1.12479e-05
-1.1436e-05
0.00028367
0.000285328
0.000285336
0.000285331
4.39391e-06
6.65915e-06
7.08874e-06
4.34004e-06
6.58828e-06
7.01594e-06
-0.000280279
5.47578e-06
-5.36653e-06
5.80053e-06
-3.4781e-06
0.000277847
-0.000280201
-5.27825e-06
5.30982e-06
-3.3269e-06
5.72742e-06
0.000277769
-0.000270357
-5.22291e-06
-5.26813e-06
5.52333e-06
5.48499e-06
0.00026984
-1.25962e-06
-1.22251e-06
0.000270092
-0.000268081
2.31322e-07
2.39262e-07
0.00113132
-1.19147e-07
-0.00113135
-3.64775e-08
-1.22283e-06
2.41967e-07
-2.13057e-07
-8.23366e-07
2.33053e-07
-1.74888e-07
8.85781e-07
1.26583e-06
0.00113176
-1.20653e-07
-0.00113179
-4.03329e-08
-1.22754e-06
2.45006e-07
-2.15345e-07
-8.28464e-07
2.36509e-07
-1.77088e-07
8.91925e-07
-1.2252e-06
0.000270123
-0.000268103
2.34118e-07
2.37154e-07
0.00113242
-1.19615e-07
-0.00113245
-3.62893e-08
-1.18591e-06
2.39213e-07
-2.10479e-07
-8.261e-07
2.35872e-07
-1.77743e-07
8.88789e-07
1.26102e-06
0.00113142
-1.20222e-07
-0.00113145
-4.21162e-08
-1.22145e-06
2.46037e-07
-2.14352e-07
-8.2635e-07
2.3572e-07
-1.77941e-07
8.88444e-07
-1.22965e-07
-0.00113218
-3.72207e-08
-1.1884e-06
2.36011e-07
-2.07809e-07
-8.22303e-07
2.34332e-07
8.87071e-07
-1.73895e-07
1.2552e-06
0.00113121
-1.22667e-07
-0.00113124
-4.14163e-08
-1.21612e-06
2.40001e-07
-2.09154e-07
-8.22824e-07
2.33758e-07
-1.74433e-07
8.86484e-07
-1.22027e-06
0.000270071
-0.000268062
2.31922e-07
2.40142e-07
-1.23748e-07
-0.00113182
-3.88582e-08
-1.18251e-06
2.37058e-07
-2.06936e-07
-8.22634e-07
2.36422e-07
8.86474e-07
-1.77181e-07
1.22084e-06
0.00113232
-1.23647e-07
-0.00113235
-4.07334e-08
-1.18203e-06
2.37314e-07
-2.06661e-07
-8.22841e-07
2.36658e-07
-1.771e-07
8.86773e-07
-0.000268075
2.34695e-07
2.40088e-07
1.22198e-06
1.18548e-06
-1.92815e-07
-2.00192e-07
0.000268078
-1.26759e-06
-1.23004e-06
0.000270103
-0.000268086
2.36552e-07
2.44873e-07
-3.99003e-08
0.00113129
-2.11263e-07
1.26091e-06
2.44111e-07
8.83706e-07
-1.77089e-07
-8.25339e-07
2.30706e-07
-1.22752e-06
-1.15224e-07
-4.00122e-08
0.00113174
-2.14509e-07
1.26606e-06
2.46025e-07
8.89913e-07
-1.79212e-07
-8.30383e-07
2.34171e-07
0.00113122
-1.27555e-07
-0.00113124
-6.22145e-08
-1.2146e-06
2.52133e-07
-2.0177e-07
-8.27015e-07
2.29315e-07
-1.79864e-07
8.83272e-07
1.27167e-06
0.00113167
-1.25146e-07
-0.00113169
-5.46143e-08
-1.22192e-06
2.53963e-07
-2.06213e-07
-8.33086e-07
2.31072e-07
-1.83309e-07
8.88075e-07
-1.95759e-07
-1.97272e-07
0.0002681
-1.23228e-06
0.00027013
-0.000268106
2.38848e-07
2.40834e-07
-3.80224e-08
0.0011324
-2.0908e-07
1.22337e-06
2.40957e-07
8.8715e-07
-1.7961e-07
-8.27635e-07
2.33875e-07
-1.2211e-06
-1.17188e-07
-4.36228e-08
0.00113139
-2.13253e-07
1.26154e-06
2.47304e-07
8.86975e-07
-1.79504e-07
-8.27742e-07
2.33987e-07
0.00113233
-1.31122e-07
-0.00113235
-5.93252e-08
-1.17837e-06
2.49086e-07
-1.9976e-07
-8.28969e-07
2.32823e-07
-1.81876e-07
8.86723e-07
1.26585e-06
0.00113132
-1.29243e-07
-0.00113134
-5.58467e-08
-1.21641e-06
2.53068e-07
-2.06664e-07
-8.28741e-07
2.32866e-07
-1.81589e-07
8.86777e-07
-1.18843e-07
-4.26274e-08
0.00113118
-2.08244e-07
1.25558e-06
2.41144e-07
8.84801e-07
-1.76084e-07
2.31838e-07
-8.24414e-07
-1.25336e-07
-0.00113208
-5.63569e-08
-1.18187e-06
2.46266e-07
-1.9764e-07
-8.27605e-07
2.28348e-07
8.82301e-07
-1.80473e-07
1.26088e-06
0.00113112
-1.25621e-07
-0.00113114
-5.75637e-08
-1.21059e-06
2.4834e-07
-2.00587e-07
-8.2717e-07
2.28859e-07
-1.79916e-07
8.82759e-07
-1.92473e-07
-1.99202e-07
0.00026806
-1.22704e-06
0.00027008
-0.000268067
2.36737e-07
2.43134e-07
-1.20167e-07
-4.0935e-08
0.00113229
-2.05891e-07
1.22108e-06
2.38302e-07
8.85135e-07
-1.78708e-07
2.3479e-07
-8.24363e-07
-1.26818e-07
-0.00113172
-5.84327e-08
-1.17574e-06
2.45842e-07
-1.97609e-07
-8.26642e-07
2.32096e-07
8.83073e-07
-1.82173e-07
1.2264e-06
0.00113222
-1.27434e-07
-0.00113224
-5.58682e-08
-1.17669e-06
2.45568e-07
-1.98277e-07
-8.26886e-07
2.3198e-07
-1.82334e-07
8.83313e-07
-0.000268079
2.38275e-07
2.43784e-07
1.21409e-06
1.17728e-06
-1.86798e-07
-1.94282e-07
0.000268092
-1.2577e-06
-1.22236e-06
0.000270113
-0.0002681
2.30133e-07
2.36473e-07
-6.2966e-08
0.0011312
-2.02563e-07
1.26725e-06
2.50359e-07
8.86159e-07
-1.77353e-07
-8.24338e-07
2.32203e-07
-1.22033e-06
-1.34541e-07
-5.9224e-08
0.00113165
-2.05356e-07
1.27259e-06
2.53717e-07
8.90677e-07
-1.81358e-07
-8.3091e-07
2.33663e-07
0.00113115
-1.33304e-07
-0.00113116
-3.62403e-08
-1.22272e-06
2.38005e-07
-2.15513e-07
-8.20522e-07
2.34691e-07
-1.72654e-07
8.87874e-07
1.26608e-06
0.0011316
-1.3685e-07
-0.00113161
-4.86641e-08
-1.22521e-06
2.42986e-07
-2.15313e-07
-8.2579e-07
2.38542e-07
-1.75004e-07
8.94155e-07
-1.89612e-07
-1.92418e-07
0.000268112
-1.22615e-06
0.000270145
-0.000268123
2.33874e-07
2.36189e-07
-6.23438e-08
0.00113231
-1.99967e-07
1.23039e-06
2.47968e-07
8.89039e-07
-1.797e-07
-8.26863e-07
2.35292e-07
-1.21564e-06
-1.36343e-07
-5.7466e-08
0.0011313
-2.06717e-07
1.26607e-06
2.52214e-07
8.88938e-07
-1.79668e-07
-8.26727e-07
2.35087e-07
0.00113225
-1.28026e-07
-0.00113227
-4.22594e-08
-1.1842e-06
2.36869e-07
-2.11406e-07
-8.24695e-07
2.36296e-07
-1.76608e-07
8.89387e-07
1.26002e-06
0.00113125
-1.29465e-07
-0.00113126
-4.33386e-08
-1.22069e-06
2.43034e-07
-2.15952e-07
-8.24733e-07
2.36185e-07
-1.76749e-07
8.89191e-07
-1.33084e-07
-5.98516e-08
0.0011311
-2.00093e-07
1.26137e-06
2.4777e-07
8.84999e-07
-1.78297e-07
2.31034e-07
-8.25381e-07
-1.36787e-07
-0.001132
-4.72748e-08
-1.18538e-06
2.34575e-07
-2.07156e-07
-8.20265e-07
2.35826e-07
8.88814e-07
-1.7233e-07
1.25396e-06
0.00113104
-1.35744e-07
-0.00113106
-4.19553e-08
-1.21537e-06
2.36565e-07
-2.10778e-07
-8.20377e-07
2.35424e-07
-1.7246e-07
8.88516e-07
-1.87021e-07
-1.95501e-07
0.000268072
-1.21906e-06
0.000270091
-0.00026808
2.2969e-07
2.38387e-07
-1.33985e-07
-5.99063e-08
0.00113221
-1.97483e-07
1.22725e-06
2.45354e-07
8.85349e-07
-1.80843e-07
2.33973e-07
-8.25203e-07
-1.32953e-07
-0.00113163
-4.09645e-08
-1.18171e-06
2.33911e-07
-2.08509e-07
-8.20832e-07
2.37264e-07
8.87785e-07
-1.75857e-07
1.22073e-06
0.00113215
-1.3259e-07
-0.00113217
-4.63999e-08
-1.18019e-06
2.34917e-07
-2.07263e-07
-8.21156e-07
2.37593e-07
-1.75827e-07
8.87953e-07
-0.000268094
2.33632e-07
2.38109e-07
1.22471e-06
1.18648e-06
-1.94668e-07
-2.03573e-07
0.0002681
-1.26869e-06
-1.23013e-06
0.000270139
-0.00026812
2.35453e-07
2.44772e-07
-3.25666e-08
0.00113113
-2.16104e-07
1.25684e-06
2.38505e-07
8.83865e-07
-1.76214e-07
-8.24068e-07
2.30492e-07
-1.22837e-06
-1.25911e-07
-4.09729e-08
0.00113158
-2.17875e-07
1.26358e-06
2.41717e-07
8.90624e-07
-1.77562e-07
-8.28638e-07
2.34839e-07
0.00113112
-1.24353e-07
-0.00113112
-6.67959e-08
-1.21443e-06
2.55817e-07
-1.9958e-07
-8.31885e-07
2.2337e-07
-1.85151e-07
8.77881e-07
1.2709e-06
0.00113157
-1.20946e-07
-0.00113157
-5.299e-08
-1.2235e-06
2.55577e-07
-2.0648e-07
-8.37478e-07
2.25475e-07
-1.87992e-07
8.83015e-07
-1.96978e-07
-1.99113e-07
0.000268124
-1.23163e-06
0.000270166
-0.00026814
2.37168e-07
2.39151e-07
-3.73313e-08
0.00113224
-2.12345e-07
1.22097e-06
2.36844e-07
8.85939e-07
-1.80061e-07
-8.27839e-07
2.32393e-07
-1.2227e-06
-1.20095e-07
-3.94901e-08
0.00113123
-2.17011e-07
1.25866e-06
2.42787e-07
8.85761e-07
-1.79965e-07
-8.27901e-07
2.32482e-07
0.00113223
-1.29289e-07
-0.00113223
-6.10318e-08
-1.17885e-06
2.51745e-07
-1.98307e-07
-8.33443e-07
2.27271e-07
-1.87021e-07
8.82064e-07
1.26668e-06
0.00113122
-1.28526e-07
-0.00113123
-6.0283e-08
-1.21626e-06
2.56654e-07
-2.04373e-07
-8.33343e-07
2.2729e-07
-1.86829e-07
8.82037e-07
-1.26377e-07
-3.61426e-08
0.00113103
-2.12758e-07
1.25197e-06
2.3581e-07
8.85142e-07
-1.74988e-07
2.3188e-07
-8.22971e-07
-1.20108e-07
-0.00113196
-5.6281e-08
-1.18327e-06
2.48e-07
-1.97755e-07
-8.32146e-07
2.22623e-07
8.77084e-07
-1.85295e-07
1.26125e-06
0.00113101
-1.20527e-07
-0.00113102
-5.97733e-08
-1.2111e-06
2.51278e-07
-1.99358e-07
-8.32192e-07
2.22636e-07
-1.85322e-07
8.77088e-07
-1.95387e-07
-2.01495e-07
0.000268081
-1.22845e-06
0.000270117
-0.000268101
2.36888e-07
2.42606e-07
-1.23656e-07
-3.92958e-08
0.00113213
-2.09471e-07
1.21841e-06
2.33816e-07
8.84747e-07
-1.78334e-07
2.34165e-07
-8.2374e-07
-1.24729e-07
-0.0011316
-6.42946e-08
-1.17523e-06
2.49964e-07
-1.94923e-07
-8.31569e-07
2.26106e-07
8.77685e-07
-1.87605e-07
1.22593e-06
0.00113212
-1.24362e-07
-0.00113212
-5.53926e-08
-1.17786e-06
2.47706e-07
-1.97715e-07
-8.31413e-07
2.26232e-07
-1.87386e-07
8.78308e-07
-0.000268112
2.367e-07
2.42982e-07
1.21013e-06
1.17483e-06
-1.8592e-07
-1.92062e-07
0.000268132
-1.26023e-06
-1.22469e-06
0.000270155
-0.000268145
2.33882e-07
2.40308e-07
-7.67685e-08
0.00113111
-1.96114e-07
1.27168e-06
2.57275e-07
8.82297e-07
-1.82177e-07
-8.28589e-07
2.2783e-07
-1.21828e-06
-1.35113e-07
-6.54537e-08
0.00113156
-2.0053e-07
1.27531e-06
2.59327e-07
8.8673e-07
-1.86214e-07
-8.35138e-07
2.29037e-07
0.00113105
-1.51819e-07
-0.00113107
-4.76298e-08
-1.21764e-06
2.37685e-07
-2.11781e-07
-8.14343e-07
2.43154e-07
-1.65866e-07
8.95162e-07
1.26901e-06
0.00113149
-1.54659e-07
-0.00113152
-5.9636e-08
-1.22005e-06
2.43504e-07
-2.10687e-07
-8.20095e-07
2.46268e-07
-1.68808e-07
9.00971e-07
-1.89009e-07
-1.91725e-07
0.000268151
-1.22853e-06
0.000270186
-0.000268167
2.37645e-07
2.40447e-07
-7.05755e-08
0.00113222
-1.94975e-07
1.23311e-06
2.5329e-07
8.86622e-07
-1.83572e-07
-8.29807e-07
2.32047e-07
-1.21228e-06
-1.43306e-07
-6.95494e-08
0.00113121
-2.00677e-07
1.2697e-06
2.58486e-07
8.86633e-07
-1.83465e-07
-8.29651e-07
2.32016e-07
0.00113215
-1.49205e-07
-0.00113218
-5.25723e-08
-1.17969e-06
2.36536e-07
-2.08041e-07
-8.17871e-07
2.45165e-07
-1.69143e-07
8.96836e-07
1.26098e-06
0.00113115
-1.47916e-07
-0.00113117
-4.97243e-08
-1.21727e-06
2.40668e-07
-2.14415e-07
-8.17621e-07
2.45265e-07
-1.68889e-07
8.96893e-07
-1.32985e-07
-7.10673e-08
0.00113101
-1.94194e-07
1.26508e-06
2.54148e-07
8.80765e-07
-1.83558e-07
2.26175e-07
-8.30029e-07
-1.56905e-07
-0.00113191
-5.65073e-08
-1.18074e-06
2.34611e-07
-2.0299e-07
-8.14054e-07
2.43976e-07
8.96125e-07
-1.65766e-07
1.25618e-06
0.00113094
-1.55037e-07
-0.00113097
-5.26459e-08
-1.21086e-06
2.36323e-07
-2.07157e-07
-8.14352e-07
2.43298e-07
-1.6609e-07
8.95598e-07
-1.84535e-07
-1.93907e-07
0.000268112
-1.21988e-06
0.000270132
-0.000268124
2.32078e-07
2.40939e-07
-1.3746e-07
-6.6873e-08
0.00113211
-1.92558e-07
1.22987e-06
2.50732e-07
8.82024e-07
-1.854e-07
2.29868e-07
-8.28954e-07
-1.50923e-07
-0.00113154
-4.68707e-08
-1.17817e-06
2.31279e-07
-2.06996e-07
-8.14139e-07
2.46112e-07
8.95461e-07
-1.68448e-07
1.22329e-06
0.00113205
-1.51867e-07
-0.00113207
-5.73198e-08
-1.17559e-06
2.3504e-07
-2.03473e-07
-8.15285e-07
2.45276e-07
-1.69495e-07
8.94669e-07
-0.000268138
2.37395e-07
2.41481e-07
1.2247e-06
1.18586e-06
-1.92153e-07
-2.01616e-07
0.000268139
-1.25391e-06
-1.21628e-06
0.000270137
-0.000268121
2.23046e-07
2.31394e-07
-2.94924e-08
0.00113102
-2.19974e-07
1.254e-06
2.32079e-07
8.92873e-07
-1.65392e-07
-8.14967e-07
2.41522e-07
-1.2276e-06
-1.38739e-07
-4.02604e-08
0.00113147
-2.21291e-07
1.26148e-06
2.35266e-07
8.99236e-07
-1.67397e-07
-8.19991e-07
2.454e-07
0.00113096
-8.88305e-08
-0.00113097
-2.44216e-08
-1.22886e-06
2.3698e-07
-2.19238e-07
-8.33037e-07
2.20417e-07
-1.84981e-07
8.74364e-07
1.25883e-06
0.00113141
-8.64027e-08
-0.00113142
-2.13385e-08
-1.23535e-06
2.39782e-07
-2.22869e-07
-8.38977e-07
2.22401e-07
-1.88369e-07
8.7944e-07
-1.94803e-07
-1.9651e-07
0.000268161
-1.21873e-06
0.000270167
-0.000268143
2.25738e-07
2.28255e-07
-3.70839e-08
0.00113213
-2.15516e-07
1.21913e-06
2.31421e-07
8.93986e-07
-1.69523e-07
-8.19443e-07
2.42859e-07
-1.22387e-06
-1.28681e-07
-3.20522e-08
0.00113112
-2.22525e-07
1.25503e-06
2.35207e-07
8.93352e-07
-1.69706e-07
-8.19637e-07
2.42251e-07
0.00113207
-8.91392e-08
-0.00113208
-2.1854e-08
-1.19216e-06
2.33603e-07
-2.17012e-07
-8.35706e-07
2.23259e-07
-1.87944e-07
8.77529e-07
1.25621e-06
0.00113107
-8.8806e-08
-0.00113107
-3.1331e-08
-1.22718e-06
2.4373e-07
-2.19501e-07
-8.37493e-07
2.21131e-07
-1.89843e-07
8.75505e-07
-1.41788e-07
-3.47566e-08
0.00113092
-2.16444e-07
1.2495e-06
2.29661e-07
8.93821e-07
-1.64825e-07
2.42289e-07
-8.14171e-07
-8.82812e-08
-0.00113181
-1.87902e-08
-1.19591e-06
2.31331e-07
-2.1497e-07
-8.3326e-07
2.19927e-07
8.74019e-07
-1.85354e-07
1.2501e-06
0.00113087
-9.16173e-08
-0.00113088
-2.99555e-08
-1.22202e-06
2.36583e-07
-2.14512e-07
-8.32944e-07
2.20689e-07
-1.84819e-07
8.74536e-07
-1.95116e-07
-2.00491e-07
0.000268117
-1.21564e-06
0.000270117
-0.000268103
2.24819e-07
2.32834e-07
-1.36572e-07
-4.06181e-08
0.00113202
-2.12434e-07
1.21687e-06
2.2852e-07
8.92464e-07
-1.68745e-07
2.43884e-07
-8.15751e-07
-9.42807e-08
-0.00113145
-2.76821e-08
-1.18837e-06
2.3503e-07
-2.12103e-07
-8.33359e-07
2.22186e-07
8.73762e-07
-1.88576e-07
1.21469e-06
0.00113198
-9.43519e-08
-0.00113198
-2.57665e-08
-1.18863e-06
2.32826e-07
-2.12803e-07
-8.32513e-07
2.24054e-07
-1.87215e-07
8.75495e-07
-0.000268119
2.26715e-07
2.33031e-07
1.22375e-06
1.18821e-06
-1.99025e-07
-2.05667e-07
0.00026813
-1.27668e-06
-1.23856e-06
0.000270218
-0.000268194
2.40981e-07
2.49834e-07
-4.24453e-08
0.00113097
-2.11063e-07
1.26038e-06
2.47777e-07
8.69664e-07
-1.91496e-07
-8.38204e-07
2.1413e-07
-1.22934e-06
-9.31577e-08
-4.12252e-08
0.00113142
-2.12614e-07
1.26632e-06
2.52457e-07
8.7485e-07
-1.94879e-07
-8.44204e-07
2.16357e-07
0.00113102
-1.56593e-07
-0.001131
-9.46475e-08
-1.20401e-06
2.62045e-07
-1.90153e-07
-8.29994e-07
2.25582e-07
-1.8562e-07
8.816e-07
1.28068e-06
0.00113146
-1.61458e-07
-0.00113145
-9.00948e-08
-1.21044e-06
2.62419e-07
-1.94463e-07
-8.33996e-07
2.30584e-07
-1.86251e-07
8.88949e-07
-2.00704e-07
-2.02914e-07
0.000268151
-1.24224e-06
0.000270248
-0.000268216
2.44645e-07
2.45852e-07
-3.50553e-08
0.00113208
-2.09921e-07
1.22163e-06
2.43403e-07
8.73698e-07
-1.93596e-07
-8.40027e-07
2.17843e-07
-1.22062e-06
-1.0206e-07
-5.47326e-08
0.00113108
-2.08109e-07
1.26392e-06
2.56384e-07
8.72915e-07
-1.94925e-07
-8.41134e-07
2.16995e-07
0.00113213
-1.63902e-07
-0.00113211
-8.98364e-08
-1.1686e-06
2.58611e-07
-1.88798e-07
-8.31015e-07
2.29945e-07
-1.86655e-07
8.85908e-07
1.27341e-06
0.00113113
-1.68783e-07
-0.00113112
-8.77731e-08
-1.20618e-06
2.59774e-07
-1.96615e-07
-8.27237e-07
2.34505e-07
-1.82027e-07
8.8975e-07
-9.46513e-08
-4.70058e-08
0.00113088
-2.05863e-07
1.25643e-06
2.46904e-07
8.70288e-07
-1.90881e-07
2.1511e-07
-8.37863e-07
-1.58212e-07
-0.00113184
-9.70044e-08
-1.1695e-06
2.55622e-07
-1.85027e-07
-8.28776e-07
2.27499e-07
8.82893e-07
-1.83681e-07
1.26784e-06
0.00113091
-1.52077e-07
-0.0011309
-8.25699e-08
-1.20147e-06
2.5495e-07
-1.9137e-07
-8.28987e-07
2.26684e-07
-1.84081e-07
8.82398e-07
-1.95656e-07
-2.03067e-07
0.000268115
-1.23632e-06
0.0002702
-0.00026818
2.424e-07
2.47459e-07
-1.01272e-07
-3.93759e-08
0.00113198
-2.04967e-07
1.22023e-06
2.42469e-07
8.72111e-07
-1.92551e-07
2.19196e-07
-8.36562e-07
-1.59055e-07
-0.00113149
-9.64776e-08
-1.16365e-06
2.54114e-07
-1.85891e-07
-8.26836e-07
2.32546e-07
8.8454e-07
-1.83914e-07
1.23343e-06
0.00113201
-1.55876e-07
-0.001132
-8.08125e-08
-1.16789e-06
2.52385e-07
-1.89224e-07
-8.28097e-07
2.30125e-07
-1.85935e-07
8.83151e-07
-0.000268184
2.41891e-07
2.47294e-07
1.20438e-06
1.1674e-06
-1.80787e-07
-1.88198e-07
0.000268215
-1.25291e-06
-1.22059e-06
0.00027023
-0.000268223
2.31214e-07
2.34769e-07
-9.29961e-08
0.00113103
-1.93072e-07
1.27474e-06
2.57857e-07
8.89771e-07
-1.76394e-07
-8.21849e-07
2.34929e-07
-1.21265e-06
-1.75591e-07
-8.20722e-08
0.00113147
-1.99699e-07
1.27701e-06
2.56132e-07
8.9658e-07
-1.7748e-07
-8.26078e-07
2.39084e-07
0.00113098
-1.54315e-07
-0.00113101
-3.44205e-08
-1.22443e-06
2.30063e-07
-2.20621e-07
-8.10757e-07
2.48234e-07
-1.59066e-07
8.97321e-07
1.25886e-06
0.00113141
-1.43676e-07
-0.00113144
-2.96163e-08
-1.2307e-06
2.344e-07
-2.23302e-07
-8.18734e-07
2.47275e-07
-1.65104e-07
9.00184e-07
-1.83866e-07
-1.87568e-07
0.000268236
-1.21988e-06
0.000270252
-0.000268237
2.31082e-07
2.3271e-07
-9.51621e-08
0.00113213
-1.90175e-07
1.23839e-06
2.56104e-07
8.92859e-07
-1.78311e-07
-8.2392e-07
2.38263e-07
-1.21e-06
-1.74766e-07
-7.11973e-08
0.00113113
-2.03411e-07
1.2682e-06
2.51588e-07
8.95653e-07
-1.74448e-07
-8.20717e-07
2.4155e-07
0.00113209
-1.38543e-07
-0.00113211
-5.16135e-08
-1.18298e-06
2.3166e-07
-2.13759e-07
-8.17673e-07
2.47531e-07
-1.65242e-07
8.96082e-07
1.25103e-06
0.00113105
-1.23545e-07
-0.00113108
-1.34141e-08
-1.22851e-06
2.33082e-07
-2.25941e-07
-8.20428e-07
2.41853e-07
-1.69492e-07
8.92399e-07
-1.67489e-07
-7.77055e-08
0.00113091
-1.9488e-07
1.26537e-06
2.50689e-07
8.89271e-07
-1.76206e-07
2.34445e-07
-8.21873e-07
-1.39062e-07
-0.00113183
-3.3227e-08
-1.18972e-06
2.26806e-07
-2.14117e-07
-8.14423e-07
2.43645e-07
8.93732e-07
-1.6348e-07
1.24885e-06
0.00113086
-1.48081e-07
-0.00113088
-3.5059e-08
-1.21834e-06
2.29773e-07
-2.15979e-07
-8.1366e-07
2.44697e-07
-1.62734e-07
8.94597e-07
-1.81947e-07
-1.91552e-07
0.000268196
-1.21007e-06
0.000270189
-0.000268186
2.24587e-07
2.33308e-07
-1.65794e-07
-8.20797e-08
0.00113201
-1.91312e-07
1.23249e-06
2.49544e-07
8.88736e-07
-1.79072e-07
2.3685e-07
-8.22268e-07
-1.25423e-07
-0.00113145
-1.4608e-08
-1.18937e-06
2.23891e-07
-2.18341e-07
-8.1646e-07
2.42607e-07
8.9103e-07
-1.68982e-07
1.2178e-06
0.00113196
-1.3667e-07
-0.00113199
-4.89542e-08
-1.18088e-06
2.3008e-07
-2.10368e-07
-8.16345e-07
2.45417e-07
-1.67646e-07
8.92333e-07
-0.000268208
2.33174e-07
2.3585e-07
1.23092e-06
1.19024e-06
-1.94325e-07
-2.05615e-07
0.000268209
-1.25359e-06
-1.21117e-06
0.000270178
-0.000268165
2.19413e-07
2.31898e-07
-1.48439e-08
0.00113094
-2.25257e-07
1.24851e-06
2.27721e-07
8.93016e-07
-1.62329e-07
-8.14648e-07
2.43281e-07
-1.23425e-06
-1.20089e-07
-2.0974e-08
0.00113137
-2.24675e-07
1.25691e-06
2.34393e-07
8.96089e-07
-1.68743e-07
-8.22859e-07
2.42781e-07
0.00113083
-6.38175e-08
-0.00113086
-1.53371e-08
-1.22975e-06
2.37642e-07
-2.19684e-07
-8.36231e-07
2.16465e-07
-1.878e-07
8.70656e-07
1.26226e-06
0.00113129
-7.66805e-08
-0.0011313
-3.45341e-08
-1.23186e-06
2.44144e-07
-2.186e-07
-8.40656e-07
2.20876e-07
-1.8947e-07
8.77715e-07
-1.9877e-07
-2.01123e-07
0.000268223
-1.21938e-06
0.000270215
-0.000268191
2.26343e-07
2.3111e-07
-2.77702e-08
0.00113205
-2.1934e-07
1.21475e-06
2.27811e-07
8.93133e-07
-1.6841e-07
-8.20806e-07
2.43197e-07
-1.22966e-06
-1.02967e-07
-1.39419e-08
0.00113101
-2.24263e-07
1.2514e-06
2.3577e-07
8.8781e-07
-1.74907e-07
-8.25366e-07
2.36413e-07
0.00113194
-8.00766e-08
-0.00113196
5.09394e-09
-1.19744e-06
2.29748e-07
-2.21693e-07
-8.35511e-07
2.22422e-07
-1.88053e-07
8.77629e-07
1.26456e-06
0.00113096
-1.00135e-07
-0.00113096
-6.62092e-08
-1.21889e-06
2.55258e-07
-2.07984e-07
-8.37513e-07
2.21647e-07
-1.90004e-07
8.76304e-07
-1.26495e-07
-2.26301e-08
0.00113083
-2.1939e-07
1.24557e-06
2.27947e-07
8.9129e-07
-1.6525e-07
2.409e-07
-8.16791e-07
-8.78995e-08
-0.00113169
-2.09803e-08
-1.19497e-06
2.33025e-07
-2.13196e-07
-8.33119e-07
2.19961e-07
8.74299e-07
-1.85067e-07
1.24999e-06
0.00113075
-7.72143e-08
-0.00113076
-2.8542e-08
-1.22236e-06
2.37158e-07
-2.14843e-07
-8.34826e-07
2.17862e-07
-1.86769e-07
8.72315e-07
-1.99052e-07
-2.04787e-07
0.000268171
-1.22333e-06
0.000270177
-0.00026816
2.31425e-07
2.39576e-07
-1.17475e-07
-3.20298e-08
0.00113193
-2.14739e-07
1.21329e-06
2.27018e-07
8.89881e-07
-1.69807e-07
2.42155e-07
-8.18815e-07
-1.07138e-07
-0.00113133
-5.56221e-08
-1.18081e-06
2.45786e-07
-2.01354e-07
-8.33712e-07
2.22278e-07
8.74018e-07
-1.8898e-07
1.21198e-06
0.00113185
-8.81471e-08
-0.00113186
-1.06815e-08
-1.1914e-06
2.30825e-07
-2.15574e-07
-8.33375e-07
2.2225e-07
-1.88272e-07
8.74447e-07
-0.000268166
2.24503e-07
2.3273e-07
1.22159e-06
1.19089e-06
-2.01128e-07
-2.03479e-07
0.00026817
-1.27222e-06
-1.23705e-06
0.000270257
-0.000268233
2.39286e-07
2.45259e-07
-4.29286e-08
0.00113082
-2.07116e-07
1.26319e-06
2.52519e-07
8.65789e-07
-1.95547e-07
-8.41982e-07
2.09606e-07
-1.22512e-06
-8.76504e-08
-5.61641e-08
0.00113129
-2.07352e-07
1.27036e-06
2.57221e-07
8.73213e-07
-1.96322e-07
-8.4587e-07
2.14799e-07
0.00113086
-1.57854e-07
-0.00113084
-8.85699e-08
-1.20607e-06
2.53907e-07
-1.95258e-07
-8.27743e-07
2.28774e-07
-1.8309e-07
8.8467e-07
1.27687e-06
0.00113133
-1.55984e-07
-0.00113132
-8.28639e-08
-1.21263e-06
2.55594e-07
-1.99222e-07
-8.32609e-07
2.32708e-07
-1.84471e-07
8.90988e-07
-1.99662e-07
-1.9948e-07
0.000268201
-1.23735e-06
0.000270295
-0.000268264
2.4068e-07
2.42567e-07