/*--------------------------------*- C++ -*----------------------------------*\
| =========                 |                                                 |
| \\      /  F ield         | OpenFOAM: The Open Source CFD Toolbox           |
|  \\    /   O peration     | Version:  v1906                                 |
|   \\  /    A nd           | Web:      www.OpenFOAM.com                      |
|    \\/     M anipulation  |                                                 |
\*---------------------------------------------------------------------------*/
FoamFile
{
    version     2.0;
    format      ascii;
    class       volVectorField;
    location    "875";
    object      U;
}
// * * * * * * * * * * * * * * * * * * * * * * * * * * * * * * * * * * * * * //

dimensions      [0 1 -1 0 0 0 0];


internalField   nonuniform List<vector> 
43248
(
(5.91668e-05 5.85105e-05 0.108932)
(-9.34096e-05 4.92741e-05 0.107974)
(5.89109e-05 -9.67348e-05 0.107978)
(-0.000153432 -0.000153722 0.106606)
(6.2971e-05 6.20991e-05 0.109226)
(-9.29426e-05 5.71957e-05 0.108158)
(6.11462e-05 -9.51435e-05 0.108151)
(-0.000157168 -0.000157716 0.106646)
(5.49142e-05 5.47087e-05 0.109514)
(-9.65122e-05 6.73161e-05 0.108309)
(6.02089e-05 -9.40982e-05 0.108307)
(-0.000158548 -0.000159502 0.106655)
(5.77186e-05 5.88199e-05 0.109796)
(-8.91467e-05 5.30693e-05 0.10845)
(5.16833e-05 -8.86015e-05 0.10845)
(-0.000140851 -0.000139635 0.106606)
(5.49205e-05 5.485e-05 0.110061)
(-8.81924e-05 5.89775e-05 0.108571)
(6.05562e-05 -8.8773e-05 0.108573)
(-0.000138761 -0.000138921 0.106581)
(5.22466e-05 5.19689e-05 0.110325)
(-8.22872e-05 4.95652e-05 0.108676)
(5.55957e-05 -8.49542e-05 0.108674)
(-0.000127626 -0.000127637 0.106507)
(5.32135e-05 5.32645e-05 0.110577)
(-8.09043e-05 5.2658e-05 0.108762)
(4.807e-05 -7.9438e-05 0.10876)
(-0.000130058 -0.00013036 0.106447)
(4.94716e-05 4.94419e-05 0.110811)
(-7.76105e-05 5.08627e-05 0.108829)
(5.36769e-05 -7.85714e-05 0.108828)
(-0.000117963 -0.000117887 0.106356)
(5.11986e-05 5.11777e-05 0.111043)
(-7.46136e-05 5.04349e-05 0.108878)
(4.94315e-05 -7.44443e-05 0.108876)
(-0.000114594 -0.000114719 0.106264)
(4.83881e-05 4.84124e-05 0.111259)
(-7.07167e-05 4.65238e-05 0.108912)
(4.69227e-05 -7.0954e-05 0.108911)
(-0.000108065 -0.00010804 0.106163)
(4.74407e-05 4.75279e-05 0.111466)
(-6.71183e-05 4.41177e-05 0.108932)
(4.35892e-05 -6.69819e-05 0.108932)
(-0.000105293 -0.000105257 0.10606)
(4.61735e-05 4.6149e-05 0.111661)
(-6.34846e-05 4.23771e-05 0.108939)
(4.24919e-05 -6.35815e-05 0.108938)
(-9.85602e-05 -9.86336e-05 0.105958)
(4.52485e-05 4.52963e-05 0.111843)
(-6.00974e-05 3.99831e-05 0.108933)
(3.98863e-05 -6.00671e-05 0.108933)
(-9.35538e-05 -9.35568e-05 0.105852)
(4.42489e-05 4.42644e-05 0.112014)
(-5.62541e-05 3.68128e-05 0.108917)
(3.66719e-05 -5.62192e-05 0.108917)
(-8.9208e-05 -8.92505e-05 0.10575)
(4.30416e-05 4.3067e-05 0.112172)
(-5.31244e-05 3.50902e-05 0.108892)
(3.50171e-05 -5.30697e-05 0.108892)
(-8.43286e-05 -8.43505e-05 0.10565)
(4.20065e-05 4.20143e-05 0.112318)
(-4.94737e-05 3.21188e-05 0.108859)
(3.20643e-05 -4.94748e-05 0.108858)
(-8.07046e-05 -8.07474e-05 0.105553)
(4.07635e-05 4.07876e-05 0.112452)
(-4.61707e-05 2.97995e-05 0.108819)
(2.99279e-05 -4.62084e-05 0.108818)
(-7.61918e-05 -7.62054e-05 0.105458)
(3.95993e-05 3.96213e-05 0.112573)
(-4.28122e-05 2.72874e-05 0.108773)
(2.7292e-05 -4.27993e-05 0.108772)
(-7.25408e-05 -7.2563e-05 0.105368)
(3.82481e-05 3.82713e-05 0.112682)
(-3.96484e-05 2.52434e-05 0.108723)
(2.5083e-05 -3.95935e-05 0.108722)
(-6.89621e-05 -6.89835e-05 0.105281)
(3.67574e-05 3.67731e-05 0.112779)
(-3.6337e-05 2.26164e-05 0.10867)
(2.27405e-05 -3.63758e-05 0.108669)
(-6.55581e-05 -6.55782e-05 0.105197)
(3.52695e-05 3.53124e-05 0.112864)
(-3.3236e-05 2.04998e-05 0.108614)
(2.02757e-05 -3.31412e-05 0.108613)
(-6.24227e-05 -6.24267e-05 0.105118)
(3.35237e-05 3.35246e-05 0.112937)
(-3.03052e-05 1.87438e-05 0.108557)
(1.88838e-05 -3.03642e-05 0.108556)
(-5.9826e-05 -5.98575e-05 0.105042)
(3.17442e-05 3.17779e-05 0.113)
(-2.72975e-05 1.64657e-05 0.108498)
(1.63359e-05 -2.72236e-05 0.108497)
(-5.66796e-05 -5.66792e-05 0.10497)
(2.99775e-05 2.99802e-05 0.113052)
(-2.44881e-05 1.48883e-05 0.10844)
(1.49476e-05 -2.45235e-05 0.108439)
(-5.45623e-05 -5.45906e-05 0.104902)
(2.79241e-05 2.7944e-05 0.113094)
(-2.18058e-05 1.30998e-05 0.108382)
(1.30268e-05 -2.17636e-05 0.108381)
(-5.19749e-05 -5.19809e-05 0.104838)
(2.60613e-05 2.60667e-05 0.113127)
(-1.92539e-05 1.17125e-05 0.108325)
(1.17599e-05 -1.92779e-05 0.108324)
(-4.99606e-05 -4.99793e-05 0.104777)
(2.39516e-05 2.39606e-05 0.113152)
(-1.67353e-05 1.0019e-05 0.108269)
(9.99076e-06 -1.67184e-05 0.108268)
(-4.7916e-05 -4.79266e-05 0.10472)
(-4.24989e-06 -4.20349e-06 0.106762)
(6.18355e-05 9.81243e-05 0.10793)
(-5.21527e-05 9.45617e-05 0.107929)
(1.2228e-05 -1.17875e-05 0.106765)
(9.80078e-05 6.14008e-05 0.10793)
(9.86977e-05 -6.14064e-05 0.107929)
(-9.41832e-05 5.24913e-05 0.107929)
(-9.68909e-05 -5.8998e-05 0.107929)
(-2.19041e-06 2.54965e-06 0.10678)
(6.17353e-05 -9.83557e-05 0.10793)
(-5.85658e-05 -9.66803e-05 0.107929)
(4.14564e-06 4.14756e-06 0.106762)
(0.00015288 0.000152599 0.106603)
(-9.30529e-07 -1.27644e-06 0.106819)
(5.08983e-05 9.33489e-05 0.107976)
(-4.93578e-05 9.3692e-05 0.107974)
(6.37005e-05 9.73317e-05 0.108105)
(-6.61077e-05 9.90662e-05 0.10811)
(-0.000147819 0.000148066 0.106609)
(-2.31384e-06 2.66073e-06 0.106824)
(9.35307e-05 5.00551e-05 0.107976)
(9.6964e-05 -5.90224e-05 0.107977)
(9.75667e-05 6.35351e-05 0.108106)
(9.57341e-05 -5.95165e-05 0.108107)
(-9.43892e-05 -5.27936e-05 0.107975)
(-9.87596e-05 6.63928e-05 0.108111)
(-9.66612e-05 -6.0987e-05 0.108108)
(0.000161594 -0.000161457 0.106623)
(-6.07669e-06 6.43684e-06 0.106817)
(-5.19393e-05 -9.44809e-05 0.107975)
(5.97512e-05 -9.54756e-05 0.108109)
(-6.07711e-05 -9.6843e-05 0.108108)
(3.64396e-06 3.28621e-06 0.106814)
(0.000167316 0.000166758 0.106648)
(-1.63169e-05 -1.74172e-05 0.106816)
(6.71218e-05 9.70637e-05 0.108152)
(-5.59387e-05 9.35989e-05 0.108157)
(5.47053e-05 9.12198e-05 0.108269)
(-5.44738e-05 9.23069e-05 0.10827)
(-0.000160777 0.000161236 0.106652)
(1.71405e-05 -1.69066e-05 0.106844)
(9.75144e-05 6.62259e-05 0.108152)
(9.57268e-05 -5.98935e-05 0.10815)
(9.21676e-05 5.27842e-05 0.108271)
(9.53011e-05 -6.24901e-05 0.108269)
(-9.15128e-05 -5.34414e-05 0.108156)
(-9.18313e-05 5.4391e-05 0.10827)
(-9.43928e-05 -6.24972e-05 0.108269)
(0.000156694 -0.000156279 0.106644)
(-7.10665e-06 7.38234e-06 0.106816)
(-5.24626e-05 -9.18482e-05 0.108155)
(6.24001e-05 -9.48799e-05 0.108269)
(-6.06021e-05 -9.53758e-05 0.10827)
(9.7116e-06 8.46957e-06 0.10684)
(0.000143094 0.000142236 0.106633)
(-8.34925e-06 -6.88327e-06 0.106829)
(5.05985e-05 8.9544e-05 0.108308)
(-6.86694e-05 9.63823e-05 0.108308)
(6.04563e-05 9.29237e-05 0.108419)
(-6.19656e-05 9.20681e-05 0.108418)
(-0.000153533 0.000153257 0.106659)
(1.07343e-05 -1.12543e-05 0.106802)
(9.00456e-05 5.01164e-05 0.108309)
(9.39034e-05 -6.15646e-05 0.108306)
(9.18688e-05 6.21287e-05 0.10842)
(9.01204e-05 -5.44183e-05 0.108414)
(-9.48099e-05 -6.67695e-05 0.108309)
(-9.24626e-05 6.13023e-05 0.10842)
(-9.27332e-05 -5.78496e-05 0.108417)
(0.000152088 -0.000152384 0.106628)
(-1.89588e-05 1.84601e-05 0.106807)
(-6.62968e-05 -9.52545e-05 0.108311)
(5.37547e-05 -9.06054e-05 0.108415)
(-5.95455e-05 -9.16714e-05 0.108417)
(1.53436e-05 1.67907e-05 0.106805)
(0.000149464 0.0001507 0.106629)
(-1.93485e-05 -1.9404e-05 0.106783)
(6.12516e-05 9.22447e-05 0.108453)
(-5.30123e-05 8.91331e-05 0.108448)
(5.29198e-05 8.63226e-05 0.108542)
(-5.16635e-05 8.66368e-05 0.10854)
(-0.000139791 0.000139485 0.106598)
(1.74436e-05 -1.70451e-05 0.106787)
(9.13562e-05 6.23189e-05 0.108454)
(8.85271e-05 -5.16468e-05 0.108449)
(8.62195e-05 5.24984e-05 0.108542)
(8.86112e-05 -5.7105e-05 0.108543)
(-9.12996e-05 -5.56202e-05 0.108449)
(-8.62277e-05 5.19113e-05 0.108541)
(-8.64916e-05 -5.31113e-05 0.108541)
(0.000138708 -0.000139031 0.106611)
(-1.4622e-05 1.50899e-05 0.106797)
(-5.67124e-05 -9.03896e-05 0.108449)
(5.73545e-05 -8.82583e-05 0.108544)
(-5.27149e-05 -8.63802e-05 0.108542)
(1.92475e-05 1.91436e-05 0.106789)
(0.000137061 0.000136906 0.106574)
(-1.79622e-05 -1.77233e-05 0.106726)
(5.81827e-05 8.82866e-05 0.108569)
(-5.90094e-05 8.84996e-05 0.10857)
(5.19607e-05 8.35964e-05 0.108652)
(-5.54924e-05 8.51301e-05 0.108651)
(-0.00014115 0.000141376 0.106581)
(1.60195e-05 -1.60067e-05 0.106724)
(8.82389e-05 5.79005e-05 0.10857)
(8.89917e-05 -6.05931e-05 0.108572)
(8.33976e-05 5.2238e-05 0.108652)
(8.40019e-05 -5.2615e-05 0.108651)
(-8.89896e-05 -6.00852e-05 0.108569)
(-8.50067e-05 5.53216e-05 0.108653)
(-8.44066e-05 -5.36916e-05 0.108652)
(0.000142149 -0.000141917 0.106588)
(-2.12223e-05 2.13425e-05 0.106732)
(-5.98624e-05 -8.89171e-05 0.10857)
(5.24422e-05 -8.3861e-05 0.108652)
(-5.39788e-05 -8.41855e-05 0.108652)
(1.8902e-05 1.90846e-05 0.106725)
(0.000128517 0.000128498 0.106509)
(-1.18718e-05 -1.22046e-05 0.106663)
(4.89645e-05 8.18918e-05 0.108674)
(-4.96466e-05 8.24541e-05 0.108674)
(5.81918e-05 8.39729e-05 0.108739)
(-5.35234e-05 8.24944e-05 0.108739)
(-0.000130304 0.000130281 0.106505)
(1.65763e-05 -1.63267e-05 0.106668)
(8.1774e-05 4.85591e-05 0.108675)
(8.51189e-05 -5.56957e-05 0.108673)
(8.43175e-05 5.75866e-05 0.108741)
(8.20238e-05 -5.28503e-05 0.10874)
(-8.28197e-05 -5.01792e-05 0.108673)
(-8.22125e-05 5.38174e-05 0.10874)
(-8.23516e-05 -5.4621e-05 0.10874)
(0.000129745 -0.000129711 0.106514)
(-1.95106e-05 1.98043e-05 0.106659)
(-4.97918e-05 -8.26935e-05 0.108674)
(5.31562e-05 -8.18035e-05 0.108741)
(-5.40545e-05 -8.26854e-05 0.108741)
(1.74308e-05 1.69944e-05 0.10667)
(0.000132192 0.000131919 0.10644)
(-2.6855e-05 -2.65182e-05 0.106592)
(5.31858e-05 8.12521e-05 0.108761)
(-5.28638e-05 8.11032e-05 0.108761)
(4.60915e-05 7.68507e-05 0.108811)
(-5.17858e-05 7.83353e-05 0.108811)
(-0.000131041 0.000131105 0.106446)
(2.09285e-05 -2.15452e-05 0.106589)
(8.13687e-05 5.3159e-05 0.108762)
(7.95584e-05 -4.82443e-05 0.108759)
(7.65948e-05 4.62423e-05 0.108812)
(7.83636e-05 -5.20364e-05 0.10881)
(-8.22284e-05 -5.57968e-05 0.10876)
(-7.86788e-05 5.08581e-05 0.108813)
(-7.8076e-05 -4.96262e-05 0.108811)
(0.000123705 -0.000123649 0.106437)
(-1.98786e-05 1.93673e-05 0.106592)
(-5.5783e-05 -8.22785e-05 0.108761)
(5.10955e-05 -7.87201e-05 0.108812)
(-4.98203e-05 -7.78513e-05 0.108811)
(2.44345e-05 2.46847e-05 0.106583)
(0.000119307 0.000119448 0.106367)
(-1.88715e-05 -1.89427e-05 0.106497)
(5.00349e-05 7.72346e-05 0.108827)
(-5.14792e-05 7.73765e-05 0.108827)
(5.33442e-05 7.60328e-05 0.108868)
(-5.09361e-05 7.58828e-05 0.108865)
(-0.000122726 0.000122143 0.106361)
(2.16352e-05 -2.11864e-05 0.106494)
(7.7095e-05 4.9868e-05 0.108828)
(7.82978e-05 -5.42992e-05 0.108826)
(7.61024e-05 5.30946e-05 0.108869)
(7.56709e-05 -5.03401e-05 0.108864)
(-7.77759e-05 -5.04909e-05 0.108825)
(-7.55541e-05 5.13894e-05 0.108867)
(-7.48631e-05 -4.91441e-05 0.108866)
(0.000124581 -0.000125112 0.106366)
(-2.27553e-05 2.32623e-05 0.106489)
(-5.03732e-05 -7.76537e-05 0.108825)
(5.07892e-05 -7.53596e-05 0.108866)
(-4.89232e-05 -7.49334e-05 0.108867)
(2.3702e-05 2.36001e-05 0.106494)
(0.000118045 0.000117915 0.106263)
(-2.55059e-05 -2.5358e-05 0.106389)
(5.08436e-05 7.4765e-05 0.108878)
(-5.00446e-05 7.50254e-05 0.108876)
(4.68677e-05 7.17619e-05 0.108902)
(-4.61571e-05 7.14535e-05 0.108903)
(-0.000116938 0.000117317 0.106262)
(2.6427e-05 -2.6297e-05 0.106394)
(7.47848e-05 5.07248e-05 0.108879)
(7.48229e-05 -4.90403e-05 0.108874)
(7.16681e-05 4.67935e-05 0.108903)
(7.14055e-05 -4.61137e-05 0.108902)
(-7.46106e-05 -4.96167e-05 0.108876)
(-7.12771e-05 4.61633e-05 0.108904)
(-7.1428e-05 -4.64363e-05 0.108904)
(0.000114704 -0.000114302 0.106258)
(-2.60657e-05 2.6217e-05 0.106392)
(-4.95265e-05 -7.46231e-05 0.108877)
(4.61191e-05 -7.12572e-05 0.108904)
(-4.63915e-05 -7.1336e-05 0.108904)
(2.59627e-05 2.60525e-05 0.106394)
(0.000109289 0.000109325 0.106159)
(-2.62107e-05 -2.60697e-05 0.106293)
(4.59587e-05 7.06476e-05 0.108909)
(-4.66011e-05 7.08402e-05 0.10891)
(4.51021e-05 6.81338e-05 0.108927)
(-4.58786e-05 6.83811e-05 0.108927)
(-0.000108972 0.000108966 0.106162)
(2.58879e-05 -2.59638e-05 0.106292)
(7.05748e-05 4.58714e-05 0.10891)
(7.10479e-05 -4.69993e-05 0.108909)
(6.80481e-05 4.50711e-05 0.108928)
(6.79901e-05 -4.49342e-05 0.108926)
(-7.04719e-05 -4.57516e-05 0.10891)
(-6.83548e-05 4.55723e-05 0.108929)
(-6.87012e-05 -4.63617e-05 0.108927)
(0.000108959 -0.000108949 0.106162)
(-2.69407e-05 2.6894e-05 0.106291)
(-4.56888e-05 -7.03803e-05 0.108911)
(4.46311e-05 -6.80024e-05 0.108928)
(-4.63683e-05 -6.862e-05 0.108928)
(2.51759e-05 2.52513e-05 0.106292)
(0.000104998 0.000105047 0.106061)
(-2.84228e-05 -2.83827e-05 0.106187)
(4.49067e-05 6.73348e-05 0.108931)
(-4.43484e-05 6.71601e-05 0.10893)
(4.29321e-05 6.45267e-05 0.108937)
(-4.25675e-05 6.44654e-05 0.108936)
(-0.00010446 0.000104328 0.10606)
(2.84556e-05 -2.8335e-05 0.106189)
(6.72523e-05 4.48929e-05 0.108932)
(6.69755e-05 -4.38062e-05 0.10893)
(6.44828e-05 4.27703e-05 0.108938)
(6.45732e-05 -4.30206e-05 0.108936)
(-6.76217e-05 -4.51764e-05 0.108931)
(-6.43011e-05 4.26115e-05 0.108938)
(-6.40833e-05 -4.19053e-05 0.108936)
(0.000103181 -0.000103315 0.106059)
(-2.7766e-05 2.79607e-05 0.106187)
(-4.51884e-05 -6.75258e-05 0.108932)
(4.30567e-05 -6.44393e-05 0.108938)
(-4.178e-05 -6.40366e-05 0.108937)
(2.94636e-05 2.94375e-05 0.106187)
(9.87055e-05 9.86577e-05 0.105956)
(-2.96185e-05 -2.95235e-05 0.106082)
(4.17556e-05 6.33409e-05 0.108937)
(-4.24306e-05 6.36506e-05 0.108937)
(4.07086e-05 6.10263e-05 0.108934)
(-4.0922e-05 6.10085e-05 0.108934)
(-9.92565e-05 9.92779e-05 0.105958)
(2.96315e-05 -2.96935e-05 0.106082)
(6.33259e-05 4.16181e-05 0.108938)
(6.37083e-05 -4.25558e-05 0.108936)
(6.09303e-05 4.06489e-05 0.108935)
(6.08088e-05 -4.04985e-05 0.108933)
(-6.35969e-05 -4.24469e-05 0.108937)
(-6.09959e-05 4.07123e-05 0.108936)
(-6.09673e-05 -4.06457e-05 0.108934)
(9.94217e-05 -9.93482e-05 0.105957)
(-3.0043e-05 3.00339e-05 0.10608)
(-4.23373e-05 -6.35575e-05 0.108938)
(4.02798e-05 -6.0828e-05 0.108935)
(-4.06239e-05 -6.08873e-05 0.108935)
(2.98681e-05 2.99015e-05 0.106081)
(9.4481e-05 9.45023e-05 0.105853)
(-3.16004e-05 -3.15722e-05 0.105977)
(4.0059e-05 6.00889e-05 0.108932)
(-4.01359e-05 6.01327e-05 0.108931)
(3.80745e-05 5.7416e-05 0.10892)
(-3.75427e-05 5.72644e-05 0.10892)
(-9.41946e-05 9.407e-05 0.105852)
(3.20089e-05 -3.1927e-05 0.105977)
(6.00024e-05 3.9994e-05 0.108933)
(6.0067e-05 -4.00501e-05 0.10893)
(5.73671e-05 3.79694e-05 0.108922)
(5.72512e-05 -3.75849e-05 0.108919)
(-5.99937e-05 -3.96065e-05 0.108931)
(-5.71733e-05 3.74676e-05 0.108922)
(-5.73321e-05 -3.78878e-05 0.10892)
(9.3857e-05 -9.39541e-05 0.105852)
(-3.18095e-05 3.19173e-05 0.105976)
(-3.95751e-05 -5.99027e-05 0.108933)
(3.75122e-05 -5.71806e-05 0.108922)
(-3.7816e-05 -5.72807e-05 0.108921)
(3.14279e-05 3.14255e-05 0.105976)
(8.92929e-05 8.9251e-05 0.10575)
(-3.32144e-05 -3.31575e-05 0.105873)
(3.76215e-05 5.66006e-05 0.108915)
(-3.68811e-05 5.63529e-05 0.108915)
(3.53675e-05 5.38855e-05 0.108897)
(-3.59411e-05 5.41085e-05 0.108897)
(-8.86599e-05 8.86667e-05 0.10575)
(3.24491e-05 -3.23841e-05 0.105874)
(5.65506e-05 3.75236e-05 0.108917)
(5.6278e-05 -3.67347e-05 0.108914)
(5.38304e-05 3.52901e-05 0.108898)
(5.40475e-05 -3.58841e-05 0.108896)
(-5.65248e-05 -3.73955e-05 0.108915)
(-5.40216e-05 3.58679e-05 0.108899)
(-5.38233e-05 -3.52437e-05 0.108897)
(8.85852e-05 -8.85748e-05 0.10575)
(-3.22972e-05 3.23934e-05 0.105873)
(-3.73328e-05 -5.6473e-05 0.108916)
(3.58128e-05 -5.39715e-05 0.108899)
(-3.51997e-05 -5.37557e-05 0.108898)
(3.30491e-05 3.30738e-05 0.105873)
(8.43478e-05 8.43277e-05 0.10565)
(-3.43187e-05 -3.4297e-05 0.105773)
(3.46677e-05 5.30046e-05 0.10889)
(-3.5168e-05 5.32051e-05 0.10889)
(3.29331e-05 5.04101e-05 0.108866)
(-3.25964e-05 5.031e-05 0.108865)
(-8.50859e-05 8.50754e-05 0.10565)
(3.47637e-05 -3.47427e-05 0.105773)
(5.29535e-05 3.45838e-05 0.108891)
(5.31388e-05 -3.509e-05 0.108889)
(5.03644e-05 3.28262e-05 0.108867)
(5.03806e-05 -3.27536e-05 0.108864)
(-5.28786e-05 -3.4426e-05 0.10889)
(-5.02428e-05 3.24652e-05 0.108868)
(-5.05406e-05 -3.32524e-05 0.108865)
(8.51532e-05 -8.51531e-05 0.10565)
(-3.45336e-05 3.45639e-05 0.105772)
(-3.43762e-05 -5.28162e-05 0.108891)
(3.26317e-05 -5.03287e-05 0.108867)
(-3.31759e-05 -5.0493e-05 0.108867)
(3.38758e-05 3.38679e-05 0.105772)
(8.03995e-05 8.0355e-05 0.105553)
(-3.57543e-05 -3.57205e-05 0.105675)
(3.25012e-05 4.96414e-05 0.108857)
(-3.22421e-05 4.95349e-05 0.108856)
(3.02684e-05 4.69828e-05 0.108827)
(-3.06846e-05 4.71543e-05 0.108827)
(-8.00751e-05 8.00268e-05 0.105553)
(3.53695e-05 -3.53195e-05 0.105675)
(4.95901e-05 3.24073e-05 0.108858)
(4.95159e-05 -3.21807e-05 0.108856)
(4.69187e-05 3.02029e-05 0.108829)
(4.71388e-05 -3.06683e-05 0.108826)
(-4.9649e-05 -3.25179e-05 0.108856)
(-4.7073e-05 3.06006e-05 0.108829)
(-4.7e-05 -3.02686e-05 0.108827)
(8.01709e-05 -8.02289e-05 0.105552)
(-3.5308e-05 3.53646e-05 0.105674)
(-3.24547e-05 -4.96032e-05 0.108858)
(3.05943e-05 -4.70635e-05 0.108828)
(-3.02293e-05 -4.69376e-05 0.108828)
(3.57189e-05 3.57438e-05 0.105674)
(7.59991e-05 7.59646e-05 0.105459)
(-3.65228e-05 -3.65045e-05 0.10558)
(2.96729e-05 4.61567e-05 0.108817)
(-2.98854e-05 4.62535e-05 0.108816)
(2.80901e-05 4.37209e-05 0.108783)
(-2.79953e-05 4.37326e-05 0.108782)
(-7.63215e-05 7.63074e-05 0.105458)
(3.67468e-05 -3.67059e-05 0.10558)
(4.60983e-05 2.95969e-05 0.108818)
(4.62894e-05 -3.00038e-05 0.108815)
(4.36716e-05 2.80189e-05 0.108784)
(4.36621e-05 -2.78535e-05 0.108781)
(-4.61708e-05 -2.97368e-05 0.108816)
(-4.36564e-05 2.79087e-05 0.108785)
(-4.37469e-05 -2.81108e-05 0.108782)
(7.64671e-05 -7.64977e-05 0.105458)
(-3.69002e-05 3.69405e-05 0.105579)
(-2.96886e-05 -4.61103e-05 0.108818)
(2.77743e-05 -4.35808e-05 0.108784)
(-2.8064e-05 -4.36995e-05 0.108784)
(3.65863e-05 3.65994e-05 0.105579)
(7.25413e-05 7.24975e-05 0.105368)
(-3.75873e-05 -3.75794e-05 0.105488)
(2.73876e-05 4.28542e-05 0.108771)
(-2.73738e-05 4.28848e-05 0.10877)
(2.57443e-05 4.04565e-05 0.108734)
(-2.57399e-05 4.04515e-05 0.108733)
(-7.24584e-05 7.24363e-05 0.105368)
(3.76848e-05 -3.76428e-05 0.105489)
(4.28048e-05 2.73074e-05 0.108772)
(4.28715e-05 -2.73724e-05 0.10877)
(4.0415e-05 2.56593e-05 0.108735)
(4.04319e-05 -2.5684e-05 0.108733)
(-4.289e-05 -2.74379e-05 0.108771)
(-4.03743e-05 2.56691e-05 0.108736)
(-4.03819e-05 -2.55966e-05 0.108733)
(7.23123e-05 -7.23565e-05 0.105368)
(-3.77037e-05 3.77415e-05 0.105488)
(-2.73835e-05 -4.28422e-05 0.108772)
(2.56197e-05 -4.03504e-05 0.108735)
(-2.55373e-05 -4.0343e-05 0.108735)
(3.77706e-05 3.77787e-05 0.105488)
(6.9038e-05 6.89927e-05 0.105281)
(-3.86956e-05 -3.8691e-05 0.105401)
(2.50382e-05 3.96074e-05 0.108721)
(-2.53321e-05 3.972e-05 0.10872)
(2.32995e-05 3.71784e-05 0.108681)
(-2.32068e-05 3.71584e-05 0.10868)
(-6.90765e-05 6.90522e-05 0.105281)
(3.89312e-05 -3.89259e-05 0.105401)
(3.95616e-05 2.49644e-05 0.108722)
(3.96607e-05 -2.51668e-05 0.10872)
(3.71277e-05 2.32223e-05 0.108683)
(3.71603e-05 -2.32935e-05 0.10868)
(-3.96154e-05 -2.5126e-05 0.10872)
(-3.71083e-05 2.30873e-05 0.108683)
(-3.72375e-05 -2.33871e-05 0.108681)
(6.88959e-05 -6.89439e-05 0.105281)
(-3.8773e-05 3.87698e-05 0.1054)
(-2.50794e-05 -3.95724e-05 0.108722)
(2.31778e-05 -3.71147e-05 0.108682)
(-2.33328e-05 -3.71935e-05 0.108682)
(3.86721e-05 3.86852e-05 0.1054)
(6.56711e-05 6.56303e-05 0.105198)
(-3.94433e-05 -3.94139e-05 0.105317)
(2.28274e-05 3.64053e-05 0.108668)
(-2.27164e-05 3.63884e-05 0.108667)
(2.12808e-05 3.41169e-05 0.108626)
(-2.12606e-05 3.41826e-05 0.108625)
(-6.53595e-05 6.53021e-05 0.105197)
(3.94223e-05 -3.93672e-05 0.105317)
(3.63517e-05 2.27391e-05 0.108669)
(3.64205e-05 -2.28377e-05 0.108666)
(3.40814e-05 2.1224e-05 0.108627)
(3.40957e-05 -2.10527e-05 0.108625)
(-3.64268e-05 -2.27791e-05 0.108667)
(-3.40784e-05 2.12424e-05 0.108628)
(-3.40275e-05 -2.10131e-05 0.108625)
(6.54881e-05 -6.55628e-05 0.105197)
(-3.95679e-05 3.9627e-05 0.105316)
(-2.2716e-05 -3.63862e-05 0.108668)
(2.10327e-05 -3.40056e-05 0.108627)
(-2.09792e-05 -3.39874e-05 0.108627)
(3.96208e-05 3.96419e-05 0.105316)
(6.25911e-05 6.2584e-05 0.105118)
(-4.02913e-05 -4.02776e-05 0.105236)
(2.07155e-05 3.3351e-05 0.108612)
(-2.05167e-05 3.33457e-05 0.108611)
(1.91399e-05 3.10465e-05 0.108569)
(-1.91439e-05 3.10197e-05 0.108568)
(-6.24887e-05 6.24892e-05 0.105118)
(4.01834e-05 -4.02007e-05 0.105237)
(3.32993e-05 2.06684e-05 0.108613)
(3.32258e-05 -2.02926e-05 0.10861)
(3.10125e-05 1.90509e-05 0.10857)
(3.10708e-05 -1.93556e-05 0.108567)
(-3.32597e-05 -2.0526e-05 0.108611)
(-3.09614e-05 1.90512e-05 0.108571)
(-3.10952e-05 -1.9339e-05 0.108568)
(6.2266e-05 -6.22822e-05 0.105118)
(-3.99466e-05 3.99393e-05 0.105236)
(-2.05027e-05 -3.32135e-05 0.108613)
(1.92605e-05 -3.10181e-05 0.10857)
(-1.92703e-05 -3.10662e-05 0.10857)
(4.0055e-05 4.0055e-05 0.105236)
(5.96239e-05 5.95937e-05 0.105042)
(-4.10829e-05 -4.10486e-05 0.105161)
(1.85471e-05 3.02739e-05 0.108554)
(-1.88641e-05 3.0346e-05 0.108554)
(1.70141e-05 2.80177e-05 0.108511)
(-1.71616e-05 2.81465e-05 0.10851)
(-5.98684e-05 5.9786e-05 0.105043)
(4.10676e-05 -4.10749e-05 0.105161)
(3.02421e-05 1.84493e-05 0.108556)
(3.04e-05 -1.9005e-05 0.108553)
(2.7975e-05 1.69665e-05 0.108512)
(2.80622e-05 -1.69512e-05 0.108509)
(-3.03649e-05 -1.88053e-05 0.108554)
(-2.80999e-05 1.70785e-05 0.108513)
(-2.80243e-05 -1.68606e-05 0.10851)
(5.99944e-05 -6.00841e-05 0.105042)
(-4.12826e-05 4.12815e-05 0.10516)
(-1.87277e-05 -3.03441e-05 0.108555)
(1.68672e-05 -2.80308e-05 0.108512)
(-1.68287e-05 -2.79852e-05 0.108512)
(4.12539e-05 4.12749e-05 0.10516)
(5.69553e-05 5.69569e-05 0.104971)
(-4.14909e-05 -4.14776e-05 0.105088)
(1.67674e-05 2.73697e-05 0.108496)
(-1.65089e-05 2.73658e-05 0.108495)
(1.55122e-05 2.53264e-05 0.108452)
(-1.52664e-05 2.52336e-05 0.108452)
(-5.67418e-05 5.66954e-05 0.10497)
(4.15402e-05 -4.15023e-05 0.105089)
(2.73103e-05 1.67277e-05 0.108498)
(2.72837e-05 -1.63794e-05 0.108495)
(2.52884e-05 1.54395e-05 0.108454)
(2.5264e-05 -1.53931e-05 0.108451)
(-2.73004e-05 -1.64696e-05 0.108496)
(-2.51383e-05 1.52494e-05 0.108455)
(-2.52668e-05 -1.54864e-05 0.108452)
(5.65469e-05 -5.66044e-05 0.10497)
(-4.13578e-05 4.14062e-05 0.105088)
(-1.6446e-05 -2.72487e-05 0.108497)
(1.53743e-05 -2.51817e-05 0.108454)
(-1.54266e-05 -2.52324e-05 0.108453)
(4.13814e-05 4.1381e-05 0.105087)
(5.44062e-05 5.43788e-05 0.104902)
(-4.22215e-05 -4.21946e-05 0.10502)
(1.48479e-05 2.45776e-05 0.108438)
(-1.49376e-05 2.45694e-05 0.108437)
(1.34501e-05 2.24228e-05 0.108394)
(-1.37033e-05 2.25575e-05 0.108393)
(-5.45327e-05 5.45066e-05 0.104903)
(4.20976e-05 -4.21281e-05 0.10502)
(2.45407e-05 1.47676e-05 0.108439)
(2.45982e-05 -1.49986e-05 0.108436)
(2.23761e-05 1.33987e-05 0.108396)
(2.25165e-05 -1.36069e-05 0.108393)
(-2.45883e-05 -1.50058e-05 0.108437)
(-2.2519e-05 1.36024e-05 0.108397)
(-2.24654e-05 -1.345e-05 0.108394)
(5.46087e-05 -5.46422e-05 0.104902)
(-4.22095e-05 4.21867e-05 0.105019)
(-1.49382e-05 -2.45604e-05 0.108439)
(1.3504e-05 -2.24916e-05 0.108396)
(-1.34087e-05 -2.2424e-05 0.108395)
(4.22531e-05 4.22648e-05 0.105019)
(5.21125e-05 5.21101e-05 0.104838)
(-4.25669e-05 -4.25485e-05 0.104955)
(1.32226e-05 2.18116e-05 0.10838)
(-1.31862e-05 2.18493e-05 0.108379)
(1.21094e-05 1.99355e-05 0.108337)
(-1.20383e-05 1.9915e-05 0.108336)
(-5.20809e-05 5.20052e-05 0.104838)
(4.25571e-05 -4.25362e-05 0.104955)
(2.17489e-05 1.31791e-05 0.108381)
(2.17994e-05 -1.31157e-05 0.108378)
(1.98867e-05 1.20533e-05 0.108338)
(1.99244e-05 -1.2103e-05 0.108335)
(-2.18002e-05 -1.30987e-05 0.108379)
(-1.98352e-05 1.19997e-05 0.108339)
(-1.99197e-05 -1.20976e-05 0.108336)
(5.19574e-05 -5.20421e-05 0.104837)
(-4.24588e-05 4.24908e-05 0.104954)
(-1.30661e-05 -2.1748e-05 0.108381)
(1.20601e-05 -1.98551e-05 0.108338)
(-1.20497e-05 -1.98748e-05 0.108338)
(4.248e-05 4.24851e-05 0.104954)
(4.99e-05 4.98822e-05 0.104777)
(-4.31221e-05 -4.31e-05 0.104894)
(1.16429e-05 1.93068e-05 0.108323)
(-1.17481e-05 1.93359e-05 0.108322)
(1.04055e-05 1.73679e-05 0.10828)
(-1.0394e-05 1.74037e-05 0.10828)
(-5.00293e-05 5.00028e-05 0.104777)
(4.32065e-05 -4.32062e-05 0.104894)
(1.92562e-05 1.158e-05 0.108324)
(1.93538e-05 -1.17991e-05 0.108321)
(1.73144e-05 1.03568e-05 0.108282)
(1.73709e-05 -1.03287e-05 0.108279)
(-1.9272e-05 -1.16123e-05 0.108322)
(-1.73378e-05 1.03339e-05 0.108283)
(-1.74014e-05 -1.04664e-05 0.10828)
(5.00744e-05 -5.01082e-05 0.104777)
(-4.32749e-05 4.32768e-05 0.104893)
(-1.1558e-05 -1.92301e-05 0.108323)
(1.02625e-05 -1.73177e-05 0.108282)
(-1.04239e-05 -1.73562e-05 0.108281)
(4.30444e-05 4.30508e-05 0.104893)
(4.78263e-05 4.782e-05 0.10472)
(1.0108e-05 1.67741e-05 0.108266)
(-1.00862e-05 1.67988e-05 0.108266)
(-4.7725e-05 4.76767e-05 0.10472)
(1.67094e-05 1.00621e-05 0.108268)
(1.67731e-05 -1.00636e-05 0.108265)
(-1.68044e-05 -1.01824e-05 0.108266)
(4.76393e-05 -4.77042e-05 0.10472)
(-1.01435e-05 -1.67533e-05 0.108267)
(6.37224e-05 6.3347e-05 0.108858)
(-5.96072e-05 5.99881e-05 0.108857)
(6.22895e-05 -6.19015e-05 0.108855)
(-6.21734e-05 -6.25675e-05 0.108857)
(2.61026e-07 2.1784e-05 0.0940156)
(-8.06072e-07 2.03315e-05 0.083591)
(2.17164e-06 4.529e-05 0.0940779)
(-2.00769e-06 5.5381e-08 0.0835628)
(-7.99061e-06 3.51395e-06 0.0721709)
(4.44473e-08 -2.63873e-06 0.0721775)
(2.18027e-05 7.66893e-08 0.0940152)
(2.05142e-05 -1.10755e-06 0.0835914)
(4.50577e-05 1.33572e-06 0.0940784)
(9.582e-08 -2.39662e-06 0.0835624)
(-5.73815e-05 5.73551e-05 0.108929)
(6.11733e-05 -6.11806e-05 0.108931)
(-5.89726e-05 -5.96526e-05 0.10893)
(6.03778e-05 6.02689e-05 0.109151)
(-6.16114e-05 6.20551e-05 0.109155)
(5.99176e-05 -5.94677e-05 0.109152)
(-5.99243e-05 -6.00535e-05 0.109155)
(-6.2695e-05 4.09143e-06 0.102462)
(-6.97836e-05 1.78516e-05 0.0957175)
(-0.000100372 1.5459e-05 0.108622)
(-9.69988e-05 5.60098e-05 0.108017)
(-0.000107246 3.36415e-06 0.102456)
(-2.58042e-05 9.53965e-06 0.0957167)
(-0.000100821 1.60881e-05 0.108685)
(6.58991e-06 -1.90283e-06 0.0721732)
(-2.3232e-06 3.23871e-06 0.0721782)
(5.02495e-06 -6.26177e-05 0.102463)
(1.95988e-05 -0.00010122 0.108623)
(1.4016e-05 -6.17388e-05 0.0957233)
(5.74886e-05 -9.59821e-05 0.108022)
(3.8935e-06 -0.000105981 0.102455)
(1.80455e-05 -0.000100736 0.108687)
(6.96204e-06 -3.16941e-05 0.0957145)
(-3.61466e-05 -1.97995e-05 0.0894089)
(-1.94718e-05 -3.63957e-05 0.0894068)
(1.77618e-05 1.72587e-05 0.106787)
(-1.3716e-05 -8.55293e-06 0.0893749)
(-8.03392e-06 -1.39758e-05 0.0893721)
(4.63173e-06 1.71099e-05 0.0937169)
(-4.65879e-07 1.83797e-05 0.0833677)
(3.67259e-06 3.95607e-05 0.0937651)
(-3.58095e-06 -3.13175e-06 0.0833537)
(8.36051e-07 3.69843e-06 0.0720329)
(2.26147e-06 -2.38012e-06 0.0720238)
(1.70396e-05 1.57297e-06 0.093716)
(1.89777e-05 -1.41433e-06 0.083368)
(3.96943e-05 3.01981e-06 0.0937638)
(-2.68463e-06 -4.70397e-06 0.0833536)
(-5.84743e-05 5.97862e-05 0.109231)
(6.0745e-05 -5.94178e-05 0.109226)
(-5.76713e-05 -5.85681e-05 0.109229)
(5.75931e-05 5.61024e-05 0.109444)
(-5.44248e-05 5.4316e-05 0.109438)
(5.99212e-05 -5.99734e-05 0.109443)
(-5.66947e-05 -5.81984e-05 0.109439)
(-5.66662e-05 2.76803e-06 0.102191)
(-6.20291e-05 1.54583e-05 0.0954278)
(-9.91765e-05 1.91013e-05 0.108882)
(-8.75157e-05 4.65478e-05 0.108199)
(-9.76081e-05 4.56463e-06 0.102186)
(-3.78348e-05 3.15309e-06 0.0954182)
(-9.7261e-05 1.54374e-05 0.108943)
(7.45332e-06 2.66595e-07 0.0720189)
(-3.25703e-07 3.58382e-06 0.0720299)
(5.33148e-06 -5.50814e-05 0.102189)
(2.03384e-05 -9.97792e-05 0.108878)
(1.27044e-05 -5.37614e-05 0.0954323)
(6.20459e-05 -9.46375e-05 0.108192)
(4.05071e-06 -9.74013e-05 0.102183)
(2.178e-05 -9.95031e-05 0.108939)
(2.87662e-06 -2.25227e-05 0.0954291)
(-3.54577e-05 -1.01616e-05 0.0891347)
(-9.41456e-06 -3.59837e-05 0.0891323)
(2.08722e-05 1.9663e-05 0.106834)
(-1.54397e-05 1.85788e-07 0.0891144)
(1.19443e-06 -1.59844e-05 0.0891117)
(-2.47168e-06 1.41087e-05 0.0934451)
(-1.59927e-07 1.74489e-05 0.0831636)
(-9.43114e-08 3.62205e-05 0.0934816)
(-4.9878e-06 -1.61643e-06 0.0831573)
(3.39202e-06 1.33524e-05 0.0718834)
(6.59631e-06 5.20363e-07 0.0719046)
(1.44326e-05 -4.65861e-08 0.0934448)
(1.72633e-05 2.07576e-07 0.083165)
(3.6414e-05 -3.37112e-07 0.0934849)
(-2.23748e-06 -4.02556e-06 0.0831572)
(-6.00452e-05 5.89454e-05 0.10951)
(5.88015e-05 -5.98926e-05 0.109514)
(-6.02521e-05 -6.04664e-05 0.109513)
(5.70796e-05 5.86277e-05 0.109726)
(-6.03174e-05 5.98042e-05 0.109729)
(5.4888e-05 -5.5377e-05 0.109726)
(-5.84174e-05 -5.68678e-05 0.109727)
(-4.58857e-05 4.03697e-06 0.101918)
(-3.54389e-05 7.50411e-06 0.0951618)
(-9.91478e-05 1.84485e-05 0.109116)
(-9.76126e-05 7.30512e-05 0.10835)
(-8.77474e-05 1.85541e-06 0.101908)
(-1.15522e-05 -2.41364e-06 0.0951678)
(-9.9975e-05 2.25545e-05 0.109179)
(3.98293e-06 -2.92282e-06 0.071889)
(-4.06263e-06 -4.49253e-08 0.0719019)
(2.11459e-06 -4.83705e-05 0.101919)
(1.7956e-05 -9.93047e-05 0.109121)
(1.65744e-05 -5.14697e-05 0.0951635)
(5.68496e-05 -9.23881e-05 0.108345)
(4.54948e-06 -8.92891e-05 0.10191)
(1.66913e-05 -9.89568e-05 0.109181)
(4.13455e-06 -2.50363e-05 0.095162)
(-1.41563e-05 -1.45905e-06 0.0889163)
(-1.52544e-06 -1.42352e-05 0.0889153)
(-1.05041e-06 -3.33152e-07 0.106832)
(-1.70022e-05 2.89313e-06 0.0889063)
(1.98142e-06 -1.63693e-05 0.0889045)
(2.13314e-06 1.22839e-05 0.0932012)
(-1.64323e-06 1.58617e-05 0.082988)
(1.58814e-06 3.30339e-05 0.0932327)
(-4.37402e-06 -2.29784e-06 0.0829837)
(-5.62697e-06 2.80322e-07 0.0717681)
(8.07132e-07 -2.28515e-06 0.0717735)
(1.1973e-05 1.64182e-06 0.0932)
(1.59046e-05 -1.29183e-06 0.0829875)
(3.29233e-05 2.43765e-06 0.0932314)
(-2.35079e-06 -4.40511e-06 0.082983)
(-5.61212e-05 5.62091e-05 0.109798)
(5.42944e-05 -5.41963e-05 0.109796)
(-5.6784e-05 -5.56764e-05 0.109797)
(5.40122e-05 5.3791e-05 0.109996)
(-5.25482e-05 5.28365e-05 0.109994)
(5.46986e-05 -5.44006e-05 0.109995)
(-5.29457e-05 -5.31706e-05 0.109994)
(-4.41799e-05 1.6674e-06 0.101652)
(-5.90362e-05 1.87547e-05 0.0949124)
(-9.80834e-05 1.65881e-05 0.109356)
(-8.63562e-05 4.76958e-05 0.10848)
(-8.47829e-05 3.78514e-06 0.101648)
(-2.59272e-05 4.96606e-06 0.0949134)