/*--------------------------------*- C++ -*----------------------------------*\
| =========                 |                                                 |
| \\      /  F ield         | OpenFOAM: The Open Source CFD Toolbox           |
|  \\    /   O peration     | Version:  v1906                                 |
|   \\  /    A nd           | Web:      www.OpenFOAM.com                      |
|    \\/     M anipulation  |                                                 |
\*---------------------------------------------------------------------------*/
FoamFile
{
    version     2.0;
    format      ascii;
    class       volVectorField;
    location    "875";
    object      U;
}
// * * * * * * * * * * * * * * * * * * * * * * * * * * * * * * * * * * * * * //

dimensions      [0 1 -1 0 0 0 0];


internalField   nonuniform List<vector> 
43024
(
(-1.03519e-05 -1.01901e-05 0.112445)
(1.10675e-05 -4.57625e-06 0.107484)
(-5.04653e-06 1.12171e-05 0.107484)
(-2.72776e-05 -2.72016e-05 0.104199)
(-1.22444e-05 -1.20947e-05 0.11241)
(1.22412e-05 -7.88224e-06 0.107476)
(-7.64936e-06 1.22022e-05 0.107475)
(-2.48594e-05 -2.48233e-05 0.104204)
(-1.08086e-05 -1.12384e-05 0.112372)
(1.15756e-05 -4.53954e-06 0.107469)
(-4.40493e-06 1.14214e-05 0.107468)
(-2.78117e-05 -2.80938e-05 0.104209)
(-1.31312e-05 -1.26079e-05 0.112342)
(1.18532e-05 -8.98038e-06 0.107467)
(-9.45426e-06 1.21357e-05 0.107466)
(-2.41277e-05 -2.3724e-05 0.104219)
(-1.1761e-05 -1.22705e-05 0.112301)
(1.33331e-05 -4.00135e-06 0.107459)
(-3.14021e-06 1.2826e-05 0.107458)
(-2.73675e-05 -2.79232e-05 0.104225)
(-9.24602e-06 -8.82413e-06 0.112274)
(7.98374e-06 -5.39098e-06 0.107452)
(-6.71781e-06 8.67204e-06 0.107452)
(-2.83853e-05 -2.77873e-05 0.104221)
(-1.62511e-05 -1.6128e-05 0.112243)
(1.51819e-05 -1.10846e-05 0.107458)
(-1.00822e-05 1.48055e-05 0.107458)
(-2.21999e-05 -2.24354e-05 0.10425)
(-1.03008e-05 -1.15868e-05 0.112203)
(1.13737e-05 -2.20908e-06 0.107451)
(-1.32788e-06 1.04308e-05 0.107448)
(-2.88735e-05 -2.97551e-05 0.104251)
(-9.02446e-06 -6.91247e-06 0.112179)
(8.51965e-06 -5.88583e-06 0.107441)
(-9.33643e-06 1.01815e-05 0.107443)
(-2.85379e-05 -2.70498e-05 0.104241)
(-1.47254e-05 -1.58449e-05 0.112145)
(1.41018e-05 -8.12003e-06 0.107446)
(-4.4001e-06 1.32314e-05 0.107445)
(-2.34005e-05 -2.40964e-05 0.104271)
(-1.07818e-05 -1.22439e-05 0.11212)
(8.14004e-06 -6.6972e-06 0.107449)
(-7.29651e-06 6.81448e-06 0.107445)
(-2.90008e-05 -3.0469e-05 0.104277)
(-1.35466e-05 -1.04391e-05 0.112084)
(1.38048e-05 -2.38403e-06 0.107439)
(-8.17643e-06 1.74202e-05 0.107443)
(-2.48739e-05 -2.2045e-05 0.104286)
(-2.26578e-06 -3.93803e-06 0.112066)
(6.25222e-06 -6.61516e-06 0.107441)
(3.74768e-06 1.88294e-06 0.107438)
(-3.25686e-05 -3.47474e-05 0.104276)
(-2.3747e-05 -2.59812e-05 0.112041)
(1.51818e-05 -1.2326e-05 0.107453)
(-1.97068e-05 1.669e-05 0.107448)
(-1.81412e-05 -1.82475e-05 0.104324)
(-2.25001e-06 4.13558e-06 0.112008)
(3.70567e-06 6.88637e-06 0.107438)
(4.26606e-06 9.18905e-06 0.10745)
(-3.87286e-05 -3.45739e-05 0.10431)
(-1.55418e-05 -2.34939e-05 0.111992)
(1.8685e-05 -2.29262e-05 0.107447)
(-6.89478e-06 6.40335e-06 0.107431)
(-1.2272e-05 -2.12857e-05 0.104313)
(1.95371e-07 5.53247e-06 0.111941)
(1.97277e-06 2.03448e-05 0.107422)
(-4.02314e-06 1.26239e-05 0.107425)
(-4.95364e-05 -4.18982e-05 0.104295)
(-1.8815e-06 7.47371e-07 0.112009)
(-1.4422e-05 -1.23147e-05 0.107464)
(6.47846e-06 -8.49438e-06 0.107491)
(-2.91607e-05 -2.10392e-05 0.104346)
(-5.97568e-05 -7.36694e-05 0.111978)
(4.90085e-05 -5.84826e-05 0.107553)
(-4.84025e-05 2.6659e-05 0.10753)
(2.63335e-05 4.38599e-06 0.104554)
(2.66014e-06 2.24625e-05 0.111799)
(2.33586e-05 6.70426e-05 0.107384)
(3.24364e-05 5.04977e-05 0.107386)
(-3.50875e-05 -1.91905e-05 0.104343)
(1.81015e-05 -9.58675e-06 0.111995)
(4.82666e-05 -8.66609e-05 0.107593)
(-2.60551e-05 1.92167e-05 0.10757)
(-2.1412e-05 -3.19242e-05 0.104331)
(-4.28004e-05 -4.27175e-05 0.104313)
(-4.54768e-06 -1.11557e-05 0.107485)
(4.86041e-06 -1.12981e-05 0.107484)
(4.30071e-05 -4.26834e-05 0.104314)
(-1.118e-05 -4.52691e-06 0.107486)
(-1.12217e-05 5.1082e-06 0.107484)
(1.15229e-05 -4.58102e-06 0.107487)
(1.14966e-05 5.03289e-06 0.107484)
(-4.29072e-05 4.3275e-05 0.104313)
(-4.79283e-06 1.157e-05 0.107486)
(4.98587e-06 1.15636e-05 0.107486)
(4.30757e-05 4.31378e-05 0.104312)
(2.74068e-05 2.7551e-05 0.104199)
(-4.55764e-05 -4.53488e-05 0.104315)
(-5.01871e-06 -1.07068e-05 0.107482)
(4.92043e-06 -1.07305e-05 0.107482)
(-7.73738e-06 -1.17129e-05 0.107476)
(7.05083e-06 -1.14839e-05 0.107475)
(-2.73631e-05 2.7685e-05 0.1042)
(4.50945e-05 -4.52209e-05 0.104315)
(-1.08862e-05 -4.83189e-06 0.107484)
(-1.08862e-05 5.33271e-06 0.107481)
(-1.20356e-05 -7.49058e-06 0.107477)
(-1.19101e-05 7.076e-06 0.107474)
(1.1075e-05 5.18413e-06 0.107481)
(1.14805e-05 -7.22015e-06 0.107477)
(1.15184e-05 7.23325e-06 0.107475)
(2.73387e-05 -2.70667e-05 0.1042)
(-4.53065e-05 4.4923e-05 0.104315)
(5.06971e-06 1.11587e-05 0.107483)
(-7.37819e-06 1.16134e-05 0.107477)
(7.11851e-06 1.16606e-05 0.107476)
(4.50291e-05 4.51299e-05 0.104315)
(2.45215e-05 2.46035e-05 0.104205)
(-4.17216e-05 -4.23087e-05 0.10432)
(-7.81181e-06 -1.2548e-05 0.107474)
(7.57957e-06 -1.24036e-05 0.107473)
(-4.50049e-06 -1.23072e-05 0.107468)
(5.6815e-06 -1.26414e-05 0.107468)
(-2.47757e-05 2.45505e-05 0.104204)
(4.26958e-05 -4.26594e-05 0.104321)
(-1.26962e-05 -7.79894e-06 0.107475)
(-1.26231e-05 7.29636e-06 0.107473)
(-1.17889e-05 -5.09193e-06 0.10747)
(-1.19183e-05 5.26204e-06 0.107467)
(1.2254e-05 7.56445e-06 0.107473)
(1.26178e-05 -5.59902e-06 0.10747)
(1.25646e-05 5.14713e-06 0.107468)
(2.46632e-05 -2.51089e-05 0.104204)
(-4.20942e-05 4.26003e-05 0.104319)
(7.58979e-06 1.23205e-05 0.107475)
(-4.99291e-06 1.23158e-05 0.107469)
(5.55009e-06 1.22781e-05 0.107469)
(4.26851e-05 4.23482e-05 0.104319)
(2.85334e-05 2.80349e-05 0.104209)
(-4.58389e-05 -4.52083e-05 0.104328)
(-4.08956e-06 -1.11989e-05 0.107467)
(4.73187e-06 -1.14462e-05 0.107466)
(-8.30451e-06 -1.08755e-05 0.107465)
(6.96016e-06 -1.05469e-05 0.107464)
(-2.78515e-05 2.79235e-05 0.104209)
(4.46529e-05 -4.47915e-05 0.104328)
(-1.07686e-05 -4.53727e-06 0.107468)
(-1.08474e-05 4.77055e-06 0.107465)
(-1.13617e-05 -7.76097e-06 0.107466)
(-1.13206e-05 7.6537e-06 0.107464)
(1.15187e-05 4.38933e-06 0.107466)
(1.04863e-05 -7.23986e-06 0.107467)
(1.05178e-05 7.56685e-06 0.107464)
(2.82386e-05 -2.77546e-05 0.104208)
(-4.5678e-05 4.50436e-05 0.104328)
(4.68589e-06 1.12682e-05 0.107467)
(-8.09637e-06 1.08856e-05 0.107466)
(7.17812e-06 1.08809e-05 0.107466)
(4.46912e-05 4.51101e-05 0.104327)
(2.31565e-05 2.37833e-05 0.10422)
(-4.25274e-05 -4.30552e-05 0.104336)
(-9.56859e-06 -1.22506e-05 0.107465)
(8.62366e-06 -1.20183e-05 0.107464)
(-5.81745e-06 -1.41535e-05 0.107459)
(7.01551e-06 -1.44238e-05 0.107458)
(-2.40779e-05 2.38787e-05 0.104219)
(4.36985e-05 -4.34576e-05 0.104337)
(-1.29001e-05 -8.98991e-06 0.107466)
(-1.28942e-05 8.87183e-06 0.107464)
(-1.38568e-05 -6.29194e-06 0.107461)
(-1.37837e-05 5.98628e-06 0.107458)
(1.18295e-05 9.05774e-06 0.107464)
(1.46049e-05 -6.73614e-06 0.107461)
(1.4444e-05 6.33542e-06 0.107459)
(2.31964e-05 -2.39737e-05 0.10422)
(-4.22616e-05 4.28276e-05 0.104335)
(8.68029e-06 1.22439e-05 0.107465)
(-5.68103e-06 1.41005e-05 0.10746)
(6.78871e-06 1.41098e-05 0.10746)
(4.35285e-05 4.30391e-05 0.104336)
(2.83701e-05 2.7685e-05 0.104225)
(-4.02679e-05 -4.00045e-05 0.104327)
(-3.55728e-06 -1.29492e-05 0.107457)
(4.43386e-06 -1.30443e-05 0.107456)
(-2.90497e-06 -7.68829e-06 0.10745)
(2.61116e-06 -7.47072e-06 0.107449)
(-2.73993e-05 2.76654e-05 0.104226)
(4.00772e-05 -3.99721e-05 0.104327)
(-1.23455e-05 -4.28604e-06 0.107458)
(-1.2057e-05 3.77691e-06 0.107455)
(-7.68668e-06 -2.7019e-06 0.107451)
(-7.61246e-06 3.76788e-06 0.107449)
(1.32711e-05 3.98345e-06 0.107456)
(7.57589e-06 -2.4652e-06 0.107452)
(7.89889e-06 3.51814e-06 0.10745)
(2.87798e-05 -2.80225e-05 0.104224)
(-4.08234e-05 4.10926e-05 0.104327)
(4.55543e-06 1.27533e-05 0.107458)
(-3.4322e-06 8.09582e-06 0.107452)
(3.14549e-06 8.14516e-06 0.107452)
(4.04211e-05 4.08816e-05 0.104328)
(2.84583e-05 2.8909e-05 0.10422)
(-4.82626e-05 -4.78226e-05 0.104357)
(-5.36541e-06 -7.78971e-06 0.10745)
(5.39005e-06 -7.89679e-06 0.10745)
(-1.1912e-05 -1.36434e-05 0.107455)
(1.14271e-05 -1.40948e-05 0.107454)
(-2.84511e-05 2.84756e-05 0.10422)
(4.76473e-05 -4.81071e-05 0.104358)
(-8.20828e-06 -4.73857e-06 0.107452)
(-8.67773e-06 6.76491e-06 0.107449)
(-1.43497e-05 -1.14516e-05 0.107456)
(-1.49364e-05 1.09166e-05 0.107455)
(8.02563e-06 5.88974e-06 0.107451)
(1.38825e-05 -1.19861e-05 0.107457)
(1.33944e-05 1.06434e-05 0.107454)
(2.73325e-05 -2.73514e-05 0.104221)
(-4.79784e-05 4.6971e-05 0.104359)
(5.19859e-06 8.62186e-06 0.107452)
(-1.18764e-05 1.40046e-05 0.107457)
(1.05022e-05 1.3713e-05 0.107455)
(4.6989e-05 4.70486e-05 0.104355)
(2.1096e-05 2.119e-05 0.104253)
(-3.95688e-05 -4.12853e-05 0.104365)
(-1.14885e-05 -1.56484e-05 0.107457)
(1.03144e-05 -1.56605e-05 0.107456)
(-3.7182e-06 -1.42102e-05 0.107453)
(3.49182e-06 -1.32864e-05 0.107451)
(-2.20367e-05 2.14371e-05 0.104253)
(3.99058e-05 -4.01806e-05 0.104362)
(-1.58827e-05 -1.16581e-05 0.107458)
(-1.56879e-05 9.02704e-06 0.107456)
(-1.27015e-05 -5.38323e-06 0.107454)
(-1.14903e-05 2.1739e-06 0.107449)
(1.50417e-05 9.93362e-06 0.107455)
(1.28697e-05 -3.83463e-06 0.107454)
(1.35849e-05 4.01286e-06 0.10745)
(2.20168e-05 -2.29861e-05 0.104253)
(-3.87407e-05 3.92866e-05 0.104357)
(1.03666e-05 1.48676e-05 0.107456)
(-2.02255e-06 1.18042e-05 0.107451)
(5.26389e-06 1.26093e-05 0.107452)
(4.12979e-05 4.01761e-05 0.104361)
(3.05838e-05 2.91237e-05 0.104254)
(-4.03589e-05 -3.83176e-05 0.104342)
(-1.60499e-06 -1.20835e-05 0.107451)
(2.40471e-06 -1.14103e-05 0.107448)
(-2.29105e-06 -5.66619e-06 0.107437)
(3.87756e-06 -6.69249e-06 0.107437)
(-2.97426e-05 2.97127e-05 0.104251)
(4.12901e-05 -4.01818e-05 0.104345)
(-1.07594e-05 -2.85145e-06 0.107452)
(-9.675e-06 2.00712e-06 0.107445)
(-7.14193e-06 -3.76751e-07 0.107439)
(-8.67679e-06 7.16861e-06 0.107438)
(1.18434e-05 2.49764e-06 0.107448)
(7.59721e-06 -2.69322e-06 0.10744)
(6.70595e-06 3.35823e-06 0.107438)
(3.06962e-05 -3.0007e-05 0.104246)
(-4.35782e-05 4.39961e-05 0.104349)
(3.33208e-06 1.10796e-05 0.107449)
(-6.39391e-06 9.08096e-06 0.107441)
(1.89283e-06 7.56692e-06 0.107439)
(3.94892e-05 4.08344e-05 0.104345)
(2.74894e-05 2.97246e-05 0.104237)
(-4.63057e-05 -4.70332e-05 0.104371)
(-6.00405e-06 -6.39429e-06 0.107437)
(7.01082e-06 -7.47143e-06 0.107438)
(-1.08109e-05 -1.39169e-05 0.107439)
(1.03442e-05 -1.38261e-05 0.107441)
(-2.68559e-05 2.79128e-05 0.10424)
(4.60301e-05 -4.61668e-05 0.104375)
(-8.61055e-06 -3.57625e-06 0.107438)
(-1.02573e-05 9.87175e-06 0.10744)
(-1.4034e-05 -1.12201e-05 0.107441)
(-1.37265e-05 8.20166e-06 0.107443)
(7.4796e-06 6.93124e-06 0.107439)
(1.40891e-05 -1.03383e-05 0.107444)
(1.43987e-05 1.11853e-05 0.107441)
(2.43216e-05 -2.42147e-05 0.104246)
(-4.37422e-05 4.40718e-05 0.104377)
(5.06272e-06 8.8832e-06 0.10744)
(-7.9781e-06 1.40511e-05 0.107445)
(1.12632e-05 1.49416e-05 0.107443)
(4.69486e-05 4.68312e-05 0.104375)
(2.44336e-05 2.29424e-05 0.104269)
(-3.92739e-05 -4.12755e-05 0.104391)
(-8.22613e-06 -1.49997e-05 0.107442)
(7.448e-06 -1.44461e-05 0.107443)
(-3.37665e-06 -1.02317e-05 0.107449)
(2.05179e-06 -9.56274e-06 0.107445)
(-2.46803e-05 2.41698e-05 0.104271)
(3.84795e-05 -4.01982e-05 0.104385)
(-1.37252e-05 -1.02038e-05 0.107444)
(-1.26936e-05 4.30955e-06 0.107443)
(-8.1208e-06 -5.69143e-06 0.107449)
(-7.11064e-06 3.95387e-07 0.10744)
(1.49306e-05 7.84196e-06 0.107443)
(8.1088e-06 -4.00606e-06 0.107447)
(8.66627e-06 5.72785e-07 0.107444)
(2.71724e-05 -2.68699e-05 0.104271)
(-3.89023e-05 3.73505e-05 0.104375)
(9.20806e-06 1.44482e-05 0.107445)
(-2.14621e-06 6.13531e-06 0.107443)
(2.8003e-06 6.65068e-06 0.107446)
(3.90174e-05 3.70037e-05 0.104382)
(2.8175e-05 2.68455e-05 0.104286)
(-4.79112e-05 -4.5045e-05 0.104397)
(-6.17116e-06 -9.83173e-06 0.107452)
(4.78609e-06 -9.47489e-06 0.107447)
(-1.07505e-05 -1.48882e-05 0.107445)
(9.08346e-06 -1.47087e-05 0.10744)
(-2.90433e-05 2.74435e-05 0.10428)
(4.60721e-05 -4.5618e-05 0.104392)
(-8.65442e-06 -7.21065e-06 0.107453)
(-8.44396e-06 5.26864e-06 0.107442)
(-1.66606e-05 -7.71586e-06 0.107445)
(-1.72255e-05 1.41116e-05 0.107442)
(8.19184e-06 3.59938e-06 0.107446)
(1.432e-05 -8.77717e-06 0.107443)
(1.37508e-05 1.17883e-05 0.10744)
(2.76517e-05 -2.94494e-05 0.104271)
(-4.98001e-05 4.99768e-05 0.1044)
(4.7462e-06 6.77221e-06 0.107448)
(-1.40597e-05 1.6561e-05 0.107444)
(8.8849e-06 1.56688e-05 0.107441)
(4.58768e-05 4.86371e-05 0.104392)
(2.43292e-05 2.73439e-05 0.104287)
(-2.93516e-05 -2.95285e-05 0.104361)
(-4.36029e-06 -1.33276e-05 0.107439)
(4.25371e-06 -1.32908e-05 0.107437)
(7.8559e-06 1.57721e-06 0.107423)
(9.07869e-07 -4.69035e-07 0.107429)
(-2.55438e-05 2.65323e-05 0.104284)
(3.71195e-05 -3.30903e-05 0.104376)
(-1.59793e-05 -7.01778e-07 0.10744)
(-1.67717e-05 9.83492e-06 0.107441)
(2.32067e-07 7.6231e-06 0.107425)
(-4.7396e-07 -4.87527e-06 0.107431)
(1.38949e-05 8.51989e-06 0.107438)
(4.58725e-06 3.47947e-06 0.107432)
(3.912e-06 -2.92845e-06 0.107431)
(2.19242e-05 -2.10246e-05 0.104295)
(-2.82581e-05 3.1598e-05 0.104377)
(5.08206e-06 1.63611e-05 0.107439)
(8.65944e-06 3.82232e-06 0.107434)
(-1.90039e-06 3.876e-06 0.107432)
(3.43236e-05 3.3074e-05 0.104378)
(3.65052e-05 3.51448e-05 0.10426)
(-5.83528e-05 -6.27653e-05 0.104437)
(-9.93611e-07 -9.5997e-07 0.10743)
(9.42559e-06 -2.76965e-06 0.107437)
(-2.41334e-05 -2.30462e-05 0.107446)
(1.4384e-05 -2.05001e-05 0.107446)
(-2.84531e-05 3.17341e-05 0.104275)
(4.9203e-05 -5.55687e-05 0.104435)
(-9.78016e-09 -4.02645e-06 0.107433)
(5.70411e-07 -1.37271e-06 0.107436)
(-1.80162e-05 -2.8708e-05 0.107448)
(-1.48819e-05 1.43444e-05 0.107438)
(4.63983e-06 1.1802e-06 0.107438)
(1.58429e-05 -2.06688e-05 0.10745)
(1.60272e-05 1.49424e-05 0.107444)
(3.91846e-05 -3.67081e-05 0.104271)
(-5.60349e-05 5.17654e-05 0.104416)
(4.59132e-06 2.75371e-06 0.107439)
(-1.89565e-05 1.19651e-05 0.107442)
(1.75178e-05 1.36429e-05 0.107446)
(5.32034e-05 5.15067e-05 0.104424)
(1.27332e-05 9.96569e-06 0.10434)
(-2.50614e-05 -1.69468e-05 0.10442)
(-1.97988e-05 -2.47746e-05 0.107455)
(5.15265e-06 -2.13812e-05 0.10745)
(1.02139e-05 -2.01124e-06 0.107445)
(-8.89473e-06 -3.17073e-06 0.107434)
(-2.39485e-05 1.73183e-05 0.104332)
(2.85221e-05 -2.53152e-05 0.104402)
(-2.19016e-05 -2.10572e-05 0.107456)
(-2.04194e-05 1.44677e-05 0.107445)
(-8.64074e-06 1.8551e-05 0.107445)
(-1.28335e-05 1.94134e-06 0.107443)
(1.71999e-05 1.33344e-05 0.107448)
(4.19609e-06 1.14633e-05 0.107435)
(6.17004e-06 -6.36701e-07 0.107439)
(1.30083e-05 -1.73756e-05 0.104319)
(-3.3442e-05 3.51018e-05 0.104432)
(1.25445e-05 1.7191e-05 0.107451)
(-4.32943e-07 1.33928e-05 0.107445)
(-7.47265e-06 1.12735e-05 0.10744)
(2.83027e-05 3.40442e-05 0.104418)
(4.34388e-05 5.05772e-05 0.104306)
(-5.71251e-05 -6.48555e-05 0.104412)
(1.14459e-05 4.15146e-06 0.107445)
(-1.12831e-06 6.63305e-07 0.107438)
(-1.76465e-05 -1.40709e-05 0.107431)
(2.30424e-05 -1.36355e-05 0.107436)
(-3.61365e-05 4.09478e-05 0.104293)
(5.89691e-05 -5.80485e-05 0.104429)
(-2.3962e-06 1.79712e-05 0.107445)
(-7.12117e-06 -7.71824e-07 0.107448)
(-9.16701e-06 -2.59734e-05 0.107434)
(-4.5966e-06 1.19593e-06 0.107431)
(3.73856e-06 -1.65655e-06 0.107443)
(1.60073e-05 -2.19656e-05 0.107439)
(1.34951e-05 7.98434e-06 0.107433)
(3.7007e-05 -3.45731e-05 0.104324)
(-4.13439e-05 4.01878e-05 0.104401)
(-5.59263e-06 7.22645e-06 0.107444)
(-1.77323e-06 4.26836e-06 0.107431)
(1.74994e-05 6.9634e-06 0.107433)
(5.50981e-05 4.61503e-05 0.104414)
(8.17648e-06 -4.44868e-07 0.104316)
(-2.49572e-05 -2.19979e-05 0.104416)
(-2.34604e-05 -2.32174e-05 0.107437)
(2.01915e-05 -1.96574e-05 0.107443)
(7.6089e-06 -1.45668e-05 0.107418)
(-1.04856e-05 -1.3494e-05 0.107418)
(-1.06763e-05 9.49607e-06 0.104332)
(2.42245e-05 -2.70156e-05 0.104414)
(-1.57555e-05 -3.33847e-05 0.107441)
(-8.82635e-06 3.66368e-06 0.107431)
(-1.45115e-05 1.00096e-05 0.107419)
(-1.41582e-05 7.68198e-06 0.107409)
(1.76503e-05 9.76528e-06 0.107437)
(9.71455e-06 7.67072e-06 0.107423)
(9.21165e-06 -3.47585e-06 0.107415)
(2.39695e-05 -2.63982e-05 0.104297)
(-4.2969e-05 4.28168e-05 0.104408)
(1.9776e-05 1.002e-05 0.107437)
(-8.69054e-06 1.22977e-05 0.107413)
(-7.2818e-06 1.02117e-05 0.107416)
(2.6997e-05 3.15517e-05 0.104406)
(5.44405e-05 6.00836e-05 0.104296)
(-2.49626e-05 -1.8253e-05 0.10437)
(2.58597e-05 1.8138e-06 0.107415)
(-1.7936e-05 -2.97772e-06 0.107418)
(9.13764e-06 3.33761e-05 0.107418)
(-5.94314e-06 2.83288e-05 0.107428)
(-4.95242e-05 4.88591e-05 0.104297)
(2.57331e-05 -1.78026e-05 0.104391)
(-3.00999e-06 3.48621e-05 0.107416)
(-1.08699e-05 8.78665e-06 0.10742)
(2.58958e-05 1.82835e-05 0.107417)
(1.84878e-05 -4.53459e-07 0.10745)
(-2.34446e-07 -8.20755e-06 0.107418)
(-2.0766e-05 1.56441e-05 0.107427)
(-1.9666e-05 6.60969e-06 0.107438)
(3.03486e-05 -2.81752e-05 0.104306)
(-1.52362e-05 2.81439e-05 0.104448)
(-1.87648e-05 6.04478e-06 0.10742)
(1.41503e-05 -5.19937e-06 0.107457)
(-6.81257e-06 -6.63535e-06 0.107443)
(2.67623e-05 3.87093e-05 0.104425)
(2.14989e-05 2.45792e-05 0.104301)
(-9.13458e-05 -0.000107025 0.104684)
(-2.70268e-05 1.72478e-05 0.10746)
(1.59784e-05 1.98213e-05 0.107466)
(-6.89067e-05 -6.13922e-05 0.107547)
(5.04331e-05 -5.17099e-05 0.107525)
(-2.92214e-05 3.51479e-05 0.104316)
(7.86255e-05 -9.49402e-05 0.104636)
(1.51928e-05 -2.64167e-05 0.107459)
(1.87502e-05 4.93181e-07 0.107484)
(-4.86238e-05 -8.73598e-05 0.107548)
(-3.45615e-05 1.93317e-05 0.107512)
(-1.24734e-05 2.015e-05 0.107476)
(3.98873e-05 -6.87917e-05 0.107527)
(4.28088e-05 3.34179e-05 0.107532)
(5.02292e-05 -4.02358e-05 0.104361)
(-7.85119e-05 5.43132e-05 0.104582)
(1.55705e-05 -4.15736e-06 0.107482)
(-4.3706e-05 1.58233e-05 0.107515)
(5.71371e-05 2.51761e-05 0.107536)
(8.44925e-05 6.2108e-05 0.104632)
(-2.85345e-05 -4.27839e-05 0.104615)
(-4.91513e-06 1.23855e-05 0.104453)
(-4.92677e-05 -6.90801e-05 0.107579)
(3.86475e-05 -6.39614e-05 0.10755)
(2.90783e-05 -5.01838e-05 0.107457)
(-2.36173e-05 -5.02995e-05 0.107431)
(1.9503e-05 -3.58365e-05 0.104562)
(5.62573e-06 5.21279e-06 0.104428)
(-5.59141e-05 -6.58762e-05 0.107581)
(-5.04489e-05 2.09337e-05 0.10753)
(-6.20457e-05 4.59864e-05 0.107459)
(-6.83415e-05 1.29283e-05 0.107426)
(5.19836e-05 2.24667e-05 0.107552)
(5.4533e-05 3.43514e-05 0.107435)
(5.90559e-05 -2.11043e-06 0.107438)
(-2.68009e-05 1.80637e-06 0.104504)
(-2.8803e-05 3.67922e-05 0.104443)
(4.66924e-05 3.08856e-05 0.107554)
(-5.90357e-06 6.84849e-05 0.107419)
(-1.404e-05 6.32197e-05 0.10743)
(1.58531e-05 2.69681e-05 0.104439)
(4.42333e-05 6.37078e-05 0.104331)
(8.26704e-06 -5.41907e-06 0.103893)
(6.11337e-05 -6.96327e-06 0.107385)
(-4.41154e-05 -9.12003e-06 0.107381)
(8.98226e-06 6.21977e-06 0.107222)
(4.73069e-05 -1.32995e-05 0.107306)
(-4.18581e-05 5.76359e-05 0.104327)
(4.44175e-05 -4.18308e-05 0.104042)
(-2.55995e-05 8.45235e-05 0.107387)
(-3.6765e-05 -9.62681e-06 0.107394)
(1.39471e-05 -6.53285e-06 0.107225)
(4.0205e-06 7.87402e-07 0.107291)
(2.87979e-05 -2.37852e-05 0.107391)
(2.03632e-05 -4.46668e-05 0.107311)
(-6.07902e-06 -3.00336e-05 0.107244)
(2.7953e-05 -1.28664e-05 0.104362)
(1.17598e-05 -3.99524e-06 0.103996)
(-4.60549e-05 4.34561e-05 0.10738)
(8.71404e-06 8.40645e-06 0.107295)
(-2.23569e-05 -5.62298e-06 0.107243)
(-2.3705e-05 -2.97384e-05 0.103914)
(-9.08024e-06 -2.81576e-05 0.104336)
(-3.60346e-05 -2.76319e-05 0.107508)
(8.02438e-05 -4.91279e-05 0.107588)
(5.68681e-05 -5.9858e-05 0.104471)
(-1.15423e-05 -5.88639e-05 0.10751)
(-1.46765e-05 2.64408e-05 0.107565)
(2.00866e-05 -2.90315e-05 0.112034)
(1.56342e-05 -1.72281e-05 0.11202)
(-1.95381e-05 -3.75513e-05 0.111994)
(8.48191e-06 -3.59451e-06 0.107518)
(4.10548e-06 -1.68645e-06 0.104409)
(1.10746e-05 1.62953e-06 0.10752)
(-6.83531e-08 -1.36382e-05 0.0914226)
(-2.1775e-06 -9.10224e-06 0.0822795)
(3.75885e-06 -3.49028e-06 0.0715946)
(-1.35806e-05 -1.5604e-07 0.0914219)
(-9.07944e-06 -2.2018e-06 0.0822803)
(-1.05338e-05 -1.05072e-05 0.112453)
(1.08136e-05 -1.06447e-05 0.112453)
(-1.06351e-05 1.09052e-05 0.112452)
(1.08066e-05 1.08905e-05 0.112452)
(2.26879e-05 -4.97263e-07 0.098576)
(1.23242e-05 -5.89434e-06 0.107492)
(1.81949e-05 -6.48211e-06 0.0930649)
(1.51946e-05 -2.97502e-06 0.109909)
(-3.58152e-06 3.61555e-06 0.0715976)
(-3.42989e-07 2.26454e-05 0.0985762)
(-5.60326e-06 1.22666e-05 0.107491)
(-2.76457e-06 1.52012e-05 0.109908)
(-6.30219e-06 1.7993e-05 0.0930644)
(4.35156e-05 4.35644e-05 0.104315)
(8.73139e-06 6.77237e-06 0.0876015)
(6.79635e-06 8.75999e-06 0.0875998)
(-5.39952e-07 -1.22204e-05 0.0914538)
(2.95856e-08 3.05477e-06 0.0822759)
(-4.07577e-07 -1.55013e-06 0.0914125)
(-1.31537e-06 -8.22641e-06 0.0823274)
(-1.0408e-06 1.39695e-06 0.0715993)
(2.07571e-06 -3.63666e-06 0.0716489)
(-1.21702e-05 -3.59471e-07 0.0914533)
(3.05536e-06 1.46096e-07 0.0822747)
(-1.23425e-06 -2.21854e-07 0.0914127)
(-8.23404e-06 -1.16005e-06 0.0823271)
(1.04738e-05 -1.01974e-05 0.112445)
(-1.03963e-05 1.06884e-05 0.112444)
(1.0514e-05 1.06438e-05 0.112444)
(-1.16937e-05 -1.1389e-05 0.112419)
(1.11897e-05 -1.11676e-05 0.112419)
(-1.15075e-05 1.13479e-05 0.112418)
(1.12383e-05 1.14001e-05 0.112418)
(2.1699e-05 -2.5321e-07 0.0985944)
(-1.44431e-06 -3.2922e-07 0.0930367)
(1.40729e-05 -2.06432e-06 0.109895)
(1.08349e-05 -5.17198e-06 0.107481)
(4.82223e-07 -6.77983e-08 0.0985402)
(1.55717e-05 -5.28263e-06 0.0930914)
(1.35669e-05 -2.17851e-06 0.109891)
(1.56896e-06 -1.05255e-06 0.0715951)
(-3.4002e-06 2.13443e-06 0.0716469)
(-6.25946e-07 2.16585e-05 0.0985946)
(-2.35774e-06 1.41477e-05 0.109894)
(-2.61915e-07 -1.87526e-06 0.0930373)
(-5.74927e-06 1.1062e-05 0.107481)
(-3.02472e-07 3.70091e-07 0.0985403)
(-2.60652e-06 1.37029e-05 0.10989)
(-5.50856e-06 1.5508e-05 0.0930913)
(3.3765e-07 -1.2582e-06 0.0875918)
(-1.34178e-06 4.19181e-07 0.0875906)
(4.3634e-05 4.37846e-05 0.104312)
(5.76805e-06 5.07831e-06 0.0876359)
(4.9776e-06 5.85794e-06 0.0876342)
(3.98241e-08 -1.09769e-05 0.0914852)
(1.1003e-06 5.55964e-06 0.0823083)
(-4.87437e-07 2.43437e-06 0.0914431)
(-8.66558e-07 -7.61647e-06 0.0823519)
(-1.53503e-06 3.58425e-06 0.0716209)
(2.80742e-06 -2.19321e-06 0.0716588)
(-1.13984e-05 -2.46511e-07 0.091485)
(5.47919e-06 9.75586e-07 0.0823071)
(2.0385e-06 -5.12409e-07 0.091444)
(-7.65485e-06 -1.102e-06 0.0823528)
(1.1843e-05 -1.19748e-05 0.11241)
(-1.21069e-05 1.18227e-05 0.112409)
(1.18719e-05 1.19427e-05 0.112409)
(-1.14515e-05 -1.19252e-05 0.112381)
(1.22264e-05 -1.22435e-05 0.112381)
(-1.16198e-05 1.18255e-05 0.11238)
(1.21198e-05 1.18006e-05 0.11238)
(2.07062e-05 -9.78425e-07 0.0986154)
(-5.84494e-06 1.69203e-06 0.0930649)
(1.42837e-05 -3.47795e-06 0.109876)
(1.29093e-05 -7.8232e-06 0.107474)
(-2.69572e-06 -8.94803e-07 0.0985588)
(1.56319e-05 -4.69931e-06 0.0931225)
(1.51377e-05 -3.65475e-06 0.109871)
(3.28165e-06 -1.2788e-06 0.0716175)
(-2.51146e-06 2.86737e-06 0.071663)
(-5.41389e-07 2.09283e-05 0.0986156)
(-3.4231e-06 1.43608e-05 0.109876)
(1.42211e-06 -5.12622e-06 0.0930661)
(-7.22724e-06 1.26922e-05 0.107473)
(-8.14024e-07 -2.40293e-06 0.0985588)
(-3.29426e-06 1.5097e-05 0.10987)
(-4.74998e-06 1.61893e-05 0.0931224)
(-1.15637e-06 -2.08173e-06 0.0876238)
(-1.97998e-06 -1.19206e-06 0.0876225)
(4.49298e-05 4.47461e-05 0.104318)
(8.10305e-06 5.30656e-06 0.0876688)
(5.52941e-06 7.98674e-06 0.087667)
(-5.20451e-07 -1.2208e-05 0.0915185)
(-1.49374e-07 3.41329e-06 0.0823409)
(1.00746e-07 -1.17068e-06 0.0914776)
(-1.39897e-06 -8.38948e-06 0.0823926)
(-7.64496e-07 1.37753e-06 0.0716524)
(1.948e-06 -4.21372e-06 0.0717055)
(-1.17397e-05 -2.69524e-07 0.0915175)
(3.36918e-06 -1.65901e-07 0.082341)
(-7.62577e-07 -9.14191e-08 0.0914776)
(-8.22651e-06 -1.20224e-06 0.0823931)
(1.15568e-05 -1.14403e-05 0.112372)
(-1.09621e-05 1.13394e-05 0.112371)
(1.14526e-05 1.11725e-05 0.112371)
(-1.19973e-05 -1.16199e-05 0.11235)
(1.12137e-05 -1.13261e-05 0.11235)
(-1.19316e-05 1.1662e-05 0.112349)
(1.12856e-05 1.15897e-05 0.112349)
(2.13617e-05 -4.17895e-08 0.0986416)
(-1.28374e-06 5.33797e-08 0.093098)
(1.54174e-05 -2.49952e-06 0.109857)
(1.05164e-05 -4.44913e-06 0.107468)
(1.74886e-07 -1.5135e-07 0.0985851)
(1.53902e-05 -5.27479e-06 0.0931515)
(1.4332e-05 -2.25339e-06 0.109854)
(1.43296e-06 -1.07045e-06 0.0716536)
(-3.71817e-06 1.76357e-06 0.0717055)
(-3.82711e-07 2.09629e-05 0.0986413)
(-2.22166e-06 1.51642e-05 0.109857)
(4.82325e-07 -2.00019e-06 0.0930981)
(-4.86289e-06 1.06173e-05 0.107467)
(1.40116e-08 -7.90423e-08 0.0985848)
(-2.37936e-06 1.42183e-05 0.109854)
(-5.03857e-06 1.46251e-05 0.0931508)
(5.68379e-07 -1.59578e-06 0.0876575)
(-1.56535e-06 5.43668e-07 0.0876563)
(4.19054e-05 4.19369e-05 0.10432)
(4.8147e-06 4.48316e-06 0.0876989)
(4.27891e-06 4.8983e-06 0.0876972)
(-2.46015e-07 -9.6441e-06 0.0915455)
(1.07731e-06 6.44375e-06 0.082371)
(-9.11993e-07 3.80272e-06 0.0915052)
(-1.134e-06 -6.59411e-06 0.0824093)
(-1.64294e-06 3.85948e-06 0.0716735)
(3.51101e-06 -1.02663e-06 0.0717029)
(-1.02286e-05 -3.72451e-07 0.0915455)
(6.4494e-06 1.24507e-06 0.0823691)
(3.8485e-06 -5.9166e-07 0.0915057)
(-6.65865e-06 -1.31808e-06 0.082409)
(1.21957e-05 -1.2429e-05 0.112342)
(-1.30693e-05 1.25406e-05 0.112341)
(1.22373e-05 1.26092e-05 0.112341)
(-1.33053e-05 -1.351e-05 0.112311)
(1.39464e-05 -1.37499e-05 0.112311)
(-1.31905e-05 1.33753e-05 0.11231)
(1.37985e-05 1.35281e-05 0.11231)
(1.94163e-05 -1.31541e-06 0.0986609)
(-8.6707e-06 2.48862e-06 0.0931222)
(1.37851e-05 -3.74024e-06 0.109845)
(1.3549e-05 -9.71366e-06 0.107466)
(-4.41426e-06 -8.7922e-07 0.0986058)
(1.38651e-05 -4.37988e-06 0.0931793)
(1.52399e-05 -4.22149e-06 0.10984)
(4.05499e-06 -1.37289e-06 0.0716658)
(-1.42167e-06 3.7153e-06 0.0717033)
(-1.09278e-06 1.98529e-05 0.0986612)
(-4.19349e-06 1.4122e-05 0.109844)
(2.07124e-06 -8.22251e-06 0.0931233)
(-9.57322e-06 1.35449e-05 0.107465)
(-1.24228e-06 -4.22429e-06 0.0986059)
(-4.30555e-06 1.54705e-05 0.109838)
(-4.81253e-06 1.49121e-05 0.0931794)
(-3.99797e-06 -2.84503e-06 0.0876823)
(-2.93803e-06 -3.88066e-06 0.087681)
(4.65273e-05 4.6647e-05 0.104335)
(7.38323e-06 6.1016e-06 0.0877267)
(6.31854e-06 7.31322e-06 0.0877249)
(-1.99707e-07 -1.63348e-05 0.0915814)
(-1.30018e-06 2.6009e-06 0.0823972)
(3.79622e-07 -3.4471e-06 0.0915387)
(-2.51352e-06 -1.13371e-05 0.0824581)
(1.40246e-06 2.01336e-06 0.0717008)
(3.34547e-06 -5.79592e-06 0.0717756)
(-1.59001e-05 -3.12675e-07 0.0915802)
(2.38428e-06 -1.65521e-06 0.0823972)
(-3.71961e-06 -1.10388e-07 0.0915394)
(-1.13085e-05 -2.46317e-06 0.0824595)
(1.27004e-05 -1.23379e-05 0.112301)
(-1.15049e-05 1.20901e-05 0.1123)
(1.26617e-05 1.21985e-05 0.1123)
(-8.44642e-06 -8.42544e-06 0.112279)
(8.42371e-06 -8.19863e-06 0.112279)
(-8.47811e-06 8.99295e-06 0.112279)
(8.73964e-06 8.9536e-06 0.112279)
(2.55766e-05 7.1406e-07 0.0986878)
(3.47552e-06 -2.46101e-06 0.0931578)
(1.75401e-05 -2.43808e-06 0.109823)
(1.10844e-05 -1.92877e-06 0.107456)
(2.93425e-06 -1.18496e-07 0.0986313)
(2.15025e-05 -8.49727e-06 0.0932109)
(1.58851e-05 -1.33687e-06 0.109819)
(1.18485e-06 1.27983e-06 0.0717049)
(-5.34539e-06 2.59149e-06 0.0717805)
(6.28326e-07 2.49906e-05 0.0986874)
(-1.73217e-06 1.71011e-05 0.109822)
(-2.15034e-06 3.18793e-06 0.0931579)
(-1.62439e-06 1.08083e-05 0.107455)
(4.31867e-07 2.83999e-06 0.0986313)
(-9.83735e-07 1.54793e-05 0.109819)
(-7.67303e-06 2.04428e-05 0.0932097)
(5.50228e-06 1.89041e-06 0.0877202)
(2.15093e-06 5.27974e-06 0.087719)
(3.98161e-05 3.94545e-05 0.10433)
(8.99698e-06 6.97628e-06 0.0877658)
(6.86228e-06 9.05758e-06 0.087764)
(-4.76396e-07 -4.54589e-06 0.0916084)
(1.6585e-06 5.36542e-06 0.0824557)
(-2.2053e-07 2.47926e-06 0.09157)
(1.41857e-06 -4.35511e-06 0.082492)
(-4.0436e-06 1.14725e-06 0.0717676)
(-1.19321e-06 -1.52364e-06 0.0717828)
(-4.36824e-06 1.23734e-07 0.0916077)
(5.40336e-06 2.11229e-06 0.0824542)
(3.14633e-06 3.44319e-07 0.09157)
(-4.30473e-06 1.87994e-06 0.0824909)
(9.04587e-06 -8.94087e-06 0.112275)
(-9.76829e-06 9.94522e-06 0.112274)
(9.09363e-06 9.67055e-06 0.112274)
(-1.51897e-05 -1.45896e-05 0.112252)
(1.46327e-05 -1.5036e-05 0.112252)
(-1.55735e-05 1.4709e-05 0.112251)
(1.40432e-05 1.43942e-05 0.112251)
(1.40325e-05 -1.24279e-06 0.0987041)
(-8.99134e-06 3.41646e-06 0.0931788)
(1.077e-05 -2.03245e-06 0.109814)
(9.60205e-06 -8.87675e-06 0.107453)
(-4.26728e-06 5.98522e-08 0.0986504)
(4.79996e-06 6.15299e-07 0.0932326)
(1.10395e-05 -3.53418e-06 0.109812)
(1.75189e-06 -3.87792e-06 0.0717589)
(-5.84577e-07 -5.64612e-07 0.071775)
(-1.85613e-06 1.43522e-05 0.098705)
(-3.03427e-06 1.12472e-05 0.109814)
(3.44001e-06 -9.88796e-06 0.0931797)
(-1.00762e-05 1.02526e-05 0.107454)
(-6.62074e-07 -4.51887e-06 0.0986506)
(-4.51569e-06 1.16889e-05 0.109811)
(-2.10142e-07 5.41871e-06 0.0932332)
(-6.78251e-06 -5.21853e-06 0.0877506)
(-5.72063e-06 -6.59312e-06 0.0877492)
(4.49127e-05 4.57353e-05 0.104339)
(-9.49991e-07 -1.96823e-07 0.0877886)
(-4.46618e-07 -7.17689e-07 0.0877868)
(-5.95802e-07 -1.24919e-05 0.0916378)
(9.22636e-07 8.37769e-06 0.0824412)
(-4.85693e-07 5.90939e-06 0.0915957)
(-2.98413e-06 -7.74566e-06 0.0824795)
(7.6296e-12 5.51231e-06 0.0717081)
(6.01495e-06 -1.6397e-06 0.0717539)
(-1.36179e-05 -1.59157e-06 0.0916382)
(8.16482e-06 4.00401e-07 0.0824401)
(4.8805e-06 -9.60296e-07 0.0915971)
(-7.79372e-06 -3.86927e-06 0.0824812)
(1.5501e-05 -1.61322e-05 0.112243)
(-1.59983e-05 1.50248e-05 0.112241)
(1.52835e-05 1.51275e-05 0.112241)
(-1.27836e-05 -1.42173e-05 0.11221)
(1.26711e-05 -1.31512e-05 0.11221)
(-1.12719e-05 1.12247e-05 0.112209)
(1.36222e-05 1.24774e-05 0.112209)
(2.27716e-05 -7.12757e-07 0.0987361)
(-7.54606e-06 3.23103e-06 0.0932123)
(1.75257e-05 -5.54976e-06 0.109798)
(1.51595e-05 -8.90484e-06 0.107457)
(-5.16178e-06 -1.74717e-06 0.0986761)
(1.91742e-05 -7.4663e-06 0.0932697)
(1.87494e-05 -4.75319e-06 0.109792)
(4.7926e-06 4.18766e-07 0.0717081)
(-2.60871e-06 5.7324e-06 0.0717654)
(4.29524e-07 2.32187e-05 0.098736)
(-4.89875e-06 1.74896e-05 0.109797)
(2.28603e-06 -5.74474e-06 0.0932136)
(-7.12274e-06 1.43954e-05 0.107456)
(-1.21415e-06 -4.29785e-06 0.098677)
(-3.44977e-06 1.82744e-05 0.109791)
(-7.45759e-06 2.06676e-05 0.0932694)
(-1.43608e-06 -2.11434e-06 0.0877682)
(-1.55409e-06 -1.58503e-06 0.0877669)