/*--------------------------------*- C++ -*----------------------------------*\
| =========                 |                                                 |
| \\      /  F ield         | OpenFOAM: The Open Source CFD Toolbox           |
|  \\    /   O peration     | Version:  v1906                                 |
|   \\  /    A nd           | Web:      www.OpenFOAM.com                      |
|    \\/     M anipulation  |                                                 |
\*---------------------------------------------------------------------------*/
FoamFile
{
    version     2.0;
    format      ascii;
    class       volScalarField;
    location    "300";
    object      k;
}
// * * * * * * * * * * * * * * * * * * * * * * * * * * * * * * * * * * * * * //

dimensions      [0 2 -2 0 0 0 0];


internalField   nonuniform List<scalar> 
42840
(
3.75012e-05
5.08871e-05
5.08826e-05
5.30973e-05
5.32059e-05
5.3133e-05
5.3209e-05
5.08788e-05
5.08716e-05
5.09863e-05
5.09762e-05
5.31365e-05
5.32035e-05
5.08785e-05
5.08642e-05
5.09853e-05
5.09702e-05
5.08536e-05
5.09885e-05
5.0959e-05
5.31249e-05
5.32002e-05
5.08549e-05
5.09865e-05
5.09616e-05
5.31703e-05
5.09864e-05
5.09891e-05
6.85821e-05
7.30879e-05
7.31e-05
6.85616e-05
7.07984e-05
7.08124e-05
6.85555e-05
7.30902e-05
7.31017e-05
6.85402e-05
3.74863e-05
3.7487e-05
3.74742e-05
3.76754e-05
3.76626e-05
3.7665e-05
3.76515e-05
6.05123e-05
6.47407e-05
4.58721e-05
5.09215e-05
6.47623e-05
4.59169e-05
6.04835e-05
7.07883e-05
7.08038e-05
6.05051e-05
4.58639e-05
6.47458e-05
5.09178e-05
4.59092e-05
6.47674e-05
6.04773e-05
6.98328e-05
6.986e-05
5.31163e-05
6.98442e-05
6.98742e-05
6.98652e-05
6.98999e-05
7.07953e-05
7.08099e-05
7.07982e-05
7.0812e-05
6.9864e-05
6.98809e-05
5.31534e-05
6.98745e-05
6.9889e-05
7.08227e-05
7.08084e-05
7.08241e-05
7.08102e-05
5.31914e-05
6.98934e-05
6.98997e-05
6.98801e-05
6.98902e-05
6.8586e-05
7.30942e-05
7.31067e-05
6.85651e-05
6.0539e-05
6.47476e-05
4.58554e-05
5.09159e-05
6.47651e-05
4.59033e-05
6.05101e-05
6.0544e-05
6.47547e-05
4.58541e-05
5.09081e-05
6.47787e-05
4.59024e-05
6.05108e-05
6.85866e-05
7.3115e-05
7.31028e-05
6.86077e-05
6.85914e-05
7.31207e-05
7.31093e-05
6.86101e-05
6.05487e-05
5.09524e-05
6.47855e-05
4.59932e-05
6.47681e-05
4.59486e-05
6.05793e-05
6.05543e-05
5.09426e-05
6.48077e-05
4.59916e-05
6.47828e-05
4.59469e-05
6.05879e-05
6.98835e-05
6.98641e-05
5.31533e-05
6.98957e-05
6.98739e-05
7.07971e-05
7.08123e-05
7.08234e-05
7.08105e-05
5.31893e-05
6.99098e-05
6.98924e-05
6.98994e-05
6.98798e-05
7.08252e-05
7.08106e-05
6.0507e-05
6.47576e-05
4.58546e-05
5.09151e-05
6.47683e-05
4.59021e-05
6.04791e-05
6.85514e-05
7.30747e-05
7.30866e-05
6.85354e-05
6.05051e-05
4.58502e-05
6.47154e-05
5.09009e-05
4.58978e-05
6.47323e-05
6.04759e-05
6.85609e-05
7.31161e-05
7.31021e-05
6.85742e-05
6.05182e-05
5.09516e-05
6.47837e-05
4.59908e-05
6.47746e-05
4.59467e-05
6.05393e-05
6.85576e-05
7.31011e-05
7.30896e-05
6.85678e-05
6.05099e-05
5.0936e-05
4.5986e-05
6.47504e-05
4.59418e-05
6.47336e-05
6.05319e-05
6.85629e-05
7.30917e-05
7.31059e-05
6.85461e-05
6.05079e-05
4.58549e-05
6.47141e-05
5.08899e-05
4.59017e-05
6.47335e-05
6.04778e-05
6.85587e-05
7.30762e-05
7.30886e-05
6.85408e-05
6.05204e-05
5.09577e-05
6.47852e-05
4.60037e-05
6.47646e-05
4.59632e-05
6.05473e-05
6.85682e-05
7.31216e-05
7.31091e-05
6.85834e-05
6.05211e-05
5.09249e-05
4.59899e-05
6.47555e-05
4.59462e-05
6.4736e-05
6.05467e-05
6.8565e-05
7.31045e-05
7.3092e-05
6.85811e-05
6.98481e-05
6.98664e-05
5.31451e-05
6.98583e-05
6.9877e-05
7.07968e-05
7.0811e-05
7.08173e-05
7.08021e-05
5.31821e-05
6.98782e-05
6.98936e-05
6.98641e-05
6.98819e-05
7.08228e-05
7.08093e-05
6.05048e-05
4.58512e-05
6.47323e-05
5.08918e-05
4.58984e-05
6.47543e-05
6.04817e-05
6.85539e-05
7.3087e-05
7.31003e-05
6.8542e-05
6.85577e-05
7.30876e-05
7.3101e-05
6.85428e-05
6.05186e-05
5.09548e-05
4.5997e-05
6.47958e-05
4.59561e-05
6.47714e-05
6.05372e-05
6.05179e-05
5.09272e-05
4.59872e-05
6.47785e-05
4.59434e-05
6.47571e-05
6.05386e-05
6.85585e-05
7.31147e-05
7.31007e-05
6.85733e-05
6.85633e-05
7.31147e-05
7.31035e-05
6.85779e-05
7.07841e-05
7.07994e-05
7.07962e-05
7.08114e-05
5.31541e-05
6.98614e-05
6.9893e-05
6.98469e-05
6.98787e-05
7.08131e-05
7.07981e-05
7.08241e-05
7.08099e-05
4.60246e-05
6.47613e-05
6.0552e-05
7.31071e-05
6.85864e-05
6.47861e-05
7.31173e-05
7.08117e-05
7.08223e-05
7.14623e-05
7.12224e-05
7.16133e-05
6.85755e-05
7.12161e-05
7.16066e-05
7.14686e-05
7.13147e-05
7.3092e-05
7.96886e-05
7.96887e-05
7.13029e-05
7.13092e-05
7.9697e-05
7.30937e-05
7.96939e-05
7.13208e-05
7.14614e-05
6.85681e-05
7.1208e-05
7.15966e-05
7.12141e-05
7.16039e-05
7.14546e-05
7.08062e-05
7.08046e-05
7.14569e-05
7.15981e-05
7.1214e-05
6.85491e-05
7.15938e-05
7.12089e-05
7.14627e-05
7.13112e-05
7.30937e-05
7.96924e-05
7.96943e-05
7.12998e-05
7.13063e-05
7.97023e-05
7.30975e-05
7.96985e-05
7.13175e-05
7.14559e-05
6.85462e-05
7.15835e-05
7.1201e-05
7.15901e-05
7.12064e-05
7.14497e-05
7.07968e-05
7.07952e-05
9.48782e-05
7.3144e-05
7.31394e-05
7.31332e-05
7.31288e-05
9.48788e-05
7.41236e-05
6.5162e-05
6.98335e-05
7.2929e-05
6.51659e-05
7.29347e-05
7.41175e-05
7.41764e-05
6.51849e-05
6.98609e-05
7.29471e-05
6.51935e-05
7.29532e-05
7.41746e-05
7.41306e-05
7.29432e-05
6.98396e-05
6.51839e-05
6.51793e-05
7.29365e-05
7.4136e-05
7.4185e-05
7.2961e-05
6.9869e-05
6.52105e-05
6.52022e-05
7.29549e-05
7.41856e-05
9.48713e-05
7.31269e-05
7.31226e-05
7.31378e-05
7.31334e-05
9.48701e-05
7.41646e-05
6.52156e-05
7.29592e-05
6.98653e-05
7.4158e-05
6.52177e-05
7.29635e-05
7.42251e-05
6.52632e-05
7.29768e-05
6.99014e-05
7.42181e-05
6.52667e-05
7.29812e-05
9.49016e-05
7.3151e-05
7.31459e-05
9.49007e-05
7.31615e-05
7.31562e-05
7.08033e-05
7.0802e-05
7.0806e-05
7.08042e-05
9.49183e-05
7.31562e-05
7.31495e-05
7.31458e-05
7.31391e-05
9.49194e-05
7.41728e-05
6.52112e-05
6.98651e-05
7.29499e-05
7.29555e-05
6.5218e-05
7.41691e-05
7.42181e-05
6.52281e-05
6.98839e-05
7.29595e-05
7.29643e-05
6.52311e-05
7.42135e-05
7.41811e-05
7.29632e-05
6.9872e-05
6.52363e-05
7.29572e-05
7.41846e-05
6.52287e-05
7.42259e-05
7.29708e-05
6.98856e-05
6.52428e-05
7.29662e-05
7.42298e-05
6.52388e-05
9.4911e-05
7.31401e-05
7.31334e-05
7.31506e-05
7.3144e-05
9.49096e-05
7.08149e-05
7.08164e-05
7.08163e-05
7.0818e-05
9.49283e-05
7.31513e-05
7.31446e-05
9.4927e-05
7.31616e-05
7.31549e-05
7.42032e-05
6.52656e-05
6.98919e-05
7.29759e-05
7.29716e-05
6.52592e-05
7.42061e-05
7.42477e-05
6.5271e-05
6.98983e-05
7.2984e-05
7.29793e-05
6.52637e-05
7.42476e-05
7.41972e-05
7.29648e-05
6.52418e-05
6.98842e-05
7.41924e-05
7.29694e-05
6.52502e-05
7.42428e-05
7.29726e-05
6.52491e-05
6.98938e-05
7.42365e-05
7.29774e-05
6.52576e-05
9.49355e-05
7.31667e-05
7.31601e-05
7.31566e-05
7.31499e-05
9.49368e-05
7.14655e-05
7.12233e-05
7.16277e-05
6.85771e-05
7.12172e-05
7.16187e-05
7.14717e-05
7.13173e-05
7.30986e-05
7.97085e-05
7.97115e-05
7.13059e-05
7.13123e-05
7.97205e-05
7.31004e-05
7.97163e-05
7.13234e-05
7.14645e-05
6.85739e-05
7.12096e-05
7.16111e-05
7.12151e-05
7.16166e-05
7.1458e-05
7.14756e-05
7.12237e-05
7.16179e-05
6.85946e-05
7.14694e-05
7.12301e-05
7.16226e-05
7.1321e-05
7.31092e-05
7.97101e-05
7.13323e-05
7.97093e-05
7.13267e-05
7.97005e-05
7.31077e-05
7.13151e-05
7.97041e-05
7.14763e-05
6.86e-05
7.12372e-05
7.16315e-05
7.14822e-05
7.12324e-05
7.16252e-05
7.14786e-05
7.12253e-05
7.16318e-05
6.85979e-05
7.14726e-05
7.12307e-05
7.16386e-05
7.13241e-05
7.31152e-05
7.97356e-05
7.97325e-05
7.13349e-05
7.13294e-05
7.97225e-05
7.31142e-05
7.13183e-05
7.97283e-05
7.14794e-05
6.86059e-05
7.12378e-05
7.16502e-05
7.12329e-05
7.16445e-05
7.1485e-05
9.49212e-05
7.31468e-05
7.3154e-05
7.31369e-05
7.31441e-05
9.49195e-05
7.42379e-05
6.5229e-05
6.98843e-05
7.29616e-05
7.29661e-05
6.52336e-05
7.4236e-05
7.41865e-05
6.5219e-05
6.98644e-05
7.29512e-05
6.52195e-05
7.29557e-05
7.41859e-05
7.42459e-05
7.29723e-05
6.98911e-05
6.52497e-05
7.29678e-05
6.52424e-05
7.42442e-05
7.41882e-05
7.29619e-05
6.9872e-05
6.52273e-05
6.5224e-05
7.29574e-05
7.41851e-05
9.49168e-05
7.31325e-05
7.31396e-05
7.31424e-05
7.31495e-05
9.49181e-05
7.08056e-05
7.08039e-05
7.0816e-05
7.08181e-05
9.49221e-05
7.31412e-05
7.31485e-05
9.49238e-05
7.31511e-05
7.31584e-05
7.42524e-05
6.52791e-05
6.99073e-05
7.29831e-05
6.52727e-05
7.29788e-05
7.42543e-05
7.41936e-05
6.52499e-05
6.98906e-05
7.29746e-05
7.29698e-05
6.52454e-05
7.41919e-05
7.4252e-05
7.29731e-05
6.52565e-05
6.99024e-05
6.52637e-05
7.42515e-05
7.29777e-05
7.41923e-05
7.29634e-05
6.52319e-05
6.98832e-05
7.41916e-05
7.29683e-05
6.52386e-05
9.49261e-05
7.31554e-05
7.31628e-05
7.31455e-05
7.31529e-05
9.49246e-05
7.0817e-05
7.08189e-05
7.14511e-05
7.12122e-05
7.15787e-05
6.85435e-05
7.12055e-05
7.15732e-05
7.14571e-05
7.13046e-05
7.30787e-05
7.96619e-05
7.96628e-05
7.12926e-05
7.12991e-05
7.96707e-05
7.30803e-05
7.96673e-05
7.13109e-05
7.14504e-05
6.85409e-05
7.11995e-05
7.15659e-05
7.12046e-05
7.15716e-05
7.14441e-05
7.14696e-05
7.16001e-05
7.12164e-05
6.8568e-05
7.14636e-05
7.16066e-05
7.12212e-05
7.13188e-05
7.31104e-05
7.97157e-05
7.13299e-05
7.97127e-05
7.13238e-05
7.97043e-05
7.31092e-05
7.13125e-05
7.97087e-05
7.14703e-05
6.857e-05
7.16146e-05
7.1228e-05
7.14761e-05
7.16072e-05
7.12234e-05
7.14638e-05
7.12136e-05
7.15824e-05
6.85622e-05
7.14578e-05
7.12193e-05
7.15859e-05
7.13115e-05
7.30971e-05
7.96819e-05
7.968e-05
7.13231e-05
7.13171e-05
7.96731e-05
7.30939e-05
7.13053e-05
7.96746e-05
7.14644e-05
6.85643e-05
7.12258e-05
7.15935e-05
7.12213e-05
7.15888e-05
7.14702e-05
7.14635e-05
7.16086e-05
7.12211e-05
6.85587e-05
7.16015e-05
7.12132e-05
7.14696e-05
7.13184e-05
7.30977e-05
7.97017e-05
7.97058e-05
7.13068e-05
7.13137e-05
7.97144e-05
7.31017e-05
7.97101e-05
7.13251e-05
7.14626e-05
6.85521e-05
7.15954e-05
7.12051e-05
7.16e-05
7.12132e-05
7.14562e-05
7.14569e-05
7.12187e-05
7.15966e-05
6.85522e-05
7.12123e-05
7.159e-05
7.14635e-05
7.13076e-05
7.30805e-05
7.9668e-05
7.96698e-05
7.12961e-05
7.13031e-05
7.96789e-05
7.30846e-05
7.96756e-05
7.13145e-05
7.14557e-05
6.85474e-05
7.12038e-05
7.1578e-05
7.12093e-05
7.15852e-05
7.14489e-05
7.14766e-05
7.16131e-05
7.1222e-05
6.85736e-05
7.14706e-05
7.16171e-05
7.12283e-05
7.13266e-05
7.31173e-05
7.97307e-05
7.97262e-05
7.13377e-05
7.13316e-05
7.97191e-05
7.31136e-05
7.13202e-05
7.97228e-05
7.14775e-05
6.85776e-05
7.16262e-05
7.1236e-05
7.16213e-05
7.12306e-05
7.14832e-05
7.14712e-05
7.12202e-05
7.15984e-05
6.85702e-05
7.14646e-05
7.12265e-05
7.16061e-05
7.13163e-05
7.31003e-05
7.9693e-05
7.96905e-05
7.13275e-05
7.13212e-05
7.96823e-05
7.30968e-05
7.13098e-05
7.96864e-05
7.14724e-05
6.85754e-05
7.12325e-05
7.16158e-05
7.12278e-05
7.16109e-05
7.14786e-05
9.49063e-05
7.31453e-05
7.31525e-05
7.31348e-05
7.31422e-05
9.4907e-05
7.42042e-05
6.51922e-05
6.9848e-05
7.29498e-05
7.29552e-05
6.51987e-05
7.42003e-05
7.41713e-05
6.52104e-05
6.98684e-05
7.29493e-05
6.52169e-05
7.29545e-05
7.41645e-05
7.42127e-05
7.29629e-05
6.9856e-05
6.52149e-05
7.29574e-05
6.52078e-05
7.42165e-05
7.41769e-05
7.29619e-05
6.98752e-05
6.52324e-05
6.5226e-05
7.29563e-05
7.41825e-05
9.48999e-05
7.31291e-05
7.31367e-05
7.31397e-05
7.31472e-05
9.48988e-05
7.08047e-05
7.08032e-05
7.08089e-05
7.08106e-05
9.49149e-05
7.31403e-05
7.31475e-05
9.49138e-05
7.31507e-05
7.31577e-05
7.42382e-05
6.52478e-05
6.98743e-05
7.29776e-05
6.52403e-05
7.29715e-05
7.42379e-05
7.42015e-05
6.52651e-05
6.98915e-05
7.29747e-05
7.29696e-05
6.52564e-05
7.42039e-05
7.42317e-05
7.29644e-05
6.52223e-05
6.98673e-05
6.52301e-05
7.42249e-05
7.29704e-05
7.41961e-05
7.29627e-05
6.52387e-05
6.98851e-05
7.41894e-05
7.29684e-05
6.52477e-05
9.49211e-05
7.3156e-05
7.31627e-05
7.31456e-05
7.31526e-05
9.4922e-05
7.08152e-05
7.0817e-05
7.14582e-05
7.15919e-05
7.12187e-05
6.85479e-05
7.15876e-05
7.12127e-05
7.14641e-05
7.13129e-05
7.30917e-05
7.96778e-05
7.96798e-05
7.13017e-05
7.13079e-05
7.96873e-05
7.30955e-05
7.96832e-05
7.13191e-05
7.14575e-05
6.85452e-05
7.15766e-05
7.12057e-05
7.15865e-05
7.12111e-05
7.14513e-05
7.14592e-05
7.15927e-05
7.12203e-05
6.85518e-05
7.15886e-05
7.12136e-05
7.14653e-05
7.13121e-05
7.30929e-05
7.96875e-05
7.96884e-05
7.13001e-05
7.13066e-05
7.96964e-05
7.30951e-05
7.96941e-05
7.13184e-05
7.14584e-05
6.85491e-05
7.15815e-05
7.12071e-05
7.15837e-05
7.12126e-05
7.14521e-05
7.14707e-05
7.15972e-05
7.12202e-05
6.85631e-05
7.14648e-05
7.15999e-05
7.12255e-05
7.132e-05
7.31105e-05
7.97026e-05
7.96993e-05
7.13309e-05
7.13251e-05
7.96905e-05
7.31075e-05
7.1314e-05
7.96951e-05
7.14713e-05
6.85682e-05
7.16072e-05
7.12326e-05
7.16022e-05
7.12273e-05
7.14771e-05
7.14721e-05
7.15954e-05
7.12218e-05
6.85668e-05
7.14661e-05
7.16003e-05
7.12275e-05
7.13188e-05
7.31111e-05
7.97104e-05
7.97088e-05
7.13304e-05
7.13245e-05
7.97005e-05
7.31078e-05
7.13127e-05
7.9703e-05
7.14729e-05
6.85744e-05
7.16084e-05
7.12347e-05
7.16053e-05
7.12296e-05
7.14786e-05
7.07924e-05
7.07912e-05
7.08045e-05
7.08032e-05
9.48867e-05
7.31393e-05
7.31347e-05
9.48858e-05
7.315e-05
7.31452e-05
7.41497e-05
6.5209e-05
6.98565e-05
7.29574e-05
7.41491e-05
6.52016e-05
7.29517e-05
7.42065e-05
6.52514e-05
6.98888e-05
7.29746e-05
7.42083e-05
6.52415e-05
7.29698e-05
7.4146e-05
7.29438e-05
6.51877e-05
6.98522e-05
7.41403e-05
6.51955e-05
7.29502e-05
7.41986e-05
7.29626e-05
6.52185e-05
6.98819e-05
7.41957e-05
6.52298e-05
7.29672e-05
9.48931e-05
7.31558e-05
7.31508e-05
9.48939e-05
7.31452e-05
7.31404e-05
7.0805e-05
7.08063e-05
7.08163e-05
7.08179e-05
7.13339e-05
7.96974e-05
7.31105e-05
7.13226e-05
7.96988e-05
7.14854e-05
6.85903e-05
7.1235e-05
7.162e-05
7.14799e-05
7.12396e-05
7.16284e-05
7.31197e-05
7.08197e-05
7.08299e-05
3.00271e-05
3.0027e-05
3.75603e-05
3.00984e-05
3.00983e-05
2.06393e-05
2.05707e-05
6.58581e-05
5.92844e-05
5.92779e-05
5.30886e-05
5.92857e-05
5.92772e-05
6.5856e-05
6.59162e-05
5.93653e-05
5.93687e-05
5.3197e-05
6.59138e-05
5.93561e-05
5.9369e-05
6.591e-05
5.93201e-05
5.93254e-05
5.31243e-05
5.93137e-05
5.93263e-05
6.59068e-05
6.59558e-05
5.3219e-05
5.93793e-05
5.93814e-05
5.93881e-05
5.93893e-05
6.59548e-05
6.59396e-05
5.93337e-05
5.93336e-05
5.31276e-05
5.93352e-05
5.93333e-05
6.59358e-05
6.59681e-05
5.32136e-05
5.93786e-05
5.93834e-05
5.93848e-05
5.93855e-05
6.5969e-05
6.59019e-05
5.93061e-05
5.9315e-05
5.31164e-05
5.93121e-05
5.93077e-05
6.58989e-05
6.59496e-05
5.32092e-05
5.93712e-05
5.93846e-05
5.9372e-05
5.93834e-05
6.59513e-05
6.59009e-05
5.31801e-05
5.93439e-05
5.93373e-05
6.59001e-05
5.93448e-05
5.93444e-05
3.00101e-05
3.00157e-05
3.75485e-05
3.00861e-05
3.00911e-05
2.06197e-05
2.05499e-05
3.00143e-05
3.00122e-05
3.75497e-05
3.00903e-05
3.0088e-05
2.06212e-05
2.05512e-05
3.00118e-05
3.0005e-05
3.7537e-05
3.00878e-05
3.00816e-05
2.06163e-05
2.05459e-05
3.76217e-05
3.02373e-05
3.02369e-05
3.01721e-05
3.01716e-05
2.07179e-05
2.07917e-05
3.76038e-05
3.02257e-05
3.02292e-05
3.01532e-05
3.01568e-05
2.06964e-05
2.07726e-05
3.76056e-05
3.02301e-05
3.02274e-05
3.01574e-05
3.01545e-05
2.0698e-05
2.07745e-05
3.75917e-05
3.0226e-05
3.02206e-05
3.01528e-05
3.0147e-05
2.0692e-05
2.07686e-05
5.61125e-05
6.22652e-05
5.47572e-05
6.05006e-05
6.22598e-05
5.47619e-05
5.61013e-05
5.72254e-05
6.02999e-05
6.47462e-05
6.41504e-05
6.03029e-05
6.4156e-05
5.72281e-05
5.72488e-05
6.41713e-05
6.47568e-05
6.03212e-05
6.03214e-05
6.41654e-05
5.72459e-05
5.60726e-05
6.04953e-05
6.22394e-05
5.47373e-05
6.2249e-05
5.4733e-05
5.60863e-05
5.60926e-05
5.4744e-05
6.22506e-05
6.04947e-05
5.4752e-05
6.22411e-05
5.60694e-05
5.7199e-05
6.0297e-05
6.47528e-05
6.41386e-05
6.0291e-05
6.41457e-05
5.72129e-05
5.7236e-05
6.4161e-05
6.47604e-05
6.03103e-05
6.03136e-05
6.4155e-05
5.72215e-05
5.60452e-05
6.04891e-05
5.47233e-05
6.22316e-05
5.47138e-05
6.22362e-05
5.60684e-05
6.5873e-05
5.31259e-05
5.92943e-05
5.92952e-05
5.93018e-05
5.93029e-05
6.58731e-05
6.59235e-05
5.31624e-05
5.93469e-05
5.93381e-05
6.59246e-05
5.93461e-05
5.93436e-05
6.59421e-05
5.31821e-05
5.93669e-05
5.9367e-05
6.59383e-05
5.93678e-05
5.93611e-05
5.61033e-05
6.22719e-05
5.47722e-05
6.05305e-05
6.22652e-05
5.47784e-05
5.60953e-05
5.72167e-05
6.02987e-05
6.47497e-05
6.41521e-05
6.41539e-05
6.02931e-05
5.72185e-05
5.724e-05
6.41673e-05
6.4758e-05
6.03246e-05
6.41614e-05
6.03225e-05
5.7238e-05
5.60712e-05
6.05159e-05
6.22451e-05
5.47504e-05
6.22539e-05
5.47443e-05
5.60785e-05
5.61116e-05
6.22902e-05
5.47734e-05
6.05303e-05
6.22802e-05
5.47795e-05
5.61038e-05
5.72155e-05
6.03037e-05
6.47626e-05
6.41587e-05
6.41667e-05
6.0306e-05
5.72169e-05
5.724e-05
6.41851e-05
6.47695e-05
6.03242e-05
6.41767e-05
5.72382e-05
6.03219e-05
5.6078e-05
6.05204e-05
6.22618e-05
5.47511e-05
6.22688e-05
5.47448e-05
5.60869e-05
5.61185e-05
6.2282e-05
5.48059e-05
6.05602e-05
5.61295e-05
6.22891e-05
5.47991e-05
5.72878e-05
6.03513e-05
6.47815e-05
6.41943e-05
6.03495e-05
6.41882e-05
5.72838e-05
5.72594e-05
6.41711e-05
6.03384e-05
6.47754e-05
6.03401e-05
5.72629e-05
6.41784e-05
5.61578e-05
6.05676e-05
6.23039e-05
5.48247e-05
6.22941e-05
5.48322e-05
5.61386e-05
5.61277e-05
6.22968e-05
5.48072e-05
6.05656e-05
5.61354e-05
6.2309e-05
5.48009e-05
5.72844e-05
6.0364e-05
6.47987e-05
6.42172e-05
6.42115e-05
6.03611e-05
5.7282e-05
5.72603e-05
6.4194e-05
6.03414e-05
6.47927e-05
5.72621e-05
6.42018e-05
6.03441e-05
5.61583e-05
6.05786e-05
6.23299e-05
5.48269e-05
6.23212e-05
5.48336e-05
5.61503e-05
6.59466e-05
5.31631e-05
5.9347e-05
5.93458e-05
5.9353e-05
5.93505e-05
6.59442e-05
6.5962e-05
5.31793e-05
5.93679e-05
5.93732e-05
5.93601e-05
6.59604e-05
5.93721e-05
5.60977e-05
6.22548e-05
5.475e-05
6.0498e-05
6.22444e-05
5.47575e-05
5.60753e-05
5.72177e-05
6.03019e-05
6.47595e-05
6.41464e-05
6.41517e-05
6.02984e-05
5.72239e-05
5.72487e-05
6.41653e-05
6.47667e-05
6.03246e-05
6.41605e-05
6.03196e-05
5.72422e-05
5.60498e-05
6.04896e-05
6.22295e-05
5.47293e-05
6.22396e-05
5.47219e-05
5.6073e-05
5.60748e-05
5.47463e-05
6.22352e-05
6.04947e-05
5.47524e-05
6.22255e-05
5.60668e-05
5.71845e-05
6.02689e-05
6.47178e-05
6.41125e-05
6.4117e-05
6.02753e-05
5.71857e-05
5.72081e-05
6.41313e-05
6.47291e-05
6.02888e-05
6.4127e-05
5.72059e-05
6.02894e-05
5.6043e-05
6.04864e-05
5.47254e-05
6.22112e-05
5.47194e-05
6.22207e-05
5.60503e-05
5.6099e-05
6.22588e-05
5.47846e-05
6.05212e-05
5.61221e-05
6.22678e-05
5.47766e-05
5.72925e-05
6.03514e-05
6.47795e-05
6.41915e-05
6.03588e-05
6.41859e-05
5.72852e-05
5.72643e-05
6.4176e-05
6.03376e-05
6.47762e-05
6.03434e-05
5.72708e-05
6.41778e-05
5.61452e-05
6.05348e-05
6.2282e-05
5.48014e-05
6.22739e-05
5.48094e-05
5.61217e-05
5.60896e-05
5.47782e-05
6.22386e-05
6.05169e-05
5.60976e-05
5.47715e-05
6.22469e-05
5.7249e-05
6.03299e-05
6.47452e-05
6.41554e-05
6.41534e-05
6.03284e-05
5.7246e-05
5.72262e-05
6.4135e-05
6.03052e-05
6.47399e-05
5.72288e-05
6.41417e-05
6.02996e-05
5.61194e-05
6.05246e-05
5.47952e-05
6.22604e-05
5.48022e-05
6.22567e-05
5.6111e-05
5.60884e-05
5.47531e-05
6.22491e-05
6.04978e-05
5.47595e-05
6.22381e-05
5.60801e-05
5.71907e-05
6.02622e-05
6.47201e-05
6.41261e-05
6.02643e-05
6.41275e-05
5.71945e-05
5.72163e-05
6.41431e-05
6.47261e-05
6.02811e-05
6.02793e-05
6.41397e-05
5.72132e-05
5.60551e-05
6.04885e-05
5.47326e-05
6.22261e-05
5.47262e-05
6.22327e-05
5.6065e-05
5.61256e-05
6.22751e-05
5.47886e-05
6.05307e-05
5.61356e-05
6.22808e-05
5.47829e-05
5.72878e-05
6.03548e-05
6.47798e-05
6.41995e-05
5.72846e-05
6.03507e-05
6.41925e-05
5.72657e-05
6.4182e-05
6.03328e-05
6.47733e-05
5.72685e-05
6.03366e-05
6.41867e-05
5.61558e-05
6.05383e-05
6.2294e-05
5.48085e-05
5.61462e-05
6.22852e-05
5.48148e-05
5.61023e-05
5.4786e-05
6.22607e-05
6.05272e-05
5.6112e-05
5.47791e-05
6.22671e-05
5.72582e-05
6.03108e-05
6.47502e-05
6.41708e-05
6.41657e-05
6.03142e-05
5.72535e-05
5.72334e-05
6.41531e-05
6.02972e-05
6.47444e-05
5.7236e-05
6.41587e-05
6.02994e-05
5.61393e-05
6.05371e-05
5.48043e-05
6.22845e-05
5.48115e-05
6.2274e-05
5.61241e-05
6.59123e-05
5.31537e-05
5.93288e-05
5.93331e-05
5.93385e-05
5.93272e-05
6.59203e-05
6.59381e-05
5.31732e-05
5.93461e-05
5.93643e-05
5.93403e-05
6.5932e-05
5.93656e-05
5.6088e-05
5.47462e-05
6.2248e-05
6.04946e-05
5.47539e-05
6.22376e-05
5.6065e-05
5.71872e-05
6.02694e-05
6.47389e-05
6.41309e-05
6.02755e-05
6.41375e-05
5.7201e-05
5.72238e-05
6.41548e-05
6.47488e-05
6.02907e-05
6.0291e-05
6.41483e-05
5.72094e-05
5.60401e-05
6.04899e-05
5.47259e-05
6.22275e-05
5.47183e-05
6.22323e-05
5.6063e-05
5.6095e-05
5.47803e-05
6.22559e-05
6.0524e-05
5.61164e-05
5.47724e-05
6.22632e-05
5.72787e-05
6.03568e-05
6.47894e-05
6.41859e-05
5.72641e-05
6.03557e-05
6.41817e-05
5.72436e-05
6.4172e-05
6.0329e-05
6.47796e-05
5.72577e-05
6.03326e-05
6.41747e-05
5.61398e-05
6.05349e-05
5.47981e-05
6.22766e-05
5.61231e-05
5.4806e-05
6.22731e-05
5.60885e-05
5.4781e-05
6.22538e-05
6.05245e-05
5.61118e-05
5.47731e-05
6.22628e-05
5.72655e-05
6.0339e-05
6.47722e-05
6.41822e-05
6.41764e-05
6.03372e-05
5.72507e-05
5.72306e-05
6.41633e-05
6.03112e-05
6.47655e-05
5.7245e-05
6.41696e-05
6.03177e-05
5.61343e-05
6.05309e-05
5.4794e-05
6.22766e-05
5.4806e-05
6.22691e-05
5.61105e-05
6.58885e-05
5.3145e-05
5.93263e-05
5.93271e-05
6.58863e-05
5.93263e-05
5.93275e-05
5.72716e-05
6.03349e-05
6.41797e-05
6.47639e-05
6.03339e-05
5.72822e-05
6.4183e-05
5.61414e-05
6.05585e-05
5.48361e-05
6.22897e-05
5.48285e-05
5.61648e-05
6.22968e-05
6.03498e-05
6.47897e-05
6.03546e-05
2.10377e-05
3.66863e-05
3.66902e-05
4.19516e-05
2.17957e-05
3.7592e-05
3.75955e-05
4.26646e-05
2.2572e-05
3.8472e-05
3.84751e-05
4.33642e-05
2.33628e-05
3.93258e-05
3.93285e-05
4.40356e-05
2.41644e-05
4.01532e-05
4.01554e-05
4.46927e-05
2.49733e-05
4.09543e-05
4.09565e-05
4.5318e-05
2.57861e-05
4.17297e-05
4.17319e-05
4.59343e-05
2.65998e-05
4.248e-05
4.24824e-05
4.65426e-05
2.74115e-05
4.32064e-05
4.32092e-05
4.71109e-05
2.82185e-05
4.39099e-05
4.39131e-05
4.7668e-05
2.90184e-05
4.45911e-05
4.45947e-05
4.82042e-05
2.98083e-05
4.52503e-05
4.52543e-05
4.87221e-05
3.05851e-05
4.58859e-05
4.58899e-05
4.9226e-05
3.13446e-05
4.64949e-05
4.6499e-05
4.97135e-05
3.20818e-05
4.70746e-05
4.70782e-05
5.01639e-05
3.27912e-05
4.76217e-05
4.76246e-05
5.05837e-05
3.34669e-05
4.81319e-05
4.8134e-05
5.09713e-05
3.41035e-05
4.86019e-05
4.86026e-05
5.13335e-05
3.46964e-05
4.9029e-05
4.90287e-05
5.16562e-05
3.52421e-05
4.94128e-05
4.94112e-05
5.1947e-05
3.57392e-05
4.97543e-05
4.97523e-05
5.22262e-05
3.61863e-05
5.00535e-05
5.00514e-05
5.24633e-05
3.65836e-05
5.03138e-05
5.03099e-05
5.26629e-05
3.69324e-05
5.05377e-05
5.05315e-05
5.28304e-05
3.72366e-05
5.07279e-05
5.07213e-05
5.29729e-05
4.19471e-05
4.25066e-05
3.66883e-05
3.66876e-05
3.73681e-05
3.73685e-05
4.195e-05
4.25089e-05
3.66874e-05
3.66904e-05
3.73676e-05
3.73709e-05
3.66939e-05
3.73668e-05
3.73743e-05
4.19518e-05
4.24915e-05
3.66923e-05
3.73703e-05
3.73728e-05
4.2504e-05
4.26622e-05
4.32132e-05
3.75935e-05
3.75931e-05
3.82546e-05
3.82549e-05
4.26611e-05
4.31926e-05
3.75931e-05
3.75956e-05
3.82539e-05
3.82569e-05
3.75988e-05
3.82533e-05
3.826e-05
4.26724e-05
4.31962e-05
3.75973e-05
3.82564e-05
3.82587e-05
4.32194e-05
4.33613e-05
4.38905e-05
3.84735e-05
3.84731e-05
3.91149e-05
3.91153e-05
4.3377e-05
4.38792e-05
3.84729e-05
3.84752e-05
3.91141e-05
3.9117e-05
3.8478e-05
3.91137e-05
3.91194e-05
4.3376e-05
4.38887e-05
3.84767e-05
3.91164e-05
3.91182e-05
4.38947e-05
4.40277e-05
4.45548e-05
3.93273e-05
3.93269e-05
3.99488e-05
3.99492e-05
4.40451e-05
4.45349e-05
3.93266e-05
3.93286e-05
3.99479e-05
3.99506e-05
3.93309e-05
3.99476e-05
3.99524e-05
4.40467e-05
4.45448e-05
3.93297e-05
3.99499e-05
3.99513e-05
4.45532e-05
4.46944e-05
4.51913e-05
4.01547e-05
4.01543e-05
4.07566e-05
4.07568e-05
4.47043e-05
4.51715e-05
4.01541e-05
4.01555e-05
4.07558e-05
4.07579e-05
4.01572e-05
4.07551e-05
4.0759e-05
4.46979e-05
4.51943e-05
4.0156e-05
4.07574e-05
4.0758e-05
4.51872e-05
4.53196e-05
4.58077e-05
4.09561e-05
4.09553e-05
4.15384e-05
4.15384e-05
4.53315e-05
4.58051e-05
4.09555e-05
4.09563e-05
4.15377e-05
4.15392e-05
4.09573e-05
4.15368e-05
4.15397e-05
4.53235e-05
4.58063e-05
4.09564e-05
4.1539e-05
4.1539e-05
4.58058e-05
4.59364e-05
4.64065e-05
4.17316e-05
4.17305e-05
4.2295e-05
4.22948e-05
4.59368e-05
4.63925e-05
4.17311e-05
4.17312e-05
4.22944e-05
4.22953e-05
4.17317e-05
4.2293e-05
4.22952e-05
4.59306e-05
4.6399e-05
4.1731e-05
4.22954e-05
4.22946e-05
4.63874e-05
4.65314e-05
4.69752e-05
4.2482e-05
4.24808e-05
4.30272e-05
4.3027e-05
4.65405e-05
4.69725e-05
4.24815e-05
4.24813e-05
4.30265e-05
4.30274e-05
4.24811e-05
4.30251e-05
4.30263e-05
4.65404e-05
4.69734e-05
4.24804e-05
4.30277e-05
4.30257e-05
4.69717e-05
4.71246e-05
4.75552e-05
4.32085e-05
4.32071e-05
4.37361e-05
4.37356e-05
4.71153e-05
4.75322e-05
4.3208e-05
4.32076e-05
4.37353e-05
4.37363e-05
4.32063e-05
4.3734e-05
4.37341e-05
4.71148e-05
4.75495e-05
4.32058e-05
4.3737e-05
4.37338e-05
4.75484e-05
4.76743e-05
4.80893e-05
4.39118e-05
4.39101e-05
4.44229e-05
4.4422e-05
4.76744e-05
4.80936e-05
4.39114e-05
4.39108e-05
4.44222e-05
4.44227e-05
4.39085e-05
4.44203e-05
4.44197e-05
4.7665e-05
4.80947e-05
4.39083e-05
4.44239e-05
4.44198e-05
4.80887e-05
4.82171e-05
4.86204e-05
4.45932e-05
4.45911e-05
4.50877e-05
4.50866e-05
4.82042e-05
4.86158e-05
4.45927e-05
4.45917e-05
4.50868e-05
4.50868e-05
4.45886e-05
4.50848e-05
4.50831e-05
4.82087e-05
4.86214e-05
4.45888e-05
4.50887e-05
4.50836e-05
4.86154e-05
4.8745e-05
4.91181e-05
4.52525e-05
4.52501e-05
4.57291e-05
4.5728e-05
4.87372e-05
4.91302e-05
4.52517e-05
4.52501e-05
4.5728e-05
4.57273e-05
4.52464e-05
4.57262e-05
4.57235e-05
4.87346e-05
4.91245e-05
4.5247e-05
4.57302e-05
4.57245e-05
4.9122e-05
4.92447e-05
4.96147e-05
4.58877e-05
4.58853e-05
4.63445e-05
4.63434e-05
4.92332e-05
4.9611e-05
4.58866e-05
4.58844e-05
4.63431e-05
4.63418e-05
4.58807e-05
4.63418e-05
4.63391e-05
4.92369e-05
4.96149e-05
4.58819e-05
4.63459e-05
4.63405e-05
4.9601e-05
4.97137e-05
5.00713e-05
4.64962e-05
4.64936e-05
4.69314e-05
4.69298e-05
4.97128e-05
5.00618e-05
4.64949e-05
4.64917e-05
4.69296e-05
4.69268e-05
4.64896e-05
4.69289e-05
4.69268e-05
4.9713e-05
5.00634e-05
4.64911e-05
4.69326e-05
4.69281e-05
5.00607e-05
5.01668e-05
5.04896e-05
4.70752e-05
4.70722e-05
4.74857e-05
4.7484e-05
5.017e-05
5.04936e-05
4.70735e-05
4.70688e-05
4.74835e-05
4.74796e-05
4.70697e-05
4.74844e-05
4.7483e-05
5.01635e-05
5.04839e-05
4.70708e-05
4.74872e-05
4.74833e-05
5.04929e-05
5.05919e-05
5.08931e-05
4.76205e-05
4.76175e-05
4.80033e-05
4.80012e-05
5.05918e-05
5.08832e-05
4.76183e-05
4.76129e-05
4.80011e-05
4.79963e-05
4.76171e-05
4.80039e-05
4.80027e-05
5.05931e-05
5.08893e-05
4.76171e-05
4.80061e-05
4.80017e-05
5.08871e-05
5.09798e-05
5.12539e-05
4.81284e-05
4.81248e-05
4.84815e-05
4.84785e-05
5.09767e-05
5.12509e-05
4.81262e-05
4.81198e-05
4.84793e-05
4.84736e-05
4.8127e-05
4.84843e-05
4.84824e-05
5.09776e-05
5.1246e-05
4.81256e-05
4.84852e-05
4.84799e-05
5.12535e-05
5.1334e-05
5.15873e-05
4.85959e-05
4.85912e-05
4.89173e-05
4.89128e-05
5.13331e-05
5.15845e-05
4.8594e-05
4.85866e-05
4.89157e-05
4.8909e-05
4.8596e-05
4.89222e-05
4.89187e-05
5.13332e-05
5.15824e-05
4.85931e-05
4.89221e-05
4.89149e-05
5.15781e-05
5.16577e-05
5.1886e-05
4.90207e-05
4.90145e-05
4.93107e-05
4.9304e-05
5.16572e-05
5.1883e-05
4.90193e-05
4.90111e-05
4.93096e-05
4.93014e-05
4.90208e-05
4.9317e-05
4.93106e-05
5.16586e-05
5.18815e-05
4.90169e-05
4.93157e-05
4.93061e-05
5.18742e-05
5.1958e-05
5.21747e-05
4.9403e-05
4.93951e-05
4.96628e-05
4.96542e-05
5.19552e-05
5.21711e-05
4.94023e-05
4.93926e-05
4.96627e-05
4.96528e-05
4.94015e-05
4.96698e-05
4.96597e-05
5.19531e-05
5.21703e-05
4.93969e-05
4.96678e-05
4.96552e-05
5.21601e-05
5.22417e-05
5.24205e-05
4.97443e-05
4.97345e-05
4.99736e-05
4.9963e-05
5.22376e-05
5.24162e-05
4.97445e-05
4.97335e-05
4.99734e-05
4.99627e-05
4.97396e-05
4.998e-05
4.9966e-05
5.22374e-05
5.24174e-05
4.97353e-05
4.9978e-05
4.99627e-05
5.24047e-05
5.24803e-05
5.26328e-05
5.00442e-05
5.00329e-05
5.02446e-05
5.02322e-05
5.24759e-05
5.26296e-05
5.00441e-05
5.00329e-05
5.02423e-05
5.02318e-05
5.0035e-05
5.0251e-05
5.02304e-05
5.24776e-05
5.26304e-05
5.00321e-05
5.02475e-05
5.02287e-05
5.26113e-05
5.26859e-05
5.28116e-05
5.03054e-05
5.02929e-05
5.04765e-05
5.04659e-05
5.26835e-05
5.28134e-05
5.03027e-05
5.02918e-05
5.04726e-05
5.04622e-05
5.02894e-05
5.04845e-05
5.0457e-05
5.26824e-05
5.28059e-05
5.0288e-05
5.04786e-05
5.04564e-05
5.2785e-05
5.28576e-05
5.29604e-05
5.05274e-05
5.05177e-05
5.06719e-05
5.06662e-05
5.28617e-05
5.29701e-05
5.0524e-05
5.05132e-05
5.06706e-05
5.06595e-05
5.05071e-05
5.06842e-05
5.06515e-05
5.28533e-05
5.29562e-05
5.05067e-05
5.06772e-05
5.06517e-05
5.29316e-05
5.30039e-05
5.30945e-05
5.07151e-05
5.07095e-05
5.08427e-05
5.08373e-05
5.30133e-05
5.30995e-05
5.07146e-05
5.07023e-05
5.08426e-05
5.08295e-05
5.06935e-05
5.08515e-05
5.08192e-05
5.29991e-05
5.30872e-05
5.0694e-05
5.08462e-05
5.08202e-05
5.30593e-05
6.4821e-05
7.13587e-05
7.13929e-05
6.47261e-05
6.95329e-05
6.95593e-05
6.48265e-05
7.13645e-05
7.13987e-05
6.47278e-05
2.10348e-05
2.104e-05
2.10414e-05
2.15998e-05
2.15993e-05
2.16045e-05
2.16067e-05
5.35291e-05
6.02132e-05
2.9073e-05
3.6914e-05
6.03289e-05
2.93155e-05
5.33329e-05
6.95317e-05
6.95582e-05
5.35283e-05
2.90783e-05
6.02111e-05
3.69177e-05
2.93208e-05
6.03321e-05
5.33343e-05
6.69232e-05
6.69342e-05
4.21248e-05
6.69823e-05
6.69947e-05
6.5049e-05
7.14426e-05
6.49569e-05
7.14775e-05
6.95887e-05
6.9616e-05
6.50523e-05
7.14485e-05
6.49596e-05
7.14832e-05
2.17928e-05
2.1798e-05
2.17994e-05
2.23716e-05
2.23713e-05
2.23765e-05
2.23786e-05
5.39911e-05
6.05028e-05
3.00497e-05
3.78133e-05
5.38036e-05
6.06152e-05
3.02908e-05
6.95875e-05
6.9615e-05
5.39918e-05
3.00549e-05
6.05009e-05
3.78166e-05
5.38049e-05
3.02961e-05
6.06179e-05
6.71001e-05
6.71115e-05
4.28724e-05
6.71578e-05
6.71703e-05
6.52721e-05
7.15268e-05
6.51805e-05
7.15646e-05
6.96468e-05
6.9675e-05
6.52764e-05
7.15338e-05
6.51821e-05
7.15692e-05
2.2569e-05
2.25741e-05
2.25755e-05
2.31589e-05
2.31587e-05
2.31638e-05
2.31658e-05
5.44376e-05
6.07827e-05
3.10195e-05
3.86869e-05
5.42564e-05
6.08922e-05
3.12583e-05
6.96457e-05
6.96741e-05
5.44379e-05
3.10246e-05
6.07811e-05
3.86896e-05
5.42547e-05
3.12633e-05
6.08946e-05
6.72728e-05
6.72845e-05
4.35589e-05
6.73294e-05
6.73414e-05
6.54907e-05
7.16137e-05
6.53989e-05
7.1652e-05
6.9707e-05
6.9736e-05
6.54936e-05