/*--------------------------------*- C++ -*----------------------------------*\
| =========                 |                                                 |
| \\      /  F ield         | OpenFOAM: The Open Source CFD Toolbox           |
|  \\    /   O peration     | Version:  v1906                                 |
|   \\  /    A nd           | Web:      www.OpenFOAM.com                      |
|    \\/     M anipulation  |                                                 |
\*---------------------------------------------------------------------------*/
FoamFile
{
    version     2.0;
    format      ascii;
    class       surfaceScalarField;
    location    "300";
    object      phi;
}
// * * * * * * * * * * * * * * * * * * * * * * * * * * * * * * * * * * * * * //

dimensions      [0 3 -1 0 0 0 0];
oriented        oriented;


internalField   nonuniform List<scalar> 
123680
(
4.92741e-08
4.98579e-08
-2.53515e-08
-2.56658e-08
0.00118693
-0.00118698
-1.21139e-06
-5.3577e-08
-1.59112e-08
0.00113317
-2.47441e-07
1.23132e-06
2.62577e-07
8.97768e-07
-2.29355e-07
2.53533e-07
-8.70376e-07
-0.00113319
-1.20582e-06
-5.22289e-08
-1.57214e-08
0.00113282
-2.47373e-07
1.22596e-06
2.62686e-07
8.97662e-07
-2.32043e-07
2.5625e-07
-8.70246e-07
-0.00113284
1.23912e-06
1.20484e-06
-2.10323e-07
-2.15892e-07
0.000268074
-0.000270092
-0.000270088
1.24021e-06
1.20609e-06
-2.11579e-07
-2.17004e-07
0.000268071
1.24482e-06
1.20845e-06
-2.08501e-07
-2.15901e-07
0.000268085
-0.000270113
-1.26494e-06
-1.22794e-06
-0.00026808
2.28678e-07
2.37006e-07
0.000270107
-1.70421e-08
0.00113238
-2.52414e-07
1.2659e-06
2.6851e-07
8.97268e-07
-2.29953e-07
2.52865e-07
-8.70874e-07
-0.0011324
-1.24928e-06
-4.72212e-08
-2.26839e-08
0.0011328
-2.54228e-07
1.27238e-06
2.72345e-07
9.02211e-07
-2.33253e-07
2.55187e-07
-8.77011e-07
-0.00113281
-4.33825e-08
-0.00113234
-1.46228e-08
-1.24567e-06
2.67747e-07
-2.53189e-07
-8.72367e-07
2.51513e-07
-2.31342e-07
8.9578e-07
0.00113232
1.27134e-06
-4.22782e-08
-0.00113276
-2.05234e-08
-1.2502e-06
2.71409e-07
-2.55134e-07
-8.78156e-07
2.54044e-07
-2.34456e-07
9.01101e-07
0.00113274
-2.11576e-07
-2.12579e-07
0.0002681
-0.000270137
-1.23049e-06
-0.000268098
2.31365e-07
2.34823e-07
0.000270133
-1.69672e-08
0.00113348
-2.50002e-07
1.22897e-06
2.65712e-07
9.00273e-07
-2.32433e-07
2.56042e-07
-8.73451e-07
-0.0011335
-1.24437e-06
-4.80555e-08
-2.04786e-08
0.00113245
-2.54724e-07
1.26641e-06
2.71879e-07
8.99768e-07
-2.3284e-07
2.55559e-07
-8.73786e-07
-0.00113247
-4.47157e-08
-0.00113344
-1.42939e-08
-1.2094e-06
2.64812e-07
-2.50966e-07
-8.7461e-07
2.54873e-07
-2.33661e-07
8.99015e-07
0.00113343
1.2655e-06
-4.30414e-08
-0.00113241
-1.86476e-08
-1.24518e-06
2.7103e-07
-2.55562e-07
-8.74999e-07
2.54397e-07
-2.34034e-07
8.98643e-07
0.00113239
-5.24378e-08
-2.05394e-08
0.00113224
-2.4921e-07
1.2608e-06
2.66216e-07
8.97656e-07
-2.29517e-07
2.53423e-07
-8.70574e-07
-0.00113226
-4.89049e-08
-0.00113314
-1.4147e-08
-1.21212e-06
2.61927e-07
-2.4805e-07
-8.71552e-07
2.52354e-07
8.96618e-07
-2.30575e-07
0.00113313
1.25997e-06
0.00113219
-4.76136e-08
-0.00113221
-1.87006e-08
-1.23989e-06
2.65499e-07
-2.49921e-07
-8.71698e-07
2.52306e-07
-2.30738e-07
8.99172e-07
-2.08673e-07
-2.15502e-07
0.00026806
-0.000270086
-1.22516e-06
-0.000268056
2.28881e-07
2.37218e-07
0.00027008
-5.10378e-08
-2.19157e-08
0.00113335
-2.4636e-07
1.22724e-06
2.63937e-07
8.97727e-07
-2.32396e-07
2.56063e-07
-8.70754e-07
-0.00113337
-4.75994e-08
-0.00113278
-1.40677e-08
-1.20654e-06
2.62132e-07
-2.47957e-07
-8.71423e-07
2.54985e-07
8.96542e-07
-2.33355e-07
0.00113277
1.22628e-06
0.0011333
-4.66392e-08
-0.00113332
-1.95107e-08
-1.20573e-06
2.6306e-07
-2.4727e-07
-8.71849e-07
2.54974e-07
-2.3351e-07
8.96644e-07
-0.000268072
2.32154e-07
2.37235e-07
-1.81579e-08
-2.50272e-07
1.25968e-06
2.65202e-07
8.9873e-07
-2.31049e-07
2.51944e-07
-8.74882e-07
-4.62787e-08
-2.47551e-07
1.22594e-06
2.62803e-07
-2.34036e-07
2.54541e-07
-4.54421e-08
-1.87726e-08
8.96257e-07
-8.72357e-07
1.08958e-10
-6.01302e-08
0.000228728
2.78308e-08
8.59658e-10
-0.000228697
-6.28869e-09
2.86892e-08
0.000192959
-3.06699e-09
-0.000192978
6.18976e-09
-3.86725e-08
0.000192997
3.76665e-09
-0.000192968
4.19226e-10
4.04674e-08
0.000228687
-1.86813e-08
-5.91927e-10
-0.000228709
6.54263e-09
1.34005e-08
9.76854e-05
-9.77053e-05
-5.74705e-09
-1.88509e-08
9.77146e-05
-9.769e-05
-6.02714e-08
1.5056e-10
0.000228751
6.86487e-10
2.57983e-08
-0.000228718
-6.83227e-09
3.08569e-08
0.000192978
-2.92226e-09
-0.000192999
5.58313e-09
-4.10725e-08
0.000193017
5.09921e-09
-0.000192987
4.06236e-08
6.88765e-10
0.000228708
-8.50719e-10
-1.67099e-08
-0.000228732
-3.04169e-08
-2.42231e-08
0.00118689
-0.00118694
-2.87195e-08
-2.40621e-08
0.00118648
-0.00118653
-2.82704e-08
-2.99893e-08
0.0011867
-0.00118675
-0.00118684
-2.22198e-08
-2.22415e-08
0.00118679
-0.00118681
-2.85955e-08
-2.15639e-08
0.00118676
-0.00118639
-2.67618e-08
-2.14138e-08
0.00118635
-0.00118662
-2.62185e-08
-2.76883e-08
0.00118658
6.05322e-08
-9.34666e-10
0.000249853
1.43496e-09
-1.78585e-07
-0.000249735
-1.49395e-08
-3.05797e-08
7.78985e-08
0.00024488
9.39678e-09
-0.000244922
0.00115404
6.04235e-09
-5.63704e-08
9.91496e-07
-7.8012e-07
8.13259e-07
-9.58533e-07
-0.00115407
-1.52543e-08
1.23103e-06
0.00113316
-5.23591e-08
-8.70732e-07
2.53147e-07
-2.29707e-07
8.9742e-07
-1.21164e-06
2.62358e-07
-2.47669e-07
1.65464e-08
4.12564e-08
0.000244938
-1.22362e-08
-0.000244888
-9.57257e-08
-1.29042e-09
0.00115401
-5.52529e-08
-9.58906e-07
8.12846e-07
-7.80481e-07
9.91103e-07
-4.02368e-08
2.41699e-09
0.000249729
-9.62049e-10
1.50139e-07
-0.00024984
6.3208e-09
1.56785e-08
9.76635e-05
-9.76855e-05
-6.03798e-09
-2.11185e-08
9.76958e-05
-9.76686e-05
-8.5134e-10
6.0209e-08
0.000249817
-1.78414e-07
1.66678e-09
-0.0002497
0.00115376
6.9409e-09
-5.55064e-08
9.86096e-07
-7.74663e-07
8.07711e-07
-9.52909e-07
-0.00115379
-1.4317e-08
-2.8626e-08
7.79356e-08
0.000244821
8.98367e-09
-0.000244865
-1.50322e-08
1.22567e-06
0.0011328
-5.08839e-08
-8.70576e-07
2.55819e-07
-2.32443e-07
8.97313e-07
-1.20606e-06
2.62448e-07
-2.47548e-07
-3.57303e-10
0.00115373
-5.43295e-08
-9.53245e-07
8.07294e-07
-7.75029e-07
9.85659e-07
1.73582e-08
3.87891e-08
0.000244882
-1.28205e-08
-0.000244829
-9.57578e-08
1.89048e-09
-4.03554e-08
0.000249693
1.50136e-07
-8.66128e-10
-0.000249804
1.61812e-08
-1.33853e-08
3.19394e-08
0.00027739
-8.79909e-09
-0.000277416
1.62466e-08
-1.3435e-08
2.96716e-08
0.000277347
-9.35193e-09
-0.00027737
-1.26053e-06
-1.22694e-06
0.00027009
-0.000268073
2.32808e-07
2.37848e-07
-2.00138e-08
1.88999e-08
0.00027744
8.52073e-09
-0.000277402
-4.53135e-08
-2.01438e-08
1.85713e-08
0.000277395
9.29605e-09
-0.000277359
-4.29126e-08
-0.000277463
1.62769e-08
-1.36295e-08
3.2611e-08
-8.83189e-09
0.000277437
-0.000277418
1.61823e-08
-1.40183e-08
3.05338e-08
-8.91511e-09
0.000277394
1.3495e-08
9.76832e-05
-9.77029e-05
-1.85134e-08
9.77128e-05
-9.76881e-05
1.30958e-08
9.76823e-05
-9.77023e-05
-1.90402e-08
9.77116e-05
-9.7687e-05
1.40181e-08
2.99455e-08
0.000277399
-9.23414e-09
-0.00027742
1.70654e-08
2.95766e-08
0.000277355
-9.94522e-09
-0.000277378
0.00027011
-1.26558e-06
-1.22861e-06
-0.000268083
2.29376e-07
2.37696e-07
0.000277442
-1.75621e-08
9.26829e-09
-0.00027741
-4.25435e-08
0.0002774
-1.92811e-08
8.57984e-09
-0.000277366
-4.29733e-08
-1.81511e-08
-6.38994e-09
-9.76975e-05
9.7722e-05
1.38224e-08
6.08765e-09
9.76928e-05
-1.87471e-08
-5.87462e-09
-9.76963e-05
9.7721e-05
1.33582e-08
6.61714e-09
9.76916e-05
1.24538e-06
1.2091e-06
0.000268081
-2.09145e-07
-2.16504e-07
-1.76477e-08
-4.20272e-08
-0.000277431
9.4901e-09
0.000277463
-1.94058e-08
-4.25366e-08
-0.000277387
8.71642e-09
0.000277422
1.39141e-08
-8.99844e-09
3.04641e-08
0.00027742
1.70177e-08
-9.856e-09
3.00701e-08
0.000277377
-6.01196e-08
0.000228765
2.78354e-08
1.28112e-09
-0.000228733
2.89114e-08
0.000192993
-3.0692e-09
-0.000193013
-3.87108e-08
0.000193031
4.18009e-09
-0.000193003
4.05499e-08
0.000228724
-1.87063e-08
-1.40325e-10
-0.000228745
-1.04499e-09
0.000249828
1.49836e-09
-1.8055e-07
-0.000249708
7.58469e-08
0.000244821
8.5643e-09
-0.000244862
0.00115417
6.60806e-09
-5.25545e-08
9.91032e-07
-7.8075e-07
8.12562e-07
-9.5904e-07
-0.0011542
-1.62246e-08
0.00113236
-4.74876e-08
-1.24509e-06
2.68262e-07
-2.52635e-07
-8.7135e-07
2.52493e-07
-2.30411e-07
8.96781e-07
0.000244879
-1.31266e-08
-0.000244829
-9.29487e-08
-4.66765e-10
0.00115414
-5.08003e-08
-9.59542e-07
8.12041e-07
-7.81214e-07
9.90504e-07
1.86266e-09
0.000249702
-5.50414e-11
1.53152e-07
-0.000249817
0.000249854
3.10834e-09
-1.8045e-07
-0.000249738
-1.63877e-08
7.87295e-08
0.000244831
8.2753e-09
-0.000244872
0.00115431
-5.15398e-08
9.93568e-07
-7.81076e-07
8.12446e-07
-9.62286e-07
-0.00115433
-2.21084e-08
0.00113278
1.27205e-06
-4.57423e-08
-8.77368e-07
2.54784e-07
9.01824e-07
-2.33657e-07
-1.24956e-06
2.72045e-07
-2.54524e-07
0.000244889
1.97339e-08
-1.32771e-08
-0.000244839
-9.5093e-08
0.00115427
-4.99526e-08
-9.62726e-07
8.11934e-07
-7.81535e-07
9.93122e-07
0.000249733
-2.3305e-10
1.53322e-07
-0.000249843
3.18568e-10
4.10551e-08
-1.89526e-08
-4.95039e-10
0.000228706
-3.81775e-08
-0.000192986
3.36511e-09
0.000193014
2.91016e-08
-3.38645e-09
0.000192977
-5.72364e-11
-5.95135e-08
-0.000228715
2.75478e-08
1.10272e-09
0.000228746
4.11131e-08
-1.89802e-08
-2.32459e-10
0.000228743
-3.83e-08
5.90132e-09
-0.000193021
3.99637e-09
0.000193049
2.92783e-08
-6.44522e-09
-3.20948e-09
0.000193012
-5.94846e-08
-0.000228752
2.75341e-08
1.15738e-09
0.000228783
1.79364e-09
4.71695e-11
1.54e-07
0.000249713
-1.55927e-08
-4.59496e-08
1.2653e-06
-2.52928e-07
2.68038e-07
8.96325e-07
-2.30838e-07
2.52072e-07
-8.71906e-07
-9.22109e-08
-0.000244844
-1.31959e-08
0.000244894
-0.00115411
-2.73603e-10
-4.64626e-08
-9.60707e-07
8.10927e-07
-7.8232e-07
9.89411e-07
0.00115408
8.55833e-09
7.65303e-08
0.000244836
7.04679e-09
-4.92945e-08
9.90005e-07
-7.81762e-07
-9.60109e-07
8.11566e-07
-1.15874e-09
-0.000249718
1.57517e-09
-1.79626e-07
0.000249838
-3.03026e-10
1.54159e-07
0.000249743
-2.15609e-08
-1.24988e-06
-4.45111e-08
9.01497e-07
-2.34046e-07
-8.7774e-07
2.54456e-07
1.27175e-06
-2.54836e-07
2.71792e-07
1.96596e-08
-9.45133e-08
-0.000244855
-1.32131e-08
0.000244905
-0.00115425
-4.59396e-08
-9.63767e-07
8.10865e-07
-7.82576e-07
9.92164e-07
0.00115422
-1.64272e-08
8.28238e-09
7.92831e-08
0.000244847
-4.86035e-08
9.92721e-07
-7.82057e-07
-9.63196e-07
8.11483e-07
-0.000249748
2.98477e-09
-1.79534e-07
0.000249864
3.01956e-08
0.000277344
-1.21268e-08
-0.000277365
-1.509e-08
2.94339e-08
0.000277453
-1.30043e-08
-0.000277469
0.000270135
-0.000268099
2.31885e-07
2.35577e-07
0.000277387
1.13682e-08
-0.000277355
-4.25008e-08
2.14543e-08
0.000277491
1.09052e-08
-0.000277463
-4.29389e-08
6.95488e-09
9.76905e-05
-9.77125e-05
9.77225e-05
-5.56397e-09
-9.76955e-05
-1.84977e-08
-9.76988e-05
9.77232e-05
1.36631e-08
9.76945e-05
1.21188e-06
0.000268098
-2.12058e-07
-2.13218e-07
-4.21084e-08
-0.000277376
1.15081e-08
0.000277408
2.09848e-08
-1.69153e-08
-4.2437e-08
-0.000277485
1.13643e-08
0.000277512
-1.21201e-08
3.06274e-08
0.000277366
-1.55634e-08
1.46244e-08
-1.25738e-08
2.99087e-08
0.000277474
-5.85659e-09
-9.7705e-05
9.77319e-05
6.60003e-09
9.77003e-05
-1.28418e-09
0.000249839
1.62119e-09
-1.75682e-07
-0.000249724
7.57018e-08
0.000244833
9.09943e-09
-0.00024487
0.00115404
5.56124e-09
-5.30592e-08
9.91244e-07
-7.77871e-07
8.12906e-07
-9.56139e-07
-0.00115408
-1.59796e-08
0.00113346
-4.84277e-08
-1.20877e-06
2.65359e-07
-2.50396e-07
-8.73769e-07
2.55708e-07
-2.32776e-07
8.99895e-07
0.000244887
-1.25004e-08
-0.000244842
-9.32741e-08
-1.54198e-09
0.00115402
-5.16897e-08
-9.5927e-07
8.09766e-07
-7.80977e-07
9.88115e-07
2.30126e-09
0.000249718
-7.83605e-10
1.47931e-07
-0.000249827
-6.02142e-08
0.000228715
2.57827e-08
1.33871e-09
-0.000228681
3.09945e-08
0.000192919
-3.36797e-09
-0.000192941
-4.09308e-08
0.00019296
3.92653e-09
-0.000192929
4.06643e-08
0.000228671
-1.67008e-08
1.48144e-10
-0.000228695
0.000249808
-1.78195e-07
2.80217e-09
-0.000249694
0.00115399
-5.23624e-08
9.91091e-07
-7.80756e-07
8.12806e-07
-9.59097e-07
-0.00115402
-1.62495e-08
7.59961e-08
0.000244762
1.0646e-08
-0.000244802
-1.99189e-08
0.00113243
1.2661e-06
-4.65925e-08
-8.74153e-07
2.55178e-07
8.99396e-07
-2.3322e-07
-1.24462e-06
2.71598e-07
-2.54977e-07
0.00115396
-5.095e-08
-9.5949e-07
8.12377e-07
-7.81149e-07
9.90678e-07
0.000244819
1.98073e-08
-1.56482e-08
-0.000244771
-9.2902e-08
0.000249687
1.50616e-07
4.21838e-11
-0.000249795
4.11084e-08
5.51055e-10
-6.7854e-10
-1.68912e-08
0.000228727
-4.07752e-08
-0.000193005
4.58072e-09
0.000193035
3.12063e-08
-3.27899e-09
0.000192996
-5.97254e-08
-3.97977e-11
-0.000228737
9.14928e-10
2.55371e-08
0.00022877
2.24728e-09
-7.00816e-10
1.48633e-07
0.00024973
-1.53115e-08
-4.71799e-08
1.22831e-06
-2.50694e-07
2.65121e-07
8.99515e-07
-2.33211e-07
2.55337e-07
-8.74182e-07
-9.26704e-08
-0.000244858
-1.25567e-08
0.000244903
-0.00115398
-1.20881e-09
-4.7636e-08
-9.60259e-07
8.08725e-07
-7.81963e-07
9.87075e-07
0.00115396
9.03246e-09
7.62302e-08
0.00024485
6.07284e-09
-5.02807e-08
9.90386e-07
-7.78721e-07
-9.57082e-07
8.12043e-07
-1.35941e-09
-0.000249736
1.71181e-09
-1.74837e-07
0.000249851
4.11259e-08
-1.68649e-08
1.02653e-10
0.000228691
-4.06301e-08
5.99051e-09
-0.000192948
3.91723e-09
0.000192978
3.12849e-08
-6.27852e-09
-3.45843e-09
0.000192938
-5.97541e-08
-0.0002287
2.55644e-08
1.22194e-09
0.000228733
1.51309e-07
-7.68437e-12
0.0002497
-1.94809e-08
-1.24491e-06
-4.53177e-08
8.99082e-07
-2.33627e-07
-8.74552e-07
2.54798e-07
1.26585e-06
-2.55322e-07
2.71353e-07
-0.00115394
-4.71292e-08
-9.60436e-07
8.11387e-07
-7.82112e-07
9.89716e-07
0.0011539
1.96724e-08
-9.23615e-08
-0.000244787
-1.55242e-08
0.000244835
-4.96921e-08
9.90262e-07
-7.816e-07
-9.59961e-07
8.11961e-07
-1.63004e-08
1.06953e-08
7.65111e-08
0.000244779
-0.000249705
-1.77412e-07
2.67115e-09
0.000249819
4.91824e-10
0.000228762
4.99757e-10
2.80575e-08
-0.00022873
0.000192994
-2.41316e-09
-0.000193015
0.000193035
4.6998e-09
-0.000193004
8.43527e-10
0.00022872
-9.88007e-10
-1.85655e-08
-0.000228742
6.04415e-08
0.000249821
-1.75921e-07
3.06002e-09
-0.000249709
0.00115397
-5.58708e-08
9.88747e-07
-7.80267e-07
8.13178e-07
-9.55941e-07
-0.00115399
-2.86704e-08
7.56689e-08
0.000244807
8.16153e-09
-0.000244846
-1.98985e-08
0.00113222
-5.11469e-08
-1.23936e-06
2.65977e-07
-2.49451e-07
-8.70935e-07
2.53043e-07
-2.29856e-07
8.9732e-07
0.00115394
-5.47452e-08
-9.56289e-07
8.12791e-07
-7.80626e-07
9.88406e-07
3.89211e-08
0.000244864
-1.35052e-08
-0.000244816
-9.33145e-08
-4.02954e-08
0.000249703
1.47639e-07
2.5368e-10
-0.000249808
0.000228724
2.80024e-08
1.73768e-09
-0.000228693
-6.22945e-09
0.000192932
-3.42819e-09
-0.000192951
0.000192971
6.00975e-09
3.82214e-09
-0.000192942
0.000228683
-1.85969e-08
2.69693e-10
-0.000228704
-4.0648e-08
2.28691e-09
-8.51425e-10
1.50792e-07
0.000249741
-1.4855e-08
-5.12198e-08
1.23081e-06
-2.47856e-07
2.62205e-07
8.97093e-07
-2.30214e-07
-8.71179e-07
2.52774e-07
4.08203e-08
-9.51549e-08
-0.000244904
-1.24754e-08
0.000244954
-0.00115398
-2.59388e-09
-5.17268e-08
-9.5977e-07
8.1182e-07
9.90227e-07
-7.81447e-07
0.00115396
-3.09729e-08
9.16539e-09
7.845e-08
0.000244896
5.87787e-09
-5.42169e-08
9.90763e-07
-7.80935e-07
-9.59324e-07
8.12427e-07
6.00149e-08
-1.37549e-09
-0.000249747
1.76757e-09
-1.77753e-07
0.000249864
7.72955e-10
-8.91827e-10
-1.8722e-08
0.00022874
-0.000193023
4.27916e-09
0.000193053
-2.88737e-09
0.000193013
3.44103e-10
-0.000228749
6.05959e-10
2.78363e-08
0.000228781
-4.0704e-08
1.48265e-07
1.83713e-10
0.000249715
-1.94844e-08
-1.23962e-06
-4.99494e-08
8.96973e-07
-2.30295e-07
-8.71302e-07
2.52708e-07
1.26028e-06
-2.49651e-07
2.65795e-07
-0.00115391
0.00115388
-5.11815e-08
-9.57185e-07
8.11809e-07
-7.81537e-07
9.90131e-07
3.86376e-08
1.99374e-08
0.000244881
-9.27831e-08
-0.000244833
-1.33844e-08
-5.36758e-08
9.8796e-07
-7.81049e-07
-9.56736e-07
8.12387e-07
-2.89169e-08
-1.62228e-08
8.16309e-09
7.61503e-08
0.000244825
5.99484e-08
0.000249831
-0.000249721
-1.75125e-07
3.20275e-09
-1.87531e-08
2.34043e-10
0.000228703
6.00477e-09
0.00019299
-0.000192961
3.79823e-09
-6.2184e-09
-3.49195e-09
0.000192952
0.000228743
-0.000228712
2.77742e-08
1.66729e-09
3.21607e-08
0.000277304
-9.05087e-09
-0.000277327
-1.3398e-08
3.18563e-08
0.000277408
-8.95392e-09
-0.000277431
0.000270083
-0.000268059
2.29456e-07
2.37831e-07
0.00027735
8.48019e-09
-0.000277315
-4.4932e-08
1.86345e-08
0.000277454
8.6197e-09
-0.000277419
-4.51867e-08
6.4265e-09
9.76774e-05
-9.76972e-05
9.77069e-05
-6.0323e-09
-9.76822e-05
-2.10279e-08
-9.76787e-05
9.77057e-05
1.58165e-08
9.76737e-05
1.20632e-06
0.000268057
-2.09245e-07
-2.16044e-07
-4.46038e-08
-0.000277337
8.27079e-09
0.000277372
1.82116e-08
-1.75623e-08
-4.46244e-08
-0.000277441
8.95874e-09
0.000277476
-9.15389e-09
3.25419e-08
0.000277326
-1.3832e-08
1.40821e-08
-8.57862e-09
3.23673e-08
0.00027743
-6.29739e-09
-9.76915e-05
9.7716e-05
6.15685e-09
9.76869e-05
6.02188e-08
0.000249842
-1.75805e-07
3.26057e-09
-0.000249731
0.00115388
-5.48087e-08
9.88779e-07
-7.7763e-07
8.10435e-07
-9.55966e-07
-0.00115391
-2.87352e-08
7.81233e-08
0.000244828
8.20798e-09
-0.00024487
-2.11335e-08
0.00113333
-4.97842e-08
-1.20511e-06
2.63645e-07
-2.46635e-07
-8.71085e-07
2.55676e-07
-2.32786e-07
8.97385e-07
0.00115385
-5.36779e-08
-9.56321e-07
8.10036e-07
-7.77981e-07
9.88426e-07
3.87907e-08
0.000244887
-1.34829e-08
-0.000244837
-9.56822e-08
-4.04564e-08
0.000249724
1.47679e-07
-4.17039e-10
-0.000249829
1.58468e-10
0.000228721
9.23893e-10
2.78033e-08
-0.000228689
0.000192945
-3.01691e-09
-0.000192964
0.000192983
3.86624e-09
-0.000192954
4.66139e-10
0.000228679
-7.52304e-10
-1.87081e-08
-0.000228701
0.000228756
1.33138e-09
2.57067e-08
-0.000228723
-6.25592e-09
0.000192982
-3.31497e-09
-0.000193001
0.00019302
6.26343e-09
3.57785e-09
-0.000192991
0.000228713
1.29058e-11
-1.66079e-08
-0.000228736
1.70725e-09
-4.08455e-08
1.50835e-07
-6.64816e-10
0.000249706
-1.46923e-08
-4.98079e-08
1.22544e-06
-2.47763e-07
2.62331e-07
8.96924e-07
-2.32906e-07
-8.7104e-07
2.55444e-07
-0.0011537
-5.91768e-10
-5.08646e-08
-9.54207e-07
8.06328e-07
9.84624e-07
-7.75932e-07
0.00115368
3.82763e-08
-9.50637e-08
-0.000244846
-1.30336e-08
0.000244898
6.7956e-09
-5.32854e-08
9.85211e-07
-7.75458e-07
-9.53715e-07
8.06907e-07
-2.91413e-08
8.7371e-09
7.86277e-08
0.000244838
-1.06684e-09
5.96427e-08
-0.000249712
-1.77579e-07
1.90908e-09
0.000249829
-4.09276e-08
1.48371e-07
-5.64465e-10
0.000249737
-2.05011e-08
-1.20541e-06
-4.87695e-08
8.97054e-07
-2.33154e-07
-8.71424e-07
2.55382e-07
1.22664e-06
-2.46921e-07
2.634e-07
-0.00115383
-5.02828e-08
-9.57226e-07
8.09099e-07
-7.78893e-07
9.87472e-07
0.0011538
3.84075e-08
2.02071e-08
0.000244904
-9.51127e-08
-0.000244854
-1.34125e-08
-5.26693e-08
9.88009e-07
-7.78415e-07
-9.56787e-07
8.09649e-07
-2.90669e-08
-1.61617e-08
8.19694e-09
7.86314e-08
0.000244846
5.96512e-08
-0.000249743
-1.74963e-07
3.11825e-09
0.000249854
3.40414e-10
-5.49066e-10
-1.8888e-08
0.000228699
-0.000192973
3.44768e-09
0.000193001
-3.53766e-09
0.000192964
1.84593e-11
-0.000228708
1.17555e-09
2.75812e-08
0.000228739
-4.72977e-11
-1.67948e-08
0.000228733
6.29794e-09
0.000193039
-0.00019301
3.48356e-09
-6.13293e-09
-3.45745e-09
0.000193001
-0.000228742
1.26515e-09
2.54629e-08
0.000228775
9.76706e-05
-9.76902e-05
9.77008e-05
-9.76759e-05
9.76808e-05
-9.77004e-05
9.77107e-05
-9.76859e-05
0.000268072
-2.10884e-07
-2.16435e-07
1.87884e-08
-4.49695e-08
-0.000277426
8.50034e-09
1.82839e-08
-4.24496e-08
-0.000277383
9.50194e-09
-1.3508e-08
-8.84013e-09
3.22556e-08
0.000277414
-1.37478e-08
-9.14666e-09
3.00864e-08
0.000277371
9.7711e-05
-9.76862e-05
9.76811e-05
9.77202e-05
-9.76956e-05
9.76908e-05
9.89667e-07
-7.82081e-07
8.1125e-07
-9.6048e-07
-1.91359e-09
-4.98202e-08
-2.91613e-08
7.66538e-08
8.32308e-09
0.000244841
-4.12083e-08
0.000249723
1.49098e-07
1.24939e-09
-6.92463e-10
-6.22025e-09
-3.4998e-09
0.000192971
0.000228721
-1.89713e-08
1.2899e-10
-5.10639e-10
-2.94767e-08
7.93197e-08
0.000244862
8.25489e-09
-6.10848e-09
0.000193019
-3.57813e-09
9.76911e-05
9.77001e-05
-1.94887e-10
1.93066e-08
0.000142823
-1.23323e-09
-0.000142841
-0.000170469
-7.54654e-10
-3.0424e-12
0.000170498
-0.000222671
2.73033e-08
2.55116e-09
0.000222702
-6.00932e-08
-1.88011e-08
-5.64628e-10
-0.000228719
2.44211e-10
4.07221e-08
-0.000170488
2.10983e-11
-1.23308e-09
-0.000222693
4.15927e-08
1.05665e-09
0.000142849
-2.56493e-08
-7.89609e-05
7.89875e-05
-9.90346e-10
3.90463e-09
0.000192988
6.06204e-09
-3.8808e-08
0.000262324
-2.1244e-08
1.29548e-09
3.84527e-08
-0.000262346
0.000262358
-2.48472e-09
-5.30178e-08
1.27619e-09
-7.89834e-05
2.13883e-08
7.89649e-05
-0.000262336
2.55175e-08
0.00026237
-5.27368e-08
-3.24925e-09
-6.19608e-09
2.89033e-08
3.86868e-08
7.89914e-05
8.2602e-10
-2.74433e-08
-0.000142816
2.79495e-08
8.02118e-10
3.12934e-10
-6.04337e-08
0.00017046
1.44418e-10
6.22148e-11
-0.000170478
0.000222661
-1.91567e-08
4.13291e-08
-0.000222683
6.55598e-11
-6.0377e-08
-0.000142833
9.771e-05
-5.68165e-09
-1.89911e-08
6.50961e-09
1.35032e-08
1.72747e-08
-1.1459e-10
0.000142888
-1.09384e-09
-0.000142904
-0.000222749
2.5397e-08
2.15264e-09
0.000222783
-6.02844e-08
-0.000170495
-7.78821e-10
7.43919e-11
0.000170521
-1.02116e-09
-1.67852e-08
-0.000228744
4.83114e-10
4.32839e-08
-1.55799e-09
-0.000222776
4.41616e-08
-0.000170512
1.96516e-10
7.93426e-10
0.000142912
-2.37281e-08
-7.90044e-05
7.90288e-05
-7.09003e-10
5.26719e-09
0.000193008
5.47247e-09
-4.12311e-08
0.00026243
-1.89682e-08
1.62339e-09
4.099e-08
-0.000262456
0.000262469
-2.06764e-09
-5.56e-08
1.18526e-09
-7.90245e-05
1.90866e-08
7.90087e-05
-0.000262442
2.36157e-08
0.000262481
-5.53844e-08
-3.04503e-09
-6.74905e-09
3.10163e-08
4.12108e-08
7.90331e-05
-2.54976e-08
8.9454e-10
-0.00014288
8.2467e-10
2.58623e-08
3.76787e-10
-6.29233e-08
0.000222739
-1.71808e-08
4.15073e-08
-0.000222763
0.000170485
6.6752e-12
2.78526e-10
-0.000170502
-6.29499e-08
1.48832e-10
-0.000142896
9.76907e-05
-5.98649e-09
-2.11831e-08
6.29433e-09
1.57324e-08
-8.54356e-09
-8.57307e-09
0.000213124
1.44139e-08
1.6591e-08
-0.000213138
-8.02864e-05
-1.15517e-08
-1.14839e-08
8.03095e-05
-8.02764e-05
-1.1425e-08
-1.16257e-08
8.02994e-05
1.0737e-08
-8.03057e-05
1.07393e-08
-8.02957e-05
-2.17182e-08
-2.38251e-08
0.000213147
-3.09232e-08
3.01495e-08
-0.000221377
0.00022141
2.18289e-08
-5.4162e-08
0.000250227
-2.19386e-08
6.93599e-08
3.69111e-08
-0.00025028
-4.54765e-08
8.54736e-09
0.000277428
1.89531e-08
-2.00333e-08
0.000182475
2.06869e-08
-1.07155e-08
-0.000182494
0.000250286
-8.91883e-08
-4.59578e-08
0.000182502
1.15134e-08
-1.43247e-08
3.88085e-08
-0.000221403
-3.10014e-08
2.82604e-08
-0.000221319
0.000221352
2.39093e-08
-5.44544e-08
0.000250134
-2.19825e-08
7.43183e-08
3.69469e-08
-0.000250194
-4.30989e-08
9.17048e-09
0.000277383
1.87118e-08
-2.01041e-08
0.000182436
1.86546e-08
-1.07765e-08
-0.000182454
0.0002502
-9.39731e-08
-4.60416e-08
0.000182462
1.15587e-08
-1.65297e-08
3.89529e-08
-0.000221344
2.20141e-08
-2.07779e-08
0.000221384
3.8967e-08
-0.000182484
-3.00539e-08
0.000182511
3.20762e-08
-8.80756e-09
-1.34359e-08
1.61907e-08
-0.000250234
3.08105e-08
0.000250292
-8.89166e-08
-4.58418e-08
6.96e-08
3.69922e-08
0.000221417
-5.40017e-08
2.2059e-08
-1.88118e-08
0.000221326
3.91441e-08
-0.000182445
-2.81115e-08
0.000182471
2.98527e-08
-9.25423e-09
-1.35702e-08
1.62188e-08
-0.00025014
3.08946e-08
0.000250206
-9.37007e-08
-4.59071e-08
7.45519e-08
3.70613e-08
0.000221359
-5.42519e-08
1.15605e-08
1.15429e-08
-0.000213115
8.02827e-05
8.54417e-09
-8.03019e-05
8.02726e-05
8.49583e-09
-8.02919e-05
-0.000213129
-0.000221405
-3.03919e-08
2.96872e-08
2.12615e-08
-5.33304e-08
-2.24484e-08
0.000250251
-0.000250304
7.04756e-08
3.73948e-08
2.11232e-08
0.000182508
-1.09027e-08
-0.000182527
-4.47716e-08
8.49339e-09
1.87146e-08
-1.99057e-08
-1.48585e-08
-0.000221431
3.95935e-08
-8.80321e-08
-4.54542e-08
1.13142e-08
-0.000221347
-3.05869e-08
2.75092e-08
2.36641e-08
-5.34706e-08
-2.24055e-08
0.000250158
-0.000250218
7.54182e-08
3.74559e-08
1.93688e-08
0.000182469
-1.05732e-08
-0.000182487
-4.22285e-08
9.62433e-09
1.81685e-08
-2.01568e-08
-1.6786e-08
-0.000221374
3.98709e-08
-9.28743e-08
-4.56041e-08
1.17995e-08
-0.000213149
1.1587e-08
1.10928e-08
8.54135e-09
8.02973e-05
-8.03167e-05
8.92747e-09
8.02871e-05
-8.03066e-05
-0.000213163
9.77079e-05
-1.86676e-08
1.36424e-08
9.7707e-05
-1.91543e-08
1.3219e-08
-8.83335e-09
-8.50955e-09
0.000213128
1.65828e-08
1.50116e-08
-0.000213143
-8.02898e-05
-1.12257e-08
-1.16276e-08
8.03127e-05
-8.02762e-05
-1.15463e-08
-1.13189e-08
8.02991e-05
1.06327e-08
-8.03093e-05
1.09775e-08
-8.02957e-05
-2.36989e-08
-2.12522e-08
0.000213151
2.79291e-08
-3.07236e-08
-0.000221382
0.000221414
2.37714e-08
-5.3833e-08
0.000250228
-2.21595e-08
7.48607e-08
3.47514e-08
-0.000250286
9.12588e-09
-4.27772e-08
0.000277431
-1.75009e-08
0.000182484
1.89685e-08
-1.0646e-08
-0.000182502
0.00018251
1.15735e-08
0.000250292
-9.35818e-08
-4.30045e-08
-1.6504e-08
3.94272e-08
-0.000221408
2.82241e-08
-3.0258e-08
-0.000221316
0.000221353
2.13961e-08
-5.64383e-08
0.000250137
-2.2674e-08
7.43349e-08
4.03275e-08
-0.000250199
8.54118e-09
-4.32136e-08
0.00027739
-1.92385e-08
0.000182434
1.86794e-08
-1.09873e-08
-0.000182451
0.000182459
1.1334e-08
0.000250205
-9.40604e-08
-4.76905e-08
-1.48708e-08
4.12805e-08
-0.000221347
-1.91697e-08
0.000221388
2.22105e-08
3.97039e-08
-0.000182492
-2.77504e-08
0.000182517
-9.13757e-09
3.01807e-08
1.39577e-08
3.06843e-08
-0.000250234
0.000250297
-9.32633e-08
-4.29357e-08
0.000221421
-5.35612e-08
7.51772e-08
3.48462e-08
-1.88453e-08
0.000221323
2.28413e-08
4.14947e-08
-0.000182441
-2.80448e-08
0.000182467
-9.89687e-09
2.98261e-08
1.70588e-08
3.01146e-08
-0.000250143
0.000250211
-9.37391e-08
-4.7566e-08
0.00022136
-5.62199e-08
7.46473e-08
4.04449e-08
1.13292e-08
1.15848e-08
-0.00021312
8.02864e-05
8.76355e-09
-8.03058e-05
8.02728e-05
8.44811e-09
-8.02922e-05
-0.000213135
-9.77175e-05
1.39779e-08
5.98951e-09
-1.83519e-08
-6.27361e-09
-9.77163e-05
1.34731e-08
6.46924e-09
-1.88913e-08
-5.7331e-09
-0.000213136
1.11489e-08
1.15422e-08
-2.36406e-08
-2.11303e-08
0.000213158
8.93529e-09
8.02931e-05
1.05831e-08
8.52303e-09
8.02795e-05
1.1016e-08
1.6654e-08
1.51627e-08
-1.16522e-08
8.03159e-05
-1.12796e-08
8.03023e-05
-1.95272e-08
2.23402e-08
0.000221401
-0.000221428
-1.67035e-08
4.01642e-08
-0.000250244
3.05221e-08
-9.26096e-08
-4.27486e-08
0.000250307
-8.87586e-09
3.07065e-08
-0.000277453
1.38616e-08
-0.000182507
-2.73524e-08
1.16728e-08
0.000182532
-0.000182525
-1.0536e-08
-0.000250302
7.58147e-08
3.49988e-08
2.35789e-08
-5.31095e-08
0.000221434
-1.91656e-08
2.30268e-08
0.000221336
-0.000221366
-1.52595e-08
4.19254e-08
-0.000250154
2.99608e-08
-9.30843e-08
-4.73675e-08
0.000250222
-9.80068e-09
3.0288e-08
-0.000277411
1.69565e-08
-0.000182456
-2.77412e-08
1.12513e-08
0.000182481
-0.000182474
-1.10561e-08
-0.000250216
7.52796e-08
4.06885e-08
2.10395e-08
-5.58043e-08
0.000221373
-0.000221395
2.756e-08
-3.06172e-08
-5.33171e-08
1.93397e-08
0.0001825
-2.22902e-08
0.000250239
7.55202e-08
3.49247e-08
9.37767e-09
-4.22755e-08
-1.76048e-08
3.99656e-08
-9.29409e-08
-4.28761e-08
-0.000221329
2.7908e-08
-3.00349e-08
-5.60104e-08
1.90139e-08
0.000182449
-2.29861e-08
0.000250148
7.49669e-08
4.06056e-08
8.62314e-09
-4.27425e-08
-1.93154e-08
4.17283e-08
-9.34223e-08
-4.74675e-08
-9.02268e-09
-8.52847e-09
0.000213144
-8.02964e-05
-1.10688e-08
8.03191e-05
-8.02827e-05
-1.15161e-08
8.03055e-05
0.000213166
-2.36205e-10
1.73351e-08
0.000142894
-9.98964e-10
-0.00014291
-0.000170504
-7.04909e-10
0.000170532
-0.000222756
2.53228e-08
2.72125e-09
0.000222791
-6.25501e-08
-1.88408e-08
-3.89971e-10
-0.000228755
4.08065e-08
-0.000170523
-1.03346e-09
-0.000222782
4.42062e-08
8.48965e-10
0.000142918
-2.35333e-08
-7.90057e-05
7.903e-05
-8.5571e-10
4.25848e-09
0.000193022
-3.88662e-08
0.00026243
-1.91868e-08
1.01828e-09
4.12161e-08
-0.000262457
0.000262469
-2.74556e-09
-5.53573e-08
1.01019e-09
-7.90258e-05
1.92665e-08
7.90098e-05
-0.000262443
2.34561e-08
0.000262482
-5.51499e-08
-3.13626e-09
2.90961e-08
4.14077e-08
7.90341e-05
6.77909e-10
-2.54321e-08
-0.000142887
2.79679e-08
1.55476e-09
-6.0401e-08
0.000170494
2.53717e-10
-0.000170513
0.000222746
-1.7233e-08
4.39925e-08
-0.000222771
-6.27947e-08
-0.000142903
-0.000142831
6.23954e-10
-2.71398e-08
1.17452e-09
0.000142856
2.87578e-10
0.000170479
-4.41145e-11
-1.94596e-08
0.00022268
-1.13273e-09
4.1886e-08
2.76819e-08
9.675e-10
0.000228737
1.8185e-10
-5.98417e-08
-1.12383e-09
0.000170507
-8.76271e-11
2.67041e-09
0.000222711
-5.9798e-08
7.89726e-05
2.1711e-08
-7.89953e-05
1.00189e-09
-3.58488e-09
-0.000193006
2.93579e-08
2.51514e-08
-0.000262359
-2.82445e-09
-5.21612e-08
0.000262392
-1.29624e-09
7.8999e-05
-0.000262381
9.82331e-10
3.92935e-08
-7.89688e-05
-2.53379e-08
-2.15589e-08
0.000262348
3.90224e-08
3.59611e-09
-3.84179e-08
-5.24474e-08
0.000142838
-4.55023e-10
1.96214e-08
-1.90881e-08
-3.70866e-10
7.58239e-11
4.13629e-08
-4.69654e-10
-0.000170488
-1.86698e-10
0.000170516
2.69809e-08
-0.000222689
-5.94943e-08
0.00022272
0.000142863
-1.58037e-10
4.21938e-08
-0.000142902
7.42787e-10
-2.52008e-08
8.70326e-10
0.000142925
2.09473e-10
0.000170513
-1.74644e-08
0.000222765
-1.06986e-09
4.44973e-08
2.76992e-08
1.4437e-09
0.000228774
-5.98289e-08
-9.85047e-10
0.000170541
2.68303e-09
0.000222801
-6.22862e-08
1.94376e-08
7.90175e-05
-7.9038e-05
9.84972e-10
-3.31753e-09
-0.00019304
-6.37987e-09
2.95108e-08
-0.000262466
2.32721e-08
-2.64161e-09
-5.46927e-08
0.000262505
-0.000262493
1.09845e-09
4.18791e-08
-8.52511e-10
7.90417e-05
-7.90137e-05
-2.33669e-08
-1.93624e-08
0.000262455
4.16377e-08
4.08718e-09
5.80872e-09
-3.84976e-08
-5.49245e-08
-1.85584e-10
1.75829e-08
0.000142909
-1.91161e-08
-4.96395e-10
4.13967e-08
-0.000170522
-7.73182e-10
0.00017055
-0.000222774
2.50545e-08
-6.19556e-08
0.00022281
4.47992e-08
0.000142932
-8.77379e-09
-8.46779e-09
0.000213136
1.66715e-08
1.50447e-08
-0.000213151
-8.02781e-05
-1.13547e-08
-1.13841e-08
8.03008e-05
-8.02924e-05
-1.16174e-08
-1.11463e-08
8.03152e-05
1.08595e-08
-8.02977e-05
1.11334e-08
-8.0312e-05
-2.37869e-08
-2.12117e-08
0.000213158