/*--------------------------------*- C++ -*----------------------------------*\
| =========                 |                                                 |
| \\      /  F ield         | OpenFOAM: The Open Source CFD Toolbox           |
|  \\    /   O peration     | Version:  v1906                                 |
|   \\  /    A nd           | Web:      www.OpenFOAM.com                      |
|    \\/     M anipulation  |                                                 |
\*---------------------------------------------------------------------------*/
FoamFile
{
    version     2.0;
    format      ascii;
    class       volScalarField;
    location    "500";
    object      epsilon;
}
// * * * * * * * * * * * * * * * * * * * * * * * * * * * * * * * * * * * * * //

dimensions      [0 2 -3 0 0 0 0];


internalField   nonuniform List<scalar> 
42840
(
6.57749e-07
1.1897e-06
1.18613e-06
1.41815e-06
1.41631e-06
1.42578e-06
1.41809e-06
1.19169e-06
1.18951e-06
1.18976e-06
1.18923e-06
1.42232e-06
1.41761e-06
1.19147e-06
1.18582e-06
1.18951e-06
1.19261e-06
1.18908e-06
1.18883e-06
1.18534e-06
1.41497e-06
1.42714e-06
1.18874e-06
1.19215e-06
1.18509e-06
1.41104e-06
1.1859e-06
1.18585e-06
4.24162e-06
9.57103e-06
9.58369e-06
4.24572e-06
1.90773e-05
1.91046e-05
4.23742e-06
9.5813e-06
9.58232e-06
4.23883e-06
6.56533e-07
6.55845e-07
6.57759e-07
6.60873e-07
6.60302e-07
6.61241e-07
6.59361e-07
2.29773e-06
3.65541e-06
9.36986e-07
1.18962e-06
3.64704e-06
9.37351e-07
2.30448e-06
1.90814e-05
1.90641e-05
2.29412e-06
9.36234e-07
3.63973e-06
1.18714e-06
9.36347e-07
3.64333e-06
2.29779e-06
5.64771e-06
5.64649e-06
1.4091e-06
5.63049e-06
5.62925e-06
5.63307e-06
5.63582e-06
1.90982e-05
1.91095e-05
1.91062e-05
1.91096e-05
5.65905e-06
5.65793e-06
1.42123e-06
5.65269e-06
5.65177e-06
1.9107e-05
1.9109e-05
1.91018e-05
1.91074e-05
1.42242e-06
5.64553e-06
5.64778e-06
5.65139e-06
5.65109e-06
4.24129e-06
9.55915e-06
9.58122e-06
4.24555e-06
2.30034e-06
3.65627e-06
9.36952e-07
1.19148e-06
3.6511e-06
9.37703e-07
2.30341e-06
2.30007e-06
3.65529e-06
9.36388e-07
1.18958e-06
3.64868e-06
9.37272e-07
2.3033e-06
4.24054e-06
9.58414e-06
9.58498e-06
4.23632e-06
4.24016e-06
9.58494e-06
9.58431e-06
4.23614e-06
2.29933e-06
1.19064e-06
3.64577e-06
9.38163e-07
3.65037e-06
9.38042e-07
2.29591e-06
2.29902e-06
1.1894e-06
3.64403e-06
9.379e-07
3.64785e-06
9.37697e-07
2.29568e-06
5.65807e-06
5.65712e-06
1.4185e-06
5.64999e-06
5.64765e-06
1.90805e-05
1.91044e-05
1.91064e-05
1.91057e-05
1.4199e-06
5.64415e-06
5.64048e-06
5.64821e-06
5.64565e-06
1.91034e-05
1.91049e-05
2.29697e-06
3.65381e-06
9.36885e-07
1.19093e-06
3.6497e-06
9.37302e-07
2.29858e-06
4.23683e-06
9.57608e-06
9.55834e-06
4.23707e-06
2.29611e-06
9.35461e-07
3.63932e-06
1.18716e-06
9.36094e-07
3.64471e-06
2.29678e-06
4.23754e-06
9.57672e-06
9.58114e-06
4.239e-06
2.29702e-06
1.19013e-06
3.64745e-06
9.38092e-07
3.64956e-06
9.37657e-07
2.29762e-06
4.23762e-06
9.5526e-06
9.5545e-06
4.2401e-06
2.29678e-06
1.19019e-06
9.38188e-07
3.65513e-06
9.37068e-07
3.64878e-06
2.29857e-06
4.23821e-06
9.56468e-06
9.58421e-06
4.24702e-06
2.29651e-06
9.37711e-07
3.65124e-06
1.18674e-06
9.37548e-07
3.63738e-06
2.30382e-06
4.23699e-06
9.60224e-06
9.60579e-06
4.24636e-06
2.29581e-06
1.18914e-06
3.64135e-06
9.37395e-07
3.64589e-06
9.37416e-07
2.29122e-06
4.2358e-06
9.58548e-06
9.58677e-06
4.22989e-06
2.29447e-06
1.18556e-06
9.36697e-07
3.63219e-06
9.37018e-07
3.63514e-06
2.29003e-06
4.23448e-06
9.57681e-06
9.60159e-06
4.22884e-06
5.63589e-06
5.63557e-06
1.4188e-06
5.64598e-06
5.64408e-06
1.90847e-05
1.90647e-05
1.90709e-05
1.90603e-05
1.42401e-06
5.66251e-06
5.65946e-06
5.65185e-06
5.64932e-06
1.90683e-05
1.90601e-05
2.29321e-06
9.37836e-07
3.64881e-06
1.18637e-06
9.37226e-07
3.63571e-06
2.29888e-06
4.23386e-06
9.58236e-06
9.56187e-06
4.23861e-06
4.23256e-06
9.61294e-06
9.60327e-06
4.23929e-06
2.2937e-06
1.18982e-06
9.37486e-07
3.65258e-06
9.36673e-07
3.64667e-06
2.29371e-06
2.29221e-06
1.18524e-06
9.36595e-07
3.63328e-06
9.36736e-07
3.63411e-06
2.29122e-06
4.23324e-06
9.55327e-06
9.55714e-06
4.23354e-06
4.23137e-06
9.56774e-06
9.59417e-06
4.23102e-06
1.91355e-05
1.9124e-05
1.91455e-05
1.91232e-05
1.41034e-06
5.62762e-06
5.6297e-06
5.62765e-06
5.62698e-06
1.908e-05
1.91106e-05
1.9076e-05
1.91065e-05
9.36673e-07
3.63471e-06
2.28975e-06
9.56545e-06
4.22862e-06
3.63735e-06
9.55881e-06
1.90678e-05
1.90658e-05
1.26602e-05
1.12501e-05
4.88711e-06
4.24364e-06
1.12463e-05
4.8894e-06
1.26644e-05
2.27738e-05
9.57694e-06
7.25264e-06
7.24973e-06
2.27582e-05
2.27777e-05
7.24497e-06
9.58025e-06
7.24874e-06
2.27893e-05
1.26581e-05
4.24456e-06
1.12383e-05
4.89224e-06
1.12441e-05
4.89049e-06
1.26513e-05
1.90919e-05
1.9096e-05
1.26633e-05
4.88277e-06
1.125e-05
4.23767e-06
4.88334e-06
1.12503e-05
1.26633e-05
2.27815e-05
9.58244e-06
7.24585e-06
7.24387e-06
2.27791e-05
2.2778e-05
7.24234e-06
9.58244e-06
7.24362e-06
2.27789e-05
1.26639e-05
4.23803e-06
4.88513e-06
1.12508e-05
4.88394e-06
1.12509e-05
1.26633e-05
1.90761e-05
1.90658e-05
9.88381e-06
2.24825e-05
2.24811e-05
2.25163e-05
2.25179e-05
9.87717e-06
4.66414e-06
2.96298e-06
5.64057e-06
1.00055e-05
2.95798e-06
9.99922e-06
4.67095e-06
4.66847e-06
2.96284e-06
5.639e-06
1.00184e-05
2.95777e-06
1.00102e-05
4.67547e-06
4.66124e-06
9.97157e-06
5.63549e-06
2.95297e-06
2.95495e-06
9.98493e-06
4.66039e-06
4.66535e-06
9.9782e-06
5.63391e-06
2.95282e-06
2.9547e-06
9.99377e-06
4.6645e-06
9.89491e-06
2.25737e-05
2.25782e-05
2.25584e-05
2.25621e-05
9.91266e-06
4.70854e-06
2.96972e-06
9.89193e-06
5.63631e-06
4.70078e-06
2.97452e-06
9.88403e-06
4.71459e-06
2.97131e-06
9.89303e-06
5.63965e-06
4.70642e-06
2.97644e-06
9.88516e-06
9.94813e-06
2.22713e-05
2.22627e-05
9.93219e-06
2.22539e-05
2.22459e-05
1.91048e-05
1.9106e-05
1.91092e-05
1.91085e-05
9.97325e-06
2.24397e-05
2.24396e-05
2.24411e-05
2.2443e-05
9.96798e-06
4.71062e-06
2.98457e-06
5.65669e-06
9.9523e-06
9.95575e-06
2.98233e-06
4.71412e-06
4.71485e-06
2.98427e-06
5.65522e-06
9.96406e-06
9.96598e-06
2.98189e-06
4.71869e-06
4.70917e-06
9.95731e-06
5.65555e-06
2.9786e-06
9.95673e-06
4.70562e-06
2.98091e-06
4.71329e-06
9.96505e-06
5.65428e-06
2.97837e-06
9.96585e-06
4.70978e-06
2.9805e-06
9.97559e-06
2.24388e-05
2.24446e-05
2.24438e-05
2.24479e-05
9.98119e-06
1.91077e-05
1.91101e-05
1.91028e-05
1.91069e-05
9.96077e-06
2.24306e-05
2.2427e-05
9.96581e-06
2.24273e-05
2.24221e-05
4.69891e-06
2.97181e-06
5.64759e-06
9.94881e-06
9.95098e-06
2.97357e-06
4.69584e-06
4.70404e-06
2.97299e-06
5.64892e-06
9.94908e-06
9.9521e-06
2.97437e-06
4.70127e-06
4.70049e-06
9.95633e-06
2.97709e-06
5.64868e-06
4.70405e-06
9.95494e-06
2.97494e-06
4.70523e-06
9.96113e-06
2.97713e-06
5.64924e-06
4.7084e-06
9.95834e-06
2.97535e-06
9.95863e-06
2.24152e-05
2.24079e-05
2.2417e-05
2.24101e-05
9.95379e-06
1.26578e-05
1.12497e-05
4.88586e-06
4.2433e-06
1.12456e-05
4.88797e-06
1.26631e-05
2.27648e-05
9.56857e-06
7.25365e-06
7.24983e-06
2.27442e-05
2.27712e-05
7.24347e-06
9.57504e-06
7.24773e-06
2.27865e-05
1.26548e-05
4.2443e-06
1.1237e-05
4.89146e-06
1.1243e-05
4.88952e-06
1.26468e-05
1.26672e-05
1.12512e-05
4.88578e-06
4.23867e-06
1.26653e-05
1.12533e-05
4.88364e-06
2.27929e-05
9.58532e-06
7.23734e-06
2.27944e-05
7.23962e-06
2.27955e-05
7.24384e-06
9.58579e-06
2.27901e-05
7.24036e-06
1.26671e-05
4.23766e-06
1.12541e-05
4.88094e-06
1.26675e-05
1.12535e-05
4.88246e-06
1.2667e-05
1.1251e-05
4.88421e-06
4.23835e-06
1.26645e-05
1.12532e-05
4.88244e-06
2.27949e-05
9.58604e-06
7.23538e-06
7.23667e-06
2.27963e-05
2.27968e-05
7.24118e-06
9.58614e-06
2.27895e-05
7.23798e-06
1.26669e-05
4.23736e-06
1.1254e-05
4.88031e-06
1.12535e-05
4.88126e-06
1.26672e-05
9.94999e-06
2.24544e-05
2.24624e-05
2.2453e-05
2.24605e-05
9.94391e-06
4.70417e-06
2.97995e-06
5.65492e-06
9.93613e-06
9.94596e-06
2.97745e-06
4.70791e-06
4.69904e-06
2.97929e-06
5.65349e-06
9.93492e-06
2.97649e-06
9.94469e-06
4.70293e-06
4.70267e-06
9.95501e-06
5.65325e-06
2.97425e-06
9.95139e-06
2.97599e-06
4.7008e-06
4.6971e-06
9.9535e-06
5.65156e-06
2.97279e-06
2.97482e-06
9.95001e-06
4.69495e-06
9.95602e-06
2.24285e-05
2.24344e-05
2.24487e-05
2.24563e-05
9.96495e-06
1.90937e-05
1.90971e-05
1.91068e-05
1.91084e-05
9.93995e-06
2.24454e-05
2.24531e-05
9.94141e-06
2.24352e-05
2.24422e-05
4.7033e-06
2.97318e-06
5.64493e-06
9.94543e-06
2.97297e-06
9.95031e-06
4.70464e-06
4.69631e-06
2.97098e-06
5.64169e-06
9.9427e-06
9.948e-06
2.97093e-06
4.69754e-06
4.70088e-06
9.95543e-06
2.97353e-06
5.64585e-06
2.97282e-06
4.70079e-06
9.95482e-06
4.69442e-06
9.95381e-06
2.97187e-06
5.64262e-06
4.69459e-06
9.95303e-06
2.97093e-06
9.94204e-06
2.23944e-05
2.23975e-05
2.24082e-05
2.24132e-05
9.94425e-06
1.91045e-05
1.91068e-05
1.26562e-05
1.12475e-05
4.88181e-06
4.23665e-06
1.1248e-05
4.88102e-06
1.26555e-05
2.2772e-05
9.56944e-06
7.23096e-06
7.2313e-06
2.27748e-05
2.27626e-05
7.23548e-06
9.56237e-06
7.23417e-06
2.27621e-05
1.26596e-05
4.23667e-06
1.12501e-05
4.87995e-06
1.12496e-05
4.87994e-06
1.2661e-05
1.2662e-05
4.8827e-06
1.12491e-05
4.23778e-06
1.26622e-05
4.88266e-06
1.1249e-05
2.27698e-05
9.57779e-06
7.2424e-06
2.27704e-05
7.24257e-06
2.27746e-05
7.24248e-06
9.58018e-06
2.27745e-05
7.24192e-06
1.2661e-05
4.23853e-06
4.88362e-06
1.12487e-05
1.26611e-05
4.88324e-06
1.12485e-05
1.2654e-05
1.12463e-05
4.88352e-06
4.23833e-06
1.26538e-05
1.12463e-05
4.88456e-06
2.27524e-05
9.55211e-06
7.24789e-06
7.2463e-06
2.27557e-05
2.27565e-05
7.23978e-06
9.55296e-06
2.27557e-05
7.24154e-06
1.26537e-05
4.23932e-06
1.12465e-05
4.8874e-06
1.1246e-05
4.88636e-06
1.26548e-05
1.26628e-05
4.88298e-06
1.12539e-05
4.24152e-06
4.88656e-06
1.1252e-05
1.26663e-05
2.27772e-05
9.57309e-06
7.25387e-06
7.24894e-06
2.27597e-05
2.27824e-05
7.2401e-06
9.57878e-06
7.24557e-06
2.2796e-05
1.2661e-05
4.24383e-06
4.89294e-06
1.12474e-05
4.88966e-06
1.1251e-05
1.26554e-05
1.26708e-05
1.12554e-05
4.87899e-06
4.24043e-06
1.12542e-05
4.88281e-06
1.26719e-05
2.27986e-05
9.60547e-06
7.24873e-06
7.24102e-06
2.27837e-05
2.28025e-05
7.22838e-06
9.60614e-06
7.23513e-06
2.2811e-05
1.26703e-05
4.24293e-06
1.12509e-05
4.89041e-06
1.12537e-05
4.88643e-06
1.26674e-05
1.26681e-05
4.8799e-06
1.12541e-05
4.23308e-06
1.2667e-05
4.87698e-06
1.12546e-05
2.27992e-05
9.58756e-06
7.22889e-06
7.23059e-06
2.27981e-05
2.28025e-05
7.23668e-06
9.58803e-06
2.27975e-05
7.2324e-06
1.26674e-05
4.23134e-06
4.87353e-06
1.12532e-05
4.87491e-06
1.12539e-05
1.26668e-05
1.26702e-05
1.12553e-05
4.87582e-06
4.2318e-06
1.26711e-05
1.12551e-05
4.87318e-06
2.28015e-05
9.5853e-06
7.21816e-06
7.21847e-06
2.27957e-05
2.281e-05
7.22374e-06
9.59531e-06
2.28095e-05
7.21986e-06
1.26665e-05
4.23011e-06
1.12524e-05
4.8708e-06
1.12535e-05
4.87152e-06
1.26644e-05
9.95004e-06
2.22656e-05
2.22738e-05
2.22697e-05
2.22782e-05
9.9639e-06
4.70612e-06
2.96899e-06
5.63792e-06
9.91852e-06
9.9065e-06
2.97308e-06
4.69886e-06
4.70114e-06
2.96848e-06
5.63726e-06
9.91674e-06
2.9724e-06
9.90474e-06
4.6942e-06
4.71565e-06
9.89188e-06
5.64306e-06
2.98267e-06
9.89663e-06
2.97862e-06
4.72225e-06
4.7102e-06
9.89011e-06
5.64153e-06
2.9814e-06
2.97754e-06
9.89487e-06
4.71646e-06
9.93231e-06
2.23145e-05
2.23232e-05
2.22914e-05
2.23007e-05
9.92e-06
1.90785e-05
1.90671e-05
1.90629e-05
1.90618e-05
9.9916e-06
2.2265e-05
2.22724e-05
9.98051e-06
2.2279e-05
2.22846e-05
4.73811e-06
2.99422e-06
5.66025e-06
9.90652e-06
2.99298e-06
9.89521e-06
4.73927e-06
4.73121e-06
2.9921e-06
5.65719e-06
9.90399e-06
9.89305e-06
2.99095e-06
4.73218e-06
4.73406e-06
9.88976e-06
2.98728e-06
5.65496e-06
2.99017e-06
4.72972e-06
9.89073e-06
4.72751e-06
9.88795e-06
2.98566e-06
5.65222e-06
4.72346e-06
9.88883e-06
2.98838e-06
1.00031e-05
2.2327e-05
2.23289e-05
2.22933e-05
2.22973e-05
1.0009e-05
1.90616e-05
1.9061e-05
1.26612e-05
4.87908e-06
1.12521e-05
4.23521e-06
4.87977e-06
1.12535e-05
1.26596e-05
2.27879e-05
9.57495e-06
7.23183e-06
7.23128e-06
2.2792e-05
2.27757e-05
7.2326e-06
9.56675e-06
7.23197e-06
2.27737e-05
1.2666e-05
4.2365e-06
4.88204e-06
1.12585e-05
4.88062e-06
1.1257e-05
1.2668e-05
1.2673e-05
4.87381e-06
1.12555e-05
4.23446e-06
4.8766e-06
1.12571e-05
1.26709e-05
2.281e-05
9.61246e-06
7.24203e-06
7.23378e-06
2.2809e-05
2.28035e-05
7.22438e-06
9.6083e-06
7.22997e-06
2.28012e-05
1.26771e-05
4.23652e-06
4.88348e-06
1.12616e-05
4.87933e-06
1.12605e-05
1.26782e-05
1.26553e-05
4.87901e-06
1.12488e-05
4.23277e-06
1.26559e-05
4.87901e-06
1.12477e-05
2.27572e-05
9.55333e-06
7.24168e-06
7.24015e-06
2.27574e-05
2.27639e-05
7.23515e-06
9.55497e-06
2.2765e-05
7.23643e-06
1.26539e-05
4.23303e-06
4.88087e-06
1.12449e-05
4.88013e-06
1.12453e-05
1.26542e-05
1.26632e-05
4.87243e-06
1.12518e-05
4.23065e-06
1.26656e-05
4.87151e-06
1.12502e-05
2.27707e-05
9.57556e-06
7.22297e-06
7.22172e-06
2.27672e-05
2.27855e-05
7.22264e-06
9.58652e-06
2.27901e-05
7.22072e-06
1.26573e-05
4.23062e-06
4.87281e-06
1.12454e-05
4.87181e-06
1.12465e-05
1.26553e-05
1.91354e-05
1.91288e-05
1.91419e-05
1.91299e-05
9.88198e-06
2.24275e-05
2.24232e-05
9.87718e-06
2.23932e-05
2.23862e-05
4.68046e-06
2.96275e-06
5.62615e-06
9.90495e-06
4.68879e-06
2.95801e-06
9.91844e-06
4.68531e-06
2.96408e-06
5.62702e-06
9.90601e-06
4.69411e-06
2.95893e-06
9.91984e-06
4.67005e-06
9.95271e-06
2.95276e-06
5.62588e-06
4.6635e-06
2.95352e-06
9.93656e-06
4.67463e-06
9.957e-06
2.95273e-06
5.62596e-06
4.66768e-06
2.95382e-06
9.93881e-06
9.89619e-06
2.23098e-05
2.23006e-05
9.90963e-06
2.23425e-05
2.23342e-05
1.90863e-05
1.91034e-05
1.9081e-05
1.90979e-05
2.27704e-05
7.22123e-06
9.55829e-06
2.27767e-05
7.22391e-06
1.26567e-05
4.22888e-06
1.12494e-05
4.87124e-06
1.2659e-05
1.12482e-05
4.87282e-06
9.55357e-06
1.90649e-05
1.90636e-05
4.45884e-07
4.45946e-07
6.59014e-07
4.47805e-07
4.47854e-07
2.38245e-07
2.36218e-07
2.80038e-06
1.961e-06
1.96084e-06
1.4125e-06
1.95535e-06
1.95512e-06
2.80527e-06
2.83545e-06
1.96647e-06
1.96684e-06
1.41607e-06
2.82985e-06
1.96886e-06
1.96928e-06
2.8345e-06
1.97835e-06
1.97812e-06
1.42292e-06
1.97539e-06
1.97505e-06
2.8378e-06
2.82571e-06
1.42077e-06
1.96705e-06
1.96721e-06
1.96953e-06
1.96951e-06
2.82316e-06
2.82665e-06
1.97379e-06
1.97388e-06
1.41967e-06
1.97084e-06
1.97089e-06
2.82972e-06
2.82564e-06
1.41932e-06
1.96809e-06
1.96765e-06
1.96862e-06
1.96821e-06
2.82635e-06
2.82971e-06
1.96447e-06
1.96462e-06
1.41429e-06
1.96631e-06
1.9662e-06
2.82452e-06
2.85223e-06
1.42801e-06
1.98456e-06
1.98411e-06
1.98464e-06
1.98421e-06
2.85261e-06
2.81362e-06
1.41171e-06
1.95908e-06
1.95922e-06
2.81991e-06
1.95707e-06
1.95714e-06
4.45554e-07
4.45606e-07
6.57981e-07
4.47521e-07
4.4749e-07
2.38151e-07
2.36139e-07
4.45788e-07
4.458e-07
6.57481e-07
4.47649e-07
4.4761e-07
2.38307e-07
2.36261e-07
4.46371e-07
4.46354e-07
6.58195e-07
4.48078e-07
4.48084e-07
2.38411e-07
2.36325e-07
6.60025e-07
4.51126e-07
4.51216e-07
4.49549e-07
4.49604e-07
2.40228e-07
2.42147e-07
6.59196e-07
4.50969e-07
4.50835e-07
4.49325e-07
4.49224e-07
2.40146e-07
2.42088e-07
6.59366e-07
4.51209e-07
4.51089e-07
4.49461e-07
4.49368e-07
2.40294e-07
2.42216e-07
6.58626e-07
4.50995e-07
4.51066e-07
4.49581e-07
4.49621e-07
2.40419e-07
2.42331e-07
1.67209e-06
2.5426e-06
1.54758e-06
2.30016e-06
2.5452e-06
1.5503e-06
1.66865e-06
1.84985e-06
2.2321e-06
3.65197e-06
3.032e-06
2.22926e-06
3.02814e-06
1.85288e-06
1.85044e-06
3.02294e-06
3.65064e-06
2.22567e-06
2.22868e-06
3.02654e-06
1.84707e-06
1.67127e-06
2.30215e-06
2.55007e-06
1.5521e-06
2.54748e-06
1.54983e-06
1.67423e-06
1.66691e-06
1.54488e-06
2.53873e-06
2.29516e-06
1.54697e-06
2.53909e-06
1.66493e-06
1.84208e-06
2.2201e-06
3.63995e-06
3.01803e-06
2.22036e-06
3.01737e-06
1.84382e-06
1.844e-06
3.01861e-06
3.64212e-06
2.2245e-06
2.22359e-06
3.01826e-06
1.84325e-06
1.66573e-06
2.29615e-06
1.549e-06
2.54047e-06
1.54643e-06
2.53944e-06
1.66841e-06
2.79864e-06
1.41298e-06
1.952e-06
1.95176e-06
1.95455e-06
1.95432e-06
2.79781e-06
2.83348e-06
1.42415e-06
1.97233e-06
1.97207e-06
2.83037e-06
1.97529e-06
1.97497e-06
2.82652e-06
1.41954e-06
1.97228e-06
1.97207e-06
2.82943e-06
1.96949e-06
1.96941e-06
1.6731e-06
2.54551e-06
1.54902e-06
2.30181e-06
2.54707e-06
1.55087e-06
1.67031e-06
1.85106e-06
2.23391e-06
3.65426e-06
3.03203e-06
3.02964e-06
2.23178e-06
1.85355e-06
1.85183e-06
3.02636e-06
3.65355e-06
2.22896e-06
3.02903e-06
2.23149e-06
1.84908e-06
1.67204e-06
2.30267e-06
2.54956e-06
1.55083e-06
2.54825e-06
1.54985e-06
1.67391e-06
1.67267e-06
2.54464e-06
1.5489e-06
2.30159e-06
2.54642e-06
1.55075e-06
1.66979e-06
1.8502e-06
2.23187e-06
3.65269e-06
3.03204e-06
3.02903e-06
2.22956e-06
1.85246e-06
1.85091e-06
3.02492e-06
3.65168e-06
2.2266e-06
3.02795e-06
1.84796e-06
2.22922e-06
1.67152e-06
2.30254e-06
2.54939e-06
1.55065e-06
2.54784e-06
1.54969e-06
1.67319e-06
1.66862e-06
2.54426e-06
1.54967e-06
2.2979e-06
1.67134e-06
2.54277e-06
1.54762e-06
1.8479e-06
2.22401e-06
3.64753e-06
3.02137e-06
2.22606e-06
3.02307e-06
1.84542e-06
1.84712e-06
3.02578e-06
2.22865e-06
3.64808e-06
2.22622e-06
1.84983e-06
3.02345e-06
1.66967e-06
2.29704e-06
2.54062e-06
1.54639e-06
2.54175e-06
1.54831e-06
1.66711e-06
1.66802e-06
2.54328e-06
1.54955e-06
2.29759e-06
1.6708e-06
2.54175e-06
1.54747e-06
1.84682e-06
2.22371e-06
3.64515e-06
3.01987e-06
3.02117e-06
2.22479e-06
1.84457e-06
1.84598e-06
3.02398e-06
2.22651e-06
3.64555e-06
1.8487e-06
3.02165e-06
2.22462e-06
1.66909e-06
2.29674e-06
2.53984e-06
1.54625e-06
2.54082e-06
1.54815e-06
1.66662e-06
2.82587e-06
1.42099e-06
1.96877e-06
1.96858e-06
1.97089e-06
1.97099e-06
2.82428e-06
2.82407e-06
1.41775e-06
1.96912e-06
1.96888e-06
1.96776e-06
2.82436e-06
1.96743e-06
1.67071e-06
2.54279e-06
1.54655e-06
2.29743e-06
2.54353e-06
1.54807e-06
1.66843e-06
1.84939e-06
2.23269e-06
3.65178e-06
3.0286e-06
3.0267e-06
2.23028e-06
1.85185e-06
1.85026e-06
3.02513e-06
3.65144e-06
2.2279e-06
3.02666e-06
2.23011e-06
1.84789e-06
1.66954e-06
2.29772e-06
2.54515e-06
1.54904e-06
2.54407e-06
1.54728e-06
1.67199e-06
1.66672e-06
1.54552e-06
2.54071e-06
2.29621e-06
1.54677e-06
2.53994e-06
1.66548e-06
1.84177e-06
2.21968e-06
3.64002e-06
3.01758e-06
3.01748e-06
2.22025e-06
1.84303e-06
1.84451e-06
3.02045e-06
3.64322e-06
2.22516e-06
3.01959e-06
1.84391e-06
2.22403e-06
1.66514e-06
2.29622e-06
1.54754e-06
2.5395e-06
1.54589e-06
2.53925e-06
1.66718e-06
1.6676e-06
2.5426e-06
1.54744e-06
2.29691e-06
1.66967e-06
2.54218e-06
1.54619e-06
1.8477e-06
2.22456e-06
3.64829e-06
3.02354e-06
2.22607e-06
3.02427e-06
1.84583e-06
1.84668e-06
3.02519e-06
2.22786e-06
3.64826e-06
2.22598e-06
1.84882e-06
3.02408e-06
1.66893e-06
2.29747e-06
2.54228e-06
1.54643e-06
2.54239e-06
1.54731e-06
1.66709e-06
1.66719e-06
1.54679e-06
2.54204e-06
2.29719e-06
1.66822e-06
1.54602e-06
2.54312e-06
1.85027e-06
2.23417e-06
3.65405e-06
3.0285e-06
3.02766e-06
2.23388e-06
1.84969e-06
1.84683e-06
3.02366e-06
2.22947e-06
3.65028e-06
1.84735e-06
3.02469e-06
2.23038e-06
1.67001e-06
2.29809e-06
1.54706e-06
2.54547e-06
1.54782e-06
2.54451e-06
1.66897e-06
1.67037e-06
1.54677e-06
2.53864e-06
2.2991e-06
1.54975e-06
2.54171e-06
1.66612e-06
1.84626e-06
2.22634e-06
3.64518e-06
3.02878e-06
2.22032e-06
3.02324e-06
1.85181e-06
1.84616e-06
3.01546e-06
3.64193e-06
2.21488e-06
2.21889e-06
3.01997e-06
1.84149e-06
1.66991e-06
2.30132e-06
1.55212e-06
2.54808e-06
1.54938e-06
2.54473e-06
1.67414e-06
1.66622e-06
2.54052e-06
1.54799e-06
2.29378e-06
1.66948e-06
2.53841e-06
1.54532e-06
1.84531e-06
2.22209e-06
3.64262e-06
3.01668e-06
1.84288e-06
2.2233e-06
3.01806e-06
1.84457e-06
3.02151e-06
2.22538e-06
3.64319e-06
1.84766e-06
2.2232e-06
3.0188e-06
1.66714e-06
2.29244e-06
2.53588e-06
1.54358e-06
1.66439e-06
2.53706e-06
1.54581e-06
1.663e-06
1.54709e-06
2.53623e-06
2.29243e-06
1.66667e-06
1.54428e-06
2.53411e-06
1.83905e-06
2.21367e-06
3.63231e-06
3.00902e-06
3.00971e-06
2.2136e-06
1.83715e-06
1.83828e-06
3.01315e-06
2.21455e-06
3.63278e-06
1.84176e-06
3.01043e-06
2.21284e-06
1.66384e-06
2.29112e-06
1.54254e-06
2.5321e-06
1.54474e-06
2.53289e-06
1.6612e-06
2.83733e-06
1.41925e-06
1.97436e-06
1.97425e-06
1.97264e-06
1.9727e-06
2.84168e-06
2.84956e-06
1.42349e-06
1.98015e-06
1.97987e-06
1.98095e-06
2.84712e-06
1.98063e-06
1.66842e-06
1.54469e-06
2.53577e-06
2.29487e-06
1.54748e-06
2.53807e-06
1.66435e-06
1.8447e-06
2.22517e-06
3.64278e-06
3.02537e-06
2.21906e-06
3.02015e-06
1.85028e-06
1.84468e-06
3.01377e-06
3.63982e-06
2.21396e-06
2.21774e-06
3.01747e-06
1.8403e-06
1.66801e-06
2.29659e-06
1.55039e-06
2.5438e-06
1.5472e-06
2.54058e-06
1.67265e-06
1.66534e-06
1.54561e-06
2.53921e-06
2.29325e-06
1.66656e-06
1.54412e-06
2.53956e-06
1.84885e-06
2.23266e-06
3.65147e-06
3.02549e-06
1.84821e-06
2.23242e-06
3.0247e-06
1.84566e-06
3.02106e-06
2.22839e-06
3.64803e-06
1.84631e-06
2.22916e-06
3.02178e-06
1.66799e-06
2.2935e-06
1.54429e-06
2.54158e-06
1.66692e-06
1.54517e-06
2.54073e-06
1.66199e-06
1.54518e-06
2.53432e-06
2.29138e-06
1.66505e-06
1.54308e-06
2.53324e-06
1.8388e-06
2.21402e-06
3.63266e-06
3.01081e-06
3.01074e-06
2.21353e-06
1.83749e-06
1.83772e-06
3.01233e-06
2.21378e-06
3.63247e-06
1.8407e-06
3.01061e-06
2.21239e-06
1.66312e-06
2.29126e-06
1.5426e-06
2.53321e-06
1.54387e-06
2.53313e-06
1.66126e-06
2.80436e-06
1.40847e-06
1.95271e-06
1.95252e-06
2.79986e-06
1.95268e-06
1.95254e-06
1.83881e-06
2.21704e-06
3.01065e-06
3.6369e-06
2.21853e-06
1.83931e-06
3.0122e-06
1.66119e-06
2.28965e-06
1.54329e-06
2.53237e-06
1.54197e-06
1.66259e-06
2.53303e-06
2.21821e-06
3.63977e-06
2.21993e-06
3.26831e-07
8.74455e-07
8.74633e-07
1.16037e-06
3.43241e-07
8.97737e-07
8.9831e-07
1.17804e-06
3.59434e-07
9.20604e-07
9.20296e-07
1.19762e-06
3.75906e-07
9.42338e-07
9.42216e-07
1.2168e-06
3.9268e-07
9.61612e-07
9.62127e-07
1.23e-06
4.09269e-07
9.82532e-07
9.82046e-07
1.24824e-06
4.25786e-07
1.00016e-06
1.0017e-06
1.26224e-06
4.42137e-07
1.01749e-06
1.01711e-06
1.27634e-06
4.58234e-07
1.03376e-06
1.03293e-06
1.29049e-06
4.74662e-07
1.0511e-06
1.05058e-06
1.30343e-06
4.89493e-07
1.0638e-06
1.06486e-06
1.31408e-06
5.04343e-07
1.07783e-06
1.07843e-06
1.32826e-06
5.2013e-07
1.08943e-06
1.08875e-06
1.32642e-06
5.31391e-07
1.10602e-06
1.10626e-06
1.35658e-06
5.49625e-07
1.1082e-06
1.108e-06
1.35279e-06
5.57181e-07
1.12817e-06
1.1266e-06
1.3646e-06
5.74587e-07
1.12824e-06
1.1418e-06
1.35915e-06
5.84757e-07
1.15021e-06
1.12616e-06
1.39256e-06
5.91604e-07
1.13658e-06
1.16712e-06
1.4205e-06
6.08344e-07
1.16576e-06
1.14772e-06
1.33109e-06
6.15623e-07
1.17401e-06
1.15007e-06
1.4169e-06
6.25665e-07
1.15505e-06
1.19527e-06
1.44922e-06
6.33703e-07
1.1798e-06
1.15653e-06
1.36775e-06
6.3904e-07
1.18134e-06
1.17862e-06
1.40397e-06
6.49268e-07
1.18318e-06
1.18952e-06
1.43884e-06
1.15956e-06
1.17515e-06
8.74488e-07
8.74629e-07
8.93082e-07
8.92066e-07
1.15938e-06
1.17275e-06
8.74351e-07
8.74751e-07
8.92962e-07
8.92415e-07
8.75044e-07
8.91916e-07
8.92361e-07
1.1598e-06
1.17372e-06
8.74913e-07
8.92316e-07
8.92226e-07
1.17297e-06
1.18044e-06
1.19168e-06
8.9884e-07
8.97898e-07
9.1496e-07
9.15121e-07
1.17837e-06
1.19241e-06
8.98734e-07
8.98427e-07
9.14886e-07
9.15293e-07
8.97856e-07
9.14919e-07
9.14739e-07
1.17954e-06
1.19212e-06
8.97733e-07
9.15156e-07
9.14652e-07
1.19174e-06
1.19676e-06
1.20939e-06
9.20321e-07
9.20803e-07
9.36577e-07
9.3741e-07
1.19795e-06
1.21062e-06
9.20249e-07
9.20423e-07
9.36427e-07
9.36714e-07
9.20569e-07
9.37237e-07
9.37786e-07
1.19691e-06
1.20975e-06
9.20482e-07
9.36586e-07
9.37636e-07
1.21191e-06
1.21455e-06
1.22685e-06
9.41889e-07
9.42496e-07
9.57457e-07
9.56722e-07
1.21532e-06
1.22493e-06
9.41733e-07
9.42338e-07
9.57368e-07
9.57463e-07
9.43144e-07
9.56608e-07
9.57252e-07
1.21521e-06
1.22634e-06
9.4298e-07
9.57422e-07
9.5715e-07
1.22549e-06
1.23209e-06
1.24285e-06
9.62638e-07
9.61742e-07
9.77406e-07
9.77714e-07
1.23009e-06
1.24403e-06
9.62569e-07
9.62183e-07
9.77285e-07
9.7709e-07
9.61814e-07
9.77504e-07
9.77044e-07
1.23092e-06
1.24286e-06
9.61729e-07
9.76923e-07
9.76935e-07
1.24298e-06
1.24714e-06
1.2578e-06
9.81905e-07
9.8273e-07
9.95766e-07
9.9604e-07
1.24891e-06
1.25758e-06
9.81772e-07
9.82201e-07
9.95613e-07
9.97066e-07
9.82278e-07
9.95921e-07
9.96341e-07
1.2481e-06
1.26029e-06
9.82154e-07
9.9701e-07
9.96192e-07
1.25817e-06
1.26274e-06
1.27147e-06
1.0006e-06
1.00028e-06
1.0136e-06
1.01335e-06
1.26178e-06
1.27132e-06
1.00048e-06
1.00176e-06
1.01358e-06
1.014e-06
1.00053e-06
1.01317e-06
1.01339e-06
1.26494e-06
1.27136e-06
1.0004e-06
1.01386e-06
1.01337e-06
1.27164e-06
1.27527e-06
1.28583e-06
1.01732e-06
1.01768e-06
1.02973e-06
1.02971e-06
1.27581e-06
1.28507e-06
1.01729e-06
1.01726e-06
1.02954e-06
1.0281e-06
1.01787e-06
1.02962e-06
1.03046e-06
1.27431e-06
1.28216e-06
1.01783e-06
1.02809e-06
1.03029e-06
1.28629e-06
1.29135e-06
1.30183e-06
1.03457e-06
1.03383e-06
1.04797e-06
1.04724e-06
1.28955e-06
1.30103e-06
1.03438e-06
1.03292e-06
1.04787e-06
1.04731e-06
1.03441e-06
1.04707e-06
1.04643e-06
1.28796e-06
1.30096e-06
1.03422e-06
1.04715e-06
1.04633e-06
1.29927e-06
1.3048e-06
1.30833e-06
1.05127e-06
1.05129e-06
1.05998e-06
1.06077e-06
1.30519e-06
1.30956e-06
1.0512e-06
1.05075e-06
1.05986e-06
1.06049e-06
1.05041e-06
1.06062e-06
1.06079e-06
1.30412e-06
1.31021e-06
1.05034e-06
1.06045e-06
1.06068e-06
1.31023e-06
1.3123e-06
1.32089e-06
1.06336e-06
1.06398e-06
1.07389e-06
1.07491e-06
1.31325e-06
1.32208e-06
1.0632e-06
1.06492e-06
1.0738e-06
1.07677e-06
1.06416e-06
1.07477e-06
1.07613e-06
1.316e-06
1.32472e-06
1.06401e-06
1.07663e-06
1.07607e-06
1.32476e-06
1.32507e-06
1.33722e-06
1.07745e-06
1.07792e-06
1.08998e-06
1.0852e-06
1.32505e-06
1.32835e-06
1.07746e-06
1.07851e-06
1.08989e-06
1.08342e-06
1.07964e-06
1.08529e-06
1.08447e-06
1.32588e-06
1.32517e-06
1.07962e-06
1.08371e-06
1.08441e-06
1.32371e-06
1.3408e-06
1.33119e-06
1.09303e-06
1.08961e-06
1.09616e-06
1.10427e-06
1.33428e-06
1.35202e-06
1.09287e-06
1.08884e-06
1.09596e-06
1.10463e-06
1.08599e-06
1.10383e-06
1.10173e-06
1.33345e-06
1.35255e-06
1.08588e-06
1.10421e-06
1.10162e-06
1.35065e-06
1.33304e-06
1.37128e-06
1.09737e-06
1.10616e-06
1.11697e-06
1.10691e-06
1.35365e-06
1.3387e-06
1.09719e-06
1.10638e-06
1.11692e-06
1.10692e-06
1.10728e-06
1.10727e-06
1.11377e-06
1.35359e-06
1.33958e-06
1.10717e-06
1.10736e-06
1.11371e-06
1.35146e-06
1.37817e-06
1.33442e-06
1.12165e-06
1.10797e-06
1.11875e-06
1.12619e-06
1.34276e-06
1.37323e-06
1.12166e-06
1.10767e-06
1.11866e-06
1.12091e-06
1.11416e-06
1.12537e-06
1.12083e-06
1.34312e-06
1.36305e-06
1.11415e-06
1.11981e-06
1.12066e-06
1.36098e-06
1.3331e-06
1.38463e-06
1.11565e-06
1.12861e-06
1.12847e-06
1.12717e-06
1.37611e-06
1.35243e-06
1.11531e-06
1.12715e-06
1.12815e-06
1.14041e-06
1.12416e-06
1.12798e-06
1.12788e-06
1.37059e-06
1.3921e-06
1.12361e-06
1.14136e-06
1.12729e-06
1.3577e-06
1.40229e-06
1.37179e-06
1.14136e-06
1.12746e-06
1.14921e-06
1.14841e-06
1.35494e-06
1.40158e-06
1.14187e-06
1.14085e-06
1.15011e-06
1.12895e-06
1.12813e-06
1.14702e-06
1.13727e-06
1.39352e-06
1.33193e-06
1.12797e-06
1.12808e-06
1.13933e-06
1.37932e-06
1.36393e-06
1.349e-06
1.14203e-06
1.15165e-06
1.13192e-06
1.1398e-06
1.40583e-06
1.34488e-06
1.14193e-06
1.1272e-06
1.13027e-06
1.15292e-06
1.14794e-06
1.14054e-06
1.16558e-06
1.33178e-06
1.42159e-06
1.14781e-06
1.15385e-06
1.16338e-06
1.42162e-06
1.36778e-06
1.41319e-06
1.13626e-06
1.1352e-06
1.16371e-06
1.14969e-06
1.34327e-06
1.40111e-06
1.13543e-06
1.16559e-06
1.16635e-06
1.16417e-06
1.16543e-06
1.15038e-06
1.13917e-06
1.43764e-06
1.36246e-06
1.16354e-06
1.1652e-06
1.14164e-06
1.33345e-06
1.41407e-06
1.38976e-06
1.16603e-06
1.16657e-06
1.16352e-06
1.1813e-06
1.42275e-06
1.42117e-06
1.16812e-06
1.14801e-06
1.16077e-06
1.13751e-06
1.13351e-06
1.17891e-06
1.14507e-06
1.34874e-06
1.35838e-06
1.1353e-06
1.13562e-06
1.14138e-06
1.38882e-06
1.39191e-06
1.40466e-06
1.16312e-06
1.17607e-06
1.16925e-06
1.15391e-06
1.41336e-06
1.35983e-06
1.15992e-06
1.15206e-06
1.1703e-06
1.19398e-06
1.1665e-06
1.15517e-06
1.19547e-06
1.39368e-06
1.45974e-06
1.16188e-06
1.19516e-06
1.19583e-06
1.45474e-06
1.40845e-06
1.40245e-06
1.17172e-06
1.15353e-06
1.17382e-06
1.17418e-06
1.36475e-06
1.41514e-06
1.17404e-06
1.19383e-06
1.17543e-06
1.1614e-06
1.1947e-06
1.17451e-06
1.16493e-06
1.45108e-06
1.35578e-06
1.19592e-06
1.16158e-06
1.16588e-06
1.36797e-06
1.40345e-06
1.40084e-06
1.1736e-06
1.18029e-06
1.1736e-06
1.1842e-06
1.42292e-06
1.41508e-06
1.17342e-06
1.15697e-06
1.17169e-06
1.17008e-06
1.15986e-06
1.18287e-06
1.16233e-06
1.35647e-06
1.41015e-06
1.15954e-06
1.16863e-06
1.16026e-06
1.39137e-06
1.40501e-06
1.41894e-06
1.17499e-06
1.18247e-06
1.18401e-06
1.18097e-06
1.41547e-06
1.41153e-06
1.17299e-06
1.17958e-06
1.18475e-06
1.18967e-06
1.17099e-06
1.18074e-06
1.19168e-06
1.42257e-06
1.42364e-06
1.16954e-06
1.18973e-06
1.19228e-06
1.43532e-06
1.42342e-06
1.42452e-06
1.18704e-06
1.18269e-06
1.19156e-06
1.189e-06
1.41585e-06
1.42087e-06
1.18792e-06
1.18924e-06
1.19152e-06
1.18566e-06
1.1945e-06
1.18935e-06
1.19254e-06
1.42365e-06
1.41119e-06
1.19518e-06
1.18605e-06
1.19238e-06
1.41823e-06
4.09698e-06
9.16498e-06
9.17074e-06
4.09444e-06
1.84334e-05
1.84466e-05
4.09739e-06
9.16659e-06
9.17259e-06
4.09433e-06
3.26892e-07
3.26926e-07
3.27029e-07
3.3913e-07
3.389e-07
3.39096e-07
3.39062e-07
2.11741e-06
3.47894e-06
5.68312e-07
8.80251e-07
3.48166e-06
5.74191e-07
2.11168e-06
1.84321e-05
1.84463e-05
2.11749e-06
5.68358e-07
3.47941e-06
8.80496e-07
5.74292e-07
3.48205e-06
2.11172e-06
5.46532e-06
5.4671e-06
1.16436e-06
5.46856e-06
5.47042e-06
4.10509e-06
9.18027e-06
4.10251e-06
9.18888e-06
1.84563e-05
1.84634e-05
4.10561e-06
9.18233e-06
4.10236e-06
9.19112e-06
3.42967e-07
3.43195e-07
3.43085e-07
3.55377e-07
3.55284e-07
3.55457e-07
3.55267e-07
2.13102e-06
3.4895e-06
5.91735e-07
9.03506e-07
2.12576e-06
3.49275e-06
5.97547e-07
1.84594e-05
1.84654e-05
2.13113e-06
5.91875e-07
3.48977e-06
9.04207e-07
2.12574e-06
5.97703e-07
3.49425e-06
5.4722e-06
5.47418e-06
1.18169e-06
5.47432e-06
5.47633e-06
4.11204e-06
9.19903e-06
4.10949e-06
9.20474e-06
1.84801e-05
1.84918e-05
4.11223e-06
9.20093e-06
4.10977e-06
9.20683e-06
3.59447e-07
3.59513e-07
3.59439e-07
3.71777e-07
3.72017e-07
3.71853e-07
3.72145e-07
2.14405e-06
3.5002e-06
6.14845e-07
9.26267e-07
2.13881e-06
3.50398e-06
6.20592e-07
1.84811e-05
1.84952e-05
2.14393e-06
6.15009e-07
3.49995e-06
9.25502e-07
2.1392e-06
6.20647e-07
3.50184e-06
5.48202e-06
5.4841e-06
1.20234e-06
5.48683e-06
5.48885e-06
4.1205e-06
9.21211e-06
4.1179e-06
9.22006e-06
1.85035e-05
1.8517e-05