/*--------------------------------*- C++ -*----------------------------------*\
| =========                 |                                                 |
| \\      /  F ield         | OpenFOAM: The Open Source CFD Toolbox           |
|  \\    /   O peration     | Version:  v1906                                 |
|   \\  /    A nd           | Web:      www.OpenFOAM.com                      |
|    \\/     M anipulation  |                                                 |
\*---------------------------------------------------------------------------*/
FoamFile
{
    version     2.0;
    format      ascii;
    class       volScalarField;
    location    "500";
    object      epsilon;
}
// * * * * * * * * * * * * * * * * * * * * * * * * * * * * * * * * * * * * * //

dimensions      [0 2 -3 0 0 0 0];


internalField   nonuniform List<scalar> 
43024
(
4.95567e-07
4.9733e-07
4.9733e-07
4.99575e-07
4.45573e-07
4.53735e-07
4.53737e-07
4.6371e-07
4.03752e-07
4.18513e-07
4.18517e-07
4.39411e-07
3.68363e-07
3.88552e-07
3.88558e-07
4.17667e-07
3.38015e-07
3.62102e-07
3.6211e-07
3.96081e-07
3.11646e-07
3.38273e-07
3.38281e-07
3.7458e-07
2.88473e-07
3.16637e-07
3.16646e-07
3.5371e-07
2.67923e-07
2.97021e-07
2.97031e-07
3.34148e-07
2.4958e-07
2.7937e-07
2.79379e-07
3.16484e-07
2.33137e-07
2.63679e-07
2.63688e-07
3.01163e-07
2.18366e-07
2.49955e-07
2.49965e-07
2.885e-07
2.05091e-07
2.38203e-07
2.38211e-07
2.78705e-07
1.93172e-07
2.28419e-07
2.28431e-07
2.71908e-07
1.82502e-07
2.20623e-07
2.20633e-07
2.68274e-07
1.72984e-07
2.14821e-07
2.14861e-07
2.67945e-07
1.64555e-07
2.11118e-07
2.11081e-07
2.71343e-07
1.57183e-07
2.09647e-07
2.09635e-07
2.78858e-07
1.50775e-07
2.10337e-07
2.10596e-07
2.92628e-07
1.45446e-07
2.14092e-07
2.13507e-07
3.0954e-07
1.40846e-07
2.20162e-07
2.20056e-07
3.32053e-07
1.36684e-07
2.26017e-07
2.2321e-07
3.31348e-07
5.06417e-07
5.05584e-07
5.05582e-07
5.06417e-07
5.05583e-07
5.05582e-07
5.09649e-07
5.09649e-07
5.09649e-07
5.09649e-07
5.05584e-07
5.05584e-07
5.06418e-07
5.05584e-07
5.05583e-07
5.06418e-07
4.99575e-07
4.67237e-07
4.97331e-07
4.97335e-07
4.63713e-07
4.63721e-07
4.99575e-07
4.67235e-07
4.97335e-07
4.97336e-07
4.63718e-07
4.63724e-07
4.97332e-07
4.63709e-07
4.63714e-07
4.99575e-07
4.67241e-07
4.97334e-07
4.6371e-07
4.63719e-07
4.6724e-07
4.63709e-07
4.41426e-07
4.5374e-07
4.53748e-07
4.26738e-07
4.26747e-07
4.63708e-07
4.4142e-07
4.53744e-07
4.53751e-07
4.26739e-07
4.26751e-07
4.53741e-07
4.26729e-07
4.26741e-07
4.63711e-07
4.41431e-07
4.53744e-07
4.26734e-07
4.26741e-07
4.41429e-07
4.39407e-07
4.19283e-07
4.18522e-07
4.1853e-07
3.95676e-07
3.95682e-07
4.39405e-07
4.19275e-07
4.18522e-07
4.18535e-07
3.95672e-07
3.95689e-07
4.18525e-07
3.95663e-07
3.95679e-07
4.39413e-07
4.19289e-07
4.18523e-07
3.95669e-07
3.95673e-07
4.19287e-07
4.17662e-07
3.97645e-07
3.88566e-07
3.88571e-07
3.68461e-07
3.68466e-07
4.17656e-07
3.97636e-07
3.8856e-07
3.88578e-07
3.68452e-07
3.68473e-07
3.88569e-07
3.68444e-07
3.68464e-07
4.17669e-07
3.97651e-07
3.88562e-07
3.68452e-07
3.68454e-07
3.97649e-07
3.96076e-07
3.76085e-07
3.6212e-07
3.62124e-07
3.44033e-07
3.44036e-07
3.96069e-07
3.76075e-07
3.62109e-07
3.62131e-07
3.4402e-07
3.44043e-07
3.62123e-07
3.44013e-07
3.44036e-07
3.96082e-07
3.76091e-07
3.62111e-07
3.44021e-07
3.44021e-07
3.7609e-07
3.74575e-07
3.55111e-07
3.38292e-07
3.38295e-07
3.21875e-07
3.21876e-07
3.74568e-07
3.55101e-07
3.38279e-07
3.38303e-07
3.21858e-07
3.21884e-07
3.38296e-07
3.21853e-07
3.21877e-07
3.74582e-07
3.55117e-07
3.3828e-07
3.21862e-07
3.2186e-07
3.55116e-07
3.53704e-07
3.35396e-07
3.16659e-07
3.16661e-07
3.01763e-07
3.01764e-07
3.53696e-07
3.35385e-07
3.16642e-07
3.16668e-07
3.01745e-07
3.01771e-07
3.16662e-07
3.0174e-07
3.01766e-07
3.5371e-07
3.354e-07
3.16644e-07
3.0175e-07
3.01746e-07
3.35401e-07
3.34142e-07
3.17533e-07
2.97044e-07
2.97045e-07
2.83623e-07
2.83624e-07
3.34133e-07
3.17525e-07
2.97026e-07
2.97053e-07
2.83603e-07
2.83631e-07
2.97047e-07
2.836e-07
2.83625e-07
3.34147e-07
3.17541e-07
2.97027e-07
2.83608e-07
2.83604e-07
3.17538e-07
3.16479e-07
3.01976e-07
2.79395e-07
2.79394e-07
2.67442e-07
2.67443e-07
3.16471e-07
3.01965e-07
2.79374e-07
2.79402e-07
2.6742e-07
2.6745e-07
2.79396e-07
2.67418e-07
2.67443e-07
3.16485e-07
3.01984e-07
2.79375e-07
2.67427e-07
2.67422e-07
3.01984e-07
3.01155e-07
2.89049e-07
2.63705e-07
2.63704e-07
2.53229e-07
2.53228e-07
3.01148e-07
2.89035e-07
2.63683e-07
2.63712e-07
2.53206e-07
2.53235e-07
2.63705e-07
2.53202e-07
2.53229e-07
3.01166e-07
2.89051e-07
2.63684e-07
2.53211e-07
2.53206e-07
2.89051e-07
2.88496e-07
2.78959e-07
2.49983e-07
2.49982e-07
2.40985e-07
2.40984e-07
2.88481e-07
2.78955e-07
2.4996e-07
2.4999e-07
2.4096e-07
2.4099e-07
2.49984e-07
2.40957e-07
2.40984e-07
2.88497e-07
2.78964e-07
2.49961e-07
2.40964e-07
2.4096e-07
2.78964e-07
2.787e-07
2.71853e-07
2.38233e-07
2.3823e-07
2.30707e-07
2.30708e-07
2.78696e-07
2.71861e-07
2.38209e-07
2.38239e-07
2.30682e-07
2.30718e-07
2.38231e-07
2.30677e-07
2.30706e-07
2.78704e-07
2.71872e-07
2.38208e-07
2.30689e-07
2.30683e-07
2.71865e-07
2.71896e-07
2.67966e-07
2.2845e-07
2.28447e-07
2.22422e-07
2.22426e-07
2.71904e-07
2.67971e-07
2.28425e-07
2.2846e-07
2.22391e-07
2.22428e-07
2.28449e-07
2.22385e-07
2.22419e-07
2.71913e-07
2.67976e-07
2.28423e-07
2.22389e-07
2.22386e-07
2.6797e-07
2.68272e-07
2.67233e-07
2.20667e-07
2.20671e-07
2.1612e-07
2.1613e-07
2.68273e-07
2.67255e-07
2.20639e-07
2.20676e-07
2.16099e-07
2.16138e-07
2.20668e-07
2.16091e-07
2.16118e-07
2.68273e-07
2.6731e-07
2.20639e-07
2.16108e-07
2.1609e-07
2.67263e-07
2.67936e-07
2.69845e-07
2.14868e-07
2.14859e-07
2.11872e-07
2.11878e-07
2.67968e-07
2.6992e-07
2.14854e-07
2.14897e-07
2.11823e-07
2.11917e-07
2.14871e-07
2.11829e-07
2.11859e-07
2.6801e-07
2.69911e-07
2.14851e-07
2.11846e-07
2.11835e-07
2.69897e-07
2.7138e-07
2.76493e-07
2.1116e-07
2.11166e-07
2.09756e-07
2.09867e-07
2.7145e-07
2.76822e-07
2.11118e-07
2.11152e-07
2.09744e-07
2.09758e-07
2.11124e-07
2.09792e-07
2.0969e-07
2.71417e-07
2.76604e-07
2.11085e-07
2.09674e-07
2.09659e-07
2.765e-07
2.78868e-07
2.88558e-07
2.0963e-07
2.09718e-07
2.10044e-07
2.10068e-07
2.79441e-07
2.8878e-07
2.09562e-07
2.0968e-07
2.09924e-07
2.10203e-07
2.09608e-07
2.10021e-07
2.10083e-07
2.79067e-07
2.89464e-07
2.09612e-07
2.10195e-07
2.10126e-07
2.89426e-07
2.91786e-07
3.05575e-07
2.10408e-07
2.10371e-07
2.1273e-07
2.12842e-07
2.91833e-07
3.06894e-07
2.10287e-07
2.10613e-07
2.12699e-07
2.12432e-07
2.10454e-07
2.12993e-07
2.1233e-07
2.92873e-07
3.05084e-07
2.10509e-07
2.12326e-07
2.12505e-07
3.03959e-07
3.11047e-07
3.2641e-07
2.14086e-07
2.13963e-07
2.18028e-07
2.18432e-07
3.12329e-07
3.29883e-07
2.14027e-07
2.136e-07
2.17786e-07
2.18855e-07
2.13909e-07
2.18117e-07
2.18467e-07
3.09686e-07
3.31401e-07
2.14061e-07
2.18614e-07
2.18339e-07
3.29596e-07
3.29652e-07
3.34452e-07
2.19135e-07
2.2059e-07
2.21486e-07
2.25361e-07
3.36113e-07
3.52144e-07
2.18908e-07
2.20345e-07
2.21699e-07
2.2255e-07
2.19248e-07
2.25195e-07
2.20533e-07
3.35837e-07
3.38882e-07
2.19058e-07
2.22338e-07
2.20315e-07
3.29362e-07
3.3656e-07
2.22364e-07
2.26068e-07
3.53651e-07
2.22672e-07
2.23186e-07
2.21567e-07
3.40193e-07
2.2138e-07
5.35663e-07
5.35601e-07
5.35655e-07
5.35655e-07
5.34573e-07
5.35516e-07
5.33634e-07
5.35654e-07
5.34573e-07
5.35517e-07
5.35654e-07
5.33634e-07
5.35256e-07
5.35986e-07
5.35987e-07
1.10713e-06
3.88088e-06
9.33894e-07
4.60607e-06
1.26081e-05
1.66009e-05
1.10724e-06
3.88111e-06
9.33927e-07
4.60646e-06
4.95567e-07
4.95567e-07
4.95567e-07
4.57231e-07
4.57231e-07
4.57232e-07
4.57232e-07
5.43143e-07
1.22027e-06
4.95565e-07
4.85522e-07
5.25341e-07
1.20946e-06
4.82301e-07
1.26097e-05
1.66035e-05
5.43162e-07
4.95565e-07
1.22025e-06
4.85523e-07
5.2532e-07
4.82302e-07
1.20945e-06
2.52172e-06
2.52242e-06
4.8419e-07
2.37249e-06
2.37288e-06
1.4308e-06
5.59344e-06
1.32967e-06
6.13625e-06
2.12846e-05
2.31103e-05
1.4312e-06
5.59407e-06
1.32973e-06
6.13689e-06
4.45572e-07
4.45573e-07
4.45573e-07
4.13542e-07
4.13542e-07
4.13543e-07
4.13543e-07
5.87084e-07
1.19483e-06
4.46434e-07
4.44291e-07
5.73801e-07
1.20431e-06
4.3569e-07
2.12868e-05
2.3114e-05
5.87102e-07
4.46435e-07
1.19484e-06
4.44294e-07
5.73811e-07
4.35692e-07
1.2044e-06
2.3117e-06
2.31221e-06
4.53488e-07
2.35332e-06
2.35378e-06
1.66327e-06
6.91808e-06
1.59584e-06
7.31979e-06
2.46406e-05
2.49369e-05
1.66337e-06
6.91901e-06
1.59576e-06
7.32108e-06
4.03752e-07
4.03753e-07
4.03753e-07
3.76689e-07
3.76689e-07
3.76691e-07
3.7669e-07
6.15569e-07
1.24281e-06
4.06546e-07
4.10617e-07
6.0838e-07
1.26558e-06
3.97729e-07
2.46437e-05
2.49404e-05
6.15585e-07
4.06547e-07
1.24291e-06
4.10622e-07
6.08396e-07
3.97732e-07
1.26574e-06
2.47396e-06
2.47444e-06
4.30179e-07
2.53269e-06
2.53317e-06
1.81233e-06
7.84653e-06
1.77234e-06
8.09847e-06
2.4737e-05
2.44296e-05
1.81248e-06
7.84715e-06
1.77234e-06
8.10026e-06
3.68362e-07
3.68365e-07
3.68364e-07
3.45192e-07
3.45192e-07
3.45195e-07
3.45194e-07
6.26293e-07
1.31311e-06
3.73478e-07
3.81656e-07
6.24882e-07
1.3337e-06
3.66029e-07
2.47394e-05
2.4433e-05
6.26306e-07
3.7348e-07
1.3132e-06
3.81662e-07
6.24895e-07
3.66032e-07
1.33386e-06
2.63522e-06
2.63571e-06
4.08471e-07
2.67931e-06
2.67982e-06
1.89283e-06
8.39602e-06
1.87318e-06
8.52815e-06
2.3693e-05
2.32641e-05
1.893e-06
8.39661e-06
1.87321e-06
8.53019e-06
3.38014e-07
3.38017e-07
3.38016e-07
3.17912e-07
3.17911e-07
3.17915e-07
3.17914e-07
6.22109e-07
1.37209e-06
3.45239e-07
3.55922e-07
6.25445e-07
1.38709e-06
3.38764e-07
2.36951e-05
2.32671e-05
6.22123e-07
3.45241e-07
1.37218e-06
3.5593e-07
6.25458e-07
3.38768e-07
1.38726e-06
2.76362e-06
2.76414e-06
3.86837e-07
2.80529e-06
2.80584e-06
1.92988e-06
8.664e-06
1.92178e-06
8.71771e-06
2.25026e-05
2.21195e-05
1.93005e-06
8.66466e-06
1.92182e-06
8.72004e-06
3.11645e-07
3.11649e-07
3.11648e-07
2.94001e-07
2.94e-07
2.94004e-07
2.94002e-07
6.08888e-07
1.41602e-06
3.20492e-07
3.32668e-07
6.15378e-07
1.4275e-06
3.14745e-07
2.25038e-05
2.21219e-05
6.08901e-07
3.20493e-07
1.41607e-06
3.32677e-07
6.15391e-07
3.14749e-07
1.42767e-06
2.89521e-06
2.8958e-06
3.65488e-07
2.94325e-06
2.94389e-06
1.94789e-06
8.75904e-06
1.94363e-06
8.77037e-06
2.14781e-05
2.11778e-05
1.94805e-06
8.761e-06
1.94368e-06
8.77281e-06
2.88472e-07
2.88476e-07
2.88475e-07
2.72839e-07
2.72838e-07
2.72842e-07
2.72841e-07
5.91863e-07
1.4527e-06
2.98409e-07
3.11548e-07
5.99369e-07
1.46402e-06
2.93242e-07
2.14792e-05
2.11797e-05
5.91879e-07
2.98411e-07
1.45274e-06
3.11557e-07
5.99382e-07
2.93246e-07
1.46417e-06
3.04921e-06
3.0499e-06
3.45061e-07
3.10578e-06
3.10652e-06
1.96562e-06
8.76791e-06
1.95956e-06
8.76396e-06
2.06747e-05
2.04521e-05
1.96575e-06
8.77101e-06
1.95962e-06
8.7634e-06
2.67922e-07
2.67926e-07
2.67925e-07
2.53977e-07
2.53976e-07
2.5398e-07
2.53978e-07
5.75446e-07
1.4917e-06
2.785e-07
2.92425e-07
5.82272e-07
1.50546e-06
2.73825e-07
2.06756e-05
2.04542e-05
5.75462e-07
2.78501e-07
1.49167e-06
2.92434e-07
5.82288e-07
2.73829e-07
1.5057e-06
3.22624e-06
3.22705e-06
3.26205e-07
3.29147e-06
3.29241e-06
1.99552e-06
8.74936e-06
1.98442e-06
8.74404e-06
2.00715e-05
1.99106e-05
1.99576e-06
8.74921e-06
1.98434e-06
8.7457e-06
2.49579e-07
2.49583e-07
2.49581e-07
2.37082e-07
2.37082e-07
2.37086e-07
2.37084e-07
5.62899e-07
1.53984e-06
2.60474e-07
2.75264e-07
5.6783e-07
1.55774e-06
2.56239e-07
2.00734e-05
1.99123e-05
5.62915e-07
2.60475e-07
1.53986e-06
2.75273e-07
5.67843e-07
2.56243e-07
1.55791e-06
3.422e-06
3.423e-06
3.0945e-07
3.49233e-06
3.49342e-06
2.04517e-06
8.73518e-06
2.02679e-06
8.73081e-06
1.96319e-05
1.9516e-05
2.04536e-06
8.73553e-06
2.02683e-06
8.73348e-06
2.33136e-07
2.3314e-07
2.33138e-07
2.21912e-07
2.21911e-07
2.21915e-07
2.21913e-07
5.56501e-07
1.60111e-06
2.44157e-07
2.60064e-07
5.58636e-07
1.62357e-06
2.40331e-07
1.96337e-05
1.95178e-05
5.5652e-07
2.44158e-07
1.60107e-06
2.60073e-07
5.58658e-07
2.40334e-07
1.62381e-06
3.62777e-06
3.62889e-06
2.95171e-07
3.7003e-06
3.70164e-06
2.11904e-06
8.73035e-06
2.09213e-06
8.73333e-06
1.93167e-05
1.92366e-05
2.11907e-06
8.73285e-06
2.09218e-06
8.73572e-06
2.18364e-07
2.18369e-07
2.18367e-07
2.08277e-07
2.08276e-07
2.08279e-07
2.08278e-07
5.57608e-07
1.67642e-06
2.29438e-07
2.46832e-07
5.56745e-07
1.70375e-06
2.25997e-07
1.93185e-05
1.92383e-05
5.5763e-07
2.29439e-07
1.67652e-06
2.46842e-07
5.56761e-07
2.26001e-07
1.70391e-06
3.83572e-06
3.83687e-06
2.83647e-07
3.90901e-06
3.91075e-06
2.21868e-06
8.73927e-06
2.18291e-06
8.74989e-06
1.90969e-05
1.90397e-05
2.2187e-06
8.74374e-06
2.1828e-06
8.74784e-06
2.05089e-07
2.05094e-07
2.05092e-07
1.9603e-07
1.96029e-07
1.96034e-07
1.96031e-07
5.66954e-07
1.76544e-06
2.16238e-07
2.35569e-07
5.63116e-07
1.79687e-06
2.13166e-07
1.90979e-05
1.90425e-05
5.66947e-07
2.16238e-07
1.76541e-06
2.35581e-07
5.63152e-07
2.13171e-07
1.79702e-06
4.03947e-06
4.04101e-06
2.7504e-07
4.1091e-06
4.11066e-06
2.34339e-06
8.76151e-06
2.29944e-06
8.76465e-06
1.89429e-05
1.89028e-05
2.34384e-06
8.76163e-06
2.29916e-06
8.76746e-06
1.93171e-07
1.93175e-07
1.93173e-07
1.85056e-07
1.85055e-07
1.85058e-07
1.85057e-07
5.8589e-07
1.86574e-06
2.04495e-07
2.26281e-07
5.78709e-07
1.9002e-06
2.0178e-07
1.89456e-05
1.89046e-05
5.85922e-07
2.04496e-07
1.86581e-06
2.26294e-07
5.78769e-07
2.01785e-07
1.90047e-06
4.23041e-06
4.23208e-06
2.69535e-07
4.29387e-06
4.29588e-06
2.49218e-06
8.78024e-06
2.43871e-06
8.78716e-06
1.88337e-05
1.88082e-05
2.49207e-06
8.78476e-06
2.43885e-06
8.78703e-06
1.825e-07
1.82504e-07
1.82503e-07
1.75256e-07
1.75256e-07
1.7526e-07
1.75258e-07
6.1485e-07
1.97428e-06
1.9416e-07
2.18984e-07
6.04496e-07
2.0112e-06
1.91789e-07
1.88342e-05
1.88117e-05
6.14951e-07
1.9416e-07
1.97461e-06
2.19e-07
6.04418e-07
1.91794e-07
2.01112e-06
4.40357e-06
4.40509e-06
2.67266e-07
4.46237e-06
4.46433e-06
2.65594e-06
8.79874e-06
2.59824e-06
8.81381e-06
1.87585e-05
1.87367e-05
2.65722e-06
8.80095e-06
2.59758e-06
8.81381e-06
1.72981e-07
1.72989e-07
1.72987e-07
1.66563e-07
1.66559e-07
1.66569e-07
1.66564e-07
6.5433e-07
2.08843e-06
1.85188e-07
2.13711e-07
6.40463e-07
2.12593e-06
1.83157e-07
1.87619e-05
1.87368e-05
6.54666e-07
1.85195e-07
2.08882e-06
2.13706e-07
6.40576e-07
1.8316e-07
2.12631e-06
4.55773e-06
4.55986e-06
2.6808e-07
4.60716e-06
4.60873e-06
2.83248e-06
8.81755e-06
2.76822e-06
8.8319e-06
1.86972e-05
1.86792e-05
2.83077e-06
8.81915e-06
2.76835e-06
8.83579e-06
1.64553e-07
1.64554e-07
1.64555e-07
1.58929e-07
1.5894e-07
1.58927e-07
1.58917e-07
7.04713e-07
2.20374e-06
1.77557e-07
2.10466e-07
6.86859e-07
2.24085e-06
1.75845e-07
1.87001e-05
1.8681e-05
7.04401e-07
1.77545e-07
2.20377e-06
2.1051e-07
6.86608e-07
1.75846e-07
2.2409e-06
4.68954e-06
4.69154e-06
2.72632e-07
4.73175e-06
4.73385e-06
3.00845e-06
8.8366e-06
2.94475e-06
8.85065e-06
1.86464e-05
1.86368e-05
3.00757e-06
8.83582e-06
2.94756e-06
8.8422e-06
1.57191e-07
1.57188e-07
1.57187e-07
1.52284e-07
1.52289e-07
1.52324e-07
1.52299e-07
7.64576e-07
2.316e-06
1.71248e-07
2.0967e-07
7.43215e-07
2.3517e-06
1.69862e-07
1.86488e-05
1.86383e-05
7.64599e-07
1.71249e-07
2.31657e-06
2.09692e-07
7.43516e-07
1.69899e-07
2.35222e-06
4.79698e-06
4.79851e-06
2.82031e-07
4.83283e-06
4.83455e-06
3.17683e-06
8.84877e-06
3.12071e-06
8.87297e-06
1.86042e-05
1.85928e-05
3.17674e-06
8.86451e-06
3.11551e-06
8.86155e-06
1.50783e-07
1.50809e-07
1.50777e-07
1.46673e-07
1.46678e-07
1.46618e-07
1.46661e-07
8.33808e-07
2.427e-06
1.6625e-07
2.1083e-07
8.09587e-07
2.4576e-06
1.65214e-07
1.86084e-05
1.85976e-05
8.34151e-07
1.66258e-07
2.42721e-06
2.11005e-07
8.11442e-07
1.65167e-07
2.46012e-06
4.89147e-06
4.89319e-06
2.95757e-07
4.91323e-06
4.91499e-06
3.33234e-06
8.87028e-06
3.27761e-06
8.87022e-06
1.85688e-05
1.85538e-05
3.33279e-06
8.86858e-06
3.27828e-06
8.87331e-06
1.45411e-07
1.45399e-07
1.45468e-07
1.41962e-07
1.42046e-07
1.42076e-07
1.41989e-07
9.09416e-07
2.52811e-06
1.62582e-07
2.15111e-07
8.85584e-07
2.55956e-06
1.61829e-07
1.85715e-05
1.85599e-05
9.09163e-07
1.62496e-07
2.5247e-06
2.15076e-07
8.83123e-07
1.61791e-07
2.55522e-06
4.96002e-06
4.96246e-06
3.19332e-07
4.98993e-06
4.99307e-06
3.4837e-06
8.8868e-06
3.43573e-06
8.89594e-06
1.85491e-05
1.8539e-05
3.482e-06
8.89116e-06
3.42592e-06
8.89037e-06
1.41067e-07
1.40984e-07
1.40801e-07
1.37644e-07
1.38093e-07
1.37735e-07
1.3752e-07
9.88414e-07
2.61601e-06
1.60068e-07
2.22168e-07
9.63084e-07
2.6516e-06
1.59666e-07
1.85536e-05
1.85348e-05
9.92746e-07
1.60154e-07
2.62904e-06
2.21105e-07
9.64016e-07
1.59717e-07
2.6651e-06
5.0364e-06
5.03837e-06
3.30791e-07
5.05568e-06
5.05776e-06
3.58514e-06
8.92568e-06
3.54496e-06
8.91817e-06
1.85211e-05
1.85052e-05
3.59063e-06
8.91202e-06
3.55482e-06
8.91496e-06
1.37056e-07
1.36787e-07
1.36665e-07
1.08028e-06
2.72343e-06
1.58974e-07
2.26542e-07
1.05051e-06
2.75397e-06
1.58812e-07
1.85153e-05
1.8496e-05
1.07632e-06
1.58782e-07
2.71813e-06
2.24665e-07
1.0501e-06
1.58572e-07
2.74189e-06
5.08234e-06
5.08513e-06
3.37775e-07
5.10841e-06
5.11076e-06
5.35256e-07
5.3599e-07
5.35988e-07
1.0916e-05
5.81346e-07
1.09173e-05
5.81338e-07
5.28206e-07
2.43128e-06
2.43221e-06
5.40833e-07
5.4083e-07
5.34573e-07
5.35517e-07
5.33635e-07
5.35654e-07
5.34573e-07
5.35517e-07
5.33634e-07
5.35655e-07
5.30398e-07
3.47217e-06
5.68207e-07
8.21113e-07
5.30398e-07
3.4722e-06
5.68206e-07
8.21077e-07
5.29522e-07
5.2838e-07
1.1669e-06
5.09601e-07
5.32664e-07
5.28352e-07
5.19211e-07
5.29522e-07
5.2838e-07
1.16705e-06
5.09601e-07
5.32664e-07
5.28352e-07
5.19213e-07
5.35256e-07
5.35989e-07
5.35988e-07
1.09162e-05
5.81325e-07
5.28207e-07
2.43175e-06
2.4319e-06
5.40834e-07
5.4083e-07
1.09169e-05
5.81319e-07
5.34573e-07
5.35516e-07
5.33634e-07
5.35654e-07
5.34573e-07
5.35517e-07
5.35654e-07
5.33634e-07
5.30398e-07
3.47252e-06
5.68204e-07
8.21258e-07
5.29522e-07
5.2838e-07
1.16717e-06
5.09601e-07
5.32663e-07
5.28352e-07
5.19219e-07
5.30398e-07
3.4726e-06
5.68203e-07
8.21161e-07
5.29522e-07
5.2838e-07
5.09601e-07
1.16707e-06
5.28352e-07
5.32663e-07
5.19214e-07
5.35663e-07
5.35601e-07
5.35655e-07
5.35655e-07
5.35663e-07
5.35601e-07
5.35655e-07
5.35655e-07
5.35663e-07
5.35601e-07
5.35655e-07
5.35655e-07
5.28434e-07
5.28376e-07
5.09725e-07
5.09725e-07
5.28408e-07
5.28408e-07
5.09782e-07
5.28434e-07
5.28375e-07
5.09725e-07
5.09725e-07
5.28408e-07
5.28408e-07
5.09782e-07
5.28434e-07
5.28375e-07
5.09725e-07
5.09725e-07
5.28408e-07
5.28408e-07
5.09782e-07
5.28434e-07
5.28375e-07
5.09725e-07
5.09725e-07
5.28408e-07
5.28408e-07
5.09782e-07
5.34573e-07
5.35517e-07
5.35654e-07
5.33634e-07
5.29522e-07
5.2838e-07
1.16711e-06
5.09601e-07
5.32663e-07
5.28352e-07
5.19217e-07
5.30398e-07
3.4724e-06
5.68198e-07
8.21166e-07
5.29522e-07
5.2838e-07
5.09601e-07
1.16699e-06
5.28352e-07
5.32662e-07
5.19213e-07
5.30398e-07
3.47253e-06
5.68203e-07
8.21112e-07
5.35256e-07
5.35987e-07
5.35986e-07
1.09175e-05
5.81335e-07
5.28206e-07
2.43203e-06
2.43188e-06
5.4083e-07
5.40827e-07
1.09174e-05
5.81314e-07
5.34573e-07
5.35517e-07
5.35654e-07
5.33634e-07
5.29522e-07
5.2838e-07
5.09602e-07
1.16705e-06
5.28352e-07
5.32662e-07
5.19217e-07
5.29522e-07
5.2838e-07
5.09601e-07
1.16717e-06
5.28352e-07
5.32664e-07
5.19219e-07
5.30398e-07
3.47256e-06
5.68197e-07
8.21237e-07
5.30397e-07
3.47258e-06
5.68208e-07
8.21323e-07
5.28206e-07
2.43168e-06
2.43234e-06
5.40828e-07
5.40829e-07
1.09172e-05
5.81318e-07
1.09174e-05
5.81332e-07
1.26079e-05
1.66e-05
1.26095e-05
1.66027e-05
2.52167e-06
2.52241e-06
4.84189e-07
2.37214e-06
2.37287e-06
2.05302e-05
1.76848e-05
2.05337e-05
1.76877e-05
4.793e-07
2.30606e-06
2.30672e-06
2.33927e-06
2.34e-06
1.10698e-06
3.88087e-06
9.34009e-07
4.60601e-06
5.4313e-07
1.22014e-06
4.95565e-07
4.85525e-07
5.25354e-07
1.20939e-06
4.82301e-07
5.43125e-07
1.22033e-06
4.95565e-07
4.85532e-07
5.25362e-07
1.20963e-06
4.82301e-07
1.16104e-06
5.40809e-06
4.81025e-06
1.28052e-06
1.16115e-06
5.40808e-06
4.81032e-06
1.28052e-06
5.50998e-07
4.74299e-07
1.19322e-06
4.57763e-07
1.20476e-06
4.69711e-07
5.66396e-07
5.51001e-07
4.74307e-07
1.1934e-06
4.57763e-07
1.20492e-06
4.69711e-07
5.66391e-07
2.52215e-06
2.5219e-06
4.84188e-07
2.37275e-06
2.37225e-06
1.26086e-05
1.66012e-05
2.05313e-05
1.76866e-05
4.793e-07
2.30659e-06
2.30629e-06
2.33978e-06
2.33961e-06
2.05314e-05
1.76856e-05
5.43161e-07
1.22041e-06
4.95565e-07
4.85529e-07
5.25355e-07
1.20966e-06
4.82302e-07
1.1072e-06
3.88136e-06
9.33773e-07
4.60684e-06
5.43157e-07
4.95565e-07
1.22037e-06
4.85533e-07
5.25344e-07
4.82302e-07
1.20966e-06
1.16106e-06
5.40858e-06
4.81057e-06
1.28068e-06
5.51001e-07
4.74305e-07
1.19342e-06
4.57763e-07
1.20493e-06
4.6971e-07
5.66412e-07
1.16105e-06
5.40908e-06
4.81099e-06
1.28067e-06
5.51e-07
4.74309e-07
4.57764e-07
1.19347e-06
4.69711e-07
1.20498e-06
5.66419e-07
1.10713e-06
3.88084e-06
9.33864e-07
4.60632e-06
5.43141e-07
4.95565e-07
1.22023e-06
4.85525e-07
5.2533e-07
4.82302e-07
1.20951e-06
1.10715e-06
3.88136e-06
9.33703e-07
4.6065e-06
5.50996e-07
4.74296e-07
1.19322e-06
4.57762e-07
1.20476e-06
4.6971e-07
5.66398e-07
1.16108e-06
5.40819e-06
4.80998e-06
1.28061e-06
5.50994e-07
4.743e-07
4.57763e-07
1.19328e-06
4.69711e-07
1.20474e-06
5.66397e-07
1.16098e-06
5.40851e-06
4.81087e-06
1.28059e-06
2.52234e-06
2.52183e-06
4.84191e-07
2.37287e-06
2.37212e-06
1.26094e-05
1.66015e-05
2.05347e-05
1.7688e-05
4.79301e-07
2.30678e-06
2.30623e-06
2.33994e-06
2.33945e-06
2.05321e-05
1.76874e-05
5.4317e-07
4.95565e-07
1.2204e-06
4.8553e-07
5.25332e-07
4.82302e-07
1.20965e-06
1.1074e-06
3.88132e-06
9.33641e-07
4.60655e-06
1.10746e-06
3.88119e-06
9.33758e-07
4.60642e-06
5.50995e-07
4.74297e-07
4.57763e-07
1.19327e-06
4.6971e-07
1.20482e-06
5.66411e-07
5.50994e-07
4.74304e-07
4.57763e-07
1.1934e-06
4.69711e-07
1.20491e-06
5.66418e-07
1.16083e-06
5.40875e-06
4.81083e-06
1.2807e-06
1.16085e-06
5.40873e-06
4.81058e-06
1.28073e-06
1.2609e-05
1.66015e-05
1.26095e-05
1.66023e-05
4.79301e-07
2.30619e-06
2.3067e-06
2.33915e-06
2.33996e-06
2.05315e-05
1.76868e-05
2.05331e-05
1.76881e-05
2.12826e-05
2.31087e-05
2.12864e-05
2.31128e-05
2.31156e-06
2.31225e-06
4.53484e-07
2.35305e-06
2.35365e-06
2.44704e-05
2.35338e-05
2.4474e-05
2.35374e-05
4.50883e-07
2.44249e-06
2.44307e-06
2.3811e-06
2.38167e-06
1.43079e-06
5.59338e-06
1.32965e-06
6.13627e-06
5.87083e-07
1.19482e-06
4.46435e-07
4.44297e-07
5.73802e-07
1.20434e-06
4.35691e-07
5.87078e-07
1.19497e-06
4.46435e-07
4.44306e-07
5.73798e-07
1.20451e-06
4.35692e-07
1.47493e-06
6.77805e-06
6.30124e-06
1.55763e-06
1.47489e-06
6.77799e-06
6.30124e-06
1.5576e-06
5.93329e-07
4.35315e-07
1.23132e-06
4.15788e-07
1.21236e-06
4.2549e-07
6.03618e-07
5.9332e-07
4.35324e-07
1.23143e-06
4.15789e-07
1.21251e-06
4.2549e-07
6.03613e-07
2.31203e-06
2.31174e-06
4.5348e-07
2.35349e-06
2.35315e-06
2.12834e-05
2.31098e-05
2.44715e-05
2.35357e-05
4.50881e-07
2.44294e-06
2.44241e-06
2.38152e-06
2.38146e-06
2.44712e-05
2.35346e-05
5.87101e-07
1.19503e-06
4.46435e-07
4.443e-07
5.73817e-07
1.20451e-06
4.35692e-07
1.4312e-06
5.59438e-06
1.32973e-06
6.13758e-06
5.87103e-07
4.46436e-07
1.19504e-06
4.44309e-07
5.73819e-07
4.35693e-07
1.20458e-06
1.47467e-06
6.77879e-06
6.30201e-06
1.55789e-06
5.93343e-07
4.35318e-07
1.23145e-06
4.1579e-07
1.21252e-06
4.2549e-07
6.03633e-07
1.47467e-06
6.77944e-06
6.30238e-06
1.5579e-06
5.93349e-07
4.35328e-07
4.15791e-07
1.23151e-06
4.25492e-07
1.21265e-06
6.0364e-07
1.43097e-06
5.59334e-06
1.32963e-06
6.1364e-06
5.87088e-07
4.46435e-07
1.19486e-06
4.44299e-07
5.73804e-07
4.35692e-07
1.20444e-06
1.43085e-06
5.59397e-06
1.32973e-06
6.13681e-06
5.93324e-07
4.35309e-07
1.23124e-06
4.15787e-07
1.21237e-06
4.25489e-07
6.0362e-07
1.47479e-06
6.77818e-06
6.30117e-06
1.55767e-06
5.93328e-07
4.35318e-07
4.15789e-07
1.23136e-06
4.2549e-07
1.21244e-06
6.03623e-07
1.47482e-06
6.77877e-06
6.30195e-06
1.55769e-06
2.3123e-06
2.31148e-06
4.53489e-07
2.35376e-06
2.35319e-06
2.12851e-05
2.3111e-05
2.44754e-05
2.35388e-05
4.50886e-07
2.44313e-06
2.44261e-06
2.38207e-06
2.38127e-06
2.44722e-05
2.35366e-05
5.87099e-07
4.46435e-07
1.19496e-06
4.44303e-07
5.73809e-07
4.35692e-07
1.20454e-06
1.4312e-06
5.59411e-06
1.32972e-06
6.13707e-06
1.43107e-06
5.594e-06
1.32971e-06
6.13703e-06
5.93341e-07
4.35311e-07
4.15789e-07
1.23134e-06
4.2549e-07
1.21241e-06
6.03638e-07
5.93338e-07
4.35318e-07
4.15789e-07
1.23146e-06
4.2549e-07
1.21254e-06
6.03636e-07
1.47465e-06
6.7788e-06
6.30195e-06
1.5579e-06
1.47468e-06
6.77879e-06
6.30196e-06
1.55792e-06
2.1285e-05
2.31113e-05
2.12867e-05
2.31128e-05
4.50885e-07
2.4427e-06
2.44317e-06
2.38133e-06
2.38177e-06
2.44725e-05
2.35367e-05
2.44739e-05
2.35382e-05
2.46395e-05
2.49361e-05
2.46424e-05
2.49391e-05
2.47403e-06
2.4743e-06
4.30176e-07
2.53246e-06
2.53308e-06
2.48375e-05
2.49382e-05
2.48402e-05
2.49408e-05
4.28476e-07
2.61088e-06
2.61149e-06
2.56084e-06
2.56115e-06
1.66324e-06
6.91842e-06
1.59581e-06
7.3205e-06
6.15566e-07
1.24289e-06
4.06547e-07
4.10628e-07
6.0838e-07
1.26565e-06
3.9773e-07
6.15561e-07
1.24296e-06
4.06548e-07
4.10635e-07
6.08375e-07
1.26579e-06
3.97731e-07
1.69464e-06
7.75834e-06
7.43353e-06
1.74774e-06
1.69461e-06
7.75932e-06
7.43374e-06
1.74771e-06
6.18842e-07
4.03022e-07
1.30098e-06
3.81227e-07
1.27831e-06
3.89301e-07
6.23022e-07
6.18838e-07
4.03029e-07
1.30116e-06
3.81228e-07
1.2784e-06
3.89302e-07
6.23018e-07
2.47423e-06
2.47401e-06
4.30168e-07
2.53298e-06
2.53236e-06
2.46396e-05
2.49364e-05
2.48384e-05
2.49388e-05
4.28472e-07
2.61142e-06
2.61072e-06
2.56109e-06
2.56077e-06
2.48376e-05
2.49382e-05
6.1559e-07
1.24297e-06
4.06548e-07
4.10626e-07
6.08403e-07
1.26581e-06
3.97732e-07
1.66337e-06
6.91952e-06
1.59576e-06
7.32182e-06
6.15591e-07
4.0655e-07
1.2431e-06
4.10641e-07
6.084e-07
3.97733e-07
1.26586e-06
1.69462e-06
7.76007e-06
7.43446e-06
1.74786e-06
6.18862e-07
4.03019e-07
1.3012e-06
3.8123e-07
1.27847e-06
3.89301e-07
6.23046e-07
1.69462e-06
7.76092e-06
7.43506e-06
1.74786e-06
6.18864e-07
4.03035e-07
3.81231e-07
1.30122e-06
3.89304e-07
1.27854e-06
6.23047e-07
1.66332e-06
6.91825e-06
1.59589e-06
7.32055e-06
6.15572e-07
4.06548e-07
1.24289e-06
4.10631e-07
6.08382e-07
3.97731e-07
1.26572e-06
1.66332e-06
6.91901e-06
1.5959e-06
7.32113e-06
6.18843e-07
4.0301e-07
1.30094e-06
3.81226e-07
1.27825e-06
3.893e-07
6.23026e-07
1.69469e-06
7.75969e-06
7.43375e-06
1.74778e-06
6.18845e-07
4.03025e-07
3.81228e-07
1.30109e-06
3.89302e-07
1.27833e-06
6.23028e-07
1.69469e-06
7.76009e-06
7.43444e-06
1.74777e-06
2.47471e-06
2.47394e-06
4.30181e-07
2.53315e-06
2.53265e-06
2.46414e-05
2.49376e-05
2.48413e-05
2.4942e-05
4.28482e-07
2.61155e-06
2.61106e-06
2.56153e-06
2.56075e-06
2.48391e-05
2.49396e-05
6.15584e-07
4.06549e-07
1.24299e-06
4.10628e-07
6.08396e-07
3.97732e-07
1.26582e-06
1.66336e-06
6.91899e-06
1.59575e-06
7.32113e-06
1.66338e-06
6.91912e-06
1.59577e-06
7.32117e-06
6.18858e-07
4.03015e-07
3.81229e-07
1.3011e-06
3.89301e-07
1.27833e-06
6.2304e-07
6.18859e-07
4.03021e-07
3.81229e-07
1.30119e-06
3.89303e-07
1.27843e-06
6.2304e-07
1.69461e-06
7.76012e-06
7.43454e-06
1.74785e-06
1.69462e-06
7.76052e-06
7.43494e-06
1.74786e-06
2.46416e-05
2.49379e-05
2.4643e-05
2.49392e-05
4.2848e-07
2.61108e-06
2.61158e-06
2.56078e-06
2.56127e-06
2.48393e-05
2.49398e-05
2.48404e-05
2.49411e-05
2.47364e-05
2.44292e-05
2.47382e-05
2.44319e-05
2.63527e-06
2.6356e-06
4.08467e-07
2.67914e-06
2.67975e-06
2.38684e-05
2.42716e-05
2.38712e-05
2.42736e-05
4.06875e-07
2.74224e-06
2.74283e-06
2.7009e-06
2.70152e-06
1.81231e-06
7.84624e-06
1.77232e-06
8.09937e-06
6.26287e-07
1.31319e-06
3.7348e-07
3.81671e-07
6.24879e-07
1.33373e-06
3.6603e-07
6.26285e-07
1.31327e-06
3.73481e-07
3.81676e-07
6.24876e-07
1.33392e-06
3.66031e-07
1.83091e-06
8.3504e-06
8.16341e-06
1.85966e-06
1.8309e-06
8.35172e-06
8.16338e-06
1.85964e-06
6.26731e-07
3.74974e-07
1.36247e-06
3.51931e-07
1.34469e-06
3.58854e-07
6.25634e-07
6.26729e-07
3.74979e-07
1.36267e-06
3.51932e-07
1.34486e-06
3.58856e-07
6.25632e-07
2.63556e-06
2.63517e-06
4.08458e-07
2.67968e-06
2.67895e-06
2.47358e-05
2.44297e-05
2.38691e-05
2.42726e-05
4.06869e-07
2.74277e-06
2.742e-06
2.70148e-06
2.70105e-06
2.38692e-05
2.42714e-05
6.26315e-07
1.31331e-06
3.7348e-07
3.81664e-07
6.249e-07
1.33396e-06
3.66032e-07
1.81246e-06
7.84747e-06
1.77234e-06
8.10082e-06
6.26314e-07
3.73483e-07
1.31341e-06
3.81683e-07
6.24902e-07
3.66034e-07
1.33398e-06
1.83093e-06
8.35236e-06
8.16398e-06
1.85982e-06
6.26755e-07
3.74966e-07
1.36269e-06
3.51933e-07
1.3449e-06
3.58855e-07
6.25664e-07
1.83092e-06
8.35268e-06
8.16428e-06
1.85981e-06
6.26756e-07
3.74986e-07
3.51935e-07
1.36272e-06
3.58858e-07
1.345e-06
6.25663e-07
1.81238e-06
7.84623e-06
1.77239e-06
8.09993e-06
6.26294e-07
3.7348e-07
1.31319e-06
3.81674e-07
6.24882e-07
3.66031e-07
1.33384e-06
1.81236e-06
7.84682e-06
1.77238e-06
8.10004e-06
6.26736e-07
3.74958e-07
1.36244e-06
3.5193e-07
1.34469e-06
3.58853e-07
6.25642e-07
1.83097e-06
8.35225e-06
8.16321e-06
1.85971e-06
6.26735e-07
3.74977e-07
3.51932e-07
1.36258e-06
3.58855e-07
1.34477e-06
6.25642e-07
1.83096e-06
8.35208e-06
8.16368e-06
1.85969e-06
2.63596e-06
2.63519e-06
4.08472e-07
2.67981e-06
2.6793e-06
2.47378e-05
2.44302e-05
2.38723e-05
2.42748e-05
4.06882e-07
2.7429e-06
2.74237e-06
2.70187e-06
2.70109e-06
2.38696e-05
2.42733e-05
6.26308e-07
3.73481e-07
1.31331e-06
3.81666e-07
6.24897e-07
3.66032e-07
1.33396e-06
1.81246e-06
7.84697e-06
1.77233e-06
8.10014e-06
1.81247e-06
7.84747e-06
1.77235e-06
8.10074e-06
6.26748e-07
3.74965e-07
3.51933e-07
1.36259e-06
3.58855e-07
1.34478e-06
6.25655e-07
6.26752e-07
3.74968e-07
3.51933e-07
1.3627e-06
3.58856e-07
1.34489e-06
6.25657e-07
1.83092e-06
8.35239e-06
8.16385e-06
1.85979e-06
1.83093e-06
8.35291e-06
8.16433e-06
1.85981e-06
2.4738e-05
2.44305e-05
2.47391e-05
2.44313e-05
4.0688e-07
2.74237e-06
2.74289e-06
2.70111e-06
2.70161e-06
2.387e-05
2.42735e-05
2.38707e-05
2.42745e-05
2.36923e-05
2.32635e-05
2.36939e-05
2.3266e-05
2.76347e-06
2.76406e-06
3.86832e-07
2.80523e-06
2.80582e-06
2.26704e-05
2.30862e-05
2.26728e-05
2.30875e-05
3.85288e-07
2.87147e-06
2.87212e-06
2.82717e-06
2.8278e-06
1.89282e-06
8.39594e-06
1.87318e-06
8.52992e-06
6.22101e-07
1.37211e-06
3.4524e-07
3.5594e-07
6.25439e-07
1.38714e-06
3.38766e-07
6.221e-07
1.37228e-06
3.45242e-07
3.55944e-07
6.25438e-07
1.38735e-06
3.38767e-07
1.90236e-06
8.64608e-06
8.55816e-06
1.91516e-06
1.90237e-06
8.6481e-06
8.55764e-06
1.91514e-06
6.21487e-07
3.49913e-07
1.40845e-06
3.26405e-07
1.3956e-06