/*--------------------------------*- C++ -*----------------------------------*\
| =========                 |                                                 |
| \\      /  F ield         | OpenFOAM: The Open Source CFD Toolbox           |
|  \\    /   O peration     | Version:  v1906                                 |
|   \\  /    A nd           | Web:      www.OpenFOAM.com                      |
|    \\/     M anipulation  |                                                 |
\*---------------------------------------------------------------------------*/
FoamFile
{
    version     2.0;
    format      ascii;
    class       volScalarField;
    location    "500";
    object      p;
}
// * * * * * * * * * * * * * * * * * * * * * * * * * * * * * * * * * * * * * //

dimensions      [0 2 -2 0 0 0 0];


internalField   nonuniform List<scalar> 
43024
(
0.00360466
0.00360499
0.00360499
0.00360804
0.00354931
0.00354972
0.00354972
0.00355272
0.00349856
0.00349853
0.00349853
0.00350128
0.00344617
0.00344618
0.00344618
0.00344896
0.00339482
0.00339483
0.00339483
0.00339758
0.00334484
0.00334486
0.00334486
0.00334757
0.00329632
0.00329633
0.00329633
0.00329901
0.00324909
0.00324911
0.0032491
0.00325177
0.00320296
0.00320299
0.003203
0.0032056
0.00315773
0.00315775
0.00315776
0.00316035
0.00311322
0.00311323
0.00311324
0.00311581
0.00306931
0.00306933
0.00306933
0.00307187
0.00302593
0.00302594
0.00302592
0.00302846
0.00298301
0.002983
0.00298298
0.00298555
0.00294053
0.00294056
0.00294055
0.00294302
0.00289848
0.00289848
0.0028985
0.00290092
0.00285684
0.00285688
0.00285685
0.00285925
0.00281558
0.00281556
0.00281554
0.00281799
0.00277463
0.00277456
0.00277465
0.00277713
0.00273399
0.00273402
0.00273394
0.00273656
0.0026933
0.00269342
0.00269339
0.00269564
0.00361807
0.00361829
0.00361829
0.00361807
0.00361829
0.00361829
0.00361906
0.00361906
0.00361906
0.00361906
0.00361829
0.00361829
0.00361807
0.0036183
0.0036183
0.00361807
0.00360804
0.00355929
0.00360499
0.00360499
0.00356157
0.00356157
0.00360804
0.00355929
0.00360499
0.00360499
0.00356156
0.00356157
0.00360499
0.00356156
0.00356157
0.00360804
0.00355929
0.00360499
0.00356156
0.00356156
0.00355929
0.00355272
0.00350821
0.00354973
0.00354973
0.00351165
0.00351165
0.00355272
0.00350821
0.00354972
0.00354973
0.00351165
0.00351165
0.00354973
0.00351165
0.00351165
0.00355272
0.00350821
0.00354972
0.00351165
0.00351165
0.00350821
0.00350128
0.00345584
0.00349853
0.00349853
0.0034592
0.0034592
0.00350128
0.00345584
0.00349853
0.00349853
0.0034592
0.0034592
0.00349853
0.0034592
0.0034592
0.00350128
0.00345584
0.00349853
0.0034592
0.0034592
0.00345584
0.00344896
0.00340429
0.00344619
0.00344618
0.00340755
0.00340755
0.00344896
0.00340429
0.00344618
0.00344618
0.00340755
0.00340755
0.00344618
0.00340755
0.00340755
0.00344896
0.00340429
0.00344618
0.00340755
0.00340755
0.00340429
0.00339758
0.00335407
0.00339483
0.00339483
0.0033572
0.00335721
0.00339758
0.00335407
0.00339483
0.00339483
0.00335721
0.0033572
0.00339483
0.00335721
0.00335721
0.00339758
0.00335408
0.00339483
0.00335721
0.00335721
0.00335407
0.00334757
0.00330532
0.00334486
0.00334486
0.00330834
0.00330834
0.00334758
0.00330531
0.00334485
0.00334486
0.00330835
0.00330833
0.00334485
0.00330833
0.00330834
0.00334758
0.00330532
0.00334485
0.00330834
0.00330834
0.00330532
0.00329901
0.00325791
0.00329633
0.00329633
0.00326078
0.00326082
0.00329902
0.00325789
0.00329632
0.00329634
0.0032608
0.00326081
0.00329633
0.00326081
0.0032608
0.00329902
0.00325789
0.00329633
0.00326083
0.0032608
0.00325789
0.00325177
0.00321159
0.00324912
0.0032491
0.00321442
0.00321441
0.00325175
0.0032116
0.00324913
0.0032491
0.0032144
0.00321442
0.00324913
0.00321442
0.00321441
0.00325175
0.0032116
0.00324913
0.00321441
0.00321442
0.00321158
0.00320561
0.00316622
0.00320297
0.003203
0.003169
0.00316898
0.0032056
0.00316621
0.00320299
0.00320299
0.00316901
0.00316899
0.00320298
0.00316898
0.00316898
0.0032056
0.00316621
0.00320298
0.00316897
0.00316897
0.00316622
0.00316033
0.00312159
0.00315775
0.00315775
0.00312429
0.00312432
0.00316034
0.00312159
0.00315774
0.00315773
0.0031243
0.00312432
0.00315777
0.00312434
0.00312432
0.00316035
0.00312159
0.00315778
0.00312433
0.00312432
0.00312158
0.00311582
0.00307757
0.00311326
0.00311325
0.00308026
0.00308027
0.0031158
0.00307758
0.00311325
0.00311326
0.00308026
0.00308024
0.00311322
0.00308026
0.00308026
0.0031158
0.00307757
0.00311323
0.00308026
0.00308027
0.00307757
0.00307188
0.00303408
0.00306932
0.00306935
0.00303673
0.00303675
0.00307187
0.00303408
0.00306934
0.00306935
0.00303672
0.00303676
0.00306934
0.00303673
0.00303674
0.00307187
0.00303407
0.00306931
0.00303674
0.00303672
0.00303408
0.00302847
0.00299111
0.00302595
0.00302594
0.00299371
0.00299375
0.00302845
0.00299107
0.00302595
0.00302593
0.00299371
0.00299372
0.00302593
0.00299373
0.00299368
0.00302845
0.00299106
0.00302594
0.00299371
0.00299368
0.0029911
0.00298554
0.00294855
0.00298303
0.002983
0.00295109
0.0029511
0.0029855
0.00294855
0.00298304
0.00298299
0.0029511
0.00295109
0.00298304
0.00295112
0.00295114
0.0029855
0.00294854
0.00298305
0.00295108
0.00295112
0.00294855
0.00294304
0.00290643
0.00294053
0.00294054
0.0029089
0.00290896
0.00294304
0.00290643
0.00294053
0.00294055
0.00290891
0.00290898
0.00294052
0.00290897
0.00290895
0.00294304
0.00290643
0.00294051
0.00290897
0.00290893
0.00290638
0.00290099
0.00286474
0.00289851
0.00289848
0.00286717
0.0028672
0.00290096
0.00286474
0.00289849
0.00289849
0.00286718
0.00286724
0.00289841
0.0028672
0.0028672
0.00290097
0.00286473
0.00289842
0.00286722
0.00286721
0.00286468
0.00285934
0.00282334
0.00285685
0.00285687
0.0028258
0.00282583
0.00285935
0.0028234
0.00285685
0.00285685
0.00282583
0.00282583
0.00285677
0.00282582
0.00282583
0.00285933
0.00282335
0.00285679
0.00282582
0.00282583
0.00282333
0.00281799
0.00278244
0.00281552
0.00281555
0.0027849
0.00278489
0.00281804
0.00278233
0.00281555
0.00281557
0.0027849
0.00278491
0.00281553
0.00278487
0.00278487
0.00281801
0.00278246
0.00281554
0.00278493
0.00278486
0.00278248
0.00277709
0.00274185
0.00277463
0.00277456
0.00274414
0.00274414
0.00277699
0.00274185
0.00277466
0.00277465
0.00274415
0.00274408
0.00277463
0.00274416
0.00274399
0.0027771
0.00274162
0.00277465
0.00274406
0.00274399
0.00274177
0.00273661
0.00270116
0.00273407
0.00273402
0.00270345
0.00270344
0.00273657
0.00270124
0.00273406
0.00273394
0.00270345
0.00270364
0.002734
0.00270344
0.00270353
0.00273639
0.00270138
0.00273403
0.00270362
0.0027035
0.00270115
0.00269582
0.00269332
0.00269344
0.00269601
0.00269331
0.00269341
0.00269316
0.00269598
0.00269315
0.00362645
0.00363621
0.00363101
0.00363101
0.00365339
0.00364017
0.00366878
0.00363422
0.00365339
0.00364017
0.00363422
0.00366878
0.00364474
0.00367252
0.00367252
0.0035818
0.00360095
0.00361014
0.00357388
0.00357462
0.00357739
0.00358178
0.00360093
0.00361013
0.00357386
0.00360466
0.00360466
0.00360466
0.00356126
0.00356126
0.00356126
0.00356126
0.0035793
0.00360513
0.00360506
0.00358813
0.00360815
0.00357821
0.00358901
0.00357472
0.00357739
0.00357931
0.00360506
0.00360514
0.00358813
0.00360815
0.00358901
0.0035782
0.003611
0.00361099
0.00358253
0.00357784
0.00357784
0.00353517
0.00355445
0.00355581
0.00353371
0.00355336
0.00353327
0.00353517
0.00355444
0.00355581
0.0035337
0.00354931
0.0035493
0.0035493
0.00351172
0.00351172
0.00351172
0.00351172
0.00353376
0.00355453
0.0035493
0.00353744
0.00355332
0.0035343
0.00353717
0.00355336
0.00353326
0.00353376
0.0035493
0.00355453
0.00353743
0.00355331
0.00353717
0.0035343
0.00355555
0.00355554
0.00353399
0.00353463
0.00353463
0.00348291
0.00350171
0.00350279
0.00348189
0.00350135
0.0034816
0.00348291
0.00350171
0.00350279
0.00348188
0.00349856
0.00349856
0.00349856
0.00345918
0.00345918
0.00345918
0.00345918
0.00348201
0.00350211
0.00349843
0.00348539
0.00350155
0.00348237
0.00348529
0.00350135
0.0034816
0.00348201
0.00349843
0.00350211
0.00348539
0.00350155
0.00348529
0.00348237
0.00350236
0.00350236
0.003482
0.00348244
0.00348244
0.00343038
0.00344904
0.0034499
0.00342962
0.00344883
0.00342944
0.00343038
0.00344904
0.0034499
0.00342962
0.00344617
0.00344617
0.00344617
0.00340754
0.00340754
0.00340754
0.00340754
0.00342988
0.00344945
0.00344613
0.00343324
0.00344916
0.00343006
0.0034332
0.00344883
0.00342944
0.00342988
0.00344613
0.00344945
0.00343323
0.00344916
0.0034332
0.00343006
0.00344948
0.00344948
0.00342992
0.00343
0.00343
0.00337919
0.00339754
0.00339818
0.00337863
0.0033974
0.0033785
0.00337919
0.00339754
0.00339817
0.00337863
0.00339482
0.00339482
0.00339482
0.0033572
0.0033572
0.0033572
0.0033572
0.00337892
0.00339789
0.0033948
0.0033822
0.00339772
0.00337902
0.00338217
0.0033974
0.0033785
0.00337892
0.0033948
0.00339789
0.00338219
0.00339772
0.00338217
0.00337902
0.00339788
0.00339788
0.003379
0.00337894
0.00337894
0.00332954
0.00334749
0.00334795
0.00332915
0.00334738
0.00332903
0.00332954
0.00334749
0.00334795
0.00332915
0.00334484
0.00334484
0.00334484
0.00330832
0.00330832
0.00330832
0.00330832
0.00332942
0.0033478
0.00334483
0.00333259
0.00334768
0.00332949
0.00333257
0.00334737
0.00332903
0.00332943
0.00334483
0.0033478
0.00333259
0.00334768
0.00333257
0.00332949
0.00334778
0.00334778
0.00332952
0.00332941
0.00332941
0.00328137
0.00329892
0.00329924
0.0032811
0.00329881
0.00328099
0.00328137
0.00329892
0.00329924
0.00328109
0.00329632
0.00329632
0.00329632
0.00326078
0.00326079
0.00326079
0.00326079
0.00328135
0.00329918
0.0032963
0.00328442
0.00329909
0.00328141
0.00328438
0.00329882
0.00328098
0.00328135
0.0032963
0.00329919
0.00328443
0.00329908
0.00328439
0.0032814
0.00329918
0.00329918
0.00328145
0.00328133
0.00328133
0.00323448
0.00325167
0.0032519
0.00323429
0.00325158
0.00323418
0.00323448
0.00325167
0.0032519
0.00323427
0.00324909
0.00324909
0.0032491
0.0032144
0.0032144
0.0032144
0.0032144
0.00323452
0.00325188
0.00324908
0.00323748
0.00325182
0.00323458
0.00323745
0.00325158
0.00323419
0.00323453
0.00324908
0.00325188
0.0032375
0.00325181
0.00323745
0.00323457
0.0032519
0.0032519
0.0032346
0.00323448
0.00323448
0.00318865
0.00320552
0.00320568
0.00318847
0.00320544
0.00318839
0.00318863
0.00320551
0.0032057
0.00318849
0.00320296
0.00320296
0.00320296
0.00316897
0.00316896
0.00316896
0.00316896
0.00318872
0.00320572
0.00320295
0.00319159
0.00320565
0.00318876
0.00319157
0.00320544
0.0031884
0.00318872
0.00320296
0.00320573
0.00319157
0.00320566
0.00319156
0.00318876
0.00320574
0.00320574
0.0031888
0.00318866
0.00318866
0.00314366
0.00316026
0.00316041
0.00314351
0.00316018
0.00314344
0.00314366
0.00316027
0.00316039
0.00314352
0.00315773
0.00315773
0.00315773
0.00312428
0.00312429
0.00312429
0.00312429
0.00314375
0.00316045
0.00315772
0.00314659
0.00316041
0.00314379
0.00314654
0.00316017
0.00314345
0.00314375
0.00315773
0.00316046
0.00314657
0.00316041
0.00314653
0.00314379
0.00316045
0.00316045
0.00314382
0.00314369
0.00314369
0.00309934
0.00311572
0.00311587
0.00309922
0.00311566
0.00309915
0.00309936
0.00311574
0.00311587
0.00309922
0.00311322
0.00311322
0.00311322
0.00308024
0.00308024
0.00308024
0.00308024
0.00309948
0.00311592
0.00311321
0.00310221
0.00311586
0.0030995
0.00310219
0.00311566
0.00309916
0.00309947
0.00311321
0.00311592
0.00310221
0.00311587
0.0031022
0.0030995
0.0031159
0.00311592
0.00309951
0.0030994
0.00309938
0.00305561
0.0030718
0.00307192
0.00305549
0.00307173
0.00305539
0.0030556
0.00307178
0.00307194
0.0030555
0.00306931
0.00306931
0.00306931
0.00303672
0.00303673
0.00303673
0.00303672
0.00305577
0.00307197
0.00306931
0.00305843
0.00307194
0.00305577
0.00305841
0.00307173
0.00305539
0.00305579
0.00306931
0.00307196
0.00305843
0.00307193
0.00305841
0.00305579
0.00307197
0.00307195
0.00305578
0.00305562
0.00305564
0.00301236
0.00302836
0.0030285
0.00301227
0.00302828
0.0030122
0.00301236
0.00302837
0.0030285
0.00301226
0.00302592
0.00302592
0.00302593
0.00299369
0.0029937
0.00299369
0.00299369
0.00301255
0.00302857
0.00302592
0.00301517
0.00302855
0.00301251
0.00301517
0.00302827
0.0030122
0.00301254
0.00302592
0.00302856
0.00301518
0.00302856
0.00301517
0.00301253
0.00302849
0.00302849
0.00301254
0.00301241
0.00301241
0.00296962
0.00298546
0.00298554
0.00296945
0.00298539
0.00296938
0.0029696
0.00298544
0.00298555
0.00296946
0.002983
0.002983
0.00298301
0.0029511
0.00295111
0.0029511
0.00295111
0.00296976
0.0029856
0.00298303
0.00297235
0.00298564
0.00296973
0.00297235
0.00298537
0.00296939
0.00296979
0.00298301
0.00298558
0.00297239
0.00298562
0.00297237
0.00296976
0.00298557
0.00298557
0.00296975
0.00296958
0.00296959
0.00292727
0.00294291
0.00294303
0.00292713
0.00294282
0.0029271
0.00292726
0.00294293
0.00294303
0.00292711
0.00294053
0.00294053
0.00294052
0.00290894
0.00290895
0.00290895
0.00290894
0.00292749
0.00294308
0.00294054
0.00292996
0.00294308
0.00292737
0.00292994
0.00294283
0.00292709
0.00292747
0.00294054
0.00294309
0.00292998
0.00294311
0.00292997
0.00292737
0.00294299
0.00294298
0.00292745
0.00292725
0.00292726
0.00288533
0.00290084
0.00290097
0.0028852
0.0029008
0.00288514
0.00288534
0.00290085
0.00290095
0.00288517
0.00289847
0.00289847
0.00289846
0.00286721
0.00286721
0.00286722
0.0028672
0.00288556
0.00290098
0.00289845
0.00288801
0.00290104
0.00288546
0.00288804
0.00290082
0.00288514
0.00288552
0.00289848
0.00290099
0.002888
0.00290111
0.00288806
0.00288545
0.00290096
0.00290097
0.00288554
0.00288527
0.00288525
0.00284383
0.00285916
0.00285931
0.00284372
0.00285913
0.00284368
0.00284378
0.00285921
0.0028593
0.0028437
0.00285684
0.00285683
0.00285682
0.00282584
0.00282586
0.00282585
0.00282584
0.00284405
0.00285934
0.00285684
0.00284648
0.00285945
0.00284397
0.00284653
0.00285916
0.00284367
0.00284406
0.00285686
0.00285934
0.00284646
0.00285943
0.00284651
0.00284398
0.00285932
0.00285934
0.00284402
0.00284375
0.00284375
0.00280265
0.00281784
0.00281798
0.00280249
0.00281784
0.00280247
0.0028026
0.00281784
0.00281801
0.00280255
0.00281558
0.00281558
0.00281558
0.00278486
0.00278484
0.00278487
0.00278485
0.00280292
0.00281795
0.00281559
0.00280531
0.00281815
0.0028028
0.00280536
0.00281786
0.00280248
0.00280291
0.00281559
0.002818
0.00280532
0.00281815
0.00280537
0.00280271
0.00281804
0.00281805
0.00280297
0.00280252
0.00280252
0.00276178
0.00277705
0.00277705
0.00276169
0.00277698
0.00276176
0.00276177
0.00277703
0.00277707
0.00276164
0.00277462
0.00277464
0.00277461
0.00274414
0.00274412
0.00274408
0.00274411
0.00276214
0.00277705
0.00277461
0.00276433
0.00277715
0.00276186
0.00276443
0.00277695
0.00276173
0.00276195
0.00277469
0.0027771
0.00276433
0.00277723
0.00276443
0.00276192
0.00277709
0.0027771
0.00276179
0.00276193
0.00276189
0.00272108
0.00273621
0.00273633
0.0027209
0.00273614
0.00272103
0.00272106
0.00273621
0.00273628
0.00272093
0.00273395
0.00273396
0.00273402
0.00270346
0.00270351
0.00270352
0.00270344
0.00272139
0.00273632
0.00273396
0.00272378
0.00273633
0.00272118
0.00272374
0.00273619
0.00272093
0.00272126
0.00273397
0.00273625
0.0027238
0.00273643
0.00272383
0.00272096
0.00273599
0.00273601
0.00272192
0.00272046
0.00272044
0.00268037
0.00269538
0.00269556
0.00268037
0.00269528
0.00268006
0.0026804
0.00269546
0.0026956
0.00268033
0.00269339
0.00269329
0.00269318
0.00268069
0.00269549
0.00269334
0.00268334
0.00269568
0.00268033
0.00268315
0.00269521
0.00268026
0.00268074
0.00269332
0.00269558
0.00268304
0.0026958
0.00268306
0.00268058
0.00269565
0.00269566
0.00268011
0.00268078
0.00268081
0.00364474
0.00367251
0.00367252
0.00363687
0.00367204
0.00363684
0.00367206
0.00364159
0.00362865
0.00362866
0.00366732
0.00366733
0.00365337
0.00364017
0.00366877
0.00363421
0.00365337
0.00364017
0.00366877
0.00363421
0.00365789
0.00362894
0.00366917
0.00362374
0.00365789
0.00362892
0.00366917
0.00362375
0.00364897
0.0036377
0.00362011
0.00362052
0.00366404
0.00363265
0.00362074
0.00364897
0.00363769
0.00362011
0.00362052
0.00366404
0.00363265
0.00362074
0.00364474
0.00367251
0.00367252
0.00363683
0.00367204
0.00364159
0.00362864
0.00362867
0.00366732
0.00366733
0.00363686
0.00367205
0.00365339
0.00364017
0.00366878
0.00363422
0.00365339
0.00364017
0.00363422
0.00366878
0.00365791
0.00362893
0.00366919
0.00362376
0.00364899
0.0036377
0.00362012
0.00362052
0.00366405
0.00363266
0.00362075
0.00365791
0.00362894
0.00366918
0.00362375
0.00364899
0.0036377
0.00362052
0.00362012
0.00363266
0.00366405
0.00362075
0.00362645
0.00363621
0.003631
0.00363101
0.00362645
0.00363621
0.00363101
0.00363101
0.00362645
0.00363621
0.00363101
0.00363101
0.00362521
0.00363429
0.00361718
0.00361718
0.00362957
0.00362957
0.00361535
0.00362521
0.00363429
0.00361718
0.00361718
0.00362957
0.00362957
0.00361535
0.00362521
0.00363429
0.00361718
0.00361718
0.00362958
0.00362958
0.00361535
0.00362521
0.00363429
0.00361718
0.00361718
0.00362957
0.00362958
0.00361535
0.00365339
0.00364017
0.00363422
0.00366877
0.00364899
0.0036377
0.00362011
0.00362052
0.00366405
0.00363266
0.00362075
0.00365791
0.00362894
0.00366918
0.00362376
0.00364899
0.0036377
0.00362052
0.00362012
0.00363266
0.00366405
0.00362075
0.00365791
0.00362893
0.00366918
0.00362375
0.00364474
0.00367252
0.00367252
0.00363682
0.00367205
0.0036416
0.00362865
0.00362865
0.00366733
0.00366733
0.00363681
0.00367205
0.00365339
0.00364017
0.00363422
0.00366878
0.00364899
0.0036377
0.00362052
0.00362012
0.00363266
0.00366405
0.00362075
0.00364899
0.0036377
0.00362052
0.00362012
0.00363266
0.00366405
0.00362075
0.00365791
0.00362894
0.00366919
0.00362375
0.00365791
0.00362895
0.00366919
0.00362376
0.0036416
0.00362865
0.00362866
0.00366733
0.00366733
0.00363682
0.00367205
0.00363685
0.00367206
0.00357462
0.00357738
0.00357472
0.00357736
0.00361096
0.003611
0.00358254
0.00357784
0.00357784
0.00356013
0.00357703
0.00356013
0.00357704
0.00357588
0.00356274
0.00356274
0.00357599
0.00357599
0.0035818
0.00360093
0.00361014
0.00357388
0.00357933
0.00360513
0.00360506
0.00358813
0.00360815
0.00357821
0.00358901
0.00357932
0.00360513
0.00360506
0.00358813
0.00360815
0.00357822
0.00358901
0.00357725
0.00356186
0.00357478
0.00356261
0.00357725
0.00356186
0.00357478
0.00356261
0.0035743
0.00357382
0.00356155
0.0035613
0.00357537
0.00357424
0.00355989
0.00357429
0.00357382
0.00356155
0.0035613
0.00357537
0.00357424
0.00355989
0.00361095
0.003611
0.00358255
0.00357784
0.00357784
0.00357477
0.00357737
0.00356013
0.00357704
0.00357588
0.00356274
0.00356274
0.00357599
0.00357599
0.00356012
0.00357704
0.0035793
0.00360513
0.00360506
0.00358813
0.00360815
0.00357821
0.00358901
0.00358179
0.00360094
0.00361012
0.00357388
0.00357931
0.00360506
0.00360513
0.00358813
0.00360815
0.00358901
0.00357821
0.00357725
0.00356186
0.00357478
0.00356261
0.00357428
0.00357382
0.00356155
0.0035613
0.00357537
0.00357423
0.00355989
0.00357725
0.00356186
0.00357479
0.00356261
0.00357429
0.00357382
0.0035613
0.00356154
0.00357423
0.00357537
0.00355989
0.00358178
0.00360094
0.00361013
0.00357387
0.00357931
0.00360506
0.00360514
0.00358813
0.00360815
0.00358901
0.00357821
0.00358179
0.00360095
0.00361012
0.00357387
0.00357428
0.00357382
0.00356155
0.0035613
0.00357536
0.00357423
0.00355989
0.00357725
0.00356186
0.00357478
0.00356261
0.00357429
0.00357382
0.0035613
0.00356155
0.00357423
0.00357536
0.00355989
0.00357725
0.00356187
0.00357477
0.00356261
0.00361099
0.003611
0.00358253
0.00357785
0.00357784
0.00357473
0.00357737
0.00356013
0.00357705
0.00357588
0.00356274
0.00356274
0.003576
0.00357598
0.00356013
0.00357701
0.0035793
0.00360506
0.00360513
0.00358813
0.00360815
0.00358901
0.00357821
0.00358179
0.00360095
0.00361012
0.00357386
0.00358178
0.00360094
0.00361013
0.00357387
0.00357429
0.00357382
0.0035613
0.00356155
0.00357423
0.00357536
0.00355989
0.00357428
0.00357382
0.0035613
0.00356154
0.00357424
0.00357536
0.00355989
0.00357725
0.00356186
0.00357478
0.00356261
0.00357725
0.00356186
0.00357478
0.00356261
0.00357475
0.00357737
0.00357475
0.00357737
0.00357588
0.00356274
0.00356273
0.00357599
0.00357599
0.00356014
0.00357702
0.00356012
0.00357703
0.00355336
0.00353327
0.00355335
0.00353326
0.00355554
0.00355554
0.00353399
0.00353463
0.00353463
0.00350788
0.00352684
0.00350788
0.00352684
0.00352719
0.00350895
0.00350895
0.00352817
0.00352817
0.00353517
0.00355445
0.00355581
0.00353371
0.00353376
0.00355453
0.0035493
0.00353744
0.00355332
0.0035343
0.00353717
0.00353376
0.00355453
0.0035493
0.00353744
0.00355332
0.0035343
0.00353717
0.00352865
0.00350829
0.00352733
0.00350939
0.00352864
0.00350829
0.00352733
0.00350939
0.00352723
0.00352467
0.00350876
0.00351155
0.00352785
0.00352454
0.00350822
0.00352723
0.00352468
0.00350876
0.00351155
0.00352785
0.00352454
0.00350822
0.00355554
0.00355555
0.00353399
0.00353464
0.00353464
0.00355336
0.00353327
0.00350788
0.00352684
0.00352719
0.00350895
0.00350895
0.00352817
0.00352817
0.00350788
0.00352684
0.00353376
0.00355452
0.0035493
0.00353744
0.00355332
0.0035343
0.00353717
0.00353517
0.00355444
0.00355581
0.0035337
0.00353376
0.0035493
0.00355452
0.00353744
0.00355331
0.00353716
0.0035343
0.00352864
0.00350829
0.00352733
0.00350939
0.00352722
0.00352467
0.00350876
0.00351155
0.00352785
0.00352454
0.00350822
0.00352864
0.00350829
0.00352733
0.00350939
0.00352722
0.00352467
0.00351155
0.00350876
0.00352454
0.00352785
0.00350822
0.00353517
0.00355445
0.00355581
0.00353371
0.00353376
0.0035493
0.00355453
0.00353744
0.00355332
0.00353717
0.0035343
0.00353517
0.00355445
0.00355581
0.00353371
0.00352723
0.00352467
0.00350876
0.00351156
0.00352785
0.00352454
0.00350822
0.00352864
0.00350828
0.00352733
0.00350939
0.00352722
0.00352467
0.00351155
0.00350876
0.00352454
0.00352785
0.00350822
0.00352864
0.00350829
0.00352733
0.00350939
0.00355554
0.00355555
0.00353398
0.00353463
0.00353463
0.00355336
0.00353327
0.00350788
0.00352684
0.00352719
0.00350895
0.00350895
0.00352817
0.00352817
0.00350788
0.00352684
0.00353376
0.0035493
0.00355452
0.00353743
0.00355331
0.00353717
0.0035343
0.00353518
0.00355445
0.00355581
0.00353371
0.00353518
0.00355444
0.00355581
0.00353371
0.00352723
0.00352467
0.00351156
0.00350876
0.00352454
0.00352785
0.00350822
0.00352723
0.00352467
0.00351156
0.00350876
0.00352454
0.00352785
0.00350822
0.00352865
0.00350829
0.00352733
0.00350939
0.00352865
0.00350829
0.00352733
0.00350939
0.00355336
0.00353326
0.00355335
0.00353327
0.00352719
0.00350895
0.00350895
0.00352817
0.00352817
0.00350788
0.00352684
0.00350788
0.00352684
0.00350135
0.0034816
0.00350135
0.0034816
0.00350236
0.00350236
0.003482
0.00348244
0.00348244
0.00345538
0.00347498
0.00345538
0.00347498
0.00347505
0.00345605
0.00345605
0.00347578
0.00347578
0.00348291
0.00350171
0.00350279
0.00348189
0.00348201
0.00350211
0.00349843
0.00348539
0.00350155
0.00348237
0.00348529
0.00348201
0.00350211
0.00349843
0.00348539
0.00350155
0.00348237
0.00348529
0.00347624
0.00345559
0.00347524
0.00345649
0.00347624
0.00345559
0.00347524
0.00345649
0.00347529
0.00347227
0.00345607
0.00345913
0.00347567
0.00347219
0.00345582
0.00347529
0.00347227
0.00345607
0.00345914
0.00347567
0.00347219
0.00345581
0.00350235
0.00350236
0.003482
0.00348244
0.00348244
0.00350135
0.0034816
0.00345538
0.00347498
0.00347505
0.00345605
0.00345605
0.00347578
0.00347578
0.00345538
0.00347498
0.00348201
0.00350211
0.00349843
0.00348539
0.00350155
0.00348237
0.00348529
0.00348291
0.00350171
0.00350279
0.00348189
0.00348201
0.00349843
0.00350211
0.00348539
0.00350155
0.00348529
0.00348237
0.00347624
0.00345559
0.00347524
0.00345649
0.00347529
0.00347227
0.00345607
0.00345914
0.00347567
0.00347219
0.00345581
0.00347624
0.00345559
0.00347524
0.00345649
0.00347529
0.00347227
0.00345914
0.00345607
0.00347219
0.00347567
0.00345581
0.00348291
0.00350171
0.00350279
0.00348189
0.00348201
0.00349843
0.00350211
0.00348539
0.00350155
0.00348529
0.00348237
0.00348291
0.00350171
0.00350279
0.00348189
0.00347529
0.00347227
0.00345607
0.00345914
0.00347567
0.00347219
0.00345581
0.00347624
0.00345559
0.00347524
0.00345649
0.00347529
0.00347227
0.00345914
0.00345607
0.00347219
0.00347567
0.00345581
0.00347624
0.00345559
0.00347524
0.00345649
0.00350235
0.00350236
0.003482
0.00348244
0.00348244
0.00350135
0.0034816
0.00345538
0.00347498
0.00347505
0.00345605
0.00345605
0.00347578
0.00347578
0.00345538
0.00347498
0.00348201
0.00349843
0.00350211
0.00348539
0.00350155
0.00348529
0.00348237
0.00348291
0.00350171
0.00350279
0.00348189
0.00348291
0.00350171
0.00350279
0.00348189
0.00347529
0.00347227
0.00345914
0.00345607
0.00347219
0.00347567
0.00345581
0.00347529
0.00347227
0.00345914
0.00345607
0.00347219
0.00347567
0.00345581
0.00347624
0.00345559
0.00347524
0.00345649
0.00347624
0.00345559
0.00347524
0.00345649
0.00350135
0.0034816
0.00350135
0.0034816
0.00347505
0.00345605
0.00345605
0.00347578
0.00347578
0.00345538
0.00347498
0.00345538
0.00347498
0.00344883
0.00342944
0.00344883
0.00342944
0.00344948
0.00344948
0.00342992
0.00343
0.00343
0.00340379
0.00342296
0.00340379
0.00342296
0.00342312
0.00340428
0.00340428
0.00342351
0.00342351
0.00343038
0.00344904
0.0034499
0.00342962
0.00342988
0.00344945
0.00344614
0.00343323
0.00344916
0.00343006
0.0034332
0.00342988
0.00344945
0.00344613
0.00343324
0.00344916
0.00343006
0.0034332
0.00342387
0.00340394
0.00342313
0.0034046
0.00342387
0.00340394
0.00342313
0.0034046
0.00342329
0.00342036
0.00340436
0.00340752
0.00342351
0.00342032
0.00340422
0.00342329
0.00342036
0.00340436
0.00340752
0.00342351
0.00342032
0.00340422
0.00344948
0.00344948
0.00342992
0.00343
0.00343
0.00344883
0.00342944
0.00340379
0.00342296
0.00342312
0.00340428
0.00340428
0.00342351
0.00342351
0.00340379
0.00342296
0.00342988
0.00344945
0.00344613
0.00343323
0.00344916
0.00343006
0.0034332
0.00343038
0.00344904
0.0034499
0.00342962
0.00342988
0.00344613
0.00344945
0.00343324
0.00344916
0.0034332
0.00343006
0.00342387
0.00340394
0.00342313
0.0034046
0.00342329
0.00342035
0.00340436
0.00340752
0.00342351
0.00342032
0.00340422
0.00342387
0.00340394
0.00342313
0.0034046
0.00342329
0.00342036
0.00340752
0.00340436
0.00342032
0.00342351
0.00340422
0.00343039
0.00344904
0.0034499
0.00342961
0.00342988
0.00344613
0.00344945
0.00343324
0.00344916
0.0034332
0.00343006
0.00343038
0.00344904
0.0034499
0.00342962
0.00342329
0.00342035
0.00340436
0.00340752
0.00342351
0.00342032
0.00340422
0.00342387
0.00340394
0.00342313
0.0034046
0.00342329
0.00342035
0.00340752
0.00340436
0.00342032
0.00342351
0.00340422
0.00342387
0.00340394
0.00342313
0.0034046
0.00344948
0.00344948
0.00342992
0.00343
0.00343
0.00344883
0.00342944
0.00340379
0.00342296
0.00342312
0.00340427
0.00340427
0.00342351
0.00342351
0.00340379
0.00342296
0.00342988
0.00344613
0.00344945
0.00343324
0.00344916
0.0034332
0.00343006
0.00343038
0.00344904
0.0034499
0.00342962
0.00343038
0.00344904
0.0034499
0.00342961
0.00342329
0.00342035
0.00340752
0.00340436
0.00342032
0.00342351
0.00340422
0.00342329
0.00342035
0.00340752
0.00340436
0.00342032
0.00342351
0.00340422
0.00342387
0.00340394
0.00342313
0.0034046
0.00342387
0.00340394
0.00342313
0.0034046
0.00344883
0.00342944
0.00344883
0.00342944
0.00342312
0.00340428
0.00340428
0.00342351
0.00342351
0.00340379
0.00342296
0.00340379
0.00342296
0.0033974
0.0033785
0.0033974
0.0033785
0.00339788
0.00339788
0.003379
0.00337894
0.00337894
0.00335357
0.0033722
0.00335357
0.0033722
0.00337239
0.00335399
0.00335398
0.00337264
0.00337263
0.00337919
0.00339754
0.00339818
0.00337863
0.00337892
0.00339789
0.0033948
0.00338219
0.00339772
0.00337903
0.00338217
0.00337892
0.0033979
0.0033948
0.0033822
0.00339772
0.00337902
0.00338217
0.00337287
0.0033537
0.00337233
0.00335417
0.00337287
0.0033537
0.00337233
0.00335417
0.00337252
0.00336966
0.00335408
0.00335718
0.00337265
0.00336963
0.00335399
0.00337251
0.00336966
0.00335406
0.00335718
0.00337265
0.00336963
0.00335399
0.00339788
0.00339788
0.003379
0.00337893
0.00337893
0.0033974
0.0033785
0.00335359
0.0033722
0.00337239
0.00335398
0.00335398
0.00337263
0.00337263
0.00335358
0.0033722
0.00337892
0.00339789
0.0033948
0.00338219
0.00339772
0.00337903
0.00338217
0.00337919
0.00339754
0.00339817
0.00337863
0.00337892
0.0033948
0.0033979
0.00338219
0.00339772
0.00338217
0.00337903
0.00337287
0.0033537
0.00337233
0.00335417
0.00337251
0.00336966
0.00335407
0.00335718
0.00337265
0.00336963
0.00335399
0.00337287
0.0033537
0.00337233
0.00335417
0.00337252
0.00336966
0.00335718
0.00335407
0.00336963
0.00337266
0.00335399
0.00337919
0.00339754
0.00339817
0.00337863
0.00337892
0.0033948
0.00339789
0.0033822
0.00339772
0.00338217
0.00337903
0.00337919
0.00339754
0.00339817
0.00337863
0.00337251
0.00336966
0.00335407
0.00335718
0.00337265
0.00336963
0.00335399
0.00337286
0.0033537
0.00337233
0.00335417
0.00337251
0.00336965
0.00335718
0.00335407
0.00336963
0.00337265
0.00335399
0.00337286
0.0033537
0.00337233
0.00335417
0.00339788
0.00339788
0.003379
0.00337893
0.00337893
0.0033974
0.0033785
0.00335358
0.0033722
0.00337239
0.00335398
0.00335398
0.00337264
0.00337264
0.00335358
0.0033722
0.00337892
0.0033948
0.00339789
0.0033822
0.00339772
0.00338217
0.00337903
0.00337919
0.00339754
0.00339817
0.00337863
0.00337919
0.00339754
0.00339817
0.00337863
0.00337251
0.00336966
0.00335718
0.00335407
0.00336963
0.00337266
0.00335399
0.00337251
0.00336965
0.00335718
0.00335407
0.00336963
0.00337265
0.00335399
0.00337286
0.0033537
0.00337233
0.00335417
0.00337286
0.0033537
0.00337233
0.00335417
0.0033974
0.0033785
0.0033974
0.0033785
0.00337239
0.00335399
0.00335399
0.00337264
0.00337264
0.00335358
0.00337219
0.00335358
0.00337219
0.00334738
0.00332903
0.00334737
0.00332903
0.00334778
0.00334777
0.00332952
0.00332941
0.00332941
0.00330485
0.00332293
0.00330485
0.00332292
0.00332312
0.0033052
0.00330521
0.0033233
0.00332329
0.00332954
0.00334749
0.00334795
0.00332914
0.00332943
0.00334779
0.00334483
0.00333259
0.00334768
0.0033295
0.00333256
0.00332943
0.0033478
0.00334483
0.00333259
0.00334768
0.00332949
0.00333257
0.00332341
0.00330496
0.00332303
0.00330528
0.00332341
0.00330495
0.00332303
0.00330528
0.00332321
0.00332042
0.00330529
0.00330831
0.0033233
0.00332039
0.00330522
0.00332321
0.00332042
0.00330528
0.00330831
0.00332331