/*--------------------------------*- C++ -*----------------------------------*\
| =========                 |                                                 |
| \\      /  F ield         | OpenFOAM: The Open Source CFD Toolbox           |
|  \\    /   O peration     | Version:  v1906                                 |
|   \\  /    A nd           | Web:      www.OpenFOAM.com                      |
|    \\/     M anipulation  |                                                 |
\*---------------------------------------------------------------------------*/
FoamFile
{
    version     2.0;
    format      ascii;
    class       surfaceScalarField;
    location    "500";
    object      phi;
}
// * * * * * * * * * * * * * * * * * * * * * * * * * * * * * * * * * * * * * //

dimensions      [0 3 -1 0 0 0 0];
oriented        oriented;


internalField   nonuniform List<scalar> 
124908
(
-0.00104221
-1.45815e-05
-1.44777e-05
9.34771e-06
9.17762e-06
0.00105274
-0.00026146
-5.64183e-06
1.44583e-05
6.83957e-06
0.00105941
-4.53274e-06
-1.62486e-06
-2.21805e-06
-2.57554e-06
-6.59143e-06
-7.04426e-06
-3.16376e-06
-0.000263303
-0.000259727
-0.000262829
-0.000261437
-5.64682e-06
1.44873e-05
6.92911e-06
0.0010592
-4.53785e-06
-1.63504e-06
-2.22566e-06
-2.57985e-06
-6.58552e-06
-7.04033e-06
-3.16594e-06
-0.000259699
-0.000263274
-0.000262793
-0.000260564
5.61732e-06
5.65742e-06
-4.87815e-06
-4.87221e-06
0.00025904
-1.63187e-06
-1.63376e-06
-0.00106073
8.98536e-07
8.99306e-07
0.0010622
-0.00106267
-1.60665e-06
1.62783e-06
8.28416e-07
0.00106395
-6.5388e-07
7.84507e-07
-1.48149e-07
3.78005e-07
-8.00669e-07
-1.39484e-06
-2.90553e-07
-0.00106235
-1.60156e-06
1.63834e-06
8.23606e-07
0.00106363
-6.53859e-07
7.79016e-07
-1.48196e-07
3.75389e-07
-8.03196e-07
-1.39452e-06
-2.88009e-07
-0.000261533
1.63927e-06
1.60171e-06
-7.13272e-07
-7.16417e-07
0.000259722
-1.36115e-06
-1.36256e-06
-0.0010664
6.82257e-07
6.83066e-07
0.00106775
-0.0010679
-1.55714e-06
1.36729e-06
6.90348e-07
0.00106925
-6.21821e-07
8.38602e-07
-1.06604e-07
4.24422e-07
-7.80365e-07
-1.35992e-06
-2.45167e-07
-0.00106758
-1.55189e-06
1.3621e-06
6.95673e-07
0.00106892
-6.21823e-07
8.33198e-07
-1.06568e-07
4.24341e-07
-7.80296e-07
-1.35437e-06
-2.42618e-07
-0.000262766
1.58732e-06
1.55203e-06
-6.74927e-07
-6.83118e-07
0.000260984
-1.34102e-06
-1.34236e-06
-0.00107186
6.64427e-07
6.6527e-07
0.00107322
-0.00107326
-1.55561e-06
1.34201e-06
6.67291e-07
0.00107457
-6.20002e-07
8.63812e-07
-8.15743e-08
4.37922e-07
-7.79442e-07
-1.36917e-06
-2.20422e-07
-0.00107292
-1.55027e-06
1.34192e-06
6.6738e-07
0.00107424
-6.17284e-07
8.58407e-07
-8.39805e-08
4.37796e-07
-7.81966e-07
-1.36897e-06
-2.17869e-07
-0.000264044
1.58328e-06
1.55047e-06
-6.64622e-07
-6.70271e-07
0.000262245
-1.296e-06
-1.29725e-06
-0.00107721
6.42288e-07
6.4316e-07
0.00107852
-0.00107844
-1.5475e-06
1.29693e-06
6.34137e-07
0.00107969
-6.07595e-07
8.9166e-07
-5.62038e-08
4.59676e-07
-7.68224e-07
-1.37139e-06
-1.89161e-07
-0.0010781
-1.5421e-06
1.29675e-06
6.34163e-07
0.00107936
-6.04779e-07
8.86275e-07
-5.84833e-08
4.59625e-07
-7.70703e-07
-1.37143e-06
-1.86601e-07
-0.000265263
1.57523e-06
1.54225e-06
-6.47611e-07
-6.53271e-07
0.000263446
-1.24844e-06
-1.24954e-06
-0.00108237
6.20403e-07
6.21295e-07
0.00108362
-0.00108337
-1.53933e-06
1.24957e-06
6.04703e-07
0.00108457
-5.95752e-07
9.17337e-07
-3.38334e-08
4.83337e-07
-7.54151e-07
-1.36932e-06
-1.58735e-07
-0.00108303
-1.53385e-06
1.24917e-06
6.04522e-07
0.00108423
-5.92799e-07
9.12175e-07
-3.58787e-08
4.83695e-07
-7.56716e-07
-1.36902e-06
-1.5607e-07
-0.000266409
1.56684e-06
1.53364e-06
-6.30348e-07
-6.36067e-07
0.000264575
-1.20426e-06
-1.20501e-06
-0.00108732
6.00817e-07
6.01673e-07
0.00108852
-0.00108806
-1.53257e-06
1.2051e-06
5.80785e-07
0.00108919
-5.85756e-07
9.39609e-07
-1.64108e-08
5.09937e-07
-7.40265e-07
-1.36501e-06
-1.30323e-07
-0.00108772
-1.52747e-06
1.20498e-06
5.80869e-07
0.00108885
-5.83833e-07
9.3424e-07
-1.85233e-08
5.08721e-07
-7.42705e-07
-1.36342e-06
-1.28239e-07
-0.000267481
1.56065e-06
1.52734e-06
-6.16256e-07
-6.21947e-07
0.000265631
-1.16586e-06
-1.16625e-06
-0.00109208
5.84256e-07
5.8531e-07
0.00109324
-0.00109251
-1.52707e-06
1.16618e-06
5.62148e-07
0.00109359
-5.7707e-07
9.60316e-07
-7.9145e-10
5.34389e-07
-7.27691e-07
-1.36288e-06
-1.04895e-07
-0.00109217
-1.52199e-06
1.16566e-06
5.62359e-07
0.00109325
-5.74993e-07
9.53644e-07
-3.9309e-09
5.35308e-07
-7.29604e-07
-1.35968e-06
-1.0339e-07
-0.000268482
1.55673e-06
1.52314e-06
-6.05258e-07
-6.11102e-07
0.000266618
-1.13234e-06
-1.13458e-06
-0.00109667
5.70729e-07
5.71312e-07
0.00109779
-0.00109676
-1.52698e-06
1.13259e-06
5.48203e-07
0.00109779
-5.77054e-07
9.77052e-07
1.77876e-08
5.56239e-07
-7.16396e-07
-1.35676e-06
-8.4014e-08
-0.00109641
-1.52103e-06
1.13273e-06
5.48253e-07
0.00109744
-5.73389e-07
9.72232e-07
1.62084e-08
5.56398e-07
-7.19283e-07
-1.35929e-06
-8.14374e-08
-0.000269422
1.55438e-06
1.52092e-06
-5.94877e-07
-6.00359e-07
0.000267542
-1.10211e-06
-1.10401e-06
-0.00110111
5.58361e-07
5.58892e-07
0.0011022
-0.00110081
-1.52688e-06
1.10552e-06
5.38956e-07
0.0011018
-5.73015e-07
9.91326e-07
2.82637e-08
5.74154e-07
-7.08706e-07
-1.3579e-06
-6.47093e-08
-0.00110046
-1.5215e-06
1.10534e-06
5.38759e-07
0.00110145
-5.70989e-07
9.86262e-07
2.57194e-08
5.75365e-07
-7.11231e-07
-1.3577e-06
-6.21758e-08
-0.000270304
1.55593e-06
1.52194e-06
-5.90499e-07
-5.96417e-07
0.000268414
-1.07982e-06
-1.07992e-06
-0.00110542
5.49056e-07
5.49974e-07
0.00110648
-0.0011047
-1.5278e-06
1.07748e-06
5.28169e-07
0.00110564
-5.7007e-07
1.00611e-06
4.30283e-08
5.99286e-07
-6.97336e-07
-1.34997e-06
-4.95736e-08
-0.00110435
-1.52231e-06
1.07789e-06
5.28008e-07
0.00110529
-5.69351e-07
1.00096e-06
4.41376e-08
5.96633e-07
-7.00297e-07
-1.35096e-06
-4.74443e-08
-0.000271131
1.557e-06
1.52244e-06
-5.83313e-07
-5.89718e-07
0.000269225
-1.05734e-06
-1.05781e-06
-0.00110962
5.4049e-07
5.41145e-07
0.00111065
-0.00110843
-1.52992e-06
1.0547e-06
5.19185e-07
0.00110933
-5.71831e-07
1.01988e-06
5.17683e-08
6.18418e-07
-6.8729e-07
-1.34465e-06
-3.40398e-08
-0.00110808
-1.52478e-06
1.05521e-06
5.21468e-07
0.00110898
-5.7238e-07
1.01264e-06
4.72334e-08
6.20105e-07
-6.89689e-07
-1.34572e-06
-3.05249e-08
-0.000271907
1.55824e-06
1.52526e-06
-5.7981e-07
-5.84621e-07
0.000269988
-1.03652e-06
-1.03773e-06
-0.00111371
5.32393e-07
5.3311e-07
0.00111472
-0.001112
-1.53027e-06
1.03483e-06
5.09106e-07
0.00111287
-5.65318e-07
1.03476e-06
6.54356e-08
6.29152e-07
-6.80299e-07
-1.34605e-06
-2.40723e-08
-0.00111165
-1.52518e-06
1.0342e-06
5.09284e-07
0.00111252
-5.64581e-07
1.02741e-06
6.23464e-08
6.3151e-07
-6.82253e-07
-1.3431e-06
-2.15356e-08
-0.000272628
1.56064e-06
1.52637e-06
-5.75483e-07
-5.81176e-07
0.000270697
-1.0127e-06
-1.01328e-06
-0.0011177
5.22624e-07
5.22893e-07
0.00111868
-0.00111543
-1.53014e-06
1.01254e-06
4.96484e-07
0.00111626
-5.60716e-07
1.04751e-06
7.66973e-08
6.47844e-07
-6.63998e-07
-1.338e-06
-1.37402e-08
-0.00111507
-1.52586e-06
1.0146e-06
5.00975e-07
0.00111591
-5.61423e-07
1.03875e-06
7.03499e-08
6.4523e-07
-6.67409e-07
-1.33817e-06
-1.07465e-08
-0.000273293
1.5631e-06
1.52838e-06
-5.71916e-07
-5.77983e-07
0.000271352
-9.96714e-07
-9.9443e-07
-0.00112158
5.14804e-07
5.16684e-07
0.00112254
-0.00111871
-1.5335e-06
9.89798e-07
4.92381e-07
0.00111949
-5.62875e-07
1.05819e-06
7.86175e-08
6.69302e-07
-6.50468e-07
-1.3265e-06
-2.06842e-09
-0.00111835
-1.52718e-06
9.90523e-07
4.90243e-07
0.00111914
-5.60943e-07
1.05338e-06
7.8603e-08
6.6466e-07
-6.53768e-07
-1.33077e-06
5.85107e-10
-0.000273912
1.56182e-06
1.52866e-06
-5.63113e-07
-5.67067e-07
0.000271952
-9.63932e-07
-9.68125e-07
-0.00112537
5.0241e-07
5.01802e-07
0.0011263
-0.00112183
-1.53178e-06
9.62605e-07
4.68662e-07
0.00112257
-5.58292e-07
1.07467e-06
9.29904e-08
6.78512e-07
-6.29515e-07
-1.3151e-06
1.1925e-08
-0.00112147
-1.52522e-06
9.62881e-07
4.64895e-07
0.00112223
-5.55692e-07
1.07137e-06
9.71862e-08
6.73706e-07
-6.33281e-07
-1.32173e-06
1.47526e-08
-0.000274466
1.55745e-06
1.52233e-06
-5.46779e-07
-5.5292e-07
0.000272486
-9.50488e-07
-9.47377e-07
-0.00112906
4.93098e-07
4.95187e-07
0.00112997
-0.00112477
-1.5361e-06
9.33128e-07
4.54503e-07
0.00112549
-5.57261e-07
1.08591e-06
1.00521e-07
6.8836e-07
-6.10435e-07
-1.30465e-06
2.36946e-08
-0.00112441
-1.52879e-06
9.40046e-07
4.61005e-07
0.00112512
-5.51781e-07
1.07893e-06
1.01418e-07
6.84339e-07
-6.16474e-07
-1.30566e-06
2.25888e-08
-0.000274954
1.55724e-06
1.5222e-06
-5.37966e-07
-5.44898e-07
0.000272958
-9.47242e-07
-9.40382e-07
-0.00113263
4.88516e-07
4.931e-07
0.00113353
-0.00112751
-1.54613e-06
9.52344e-07
4.9809e-07
0.00112818
-5.62658e-07
1.07595e-06
7.76707e-08
6.93545e-07
-5.95815e-07
-1.29307e-06
3.12106e-08
-0.00112715
-1.52564e-06
9.37723e-07
4.60833e-07
0.00112781
-5.39269e-07
1.08382e-06
9.58025e-08
6.94031e-07
-6.03145e-07
-1.29463e-06
3.07532e-08
-0.000275371
1.55194e-06
1.51532e-06
-5.24128e-07
-5.31331e-07
0.000273359
-8.8609e-07
-8.96602e-07
-0.00113617
4.72629e-07
4.62578e-07
0.00113702
-0.00113016
-1.50541e-06
8.89754e-07
4.04163e-07
0.00113073
-4.93378e-07
1.12793e-06
1.44607e-07
7.01542e-07
-5.84075e-07
-1.27864e-06
3.27301e-08
-0.0011298
-1.52715e-06
9.21474e-07
4.68057e-07
0.00113039
-5.26336e-07
1.09687e-06
1.17176e-07
7.03446e-07
-5.88347e-07
-1.28583e-06
3.51829e-08
-0.000275658
1.56411e-06
1.52582e-06
-5.31508e-07
-5.4029e-07
0.00027364
-9.59185e-07
-9.57838e-07
-0.00113961
5.23186e-07
5.21358e-07
0.00114049
-0.00113257
-1.55616e-06
9.09898e-07
4.58234e-07
0.00113316
-5.503e-07
1.08524e-06
9.71567e-08
7.33706e-07
-5.58211e-07
-1.25049e-06
4.82355e-08
-0.00113221
-1.51672e-06
9.1845e-07
4.33474e-07
0.00113278
-5.22488e-07
1.09424e-06
8.87728e-08
7.16287e-07
-5.66145e-07
-1.26758e-06
5.3073e-08
-0.000275942
1.60834e-06
1.57036e-06
-5.65457e-07
-5.74607e-07
0.000273903
-9.3256e-07
-8.94775e-07
-0.00114315
4.51245e-07
4.93746e-07
0.00114403
-0.00113483
-1.59307e-06
9.66773e-07
6.80122e-07
0.00113537
-6.1418e-07
1.01263e-06
-1.24792e-08
7.38892e-07
-5.39761e-07
-1.24271e-06
5.89961e-08
-0.00113455
-1.56619e-06
9.0938e-07
5.58116e-07
0.00113509
-5.47308e-07
1.07324e-06
1.08465e-07
7.10103e-07
-5.59481e-07
-1.25539e-06
3.08273e-08
-0.000275911
1.52145e-06
1.49685e-06
-4.92419e-07
-4.8945e-07
0.000273874
5.22146e-06
5.23231e-06
0.000260567
-0.000259171
-5.9319e-06
-5.91777e-06
5.08158e-06
0.000261409
-0.000258686
-5.96204e-06
3.37916e-06
-5.22153e-06
5.07656e-06
0.000261442
-0.000258702
-5.97005e-06
3.37432e-06
5.22214e-06
0.000260579
-0.000259173
-5.90328e-06
-5.94651e-06
5.07467e-06
0.000261473
-0.000258717
-5.96755e-06
3.369e-06
5.0814e-06
-5.22378e-06
0.000261417
-0.000258686
3.38421e-06
-5.97225e-06
1.07111e-05
1.06174e-05
-0.000252649
-0.000256079
-0.000255118
-0.000255118
-6.41734e-06
-4.12515e-06
-6.6623e-06
-6.41771e-06
-4.12609e-06
-6.66784e-06
-5.06963e-06
0.00104223
1.06707e-05
1.06227e-05
-0.000252651
-0.000256076
-0.000255121
-0.000255121
-6.41995e-06
-4.12544e-06
-6.66504e-06
-6.41517e-06
-4.12088e-06
-6.66025e-06
-5.06927e-06
0.00104211
1.0731e-05
1.06833e-05
-0.000252643
-0.000256071
-0.000255118
-0.000255113
-6.41981e-06
-4.13282e-06
-6.66497e-06
-6.42001e-06
-4.12309e-06
-6.66258e-06
-5.08397e-06
-5.07209e-06
0.00104217
1.07263e-05
1.06276e-05
-0.000252646
-0.000256074
-0.000255118
-0.000255118
-6.4147e-06
-4.12777e-06
-6.65997e-06
-6.42014e-06
-4.12593e-06
-6.6653e-06
-0.000258712
-5.95991e-06
3.36395e-06
-5.22138e-06
0.000261404
-0.000258684
3.37919e-06
-5.96199e-06
5.22453e-06
0.000260559
-0.000259158
-5.9056e-06
-5.94373e-06
-0.000258697
3.37148e-06
-5.95704e-06
-5.23228e-06
0.000261471
-0.000258712
3.36649e-06
-5.96502e-06
-0.000259168
-5.93177e-06
-5.9178e-06
5.61757e-06
5.65479e-06
-4.87837e-06
-4.87222e-06
0.000259045
-7.80483e-07
-7.44604e-07
0.000261544
-0.000259462
-2.82244e-07
-2.74851e-07
7.09202e-06
0.00105882
-4.53008e-06
-1.57833e-06
-2.21273e-06
-2.57667e-06
-6.60588e-06
-7.05009e-06
-3.17074e-06
-0.000263264
-0.000259684
-0.000262793
-5.62803e-06
1.4555e-05
7.03143e-06
0.00105919
-4.5492e-06
-1.57072e-06
-2.21588e-06
-2.58756e-06
-6.63741e-06
-7.067e-06
-3.1864e-06
-0.000263338
-0.000259715
-0.000262834
0.00106192
2.02402e-06
-0.00106086
9.73754e-07
-1.71809e-06
-1.69104e-07
-6.92239e-07
-1.46542e-06
-3.07567e-07
-8.28055e-07
3.43209e-07
7.88558e-07
0.00106234
2.02437e-06
-0.00106128
9.68687e-07
-1.7285e-06
-1.61623e-07
-6.97734e-07
-1.47115e-06
-3.0769e-07
-8.28426e-07
3.48652e-07
-4.87646e-06
-4.86912e-06
0.000259055
-7.47275e-07
0.000261569
-0.000259482
-2.79603e-07
-2.71994e-07
6.81326e-06
0.00105966
-4.55437e-06
-1.63766e-06
-2.22893e-06
-2.58588e-06
-6.61991e-06
-7.06237e-06
-3.18164e-06
-0.000263359
-0.000259742
-0.000262847
-5.62773e-06
1.45894e-05
7.12546e-06
0.00105896
-4.54903e-06
-1.58079e-06
-2.2209e-06
-2.58953e-06
-6.63669e-06
-7.06586e-06
-3.18603e-06
-0.000259684
-0.000263315
-0.000262806
0.00106294
2.03159e-06
-0.00106187
9.6225e-07
-1.68817e-06
-1.71614e-07
-6.92518e-07
-1.46846e-06
-3.07675e-07
-8.2582e-07
3.4559e-07
7.77939e-07
0.00106203
2.0346e-06
-0.00106099
9.84064e-07
-1.71815e-06
-1.66665e-07
-6.92435e-07
-1.46824e-06
-3.0509e-07
-8.30799e-07
3.43166e-07
1.45864e-05
7.11279e-06
0.00105877
-4.53002e-06
-1.57822e-06
-2.2101e-06
-2.57669e-06
-6.60589e-06
-3.17078e-06
-7.04777e-06
-0.000259679
-0.000263259
-0.000262788
2.03091e-06
-0.00106161
9.67483e-07
-1.68807e-06
-1.68948e-07
-6.89598e-07
-1.46575e-06
-3.10044e-07
3.40401e-07
-8.25536e-07
7.77916e-07
0.00106182
2.03422e-06
-0.00106078
9.84099e-07
-1.71806e-06
-1.66544e-07
-6.92194e-07
-1.46811e-06
-3.07521e-07
-8.28011e-07
3.45767e-07
-4.88128e-06
-4.86889e-06
0.000259035
-7.39132e-07
0.000261521
-0.000259444
-2.82652e-07
-2.77218e-07
1.44875e-05
6.83175e-06
0.00105961
-4.55451e-06
-1.63767e-06
-2.22898e-06
-2.5857e-06
-6.61978e-06
-3.18155e-06
-7.05964e-06
-0.000259732
-0.000263356
-0.000262842
2.03595e-06
-0.00106131
9.83007e-07
-1.68558e-06
-1.71498e-07
-6.92266e-07
-1.46262e-06
-3.05023e-07
3.40444e-07
-8.28064e-07
7.3923e-07
0.00106284
2.0366e-06
-0.00106179
9.72566e-07
-1.68313e-06
-1.71641e-07
-6.89942e-07
-1.4657e-06
-3.07518e-07
-8.28232e-07
3.40603e-07
-0.000259459
-2.79774e-07
-2.77427e-07
1.63935e-06
1.60415e-06
-7.10558e-07
-7.19029e-07
0.00025973
-8.66326e-07
-8.27644e-07
0.000262778
-0.000260667
-2.12623e-07
-2.05062e-07
8.29635e-07
0.00106319
-6.56442e-07
8.17754e-07
-1.43309e-07
3.7817e-07
-8.00541e-07
-1.39713e-06
-2.90475e-07
-1.64463e-06
1.63227e-06
8.24419e-07
0.00106362
-6.59288e-07
8.25836e-07
-1.43301e-07
3.83582e-07
-8.03541e-07
-1.40284e-06
-2.88177e-07
0.00106713
1.383e-06
-0.0010658
7.02151e-07
-1.59181e-06
-1.03513e-07
-6.28646e-07
-1.35468e-06
-2.48991e-07
-7.76785e-07
4.22458e-07
8.71708e-07
0.00106757
1.38329e-06
-0.00106623
6.97086e-07
-1.59715e-06
-1.03595e-07
-6.28897e-07
-1.35763e-06
-2.49195e-07
-7.77134e-07
4.25126e-07
-7.1105e-07
-7.18355e-07
0.000259748
-8.32903e-07
0.000262804
-0.000260679
-2.1266e-07
-2.07541e-07
8.23144e-07
0.00106421
-6.54078e-07
7.81854e-07
-1.45763e-07
3.80614e-07
-8.03591e-07
-1.40027e-06
-2.88115e-07
-1.63935e-06
1.63749e-06
8.297e-07
0.0010633
-6.59275e-07
8.17861e-07
-1.43343e-07
3.78179e-07
-8.03272e-07
-1.39733e-06
-2.87986e-07
0.00106816
1.38439e-06
-0.00106684
7.01116e-07
-1.5539e-06
-1.08431e-07
-6.23646e-07
-1.35239e-06
-2.46591e-07
-7.77141e-07
4.25056e-07
8.61124e-07
0.00106725
1.38305e-06
-0.00106591
7.02241e-07
-1.58922e-06
-1.06064e-07
-6.28803e-07
-1.35478e-06
-2.49018e-07
-7.76857e-07
4.2512e-07
1.63205e-06
8.29737e-07
0.0010631
-6.59064e-07
8.15187e-07
-1.45742e-07
3.78101e-07
-8.03189e-07
-2.8803e-07
-1.39724e-06
1.384e-06
-0.00106657
7.06475e-07
-1.56169e-06
-1.10837e-07
-6.23502e-07
-1.35227e-06
-2.46643e-07
4.24886e-07
-7.76944e-07
8.63718e-07
0.00106704
1.37774e-06
-0.0010657
7.02258e-07
-1.58914e-06
-1.05951e-07
-6.28628e-07
-1.35474e-06
-2.49072e-07
-7.76798e-07
4.22386e-07
-7.13816e-07
-7.15798e-07
0.000259709
-8.24834e-07
0.000262753
-0.000260646
-2.1285e-07
-2.07499e-07
1.63355e-06
8.18033e-07
0.00106413
-6.54137e-07
7.76438e-07
-1.50875e-07
3.7548e-07
-8.00806e-07
-2.92947e-07
-1.39476e-06
1.38398e-06
-0.00106625
7.01392e-07
-1.55117e-06
-1.10843e-07
-6.23458e-07
-1.34671e-06
-2.49047e-07
4.16843e-07
-7.76865e-07
8.27502e-07
0.00106807
1.38438e-06
-0.00106674
7.01193e-07
-1.55137e-06
-1.11009e-07
-6.23731e-07
-1.3549e-06
-2.49067e-07
-7.79702e-07
4.2236e-07
-0.000260654
-2.12736e-07
-2.07643e-07
1.58996e-06
1.55722e-06
-6.72239e-07
-6.8057e-07
0.000260984
-8.90458e-07
-8.54259e-07
0.00026406
-0.000261937
-1.91612e-07
-1.86552e-07
6.9123e-07
0.00106848
-6.29696e-07
8.72082e-07
-9.92311e-08
4.2442e-07
-7.77668e-07
-1.35442e-06
-2.47613e-07
-1.59532e-06
1.36143e-06
7.01829e-07
0.00106891
-6.29905e-07
8.77452e-07
-9.93568e-08
4.30118e-07
-7.80559e-07
-1.36e-06
-2.4269e-07
0.00107249
1.34949e-06
-0.00107117
6.75806e-07
-1.58992e-06
-8.55522e-08
-6.24954e-07
-1.36676e-06
-2.29988e-07
-7.78024e-07
4.33846e-07
8.9593e-07
0.00107292
1.34978e-06
-0.00107159
6.76021e-07
-1.59522e-06
-8.31179e-08
-6.27717e-07
-1.37544e-06
-2.24896e-07
-7.83683e-07
4.42332e-07
-6.75273e-07
-6.77485e-07
0.000261005
-8.56949e-07
0.000264088
-0.000261963
-1.89006e-07
-1.83803e-07
6.90233e-07
0.00106952
-6.2736e-07
8.35985e-07
-1.04176e-07
4.27066e-07
-7.80558e-07
-1.35995e-06
-2.42708e-07
-1.58735e-06
1.36126e-06
6.9656e-07
0.00106859
-6.29859e-07
8.69478e-07
-9.93162e-08
4.27329e-07
-7.8025e-07
-1.35715e-06
-2.42542e-07
0.00107352
1.3508e-06
-0.0010722
6.74813e-07
-1.55436e-06
-8.79838e-08
-6.22507e-07
-1.36997e-06
-2.2492e-07
-7.83654e-07
4.36722e-07
8.90574e-07
0.0010726
1.34959e-06
-0.00107127
6.7598e-07
-1.58989e-06
-8.30757e-08
-6.27654e-07
-1.36993e-06
-2.24727e-07
-7.83414e-07
4.36888e-07
1.36624e-06
6.91324e-07
0.00106839
-6.2701e-07
8.6679e-07
-1.0417e-07
4.27189e-07
-7.8021e-07
-2.45112e-07
-1.35711e-06
1.35048e-06
-0.00107193
6.74946e-07
-1.55691e-06
-8.78532e-08
-6.22289e-07
-1.36745e-06
-2.27379e-07
4.33987e-07
-7.80973e-07
8.85174e-07
0.0010724
1.34939e-06
-0.00107107
6.75926e-07
-1.5846e-06
-8.79762e-08
-6.22173e-07
-1.36721e-06
-2.27306e-07
-7.80712e-07
4.34104e-07
-6.7537e-07
-6.80011e-07
0.000260969
-8.51509e-07
0.000264039
-0.000261921
-1.91718e-07
-1.83811e-07
1.36251e-06
6.95518e-07
0.00106942
-6.22089e-07
8.27938e-07
-1.0918e-07
4.24641e-07
-7.77906e-07
-2.45087e-07
-1.35477e-06
1.35037e-06
-0.0010716
6.75015e-07
-1.55161e-06
-9.03418e-08
-6.19595e-07
-1.36709e-06
-2.24813e-07
4.33986e-07
-7.83431e-07
8.51551e-07
0.00107344
1.35086e-06
-0.00107211
6.74893e-07
-1.55183e-06
-9.04438e-08
-6.19915e-07
-1.36489e-06
-2.27347e-07
-7.81076e-07
4.31302e-07
-0.000261934
-1.89093e-07
-1.83931e-07
1.58853e-06
1.55301e-06
-6.61955e-07
-6.67628e-07
0.000262248
-9.18439e-07
-8.8207e-07
0.000265278
-0.000263155
-1.63932e-07
-1.58782e-07
6.68167e-07
0.00107381
-6.22452e-07
8.97396e-07
-7.92618e-08
4.38266e-07
-7.76726e-07
-1.36933e-06
-2.22649e-07
-1.59395e-06
1.34133e-06
6.68374e-07
0.00107423
-6.25417e-07
9.02837e-07
-7.68287e-08
4.46314e-07
-7.82251e-07
-1.37728e-06
-2.1788e-07
0.00107767
1.30792e-06
-0.0010764
6.43117e-07
-1.58276e-06
-6.00551e-08
-6.1328e-07
-1.37116e-06
-1.99532e-07
-7.68665e-07
4.54325e-07
9.23909e-07
0.00107809
1.30826e-06
-0.00107682
6.43411e-07
-1.58806e-06
-5.77344e-08
-6.15963e-07
-1.38019e-06
-1.9436e-07
-7.7437e-07
4.62844e-07
-6.65097e-07
-6.69781e-07
0.000262274
-8.84761e-07
0.000265307
-0.000263181
-1.61386e-07
-1.5615e-07
6.67193e-07
0.00107484
-6.20109e-07
8.61145e-07
-8.1683e-08
4.40667e-07
-7.82264e-07
-1.37199e-06
-2.17857e-07
-1.58862e-06
1.34113e-06
6.68309e-07
0.00107391
-6.2536e-07
8.9748e-07
-7.67612e-08
4.40701e-07
-7.81916e-07
-1.37156e-06
-2.17779e-07
0.0010787
1.30908e-06
-0.00107743
6.42136e-07
-1.54701e-06
-6.24834e-08
-6.10789e-07
-1.37455e-06
-1.94389e-07
-7.74207e-07
4.57556e-07
9.18437e-07
0.00107777
1.30796e-06
-0.0010765
6.43283e-07
-1.58274e-06
-5.78594e-08
-6.15955e-07
-1.37429e-06
-1.94146e-07
-7.73972e-07
4.57724e-07
1.34096e-06
6.68256e-07
0.00107371
-6.19758e-07
8.92055e-07
-8.16445e-08
4.37955e-07
-7.79293e-07
-2.20366e-07
-1.36903e-06
1.30886e-06
-0.00107716
6.42333e-07
-1.54956e-06
-6.24612e-08
-6.10482e-07
-1.37232e-06
-1.96751e-07
4.54618e-07
-7.71604e-07
9.13087e-07
0.00107757
1.30781e-06
-0.0010763
6.43229e-07
-1.57745e-06
-6.25503e-08
-6.10582e-07
-1.37178e-06
-1.96772e-07
-7.71214e-07
4.54823e-07
-6.62501e-07
-6.69742e-07
0.000262232
-8.79309e-07
0.000265258
-0.00026314
-1.64082e-07
-1.56247e-07
1.3423e-06
6.67182e-07
0.00107475
-6.17505e-07
8.58322e-07
-8.41937e-08
4.35547e-07
-7.79484e-07
-2.20373e-07
-1.36653e-06
1.30869e-06
-0.00107683
6.4233e-07
-1.54422e-06
-6.49917e-08
-6.07828e-07
-1.37184e-06
-1.94228e-07
4.5474e-07
-7.74056e-07
8.794e-07
0.00107861
1.30918e-06
-0.00107734
6.42241e-07
-1.54447e-06
-6.49439e-08
-6.08252e-07
-1.3697e-06
-1.96721e-07
-7.71621e-07
4.5186e-07
-0.000263153
-1.61382e-07
-1.56203e-07
1.58049e-06
1.54484e-06
-6.45042e-07
-6.50668e-07
0.000263449
-9.4501e-07
-9.08546e-07
0.000266424
-0.000264302
-1.36772e-07
-1.31554e-07
6.35008e-07
0.00107892
-6.09876e-07
9.25414e-07
-5.40402e-08
4.60454e-07
-7.6558e-07
-1.3724e-06
-1.91111e-07
-1.586e-06
1.29633e-06
6.35209e-07
0.00107935
-6.12998e-07
9.30862e-07
-5.15171e-08
4.68339e-07
-7.70925e-07
-1.37982e-06
-1.86573e-07
0.0010826
1.26011e-06
-0.00108139
6.12097e-07
-1.5744e-06
-3.64725e-08
-6.00772e-07
-1.36893e-06
-1.69009e-07
-7.54711e-07
4.77924e-07
9.50502e-07
0.00108302
1.26044e-06
-0.00108182
6.12364e-07
-1.5794e-06
-3.45478e-08
-6.02849e-07
-1.37902e-06
-1.62837e-07
-7.6052e-07
4.8699e-07
-6.48201e-07
-6.52861e-07
0.000263475
-9.11078e-07
0.000266452
-0.000264328
-1.34103e-07
-1.28791e-07
6.34059e-07
0.00107996
-6.07541e-07
8.89e-07
-5.64468e-08
4.62648e-07
-7.71177e-07
-1.37482e-06
-1.86306e-07
-1.58056e-06
1.29616e-06
6.35158e-07
0.00107903
-6.12818e-07
9.25594e-07
-5.1232e-08
4.62516e-07
-7.70823e-07
-1.37462e-06
-1.86433e-07
0.00108364
1.26119e-06
-0.00108243
6.11164e-07
-1.53844e-06
-3.88132e-08
-5.98223e-07
-1.3725e-06
-1.63765e-07
-7.60328e-07
4.81078e-07
9.44794e-07
0.0010827
1.26012e-06
-0.00108149
6.1225e-07
-1.57413e-06
-3.49087e-08
-6.03146e-07
-1.37214e-06
-1.63247e-07
-7.59724e-07
4.81299e-07
1.29596e-06
6.35058e-07
0.00107883
-6.07026e-07
9.20043e-07
-5.63095e-08
4.59885e-07
-7.68256e-07
-1.88947e-07
-1.3718e-06
1.26076e-06
-0.00108216
6.11231e-07
-1.54079e-06
-3.93342e-08
-5.97468e-07
-1.37046e-06
-1.65551e-07
4.79324e-07
-7.57498e-07
9.39499e-07
0.0010825
1.26008e-06
-0.00108129
6.12314e-07
-1.56904e-06
-3.92527e-08
-5.98257e-07
-1.37021e-06
-1.65976e-07
-7.57092e-07
4.78594e-07
-6.45555e-07
-6.52714e-07
0.000263433
-9.05446e-07
0.000266403
-0.000264286
-1.37328e-07
-1.29272e-07
1.29708e-06
6.33978e-07
0.00107987
-6.0475e-07
8.86157e-07
-5.88423e-08
4.57608e-07
-7.68416e-07
-1.8897e-07
-1.36904e-06
1.26068e-06
-0.00108182
6.11254e-07
-1.53536e-06
-4.19979e-08
-5.94901e-07
-1.37005e-06
-1.6303e-07
4.78822e-07
-7.59877e-07
9.05644e-07
0.00108355
1.26128e-06
-0.00108234
6.11308e-07
-1.53594e-06
-4.16453e-08
-5.95958e-07
-1.36779e-06
-1.66008e-07
-7.57432e-07
4.75724e-07
-0.0002643
-1.34631e-07
-1.29348e-07
1.57204e-06
1.53629e-06
-6.27817e-07
-6.33356e-07
0.000264577
-9.68723e-07
-9.32249e-07
0.000267497
-0.000265376
-1.12355e-07
-1.07152e-07
6.05288e-07
0.00108379
-5.97365e-07
9.5105e-07
-3.21459e-08
4.84866e-07
-7.5112e-07
-1.37036e-06
-1.60148e-07
-1.57805e-06
1.24891e-06
6.05647e-07
0.00108422
-6.0127e-07
9.56544e-07
-2.93436e-08
4.92603e-07
-7.56661e-07
-1.37684e-06
-1.5649e-07
0.00108728
1.2148e-06
-0.00108613
5.8686e-07
-1.56773e-06
-1.72697e-08
-5.91169e-07
-1.36496e-06
-1.39957e-07
-7.40697e-07
5.03381e-07
9.74496e-07
0.00108771
1.21495e-06
-0.00108656
5.86831e-07
-1.57232e-06
-1.4346e-08
-5.9241e-07
-1.37541e-06
-1.34297e-07
-7.46122e-07
5.11394e-07
-6.3181e-07
-6.36455e-07
0.000264603
-9.34969e-07
0.000267524
-0.000265402
-1.09099e-07
-1.03893e-07
6.04351e-07
0.00108483
-5.95082e-07
9.14451e-07
-3.45606e-08
4.87134e-07
-7.56636e-07
-1.37236e-06
-1.55478e-07
-1.57251e-06
1.24857e-06
6.05433e-07
0.0010839
-6.00827e-07
9.51492e-07
-2.88693e-08
4.87208e-07
-7.56667e-07
-1.37214e-06
-1.55643e-07
0.00108833
1.21582e-06
-0.00108718
5.85889e-07
-1.53156e-06
-1.94412e-08
-5.88514e-07
-1.36953e-06
-1.34404e-07
-7.46326e-07
5.06501e-07
9.68685e-07
0.00108739
1.21478e-06
-0.00108624
5.86818e-07
-1.56706e-06
-1.4841e-08
-5.92284e-07
-1.36802e-06
-1.34927e-07
-7.4609e-07
5.0569e-07
1.24822e-06
6.05157e-07
0.00108369
-5.94385e-07
9.45813e-07
-3.39281e-08
4.84237e-07
-7.53942e-07
-1.58268e-07
-1.36883e-06
1.2152e-06
-0.00108691
5.85674e-07
-1.53358e-06
-1.89153e-08
-5.87064e-07
-1.36606e-06
-1.37298e-07
5.02944e-07
-7.43176e-07
9.63014e-07
0.00108718
1.21497e-06
-0.00108603
5.87208e-07
-1.56207e-06
-2.03913e-08
-5.87793e-07
-1.36736e-06
-1.36677e-07
-7.43396e-07
5.03188e-07
-6.29087e-07
-6.36356e-07
0.000264562
-9.29303e-07
0.000267474
-0.00026536
-1.12256e-07
-1.04394e-07
1.2493e-06
6.04164e-07
0.00108474
-5.92011e-07
9.11909e-07
-3.63292e-08
4.81839e-07
-7.54206e-07
-1.58182e-07
-1.36661e-06
1.215e-06
-0.00108657
5.85743e-07
-1.52804e-06
-2.16629e-08
-5.83887e-07
-1.36684e-06
-1.34375e-07
5.03702e-07
-7.45852e-07
9.2901e-07
0.00108824
1.21593e-06
-0.00108709
5.86165e-07
-1.52878e-06
-2.27412e-08
-5.85424e-07
-1.36496e-06
-1.36602e-07
-7.43648e-07
5.00792e-07
-0.000265373
-1.1068e-07
-1.05293e-07
1.56534e-06
1.52951e-06
-6.12487e-07
-6.18119e-07
0.000265632
-9.91248e-07
-9.5242e-07
0.000268502
-0.000266379
-9.20389e-08
-8.72281e-08
5.8147e-07
0.00108841
-5.86961e-07
9.76878e-07
-1.06412e-08
5.08935e-07
-7.37328e-07
-1.3659e-06
-1.32757e-07
-1.57152e-06
1.2047e-06
5.81776e-07
0.00108884
-5.91336e-07
9.79079e-07
-1.19703e-08
5.18106e-07
-7.42922e-07
-1.37214e-06
-1.28224e-07
0.00109173
1.17492e-06
-0.00109063
5.67506e-07
-1.56532e-06
-1.56151e-09
-5.85877e-07
-1.36035e-06
-1.14346e-07
-7.27895e-07
5.28343e-07
9.95578e-07
0.00109216
1.17565e-06
-0.00109107
5.67866e-07
-1.56848e-06
8.74854e-10
-5.87088e-07
-1.36818e-06
-1.09168e-07
-7.33943e-07
5.3064e-07
-6.16828e-07
-6.21604e-07
0.000265659
-9.55802e-07
0.000268529
-0.000266407
-8.81249e-08
-8.27336e-08
5.80287e-07
0.00108946
-5.84766e-07
9.37268e-07
-1.53652e-08
5.11635e-07
-7.42875e-07
-1.36685e-06
-1.28409e-07
-1.56604e-06
1.20464e-06
5.81884e-07
0.00108852
-5.91589e-07
9.74087e-07
-1.14996e-08
5.12375e-07
-7.42471e-07
-1.36885e-06
-1.27166e-07
0.00109278
1.17667e-06
-0.00109169
5.67199e-07
-1.52635e-06
-5.18431e-09
-5.80631e-07
-1.36529e-06
-1.09061e-07
-7.34156e-07
5.2785e-07
9.89862e-07
0.00109184
1.17426e-06
-0.00109075
5.66887e-07
-1.56292e-06
1.03574e-09
-5.86334e-07
-1.36243e-06
-1.09222e-07
-7.33297e-07
5.31923e-07
1.20384e-06
5.81188e-07
0.00108831
-5.85425e-07
9.68825e-07
-1.47449e-08
5.09498e-07
-7.39763e-07
-1.30977e-07
-1.36345e-06
1.17613e-06
-0.00109142
5.66834e-07
-1.52955e-06
-3.67221e-09
-5.81768e-07
-1.3611e-06
-1.12331e-07
5.25252e-07
-7.31222e-07
9.84238e-07
0.00109163
1.17491e-06
-0.00109054
5.67529e-07
-1.55676e-06
-4.02004e-09
-5.78729e-07
-1.3622e-06
-1.11453e-07
-7.31422e-07
5.25204e-07
-6.14654e-07
-6.21811e-07
0.000265617
-9.51262e-07
0.000268478
-0.000266365
-8.93462e-08
-8.22326e-08
1.20485e-06
5.8015e-07
0.00108937
-5.83076e-07
9.3481e-07
-1.70492e-08
5.06925e-07
-7.40049e-07
-1.30952e-07
-1.36112e-06
1.17589e-06
-0.00109108
5.66659e-07
-1.52361e-06
-4.74416e-09
-5.77869e-07
-1.36372e-06
-1.08784e-07
5.25268e-07
-7.34195e-07
9.50124e-07
0.00109269
1.17591e-06
-0.0010916
5.66498e-07
-1.52338e-06
-6.11823e-09
-5.7642e-07
-1.35929e-06
-1.11624e-07
-7.31811e-07
5.22178e-07
-0.000266377
-8.81256e-08
-8.27069e-08
1.56458e-06
1.52531e-06
-6.02053e-07
-6.07999e-07
0.000266622
-1.01037e-06
-9.70019e-07
0.000269439
-0.000267321
-7.22612e-08
-6.62176e-08
5.63264e-07
0.0010928
-5.851e-07
9.97902e-07
7.51888e-09
5.31185e-07
-7.25487e-07
-1.36237e-06
-1.05485e-07
-1.56638e-06
1.16489e-06
5.624e-07
0.00109324
-5.82869e-07
9.99509e-07
5.25752e-09
5.4162e-07
-7.30205e-07
-1.36665e-06
-1.0281e-07
0.00109596
1.13892e-06
-0.00109493
5.5169e-07
-1.56213e-06
2.07441e-08
-5.7994e-07
-1.36043e-06
-8.85002e-08
-7.19304e-07
5.51674e-07
1.01195e-06
0.0010964
1.14047e-06
-0.00109536
5.5327e-07
-1.56642e-06
1.69059e-08
-5.81843e-07
-1.3629e-06
-8.73356e-08
-7.23891e-07
5.54673e-07
-6.03199e-07
-6.07916e-07
0.000266647
-9.72316e-07
0.000269468
-0.000267346
-7.18413e-08
-6.62053e-08
5.61966e-07
0.00109386
-5.79543e-07
9.57885e-07
-1.7601e-10
5.38439e-07
-7.30206e-07
-1.36429e-06
-1.02763e-07
-1.5613e-06
1.16619e-06
5.63531e-07
0.00109292
-5.8342e-07
9.94073e-07
4.9737e-09
5.3371e-07
-7.30687e-07
-1.36506e-06
-1.03257e-07
0.00109702
1.14015e-06
-0.00109598
5.50801e-07
-1.52384e-06
1.38339e-08
-5.75373e-07
-1.35825e-06
-8.70743e-08
-7.22193e-07
5.53875e-07
1.00686e-06
0.00109608
1.14016e-06
-0.00109504
5.53191e-07
-1.56049e-06
1.67207e-08
-5.81901e-07
-1.36224e-06
-8.60551e-08
-7.2332e-07
5.53326e-07
1.16572e-06
5.63646e-07
0.00109271
-5.80074e-07
9.88396e-07
-1.96345e-09
5.3562e-07
-7.2712e-07
-1.05484e-07
-1.36165e-06
1.14113e-06
-0.00109571
5.52305e-07
-1.52687e-06
1.09734e-08
-5.75808e-07
-1.35882e-06
-8.91517e-08
5.50525e-07
-7.2082e-07
1.00186e-06
0.00109587
1.13916e-06
-0.00109483
5.51896e-07
-1.5553e-06
1.31756e-08
-5.77369e-07
-1.35464e-06
-8.90866e-08
-7.19151e-07
5.51516e-07
-6.00625e-07
-6.08279e-07
0.000266604
-9.66778e-07
0.000269418
-0.000267304
-7.43865e-08
-6.5841e-08
1.16674e-06
5.62782e-07
0.00109377
-5.77578e-07
9.54419e-07
-3.70673e-09
5.32818e-07
-7.2738e-07
-1.05269e-07
-1.35994e-06
1.14142e-06
-0.00109537
5.5264e-07
-1.52182e-06
7.04653e-09
-5.74014e-07
-1.35673e-06
-8.65037e-08
5.49202e-07
-7.2329e-07
9.67703e-07
0.00109693
1.14017e-06
-0.00109589
5.5085e-07
-1.52157e-06
1.0086e-08
-5.7473e-07
-1.35255e-06
-8.87633e-08
-7.19204e-07
5.49758e-07
-0.000267319
-6.94662e-08
-6.39295e-08
1.56389e-06
1.52428e-06
-5.93908e-07
-6.0002e-07
0.000267545
-1.0254e-06
-9.85321e-07
0.000270325
-0.000268203
-5.83804e-08
-5.2447e-08
5.50336e-07
0.001097
-5.81782e-07
1.01259e-06
2.02111e-08
5.55301e-07
-7.18138e-07
-1.35527e-06
-8.51321e-08
-1.56585e-06
1.13191e-06
5.49351e-07
0.00109743
-5.82376e-07