/*--------------------------------*- C++ -*----------------------------------*\
| =========                 |                                                 |
| \\      /  F ield         | OpenFOAM: The Open Source CFD Toolbox           |
|  \\    /   O peration     | Version:  v1906                                 |
|   \\  /    A nd           | Web:      www.OpenFOAM.com                      |
|    \\/     M anipulation  |                                                 |
\*---------------------------------------------------------------------------*/
FoamFile
{
    version     2.0;
    format      ascii;
    class       surfaceScalarField;
    location    "500";
    object      phi;
}
// * * * * * * * * * * * * * * * * * * * * * * * * * * * * * * * * * * * * * //

dimensions      [0 3 -1 0 0 0 0];
oriented        oriented;


internalField   nonuniform List<scalar> 
123680
(
1.1447e-07
4.56156e-08
2.21642e-08
-7.96334e-08
0.0011844
-0.00118451
-1.1828e-06
-7.71163e-08
-1.39123e-07
0.00113241
-2.05188e-07
1.22932e-06
2.38751e-07
8.84322e-07
-1.76596e-07
2.30057e-07
-8.23799e-07
-0.00113239
-1.10774e-06
-1.21706e-07
-3.55443e-07
0.00113174
-1.28482e-07
1.29089e-06
3.05987e-07
8.7193e-07
-1.9261e-07
2.29012e-07
-8.43544e-07
-0.00113169
1.2393e-06
1.19601e-06
-2.06066e-07
-2.16778e-07
0.00026788
-0.000269892
-0.000270024
1.15574e-06
1.14192e-06
-1.73195e-07
-1.61052e-07
0.00026806
1.2334e-06
1.1909e-06
-1.95618e-07
-2.05257e-07
0.000268027
-0.000270051
-1.28033e-06
-1.21038e-06
-0.000268017
2.19258e-07
2.53975e-07
0.000270034
2.46973e-08
0.00113141
-2.16651e-07
1.25679e-06
2.45254e-07
8.79924e-07
-1.80037e-07
2.2469e-07
-8.25595e-07
-0.00113148
-1.24852e-06
-1.89145e-07
-1.05389e-08
0.001132
-2.35288e-07
1.24889e-06
2.31275e-07
8.99881e-07
-1.6779e-07
2.41224e-07
-8.16882e-07
-0.00113195
-5.1254e-08
-0.0011313
-1.00843e-07
-1.20003e-06
2.61919e-07
-1.89089e-07
-8.44679e-07
2.14322e-07
-1.96156e-07
8.66586e-07
0.00113126
1.28699e-06
-7.06713e-08
-0.00113196
-7.75769e-08
-1.21108e-06
2.72357e-07
-1.89801e-07
-8.49529e-07
2.16648e-07
-1.98878e-07
8.72554e-07
0.0011319
-1.93452e-07
-2.14239e-07
0.000268112
-0.000270136
-1.22026e-06
-0.000268099
2.29124e-07
2.547e-07
0.000270123
1.6442e-08
0.00113249
-2.17615e-07
1.21354e-06
2.28306e-07
8.88173e-07
-1.80297e-07
2.35042e-07
-8.28964e-07
-0.00113261
-1.17487e-06
-2.33418e-07
-2.23249e-07
0.00113135
-1.60688e-07
1.30861e-06
2.96127e-07
8.86431e-07
-1.79341e-07
2.39165e-07
-8.32205e-07
-0.00113127
-1.64945e-07
-0.00113234
4.08221e-08
-1.19937e-06
2.30296e-07
-2.20749e-07
-8.22283e-07
2.37052e-07
-1.75538e-07
8.91343e-07
0.00113231
1.27531e-06
-1.9784e-07
-0.00113158
-1.48537e-07
-1.20288e-06
2.48877e-07
-2.05881e-07
-8.14503e-07
2.49142e-07
-1.66542e-07
9.02525e-07
0.00113164
7.87599e-09
1.09488e-07
0.00113095
-2.19689e-07
1.24277e-06
2.41634e-07
8.55581e-07
-2.01742e-07
1.9889e-07
-8.46272e-07
-0.0011311
-1.25127e-07
-0.00113232
4.22933e-08
-1.19515e-06
2.35356e-07
-2.082e-07
-8.32042e-07
2.28297e-07
8.79884e-07
-1.82557e-07
0.00113226
1.32069e-06
0.00113102
-1.49783e-07
-0.00113092
-3.05655e-07
-1.15001e-06
3.08469e-07
-1.36161e-07
-8.5388e-07
2.13158e-07
-2.02668e-07
8.64029e-07
-1.40329e-07
-1.68074e-07
0.000267978
-0.000269952
-1.2092e-06
-0.000268137
2.18955e-07
2.49036e-07
0.000270154
7.34063e-08
9.75341e-08
0.00113204
-2.16414e-07
1.20605e-06
2.28949e-07
8.58784e-07
-2.03807e-07
2.07688e-07
-8.49194e-07
-0.00113225
-2.46601e-07
-0.00113193
-2.98734e-08
-1.18589e-06
2.11961e-07
-2.23651e-07
-8.00621e-07
2.62506e-07
9.11739e-07
-1.53832e-07
0.00113197
1.25424e-06
0.00113207
-2.56558e-07
-0.00113196
-1.653e-07
-1.15115e-06
2.76824e-07
-1.67568e-07
-8.29191e-07
2.34732e-07
-1.82513e-07
8.83095e-07
-0.000267985
2.52435e-07
2.83445e-07
-3.05692e-07
-1.49479e-07
1.31045e-06
2.91242e-07
8.86568e-07
-1.82439e-07
2.33738e-07
-8.36007e-07
-2.20711e-07
-1.63838e-07
1.26154e-06
2.78317e-07
-1.74504e-07
2.43115e-07
-2.91853e-07
-2.36099e-07
8.92892e-07
-8.19986e-07
-6.90514e-09
-5.49413e-08
0.000229312
2.27931e-08
1.39593e-08
-0.000229287
1.42555e-08
2.00659e-08
0.000193589
-2.74509e-08
-0.000193596
9.7381e-09
-2.6467e-08
0.00019363
-7.54646e-09
-0.000193606
-1.58161e-08
5.72186e-09
0.000229277
1.72749e-09
2.22963e-08
-0.000229291
-1.47036e-08
1.70681e-08
9.80096e-05
-9.80119e-05
-1.78936e-08
-8.92785e-10
9.80456e-05
-9.80268e-05
-4.98379e-08
9.47908e-09
0.00022932
-1.23214e-08
1.49525e-08
-0.000229282
-1.30629e-08
8.92629e-09
0.000193599
1.8277e-08
-0.000193613
1.71418e-09
-3.46232e-08
0.000193638
6.20219e-09
-0.000193611
2.35835e-08
3.14507e-08
0.000229258
-3.10773e-08
-9.95097e-09
-0.000229272
-6.47065e-08
-2.20342e-07
0.00118434
-0.00118432
-5.25989e-08
-2.01291e-07
0.00118395
-0.00118405
1.86039e-07
8.84096e-08
0.00118418
-0.00118438
-0.00118416
-9.23519e-08
7.18999e-09
0.00118403
-0.00118428
-7.17206e-08
-2.70206e-08
0.00118418
-0.00118377
-1.99441e-07
-1.56714e-07
0.00118368
-0.00118385
-1.88682e-07
-9.20972e-08
0.00118373
4.9551e-08
3.81356e-08
0.000250186
-3.03338e-08
-1.76595e-07
-0.000250067
1.67207e-09
-3.96878e-09
5.67061e-08
0.00024544
1.20853e-09
-0.000245495
0.00115254
-1.68699e-07
-8.63374e-08
9.80438e-07
-7.35634e-07
7.99482e-07
-9.14353e-07
-0.00115255
-4.3377e-08
1.22109e-06
0.00113238
-6.56336e-08
-8.31584e-07
2.23729e-07
-1.83777e-07
8.76763e-07
-1.19408e-06
2.35468e-07
-2.10743e-07
4.86506e-09
4.02196e-08
0.00024549
2.97252e-09
-0.000245436
-1.01888e-07
-2.13134e-08
0.00115249
-6.8947e-08
-9.23455e-07
7.90745e-07
-7.44097e-07
9.71418e-07
-9.86966e-09
1.53927e-08
0.000250068
-1.0645e-08
1.25288e-07
-0.000250188
2.21968e-08
-3.37412e-09
9.79964e-05
-9.80153e-05
1.30135e-08
-2.70601e-08
9.80061e-05
-9.7992e-05
-8.27118e-09
3.96045e-08
0.000250092
-1.72708e-07
5.17643e-09
-0.000249956
0.00115211
-2.33217e-07
9.6708e-09
9.55786e-07
-7.56133e-07
7.73416e-07
-9.34458e-07
-0.00115228
-3.27814e-08
-2.11751e-08
8.75456e-08
0.000245335
-3.31751e-09
-0.000245366
-2.96876e-07
1.26911e-06
0.00113184
-2.05617e-07
-8.23947e-07
2.46239e-07
-1.73398e-07
8.91401e-07
-1.12622e-06
2.76822e-07
-1.56406e-07
-1.94186e-07
0.00115199
-8.39516e-08
-9.17246e-07
7.88185e-07
-7.40803e-07
9.72499e-07
-3.15908e-08
4.48177e-08
0.000245463
2.09916e-08
-0.000245385
-1.12482e-07
-3.86778e-08
-3.75721e-08
0.000249938
1.52512e-07
4.35623e-08
-0.000250058
-3.4248e-08
-4.60159e-08
5.5584e-08
0.000278146
4.33106e-08
-0.000278164
9.20516e-09
-2.18543e-08
3.51555e-08
0.000278091
-2.6641e-09
-0.000278111
-1.28344e-06
-1.21928e-06
0.000269895
-0.000267882
2.27357e-07
2.62922e-07
-4.31449e-08
-7.37156e-09
0.000278197
7.67346e-09
-0.000278161
6.80101e-09
-5.97348e-09
-7.52674e-10
0.000278133
-1.35148e-08
-0.000278101
-1.16439e-08
-0.000278261
3.41235e-08
1.92731e-08
9.63998e-09
-5.65017e-08
0.000278255
-0.000278199
1.84636e-08
2.31849e-09
1.15143e-08
-3.14386e-08
0.000278198
2.05712e-08
9.8024e-05
-9.80303e-05
-5.91942e-09
9.80493e-05
-9.80337e-05
-3.97129e-09
9.80247e-05
-9.80338e-05
-1.20512e-08
9.80431e-05
-9.80293e-05
-2.20691e-08
2.42971e-08
0.000278165
2.37116e-08
-0.000278171
2.74544e-08
4.82919e-09
0.00027812
-2.3593e-08
-0.000278132
0.000270025
-1.27439e-06
-1.20427e-06
-0.000268015
2.14128e-07
2.54534e-07
0.000278216
-3.07156e-08
1.47626e-08
-0.000278188
-1.78282e-08
0.000278165
2.9712e-09
-6.01123e-09
-0.000278136
-3.8151e-08
-1.54444e-08
3.30651e-09
-9.80407e-05
9.80528e-05
7.60569e-09
2.51547e-09
9.80392e-05
-3.97807e-10
-1.25589e-08
-9.80324e-05
9.80454e-05
8.43679e-09
2.98216e-09
9.80317e-05
1.20146e-06
1.20438e-06
0.000268012
-2.10513e-07
-1.823e-07
-6.33044e-09
-2.78675e-08
-0.000278223
-7.06289e-09
0.000278249
-1.55586e-08
-2.94985e-08
-0.000278173
1.47389e-08
0.000278203
-6.37569e-09
-5.31814e-09
2.81796e-08
0.000278207
2.24143e-08
-1.40805e-08
1.12377e-08
0.000278154
-5.69994e-08
0.000229349
2.32447e-08
2.87436e-09
-0.000229325
6.89385e-09
0.000193617
-1.75282e-08
-0.000193621
-2.91166e-08
0.000193663
-1.42204e-08
-0.000193638
2.01677e-09
0.000229318
3.59616e-09
-7.09683e-09
-0.000229332
-1.62139e-08
0.000250181
2.06953e-08
-1.84245e-07
-0.000250056
6.91437e-08
0.00024535
-2.37179e-08
-0.000245397
0.00115256
4.50181e-08
-1.73588e-07
9.86042e-07
-7.2247e-07
8.10512e-07
-9.0693e-07
-0.00115257
-5.10609e-08
0.00113135
-6.59117e-08
-1.21306e-06
2.61453e-07
-1.96929e-07
-8.39357e-07
2.14094e-07
-1.92619e-07
8.68059e-07
0.000245426
-3.25645e-08
-0.000245364
-8.63811e-08
-1.10664e-08
0.00115252
-1.18021e-07
-9.21248e-07
7.96539e-07
-7.37698e-07
9.73358e-07
-9.16893e-09
0.000250052
1.39161e-08
1.20148e-07
-0.000250171
0.000250215
-5.65574e-09
-1.86881e-07
-0.000250095
1.39472e-08
5.39915e-08
0.000245396
-7.85578e-09
-0.000245449
0.00115273
-2.07609e-07
9.96825e-07
-7.18435e-07
8.14946e-07
-9.01619e-07
-0.00115268
-8.35548e-09
0.00113199
1.26026e-06
-1.23055e-07
-8.34089e-07
2.25676e-07
8.83243e-07
-1.85194e-07
-1.23996e-06
2.47243e-07
-2.20783e-07
0.000245451
3.49761e-08
-2.31294e-08
-0.000245396
-9.61191e-08
0.00115272
-1.45058e-07
-9.18482e-07
7.99958e-07
-7.34339e-07
9.80925e-07
0.000250093
-8.79571e-09
1.16516e-07
-0.000250208
-2.52601e-09
2.18459e-08
-7.89999e-09
8.67883e-09
0.000229292
-3.03431e-08
-0.000193623
1.21412e-08
0.000193644
2.08905e-08
-4.40442e-09
0.000193616
5.85695e-09
-4.45822e-08
-0.000229297
1.58601e-08
-3.75321e-09
0.000229324
2.06009e-08
-7.85968e-09
5.15433e-09
0.000229329
-2.57017e-08
1.63879e-10
-0.000193657
4.16822e-09
0.000193678
2.17268e-08
5.9772e-09
-1.41895e-08
0.00019365
-4.41106e-08
-0.000229334
1.54241e-08
8.11204e-09
0.00022936
-1.05655e-08
1.95995e-08
1.41152e-07
0.000250052
-9.43248e-08
-4.40224e-08
1.28227e-06
-1.87498e-07
2.66726e-07
8.63749e-07
-1.98005e-07
2.10879e-07
-8.45833e-07
-8.97767e-08
-0.00024539
-9.78485e-09
0.000245452
-0.00115246
-1.96187e-08
-7.36669e-08
-9.30799e-07
7.87274e-07
-7.50417e-07
9.67203e-07
0.00115237
-1.83663e-08
8.22036e-08
0.000245376
-2.17589e-08
-8.23713e-08
9.66976e-07
-7.47541e-07
-9.29529e-07
7.88438e-07
-1.55927e-09
-0.000250049
6.19211e-09
-1.75045e-07
0.000250175
-3.09928e-09
1.39463e-07
0.000250088
-3.72783e-08
-1.22522e-06
-8.26464e-08
8.73588e-07
-1.96105e-07
-8.46255e-07
2.17043e-07
1.27493e-06
-2.03001e-07
2.63153e-07
1.44214e-08
-8.72722e-08
-0.000245403
-1.54016e-08
0.000245465
-0.00115268
-8.22542e-08
-9.34135e-07
7.87744e-07
-7.5002e-07
9.69592e-07
0.00115259
7.98817e-09
-1.31037e-08
8.20204e-08
0.000245396
-9.9858e-08
9.71308e-07
-7.45652e-07
-9.30301e-07
7.90321e-07
-0.000250082
8.04573e-09
-1.74972e-07
0.000250203
1.15089e-08
0.000278109
2.85303e-08
-0.000278118
-2.94962e-09
6.76245e-09
0.000278222
3.20385e-09
-0.000278227
0.000270124
-0.000268106
2.28038e-07
2.34578e-07
0.000278156
2.75696e-08
-0.000278128
-2.11611e-08
2.30359e-08
0.00027826
-4.95877e-09
-0.000278239
-3.40134e-08
3.07226e-09
9.80175e-05
-9.80235e-05
9.80509e-05
3.42564e-09
-9.80313e-05
-1.32202e-08
-9.80432e-05
9.80566e-05
1.35823e-08
9.8038e-05
1.19668e-06
0.0002681
-2.02739e-07
-1.94389e-07
-2.42646e-08
-0.00027817
-3.82772e-09
0.000278199
2.6193e-08
1.47426e-08
-3.85159e-08
-0.000278271
-2.40472e-08
0.000278293
1.03742e-09
2.84702e-08
0.000278148
3.13228e-09
1.86529e-08
-3.05474e-08
1.39297e-08
0.000278254
1.16412e-08
-9.80425e-05
9.8057e-05
1.44003e-08
9.80397e-05
3.10966e-08
0.000250139
-3.06559e-08
-1.83065e-07
-0.000250006
5.8199e-08
0.000245348
2.54504e-08
-0.000245395
0.00115241
1.07829e-07
-6.48066e-08
9.79944e-07
-7.3907e-07
7.98348e-07
-9.16754e-07
-0.00115256
6.74041e-08
0.0011324
-1.05483e-07
-1.20219e-06
2.21855e-07
-2.26475e-07
-8.22775e-07
2.38901e-07
-1.75054e-07
8.92761e-07
0.000245417
1.47724e-08
-0.000245358
-1.04765e-07
1.59132e-07
0.00115229
-1.16641e-07
-9.11606e-07
8.03448e-07
-7.32723e-07
9.83591e-07
4.2523e-08
0.000249989
-3.40215e-08
1.31883e-07
-0.000250106
-4.82659e-08
0.000229292
1.56029e-08
3.15787e-09
-0.000229253
2.7938e-08
0.000193542
1.10544e-08
-0.000193559
-3.69477e-08
0.000193578
2.36194e-08
-0.000193551
2.99284e-08
0.000229224
-1.24771e-08
2.44584e-08
-0.000229234
0.000250115
-1.83047e-07
2.9107e-08
-0.000249978
0.0011523
-1.06174e-07
9.76669e-07
-7.44048e-07
7.96214e-07
-9.23535e-07
-0.00115241
-2.44069e-08
8.01791e-08
0.000245279
-4.80432e-09
-0.000245302
-2.55166e-07
0.00113147
1.30572e-06
-2.63041e-07
-8.22322e-07
2.46414e-07
8.96395e-07
-1.70812e-07
-1.17462e-06
2.85793e-07
-1.69457e-07
0.00115221
-1.59508e-07
-9.1247e-07
8.0584e-07
-7.33711e-07
9.87212e-07
0.00024541
-1.99714e-09
-7.12511e-09
-0.000245334
-1.04242e-07
0.00024995
1.40754e-07
4.20026e-08
-0.00025006
2.24656e-08
1.49745e-09
-4.90089e-09
-8.71122e-09
0.000229309
-2.5663e-08
-0.000193638
-1.41817e-08
0.000193665
2.07116e-08
-4.00016e-09
0.000193624
-5.35239e-08
-1.84532e-08
-0.000229337
1.58829e-08
1.85627e-08
0.000229374
2.67959e-08
-2.38945e-08
1.26214e-07
0.000250033
7.26532e-08
-1.47856e-07
1.20399e-06
-2.26627e-07
2.23404e-07
8.93703e-07
-1.73554e-07
2.39473e-07
-8.20629e-07
-9.69254e-08
-0.000245398
-8.09949e-09
0.000245462
-0.00115218
1.11954e-07
-1.74986e-07
-9.05948e-07
8.09497e-07
-7.2438e-07
9.87049e-07
0.00115212
1.99403e-08
6.46661e-08
0.000245375
1.66787e-07
-1.55937e-07
9.89596e-07
-7.2389e-07
-9.04229e-07
8.10948e-07
-4.77462e-09
-0.000250063
2.12226e-09
-1.86515e-07
0.000250198
2.21414e-08
-7.06093e-09
-4.15778e-09
0.000229283
-4.78937e-08
8.00865e-11
-0.00019358
1.80769e-08
0.00019361
1.15569e-08
-1.87084e-08
2.08651e-08
0.000193564
-5.75349e-08
-0.00022931
2.16663e-08
-1.87455e-08
0.000229346
1.29623e-07
2.07228e-08
0.000250014
-2.2432e-07
-1.18562e-06
-2.47735e-07
9.01822e-07
-1.66897e-07
-8.1615e-07
2.49908e-07
1.29349e-06
-1.85736e-07
2.6937e-07
-0.00115217
-1.98164e-07
-9.00319e-07
8.1552e-07
-7.22122e-07
9.9739e-07
0.00115214
8.1125e-09
-1.20034e-07
-0.000245403
1.96426e-09
0.000245465
-1.91526e-07
9.94509e-07
-7.2605e-07
-9.04224e-07
8.12573e-07
-2.30979e-08
1.04113e-08
5.88761e-08
0.000245375
-0.000250048
-1.9252e-07
-4.67198e-09
0.000250183
3.90583e-08
0.000229333
-2.80899e-08
1.87568e-08
-0.000229313
0.000193613
9.78428e-09
-0.000193624
0.000193652
1.87504e-08
-0.000193627
3.41152e-08
0.000229311
-2.50098e-08
-1.90678e-09
-0.000229329
4.05435e-08
0.000250138
-1.6365e-07
4.61229e-08
-0.000250022
0.00115236
-4.09006e-08
9.63372e-07
-7.41129e-07
7.92081e-07
-9.22806e-07
-0.00115247
-4.16394e-08
9.36986e-08
0.000245299
-3.6415e-08
-0.000245349
-8.05582e-08
0.00113089
-1.67612e-08
-1.19791e-06
2.83853e-07
-1.75511e-07
-8.60179e-07
1.89602e-07
-2.14672e-07
8.44381e-07
0.00115225
-3.19828e-08
-9.35701e-07
7.8046e-07
-7.52919e-07
9.51422e-07
1.01303e-09
0.000245369
-5.34892e-08
-0.000245308
-5.19678e-08
-1.65539e-08
0.000250022
1.28289e-07
1.78131e-08
-0.000250136
0.000229292
1.45884e-08
4.49558e-08
-0.000229272
3.41214e-08
0.000193594
-5.8746e-08
-0.000193611
0.000193602
1.63994e-08
-2.87943e-08
-0.000193589
0.00022927
-6.33571e-09
4.01257e-08
-0.000229286
-2.77965e-08
4.48726e-08
-3.22913e-08
1.43179e-07
0.000250058
1.5056e-08
-8.40551e-08
1.21947e-06
-2.09754e-07
2.36035e-07
8.7475e-07
-1.86275e-07
-8.3522e-07
2.22797e-07
3.6357e-08
-9.96313e-08
-0.000245437
1.62119e-08
0.000245499
-0.0011524
1.65442e-07
-1.07553e-07
-9.26754e-07
7.90221e-07
9.71935e-07
-7.48192e-07
0.00115229
-1.40248e-08
1.58359e-08
7.36371e-08
0.000245433
1.05238e-07
-7.48501e-08
9.67649e-07
-7.49582e-07
-9.28817e-07
7.86534e-07
3.89477e-08
3.79647e-08
-0.000250051
-2.96828e-08
-1.70237e-07
0.000250174
3.71964e-08
-2.771e-08
-1.22829e-08
0.000229308
-0.00019364
2.39739e-08
0.000193664
1.80189e-08
0.000193634
2.08538e-08
-0.000229307
-2.01076e-08
1.15732e-08
0.000229333
-3.63114e-08
1.50865e-07
4.95345e-08
0.000250018
-2.29147e-07
-1.16474e-06
-7.48147e-08
8.45725e-07
-2.161e-07
-8.63644e-07
1.94815e-07
1.31245e-06
-1.4383e-07
3.08186e-07
-0.00115215
0.00115206
-1.02266e-07
-9.36219e-07
7.83054e-07
-7.55929e-07
9.61273e-07
2.4179e-08
-2.88965e-09
0.000245433
-7.69971e-08
-0.000245359
-1.75824e-08
-5.23259e-08
9.48662e-07
-7.59342e-07
-9.41663e-07
7.76307e-07
-4.3358e-08
8.7918e-09
-3.8396e-08
1.15083e-07
0.000245327
3.39239e-08
0.000250137
-0.000250017
-1.60475e-07
4.46825e-08
-1.59657e-08
4.04903e-08
0.000229269
-2.02003e-08
0.00019359
-0.000193572
2.64369e-08
-2.99415e-09
-1.74371e-08
0.000193579
0.000229298
-0.00022927
1.04071e-08
1.66135e-08
1.28311e-08
0.000278114
-3.79362e-08
-0.000278117
2.14146e-08
1.00036e-08
0.000278223
-6.07509e-08
-0.000278227
0.000270096
-0.00026805
2.59888e-07
2.68955e-07
0.000278169
-1.20168e-08
-0.000278139
-4.69196e-08
4.51219e-08
0.000278272
-4.46572e-08
-0.000278245
-5.92992e-08
3.93559e-08
9.80106e-05
-9.80286e-05
9.8014e-05
3.45335e-08
-9.80034e-05
-2.12327e-08
-9.8001e-05
9.80223e-05
-5.37794e-09
9.79927e-05
1.15484e-06
0.000268109
-1.7687e-07
-1.75828e-07
-5.20239e-08
-0.000278165
1.44368e-08
0.000278189
3.03945e-08
2.22279e-08
-6.67587e-08
-0.00027826
-7.53949e-09
0.000278281
-1.72192e-08
2.5857e-09
0.000278155
2.71547e-08
5.04494e-08
-4.96738e-08
-1.14891e-08
0.000278256
1.22954e-08
-9.80077e-05
9.80258e-05
3.94258e-08
9.80018e-05
3.41773e-08
0.000250099
-1.64945e-07
-3.15771e-09
-0.000249973
0.00115224
6.08016e-08
9.54383e-07
-7.58285e-07
7.75034e-07
-9.37182e-07
-0.00115247
-2.86605e-08
8.66809e-08
0.000245297
8.5721e-09
-0.000245354
3.43191e-08
0.00113194
-5.57781e-08
-1.18624e-06
2.47637e-07
-2.01373e-07
-8.43305e-07
2.13363e-07
-1.98698e-07
8.64493e-07
0.00115205
-3.01427e-08
-9.29674e-07
7.84298e-07
-7.4832e-07
9.61189e-07
7.5138e-09
0.000245367
-5.749e-09
-0.000245302
-7.23628e-08
-3.48526e-08
0.000249966
1.45995e-07
-2.99151e-08
-0.000250086
2.33745e-08
0.000229273
-2.87343e-08
1.22825e-08
-0.00022924
0.000193559
3.73147e-08
-0.000193579
0.000193582
5.80684e-08
-0.000193561
-1.21956e-08
0.000229221
7.60179e-09
-1.88271e-08
-0.000229235
0.000229297
1.88492e-08
5.69529e-09
-0.000229264
6.10904e-09
0.000193625
-1.25109e-08
-0.000193647
0.000193629
7.46307e-09
-1.36806e-08
-0.000193615
0.00022925
-1.07636e-08
-1.71895e-08
-0.000229269
8.40969e-09
-3.02925e-08
1.37794e-07
-9.07814e-09
0.000249985
-1.76825e-07
-2.46223e-07
1.23988e-06
-1.90348e-07
2.4389e-07
9.04879e-07
-1.60758e-07
-8.08991e-07
2.57586e-07
-0.0011519
3.51277e-08
-2.16839e-07
-8.91143e-07
8.11751e-07
9.9623e-07
-7.1612e-07
0.00115185
5.42862e-08
-1.34825e-07
-0.000245445
3.72265e-08
0.000245511
-8.36152e-08
-1.63257e-07
9.86701e-07
-7.27092e-07
-9.01978e-07
8.01321e-07
1.15131e-09
3.76964e-08
5.29305e-08
0.000245422
4.11244e-08
5.25837e-08
-0.000250019
-1.90453e-07
-4.31505e-08
0.000250159
-3.8195e-08
1.42947e-07
7.46597e-09
0.000249995
-6.56808e-08
-1.16822e-06
-1.75335e-07
8.72531e-07
-1.92377e-07
-8.37277e-07
2.2359e-07
1.2388e-06
-1.80891e-07
2.66727e-07
-0.00115192
-1.99449e-07
-9.11383e-07
8.05011e-07
-7.27982e-07
9.81698e-07
0.00115184
1.7757e-08
3.63263e-09
0.000245447
-8.6004e-08
-0.000245367
-1.53871e-08
-1.24261e-07
9.70439e-07
-7.38028e-07
-9.21286e-07
7.94607e-07
-4.08086e-08
-1.88796e-08
1.33034e-09
9.93134e-08
0.000245326
4.34857e-08
-0.000250028
-1.77552e-07
3.86166e-08
0.000250165
3.34092e-08
-3.82182e-08
-1.44223e-08
0.000229262
-0.000193583
3.83971e-08
0.000193612
5.42101e-08
0.000193568
4.43494e-08
-0.000229285
-4.65384e-08
2.00774e-08
0.00022932
2.65419e-08
-1.81756e-08
0.000229283
-3.56985e-09
0.000193629
-0.000193606
-1.62581e-09
-4.12699e-09
-1.47366e-08
0.000193607
-0.00022931
3.50816e-08
1.36618e-08
0.000229349
9.80299e-05
-9.80418e-05
9.80358e-05
-9.80267e-05
9.80372e-05
-9.8053e-05
9.80344e-05
-9.80277e-05
0.00026792
-1.94011e-07
-1.64819e-07
3.20686e-08
-3.2824e-08
-0.000278221
-4.21558e-08
1.70062e-08
-3.11016e-08
-0.00027816
-2.11266e-08
-1.31583e-08
-2.13749e-08
5.28943e-08
0.000278187
-1.30245e-08
-3.09928e-08
3.21599e-08
0.000278126
9.80257e-05
-9.80139e-05
9.80196e-05
9.80267e-05
-9.80133e-05
9.80173e-05
9.7962e-07
-7.43371e-07
7.97932e-07
-9.23047e-07
-1.87545e-07
-1.66874e-07
-1.67054e-08
7.91124e-08
2.96346e-09
0.000245401
-3.52514e-08
0.000250025
1.43989e-07
3.74886e-08
-3.45486e-08
-3.15096e-08
3.05249e-08
0.000193574
0.000229287
-1.67844e-08
5.97934e-09
-1.33571e-08
-2.52393e-08
8.04279e-08
0.000245417
-7.0879e-09
-1.35414e-08
0.000193618
-6.91274e-10
9.80135e-05
9.80155e-05
-4.76505e-09
6.69483e-09
0.000143329
6.66845e-09
-0.000143338
-0.000171069
1.26232e-10
3.26923e-09
0.000171088
-0.000223277
2.07741e-08
1.58901e-08
0.000223304
-4.93927e-08
-3.10228e-09
1.79769e-08
-0.000229305
-1.08235e-08
1.40386e-08
-0.000171078
9.04997e-10
1.93425e-08
-0.000223293
2.18208e-08
3.22721e-09
0.000143347
-1.19268e-08
-7.92408e-05
7.92625e-05
-9.79102e-09
-1.97185e-08
0.000193617
1.86768e-08
-2.6766e-08
0.00026312
-1.86679e-08
-2.53453e-08
2.29511e-08
-0.000263126
0.000263154
-2.48588e-08
-4.12153e-08
-1.2669e-08
-7.92468e-05
1.45227e-08
7.92546e-05
-0.000263144
1.60568e-08
0.000263175
-3.84896e-08
-1.72861e-08
6.61804e-09
2.18889e-08
2.71161e-08
7.92739e-05
-6.99093e-09
-2.28597e-08
-0.000143318
2.79402e-08
2.15116e-08
-1.4134e-08
-6.31692e-08
0.000171055
1.17721e-08
-5.58843e-09
-0.000171059
0.000223264
-4.53481e-09
1.48125e-08
-0.000223278
-2.1521e-09
-5.53693e-08
-0.000143323
9.80312e-05
-2.24457e-08
8.21518e-10
-1.31725e-08
1.75977e-08
8.9966e-09
-2.26778e-09
0.000143391
-5.58121e-10
-0.000143398
-0.000223337
1.46745e-08
-9.31266e-09
0.000223372
-5.27916e-08
-0.00017109
5.87693e-09
-1.04173e-08
0.00017111
-2.03915e-08
-1.01237e-08
-0.000229296
1.79349e-08
2.64416e-08
-1.72202e-08
-0.000223354
2.26807e-08
-0.000171097
-5.67937e-09
2.57159e-09
0.000143409
-1.7693e-08
-7.92913e-05
7.9304e-05
4.93772e-09
1.75649e-08
0.000193625
-3.38512e-09
-4.05021e-08
0.000263225
-2.56002e-09
2.65372e-08
1.65055e-08
-0.000263247
0.000263256
2.10461e-08
-5.26335e-08
8.50869e-09
-7.93023e-05
1.0717e-08
7.92928e-05
-0.000263236
1.00714e-08
0.00026327
-4.7207e-08
7.85631e-09
-8.68302e-09
1.49471e-08
2.22816e-08
7.93054e-05
-1.73095e-08
4.64409e-09
-0.00014338
-2.58631e-08
1.41917e-08
2.52968e-08
-5.15352e-08
0.000223318
-5.62162e-09
1.71393e-08
-0.000223334
0.000171078
-9.08447e-09
6.19761e-09
-0.000171085
-5.78475e-08
-1.25324e-10
-0.000143386
9.80084e-05
1.46925e-08
-2.66648e-08
2.18846e-08
-5.4941e-09
-1.34424e-08
1.76948e-09
0.000213802
-2.09712e-08
1.14749e-08
-0.000213781
-8.05948e-05
-5.04823e-09
7.71096e-09
8.05921e-05
-8.05835e-05
-1.27378e-08
1.47381e-08
8.05815e-05
5.58305e-09
-8.06138e-05
1.99015e-08
-8.06016e-05
-3.6641e-08
-1.41741e-08
0.000213835
-6.41687e-08
-1.20672e-08
-0.000221782
0.000221842
3.62111e-08
-2.00792e-08
0.000250494
1.94224e-08
6.5333e-08
-8.93294e-10
-0.000250522
8.82124e-09
4.25833e-08
0.000278176
-2.45748e-08
-5.69061e-08
0.000183099
4.08917e-08
1.79015e-08
-0.000183114
0.000250555
-4.45115e-08
-7.25422e-08
0.000183113
1.61212e-08
1.41938e-08
4.32164e-08
-0.000221779
-2.64298e-08
9.23738e-09
-0.000221717
0.000221778
4.88018e-09
-4.84836e-08
0.000250387
-1.18003e-08
6.1515e-08
2.35722e-08
-0.000250425
-1.05065e-08
2.75371e-09
0.000278115
-5.18504e-09
-1.10753e-08
0.000183044
1.58613e-08
-7.64686e-09
-0.000183055
0.000250454
-6.8822e-08
-3.49503e-08
0.000183061
-4.45592e-09
-2.06164e-08
2.2576e-08
-0.000221715
-3.45442e-08
-4.33001e-08
0.000221859
4.07177e-08
-0.00018309
5.47541e-09
0.0001831
6.3541e-08
1.45851e-08
-3.416e-08
-2.90982e-08
-0.000250543
7.044e-08
0.000250619
-4.48213e-08
-9.43763e-08
7.16765e-08
-3.0521e-08
0.000221927
-2.90163e-08
6.08766e-09
-1.94023e-08
0.000221794
8.66782e-09
-0.000183043
-1.03386e-08
0.000183055
3.8941e-08
-1.79383e-08
-2.06621e-08
1.4081e-08
-0.000250435
3.24032e-08
0.000250519
-8.01106e-08
-4.79536e-08
5.09118e-08
1.34348e-08
0.000221864
-6.17387e-08
-1.18645e-08
9.19435e-09
-0.000213737
8.06096e-05
2.80295e-08
-8.06197e-05
8.05969e-05
1.66772e-09
-8.06062e-05
-0.000213714
-0.000222048
-1.5173e-08
3.48872e-08
7.04039e-09
-6.07484e-08
-1.05267e-08
0.000250771
-0.00025078
3.45803e-08
-5.49637e-09
1.97523e-09
0.000183044
-3.63986e-08
-0.000183066
-5.11736e-08
-4.38486e-08
3.87304e-08
1.68361e-08
-5.75355e-09
-0.000222057
6.69067e-09
-8.89336e-08
-4.77486e-08
-2.26955e-08
-0.000221989
-2.68612e-08
2.11761e-08
2.52959e-08
-5.46003e-08
-6.88837e-09
0.000250676
-0.000250689
3.15917e-08
-4.29844e-12
8.61395e-09
0.000183011
-1.9282e-08
-0.000183032
-4.11409e-08
-1.53184e-08
2.19837e-08
-5.01266e-09
4.61419e-09
-0.000221998
6.17156e-09
-9.47082e-08
-5.35753e-08
-5.11985e-09
-0.000213841
2.63298e-08
8.63704e-09
-1.62031e-08
8.05133e-05
-8.05335e-05
1.19631e-09
8.0504e-05
-8.05245e-05
-0.000213857
9.80417e-05
9.11995e-10
1.46979e-08
9.80397e-05
-1.838e-08
1.67245e-09
-1.17392e-08
3.21305e-09
0.00021374
-1.06969e-08
1.917e-08
-0.000213739
-8.05612e-05
-2.2992e-09
-5.34749e-09
8.05689e-05
-8.05474e-05
-9.62433e-09
1.26282e-09
8.05558e-05
-1.14613e-09
-8.05718e-05
1.29624e-08
-8.05571e-05
-2.92551e-08
-1.31105e-09
0.000213758
6.04493e-09
-4.98293e-08
-0.00022184
0.000221876
3.45809e-08
-2.72185e-08
0.000250601
1.15731e-08
5.22749e-08
2.20913e-09
-0.000250643
3.01386e-08
-1.97927e-08
0.000278195
-3.93119e-08
0.000183053
2.00326e-08
1.16221e-08
-0.000183061
0.000183073
1.57937e-08
0.000250654
-6.65898e-08
-5.57333e-08
1.26263e-08
3.40209e-08
-0.000221855
3.06245e-08
-8.20649e-09
-0.000221769
0.00022181
-3.06288e-09
-6.03847e-08
0.000250497
-2.44404e-08
4.05368e-08
3.80116e-08
-0.000250547
-1.09266e-08
-4.15872e-08
0.000278148
5.64507e-09
0.000182992
-4.46208e-09
-1.47599e-08
-0.000182997
0.000183017
-5.12602e-09
0.000250554
-8.88168e-08
-1.71482e-08
-2.09432e-08
1.17106e-08
-0.000221789
-2.06954e-08
0.000221863
-1.56573e-08
3.85837e-08
-0.000183062
-8.20684e-09
0.000183079
1.03471e-08
2.94579e-08
-1.77719e-08
4.86831e-08
-0.000250615
0.00025067
-6.0496e-08
-6.11758e-08
0.000221901
-2.64842e-08
6.24559e-08
-9.57731e-09
1.64547e-09
0.000221794
2.727e-08
6.63146e-09
-0.00018301
-2.66208e-08
0.000183032
-2.14904e-08
7.36161e-09
2.79901e-08
8.8957e-09
-0.00025051
0.000250571
-9.1999e-08
-1.63961e-08
0.000221837
-6.21555e-08
3.49014e-08
4.36486e-08
-5.7751e-09
1.57181e-08
-0.000213718
8.05618e-05
1.88464e-08
-8.0569e-05
8.05466e-05
-8.26345e-09
-8.05531e-05
-0.000213716
-9.80527e-05
2.71747e-09
9.24624e-09
-1.22791e-08
-1.18981e-09
-9.80445e-05
1.466e-08
-2.5746e-09
-5.47895e-09
-7.33094e-09
-0.000213755
9.84482e-09
3.13193e-09
-1.97424e-08
-8.4471e-09
0.00021377
3.50463e-09
8.05573e-05
8.04508e-09
3.44121e-09
8.05448e-05
7.49679e-09
-2.91511e-09
1.30445e-08
1.97557e-09
8.05652e-05
-5.12888e-09
8.05531e-05
-1.0201e-08
2.07621e-09
0.00022191
-0.000221925
-7.20624e-09
2.99163e-08
-0.000250654
2.67916e-08
-6.8245e-08
-4.41971e-08
0.000250712
-1.64379e-08
2.28268e-08
-0.000278233
6.37906e-09
-0.000183068
-1.9824e-08
-4.15148e-09
0.000183085
-0.000183082
-1.29025e-08
-0.00025069
6.06301e-08
1.58181e-11
1.03273e-08
-3.82251e-08
0.000221945
-9.25663e-09
1.68572e-08
0.000221846
-0.000221864
-5.44388e-09
1.55753e-08
-0.00025056
2.22262e-08
-8.46374e-08
-3.34123e-08
0.000250626
-3.27881e-09
1.56393e-08
-0.000278184
1.27009e-08
-0.000183029
-1.49175e-08
1.2195e-08
0.000183046
-0.000183041
-2.08072e-10
-0.000250597
3.77117e-08
3.16955e-08
1.5796e-08
-4.85858e-08
0.000221886
-0.000221888
1.36983e-08
-3.9216e-08
-3.11e-08
1.63517e-08
0.000183066
9.71752e-09
0.000250633
6.4665e-08
-9.275e-09
8.79946e-10
-2.15989e-08
-1.7939e-08
3.61345e-08
-6.19129e-08
-5.57906e-08
-0.000221821
2.07906e-08
-1.43707e-08
-5.74974e-08
3.28161e-09
0.000183022
-2.38741e-08
0.000250532
3.40795e-08
4.0393e-08
3.5576e-09
-3.39518e-08
-4.81831e-09
8.33187e-09
-9.03152e-08
-2.29471e-08
2.80275e-09
-9.52916e-09
0.000213764
-8.05551e-05
-1.42585e-08
8.05652e-05
-8.05433e-05
1.96678e-09
8.05536e-05
0.000213778
-6.88585e-09
2.27829e-09
0.000143401
9.77256e-09
-0.000143406
-0.000171104
6.68307e-09
0.000171124
-0.000223363
1.93582e-08
1.19014e-08
0.000223392
-5.7058e-08
-2.21904e-09
-9.42904e-10
-0.000229344
1.12308e-08
-0.000171112
8.92979e-09
-0.000223388
1.65364e-08
9.08815e-09
0.000143418
-1.31302e-08
-7.92778e-05
7.92992e-05
-8.29695e-09
-1.6082e-08
0.000193647
-3.68356e-08
0.000263227
-8.71639e-09
-3.71308e-09
1.25785e-08
-0.000263245
0.000263261
-8.3563e-09
-5.44791e-08
-6.81392e-09
-7.92797e-05
1.33081e-08
7.92957e-05
-0.000263242
9.98165e-09
0.000263274
-4.48993e-08
-1.93674e-08
1.56075e-08
2.22115e-08
7.93148e-05
-3.36649e-09
-2.54508e-08
-0.000143386
2.93855e-08
-3.48433e-09
-6.66432e-08
0.000171088
1.7685e-09
-0.000171092
0.000223357
3.5666e-09
6.49274e-09
-0.000223378
-6.77469e-08
-0.000143387
-0.000143336
5.01382e-09
-1.90917e-08
-2.65994e-09
0.000143353
-1.56553e-09
0.000171077
4.76232e-09
-8.64938e-09
0.000223285
8.75116e-09
2.6692e-08
1.84299e-08
4.16209e-09
0.000229316
1.11359e-09
-4.80894e-08
1.10636e-11
0.000171095
5.20727e-09
4.80805e-09
0.000223312
-4.60476e-08
7.9266e-05
9.05842e-09
-7.92795e-05
4.42312e-09
6.06523e-09
-0.000193638
1.85612e-08
1.94493e-08
-0.000263176
3.99083e-09
-4.01512e-08
0.000263205
5.48315e-09
7.928e-05
-0.00026319
1.61892e-09
2.78009e-08
-7.92632e-05
-1.89646e-08
-1.07578e-08
0.000263161
2.87324e-08
4.8601e-09
-2.82768e-08
-3.8495e-08
0.000143343
4.80195e-09
1.01919e-08
-1.15189e-08
-6.24277e-10
4.05142e-09
2.71809e-08
-6.24335e-09
-0.000171084
3.3526e-09
0.000171103
1.77568e-08
-0.000223294
-4.56651e-08
0.000223323
0.00014336
4.68631e-09
2.84769e-08
-0.00014341
-5.20192e-09
-1.48416e-08
5.26691e-09
0.000143425
7.86647e-09
0.000171113
-7.90355e-09
0.000223368
1.05535e-08
2.67271e-08
1.82008e-08
7.7289e-09
0.000229353
-4.86058e-08
8.11311e-09
0.000171131
1.14512e-08
0.000223398
-4.86391e-08
1.30067e-08
7.93134e-05
-7.93236e-05
-2.83836e-09
-4.48866e-09
-0.000193672
-3.30918e-09
2.32555e-08
-0.000263273
1.31276e-08
-6.97018e-09
-3.95317e-08
0.000263311
-0.00026329
-7.98541e-09
3.28546e-08
5.97094e-10
7.9326e-05
-7.93081e-05
-1.02827e-08
-1.48164e-08
0.000263255
3.02272e-08
-6.28924e-09
8.95531e-09
-2.50995e-08
-3.97058e-08
-4.38116e-09
1.11485e-08
0.000143415
-1.20106e-08
7.73735e-09
2.73067e-08
-0.000171119
4.44221e-10
0.000171138
-0.000223376
1.31717e-08
-4.53864e-08
0.000223409
3.2741e-08
0.000143429
-1.44377e-08
5.51756e-09
0.000213761
-1.19033e-08
5.88215e-09
-0.000213746
-8.05706e-05
2.2077e-09
-1.18194e-08
8.05802e-05
-8.05822e-05
-1.71334e-08
7.48857e-09
8.05918e-05
-9.03978e-09
-8.0576e-05
1.05789e-08
-8.05873e-05
-3.49103e-08
-1.09349e-08
0.000213791
1.53751e-08