/*--------------------------------*- C++ -*----------------------------------*\
| =========                 |                                                 |
| \\      /  F ield         | OpenFOAM: The Open Source CFD Toolbox           |
|  \\    /   O peration     | Version:  v1906                                 |
|   \\  /    A nd           | Web:      www.OpenFOAM.com                      |
|    \\/     M anipulation  |                                                 |
\*---------------------------------------------------------------------------*/
FoamFile
{
    version     2.0;
    format      ascii;
    class       volVectorField;
    location    "500";
    object      U;
}
// * * * * * * * * * * * * * * * * * * * * * * * * * * * * * * * * * * * * * //

dimensions      [0 1 -1 0 0 0 0];


internalField   nonuniform List<vector> 
43024
(
(0.000107958 0.000107892 0.100299)
(-0.000190195 0.00011927 0.100385)
(0.000119341 -0.000190187 0.100385)
(-0.000239593 -0.000239612 0.100397)
(9.4279e-05 9.42317e-05 0.10086)
(-0.000158938 9.68065e-05 0.100942)
(9.68112e-05 -0.000158935 0.100942)
(-0.000201048 -0.000201099 0.100968)
(9.54251e-05 9.54136e-05 0.10137)
(-0.000155796 9.34676e-05 0.101449)
(9.34565e-05 -0.000155804 0.101449)
(-0.000201982 -0.000202038 0.101471)
(9.38876e-05 9.38753e-05 0.101892)
(-0.000152047 9.00839e-05 0.101957)
(9.00956e-05 -0.000152051 0.101957)
(-0.000198954 -0.000198999 0.101964)
(9.11346e-05 9.11282e-05 0.102398)
(-0.00014629 8.55649e-05 0.102446)
(8.55794e-05 -0.000146293 0.102446)
(-0.000193549 -0.000193593 0.102432)
(8.81557e-05 8.81568e-05 0.102885)
(-0.000140615 8.15784e-05 0.102912)
(8.15885e-05 -0.000140615 0.102912)
(-0.000188049 -0.000188119 0.102871)
(8.53045e-05 8.53216e-05 0.103353)
(-0.000135516 7.8418e-05 0.103354)
(7.84165e-05 -0.000135519 0.103354)
(-0.000183709 -0.000183757 0.103281)
(8.28e-05 8.28712e-05 0.103803)
(-0.000131057 7.59661e-05 0.103774)
(7.6082e-05 -0.000131104 0.103774)
(-0.000180348 -0.000180471 0.103664)
(8.07326e-05 8.06397e-05 0.104237)
(-0.000127289 7.41811e-05 0.104174)
(7.41633e-05 -0.00012727 0.104175)
(-0.000177823 -0.000177787 0.104022)
(7.86774e-05 7.86018e-05 0.104658)
(-0.000124099 7.28973e-05 0.104557)
(7.28655e-05 -0.000124071 0.104557)
(-0.00017716 -0.000177315 0.104359)
(7.71217e-05 7.7162e-05 0.105066)
(-0.000121226 7.1813e-05 0.104924)
(7.1756e-05 -0.00012122 0.104924)
(-0.0001759 -0.000176309 0.104672)
(7.566e-05 7.56921e-05 0.105463)
(-0.00011857 7.05549e-05 0.105276)
(7.0846e-05 -0.000118657 0.105276)
(-0.000176091 -0.000175678 0.104966)
(7.43577e-05 7.4328e-05 0.105851)
(-0.000116149 6.90697e-05 0.105614)
(6.94788e-05 -0.000116283 0.105614)
(-0.000175769 -0.000175784 0.105238)
(7.27568e-05 7.27344e-05 0.106228)
(-0.000114028 6.80784e-05 0.105938)
(6.85268e-05 -0.000114183 0.105937)
(-0.00017588 -0.000176115 0.105488)
(7.15859e-05 7.17933e-05 0.106596)
(-0.000111331 6.74276e-05 0.106247)
(6.71086e-05 -0.000111166 0.106247)
(-0.000174496 -0.000173768 0.105719)
(6.97465e-05 6.96555e-05 0.106955)
(-0.000108359 6.4564e-05 0.106542)
(6.40445e-05 -0.000108357 0.106542)
(-0.000170618 -0.000170777 0.105923)
(6.8107e-05 6.85253e-05 0.107305)
(-0.000105051 6.28956e-05 0.106819)
(6.44492e-05 -0.000106413 0.106818)
(-0.000168884 -0.000169448 0.106102)
(6.68297e-05 6.74421e-05 0.107643)
(-0.000108211 7.10992e-05 0.107076)
(6.63902e-05 -0.000107252 0.107076)
(-0.000165112 -0.000165813 0.106253)
(6.46533e-05 6.36352e-05 0.107977)
(-0.000103248 5.77311e-05 0.107324)
(6.65583e-05 -0.000105599 0.107324)
(-0.00017336 -0.000174703 0.106354)
(7.11019e-05 7.11712e-05 0.108305)
(-0.000101502 6.50181e-05 0.107555)
(6.5365e-05 -0.000104423 0.107553)
(-0.000184638 -0.000185663 0.106455)
(6.39761e-05 6.79373e-05 0.108643)
(-0.000106614 9.32103e-05 0.107767)
(7.29757e-05 -0.000101133 0.107775)
(-0.000159301 -0.000155524 0.106435)
(0.000134959 0.000134949 0.100282)
(0.000124248 0.000152867 0.100229)
(-0.00012424 0.000152848 0.100229)
(-0.000134956 0.000134918 0.100282)
(0.000152896 0.0001242 0.100229)
(0.000152868 -0.000124217 0.100229)
(9.08046e-05 9.07529e-05 0.100151)
(-9.07948e-05 9.07504e-05 0.100151)
(9.07789e-05 -9.07987e-05 0.100151)
(-9.07766e-05 -9.07967e-05 0.100151)
(-0.000152892 0.000124197 0.100229)
(-0.000152878 -0.000124212 0.100229)
(0.000134949 -0.000134968 0.100282)
(0.000124201 -0.000152897 0.100229)
(-0.000124198 -0.000152879 0.100229)
(-0.000134959 -0.000134941 0.100282)
(0.000239635 0.000239615 0.100397)
(0.000111303 0.000111177 0.100892)
(0.000119392 0.000190088 0.100385)
(-0.000119343 0.000190129 0.100385)
(8.91023e-05 0.000147213 0.100823)
(-8.9064e-05 0.00014721 0.100823)
(-0.000239644 0.000239563 0.100397)
(-0.000111268 0.000111147 0.100892)
(0.000190231 0.000119289 0.100385)
(0.00019017 -0.000119349 0.100385)
(0.00014719 8.90737e-05 0.100823)
(0.000147222 -8.9095e-05 0.100823)
(-0.000190151 -0.000119353 0.100385)
(-0.000147159 8.90749e-05 0.100823)
(-0.000147179 -8.90891e-05 0.100823)
(0.000239567 -0.000239657 0.100397)
(0.000111258 -0.000111271 0.100892)
(-0.000119321 -0.000190216 0.100385)
(8.90759e-05 -0.000147148 0.100823)
(-8.90554e-05 -0.000147174 0.100823)
(-0.000111253 -0.000111273 0.100892)
(0.000201135 0.000200968 0.100968)
(0.000105727 0.000105641 0.101395)
(9.68197e-05 0.000158993 0.100941)
(-9.67926e-05 0.000158989 0.100941)
(9.42004e-05 0.000156671 0.10132)
(-9.41994e-05 0.000156672 0.10132)
(-0.000201097 0.000200935 0.100967)
(-0.000105708 0.000105634 0.101395)
(0.000158972 9.68003e-05 0.100942)
(0.00015899 -9.68128e-05 0.100942)
(0.000156627 9.42038e-05 0.10132)
(0.000156667 -9.42067e-05 0.10132)
(-0.000158967 -9.68078e-05 0.100942)
(-0.000156623 9.42123e-05 0.10132)
(-0.000156645 -9.41969e-05 0.10132)
(0.000201043 -0.000201106 0.100968)
(0.000105685 -0.000105696 0.101395)
(-9.67931e-05 -0.000158961 0.100942)
(9.42007e-05 -0.000156624 0.10132)
(-9.42069e-05 -0.000156644 0.10132)
(-0.000105704 -0.000105707 0.101395)
(0.000202058 0.000201932 0.101471)
(9.66248e-05 9.65597e-05 0.101893)
(9.34486e-05 0.000155855 0.101449)
(-9.34549e-05 0.000155851 0.101449)
(9.11475e-05 0.000153338 0.101832)
(-9.11377e-05 0.000153325 0.101832)
(-0.000202041 0.000201909 0.101471)
(-9.65961e-05 9.65455e-05 0.101893)
(0.000155804 9.34628e-05 0.101449)
(0.000155846 -9.34587e-05 0.101449)
(0.000153277 9.11513e-05 0.101832)
(0.000153309 -9.11363e-05 0.101832)
(-0.000155828 -9.34524e-05 0.101449)
(-0.000153271 9.11436e-05 0.101832)
(-0.000153308 -9.11401e-05 0.101832)
(0.000201968 -0.000202044 0.101471)
(9.65726e-05 -9.65981e-05 0.101893)
(-9.3465e-05 -0.000155826 0.101449)
(9.11518e-05 -0.000153275 0.101832)
(-9.11387e-05 -0.000153283 0.101832)
(-9.66073e-05 -9.66267e-05 0.101893)
(0.000198965 0.000198889 0.101964)
(8.60784e-05 8.60373e-05 0.102366)
(9.00945e-05 0.000152108 0.101957)
(-9.00799e-05 0.0001521 0.101957)
(8.66928e-05 0.000147837 0.102326)
(-8.66849e-05 0.000147826 0.102326)
(-0.000198982 0.000198881 0.101964)
(-8.60677e-05 8.60313e-05 0.102366)
(0.000152054 9.00937e-05 0.101957)
(0.000152085 -9.00771e-05 0.101957)
(0.000147776 8.66968e-05 0.102326)
(0.000147808 -8.66792e-05 0.102326)
(-0.000152088 -9.00828e-05 0.101957)
(-0.000147769 8.66904e-05 0.102326)
(-0.000147812 -8.66839e-05 0.102326)
(0.000198903 -0.000199006 0.101964)
(8.60507e-05 -8.61179e-05 0.102366)
(-9.00843e-05 -0.000152058 0.101957)
(8.67028e-05 -0.000147773 0.102326)
(-8.66761e-05 -0.00014777 0.102326)
(-8.60682e-05 -8.61094e-05 0.102366)
(0.000193555 0.000193512 0.102432)
(7.60207e-05 7.59691e-05 0.102812)
(8.55787e-05 0.000146345 0.102446)
(-8.55639e-05 0.000146347 0.102446)
(8.25134e-05 0.000142064 0.102797)
(-8.25245e-05 0.000142068 0.102797)
(-0.000193603 0.000193527 0.102432)
(-7.59954e-05 7.60235e-05 0.102812)
(0.000146295 8.55749e-05 0.102446)
(0.000146323 -8.55495e-05 0.102446)
(0.000142 8.25183e-05 0.102798)
(0.000142048 -8.2517e-05 0.102798)
(-0.000146337 -8.55656e-05 0.102446)
(-0.000142005 8.25388e-05 0.102797)
(-0.000142035 -8.25099e-05 0.102798)
(0.000193528 -0.000193595 0.102432)
(7.61319e-05 -7.61579e-05 0.102812)
(-8.5568e-05 -0.000146294 0.102446)
(8.25512e-05 -0.000142013 0.102798)
(-8.25018e-05 -0.000141989 0.102798)
(-7.61228e-05 -7.61361e-05 0.102812)
(0.000188042 0.000188035 0.10287)
(6.70625e-05 6.6958e-05 0.10323)
(8.1616e-05 0.000140685 0.102912)
(-8.15832e-05 0.000140685 0.102912)
(7.90988e-05 0.000136755 0.103245)
(-7.91006e-05 0.000136756 0.103245)
(-0.000188362 0.000188281 0.10287)
(-6.686e-05 6.68662e-05 0.103229)
(0.000140639 8.16138e-05 0.102912)
(0.000140642 -8.1554e-05 0.102912)
(0.000136689 7.91034e-05 0.103245)
(0.000136766 -7.9104e-05 0.103245)
(-0.000140682 -8.15948e-05 0.102912)
(-0.0001367 7.91169e-05 0.103245)
(-0.000136759 -7.91317e-05 0.103245)
(0.000188252 -0.000188319 0.102871)
(6.69601e-05 -6.70552e-05 0.103229)
(-8.15952e-05 -0.000140629 0.102912)
(7.91695e-05 -0.000136716 0.103245)
(-7.91308e-05 -0.000136702 0.103245)
(-6.72544e-05 -6.72506e-05 0.103229)
(0.000183372 0.000183378 0.103281)
(5.96297e-05 5.93111e-05 0.10362)
(7.84237e-05 0.000135569 0.103354)
(-7.84031e-05 0.000135578 0.103354)
(7.65275e-05 0.000132202 0.103671)
(-7.63959e-05 0.000132111 0.103671)
(-0.000183758 0.000183629 0.10328)
(-5.89355e-05 5.90112e-05 0.103621)
(0.000135533 7.84299e-05 0.103354)
(0.000135514 -7.83711e-05 0.103354)
(0.000132141 7.65244e-05 0.103671)
(0.000132102 -7.64151e-05 0.103671)
(-0.000135539 -7.83739e-05 0.103354)
(-0.000132078 7.64146e-05 0.103671)
(-0.000132164 -7.64954e-05 0.103671)
(0.000183832 -0.000183791 0.10328)
(5.85174e-05 -5.90143e-05 0.103621)
(-7.83747e-05 -0.000135488 0.103354)
(7.64225e-05 -0.000132057 0.103671)
(-7.6491e-05 -0.000132121 0.103671)
(-5.90737e-05 -5.90695e-05 0.10362)
(0.000180369 0.000180063 0.103664)
(5.22036e-05 5.26061e-05 0.103987)
(7.58862e-05 0.00013107 0.103774)
(-7.59892e-05 0.000131131 0.103774)
(7.47196e-05 0.000128262 0.104076)
(-7.47187e-05 0.000128311 0.104076)
(-0.000179681 0.000179526 0.103664)
(-5.29391e-05 5.29523e-05 0.103987)
(0.000131015 7.59268e-05 0.103774)
(0.000131143 -7.59562e-05 0.103774)
(0.000128263 7.46618e-05 0.104076)
(0.000128252 -7.46968e-05 0.104076)
(-0.000131079 -7.59391e-05 0.103774)
(-0.00012821 7.46551e-05 0.104076)
(-0.00012824 -7.45933e-05 0.104076)
(0.000179654 -0.000179964 0.103664)
(5.30081e-05 -5.27735e-05 0.103988)
(-7.59465e-05 -0.000131011 0.103774)
(7.46218e-05 -0.000128219 0.104076)
(-7.45552e-05 -0.000128157 0.104076)
(-5.2526e-05 -5.25132e-05 0.103988)
(0.000178495 0.000178236 0.104022)
(4.69666e-05 4.71361e-05 0.104333)
(7.43669e-05 0.000127429 0.104174)
(-7.42459e-05 0.00012734 0.104174)
(7.32127e-05 0.000124874 0.104463)
(-7.32461e-05 0.000124925 0.104463)
(-0.000178162 0.000178268 0.104023)
(-4.63135e-05 4.65565e-05 0.104332)
(0.000127333 7.42486e-05 0.104175)
(0.000127315 -7.42564e-05 0.104174)
(0.00012481 7.32215e-05 0.104463)
(0.000124849 -7.32929e-05 0.104463)
(-0.000127389 -7.42906e-05 0.104174)
(-0.000124906 7.3204e-05 0.104463)
(-0.00012494 -7.32956e-05 0.104463)
(0.000178046 -0.000178232 0.104023)
(4.66885e-05 -4.63642e-05 0.104332)
(-7.42466e-05 -0.000127343 0.104174)
(7.3185e-05 -0.000124875 0.104463)
(-7.32302e-05 -0.000124892 0.104463)
(-4.73745e-05 -4.72943e-05 0.104332)
(0.000176502 0.000176804 0.104359)
(4.16301e-05 4.1256e-05 0.104656)
(7.30185e-05 0.000124186 0.104557)
(-7.30584e-05 0.000124171 0.104557)
(7.21178e-05 0.00012202 0.104834)
(-7.21341e-05 0.00012203 0.104834)
(-0.000176777 0.000176838 0.104358)
(-4.20095e-05 4.14342e-05 0.104657)
(0.000124137 7.29181e-05 0.104557)
(0.000124182 -7.30117e-05 0.104557)
(0.00012193 7.20046e-05 0.104834)
(0.000121934 -7.19787e-05 0.104834)
(-0.000124086 -7.28404e-05 0.104557)
(-0.000121906 7.19841e-05 0.104834)
(-0.000121903 -7.20138e-05 0.104834)
(0.000176934 -0.000177278 0.104358)
(4.15652e-05 -4.17898e-05 0.104657)
(-7.27742e-05 -0.000124002 0.104558)
(7.1956e-05 -0.000121843 0.104834)
(-7.18823e-05 -0.000121869 0.104834)
(-4.08186e-05 -4.08883e-05 0.104657)
(0.000176569 0.000176505 0.104672)
(3.64482e-05 3.63293e-05 0.104961)
(7.18007e-05 0.000121361 0.104924)
(-7.17173e-05 0.000121325 0.104924)
(7.10359e-05 0.000119358 0.10519)
(-7.07902e-05 0.000119348 0.10519)
(-0.00017611 0.000175868 0.104673)
(-3.61279e-05 3.65199e-05 0.104961)
(0.000121304 7.18255e-05 0.104924)
(0.000121294 -7.17686e-05 0.104924)
(0.000119309 7.08967e-05 0.10519)
(0.000119371 -7.0932e-05 0.10519)
(-0.000121436 -7.19176e-05 0.104924)
(-0.000119245 7.0886e-05 0.10519)
(-0.000119325 -7.08855e-05 0.10519)
(0.000175943 -0.00017569 0.104673)
(3.58646e-05 -3.62446e-05 0.104961)
(-7.18471e-05 -0.000121323 0.104924)
(7.08582e-05 -0.000119263 0.10519)
(-7.0919e-05 -0.000119173 0.10519)
(-3.6508e-05 -3.67255e-05 0.104961)
(0.000176034 0.000175417 0.104966)
(3.13424e-05 3.14102e-05 0.105245)
(7.09179e-05 0.000118912 0.105276)
(-7.06434e-05 0.000118675 0.105276)
(6.98917e-05 0.000116994 0.105531)
(-6.97794e-05 0.000116848 0.105531)
(-0.000175368 0.000175879 0.104967)
(-3.14167e-05 3.16441e-05 0.105247)
(0.000118849 7.08759e-05 0.105277)
(0.000118722 -7.06825e-05 0.105276)
(0.000116913 6.99371e-05 0.105531)
(0.000116833 -6.95198e-05 0.105531)
(-0.000118833 -7.08434e-05 0.105276)
(-0.000116989 6.97611e-05 0.105531)
(-0.000116944 -6.97732e-05 0.105531)
(0.00017596 -0.000176123 0.104966)
(3.11568e-05 -3.04404e-05 0.105246)
(-7.08696e-05 -0.000118802 0.105276)
(6.97301e-05 -0.000116734 0.105531)
(-6.98414e-05 -0.000116798 0.105531)
(-3.15358e-05 -3.09815e-05 0.105245)
(0.00017612 0.000176354 0.105238)
(2.69893e-05 2.6817e-05 0.105509)
(6.98757e-05 0.0001165 0.105614)
(-6.92223e-05 0.000116143 0.105614)
(6.86106e-05 0.0001144 0.105858)
(-6.8207e-05 0.000114255 0.105859)
(-0.000175214 0.000175117 0.105239)
(-2.56638e-05 2.63061e-05 0.105513)
(0.000116417 6.98202e-05 0.105614)
(0.000116373 -6.96344e-05 0.105614)
(0.000114414 6.84692e-05 0.105858)
(0.000114518 -6.83022e-05 0.105858)
(-0.000116374 -6.97746e-05 0.105614)
(-0.000114311 6.83587e-05 0.105859)
(-0.000114606 -6.87535e-05 0.105858)
(0.000175112 -0.000174763 0.105239)
(2.54219e-05 -2.50358e-05 0.105512)
(-6.95175e-05 -0.000116312 0.105614)
(6.84101e-05 -0.000114373 0.105858)
(-6.8559e-05 -0.0001146 0.105858)
(-2.65641e-05 -2.65397e-05 0.105509)
(0.000175936 0.000175371 0.10549)
(2.21219e-05 2.1703e-05 0.105754)
(6.84059e-05 0.000113864 0.105938)
(-6.82779e-05 0.00011365 0.105938)
(6.80563e-05 0.000112278 0.10617)
(-6.76786e-05 0.000112387 0.10617)
(-0.000173695 0.000173737 0.105491)
(-2.21704e-05 2.13781e-05 0.105754)
(0.000113728 6.82225e-05 0.105938)
(0.000114118 -6.87629e-05 0.105937)
(0.00011228 6.7903e-05 0.10617)
(0.000112244 -6.70506e-05 0.106171)
(-0.000113797 -6.83288e-05 0.105938)
(-0.000111983 6.73416e-05 0.106171)
(-0.000112268 -6.73073e-05 0.106171)
(0.000174315 -0.000173887 0.10549)
(2.1049e-05 -2.04613e-05 0.105754)
(-6.81294e-05 -0.000113628 0.105938)
(6.7112e-05 -0.000111633 0.106171)
(-6.76199e-05 -0.00011205 0.106171)
(-2.12371e-05 -2.03724e-05 0.105754)
(0.00017602 0.000175721 0.105718)
(1.75937e-05 1.69032e-05 0.105973)
(6.74087e-05 0.000111726 0.106247)
(-6.6697e-05 0.000111583 0.106247)
(6.68937e-05 0.000109382 0.106467)
(-6.63796e-05 0.000109247 0.106469)
(-0.000174865 0.000174309 0.105719)
(-1.77253e-05 1.72511e-05 0.105976)
(0.000111401 6.75849e-05 0.106247)
(0.000111736 -6.70653e-05 0.106246)
(0.000110082 6.67291e-05 0.106468)
(0.000109346 -6.62339e-05 0.106469)
(-0.000111817 -6.81832e-05 0.106246)
(-0.000108986 6.61351e-05 0.10647)
(-0.00010938 -6.542e-05 0.106469)
(0.000174144 -0.000173709 0.105718)
(1.77498e-05 -1.69788e-05 0.105975)
(-6.78203e-05 -0.000111873 0.106246)
(6.6108e-05 -0.000109645 0.106469)
(-6.51942e-05 -0.000109387 0.106469)
(-1.39403e-05 -1.31373e-05 0.105977)
(0.000174777 0.000174812 0.105921)
(1.41003e-05 1.37976e-05 0.106169)
(6.51361e-05 0.000108129 0.106541)
(-6.4594e-05 0.000108001 0.106541)
(6.80085e-05 0.000109314 0.106748)
(-6.73547e-05 0.000108638 0.106749)
(-0.000173504 0.000173347 0.105925)
(-1.62454e-05 1.65351e-05 0.106169)
(0.000108742 6.5225e-05 0.106541)
(0.000108607 -6.49459e-05 0.106541)
(0.000108548 6.80696e-05 0.106749)
(0.000108243 -6.62097e-05 0.10675)
(-0.000109056 -6.62859e-05 0.106539)
(-0.000107749 6.7089e-05 0.106749)
(-0.000108062 -6.50425e-05 0.10675)
(0.000173117 -0.000172859 0.105924)
(1.52142e-05 -1.34789e-05 0.106171)
(-6.56395e-05 -0.000109354 0.106539)
(6.69213e-05 -0.00010795 0.106749)
(-6.46828e-05 -0.000107664 0.106751)
(-8.60375e-06 -8.7969e-06 0.106173)
(0.000175799 0.000175769 0.106099)
(5.28232e-06 2.68548e-06 0.106342)
(6.6464e-05 0.00010722 0.106817)
(-6.29206e-05 0.000105951 0.106818)
(6.39831e-05 0.000106097 0.107015)
(-6.86494e-05 0.000108197 0.107014)
(-0.000175408 0.000175236 0.1061)
(-1.09149e-05 1.1873e-05 0.106341)
(0.000107049 6.7153e-05 0.106817)
(0.000106759 -6.42548e-05 0.106818)
(0.000107061 6.21343e-05 0.107016)
(0.000106523 -6.33676e-05 0.107014)
(-0.000108079 -6.62332e-05 0.106817)
(-0.000108187 6.82159e-05 0.107014)
(-0.000104218 -5.94985e-05 0.107015)
(0.000173551 -0.000172346 0.106102)
(6.21616e-06 -5.96115e-06 0.106342)
(-6.65402e-05 -0.000107233 0.106817)
(6.41729e-05 -0.000105948 0.107014)
(-5.93216e-05 -0.000104038 0.107015)
(-9.30571e-07 -9.21881e-07 0.106343)
(0.0001702 0.000167485 0.106252)
(7.59e-06 7.30404e-06 0.106475)
(6.77767e-05 0.000108574 0.107075)
(-7.19445e-05 0.000108746 0.107075)
(6.18025e-05 0.000101799 0.107269)
(-5.56609e-05 0.000100308 0.10727)
(-0.000175582 0.000175761 0.106251)
(2.24258e-06 -1.1701e-06 0.106475)
(0.000108023 6.76524e-05 0.107077)
(0.000106832 -6.62807e-05 0.107077)
(0.000101471 6.0818e-05 0.107269)
(0.000105309 -6.85172e-05 0.107266)
(-0.000106412 -6.53858e-05 0.107078)
(-0.000100367 5.56998e-05 0.10727)
(-0.000103747 -7.06758e-05 0.107264)
(0.000169772 -0.000169065 0.106252)
(9.49558e-06 -1.16103e-05 0.106472)
(-6.43506e-05 -0.000107798 0.107078)
(6.65005e-05 -0.000106988 0.107267)
(-6.82594e-05 -0.000104031 0.107265)
(-1.40207e-05 -1.47212e-05 0.106463)
(0.000167435 0.000166014 0.106368)
(2.27842e-05 2.20962e-05 0.106573)
(6.02212e-05 0.00010194 0.107326)
(-5.86847e-05 0.000102364 0.107325)
(7.52814e-05 0.000105148 0.107495)
(-7.39743e-05 0.000101869 0.107496)
(-0.000158592 0.000158827 0.106368)
(-2.25457e-05 2.00547e-05 0.106569)
(0.000102662 5.88178e-05 0.107327)
(0.000105673 -6.71965e-05 0.107323)
(0.000106364 7.52586e-05 0.107496)
(9.87348e-05 -5.59271e-05 0.107498)
(-9.9667e-05 -5.80711e-05 0.107326)
(-0.000105213 7.27792e-05 0.107496)
(-0.000105641 -6.99169e-05 0.107492)
(0.000169475 -0.000171 0.106362)
(1.8622e-07 1.6134e-06 0.106576)
(-5.64899e-05 -9.98841e-05 0.107328)
(5.64327e-05 -9.88929e-05 0.107497)
(-6.96015e-05 -0.000106933 0.10749)
(-8.74038e-06 -8.25563e-06 0.10658)
(0.000186971 0.000187 0.106445)
(5.30008e-06 6.87583e-06 0.106604)
(7.64065e-05 0.000105823 0.107553)
(-6.5193e-05 9.93315e-05 0.107556)
(6.59378e-05 0.000108931 0.107711)
(-7.44028e-05 0.000112469 0.10771)
(-0.00018307 0.000181828 0.106439)
(-1.37301e-05 1.71588e-05 0.106617)
(0.000105745 7.69802e-05 0.107554)
(0.000102248 -6.72161e-05 0.107553)
(0.000104922 6.77994e-05 0.107714)
(0.000113985 -8.47342e-05 0.107716)
(-0.000109622 -8.53015e-05 0.10755)
(-0.000104399 7.89175e-05 0.107713)
(-0.000106856 -7.42728e-05 0.107715)
(0.000163832 -0.000163165 0.106452)
(3.54211e-05 -3.14763e-05 0.106599)
(-8.34385e-05 -0.00011048 0.107549)
(8.83267e-05 -0.000108234 0.107719)
(-7.65345e-05 -0.000103281 0.107715)
(-1.26246e-05 -8.5171e-06 0.106578)
(0.00016508 0.00016747 0.106467)
(5.81332e-05 0.000105755 0.107771)
(-8.45736e-05 0.000115527 0.107765)
(-0.000183718 0.000188486 0.106473)
(0.00010259 6.27012e-05 0.107774)
(0.000108361 -6.66784e-05 0.107772)
(-9.45485e-05 -4.63049e-05 0.10777)
(0.000185758 -0.000180795 0.106451)
(-4.96867e-05 -9.07692e-05 0.107771)
(-3.34124e-07 -3.36788e-07 0.0999988)
(1.68284e-05 1.68229e-05 0.100003)
(-4.506e-07 1.39328e-05 0.1)
(1.39404e-05 -4.53153e-07 0.1)
(-4.66039e-05 5.72863e-06 0.100009)
(-1.52712e-05 1.55876e-05 0.0999999)
(-0.000127914 6.04505e-05 0.100058)
(-1.3111e-05 -8.6376e-07 0.0999958)
(5.7226e-06 -4.6588e-05 0.100009)
(1.55912e-05 -1.52711e-05 0.0999999)
(-8.61882e-07 -1.31089e-05 0.0999958)
(6.04612e-05 -0.000127844 0.100058)
(-1.87248e-05 -1.87284e-05 0.100003)
(-0.000134955 -8.10577e-05 0.100055)
(-8.10642e-05 -0.000134936 0.100055)
(-3.47689e-05 0.00013605 0.100724)
(0.000177045 0.000388502 0.0994164)
(2.3823e-06 0.000305452 0.100516)
(-8.40198e-05 0.000243418 0.0991476)
(-0.000303496 0.000837891 0.0977723)
(-0.0001292 0.00030452 0.0957181)
(0.000135781 -3.49084e-05 0.100724)
(0.000389105 0.000176003 0.0994172)
(0.000306205 2.24606e-06 0.100517)
(0.000243523 -8.39173e-05 0.099148)
(-0.000107942 0.000107894 0.100299)
(0.000107929 -0.000107939 0.100299)
(-0.00010792 -0.000107948 0.100299)
(9.17524e-05 9.16834e-05 0.100739)
(-9.17083e-05 9.17006e-05 0.100739)
(9.17374e-05 -9.1751e-05 0.100739)
(-9.17167e-05 -9.17613e-05 0.100739)
(-0.000280711 6.40006e-06 0.100754)
(-0.000399056 0.000229234 0.100526)
(-0.000175286 3.7383e-05 0.100332)
(-0.000153241 9.45078e-05 0.100558)
(-0.000358991 1.5635e-05 0.100479)
(-0.000148848 0.000198777 0.10074)
(-0.000152721 3.32782e-05 0.100497)
(0.00083686 -0.000301618 0.0977705)
(0.000304533 -0.000128806 0.0957193)
(6.35301e-06 -0.000280626 0.100754)
(3.7418e-05 -0.000175261 0.100332)
(0.000229338 -0.000399034 0.100526)
(9.44672e-05 -0.00015323 0.100558)
(1.56329e-05 -0.000358868 0.100479)
(3.33272e-05 -0.000152706 0.100497)
(0.000198818 -0.000148842 0.100739)
(-0.000372639 -0.000141959 0.100361)
(-0.000142164 -0.000372894 0.100361)
(-0.000111979 -0.000112054 0.100655)
(1.10683e-05 -7.88978e-05 0.10059)
(-7.91525e-05 1.10801e-05 0.10059)
(-1.65181e-05 0.000198348 0.100868)
(-5.48989e-05 0.000288056 0.0983199)
(-2.02777e-05 0.000208737 0.100777)
(-4.47927e-05 0.00027113 0.0979453)
(-0.000150361 0.000313482 0.0926215)
(-0.000137182 0.000273122 0.0909994)
(0.000198275 -1.66902e-05 0.100867)
(0.000288342 -5.47902e-05 0.0983202)
(0.000208785 -2.04235e-05 0.100778)
(0.000271299 -4.47437e-05 0.0979456)
(-9.42335e-05 9.42496e-05 0.10086)
(9.42898e-05 -9.42834e-05 0.10086)
(-9.42676e-05 -9.4282e-05 0.10086)
(9.61989e-05 9.61817e-05 0.101239)
(-9.61707e-05 9.61991e-05 0.101239)
(9.62126e-05 -9.62081e-05 0.101239)
(-9.62062e-05 -9.62022e-05 0.101239)
(-0.000263627 1.32871e-05 0.101153)
(-0.000219019 0.000214166 0.100818)
(-0.000164512 3.10413e-05 0.100897)
(-0.000160205 9.74311e-05 0.101064)
(-0.000297968 1.41216e-05 0.100977)
(-0.000183326 0.000197894 0.100945)
(-0.000168726 3.24796e-05 0.101019)
(0.000313423 -0.000150094 0.0926197)
(0.000273207 -0.000137055 0.091001)
(1.33602e-05 -0.000263605 0.101153)
(3.11141e-05 -0.000164509 0.100897)
(0.000214242 -0.000219091 0.100819)
(9.74272e-05 -0.000160204 0.101064)
(1.42136e-05 -0.000297937 0.100977)
(3.25463e-05 -0.000168722 0.101019)
(0.000197849 -0.000183261 0.100945)
(-8.38709e-05 -9.71428e-05 0.100438)
(-9.7274e-05 -8.3872e-05 0.100438)
(-0.000112483 -0.000112482 0.101144)
(-8.66741e-05 -8.25988e-05 0.10043)
(-8.27549e-05 -8.67101e-05 0.10043)
(-9.46462e-06 0.00021081 0.100957)
(-2.1965e-05 0.000281511 0.0971364)
(-1.16495e-05 0.000230436 0.100902)
(-1.21993e-05 0.000256786 0.0967127)
(-0.000117421 0.000225907 0.0883856)
(-9.69679e-05 0.000187223 0.0870646)
(0.000210721 -9.54141e-06 0.100956)
(0.000281502 -2.17835e-05 0.0971364)
(0.000230486 -1.17678e-05 0.100903)
(0.00025685 -1.20388e-05 0.0967129)
(-9.53966e-05 9.5428e-05 0.10137)
(9.54374e-05 -9.54338e-05 0.10137)
(-9.543e-05 -9.54286e-05 0.10137)
(9.43456e-05 9.43371e-05 0.101763)
(-9.43243e-05 9.43585e-05 0.101763)
(9.43718e-05 -9.43508e-05 0.101763)
(-9.43526e-05 -9.43552e-05 0.101763)
(-0.000251017 1.22054e-05 0.10158)
(-0.00022248 0.00019055 0.101028)
(-0.000167313 3.27722e-05 0.101407)
(-0.000155159 9.28659e-05 0.101577)
(-0.000290172 1.20865e-05 0.101414)
(-0.000182284 0.000169358 0.101124)
(-0.000167151 3.27077e-05 0.101537)
(0.000225779 -0.000117141 0.0883827)
(0.000187352 -9.68616e-05 0.0870662)
(1.22405e-05 -0.000251004 0.10158)
(3.28137e-05 -0.000167324 0.101407)
(0.000190577 -0.00022254 0.101028)
(9.2862e-05 -0.000155165 0.101577)
(1.21335e-05 -0.000290182 0.101414)
(3.27432e-05 -0.000167149 0.101537)
(0.000169328 -0.000182213 0.101123)
(-0.000116064 -9.15704e-05 0.100182)
(-9.16357e-05 -0.000116171 0.100182)
(-0.000101476 -0.000101488 0.101646)
(-0.000111971 -7.23939e-05 0.100087)
(-7.24124e-05 -0.000112087 0.100086)
(-6.98857e-06 0.000210245 0.100953)
(5.32622e-06 0.000258502 0.0958571)
(-7.76783e-06 0.000236255 0.100926)
(1.01776e-05 0.000229704 0.0954231)
(-7.72913e-05 0.000150113 0.0849778)
(-5.90743e-05 0.000118988 0.083965)
(0.000210213 -7.1334e-06 0.100952)
(0.000258406 5.43491e-06 0.0958569)
(0.000236367 -7.94958e-06 0.100928)
(0.000229315 1.04303e-05 0.0954236)
(-9.38671e-05 9.39017e-05 0.101892)
(9.39153e-05 -9.38912e-05 0.101892)
(-9.38958e-05 -9.38938e-05 0.101892)
(9.18635e-05 9.18646e-05 0.102273)
(-9.1853e-05 9.18933e-05 0.102273)
(9.19019e-05 -9.18676e-05 0.102273)
(-9.18783e-05 -9.18815e-05 0.102273)
(-0.000238527 1.11581e-05 0.101978)
(-0.000219771 0.000162972 0.101141)
(-0.000165097 3.20957e-05 0.101923)
(-0.000150695 8.89796e-05 0.102081)
(-0.000282619 1.10108e-05 0.101822)
(-0.000174856 0.000141504 0.101214)
(-0.000163801 3.17563e-05 0.10205)
(0.000149921 -7.71151e-05 0.0849745)
(0.000119027 -5.90296e-05 0.0839664)
(1.11284e-05 -0.00023851 0.101978)
(3.21174e-05 -0.000165095 0.101923)
(0.00016302 -0.000219889 0.101142)
(8.89929e-05 -0.000150699 0.102081)
(1.10539e-05 -0.000282638 0.101822)
(3.17692e-05 -0.000163787 0.10205)
(0.000141697 -0.00017478 0.101213)
(-0.000133047 -7.93319e-05 0.0997184)
(-7.94953e-05 -0.000133078 0.0997182)
(-9.13749e-05 -9.14048e-05 0.102133)
(-0.00012373 -6.03378e-05 0.0995711)
(-6.04501e-05 -0.000123813 0.0995703)
(-6.44166e-06 0.000202286 0.100852)
(1.86451e-05 0.000227394 0.0945605)
(-6.61464e-06 0.000231108 0.100852)
(1.83705e-05 0.000198106 0.0941428)
(-4.55154e-05 9.53845e-05 0.0823439)
(-3.13977e-05 7.22007e-05 0.0815899)
(0.000202233 -6.45628e-06 0.100851)
(0.000227381 1.89065e-05 0.0945594)
(0.000231256 -6.81384e-06 0.100853)
(0.000197743 1.87238e-05 0.0941437)
(-9.11208e-05 9.11597e-05 0.102398)
(9.11734e-05 -9.11327e-05 0.102398)
(-9.11471e-05 -9.1138e-05 0.102398)
(8.88879e-05 8.88967e-05 0.102765)
(-8.88696e-05 8.89225e-05 0.102765)
(8.89342e-05 -8.88841e-05 0.102765)
(-8.89124e-05 -8.89105e-05 0.102765)
(-0.000223517 1.01833e-05 0.102335)
(-0.000210896 0.00013775 0.10116)
(-0.000159037 3.06805e-05 0.102424)
(-0.000144833 8.45169e-05 0.102565)
(-0.000270984 9.86098e-06 0.102189)
(-0.000164062 0.000117614 0.101214)
(-0.000157339 3.03194e-05 0.102546)
(9.51078e-05 -4.54057e-05 0.082341)
(7.21005e-05 -3.12628e-05 0.0815913)
(1.02247e-05 -0.000223533 0.102335)
(3.06877e-05 -0.000159027 0.102424)
(0.000137488 -0.000210991 0.101161)
(8.45254e-05 -0.000144838 0.102565)
(9.96532e-06 -0.000271018 0.102189)
(3.03206e-05 -0.000157319 0.102546)
(0.000117115 -0.000164001 0.101212)
(-0.000138292 -6.8547e-05 0.0991139)
(-6.86461e-05 -0.00013834 0.0991136)
(-8.09524e-05 -8.09918e-05 0.102593)
(-0.000126214 -5.09959e-05 0.0989329)
(-5.10457e-05 -0.00012631 0.0989318)
(-6.0599e-06 0.000190633 0.100665)
(2.03463e-05 0.000194956 0.0933113)
(-6.21482e-06 0.000220794 0.100687)
(1.69254e-05 0.000166289 0.0929263)
(-2.38579e-05 5.97479e-05 0.0803375)
(-1.35054e-05 4.24338e-05 0.0797825)
(0.000190617 -6.1425e-06 0.100664)
(0.000194727 2.06915e-05 0.0933099)
(0.000221021 -6.67095e-06 0.100689)
(0.000165631 1.7427e-05 0.0929276)
(-8.81636e-05 8.81992e-05 0.102885)
(8.82016e-05 -8.8154e-05 0.102885)
(-8.81618e-05 -8.81523e-05 0.102885)
(8.59953e-05 8.60088e-05 0.103238)
(-8.59642e-05 8.60188e-05 0.103238)
(8.60447e-05 -8.59603e-05 0.103238)
(-8.60347e-05 -8.60208e-05 0.103238)
(-0.000207772 9.51194e-06 0.10265)
(-0.000199438 0.000116405 0.101096)
(-0.000152215 2.93599e-05 0.102904)
(-0.000139286 8.07463e-05 0.103024)
(-0.000257428 9.27689e-06 0.102513)
(-0.000152138 9.81516e-05 0.101132)
(-0.000150515 2.90076e-05 0.10302)
(5.96498e-05 -2.40433e-05 0.0803352)
(4.24432e-05 -1.33196e-05 0.0797846)
(9.59796e-06 -0.000207784 0.10265)
(2.93427e-05 -0.000152202 0.102904)
(0.000117 -0.000199483 0.101097)
(8.07673e-05 -0.000139296 0.103024)
(9.25528e-06 -0.00025745 0.102513)
(2.90143e-05 -0.000150495 0.103021)
(9.82245e-05 -0.000151895 0.101131)
(-0.000135374 -6.09566e-05 0.0984157)
(-6.10035e-05 -0.000135443 0.0984152)
(-7.15571e-05 -7.15561e-05 0.103024)
(-0.000122333 -4.51745e-05 0.0982132)
(-4.51702e-05 -0.000122331 0.0982117)
(-5.0601e-06 0.000176949 0.100406)
(1.57341e-05 0.000164858 0.0921469)
(-5.4968e-06 0.000207846 0.100447)
(1.05534e-05 0.000137286 0.0918026)
(-1.08779e-05 3.87368e-05 0.0788069)
(-3.02963e-06 2.42219e-05 0.0783998)
(0.000176748 -4.58782e-06 0.100404)
(0.000164328 1.62835e-05 0.0921455)
(0.00020821 -6.42095e-06 0.100449)
(0.000136531 1.09765e-05 0.0918045)
(-8.5318e-05 8.53713e-05 0.103353)
(8.5392e-05 -8.5333e-05 0.103353)
(-8.53168e-05 -8.53047e-05 0.103353)
(8.34835e-05 8.34629e-05 0.103692)
(-8.34605e-05 8.35094e-05 0.103692)
(8.3448e-05 -8.34399e-05 0.103692)
(-8.34588e-05 -8.34491e-05 0.103692)
(-0.000192651 9.67121e-06 0.102924)
(-0.000187202 0.000100175 0.100958)
(-0.000145585 2.8261e-05 0.103363)
(-0.000134282 7.76582e-05 0.103461)
(-0.000243606 8.86669e-06 0.102795)
(-0.000140665 8.09045e-05 0.100982)
(-0.000144002 2.80114e-05 0.103474)
(3.8405e-05 -1.16388e-05 0.0788038)
(2.48221e-05 -3.25722e-06 0.0784017)
(9.44883e-06 -0.000192653 0.102924)
(2.82729e-05 -0.000145576 0.103363)
(0.000101144 -0.000187031 0.100958)
(7.77189e-05 -0.000134291 0.103461)
(8.71107e-06 -0.000243484 0.102795)
(2.79763e-05 -0.000143975 0.103474)
(8.21492e-05 -0.000140253 0.10098)
(-0.000128704 -5.59472e-05 0.0976614)
(-5.5987e-05 -0.000128707 0.0976606)
(-6.31319e-05 -6.31501e-05 0.103428)
(-0.000113535 -3.97358e-05 0.0974504)
(-3.97307e-05 -0.000113551 0.0974486)
(-4.34024e-06 0.000163035 0.100087)
(7.07042e-06 0.000139612 0.0910832)
(-3.72164e-06 0.000193296 0.100145)
(3.56026e-06 0.000112376 0.0907804)