/*--------------------------------*- C++ -*----------------------------------*\
| =========                 |                                                 |
| \\      /  F ield         | OpenFOAM: The Open Source CFD Toolbox           |
|  \\    /   O peration     | Version:  v1906                                 |
|   \\  /    A nd           | Web:      www.OpenFOAM.com                      |
|    \\/     M anipulation  |                                                 |
\*---------------------------------------------------------------------------*/
FoamFile
{
    version     2.0;
    format      ascii;
    class       volVectorField;
    location    "500";
    object      U;
}
// * * * * * * * * * * * * * * * * * * * * * * * * * * * * * * * * * * * * * //

dimensions      [0 1 -1 0 0 0 0];


internalField   nonuniform List<vector> 
42840
(
(-8.28835e-07 -1.01486e-05 0.112524)
(7.81005e-06 -9.63791e-06 0.10751)
(-3.56955e-05 1.16429e-05 0.107476)
(-3.05808e-05 -3.4892e-05 0.104126)
(-1.54641e-05 -7.44188e-06 0.104187)
(3.11567e-05 2.8253e-05 0.104181)
(-5.03222e-05 -3.85174e-05 0.104289)
(-2.19743e-08 -1.06596e-05 0.107496)
(-1.00736e-06 -1.52867e-05 0.107504)
(-1.24603e-05 -5.07271e-06 0.10748)
(1.11882e-05 -6.34787e-06 0.107499)
(-3.58297e-05 2.66735e-05 0.104204)
(5.12429e-05 -4.15637e-05 0.104313)
(-7.26687e-06 -7.05797e-07 0.107497)
(-1.93391e-05 2.47002e-05 0.10747)
(-1.60558e-05 5.52476e-07 0.107475)
(-1.68893e-05 1.30877e-05 0.107502)
(2.74173e-06 -4.9e-06 0.107463)
(1.17405e-05 -8.51713e-07 0.107499)
(1.15138e-05 3.27946e-05 0.107459)
(1.96769e-06 -1.17304e-05 0.10416)
(-3.73941e-05 4.68069e-05 0.104345)
(-3.17778e-06 -7.80311e-07 0.107465)
(-2.98357e-06 2.16118e-05 0.107502)
(1.98831e-05 2.15815e-05 0.107454)
(5.37084e-05 6.51173e-05 0.104285)
(1.7247e-05 3.0826e-05 0.10747)
(2.40976e-05 2.34172e-05 0.107467)
(-4.06984e-06 -1.1202e-05 0.0914006)
(-6.7686e-06 6.0935e-06 0.082225)
(-3.36102e-06 -8.15069e-06 0.0822712)
(-7.5343e-06 -2.49223e-06 0.0913644)
(6.69735e-06 3.9692e-06 0.0715357)
(7.74441e-06 -3.09472e-06 0.0715892)
(-8.6562e-06 4.48117e-06 0.0913896)
(2.1533e-06 5.4365e-06 0.0822206)
(-7.264e-06 -1.68837e-07 0.0822651)
(4.05949e-06 1.23449e-05 0.0913462)
(6.7346e-06 -1.99337e-05 0.112513)
(-2.24367e-05 9.77132e-06 0.112519)
(-4.38565e-06 -1.31799e-05 0.112525)
(-1.36576e-05 -3.98924e-06 0.112489)
(1.06797e-05 -6.27883e-06 0.112504)
(-1.92563e-05 2.32424e-05 0.112494)
(1.50088e-05 2.42619e-05 0.112478)
(1.74561e-05 1.37039e-05 0.0985532)
(1.42359e-06 -3.51812e-07 0.092998)
(9.87445e-06 -1.63939e-05 0.109941)
(6.8203e-06 -3.97439e-06 0.107509)
(1.46772e-05 -2.04235e-06 0.0930412)
(7.69693e-06 -4.1886e-06 0.109938)
(2.36949e-07 4.65775e-06 0.0985062)
(8.98273e-07 -9.68966e-06 0.0715419)
(-4.26472e-06 -4.5209e-06 0.0715758)
(-3.03774e-06 1.42616e-05 0.0985275)
(-2.90048e-05 1.93241e-06 0.109934)
(6.54207e-06 -1.16311e-05 0.0929754)
(-2.88017e-05 1.80492e-05 0.107485)
(-2.51851e-05 1.00559e-05 0.10992)
(1.02869e-05 1.83224e-05 0.0930476)
(-1.6845e-05 -1.00046e-05 0.0984686)
(-2.08194e-05 1.0964e-05 0.0875312)
(-2.90718e-06 -1.21689e-05 0.08753)
(4.30039e-05 5.46118e-05 0.104239)
(-1.00143e-05 8.03214e-06 0.0875707)
(-4.24607e-07 -4.51973e-06 0.0875662)
(6.06344e-06 -1.53555e-05 0.0875636)
(-8.75799e-06 1.78481e-06 0.0875605)
(-5.57902e-06 4.21585e-06 0.0715502)
(-3.93986e-06 -3.96301e-06 0.0715951)
(3.24705e-07 5.55473e-06 0.0715513)
(-2.99003e-06 -8.74821e-07 0.0715912)
(-6.58736e-06 7.45057e-06 0.0875378)
(-1.25731e-06 8.10896e-06 0.0875355)
(-4.93048e-05 -3.65328e-05 0.104287)
(-8.28484e-06 -4.92737e-07 0.0875792)
(-5.48586e-06 1.31293e-08 0.0875747)
(1.21376e-06 -4.36181e-06 0.0715988)
(1.72951e-06 1.18099e-06 0.0715628)
(-1.28735e-07 -5.68402e-06 0.0715929)
(3.51095e-06 1.6541e-06 0.0715573)
(1.96e-05 3.40309e-05 0.104173)
(-8.64118e-07 -5.56232e-06 0.08759)
(-2.77075e-06 -5.71859e-06 0.0875866)
(1.10348e-06 5.44092e-06 0.0875515)
(2.41941e-06 6.01865e-06 0.087546)
(-1.07812e-06 -1.16872e-05 0.091401)
(5.76891e-06 3.92058e-06 0.0822206)
(6.44003e-06 -7.82069e-06 0.0822698)
(-4.58555e-06 -3.70381e-06 0.0913662)
(-6.9989e-06 -1.9509e-05 0.0985607)
(-8.75295e-06 6.43005e-06 0.0929841)
(4.50775e-06 -1.6162e-05 0.109935)
(-7.70466e-06 -6.24154e-06 0.10749)
(-1.31995e-05 -9.78799e-06 0.0930355)
(-1.68496e-06 -1.09059e-05 0.109933)
(-4.34331e-06 -2.27571e-06 0.0985099)
(-4.26508e-06 -2.04314e-05 0.0985634)
(4.43714e-06 -1.01037e-06 0.0929963)
(3.0709e-06 -1.8456e-05 0.109934)
(1.53744e-06 -9.78077e-06 0.107506)
(1.19008e-05 -1.21011e-05 0.093041)
(1.66227e-07 -1.25392e-05 0.109937)
(-3.73127e-06 -3.78139e-06 0.0985136)
(-2.33921e-06 2.51531e-06 0.0913714)
(2.36072e-06 -8.98905e-06 0.0822777)
(3.61497e-07 3.86972e-06 0.0822379)
(1.84198e-06 -7.51411e-06 0.0914047)
(3.01926e-07 2.30172e-06 0.0913716)
(-5.76347e-07 -8.02913e-06 0.0822767)
(3.21691e-06 4.8173e-06 0.0822367)
(2.67781e-06 -7.2466e-06 0.0914046)
(-6.11122e-06 4.5147e-06 0.0985116)
(-1.19607e-05 -4.31981e-06 0.107485)
(-3.63903e-06 -1.17e-05 0.0930453)
(-5.90451e-06 -7.26047e-06 0.109921)
(-5.00129e-06 9.66073e-06 0.0929945)
(-5.27851e-06 -7.76971e-06 0.109928)
(-1.52948e-06 -1.59253e-05 0.0985578)
(-3.04302e-06 3.90478e-06 0.0985136)
(6.38636e-06 -6.70326e-06 0.107503)
(6.13231e-06 -9.13581e-06 0.0930448)
(2.9402e-06 -7.58598e-06 0.109927)
(5.02079e-06 9.29833e-06 0.0929964)
(5.01986e-07 -8.6805e-06 0.109934)
(1.41964e-06 -1.58494e-05 0.0985582)
(7.25927e-06 4.19442e-06 0.0875351)
(-2.82016e-07 -7.11788e-07 0.0875391)
(4.14223e-05 -4.06674e-05 0.104315)
(1.11225e-05 8.76896e-07 0.0875761)
(4.68497e-06 -1.5159e-06 0.0875801)
(-5.16317e-08 7.76145e-07 0.0715381)
(7.03399e-06 1.30828e-06 0.0715916)
(2.91347e-08 -4.15492e-06 0.0715991)
(2.05979e-06 2.09971e-06 0.0715586)
(-2.65574e-05 3.02568e-05 0.104199)
(2.20446e-06 -4.13759e-06 0.0875895)
(8.68381e-06 5.03197e-06 0.0875903)
(1.83084e-06 7.59759e-06 0.0875471)
(-1.77944e-06 7.80546e-06 0.0875493)
(5.27166e-06 4.69948e-06 0.0715978)
(1.73219e-06 6.47042e-06 0.0715564)
(-1.87411e-05 1.25056e-05 0.0985361)
(1.03784e-06 9.67595e-06 0.0929774)
(-8.07113e-06 3.90536e-06 0.109939)
(-1.22781e-05 3.14176e-06 0.107486)
(-1.48489e-05 3.32799e-06 0.0930283)
(-1.28458e-05 9.59668e-06 0.109925)
(3.93496e-06 1.45192e-05 0.0984778)
(-8.56909e-06 2.80702e-06 0.0913928)
(6.28524e-06 -8.01197e-06 0.0822186)
(-8.48983e-06 -7.00102e-06 0.0822621)
(6.02007e-06 1.14362e-05 0.0913462)
(-1.79937e-05 1.25257e-05 0.0985378)
(-1.0532e-05 1.56533e-05 0.109928)
(1.13364e-05 -4.0977e-06 0.0929719)
(-2.11886e-05 2.55855e-05 0.107481)
(-1.54728e-05 2.07492e-05 0.109918)
(-1.53151e-05 -5.59121e-07 0.0930482)
(6.45843e-06 1.65745e-05 0.0984731)
(3.4816e-06 1.20726e-06 0.091366)
(-4.16965e-06 -5.11591e-06 0.0822765)
(6.20696e-06 1.8026e-07 0.0822312)
(-1.01847e-05 -6.65026e-06 0.0914116)
(3.60112e-06 9.68369e-06 0.0984931)
(-1.53555e-05 3.29476e-06 0.107479)
(-1.17112e-05 -4.10845e-06 0.0930445)
(-1.7805e-05 7.16255e-06 0.109906)
(5.56382e-06 8.05252e-06 0.0929867)
(-1.62893e-05 1.04259e-05 0.109914)
(-2.01355e-05 -9.17898e-07 0.098559)
(3.0907e-06 -2.29936e-07 0.0913697)
(-9.94863e-06 -2.56503e-06 0.0822751)
(3.44575e-06 -8.21288e-06 0.0822271)
(-1.17607e-05 -7.35121e-06 0.0914148)
(3.64497e-06 9.35138e-06 0.0984968)
(-2.01954e-05 2.11566e-05 0.107493)
(-1.93691e-05 1.42593e-05 0.109909)
(-2.28846e-05 -7.86645e-08 0.0930717)
(-1.85514e-05 1.98401e-05 0.109913)
(1.75144e-06 -6.82753e-06 0.0930108)
(-2.15865e-05 -1.42034e-06 0.0985652)
(9.1438e-06 1.33062e-05 0.0913962)
(-8.12376e-07 2.1549e-06 0.082221)
(1.13189e-05 3.02104e-06 0.0822669)
(1.24806e-06 1.14603e-05 0.0913653)
(1.37527e-05 1.66373e-05 0.0985457)
(6.75793e-06 -1.55125e-05 0.109934)
(-1.74978e-05 1.41623e-05 0.0929681)
(2.96747e-06 1.34974e-05 0.107453)
(4.70276e-06 9.71838e-07 0.109923)
(-4.62227e-06 1.96619e-05 0.0930173)
(-2.27156e-06 5.86102e-06 0.0984975)
(6.34796e-06 1.65158e-05 0.0913942)
(-1.15203e-05 1.61674e-05 0.0822375)
(3.89795e-06 7.77913e-06 0.0822698)
(-1.2823e-06 1.44669e-05 0.0913629)
(-6.80167e-06 1.47512e-05 0.0985034)
(8.23333e-06 -1.48349e-06 0.107505)
(1.333e-05 5.13096e-06 0.0930428)
(1.00952e-05 8.98638e-06 0.109921)
(-5.98521e-06 5.81817e-06 0.0929955)
(7.54335e-06 4.40022e-06 0.109931)
(1.41583e-05 1.3522e-05 0.0985471)
(-4.84015e-06 1.27091e-05 0.091365)
(9.78242e-06 5.82558e-06 0.082272)
(-1.2494e-06 5.87747e-06 0.0822311)
(5.25259e-06 8.11948e-06 0.0913946)
(-1.04162e-05 1.81609e-05 0.098497)
(6.21126e-06 2.71307e-05 0.107452)
(9.19517e-06 2.28526e-05 0.109905)
(6.60823e-06 2.48994e-06 0.0930393)
(5.27973e-06 1.45947e-05 0.109914)
(-2.34585e-05 9.99862e-06 0.0929769)
(1.19005e-05 1.6877e-05 0.0985442)
(-7.41523e-06 1.54003e-05 0.0913635)
(9.02321e-06 -8.82385e-06 0.0822636)
(-7.49591e-06 9.40406e-07 0.0822321)
(4.10336e-06 7.80909e-06 0.0913946)
(-1.5754e-06 -1.17299e-05 0.0875455)
(1.72976e-05 4.70589e-06 0.0875526)
(-5.75703e-05 5.72915e-05 0.104317)
(-1.2296e-05 -2.1431e-06 0.0875915)
(1.16548e-05 1.79159e-05 0.0875945)
(1.69691e-05 2.93625e-06 0.0715489)
(1.32851e-05 8.6217e-06 0.0715757)
(-3.17838e-06 1.68632e-06 0.0715848)
(1.48485e-06 -6.99418e-06 0.0715372)
(1.87457e-05 -1.5986e-05 0.104214)
(-1.27761e-05 5.04562e-06 0.0875985)
(2.58525e-06 1.7491e-05 0.0875983)
(-6.23684e-06 -7.61372e-06 0.08756)
(1.74504e-05 1.20375e-05 0.0875646)
(3.21671e-06 4.68155e-06 0.0715815)
(1.55607e-05 2.36482e-06 0.0715404)
(-2.23082e-06 1.22577e-05 0.0985207)
(-1.52695e-05 -1.4048e-06 0.109938)
(-2.63494e-06 -1.24402e-05 0.092962)
(3.82215e-06 8.73356e-06 0.107451)
(-1.03912e-05 6.0565e-06 0.109917)
(2.62912e-06 7.03287e-07 0.0930096)
(-1.35522e-05 -8.75587e-06 0.0984689)
(9.88366e-06 5.70159e-06 0.0913873)
(1.58371e-05 -3.01405e-06 0.0822219)
(1.67582e-05 1.24468e-05 0.0822582)
(-4.55785e-06 -8.28109e-06 0.0913453)
(8.11377e-06 3.43991e-06 0.0913823)
(3.49984e-06 -7.16042e-06 0.0822341)
(3.97262e-06 2.8801e-06 0.082264)
(-4.72728e-06 -7.8338e-06 0.0913443)
(2.57428e-06 -7.01628e-06 0.0984852)
(-1.68756e-05 2.12794e-05 0.107495)
(-2.44049e-06 2.11518e-05 0.109904)
(1.18331e-05 2.71396e-05 0.0930681)
(-1.52992e-05 1.67457e-05 0.10991)
(1.7949e-05 1.79702e-06 0.0930104)
(1.6516e-05 2.00631e-05 0.0985533)
(2.86111e-06 -9.97414e-06 0.0984773)
(1.26107e-05 1.67435e-05 0.107447)
(9.9633e-06 1.93073e-05 0.109891)
(3.05559e-06 6.43798e-06 0.0930374)
(-9.30549e-07 1.34893e-05 0.109901)
(-3.79847e-06 -1.89145e-05 0.0929696)
(1.57775e-05 1.64697e-05 0.0985446)
(1.36839e-05 -5.79006e-06 0.0913609)
(7.98678e-06 1.18844e-05 0.0822693)
(1.75649e-05 2.31169e-07 0.0822244)
(1.79411e-05 9.88084e-06 0.0914058)
(1.17295e-05 -8.71347e-06 0.0913563)
(-1.03969e-06 4.65033e-06 0.0822621)
(6.40073e-07 -9.95521e-06 0.082226)
(1.57586e-05 7.04412e-06 0.0914023)
(-7.87073e-06 1.33595e-05 0.0715614)
(3.28183e-06 5.51305e-06 0.0715927)
(2.13456e-06 -3.99225e-06 0.0715648)
(2.39106e-06 2.36179e-06 0.071589)
(-2.37281e-05 -1.00976e-05 0.104135)
(9.74217e-06 -6.45606e-06 0.0875905)
(-1.95646e-06 6.43339e-06 0.0875862)
(-1.2297e-05 -3.46022e-06 0.0875428)
(-8.50292e-06 -8.6876e-06 0.0875386)
(7.46759e-06 -8.79456e-06 0.0715842)
(-8.07971e-07 -3.06792e-06 0.0715553)
(-2.09819e-06 3.65878e-06 0.0715808)
(-3.03048e-06 -3.14096e-06 0.0715503)
(1.49222e-05 2.48186e-05 0.109898)
(-8.37844e-06 -7.47985e-06 0.0930033)
(-9.0613e-06 1.43493e-05 0.0984986)
(-2.65283e-06 -1.22948e-05 0.0822282)
(-7.28761e-06 4.26362e-06 0.0913682)
(-2.79678e-06 -1.02858e-05 0.0930023)
(-3.91065e-06 -6.75996e-06 0.0822283)
(1.86337e-06 -1.38683e-05 0.0715489)
(-6.59265e-06 -1.88376e-06 0.0715466)
(-3.82666e-06 1.08939e-06 0.0768805)
(9.06929e-07 -4.93825e-06 0.0786849)
(-6.92152e-06 -9.26423e-06 0.0899209)
(-5.7452e-06 -5.6055e-08 0.0913691)
(-6.08709e-07 9.91374e-07 0.0786566)
(-8.65969e-06 2.55972e-06 0.0898846)
(-7.59298e-07 -5.45549e-06 0.076914)
(-4.00236e-06 -3.78396e-06 0.0684587)
(-7.11759e-06 -6.94285e-06 0.082265)
(-9.37394e-06 4.88036e-06 0.0858096)
(-8.56143e-06 -5.86531e-06 0.0858541)
(-6.9942e-06 2.12185e-06 0.0684074)
(-3.79208e-06 1.4712e-06 0.0684204)
(-4.60179e-06 -6.03898e-06 0.0858612)
(-3.59828e-06 5.00992e-06 0.0822329)
(-6.16539e-06 4.95807e-06 0.0858181)
(-5.3433e-07 -4.19579e-06 0.0684698)
(-4.29821e-06 -5.73736e-06 0.0769086)
(-6.97043e-06 -1.37293e-05 0.0913973)
(-3.72714e-06 -2.71726e-07 0.078649)
(-1.02362e-05 1.01253e-06 0.0898788)
(-1.88754e-06 -6.14387e-06 0.0786793)
(-9.96264e-06 -1.07239e-05 0.0899163)
(-7.09951e-06 8.41717e-07 0.0768735)
(1.02262e-05 -2.02983e-06 0.0715776)
(5.56711e-06 3.11116e-06 0.0715492)
(3.49394e-06 -6.59728e-08 0.076879)
(-9.14109e-06 5.56122e-06 0.0899123)
(-3.3464e-06 -3.91387e-06 0.0786794)
(4.1704e-06 7.58523e-06 0.0913554)
(3.07948e-06 8.39091e-06 0.0898749)
(3.34573e-06 -2.03677e-06 0.0786531)
(-2.89691e-06 -1.09506e-06 0.0769101)
(-2.92055e-06 2.78377e-06 0.0684564)
(-9.3177e-06 2.53237e-06 0.0822598)
(1.99734e-06 8.01727e-06 0.0858096)
(-7.91662e-06 5.8184e-06 0.0858499)
(2.10405e-06 3.35949e-06 0.0684155)
(3.44604e-06 -6.07773e-07 0.0684169)
(-6.3228e-06 1.61983e-06 0.0858537)
(4.21552e-06 2.9391e-06 0.0822258)
(3.88688e-06 4.37506e-06 0.0858127)
(-1.74191e-06 -1.08668e-06 0.0684577)
(-3.83641e-06 3.65401e-06 0.0769039)
(-8.26901e-06 1.03254e-05 0.0913797)
(1.92802e-06 1.22131e-05 0.0898676)
(3.23361e-06 3.23793e-06 0.0786475)
(-1.00447e-05 1.05892e-05 0.0899044)
(-3.25247e-06 7.3524e-07 0.0786737)
(2.38662e-06 4.95605e-06 0.0768729)
(-4.57574e-06 -5.81636e-06 0.0715784)
(1.03713e-06 -8.92226e-06 0.0715379)
(-5.39154e-06 5.24285e-06 0.0836272)
(8.30863e-07 -2.17744e-06 0.0683902)
(-4.01252e-06 8.45514e-07 0.0683843)
(-4.30664e-06 -2.12032e-06 0.0683693)
(-6.89622e-06 -1.93927e-06 0.0683631)
(3.56379e-06 1.12053e-05 0.0836644)
(-3.90787e-06 1.91585e-05 0.0916563)
(-1.76002e-05 6.58575e-06 0.0961952)
(-1.42391e-05 1.60425e-05 0.0875649)
(-1.61477e-05 9.23228e-06 0.0815815)
(7.50619e-07 2.40621e-05 0.0962379)
(-1.04447e-05 7.71664e-06 0.0816114)
(-1.76389e-05 1.06314e-05 0.0916128)
(5.20072e-06 9.08652e-06 0.0916479)
(-3.3309e-06 -1.15061e-05 0.0961885)
(2.82019e-06 -6.02748e-06 0.0875619)
(-2.09601e-06 -5.97221e-06 0.081572)
(1.04595e-05 9.58991e-06 0.0962305)
(-1.72499e-06 -1.60894e-06 0.0816024)
(-1.9842e-06 -6.42966e-06 0.0916045)
(-1.84e-05 1.22135e-05 0.0916418)
(-6.2861e-06 -4.08405e-06 0.0816063)
(-2.00869e-05 5.44159e-06 0.0875353)
(-1.17671e-06 2.96894e-05 0.0962598)
(-2.24005e-05 1.55637e-05 0.0962112)
(-1.56735e-05 -2.15563e-06 0.081579)
(-1.20609e-06 1.76797e-05 0.0916903)
(-1.5903e-06 -4.99349e-06 0.0916337)
(-8.01643e-06 -1.98202e-06 0.0816008)
(-5.86672e-06 -1.30617e-05 0.0875319)
(1.42209e-05 9.59654e-06 0.0962522)
(3.10909e-07 -1.21908e-05 0.0962031)
(-9.08113e-06 -9.01067e-06 0.0815729)
(5.35587e-06 1.13842e-05 0.0916824)
(-4.47576e-06 8.25673e-06 0.0836401)
(-8.096e-06 5.86211e-06 0.0683783)
(-4.0384e-06 -1.31995e-06 0.0683709)
(-3.86006e-06 5.70802e-06 0.0684062)
(-1.84086e-06 8.77996e-07 0.0683991)
(-1.29239e-05 7.99671e-07 0.0836005)
(1.77235e-05 -2.22727e-06 0.0917623)
(-6.35217e-06 2.37196e-06 0.0962993)
(3.26815e-06 -1.8105e-05 0.0815574)
(1.62275e-05 -8.85556e-06 0.0876009)
(8.21209e-08 -6.96598e-06 0.0917264)
(1.92594e-05 9.98353e-06 0.0963477)
(1.17431e-05 -1.24081e-05 0.081586)
(3.42553e-06 1.31328e-05 0.0917565)
(1.77959e-06 -5.53471e-06 0.096296)
(-1.10272e-05 -2.84527e-06 0.0815587)
(-9.66982e-07 1.13468e-05 0.0875983)
(-3.70056e-06 -1.94005e-06 0.0917204)
(1.29878e-05 1.76753e-05 0.0963458)
(-5.00935e-06 5.18719e-06 0.0815859)
(1.48638e-05 6.94522e-06 0.0836721)
(3.01253e-06 -1.19158e-05 0.0682985)
(-4.7886e-06 -2.7699e-06 0.0682944)
(9.89875e-06 3.17138e-06 0.0836493)
(5.9593e-06 -6.62773e-06 0.0683223)
(3.99917e-07 5.83845e-07 0.0683178)
(-7.81283e-06 -2.29956e-06 0.0715888)
(-2.20935e-06 2.43072e-06 0.071558)
(-4.63888e-06 1.10762e-06 0.0715883)
(1.79868e-06 3.96061e-06 0.0715552)
(-3.05196e-06 7.65039e-06 0.0836062)
(-1.83466e-06 -1.88976e-06 0.0683656)
(-1.73426e-06 -1.18347e-07 0.0683594)
(-1.41686e-07 2.22001e-06 0.0683365)
(-1.2831e-07 4.67583e-06 0.0683295)
(-6.9138e-06 6.5159e-07 0.0836362)
(-1.51988e-05 -2.89733e-06 0.0916755)
(-4.01351e-06 8.5356e-06 0.0962399)
(-1.24265e-05 6.4961e-07 0.0875725)
(-5.60525e-06 7.36517e-06 0.0815602)
(-7.13792e-06 4.84744e-07 0.0815919)
(-1.84794e-05 -1.07726e-05 0.0962779)
(-7.76219e-06 1.11187e-05 0.0916408)
(-1.68887e-05 -2.0577e-07 0.0916667)
(1.34544e-06 8.41668e-06 0.0962321)
(-7.3494e-06 1.13377e-06 0.0875695)
(-3.50534e-06 6.01312e-06 0.0815487)
(-8.84678e-06 2.41035e-06 0.0815825)
(-2.04303e-05 -2.7001e-06 0.0962699)
(-1.41241e-06 6.2446e-06 0.091632)
(-7.49058e-06 1.23101e-05 0.0916502)
(-2.41887e-06 -1.78146e-06 0.0815952)
(-3.4207e-06 7.41736e-06 0.0875453)
(-1.94821e-05 -8.74994e-06 0.0962836)
(-9.8497e-07 6.01517e-06 0.0815649)
(-1.32587e-05 -3.34275e-06 0.0916855)
(-7.15345e-06 1.21753e-05 0.0962446)
(-1.7169e-06 7.03234e-06 0.0916416)
(-6.23611e-06 1.37858e-06 0.0815899)
(6.93949e-07 7.87465e-06 0.0875406)
(-1.97631e-05 -2.78803e-06 0.0962756)
(-1.10786e-06 5.88594e-06 0.0815573)
(-1.61203e-05 -4.9591e-07 0.0916774)
(1.34323e-06 9.86355e-06 0.0962358)
(-8.95215e-06 4.16517e-06 0.0836283)
(-4.06249e-06 4.61018e-06 0.0683358)
(-2.51264e-06 6.1297e-06 0.0683276)
(-5.72932e-06 6.84009e-07 0.0683674)
(-4.19062e-06 1.96974e-06 0.0683599)
(-4.12776e-06 1.03106e-05 0.0835972)
(4.42118e-06 1.01269e-06 0.0715645)
(-4.43507e-07 -4.69753e-06 0.0715983)
(5.01245e-06 -8.39905e-07 0.071558)
(-1.29836e-06 -3.38816e-06 0.0715925)
(-3.78602e-06 -3.27031e-06 0.0836415)
(3.37026e-06 -1.7313e-07 0.0683333)
(2.21647e-06 2.06206e-06 0.0683276)
(-3.19685e-07 3.746e-06 0.0836129)
(8.38363e-07 -3.91276e-06 0.0683621)
(3.28929e-07 -3.0864e-06 0.0683569)
(4.28867e-07 7.34902e-06 0.0916701)
(-1.21544e-05 -1.21158e-05 0.0962993)
(4.98096e-06 2.76023e-06 0.0875568)
(2.12671e-06 -6.90874e-06 0.0815979)
(5.64477e-06 4.87893e-07 0.0815683)
(-2.29573e-06 1.09275e-05 0.0962592)
(-4.60077e-06 -9.43825e-06 0.0917045)
(3.14134e-06 3.32388e-06 0.0916637)
(-1.5797e-05 -8.07303e-06 0.096296)
(3.71659e-06 3.02599e-06 0.087552)
(-1.30536e-06 -4.39906e-06 0.0815971)
(4.1915e-06 9.56009e-07 0.0815669)
(4.59796e-06 5.91386e-06 0.0962539)
(-1.00805e-05 -5.23975e-06 0.0916985)
(-9.01129e-06 -5.969e-06 0.0916957)
(3.3267e-06 3.22464e-06 0.081567)
(-6.20856e-06 1.27226e-05 0.0962512)
(-3.84204e-06 -3.01123e-06 0.0875849)
(-4.16585e-06 1.05638e-05 0.0916605)
(1.0252e-06 -4.7209e-06 0.0815966)
(-1.6792e-05 -9.55992e-06 0.096291)
(-1.35528e-05 -2.44588e-06 0.0916887)
(1.64495e-06 4.00903e-06 0.0815633)
(2.55819e-06 8.62183e-06 0.0962435)
(-3.97423e-06 -2.4555e-06 0.0875805)
(4.30926e-08 5.85241e-06 0.0916529)
(-3.47987e-06 -1.20365e-06 0.0815946)
(-1.8052e-05 -4.89055e-06 0.0962848)
(2.92282e-06 1.72431e-07 0.0836169)
(1.53017e-06 -4.68588e-06 0.068361)
(1.53025e-06 -5.56255e-06 0.0683563)
(5.05441e-06 -1.63693e-06 0.0683306)
(3.91636e-06 -8.04166e-07 0.0683256)
(-7.45483e-07 -6.19638e-06 0.0836447)
(4.90807e-06 1.08356e-06 0.0768827)
(1.94649e-06 -4.88269e-06 0.0786852)
(3.24714e-06 -1.03641e-05 0.0899206)
(-2.47762e-06 -7.95351e-07 0.09137)
(1.44782e-06 9.09367e-07 0.0786569)
(1.9736e-06 6.10994e-07 0.0898859)
(3.98541e-06 -5.06933e-06 0.0769144)
(4.13962e-06 -4.11071e-06 0.0684493)
(7.77809e-06 -8.32249e-06 0.082262)
(4.05603e-06 2.2983e-06 0.0858101)
(5.42146e-06 -7.6589e-06 0.0858516)
(4.73837e-06 1.27121e-06 0.0684003)
(5.82451e-06 1.85742e-06 0.0684167)
(5.46283e-06 -5.85054e-06 0.085856)
(5.68041e-06 4.57871e-06 0.0822308)
(5.11655e-06 4.26227e-06 0.0858151)
(4.0255e-06 -3.5645e-06 0.0684639)
(2.64881e-06 -6.42134e-06 0.0769072)
(-3.76032e-06 -1.47345e-05 0.0913986)
(-9.784e-07 -6.60475e-07 0.0786486)
(-8.94527e-07 -2.38828e-06 0.0898829)
(8.59739e-08 -6.39686e-06 0.0786791)
(6.59306e-07 -1.35532e-05 0.0899185)
(2.46807e-06 -3.04632e-07 0.0768734)
(2.36968e-06 -4.9289e-06 0.0769176)
(1.56758e-06 2.04874e-06 0.0786608)
(-4.71619e-06 3.79342e-06 0.0898883)
(-6.25044e-07 -8.83121e-06 0.0914023)
(-3.33358e-07 1.4719e-06 0.0768849)
(2.31177e-06 -4.04703e-06 0.0786883)
(-2.54819e-06 -8.39772e-06 0.0899241)
(1.7583e-06 1.98854e-06 0.0684327)
(3.32888e-06 3.39854e-06 0.082241)
(2.28503e-06 -7.45737e-06 0.0858712)
(3.56428e-06 -3.14201e-06 0.0684771)
(1.63787e-06 3.72769e-06 0.0858291)
(2.41544e-06 -3.91257e-06 0.0684758)
(-1.92913e-06 4.46474e-06 0.0858242)
(2.72368e-07 -9.03026e-06 0.082275)
(-4.11659e-07 1.41755e-06 0.0684291)
(-5.34732e-07 -6.72784e-06 0.0858665)
(2.09593e-06 2.1637e-06 0.0768882)
(7.64466e-07 4.42006e-06 0.0913732)
(2.05531e-06 -3.45244e-06 0.0786915)
(1.3184e-06 -8.23522e-06 0.089928)
(3.81094e-06 -4.14771e-06 0.0769209)
(2.13608e-06 2.79173e-06 0.078664)
(-3.73072e-07 4.29186e-06 0.0898916)
(2.56289e-06 -4.02195e-06 0.0769184)
(2.50843e-06 2.20895e-06 0.0786615)
(3.98176e-06 3.66764e-06 0.0898877)
(1.44484e-06 -8.82182e-06 0.0914023)
(4.85698e-06 2.29207e-06 0.0768882)
(2.11272e-06 -3.83863e-06 0.0786888)
(4.44552e-06 -7.87762e-06 0.0899225)
(1.67681e-06 2.85169e-06 0.068435)
(-5.78501e-07 4.65505e-06 0.0822399)
(1.18998e-06 -6.81096e-06 0.085867)
(2.01177e-06 4.7872e-06 0.0858248)
(-1.2423e-06 -2.70109e-06 0.0684763)
(1.75573e-06 -3.03643e-06 0.0684731)
(4.26255e-06 5.38571e-06 0.0858193)
(3.08934e-06 -7.81991e-06 0.082274)
(4.5075e-06 2.39277e-06 0.0684289)
(3.83791e-06 -5.66381e-06 0.0858606)
(2.40705e-06 3.13678e-06 0.0768912)
(2.28609e-06 4.61228e-06 0.0913732)
(7.74814e-07 -3.29448e-06 0.0786917)
(3.62839e-06 -7.1328e-06 0.0899264)
(1.82843e-06 3.01341e-06 0.0786646)
(4.20353e-06 5.31914e-06 0.0898904)
(-4.4727e-07 -3.46275e-06 0.0769209)
(2.24811e-06 6.37122e-06 0.0836091)
(4.5284e-06 8.58601e-07 0.0683788)
(5.25514e-06 3.25335e-06 0.0683825)
(2.82083e-06 4.29926e-06 0.0683465)
(2.1243e-06 5.19048e-06 0.06835)
(8.67397e-06 4.83215e-07 0.0836447)
(1.49938e-05 -8.2926e-06 0.0916709)
(-2.23308e-06 2.11905e-06 0.0962556)
(1.41372e-05 -9.7607e-07 0.0875702)
(1.00525e-05 4.10487e-06 0.0815469)
(1.15181e-05 -9.4778e-07 0.081585)
(1.34661e-05 -1.67348e-05 0.0962916)
(6.32231e-06 4.88566e-06 0.0916359)
(1.21995e-05 -9.32749e-06 0.0916761)
(-1.90087e-06 2.37279e-06 0.096259)
(5.65583e-06 -5.9949e-06 0.0875751)
(1.00827e-06 -2.8583e-06 0.0815457)
(1.88658e-05 -1.00835e-05 0.0962941)
(6.9099e-06 -3.53695e-06 0.0815835)
(-3.09011e-06 -2.84485e-06 0.0916415)
(8.69301e-06 8.09252e-06 0.0916459)
(5.28311e-06 -1.58613e-07 0.0815959)
(5.92452e-06 7.35231e-06 0.0875411)
(1.82044e-05 -1.2214e-05 0.0962923)
(4.84457e-06 6.23496e-06 0.0815612)
(3.89073e-06 7.32423e-06 0.0962543)
(1.58881e-05 -6.28984e-06 0.0916839)
(-2.47308e-06 -1.39275e-06 0.0916511)
(7.01827e-06 3.04535e-06 0.0815947)
(-2.04631e-06 3.13609e-06 0.0875444)
(1.70631e-05 -1.02006e-05 0.0962941)
(-3.75441e-06 2.08831e-06 0.0962568)
(3.32822e-07 3.50063e-06 0.0815594)
(1.32753e-05 -7.38694e-06 0.091689)
(5.90448e-06 1.81988e-06 0.0836253)
(6.02679e-06 4.69344e-06 0.0683317)
(1.48618e-06 1.15497e-06 0.0683352)
(8.19782e-06 1.89676e-06 0.0683718)
(4.59929e-06 -4.29986e-07 0.0683752)
(-5.27051e-07 6.86349e-06 0.0835886)
(6.03118e-06 -1.76752e-06 0.0715823)
(1.17715e-06 3.30291e-06 0.0715491)
(-2.04105e-06 1.58129e-06 0.0715633)
(3.66459e-06 -3.89012e-06 0.0715962)
(1.03605e-05 -1.64666e-06 0.0836572)
(-8.97451e-07 2.93729e-06 0.0683465)
(2.46517e-06 8.0318e-06 0.0683504)
(4.50018e-06 4.63765e-06 0.0836255)
(1.10078e-06 -4.31077e-07 0.0683728)
(4.85751e-06 5.0521e-06 0.0683771)
(4.20335e-06 8.23439e-06 0.0916765)
(1.73353e-05 -1.09513e-05 0.0963075)
(-2.87138e-06 4.79639e-06 0.0875538)
(-3.69048e-06 -3.4888e-06 0.0815998)
(6.50913e-06 1.13068e-05 0.0962653)
(-6.29565e-06 3.86318e-06 0.0815707)
(9.22999e-06 -7.54713e-06 0.091714)
(5.45176e-07 4.98498e-06 0.091682)
(1.77351e-05 -6.73307e-06 0.0963084)
(4.94277e-07 1.13609e-05 0.0875544)
(8.32654e-06 8.00825e-06 0.081603)
(2.01074e-06 1.21423e-05 0.0815722)
(-4.60692e-06 4.1022e-06 0.0962668)
(1.61243e-05 -6.79083e-07 0.0917196)
(1.33583e-05 -6.29155e-06 0.0916999)
(-1.56804e-06 5.66998e-06 0.0815689)
(6.97357e-06 1.0747e-05 0.0962575)
(6.49053e-06 -5.79921e-07 0.0875825)
(1.95229e-05 -1.02138e-05 0.0962979)
(7.83757e-06 9.00058e-06 0.091661)
(-5.84457e-07 -1.65757e-06 0.0816006)
(1.48795e-05 -3.95146e-06 0.091705)
(1.18398e-06 9.46146e-06 0.0815681)
(-5.03891e-06 2.35446e-06 0.0962594)
(6.18338e-06 2.85833e-06 0.0875851)
(-1.05139e-06 1.31326e-06 0.0916662)
(8.16169e-06 7.67502e-06 0.081601)
(1.65975e-05 -9.26778e-06 0.0962992)
(5.29004e-06 2.47063e-06 0.0836339)
(-6.58582e-07 -1.72287e-06 0.0683592)
(3.45112e-06 3.83446e-06 0.0683644)
(-3.62289e-06 1.69766e-06 0.0683355)
(1.48587e-06 8.38548e-06 0.0683401)
(9.86871e-06 -3.42398e-06 0.0836613)
(8.40548e-07 8.35179e-06 0.0715592)
(6.92351e-06 4.11243e-06 0.0715966)
(2.82167e-06 -4.37753e-06 0.0768738)
(-3.89359e-06 -5.23122e-06 0.0786784)
(-9.08494e-06 -5.02544e-07 0.0899212)
(4.82931e-06 5.97076e-06 0.0913578)
(3.12095e-06 -3.047e-06 0.0786522)
(4.62455e-06 2.05312e-06 0.0898805)
(-4.52919e-06 -7.30908e-06 0.0769068)
(-3.44328e-06 -4.72528e-06 0.0684592)
(-7.00411e-06 -6.91089e-06 0.0822579)
(4.2565e-06 -2.69623e-07 0.0858078)
(-7.60324e-06 -1.9449e-06 0.0858545)
(2.71056e-06 -1.44223e-06 0.0684145)
(1.62223e-06 -4.64285e-06 0.0684145)
(-9.72197e-06 -4.65549e-06 0.0858653)
(4.70288e-06 -8.77423e-06 0.0822221)
(2.22291e-06 -4.04878e-06 0.0858198)
(-4.12621e-06 -7.09344e-06 0.0684598)
(-3.15935e-06 -3.57466e-06 0.0769032)
(-6.96005e-06 8.90916e-06 0.0913808)
(3.76981e-06 1.9978e-06 0.0786478)
(6.95084e-06 7.7666e-06 0.0898665)
(-3.11703e-06 -9.09211e-07 0.0786737)
(-6.76051e-06 4.9727e-06 0.0899079)
(4.19902e-06 1.33815e-07 0.0768711)
(-2.63092e-06 -4.65793e-06 0.0769167)
(3.71412e-06 2.65172e-06 0.0898837)
(3.09057e-06 -5.85212e-06 0.0786591)
(-9.43333e-06 -1.81259e-06 0.0914007)
(4.15394e-06 -4.31423e-06 0.0768854)
(-8.71502e-06 -3.83494e-07 0.089922)
(-3.75331e-06 -6.82044e-06 0.0786859)
(4.90661e-06 -6.5335e-06 0.0684195)
(7.8267e-06 -2.33062e-06 0.082237)
(-4.80435e-06 -6.08734e-06 0.0858667)
(-8.66951e-07 -5.81893e-06 0.068461)
(5.80589e-06 -3.98569e-06 0.0858241)
(-9.41387e-07 -4.0997e-06 0.0684588)
(5.09664e-06 -1.36085e-08 0.0858175)
(-5.385e-06 -2.84162e-06 0.0822707)
(4.4495e-06 -4.12917e-06 0.068418)
(-5.42239e-06 -2.67592e-06 0.0858595)
(4.03543e-06 -7.13383e-06 0.0768921)
(2.6877e-06 -4.49679e-06 0.0913772)
(-8.58122e-06 -5.47809e-06 0.0899325)
(-4.33826e-06 -7.87049e-06 0.0786932)
(-2.9761e-06 -6.6721e-06 0.0769235)
(3.96138e-06 -3.03991e-06 0.089894)
(2.56973e-06 -7.83468e-06 0.0786661)
(-5.5843e-06 -9.32165e-06 0.0769124)
(2.23842e-06 -6.50126e-06 0.0786576)
(2.25399e-06 -2.91066e-06 0.0898928)
(-1.02084e-05 -3.06738e-06 0.0914044)
(1.56586e-06 -7.30403e-06 0.0768785)
(-4.81336e-06 -7.78581e-06 0.0786846)
(-1.14603e-05 -4.84884e-06 0.0899325)
(1.15304e-06 -5.81687e-06 0.0684179)
(2.71343e-06 -5.98739e-06 0.0822337)
(-1.18641e-05 -5.48266e-06 0.0858823)
(-9.71062e-07 -6.44993e-06 0.0858384)
(-4.31858e-06 -6.4008e-06 0.0684644)
(-4.33831e-06 -7.71662e-06 0.0684612)
(1.21496e-07 -5.97107e-06 0.0858298)
(-9.54234e-06 -5.61668e-06 0.0822677)
(1.22523e-06 -6.16496e-06 0.0684156)
(-1.14111e-05 -5.88986e-06 0.0858746)
(7.19018e-07 -8.21139e-06 0.0768851)
(1.50288e-06 -5.44393e-06 0.0913807)
(-5.48928e-06 -8.29984e-06 0.0786921)
(-1.3377e-05 -7.57353e-06 0.0899421)
(1.39743e-06 -8.06327e-06 0.0786646)
(1.68239e-08 -6.52248e-06 0.0899033)
(-6.21715e-06 -8.99287e-06 0.0769196)
(-2.38297e-07 5.99735e-06 0.0768775)
(1.02158e-05 8.94627e-06 0.0899175)
(4.17167e-06 8.15705e-06 0.0786807)
(-1.67111e-06 1.32798e-05 0.0913669)
(-9.28733e-07 8.84081e-06 0.0898844)
(-1.84953e-06 9.29633e-06 0.0786553)
(6.04883e-06 6.73507e-06 0.0769076)
(6.58293e-06 5.25603e-06 0.0684566)
(1.1466e-05 1.04855e-06 0.0822622)
(-2.14349e-07 4.44905e-06 0.0858181)
(9.78278e-06 4.36897e-06 0.0858588)
(9.12997e-07 4.05871e-06 0.0684092)
(7.005e-07 3.89881e-06 0.0684219)
(8.18433e-06 5.59237e-06 0.0858595)
(-1.13745e-06 3.61796e-06 0.0822277)
(-2.06511e-06 5.48465e-06 0.0858203)
(5.99758e-06 5.48628e-06 0.0684678)
(6.91904e-06 7.92026e-06 0.0769047)
(1.23755e-05 1.27388e-05 0.0913967)
(1.73184e-06 7.86659e-06 0.0898838)
(-8.0725e-07 1.09992e-05 0.078654)
(1.31053e-05 8.42269e-06 0.0899185)
(5.10764e-06 1.06137e-05 0.0786809)
(5.27037e-07 7.39718e-06 0.0768737)
(-3.92286e-06 1.61005e-05 0.0768846)
(3.0712e-06 9.3819e-06 0.078682)
(2.31944e-06 1.91994e-05 0.0899116)
(-4.55335e-06 1.67684e-05 0.0913649)
(-3.12248e-06 1.19424e-05 0.0786573)
(-9.42169e-06 1.99233e-05 0.0898782)
(2.85115e-06 1.14442e-05 0.0769123)
(1.83989e-06 1.44948e-05 0.0684618)
(1.726e-06 1.57093e-05 0.0822728)
(-1.25159e-05 1.78707e-05 0.0858072)
(-1.8946e-06 1.78145e-05 0.0858465)
(-4.36923e-06 1.75091e-05 0.0684149)
(-3.35975e-06 1.30608e-05 0.0684272)
(-3.95481e-07 1.27633e-05 0.0858485)
(-9.97682e-06 1.05652e-05 0.0822361)
(-1.24122e-05 1.52614e-05 0.0858086)
(2.62363e-06 7.98514e-06 0.0684725)
(2.72921e-06 1.70543e-05 0.076914)
(9.5987e-06 1.61049e-05 0.0913944)
(-2.45237e-06 1.44319e-05 0.0786576)
(-6.32962e-06 1.74681e-05 0.0898772)
(3.6469e-06 1.33454e-05 0.0786836)
(4.56994e-06 1.94873e-05 0.0899118)
(-4.10911e-06 1.90725e-05 0.0768852)
(4.68384e-06 5.96384e-06 0.0769102)
(-3.60112e-06 9.05707e-06 0.0898827)
(-2.80495e-06 6.24833e-06 0.0786546)
(6.4032e-06 1.16631e-05 0.0913939)
(-1.37274e-06 5.07525e-06 0.0768801)
(8.13429e-06 8.87648e-06 0.089916)
(3.19359e-06 4.64837e-06 0.0786803)
(-2.14289e-06 4.13289e-06 0.0684336)
(-1.93546e-06 7.54302e-06 0.0822335)
(8.29983e-06 6.55497e-06 0.0858624)
(-2.88587e-06 7.37881e-06 0.0858217)
(2.54374e-06 4.8548e-06 0.0684738)
(4.48531e-06 5.78036e-06 0.0684738)
(-3.02363e-06 6.75341e-06 0.0858205)
(1.10054e-05 5.24909e-06 0.0822696)
(-3.39975e-07 4.28534e-06 0.0684309)
(7.90054e-06 6.65568e-06 0.0858598)
(-2.88426e-06 4.15716e-06 0.076883)
(-6.93929e-06 1.00708e-05 0.0913637)
(7.6376e-06 8.13184e-06 0.0899183)
(2.49016e-06 6.13281e-07 0.0786819)
(-4.96528e-06 8.697e-06 0.0898827)
(-3.71575e-06 2.42777e-06 0.078655)
(3.18853e-06 4.52723e-06 0.0769138)
(2.87265e-06 2.69243e-06 0.0769099)
(-3.67892e-06 6.90143e-06 0.0786553)
(-1.06302e-05 1.70148e-05 0.089878)