/*--------------------------------*- C++ -*----------------------------------*\
| =========                 |                                                 |
| \\      /  F ield         | OpenFOAM: The Open Source CFD Toolbox           |
|  \\    /   O peration     | Version:  v1906                                 |
|   \\  /    A nd           | Web:      www.OpenFOAM.com                      |
|    \\/     M anipulation  |                                                 |
\*---------------------------------------------------------------------------*/
FoamFile
{
    version     2.0;
    format      ascii;
    class       volScalarField;
    location    "0.25";
    object      p;
}
// * * * * * * * * * * * * * * * * * * * * * * * * * * * * * * * * * * * * * //

dimensions      [0 2 -2 0 0 0 0];


internalField   nonuniform List<scalar> 
247104
(
-1.33868e+143
-4.39295e+143
-4.34826e+143
-4.26026e+143
-4.16067e+143
-4.25993e+143
-4.34782e+143
-4.39167e+143
-4.43263e+143
-4.41612e+143
-4.39068e+143
-4.3592e+143
-4.34141e+143
-4.35908e+143
-4.39035e+143
-4.41553e+143
-4.44858e+143
-4.43766e+143
-4.42374e+143
-4.41041e+143
-4.40449e+143
-4.4103e+143
-4.42346e+143
-4.43717e+143
-4.44781e+143
-4.46227e+143
-4.45566e+143
-4.44788e+143
-4.44127e+143
-4.43859e+143
-4.44117e+143
-4.44764e+143
-4.45522e+143
-4.46156e+143
-4.47523e+143
-4.47374e+143
-4.47011e+143
-4.46575e+143
-4.46217e+143
-4.46075e+143
-4.46207e+143
-4.46553e+143
-4.4697e+143
-4.47305e+143
-4.48294e+143
-4.48144e+143
-4.47919e+143
-4.47726e+143
-4.47648e+143
-4.47716e+143
-4.47896e+143
-4.48101e+143
-4.48224e+143
-4.48983e+143
-4.48994e+143
-4.48919e+143
-4.48833e+143
-4.48794e+143
-4.48821e+143
-4.48893e+143
-4.48949e+143
-4.4891e+143
-4.49419e+143
-4.49572e+143
-4.49613e+143
-4.49606e+143
-4.49595e+143
-4.49593e+143
-4.49583e+143
-4.4952e+143
-4.5001e+143
-4.50065e+143
-4.50073e+143
-4.50049e+143
-4.49974e+143
-4.5071e+143
-4.50641e+143
-4.52098e+143
-4.52677e+143
-4.52474e+143
-4.52379e+143
-4.52537e+143
-4.51868e+143
-4.52145e+143
-4.53014e+143
-4.5376e+143
-4.55154e+143
-4.55068e+143
-4.55059e+143
-4.55131e+143
-4.53852e+143
-4.53684e+143
-4.54364e+143
-4.5574e+143
-4.55584e+143
-4.55504e+143
-4.55497e+143
-4.55564e+143
-4.55711e+143
-4.54477e+143
-4.53601e+143
-4.54012e+143
-4.54811e+143
-4.5609e+143
-4.55992e+143
-4.55935e+143
-4.55929e+143
-4.55976e+143
-4.56066e+143
-4.54994e+143
-4.54124e+143
-4.54428e+143
-4.55199e+143
-4.56434e+143
-4.56371e+143
-4.56333e+143
-4.56328e+143
-4.56358e+143
-4.56415e+143
-4.55393e+143
-4.5502e+143
-4.55506e+143
-4.56734e+143
-4.56705e+143
-4.56681e+143
-4.56678e+143
-4.56694e+143
-4.56717e+143
-4.55704e+143
-4.54873e+143
-4.5522e+143
-4.56113e+143
-4.56993e+143
-4.56973e+143
-4.5697e+143
-4.56986e+143
-4.56293e+143
-4.55845e+143
-4.55043e+143
-4.55282e+143
-4.55995e+143
-4.56251e+143
-4.56331e+143
-4.56338e+143
-4.56302e+143
-4.561e+143
-4.55562e+143
-4.55644e+143
-4.55758e+143
-4.5613e+143
-4.55719e+143
-4.5557e+143
-4.60577e+143
-4.60632e+143
-4.60866e+143
-4.61633e+143
-4.61656e+143
-4.61645e+143
-4.61649e+143
-4.60959e+143
-4.60877e+143
-4.61054e+143
-4.61967e+143
-4.63365e+143
-4.63356e+143
-4.63354e+143
-4.6336e+143
-4.62167e+143
-4.61819e+143
-4.61989e+143
-4.63501e+143
-4.6348e+143
-4.6347e+143
-4.63469e+143
-4.63476e+143
-4.63495e+143
-4.62212e+143
-4.6125e+143
-4.61245e+143
-4.62159e+143
-4.63604e+143
-4.63595e+143
-4.63589e+143
-4.63588e+143
-4.63591e+143
-4.63598e+143
-4.62413e+143
-4.61474e+143
-4.61422e+143
-4.62278e+143
-4.63705e+143
-4.63704e+143
-4.63702e+143
-4.63701e+143
-4.63701e+143
-4.637e+143
-4.62537e+143
-4.621e+143
-4.62364e+143
-4.63793e+143
-4.63801e+143
-4.63803e+143
-4.63802e+143
-4.63798e+143
-4.63788e+143
-4.62616e+143
-4.61681e+143
-4.61817e+143
-4.62808e+143
-4.63883e+143
-4.63884e+143
-4.63883e+143
-4.6388e+143
-4.63027e+143
-4.62532e+143
-4.61653e+143
-4.61742e+143
-4.6251e+143
-4.62778e+143
-4.62864e+143
-4.62872e+143
-4.62837e+143
-4.62629e+143
-4.62026e+143
-4.61929e+143
-4.62045e+143
-4.62502e+143
-4.62003e+143
-4.6186e+143
-4.68589e+143
-4.68655e+143
-4.68732e+143
-4.69535e+143
-4.69591e+143
-4.6959e+143
-4.69574e+143
-4.68878e+143
-4.68737e+143
-4.68776e+143
-4.69743e+143
-4.71151e+143
-4.71154e+143
-4.71154e+143
-4.71151e+143
-4.6997e+143
-4.69576e+143
-4.6962e+143
-4.71185e+143
-4.71189e+143
-4.71192e+143
-4.71192e+143
-4.71189e+143
-4.71185e+143
-4.69879e+143
-4.68876e+143
-4.68749e+143
-4.69714e+143
-4.71217e+143
-4.71224e+143
-4.71228e+143
-4.71228e+143
-4.71225e+143
-4.71217e+143
-4.69994e+143
-4.69018e+143
-4.68849e+143
-4.69749e+143
-4.71246e+143
-4.71255e+143
-4.7126e+143
-4.7126e+143
-4.71255e+143
-4.71246e+143
-4.70034e+143
-4.69568e+143
-4.69759e+143
-4.71268e+143
-4.7128e+143
-4.71285e+143
-4.71285e+143
-4.71279e+143
-4.71267e+143
-4.70034e+143
-4.69047e+143
-4.69105e+143
-4.70147e+143
-4.71296e+143
-4.71301e+143
-4.71301e+143
-4.71295e+143
-4.70382e+143
-4.69866e+143
-4.68943e+143
-4.68974e+143
-4.69772e+143
-4.70044e+143
-4.7013e+143
-4.70138e+143
-4.70104e+143
-4.69896e+143
-4.69262e+143
-4.69079e+143
-4.69193e+143
-4.69694e+143
-4.6915e+143
-4.69011e+143
-4.7647e+143
-4.7654e+143
-4.76583e+143
-4.77407e+143
-4.77468e+143
-4.77469e+143
-4.7745e+143
-4.76743e+143
-4.76587e+143
-4.76595e+143
-4.77586e+143
-4.79002e+143
-4.79004e+143
-4.79004e+143
-4.79003e+143
-4.77818e+143
-4.77415e+143
-4.7743e+143
-4.79011e+143
-4.79013e+143
-4.79014e+143
-4.79014e+143
-4.79013e+143
-4.79012e+143
-4.77694e+143
-4.76672e+143
-4.76512e+143
-4.775e+143
-4.7902e+143
-4.79023e+143
-4.79025e+143
-4.79025e+143
-4.79023e+143
-4.79021e+143
-4.77785e+143
-4.76793e+143
-4.76591e+143
-4.77511e+143
-4.79029e+143
-4.79032e+143
-4.79034e+143
-4.79034e+143
-4.79032e+143
-4.79029e+143
-4.77801e+143
-4.77332e+143
-4.775e+143
-4.79034e+143
-4.79038e+143
-4.7904e+143
-4.7904e+143
-4.79038e+143
-4.79034e+143
-4.77779e+143
-4.7677e+143
-4.76804e+143
-4.77867e+143
-4.79043e+143
-4.79044e+143
-4.79044e+143
-4.79043e+143
-4.78107e+143
-4.77586e+143
-4.76643e+143
-4.76651e+143
-4.77469e+143
-4.77741e+143
-4.77824e+143
-4.77831e+143
-4.778e+143
-4.77595e+143
-4.76945e+143
-4.7673e+143
-4.76844e+143
-4.77368e+143
-4.76801e+143
-4.76663e+143
-4.84428e+143
-4.84498e+143
-4.8453e+143
-4.85345e+143
-4.85401e+143
-4.85401e+143
-4.85383e+143
-4.84688e+143
-4.8453e+143
-4.84533e+143
-4.85506e+143
-4.86884e+143
-4.8688e+143
-4.86879e+143
-4.86883e+143
-4.85729e+143
-4.8534e+143
-4.85351e+143
-4.86886e+143
-4.86879e+143
-4.86874e+143
-4.86874e+143
-4.86877e+143
-4.86885e+143
-4.85602e+143
-4.84603e+143
-4.84439e+143
-4.85409e+143
-4.86884e+143
-4.86877e+143
-4.86873e+143
-4.86872e+143
-4.86876e+143
-4.86883e+143
-4.8568e+143
-4.84714e+143
-4.84511e+143
-4.85412e+143
-4.86886e+143
-4.86879e+143
-4.86875e+143
-4.86875e+143
-4.86878e+143
-4.86885e+143
-4.85689e+143
-4.85242e+143
-4.85397e+143
-4.86892e+143
-4.86884e+143
-4.86881e+143
-4.8688e+143
-4.86884e+143
-4.86891e+143
-4.85665e+143
-4.84678e+143
-4.84705e+143
-4.85742e+143
-4.86893e+143
-4.8689e+143
-4.8689e+143
-4.86894e+143
-4.85975e+143
-4.85474e+143
-4.8455e+143
-4.84548e+143
-4.85356e+143
-4.85615e+143
-4.85691e+143
-4.85697e+143
-4.85671e+143
-4.85476e+143
-4.84837e+143
-4.84619e+143
-4.84728e+143
-4.85253e+143
-4.84687e+143
-4.84556e+143
-4.92242e+143
-4.92309e+143
-4.92336e+143
-4.93118e+143
-4.93169e+143
-4.93169e+143
-4.93153e+143
-4.92487e+143
-4.92334e+143
-4.92337e+143
-4.93267e+143
-4.94584e+143
-4.94579e+143
-4.94578e+143
-4.94583e+143
-4.93478e+143
-4.9311e+143
-4.9312e+143
-4.94585e+143
-4.94574e+143
-4.94567e+143
-4.94567e+143
-4.94572e+143
-4.94583e+143
-4.93355e+143
-4.92402e+143
-4.92245e+143
-4.93172e+143
-4.9458e+143
-4.94568e+143
-4.94562e+143
-4.94561e+143
-4.94567e+143
-4.94578e+143
-4.93427e+143
-4.92506e+143
-4.92312e+143
-4.93172e+143
-4.9458e+143
-4.94568e+143
-4.94562e+143
-4.94562e+143
-4.94567e+143
-4.94579e+143
-4.93433e+143
-4.93012e+143
-4.93156e+143
-4.94586e+143
-4.94574e+143
-4.94568e+143
-4.94568e+143
-4.94573e+143
-4.94585e+143
-4.9341e+143
-4.92468e+143
-4.92492e+143
-4.93481e+143
-4.94585e+143
-4.9458e+143
-4.9458e+143
-4.94586e+143
-4.93703e+143
-4.93227e+143
-4.92345e+143
-4.92339e+143
-4.93114e+143
-4.93359e+143
-4.9343e+143
-4.93435e+143
-4.93412e+143
-4.93228e+143
-4.92615e+143
-4.92406e+143
-4.9251e+143
-4.93015e+143
-4.92471e+143
-4.92347e+143
-4.99746e+143
-4.9981e+143
-4.99837e+143
-5.00592e+143
-5.00644e+143
-5.00644e+143
-5.00628e+143
-4.99983e+143
-4.99835e+143
-4.99837e+143
-5.00738e+143
-5.02022e+143
-5.02018e+143
-5.02018e+143
-5.02022e+143
-5.00945e+143
-5.00585e+143
-5.00593e+143
-5.02022e+143
-5.02015e+143
-5.02011e+143
-5.02011e+143
-5.02014e+143
-5.02021e+143
-5.00825e+143
-4.99899e+143
-4.99747e+143
-5.00645e+143
-5.02019e+143
-5.02011e+143
-5.02007e+143
-5.02007e+143
-5.0201e+143
-5.02018e+143
-5.00895e+143
-4.99999e+143
-4.99811e+143
-5.00645e+143
-5.02019e+143
-5.02011e+143
-5.02007e+143
-5.02006e+143
-5.0201e+143
-5.02018e+143
-5.009e+143
-5.00487e+143
-5.00629e+143
-5.02022e+143
-5.02014e+143
-5.0201e+143
-5.0201e+143
-5.02014e+143
-5.02021e+143
-5.00877e+143
-4.99962e+143
-4.99984e+143
-5.00946e+143
-5.02022e+143
-5.02018e+143
-5.02018e+143
-5.02022e+143
-5.01162e+143
-5.00697e+143
-4.99842e+143
-4.99836e+143
-5.00586e+143
-5.00826e+143
-5.00896e+143
-5.00901e+143
-5.00877e+143
-5.00697e+143
-5.00103e+143
-4.999e+143
-5.00001e+143
-5.00488e+143
-4.99963e+143
-4.99842e+143
-5.07033e+143
-5.07096e+143
-5.07124e+143
-5.07873e+143
-5.07926e+143
-5.07927e+143
-5.0791e+143
-5.0727e+143
-5.07124e+143
-5.07124e+143
-5.08021e+143
-5.09299e+143
-5.09297e+143
-5.09297e+143
-5.09299e+143
-5.08229e+143
-5.07867e+143
-5.07873e+143
-5.09299e+143
-5.09295e+143
-5.09293e+143
-5.09293e+143
-5.09295e+143
-5.09298e+143
-5.08108e+143
-5.07186e+143
-5.07033e+143
-5.07927e+143
-5.09297e+143
-5.09293e+143
-5.09291e+143
-5.09291e+143
-5.09292e+143
-5.09296e+143
-5.08179e+143
-5.07286e+143
-5.07097e+143
-5.07927e+143
-5.09297e+143
-5.09293e+143
-5.09291e+143
-5.0929e+143
-5.09292e+143
-5.09296e+143
-5.08185e+143
-5.07768e+143
-5.0791e+143
-5.09299e+143
-5.09295e+143
-5.09293e+143
-5.09292e+143
-5.09294e+143
-5.09298e+143
-5.0816e+143
-5.07248e+143
-5.07271e+143
-5.08229e+143
-5.09298e+143
-5.09297e+143
-5.09296e+143
-5.09298e+143
-5.08445e+143
-5.07979e+143
-5.07127e+143
-5.07124e+143
-5.07867e+143
-5.08108e+143
-5.0818e+143
-5.08185e+143
-5.0816e+143
-5.07979e+143
-5.07389e+143
-5.07186e+143
-5.07287e+143
-5.07769e+143
-5.07248e+143
-5.07127e+143
-5.14264e+143
-5.14327e+143
-5.14354e+143
-5.15096e+143
-5.15148e+143
-5.15148e+143
-5.15132e+143
-5.14498e+143
-5.14354e+143
-5.14354e+143
-5.15241e+143
-5.165e+143
-5.16497e+143
-5.16497e+143
-5.165e+143
-5.15445e+143
-5.1509e+143
-5.15097e+143
-5.165e+143
-5.16494e+143
-5.1649e+143
-5.1649e+143
-5.16493e+143
-5.16499e+143
-5.15326e+143
-5.14415e+143
-5.14264e+143
-5.15148e+143
-5.16497e+143
-5.1649e+143
-5.16487e+143
-5.16487e+143
-5.1649e+143
-5.16496e+143
-5.15396e+143
-5.14514e+143
-5.14327e+143
-5.15148e+143
-5.16497e+143
-5.1649e+143
-5.16487e+143
-5.16486e+143
-5.16489e+143
-5.16496e+143
-5.15401e+143
-5.14993e+143
-5.15132e+143
-5.165e+143
-5.16493e+143
-5.1649e+143
-5.16489e+143
-5.16493e+143
-5.16499e+143
-5.15377e+143
-5.14476e+143
-5.14499e+143
-5.15445e+143
-5.16499e+143
-5.16496e+143
-5.16496e+143
-5.16499e+143
-5.15658e+143
-5.152e+143
-5.14357e+143
-5.14354e+143
-5.1509e+143
-5.15326e+143
-5.15396e+143
-5.15401e+143
-5.15377e+143
-5.152e+143
-5.14616e+143
-5.14415e+143
-5.14514e+143
-5.14993e+143
-5.14476e+143
-5.14357e+143
-5.21402e+143
-5.21463e+143
-5.21488e+143
-5.22209e+143
-5.22257e+143
-5.22257e+143
-5.22242e+143
-5.21628e+143
-5.21487e+143
-5.21488e+143
-5.22346e+143
-5.23563e+143
-5.23558e+143
-5.23558e+143
-5.23562e+143
-5.22542e+143
-5.22201e+143
-5.22209e+143
-5.23563e+143
-5.23555e+143
-5.2355e+143
-5.23549e+143
-5.23553e+143
-5.23561e+143
-5.22428e+143
-5.21548e+143
-5.21402e+143
-5.22257e+143
-5.23558e+143
-5.2355e+143
-5.23545e+143
-5.23544e+143
-5.23548e+143
-5.23557e+143
-5.22494e+143
-5.21643e+143
-5.21463e+143
-5.22257e+143
-5.23558e+143
-5.23549e+143
-5.23544e+143
-5.23544e+143
-5.23548e+143
-5.23557e+143
-5.22499e+143
-5.22108e+143
-5.22242e+143
-5.23562e+143
-5.23553e+143
-5.23548e+143
-5.23548e+143
-5.23553e+143
-5.23562e+143
-5.22477e+143
-5.21607e+143
-5.21628e+143
-5.22542e+143
-5.23561e+143
-5.23557e+143
-5.23557e+143
-5.23562e+143
-5.22747e+143
-5.22307e+143
-5.21493e+143
-5.21487e+143
-5.22201e+143
-5.22428e+143
-5.22494e+143
-5.22499e+143
-5.22477e+143
-5.22307e+143
-5.21742e+143
-5.21548e+143
-5.21643e+143
-5.22109e+143
-5.21607e+143
-5.21493e+143
-5.28312e+143
-5.28371e+143
-5.28396e+143
-5.29096e+143
-5.29145e+143
-5.29145e+143
-5.29129e+143
-5.28532e+143
-5.28395e+143
-5.28396e+143
-5.29232e+143
-5.30427e+143
-5.30425e+143
-5.30425e+143
-5.30427e+143
-5.29426e+143
-5.29089e+143
-5.29096e+143
-5.30427e+143
-5.30424e+143
-5.30422e+143
-5.30421e+143
-5.30423e+143
-5.30426e+143
-5.29313e+143
-5.28454e+143
-5.28312e+143
-5.29145e+143
-5.30425e+143
-5.30422e+143
-5.3042e+143
-5.3042e+143
-5.30421e+143
-5.30425e+143
-5.2938e+143
-5.28547e+143
-5.28371e+143
-5.29145e+143
-5.30425e+143
-5.30421e+143
-5.3042e+143
-5.30419e+143
-5.30421e+143
-5.30425e+143
-5.29384e+143
-5.28998e+143
-5.29129e+143
-5.30427e+143
-5.30423e+143
-5.30421e+143
-5.30421e+143
-5.30423e+143
-5.30426e+143
-5.29362e+143
-5.28512e+143
-5.28532e+143
-5.29426e+143
-5.30426e+143
-5.30425e+143
-5.30425e+143
-5.30426e+143
-5.29627e+143
-5.29194e+143
-5.284e+143
-5.28395e+143
-5.29089e+143
-5.29313e+143
-5.2938e+143
-5.29384e+143
-5.29362e+143
-5.29194e+143
-5.28643e+143
-5.28454e+143
-5.28547e+143
-5.28998e+143
-5.28512e+143
-5.284e+143
-5.35057e+143
-5.35117e+143
-5.35145e+143
-5.3585e+143
-5.35903e+143
-5.35904e+143
-5.35887e+143
-5.35283e+143
-5.35146e+143
-5.35145e+143
-5.35994e+143
-5.37212e+143
-5.37214e+143
-5.37214e+143
-5.37212e+143
-5.36194e+143
-5.35846e+143
-5.3585e+143
-5.37212e+143
-5.37216e+143
-5.37218e+143
-5.37219e+143
-5.37217e+143
-5.37213e+143
-5.36078e+143
-5.35203e+143
-5.35057e+143
-5.35903e+143
-5.37214e+143
-5.37218e+143
-5.37221e+143
-5.37221e+143
-5.37219e+143
-5.37215e+143
-5.36148e+143
-5.35299e+143
-5.35117e+143
-5.35904e+143
-5.37214e+143
-5.37219e+143
-5.37221e+143
-5.37221e+143
-5.37219e+143
-5.37215e+143
-5.36154e+143
-5.35751e+143
-5.35887e+143
-5.37212e+143
-5.37217e+143
-5.37219e+143
-5.37219e+143
-5.37217e+143
-5.37212e+143
-5.36128e+143
-5.35263e+143
-5.35283e+143
-5.36194e+143
-5.37213e+143
-5.37215e+143
-5.37215e+143
-5.37212e+143
-5.36401e+143
-5.35954e+143
-5.35147e+143
-5.35146e+143
-5.35846e+143
-5.36078e+143
-5.36149e+143
-5.36154e+143
-5.36128e+143
-5.35954e+143
-5.35396e+143
-5.35203e+143
-5.35299e+143
-5.35751e+143
-5.35263e+143
-5.35147e+143
-5.41882e+143
-5.41944e+143
-5.41973e+143
-5.42698e+143
-5.42754e+143
-5.42755e+143
-5.42737e+143
-5.42116e+143
-5.41975e+143
-5.41973e+143
-5.42847e+143
-5.44098e+143
-5.441e+143
-5.441e+143
-5.44098e+143
-5.43054e+143
-5.42695e+143
-5.42698e+143
-5.44098e+143
-5.44103e+143
-5.44106e+143
-5.44106e+143
-5.44104e+143
-5.44098e+143
-5.42934e+143
-5.42033e+143
-5.41882e+143
-5.42754e+143
-5.441e+143
-5.44106e+143
-5.44109e+143
-5.44109e+143
-5.44106e+143
-5.44101e+143
-5.43007e+143
-5.42132e+143
-5.41944e+143
-5.42755e+143
-5.441e+143
-5.44106e+143
-5.44109e+143
-5.44109e+143
-5.44106e+143
-5.44101e+143
-5.43013e+143
-5.42597e+143
-5.42737e+143
-5.44098e+143
-5.44104e+143
-5.44106e+143
-5.44106e+143
-5.44104e+143
-5.44098e+143
-5.42986e+143
-5.42095e+143
-5.42116e+143
-5.43054e+143
-5.44098e+143
-5.44101e+143
-5.44101e+143
-5.44098e+143
-5.43267e+143
-5.42806e+143
-5.41975e+143
-5.41975e+143
-5.42695e+143
-5.42934e+143
-5.43007e+143
-5.43013e+143
-5.42986e+143
-5.42806e+143
-5.42232e+143
-5.42033e+143
-5.42132e+143
-5.42597e+143
-5.42095e+143
-5.41975e+143
-5.48877e+143
-5.48939e+143
-5.48968e+143
-5.49701e+143
-5.49756e+143
-5.49757e+143
-5.49739e+143
-5.49112e+143
-5.48969e+143
-5.48968e+143
-5.49849e+143
-5.51106e+143
-5.51106e+143
-5.51107e+143
-5.51106e+143
-5.50056e+143
-5.49697e+143
-5.49701e+143
-5.51106e+143
-5.51107e+143
-5.51108e+143
-5.51108e+143
-5.51108e+143
-5.51106e+143
-5.49936e+143
-5.49029e+143
-5.48877e+143
-5.49756e+143
-5.51106e+143
-5.51108e+143
-5.51109e+143
-5.5111e+143
-5.51109e+143
-5.51107e+143
-5.50008e+143
-5.49129e+143
-5.48939e+143
-5.49757e+143
-5.51107e+143
-5.51108e+143
-5.5111e+143
-5.5111e+143
-5.51109e+143
-5.51107e+143
-5.50014e+143
-5.496e+143
-5.49739e+143
-5.51106e+143
-5.51108e+143
-5.51109e+143
-5.51109e+143
-5.51108e+143
-5.51106e+143
-5.49988e+143
-5.49091e+143
-5.49112e+143
-5.50056e+143
-5.51106e+143
-5.51107e+143
-5.51107e+143
-5.51106e+143
-5.5027e+143
-5.49809e+143
-5.48971e+143
-5.48969e+143
-5.49697e+143
-5.49936e+143
-5.50008e+143
-5.50014e+143
-5.49988e+143
-5.49809e+143
-5.4923e+143
-5.49029e+143
-5.49129e+143
-5.496e+143
-5.49091e+143
-5.48971e+143
-5.55929e+143
-5.55991e+143
-5.56019e+143
-5.56751e+143
-5.56804e+143
-5.56805e+143
-5.56788e+143
-5.56162e+143
-5.5602e+143
-5.56019e+143
-5.56897e+143
-5.5815e+143
-5.5815e+143
-5.5815e+143
-5.5815e+143
-5.57102e+143
-5.56746e+143
-5.56751e+143
-5.5815e+143
-5.5815e+143
-5.5815e+143
-5.5815e+143
-5.5815e+143
-5.5815e+143
-5.56983e+143
-5.5608e+143
-5.55929e+143
-5.56804e+143
-5.5815e+143
-5.5815e+143
-5.5815e+143
-5.5815e+143
-5.5815e+143
-5.5815e+143
-5.57055e+143
-5.56179e+143
-5.55991e+143
-5.56805e+143
-5.5815e+143
-5.5815e+143
-5.5815e+143
-5.5815e+143
-5.5815e+143
-5.5815e+143
-5.5706e+143
-5.56649e+143
-5.56788e+143
-5.5815e+143
-5.5815e+143
-5.5815e+143
-5.5815e+143
-5.5815e+143
-5.5815e+143
-5.57035e+143
-5.56141e+143
-5.56162e+143
-5.57102e+143
-5.5815e+143
-5.5815e+143
-5.5815e+143
-5.5815e+143
-5.57315e+143
-5.56857e+143
-5.56023e+143
-5.5602e+143
-5.56746e+143
-5.56983e+143
-5.57055e+143
-5.5706e+143
-5.57035e+143
-5.56857e+143
-5.56279e+143
-5.5608e+143
-5.56179e+143
-5.56649e+143
-5.56141e+143
-5.56023e+143
-5.62982e+143
-5.63044e+143
-5.63072e+143
-5.63803e+143
-5.63855e+143
-5.63856e+143
-5.63839e+143
-5.63215e+143
-5.63072e+143
-5.63072e+143
-5.63948e+143
-5.65193e+143
-5.65192e+143
-5.65192e+143
-5.65193e+143
-5.64151e+143
-5.63798e+143
-5.63803e+143
-5.65193e+143
-5.6519e+143
-5.65188e+143
-5.65188e+143
-5.6519e+143
-5.65193e+143
-5.64033e+143
-5.63132e+143
-5.62982e+143
-5.63856e+143
-5.65192e+143
-5.65188e+143
-5.65186e+143
-5.65186e+143
-5.65188e+143
-5.65191e+143
-5.64103e+143
-5.6323e+143
-5.63044e+143
-5.63856e+143
-5.65192e+143
-5.65188e+143
-5.65186e+143
-5.65186e+143
-5.65188e+143
-5.65191e+143
-5.64108e+143
-5.63701e+143
-5.6384e+143
-5.65193e+143
-5.6519e+143
-5.65188e+143
-5.65188e+143
-5.65189e+143
-5.65193e+143
-5.64083e+143
-5.63193e+143
-5.63215e+143
-5.64151e+143
-5.65193e+143
-5.65191e+143
-5.65191e+143
-5.65193e+143
-5.64362e+143
-5.63907e+143
-5.63074e+143
-5.63072e+143
-5.63798e+143
-5.64033e+143
-5.64103e+143
-5.64108e+143
-5.64084e+143
-5.63907e+143
-5.63331e+143
-5.63132e+143
-5.63231e+143
-5.63701e+143
-5.63193e+143
-5.63074e+143
-5.70028e+143
-5.70089e+143
-5.70114e+143
-5.70829e+143
-5.70877e+143
-5.70877e+143
-5.70862e+143
-5.70252e+143
-5.70113e+143
-5.70114e+143
-5.70966e+143
-5.72169e+143
-5.72163e+143
-5.72163e+143
-5.72168e+143
-5.71159e+143
-5.70822e+143
-5.70829e+143
-5.72169e+143
-5.72158e+143
-5.72152e+143
-5.72152e+143
-5.72157e+143
-5.72167e+143
-5.71046e+143
-5.70172e+143
-5.70028e+143
-5.70877e+143
-5.72163e+143
-5.72152e+143
-5.72146e+143
-5.72146e+143
-5.72151e+143
-5.72162e+143
-5.71111e+143
-5.70267e+143
-5.70089e+143
-5.70877e+143
-5.72163e+143
-5.72152e+143
-5.72146e+143
-5.72145e+143
-5.72151e+143
-5.72162e+143
-5.71116e+143
-5.7073e+143
-5.70862e+143
-5.72168e+143
-5.72157e+143
-5.72151e+143
-5.72151e+143
-5.72156e+143
-5.72167e+143
-5.71094e+143
-5.70231e+143
-5.70252e+143
-5.71159e+143
-5.72167e+143
-5.72162e+143
-5.72162e+143
-5.72167e+143
-5.71362e+143
-5.70926e+143
-5.70117e+143
-5.70113e+143
-5.70822e+143
-5.71046e+143
-5.71111e+143
-5.71116e+143
-5.71094e+143
-5.70926e+143
-5.70365e+143
-5.70172e+143
-5.70267e+143
-5.7073e+143
-5.70231e+143
-5.70117e+143
-5.76887e+143
-5.76945e+143
-5.76967e+143
-5.77645e+143
-5.77687e+143
-5.77686e+143
-5.77673e+143
-5.77097e+143
-5.76964e+143
-5.76967e+143
-5.7777e+143
-5.78905e+143
-5.78897e+143
-5.78897e+143
-5.78903e+143
-5.7795e+143
-5.77636e+143
-5.77645e+143
-5.78905e+143
-5.78891e+143
-5.78883e+143
-5.78882e+143
-5.78888e+143
-5.78902e+143
-5.77845e+143
-5.77022e+143
-5.76887e+143
-5.77687e+143
-5.78897e+143
-5.78883e+143
-5.78874e+143
-5.78874e+143
-5.78881e+143
-5.78895e+143
-5.77904e+143
-5.77111e+143
-5.76945e+143
-5.77686e+143
-5.78897e+143
-5.78882e+143
-5.78874e+143
-5.78873e+143
-5.7888e+143
-5.78895e+143
-5.77908e+143
-5.7755e+143
-5.77673e+143
-5.78903e+143
-5.78888e+143
-5.78881e+143
-5.7888e+143
-5.78888e+143
-5.78902e+143
-5.7789e+143
-5.77078e+143
-5.77097e+143
-5.7795e+143
-5.78902e+143
-5.78895e+143
-5.78895e+143
-5.78902e+143
-5.7814e+143
-5.77733e+143
-5.76971e+143
-5.76964e+143
-5.77636e+143
-5.77845e+143
-5.77904e+143
-5.77908e+143
-5.7789e+143
-5.77733e+143
-5.77203e+143
-5.77022e+143
-5.77111e+143
-5.7755e+143
-5.77078e+143
-5.76971e+143
-5.83387e+143
-5.83442e+143
-5.83463e+143
-5.84108e+143
-5.8415e+143
-5.84149e+143
-5.84136e+143
-5.83587e+143
-5.83461e+143
-5.83463e+143
-5.84229e+143
-5.85317e+143
-5.85311e+143
-5.85311e+143
-5.85316e+143
-5.84402e+143
-5.841e+143
-5.84108e+143
-5.85317e+143
-5.85306e+143
-5.853e+143
-5.85299e+143
-5.85304e+143
-5.85315e+143
-5.84301e+143
-5.83515e+143
-5.83387e+143
-5.8415e+143
-5.85311e+143
-5.853e+143
-5.85293e+143
-5.85293e+143
-5.85298e+143
-5.85309e+143
-5.84359e+143
-5.836e+143
-5.83442e+143
-5.84149e+143
-5.85311e+143
-5.85299e+143
-5.85293e+143
-5.85292e+143
-5.85298e+143
-5.85309e+143
-5.84363e+143
-5.84017e+143
-5.84136e+143
-5.85316e+143
-5.85304e+143
-5.85298e+143
-5.85298e+143
-5.85303e+143
-5.85314e+143
-5.84344e+143
-5.83568e+143
-5.83587e+143
-5.84402e+143
-5.85315e+143
-5.85309e+143
-5.85309e+143
-5.85314e+143
-5.84585e+143
-5.84193e+143
-5.83466e+143
-5.83461e+143
-5.841e+143
-5.84301e+143
-5.84359e+143
-5.84363e+143
-5.84344e+143
-5.84193e+143
-5.83688e+143
-5.83515e+143
-5.836e+143
-5.84017e+143
-5.83568e+143
-5.83467e+143
-5.896e+143
-5.89653e+143
-5.89675e+143
-5.90303e+143
-5.90345e+143
-5.90345e+143
-5.90331e+143
-5.89797e+143
-5.89674e+143
-5.89675e+143
-5.90423e+143
-5.91487e+143
-5.91483e+143
-5.91483e+143
-5.91486e+143
-5.90594e+143
-5.90296e+143
-5.90303e+143
-5.91487e+143
-5.9148e+143
-5.91477e+143
-5.91476e+143
-5.91479e+143
-5.91486e+143
-5.90494e+143
-5.89726e+143
-5.896e+143
-5.90345e+143
-5.91483e+143
-5.91477e+143
-5.91473e+143
-5.91472e+143
-5.91476e+143
-5.91482e+143
-5.90552e+143
-5.8981e+143
-5.89653e+143
-5.90345e+143
-5.91483e+143
-5.91476e+143
-5.91472e+143
-5.91472e+143
-5.91475e+143
-5.91482e+143
-5.90556e+143
-5.90214e+143
-5.90332e+143
-5.91486e+143
-5.91479e+143
-5.91476e+143
-5.91475e+143
-5.91479e+143
-5.91486e+143
-5.90537e+143
-5.89778e+143
-5.89797e+143
-5.90594e+143
-5.91486e+143
-5.91482e+143
-5.91482e+143
-5.91486e+143
-5.90773e+143
-5.90388e+143
-5.89678e+143
-5.89674e+143
-5.90296e+143
-5.90494e+143
-5.90552e+143
-5.90556e+143
-5.90537e+143
-5.90388e+143
-5.89895e+143
-5.89726e+143
-5.8981e+143
-5.90214e+143
-5.89778e+143
-5.89678e+143
-5.95637e+143
-5.95689e+143
-5.95712e+143
-5.9633e+143
-5.96374e+143
-5.96374e+143
-5.9636e+143
-5.95832e+143
-5.95712e+143
-5.95712e+143
-5.96451e+143
-5.9751e+143
-5.9751e+143
-5.9751e+143
-5.9751e+143
-5.96624e+143
-5.96324e+143
-5.9633e+143
-5.9751e+143
-5.97509e+143
-5.97509e+143
-5.97509e+143
-5.97509e+143
-5.9751e+143
-5.96524e+143
-5.95763e+143
-5.95637e+143
-5.96374e+143
-5.9751e+143
-5.97509e+143
-5.97509e+143
-5.97509e+143
-5.97509e+143
-5.9751e+143
-5.96583e+143
-5.95846e+143
-5.95689e+143
-5.96374e+143
-5.9751e+143
-5.97509e+143
-5.97509e+143
-5.97509e+143
-5.97509e+143
-5.9751e+143
-5.96588e+143
-5.96243e+143
-5.9636e+143
-5.9751e+143
-5.97509e+143
-5.97509e+143
-5.97509e+143
-5.97509e+143
-5.9751e+143
-5.96567e+143
-5.95815e+143
-5.95832e+143
-5.96624e+143
-5.9751e+143
-5.9751e+143
-5.9751e+143
-5.9751e+143
-5.96803e+143
-5.96417e+143
-5.95716e+143
-5.95712e+143
-5.96324e+143
-5.96524e+143
-5.96583e+143
-5.96588e+143
-5.96567e+143
-5.96417e+143
-5.95931e+143
-5.95763e+143
-5.95846e+143
-5.96243e+143
-5.95815e+143
-5.95716e+143
-6.01588e+143
-6.01641e+143
-6.01667e+143
-6.02296e+143
-6.02346e+143
-6.02347e+143
-6.02331e+143
-6.01791e+143
-6.01668e+143
-6.01667e+143
-6.02427e+143
-6.03522e+143
-6.03526e+143
-6.03526e+143
-6.03523e+143
-6.02609e+143
-6.02294e+143
-6.02296e+143
-6.03522e+143
-6.03529e+143
-6.03533e+143
-6.03533e+143
-6.0353e+143
-6.03523e+143
-6.02504e+143
-6.01719e+143
-6.01588e+143
-6.02346e+143
-6.03526e+143
-6.03533e+143
-6.03537e+143
-6.03537e+143
-6.03534e+143
-6.03527e+143
-6.02568e+143
-6.01805e+143
-6.01641e+143
-6.02347e+143
-6.03526e+143
-6.03533e+143
-6.03537e+143
-6.03537e+143
-6.03534e+143
-6.03527e+143
-6.02574e+143
-6.02208e+143
-6.02331e+143
-6.03523e+143
-6.0353e+143
-6.03534e+143
-6.03534e+143
-6.0353e+143
-6.03523e+143
-6.02549e+143
-6.01772e+143
-6.01791e+143
-6.02609e+143
-6.03523e+143
-6.03527e+143
-6.03527e+143
-6.03523e+143
-6.02795e+143
-6.02391e+143
-6.01668e+143
-6.01668e+143
-6.02294e+143
-6.02504e+143
-6.02568e+143
-6.02574e+143
-6.02549e+143
-6.02391e+143
-6.01892e+143
-6.01719e+143
-6.01805e+143
-6.02208e+143
-6.01772e+143
-6.01668e+143
-6.07698e+143
-6.07754e+143
-6.07781e+143
-6.08437e+143
-6.08488e+143
-6.0849e+143
-6.08474e+143
-6.07911e+143
-6.07784e+143
-6.07781e+143
-6.08573e+143
-6.09704e+143
-6.09706e+143
-6.09706e+143
-6.09704e+143
-6.08761e+143
-6.08435e+143
-6.08437e+143
-6.09704e+143
-6.09708e+143
-6.09711e+143
-6.09712e+143
-6.09709e+143
-6.09705e+143
-6.08652e+143
-6.07836e+143
-6.07698e+143
-6.08488e+143
-6.09706e+143
-6.09711e+143
-6.09714e+143
-6.09714e+143
-6.09712e+143
-6.09707e+143
-6.08719e+143
-6.07926e+143
-6.07754e+143
-6.0849e+143
-6.09706e+143
-6.09712e+143
-6.09714e+143
-6.09714e+143
-6.09712e+143
-6.09707e+143
-6.08724e+143
-6.08346e+143
-6.08474e+143
-6.09704e+143
-6.09709e+143
-6.09712e+143
-6.09712e+143
-6.0971e+143
-6.09704e+143
-6.08699e+143
-6.07891e+143
-6.07911e+143
-6.08761e+143
-6.09705e+143
-6.09707e+143
-6.09707e+143
-6.09704e+143
-6.08954e+143
-6.08536e+143
-6.07782e+143
-6.07784e+143
-6.08435e+143
-6.08652e+143
-6.08719e+143
-6.08724e+143
-6.08699e+143
-6.08536e+143
-6.08016e+143
-6.07836e+143
-6.07926e+143
-6.08346e+143
-6.07891e+143
-6.07782e+143
-6.14025e+143
-6.14081e+143
-6.14105e+143
-6.1476e+143
-6.14806e+143
-6.14807e+143
-6.14792e+143
-6.14233e+143
-6.14105e+143
-6.14105e+143
-6.14888e+143
-6.16001e+143
-6.15999e+143
-6.15999e+143
-6.16e+143
-6.1507e+143
-6.14755e+143
-6.1476e+143
-6.16001e+143
-6.15998e+143
-6.15997e+143
-6.15997e+143
-6.15998e+143
-6.16e+143
-6.14965e+143
-6.1416e+143
-6.14025e+143
-6.14806e+143
-6.15999e+143
-6.15997e+143
-6.15995e+143
-6.15995e+143
-6.15997e+143
-6.15999e+143
-6.15027e+143
-6.14248e+143
-6.14081e+143
-6.14807e+143
-6.15999e+143
-6.15997e+143
-6.15995e+143
-6.15995e+143
-6.15997e+143
-6.15999e+143
-6.15032e+143
-6.14669e+143
-6.14792e+143
-6.16e+143
-6.15998e+143
-6.15997e+143
-6.15997e+143
-6.15998e+143
-6.16001e+143
-6.1501e+143
-6.14215e+143
-6.14233e+143
-6.1507e+143
-6.16e+143
-6.15999e+143
-6.15999e+143
-6.16001e+143
-6.15259e+143
-6.14853e+143
-6.14109e+143
-6.14105e+143
-6.14755e+143
-6.14965e+143
-6.15027e+143
-6.15032e+143
-6.1501e+143
-6.14853e+143
-6.14338e+143
-6.1416e+143
-6.14248e+143
-6.1467e+143
-6.14215e+143
-6.14109e+143
-6.20296e+143
-6.2035e+143
-6.20373e+143
-6.21013e+143
-6.21058e+143
-6.21058e+143
-6.21044e+143
-6.20498e+143
-6.20373e+143
-6.20373e+143
-6.21139e+143
-6.2223e+143
-6.22228e+143
-6.22228e+143
-6.2223e+143
-6.21316e+143
-6.21007e+143
-6.21013e+143
-6.2223e+143
-6.22227e+143
-6.22225e+143
-6.22225e+143
-6.22226e+143
-6.22229e+143
-6.21213e+143
-6.20426e+143
-6.20296e+143
-6.21058e+143
-6.22228e+143
-6.22225e+143
-6.22223e+143
-6.22223e+143
-6.22225e+143
-6.22228e+143
-6.21274e+143
-6.20512e+143
-6.2035e+143
-6.21058e+143
-6.22228e+143
-6.22225e+143
-6.22223e+143
-6.22223e+143
-6.22224e+143
-6.22228e+143
-6.21278e+143
-6.20924e+143
-6.21044e+143
-6.2223e+143
-6.22226e+143
-6.22225e+143
-6.22224e+143
-6.22226e+143
-6.22229e+143
-6.21257e+143
-6.2048e+143
-6.20498e+143
-6.21316e+143
-6.22229e+143
-6.22228e+143
-6.22228e+143
-6.22229e+143
-6.215e+143
-6.21103e+143
-6.20377e+143
-6.20373e+143
-6.21007e+143
-6.21213e+143
-6.21274e+143
-6.21278e+143
-6.21257e+143
-6.21103e+143
-6.20599e+143
-6.20426e+143
-6.20512e+143
-6.20924e+143
-6.2048e+143
-6.20377e+143
-6.26466e+143
-6.26521e+143
-6.26544e+143
-6.27181e+143
-6.27227e+143
-6.27227e+143
-6.27213e+143
-6.26669e+143
-6.26544e+143
-6.26544e+143
-6.27307e+143
-6.28391e+143
-6.28389e+143
-6.28389e+143
-6.28391e+143
-6.27483e+143
-6.27176e+143
-6.27182e+143
-6.28391e+143
-6.28387e+143
-6.28385e+143
-6.28384e+143
-6.28386e+143
-6.2839e+143
-6.2738e+143
-6.26596e+143
-6.26466e+143
-6.27227e+143
-6.28389e+143
-6.28385e+143
-6.28382e+143
-6.28382e+143
-6.28384e+143
-6.28388e+143
-6.27441e+143
-6.26682e+143
-6.26521e+143
-6.27227e+143
-6.28389e+143
-6.28384e+143
-6.28382e+143
-6.28382e+143
-6.28384e+143
-6.28388e+143
-6.27446e+143
-6.27092e+143
-6.27213e+143
-6.28391e+143
-6.28386e+143
-6.28384e+143
-6.28384e+143
-6.28386e+143
-6.2839e+143
-6.27424e+143
-6.26649e+143
-6.26669e+143
-6.27483e+143
-6.2839e+143
-6.28388e+143
-6.28388e+143
-6.2839e+143
-6.27666e+143
-6.27271e+143
-6.26546e+143
-6.26545e+143
-6.27176e+143
-6.27381e+143
-6.27441e+143
-6.27446e+143
-6.27424e+143
-6.27271e+143
-6.26769e+143
-6.26597e+143
-6.26682e+143
-6.27092e+143
-6.26649e+143
-6.26546e+143
-6.32605e+143
-6.32658e+143
-6.3268e+143
-6.33302e+143
-6.33344e+143
-6.33344e+143
-6.33331e+143
-6.32801e+143
-6.32679e+143
-6.3268e+143
-6.33421e+143
-6.3447e+143
-6.34466e+143
-6.34465e+143
-6.34469e+143
-6.3359e+143
-6.33296e+143
-6.33302e+143
-6.3447e+143
-6.34462e+143
-6.34457e+143
-6.34457e+143
-6.34461e+143
-6.34468e+143